/*--------------------------------*- C++ -*----------------------------------*\
  =========                 |
  \\      /  F ield         | OpenFOAM: The Open Source CFD Toolbox
   \\    /   O peration     | Website:  https://openfoam.org
    \\  /    A nd           | Version:  6
     \\/     M anipulation  |
\*---------------------------------------------------------------------------*/
FoamFile
{
    version     2.0;
    format      ascii;
    class       volScalarField;
    location    "810";
    object      p;
}
// * * * * * * * * * * * * * * * * * * * * * * * * * * * * * * * * * * * * * //

dimensions      [1 -1 -2 0 0 0 0];

internalField   nonuniform List<scalar> 
5964
(
103800
103800
103800
103800
103800
103800
103800
103800
103800
103800
103800
103800
103800
103800
103800
103800
103800
103800
103800
103800
103800
103800
103800
103794
103790
103787
103784
103781
103779
103777
103774
103773
103771
103769
103767
103766
103764
103763
103761
103760
103759
103757
103756
103755
103754
103753
103751
103750
103749
103748
103747
103746
103746
103745
103744
103743
103742
103741
103741
103740
103739
103739
103738
103738
103737
103736
103736
103735
103735
103735
103734
103734
103734
103733
103733
103733
103733
103732
103732
103732
103732
103732
103732
103732
103740
103740
103740
103739
103740
103740
103740
103740
103740
103740
103740
103740
103740
103740
103740
103740
103740
103740
103740
103740
103740
103740
103739
103735
103731
103728
103725
103722
103720
103718
103716
103714
103712
103710
103709
103707
103706
103704
103703
103701
103700
103699
103697
103696
103695
103694
103693
103692
103691
103690
103689
103688
103687
103686
103685
103684
103684
103683
103682
103681
103681
103680
103679
103679
103678
103678
103677
103677
103676
103676
103676
103675
103675
103675
103674
103674
103674
103674
103674
103673
103673
103673
103673
103673
103679
103679
103679
103679
103679
103679
103679
103679
103679
103679
103679
103679
103679
103679
103679
103679
103679
103679
103679
103679
103679
103679
103677
103674
103671
103668
103666
103663
103661
103659
103657
103655
103653
103652
103650
103648
103647
103645
103644
103643
103641
103640
103639
103638
103636
103635
103634
103633
103632
103631
103630
103629
103628
103627
103626
103626
103625
103624
103623
103623
103622
103621
103621
103620
103620
103619
103619
103618
103618
103617
103617
103617
103616
103616
103616
103615
103615
103615
103615
103615
103615
103615
103614
103614
103619
103619
103619
103619
103619
103619
103619
103619
103619
103619
103619
103619
103619
103619
103619
103619
103619
103619
103619
103619
103619
103619
103617
103614
103611
103609
103606
103604
103602
103600
103598
103596
103594
103593
103591
103590
103588
103587
103585
103584
103583
103581
103580
103579
103578
103577
103575
103574
103573
103572
103571
103570
103569
103569
103568
103567
103566
103565
103565
103564
103563
103563
103562
103561
103561
103560
103560
103559
103559
103559
103558
103558
103558
103557
103557
103557
103557
103556
103556
103556
103556
103556
103556
103556
103558
103558
103558
103558
103558
103558
103558
103558
103558
103558
103558
103558
103558
103558
103558
103558
103558
103558
103558
103558
103558
103558
103556
103554
103552
103549
103547
103545
103543
103541
103539
103537
103535
103534
103532
103531
103529
103528
103526
103525
103524
103522
103521
103520
103519
103518
103517
103516
103515
103514
103513
103512
103511
103510
103509
103508
103507
103507
103506
103505
103505
103504
103503
103503
103502
103502
103501
103501
103500
103500
103499
103499
103499
103499
103498
103498
103498
103498
103497
103497
103497
103497
103497
103497
103498
103498
103498
103498
103498
103498
103498
103498
103498
103498
103498
103498
103498
103498
103498
103498
103498
103498
103498
103498
103498
103498
103496
103494
103492
103490
103487
103485
103483
103482
103480
103478
103476
103475
103473
103472
103470
103469
103468
103466
103465
103464
103462
103461
103460
103459
103458
103457
103456
103455
103454
103453
103452
103451
103450
103449
103449
103448
103447
103446
103446
103445
103445
103444
103443
103443
103442
103442
103442
103441
103441
103440
103440
103440
103439
103439
103439
103439
103439
103439
103438
103438
103438
103438
103437
103437
103437
103437
103437
103437
103437
103437
103437
103437
103437
103437
103437
103437
103437
103437
103437
103437
103437
103437
103437
103437
103435
103434
103432
103430
103428
103426
103424
103422
103421
103419
103417
103416
103414
103413
103411
103410
103409
103407
103406
103405
103404
103402
103401
103400
103399
103398
103397
103396
103395
103394
103393
103392
103391
103391
103390
103389
103388
103388
103387
103386
103386
103385
103385
103384
103384
103383
103383
103382
103382
103382
103381
103381
103381
103380
103380
103380
103380
103380
103380
103380
103380
103379
103377
103377
103377
103377
103377
103377
103377
103377
103377
103377
103377
103377
103377
103377
103377
103377
103377
103377
103377
103377
103377
103377
103375
103374
103372
103370
103368
103366
103365
103363
103361
103360
103358
103357
103355
103354
103352
103351
103350
103349
103347
103346
103345
103344
103342
103341
103340
103339
103338
103337
103336
103335
103334
103334
103333
103332
103331
103330
103330
103329
103328
103328
103327
103326
103326
103325
103325
103324
103324
103324
103323
103323
103322
103322
103322
103322
103321
103321
103321
103321
103321
103321
103321
103321
103317
103317
103316
103316
103316
103316
103316
103316
103316
103316
103316
103316
103316
103316
103316
103316
103316
103316
103316
103316
103316
103316
103315
103313
103312
103310
103309
103307
103305
103304
103302
103301
103299
103298
103296
103295
103294
103292
103291
103290
103288
103287
103286
103285
103284
103282
103281
103280
103279
103278
103277
103276
103276
103275
103274
103273
103272
103271
103271
103270
103269
103269
103268
103268
103267
103266
103266
103266
103265
103265
103264
103264
103264
103263
103263
103263
103263
103262
103262
103262
103262
103262
103262
103262
103256
103256
103256
103256
103256
103256
103256
103256
103256
103256
103256
103256
103256
103256
103256
103256
103256
103256
103256
103256
103256
103256
103255
103254
103252
103251
103249
103247
103246
103244
103243
103241
103240
103239
103237
103236
103235
103233
103232
103231
103229
103228
103227
103226
103225
103224
103223
103221
103220
103219
103219
103218
103217
103216
103215
103214
103213
103213
103212
103211
103211
103210
103209
103209
103208
103208
103207
103207
103206
103206
103205
103205
103205
103204
103204
103204
103204
103204
103203
103203
103203
103203
103203
103203
103196
103196
103196
103196
103196
103196
103196
103196
103196
103196
103196
103195
103196
103196
103196
103196
103196
103196
103196
103196
103196
103196
103195
103194
103192
103191
103189
103188
103186
103185
103184
103182
103181
103180
103178
103177
103176
103174
103173
103172
103170
103169
103168
103167
103166
103165
103164
103163
103162
103161
103160
103159
103158
103157
103156
103155
103154
103154
103153
103152
103152
103151
103150
103150
103149
103149
103148
103148
103147
103147
103147
103146
103146
103146
103145
103145
103145
103145
103145
103144
103144
103144
103144
103144
103135
103135
103135
103135
103135
103135
103135
103135
103135
103135
103135
103135
103135
103135
103135
103135
103135
103135
103135
103135
103135
103135
103135
103134
103132
103131
103130
103128
103127
103126
103124
103123
103122
103120
103119
103118
103117
103115
103114
103113
103112
103110
103109
103108
103107
103106
103105
103104
103103
103102
103101
103100
103099
103098
103097
103096
103096
103095
103094
103093
103093
103092
103091
103091
103090
103090
103089
103089
103088
103088
103088
103087
103087
103087
103086
103086
103086
103086
103086
103086
103085
103085
103085
103085
103075
103075
103075
103075
103075
103075
103075
103075
103075
103075
103075
103075
103075
103075
103075
103075
103075
103075
103075
103075
103075
103075
103075
103074
103073
103071
103070
103069
103067
103066
103065
103064
103062
103061
103060
103059
103057
103056
103055
103054
103053
103051
103050
103049
103048
103047
103046
103045
103044
103043
103042
103041
103040
103039
103038
103037
103037
103036
103035
103034
103034
103033
103033
103032
103031
103031
103030
103030
103030
103029
103029
103028
103028
103028
103028
103027
103027
103027
103027
103027
103026
103026
103026
103026
103015
103015
103015
103015
103015
103015
103014
103014
103014
103014
103014
103014
103014
103014
103014
103014
103014
103014
103014
103014
103014
103014
103014
103014
103013
103012
103010
103009
103008
103007
103006
103004
103003
103002
103001
103000
102998
102997
102996
102995
102994
102992
102991
102990
102989
102988
102987
102986
102985
102984
102983
102982
102981
102980
102979
102978
102978
102977
102976
102975
102975
102974
102974
102973
102972
102972
102971
102971
102971
102970
102970
102969
102969
102969
102969
102968
102968
102968
102968
102968
102968
102967
102967
102967
102954
102954
102954
102954
102954
102954
102954
102954
102954
102954
102954
102954
102954
102954
102954
102954
102954
102954
102954
102954
102954
102954
102954
102954
102953
102952
102951
102950
102949
102947
102946
102945
102944
102943
102942
102941
102939
102938
102937
102936
102935
102933
102932
102931
102930
102929
102928
102927
102926
102925
102924
102923
102922
102921
102920
102919
102919
102918
102917
102916
102916
102915
102915
102914
102913
102913
102912
102912
102912
102911
102911
102910
102910
102910
102910
102909
102909
102909
102909
102909
102909
102909
102908
102908
102894
102894
102894
102894
102894
102894
102894
102894
102893
102893
102893
102893
102893
102893
102893
102893
102893
102893
102893
102893
102893
102893
102893
102893
102893
102892
102891
102890
102889
102888
102887
102886
102885
102884
102883
102882
102880
102879
102878
102877
102876
102874
102873
102872
102871
102870
102869
102868
102867
102866
102865
102864
102863
102862
102861
102860
102860
102859
102858
102857
102857
102856
102856
102855
102854
102854
102853
102853
102853
102852
102852
102851
102851
102851
102851
102850
102850
102850
102850
102850
102850
102850
102849
102849
102833
102833
102833
102833
102833
102833
102833
102833
102833
102833
102833
102833
102833
102833
102833
102833
102833
102833
102833
102833
102833
102833
102833
102833
102833
102832
102831
102830
102829
102829
102828
102827
102826
102825
102824
102822
102821
102820
102819
102818
102816
102815
102814
102813
102812
102811
102810
102809
102808
102807
102806
102805
102804
102803
102802
102801
102801
102800
102799
102798
102798
102797
102797
102796
102795
102795
102794
102794
102794
102793
102793
102792
102792
102792
102792
102791
102791
102791
102791
102791
102791
102791
102790
102790
102773
102773
102773
102773
102773
102773
102773
102773
102773
102773
102772
102772
102772
102772
102772
102772
102772
102773
102773
102773
102772
102772
102772
102772
102772
102772
102771
102771
102770
102769
102769
102768
102767
102766
102765
102763
102762
102761
102760
102759
102757
102756
102755
102754
102753
102752
102751
102750
102749
102748
102747
102746
102745
102744
102743
102742
102741
102741
102740
102739
102739
102738
102737
102737
102736
102736
102735
102735
102734
102734
102734
102733
102733
102733
102733
102732
102732
102732
102732
102732
102732
102731
102731
102731
102713
102713
102713
102713
102713
102713
102712
102712
102712
102712
102712
102712
102712
102712
102712
102712
102712
102712
102712
102712
102712
102712
102712
102712
102712
102712
102712
102711
102711
102710
102710
102709
102708
102707
102706
102704
102703
102702
102701
102700
102698
102697
102696
102695
102694
102693
102692
102690
102689
102688
102687
102687
102686
102685
102684
102683
102682
102682
102681
102680
102680
102679
102678
102678
102677
102677
102676
102676
102675
102675
102675
102674
102674
102674
102673
102673
102673
102673
102673
102673
102673
102672
102672
102672
102652
102652
102652
102652
102652
102652
102652
102652
102652
102652
102652
102652
102652
102652
102651
102652
102652
102652
102652
102652
102652
102652
102652
102652
102652
102652
102652
102652
102652
102651
102651
102650
102649
102648
102647
102645
102644
102643
102642
102641
102639
102638
102637
102636
102635
102634
102632
102631
102630
102629
102628
102627
102627
102626
102625
102624
102623
102622
102622
102621
102620
102620
102619
102619
102618
102618
102617
102617
102616
102616
102616
102615
102615
102615
102614
102614
102614
102614
102614
102614
102613
102613
102613
102613
102592
102592
102592
102592
102592
102592
102592
102591
102591
102591
102591
102591
102591
102591
102591
102591
102591
102591
102591
102591
102591
102591
102591
102591
102591
102591
102591
102591
102591
102591
102591
102591
102590
102589
102588
102586
102585
102584
102583
102581
102580
102579
102578
102577
102576
102574
102573
102572
102571
102570
102569
102568
102567
102566
102566
102565
102564
102563
102563
102562
102561
102561
102560
102560
102559
102559
102558
102558
102557
102557
102556
102556
102556
102556
102555
102555
102555
102555
102555
102554
102554
102554
102554
102554
102531
102531
102531
102531
102531
102531
102531
102531
102531
102531
102531
102531
102531
102531
102531
102531
102531
102531
102531
102531
102531
102531
102531
102531
102531
102531
102531
102531
102531
102531
102531
102531
102531
102530
102529
102527
102526
102525
102524
102522
102521
102520
102519
102518
102516
102515
102514
102513
102512
102511
102510
102509
102508
102507
102506
102506
102505
102504
102503
102503
102502
102501
102501
102500
102500
102499
102499
102498
102498
102498
102497
102497
102497
102496
102496
102496
102496
102496
102495
102495
102495
102495
102495
102495
102471
102471
102471
102471
102471
102471
102471
102470
102470
102470
102470
102470
102470
102470
102470
102470
102470
102470
102470
102470
102470
102470
102470
102470
102470
102470
102470
102470
102470
102470
102470
102470
102470
102470
102469
102468
102467
102466
102465
102463
102462
102461
102460
102458
102457
102456
102455
102454
102453
102452
102451
102450
102449
102448
102447
102446
102446
102445
102444
102444
102443
102442
102442
102441
102441
102440
102440
102439
102439
102438
102438
102438
102438
102437
102437
102437
102437
102436
102436
102436
102436
102436
102436
102436
102410
102410
102410
102410
102410
102410
102410
102410
102410
102410
102410
102410
102410
102410
102410
102410
102410
102410
102410
102410
102410
102410
102410
102410
102410
102410
102410
102410
102410
102410
102410
102410
102410
102410
102410
102409
102408
102407
102406
102404
102403
102402
102400
102399
102398
102397
102396
102395
102394
102393
102392
102391
102390
102389
102388
102387
102386
102386
102385
102384
102384
102383
102382
102382
102381
102381
102380
102380
102380
102379
102379
102379
102378
102378
102378
102378
102377
102377
102377
102377
102377
102377
102377
102377
102350
102350
102350
102350
102350
102350
102350
102349
102349
102349
102349
102349
102349
102349
102349
102349
102349
102349
102349
102349
102349
102349
102349
102349
102349
102349
102349
102349
102349
102349
102349
102349
102350
102350
102350
102350
102350
102348
102347
102345
102344
102343
102341
102340
102339
102338
102336
102335
102334
102333
102332
102331
102330
102330
102329
102328
102327
102326
102326
102325
102324
102324
102323
102323
102322
102322
102321
102321
102320
102320
102320
102319
102319
102319
102319
102318
102318
102318
102318
102318
102318
102318
102318
102318
102289
102289
102289
102289
102289
102289
102289
102289
102289
102289
102289
102289
102289
102289
102289
102289
102289
102289
102289
102289
102289
102289
102289
102289
102289
102289
102289
102289
102289
102289
102289
102289
102289
102289
102289
102289
102289
102289
102288
102286
102285
102283
102282
102281
102280
102278
102277
102276
102275
102274
102273
102272
102271
102270
102269
102269
102268
102267
102266
102266
102265
102265
102264
102263
102263
102262
102262
102262
102261
102261
102261
102260
102260
102260
102259
102259
102259
102259
102259
102259
102259
102258
102258
102258
102229
102229
102229
102229
102229
102229
102229
102228
102228
102228
102228
102228
102228
102228
102228
102228
102228
102228
102228
102228
102228
102228
102228
102228
102228
102228
102228
102228
102228
102228
102228
102229
102229
102229
102229
102229
102229
102229
102229
102227
102226
102224
102223
102222
102220
102219
102218
102217
102216
102215
102214
102213
102212
102211
102210
102209
102208
102208
102207
102206
102206
102205
102205
102204
102204
102203
102203
102202
102202
102202
102201
102201
102201
102200
102200
102200
102200
102200
102199
102199
102199
102199
102199
102199
102168
102168
102168
102168
102168
102168
102168
102168
102168
102168
102168
102168
102168
102168
102168
102168
102168
102168
102168
102168
102168
102168
102168
102168
102168
102168
102168
102168
102168
102168
102168
102168
102168
102168
102168
102168
102168
102168
102168
102168
102167
102165
102164
102162
102161
102160
102158
102157
102156
102155
102154
102153
102152
102151
102151
102150
102149
102148
102148
102147
102146
102146
102145
102145
102144
102144
102143
102143
102143
102142
102142
102142
102141
102141
102141
102141
102141
102140
102140
102140
102140
102140
102140
102140
102108
102108
102108
102108
102108
102108
102107
102107
102107
102107
102107
102107
102107
102107
102107
102107
102107
102107
102107
102107
102107
102107
102107
102107
102107
102107
102107
102107
102107
102107
102108
102108
102108
102108
102108
102108
102108
102108
102108
102108
102108
102106
102104
102103
102101
102100
102099
102098
102097
102096
102095
102094
102093
102092
102091
102090
102090
102089
102088
102088
102087
102087
102086
102085
102085
102085
102084
102084
102083
102083
102083
102082
102082
102082
102082
102081
102081
102081
102081
102081
102081
102081
102081
102081
102047
102047
102047
102047
102047
102047
102047
102047
102047
102047
102047
102047
102047
102047
102047
102047
102047
102047
102047
102047
102047
102047
102047
102047
102047
102047
102047
102047
102047
102047
102047
102047
102047
102047
102047
102047
102047
102047
102047
102047
102047
102046
102045
102043
102042
102041
102040
102038
102037
102036
102035
102034
102033
102033
102032
102031
102030
102030
102029
102028
102028
102027
102027
102026
102026
102025
102025
102024
102024
102024
102023
102023
102023
102023
102022
102022
102022
102022
102022
102022
102022
102021
102021
102021
101987
101987
101987
101987
101987
101987
101987
101986
101986
101986
101986
101986
101986
101986
101986
101986
101986
101986
101986
101986
101986
101986
101986
101986
101987
101987
101987
101987
101987
101987
101987
101987
101987
101987
101987
101987
101987
101987
101987
101987
101987
101987
101985
101984
101982
101981
101980
101979
101978
101977
101976
101975
101974
101973
101972
101972
101971
101970
101969
101969
101968
101968
101967
101967
101966
101966
101965
101965
101965
101964
101964
101964
101963
101963
101963
101963
101963
101963
101962
101962
101962
101962
101962
101962
101926
101926
101926
101926
101926
101926
101926
101926
101926
101926
101926
101926
101926
101926
101926
101926
101926
101926
101926
101926
101926
101926
101926
101926
101926
101926
101926
101926
101926
101926
101926
101926
101926
101926
101926
101926
101926
101926
101927
101927
101927
101927
101925
101924
101923
101922
101920
101919
101918
101917
101916
101915
101914
101914
101913
101912
101911
101911
101910
101909
101909
101908
101908
101907
101907
101906
101906
101906
101905
101905
101905
101904
101904
101904
101904
101903
101903
101903
101903
101903
101903
101903
101903
101903
101866
101866
101866
101866
101866
101866
101866
101866
101866
101866
101866
101866
101866
101866
101866
101866
101866
101866
101866
101866
101866
101866
101866
101866
101866
101866
101866
101866
101866
101866
101866
101866
101866
101866
101866
101866
101866
101866
101866
101866
101866
101866
101866
101865
101863
101862
101861
101860
101859
101858
101857
101856
101855
101854
101853
101853
101852
101851
101850
101850
101849
101849
101848
101848
101847
101847
101847
101846
101846
101846
101845
101845
101845
101845
101844
101844
101844
101844
101844
101844
101844
101843
101843
101843
101805
101805
101805
101805
101805
101805
101805
101805
101805
101805
101805
101805
101805
101805
101805
101805
101805
101805
101805
101805
101805
101805
101805
101805
101805
101805
101805
101805
101805
101805
101805
101805
101805
101805
101805
101805
101806
101806
101806
101806
101806
101806
101806
101805
101804
101802
101801
101800
101799
101798
101797
101796
101795
101794
101794
101793
101792
101792
101791
101790
101790
101789
101789
101788
101788
101787
101787
101787
101786
101786
101786
101786
101785
101785
101785
101785
101785
101784
101784
101784
101784
101784
101784
101784
101745
101745
101745
101745
101745
101745
101745
101745
101745
101745
101745
101745
101745
101745
101745
101745
101745
101745
101745
101745
101745
101745
101745
101745
101745
101745
101745
101745
101745
101745
101745
101745
101745
101745
101745
101745
101745
101745
101745
101745
101745
101745
101745
101745
101744
101743
101741
101740
101739
101738
101737
101736
101736
101735
101734
101733
101733
101732
101731
101731
101730
101730
101729
101729
101728
101728
101728
101727
101727
101727
101726
101726
101726
101726
101726
101725
101725
101725
101725
101725
101725
101725
101725
101725
101685
101685
101684
101684
101684
101684
101684
101684
101684
101684
101684
101684
101684
101684
101684
101684
101684
101684
101684
101684
101684
101684
101684
101684
101684
101684
101684
101684
101684
101685
101685
101685
101685
101685
101685
101685
101685
101685
101685
101685
101685
101685
101685
101685
101684
101683
101682
101681
101679
101679
101678
101677
101676
101675
101674
101674
101673
101672
101672
101671
101671
101670
101670
101669
101669
101669
101668
101668
101668
101667
101667
101667
101666
101666
101666
101666
101666
101666
101666
101666
101665
101665
101665
101665
101624
101624
101624
101624
101624
101624
101624
101624
101624
101624
101624
101624
101624
101624
101624
101624
101624
101624
101624
101624
101624
101624
101624
101624
101624
101624
101624
101624
101624
101624
101624
101624
101624
101624
101624
101624
101624
101624
101624
101624
101624
101625
101625
101625
101624
101623
101622
101621
101620
101619
101618
101617
101616
101615
101615
101614
101613
101613
101612
101612
101611
101611
101610
101610
101609
101609
101609
101608
101608
101608
101607
101607
101607
101607
101607
101607
101606
101606
101606
101606
101606
101606
101606
101606
101564
101564
101564
101564
101564
101564
101564
101564
101564
101564
101564
101564
101564
101564
101564
101564
101564
101564
101564
101564
101564
101564
101564
101564
101564
101564
101564
101564
101564
101564
101564
101564
101564
101564
101564
101564
101564
101564
101564
101564
101564
101564
101564
101564
101564
101563
101562
101561
101560
101559
101558
101557
101556
101556
101555
101554
101554
101553
101553
101552
101552
101551
101551
101550
101550
101549
101549
101549
101549
101548
101548
101548
101548
101547
101547
101547
101547
101547
101547
101547
101547
101547
101547
101547
101503
101503
101503
101503
101503
101503
101503
101503
101503
101503
101503
101503
101503
101503
101503
101503
101503
101503
101503
101503
101503
101503
101503
101503
101503
101503
101503
101503
101503
101503
101503
101503
101503
101503
101503
101503
101503
101503
101503
101503
101504
101504
101504
101504
101504
101503
101502
101501
101500
101499
101498
101497
101497
101496
101495
101495
101494
101493
101493
101492
101492
101491
101491
101491
101490
101490
101490
101489
101489
101489
101488
101488
101488
101488
101488
101488
101488
101487
101487
101487
101487
101487
101487
101487
101443
101443
101443
101443
101443
101443
101443
101443
101443
101443
101443
101443
101443
101443
101443
101443
101443
101443
101443
101443
101443
101443
101443
101443
101443
101443
101443
101443
101443
101443
101443
101443
101443
101443
101443
101443
101443
101443
101443
101443
101443
101443
101443
101443
101443
101443
101442
101441
101440
101439
101438
101438
101437
101436
101435
101435
101434
101434
101433
101433
101432
101432
101431
101431
101431
101430
101430
101430
101429
101429
101429
101429
101429
101428
101428
101428
101428
101428
101428
101428
101428
101428
101428
101428
101382
101382
101382
101382
101382
101382
101382
101382
101382
101382
101382
101382
101382
101382
101382
101382
101382
101382
101382
101382
101382
101382
101382
101382
101382
101382
101382
101382
101382
101382
101382
101382
101382
101382
101382
101382
101382
101383
101383
101383
101383
101383
101383
101383
101383
101383
101382
101381
101380
101379
101378
101378
101377
101376
101376
101375
101374
101374
101373
101373
101373
101372
101372
101371
101371
101371
101370
101370
101370
101370
101369
101369
101369
101369
101369
101369
101369
101369
101368
101368
101368
101368
101368
101368
101322
101322
101322
101322
101322
101322
101322
101322
101322
101322
101322
101322
101322
101322
101322
101322
101322
101322
101322
101322
101322
101322
101322
101322
101322
101322
101322
101322
101322
101322
101322
101322
101322
101322
101322
101322
101322
101322
101322
101322
101322
101322
101322
101322
101322
101322
101321
101321
101320
101319
101318
101318
101317
101316
101316
101315
101315
101314
101314
101313
101313
101312
101312
101312
101311
101311
101311
101311
101310
101310
101310
101310
101310
101309
101309
101309
101309
101309
101309
101309
101309
101309
101309
101309
101262
101262
101262
101262
101262
101262
101262
101262
101262
101262
101262
101262
101262
101262
101262
101262
101262
101262
101262
101262
101262
101262
101262
101262
101262
101262
101262
101262
101262
101262
101262
101262
101262
101262
101262
101262
101262
101262
101262
101262
101262
101262
101262
101262
101262
101262
101261
101261
101260
101259
101258
101258
101257
101257
101256
101255
101255
101254
101254
101253
101253
101253
101252
101252
101252
101251
101251
101251
101251
101250
101250
101250
101250
101250
101250
101250
101250
101250
101249
101249
101249
101249
101249
101249
101201
101201
101201
101201
101201
101201
101201
101201
101201
101201
101201
101201
101201
101201
101201
101201
101201
101201
101201
101201
101201
101201
101201
101201
101201
101201
101201
101201
101201
101201
101201
101201
101201
101201
101201
101201
101201
101201
101201
101201
101201
101201
101201
101201
101201
101201
101201
101201
101200
101199
101198
101198
101197
101197
101196
101196
101195
101195
101194
101194
101193
101193
101193
101192
101192
101192
101191
101191
101191
101191
101191
101191
101190
101190
101190
101190
101190
101190
101190
101190
101190
101190
101190
101190
101141
101141
101141
101141
101141
101141
101141
101141
101141
101141
101141
101141
101141
101141
101141
101141
101141
101141
101141
101141
101141
101141
101141
101141
101141
101141
101141
101141
101141
101141
101141
101141
101141
101141
101141
101141
101141
101141
101141
101141
101141
101141
101141
101141
101141
101142
101142
101141
101140
101139
101138
101138
101137
101137
101136
101136
101135
101135
101134
101134
101134
101133
101133
101133
101132
101132
101132
101132
101131
101131
101131
101131
101131
101131
101131
101131
101131
101131
101130
101130
101130
101130
101130
101130
101081
101080
101080
101080
101080
101080
101080
101080
101080
101080
101080
101080
101080
101080
101080
101080
101080
101080
101080
101080
101080
101080
101080
101080
101080
101080
101080
101080
101080
101080
101080
101080
101080
101080
101080
101080
101080
101080
101080
101081
101081
101081
101081
101081
101081
101081
101081
101080
101080
101079
101078
101078
101077
101077
101076
101076
101075
101075
101074
101074
101074
101073
101073
101073
101073
101072
101072
101072
101072
101072
101071
101071
101071
101071
101071
101071
101071
101071
101071
101071
101071
101071
101071
101071
101020
101020
101020
101020
101020
101020
101020
101020
101020
101020
101020
101020
101020
101020
101020
101020
101020
101020
101020
101020
101020
101020
101020
101020
101020
101020
101020
101020
101020
101020
101020
101020
101020
101020
101020
101020
101020
101020
101020
101020
101020
101020
101020
101021
101021
101021
101021
101020
101019
101019
101018
101018
101017
101017
101016
101016
101015
101015
101015
101014
101014
101014
101013
101013
101013
101013
101012
101012
101012
101012
101012
101012
101012
101012
101012
101011
101011
101011
101011
101011
101011
101012
101012
101012
100960
100960
100960
100960
100960
100960
100960
100960
100960
100960
100960
100960
100960
100960
100960
100960
100959
100959
100959
100959
100959
100959
100959
100959
100959
100959
100959
100959
100959
100959
100960
100960
100960
100960
100960
100960
100960
100960
100960
100960
100960
100960
100960
100960
100960
100960
100960
100960
100959
100959
100958
100958
100957
100957
100956
100956
100955
100955
100955
100954
100954
100954
100954
100953
100953
100953
100953
100953
100952
100952
100952
100952
100952
100952
100952
100952
100952
100952
100952
100952
100952
100952
100952
100952
100899
100899
100899
100899
100899
100899
100899
100899
100899
100899
100899
100899
100899
100899
100899
100899
100899
100899
100899
100899
100899
100899
100899
100899
100899
100899
100899
100899
100899
100899
100899
100899
100899
100899
100899
100899
100899
100899
100899
100899
100899
100900
100900
100900
100900
100900
100900
100899
100899
100898
100898
100897
100897
100897
100896
100896
100895
100895
100895
100894
100894
100894
100894
100893
100893
100893
100893
100893
100893
100893
100892
100892
100892
100892
100892
100892
100892
100892
100892
100892
100893
100893
100893
100893
100839
100839
100839
100839
100839
100839
100839
100839
100839
100839
100839
100839
100839
100839
100839
100839
100839
100839
100839
100839
100839
100839
100839
100839
100839
100839
100839
100839
100839
100839
100839
100839
100839
100839
100839
100839
100839
100839
100839
100839
100839
100839
100839
100839
100839
100839
100839
100839
100839
100838
100838
100837
100837
100837
100836
100836
100835
100835
100835
100835
100834
100834
100834
100834
100833
100833
100833
100833
100833
100833
100833