/*--------------------------------*- C++ -*----------------------------------*\
  =========                 |
  \\      /  F ield         | OpenFOAM: The Open Source CFD Toolbox
   \\    /   O peration     | Website:  https://openfoam.org
    \\  /    A nd           | Version:  6
     \\/     M anipulation  |
\*---------------------------------------------------------------------------*/
FoamFile
{
    version     2.0;
    format      ascii;
    class       surfaceScalarField;
    location    "810";
    object      phi;
}
// * * * * * * * * * * * * * * * * * * * * * * * * * * * * * * * * * * * * * //

dimensions      [0 3 -1 0 0 0 0];

internalField   nonuniform List<scalar> 
11773
(
-1.83449e-08
1.83449e-08
-7.55992e-08
5.72595e-08
-8.27874e-08
7.19231e-09
-1.12447e-07
2.96633e-08
-9.03568e-08
-2.20864e-08
-7.845e-08
-1.19034e-08
-6.44143e-08
-1.40326e-08
-5.5736e-08
-8.67551e-09
-4.32124e-08
-1.25213e-08
-3.86964e-08
-4.51403e-09
-4.35339e-08
4.83901e-09
-4.58249e-08
2.29214e-09
-4.92966e-08
3.47244e-09
-5.19997e-08
2.70348e-09
-5.15212e-08
-4.78465e-10
-4.94597e-08
-2.06187e-09
-4.89579e-08
-5.02265e-10
-4.44637e-08
-4.49497e-09
-2.9022e-08
-1.54425e-08
-1.1951e-10
-2.89036e-08
2.88044e-09
-3.00107e-09
1.02646e-13
2.87953e-09
1.28739e-13
5.88086e-14
9.84902e-14
3.02484e-14
8.1116e-14
1.73726e-14
7.00195e-14
1.10944e-14
6.22912e-14
7.72623e-15
5.65475e-14
5.74202e-15
5.2072e-14
4.47411e-15
4.84623e-14
3.60878e-15
4.54744e-14
2.98716e-15
4.2951e-14
2.52286e-15
4.07847e-14
2.16582e-15
3.88988e-14
1.88533e-15
3.72366e-14
1.66157e-15
3.57545e-14
1.48119e-15
3.44187e-14
1.33477e-15
3.3202e-14
1.21542e-15
3.20824e-14
1.11794e-15
3.10423e-14
1.03828e-15
3.00669e-14
9.73232e-16
2.91443e-14
9.20201e-16
2.82646e-14
8.77056e-16
2.74197e-14
8.4204e-16
2.66029e-14
8.1369e-16
2.58088e-14
7.90788e-16
2.50331e-14
7.72315e-16
2.42721e-14
7.5742e-16
2.3523e-14
7.45391e-16
2.27836e-14
7.3564e-16
2.20521e-14
7.27677e-16
2.13272e-14
7.21099e-16
2.06077e-14
7.15576e-16
1.9893e-14
7.10842e-16
1.91825e-14
7.06682e-16
1.84758e-14
7.02926e-16
1.77727e-14
6.99442e-16
1.7073e-14
6.96128e-16
1.63765e-14
6.92908e-16
1.56834e-14
6.89728e-16
1.49935e-14
6.86551e-16
1.4307e-14
6.83355e-16
1.36237e-14
6.80127e-16
1.29439e-14
6.76865e-16
1.22675e-14
6.73574e-16
1.15946e-14
6.70263e-16
1.09251e-14
6.66945e-16
1.0259e-14
6.63635e-16
9.59632e-15
6.60352e-16
8.93701e-15
6.57114e-16
8.28098e-15
6.53939e-16
7.62815e-15
6.50844e-16
6.97842e-15
6.47848e-16
6.33167e-15
6.44967e-16
5.68775e-15
6.42216e-16
5.04652e-15
6.39609e-16
4.40781e-15
6.3716e-16
3.77144e-15
6.34877e-16
3.13726e-15
6.32743e-16
2.50521e-15
6.30658e-16
1.87553e-15
6.28326e-16
1.24903e-15
6.25176e-16
6.24755e-16
6.22968e-16
6.23464e-16
-6.09299e-08
7.928e-08
-7.37766e-08
7.01145e-08
-1.04419e-07
3.78414e-08
-1.04804e-07
3.00548e-08
-7.87166e-08
-4.81677e-08
-6.85225e-08
-2.2092e-08
-4.83936e-08
-3.41567e-08
-2.82436e-08
-2.88213e-08
-1.43575e-08
-2.64041e-08
9.45922e-10
-1.98148e-08
-9.3496e-09
1.51365e-08
-1.10023e-08
3.94615e-09
-1.532e-08
7.79081e-09
-2.34044e-08
1.07879e-08
-3.18006e-08
7.91735e-09
-3.67011e-08
2.83772e-09
-3.5377e-08
-1.82766e-09
-3.3527e-08
-6.3466e-09
-2.29461e-08
-2.60252e-08
-1.28817e-08
-3.89701e-08
-2.87768e-09
-1.30069e-08
1.30079e-13
3.24871e-13
1.03592e-13
8.5296e-14
8.71491e-14
4.66883e-14
7.55851e-14
2.89331e-14
6.70538e-14
1.96224e-14
6.05472e-14
1.423e-14
5.54369e-14
1.08501e-14
5.1318e-14
8.59127e-15
4.79244e-14
7.00121e-15
4.50759e-14
5.8346e-15
4.26474e-14
4.9505e-15
4.05485e-14
4.26369e-15
3.87123e-14
3.72025e-15
3.70878e-14
3.28452e-15
3.56351e-14
2.93195e-15
3.43225e-14
2.645e-15
3.31243e-14
2.41066e-15
3.20199e-14
2.21902e-15
3.0992e-14
2.06229e-15
3.00267e-14
1.93424e-15
2.91123e-14
1.82982e-15
2.82394e-14
1.74486e-15
2.74e-14
1.67592e-15
2.65877e-14
1.62013e-15
2.57973e-14
1.57507e-15
2.50245e-14
1.53876e-15
2.42658e-14
1.5095e-15
2.35186e-14
1.48589e-15
2.27807e-14
1.46677e-15
2.20504e-14
1.45117e-15
2.13263e-14
1.43829e-15
2.06075e-14
1.42749e-15
1.98934e-14
1.41824e-15
1.91832e-14
1.41011e-15
1.84768e-14
1.40277e-15
1.77739e-14
1.39595e-15
1.70742e-14
1.38947e-15
1.63779e-14
1.38316e-15
1.56848e-14
1.37692e-15
1.4995e-14
1.37068e-15
1.43085e-14
1.36439e-15
1.36253e-14
1.35804e-15
1.29456e-14
1.35161e-15
1.22692e-14
1.34512e-15
1.15964e-14
1.33858e-15
1.09269e-14
1.33203e-15
1.02609e-14
1.32549e-15
9.59838e-15
1.31899e-15
8.93919e-15
1.31259e-15
8.2833e-15
1.3063e-15
7.63061e-15
1.30017e-15
6.98103e-15
1.29424e-15
6.33443e-15
1.28853e-15
5.69068e-15
1.28307e-15
5.04961e-15
1.2779e-15
4.41106e-15
1.27304e-15
3.77488e-15
1.26849e-15
3.1409e-15
1.26423e-15
2.50903e-15
1.26011e-15
1.87924e-15
1.25574e-15
1.25159e-15
1.25049e-15
6.25191e-16
1.24705e-15
1.24763e-15
-4.24368e-08
1.21721e-07
-6.2846e-08
9.05309e-08
-9.24404e-08
6.7442e-08
-7.46202e-08
1.22403e-08
-8.63738e-08
-3.64088e-08
-6.181e-08
-4.66508e-08
-3.72915e-08
-5.86709e-08
-1.15348e-08
-5.45742e-08
4.14322e-09
-4.20789e-08
1.61082e-08
-3.17773e-08
2.2389e-08
8.85752e-09
3.53416e-08
-9.00514e-09
3.16707e-08
1.14625e-08
2.5964e-08
1.64948e-08
1.52866e-08
1.85946e-08
8.27144e-11
1.80409e-08
-1.1462e-08
9.71601e-09
-1.38953e-08
-3.91456e-09
-1.90039e-08
-2.09181e-08
-2.59948e-08
-3.19805e-08
2.80463e-13
-3.90026e-08
4.18315e-14
4.87059e-14
6.9637e-14
5.74898e-14
7.15317e-14
4.47909e-14
6.73959e-14
3.3066e-14
6.23131e-14
2.47027e-14
5.7579e-14
1.89618e-14
5.34569e-14
1.49706e-14
4.99279e-14
1.2119e-14
4.69079e-14
1.00204e-14
4.43087e-14
8.43316e-15
4.2054e-14
7.20458e-15
4.00812e-14
6.23581e-15
3.83394e-14
5.46106e-15
3.67876e-14
4.83513e-15
3.53921e-14
4.32597e-15
3.41251e-14
3.91002e-15
3.29639e-14
3.5695e-15
3.18895e-14
3.29058e-15
3.08863e-14
3.06226e-15
2.99413e-14
2.87567e-15
2.90436e-14
2.72351e-15
2.81843e-14
2.59976e-15
2.73561e-14
2.49941e-15
2.6553e-14
2.41826e-15
2.577e-14
2.3528e-15
2.50032e-14
2.30009e-15
2.42494e-14
2.25767e-15
2.3506e-14
2.22348e-15
2.27711e-14
2.19581e-15
2.20431e-14
2.17325e-15
2.13208e-14
2.15462e-15
2.06034e-14
2.13897e-15
1.98902e-14
2.12554e-15
1.91808e-14
2.11371e-15
1.84748e-14
2.10298e-15
1.77722e-14
2.09297e-15
1.70728e-14
2.08341e-15
1.63766e-14
2.07407e-15
1.56836e-14
2.0648e-15
1.49938e-14
2.0555e-15
1.43073e-14
2.04611e-15
1.36241e-14
2.0366e-15
1.29444e-14
2.02696e-15
1.22681e-14
2.01722e-15
1.15953e-14
2.00741e-15
1.09259e-14
1.99756e-15
1.02601e-14
1.98773e-15
9.59767e-15
1.97797e-15
8.93865e-15
1.96834e-15
8.28296e-15
1.95889e-15
7.6305e-15
1.94969e-15
6.98117e-15
1.94077e-15
6.33484e-15
1.9322e-15
5.69136e-15
1.92401e-15
5.05059e-15
1.91625e-15
4.41235e-15
1.90894e-15
3.77647e-15
1.90211e-15
3.14279e-15
1.89573e-15
2.51112e-15
1.88965e-15
1.88125e-15
1.88352e-15
1.25288e-15
1.87682e-15
6.25706e-16
1.87219e-15
1.87234e-15
-2.59827e-08
1.47707e-07
-5.39649e-08
1.1852e-07
-7.41198e-08
8.76032e-08
-7.17855e-08
9.91199e-09
-7.97862e-08
-2.84026e-08
-6.15966e-08
-6.48354e-08
-3.95238e-08
-8.07392e-08
-1.33637e-08
-8.07303e-08
4.9601e-09
-6.03994e-08
2.47306e-08
-5.1545e-08
5.23856e-08
-1.87954e-08
5.37703e-08
-1.03884e-08
5.59422e-08
9.29155e-09
4.83939e-08
2.40436e-08
3.55373e-08
3.14512e-08
2.55509e-08
2.80269e-08
1.31218e-08
2.21443e-08
2.76934e-09
6.43676e-09
-5.39773e-09
-1.27524e-08
-8.34991e-09
-2.903e-08
4.77637e-13
-4.73543e-08
4.95821e-14
4.8522e-14
5.84855e-14
4.85852e-14
6.12306e-14
4.20434e-14
6.00485e-14
3.42456e-14
5.72715e-14
2.74776e-14
5.40767e-14
2.21549e-14
5.09578e-14
1.80882e-14
4.8092e-14
1.49839e-14
4.55225e-14
1.25894e-14
4.3239e-14
1.07162e-14
4.12129e-14
9.23032e-15
3.94105e-14
8.03768e-15
3.77993e-14
7.07155e-15
3.63497e-14
6.28379e-15
3.50355e-14
5.63879e-15
3.38342e-14
5.10954e-15
3.27265e-14
4.67499e-15
3.16961e-14
4.31843e-15
3.0729e-14
4.0263e-15
2.98137e-14
3.7875e-15
2.89406e-14
3.59284e-15
2.81015e-14
3.43465e-15
2.72898e-14
3.30651e-15
2.65002e-14
3.20304e-15
2.57282e-14
3.11971e-15
2.49702e-14
3.05273e-15
2.42235e-14
2.99891e-15
2.34858e-14
2.95561e-15
2.27552e-14
2.9206e-15
2.20306e-14
2.89206e-15
2.1311e-14
2.86848e-15
2.05955e-14
2.84864e-15
1.98837e-14
2.83155e-15
1.91753e-14
2.81641e-15
1.847e-14
2.80261e-15
1.77678e-14
2.78965e-15
1.70687e-14
2.77718e-15
1.63726e-14
2.76493e-15
1.56796e-14
2.75271e-15
1.49898e-14
2.74039e-15
1.43033e-14
2.72791e-15
1.36201e-14
2.71524e-15
1.29404e-14
2.70238e-15
1.22641e-14
2.68936e-15
1.15913e-14
2.67623e-15
1.09221e-14
2.66305e-15
1.02564e-14
2.64988e-15
9.59413e-15
2.6368e-15
8.93534e-15
2.6239e-15
8.27992e-15
2.61124e-15
7.62779e-15
2.59891e-15
6.97881e-15
2.58697e-15
6.33286e-15
2.5755e-15
5.6898e-15
2.56455e-15
5.04945e-15
2.55418e-15
4.41165e-15
2.54442e-15
3.77622e-15
2.5353e-15
3.14297e-15
2.52681e-15
2.51166e-15
2.51885e-15
1.88194e-15
2.51117e-15
1.25323e-15
2.5035e-15
6.25832e-16
2.49757e-15
2.49715e-15
-2.37155e-08
1.71427e-07
-4.32151e-08
1.38028e-07
-4.62577e-08
9.06521e-08
-7.34823e-08
3.71427e-08
-6.80472e-08
-3.3832e-08
-5.33375e-08
-7.95398e-08
-4.23375e-08
-9.17345e-08
-2.68639e-08
-9.61999e-08
-2.78991e-09
-8.44699e-08
1.35487e-08
-6.78807e-08
4.25431e-08
-4.77875e-08
5.16122e-08
-1.94557e-08
5.93655e-08
1.53944e-09
6.36264e-08
1.97834e-08
5.81814e-08
3.68966e-08
4.75121e-08
3.8696e-08
3.36948e-08
3.5961e-08
2.0055e-08
2.00756e-08
7.63396e-09
-3.32507e-10
1.65901e-09
-2.30564e-08
4.32388e-13
-4.56969e-08
4.96882e-14
4.85302e-14
5.27637e-14
4.55084e-14
5.43935e-14
4.04115e-14
5.41112e-14
3.45259e-14
5.26026e-14
2.89845e-14
5.05113e-14
2.42448e-14
4.82387e-14
2.03599e-14
4.59972e-14
1.72249e-14
4.38863e-14
1.47001e-14
4.19436e-14
1.26588e-14
4.01751e-14
1.09986e-14
3.85716e-14
9.64095e-15
3.71168e-14
8.52591e-15
3.57921e-14
7.60771e-15
3.45791e-14
6.85069e-15
3.34605e-14
6.22663e-15
3.24207e-14
5.71274e-15
3.14463e-14
5.29039e-15
3.05256e-14
4.94416e-15
2.96486e-14
4.66118e-15
2.88071e-14
4.43069e-15
2.7994e-14
4.24364e-15
2.72038e-14
4.09238e-15
2.64316e-14
3.9705e-15
2.56737e-14
3.87258e-15
2.49272e-14
3.79407e-15
2.41896e-14
3.73115e-15
2.3459e-14
3.68062e-15
2.27341e-14
3.63984e-15
2.20138e-14
3.60661e-15
2.12974e-14
3.57913e-15
2.05843e-14
3.55594e-15
1.98743e-14
3.53586e-15
1.91671e-14
3.51795e-15
1.84626e-14
3.50147e-15
1.77609e-14
3.48586e-15
1.7062e-14
3.47071e-15
1.6366e-14
3.4557e-15
1.5673e-14
3.44062e-15
1.49832e-14
3.42535e-15
1.42966e-14
3.4098e-15
1.36133e-14
3.39396e-15
1.29335e-14
3.37785e-15
1.22572e-14
3.3615e-15
1.15845e-14
3.345e-15
1.09153e-14
3.32841e-15
1.02497e-14
3.31184e-15
9.58773e-15
3.29538e-15
8.92923e-15
3.27914e-15
8.27417e-15
3.26321e-15
7.62244e-15
3.24769e-15
6.97392e-15
3.23268e-15
6.32848e-15
3.21827e-15
5.68596e-15
3.20452e-15
5.04619e-15
3.1915e-15
4.40898e-15
3.17928e-15
3.77415e-15
3.16787e-15
3.14148e-15
3.15728e-15
2.51072e-15
3.14747e-15
1.88145e-15
3.13835e-15
1.25297e-15
3.12992e-15
6.25463e-16
3.12305e-15
3.12159e-15
-8.63231e-09
1.80064e-07
-2.43103e-08
1.53714e-07
-2.50319e-08
9.13803e-08
-3.61135e-08
4.82306e-08
-5.54723e-08
-1.44673e-08
-4.42397e-08
-9.07669e-08
-1.80946e-08
-1.17875e-07
2.70131e-10
-1.1456e-07
1.37639e-08
-9.796e-08
2.411e-08
-7.82236e-08
3.21047e-08
-5.57794e-08
4.42424e-08
-3.15912e-08
5.06156e-08
-4.83224e-09
5.71363e-08
1.32638e-08
5.55625e-08
3.84709e-08
4.77253e-08
4.65333e-08
3.64427e-08
4.72432e-08
2.47007e-08
3.18169e-08
1.03789e-08
1.39882e-08
5.54322e-09
-1.82218e-08
3.84786e-13
-4.0155e-08
4.7088e-14
4.85704e-14
4.83202e-14
4.42751e-14
4.92444e-14
3.94856e-14
4.92576e-14
3.45111e-14
4.84498e-14
2.97911e-14
4.71082e-14
2.55856e-14
4.5494e-14
2.19737e-14
4.37889e-14
1.893e-14
4.21028e-14
1.63864e-14
4.0495e-14
1.42668e-14
3.89923e-14
1.25016e-14
3.76017e-14
1.10316e-14
3.63194e-14
9.80804e-15
3.51359e-14
8.79078e-15
3.40391e-14
7.94659e-15
3.30167e-14
7.24774e-15
3.20568e-14
6.67087e-15
3.11488e-14
6.19624e-15
3.02831e-14
5.80714e-15
2.94518e-14
5.48939e-15
2.8648e-14
5.23097e-15
2.78661e-14
5.02168e-15
2.71014e-14
4.85288e-15
2.635e-14
4.71729e-15
2.5609e-14
4.60872e-15
2.4876e-14
4.52198e-15
2.41491e-14
4.4527e-15
2.34271e-14
4.39725e-15
2.27087e-14
4.35258e-15
2.19935e-14
4.31621e-15
2.12808e-14
4.28608e-15
2.05705e-14
4.26054e-15
1.98624e-14
4.23827e-15
1.91565e-14
4.2182e-15
1.84528e-14
4.19953e-15
1.77516e-14
4.18163e-15
1.70529e-14
4.16404e-15
1.63569e-14
4.14645e-15
1.56638e-14
4.12862e-15
1.49738e-14
4.11044e-15
1.4287e-14
4.09184e-15
1.36036e-14
4.07281e-15
1.29237e-14
4.0534e-15
1.22473e-14
4.03367e-15
1.15746e-14
4.01372e-15
1.09056e-14
3.99366e-15
1.02402e-14
3.9736e-15
9.57842e-15
3.95367e-15
8.92027e-15
3.934e-15
8.26564e-15
3.91471e-15
7.61441e-15
3.89594e-15
6.96648e-15
3.87778e-15
6.32168e-15
3.86036e-15
5.67985e-15
3.84376e-15
5.0408e-15
3.82806e-15
4.40435e-15
3.81334e-15
3.77027e-15
3.79964e-15
3.13835e-15
3.78697e-15
2.50831e-15
3.77534e-15
1.87976e-15
3.76478e-15
1.25207e-15
3.75551e-15
6.24823e-16
3.74823e-15
3.74536e-15
-1.03945e-08
1.90463e-07
-1.67932e-08
1.60121e-07
-2.48405e-08
9.94346e-08
-2.03887e-08
4.37852e-08
-2.6123e-08
-8.72699e-09
-1.6739e-08
-1.00145e-07
5.81032e-09
-1.40419e-07
2.31152e-08
-1.31861e-07
3.45526e-08
-1.09394e-07
3.69941e-08
-8.06618e-08
3.62312e-08
-5.50134e-08
3.8702e-08
-3.40594e-08
4.97771e-08
-1.59054e-08
4.89575e-08
1.40849e-08
5.15451e-08
3.58843e-08
4.42144e-08
5.38643e-08
3.87829e-08
5.26746e-08
2.7993e-08
4.26062e-08
1.23795e-08
2.96009e-08
6.41094e-09
-1.22543e-08
3.32634e-13
-3.37452e-08
4.33691e-14
4.86331e-14
4.41495e-14
4.34939e-14
4.4899e-14
3.87346e-14
4.51285e-14
3.42804e-14
4.47687e-14
3.01502e-14
4.39465e-14
2.64074e-14
4.28306e-14
2.30898e-14
4.15645e-14
2.01965e-14
4.02508e-14
1.77007e-14
3.89541e-14
1.55641e-14
3.77105e-14
1.37459e-14
3.65361e-14
1.22065e-14
3.54346e-14
1.09097e-14
3.44026e-14
9.82263e-15
3.3433e-14
8.91569e-15
3.25172e-14
8.16255e-15
3.16466e-14
7.54e-15
3.08132e-14
7.02774e-15
3.00098e-14
6.60817e-15
2.92302e-14
6.26613e-15
2.84692e-14
5.98866e-15
2.77225e-14
5.76465e-15
2.69867e-14
5.58468e-15
2.62588e-14
5.44072e-15
2.55368e-14
5.32601e-15
2.4819e-14
5.23482e-15
2.41042e-14
5.16234e-15
2.33916e-14
5.10457e-15
2.26805e-14
5.05817e-15
2.19707e-14
5.02041e-15
2.12621e-14
4.98906e-15
2.05546e-14
4.96231e-15
1.98485e-14
4.93873e-15
1.91439e-14
4.91721e-15
1.8441e-14
4.89686e-15
1.77401e-14
4.87705e-15
1.70415e-14
4.85731e-15
1.63454e-14
4.83731e-15
1.56521e-14
4.81684e-15
1.49618e-14
4.79579e-15
1.42747e-14
4.77413e-15
1.35911e-14
4.75188e-15
1.29109e-14
4.72911e-15
1.22345e-14
4.70591e-15
1.15617e-14
4.68242e-15
1.08928e-14
4.65877e-15
1.02276e-14
4.63511e-15
9.56613e-15
4.6116e-15
8.90839e-15
4.5884e-15
8.25427e-15
4.56565e-15
7.60366e-15
4.54352e-15
6.95642e-15
4.52213e-15
6.3124e-15
4.50162e-15
5.67142e-15
4.4821e-15
5.03327e-15
4.46368e-15
4.39775e-15
4.44643e-15
3.76462e-15
4.43041e-15
3.13364e-15
4.41567e-15
2.50453e-15
4.40223e-15
1.87691e-15
4.39023e-15
1.25028e-15
4.38e-15
6.24118e-16
4.37228e-15
4.3684e-15
-1.32826e-08
2.0375e-07
-7.31489e-09
1.54161e-07
-4.30371e-09
9.64304e-08
-2.73685e-10
3.97619e-08
3.71976e-09
-1.27143e-08
3.78394e-09
-1.00204e-07
1.96362e-08
-1.56266e-07
3.41764e-08
-1.46396e-07
4.74656e-08
-1.22679e-07
5.24555e-08
-8.56479e-08
5.11563e-08
-5.37108e-08
4.49075e-08
-2.78075e-08
4.56228e-08
-1.66182e-08
4.0419e-08
1.92906e-08
3.88734e-08
3.74311e-08
3.69021e-08
5.58364e-08
3.17407e-08
5.78362e-08
1.93069e-08
5.50397e-08
8.25511e-09
4.06521e-08
4.7108e-09
-8.71079e-09
2.74403e-13
-2.90354e-08
3.89064e-14
4.86219e-14
4.00033e-14
4.23962e-14
4.101e-14
3.7727e-14
4.15175e-14
3.3772e-14
4.14943e-14
3.0173e-14
4.10437e-14
2.68581e-14
4.02994e-14
2.38346e-14
3.93821e-14
2.11147e-14
3.83836e-14
1.87002e-14
3.73663e-14
1.65826e-14
3.63674e-14
1.47458e-14
3.54057e-14
1.3169e-14
3.4488e-14
1.1828e-14
3.36137e-14
1.06971e-14
3.27787e-14
9.75056e-15
3.19771e-14
8.96353e-15
3.12029e-14
8.31309e-15
3.04504e-14
7.77859e-15
2.97147e-14
7.3418e-15
2.89914e-14
6.98683e-15
2.82771e-14
6.69997e-15
2.75688e-14
6.46947e-15
2.68644e-14
6.28528e-15
2.6162e-14
6.13886e-15
2.54605e-14
6.02297e-15
2.47591e-14
5.93149e-15
2.40571e-14
5.85928e-15
2.33544e-14
5.80207e-15
2.26509e-14
5.7563e-15
2.19467e-14
5.71908e-15
2.12422e-14
5.68804e-15
2.05376e-14
5.66131e-15
1.98333e-14
5.6374e-15
1.91298e-14
5.61515e-15
1.84274e-14
5.59368e-15
1.77266e-14
5.57236e-15
1.70279e-14
5.55072e-15
1.63315e-14
5.52848e-15
1.56378e-14
5.50545e-15
1.4947e-14
5.48157e-15
1.42596e-14
5.45682e-15
1.35755e-14
5.43129e-15
1.28951e-14
5.40506e-15
1.22185e-14
5.37828e-15
1.15457e-14
5.35112e-15
1.08768e-14
5.32375e-15
1.02119e-14
5.29636e-15
9.55076e-15
5.26913e-15
8.8935e-15
5.24226e-15
8.23999e-15
5.21594e-15
7.5901e-15
5.19032e-15
6.94369e-15
5.16559e-15
6.3006e-15
5.1419e-15
5.66063e-15
5.11938e-15
5.02357e-15
5.09815e-15
4.38918e-15
5.07833e-15
3.75721e-15
5.05997e-15
3.1274e-15
5.04314e-15
2.49946e-15
5.0279e-15
1.87303e-15
5.01443e-15
1.24771e-15
5.00313e-15
6.23061e-16
4.99476e-15
4.99034e-15
-2.23937e-09
2.05994e-07
-5.08394e-09
1.57014e-07
-3.3601e-10
9.16893e-08
9.23851e-09
3.01942e-08
3.12094e-08
-3.46788e-08
3.68803e-08
-1.05869e-07
3.51616e-08
-1.54542e-07
3.93084e-08
-1.50538e-07
4.86128e-08
-1.31978e-07
5.9544e-08
-9.65748e-08
6.00211e-08
-5.4184e-08
4.82382e-08
-1.60209e-08
3.548e-08
-3.85706e-09
2.98665e-08
2.49065e-08
2.66667e-08
4.06326e-08
2.38435e-08
5.86605e-08
1.60659e-08
6.56142e-08
1.2788e-08
5.83175e-08
7.57562e-09
4.58641e-08
2.80161e-09
-3.93742e-09
1.98674e-13
-2.62345e-08
3.34824e-14
4.85317e-14
3.59292e-14
3.99488e-14
3.75548e-14
3.61008e-14
3.83704e-14
3.29559e-14
3.85944e-14
2.99489e-14
3.83983e-14
2.70547e-14
3.792e-14
2.43138e-14
3.72705e-14
2.17655e-14
3.65325e-14
1.94397e-14
3.57617e-14
1.7355e-14
3.49908e-14
1.55183e-14
3.42359e-14
1.39253e-14
3.35023e-14
1.25626e-14
3.27895e-14
1.14107e-14
3.20941e-14
1.04462e-14
3.1412e-14
9.6454e-15
3.07392e-14
8.98518e-15
3.00721e-14
8.44442e-15
2.94078e-14
8.0043e-15
2.87441e-14
7.64835e-15
2.80789e-14
7.36237e-15
2.74111e-14
7.13412e-15
2.67396e-14
6.95316e-15
2.60639e-14
6.81059e-15
2.53838e-14
6.69883e-15
2.46991e-14
6.61151e-15
2.40103e-14
6.54328e-15
2.33176e-14
6.48969e-15
2.26216e-14
6.44705e-15
2.19229e-14
6.41239e-15
2.12222e-14
6.3833e-15
2.05201e-14
6.35787e-15
1.98173e-14
6.3346e-15
1.91146e-14
6.31236e-15
1.84124e-14
6.29031e-15
1.77115e-14
6.26785e-15
1.70123e-14
6.24457e-15
1.63153e-14
6.22023e-15
1.5621e-14
6.1947e-15
1.49296e-14
6.16797e-15
1.42415e-14
6.14008e-15
1.3557e-14
6.11115e-15
1.28762e-14
6.08135e-15
1.21993e-14
6.05085e-15
1.15265e-14
6.01986e-15
1.08576e-14
5.98861e-15
1.01929e-14
5.95732e-15
9.5322e-15
5.92621e-15
8.8755e-15
5.89552e-15
8.22268e-15
5.86545e-15
7.57364e-15
5.83622e-15
6.92821e-15
5.80801e-15
6.28621e-15
5.78102e-15
5.64743e-15
5.75539e-15
5.01165e-15
5.73128e-15
4.37861e-15
5.70881e-15
3.74805e-15
5.68806e-15
3.11967e-15
5.66911e-15
2.49318e-15
5.65205e-15
1.86824e-15
5.63707e-15
1.24449e-15
5.62462e-15
6.21539e-16
5.61547e-15
5.61073e-15
-2.31044e-10
2.0623e-07
1.36722e-09
1.55424e-07
5.71887e-09
8.73445e-08
1.9289e-08
1.66307e-08
2.92363e-08
-4.46199e-08
3.66625e-08
-1.1329e-07
3.84076e-08
-1.56282e-07
4.12856e-08
-1.53411e-07
4.73465e-08
-1.38034e-07
5.83075e-08
-1.07531e-07
6.55383e-08
-6.14103e-08
5.00422e-08
-5.20373e-10
3.18862e-08
1.43025e-08
2.40527e-08
3.27427e-08
1.8747e-08
4.59403e-08
1.38901e-08
6.35186e-08
8.88393e-09
7.0621e-08
3.06436e-09
6.41372e-08
2.69752e-09
4.62307e-08
1.77558e-09
-3.01591e-09
2.11693e-13
-2.44596e-08
2.59669e-14
1.22266e-13
3.2562e-14
3.33533e-14
3.48031e-14
3.38598e-14
3.5739e-14
3.20203e-14
3.60613e-14
2.96271e-14
3.59994e-14
2.71175e-14
3.56901e-14
2.46246e-14
3.52358e-14
2.22216e-14
3.47094e-14
1.9968e-14
3.41562e-14
1.79103e-14
3.35992e-14
1.60773e-14
3.30463e-14
1.448e-14
3.24974e-14
1.31132e-14
3.19489e-14
1.19603e-14
3.13967e-14
1.09991e-14
3.08377e-14
1.02047e-14
3.02694e-14
9.55319e-15
2.96904e-14
9.02265e-15
2.90997e-14
8.59358e-15
2.84971e-14
8.24909e-15
2.78824e-14
7.97465e-15
2.72559e-14
7.75777e-15
2.66179e-14
7.5878e-15
2.59692e-14
7.45563e-15
2.53104e-14
7.35356e-15
2.46425e-14
7.27505e-15
2.39664e-14
7.21465e-15
2.32834e-14
7.16785e-15
2.25944e-14
7.13093e-15
2.19006e-14
7.10091e-15
2.12032e-14
7.0754e-15
2.05031e-14
7.05253e-15
1.98013e-14
7.03088e-15
1.90988e-14
7.00937e-15
1.83964e-14
6.98725e-15
1.76949e-14
6.96399e-15
1.69949e-14
6.93926e-15
1.62969e-14
6.91291e-15
1.56016e-14
6.88489e-15
1.49094e-14
6.85525e-15
1.42205e-14
6.82411e-15
1.35353e-14
6.79165e-15
1.2854e-14
6.7581e-15
1.21768e-14
6.72369e-15
1.15038e-14
6.68868e-15
1.08351e-14
6.65335e-15
1.01706e-14
6.61796e-15
9.51033e-15
6.58278e-15
8.85425e-15
6.54808e-15
8.20225e-15
6.5141e-15
7.55417e-15
6.48107e-15
6.90987e-15
6.44924e-15
6.26914e-15
6.4188e-15
5.63175e-15
6.38994e-15
4.99747e-15
6.36283e-15
4.36602e-15
6.33762e-15
3.73711e-15
6.31441e-15
3.11044e-15
6.2933e-15
2.4857e-15
6.27437e-15
1.86255e-15
6.25785e-15
1.24066e-15
6.24417e-15
6.19648e-16
6.23415e-15
6.22916e-15
-1.25431e-09
2.07489e-07
1.82668e-09
1.52351e-07
4.99826e-09
8.418e-08
1.92632e-08
2.37233e-09
3.73891e-08
-6.27395e-08
4.48124e-08
-1.20707e-07
4.01838e-08
-1.51648e-07
4.02331e-08
-1.53455e-07
4.14662e-08
-1.39262e-07
4.70346e-08
-1.13095e-07
5.88294e-08
-7.3201e-08
4.71013e-08
1.12126e-08
2.8419e-08
3.29891e-08
1.68247e-08
4.43404e-08
9.7053e-09
5.3062e-08
4.62674e-09
6.85986e-08
3.76821e-10
7.48717e-08
-3.54785e-09
6.80622e-08
1.9875e-09
4.06953e-08
9.63884e-09
-1.06674e-08
2.31722e-09
-1.71382e-08
3.47897e-14
2.31711e-09
3.29983e-14
3.51446e-14
3.31889e-14
3.36688e-14
3.36418e-14
3.15677e-14
3.3863e-14
2.94067e-14
3.38162e-14
2.71657e-14
3.35861e-14
2.48565e-14
3.32632e-14
2.25467e-14
3.29088e-14
2.03248e-14
3.25531e-14
1.82686e-14
3.22028e-14
1.64301e-14
3.18521e-14
1.48331e-14
3.14909e-14
1.34765e-14
3.11103e-14
1.23427e-14
3.07044e-14
1.14062e-14
3.02705e-14
1.06393e-14
2.98081e-14
1.00158e-14
2.93178e-14
9.51251e-15
2.88012e-14
9.10928e-15
2.82598e-14
8.78896e-15
2.76954e-14
8.53694e-15
2.71099e-14
8.34074e-15
2.65051e-14
8.18968e-15
2.58826e-14
8.07465e-15
2.52445e-14
7.98792e-15
2.45924e-14
7.92295e-15
2.39283e-14
7.8743e-15
2.3254e-14
7.83749e-15
2.25711e-14
7.80888e-15
2.18814e-14
7.78555e-15
2.11863e-14
7.76522e-15
2.04874e-14
7.74614e-15
1.97858e-14
7.72701e-15
1.90829e-14
7.70688e-15
1.83797e-14
7.68511e-15
1.7677e-14
7.66132e-15
1.69756e-14
7.63528e-15
1.62764e-14
7.60694e-15
1.55798e-14
7.57637e-15
1.48863e-14
7.5437e-15
1.41964e-14
7.50914e-15
1.35104e-14
7.47296e-15
1.28284e-14
7.43544e-15
1.21508e-14
7.39689e-15
1.14776e-14
7.35763e-15
1.08089e-14
7.31798e-15
1.01447e-14
7.27826e-15
9.48497e-15
7.23878e-15
8.82961e-15
7.19985e-15
8.17853e-15
7.16174e-15
7.53157e-15
7.12474e-15
6.88856e-15
7.08909e-15
6.24928e-15
7.05504e-15
5.61349e-15
7.02281e-15
4.98094e-15
6.99258e-15
4.35132e-15
6.96451e-15
3.72435e-15
6.93875e-15
3.09968e-15
6.91539e-15
2.477e-15
6.89454e-15
1.85596e-15
6.87642e-15
1.23619e-15
6.86149e-15
6.17355e-16
6.85055e-15
6.84523e-15
-4.31637e-10
2.07925e-07
3.29935e-09
1.48628e-07
7.03628e-09
8.045e-08
1.37705e-08
-4.35542e-09
3.3407e-08
-8.23697e-08
3.80845e-08
-1.25378e-07
3.20663e-08
-1.45624e-07
3.17182e-08
-1.53101e-07
3.36512e-08
-1.41188e-07
3.31423e-08
-1.12579e-07
3.24928e-08
-7.25465e-08
3.87756e-08
4.93424e-09
2.25163e-08
4.92527e-08
8.53487e-09
5.83254e-08
8.06993e-10
6.07925e-08
-2.50847e-09
7.19158e-08
-3.72865e-09
7.6093e-08
-5.55023e-09
6.98843e-08
-2.38171e-09
3.7527e-08
-8.78927e-10
-1.21701e-08
1.58762e-08
-3.38927e-08
1.22387e-15
1.81933e-08
3.16909e-14
4.68502e-14
3.13417e-14
3.40182e-14
3.17454e-14
3.11647e-14
3.18979e-14
2.92554e-14
3.17921e-14
2.72731e-14
3.1562e-14
2.50888e-14
3.13168e-14
2.27945e-14
3.11082e-14
2.05363e-14
3.09439e-14
1.84359e-14
3.08058e-14
1.65713e-14
3.0666e-14
1.49758e-14
3.05003e-14
1.3645e-14
3.02927e-14
1.25527e-14
3.00355e-14
1.16652e-14
2.97273e-14
1.09488e-14
2.93701e-14
1.03737e-14
2.89674e-14
9.91525e-15
2.85234e-14
9.55285e-15
2.80418e-14
9.26949e-15
2.75263e-14
9.0508e-15
2.69803e-14
8.88458e-15
2.64069e-14
8.76037e-15
2.58093e-14
8.66921e-15
2.51902e-14
8.60349e-15
2.45525e-14
8.55679e-15
2.38988e-14
8.52378e-15
2.32317e-14
8.50011e-15
2.25535e-14
8.48231e-15
2.18665e-14
8.46763e-15
2.11726e-14
8.45398e-15
2.04738e-14
8.4398e-15
1.97715e-14
8.42398e-15
1.90673e-14
8.40577e-15
1.83624e-14
8.38469e-15
1.76578e-14
8.36052e-15
1.69546e-14
8.3332e-15
1.62535e-14
8.30281e-15
1.55552e-14
8.26954e-15
1.48602e-14
8.23365e-15
1.4169e-14
8.19545e-15
1.34819e-14
8.15528e-15
1.27992e-14
8.11352e-15
1.21211e-14
8.07055e-15
1.14477e-14
8.02675e-15
1.0779e-14
7.9825e-15
1.01151e-14
7.93818e-15
9.45595e-15
7.89414e-15
8.80141e-15
7.85072e-15
8.15137e-15
7.80826e-15
7.50568e-15
7.76705e-15
6.86413e-15
7.72739e-15
6.22651e-15
7.68955e-15
5.59254e-15
7.65377e-15
4.96196e-15
7.62026e-15
4.33445e-15
7.58921e-15
3.70969e-15
7.56078e-15
3.08733e-15
7.53508e-15
2.46702e-15
7.51224e-15
1.84838e-15
7.49248e-15
1.23105e-15
7.47626e-15
6.1467e-16
7.46438e-15
7.45855e-15
-6.90755e-10
2.0862e-07
2.53901e-09
1.45406e-07
7.11088e-09
7.5885e-08
9.47975e-09
-6.71809e-09
2.64049e-08
-9.92888e-08
3.16867e-08
-1.30654e-07
2.37473e-08
-1.37678e-07
2.02296e-08
-1.49579e-07
1.83375e-08
-1.39291e-07
1.84235e-08
-1.12657e-07
1.55406e-08
-6.96568e-08
2.74951e-08
-7.01475e-09
1.44993e-08
6.22531e-08
3.72034e-09
6.91081e-08
-3.91165e-09
6.84273e-08
-6.2725e-09
7.42785e-08
-5.87843e-09
7.57002e-08
-4.34123e-09
6.83479e-08
-7.79698e-09
4.09832e-08
-2.05151e-08
5.48126e-10
-2.95502e-08
-2.48571e-08
3.73178e-10
-1.17298e-08
2.04963e-14
3.73389e-10
2.88362e-14
2.56787e-14
3.00689e-14
2.99332e-14
3.01577e-14
2.91682e-14
2.98754e-14
2.75572e-14
2.95497e-14
2.54168e-14
2.93369e-14
2.30102e-14
2.92675e-14
2.06089e-14
2.93107e-14
1.8396e-14
2.94089e-14
1.64765e-14
2.95016e-14
1.48865e-14
2.95454e-14
1.36044e-14
2.95173e-14
1.25837e-14
2.94101e-14
1.17748e-14
2.92259e-14
1.11348e-14
2.89709e-14
1.063e-14
2.86524e-14
1.02343e-14
2.82775e-14
9.9277e-15
2.78526e-14
9.69382e-15
2.7383e-14
9.51913e-15
2.68738e-14
9.39203e-15
2.63294e-14
9.30248e-15
2.5754e-14
9.24183e-15
2.51516e-14
9.2027e-15
2.4526e-14
9.17888e-15
2.38805e-14
9.16527e-15
2.32186e-14
9.15775e-15
2.25433e-14
9.15311e-15
2.18573e-14
9.14888e-15
2.11631e-14
9.14324e-15
2.04629e-14
9.13491e-15
1.97587e-14
9.12303e-15
1.90521e-14
9.10711e-15
1.83447e-14
9.0869e-15
1.76375e-14
9.06238e-15
1.69318e-14
9.03369e-15
1.62283e-14
9.00108e-15
1.55278e-14
8.96488e-15
1.4831e-14
8.92548e-15
1.41382e-14
8.88331e-15
1.34498e-14
8.83883e-15
1.27662e-14
8.79249e-15
1.20875e-14
8.74476e-15
1.14138e-14
8.69608e-15
1.07451e-14
8.64691e-15
1.00816e-14
8.59767e-15
9.42306e-15
8.54877e-15
8.76944e-15
8.50059e-15
8.12059e-15
8.4535e-15
7.47633e-15
8.40784e-15
6.83644e-15
8.36394e-15
6.20068e-15
8.32209e-15
5.56878e-15
8.28257e-15
4.94042e-15
8.24561e-15
4.31529e-15
8.21142e-15
3.69303e-15
8.18019e-15
3.07329e-15
8.15205e-15
2.45565e-15
8.12714e-15
1.83973e-15
8.1057e-15
1.22514e-15
8.08814e-15
6.11685e-16
8.07515e-15
8.06881e-15
-1.59941e-09
2.10224e-07
1.30338e-11
1.43801e-07
3.03931e-09
7.28652e-08
-4.71341e-10
-3.20145e-09
-1.27121e-08
-8.70422e-08
-2.66377e-08
-1.16722e-07
-1.52558e-08
-1.49053e-07
-1.32699e-08
-1.51558e-07
-1.01227e-08
-1.42433e-07
-3.83975e-11
-1.22735e-07
-7.40477e-09
-6.22836e-08
-5.56538e-09
-8.84805e-09
6.84874e-09
4.98439e-08
-3.16143e-09
7.91222e-08
-9.44668e-09
7.47156e-08
-9.17577e-09
7.40097e-08
-5.33787e-09
7.18638e-08
1.20431e-09
6.18069e-08
6.48931e-09
3.56992e-08
8.43871e-10
6.19418e-09
-1.0356e-08
-1.36563e-08
4.25929e-09
-2.63443e-08
3.56263e-14
4.63292e-09
3.25782e-14
4.81046e-14
2.93955e-14
3.31165e-14
2.87406e-14
2.98252e-14
2.79946e-14
2.83052e-14
2.74366e-14
2.59772e-14
2.72298e-14
2.322e-14
2.73265e-14
2.05157e-14
2.7628e-14
1.80979e-14
2.80159e-14
1.60924e-14
2.83791e-14
1.45268e-14
2.86524e-14
1.33347e-14
2.88102e-14
1.24293e-14
2.88512e-14
1.17367e-14
2.87855e-14
1.12029e-14
2.86262e-14
1.0791e-14
2.83858e-14
1.04759e-14
2.80747e-14
1.02393e-14
2.77016e-14
1.00668e-14
2.72738e-14
9.94622e-15
2.67975e-14
9.86699e-15
2.62784e-14
9.81965e-15
2.57219e-14
9.79594e-15
2.51329e-14
9.78878e-15
2.45163e-14
9.79228e-15
2.38762e-14
9.80162e-15
2.3217e-14
9.81304e-15
2.25421e-14
9.82367e-15
2.1855e-14
9.83144e-15
2.11586e-14
9.8349e-15
2.04555e-14
9.83312e-15
1.97479e-14
9.8256e-15
1.90377e-14
9.81215e-15
1.83266e-14
9.7928e-15
1.7616e-14
9.76781e-15
1.6907e-14
9.73751e-15
1.62005e-14
9.70236e-15
1.54974e-14
9.66287e-15
1.47983e-14
9.61958e-15
1.41036e-14
9.57304e-15
1.34137e-14
9.52383e-15
1.2729e-14
9.47251e-15
1.20496e-14
9.41961e-15
1.13756e-14
9.36567e-15
1.0707e-14
9.3112e-15
1.00438e-14
9.25669e-15
9.38604e-15
9.20258e-15
8.73347e-15
9.14932e-15
8.08596e-15
9.0973e-15
7.44332e-15
9.04692e-15
6.8053e-15
8.99852e-15
6.17164e-15
8.95243e-15
5.54205e-15
8.90895e-15
4.91619e-15
8.86835e-15
4.29373e-15
8.83086e-15
3.67429e-15
8.79668e-15
3.05747e-15
8.76597e-15
2.44283e-15
8.73891e-15
1.82993e-15
8.71575e-15
1.21839e-15
8.69683e-15
6.0852e-16
8.68216e-15
8.67584e-15
-4.67879e-09
2.14907e-07
-6.22559e-09
1.45355e-07
-2.70944e-09
6.93554e-08
-5.15158e-09
-7.5335e-10
-9.31824e-09
-8.287e-08
-2.31567e-08
-1.02878e-07
-4.89035e-08
-1.23299e-07
-5.84233e-08
-1.42029e-07
-5.11371e-08
-1.49712e-07
-4.62188e-08
-1.27647e-07
-3.78936e-08
-7.0602e-08
-4.39647e-08
-2.77095e-09
-2.66062e-08
3.24905e-08
-1.85922e-08
7.11125e-08
-1.87268e-08
7.48534e-08
-1.45912e-08
6.98763e-08
-7.92436e-09
6.51986e-08
5.22607e-09
4.8658e-08
1.23629e-08
2.85637e-08
1.22154e-08
6.34272e-09
7.13721e-09
-8.57692e-09
2.30828e-09
-2.15142e-08
1.74639e-10
6.76729e-09
1.94462e-14
1.75134e-10
2.64964e-14
2.6067e-14
2.73987e-14
2.89255e-14
2.59462e-14
2.97607e-14
2.50139e-14
2.69122e-14
2.4855e-14
2.33821e-14
2.52043e-14
2.017e-14
2.58687e-14
1.7437e-14
2.66433e-14
1.5322e-14
2.73348e-14
1.38388e-14
2.78598e-14
1.28133e-14
2.82044e-14
1.20883e-14
2.83848e-14
1.15595e-14
2.84261e-14
1.11642e-14
2.83518e-14
1.08675e-14
2.81802e-14
1.0649e-14
2.79254e-14
1.04951e-14
2.75979e-14
1.03946e-14
2.72062e-14
1.03376e-14
2.67578e-14
1.03144e-14
2.62595e-14
1.03165e-14
2.57175e-14
1.03359e-14
2.51379e-14
1.03659e-14
2.45264e-14
1.04008e-14
2.38884e-14
1.04363e-14
2.32285e-14
1.04692e-14
2.25513e-14
1.04969e-14
2.18606e-14
1.05178e-14