/*--------------------------------*- C++ -*----------------------------------*\
  =========                 |
  \\      /  F ield         | OpenFOAM: The Open Source CFD Toolbox
   \\    /   O peration     | Website:  https://openfoam.org
    \\  /    A nd           | Version:  6
     \\/     M anipulation  |
\*---------------------------------------------------------------------------*/
FoamFile
{
    version     2.0;
    format      ascii;
    class       volVectorField;
    location    "810";
    object      U;
}
// * * * * * * * * * * * * * * * * * * * * * * * * * * * * * * * * * * * * * //

dimensions      [0 1 -1 0 0 0 0];

internalField   nonuniform List<vector> 
5964
(
(0.00391158 0 -0.0020295)
(-0.00429197 0 0.00218917)
(-0.00427453 0 -0.0025401)
(-0.00547171 0 0.000935148)
(-0.00491418 0 -0.00130544)
(-0.0039172 0 -0.000601859)
(-0.00352328 0 -0.000453752)
(-0.00306949 0 -0.00037274)
(-0.0024493 0 -0.000506962)
(-0.00219969 0 -0.000155231)
(-0.00209216 0 -0.000220137)
(-0.00222418 0 -0.000103007)
(-0.00241102 0 -0.000155773)
(-0.00254178 0 -0.000230999)
(-0.00273972 0 -0.000168182)
(-0.00285601 0 -0.000229824)
(-0.00276623 0 -0.000584166)
(-0.00220292 0 -0.000646807)
(-0.00176427 0 -0.000738878)
(-0.000529712 0 -0.00172688)
(0.000345237 0 -0.000322411)
(-3.22815e-06 0 0.000206873)
(3.24473e-09 0 1.38917e-09)
(5.7255e-09 0 7.14522e-10)
(4.52554e-09 0 4.10373e-10)
(3.80815e-09 0 2.62071e-10)
(3.33382e-09 0 1.82509e-10)
(2.99437e-09 0 1.35638e-10)
(2.73687e-09 0 1.05688e-10)
(2.53315e-09 0 8.52467e-11)
(2.36691e-09 0 7.05628e-11)
(2.22804e-09 0 5.95952e-11)
(2.10988e-09 0 5.11611e-11)
(2.00777e-09 0 4.45353e-11)
(1.91837e-09 0 3.92498e-11)
(1.83915e-09 0 3.49889e-11)
(1.76814e-09 0 3.153e-11)
(1.70383e-09 0 2.87107e-11)
(1.64496e-09 0 2.64079e-11)
(1.59054e-09 0 2.45263e-11)
(1.53976e-09 0 2.29897e-11)
(1.49194e-09 0 2.1737e-11)
(1.44652e-09 0 2.07179e-11)
(1.40307e-09 0 1.98907e-11)
(1.3612e-09 0 1.9221e-11)
(1.32061e-09 0 1.868e-11)
(1.28106e-09 0 1.82437e-11)
(1.24233e-09 0 1.78918e-11)
(1.20429e-09 0 1.76077e-11)
(1.16678e-09 0 1.73773e-11)
(1.12972e-09 0 1.71892e-11)
(1.09302e-09 0 1.70338e-11)
(1.05663e-09 0 1.69034e-11)
(1.02049e-09 0 1.67915e-11)
(9.84581e-10 0 1.66933e-11)
(9.48872e-10 0 1.66046e-11)
(9.13349e-10 0 1.65223e-11)
(8.78001e-10 0 1.6444e-11)
(8.42821e-10 0 1.63679e-11)
(8.07808e-10 0 1.62928e-11)
(7.7296e-10 0 1.62177e-11)
(7.38279e-10 0 1.61422e-11)
(7.03766e-10 0 1.6066e-11)
(6.69422e-10 0 1.59889e-11)
(6.3525e-10 0 1.59112e-11)
(6.0125e-10 0 1.5833e-11)
(5.67424e-10 0 1.57546e-11)
(5.33772e-10 0 1.56764e-11)
(5.00291e-10 0 1.55989e-11)
(4.66982e-10 0 1.55224e-11)
(4.33839e-10 0 1.54474e-11)
(4.0086e-10 0 1.53743e-11)
(3.6804e-10 0 1.53035e-11)
(3.35372e-10 0 1.52354e-11)
(3.02851e-10 0 1.51705e-11)
(2.7047e-10 0 1.51089e-11)
(2.38219e-10 0 1.5051e-11)
(2.06091e-10 0 1.49971e-11)
(1.74077e-10 0 1.49467e-11)
(1.42172e-10 0 1.48974e-11)
(1.10381e-10 0 1.48423e-11)
(7.87288e-11 0 1.47679e-11)
(4.72133e-11 0 1.47158e-11)
(1.57419e-11 0 1.47275e-11)
(-0.00232415 0 0.00375013)
(-0.00381403 0 0.00258885)
(-0.00497924 0 0.00106764)
(-0.00540933 0 0.00080395)
(-0.00455873 0 -0.00135)
(-0.00343972 0 -0.00106513)
(-0.00270385 0 -0.000804542)
(-0.00202183 0 -0.000224575)
(-0.000950943 0 -0.000572012)
(-0.000417387 0 -0.000225476)
(-0.000382288 0 0.000409678)
(-0.000215556 0 0.00034523)
(-0.000804032 0 0.00054265)
(-0.000917975 0 0.000321511)
(-0.00163845 0 -9.84732e-05)
(-0.00178412 0 -0.000242604)
(-0.00190203 0 -0.000223741)
(-0.00182489 0 -0.000580119)
(-0.00130861 0 -0.00150424)
(-0.00142848 0 -0.0015542)
(-0.000166856 0 1.23752e-05)
(2.29908e-09 0 1.45167e-08)
(3.22731e-09 0 3.40395e-09)
(4.80612e-09 0 1.81738e-09)
(4.10041e-09 0 1.09383e-09)
(3.59406e-09 0 7.25591e-10)
(3.21515e-09 0 5.18649e-10)
(2.92244e-09 0 3.91939e-10)
(2.68989e-09 0 3.08631e-10)
(2.5006e-09 0 2.5063e-10)
(2.34331e-09 0 2.08388e-10)
(2.21035e-09 0 1.76536e-10)
(2.09627e-09 0 1.51878e-10)
(1.99712e-09 0 1.32415e-10)
(1.90992e-09 0 1.16837e-10)
(1.83239e-09 0 1.04247e-10)
(1.76271e-09 0 9.40103e-11)
(1.69945e-09 0 8.56555e-11)
(1.64143e-09 0 7.88258e-11)
(1.5877e-09 0 7.32417e-11)
(1.53748e-09 0 6.86805e-11)
(1.49012e-09 0 6.49611e-11)
(1.44508e-09 0 6.19351e-11)
(1.40194e-09 0 5.94794e-11)
(1.36032e-09 0 5.74918e-11)
(1.31994e-09 0 5.58865e-11)
(1.28055e-09 0 5.45923e-11)
(1.24196e-09 0 5.35492e-11)
(1.20402e-09 0 5.27074e-11)
(1.1666e-09 0 5.20253e-11)
(1.1296e-09 0 5.14687e-11)
(1.09296e-09 0 5.10092e-11)
(1.0566e-09 0 5.06236e-11)
(1.02049e-09 0 5.02932e-11)
(9.84607e-10 0 5.0003e-11)
(9.48914e-10 0 4.97408e-11)
(9.13402e-10 0 4.94976e-11)
(8.78062e-10 0 4.9266e-11)
(8.42888e-10 0 4.90409e-11)
(8.07879e-10 0 4.88184e-11)
(7.73035e-10 0 4.8596e-11)
(7.38356e-10 0 4.8372e-11)
(7.03845e-10 0 4.81456e-11)
(6.69503e-10 0 4.79167e-11)
(6.35334e-10 0 4.76856e-11)
(6.01338e-10 0 4.7453e-11)
(5.67516e-10 0 4.72198e-11)
(5.33868e-10 0 4.69871e-11)
(5.00392e-10 0 4.67562e-11)
(4.67088e-10 0 4.65283e-11)
(4.33952e-10 0 4.63048e-11)
(4.0098e-10 0 4.6087e-11)
(3.68167e-10 0 4.5876e-11)
(3.35508e-10 0 4.56731e-11)
(3.02995e-10 0 4.54793e-11)
(2.70621e-10 0 4.52956e-11)
(2.38379e-10 0 4.51228e-11)
(2.0626e-10 0 4.49614e-11)
(1.74256e-10 0 4.48103e-11)
(1.4236e-10 0 4.46637e-11)
(1.10571e-10 0 4.45054e-11)
(7.8887e-11 0 4.43071e-11)
(4.72888e-11 0 4.41736e-11)
(1.57529e-11 0 4.41991e-11)
(-0.00239359 0 0.00450746)
(-0.00269236 0 0.00391308)
(-0.00416035 0 0.0030396)
(-0.00433423 0 0.00317741)
(-0.00443753 0 -0.00288894)
(-0.00365003 0 -0.0014376)
(-0.00197381 0 -0.00282928)
(-0.00103398 0 -0.0021667)
(-0.000341959 0 -0.00143393)
(0.000873891 0 -0.000885244)
(-0.000107964 0 0.0016893)
(0.00225381 0 0.000138973)
(0.00173486 0 0.000423956)
(0.00116996 0 0.000912801)
(0.00117277 0 0.000991335)
(0.000383875 0 0.000615955)
(-0.00058324 0 -9.36515e-07)
(-0.000938619 0 -0.000345607)
(-0.00081139 0 -0.00129377)
(-0.00115147 0 -0.0018252)
(-2.5856e-05 0 -0.00127583)
(1.06071e-09 0 2.59566e-09)
(2.80864e-09 0 3.37294e-09)
(3.55701e-09 0 2.16093e-09)
(3.50054e-09 0 1.46454e-09)
(3.26826e-09 0 1.04705e-09)
(3.02091e-09 0 7.84058e-10)
(2.79776e-09 0 6.09936e-10)
(2.60497e-09 0 4.89218e-10)
(2.43996e-09 0 4.02085e-10)
(2.29837e-09 0 3.37034e-10)
(2.17607e-09 0 2.87128e-10)
(2.06955e-09 0 2.4802e-10)
(1.97595e-09 0 2.16881e-10)
(1.89297e-09 0 1.91803e-10)
(1.8187e-09 0 1.71447e-10)
(1.75161e-09 0 1.54843e-10)
(1.69043e-09 0 1.41264e-10)
(1.6341e-09 0 1.30148e-10)
(1.58175e-09 0 1.21052e-10)
(1.53266e-09 0 1.1362e-10)
(1.48623e-09 0 1.07559e-10)
(1.44196e-09 0 1.02629e-10)
(1.39944e-09 0 9.86298e-11)
(1.35834e-09 0 9.53949e-11)
(1.31837e-09 0 9.27844e-11)
(1.27932e-09 0 9.06815e-11)
(1.24101e-09 0 8.89882e-11)
(1.20328e-09 0 8.76229e-11)
(1.16604e-09 0 8.65176e-11)
(1.12917e-09 0 8.56161e-11)
(1.09263e-09 0 8.48719e-11)
(1.05636e-09 0 8.42472e-11)
(1.02031e-09 0 8.37114e-11)
(9.84464e-10 0 8.32397e-11)
(9.48802e-10 0 8.28129e-11)
(9.13311e-10 0 8.24156e-11)
(8.77984e-10 0 8.20364e-11)
(8.42819e-10 0 8.16667e-11)
(8.07815e-10 0 8.13003e-11)
(7.72973e-10 0 8.09333e-11)
(7.38295e-10 0 8.05629e-11)
(7.03784e-10 0 8.01882e-11)
(6.69444e-10 0 7.98088e-11)
(6.35276e-10 0 7.94254e-11)
(6.01282e-10 0 7.90391e-11)
(5.67464e-10 0 7.86517e-11)
(5.33821e-10 0 7.8265e-11)
(5.00353e-10 0 7.78811e-11)
(4.67057e-10 0 7.75022e-11)
(4.3393e-10 0 7.71305e-11)
(4.00969e-10 0 7.67683e-11)
(3.68168e-10 0 7.64175e-11)
(3.35521e-10 0 7.60801e-11)
(3.03022e-10 0 7.57578e-11)
(2.70663e-10 0 7.54524e-11)
(2.38436e-10 0 7.51649e-11)
(2.06332e-10 0 7.48961e-11)
(1.74343e-10 0 7.46446e-11)
(1.42461e-10 0 7.44036e-11)
(1.10674e-10 0 7.41557e-11)
(7.89702e-11 0 7.38734e-11)
(4.73344e-11 0 7.36828e-11)
(1.57658e-11 0 7.37e-11)
(-0.00114077 0 0.00617852)
(-0.00234502 0 0.00478252)
(-0.00326178 0 0.00370485)
(-0.00432033 0 -0.00237442)
(-0.00367263 0 -0.000878396)
(-0.00344765 0 -0.00262245)
(-0.00297006 0 -0.00310664)
(-0.000240348 0 -0.00392898)
(-0.00033118 0 -0.00292996)
(0.000186746 0 -0.00264952)
(0.00218481 0 -0.000506127)
(0.00267582 0 -0.000786906)
(0.00289287 0 0.00078567)
(0.002696 0 0.000976202)
(0.00209889 0 0.00134595)
(0.00135161 0 0.00135437)
(0.00101966 0 0.000925715)
(0.000194438 0 -7.79806e-05)
(-2.17606e-05 0 -0.000802363)
(-0.000173451 0 -0.0014707)
(-1.33886e-05 0 -0.00212538)
(1.25394e-09 0 2.29676e-09)
(2.72295e-09 0 2.50574e-09)
(3.01646e-09 0 2.05121e-09)
(3.05585e-09 0 1.59004e-09)
(2.95609e-09 0 1.23261e-09)
(2.80562e-09 0 9.71261e-10)
(2.64654e-09 0 7.80915e-10)
(2.49574e-09 0 6.40226e-10)
(2.35879e-09 0 5.34089e-10)
(2.23651e-09 0 4.52347e-10)
(2.12792e-09 0 3.88226e-10)
(2.03146e-09 0 3.37169e-10)
(1.94545e-09 0 2.96046e-10)
(1.86832e-09 0 2.62652e-10)
(1.79868e-09 0 2.35388e-10)
(1.7353e-09 0 2.13061e-10)
(1.67712e-09 0 1.94752e-10)
(1.62325e-09 0 1.7974e-10)
(1.57292e-09 0 1.67446e-10)
(1.52549e-09 0 1.57398e-10)
(1.48042e-09 0 1.49205e-10)
(1.43728e-09 0 1.42545e-10)
(1.39569e-09 0 1.37148e-10)
(1.35534e-09 0 1.32787e-10)
(1.31599e-09 0 1.29272e-10)
(1.27744e-09 0 1.26445e-10)
(1.23953e-09 0 1.24171e-10)
(1.20212e-09 0 1.22341e-10)
(1.16513e-09 0 1.2086e-10)
(1.12846e-09 0 1.19653e-10)
(1.09207e-09 0 1.18656e-10)
(1.05591e-09 0 1.17818e-10)
(1.01995e-09 0 1.17097e-10)
(9.84163e-10 0 1.16459e-10)
(9.48543e-10 0 1.1588e-10)
(9.1308e-10 0 1.15338e-10)
(8.77771e-10 0 1.14817e-10)
(8.42615e-10 0 1.14307e-10)
(8.07615e-10 0 1.13799e-10)
(7.72774e-10 0 1.13289e-10)
(7.38095e-10 0 1.12772e-10)
(7.03583e-10 0 1.12248e-10)
(6.69242e-10 0 1.11717e-10)
(6.35074e-10 0 1.11179e-10)
(6.01082e-10 0 1.10637e-10)
(5.67267e-10 0 1.10093e-10)
(5.3363e-10 0 1.0955e-10)
(5.0017e-10 0 1.0901e-10)
(4.66884e-10 0 1.08478e-10)
(4.3377e-10 0 1.07956e-10)
(4.00824e-10 0 1.07447e-10)
(3.6804e-10 0 1.06954e-10)
(3.35412e-10 0 1.06481e-10)
(3.02933e-10 0 1.06029e-10)
(2.70595e-10 0 1.05601e-10)
(2.3839e-10 0 1.05198e-10)
(2.06308e-10 0 1.04821e-10)
(1.74342e-10 0 1.04469e-10)
(1.42479e-10 0 1.04138e-10)
(1.10705e-10 0 1.03812e-10)
(7.89962e-11 0 1.03472e-10)
(4.73462e-11 0 1.03223e-10)
(1.5769e-11 0 1.03216e-10)
(-0.00197501 0 0.00716536)
(-0.00179646 0 0.0058406)
(-0.00232277 0 0.00398871)
(-0.00346357 0 0.00148889)
(-0.00354967 0 -0.00192018)
(-0.00270343 0 -0.00360359)
(-0.00229773 0 -0.00416998)
(-0.00179213 0 -0.00402332)
(-0.000600953 0 -0.00362548)
(3.365e-05 0 -0.00311549)
(0.00166239 0 -0.00222577)
(0.00238903 0 -0.000559406)
(0.0027591 0 1.15307e-05)
(0.00312793 0 0.00111642)
(0.00309169 0 0.00131699)
(0.00280435 0 0.00130299)
(0.00188833 0 0.00142351)
(0.00124351 0 0.000980249)
(0.000900248 0 -2.03816e-05)
(0.000299465 0 -0.00100089)
(-3.6748e-06 0 -0.00219483)
(1.25324e-09 0 2.29259e-09)
(2.58145e-09 0 2.2227e-09)
(2.70002e-09 0 1.94776e-09)
(2.73397e-09 0 1.62453e-09)
(2.68885e-09 0 1.33375e-09)
(2.59814e-09 0 1.09606e-09)
(2.48819e-09 0 9.08224e-10)
(2.37445e-09 0 7.60838e-10)
(2.26478e-09 0 6.44635e-10)
(2.16264e-09 0 5.52165e-10)
(2.06913e-09 0 4.7785e-10)
(1.98417e-09 0 4.17606e-10)
(1.90711e-09 0 3.68444e-10)
(1.83708e-09 0 3.28146e-10)
(1.77313e-09 0 2.95027e-10)
(1.71438e-09 0 2.67784e-10)
(1.66e-09 0 2.4538e-10)
(1.60925e-09 0 2.2698e-10)
(1.5615e-09 0 2.11901e-10)
(1.5162e-09 0 1.99575e-10)
(1.4729e-09 0 1.89532e-10)
(1.43121e-09 0 1.81377e-10)
(1.39081e-09 0 1.74777e-10)
(1.35144e-09 0 1.69454e-10)
(1.31289e-09 0 1.65172e-10)
(1.27498e-09 0 1.61735e-10)
(1.23759e-09 0 1.58978e-10)
(1.20059e-09 0 1.56761e-10)
(1.16392e-09 0 1.54971e-10)
(1.12751e-09 0 1.53512e-10)
(1.09131e-09 0 1.52306e-10)
(1.05529e-09 0 1.51289e-10)
(1.01943e-09 0 1.50411e-10)
(9.83719e-10 0 1.49631e-10)
(9.48149e-10 0 1.48915e-10)
(9.12718e-10 0 1.48241e-10)
(8.77428e-10 0 1.47588e-10)
(8.42281e-10 0 1.46944e-10)
(8.07283e-10 0 1.46299e-10)
(7.7244e-10 0 1.45647e-10)
(7.37758e-10 0 1.44985e-10)
(7.03241e-10 0 1.44312e-10)
(6.68896e-10 0 1.43628e-10)
(6.34726e-10 0 1.42934e-10)
(6.00735e-10 0 1.42234e-10)
(5.66923e-10 0 1.41531e-10)
(5.33293e-10 0 1.40828e-10)
(4.99842e-10 0 1.4013e-10)
(4.66569e-10 0 1.39442e-10)
(4.33471e-10 0 1.38767e-10)
(4.00544e-10 0 1.38109e-10)
(3.67782e-10 0 1.37472e-10)
(3.35179e-10 0 1.36861e-10)
(3.02726e-10 0 1.36277e-10)
(2.70416e-10 0 1.35725e-10)
(2.3824e-10 0 1.35205e-10)
(2.06189e-10 0 1.34721e-10)
(1.74252e-10 0 1.3427e-10)
(1.42417e-10 0 1.3385e-10)
(1.10669e-10 0 1.33453e-10)
(7.89775e-11 0 1.33073e-10)
(4.73306e-11 0 1.32771e-10)
(1.57597e-11 0 1.32726e-10)
(-0.00156096 0 0.00836416)
(-0.000725731 0 0.00685525)
(-0.00171524 0 0.00439631)
(-0.00147051 0 0.00291457)
(-0.00313233 0 -0.00180409)
(-0.00196225 0 -0.00418488)
(-0.00159393 0 -0.00502118)
(0.00012312 0 -0.005108)
(-0.000327858 0 -0.00424516)
(0.00135144 0 -0.00359833)
(0.00135098 0 -0.00274793)
(0.00168352 0 -0.00134652)
(0.00229652 0 -0.000198364)
(0.00289874 0 0.000494511)
(0.00284683 0 0.00194171)
(0.00264181 0 0.00218439)
(0.00208727 0 0.00208012)
(0.00165057 0 0.00143501)
(0.00101572 0 0.000375546)
(0.000263221 0 -0.000920854)
(-2.37157e-08 0 -0.00187133)
(1.18628e-09 0 2.29373e-09)
(2.40397e-09 0 2.12089e-09)
(2.45831e-09 0 1.88734e-09)
(2.48193e-09 0 1.6308e-09)
(2.46192e-09 0 1.3884e-09)
(2.40776e-09 0 1.1771e-09)
(2.33329e-09 0 1.00001e-09)
(2.24965e-09 0 8.54052e-10)
(2.1642e-09 0 7.34328e-10)
(2.08121e-09 0 6.36039e-10)
(2.00283e-09 0 5.55124e-10)
(1.92993e-09 0 4.88329e-10)
(1.86258e-09 0 4.33086e-10)
(1.80045e-09 0 3.87366e-10)
(1.74299e-09 0 3.49542e-10)
(1.68959e-09 0 3.18292e-10)
(1.63965e-09 0 2.92526e-10)
(1.59258e-09 0 2.71338e-10)
(1.54789e-09 0 2.53968e-10)
(1.50513e-09 0 2.39777e-10)
(1.46393e-09 0 2.28228e-10)
(1.42398e-09 0 2.18866e-10)
(1.38501e-09 0 2.11306e-10)
(1.34681e-09 0 2.05223e-10)
(1.3092e-09 0 2.00346e-10)
(1.27206e-09 0 1.96442e-10)
(1.23528e-09 0 1.93319e-10)
(1.19877e-09 0 1.90816e-10)
(1.16248e-09 0 1.88797e-10)
(1.12635e-09 0 1.87153e-10)
(1.09038e-09 0 1.85792e-10)
(1.05452e-09 0 1.84641e-10)
(1.01878e-09 0 1.83641e-10)
(9.83152e-10 0 1.82744e-10)
(9.47636e-10 0 1.81913e-10)
(9.12237e-10 0 1.81122e-10)
(8.76963e-10 0 1.80348e-10)
(8.41821e-10 0 1.79578e-10)
(8.06822e-10 0 1.78801e-10)
(7.71972e-10 0 1.78011e-10)
(7.37282e-10 0 1.77204e-10)
(7.02757e-10 0 1.7638e-10)
(6.68405e-10 0 1.75541e-10)
(6.34231e-10 0 1.74689e-10)
(6.00238e-10 0 1.73828e-10)
(5.6643e-10 0 1.72962e-10)
(5.32806e-10 0 1.72097e-10)
(4.99366e-10 0 1.71237e-10)
(4.66109e-10 0 1.70389e-10)
(4.33031e-10 0 1.69557e-10)
(4.00127e-10 0 1.68747e-10)
(3.67392e-10 0 1.67964e-10)
(3.3482e-10 0 1.67212e-10)
(3.024e-10 0 1.66495e-10)
(2.70126e-10 0 1.65817e-10)
(2.37988e-10 0 1.6518e-10)
(2.05975e-10 0 1.64587e-10)
(1.74076e-10 0 1.64037e-10)
(1.42278e-10 0 1.63531e-10)
(1.10566e-10 0 1.63066e-10)
(7.89122e-11 0 1.62648e-10)
(4.72918e-11 0 1.62314e-10)
(1.57436e-11 0 1.62211e-10)
(-0.00202574 0 0.00934564)
(-0.000628623 0 0.00723531)
(-0.001199 0 0.00444149)
(-0.00180774 0 0.00156981)
(-0.00160524 0 -6.093e-05)
(-0.000945598 0 -0.00467563)
(0.000207005 0 -0.00638791)
(0.000839316 0 -0.00586055)
(0.00119505 0 -0.00481646)
(0.00186336 0 -0.00371866)
(0.00197312 0 -0.00264846)
(0.000976083 0 -0.0020115)
(0.00231155 0 -0.000388934)
(0.00258511 0 0.000467445)
(0.00266455 0 0.00163725)
(0.00246576 0 0.0022588)
(0.00205145 0 0.00228972)
(0.00206812 0 0.00151877)
(0.00099379 0 0.00104754)
(0.000218423 0 -0.000688241)
(1.2329e-06 0 -0.00165172)
(1.09217e-09 0 2.29616e-09)
(2.20518e-09 0 2.0733e-09)
(2.24373e-09 0 1.84773e-09)
(2.2684e-09 0 1.625e-09)
(2.26512e-09 0 1.41594e-09)
(2.23534e-09 0 1.22818e-09)
(2.18651e-09 0 1.06449e-09)
(2.12649e-09 0 9.24247e-10)
(2.06149e-09 0 8.05207e-10)
(1.99571e-09 0 7.04669e-10)
(1.93171e-09 0 6.20019e-10)
(1.87078e-09 0 5.48932e-10)
(1.81344e-09 0 4.89396e-10)
(1.75968e-09 0 4.39687e-10)
(1.70924e-09 0 3.98322e-10)
(1.66174e-09 0 3.64023e-10)
(1.61672e-09 0 3.3569e-10)
(1.57379e-09 0 3.12378e-10)
(1.53255e-09 0 2.93275e-10)
(1.49266e-09 0 2.7769e-10)
(1.45384e-09 0 2.65031e-10)
(1.41585e-09 0 2.54795e-10)
(1.3785e-09 0 2.46557e-10)
(1.34162e-09 0 2.39953e-10)
(1.30509e-09 0 2.34679e-10)
(1.26881e-09 0 2.30476e-10)
(1.23271e-09 0 2.27127e-10)
(1.19674e-09 0 2.24452e-10)
(1.16087e-09 0 2.22301e-10)
(1.12507e-09 0 2.2055e-10)
(1.08933e-09 0 2.19098e-10)
(1.05365e-09 0 2.17863e-10)
(1.01803e-09 0 2.1678e-10)
(9.82485e-10 0 2.15797e-10)
(9.4702e-10 0 2.14875e-10)
(9.11649e-10 0 2.13985e-10)
(8.76385e-10 0 2.13103e-10)
(8.41243e-10 0 2.12215e-10)
(8.06234e-10 0 2.1131e-10)
(7.71372e-10 0 2.10383e-10)
(7.36667e-10 0 2.09432e-10)
(7.0213e-10 0 2.08457e-10)
(6.67767e-10 0 2.07461e-10)
(6.33585e-10 0 2.06447e-10)
(5.99589e-10 0 2.05421e-10)
(5.65783e-10 0 2.04388e-10)
(5.32166e-10 0 2.03355e-10)
(4.98739e-10 0 2.02329e-10)
(4.655e-10 0 2.01316e-10)
(4.32445e-10 0 2.00324e-10)
(3.9957e-10 0 1.99357e-10)
(3.66868e-10 0 1.98423e-10)
(3.34332e-10 0 1.97527e-10)
(3.01954e-10 0 1.96674e-10)
(2.69724e-10 0 1.95868e-10)
(2.37632e-10 0 1.95113e-10)
(2.05666e-10 0 1.94411e-10)
(1.73814e-10 0 1.93763e-10)
(1.42064e-10 0 1.93171e-10)
(1.10398e-10 0 1.92638e-10)
(7.87953e-11 0 1.92177e-10)
(4.72289e-11 0 1.91823e-10)
(1.57258e-11 0 1.91664e-10)
(-0.00117765 0 0.00990215)
(-0.000841756 0 0.00736824)
(-0.000942879 0 0.00465996)
(-6.97508e-05 0 0.00228183)
(-0.000274355 0 0.00028106)
(-6.61829e-06 0 -0.00463199)
(0.00119551 0 -0.00709638)
(0.00132234 0 -0.00668101)
(0.00193623 0 -0.00552332)
(0.00255445 0 -0.00389479)
(0.00266038 0 -0.00256356)
(0.00203031 0 -0.00144917)
(0.00216036 0 -0.00108334)
(0.00220432 0 0.000849989)
(0.00221954 0 0.00168971)
(0.00171424 0 0.00269462)
(0.00202581 0 0.00243625)
(0.00142498 0 0.00235441)
(0.000603947 0 0.00163414)
(8.56111e-05 0 -0.000541961)
(8.71339e-07 0 -0.00147505)
(9.80029e-10 0 2.29738e-09)
(1.98826e-09 0 2.02891e-09)
(2.04127e-09 0 1.80619e-09)
(2.07943e-09 0 1.60754e-09)
(2.09163e-09 0 1.42496e-09)
(2.07969e-09 0 1.25824e-09)
(2.04959e-09 0 1.10845e-09)
(2.00772e-09 0 9.75854e-10)
(1.95945e-09 0 8.59864e-10)
(1.90866e-09 0 7.59372e-10)
(1.85786e-09 0 6.73032e-10)
(1.80846e-09 0 5.99422e-10)
(1.7611e-09 0 5.37112e-10)
(1.71595e-09 0 4.84719e-10)
(1.67288e-09 0 4.40935e-10)
(1.63164e-09 0 4.04553e-10)
(1.59194e-09 0 3.74483e-10)
(1.55347e-09 0 3.49756e-10)
(1.51597e-09 0 3.29527e-10)
(1.47921e-09 0 3.13062e-10)
(1.44299e-09 0 2.99731e-10)
(1.40714e-09 0 2.88995e-10)
(1.37154e-09 0 2.80393e-10)
(1.3361e-09 0 2.73534e-10)
(1.30073e-09 0 2.68086e-10)
(1.26538e-09 0 2.63771e-10)
(1.23001e-09 0 2.60353e-10)
(1.19462e-09 0 2.57637e-10)
(1.15919e-09 0 2.5546e-10)
(1.12372e-09 0 2.53689e-10)
(1.08822e-09 0 2.52215e-10)
(1.05272e-09 0 2.50952e-10)
(1.01722e-09 0 2.4983e-10)
(9.81746e-10 0 2.48796e-10)
(9.46322e-10 0 2.47808e-10)
(9.10968e-10 0 2.46836e-10)
(8.75705e-10 0 2.45859e-10)
(8.40551e-10 0 2.44861e-10)
(8.05524e-10 0 2.43834e-10)
(7.7064e-10 0 2.42772e-10)
(7.35914e-10 0 2.41676e-10)
(7.01357e-10 0 2.40547e-10)
(6.66978e-10 0 2.3939e-10)
(6.32785e-10 0 2.38209e-10)
(5.98784e-10 0 2.37013e-10)
(5.64978e-10 0 2.35808e-10)
(5.31368e-10 0 2.34602e-10)
(4.97956e-10 0 2.33403e-10)
(4.64737e-10 0 2.3222e-10)
(4.3171e-10 0 2.31061e-10)
(3.98868e-10 0 2.29933e-10)
(3.66206e-10 0 2.28844e-10)
(3.33714e-10 0 2.278e-10)
(3.01385e-10 0 2.26807e-10)
(2.69208e-10 0 2.2587e-10)
(2.37171e-10 0 2.24994e-10)
(2.05263e-10 0 2.24182e-10)
(1.7347e-10 0 2.23436e-10)
(1.41779e-10 0 2.22759e-10)
(1.10173e-10 0 2.22157e-10)
(7.86329e-11 0 2.21649e-10)
(4.71375e-11 0 2.21269e-10)
(1.56991e-11 0 2.21073e-10)
(-0.000966542 0 0.00987302)
(0.000137373 0 0.00755349)
(-0.000588277 0 0.00456973)
(0.000324465 0 0.00192737)
(0.000281171 0 -0.00118386)
(0.00236174 0 -0.00447029)
(0.00191938 0 -0.00729676)
(0.00175904 0 -0.0070633)
(0.00204528 0 -0.00608644)
(0.00281214 0 -0.00421623)
(0.00305568 0 -0.00246496)
(0.002767 0 -0.000993879)
(0.00198438 0 -0.00050953)
(0.00161548 0 0.000869151)
(0.00131436 0 0.00176568)
(0.00167554 0 0.00255058)
(0.000844437 0 0.00304369)
(0.000898619 0 0.00271075)
(0.000342006 0 0.00205713)
(0.000125573 0 -0.000326066)
(9.24997e-07 0 -0.00132157)
(8.4334e-10 0 2.295e-09)
(1.74894e-09 0 1.94517e-09)
(1.85156e-09 0 1.74397e-09)
(1.91307e-09 0 1.57625e-09)
(1.93927e-09 0 1.4202e-09)
(1.93997e-09 0 1.27353e-09)
(1.92298e-09 0 1.13736e-09)
(1.89456e-09 0 1.01292e-09)
(1.8596e-09 0 9.00943e-10)
(1.82158e-09 0 8.01675e-10)
(1.78274e-09 0 7.149e-10)
(1.74429e-09 0 6.40023e-10)
(1.70679e-09 0 5.76158e-10)
(1.67034e-09 0 5.22231e-10)
(1.63486e-09 0 4.77089e-10)
(1.60015e-09 0 4.39581e-10)
(1.56601e-09 0 4.08621e-10)
(1.53225e-09 0 3.83221e-10)
(1.49871e-09 0 3.62506e-10)
(1.46524e-09 0 3.45713e-10)
(1.43176e-09 0 3.32181e-10)
(1.39817e-09 0 3.21345e-10)
(1.36443e-09 0 3.12719e-10)
(1.33048e-09 0 3.05893e-10)
(1.29632e-09 0 3.00515e-10)
(1.26193e-09 0 2.96291e-10)
(1.22732e-09 0 2.92974e-10)
(1.19251e-09 0 2.90356e-10)
(1.15752e-09 0 2.88268e-10)
(1.12238e-09 0 2.8657e-10)
(1.08712e-09 0 2.8515e-10)
(1.05177e-09 0 2.83918e-10)
(1.01638e-09 0 2.82803e-10)
(9.80962e-10 0 2.81752e-10)
(9.45563e-10 0 2.80724e-10)
(9.1021e-10 0 2.7969e-10)
(8.74931e-10 0 2.78629e-10)
(8.39751e-10 0 2.77529e-10)
(8.04694e-10 0 2.76382e-10)
(7.69777e-10 0 2.75186e-10)
(7.3502e-10 0 2.73943e-10)
(7.00435e-10 0 2.72656e-10)
(6.66033e-10 0 2.71332e-10)
(6.31825e-10 0 2.69979e-10)
(5.97815e-10 0 2.68606e-10)
(5.64009e-10 0 2.67221e-10)
(5.30407e-10 0 2.65835e-10)
(4.9701e-10 0 2.64457e-10)
(4.63816e-10 0 2.63097e-10)
(4.3082e-10 0 2.61765e-10)
(3.98018e-10 0 2.60469e-10)
(3.65401e-10 0 2.59219e-10)
(3.32962e-10 0 2.58022e-10)
(3.0069e-10 0 2.56884e-10)
(2.68575e-10 0 2.55813e-10)
(2.36605e-10 0 2.54814e-10)
(2.04766e-10 0 2.5389e-10)
(1.73045e-10 0 2.53045e-10)
(1.41426e-10 0 2.52282e-10)
(1.09894e-10 0 2.5161e-10)
(7.84307e-11 0 2.51049e-10)
(4.70179e-11 0 2.50635e-10)
(1.56608e-11 0 2.50419e-10)
(-0.000946325 0 0.00979349)
(0.000476 0 0.00752492)
(-0.000148383 0 0.00440066)
(0.000664618 0 0.00127793)
(0.000983723 0 -0.00191172)
(0.00179459 0 -0.00533209)
(0.00206496 0 -0.00743922)
(0.00191064 0 -0.00721521)
(0.00214199 0 -0.00638929)
(0.00266758 0 -0.00470067)
(0.00308739 0 -0.0025006)
(0.00314732 0 -0.000352338)
(0.00215211 0 0.000337939)
(0.00106818 0 0.00132042)
(0.00106246 0 0.00198806)
(0.00111907 0 0.00288361)
(0.000461236 0 0.0032219)
(0.00049678 0 0.00290287)
(-0.000292681 0 0.00216277)
(0.000148143 0 -0.000221987)
(1.5484e-06 0 -0.00115155)
(6.52701e-10 0 2.20918e-09)
(1.47474e-09 0 1.73155e-09)
(1.69739e-09 0 1.65261e-09)
(1.77744e-09 0 1.53487e-09)
(1.80914e-09 0 1.40731e-09)
(1.8157e-09 0 1.27966e-09)
(1.80635e-09 0 1.15603e-09)
(1.78711e-09 0 1.03907e-09)
(1.7624e-09 0 9.30892e-10)
(1.7352e-09 0 8.33038e-10)
(1.70722e-09 0 7.46353e-10)
(1.67925e-09 0 6.70992e-10)
(1.65149e-09 0 6.06515e-10)
(1.62384e-09 0 5.52071e-10)
(1.59611e-09 0 5.06581e-10)
(1.56811e-09 0 4.68899e-10)
(1.53971e-09 0 4.37914e-10)
(1.5108e-09 0 4.12608e-10)
(1.48132e-09 0 3.92076e-10)
(1.45126e-09 0 3.7553e-10)
(1.42058e-09 0 3.62292e-10)
(1.38931e-09 0 3.51777e-10)
(1.35745e-09 0 3.43487e-10)
(1.32503e-09 0 3.36997e-10)
(1.29208e-09 0 3.31946e-10)
(1.25865e-09 0 3.28029e-10)
(1.22479e-09 0 3.24991e-10)
(1.19055e-09 0 3.22619e-10)
(1.15597e-09 0 3.2074e-10)
(1.12113e-09 0 3.19212e-10)
(1.08608e-09 0 3.17922e-10)
(1.05087e-09 0 3.16781e-10)
(1.01554e-09 0 3.1572e-10)
(9.80161e-10 0 3.14687e-10)
(9.44762e-10 0 3.13643e-10)
(9.09388e-10 0 3.12563e-10)
(8.74073e-10 0 3.11429e-10)
(8.38849e-10 0 3.10232e-10)
(8.03744e-10 0 3.08967e-10)
(7.68781e-10 0 3.07635e-10)
(7.33981e-10 0 3.06241e-10)
(6.99359e-10 0 3.04791e-10)
(6.64928e-10 0 3.03294e-10)
(6.30699e-10 0 3.01761e-10)
(5.96678e-10 0 3.00202e-10)
(5.6287e-10 0 2.98629e-10)
(5.29276e-10 0 2.97054e-10)
(4.95897e-10 0 2.95488e-10)
(4.6273e-10 0 2.93943e-10)
(4.2977e-10 0 2.9243e-10)
(3.97012e-10 0 2.9096e-10)
(3.64448e-10 0 2.89541e-10)
(3.32069e-10 0 2.88185e-10)
(2.99865e-10 0 2.86898e-10)
(2.67823e-10 0 2.85688e-10)
(2.3593e-10 0 2.84561e-10)
(2.04173e-10 0 2.83523e-10)
(1.72537e-10 0 2.82577e-10)
(1.41005e-10 0 2.81727e-10)
(1.09562e-10 0 2.80982e-10)
(7.8191e-11 0 2.80365e-10)
(4.68737e-11 0 2.79912e-10)
(1.56131e-11 0 2.79682e-10)
(-0.0011086 0 0.00979471)
(0.000616492 0 0.0073506)
(-0.000111779 0 0.00410232)
(0.00068598 0 0.000399792)
(0.00115171 0 -0.00237796)
(0.00252738 0 -0.00538318)
(0.00212645 0 -0.00714051)
(0.00189634 0 -0.00723466)
(0.0020549 0 -0.0065947)
(0.00206712 0 -0.00534043)
(0.00246234 0 -0.00308088)
(0.00311311 0 0.000619417)
(0.00217139 0 0.00127858)
(0.000751582 0 0.00199922)
(0.00067772 0 0.00250774)
(0.000555018 0 0.00319754)
(7.19481e-05 0 0.00340262)
(9.57776e-06 0 0.00305085)
(-0.000332568 0 0.00211121)
(0.000162208 0 -0.000319983)
(0.000240449 0 -0.000989903)
(1.40677e-09 0 7.21174e-09)
(1.15381e-09 0 1.61802e-09)
(1.66772e-09 0 1.59515e-09)
(1.68393e-09 0 1.50208e-09)
(1.70091e-09 0 1.3945e-09)
(1.7053e-09 0 1.28228e-09)
(1.69832e-09 0 1.16885e-09)
(1.68439e-09 0 1.05752e-09)
(1.66732e-09 0 9.518e-10)
(1.64943e-09 0 8.54618e-10)
(1.63164e-09 0 7.67893e-10)
(1.61398e-09 0 6.92437e-10)
(1.59604e-09 0 6.28103e-10)
(1.57735e-09 0 5.74089e-10)
(1.55753e-09 0 5.29258e-10)
(1.53638e-09 0 4.92377e-10)
(1.51379e-09 0 4.6226e-10)
(1.48979e-09 0 4.37838e-10)
(1.46441e-09 0 4.18178e-10)
(1.43776e-09 0 4.02474e-10)
(1.4099e-09 0 3.90038e-10)
(1.38092e-09 0 3.8028e-10)
(1.35093e-09 0 3.72696e-10)
(1.32001e-09 0 3.66857e-10)
(1.28824e-09 0 3.62397e-10)
(1.25573e-09 0 3.59008e-10)
(1.22257e-09 0 3.56432e-10)
(1.18884e-09 0 3.54457e-10)
(1.15465e-09 0 3.52909e-10)
(1.12006e-09 0 3.51649e-10)
(1.08517e-09 0 3.50566e-10)
(1.05005e-09 0 3.49575e-10)
(1.01476e-09 0 3.48611e-10)
(9.79371e-10 0 3.47628e-10)
(9.43939e-10 0 3.46591e-10)
(9.08513e-10 0 3.4548e-10)
(8.73136e-10 0 3.44281e-10)
(8.37845e-10 0 3.42989e-10)
(8.02674e-10 0 3.41604e-10)
(7.67649e-10 0 3.40132e-10)
(7.32792e-10 0 3.38581e-10)
(6.98123e-10 0 3.36959e-10)
(6.63655e-10 0 3.3528e-10)
(6.29399e-10 0 3.33557e-10)
(5.95363e-10 0 3.31803e-10)
(5.61551e-10 0 3.30031e-10)
(5.27966e-10 0 3.28257e-10)
(4.94606e-10 0 3.26494e-10)
(4.6147e-10 0 3.24754e-10)
(4.28552e-10 0 3.23051e-10)
(3.95845e-10 0 3.21397e-10)
(3.63342e-10 0 3.19803e-10)
(3.31032e-10 0 3.1828e-10)
(2.98904e-10 0 3.16837e-10)
(2.66946e-10 0 3.15482e-10)
(2.35143e-10 0 3.14224e-10)
(2.03481e-10 0 3.13067e-10)
(1.71944e-10 0 3.12016e-10)
(1.40515e-10 0 3.11077e-10)
(1.09177e-10 0 3.10258e-10)
(7.79123e-11 0 3.09583e-10)
(4.67035e-11 0 3.09087e-10)
(1.55554e-11 0 3.08844e-10)
(-0.000684968 0 0.00985894)
(0.000403246 0 0.00701933)
(0.000311193 0 0.00388406)
(0.000499978 0 -2.8402e-05)
(0.00118046 0 -0.00335284)
(0.00215041 0 -0.00590785)
(0.00169847 0 -0.00695253)
(0.0014704 0 -0.00722336)
(0.00151793 0 -0.00678637)
(0.00171661 0 -0.00562868)
(0.00100677 0 -0.00404537)
(0.00253239 0 0.000710752)
(0.00192322 0 0.00209676)
(0.00066852 0 0.00253244)
(9.42184e-05 0 0.00281186)
(7.27887e-05 0 0.00340359)
(-0.000200137 0 0.00360959)
(-0.000272057 0 0.0032462)
(-0.000121676 0 0.00176401)
(0.000162767 0 -0.000520116)
(0.00153816 0 -0.00131076)
(5.79605e-06 0 0.000115036)
(7.92092e-10 0 1.93673e-09)
(1.58822e-09 0 1.59891e-09)
(1.5896e-09 0 1.48187e-09)
(1.60361e-09 0 1.38572e-09)
(1.60479e-09 0 1.28595e-09)
(1.59632e-09 0 1.17981e-09)
(1.58435e-09 0 1.07105e-09)
(1.57291e-09 0 9.65223e-10)
(1.56352e-09 0 8.67034e-10)
(1.5559e-09 0 7.79562e-10)
(1.5489e-09 0 7.04149e-10)
(1.5412e-09 0 6.40665e-10)
(1.53179e-09 0 5.88082e-10)
(1.52008e-09 0 5.44995e-10)
(1.50583e-09 0 5.09954e-10)
(1.48907e-09 0 4.81643e-10)
(1.46992e-09 0 4.58924e-10)
(1.44859e-09 0 4.40838e-10)
(1.42526e-09 0 4.26578e-10)
(1.40014e-09 0 4.15458e-10)
(1.37339e-09 0 4.06897e-10)
(1.34519e-09 0 4.00395e-10)
(1.31568e-09 0 3.95524e-10)
(1.28503e-09 0 3.91923e-10)
(1.25336e-09 0 3.89285e-10)
(1.22082e-09 0 3.87356e-10)
(1.18754e-09 0 3.85928e-10)
(1.15364e-09 0 3.84831e-10)
(1.11924e-09 0 3.83933e-10)
(1.08445e-09 0 3.83131e-10)
(1.04936e-09 0 3.82345e-10)
(1.01405e-09 0 3.81519e-10)
(9.78615e-10 0 3.80614e-10)
(9.43109e-10 0 3.79602e-10)
(9.07595e-10 0 3.78469e-10)
(8.72124e-10 0 3.77208e-10)
(8.3674e-10 0 3.75821e-10)
(8.0148e-10 0 3.74313e-10)
(7.66374e-10 0 3.72693e-10)
(7.31446e-10 0 3.70974e-10)
(6.96717e-10 0 3.69171e-10)
(6.62203e-10 0 3.67298e-10)
(6.27915e-10 0 3.65373e-10)
(5.9386e-10 0 3.6341e-10)
(5.60044e-10 0 3.61429e-10)
(5.26467e-10 0 3.59443e-10)
(4.9313e-10 0 3.5747e-10)
(4.60028e-10 0 3.55525e-10)
(4.27157e-10 0 3.53622e-10)
(3.94508e-10 0 3.51775e-10)
(3.62074e-10 0 3.49996e-10)
(3.29843e-10 0 3.48298e-10)
(2.97803e-10 0 3.46691e-10)
(2.6594e-10 0 3.45185e-10)
(2.3424e-10 0 3.43789e-10)
(2.02687e-10 0 3.42509e-10)
(1.71263e-10 0 3.4135e-10)
(1.39952e-10 0 3.40318e-10)
(1.08734e-10 0 3.39423e-10)
(7.75917e-11 0 3.38687e-10)
(4.65062e-11 0 3.38148e-10)
(1.54877e-11 0 3.37885e-10)
(-0.000554501 0 0.00985582)
(0.000275218 0 0.00691079)
(0.000293527 0 0.00377519)
(0.00048813 0 -5.43334e-05)
(0.00102143 0 -0.00435126)
(0.00161362 0 -0.00620134)
(0.00142896 0 -0.0069651)
(0.000993745 0 -0.00725379)
(0.000832571 0 -0.00683752)
(0.000409795 0 -0.00583006)
(4.44503e-05 0 -0.00405236)
(0.00233683 0 -0.000831737)
(0.00134578 0 0.00266321)
(0.000533094 0 0.00298747)
(-0.000154514 0 0.00296864)
(-0.000207133 0 0.00346024)
(-0.000381449 0 0.00361784)
(-0.000343479 0 0.0032649)
(-7.00289e-06 0 0.00162717)
(-0.000892832 0 -0.000624285)
(-0.00179175 0 -0.00118505)
(3.57619e-05 0 0.00184141)
(5.09206e-10 0 1.77987e-09)
(1.24297e-09 0 1.41016e-09)
(1.48422e-09 0 1.44326e-09)
(1.51752e-09 0 1.38008e-09)
(1.51264e-09 0 1.2952e-09)
(1.49732e-09 0 1.19305e-09)
(1.48376e-09 0 1.082e-09)
(1.47665e-09 0 9.71934e-10)
(1.47598e-09 0 8.70043e-10)
(1.47955e-09 0 7.80657e-10)
(1.48436e-09 0 7.05409e-10)
(1.4878e-09 0 6.43686e-10)
(1.48819e-09 0 5.93775e-10)
(1.48478e-09 0 5.53702e-10)
(1.47744e-09 0 5.2166e-10)
(1.46637e-09 0 4.9615e-10)
(1.45192e-09 0 4.75974e-10)
(1.43446e-09 0 4.6017e-10)
(1.4143e-09 0 4.47952e-10)
(1.39176e-09 0 4.3866e-10)
(1.3671e-09 0 4.31731e-10)
(1.34055e-09 0 4.26681e-10)
(1.31234e-09 0 4.23095e-10)
(1.28266e-09 0 4.20619e-10)
(1.25172e-09 0 4.18953e-10)
(1.21969e-09 0 4.17851e-10)
(1.18675e-09 0 4.17115e-10)
(1.15306e-09 0 4.16585e-10)