0 	0 	0 	0
0.010101 	-3.75969e-28 	-5.04187e-28 	-1.35305e-27
0.020202 	-1.84927e-27 	-4.22221e-28 	-1.095e-27
