0 	1.09772e-29 	0 	1.08887e-20
0.010101 	1.24459e-21 	-2.95911e-23 	4.64902e-21
0.020202 	1.94504e-21 	-3.38792e-23 	-1.86261e-20
0.030303 	1.87762e-20 	5.92886e-23 	-8.60693e-22
0.040404 	-2.40284e-20 	-2.12909e-26 	1.29915e-21
0.0505051 	1.30464e-18 	-6.38267e-21 	-5.77228e-19
