/*--------------------------------*- C++ -*----------------------------------*\
  =========                 |
  \\      /  F ield         | OpenFOAM: The Open Source CFD Toolbox
   \\    /   O peration     | Website:  https://openfoam.org
    \\  /    A nd           | Version:  6
     \\/     M anipulation  |
\*---------------------------------------------------------------------------*/
FoamFile
{
    version     2.0;
    format      ascii;
    class       volScalarField;
    location    "3750";
    object      Su;
}
// * * * * * * * * * * * * * * * * * * * * * * * * * * * * * * * * * * * * * //

dimensions      [0 0 -1 0 0 0 0];

internalField   nonuniform List<scalar> 
4800
(
0.218188
0.213391
0.208616
0.203875
0.199176
0.194529
0.189943
0.185427
0.180997
0.176668
0.172449
0.168347
0.164365
0.160504
0.156769
0.153168
0.14971
0.146402
0.143243
0.140227
0.137344
0.134584
0.131934
0.129382
0.126918
0.124533
0.122219
0.119968
0.11777
0.115616
0.113498
0.111409
0.109344
0.107304
0.105288
0.103299
0.101338
0.0994068
0.0975088
0.0956502
0.0938351
0.0920694
0.0903583
0.0887064
0.0871132
0.0855788
0.0841117
0.0827127
0.081375
0.0801021
0.0788918
0.0777262
0.0766054
0.075531
0.0744999
0.0735056
0.0725429
0.0716052
0.070681
0.0697617
0.0688401
0.0679072
0.0669553
0.0659746
0.0649502
0.0638629
0.06269
0.0614096
0.059997
0.0584251
0.0566647
0.0546822
0.0524441
0.0499152
0.047066
0.0438793
0.040353
0.0365283
0.0324793
0.0283118
0.0241355
0.0199938
0.0159204
0.0119158
0.00797943
0.00410775
0.000296639
-0.00345796
-0.00715988
-0.0108128
-0.0144202
-0.0179853
-0.0215109
-0.0249997
-0.0284544
-0.0318772
-0.0352704
-0.038636
-0.041976
-0.0452922
-0.0485863
-0.0518599
-0.0551147
-0.058352
-0.0615733
-0.06478
-0.0679731
-0.0711541
-0.074324
-0.0774838
-0.0806347
-0.0837775
-0.0869134
-0.0900431
-0.0931675
-0.0962876
-0.0994041
-0.102518
-0.10563
-0.10874
0.218175
0.21335
0.208549
0.203779
0.19905
0.194374
0.189761
0.185227
0.180784
0.176443
0.172213
0.168103
0.164119
0.160266
0.156547
0.152964
0.149524
0.146231
0.143088
0.14009
0.137225
0.13448
0.131845
0.129308
0.126858
0.124487
0.122184
0.119942
0.117751
0.115601
0.113486
0.111399
0.109335
0.107295
0.105278
0.103287
0.101322
0.0993855
0.0974798
0.0956095
0.0937814
0.0920018
0.0902774
0.0886117
0.0870067
0.0854624
0.0839829
0.0825703
0.0812254
0.0799352
0.0787054
0.0775314
0.0764036
0.0753199
0.0742797
0.0732768
0.0723034
0.071356
0.0704271
0.0695059
0.068584
0.067651
0.0666974
0.0657129
0.0646846
0.0635972
0.0624251
0.0611453
0.0597342
0.0581638
0.0564054
0.0544263
0.0521917
0.049673
0.0468419
0.0436848
0.0402167
0.0364696
0.0324889
0.0283428
0.0241214
0.0199352
0.0158528
0.0118489
0.00791592
0.00404832
0.000241331
-0.00350934
-0.0072076
-0.0108571
-0.0144614
-0.0180235
-0.0215463
-0.0250326
-0.0284849
-0.0319054
-0.0352965
-0.0386601
-0.0419982
-0.0453127
-0.0486051
-0.0518772
-0.0551305
-0.0583665
-0.0615865
-0.0647919
-0.067984
-0.0711638
-0.0743327
-0.0774916
-0.0806415
-0.0837836
-0.0869186
-0.0900475
-0.0931713
-0.0962906
-0.0994064
-0.10252
-0.105631
-0.108741
0.21815
0.213275
0.208419
0.203591
0.198806
0.194076
0.189417
0.184844
0.180371
0.17601
0.171766
0.167648
0.163661
0.159815
0.15612
0.152576
0.149182
0.145934
0.142829
0.139864
0.13703
0.134316
0.13171
0.129201
0.126778
0.12443
0.122148
0.119922
0.117743
0.115603
0.113495
0.111411
0.109348
0.107307
0.105288
0.10329
0.101314
0.0993628
0.0974394
0.0955484
0.0936964
0.0918911
0.0901395
0.0884457
0.0868161
0.0852491
0.0837452
0.082305
0.0809307
0.0796133
0.078356
0.0771605
0.0760142
0.0749108
0.073852
0.072833
0.0718451
0.0708847
0.0699458
0.0690186
0.0680924
0.0671548
0.0661966
0.0652078
0.0641737
0.063083
0.0619113
0.0606318
0.0592215
0.0576531
0.0558984
0.0539274
0.0517033
0.0491993
0.0463928
0.0432799
0.0398734
0.0361884
0.0322563
0.0281465
0.0239546
0.0197823
0.0157078
0.0117123
0.00778823
0.0039295
0.000130964
-0.0036118
-0.00730272
-0.0109455
-0.0145434
-0.0180996
-0.021617
-0.0250981
-0.0285456
-0.0319617
-0.0353485
-0.0387082
-0.0420426
-0.0453535
-0.0486426
-0.0519116
-0.055162
-0.0583953
-0.0616127
-0.0648157
-0.0680055
-0.0711833
-0.0743501
-0.0775071
-0.0806553
-0.0837956
-0.086929
-0.0900564
-0.0931786
-0.0962966
-0.099411
-0.102523
-0.105633
-0.108741
0.218112
0.213159
0.208223
0.203316
0.198458
0.193668
0.188958
0.184341
0.179827
0.175432
0.171169
0.167049
0.163082
0.159271
0.155616
0.152119
0.148778
0.145586
0.142535
0.139619
0.136829
0.134157
0.131591
0.12912
0.126732
0.124416
0.122161
0.119955
0.11779
0.115662
0.113562
0.111483
0.109422
0.10738
0.105355
0.103347
0.101356
0.0993828
0.0974311
0.0955058
0.0936154
0.0917697
0.0899759
0.0882394
0.0865689
0.0849627
0.0834188
0.0819366
0.0805199
0.0791661
0.0778716
0.0766403
0.0754626
0.0743285
0.0732415
0.0721982
0.0711905
0.070213
0.0692596
0.0683221
0.0673888
0.0664432
0.0654771
0.0644817
0.0634426
0.0623456
0.061172
0.0598923
0.0584819
0.0569157
0.0551648
0.0532095
0.0510122
0.048544
0.0457882
0.042734
0.03938
0.0357474
0.0318765
0.0278255
0.0236832
0.0195405
0.0154846
0.0115054
0.00759644
0.00375176
-3.38391e-05
-0.00376469
-0.00744464
-0.0110773
-0.0146658
-0.0182133
-0.0217225
-0.025196
-0.0286363
-0.0320457
-0.0354262
-0.03878
-0.0421088
-0.0454145
-0.0486987
-0.0519631
-0.0552091
-0.0584383
-0.0616519
-0.0648513
-0.0680377
-0.0712122
-0.0743761
-0.0775302
-0.0806757
-0.0838135
-0.0869445
-0.0900696
-0.0931897
-0.0963055
-0.0994179
-0.102528
-0.105636
-0.108742
0.218061
0.213007
0.207973
0.202975
0.198038
0.193178
0.188406
0.183738
0.179185
0.174763
0.170493
0.166386
0.162455
0.158696
0.155102
0.151669
0.148392
0.145265
0.142278
0.139422
0.136689
0.134071
0.131558
0.129138
0.126795
0.124516
0.122291
0.120107
0.117959
0.115842
0.113748
0.111671
0.109611
0.107566
0.105531
0.103507
0.101491
0.0994838
0.0974911
0.0955199
0.0935797
0.0916819
0.0898335
0.0880411
0.086314
0.0846498
0.0830471
0.0815053
0.0800277
0.0786168
0.0772692
0.0759884
0.0747703
0.0735994
0.0724776
0.0714021
0.0703678
0.0693673
0.0683946
0.0674409
0.0664963
0.0655409
0.0645646
0.0635585
0.0625127
0.0614096
0.0602326
0.0589544
0.0575466
0.055987
0.0542424
0.0522947
0.0501163
0.0476817
0.0449793
0.0419836
0.0387059
0.0351754
0.0314196
0.0274633
0.023357
0.0192195
0.0151854
0.0112292
0.00734165
0.00351625
-0.000251945
-0.00396698
-0.00763246
-0.0112517
-0.0148279
-0.0183639
-0.0218623
-0.0253257
-0.0287566
-0.0321571
-0.0355293
-0.0388751
-0.0421966
-0.0454953
-0.048773
-0.0520312
-0.0552715
-0.0584952
-0.0617038
-0.0648984
-0.0680803
-0.0712506
-0.0744104
-0.0775608
-0.0807028
-0.0838372
-0.086965
-0.0900871
-0.0932042
-0.0963173
-0.099427
-0.102534
-0.105639
-0.108744
0.218003
0.212837
0.207702
0.202615
0.197596
0.192661
0.187823
0.183098
0.178508
0.174074
0.169823
0.165758
0.161881
0.158184
0.154658
0.151298
0.148095
0.145041
0.142127
0.139343
0.136679
0.134128
0.131678
0.129312
0.127016
0.124775
0.122579
0.120417
0.118286
0.116179
0.11409
0.112014
0.109952
0.107897
0.105842
0.103789
0.101733
0.0996778
0.0976309
0.0956014
0.0936002
0.0916396
0.0897267
0.0878677
0.0860693
0.0843299
0.0826522
0.0810372
0.0794863
0.0780033
0.0765877
0.0752411
0.0739654
0.0727465
0.0715826
0.0704698
0.0694034
0.068376
0.0673795
0.0664049
0.0654435
0.0644738
0.0634869
0.0624709
0.0614149
0.0603043
0.0591222
0.0578434
0.0564404
0.0548903
0.0531642
0.0512422
0.0491033
0.0467122
0.0440616
0.0411264
0.0379196
0.0344613
0.0307794
0.0269059
0.0228842
0.0188026
0.0148089
0.0108856
0.00702596
0.00322491
-0.000521685
-0.00421724
-0.00786495
-0.0114678
-0.0150288
-0.0185506
-0.0220357
-0.0254867
-0.0289058
-0.0322953
-0.0356571
-0.0389932
-0.0423055
-0.0455956
-0.0488651
-0.0521157
-0.0553488
-0.0585658
-0.061768
-0.0649567
-0.068133
-0.0712981
-0.074453
-0.0775987
-0.0807363
-0.0838665
-0.0869904
-0.0901087
-0.0932223
-0.0963318
-0.0994382
-0.102542
-0.105644
-0.108745
0.217953
0.212686
0.207449
0.20227
0.197167
0.192155
0.18725
0.182479
0.17788
0.173467
0.169258
0.16525
0.161436
0.15781
0.154357
0.15107
0.147942
0.144965
0.142129
0.139423
0.136836
0.134358
0.131974
0.129665
0.127414
0.12521
0.123042
0.120901
0.118785
0.116686
0.114598
0.11252
0.110447
0.108372
0.106288
0.104193
0.102083
0.0999662
0.0978529
0.0957538
0.0936816
0.0916475
0.0896588
0.0877209
0.0858386
0.0840128
0.0822463
0.0805427
0.0789053
0.0773385
0.0758435
0.0744209
0.0730747
0.0717981
0.0705857
0.06943
0.0683244
0.067265
0.0662421
0.0652429
0.0642617
0.063273
0.0622712
0.0612464
0.0601806
0.0590612
0.057874
0.0565915
0.0551893
0.0536429
0.0519303
0.0500276
0.0479199
0.0455745
0.04299
0.0401328
0.0370014
0.0336196
0.0300139
0.0262321
0.0223152
0.0183058
0.0143627
0.0104793
0.00665287
0.00288043
-0.000840916
-0.00451374
-0.00814068
-0.0117244
-0.0152675
-0.0187725
-0.022242
-0.0256782
-0.0290834
-0.0324597
-0.0358092
-0.0391337
-0.042435
-0.0457148
-0.0489747
-0.0522162
-0.0554407
-0.0586497
-0.0618443
-0.0650259
-0.0681955
-0.0713544
-0.0745034
-0.0776436
-0.0807759
-0.0839013
-0.0870205
-0.0901343
-0.0932436
-0.0963491
-0.0994514
-0.102551
-0.10565
-0.108747
0.217911
0.212559
0.207231
0.201959
0.196774
0.191689
0.186738
0.181957
0.177379
0.173016
0.168867
0.164923
0.161172
0.157609
0.154227
0.151014
0.147962
0.145065
0.142312
0.13969
0.137183
0.13478
0.132462
0.130207
0.128001
0.125833
0.123688
0.121564
0.119454
0.117353
0.115261
0.113173
0.111082
0.108979
0.106855
0.104706
0.102533
0.100343
0.0981529
0.095973
0.0938187
0.0917003
0.0896253
0.087599
0.0856246
0.0837037
0.0818399
0.0800386
0.0783043
0.0766429
0.0750582
0.073551
0.0721258
0.0707794
0.0695083
0.0683049
0.0671562
0.0660578
0.0650039
0.0639783
0.0629752
0.0619655
0.0609455
0.0599096
0.0588331
0.057704
0.0565114
0.0552291
0.0538326
0.052295
0.0506034
0.0487308
0.0466545
0.0443484
0.0418166
0.0390391
0.0360028
0.0327289
0.0292314
0.0255442
0.0217059
0.0177502
0.0138572
0.0100166
0.00622666
0.00248593
-0.00120726
-0.00485457
-0.00845808
-0.01202
-0.0155428
-0.0190287
-0.0224801
-0.0258993
-0.0292885
-0.0326497
-0.0359849
-0.0392959
-0.0425845
-0.0458524
-0.0491011
-0.052332
-0.0555466
-0.0587463
-0.0619322
-0.0651056
-0.0682675
-0.0714191
-0.0745614
-0.0776952
-0.0808215
-0.0839412
-0.087055
-0.0901637
-0.0932681
-0.0963689
-0.0994667
-0.102562
-0.105656
-0.108749
0.217872
0.212446
0.207051
0.20171
0.196463
0.191346
0.18639
0.181628
0.177087
0.172777
0.168689
0.164806
0.161115
0.157613
0.154294
0.151151
0.148176
0.145361
0.142693
0.140152
0.137723
0.135392
0.133137
0.130935
0.128771
0.126633
0.124507
0.122389
0.120273
0.118162
0.116057
0.113953
0.11184
0.109701
0.107527
0.105315
0.103068
0.100796
0.0985159
0.0962439
0.0939976
0.0917859
0.0896162
0.0874935
0.0854206
0.083401
0.0814365
0.0795331
0.0776968
0.0759342
0.0742534
0.0726567
0.0711459
0.069719
0.0683759
0.0671113
0.0659156
0.0647772
0.0636875
0.0626315
0.0616022
0.0605697
0.0595306
0.0584797
0.0573909
0.0562514
0.0550494
0.0537661
0.0523746
0.0508454
0.0491697
0.0473276
0.0452954
0.0430507
0.0405819
0.0378802
0.0349301
0.0317473
0.0283553
0.0247719
0.0210273
0.017138
0.0132986
0.00950286
0.00575139
0.00204443
-0.0016184
-0.00523792
-0.00881564
-0.0123534
-0.0158535
-0.0193179
-0.0227491
-0.0261491
-0.0295202
-0.0328643
-0.0361833
-0.0394791
-0.0427534
-0.0460077
-0.0492436
-0.0524626
-0.055666
-0.0588551
-0.0620311
-0.0651952
-0.0683485
-0.071492
-0.0746266
-0.0777532
-0.0808727
-0.083986
-0.0870937
-0.0901967
-0.0932956
-0.096391
-0.0994837
-0.102574
-0.105663
-0.108752
0.217839
0.212358
0.20693
0.201561
0.196281
0.191154
0.186225
0.18151
0.177023
0.172764
0.168728
0.1649
0.161264
0.15782
0.154565
0.151494
0.148598
0.145864
0.143274
0.140809
0.138453
0.136187
0.133986
0.131829
0.129697
0.127578
0.125459
0.123337
0.121207
0.11908
0.11696
0.114844
0.112703
0.110518
0.10828
0.105992
0.10366
0.101295
0.0989145
0.0965417
0.0941961
0.0918848
0.0896145
0.0873899
0.085215
0.0830951
0.0810306
0.0790245
0.0770837
0.0752175
0.0734355
0.0717423
0.0701401
0.0686275
0.0672072
0.0658737
0.0646199
0.0634345
0.0623056
0.0612175
0.0601568
0.059099
0.0580395
0.0569713
0.0558701
0.0547237
0.053515
0.0522335
0.050841
0.0493173
0.0476578
0.045847
0.0438592
0.0416733
0.0392766
0.0366602
0.0338133
0.030738
0.0274487
0.0239609
0.0203033
0.0164796
0.0126938
0.00894303
0.00523053
0.00155844
-0.00207243
-0.00566221
-0.009212
-0.0127234
-0.0161985
-0.0196393
-0.023048
-0.0264267
-0.0297776
-0.0331026
-0.0364037
-0.0396824
-0.0429407
-0.0461799
-0.0494016
-0.0526073
-0.0557981
-0.0589755
-0.0621405
-0.0652943
-0.0684379
-0.0715724
-0.0746985
-0.0778171
-0.0809292
-0.0840354
-0.0871364
-0.090233
-0.0933258
-0.0964155
-0.0995025
-0.102588
-0.105671
-0.108754
0.217837
0.212343
0.206907
0.201557
0.196306
0.191201
0.186297
0.181622
0.17718
0.172965
0.168972
0.165191
0.161609
0.158226
0.155041
0.152047
0.149235
0.146583
0.144069
0.141672
0.139378
0.137166
0.135007
0.13288
0.130764
0.12865
0.126521
0.124372
0.122205
0.120036
0.117874
0.115717
0.11353
0.111297
0.109001
0.106641
0.104226
0.10177
0.0992968
0.0968285
0.0943822
0.0919689
0.0895971
0.0872714
0.0849959
0.0827767
0.0806154
0.0785114
0.0764685
0.0744968
0.072609
0.070816
0.0691217
0.0675252
0.0660256
0.0646176
0.0632952
0.0620501
0.0608706
0.059744
0.0586495
0.0575639
0.0564819
0.0553942
0.0542784
0.0531238
0.0519095
0.050632
0.0492477
0.0477398
0.0461012
0.0443177
0.0423691
0.0402387
0.0379163
0.0353892
0.0326445
0.0296766
0.0264933
0.0231069
0.0195405
0.0157828
0.0120488
0.00834087
0.00466644
0.00102957
-0.00256807
-0.00612631
-0.0096461
-0.013129
-0.0165768
-0.0199917
-0.0233757
-0.0267311
-0.0300598
-0.0333638
-0.036645
-0.039905
-0.0431456
-0.0463681
-0.0495742
-0.0527652
-0.0559423
-0.0591068
-0.0622597
-0.0654022
-0.0685352
-0.0716597
-0.0747766
-0.0778866
-0.0809904
-0.0840889
-0.0871827
-0.0902724
-0.0933586
-0.0964419
-0.0995229
-0.102602
-0.10568
-0.108757
0.217849
0.212377
0.206955
0.201628
0.196431
0.191394
0.186553
0.181935
0.177544
0.173374
0.169426
0.16569
0.162161
0.158843
0.155734
0.152826
0.150102
0.147533
0.145092
0.142758
0.140515
0.138339
0.136203
0.134084
0.131955
0.129812
0.127638
0.125429
0.123199
0.120969
0.118749
0.116531
0.114278
0.111984
0.10963
0.107205
0.104715
0.102184
0.099634
0.0970776
0.094529
0.0920092
0.0895353
0.0871126
0.0847441
0.0824336
0.0801812
0.0779853
0.0758475
0.0737748
0.0717838
0.0698893
0.0680956
0.0664046
0.0648177
0.0633322
0.0619392
0.0606298
0.0593916
0.0582153
0.0570836
0.0559708
0.0548647
0.0537566
0.0526252
0.0514589
0.0502421
0.0489607
0.0475838
0.0460928
0.0444772
0.0427262
0.0408234
0.0387546
0.0365072
0.0340675
0.0314234
0.0285659
0.0254941
0.0222171
0.0187472
0.0150562
0.0113682
0.0076982
0.00405972
0.000458168
-0.00310491
-0.00662964
-0.0101172
-0.0135691
-0.0169874
-0.0203741
-0.0237314
-0.0270612
-0.0303658
-0.0336468
-0.0369063
-0.0401458
-0.0433671
-0.0465715
-0.0497605
-0.0529355
-0.0560976
-0.059248
-0.0623879
-0.0655181
-0.0686397
-0.0717535
-0.0748604
-0.077961
-0.0810561
-0.0841463
-0.0872322
-0.0903145
-0.0933937
-0.0964702
-0.0995446
-0.102617
-0.105689
-0.10876
0.217875
0.212458
0.2071
0.201842
0.196719
0.191763
0.187001
0.182452
0.178119
0.174003
0.170108
0.166425
0.16296
0.15972
0.156696
0.153875
0.151234
0.148739
0.146362
0.144077
0.141867
0.139709
0.137572
0.135429
0.133258
0.131052
0.1288
0.126509
0.124198
0.121891
0.119598
0.117295
0.114952
0.112572
0.110139
0.107642
0.105084
0.102483
0.0998501
0.0972027
0.0945673
0.0919674
0.0894138
0.0869094
0.0844556
0.0820559
0.0797156
0.0774339
0.0752086
0.0730418
0.0709475
0.0689453
0.0670467
0.0652587
0.063582
0.0620145
0.0605475
0.0591721
0.0578762
0.0566468
0.0554688
0.0543243
0.0531937
0.0520644
0.050919
0.0497455
0.0485318
0.0472469
0.0458769
0.0444043
0.042816
0.0410992
0.039236
0.0372188
0.0350367
0.0326767
0.0301249
0.0273754
0.0244219
0.0212677
0.0179151
0.0143055
0.0106528
0.00701278
0.00340828
-0.000157013
-0.00368339
-0.0071721
-0.0106248
-0.0140433
-0.0174296
-0.0207857
-0.0241139
-0.0274161
-0.0306943
-0.0339505
-0.0371865
-0.0404038
-0.0436042
-0.0467889
-0.0499595
-0.0531172
-0.0562632
-0.0593985
-0.0625243
-0.0656414
-0.0687507
-0.0718531
-0.0749492
-0.0780398
-0.0811256
-0.084207
-0.0872846
-0.0903591
-0.0934307
-0.0965001
-0.0995676
-0.102634
-0.105699
-0.108763
0.217939
0.212648
0.207397
0.202227
0.197183
0.192308
0.187627
0.183156
0.178897
0.174854
0.17103
0.167419
0.164034
0.160882
0.157949
0.155213
0.152645
0.15021
0.147877
0.14562
0.143428
0.141271
0.139112
0.136928
0.134691
0.132391
0.130033
0.127633
0.125219
0.122815
0.120421
0.118006
0.115548
0.11305
0.110513
0.107928
0.105291
0.102613
0.0999089
0.0972036
0.0945182
0.0918589
0.0892338
0.0866538
0.0841224
0.0816401
0.0792138
0.0768469
0.0745372
0.0722822
0.0700897
0.0679805
0.0659735
0.0640833
0.0623123
0.0606593
0.0591163
0.057673
0.0563183
0.0550375
0.0538128
0.0526294
0.0514694
0.0503178
0.0491571
0.0479741
0.0467585
0.0454773
0.0441161
0.0426618
0.0411007
0.0394203
0.0376038
0.0356416
0.0335257
0.0312448
0.0287844
0.0261399
0.0232974
0.0202589
0.0170346
0.0130938
0.00988951
0.00627429
0.00270654
-0.000818563
-0.00430452
-0.00775384
-0.0111686
-0.0145508
-0.0179024
-0.0212256
-0.0245223
-0.0277946
-0.0310445
-0.0342738
-0.0374844
-0.0406778
-0.0438556
-0.0470193
-0.0501701
-0.0533092
-0.0564379
-0.0595571
-0.0626679
-0.065771
-0.0688673
-0.0719576
-0.0750424
-0.0781225
-0.0811984
-0.0842705
-0.0873395
-0.0904056
-0.0934695
-0.0965313
-0.0995916
-0.102651
-0.105709
-0.108767
0.218001
0.212833
0.207707
0.202662
0.197743
0.192985
0.188413
0.184041
0.179876
0.175924
0.172187
0.168668
0.165379
0.162324
0.159482
0.156821
0.154311
0.151916
0.149608
0.147365
0.145173
0.142993
0.140795
0.138546
0.136219
0.133805
0.131321
0.128786
0.126236
0.123693
0.121155
0.118596
0.116004
0.11338
0.110725
0.10804
0.105323
0.102582
0.0998389
0.0971056
0.0943834
0.091674
0.088986
0.0863355
0.0837318
0.0811737
0.0786658
0.0762144
0.0738196
0.0714766
0.0691891
0.0669762
0.0648607
0.0628655
0.0609979
0.0592578
0.0576359
0.0561217
0.0547067
0.0533744
0.0521058
0.050886
0.0496956
0.0485197
0.0473424
0.0461505
0.0449302
0.0436538
0.0423014
0.0408678
0.0393353
0.0376925
0.0359247
0.0340206
0.0319717
0.0297687
0.0273966
0.024851
0.0221162
0.0191872
0.0160564
0.0126083
0.00901939
0.00546359
0.0019479
-0.00152884
-0.00496901
-0.00837483
-0.0117482
-0.015091
-0.0184052
-0.0216926
-0.0249554
-0.0281955
-0.0314149
-0.0346154
-0.0377987
-0.0409665
-0.0441202
-0.0472612
-0.0503909
-0.0535104
-0.0566207
-0.0597229
-0.0628177
-0.0659061
-0.0689888
-0.0720663
-0.0751393
-0.0782083
-0.0812739
-0.0843364
-0.0873963
-0.0904539
-0.0935096
-0.0965637
-0.0996165
-0.102668
-0.105719
-0.10877
0.218063
0.213025
0.208044
0.203155
0.198395
0.193785
0.189344
0.185092
0.181039
0.177195
0.173566
0.170154
0.166967
0.164006
0.161245
0.158649
0.156184
0.153822
0.15153
0.149287
0.147076
0.144855
0.142597
0.140255
0.137804
0.135243
0.1326
0.129899
0.127182
0.124467
0.121758
0.119032
0.116283
0.113519
0.110742
0.10796
0.105178
0.102398
0.0996254
0.0968635
0.0941098
0.0913653
0.0886357
0.0859322
0.083267
0.0806401
0.0780553
0.0755201
0.0730389
0.070608
0.0682268
0.0659092
0.0636849
0.0615875
0.0596259
0.0578008
0.0561056
0.0545245
0.0530495
0.0516621
0.0503452
0.0490857
0.0478632
0.0466621
0.0454673
0.0442661
0.0430412
0.0417716
0.0404284
0.0390131
0.0375059
0.0359019
0.0341818
0.0323339
0.0303497
0.0282219
0.0259375
0.0234892
0.0208589
0.0180337
0.0149918
0.0116113
0.00808073
0.00459024
0.00113474
-0.00228704
-0.00567631
-0.00903446
-0.0123629
-0.0156631
-0.0189369
-0.0221859
-0.0254123
-0.0286178
-0.0318044
-0.0349739
-0.0381281
-0.0412684
-0.0443964
-0.0475135
-0.0506207
-0.0537194
-0.0568103
-0.0598945
-0.0629727
-0.0660457
-0.069114
-0.0721783
-0.075239
-0.0782966
-0.0813515
-0.084404
-0.0874546
-0.0905033
-0.0935507
-0.0965968
-0.0996419
-0.102686
-0.10573
-0.108774
0.218142
0.213264
0.208446
0.203727
0.199131
0.19468
0.190389
0.186275
0.182352
0.178635
0.175129
0.171836
0.168757
0.165883
0.16319
0.160646
0.158219
0.15588
0.153592
0.151335
0.149082
0.146796
0.144457
0.142001
0.139402
0.136668
0.133837
0.130941
0.128028
0.125117
0.122214
0.119299
0.116374
0.113456
0.110559
0.107704
0.10488
0.102072
0.0992757
0.0964913
0.0937137
0.0909404
0.0881777
0.0854326
0.0827141
0.0800254
0.0773696
0.0747529
0.0721832
0.0696613
0.067187
0.0647697
0.0624382
0.0602364
0.0581784
0.0562656
0.0544946
0.0528483
0.0513192
0.0498818
0.0485205
0.0472226
0.0459671
0.0447386
0.0435244
0.0423122
0.0410814
0.0398162
0.0384852
0.0370943
0.0356117
0.0340427
0.0323689
0.0305785
0.0286602
0.0266051
0.0244003
0.0220374
0.0194969
0.0167523
0.0137909
0.010515
0.00707644
0.00366072
0.000271205
-0.00309074
-0.00642487
-0.0097316
-0.0130117
-0.0162662
-0.0194965
-0.0227044
-0.0258916
-0.0290601
-0.0322116
-0.035348
-0.038471
-0.0415821
-0.0446828
-0.0477744
-0.050858
-0.0539347
-0.0570054
-0.0600708
-0.0631316
-0.0661886
-0.0692421
-0.0722927
-0.0753407
-0.0783866
-0.0814305
-0.0844729
-0.0875138
-0.0905536
-0.0935924
-0.0966304
-0.0996677
-0.102705
-0.105741
-0.108777
0.218232
0.213534
0.208897
0.204355
0.19993
0.195645
0.191519
0.187564
0.183792
0.180213
0.176834
0.173656
0.170676
0.167883
0.165256
0.162766
0.160378
0.158061
0.155772
0.15349
0.151183
0.148819
0.146368
0.143753
0.140965
0.13803
0.134989
0.131879
0.128756
0.125644
0.122543
0.119431
0.116326
0.113251
0.110235
0.107295
0.104421
0.101591
0.0987837
0.0959833
0.0931852
0.0903896
0.0876013
0.0848236
0.0820579
0.0793112
0.0765877
0.0738934
0.0712366
0.0686246
0.0660602
0.0635487
0.0611137
0.0588035
0.0566456
0.0546456
0.0528002
0.0510924
0.0495113
0.0480261
0.0466246
0.04529
0.0440026
0.0427457
0.0415102
0.040285
0.0390492
0.037787
0.036466
0.0350953
0.0336443
0.0321129
0.0304859
0.0287537
0.0269018
0.0249189
0.0227933
0.020512
0.0180584
0.0154108
0.0125563
0.00938625
0.00602542
0.00268335
-0.000637984
-0.00393698
-0.00721273
-0.0104648
-0.0136934
-0.0168992
-0.0200832
-0.0232469
-0.0263922
-0.0295209
-0.0326348
-0.0357358
-0.0388256
-0.0419058
-0.0449776
-0.0480424
-0.0511012
-0.0541549
-0.0572044
-0.0602503
-0.0632932
-0.0663336
-0.0693719
-0.0724084
-0.0754435
-0.0784774
-0.0815102
-0.0845422
-0.0875735
-0.0906042
-0.0936344
-0.0966642
-0.0996937
-0.102723
-0.105752
-0.108781
0.218329
0.213827
0.209385
0.205031
0.200789
0.19668
0.192722
0.188929
0.185313
0.181878
0.17863
0.175566
0.17268
0.169964
0.167408
0.164977
0.162631
0.160335
0.158041
0.155732
0.153366
0.15091
0.148319
0.145515
0.142505
0.139332
0.136046
0.132695
0.129343
0.126026
0.122739
0.119455
0.116181
0.112961
0.109841
0.106828
0.103899
0.101024
0.09818
0.0953571
0.092544
0.089731
0.0869138
0.0840999
0.0812841
0.0784761
0.0756815
0.0729118
0.0701743
0.0674769
0.0648232
0.0622158
0.0596807
0.0572694
0.0550165
0.0529329
0.0510149
0.0492488
0.0476173
0.0460891
0.0446521
0.0432835
0.0419668
0.0406826
0.0394251
0.0381841
0.0369395
0.0356766
0.0343732
0.0330182
0.0315985
0.0301046
0.0285265
0.0268508
0.0250665
0.0231558
0.0211064
0.018909
0.0165518
0.0140111
0.011278
0.00821944
0.00493022
0.00166215
-0.00158916
-0.00482297
-0.00803788
-0.0112327
-0.0144071
-0.017561
-0.0206956
-0.0238122
-0.0269126
-0.0299987
-0.0330725
-0.0361357
-0.0391902
-0.0422375
-0.0452789
-0.0483155
-0.0513483
-0.0543781
-0.0574057
-0.0604314
-0.0634559
-0.0664794
-0.0695022
-0.0725245
-0.0755464
-0.0785682
-0.0815899
-0.0846114
-0.087633
-0.0906546
-0.0936762
-0.0966978
-0.0997195
-0.102741
-0.105763
-0.108785
0.218433
0.214137
0.209897
0.205741
0.201692
0.19777
0.193989
0.190361
0.186897
0.183603
0.180477
0.177516
0.174719
0.172088
0.169611
0.167243
0.164939
0.162658
0.160356
0.158009
0.155562
0.152981
0.150218
0.147209
0.143971
0.140544
0.136987
0.133373
0.129786
0.126264
0.122788
0.119332
0.115909
0.112566
0.109344
0.106248
0.103258
0.100348
0.0974844
0.0946459
0.0918162
0.0889816
0.0861287
0.0832676
0.0803931
0.0775144
0.074641
0.0717919
0.0689749
0.0661949
0.0634556
0.0607628
0.0581402
0.055636
0.0532948
0.0511336
0.0491469
0.0473242
0.0456415
0.044074
0.0426028
0.0412028
0.039858
0.0385493
0.037271
0.0360137
0.0347584
0.0334905
0.032201
0.0308642
0.0294766
0.0280204
0.0264948
0.0248789
0.0231676
0.0213382
0.0193746
0.0172586
0.0149847
0.0125299
0.00990627
0.00698142
0.0037875
0.000599869
-0.00257901
-0.00574607
-0.00889849
-0.012034
-0.0151515
-0.0182508
-0.0213328
-0.0243989
-0.0274512
-0.0304917
-0.0335225
-0.0365455
-0.0395625
-0.0425751
-0.0455844
-0.0485915
-0.0515974
-0.0546025
-0.0576075
-0.0606127
-0.0636183
-0.0666247
-0.0696318
-0.0726397
-0.0756485
-0.0786582
-0.0816686
-0.0846799
-0.0876918
-0.0907044
-0.0937175
-0.096731
-0.099745
-0.102759
-0.105774
-0.108788
0.218541
0.214458
0.210425
0.20647
0.202616
0.198882
0.195281
0.191822
0.188511
0.185348
0.182336
0.179479
0.17678
0.174241
0.171851
0.169545
0.167278
0.165002
0.162683
0.160276
0.15773
0.154997
0.152035
0.1488
0.145314
0.141622
0.137781
0.133898
0.130091
0.126383
0.122733
0.119116
0.115557
0.112106
0.108794
0.105624
0.102576
0.0996245
0.0967326
0.0938702
0.0910158
0.0881506
0.085257
0.0823358
0.0793901
0.0764322
0.0734718
0.070535
0.0676359
0.0647864
0.0619822
0.0592154
0.0565096
0.0539156
0.0514899
0.0492584
0.0472077
0.0453273
0.0435925
0.041986
0.0404804
0.0390521
0.0376815
0.0363511
0.0350529
0.0337792
0.0325105
0.0312379
0.0299539
0.028635
0.0272779
0.0258634
0.024394
0.0228442
0.0212092
0.0194668
0.017596
0.01558
0.0134068
0.0110528
0.00852301
0.00571399
0.00261159
-0.000496297
-0.00360307
-0.00670353
-0.00979298
-0.0128678
-0.0159262
-0.0189678
-0.0219937
-0.0250058
-0.0280063
-0.0309978
-0.0339826
-0.0369627
-0.03994
-0.0429159
-0.0458917
-0.0488683
-0.0518462
-0.054826
-0.0578079
-0.0607922
-0.0637788
-0.0667679
-0.0697593
-0.0727529
-0.0757487
-0.0787463
-0.0817458
-0.0847468
-0.0877493
-0.090753
-0.0937577
-0.0967634
-0.0997698
-0.102777
-0.105784
-0.108792
0.218648
0.214777
0.210952
0.207199
0.203541
0.199995
0.196571
0.193276
0.190114
0.187086
0.184195
0.181447
0.178852
0.176414
0.174111
0.171862
0.169627
0.16735
0.165
0.162507
0.159825
0.156899
0.15371
0.15024
0.146506
0.142539
0.138418
0.134289
0.130276
0.126394
0.122593
0.118844
0.115167
0.111613
0.108218
0.104984
0.101883
0.0988867
0.095958
0.0930621
0.0901736
0.0872627
0.0843113
0.0813212
0.0782955
0.0752488
0.0721887
0.0691514
0.0661603
0.0632325
0.060367
0.0575502
0.0547916
0.0521269
0.0496165
0.0473113
0.0452005
0.0432682
0.0414867
0.0398409
0.0383026
0.0368474
0.035454
0.0341046
0.0327872
0.0314947
0.0302098
0.0289288
0.0276445
0.0263425
0.0250154
0.0236425
0.0222301
0.0207543
0.0191999
0.0175582
0.015789
0.0138796
0.0118129
0.00957662
0.00714997
0.00443897
0.00141433
-0.00161883
-0.00465657
-0.00769278
-0.0107203
-0.0137339
-0.016731
-0.0197116
-0.0226774
-0.0256312
-0.028576
-0.0315147
-0.0344501
-0.0373845
-0.0403197
-0.0432572
-0.0461981
-0.0491429
-0.0520922
-0.0550462
-0.0580048
-0.060968
-0.0639357
-0.0669076
-0.0698835
-0.072863
-0.0758458
-0.0788317
-0.0818204
-0.0848115
-0.0878047
-0.0907999
-0.0937966
-0.0967946
-0.0997937
-0.102794
-0.105794
-0.108795
0.218754
0.215094
0.211476
0.207926
0.204465
0.201104
0.197852
0.194717
0.1917
0.188805
0.18604
0.183413
0.18093
0.178594
0.176365
0.174162
0.171941
0.169645
0.167227
0.164614
0.16175
0.158594
0.155158
0.151454
0.147485
0.143271
0.138903
0.134545
0.13034
0.12631
0.122402
0.11856
0.114788
0.111147
0.107674
0.104377
0.101225
0.0981828
0.0952104
0.0922676
0.0893185
0.0863314
0.0832952
0.080217
0.0770927
0.0739427
0.0707796
0.0676434
0.0645657
0.0615741
0.0586581
0.0558008
0.0530045
0.0502875
0.0477063
0.0453341
0.0431661
0.0411882
0.0393634
0.0376766
0.0361053
0.0346245
0.0332113
0.0318444
0.030506
0.0291891
0.0278821
0.0265874
0.0253013
0.0240133
0.0227186
0.0213891
0.0200351
0.0186383
0.0171691
0.0156323
0.0139735
0.0121735
0.0102098
0.00807788
0.00576089
0.00315435
0.000201166
-0.00276066
-0.00573456
-0.00871192
-0.0116808
-0.0146333
-0.0175667
-0.0204821
-0.023383
-0.0262734
-0.0291576
-0.0320393
-0.0349217
-0.0378074
-0.0406982
-0.0435956
-0.0465002
-0.0494126
-0.0523328
-0.0552607
-0.0581959
-0.0611383
-0.0640872
-0.0670422
-0.0700028
-0.0729685
-0.0759389
-0.0789135
-0.0818917
-0.0848733
-0.0878577
-0.0908446
-0.0938336
-0.0968243
-0.0998165
-0.10281
-0.105804
-0.108798
0.218858
0.215405
0.211991
0.208641
0.205374
0.202196
0.199115
0.196137
0.193267
0.190512
0.187877
0.185371
0.182998
0.180756
0.178583
0.176405
0.174169
0.17182
0.1693
0.166526
0.163439
0.160016
0.156311
0.152366
0.148178
0.14376
0.139224
0.134739
0.130413
0.126253
0.122237
0.118319
0.114471
0.110747
0.107198
0.103837
0.100635
0.0975481
0.0945224
0.0915076
0.0884667
0.0853758
0.0822307
0.0790459
0.0758147
0.0725561
0.0692874
0.0660574
0.062901
0.0598603
0.0569129
0.054032
0.0512171
0.04847
0.0458397
0.043407
0.0411864
0.039165
0.037297
0.0355666
0.0339589
0.0324497
0.0310168
0.0296301
0.0282628
0.0269092
0.0255682
0.0242621
0.0229908
0.0217214
0.0204603
0.0191688
0.017861
0.0165302
0.0151437
0.0137069
0.0121652
0.0104846
0.00864053
0.00661665
0.00440416
0.00189009
-0.00101782
-0.00390877
-0.00683053
-0.00976055
-0.0126772
-0.0155692
-0.0184355
-0.0212801
-0.0241095
-0.0269302
-0.0297481
-0.0325679
-0.0353933
-0.0382272
-0.0410715
-0.0439271
-0.0467946
-0.0496739
-0.0525648
-0.0554667
-0.0583789
-0.0613007
-0.0642313
-0.0671699
-0.0701158
-0.0730684
-0.0760268
-0.0789905
-0.0819589
-0.0849314
-0.0879074
-0.0908866
-0.0938683
-0.0968522
-0.0998378
-0.102825
-0.105813
-0.108801
0.218957
0.215704
0.21249
0.209336
0.206256
0.203257
0.200344
0.197526
0.194807
0.192193
0.189692
0.187304
0.185026
0.182849
0.180702
0.178518
0.176221
0.17377
0.171095
0.168114
0.164779
0.161083
0.157106
0.15292
0.148544
0.144
0.139413
0.134914
0.130535
0.126289
0.122204
0.11823
0.114302
0.110479
0.106847
0.103419
0.100157
0.0970185
0.0939212
0.0908062
0.0876532
0.0844313
0.0811536
0.0778517
0.0745096
0.0711506
0.0677851
0.0644842
0.0612758
0.058204
0.0552457
0.052363
0.0495686
0.0468155
0.0441626
0.0416818
0.0394177
0.0373369
0.0354284
0.0336447
0.031997
0.0304472
0.0289866
0.0275654
0.0261401
0.024727
0.0233409
0.0220672
0.0208914
0.0196494
0.0184099
0.0171266
0.0158169
0.0145046
0.0131683
0.011799
0.0103666
0.00881238
0.00710595
0.00521024
0.00311403
0.000689638