/*--------------------------------*- C++ -*----------------------------------*\
  =========                 |
  \\      /  F ield         | OpenFOAM: The Open Source CFD Toolbox
   \\    /   O peration     | Website:  https://openfoam.org
    \\  /    A nd           | Version:  6
     \\/     M anipulation  |
\*---------------------------------------------------------------------------*/
FoamFile
{
    version     2.0;
    format      ascii;
    class       volScalarField;
    location    "3750";
    object      T;
}
// * * * * * * * * * * * * * * * * * * * * * * * * * * * * * * * * * * * * * //

dimensions      [0 0 0 1 0 0 0];

internalField   nonuniform List<scalar> 
4800
(
552.463
552.289
552.116
551.944
551.773
551.605
551.439
551.275
551.114
550.957
550.804
550.655
550.511
550.371
550.235
550.105
549.979
549.859
549.745
549.636
549.531
549.431
549.335
549.242
549.153
549.066
548.983
548.901
548.821
548.743
548.666
548.59
548.516
548.442
548.368
548.296
548.225
548.155
548.086
548.019
547.953
547.889
547.827
547.767
547.709
547.654
547.6
547.55
547.501
547.455
547.411
547.369
547.328
547.289
547.252
547.216
547.181
547.147
547.113
547.08
547.046
547.013
546.978
546.942
546.905
546.866
546.823
546.777
546.726
546.669
546.605
546.533
546.452
546.36
546.257
546.141
546.013
545.875
545.728
545.577
545.425
545.275
545.128
544.982
544.839
544.699
544.561
544.425
544.29
544.158
544.027
543.898
543.77
543.643
543.518
543.394
543.271
543.149
543.028
542.907
542.788
542.669
542.551
542.434
542.317
542.201
542.085
541.97
541.855
541.74
541.626
541.512
541.398
541.284
541.171
541.058
540.945
540.832
540.719
540.606
552.462
552.287
552.113
551.94
551.769
551.599
551.432
551.268
551.106
550.949
550.796
550.647
550.502
550.362
550.227
550.097
549.973
549.853
549.739
549.631
549.527
549.427
549.332
549.24
549.151
549.065
548.981
548.9
548.82
548.742
548.666
548.59
548.515
548.441
548.368
548.296
548.225
548.154
548.085
548.017
547.951
547.887
547.824
547.764
547.705
547.649
547.596
547.544
547.496
547.449
547.404
547.362
547.321
547.281
547.244
547.207
547.172
547.138
547.104
547.071
547.037
547.003
546.969
546.933
546.896
546.856
546.814
546.767
546.716
546.659
546.595
546.524
546.443
546.351
546.249
546.134
546.008
545.873
545.728
545.578
545.425
545.273
545.125
544.98
544.837
544.697
544.559
544.423
544.289
544.156
544.026
543.896
543.769
543.642
543.517
543.393
543.27
543.148
543.027
542.907
542.787
542.669
542.551
542.433
542.316
542.2
542.084
541.969
541.854
541.74
541.625
541.511
541.398
541.284
541.171
541.058
540.945
540.832
540.719
540.606
552.461
552.285
552.109
551.934
551.76
551.588
551.42
551.254
551.091
550.933
550.779
550.63
550.485
550.346
550.212
550.083
549.96
549.843
549.73
549.622
549.52
549.421
549.327
549.236
549.148
549.063
548.98
548.899
548.82
548.743
548.666
548.591
548.516
548.442
548.368
548.296
548.224
548.154
548.084
548.015
547.948
547.883
547.819
547.758
547.699
547.642
547.587
547.535
547.485
547.437
547.392
547.348
547.307
547.267
547.228
547.191
547.155
547.121
547.087
547.053
547.019
546.985
546.951
546.915
546.877
546.838
546.795
546.749
546.698
546.641
546.577
546.506
546.425
546.334
546.232
546.12
545.996
545.862
545.72
545.571
545.419
545.268
545.12
544.975
544.832
544.693
544.555
544.419
544.285
544.153
544.023
543.894
543.766
543.64
543.515
543.391
543.268
543.146
543.025
542.905
542.786
542.667
542.549
542.432
542.316
542.199
542.084
541.968
541.854
541.739
541.625
541.511
541.397
541.284
541.171
541.058
540.945
540.832
540.719
540.606
552.46
552.28
552.101
551.924
551.747
551.574
551.403
551.235
551.072
550.912
550.758
550.608
550.464
550.326
550.194
550.067
549.946
549.83
549.719
549.614
549.512
549.415
549.322
549.233
549.146
549.062
548.98
548.9
548.822
548.745
548.669
548.593
548.518
548.444
548.371
548.298
548.226
548.154
548.084
548.014
547.945
547.878
547.813
547.75
547.69
547.631
547.575
547.522
547.47
547.421
547.374
547.329
547.287
547.246
547.206
547.168
547.132
547.096
547.062
547.028
546.994
546.959
546.924
546.888
546.851
546.811
546.768
546.722
546.671
546.614
546.55
546.48
546.4
546.31
546.211
546.1
545.978
545.846
545.706
545.559
545.409
545.259
545.112
544.967
544.826
544.686
544.549
544.413
544.28
544.148
544.018
543.889
543.762
543.636
543.511
543.388
543.265
543.144
543.023
542.903
542.784
542.666
542.548
542.431
542.314
542.198
542.083
541.967
541.853
541.738
541.624
541.51
541.397
541.284
541.17
541.057
540.944
540.832
540.719
540.606
552.458
552.275
552.092
551.911
551.732
551.556
551.383
551.214
551.048
550.888
550.733
550.584
550.442
550.305
550.175
550.051
549.932
549.818
549.71
549.606
549.507
549.412
549.321
549.233
549.148
549.066
548.985
548.906
548.828
548.751
548.675
548.6
548.525
548.451
548.377
548.304
548.231
548.158
548.086
548.014
547.944
547.875
547.808
547.743
547.68
547.62
547.562
547.506
547.452
547.401
547.352
547.306
547.262
547.219
547.178
547.139
547.102
547.066
547.03
546.996
546.961
546.927
546.891
546.855
546.817
546.777
546.734
546.688
546.637
546.58
546.517
546.446
546.367
546.279
546.181
546.073
545.954
545.826
545.689
545.546
545.397
545.247
545.101
544.957
544.816
544.678
544.541
544.406
544.273
544.142
544.012
543.884
543.757
543.632
543.507
543.384
543.261
543.14
543.02
542.9
542.781
542.663
542.546
542.429
542.312
542.196
542.081
541.966
541.851
541.737
541.623
541.51
541.396
541.283
541.17
541.057
540.944
540.831
540.719
540.606
552.456
552.269
552.083
551.898
551.716
551.537
551.362
551.19
551.024
550.863
550.709
550.562
550.421
550.287
550.159
550.037
549.921
549.81
549.705
549.604
549.507
549.414
549.326
549.24
549.157
549.075
548.996
548.917
548.84
548.764
548.688
548.612
548.538
548.463
548.389
548.314
548.24
548.165
548.091
548.017
547.945
547.874
547.804
547.737
547.671
547.608
547.548
547.489
547.433
547.379
547.328
547.279
547.232
547.188
547.146
547.106
547.067
547.03
546.993
546.958
546.923
546.888
546.852
546.815
546.777
546.737
546.694
546.648
546.597
546.541
546.478
546.408
546.331
546.244
546.148
546.041
545.925
545.8
545.666
545.526
545.38
545.232
545.087
544.945
544.805
544.667
544.531
544.397
544.265
544.134
544.005
543.877
543.751
543.626
543.502
543.379
543.257
543.136
543.016
542.896
542.778
542.66
542.543
542.426
542.31
542.194
542.079
541.964
541.85
541.736
541.622
541.508
541.395
541.282
541.169
541.056
540.944
540.831
540.719
540.606
552.454
552.263
552.073
551.886
551.701
551.519
551.341
551.168
551.001
550.841
550.688
550.543
550.405
550.273
550.148
550.029
549.915
549.807
549.705
549.606
549.513
549.423
549.336
549.253
549.171
549.091
549.012
548.935
548.858
548.782
548.706
548.631
548.556
548.48
548.405
548.329
548.252
548.176
548.099
548.023
547.948
547.874
547.802
547.731
547.663
547.597
547.533
547.471
547.412
547.355
547.301
547.249
547.2
547.154
547.11
547.068
547.028
546.989
546.952
546.916
546.88
546.844
546.808
546.771
546.732
546.692
546.649
546.602
546.551
546.495
546.433
546.364
546.288
546.203
546.109
546.005
545.892
545.769
545.638
545.501
545.359
545.214
545.071
544.93
544.791
544.654
544.52
544.386
544.255
544.125
543.996
543.869
543.743
543.619
543.495
543.373
543.251
543.131
543.011
542.892
542.774
542.656
542.539
542.423
542.307
542.192
542.077
541.962
541.848
541.734
541.621
541.507
541.394
541.281
541.168
541.056
540.943
540.831
540.718
540.606
552.453
552.259
552.065
551.874
551.686
551.502
551.322
551.149
550.983
550.825
550.674
550.531
550.395
550.266
550.143
550.027
549.916
549.811
549.711
549.616
549.525
549.438
549.354
549.272
549.192
549.114
549.036
548.959
548.882
548.806
548.73
548.655
548.579
548.502
548.425
548.347
548.269
548.189
548.11
548.031
547.953
547.876
547.8
547.727
547.655
547.586
547.518
547.453
547.39
547.33
547.272
547.217
547.166
547.117
547.071
547.027
546.985
546.945
546.907
546.87
546.834
546.797
546.76
546.722
546.683
546.642
546.599
546.553
546.502
546.446
546.385
546.317
546.242
546.158
546.066
545.966
545.856
545.737
545.61
545.476
545.337
545.194
545.053
544.913
544.776
544.64
544.506
544.374
544.243
544.114
543.986
543.86
543.735
543.611
543.488
543.366
543.245
543.125
543.006
542.887
542.769
542.652
542.536
542.419
542.304
542.189
542.074
541.96
541.846
541.732
541.619
541.506
541.393
541.28
541.168
541.055
540.943
540.83
540.718
540.606
552.451
552.255
552.059
551.865
551.675
551.489
551.31
551.137
550.972
550.816
550.668
550.527
550.393
550.266
550.146
550.032
549.924
549.822
549.725
549.633
549.545
549.46
549.379
549.299
549.22
549.143
549.066
548.989
548.912
548.836
548.759
548.683
548.606
548.529
548.45
548.37
548.288
548.206
548.123
548.041
547.959
547.879
547.8
547.723
547.648
547.575
547.503
547.434
547.368
547.304
547.243
547.185
547.13
547.078
547.03
546.984
546.94
546.899
546.859
546.821
546.784
546.746
546.709
546.671
546.631
546.59
546.546
546.5
546.449
546.394
546.333
546.266
546.193
546.111
546.022
545.924
545.817
545.701
545.578
545.448
545.313
545.172
545.032
544.895
544.759
544.624
544.491
544.36
544.23
544.102
543.975
543.849
543.725
543.602
543.479
543.358
543.238
543.118
543
542.881
542.764
542.647
542.531
542.416
542.3
542.186
542.071
541.957
541.844
541.73
541.617
541.504
541.391
541.279
541.167
541.054
540.942
540.83
540.718
540.606
552.45
552.251
552.055
551.86
551.668
551.483
551.304
551.133
550.97
550.816
550.669
550.53
550.399
550.274
550.156
550.044
549.939
549.84
549.746
549.657
549.571
549.489
549.409
549.331
549.254
549.177
549.1
549.023
548.946
548.869
548.792
548.715
548.638
548.558
548.477
548.394
548.31
548.224
548.137
548.051
547.966
547.882
547.8
547.719
547.641
547.564
547.489
547.416
547.346
547.278
547.213
547.152
547.094
547.039
546.987
546.939
546.893
546.85
546.809
546.77
546.731
546.693
546.655
546.616
546.576
546.534
546.491
546.444
546.394
546.338
546.278
546.213
546.14
546.061
545.974
545.879
545.776
545.665
545.545
545.419
545.286
545.148
545.01
544.874
544.74
544.607
544.475
544.345
544.216
544.089
543.963
543.838
543.714
543.592
543.47
543.349
543.23
543.111
542.993
542.875
542.758
542.642
542.526
542.411
542.296
542.182
542.068
541.954
541.841
541.728
541.615
541.502
541.39
541.278
541.165
541.053
540.941
540.83
540.718
540.606
552.45
552.251
552.054
551.86
551.669
551.484
551.306
551.137
550.976
550.823
550.678
550.541
550.411
550.288
550.173
550.064
549.962
549.866
549.775
549.688
549.605
549.525
549.447
549.369
549.293
549.216
549.139
549.061
548.982
548.904
548.825
548.747
548.668
548.587
548.503
548.418
548.33
548.241
548.151
548.062
547.973
547.886
547.8
547.715
547.633
547.552
547.474
547.397
547.323
547.252
547.183
547.118
547.057
546.999
546.944
546.893
546.845
546.8
546.757
546.716
546.677
546.637
546.598
546.559
546.518
546.476
546.432
546.386
546.336
546.281
546.222
546.157
546.086
546.009
545.925
545.833
545.734
545.626
545.511
545.388
545.259
545.122
544.987
544.853
544.719
544.587
544.457
544.328
544.2
544.074
543.949
543.825
543.702
543.581
543.46
543.34
543.221
543.103
542.985
542.868
542.752
542.636
542.521
542.406
542.292
542.178
542.064
541.951
541.838
541.725
541.613
541.5
541.388
541.276
541.164
541.052
540.941
540.829
540.717
540.606
552.451
552.252
552.056
551.862
551.674
551.491
551.316
551.148
550.989
550.838
550.695
550.559
550.431
550.311
550.198
550.093
549.994
549.901
549.812
549.728
549.646
549.567
549.49
549.413
549.336
549.258
549.179
549.099
549.018
548.937
548.857
548.776
548.695
548.612
548.526
548.438
548.348
548.256
548.164
548.071
547.978
547.887
547.797
547.709
547.623
547.54
547.458
547.378
547.301
547.225
547.153
547.084
547.019
546.958
546.9
546.847
546.796
546.748
546.704
546.661
546.62
546.579
546.539
546.499
546.458
546.416
546.372
546.325
546.275
546.221
546.163
546.099
546.03
545.955
545.874
545.785
545.69
545.586
545.475
545.356
545.23
545.096
544.962
544.829
544.697
544.567
544.437
544.31
544.183
544.058
543.934
543.811
543.689
543.569
543.449
543.33
543.212
543.094
542.977
542.861
542.745
542.63
542.516
542.401
542.287
542.174
542.061
541.948
541.835
541.723
541.61
541.498
541.386
541.275
541.163
541.051
540.94
540.828
540.717
540.606
552.451
552.255
552.061
551.87
551.684
551.505
551.332
551.167
551.01
550.861
550.719
550.586
550.46
550.343
550.233
550.131
550.035
549.945
549.858
549.776
549.695
549.617
549.54
549.462
549.383
549.303
549.222
549.138
549.055
548.971
548.888
548.804
548.719
548.633
548.545
548.454
548.361
548.267
548.171
548.075
547.98
547.885
547.793
547.702
547.613
547.526
547.441
547.358
547.277
547.199
547.123
547.05
546.981
546.916
546.856
546.799
546.745
546.696
546.649
546.604
546.561
546.52
546.479
546.438
546.396
546.354
546.31
546.263
546.213
546.16
546.103
546.04
545.973
545.9
545.821
545.735
545.642
545.543
545.436
545.321
545.2
545.069
544.936
544.804
544.674
544.544
544.416
544.29
544.165
544.041
543.918
543.796
543.675
543.556
543.437
543.319
543.201
543.085
542.969
542.853
542.738
542.624
542.51
542.396
542.282
542.169
542.057
541.944
541.832
541.72
541.608
541.496
541.385
541.273
541.162
541.05
540.939
540.828
540.717
540.606
552.454
552.262
552.072
551.884
551.701
551.524
551.355
551.192
551.038
550.891
550.753
550.622
550.499
550.385
550.279
550.179
550.086
549.998
549.913
549.832
549.752
549.674
549.596
549.516
549.435
549.352
549.266
549.179
549.092
549.004
548.918
548.83
548.741
548.65
548.558
548.464
548.369
548.272
548.174
548.075
547.978
547.882
547.786
547.693
547.601
547.511
547.423
547.337
547.253
547.171
547.092
547.015
546.942
546.874
546.81
546.75
546.694
546.641
546.592
546.546
546.501
546.458
546.416
546.374
546.332
546.289
546.245
546.199
546.15
546.097
546.04
545.979
545.914
545.842
545.766
545.683
545.594
545.498
545.395
545.285
545.168
545.041
544.909
544.777
544.648
544.52
544.394
544.269
544.145
544.022
543.901
543.78
543.661
543.542
543.424
543.307
543.191
543.075
542.96
542.845
542.731
542.617
542.503
542.39
542.277
542.165
542.052
541.94
541.828
541.717
541.605
541.494
541.383
541.271
541.16
541.049
540.938
540.827
540.716
540.605
552.456
552.269
552.083
551.9
551.721
551.549
551.383
551.225
551.074
550.93
550.795
550.667
550.548
550.437
550.334
550.238
550.147
550.06
549.976
549.895
549.815
549.736
549.657
549.575
549.491
549.403
549.313
549.221
549.129
549.036
548.944
548.851
548.757
548.662
548.566
548.469
548.37
548.271
548.171
548.072
547.973
547.875
547.777
547.681
547.587
547.494
547.403
547.314
547.227
547.142
547.059
546.979
546.902
546.83
546.762
546.699
546.64
546.585
546.534
546.485
546.439
546.395
546.352
546.309
546.266
546.223
546.179
546.133
546.084
546.032
545.976
545.917
545.853
545.784
545.709
545.629
545.543
545.451
545.352
545.246
545.132
545.007
544.877
544.748
544.621
544.495
544.37
544.246
544.124
544.003
543.883
543.763
543.645
543.527
543.411
543.295
543.179
543.064
542.95
542.836
542.723
542.609
542.497
542.384
542.272
542.16
542.048
541.936
541.825
541.714
541.603
541.491
541.38
541.27
541.159
541.048
540.937
540.827
540.716
540.605
552.458
552.276
552.095
551.918
551.745
551.578
551.417
551.263
551.116
550.976
550.845
550.721
550.606
550.498
550.398
550.304
550.215
550.129
550.046
549.965
549.885
549.804
549.722
549.637
549.548
549.455
549.36
549.262
549.163
549.064
548.966
548.867
548.768
548.667
548.567
548.466
548.365
548.264
548.163
548.063
547.963
547.864
547.765
547.667
547.57
547.475
547.381
547.289
547.199
547.111
547.024
546.94
546.859
546.783
546.712
546.646
546.584
546.527
546.473
546.423
546.375
546.33
546.285
546.242
546.198
546.155
546.11
546.064
546.016
545.964
545.91
545.852
545.789
545.722
545.65
545.573
545.491
545.402
545.306
545.204
545.094
544.971
544.843
544.716
544.591
544.467
544.344
544.222
544.102
543.982
543.863
543.745
543.628
543.512
543.397
543.282
543.167
543.053
542.94
542.827
542.714
542.602
542.49
542.378
542.266
542.155
542.043
541.932
541.821
541.71
541.6
541.489
541.378
541.268
541.157
541.047
540.936
540.826
540.716
540.605
552.461
552.284
552.11
551.938
551.772
551.61
551.455
551.306
551.163
551.029
550.902
550.782
550.671
550.566
550.469
550.377
550.289
550.204
550.121
550.039
549.957
549.874
549.79
549.7
549.606
549.507
549.404
549.299
549.194
549.088
548.983
548.877
548.771
548.665
548.56
548.456
548.354
548.252
548.151
548.05
547.949
547.848
547.748
547.648
547.55
547.452
547.356
547.261
547.168
547.076
546.986
546.899
546.814
546.734
546.659
546.59
546.526
546.466
546.411
546.358
546.309
546.262
546.217
546.172
546.128
546.084
546.039
545.994
545.945
545.895
545.841
545.784
545.724
545.659
545.589
545.515
545.435
545.349
545.257
545.157
545.05
544.931
544.807
544.683
544.56
544.438
544.317
544.197
544.078
543.96
543.843
543.727
543.611
543.496
543.382
543.268
543.155
543.042
542.93
542.817
542.706
542.594
542.483
542.371
542.26
542.15
542.039
541.928
541.818
541.707
541.597
541.486
541.376
541.266
541.156
541.046
540.935
540.825
540.715
540.605
552.464
552.294
552.126
551.961
551.801
551.645
551.496
551.352
551.216
551.086
550.963
550.848
550.74
550.639
550.544
550.453
550.367
550.283
550.2
550.117
550.033
549.948
549.859
549.764
549.663
549.556
549.446
549.333
549.22
549.107
548.995
548.882
548.769
548.658
548.548
548.441
548.337
548.235
548.133
548.031
547.93
547.828
547.727
547.626
547.526
547.426
547.327
547.23
547.133
547.039
546.945
546.854
546.766
546.682
546.604
546.531
546.464
546.402
546.345
546.291
546.24
546.192
546.145
546.1
546.055
546.01
545.966
545.92
545.872
545.822
545.77
545.714
545.655
545.593
545.525
545.454
545.376
545.294
545.205
545.109
545.005
544.89
544.768
544.647
544.527
544.407
544.288
544.17
544.053
543.937
543.822
543.707
543.593
543.479
543.366
543.254
543.142
543.03
542.919
542.808
542.697
542.586
542.475
542.365
542.255
542.144
542.034
541.924
541.814
541.704
541.594
541.484
541.374
541.264
541.154
541.044
540.934
540.825
540.715
540.605
552.468
552.305
552.144
551.986
551.832
551.683
551.539
551.402
551.271
551.146
551.029
550.917
550.813
550.714
550.622
550.534
550.449
550.365
550.282
550.198
550.113
550.024
549.93
549.828
549.719
549.604
549.484
549.363
549.241
549.121
549.002
548.883
548.764
548.647
548.534
548.424
548.318
548.214
548.111
548.008
547.906
547.804
547.702
547.6
547.498
547.396
547.295
547.194
547.095
546.997
546.901
546.806
546.714
546.627
546.545
546.469
546.4
546.336
546.276
546.221
546.169
546.119
546.071
546.025
545.979
545.934
545.889
545.843
545.796
545.747
545.696
545.641
545.584
545.523
545.459
545.39
545.315
545.236
545.15
545.058
544.959
544.848
544.729
544.61
544.492
544.375
544.258
544.143
544.027
543.913
543.799
543.686
543.574
543.462
543.351
543.239
543.129
543.018
542.908
542.798
542.688
542.578
542.468
542.358
542.249
542.139
542.029
541.92
541.81
541.701
541.591
541.481
541.372
541.262
541.153
541.043
540.934
540.824
540.714
540.605
552.472
552.316
552.162
552.012
551.865
551.723
551.585
551.454
551.328
551.209
551.096
550.988
550.887
550.791
550.702
550.616
550.532
550.45
550.366
550.281
550.192
550.099
549.998
549.889
549.772
549.648
549.518
549.387
549.257
549.129
549.003
548.878
548.754
548.633
548.516
548.403
548.295
548.189
548.085
547.983
547.88
547.777
547.674
547.57
547.466
547.361
547.257
547.154
547.051
546.95
546.851
546.753
546.658
546.567
546.482
546.404
546.332
546.266
546.205
546.148
546.095
546.044
545.995
545.948
545.901
545.856
545.81
545.764
545.717
545.669
545.619
545.566
545.511
545.452
545.39
545.324
545.252
545.176
545.093
545.004
544.909
544.803
544.687
544.572
544.456
544.342
544.227
544.114
544
543.888
543.776
543.665
543.554
543.444
543.334
543.225
543.115
543.006
542.897
542.788
542.679
542.57
542.461
542.352
542.243
542.134
542.025
541.916
541.807
541.697
541.588
541.479
541.37
541.26
541.151
541.042
540.933
540.823
540.714
540.605
552.476
552.328
552.181
552.038
551.898
551.763
551.632
551.507
551.387
551.272
551.163
551.059
550.962
550.869
550.783
550.699
550.617
550.534
550.45
550.363
550.271
550.172
550.064
549.947
549.82
549.686
549.547
549.406
549.268
549.134
549.001
548.87
548.741
548.616
548.496
548.381
548.27
548.163
548.058
547.954
547.851
547.747
547.642
547.536
547.429
547.322
547.215
547.108
547.003
546.899
546.798
546.697
546.599
546.505
546.417
546.336
546.262
546.193
546.131
546.072
546.018
545.966
545.916
545.868
545.821
545.775
545.729
545.682
545.636
545.588
545.539
545.488
545.434
545.378
545.319
545.256
545.188
545.115
545.036
544.951
544.859
544.757
544.645
544.532
544.419
544.307
544.195
544.083
543.972
543.862
543.752
543.643
543.534
543.426
543.318
543.209
543.102
542.994
542.886
542.778
542.67
542.562
542.454
542.345
542.237
542.129
542.02
541.912
541.803
541.694
541.585
541.477
541.368
541.259
541.15
541.041
540.932
540.823
540.714
540.605
552.48
552.339
552.2
552.064
551.932
551.803
551.679
551.56
551.445
551.335
551.23
551.131
551.037
550.948
550.865
550.783
550.702
550.619
550.534
550.444
550.346
550.24
550.125
549.999
549.863
549.72
549.57
549.42
549.275
549.134
548.996
548.86
548.727
548.598
548.475
548.357
548.245
548.136
548.03
547.925
547.82
547.715
547.608
547.499
547.39
547.279
547.168
547.058
546.949
546.843
546.739
546.637
546.537
546.44
546.349
546.266
546.189
546.119
546.054
545.995
545.939
545.886
545.835
545.786
545.739
545.692
545.645
545.599
545.552
545.505
545.457
545.407
545.356
545.303
545.246
545.187
545.122
545.053
544.978
544.897
544.809
544.711
544.601
544.491
544.381
544.271
544.161
544.052
543.943
543.835
543.728
543.62
543.514
543.407
543.301
543.194
543.088
542.981
542.875
542.768
542.661
542.554
542.446
542.339
542.231
542.124
542.016
541.908
541.799
541.691
541.583
541.474
541.366
541.257
541.148
541.04
540.931
540.822
540.713
540.604
552.483
552.351
552.219
552.091
551.965
551.843
551.726
551.612
551.502
551.398
551.297
551.202
551.112
551.027
550.946
550.866
550.786
550.702
550.615
550.52
550.416
550.302
550.177
550.043
549.899
549.746
549.587
549.429
549.277
549.131
548.989
548.85
548.713
548.581
548.455
548.335
548.221
548.111
548.003
547.896
547.789
547.681
547.571
547.459
547.346
547.232
547.117
547.003
546.892
546.783
546.678
546.574
546.473
546.374
546.28
546.194
546.116
546.044
545.978
545.916
545.859
545.806
545.754
545.705
545.656
545.608
545.561
545.514
545.468
545.421
545.374
545.326
545.277
545.226
545.173
545.117
545.057
544.991
544.92
544.843
544.759
544.664
544.557
544.45
544.342
544.234
544.126
544.019
543.913
543.807
543.702
543.597
543.493
543.388
543.284
543.179
543.074
542.969
542.864
542.758
542.652
542.546
542.439
542.333
542.226
542.119
542.011
541.904
541.796
541.688
541.58
541.472
541.364
541.255
541.147
541.039
540.93
540.821
540.713
540.604
552.487
552.362
552.238
552.117
551.998
551.883
551.771
551.663
551.559
551.459
551.364
551.273
551.187
551.105
551.026
550.947
550.866
550.781
550.69
550.589
550.477
550.353
550.218
550.075
549.923
549.763
549.599
549.436
549.279
549.129
548.983
548.841
548.702
548.567
548.438
548.316
548.2
548.088
547.978
547.869
547.759
547.647
547.533
547.417
547.3
547.182
547.063
546.946
546.832
546.722
546.615
546.51
546.408
546.309
546.213
546.125
546.044
545.971
545.903
545.84
545.782
545.727
545.675
545.625
545.575
545.526
545.477
545.43
545.384
545.338
545.293
545.246
545.198
545.15
545.099
545.047
544.991
544.93
544.863
544.79
544.71
544.618
544.513
544.408
544.302
544.196
544.09
543.985
543.881
543.778
543.676
543.573
543.471
543.369
543.266
543.164
543.06
542.957
542.853
542.749
542.644
542.538
542.433
542.327
542.221
542.114
542.007
541.9
541.793
541.685
541.578
541.47
541.362
541.254
541.146
541.038
540.929
540.821
540.713
540.604
552.491
552.373
552.256
552.142
552.03
551.921
551.816
551.714
551.615
551.52
551.429
551.343
551.26
551.181
551.103
551.024
550.94
550.851
550.754
550.646
550.525
550.391
550.247
550.095
549.937
549.772
549.606
549.442
549.284
549.13
548.982
548.838
548.696
548.557
548.426
548.301
548.183
548.069
547.957
547.844
547.729
547.613
547.494
547.374
547.253
547.132
547.01
546.89
546.774
546.662
546.555
546.45
546.349
546.249
546.153
546.063
545.981
545.906
545.836
545.771
545.712
545.655
545.602
545.55
545.498
545.447
545.397
545.352
545.309
545.264
545.219
545.172
545.124
545.077
545.028
544.978
544.926
544.869
544.807
544.739
544.663
544.575
544.468
544.367
544.262
544.157
544.052
543.95
543.849
543.748
543.649
543.549
543.45
543.35
543.249
543.149
543.047
542.945
542.843
542.739
542.636
542.531
542.427
542.321
542.216
542.11
542.003
541.897
541.79
541.683
541.575
541.468
541.36
541.252
541.145
541.037
540.929
540.82
540.712
540.604
552.494
552.383
552.274
552.166
552.061
551.958
551.859
551.762
551.669
551.579
551.492
551.409
551.329
551.251
551.172
551.091
551.003
550.908
550.804
550.688
550.558
550.413
550.26
550.102
549.939
549.773
549.607
549.447
549.289
549.134
548.987
548.844
548.7
548.557
548.423
548.295
548.173
548.056
547.94
547.823
547.704
547.581
547.457
547.335
547.21
547.087
546.962
546.841
546.725
546.613
546.506
546.4
546.302
546.202
546.106
546.015
545.934
545.855
545.785
545.718
545.657
545.597
545.542
545.486
545.429
545.375
545.326
545.288
545.259
545.211
545.161
545.112
545.059
545.009
544.962
544.907
544.856
544.805
544.749
544.687
544.619
544.538
544.441
544.331
544.221
544.115
544.012
543.912
543.814
543.717
543.621
543.525
543.428
543.331
543.233
543.134
543.035
542.934
542.833
542.731
542.628
542.525
542.421
542.316
542.211
542.106
542
541.894
541.787
541.68
541.573
541.466
541.359
541.251
541.144
541.036
540.928
540.82
540.712
540.604
552.497
552.393
552.29
552.189
552.09
551.993
551.9
551.808
551.72
551.634
551.551
551.47
551.39
551.31
551.229
551.143
551.048
550.945
550.834
550.714
550.575
550.42
550.258
550.096
549.934
549.767
549.603
549.449
549.296
549.141
548.997
548.856
548.71
548.559
548.43
548.296
548.163
548.044
547.921
547.799
547.68
547.547
547.417
547.299
547.172
547.052
546.925
546.806
546.693
546.581
546.473
546.359
546.274
546.172
546.079
545.987
545.912
545.824
545.764
545.686
545.628
545.561
545.502
545.438
545.363
545.313
545.279
545.252
545.271
545.196
545.109
545.067
544.994
544.944
544.928
544.829
544.772
544.721
544.678
544.628
544.579
544.507
544.411
544.292
544.176
544.071
543.969
543.872
543.778
543.685
543.593
543.5
543.407
543.312
543.217
543.121
543.023
542.924
542.824
542.723
542.622
542.519
542.416
542.312
542.207
542.102
541.997
541.891
541.785
541.678
541.572
541.465
541.357
541.25
541.143
541.035
540.927
540.82
540.712
540.604
552.5
552.401
552.304
552.209
552.117
552.027
551.939
551.852
551.768
551.684
551.603
551.521
551.438
551.354
551.266
551.174
551.07
550.959
550.846
550.727
550.58
550.417
550.247
550.08
549.918
549.749
549.576
549.437
549.297
549.143
549.003
548.858
548.732
548.586
548.438
548.305
548.163
548.036
547.904
547.772
547.64
547.505
547.378
547.264
547.148
547.035
546.914
546.796
546.689
546.577
546.468
546.364
546.264
546.164
546.068
545.977
545.892
545.813
545.729
545.651
545.585
545.516
545.434
545.379
545.296
545.233
545.205
545.204
545.2
545.188
545.123
545.002
544.916
544.826
544.759
544.701
544.61
544.506
544.512
544.507
544.558
544.514
544.397
544.218
544.117
544.021
543.92
543.828
543.74
543.652
543.565
543.476
543.386
543.295
543.202
543.108
543.012
542.915
542.816
542.716
542.616
542.514
542.411
542.308
542.204
542.099
541.994
541.889
541.783
541.676
541.57
541.463
541.356
541.249
541.142
541.034
540.927
540.819
540.712
540.604
552.502
552.407
552.315
552.226
552.141
552.059
551.979
551.898
551.816
551.733
551.65
551.565
551.472
551.376
551.277
551.178
551.062
550.948
550.836
550.726
550.564
550.399
550.228
550.046
549.866
549.711
549.558
549.41
549.275
549.132
549.011
548.876
548.751
548.603
548.445
548.301
548.15
548.018
547.885
547.751
547.616
547.484
547.365
547.256
547.156
547.052
546.938
546.812
546.7
546.576
546.456
546.333
546.218
546.121
546.029
545.951
545.867
545.802
545.731
545.68
545.599
545.498
545.365
545.3
545.207
545.125
545.081
545.083
545.064
545.057
545.005
544.928
544.879
544.82
544.741
544.683
544.62
544.557
544.531
544.506
544.52
544.489
544.393
544.181
544.074
543.952
543.862
543.78
543.7
543.619
543.537
543.452
543.367
543.279
543.189
543.097
543.003
542.907
542.81
542.711
542.611
542.509
542.407
542.304
542.201
542.097
541.992
541.887
541.781
541.675
541.569
541.462
541.355
541.248
541.141
541.034
540.926
540.819
540.711
540.604
552.502
552.409
552.322
552.242
552.168
552.097
552.028
551.955
551.875
551.791
551.703
551.611
551.494
551.371
551.239
551.134
550.996
550.899
550.782
550.663
550.459
550.303
550.135
549.962
549.801
549.653
549.51
549.374
549.255
549.135
549.026
548.894
548.766
548.611
548.464
548.311
548.155
548.01
547.863
547.703
547.563
547.409
547.31
547.193
547.114
547.024
546.926
546.822
546.708
546.607
546.476
546.35
546.207
546.112
546.01
545.938
545.819
545.747
545.64
545.548
545.447
545.357
545.241
545.197
545.11
545.045
545
544.982
544.967
544.954
544.919
544.894
544.861
544.813
544.75
544.694
544.64
544.592
544.552
544.515
544.489
544.442
544.305
544.07
544.003
543.899
543.801
543.729
543.661
543.588
543.51
543.43
543.349
543.265
543.178
543.088
542.995
542.901
542.804
542.706
542.607
542.506
542.404
542.302
542.199
542.095
541.99
541.885
541.78
541.674
541.568
541.461
541.355
541.248
541.141
541.033
540.926
540.819
540.711
540.604
552.501
552.407
552.326
552.265
552.207
552.146
552.095
552.033
551.964
551.877
551.768
551.67
551.488
551.316
551.09
550.951
550.815
550.735
550.603
550.478
550.281
550.16
550.022
549.881
549.733
549.594
549.46
549.377
549.257
549.147
549.003
548.863
548.706
548.537
548.424
548.276
548.133
547.972
547.811
547.637
547.486
547.356
547.271
547.188
547.107
547.024
546.871
546.759
546.622
546.542
546.397
546.304
546.126
546.011
545.887
545.788
545.675
545.593
545.501
545.418
545.332
545.25
545.165
545.113
545.05
544.99
544.947
544.913
544.885
544.865
544.85
544.833
544.811
544.778
544.734
544.688
544.641
544.596
544.553
544.508
544.458
544.38
544.233
544.029
543.922
543.83
543.762
543.681
543.625
543.562
543.486
543.409
543.333
543.253
543.169
543.081
542.99
542.896
542.801
542.703
542.604
542.504
542.403
542.3
542.197
542.093
541.989
541.884
541.779
541.673
541.567
541.461
541.354
541.247
541.14
541.033
540.926