/*--------------------------------*- C++ -*----------------------------------*\
  =========                 |
  \\      /  F ield         | OpenFOAM: The Open Source CFD Toolbox
   \\    /   O peration     | Website:  https://openfoam.org
    \\  /    A nd           | Version:  6
     \\/     M anipulation  |
\*---------------------------------------------------------------------------*/
FoamFile
{
    version     2.0;
    format      ascii;
    class       surfaceScalarField;
    location    "2000";
    object      phi;
}
// * * * * * * * * * * * * * * * * * * * * * * * * * * * * * * * * * * * * * //

dimensions      [0 3 -1 0 0 0 0];

internalField   nonuniform List<scalar> 
9440
(
1.31036e-10
-1.31036e-10
2.53954e-10
-1.22917e-10
1.99327e-10
5.46285e-11
1.37451e-10
6.18778e-11
5.06389e-11
8.68136e-11
-3.27806e-12
5.39184e-11
-1.17359e-10
1.14082e-10
-2.27168e-10
1.0981e-10
-3.34838e-10
1.07672e-10
-4.84623e-10
1.49786e-10
-6.95226e-10
2.10604e-10
-1.06132e-09
3.66095e-10
-1.52714e-09
4.6582e-10
-1.87494e-09
3.47801e-10
-1.97795e-09
1.03011e-10
-1.97411e-09
-3.83678e-12
-1.8978e-09
-7.63059e-11
-1.61721e-09
-2.80595e-10
-1.50476e-09
-1.12449e-10
-1.46064e-09
-4.41141e-11
-1.48954e-09
2.89001e-11
-1.27848e-09
-2.11065e-10
-1.0203e-09
-2.5818e-10
-6.12082e-10
-4.08214e-10
-3.06255e-10
-3.05827e-10
-4.06682e-11
-2.65586e-10
4.16108e-10
-4.56775e-10
7.75013e-10
-3.58905e-10
9.69271e-10
-1.94257e-10
1.23346e-09
-2.64191e-10
1.40557e-09
-1.72107e-10
1.58262e-09
-1.77054e-10
1.70826e-09
-1.25635e-10
1.83993e-09
-1.3167e-10
2.02728e-09
-1.87352e-10
2.20385e-09
-1.7657e-10
2.26783e-09
-6.39803e-11
2.28715e-09
-1.93205e-11
2.26657e-09
2.05888e-11
2.20768e-09
5.88899e-11
2.13264e-09
7.50407e-11
2.03012e-09
1.02518e-10
1.8691e-09
1.61016e-10
1.67808e-09
1.91019e-10
1.51048e-09
1.67602e-10
1.37071e-09
1.39769e-10
1.28891e-09
8.18028e-11
1.18672e-09
1.02184e-10
1.02773e-09
1.58987e-10
9.14127e-10
1.13606e-10
9.0955e-10
4.57564e-12
9.74793e-10
-6.52435e-11
8.86873e-10
8.79185e-11
1.0152e-09
-1.2833e-10
1.32653e-09
-3.11327e-10
1.60225e-09
-2.75718e-10
1.70544e-09
-1.03193e-10
1.95749e-09
-2.5205e-10
2.25123e-09
-2.93745e-10
2.51758e-09
-2.66351e-10
2.63496e-09
-1.1738e-10
2.84396e-09
-2.09003e-10
3.08159e-09
-2.37634e-10
3.22268e-09
-1.41086e-10
3.21474e-09
7.93818e-12
3.1663e-09
4.84411e-11
3.06347e-09
1.02828e-10
2.90644e-09
1.5703e-10
2.73866e-09
1.67783e-10
2.47816e-09
2.60497e-10
2.27243e-09
2.05731e-10
2.04089e-09
2.31545e-10
1.73364e-09
3.07244e-10
1.28758e-09
4.46061e-10
1.01387e-09
2.73714e-10
6.35313e-10
3.78554e-10
1.78123e-10
4.57189e-10
-2.10367e-10
3.88491e-10
-1.7082e-10
-3.95466e-11
-2.29763e-15
-1.70816e-10
-5.28321e-18
-1.22029e-18
-4.8906e-18
-3.92616e-19
-4.81948e-18
-7.01034e-20
-4.77172e-18
-4.77006e-20
-4.67203e-18
-9.97967e-20
-4.50513e-18
-1.6692e-19
-4.27206e-18
-2.33071e-19
-3.97865e-18
-2.93457e-19
-3.63279e-18
-3.45998e-19
-3.24349e-18
-3.89532e-19
-2.82042e-18
-4.23379e-19
-2.37359e-18
-4.47219e-19
-1.91298e-18
-4.61046e-19
-1.44836e-18
-4.65131e-19
-9.88978e-19
-4.59991e-19
-5.43338e-19
-4.46353e-19
-1.19047e-19
-4.25117e-19
2.77332e-19
-3.97313e-19
6.40348e-19
-3.64057e-19
9.65677e-19
-3.26496e-19
1.25011e-18
-2.85766e-19
1.49153e-18
-2.42956e-19
1.68882e-18
-1.99078e-19
1.84181e-18
-1.55041e-19
1.95113e-18
-1.11631e-19
2.01814e-18
-6.9509e-20
2.04478e-18
-2.92167e-20
2.03342e-18
8.81212e-21
1.98679e-18
4.42391e-20
1.90776e-18
7.68137e-20
1.79934e-18
1.06368e-19
1.66454e-18
1.32809e-19
1.50642e-18
1.56108e-19
1.32803e-18
1.76284e-19
1.13238e-18
1.9339e-19
9.22485e-19
2.07492e-19
7.01302e-19
2.18653e-19
4.71776e-19
2.26907e-19
2.36901e-19
2.32203e-19
2.34207e-19
-1.88009e-11
-1.12233e-10
-9.9905e-11
-4.18093e-11
-6.84926e-11
2.32189e-11
-1.14736e-10
1.08123e-10
-1.50858e-10
1.22939e-10
-2.38572e-10
1.41634e-10
-2.55253e-10
1.30766e-10
-4.3226e-10
2.8682e-10
-7.60179e-10
4.35593e-10
-1.07149e-09
4.61097e-10
-1.4978e-09
6.36914e-10
-1.86569e-09
7.33987e-10
-2.09328e-09
6.93409e-10
-2.249e-09
5.0353e-10
-2.204e-09
5.80123e-11
-2.20241e-09
-5.42855e-12
-2.11945e-09
-1.59266e-10
-1.95166e-09
-4.4838e-10
-1.79285e-09
-2.71261e-10
-1.61263e-09
-2.24334e-10
-1.41409e-09
-1.69637e-10
-1.19597e-09
-4.29183e-10
-9.13586e-10
-5.40563e-10
-5.74379e-10
-7.47421e-10
-3.05214e-10
-5.74991e-10
-1.19389e-11
-5.5886e-10
2.98494e-10
-7.67207e-10
6.21982e-10
-6.82391e-10
8.4169e-10
-4.13965e-10
1.10539e-09
-5.27892e-10
1.26175e-09
-3.28462e-10
1.48318e-09
-3.98483e-10
1.63088e-09
-2.73332e-10
1.80887e-09
-3.09664e-10
2.0101e-09
-3.88577e-10
2.15044e-09
-3.16913e-10
2.2365e-09
-1.50036e-10
2.23295e-09
-1.57733e-11
2.17895e-09
7.4592e-11
2.08622e-09
1.51616e-10
1.99904e-09
1.62224e-10
1.88459e-09
2.16964e-10
1.74627e-09
2.99338e-10
1.64208e-09
2.95211e-10
1.53152e-09
2.78158e-10
1.38536e-09
2.85933e-10
1.23895e-09
2.28207e-10
1.07335e-09
2.67783e-10
9.06904e-10
3.25431e-10
8.13786e-10
2.06723e-10
7.20504e-10
9.78559e-11
7.06651e-10
-5.13927e-11
8.12803e-10
-1.82353e-11
9.14861e-10
-2.3039e-10
1.20559e-09
-6.02055e-10
1.45044e-09
-5.20569e-10
1.73092e-09
-3.83682e-10
1.92906e-09
-4.50184e-10
2.20606e-09
-5.70747e-10
2.45007e-09
-5.10362e-10
2.63827e-09
-3.05584e-10
2.87319e-09
-4.43925e-10
3.01233e-09
-3.76778e-10
3.04122e-09
-1.69978e-10
3.00374e-09
4.54124e-11
2.93977e-09
1.12414e-10
2.82767e-09
2.14924e-10
2.73985e-09
2.44855e-10
2.48996e-09
4.17674e-10
2.38065e-09
3.69807e-10
2.15998e-09
4.26398e-10
1.81712e-09
5.74403e-10
1.68811e-09
4.36257e-10
1.51743e-09
6.16745e-10
9.68779e-10
8.22362e-10
6.55623e-10
6.91711e-10
8.52617e-10
2.60195e-10
1.11111e-09
1.29998e-10
9.88771e-10
8.27906e-11
-1.82381e-16
8.1795e-10
-3.83209e-18
1.60725e-18
-4.57061e-18
3.4415e-19
-4.79846e-18
1.57661e-19
-4.82421e-18
-2.1635e-20
-4.73912e-18
-1.84628e-19
-4.57129e-18
-3.34611e-19
-4.33245e-18
-4.71922e-19
-4.03119e-18
-5.94886e-19
-3.67632e-18
-7.01213e-19
-3.27734e-18
-7.89029e-19
-2.84426e-18
-8.57105e-19
-2.38741e-18
-9.04865e-19
-1.91707e-18
-9.32337e-19
-1.44322e-18
-9.40096e-19
-9.7534e-19
-9.29203e-19
-5.22101e-19
-9.01146e-19
-9.12436e-20
-8.57768e-19
3.10588e-19
-8.01183e-19
6.77909e-19
-7.33673e-19
1.00641e-18
-6.57577e-19
1.29292e-18
-5.75201e-19
1.53541e-18
-4.88737e-19
1.73286e-18
-4.00203e-19
1.88522e-18
-3.11397e-19
1.99325e-18
-2.23885e-19
2.05843e-18
-1.38997e-19
2.0828e-18
-5.78488e-20
2.06885e-18
1.86516e-20
2.01937e-18
8.97986e-20
1.93732e-18
1.55087e-19
1.82578e-18
2.14201e-19
1.68784e-18
2.66994e-19
1.5266e-18
3.13453e-19
1.34513e-18
3.53657e-19
1.14648e-18
3.87737e-19
9.33646e-19
4.15844e-19
7.09556e-19
4.38118e-19
4.77072e-19
4.54675e-19
2.38904e-19
4.65603e-19
4.71041e-19
-2.68111e-10
1.5588e-10
-4.00046e-10
9.0128e-11
-4.15108e-10
3.82827e-11
-2.853e-10
-2.16814e-11
-1.88707e-10
2.63474e-11
-3.31682e-10
2.84611e-10
-6.22091e-10
4.21176e-10
-7.86791e-10
4.51522e-10
-1.11469e-09
7.63492e-10
-1.59328e-09
9.39693e-10
-1.99519e-09
1.03883e-09
-2.27706e-09
1.01586e-09
-2.33347e-09
7.4982e-10
-2.39789e-09
5.67948e-10
-2.33528e-09
-4.5978e-12
-2.23466e-09
-1.06044e-10
-2.12015e-09
-2.73781e-10
-2.04997e-09
-5.18556e-10
-1.82162e-09
-4.99606e-10
-1.59741e-09
-4.4855e-10
-1.35723e-09
-4.09814e-10
-1.27669e-09
-5.09725e-10
-9.76797e-10
-8.40451e-10
-8.59009e-10
-8.65209e-10
-6.93224e-10
-7.40775e-10
-4.43996e-10
-8.08087e-10
-1.43491e-10
-1.06771e-09
2.15811e-10
-1.04169e-09
6.38901e-10
-8.37054e-10
9.60818e-10
-8.49809e-10
1.17339e-09
-5.41036e-10
1.39055e-09
-6.1564e-10
1.56122e-09
-4.43998e-10
1.85623e-09
-6.04672e-10
1.98579e-09
-5.1814e-10
2.03537e-09
-3.66496e-10
2.09394e-09
-2.08606e-10
2.09717e-09
-1.90018e-11
2.03243e-09
1.39334e-10
1.95294e-09
2.31106e-10
1.83407e-09
2.81098e-10
1.71423e-09
3.36799e-10
1.57777e-09
4.35796e-10
1.50592e-09
3.67064e-10
1.4224e-09
3.61681e-10
1.32673e-09
3.81598e-10
1.17168e-09
3.83253e-10
9.70719e-10
4.68744e-10
7.79228e-10
5.16921e-10
6.19811e-10
3.6614e-10
5.28873e-10
1.88792e-10
5.80422e-10
-1.02943e-10
7.51521e-10
-1.89337e-10
8.80653e-10
-3.59523e-10
1.09393e-09
-8.15337e-10
1.45334e-09
-8.79977e-10
1.70274e-09
-6.33084e-10
1.92355e-09
-6.70991e-10
2.15902e-09
-8.06218e-10
2.39158e-09
-7.4293e-10
2.5336e-09
-4.47601e-10
2.6664e-09
-5.7673e-10
2.58109e-09
-2.91467e-10
2.66586e-09
-2.54744e-10
2.71141e-09
-1.46542e-13
2.66731e-09
1.56515e-10
2.60566e-09
2.76574e-10
2.48227e-09
3.68247e-10
2.32399e-09
5.7595e-10
2.10173e-09
5.9207e-10
1.84073e-09
6.87396e-10
1.72838e-09
6.86758e-10
1.49265e-09
6.71979e-10
1.10134e-09
1.00806e-09
9.07914e-10
1.01579e-09
9.22977e-10
6.76648e-10
1.01481e-09
1.68367e-10
1.08017e-09
6.46334e-11
6.70918e-10
4.92049e-10
-1.98274e-16
1.48887e-09
-3.86669e-18
5.87653e-18
-4.75648e-18
1.23398e-18
-4.97717e-18
3.78859e-19
-4.98667e-18
-1.15152e-20
-4.88886e-18
-2.81843e-19
-4.7086e-18
-5.14402e-19
-4.45541e-18
-7.24812e-19
-4.13752e-18
-9.12679e-19
-3.76414e-18
-1.07471e-18
-3.34541e-18
-1.20807e-18
-2.89202e-18
-1.31099e-18
-2.41488e-18
-1.38269e-18
-1.92483e-18
-1.42327e-18
-1.43233e-18
-1.43368e-18
-9.47283e-19
-1.41559e-18
-4.78723e-19
-1.37131e-18
-3.46587e-20
-1.3037e-18
3.78099e-19
-1.21604e-18
7.54005e-19
-1.11186e-18
1.08878e-18
-9.94781e-19
1.37938e-18
-8.68372e-19
1.62394e-18
-7.36006e-19
1.82166e-18
-6.00783e-19
1.97273e-18
-4.65465e-19
2.07814e-18
-3.32443e-19
2.13958e-18
-2.03731e-19
2.1593e-18
-8.09841e-20
2.14e-18
3.44779e-20
2.08465e-18
1.41656e-19
1.99643e-18
2.39852e-19
1.87857e-18
3.28648e-19
1.7343e-18
4.07862e-19
1.5668e-18
4.77505e-19
1.37921e-18
5.37719e-19
1.17459e-18
5.88719e-19
9.5592e-19
6.3075e-19
7.26113e-19
6.64049e-19
4.88e-19
6.8882e-19
2.44342e-19
7.05236e-19
7.13443e-19
-1.06001e-11
1.66482e-10
-1.76048e-10
2.55578e-10
-4.25315e-10
2.87552e-10
-5.95268e-10
1.48273e-10
-6.19035e-10
5.01159e-11
-5.88981e-10
2.5456e-10
-8.95701e-10
7.27898e-10
-1.37789e-09
9.33718e-10
-1.67619e-09
1.06179e-09
-2.06619e-09
1.32969e-09
-2.33607e-09
1.30871e-09
-2.46137e-09
1.14116e-09
-2.3655e-09
6.53947e-10
-2.26712e-09
4.6957e-10
-2.31936e-09
4.76491e-11
-2.17865e-09
-2.46756e-10
-2.08824e-09
-3.64192e-10
-2.07572e-09
-5.3107e-10
-1.98411e-09
-5.91219e-10
-1.84338e-09
-5.89275e-10
-1.68097e-09
-5.72223e-10
-1.51475e-09
-6.7595e-10
-1.38215e-09
-9.73043e-10
-1.44305e-09
-8.04314e-10
-1.31354e-09
-8.70281e-10
-8.95212e-10
-1.22641e-09
-6.10587e-10
-1.35234e-09
-4.59177e-10
-1.1931e-09
-3.3045e-11
-1.26319e-09
4.28071e-10
-1.31092e-09
9.22474e-10
-1.03544e-09
1.17613e-09
-8.69299e-10
1.44956e-09
-7.17424e-10
1.75664e-09
-9.11753e-10
1.97245e-09
-7.33948e-10
1.94463e-09
-3.3868e-10
1.99474e-09
-2.58707e-10
1.98322e-09
-7.48554e-12
1.92723e-09
1.95321e-10
1.84534e-09
3.12999e-10
1.71919e-09
4.0725e-10
1.54492e-09
5.11063e-10
1.45743e-09
5.23289e-10
1.37677e-09
4.47719e-10
1.31182e-09
4.26632e-10
1.24327e-09
4.50148e-10
1.12402e-09
5.02504e-10
9.65286e-10
6.27477e-10
8.21746e-10
6.6046e-10
6.28406e-10
5.59478e-10
5.34395e-10
2.82802e-10
5.56162e-10
-1.24712e-10
7.35135e-10
-3.68311e-10
9.96082e-10
-6.20472e-10
1.10271e-09
-9.21971e-10
1.48105e-09
-1.25831e-09
1.78227e-09
-9.34304e-10
2.02656e-09
-9.15288e-10
2.20229e-09
-9.81946e-10
2.23125e-09
-7.71895e-10
2.29453e-09
-5.10879e-10
2.35916e-09
-6.41361e-10
2.41668e-09
-3.48991e-10
2.42208e-09
-2.60139e-10
2.43895e-09
-1.70219e-11
2.39139e-09
2.04076e-10
2.318e-09
3.49964e-10
2.18471e-09
5.01531e-10
2.12577e-09
6.34889e-10
2.02378e-09
6.94062e-10
1.84534e-09
8.65834e-10
1.61989e-09
9.12211e-10
1.27544e-09
1.01643e-09
1.09581e-09
1.18769e-09
1.01633e-09
1.09527e-09
5.37273e-10
1.1557e-09
-2.13292e-10
9.18932e-10
-5.66731e-10
4.18072e-10
1.44127e-10
-2.18808e-10
-3.92806e-16
1.633e-09
-6.57624e-18
2.6284e-18
-5.6109e-18
2.69067e-19
-5.36694e-18
1.35951e-19
-5.25645e-18
-1.20971e-19
-5.12122e-18
-4.16115e-19
-4.91901e-18
-7.15798e-19
-4.64328e-18
-9.99953e-19
-4.29955e-18
-1.25609e-18
-3.89751e-18
-1.4767e-18
-3.44833e-18
-1.65746e-18
-2.96372e-18
-1.79607e-18
-2.45547e-18
-1.89163e-18
-1.93523e-18
-1.94445e-18
-1.41424e-18
-1.95589e-18
-9.03004e-19
-1.92832e-18
-4.11115e-19
-1.865e-18
5.30043e-20
-1.76992e-18
4.8228e-19
-1.64765e-18
8.7108e-19
-1.50313e-18
1.21519e-18
-1.3414e-18
1.51175e-18
-1.16743e-18
1.75916e-18
-9.85906e-19
1.95698e-18
-8.01098e-19
2.10576e-18
-6.16794e-19
2.20685e-18
-4.36233e-19
2.26233e-18
-2.62103e-19
2.27477e-18
-9.65634e-20
2.24718e-18
5.87137e-20
2.18285e-18
2.02495e-19
2.08523e-18
3.3395e-19
1.95778e-18
4.52601e-19
1.80394e-18
5.58277e-19
1.62701e-18
6.51042e-19
1.43021e-18
7.31129e-19
1.21662e-18
7.98866e-19
9.89219e-19
8.54619e-19
7.50884e-19
8.98742e-19
5.04416e-19
9.31547e-19
2.52549e-19
9.53288e-19
9.64149e-19
-2.52674e-11
1.91751e-10
-9.30754e-11
3.23389e-10
-3.08655e-10
5.03134e-10
-6.64163e-10
5.03784e-10
-1.02018e-09
4.06135e-10
-1.28785e-09
5.22237e-10
-1.43902e-09
8.79062e-10
-1.72666e-09
1.22136e-09
-2.15047e-09
1.4856e-09
-2.32597e-09
1.50519e-09
-2.40844e-09
1.39118e-09
-2.42231e-09
1.15504e-09
-2.31889e-09
5.50528e-10
-2.18336e-09
3.34043e-10
-2.19545e-09
5.97384e-11
-2.20023e-09
-2.41973e-10
-2.12109e-09
-4.43333e-10
-2.09707e-09
-5.55089e-10
-2.07757e-09
-6.10721e-10
-2.00349e-09
-6.63352e-10
-1.90585e-09
-6.69868e-10
-1.75031e-09
-8.31488e-10
-1.69398e-09
-1.02937e-09
-1.53995e-09
-9.58345e-10
-1.28739e-09
-1.12284e-09
-9.72593e-10
-1.54121e-09
-8.62832e-10
-1.4621e-09
-6.02837e-10
-1.4531e-09
-2.91547e-10
-1.57448e-09
-1.02069e-10
-1.5004e-09
3.97901e-10
-1.53541e-09
9.08137e-10
-1.37953e-09
1.32813e-09
-1.13742e-09
1.54594e-09
-1.12957e-09
1.8021e-09
-9.90101e-10
1.89317e-09
-4.29757e-10
1.92158e-09
-2.87118e-10
1.91645e-09
-2.35044e-12
1.8305e-09
2.81267e-10
1.71113e-09
4.32377e-10
1.55554e-09
5.62835e-10
1.36827e-09
6.98337e-10
1.34266e-09
5.48889e-10
1.22743e-09
5.62951e-10
1.18007e-09
4.73992e-10
1.12606e-09
5.04163e-10
1.01284e-09
6.15722e-10
9.06165e-10
7.34147e-10
8.82674e-10
6.8395e-10
9.06884e-10
5.35267e-10
9.3154e-10
2.58145e-10
9.29275e-10
-1.22448e-10
9.88337e-10
-4.27375e-10
1.23858e-09
-8.70719e-10
1.41419e-09
-1.09758e-09
1.55565e-09
-1.39977e-09
1.79172e-09
-1.17038e-09
1.90541e-09
-1.02897e-09
2.03239e-09
-1.10893e-09
2.13551e-09
-8.75017e-10
2.27577e-09
-6.51139e-10
2.17961e-09
-5.45202e-10
2.19804e-09
-3.67426e-10
2.15038e-09
-2.12482e-10
2.10441e-09
2.8949e-11
2.09975e-09
2.08742e-10
2.04401e-09
4.05701e-10
1.97561e-09
5.69925e-10
1.89576e-09
7.14744e-10
1.73584e-09
8.53983e-10
1.56061e-09
1.04106e-09
1.36812e-09
1.1047e-09
1.36366e-09
1.02089e-09
1.32628e-09
1.22508e-09
1.01164e-09
1.40992e-09
6.36689e-10
1.53065e-09
3.9571e-10
1.15991e-09
2.70159e-11
7.86767e-10
1.48968e-10
-3.40759e-10
-4.58562e-16
1.78197e-09
-6.1252e-18
3.30383e-18
-5.74336e-18
-1.12186e-19
-5.62327e-18
1.7263e-20
-5.55106e-18
-1.91849e-19
-5.42075e-18
-5.45188e-19
-5.20316e-18
-9.32338e-19
-4.89941e-18
-1.3029e-18
-4.52015e-18
-1.63486e-18
-4.07827e-18
-1.91841e-18
-3.58694e-18
-2.14892e-18
-3.05929e-18
-2.32412e-18
-2.50828e-18
-2.44329e-18
-1.94667e-18
-2.50699e-18
-1.38667e-18
-2.5171e-18
-8.39685e-19
-2.47682e-18
-3.16037e-19
-2.39048e-18
1.75274e-19
-2.2634e-18
6.26807e-19
-2.10163e-18
1.03281e-18
-1.91172e-18
1.38916e-18
-1.70036e-18
1.69328e-18
-1.47409e-18
1.94397e-18
-1.23904e-18
2.14129e-18
-1.00077e-18
2.28632e-18
-7.64167e-19
2.38098e-18
-5.33334e-19
2.42787e-18
-3.11626e-19
2.43004e-18
-1.01665e-19
2.39096e-18
9.45785e-20
2.3143e-18
2.75711e-19
2.20388e-18
4.40842e-19
2.06346e-18
5.89508e-19
1.8967e-18
7.21608e-19
1.7071e-18
8.37319e-19
1.49795e-18
9.37011e-19
1.27237e-18
1.02117e-18
1.03334e-18
1.09032e-18
7.8369e-19
1.14496e-18
5.26157e-19
1.18553e-18
2.6341e-19
1.21241e-18
1.22582e-18
-3.41966e-10
5.33718e-10
-4.30589e-10
4.12015e-10
-4.0301e-10
4.75556e-10
-5.60664e-10
6.61441e-10
-9.87489e-10
8.32961e-10
-1.43874e-09
9.73491e-10
-1.86315e-09
1.30347e-09
-2.13942e-09
1.49763e-09
-2.24318e-09
1.58937e-09
-2.32486e-09
1.58687e-09
-2.30114e-09
1.36746e-09
-2.33631e-09
1.1902e-09
-2.38268e-09
5.969e-10
-2.16664e-09
1.18007e-10
-2.05526e-09
-5.16443e-11
-2.12558e-09
-1.71651e-10
-2.11845e-09
-4.50464e-10
-2.07089e-09
-6.02642e-10
-2.03531e-09
-6.46299e-10
-1.96409e-09
-7.3457e-10
-1.88502e-09
-7.48938e-10
-1.79337e-09
-9.23142e-10
-1.71376e-09
-1.10898e-09
-1.49163e-09
-1.18047e-09
-1.12955e-09
-1.48492e-09
-8.91761e-10
-1.779e-09
-6.33092e-10
-1.72077e-09
-3.2278e-10
-1.76341e-09
-1.25683e-10
-1.77157e-09
-5.57687e-11
-1.57032e-09
1.98089e-10
-1.78927e-09
6.34089e-10
-1.81553e-09
1.13772e-09
-1.64105e-09
1.43082e-09
-1.42266e-09
1.68408e-09
-1.24337e-09
1.91102e-09
-6.5669e-10
1.894e-09
-2.70097e-10
1.84335e-09
4.82944e-11
1.71862e-09
4.06002e-10
1.54613e-09
6.0486e-10
1.39609e-09
7.12879e-10
1.28918e-09
8.05249e-10
1.21766e-09
6.20405e-10
1.1961e-09
5.84512e-10
1.14801e-09
5.22082e-10
1.0721e-09
5.80073e-10
9.61029e-10
7.26789e-10
8.98408e-10
7.96767e-10
8.88518e-10
6.93839e-10
1.00385e-09
4.19929e-10
1.09676e-09
1.65234e-10
1.13591e-09
-1.61592e-10
1.25382e-09
-5.45288e-10
1.36094e-09
-9.77844e-10
1.49787e-09
-1.23451e-09
1.51062e-09
-1.41252e-09
1.72031e-09
-1.38008e-09
1.85687e-09
-1.16554e-09
1.92837e-09
-1.18043e-09
2.0252e-09
-9.71849e-10
2.01019e-09
-6.36131e-10
2.01698e-09
-5.51989e-10
1.99634e-09
-3.46785e-10
1.8454e-09
-6.15439e-11
1.84414e-09
3.02074e-11
1.81001e-09
2.42869e-10
1.72794e-09
4.87767e-10
1.69216e-09
6.05705e-10
1.61945e-09
7.87461e-10
1.56172e-09
9.11706e-10
1.46383e-09
1.13896e-09
1.30349e-09
1.26504e-09
1.02004e-09
1.30433e-09
6.8968e-10
1.55544e-09
5.24829e-10
1.57477e-09
6.1021e-10
1.44527e-09
5.08318e-10
1.2618e-09
5.81731e-10
7.13355e-10
2.81304e-10
-4.03311e-11
-4.06201e-16
2.06327e-09
-5.5585e-18
3.63087e-18
-5.61326e-18
-5.66999e-20
-5.83179e-18
2.37234e-19
-5.90386e-18
-1.18427e-19
-5.80782e-18
-6.39954e-19
-5.57372e-18
-1.16533e-18
-5.23137e-18
-1.64439e-18
-4.80371e-18
-2.06197e-18
-4.30877e-18
-2.41313e-18
-3.76214e-18
-2.69562e-18
-3.17845e-18
-2.90814e-18
-2.57198e-18
-3.05029e-18
-1.95679e-18
-3.12296e-18
-1.34639e-18
-3.12855e-18
-7.53345e-19
-3.07118e-18
-1.88955e-19
-2.95649e-18
3.37039e-19
-2.79137e-18
8.16716e-19
-2.58366e-18
1.24417e-18
-2.34178e-18
1.61543e-18
-2.07431e-18
1.92833e-18
-1.78962e-18
2.18224e-18
-1.49546e-18
2.37789e-18
-1.19882e-18
2.51715e-18
-9.05728e-19
2.60269e-18
-6.21193e-19
2.63783e-18
-3.49214e-19
2.62629e-18
-9.28338e-20
2.57209e-18
1.45754e-19
2.47943e-18
3.65083e-19
2.35255e-18
5.643e-19
2.19556e-18
7.43054e-19
2.01242e-18
9.01403e-19
1.80679e-18
1.03971e-18
1.58211e-18
1.15857e-18
1.34152e-18
1.25866e-18
1.08798e-18
1.34072e-18
8.24267e-19
1.40544e-18
5.53027e-19
1.45343e-18
2.76824e-19
1.48518e-18
1.50101e-18
-4.34879e-10
9.68598e-10
-8.53604e-10
8.30742e-10
-9.82744e-10
6.04698e-10
-9.25904e-10
6.04603e-10
-1.12045e-09
1.0275e-09
-1.56167e-09
1.41472e-09
-1.87171e-09
1.61351e-09
-2.11227e-09
1.73819e-09
-2.22092e-09
1.69803e-09
-2.30208e-09
1.66804e-09
-2.21805e-09
1.28342e-09
-2.10766e-09
1.07982e-09
-2.23858e-09
7.27822e-10
-2.21226e-09
9.16908e-11
-2.06376e-09
-2.00143e-10
-1.99954e-09
-2.35876e-10
-1.99645e-09
-4.53549e-10
-1.91535e-09
-6.83739e-10
-1.89662e-09
-6.6503e-10
-1.82632e-09
-8.04866e-10
-1.75198e-09
-8.23287e-10
-1.61211e-09
-1.063e-09
-1.47249e-09
-1.2486e-09
-1.07551e-09
-1.57745e-09
-6.93787e-10
-1.86664e-09
-5.01485e-10
-1.9713e-09
-2.05633e-10
-2.01662e-09
3.28412e-11
-2.00188e-09
2.50156e-10
-1.98889e-09
4.96434e-10
-1.81659e-09
6.60392e-10
-1.95322e-09
7.93687e-10
-1.94883e-09
1.10537e-09
-1.95274e-09
1.40437e-09
-1.72165e-09
1.60287e-09
-1.44187e-09
1.86742e-09
-9.21242e-10
1.90524e-09
-3.07923e-10
1.76352e-09
1.90015e-10
1.61164e-09
5.57883e-10
1.41282e-09
8.03678e-10
1.27452e-09
8.51179e-10
1.19395e-09
8.85823e-10
1.15478e-09
6.59577e-10
1.16025e-09
5.79038e-10
1.098e-09
5.84333e-10
9.77698e-10
7.00371e-10
9.03197e-10
8.01289e-10
9.31371e-10
7.68592e-10
9.67842e-10
6.57366e-10
1.07802e-09
3.09753e-10
1.22936e-09
1.3888e-11
1.33937e-09
-2.71598e-10
1.46397e-09
-6.69889e-10
1.61395e-09
-1.12782e-09
1.73908e-09
-1.35964e-09
1.73641e-09
-1.40986e-09
1.76154e-09
-1.40521e-09
1.81994e-09
-1.22393e-09
1.78711e-09
-1.14761e-09
1.90861e-09
-1.09335e-09
1.86813e-09
-5.95647e-10
1.83278e-09
-5.16644e-10
1.81692e-09
-3.30926e-10
1.70886e-09
4.65189e-11
1.66932e-09
6.9746e-11
1.65339e-09
2.58791e-10
1.60473e-09
5.36433e-10
1.56171e-09
6.48725e-10
1.47779e-09
8.71375e-10
1.33559e-09
1.05391e-09
1.17836e-09
1.29619e-09
1.07399e-09
1.36941e-09
9.18273e-10
1.46005e-09
8.84866e-10
1.58884e-09
9.11614e-10
1.54802e-09
8.62472e-10
1.49441e-09
6.98595e-10
1.42568e-09
6.12484e-10
7.99468e-10
2.68389e-10
3.03765e-10
-2.55084e-16
2.33166e-09
-3.31138e-18
1.24612e-17
-5.31867e-18
1.95136e-18
-6.18685e-18
1.10651e-18
-6.42494e-18
1.2068e-19
-6.33319e-18
-7.30652e-19
-6.05278e-18
-1.44478e-18
-5.64895e-18
-2.04747e-18
-5.15487e-18
-2.55559e-18
-4.59126e-18
-2.97658e-18
-3.97466e-18
-3.31232e-18
-3.32061e-18
-3.56248e-18
-2.64465e-18
-3.72667e-18
-1.96239e-18
-3.80578e-18
-1.28901e-18
-3.80271e-18
-6.38651e-19
-3.72256e-18
-2.38369e-20
-3.57255e-18
5.44747e-19
-3.36154e-18
1.0586e-18
-3.09955e-18
1.51163e-18
-2.79725e-18
1.90013e-18
-2.46548e-18
2.22248e-18
-2.11468e-18
2.47887e-18
-1.75449e-18
2.67099e-18
-1.39343e-18
2.80168e-18
-1.03878e-18
2.87467e-18
-6.96454e-19
2.89421e-18
-3.71059e-19
2.86487e-18
-6.59875e-20
2.79142e-18
2.16443e-19
2.67865e-18
4.74811e-19
2.5313e-18
7.08422e-19
2.35391e-18
9.17165e-19
2.15073e-18
1.10137e-18
1.92565e-18
1.2617e-18
1.6822e-18
1.39904e-18
1.42358e-18
1.51436e-18
1.15271e-18
1.60866e-18
8.7226e-19
1.68287e-18
5.84772e-19
1.73779e-18
2.92659e-19
1.77408e-18
1.79216e-18
-1.51495e-10
1.12009e-09
-4.26516e-10
1.10577e-09
-9.20934e-10
1.09912e-09
-1.45957e-09
1.14324e-09
-1.80028e-09
1.36822e-09
-1.87082e-09
1.48526e-09
-1.86114e-09
1.60384e-09
-1.97328e-09
1.85033e-09
-2.02267e-09
1.74742e-09
-1.85068e-09
1.49605e-09
-1.95245e-09
1.3852e-09
-1.93578e-09
1.06315e-09
-1.8924e-09
6.84442e-10
-1.96756e-09
1.6685e-10
-1.90154e-09
-2.66161e-10
-1.79301e-09
-3.444e-10
-1.70853e-09
-5.38031e-10
-1.71144e-09
-6.80824e-10
-1.65995e-09
-7.16526e-10
-1.58761e-09
-8.77204e-10
-1.53788e-09
-8.73012e-10
-1.3585e-09
-1.24238e-09
-1.12443e-09
-1.48267e-09
-7.15126e-10
-1.98676e-09
-4.62364e-10
-2.11941e-09
-2.40695e-10
-2.19297e-09
1.79587e-12
-2.25911e-09
2.0367e-10
-2.20375e-09
3.54443e-10
-2.13966e-09
5.62686e-10
-2.02484e-09
7.94656e-10
-2.18519e-09
1.05771e-09
-2.21188e-09
1.24286e-09
-2.13788e-09
1.41197e-09
-1.89077e-09
1.59527e-09
-1.62518e-09
1.7936e-09
-1.11957e-09
1.83308e-09
-3.47406e-10
1.66301e-09
3.60084e-10
1.46069e-09
7.60207e-10
1.30733e-09
9.57037e-10
1.20247e-09
9.56039e-10
1.15948e-09
9.28804e-10
1.11279e-09
7.06275e-10
1.0495e-09
6.42324e-10
9.50677e-10
6.83155e-10
8.6427e-10
7.86777e-10
8.96494e-10
7.69065e-10
9.63692e-10
7.01392e-10
1.10978e-09
5.11279e-10
1.22923e-09
1.90298e-10
1.37256e-09
-1.29442e-10
1.5603e-09
-4.59336e-10
1.6783e-09
-7.87889e-10
1.74462e-09
-1.19415e-09
1.79895e-09
-1.41397e-09
1.82179e-09
-1.4327e-09
1.83837e-09
-1.42179e-09
1.93539e-09
-1.32095e-09
1.79067e-09
-1.00289e-09
1.66433e-09
-9.67015e-10
1.75367e-09
-6.84984e-10
1.65177e-09
-4.14746e-10
1.5704e-09
-2.4956e-10
1.58211e-09
3.48116e-11
1.51066e-09
1.4119e-10
1.38682e-09
3.8263e-10
1.24734e-09
6.75919e-10
1.12551e-09
7.70555e-10
1.08839e-09
9.08491e-10
1.01967e-09
1.12263e-09
1.03157e-09
1.28428e-09
9.83597e-10
1.41739e-09
8.94252e-10
1.5494e-09
9.02519e-10
1.58058e-09
7.85976e-10
1.66456e-09
6.43462e-10
1.63693e-09
5.94308e-10
1.47484e-09
4.97364e-10
8.96412e-10
4.79071e-10
3.22059e-10
4.70592e-14
2.81069e-09
-5.13198e-19
4.71503e-14
-6.16281e-18
7.60155e-18
-7.17207e-18
2.11606e-18
-7.27593e-18
2.2518e-19
-7.04731e-18
-9.58508e-19
-6.65548e-18
-1.83591e-18
-6.15707e-18
-2.54535e-18
-5.57586e-18
-3.1365e-18
-4.92701e-18
-3.62538e-18
-4.22481e-18
-4.01472e-18
-3.48479e-18
-4.30286e-18
-2.72376e-18
-4.48808e-18
-1.95931e-18
-4.57066e-18
-1.20886e-18
-4.55371e-18
-4.88643e-19
-4.44352e-18
1.87169e-19
-4.24925e-18
8.0674e-19
-3.98225e-18
1.3609e-18
-3.6553e-18
1.8434e-18
-3.28188e-18
2.25093e-18
-2.87551e-18
2.58267e-18
-2.44911e-18
2.83993e-18
-2.01443e-18
3.02564e-18
-1.58173e-18
3.14401e-18
-1.15956e-18
3.20007e-18
-7.54757e-19
3.19928e-18
-3.72452e-19
3.14731e-18
-1.62697e-20
3.04979e-18
3.11488e-19
2.91226e-18
6.09597e-19
2.74004e-18
8.77687e-19
2.53812e-18
1.11604e-18
2.31106e-18
1.3254e-18
2.06298e-18
1.50686e-18
1.79752e-18
1.66169e-18
1.51788e-18
1.79125e-18
1.22692e-18
1.89687e-18
9.27187e-19
1.97977e-18
6.21055e-19
2.04101e-18
3.1074e-19
2.0814e-18
2.1015e-18
-1.33898e-10
1.25399e-09
-3.07957e-10
1.27983e-09
-5.42087e-10
1.33325e-09
-8.17292e-10
1.41845e-09
-1.03961e-09
1.59054e-09
-1.35881e-09
1.80446e-09
-1.58294e-09
1.82796e-09
-1.60794e-09
1.87534e-09
-1.64834e-09
1.78782e-09
-1.71541e-09
1.56311e-09
-1.44812e-09
1.11791e-09
-1.30233e-09
9.17352e-10
-1.23211e-09
6.14227e-10
-1.39521e-09
3.29947e-10
-1.59265e-09
-6.87198e-11
-1.60168e-09
-3.35368e-10
-1.55111e-09
-5.88592e-10
-1.57064e-09
-6.61294e-10
-1.47618e-09
-8.10991e-10
-1.40494e-09
-9.48435e-10
-1.27927e-09
-9.98684e-10
-1.07464e-09
-1.44701e-09
-9.00342e-10
-1.65696e-09
-6.93494e-10
-2.1936e-09
-4.25339e-10
-2.38756e-09
-1.51785e-10
-2.46652e-09
7.10121e-11
-2.4819e-09
2.55141e-10
-2.38788e-09
3.94132e-10
-2.27865e-09
5.57043e-10
-2.18775e-09
6.76965e-10
-2.30512e-09
9.30415e-10
-2.46533e-09
1.18062e-09
-2.38808e-09
1.39188e-09
-2.10202e-09
1.58885e-09
-1.82215e-09
1.70395e-09
-1.23466e-09
1.64722e-09
-2.90685e-10
1.42999e-09
5.77319e-10
1.28423e-09
9.05966e-10
1.21524e-09
1.02603e-09
1.13442e-09
1.03685e-09
1.08309e-09
9.80133e-10
1.02343e-09
7.65937e-10
9.2904e-10
7.36716e-10
8.53075e-10
7.59119e-10
8.30099e-10
8.09752e-10
8.97479e-10
7.01684e-10
1.01841e-09
5.80456e-10
1.20133e-09
3.28361e-10
1.34082e-09
5.08054e-11
1.51116e-09
-2.9978e-10
1.70762e-09
-6.55796e-10
1.85566e-09
-9.35929e-10
1.92393e-09
-1.26242e-09
1.89997e-09
-1.39001e-09
1.86973e-09
-1.40247e-09
1.75629e-09
-1.30835e-09
1.72165e-09
-1.28631e-09
1.71167e-09
-9.92897e-10
1.49213e-09
-7.47485e-10
1.52733e-09
-7.20184e-10
1.52702e-09
-4.14434e-10
1.46502e-09
-1.87557e-10
1.42097e-09
7.88538e-11
1.2695e-09
2.92663e-10
1.31235e-09
3.39784e-10
1.29042e-09
6.97843e-10
1.23785e-09
8.23125e-10
1.13866e-09
1.00768e-09
1.09604e-09
1.16525e-09
9.84227e-10
1.39609e-09
8.48825e-10
1.55279e-09
7.96646e-10
1.60158e-09
6.70629e-10
1.70659e-09
5.21155e-10
1.81404e-09
4.32925e-10
1.72516e-09
4.01932e-10
1.50583e-09
4.4095e-10
8.57395e-10
3.14057e-10
4.48952e-10
9.37083e-11
3.03104e-09
-9.73334e-18
9.37555e-11
-1.00781e-17
6.98913e-18
-9.06234e-18
1.10065e-18
-8.45939e-18
-3.77512e-19
-7.92472e-18
-1.49275e-18
-7.36491e-18
-2.39531e-18
-6.74822e-18
-3.16177e-18
-6.06474e-18
-3.81991e-18
-5.31635e-18
-4.37392e-18
-4.51295e-18
-4.81847e-18
-3.67002e-18
-5.14632e-18
-2.80634e-18
-5.35227e-18
-1.94236e-18
-5.43504e-18
-1.09867e-18
-5.39785e-18
-2.94371e-19
-5.24842e-18
4.54165e-19
-4.99844e-18
1.13369e-18
-4.66253e-18
1.73432e-18
-4.25704e-18
2.24977e-18
-3.79901e-18
2.67733e-18
-3.30527e-18
3.01735e-18
-2.79165e-18
3.27263e-18
-2.27235e-18
3.4478e-18
-1.7595e-18
3.54882e-18
-1.263e-18
3.58237e-18
-7.90517e-19
3.55546e-18
-3.4759e-19
3.47506e-18
6.2107e-20
3.3479e-18
4.36487e-19
3.18035e-18
7.74736e-19
2.97839e-18
1.07701e-18
2.74748e-18
1.34416e-18
2.49252e-18
1.57755e-18
2.21781e-18
1.77881e-18
1.92708e-18
1.94977e-18
1.6235e-18
2.09224e-18
1.30982e-18
2.20798e-18
9.88422e-19
2.29855e-18
6.61442e-19
2.36528e-18
3.30846e-19
2.40922e-18
2.43107e-18
-1.31074e-10
1.38507e-09
-2.72207e-10
1.42096e-09
-4.55786e-10
1.51683e-09
-7.5262e-10
1.71528e-09
-1.01428e-09
1.8522e-09
-1.25921e-09
2.0494e-09
-1.49274e-09
2.06149e-09
-1.74682e-09
2.12942e-09
-1.65932e-09
1.70032e-09
-1.53086e-09
1.43465e-09
-1.28075e-09
8.67807e-10
-1.10426e-09
7.40864e-10
-9.51204e-10
4.61171e-10
-9.60752e-10
3.39496e-10
-1.15548e-09
1.26011e-10
-1.22725e-09
-2.63595e-10
-1.22858e-09
-5.87266e-10
-1.30732e-09
-5.82552e-10
-1.21518e-09
-9.03131e-10
-1.17196e-09
-9.91657e-10
-1.02986e-09
-1.14078e-09
-9.01215e-10
-1.57566e-09
-6.22012e-10
-1.93617e-09
-4.18979e-10
-2.39664e-09
-1.55561e-10
-2.65098e-09
7.23748e-11
-2.69446e-09
2.51785e-10
-2.66131e-09
4.01905e-10
-2.538e-09
5.10792e-10
-2.38754e-09
6.35855e-10
-2.31281e-09
7.44915e-10
-2.41418e-09
8.83484e-10
-2.6039e-09
1.04032e-09
-2.54492e-09
1.19072e-09
-2.25242e-09
1.24232e-09
-1.87375e-09
1.43011e-09
-1.42245e-09
1.17355e-09
-3.4128e-11
1.09242e-09
6.58449e-10
1.13133e-09
8.67052e-10
1.09977e-09
1.05759e-09
1.0576e-09
1.07903e-09
1.04631e-09
9.91419e-10
9.7333e-10
8.38915e-10
8.96015e-10
8.1403e-10
8.51086e-10
8.04048e-10
8.76105e-10
7.84732e-10
9.84e-10
5.93789e-10
1.11173e-09
4.5273e-10
1.25417e-09
1.85918e-10
1.42833e-09
-1.23357e-10
1.60534e-09
-4.76795e-10
1.80839e-09
-8.58847e-10
1.97034e-09
-1.09788e-09
2.00745e-09
-1.29953e-09
1.95261e-09
-1.33517e-09
1.93174e-09
-1.3816e-09
1.89097e-09
-1.26758e-09
1.65821e-09
-1.05356e-09
1.5222e-09
-8.56882e-10
1.40207e-09
-6.27359e-10
1.31802e-09
-6.36134e-10
1.29816e-09
-3.94578e-10
1.27769e-09
-1.6709e-10
1.21899e-09
1.37558e-10
1.09877e-09
4.12885e-10
9.08251e-10
5.30301e-10
6.98366e-10
9.07728e-10
7.41121e-10
7.80371e-10
7.52183e-10
9.96618e-10
7.02154e-10
1.21528e-09
6.44686e-10
1.45356e-09
6.12964e-10
1.58451e-09
5.38594e-10
1.67595e-09
4.35628e-10
1.80956e-09
3.7209e-10
1.87758e-09
3.30198e-10
1.76705e-09
3.24482e-10
1.51155e-09
2.14417e-10
9.67461e-10
8.41918e-12
6.54949e-10
2.98096e-10
2.74136e-09
2.54299e-17
3.91852e-10
-1.1987e-17
2.10143e-18
-1.054e-17
-3.46196e-19
-9.57451e-18
-1.3428e-18
-8.82727e-18
-2.2396e-18
-8.13137e-18
-3.0909e-18
-7.40636e-18
-3.88664e-18
-6.61875e-18
-4.60762e-18
-5.7609e-18
-5.23204e-18
-4.8408e-18
-5.73907e-18
-3.87597e-18
-6.1119e-18
-2.88911e-18
-6.33988e-18
-1.90517e-18
-6.41951e-18
-9.4924e-19
-6.35424e-18
-4.43901e-20
-6.15385e-18
7.90075e-19
-5.8335e-18
1.53918e-18
-5.41216e-18
2.19235e-18
-4.9109e-18
2.74351e-18
-4.35135e-18
3.19095e-18
-3.75447e-18
3.53666e-18
-3.13957e-18
3.78548e-18
-2.52364e-18
3.9443e-18
-1.92083e-18
4.0213e-18
-1.34238e-18
4.0253e-18
-7.96647e-19
3.96516e-18
-2.89357e-19
3.84944e-18
1.76028e-19
3.68615e-18
5.97921e-19
3.48262e-18
9.76189e-19
3.24555e-18
1.31177e-18
2.98086e-18
1.60634e-18
2.69378e-18