0 	-15.2177
0.010101 	-9.60474
0.020202 	-9.61512
0.030303 	-9.71324
0.040404 	-9.6165
0.0505051 	-9.60481
0.0606061 	-9.60421
0.0707071 	-9.60417
0.0808081 	-9.60417
0.0909091 	-9.60417
