0 	3.62956e-21 	0 	1.36108e-20
0.010101 	2.52974e-21 	-2.96124e-23 	1.0784e-20
0.020202 	9.74848e-21 	-2.12911e-26 	-1.43868e-20
0.030303 	-5.64635e-21 	4.22425e-24 	3.14132e-21
0.040404 	5.29786e-21 	2.11639e-23 	3.51232e-21
0.0505051 	2.08814e-21 	1.69183e-23 	-1.26971e-20
