0.010101 	8.36323e-09 	1.06136e-13 	3.70775e-11
0.020202 	9.06049e-10 	-2.06717e-13 	1.32742e-11
