0.010101 	-5.78648e-13 	6.07487e-16 	-5.92603e-15
0.020202 	-1.8604e-14 	5.234e-17 	-3.54853e-16
