/*--------------------------------*- C++ -*----------------------------------*\
  =========                 |
  \\      /  F ield         | OpenFOAM: The Open Source CFD Toolbox
   \\    /   O peration     | Website:  https://openfoam.org
    \\  /    A nd           | Version:  6
     \\/     M anipulation  |
\*---------------------------------------------------------------------------*/
FoamFile
{
    version     2.0;
    format      ascii;
    class       volScalarField;
    location    "4300";
    object      dmdt;
}
// * * * * * * * * * * * * * * * * * * * * * * * * * * * * * * * * * * * * * //

dimensions      [0 0 0 0 0 0 0];

internalField   nonuniform List<scalar> 
4800
(
-0.217371
-0.210941
-0.204544
-0.198199
-0.191935
-0.185776
-0.179746
-0.17388
-0.168253
-0.162936
-0.157956
-0.15333
-0.149056
-0.145117
-0.141491
-0.138159
-0.135096
-0.132281
-0.129687
-0.127287
-0.125054
-0.12296
-0.12098
-0.119096
-0.117289
-0.115544
-0.113844
-0.112174
-0.110518
-0.108864
-0.107206
-0.10553
-0.103827
-0.10209
-0.100315
-0.0985
-0.096646
-0.0947579
-0.0928436
-0.0909095
-0.0889598
-0.0869982
-0.0850242
-0.083036
-0.081032
-0.0790081
-0.0769599
-0.0748848
-0.0727822
-0.0706528
-0.0684952
-0.0663079
-0.0640899
-0.0618392
-0.0595531
-0.0572276
-0.0548521
-0.0524171
-0.049918
-0.0473521
-0.0447227
-0.0420411
-0.039325
-0.0365933
-0.0338703
-0.0311821
-0.0285506
-0.0259955
-0.0235324
-0.0211518
-0.0188395
-0.0165854
-0.0143672
-0.0121639
-0.00995219
-0.00770512
-0.00540202
-0.00303658
-0.000604835
0.00194579
0.00455147
0.00697673
0.00954623
0.0121401
0.0147478
0.0173694
0.0200043
0.0226515
0.0253096
0.0279774
0.0306535
0.0333368
0.0360259
0.03872
0.041418
0.044119
0.0468223
0.0495272
0.0522332
0.0549397
0.0576465
0.0603531
0.0630594
0.065765
0.0684699
0.071174
0.0738772
0.0765794
0.0792807
0.0819811
0.0846806
0.0873793
0.0900772
0.0927745
0.0954711
0.0981671
0.100863
0.103558
0.106253
0.108948
-0.217363
-0.210917
-0.204506
-0.198149
-0.191868
-0.185688
-0.179659
-0.173833
-0.168256
-0.162983
-0.158051
-0.153465
-0.149216
-0.145293
-0.141676
-0.13835
-0.135294
-0.132482
-0.12989
-0.127493
-0.125263
-0.123171
-0.121197
-0.11932
-0.117521
-0.115783
-0.11409
-0.112424
-0.110772
-0.109124
-0.107472
-0.105801
-0.1041
-0.102364
-0.100591
-0.0987797
-0.0969312
-0.0950512
-0.0931452
-0.0912173
-0.0892731
-0.0873153
-0.0853421
-0.0833526
-0.0813449
-0.0793151
-0.0772599
-0.075175
-0.0730596
-0.0709137
-0.0687374
-0.0665309
-0.0642925
-0.0620207
-0.0597135
-0.0573643
-0.0549646
-0.0525066
-0.0499844
-0.0473977
-0.044748
-0.0420481
-0.0393172
-0.0365776
-0.0338558
-0.0311781
-0.0285661
-0.0260324
-0.0235839
-0.0212103
-0.0188991
-0.0166402
-0.0144165
-0.0122066
-0.00998547
-0.00772494
-0.00540486
-0.00302201
-0.000582944
0.00195701
0.00454424
0.00696102
0.00953109
0.0121268
0.0147363
0.0173595
0.0199958
0.0226443
0.0253037
0.0279727
0.0306499
0.0333341
0.0360242
0.0387191
0.0414178
0.0441194
0.0468232
0.0495285
0.0522348
0.0549416
0.0576486
0.0603553
0.0630616
0.0657672
0.0684721
0.0711762
0.0738793
0.0765814
0.0792826
0.0819828
0.0846822
0.0873807
0.0900785
0.0927756
0.095472
0.0981679
0.100863
0.103559
0.106253
0.108948
-0.217356
-0.210896
-0.204468
-0.1981
-0.191816
-0.185644
-0.179639
-0.173869
-0.168378
-0.163188
-0.15832
-0.153783
-0.149566
-0.14566
-0.142056
-0.138739
-0.135687
-0.13288
-0.130294
-0.127902
-0.125677
-0.123595
-0.121633
-0.11977
-0.117986
-0.116263
-0.114584
-0.112932
-0.111294
-0.10966
-0.108022
-0.106362
-0.104668
-0.10294
-0.101175
-0.0993716
-0.0975328
-0.0956627
-0.0937653
-0.0918448
-0.0899075
-0.0879531
-0.0859789
-0.083984
-0.0819662
-0.0799228
-0.0778507
-0.0757461
-0.073609
-0.0714381
-0.0692326
-0.0669927
-0.0647173
-0.0624079
-0.0600601
-0.0576692
-0.0552277
-0.0527296
-0.0501704
-0.0475506
-0.0448729
-0.0421471
-0.0393933
-0.0366436
-0.0339278
-0.0312689
-0.02868
-0.026165
-0.0237235
-0.0213479
-0.0190316
-0.01676
-0.0145202
-0.0122956
-0.0100651
-0.00780984
-0.00550953
-0.00314462
-0.000701728
0.0018618
0.00448128
0.00692033
0.00949965
0.0121005
0.0147137
0.0173399
0.019979
0.0226301
0.025292
0.0279633
0.0306428
0.033329
0.036021
0.0387174
0.0414175
0.0441203
0.0468251
0.0495313
0.0522382
0.0549455
0.0576528
0.0603597
0.0630661
0.0657718
0.0684766
0.0711805
0.0738835
0.0765854
0.0792863
0.0819863
0.0846854
0.0873836
0.090081
0.0927778
0.0954739
0.0981695
0.100865
0.103559
0.106254
0.108948
-0.217364
-0.210923
-0.204516
-0.198171
-0.191915
-0.185787
-0.179836
-0.174122
-0.168697
-0.163578
-0.158771
-0.154276
-0.150091
-0.146207
-0.142614
-0.139302
-0.136253
-0.133451
-0.130874
-0.128492
-0.126281
-0.124216
-0.122276
-0.120439
-0.118681
-0.116983
-0.115328
-0.113697
-0.112079
-0.110467
-0.108851
-0.107209
-0.10553
-0.103814
-0.102065
-0.100272
-0.098445
-0.0965835
-0.0946924
-0.0927757
-0.0908392
-0.0888791
-0.0868957
-0.0848871
-0.0828519
-0.0807872
-0.0786908
-0.0765619
-0.0743997
-0.0722003
-0.0699609
-0.0676806
-0.0653605
-0.0630042
-0.0606057
-0.0581623
-0.0556668
-0.0531167
-0.050509
-0.0478442
-0.0451254
-0.042365
-0.0395914
-0.0368395
-0.0341318
-0.0314866
-0.0289102
-0.0264021
-0.0239563
-0.021567
-0.019232
-0.016936
-0.014669
-0.0124156
-0.01016
-0.00789106
-0.00558875
-0.00322946
-0.000798514
0.00175755
0.00439926
0.00686632
0.00945624
0.012063
0.0146808
0.0173111
0.0199541
0.0226091
0.0252747
0.0279496
0.0306324
0.0333217
0.0360164
0.0387153
0.0414174
0.044122
0.0468283
0.0495356
0.0522435
0.0549515
0.0576592
0.0603665
0.063073
0.0657787
0.0684835
0.0711872
0.0738898
0.0765914
0.079292
0.0819915
0.0846902
0.0873879
0.0900849
0.0927811
0.0954767
0.0981718
0.100866
0.103561
0.106255
0.108949
-0.217375
-0.210959
-0.204584
-0.19827
-0.192052
-0.185983
-0.180119
-0.174502
-0.169164
-0.164123
-0.159381
-0.154934
-0.15078
-0.146912
-0.143325
-0.140014
-0.136968
-0.134173
-0.131607
-0.129243
-0.127056
-0.125019
-0.123113
-0.121311
-0.119588
-0.117924
-0.116301
-0.114701
-0.113112
-0.111528
-0.109941
-0.108327
-0.106668
-0.104966
-0.103241
-0.101459
-0.0996431
-0.0977846
-0.0958918
-0.0939676
-0.0920185
-0.0900402
-0.088036
-0.0860037
-0.0839453
-0.0818577
-0.0797385
-0.0775849
-0.0753947
-0.0731638
-0.0708885
-0.0685677
-0.0662031
-0.0637982
-0.0613448
-0.0588414
-0.0562826
-0.0536682
-0.0509988
-0.0482788
-0.0455098
-0.0427139
-0.0399254
-0.0371704
-0.0344666
-0.0318259
-0.0292511
-0.0267418
-0.0242859
-0.0218778
-0.0195159
-0.0171869
-0.0148808
-0.0125869
-0.010294
-0.00798875
-0.00565564
-0.00328046
-0.000841995
0.00171786
0.00435349
0.00681461
0.00940587
0.0120162
0.0146383
0.0172734
0.0199215
0.0225815
0.0252522
0.0279318
0.0306191
0.0333125
0.0360108
0.0387129
0.0414179
0.0441248
0.046833
0.0495418
0.0522509
0.0549598
0.0576681
0.0603758
0.0630825
0.0657881
0.0684927
0.0711961
0.0738984
0.0765995
0.0792996
0.0819986
0.0846966
0.0873937
0.09009
0.0927855
0.0954805
0.0981749
0.100869
0.103562
0.106256
0.108949
-0.217403
-0.211046
-0.204739
-0.19851
-0.19238
-0.186391
-0.180609
-0.175079
-0.169821
-0.164843
-0.16015
-0.155734
-0.151593
-0.147731
-0.144148
-0.140843
-0.137805
-0.135024
-0.132481
-0.130148
-0.127996
-0.125998
-0.124136
-0.122376
-0.120693
-0.119068
-0.117483
-0.115922
-0.114366
-0.112817
-0.111263
-0.109683
-0.108044
-0.106361
-0.104661
-0.102888
-0.101078
-0.0992148
-0.097308
-0.0953626
-0.0933867
-0.0913788
-0.0893434
-0.0872807
-0.0851932
-0.0830793
-0.0809365
-0.0787606
-0.076547
-0.0742892
-0.0719822
-0.069625
-0.0672184
-0.0647658
-0.0622589
-0.0596959
-0.0570689
-0.0543799
-0.051638
-0.0488504
-0.0460222
-0.0431917
-0.0403893
-0.0376296
-0.0349246
-0.032279
-0.0296943
-0.0271731
-0.0247037
-0.0222759
-0.0198808
-0.0175102
-0.015156
-0.0128082
-0.0104606
-0.00810512
-0.00572979
-0.00332536
-0.000874477
0.00168134
0.00430444
0.00675716
0.00934687
0.0119596
0.0145862
0.017227
0.0198813
0.0225478
0.0252247
0.0279105
0.0306034
0.0333019
0.0360048
0.0387109
0.0414193
0.0441291
0.0468396
0.0495503
0.0522608
0.0549707
0.0576797
0.0603877
0.0630946
0.0658002
0.0685045
0.0712075
0.0739092
0.0766098
0.0793091
0.0820074
0.0847046
0.0874009
0.0900964
0.0927911
0.0954852
0.0981787
0.100872
0.103565
0.106257
0.108949
-0.217444
-0.211164
-0.204927
-0.198771
-0.192736
-0.186866
-0.181196
-0.17576
-0.170577
-0.165657
-0.161011
-0.156633
-0.152519
-0.148668
-0.145094
-0.141803
-0.138782
-0.136029
-0.133524
-0.131235
-0.129126
-0.127176
-0.125361
-0.123646
-0.122001
-0.120414
-0.11887
-0.11735
-0.11583
-0.114315
-0.112793
-0.111245
-0.10962
-0.107957
-0.106274
-0.104502
-0.102689
-0.100811
-0.0988772
-0.0968985
-0.0948844
-0.0928377
-0.0907621
-0.0886614
-0.08654
-0.0843984
-0.0822333
-0.0800382
-0.0778061
-0.0755288
-0.0731979
-0.0708115
-0.068371
-0.0658778
-0.0633204
-0.0606956
-0.0579989
-0.0552338
-0.0524127
-0.0495506
-0.0466637
-0.0437959
-0.0409687
-0.0381946
-0.0354823
-0.0328311
-0.0302379
-0.0276995
-0.0252088
-0.0227558
-0.0203233
-0.0179057
-0.0154969
-0.01309
-0.010683
-0.00827132
-0.00585015
-0.00341252
-0.000943815
0.00161458
0.00423592
0.00668647
0.00927589
0.0118917
0.0145239
0.0171717
0.0198337
0.0225081
0.0251929
0.0278861
0.0305858
0.0332906
0.035999
0.0387099
0.0414223
0.0441354
0.0468487
0.0495615
0.0522736
0.0549846
0.0576943
0.0604027
0.0631096
0.065815
0.0685189
0.0712214
0.0739225
0.0766222
0.0793207
0.082018
0.0847143
0.0874096
0.0901041
0.0927978
0.0954909
0.0981834
0.100875
0.103567
0.106259
0.10895
-0.217499
-0.211334
-0.205223
-0.199196
-0.193276
-0.187504
-0.181924
-0.176573
-0.171469
-0.166612
-0.162006
-0.157651
-0.153558
-0.149731
-0.146183
-0.142919
-0.139934
-0.137225
-0.134772
-0.132532
-0.130473
-0.128576
-0.126809
-0.125139
-0.123532
-0.121985
-0.120481
-0.118995
-0.117503
-0.116015
-0.114514
-0.112984
-0.111371
-0.109726
-0.108038
-0.106257
-0.104426
-0.102518
-0.100545
-0.0985231
-0.0964619
-0.0943671
-0.0922434
-0.0901005
-0.087945
-0.0857773
-0.0835937
-0.0813841
-0.0791378
-0.0768461
-0.0744964
-0.0720872
-0.0696199
-0.0670917
-0.0644881
-0.0618027
-0.0590316
-0.056183
-0.0532806
-0.0503493
-0.0474114
-0.0445104
-0.0416605
-0.0388698
-0.0361425
-0.0334776
-0.0308724
-0.0283159
-0.0257987
-0.0233124
-0.0208396
-0.0183728
-0.0159031
-0.0134295
-0.0109543
-0.00847891
-0.00600573
-0.00352902
-0.00103558
0.00153101
0.00415091
0.00659949
0.00919011
0.0118108
0.0144505
0.0171071
0.0197788
0.022463
0.0251573
0.0278594
0.0305673
0.0332794
0.0359942
0.0387106
0.0414276
0.0441445
0.0468608
0.0495759
0.0522897
0.0550018
0.0577122
0.0604209
0.0631277
0.0658328
0.0685362
0.0712379
0.0739382
0.0766369
0.0793344
0.0820306
0.0847257
0.0874199
0.0901131
0.0928056
0.0954975
0.0981888
0.10088
0.10357
0.10626
0.10895
-0.217567
-0.211536
-0.205553
-0.199649
-0.193853
-0.188208
-0.182748
-0.177497
-0.172469
-0.167676
-0.16312
-0.158805
-0.154741
-0.150946
-0.147436
-0.144213
-0.141278
-0.138624
-0.13623
-0.134045
-0.132045
-0.130203
-0.128483
-0.126855
-0.125289
-0.123779
-0.122307
-0.120846
-0.119372
-0.117901
-0.116411
-0.114883
-0.11328
-0.111633
-0.109917
-0.108114
-0.106242
-0.104288
-0.102264
-0.100181
-0.0980581
-0.0959035
-0.0937232
-0.0915312
-0.0893368
-0.0871426
-0.0849426
-0.082722
-0.0804668
-0.0781707
-0.0758147
-0.0733969
-0.0709169
-0.0683647
-0.0657216
-0.0629771
-0.060129
-0.0571964
-0.0542183
-0.0512261
-0.0482426
-0.0453045
-0.0424231
-0.0396084
-0.0368667
-0.0341934
-0.03158
-0.0290102
-0.0264707
-0.0239479
-0.0214276
-0.0189044
-0.01637
-0.013826
-0.0112756
-0.00872661
-0.00618917
-0.00366663
-0.00114914
0.00142285
0.00404084
0.00649133
0.00908631
0.0117149
0.0143648
0.017033
0.0197167
0.0224128
0.0251185
0.0278312
0.0305487
0.0332693
0.0359914
0.038714
0.0414361
0.0441571
0.0468766
0.0495942
0.0523096
0.0550229
0.0577339
0.0604427
0.0631493
0.0658538
0.0685565
0.0712573
0.0739564
0.076654
0.0793501
0.082045
0.0847388
0.0874316
0.0901234
0.0928146
0.095505
0.0981949
0.100884
0.103574
0.106262
0.108951
-0.217642
-0.211763
-0.205931
-0.200178
-0.194533
-0.189026
-0.183685
-0.178536
-0.173592
-0.168866
-0.164364
-0.160097
-0.156075
-0.152322
-0.148855
-0.145683
-0.142808
-0.140219
-0.137892
-0.135768
-0.133827
-0.132037
-0.13036
-0.128771
-0.127242
-0.12576
-0.124308
-0.122865
-0.121403
-0.119941
-0.118447
-0.116909
-0.11531
-0.113643
-0.111892
-0.110046
-0.108113
-0.106092
-0.103992
-0.101826
-0.0996224
-0.0973901
-0.0951374
-0.0928832
-0.0906423
-0.0884186
-0.0862029
-0.0839734
-0.0817082
-0.0794052
-0.0770371
-0.0746057
-0.0721091
-0.0695305
-0.0668533
-0.0640713
-0.0611885
-0.0582216
-0.0552004
-0.0521587
-0.049128
-0.0461499
-0.0432436
-0.040416
-0.0376647
-0.0349803
-0.0323526
-0.0297646
-0.0272006
-0.0246422
-0.0220752
-0.0194956
-0.0168978
-0.0142818
-0.0116549
-0.00903433
-0.00643621
-0.00386531
-0.00131401
0.00127306
0.00389693
0.0063566
0.00896113
0.011602
0.0142658
0.016949
0.0196477
0.0223584
0.0250776
0.0278027
0.0305313
0.0332615
0.0359918
0.0387212
0.0414488
0.0441743
0.046897
0.049617
0.0523341
0.0550483
0.0577597
0.0604684
0.0631745
0.0658783
0.0685799
0.0712795
0.0739773
0.0766734
0.0793681
0.0820614
0.0847536
0.0874448
0.0901351
0.0928246
0.0955135
0.0982018
0.10089
0.103577
0.106265
0.108952
-0.217723
-0.212004
-0.206338
-0.200751
-0.195263
-0.189897
-0.184681
-0.179636
-0.174781
-0.170131
-0.165696
-0.161491
-0.157529
-0.153835
-0.150433
-0.147329
-0.144521
-0.142
-0.139743
-0.137671
-0.135781
-0.134032
-0.132393
-0.130839
-0.129336
-0.127874
-0.126435
-0.125001
-0.123545
-0.122082
-0.120577
-0.119027
-0.117414
-0.115715
-0.11392
-0.112016
-0.110009
-0.107902
-0.105706
-0.103439
-0.101137
-0.0988069
-0.0964645
-0.0941334
-0.0918354
-0.0895777
-0.0873447
-0.085101
-0.0828138
-0.0804854
-0.0780919
-0.0756413
-0.0731268
-0.0705282
-0.0678324
-0.0650341
-0.0621333
-0.0591487
-0.0561145
-0.0530528
-0.0499958
-0.0469964
-0.0440798
-0.041247
-0.0384911
-0.0358014
-0.033165
-0.0305643
-0.0279809
-0.0253915
-0.0227812
-0.0201466
-0.0174835
-0.0147954
-0.0120952
-0.00940059
-0.00672941
-0.00409867
-0.00151303
0.00108233
0.00371137
0.00619013
0.00881135
0.0114702
0.014153
0.0168553
0.0195725
0.0223007
0.025036
0.0277754
0.0305165
0.0332574
0.0359967
0.0387335
0.041467
0.0441969
0.046923
0.0496452
0.0523637
0.0550786
0.0577901
0.0604983
0.0632037
0.0659064
0.0686066
0.0713047
0.0740009
0.0766953
0.0793882
0.0820797
0.0847701
0.0874595
0.090148
0.0928357
0.0955228
0.0982095
0.100896
0.103582
0.106267
0.108953
-0.217813
-0.212275
-0.206785
-0.201361
-0.196024
-0.190798
-0.185708
-0.180776
-0.176018
-0.171453
-0.167102
-0.162984
-0.159108
-0.155493
-0.152164
-0.149125
-0.146377
-0.143918
-0.141725
-0.139699
-0.137861
-0.13615
-0.134543
-0.133014
-0.131529
-0.130079
-0.128645
-0.127214
-0.125756
-0.124283
-0.122755
-0.121182
-0.11954
-0.117804
-0.115954
-0.113979
-0.111884
-0.109677
-0.107376
-0.105
-0.102584
-0.100139
-0.0976897
-0.0952655
-0.092898
-0.0906022
-0.0883413
-0.0860614
-0.0837323
-0.0813627
-0.0789354
-0.0764583
-0.0739228
-0.0713097
-0.0686055
-0.065802
-0.062899
-0.0599174
-0.05688
-0.0538094
-0.0507594
-0.0477798
-0.044885
-0.0420702
-0.0393268
-0.0366451
-0.0340093
-0.0313989
-0.0287972
-0.0261808
-0.0235348
-0.0208556
-0.0181421
-0.0153992
-0.0126382
-0.00987532
-0.00712907
-0.00442765
-0.00178785
0.000832649
0.00346383
0.00598637
0.00863434
0.0113182
0.0140259
0.0167523
0.0194923
0.0222414
0.0249954
0.0277511
0.0305063
0.0332589
0.0360079
0.0387524
0.0414919
0.0442262
0.0469554
0.0496797
0.0523993
0.0551144
0.0578255
0.060533
0.0632371
0.0659383
0.0686369
0.0713331
0.0740273
0.0767197
0.0794105
0.0821
0.0847883
0.0874756
0.0901621
0.0928479
0.0955331
0.0982178
0.100902
0.103586
0.10627
0.108954
-0.217908
-0.212558
-0.207246
-0.201989
-0.196806
-0.19172
-0.186756
-0.181943
-0.177311
-0.172874
-0.168635
-0.164606
-0.160809
-0.15727
-0.154016
-0.151052
-0.148379
-0.14598
-0.143827
-0.14184
-0.140045
-0.138356
-0.13677
-0.135256
-0.133786
-0.132339
-0.130902
-0.129463
-0.127993
-0.126496
-0.124942
-0.12334
-0.121662
-0.119879
-0.117962
-0.115904
-0.113711
-0.111396
-0.108981
-0.106486
-0.103947
-0.101376
-0.0988089
-0.0962825
-0.0938374
-0.091495
-0.0891829
-0.0868361
-0.0844402
-0.0820139
-0.0795434
-0.0770331
-0.0744736
-0.0718488
-0.069147
-0.0663569
-0.0634755
-0.0605149
-0.0574909
-0.0544463
-0.0514436
-0.0485139
-0.045661
-0.0428774
-0.0401571
-0.0374911
-0.0348617
-0.0322494
-0.0296376
-0.0270022
-0.0243332
-0.0216287
-0.0188871
-0.0161086
-0.0132968
-0.0104641
-0.00763648
-0.00485128
-0.0021234
0.000656627
0.00291635
0.0057458
0.00842927
0.0111453
0.0138848
0.0166413
0.0194089
0.0221825
0.024958
0.0277322
0.0305028
0.0332682
0.0360273
0.0387796
0.041525
0.0442636
0.0469955
0.0497213
0.0524414
0.0551563
0.0578666
0.0605727
0.0632751
0.0659743
0.0686707
0.0713647
0.0740565
0.0767465
0.079435
0.0821221
0.0848082
0.0874932
0.0901775
0.0928611
0.0955442
0.0982268
0.100909
0.103591
0.106273
0.108955
-0.218005
-0.212844
-0.207716
-0.202644
-0.197642
-0.192724
-0.187914
-0.183243
-0.178732
-0.174394
-0.17025
-0.166314
-0.162607
-0.159151
-0.155969
-0.153067
-0.150452
-0.148104
-0.145991
-0.14405
-0.142287
-0.140611
-0.139039
-0.137536
-0.136072
-0.13462
-0.133174
-0.131715
-0.130225
-0.128694
-0.127109
-0.125465
-0.123737
-0.121892
-0.119899
-0.117751
-0.115453
-0.113024
-0.11049
-0.107872
-0.105204
-0.102505
-0.0998166
-0.0971916
-0.0946706
-0.0922632
-0.0898687
-0.0874309
-0.084953
-0.0824581
-0.079937
-0.077391
-0.074805
-0.0721679
-0.0694702
-0.066702
-0.0638593
-0.0609516
-0.0579981
-0.0550353
-0.0521005
-0.0492178
-0.046402
-0.0436537
-0.0409657
-0.0383249
-0.0357119
-0.0331064
-0.0304906
-0.0278447
-0.025162
-0.0224395
-0.0196738
-0.0168645
-0.0140182
-0.0111459
-0.00826548
-0.00540356
-0.00258919
0.000180281
0.0030606
0.00535536
0.00819734
0.0109512
0.0137311
0.0165246
0.019325
0.0221271
0.024927
0.0277215
0.0305088
0.0332876
0.0360571
0.0388172
0.0415682
0.0443104
0.0470444
0.0497711
0.052491
0.055205
0.0579137
0.0606177
0.0633179
0.0660145
0.0687083
0.0713995
0.0740886
0.0767759
0.0794616
0.0821461
0.0848296
0.0875122
0.090194
0.0928753
0.095556
0.0982364
0.100916
0.103596
0.106276
0.108956
-0.21811
-0.213157
-0.208229
-0.20334
-0.198508
-0.193754
-0.189102
-0.184574
-0.180186
-0.175963
-0.171922
-0.168081
-0.164465
-0.161102
-0.158007
-0.155179
-0.152625
-0.150315
-0.148222
-0.146313
-0.144566
-0.142903
-0.141334
-0.13983
-0.138361
-0.136898
-0.135433
-0.133948
-0.132428
-0.130857
-0.129228
-0.127528
-0.125738
-0.123818
-0.121739
-0.11949
-0.117081
-0.114538
-0.111886
-0.109144
-0.106347
-0.103518
-0.100717
-0.0980043
-0.095412
-0.0929246
-0.0904273
-0.0878838
-0.0853231
-0.0827592
-0.0801803
-0.0775873
-0.0749698
-0.0723227
-0.0696284
-0.0668717
-0.0640613
-0.0612101
-0.0583305
-0.0554527
-0.0526074
-0.0498113
-0.0470662
-0.0443742
-0.041734
-0.0391325
-0.0365481
-0.0339602
-0.0313498
-0.0287024
-0.0260127
-0.0232815
-0.0205045
-0.0176834
-0.0148255
-0.011939
-0.00903542
-0.00612672
-0.00323182
-0.000374305
0.00250172
0.00530073
0.00792993
0.0107352
0.0135674
0.016406
0.0192447
0.0220792
0.0249061
0.0277227
0.0305276
0.0333201
0.0360998
0.0388673
0.0416231
0.0443681
0.0471034
0.0498299
0.0525488
0.0552609
0.0579671
0.0606685
0.0633655
0.066059
0.0687495
0.0714375
0.0741234
0.0768076
0.0794903
0.0821719
0.0848525
0.0875324
0.0902116
0.0928903
0.0955686
0.0982466
0.100924
0.103602
0.106279
0.108957
-0.218215
-0.213468
-0.208735
-0.204028
-0.199366
-0.194774
-0.190277
-0.185892
-0.181638
-0.177536
-0.173604
-0.169868
-0.166356
-0.163089
-0.160073
-0.157314
-0.154816
-0.152548
-0.150483
-0.148599
-0.146854
-0.145197
-0.143624
-0.142112
-0.140629
-0.139149
-0.137661
-0.136146
-0.134588
-0.132969
-0.131289
-0.129529
-0.127668
-0.125663
-0.12348
-0.121116
-0.118589
-0.115929
-0.113156
-0.110292
-0.107372
-0.104427
-0.101534
-0.0987494
-0.0960912
-0.0935213
-0.0909209
-0.0882693
-0.085606
-0.0829484
-0.0803012
-0.07766
-0.0750097
-0.0723422
-0.0696494
-0.0669224
-0.064161
-0.0613695
-0.0585653
-0.0557773
-0.0530238
-0.0503126
-0.0476474
-0.0450305
-0.0424535
-0.0399008
-0.037352
-0.0347883
-0.0321947
-0.0295603
-0.026877
-0.0241458
-0.0213636
-0.0185346
-0.0156636
-0.0127577
-0.00982973
-0.00689129
-0.00395206
-0.00102163
0.00193635
0.00487708
0.00762008
0.0105052
0.0134008
0.0162915
0.0191736
0.022044
0.0249001
0.02774
0.0305631
0.033369
0.0361585
0.0389323
0.0416919
0.0444385
0.0471737
0.0498989
0.0526154
0.0553245
0.0580274
0.060725
0.0634183
0.0661079
0.0687946
0.0714788
0.074161
0.0768416
0.079521
0.0821993
0.0848768
0.0875537
0.0902301
0.0929061
0.0955818
0.0982573
0.100933
0.103608
0.106283
0.108958
-0.218317
-0.21377
-0.209228
-0.204703
-0.200215
-0.195788
-0.191443
-0.1872
-0.183076
-0.179095
-0.175284
-0.171665
-0.168267
-0.165099
-0.162165
-0.159469
-0.157014
-0.154777
-0.152733
-0.150861
-0.149121
-0.147467
-0.14589
-0.144364
-0.14286
-0.141358
-0.139839
-0.138284
-0.136677
-0.135007
-0.133269
-0.131438
-0.129492
-0.127391
-0.125099
-0.122619
-0.119973
-0.117193
-0.114302
-0.111319
-0.108285
-0.105248
-0.102286
-0.0994434
-0.0967263
-0.094075
-0.0913705
-0.0886072
-0.0858353
-0.0830785
-0.0803485
-0.0776431
-0.0749561
-0.0722716
-0.0695788
-0.0668738
-0.0641587
-0.0614409
-0.0587276
-0.0560373
-0.0533818
-0.0507642
-0.0481867
-0.0456476
-0.043136
-0.0406356
-0.0381263
-0.0355911
-0.0330197
-0.0304036
-0.0277356
-0.025016
-0.0222383
-0.0194019
-0.0165125
-0.0135802
-0.0106165
-0.00763471
-0.00464679
-0.00165188
0.00138379
0.0044425
0.00730613
0.0102767
0.0132413
0.0161892
0.0191187
0.0220277
0.0249147
0.0277786
0.0306195
0.0334382
0.0362361
0.0390148
0.0417765
0.044523
0.0472565
0.0499787
0.0526915
0.0553964
0.0580947
0.0607876
0.0634761
0.0661611
0.0688432
0.071523
0.0742011
0.0768778
0.0795534
0.0822282
0.0849024
0.0875761
0.0902494
0.0929226
0.0955955
0.0982684
0.100941
0.103614
0.106286
0.108959
-0.218416
-0.214064
-0.209709
-0.205363
-0.201043
-0.196773
-0.192576
-0.188474
-0.184485
-0.180635
-0.176949
-0.173449
-0.170158
-0.167083
-0.164227
-0.161593
-0.15918
-0.156973
-0.15495
-0.153089
-0.151349
-0.149692
-0.148106
-0.146561
-0.145031
-0.143496
-0.141939
-0.140338
-0.138677
-0.136946
-0.135137
-0.133232
-0.131203
-0.128999
-0.126592
-0.123993
-0.121232
-0.118339
-0.115333
-0.112242
-0.109113
-0.106005
-0.102993
-0.100113
-0.0973472
-0.0946206
-0.0918197
-0.0889497
-0.0860702
-0.0832078
-0.080382
-0.0776017
-0.0748609
-0.0721498
-0.0694635
-0.0667949
-0.0641376
-0.0614928
-0.0588665
-0.0562693
-0.0537095
-0.0511878
-0.0486995
-0.0462384
-0.0437913
-0.0413411
-0.0388706
-0.0363689
-0.0338274
-0.0312362
-0.0285866
-0.0258762
-0.0231013
-0.0202599
-0.0173521
-0.0143844
-0.0113717
-0.00833011
-0.00526935
-0.00219906
0.000894707
0.00404108
0.0070096
0.0100635
0.0130995
0.0161082
0.0190881
0.0220378
0.0249565
0.0278442
0.030702
0.0335319
0.0363362
0.0391176
0.041879
0.0446233
0.0473529
0.0500703
0.0527777
0.0554767
0.0581691
0.0608561
0.0635389
0.0662183
0.0688952
0.0715701
0.0742435
0.0769158
0.0795874
0.0822583
0.0849289
0.0875993
0.0902694
0.0929396
0.0956097
0.0982798
0.10095
0.10362
0.10629
0.10896
-0.218507
-0.214334
-0.210154
-0.205974
-0.201813
-0.197696
-0.193647
-0.189691
-0.185845
-0.182132
-0.178574
-0.175193
-0.172007
-0.169021
-0.166236
-0.16366
-0.161293
-0.159119
-0.157117
-0.155262
-0.153519
-0.151858
-0.150261
-0.148694
-0.147137
-0.145571
-0.143973
-0.142324
-0.140613
-0.138831
-0.136964
-0.134984
-0.132851
-0.13052
-0.127982
-0.125257
-0.122383
-0.119385
-0.11628
-0.113107
-0.109925
-0.106789
-0.103751
-0.100832
-0.0980094
-0.095212
-0.0923234
-0.0893486
-0.0863574
-0.0833867
-0.0804642
-0.0776051
-0.0748108
-0.072074
-0.0693863
-0.0667392
-0.0641292
-0.061549
-0.0590042
-0.0565026
-0.0540388
-0.051607
-0.0492014
-0.0468107
-0.0444207
-0.0420166
-0.0395852
-0.0371188
-0.0346077
-0.0320407
-0.0294116
-0.0267164
-0.0239455
-0.0210915
-0.0181574
-0.0151508
-0.0120862
-0.00898328
-0.00585505
-0.0027159
0.000437975
0.00367113
0.00673798
0.00987468
0.0129849
0.0160577
0.0190907
0.0220825
0.0250331
0.0279435
0.0308162
0.0336546
0.0364623
0.0392434
0.0420016
0.0447407
0.047464
0.0501742
0.0528741
0.0555655
0.0582505
0.0609304
0.0636063
0.0662794
0.0689503
0.0716196
0.0742879
0.0769555
0.0796226
0.0822895
0.0849562
0.087623
0.0902899
0.0929569
0.0956241
0.0982914
0.100959
0.103626
0.106294
0.108962
-0.218588
-0.214575
-0.21055
-0.206523
-0.202513
-0.198543
-0.194638
-0.190822
-0.187116
-0.18354
-0.180114
-0.176853
-0.173771
-0.170873
-0.168165
-0.165657
-0.16334
-0.161201
-0.15922
-0.157368
-0.155622
-0.153954
-0.152338
-0.150747
-0.149161
-0.147559
-0.145924
-0.144236
-0.142482
-0.140644
-0.138705
-0.136634
-0.134392
-0.131942
-0.129277
-0.126431
-0.123459
-0.120369
-0.117181
-0.113952
-0.110736
-0.107581
-0.104529
-0.101591
-0.0987375
-0.0958884
-0.0929173
-0.0898315
-0.0867245
-0.0836496
-0.0806343
-0.0776954
-0.0748449
-0.0720802
-0.0693916
-0.0667645
-0.0641944
-0.0616762
-0.0592072
-0.056782
-0.054394
-0.0520336
-0.0496916
-0.047358
-0.0450181
-0.0426533
-0.0402549
-0.0378187
-0.0353337
-0.0327903
-0.0301809
-0.0274946
-0.0247197
-0.0218501
-0.0188909
-0.0158501
-0.0127422
-0.00958725
-0.00639923
-0.00319645
1.70904e-05
0.00333359
0.00649511
0.00971701
0.012906
0.0160475
0.0191367
0.0221717
0.0251532
0.0280839
0.0309682
0.0338111
0.0366182
0.0393948
0.0421461
0.0448766
0.0475903
0.0502907
0.0529807
0.0556627
0.0583386
0.06101
0.063678
0.0663438
0.069008
0.0716712
0.0743339
0.0769963
0.0796587
0.0823213
0.0849841
0.0876472
0.0903107
0.0929745
0.0956386
0.0983031
0.100968
0.103633
0.106298
0.108963
-0.218654
-0.214775
-0.210886
-0.206997
-0.203127
-0.199298
-0.195532
-0.191855
-0.188288
-0.18485
-0.181557
-0.178418
-0.175444
-0.172641
-0.17002
-0.16758
-0.165313
-0.163203
-0.161239
-0.15939
-0.157638
-0.155962
-0.154328
-0.152715
-0.151105
-0.149478
-0.147813
-0.146092
-0.144299
-0.142413
-0.140413
-0.138259
-0.135904
-0.133323
-0.130529
-0.127574
-0.124512
-0.121337
-0.118088
-0.114823
-0.111578
-0.108403
-0.105346
-0.102409
-0.0995478
-0.0966688
-0.0936296
-0.0904454
-0.087237
-0.084071
-0.080975
-0.0779657
-0.0750571
-0.0722541
-0.0695499
-0.0669275
-0.0643896
-0.0619154
-0.0594979
-0.057127
-0.054788
-0.0524702
-0.0501729
-0.047882
-0.0455753
-0.0432353
-0.0408596
-0.0384439
-0.0359769
-0.0334475
-0.0308447
-0.028155
-0.025369
-0.0224832
-0.0195026
-0.0164349
-0.0132969
-0.0101077
-0.00687891
-0.00362577
-0.000351359
0.00303051
0.00628515
0.00959741
0.0128726
0.0160892
0.0192381
0.0223167
0.025327
0.028274
0.0311647
0.0340066
0.0368075
0.0395744
0.0423139
0.0450316
0.0477322
0.0504197
0.0530973
0.0557677
0.0584328
0.0610943
0.0637534
0.066411
0.0690678
0.0717243
0.0743809
0.0770379
0.0796954
0.0823534
0.0850121
0.0876715
0.0903315
0.092992
0.0956531
0.0983147
0.100977
0.103639
0.106301
0.108964
-0.218706
-0.214934
-0.21116
-0.207394
-0.203649
-0.199948
-0.196316
-0.192777
-0.18935
-0.18605
-0.18289
-0.179876
-0.177017
-0.174317
-0.171782
-0.169405
-0.167185
-0.165108
-0.16316
-0.161321
-0.159562
-0.157879
-0.156228
-0.1546
-0.152974
-0.151328
-0.149642
-0.147899
-0.14608
-0.144155
-0.142096
-0.139849
-0.137383
-0.134688
-0.131785
-0.128751
-0.125623
-0.12238
-0.119081
-0.115785
-0.112519
-0.109343
-0.106291
-0.103355
-0.100484
-0.0975733
-0.0944731
-0.0912056
-0.0879213
-0.0846989
-0.0815489
-0.078479
-0.0755063
-0.0726516
-0.0699213
-0.0672831
-0.064751
-0.0622933
-0.0598997
-0.057553
-0.0552334
-0.0529344
-0.0506595
-0.0483882
-0.046093
-0.0437575
-0.0413824
-0.0389669
-0.0364993
-0.0339654
-0.0313503
-0.0286425
-0.0258369
-0.0229313
-0.019929
-0.0168409
-0.013685
-0.010476
-0.00722691
-0.0039474
-0.000641228
0.00278206
0.0061206
0.00952757
0.0128985
0.0161981
0.0194104
0.0225317
0.0255664
0.0285232
0.0314128
0.0342461
0.0370335
0.0397842
0.0425061
0.045206
0.0478893
0.0505605
0.053223
0.0558795
0.0585321
0.0611824
0.0638314
0.06648
0.0691288
0.0717782
0.0744285
0.0770797
0.079732
0.0823855
0.08504
0.0876955
0.090352
0.0930093
0.0956674
0.0983262
0.100985
0.103645
0.106305
0.108965
-0.218743
-0.215048
-0.211356
-0.207681
-0.204044
-0.200467
-0.196969
-0.193568
-0.190281
-0.18712
-0.184093
-0.181206
-0.178464
-0.17587
-0.173423
-0.171118
-0.168952
-0.166912
-0.164982
-0.163155
-0.161393
-0.1597
-0.158038
-0.156398
-0.154762
-0.153107
-0.151412
-0.149657
-0.147822
-0.14586
-0.143737
-0.141403
-0.138845
-0.136059
-0.133076
-0.129982
-0.1268
-0.123512
-0.12019
-0.116884
-0.113623
-0.110463
-0.107427
-0.104493
-0.101592
-0.09863
-0.0954719
-0.0921328
-0.0888038
-0.0855767
-0.0824145
-0.0792949
-0.0762462
-0.073316
-0.0705368
-0.0678743
-0.065322
-0.0628323
-0.0604405
-0.0581083
-0.0557777
-0.0534531
-0.0511663
-0.0489002
-0.0466031
-0.0442351
-0.0418141
-0.039353
-0.0368452
-0.0342812
-0.031638
-0.0289043
-0.0260763
-0.0231494
-0.0201225
-0.0170128
-0.0138406
-0.0106138
-0.00735609
-0.00407817
-0.000784072
0.00263852
0.00602867
0.0095288
0.0130057
0.0163967
0.0196745
0.0228346
0.0258857
0.0288421
0.0317199
0.0345343
0.0372989
0.0400252
0.0427228
0.0453992
0.0480607
0.0507119
0.0533564
0.0559969
0.0586353
0.061273
0.063911
0.0665499
0.0691902
0.0718321
0.0744757
0.0771211
0.0797682
0.082417
0.0850673
0.087719
0.090372
0.0930262
0.0956813
0.0983373
0.100994
0.103651
0.106309
0.108967
-0.218761
-0.215105
-0.211468
-0.20787
-0.20433
-0.200865
-0.197492
-0.194225
-0.191077
-0.188054
-0.185161
-0.182403
-0.179783
-0.177299
-0.174946
-0.172719
-0.170609
-0.16861
-0.166701
-0.164884
-0.163122
-0.161418
-0.159749
-0.1581
-0.156465
-0.154815
-0.153127
-0.151382
-0.14954
-0.147539
-0.145345
-0.142929
-0.140295
-0.137433
-0.134382
-0.131254
-0.128047
-0.12474
-0.121418
-0.118134
-0.114897
-0.111762
-0.108767
-0.105861
-0.102923
-0.0998866
-0.0966367
-0.0931938
-0.0898113
-0.0866513
-0.08358
-0.0804324
-0.0772845
-0.0742295
-0.0713924
-0.0687408
-0.0661243
-0.0635229
-0.061121
-0.0588477
-0.0565033
-0.0540924
-0.0517509
-0.0494924
-0.0472173
-0.0447666
-0.0421876
-0.0395583
-0.0369186
-0.0342919
-0.031621
-0.0288812
-0.0260657
-0.0231471
-0.0200976
-0.0169521
-0.0137298
-0.0104377
-0.00715329
-0.00387058
-0.00063807
0.00269035
0.00604924
0.00963633
0.0132306
0.0167191
0.0200594
0.0232481
0.0263012
0.0292417
0.0320928
0.0348749
0.0376052
0.0402975
0.0429628
0.0456096
0.0482443
0.0508718
0.0534955
0.0561179