/*--------------------------------*- C++ -*----------------------------------*\
  =========                 |
  \\      /  F ield         | OpenFOAM: The Open Source CFD Toolbox
   \\    /   O peration     | Website:  https://openfoam.org
    \\  /    A nd           | Version:  6
     \\/     M anipulation  |
\*---------------------------------------------------------------------------*/
FoamFile
{
    version     2.0;
    format      ascii;
    class       volVectorField;
    location    "4300";
    object      U;
}
// * * * * * * * * * * * * * * * * * * * * * * * * * * * * * * * * * * * * * //

dimensions      [0 1 -1 0 0 0 0];

internalField   nonuniform List<vector> 
4800
(
(-3.31466e-05 0 -2.33868e-05)
(-9.63992e-06 0 -1.25999e-05)
(-3.09716e-05 0 -3.75803e-06)
(-4.92017e-05 0 -9.86411e-06)
(-6.60908e-05 0 -3.41284e-05)
(-6.96881e-05 0 -2.71752e-05)
(-0.000103434 0 2.11813e-05)
(-0.000246618 0 1.99631e-05)
(-0.000371532 0 -0.000155769)
(-0.000527204 0 -2.88921e-05)
(-0.000695031 0 3.57104e-05)
(-0.000779838 0 -0.000124499)
(-0.000846397 0 -1.7601e-05)
(-0.000903539 0 3.63575e-05)
(-0.000944645 0 -0.00011845)
(-0.000992751 0 1.77268e-05)
(-0.00102778 0 -1.85828e-05)
(-0.00105088 0 -4.8042e-05)
(-0.00106455 0 -1.33824e-05)
(-0.001065 0 -1.80432e-05)
(-0.00104366 0 -2.34267e-06)
(-0.00103605 0 -9.60332e-06)
(-0.00103912 0 -2.24389e-05)
(-0.00105078 0 -2.22768e-05)
(-0.00105881 0 -1.79949e-05)
(-0.00104574 0 -3.16883e-06)
(-0.000999127 0 -1.98317e-05)
(-0.000983095 0 -4.30721e-05)
(-0.000983942 0 -4.69299e-05)
(-0.000947853 0 4.61409e-05)
(-0.000883794 0 -7.69356e-05)
(-0.000841949 0 -2.15916e-05)
(-0.00080334 0 6.89601e-06)
(-0.000759819 0 -5.3475e-05)
(-0.00073462 0 -1.59973e-05)
(-0.000729865 0 -1.40264e-05)
(-0.000747753 0 5.2765e-06)
(-0.000786921 0 3.82503e-05)
(-0.000821349 0 1.87859e-05)
(-0.000853634 0 -2.30034e-05)
(-0.000867467 0 -1.00908e-05)
(-0.000862786 0 -9.44005e-06)
(-0.000851701 0 -1.7287e-05)
(-0.000850018 0 -2.67065e-05)
(-0.000819563 0 -6.2642e-05)
(-0.000754849 0 -6.0371e-05)
(-0.00070647 0 -4.28398e-05)
(-0.000682597 0 -4.42642e-05)
(-0.000674163 0 -6.16745e-05)
(-0.000642697 0 -6.10954e-05)
(-0.00055659 0 -2.53197e-05)
(-0.000467636 0 -9.28593e-05)
(-0.000391247 0 -9.48922e-05)
(-0.000330478 0 -3.62943e-05)
(-0.000252327 0 -2.08809e-05)
(-0.000147263 0 -9.67603e-05)
(-7.61985e-05 0 -2.34461e-05)
(-6.95018e-06 0 -4.41463e-05)
(6.60911e-05 0 -3.15111e-05)
(8.79534e-05 0 -2.81929e-05)
(0.000114106 0 -4.25646e-05)
(0.000116469 0 -3.04943e-05)
(0.000113678 0 -1.21066e-05)
(7.99017e-05 0 -2.44575e-05)
(-1.76942e-05 0 3.68819e-05)
(-0.000110481 0 2.02937e-05)
(-0.000233653 0 5.59084e-05)
(-0.000348304 0 9.2796e-05)
(-0.000369471 0 7.76537e-05)
(-0.000364134 0 5.06151e-05)
(-0.000323019 0 -0.000163548)
(-0.000245999 0 -7.57453e-05)
(-0.000168288 0 -7.16875e-05)
(-6.87152e-05 0 -8.74235e-05)
(2.89287e-05 0 -8.01338e-05)
(0.000114338 0 -7.24089e-05)
(0.000209499 0 -9.00322e-05)
(0.00018401 0 -5.39578e-05)
(0.000302901 0 -2.87933e-05)
(-0.000153066 0 4.53722e-05)
(2.67812e-06 0 7.05457e-05)
(-6.32188e-13 0 1.57347e-13)
(-1.65744e-12 0 2.9849e-14)
(-9.54161e-13 0 -2.91766e-15)
(-9.36481e-13 0 -1.38668e-14)
(-9.00573e-13 0 -2.10408e-14)
(-8.51013e-13 0 -2.75267e-14)
(-7.88995e-13 0 -3.35212e-14)
(-7.15675e-13 0 -3.8864e-14)
(-6.32475e-13 0 -4.34437e-14)
(-5.40988e-13 0 -4.7203e-14)
(-4.42904e-13 0 -5.01024e-14)
(-3.39977e-13 0 -5.21064e-14)
(-2.34021e-13 0 -5.31844e-14)
(-1.26891e-13 0 -5.33174e-14)
(-2.04671e-14 0 -5.25053e-14)
(8.3394e-14 0 -5.07715e-14)
(1.82904e-13 0 -4.81641e-14)
(2.76394e-13 0 -4.47544e-14)
(3.62358e-13 0 -4.06351e-14)
(4.39488e-13 0 -3.59165e-14)
(5.06699e-13 0 -3.07214e-14)
(5.63151e-13 0 -2.51786e-14)
(6.08256e-13 0 -1.94168e-14)
(6.41684e-13 0 -1.35591e-14)
(6.6335e-13 0 -7.71858e-15)
(6.73391e-13 0 -1.99582e-15)
(6.72139e-13 0 3.52247e-15)
(6.60089e-13 0 8.76386e-15)
(6.37862e-13 0 1.36699e-14)
(6.06183e-13 0 1.81952e-14)
(5.65851e-13 0 2.23063e-14)
(5.17718e-13 0 2.59797e-14)
(4.62674e-13 0 2.92007e-14)
(4.01631e-13 0 3.1961e-14)
(3.35513e-13 0 3.42576e-14)
(2.65248e-13 0 3.60905e-14)
(1.91762e-13 0 3.74619e-14)
(1.1598e-13 0 3.83751e-14)
(3.88145e-14 0 3.88355e-14)
(-3.32928e-05 0 3.79425e-05)
(-4.74541e-05 0 3.07681e-05)
(-7.3301e-05 0 6.16838e-05)
(-0.000103231 0 8.22054e-05)
(-0.00011642 0 9.21803e-05)
(-0.000228506 0 9.15896e-05)
(-0.000365281 0 0.000144395)
(-0.000386715 0 0.000303353)
(-0.00056892 0 0.000183523)
(-0.000672873 0 2.72087e-05)
(-0.000742632 0 8.51804e-05)
(-0.000797017 0 0.000173123)
(-0.000853371 0 8.60314e-05)
(-0.000909755 0 7.55319e-05)
(-0.000950279 0 0.000135145)
(-0.00098452 0 4.42471e-05)
(-0.00101215 0 8.10506e-05)
(-0.00104118 0 5.87121e-05)
(-0.00105153 0 2.65905e-05)
(-0.00105199 0 1.23205e-05)
(-0.00104718 0 -2.54497e-05)
(-0.00104692 0 1.30934e-06)
(-0.0010479 0 4.57111e-05)
(-0.00105319 0 1.55372e-05)
(-0.00106441 0 5.55448e-06)
(-0.00106723 0 -1.37758e-05)
(-0.00104011 0 -7.1526e-05)
(-0.00102461 0 -2.52847e-05)
(-0.0010197 0 -6.82413e-06)
(-0.00100952 0 -3.6146e-05)
(-0.000961702 0 -0.000102777)
(-0.000918099 0 -6.85536e-05)
(-0.000894747 0 -3.15306e-05)
(-0.000876274 0 -5.37871e-05)
(-0.0008639 0 -1.07616e-05)
(-0.000861169 0 8.53873e-06)
(-0.000859269 0 5.09174e-05)
(-0.000852564 0 6.35111e-05)
(-0.000865846 0 3.29636e-05)
(-0.000879557 0 5.01979e-05)
(-0.000882221 0 3.60195e-05)
(-0.000863288 0 -1.16974e-05)
(-0.000847127 0 -1.57594e-05)
(-0.000838793 0 -2.03163e-05)
(-0.000810825 0 -5.70637e-05)
(-0.000740979 0 -1.97218e-05)
(-0.000676691 0 -4.00939e-05)
(-0.000643442 0 -4.68762e-05)
(-0.000623175 0 -6.60271e-05)
(-0.000593278 0 -0.000107493)
(-0.000555318 0 -0.000114692)
(-0.000516696 0 -8.20016e-05)
(-0.000462538 0 -0.000114636)
(-0.000401121 0 -0.000139805)
(-0.000332558 0 -0.000159492)
(-0.000250657 0 -0.000176549)
(-0.000186014 0 -0.00013806)
(-0.000121199 0 -0.000140584)
(-0.000100848 0 -0.0001249)
(-9.19039e-05 0 -0.000107827)
(-4.4009e-05 0 -4.55474e-05)
(-0.000108825 0 1.85797e-05)
(-0.000162056 0 1.60905e-05)
(-0.000147993 0 0.00013829)
(-0.00031674 0 0.000131998)
(-0.000403226 0 0.000150983)
(-0.000450377 0 0.000163382)
(-0.00047632 0 0.000102987)
(-0.000451588 0 -0.00018281)
(-0.00039081 0 -4.45727e-06)
(-0.000348682 0 -2.44515e-05)
(-0.000269927 0 -0.000108417)
(-0.000196485 0 -6.88049e-05)
(-8.67505e-05 0 -0.000108417)
(1.37342e-05 0 -7.56506e-05)
(6.20882e-05 0 2.10498e-05)
(-9.47263e-05 0 0.000172534)
(-0.000341011 0 3.70696e-05)
(-0.000366385 0 3.28263e-05)
(-0.000428851 0 3.66399e-05)
(2.35568e-06 0 -2.18905e-05)
(-6.71825e-13 0 2.92871e-14)
(-1.82689e-12 0 -1.49737e-14)
(-9.97876e-13 0 -3.0136e-14)
(-9.54604e-13 0 -4.50243e-14)
(-9.14233e-13 0 -6.34729e-14)
(-8.63493e-13 0 -8.2741e-14)
(-8.00332e-13 0 -1.00892e-13)
(-7.25598e-13 0 -1.17048e-13)
(-6.40815e-13 0 -1.30867e-13)
(-5.47647e-13 0 -1.42202e-13)
(-4.47807e-13 0 -1.50948e-13)
(-3.4306e-13 0 -1.56999e-13)
(-2.35232e-13 0 -1.60258e-13)
(-1.26212e-13 0 -1.60664e-13)
(-1.79212e-14 0 -1.58211e-13)
(8.77352e-14 0 -1.52967e-13)
(1.88921e-13 0 -1.45076e-13)
(2.83923e-13 0 -1.34757e-13)
(3.71195e-13 0 -1.22297e-13)
(4.49401e-13 0 -1.08033e-13)
(5.17437e-13 0 -9.23401e-14)
(5.74455e-13 0 -7.56073e-14)
(6.19875e-13 0 -5.82225e-14)
(6.53382e-13 0 -4.05556e-14)
(6.74913e-13 0 -2.29477e-14)
(6.84632e-13 0 -5.70256e-15)
(6.82899e-13 0 1.09177e-14)
(6.70236e-13 0 2.66945e-14)
(6.47293e-13 0 4.14521e-14)
(6.1482e-13 0 5.50551e-14)
(5.73635e-13 0 6.74042e-14)
(5.24613e-13 0 7.84316e-14)
(4.68656e-13 0 8.80952e-14)
(4.06688e-13 0 9.63729e-14)
(3.39642e-13 0 1.03257e-13)
(2.68452e-13 0 1.0875e-13)
(1.94047e-13 0 1.12859e-13)
(1.17353e-13 0 1.15593e-13)
(3.92749e-14 0 1.16962e-13)
(-3.2544e-05 0 7.62248e-05)
(-8.02132e-05 0 7.79382e-05)
(-0.000197248 0 3.00441e-05)
(-0.000248657 0 1.71718e-05)
(-0.000255209 0 3.97331e-05)
(-0.000407642 0 0.000143699)
(-0.000613689 0 0.000157541)
(-0.000634703 0 0.000249981)
(-0.000651941 0 0.000332655)
(-0.00069996 0 0.000286026)
(-0.000733566 0 0.000192667)
(-0.000768787 0 0.000103825)
(-0.000834526 0 0.000125487)
(-0.000886774 0 6.20354e-05)
(-0.000907109 0 9.06024e-05)
(-0.000932616 0 6.0592e-05)
(-0.000963453 0 2.24667e-05)
(-0.000976164 0 2.57269e-05)
(-0.00098164 0 1.83979e-06)
(-0.000995031 0 -3.21752e-05)
(-0.001015 0 -1.20766e-05)
(-0.00102537 0 -4.75478e-06)
(-0.00102845 0 -5.33304e-06)
(-0.00103446 0 -7.17034e-06)
(-0.00105408 0 -9.93439e-06)
(-0.00106341 0 -1.39301e-05)
(-0.00105151 0 -6.61907e-05)
(-0.00102483 0 -6.97912e-05)
(-0.00101648 0 -5.54986e-05)
(-0.00101492 0 -1.48652e-05)
(-0.000977677 0 -4.52878e-05)
(-0.000926105 0 -0.000118797)
(-0.000905691 0 -3.92491e-05)
(-0.000888065 0 -4.60643e-05)
(-0.00087149 0 -4.54465e-05)
(-0.000855384 0 9.90422e-06)
(-0.000832805 0 2.81336e-05)
(-0.000818511 0 3.01123e-05)
(-0.000815255 0 3.2305e-05)
(-0.000816586 0 2.97189e-05)
(-0.000799634 0 -1.0389e-05)
(-0.000753028 0 -5.78032e-05)
(-0.000705705 0 -6.09819e-05)
(-0.000672955 0 -7.41924e-05)
(-0.000652568 0 -0.000105893)
(-0.000620075 0 -0.000168136)
(-0.000573453 0 -0.00017946)
(-0.000548581 0 -0.000114872)
(-0.00052665 0 -9.52469e-05)
(-0.000513977 0 -0.000114942)
(-0.00049841 0 -0.000150273)
(-0.000472549 0 -0.000176441)
(-0.000469555 0 -0.000111089)
(-0.000431345 0 -0.00014441)
(-0.000376289 0 -0.000209868)
(-0.000326328 0 -0.000212335)
(-0.000271803 0 -0.000184374)
(-0.000233294 0 -0.000119697)
(-0.000198021 0 -6.60359e-05)
(-0.00017786 0 -2.09495e-05)
(-0.000105791 0 0.000147342)
(-0.000191479 0 4.44754e-05)
(-0.00024828 0 0.000137649)
(-0.000379078 0 0.000148636)
(-0.000460821 0 0.000183252)
(-0.000471319 0 0.000200774)
(-0.000484941 0 0.000143734)
(-0.000496751 0 8.42646e-05)
(-0.000452013 0 -0.000168189)
(-0.000397546 0 -4.24384e-05)
(-0.00032482 0 -0.000171498)
(-0.000233155 0 -0.000246297)
(-0.000202857 0 -0.00022822)
(-6.02401e-05 0 -0.000302423)
(2.74906e-05 0 -0.000261612)
(0.000215804 0 -9.44638e-05)
(0.000242959 0 3.42601e-05)
(0.000326325 0 0.000105612)
(0.000374593 0 0.000180036)
(-0.000352485 0 7.51534e-05)
(2.74796e-06 0 -0.000101124)
(-7.40827e-13 0 -5.22615e-13)
(-1.74983e-12 0 -1.18042e-13)
(-9.84211e-13 0 -5.73617e-14)
(-9.69817e-13 0 -7.24295e-14)
(-9.3829e-13 0 -1.04892e-13)
(-8.88432e-13 0 -1.3887e-13)
(-8.23302e-13 0 -1.70049e-13)
(-7.4565e-13 0 -1.97356e-13)
(-6.5763e-13 0 -2.20563e-13)
(-5.6107e-13 0 -2.39582e-13)
(-4.577e-13 0 -2.54282e-13)
(-3.49287e-13 0 -2.64481e-13)
(-2.37685e-13 0 -2.69996e-13)
(-1.24844e-13 0 -2.70698e-13)
(-1.27703e-14 0 -2.66557e-13)
(9.65289e-14 0 -2.57675e-13)
(2.01113e-13 0 -2.44292e-13)
(2.99173e-13 0 -2.26786e-13)
(3.89082e-13 0 -2.05652e-13)
(4.69444e-13 0 -1.81478e-13)
(5.39125e-13 0 -1.54907e-13)
(5.97268e-13 0 -1.26606e-13)
(6.43307e-13 0 -9.72363e-14)
(6.76959e-13 0 -6.74254e-14)
(6.98203e-13 0 -3.77506e-14)
(7.07256e-13 0 -8.72445e-15)
(7.04536e-13 0 1.92128e-14)
(6.90623e-13 0 4.56964e-14)
(6.66223e-13 0 7.04355e-14)
(6.32135e-13 0 9.3209e-14)
(5.89228e-13 0 1.13857e-13)
(5.38409e-13 0 1.32275e-13)
(4.80616e-13 0 1.48397e-13)
(4.16793e-13 0 1.62195e-13)
(3.4789e-13 0 1.73661e-13)
(2.74849e-13 0 1.82804e-13)
(1.98605e-13 0 1.89639e-13)
(1.20083e-13 0 1.94185e-13)
(4.0184e-14 0 1.96453e-13)
(-3.40747e-05 0 0.000121858)
(-6.46098e-05 0 0.000148959)
(-8.3819e-05 0 0.000188125)
(-0.000160737 0 0.000194565)
(-0.00017367 0 0.00027265)
(-0.000219745 0 0.000401559)
(-0.000434382 0 0.000470849)
(-0.000524085 0 0.000483333)
(-0.00059148 0 0.000427941)
(-0.000656644 0 0.000346312)
(-0.000698661 0 0.00027936)
(-0.000761747 0 0.000133227)
(-0.000792158 0 0.000122239)
(-0.000800201 0 0.000155179)
(-0.000808186 0 0.000146513)
(-0.000871192 0 2.14056e-05)
(-0.000897908 0 0.000114546)
(-0.000917167 0 7.39712e-05)
(-0.000934895 0 1.44687e-05)
(-0.000950492 0 3.19251e-05)
(-0.000971727 0 9.70146e-06)
(-0.000991904 0 2.44782e-05)
(-0.000998079 0 2.74014e-05)
(-0.000996949 0 2.44185e-05)
(-0.000998122 0 1.22869e-05)
(-0.00100063 0 -1.16941e-05)
(-0.0009875 0 -8.24e-05)
(-0.00098142 0 -6.98759e-05)
(-0.0009793 0 -6.84455e-05)
(-0.000977948 0 -9.14622e-05)
(-0.000920444 0 -0.000190114)
(-0.00087737 0 -0.000130036)
(-0.000855454 0 -8.79104e-05)
(-0.000838788 0 -6.53914e-05)
(-0.000802299 0 -7.94303e-05)
(-0.000777118 0 -1.72001e-06)
(-0.000740958 0 7.35623e-06)
(-0.00071753 0 2.53885e-05)
(-0.000695154 0 1.6943e-05)
(-0.000657104 0 1.4522e-05)
(-0.000613883 0 -3.739e-05)
(-0.000579478 0 -7.84804e-05)
(-0.000527305 0 -0.000104339)
(-0.000482219 0 -0.000120175)
(-0.000458965 0 -0.00012366)
(-0.000455891 0 -0.000115268)
(-0.000456222 0 -9.1177e-05)
(-0.000429033 0 -9.10706e-05)
(-0.000398781 0 -0.000105852)
(-0.000390037 0 -0.000109132)
(-0.000387228 0 -0.000129272)
(-0.000393671 0 -0.000161934)
(-0.000400811 0 -0.000170319)
(-0.00039101 0 -0.000198727)
(-0.000402273 0 -0.000186316)
(-0.00031279 0 -0.000293923)
(-0.000318093 0 -0.000237239)
(-0.000251131 0 -0.000207679)
(-0.000216947 0 -0.000132315)
(-0.000165346 0 -8.28975e-05)
(-0.000157079 0 4.79896e-06)
(-0.000243674 0 0.000145366)
(-0.00032463 0 0.000241749)
(-0.00041583 0 0.000256232)
(-0.000431805 0 0.000270779)
(-0.000462955 0 0.000175253)
(-0.000437875 0 0.000148165)
(-0.000442159 0 0.000118465)
(-0.000434261 0 -0.000134923)
(-0.000398587 0 -0.000117489)
(-0.000370004 0 -0.00016197)
(-0.000308866 0 -0.000265728)
(-0.000251631 0 -0.000321722)
(-0.000128086 0 -0.000371525)
(-0.000128792 0 -0.000343944)
(6.2446e-05 0 -0.000333475)
(0.000208133 0 -0.000116715)
(0.000295239 0 1.23781e-05)
(0.000345366 0 0.000178889)
(0.00023976 0 0.000183302)
(3.30333e-06 0 0.000193686)
(-8.01851e-13 0 1.24059e-13)
(-1.41698e-12 0 7.74523e-14)
(-9.52264e-13 0 -9.0946e-15)
(-1.00213e-12 0 -8.26744e-14)
(-9.80673e-13 0 -1.45001e-13)
(-9.2865e-13 0 -1.97973e-13)
(-8.58818e-13 0 -2.43222e-13)
(-7.76111e-13 0 -2.81872e-13)
(-6.8304e-13 0 -3.14518e-13)
(-5.81366e-13 0 -3.41321e-13)
(-4.72706e-13 0 -3.6214e-13)
(-3.58774e-13 0 -3.76672e-13)
(-2.41448e-13 0 -3.84587e-13)
(-1.22773e-13 0 -3.85638e-13)
(-4.89861e-15 0 -3.79735e-13)
(1.1e-13 0 -3.66997e-13)
(2.1981e-13 0 -3.47762e-13)
(3.22562e-13 0 -3.22582e-13)
(4.16503e-13 0 -2.9219e-13)
(5.00147e-13 0 -2.57452e-13)
(5.72309e-13 0 -2.19316e-13)
(6.32126e-13 0 -1.78763e-13)
(6.79056e-13 0 -1.36754e-13)
(7.12868e-13 0 -9.42006e-14)
(7.33614e-13 0 -5.19306e-14)
(7.41595e-13 0 -1.0674e-14)
(7.3732e-13 0 2.89493e-14)
(7.21459e-13 0 6.6431e-14)
(6.94806e-13 0 1.01372e-13)
(6.58241e-13 0 1.33475e-13)
(6.12701e-13 0 1.62528e-13)
(5.59152e-13 0 1.88398e-13)
(4.98576e-13 0 2.11011e-13)
(4.31952e-13 0 2.30337e-13)
(3.60251e-13 0 2.46378e-13)
(2.8443e-13 0 2.59157e-13)
(2.05428e-13 0 2.68703e-13)
(1.24168e-13 0 2.75047e-13)
(4.15438e-14 0 2.78213e-13)
(-4.6624e-05 0 0.000172422)
(-0.000124767 0 0.00017747)
(-0.000155122 0 0.000193041)
(-0.000235328 0 0.000207873)
(-0.000397226 0 0.000272316)
(-0.00050743 0 0.000291273)
(-0.00053898 0 0.00039064)
(-0.0005943 0 0.000374881)
(-0.000645564 0 0.000296938)
(-0.0006591 0 0.000250217)
(-0.000674631 0 0.000236906)
(-0.000684559 0 0.000247055)
(-0.000681317 0 0.000236346)
(-0.000687278 0 0.000212722)
(-0.000768728 0 0.000124974)
(-0.000801531 0 0.00015157)
(-0.000838037 0 0.000153169)
(-0.000888793 0 8.97123e-05)
(-0.000918998 0 6.3036e-05)
(-0.000941203 0 3.12906e-05)
(-0.000974703 0 3.04862e-05)
(-0.00099731 0 4.09899e-05)
(-0.000994935 0 1.83718e-05)
(-0.000965922 0 7.59226e-06)
(-0.000959792 0 4.05165e-06)
(-0.000966095 0 -1.30086e-05)
(-0.000935581 0 -8.58631e-05)
(-0.000902435 0 -5.52841e-05)
(-0.000893808 0 -6.22032e-05)
(-0.000907821 0 -7.20293e-05)
(-0.000862378 0 -0.000191915)
(-0.000767653 0 -0.000204374)
(-0.000745241 0 -0.000132746)
(-0.000745071 0 2.83824e-05)
(-0.000645274 0 -0.000179725)
(-0.000629605 0 7.45507e-06)
(-0.000558634 0 -6.64985e-05)
(-0.000532465 0 -9.90265e-06)
(-0.000498763 0 -2.03213e-05)
(-0.000466797 0 -2.38068e-05)
(-0.000417647 0 -0.000118698)
(-0.000405087 0 -0.000102824)
(-0.0003585 0 -0.000166024)
(-0.000342379 0 -0.000129099)
(-0.000311112 0 -0.000143633)
(-0.000294038 0 -0.000150449)
(-0.000276255 0 -0.000152672)
(-0.000268468 0 -0.000129528)
(-0.000266038 0 -0.000106624)
(-0.000263704 0 -0.000101507)
(-0.000275048 0 -9.71898e-05)
(-0.000307958 0 -8.58577e-05)
(-0.000330803 0 -0.000100733)
(-0.000290914 0 -0.000227099)
(-0.000332461 0 -0.000232352)
(-0.000330215 0 -0.000261634)
(-0.00031802 0 -0.000280746)
(-0.000266629 0 -0.000243665)
(-0.000226228 0 -0.000158088)
(-0.00018308 0 -9.99513e-05)
(-0.00019155 0 3.24862e-05)
(-0.000238795 0 0.000270968)
(-0.000342427 0 0.000286965)
(-0.000382798 0 0.000291857)
(-0.000403019 0 0.000281568)
(-0.000457055 0 0.000108181)
(-0.000385603 0 0.000115459)
(-0.000368076 0 7.46106e-05)
(-0.000382984 0 -4.66195e-05)
(-0.000383433 0 -0.000147236)
(-0.000337862 0 -0.000246585)
(-0.000315112 0 -0.000313965)
(-0.000230821 0 -0.000420739)
(-0.000218244 0 -0.000431072)
(-5.44918e-05 0 -0.000479721)
(-4.41117e-05 0 -0.000425598)
(5.25743e-05 0 -0.000292074)
(0.000179951 0 2.41962e-05)
(0.000276635 0 9.39108e-05)
(-4.35356e-05 0 0.000228998)
(2.60531e-06 0 0.000265367)
(-7.71062e-13 0 7.16492e-13)
(-1.94478e-12 0 2.55979e-13)
(-1.14434e-12 0 2.6051e-14)
(-1.10572e-12 0 -1.04316e-13)
(-1.05359e-12 0 -1.9459e-13)
(-9.86653e-13 0 -2.64901e-13)
(-9.072e-13 0 -3.23067e-13)
(-8.16945e-13 0 -3.72428e-13)
(-7.1708e-13 0 -4.14318e-13)
(-6.08692e-13 0 -4.49021e-13)
(-4.93051e-13 0 -4.76246e-13)
(-3.71734e-13 0 -4.95438e-13)
(-2.46652e-13 0 -5.06011e-13)
(-1.19992e-13 0 -5.07517e-13)
(5.87097e-15 0 -4.99756e-13)
(1.28502e-13 0 -4.82843e-13)
(2.45528e-13 0 -4.57226e-13)
(3.54745e-13 0 -4.23657e-13)
(4.54212e-13 0 -3.83148e-13)
(5.42318e-13 0 -3.36896e-13)
(6.17814e-13 0 -2.86207e-13)
(6.7983e-13 0 -2.32421e-13)
(7.2787e-13 0 -1.76845e-13)
(7.61782e-13 0 -1.20703e-13)
(7.81729e-13 0 -6.50954e-14)
(7.88136e-13 0 -1.09811e-14)
(7.81641e-13 0 4.08383e-14)
(7.63046e-13 0 8.97165e-14)
(7.33266e-13 0 1.35156e-13)
(6.93291e-13 0 1.76793e-13)
(6.44151e-13 0 2.14384e-13)
(5.86892e-13 0 2.4778e-13)
(5.22554e-13 0 2.76911e-13)
(4.5216e-13 0 3.01762e-13)
(3.7671e-13 0 3.22357e-13)
(2.97174e-13 0 3.38741e-13)
(2.14496e-13 0 3.50968e-13)
(1.29593e-13 0 3.59088e-13)
(4.33495e-14 0 3.63137e-13)
(-5.15987e-05 0 0.000237815)
(-0.000107925 0 0.000243977)
(-0.000146263 0 0.000258608)
(-8.59001e-05 0 0.000347259)
(-0.000177582 0 0.000444734)
(-0.000324565 0 0.000542444)
(-0.000420072 0 0.00054331)
(-0.000460701 0 0.000526205)
(-0.000470064 0 0.000518809)
(-0.000544275 0 0.000408299)
(-0.000510635 0 0.000398404)
(-0.00055993 0 0.000303799)
(-0.000668621 0 0.000119371)
(-0.000716708 0 0.000168648)
(-0.000741623 0 0.000263573)
(-0.000813168 0 0.000176025)
(-0.000884426 0 0.000177946)
(-0.000961016 0 0.000142427)
(-0.00100565 0 7.8625e-05)
(-0.00103499 0 8.70222e-05)
(-0.00107976 0 8.41386e-05)
(-0.00110186 0 7.43864e-05)
(-0.00108571 0 1.09355e-05)
(-0.00103619 0 -2.66075e-05)
(-0.0010181 0 -3.34272e-05)
(-0.00101071 0 -3.72009e-05)
(-0.000968514 0 5.43972e-05)
(-0.000906164 0 -0.00016065)
(-0.000885107 0 -7.24407e-05)
(-0.000881643 0 -9.38045e-05)
(-0.000825713 0 -0.000230253)
(-0.000699747 0 -0.00025948)
(-0.000645966 0 -0.000183712)
(-0.00062459 0 -7.61682e-05)
(-0.000471557 0 -0.000267312)
(-0.000457776 0 -6.15301e-05)
(-0.000344553 0 -0.000126851)
(-0.000312286 0 -5.3732e-05)
(-0.00026739 0 -6.52822e-05)
(-0.000248415 0 -4.66925e-05)
(-0.000221334 0 -9.01689e-05)
(-0.000214595 0 -0.00011811)
(-0.00020194 0 -0.0001412)
(-0.00018615 0 -0.00016908)
(-0.000165675 0 -0.000173168)
(-0.000155837 0 -0.000163397)
(-0.000140766 0 -0.000153053)
(-0.000127345 0 -0.00013957)
(-0.00011395 0 -0.000131653)
(-0.00011779 0 -0.000115691)
(-0.000130121 0 -9.11804e-05)
(-0.000160257 0 -9.54755e-05)
(-0.000217894 0 -8.51683e-05)
(-0.000204134 0 -0.000169254)
(-0.000264922 0 -0.000210618)
(-0.000220007 0 -0.000303529)
(-0.000224255 0 -0.000322981)
(-0.000272847 0 -0.000253892)
(-0.000209638 0 -0.000191358)
(-0.000183558 0 -0.0001388)
(-0.000266588 0 0.000172193)
(-0.000281987 0 0.000306548)
(-0.000288337 0 0.000355747)
(-0.000305458 0 0.000353222)
(-0.000324836 0 0.000317589)
(-0.000368635 0 0.000240067)
(-0.000409765 0 8.61111e-05)
(-0.000368798 0 -3.45988e-05)
(-0.000354527 0 -9.48071e-06)
(-0.000325992 0 -0.000182702)
(-0.000329104 0 -0.000265029)
(-0.00031694 0 -0.000350192)
(-0.000232193 0 -0.000471093)
(-0.000226335 0 -0.000499348)
(-0.000220433 0 -0.000510303)
(-0.000137203 0 -0.000480557)
(-0.000142352 0 -0.000249518)
(-1.49709e-05 0 -0.000118771)
(7.84753e-05 0 0.000256959)
(-0.000280301 0 0.000324624)
(2.59878e-06 0 0.00035212)
(-8.72836e-13 0 3.06398e-13)
(-2.17123e-12 0 1.37913e-13)
(-1.31256e-12 0 -3.84827e-14)
(-1.22278e-12 0 -1.66177e-13)
(-1.14126e-12 0 -2.64274e-13)
(-1.05713e-12 0 -3.44099e-13)
(-9.66344e-13 0 -4.11827e-13)
(-8.67362e-13 0 -4.70531e-13)
(-7.59634e-13 0 -5.21349e-13)
(-6.43293e-13 0 -5.64212e-13)
(-5.19122e-13 0 -5.98369e-13)
(-3.88539e-13 0 -6.22789e-13)
(-2.53528e-13 0 -6.36461e-13)
(-1.16518e-13 0 -6.38621e-13)
(1.97746e-14 0 -6.28896e-13)
(1.5253e-13 0 -6.07383e-13)
(2.78996e-13 0 -5.74651e-13)
(3.9664e-13 0 -5.31706e-13)
(5.03264e-13 0 -4.799e-13)
(5.97088e-13 0 -4.20837e-13)
(6.76784e-13 0 -3.56253e-13)
(7.41488e-13 0 -2.87917e-13)
(7.90774e-13 0 -2.17535e-13)
(8.24617e-13 0 -1.46685e-13)
(8.43335e-13 0 -7.67695e-14)
(8.47529e-13 0 -8.98619e-15)
(8.38017e-13 0 5.568e-14)
(8.15776e-13 0 1.16453e-13)
(7.81883e-13 0 1.72751e-13)
(7.3747e-13 0 2.24167e-13)
(6.83688e-13 0 2.7044e-13)
(6.21679e-13 0 3.1143e-13)
(5.52557e-13 0 3.47092e-13)
(4.77397e-13 0 3.77443e-13)
(3.97231e-13 0 4.02545e-13)
(3.13042e-13 0 4.22482e-13)
(2.25775e-13 0 4.37341e-13)
(1.36337e-13 0 4.47198e-13)
(4.55933e-14 0 4.52111e-13)
(-4.22051e-05 0 0.000311927)
(-0.000105409 0 0.000311416)
(-0.000174453 0 0.000302767)
(-0.000351022 0 0.000271232)
(-0.000409869 0 0.000392044)
(-0.000396799 0 0.000543802)
(-0.000424336 0 0.000554773)
(-0.000442095 0 0.000523289)
(-0.000527264 0 0.000417337)
(-0.00057004 0 0.000331742)
(-0.000605531 0 0.000192911)
(-0.000554887 0 0.000286493)
(-0.000588954 0 0.000341405)
(-0.000692818 0 0.000284576)
(-0.000731052 0 0.000338814)
(-0.00087059 0 0.000223119)
(-0.000984183 0 0.000235417)
(-0.0010691 0 0.000167997)
(-0.00108747 0 0.0001716)
(-0.0011376 0 6.08682e-05)
(-0.00118302 0 5.87792e-05)
(-0.00119579 0 6.09811e-05)
(-0.00118938 0 -7.50136e-05)
(-0.00115912 0 -8.7852e-05)
(-0.0011507 0 -8.60347e-05)
(-0.00115539 0 -0.000101542)
(-0.00113588 0 -0.00014974)
(-0.00103076 0 -0.00015701)
(-0.000935348 0 -0.000121497)
(-0.000885271 0 -0.000136448)
(-0.000866627 0 -0.000179121)
(-0.000659716 0 -0.000551199)
(-0.000639018 0 -0.000264895)
(-0.000607846 0 1.38724e-05)
(-0.000365219 0 -0.000382819)
(-0.000361718 0 -0.000117947)
(-0.0002028 0 -0.000174173)
(-0.000139321 0 -0.000109767)
(-7.88231e-05 0 -8.03666e-05)
(-7.23514e-05 0 -7.10009e-05)
(-6.74676e-05 0 -9.29981e-05)
(-7.0328e-05 0 -0.000126713)
(-6.0396e-05 0 -0.000155688)
(-6.98557e-05 0 -0.000164408)
(-8.31522e-05 0 -0.000171491)
(-7.2872e-05 0 -0.000175158)
(-6.58791e-05 0 -0.000165947)
(-5.43354e-05 0 -0.000144833)
(-3.58422e-05 0 -0.000114742)
(-1.67131e-05 0 -8.64563e-05)
(5.51682e-06 0 -6.71461e-05)
(-3.43198e-05 0 -4.65243e-05)
(-9.68049e-05 0 -5.05034e-05)
(-4.51294e-05 0 -0.000156256)
(-0.000127568 0 -0.000213065)
(-0.000126523 0 -0.000275636)
(-0.000125472 0 -0.000300453)
(-0.000123697 0 -0.000291149)
(-0.000133552 0 -0.00022713)
(-0.000167166 0 -0.000123225)
(-0.000223973 0 0.000243747)
(-0.000252829 0 0.000325419)
(-0.000287012 0 0.000344899)
(-0.000341986 0 0.000298634)
(-0.000312676 0 0.000264213)
(-0.000307426 0 0.000246129)
(-0.000346137 0 0.000160976)
(-0.000381427 0 -4.96285e-05)
(-0.000320375 0 -0.000134001)
(-0.00029313 0 -0.000166774)
(-0.000282378 0 -0.000308197)
(-0.000319363 0 -0.000363408)
(-0.00023127 0 -0.000493232)
(-0.000245437 0 -0.000536844)
(-0.000191539 0 -0.000581606)
(-0.000172435 0 -0.000551844)
(-9.43478e-05 0 -0.000384655)
(-6.1528e-05 0 -0.000219732)
(0.000189615 0 0.000153754)
(-0.000354584 0 0.000332012)
(2.71261e-06 0 0.000400873)
(-1.00611e-12 0 -1.04153e-13)
(-2.36455e-12 0 -4.90295e-14)
(-1.44843e-12 0 -1.51788e-13)
(-1.33152e-12 0 -2.57732e-13)
(-1.23151e-12 0 -3.52348e-13)
(-1.13421e-12 0 -4.3553e-13)
(-1.03363e-12 0 -5.09756e-13)
(-9.26468e-13 0 -5.76658e-13)
(-8.1076e-13 0 -6.36444e-13)
(-6.85712e-13 0 -6.88181e-13)
(-5.51628e-13 0 -7.30268e-13)
(-4.09826e-13 0 -7.60892e-13)
(-2.62483e-13 0 -7.78398e-13)
(-1.12427e-13 0 -7.81566e-13)
(3.71091e-14 0 -7.69777e-13)
(1.82748e-13 0 -7.43097e-13)
(3.21205e-13 0 -7.02265e-13)
(4.49496e-13 0 -6.48611e-13)
(5.65081e-13 0 -5.83931e-13)
(6.65965e-13 0 -5.10338e-13)
(7.50734e-13 0 -4.30101e-13)
(8.18549e-13 0 -3.45505e-13)
(8.69101e-13 0 -2.58729e-13)
(9.02547e-13 0 -1.71757e-13)
(9.19428e-13 0 -8.63216e-14)
(9.20586e-13 0 -3.87335e-15)
(9.0708e-13 0 7.44224e-14)
(8.80117e-13 0 1.47674e-13)
(8.4098e-13 0 2.15239e-13)
(7.9098e-13 0 2.76691e-13)
(7.31415e-13 0 3.31783e-13)
(6.63544e-13 0 3.80414e-13)
(5.88566e-13 0 4.22585e-13)
(5.07614e-13 0 4.58373e-13)
(4.21749e-13 0 4.879e-13)
(3.31969e-13 0 5.11301e-13)
(2.39211e-13 0 5.28714e-13)
(1.44364e-13 0 5.40252e-13)
(4.8263e-14 0 5.45999e-13)
(-6.67091e-05 0 0.000375072)
(-9.5147e-05 0 0.000381919)
(-0.000138152 0 0.000380065)
(-0.000146652 0 0.000435666)
(-0.000118846 0 0.000567014)
(-0.00028854 0 0.000619576)
(-0.000351979 0 0.000611453)
(-0.000432963 0 0.000535615)
(-0.000437452 0 0.000498362)
(-0.000421373 0 0.000496699)
(-0.000567875 0 0.000317499)
(-0.000560153 0 0.000322096)
(-0.000654861 0 0.000281331)
(-0.000681081 0 0.00037173)
(-0.000778175 0 0.000340494)
(-0.000921394 0 0.000303956)
(-0.00099662 0 0.000361648)
(-0.00103501 0 0.000368726)
(-0.00111059 0 0.000181456)
(-0.00117379 0 0.000132044)
(-0.00120932 0 0.000130831)
(-0.00121813 0 7.16278e-05)
(-0.00122203 0 2.77845e-05)
(-0.00120234 0 -0.000192191)
(-0.00120121 0 -4.68738e-05)
(-0.00119421 0 -0.000106391)
(-0.00117762 0 -0.000171007)
(-0.00106967 0 -0.000247058)
(-0.00098355 0 -0.000209058)
(-0.000919637 0 -0.000246904)
(-0.000878506 0 -0.000318807)
(-0.000739842 0 -0.000529423)
(-0.000737059 0 -0.000255967)
(-0.000558588 0 -0.000352553)
(-0.000318852 0 -0.000473766)
(-0.000342367 0 -0.000259212)
(-0.000100075 0 -0.000356693)
(-4.84404e-05 0 -0.000260388)
(3.51288e-05 0 -9.34045e-05)
(9.53973e-05 0 -9.49639e-05)
(0.00012074 0 -0.000108406)
(0.000133905 0 -0.0001265)
(0.000111949 0 -0.000137474)
(0.000102263 0 -0.000155398)
(0.000112518 0 -0.00017744)
(0.000111959 0 -0.000182621)
(0.000127515 0 -0.000182593)
(0.000161301 0 -0.000173303)
(0.000178586 0 -0.000146545)
(0.000168496 0 -0.000104351)
(0.000190983 0 -1.29314e-05)
(0.000131914 0 -6.30331e-06)
(4.90908e-05 0 -3.6093e-05)
(0.000114668 0 -0.000106225)
(2.5573e-05 0 -0.000183817)
(3.02048e-05 0 -0.000253859)
(-2.09423e-05 0 -0.000290461)
(-7.76768e-05 0 -0.000218395)
(-0.000124325 0 -0.00016372)
(-0.000139411 0 -9.51242e-05)
(-0.000189269 0 0.000261358)
(-0.000208641 0 0.000334357)
(-0.000192857 0 0.000388565)
(-0.000159838 0 0.00041536)
(-0.000221531 0 0.000329613)
(-0.000234671 0 0.000257494)
(-0.000269326 0 0.000167397)
(-0.000304993 0 6.18355e-05)
(-0.000317865 0 -0.000113518)
(-0.000212666 0 -0.000283087)
(-0.000291557 0 -0.000277795)
(-0.000225269 0 -0.000426076)
(-0.000230932 0 -0.000486265)
(-0.000244552 0 -0.000563335)
(-0.000230927 0 -0.000605031)
(-0.00020086 0 -0.000592238)
(-0.000163668 0 -0.000415487)
(-4.14328e-05 0 -0.000221792)
(0.000129535 0 5.95614e-05)
(-0.000396485 0 0.000344891)
(3.24548e-06 0 0.000413331)
(-1.2035e-12 0 -2.72007e-13)
(-2.31102e-12 0 -1.70775e-13)
(-1.52126e-12 0 -2.61901e-13)
(-1.42334e-12 0 -3.60644e-13)
(-1.31906e-12 0 -4.51926e-13)
(-1.21453e-12 0 -5.36022e-13)
(-1.10747e-12 0 -6.15157e-13)
(-9.94051e-13 0 -6.90075e-13)
(-8.71157e-13 0 -7.5976e-13)
(-7.37117e-13 0 -8.21945e-13)
(-5.91833e-13 0 -8.73736e-13)
(-4.3667e-13 0 -9.12174e-13)
(-2.74201e-13 0 -9.34696e-13)
(-1.07896e-13 0 -9.39453e-13)
(5.82429e-14 0 -9.25511e-13)
(2.20042e-13 0 -8.92918e-13)
(3.73483e-13 0 -8.42657e-13)
(5.14974e-13 0 -7.76511e-13)
(6.41537e-13 0 -6.96866e-13)
(7.50918e-13 0 -6.06494e-13)
(8.41617e-13 0 -5.08337e-13)
(9.1286e-13 0 -4.05311e-13)
(9.64522e-13 0 -3.00156e-13)
(9.97025e-13 0 -1.95322e-13)
(1.01122e-12 0 -9.29034e-14)
(1.00827e-12 0 5.38574e-15)
(9.89565e-13 0 9.82108e-14)
(9.56593e-13 0 1.84589e-13)
(9.109e-13 0 2.63848e-13)
(8.54014e-13 0 3.35582e-13)
(7.87411e-13 0 3.99596e-13)
(7.1248e-13 0 4.5586e-13)
(6.30517e-13 0 5.04462e-13)
(5.42712e-13 0 5.45567e-13)
(4.50159e-13 0 5.79379e-13)
(3.53856e-13 0 6.0611e-13)
(2.54725e-13 0 6.25961e-13)
(1.53622e-13 0 6.39096e-13)
(5.13404e-14 0 6.45633e-13)
(-5.02262e-05 0 0.000436616)
(-8.81445e-05 0 0.000440984)
(-0.000130384 0 0.000434478)
(-0.00018331 0 0.00046651)
(-0.000239276 0 0.000575873)
(-0.000338075 0 0.000627159)
(-0.000319307 0 0.000651547)
(-0.000402863 0 0.000570289)
(-0.000411955 0 0.000514049)
(-0.000460641 0 0.000450954)
(-0.000499696 0 0.000407302)
(-0.000555243 0 0.000401555)
(-0.000617258 0 0.000426587)
(-0.00071753 0 0.00040841)
(-0.000787842 0 0.000449017)
(-0.000841181 0 0.000530388)
(-0.00094135 0 0.000457561)
(-0.000988744 0 0.000407019)
(-0.00109295 0 0.000174923)
(-0.00113796 0 0.000152557)
(-0.00115023 0 0.000137702)
(-0.0011354 0 4.99411e-05)
(-0.00113094 0 3.55297e-06)
(-0.00113616 0 -4.41568e-05)
(-0.00111758 0 -0.000115696)
(-0.00109607 0 -0.000139201)
(-0.00105797 0 -0.000317371)
(-0.000988034 0 -0.000351221)
(-0.00094782 0 -0.000229925)
(-0.000875382 0 -0.000321932)
(-0.000858634 0 -0.000358798)
(-0.00070741 0 -0.000599647)
(-0.000664862 0 -0.000466408)
(-0.000547833 0 -0.000488672)
(-0.000449271 0 -0.000471165)
(-0.000321916 0 -0.000462249)
(-0.000131525 0 -0.000472998)
(-9.44116e-05 0 -0.00038357)
(0.000115652 0 -0.000235855)
(0.000210205 0 -0.000132425)
(0.000239948 0 -0.000109788)
(0.000261109 0 -0.000117611)
(0.000284096 0 -9.97504e-05)
(0.000280815 0 -0.000129622)
(0.000275104 0 -0.000165808)
(0.000288793 0 -0.00019137)
(0.000314239 0 -0.000216474)
(0.000356907 0 -0.000197424)
(0.000389118 0 -0.000164346)
(0.000432115 0 -0.00014554)