/*--------------------------------*- C++ -*----------------------------------*\
  =========                 |
  \\      /  F ield         | OpenFOAM: The Open Source CFD Toolbox
   \\    /   O peration     | Website:  https://openfoam.org
    \\  /    A nd           | Version:  6
     \\/     M anipulation  |
\*---------------------------------------------------------------------------*/
FoamFile
{
    version     2.0;
    format      ascii;
    class       volVectorField;
    location    "1900";
    object      U;
}
// * * * * * * * * * * * * * * * * * * * * * * * * * * * * * * * * * * * * * //

dimensions      [0 1 -1 0 0 0 0];

internalField   nonuniform List<vector> 
4800
(
(-6.37849e-09 0 7.64762e-09)
(-2.15361e-08 0 4.95036e-09)
(-3.52243e-08 0 3.8091e-09)
(-4.85112e-08 0 3.28817e-09)
(-6.09803e-08 0 2.94356e-09)
(-7.24364e-08 0 2.64986e-09)
(-8.27239e-08 0 2.36052e-09)
(-9.17328e-08 0 2.05769e-09)
(-9.93969e-08 0 1.73825e-09)
(-1.05681e-07 0 1.38859e-09)
(-1.10584e-07 0 1.02399e-09)
(-1.14139e-07 0 6.35484e-10)
(-1.164e-07 0 2.2341e-10)
(-1.17474e-07 0 -1.35297e-10)
(-1.17514e-07 0 -4.77147e-10)
(-1.16651e-07 0 -7.14366e-10)
(-1.15226e-07 0 -9.47025e-10)
(-1.12796e-07 0 -1.51418e-09)
(-1.0951e-07 0 -1.74298e-09)
(-1.06057e-07 0 -1.73184e-09)
(-1.02515e-07 0 -1.62905e-09)
(-9.82951e-08 0 -2.36019e-09)
(-9.37439e-08 0 -2.10042e-09)
(-8.93809e-08 0 -2.12391e-09)
(-8.48976e-08 0 -2.17915e-09)
(-8.03414e-08 0 -2.16111e-09)
(-7.5873e-08 0 -2.10567e-09)
(-7.14786e-08 0 -2.05562e-09)
(-6.71706e-08 0 -1.99838e-09)
(-6.29522e-08 0 -1.9477e-09)
(-5.88297e-08 0 -1.88947e-09)
(-5.48071e-08 0 -1.83911e-09)
(-5.08803e-08 0 -1.78809e-09)
(-4.70475e-08 0 -1.7472e-09)
(-4.32848e-08 0 -1.71781e-09)
(-3.95882e-08 0 -1.68148e-09)
(-3.59517e-08 0 -1.66677e-09)
(-3.23648e-08 0 -1.64807e-09)
(-2.87853e-08 0 -1.64802e-09)
(-2.52323e-08 0 -1.65178e-09)
(-2.16684e-08 0 -1.669e-09)
(-1.80816e-08 0 -1.67959e-09)
(-1.44844e-08 0 -1.70447e-09)
(-1.08453e-08 0 -1.7311e-09)
(-7.17857e-09 0 -1.74821e-09)
(-3.47134e-09 0 -1.78099e-09)
(2.70728e-10 0 -1.80694e-09)
(4.04175e-09 0 -1.81888e-09)
(7.83007e-09 0 -1.83756e-09)
(1.16218e-08 0 -1.83839e-09)
(1.53977e-08 0 -1.83319e-09)
(1.91343e-08 0 -1.81319e-09)
(2.28028e-08 0 -1.7773e-09)
(2.63719e-08 0 -1.72394e-09)
(2.97989e-08 0 -1.64476e-09)
(3.30543e-08 0 -1.56625e-09)
(3.6125e-08 0 -1.46001e-09)
(3.89481e-08 0 -1.34124e-09)
(4.15187e-08 0 -1.19902e-09)
(4.37729e-08 0 -1.04929e-09)
(4.57188e-08 0 -8.90513e-10)
(4.73178e-08 0 -7.20047e-10)
(4.85626e-08 0 -5.45332e-10)
(4.94414e-08 0 -3.66228e-10)
(4.99499e-08 0 -1.85903e-10)
(5.01036e-08 0 -2.40294e-11)
(4.99219e-08 0 1.36449e-10)
(4.94229e-08 0 2.80991e-10)
(4.8652e-08 0 3.93544e-10)
(4.76835e-08 0 4.70025e-10)
(4.65933e-08 0 5.03371e-10)
(4.54991e-08 0 4.71108e-10)
(4.46162e-08 0 3.10468e-10)
(4.43974e-08 0 -1.31137e-10)
(4.60356e-08 0 -1.4262e-09)
(5.29866e-08 0 -5.28138e-09)
(7.3655e-08 0 -1.76861e-08)
(3.96055e-08 0 2.12124e-08)
(-6.63435e-12 0 1.92493e-08)
(1.35548e-15 0 -6.36211e-17)
(5.27736e-16 0 -3.10193e-20)
(1.053e-15 0 1.38553e-18)
(1.04918e-15 0 2.85377e-18)
(1.04283e-15 0 4.36338e-18)
(1.03363e-15 0 5.77993e-18)
(1.02161e-15 0 7.14477e-18)
(1.00695e-15 0 8.44758e-18)
(9.89784e-16 0 9.66767e-18)
(9.70314e-16 0 1.08154e-17)
(9.48735e-16 0 1.18597e-17)
(9.25181e-16 0 1.28006e-17)
(8.99869e-16 0 1.36381e-17)
(8.72955e-16 0 1.43619e-17)
(8.44676e-16 0 1.49823e-17)
(8.15176e-16 0 1.552e-17)
(7.84602e-16 0 1.59646e-17)
(7.5322e-16 0 1.62955e-17)
(7.21167e-16 0 1.65746e-17)
(6.88545e-16 0 1.67711e-17)
(6.55561e-16 0 1.68952e-17)
(6.22319e-16 0 1.69469e-17)
(5.88901e-16 0 1.69675e-17)
(5.55421e-16 0 1.69262e-17)
(5.21941e-16 0 1.68538e-17)
(4.88574e-16 0 1.67401e-17)
(4.55363e-16 0 1.66057e-17)
(4.22327e-16 0 1.64299e-17)
(3.89519e-16 0 1.62541e-17)
(3.56939e-16 0 1.60473e-17)
(3.24606e-16 0 1.58405e-17)
(2.92594e-16 0 1.56441e-17)
(2.60862e-16 0 1.54476e-17)
(2.29367e-16 0 1.52408e-17)
(1.98079e-16 0 1.50443e-17)
(1.67018e-16 0 1.48996e-17)
(1.36195e-16 0 1.47342e-17)
(1.05559e-16 0 1.45997e-17)
(7.50873e-17 0 1.4455e-17)
(4.48022e-17 0 1.43309e-17)
(1.48582e-17 0 1.40724e-17)
(-6.3899e-09 0 2.17755e-08)
(-2.17509e-08 0 2.35323e-08)
(-3.59433e-08 0 2.34481e-08)
(-4.96005e-08 0 2.24144e-08)
(-6.23373e-08 0 2.0858e-08)
(-7.39857e-08 0 1.89622e-08)
(-8.44098e-08 0 1.68144e-08)
(-9.35025e-08 0 1.45106e-08)
(-1.01186e-07 0 1.21191e-08)
(-1.07434e-07 0 9.71506e-09)
(-1.12262e-07 0 7.36177e-09)
(-1.15704e-07 0 5.08843e-09)
(-1.17816e-07 0 2.9154e-09)
(-1.18725e-07 0 1.12069e-09)
(-1.18613e-07 0 -4.28906e-10)
(-1.17654e-07 0 -1.5012e-09)
(-1.16067e-07 0 -2.52735e-09)
(-1.1338e-07 0 -4.4328e-09)
(-1.10002e-07 0 -5.21025e-09)
(-1.06472e-07 0 -5.22611e-09)
(-1.02809e-07 0 -5.07996e-09)
(-9.84289e-08 0 -7.22049e-09)
(-9.38866e-08 0 -6.54135e-09)
(-8.94478e-08 0 -6.63355e-09)
(-8.49014e-08 0 -6.87596e-09)
(-8.0311e-08 0 -6.82642e-09)
(-7.5825e-08 0 -6.70861e-09)
(-7.14074e-08 0 -6.58747e-09)
(-6.70795e-08 0 -6.45055e-09)
(-6.2848e-08 0 -6.31352e-09)
(-5.87225e-08 0 -6.15677e-09)
(-5.47068e-08 0 -6.00261e-09)
(-5.07873e-08 0 -5.86557e-09)
(-4.69628e-08 0 -5.72871e-09)
(-4.3222e-08 0 -5.6297e-09)
(-3.95382e-08 0 -5.52784e-09)
(-3.59097e-08 0 -5.46204e-09)
(-3.23392e-08 0 -5.38859e-09)
(-2.87687e-08 0 -5.37442e-09)
(-2.52226e-08 0 -5.36758e-09)
(-2.1676e-08 0 -5.37994e-09)
(-1.81052e-08 0 -5.40669e-09)
(-1.4515e-08 0 -5.45042e-09)
(-1.08899e-08 0 -5.50279e-09)
(-7.21885e-09 0 -5.55198e-09)
(-3.49859e-09 0 -5.60723e-09)
(2.48505e-10 0 -5.66955e-09)
(4.03868e-09 0 -5.6887e-09)
(7.849e-09 0 -5.71699e-09)
(1.16613e-08 0 -5.69672e-09)
(1.54562e-08 0 -5.65769e-09)
(1.92121e-08 0 -5.5779e-09)
(2.29015e-08 0 -5.45007e-09)
(2.64973e-08 0 -5.27595e-09)
(2.99636e-08 0 -5.02682e-09)
(3.3263e-08 0 -4.77041e-09)
(3.63751e-08 0 -4.4362e-09)
(3.92293e-08 0 -4.05201e-09)
(4.18202e-08 0 -3.6097e-09)
(4.40986e-08 0 -3.14892e-09)
(4.60682e-08 0 -2.64629e-09)
(4.76862e-08 0 -2.11781e-09)
(4.89426e-08 0 -1.56327e-09)
(4.98158e-08 0 -9.9649e-10)
(5.03147e-08 0 -4.33302e-10)
(5.04489e-08 0 9.16904e-11)
(5.02285e-08 0 6.04125e-10)
(4.96884e-08 0 1.06213e-09)
(4.88698e-08 0 1.43378e-09)
(4.78278e-08 0 1.70306e-09)
(4.66101e-08 0 1.86097e-09)
(4.52893e-08 0 1.8315e-09)
(4.39557e-08 0 1.47963e-09)
(4.26348e-08 0 5.2126e-10)
(4.09826e-08 0 -1.81926e-09)
(3.75629e-08 0 -7.68577e-09)
(2.25009e-08 0 -2.37496e-08)
(1.51897e-08 0 5.40913e-08)
(-3.09657e-12 0 4.41334e-08)
(1.19646e-15 0 -1.48218e-16)
(5.29149e-16 0 -6.20385e-20)
(1.0559e-15 0 4.3944e-18)
(1.05217e-15 0 8.92321e-18)
(1.04576e-15 0 1.3452e-17)
(1.03643e-15 0 1.77844e-17)
(1.02428e-15 0 2.19306e-17)
(1.00947e-15 0 2.58701e-17)
(9.92162e-16 0 2.9551e-17)
(9.72506e-16 0 3.29528e-17)
(9.5072e-16 0 3.60754e-17)
(9.2697e-16 0 3.88775e-17)
(9.0142e-16 0 4.13901e-17)
(8.74309e-16 0 4.35717e-17)
(8.45844e-16 0 4.54329e-17)
(8.16148e-16 0 4.69839e-17)
(7.85377e-16 0 4.82763e-17)
(7.5383e-16 0 4.92689e-17)
(7.21643e-16 0 5.00341e-17)
(6.88876e-16 0 5.05821e-17)
(6.55737e-16 0 5.0913e-17)
(6.22381e-16 0 5.10577e-17)
(5.8887e-16 0 5.1037e-17)
(5.55297e-16 0 5.08613e-17)
(5.21755e-16 0 5.05614e-17)
(4.88336e-16 0 5.01582e-17)
(4.55063e-16 0 4.96929e-17)
(4.21976e-16 0 4.91449e-17)
(3.89137e-16 0 4.85452e-17)
(3.56525e-16 0 4.78938e-17)
(3.24203e-16 0 4.72113e-17)
(2.92202e-16 0 4.65289e-17)
(2.60459e-16 0 4.58878e-17)
(2.28964e-16 0 4.52571e-17)
(1.97738e-16 0 4.46574e-17)
(1.66718e-16 0 4.40991e-17)
(1.35895e-16 0 4.35924e-17)
(1.05279e-16 0 4.31582e-17)
(7.48392e-17 0 4.27756e-17)
(4.44196e-17 0 4.2424e-17)
(1.45894e-17 0 4.20311e-17)
(-6.93496e-09 0 3.59805e-08)
(-2.30284e-08 0 3.53644e-08)
(-3.73226e-08 0 3.40286e-08)
(-5.11429e-08 0 3.21277e-08)
(-6.40997e-08 0 2.97366e-08)
(-7.5967e-08 0 2.6945e-08)
(-8.65641e-08 0 2.38357e-08)
(-9.57714e-08 0 2.05175e-08)
(-1.03524e-07 0 1.70627e-08)
(-1.09788e-07 0 1.35801e-08)
(-1.14569e-07 0 1.01506e-08)
(-1.1791e-07 0 6.79936e-09)
(-1.19884e-07 0 3.58774e-09)
(-1.20644e-07 0 8.95511e-10)
(-1.20381e-07 0 -1.42799e-09)
(-1.19314e-07 0 -2.77782e-09)
(-1.17481e-07 0 -4.98686e-09)
(-1.14405e-07 0 -7.72998e-09)
(-1.10919e-07 0 -8.80601e-09)
(-1.07302e-07 0 -8.72147e-09)
(-1.0336e-07 0 -9.08282e-09)
(-9.86571e-08 0 -1.18986e-08)
(-9.41114e-08 0 -1.1011e-08)
(-8.95421e-08 0 -1.10961e-08)
(-8.48718e-08 0 -1.1561e-08)
(-8.02178e-08 0 -1.13602e-08)
(-7.56863e-08 0 -1.11821e-08)
(-7.12332e-08 0 -1.0962e-08)
(-6.68836e-08 0 -1.07261e-08)
(-6.26496e-08 0 -1.04696e-08)
(-5.85338e-08 0 -1.01977e-08)
(-5.45228e-08 0 -9.93809e-09)
(-5.06114e-08 0 -9.71031e-09)
(-4.68015e-08 0 -9.4755e-09)
(-4.30763e-08 0 -9.29628e-09)
(-3.94224e-08 0 -9.13995e-09)
(-3.58297e-08 0 -9.01918e-09)
(-3.22923e-08 0 -8.90346e-09)
(-2.87404e-08 0 -8.89362e-09)
(-2.5223e-08 0 -8.8828e-09)
(-2.16934e-08 0 -8.89497e-09)
(-1.81436e-08 0 -8.94745e-09)
(-1.45808e-08 0 -9.03407e-09)
(-1.09546e-08 0 -9.12091e-09)
(-7.28701e-09 0 -9.23664e-09)
(-3.56316e-09 0 -9.31808e-09)
(1.88624e-10 0 -9.43266e-09)
(3.99548e-09 0 -9.48879e-09)
(7.83147e-09 0 -9.53023e-09)
(1.16811e-08 0 -9.52027e-09)
(1.55283e-08 0 -9.45284e-09)
(1.93444e-08 0 -9.3349e-09)
(2.31017e-08 0 -9.12361e-09)
(2.67625e-08 0 -8.84303e-09)
(3.02918e-08 0 -8.44189e-09)
(3.36665e-08 0 -8.02329e-09)
(3.68508e-08 0 -7.4592e-09)
(3.97685e-08 0 -6.81396e-09)
(4.24329e-08 0 -6.07752e-09)
(4.47634e-08 0 -5.30941e-09)
(4.67697e-08 0 -4.46325e-09)
(4.841e-08 0 -3.58106e-09)
(4.96713e-08 0 -2.64854e-09)
(5.05476e-08 0 -1.70395e-09)
(5.10328e-08 0 -7.6491e-10)
(5.11223e-08 0 1.33984e-10)
(5.08383e-08 0 9.84729e-10)
(5.02209e-08 0 1.74619e-09)
(4.92969e-08 0 2.37741e-09)
(4.81124e-08 0 2.85989e-09)
(4.66959e-08 0 3.19533e-09)
(4.50918e-08 0 3.25972e-09)
(4.32876e-08 0 3.01247e-09)
(4.11028e-08 0 2.29294e-09)
(3.79188e-08 0 9.76428e-10)
(3.22179e-08 0 -1.0051e-09)
(1.83216e-08 0 -2.22821e-09)
(9.24086e-09 0 5.47188e-08)
(-2.46594e-12 0 5.4077e-08)
(1.20683e-15 0 -1.90613e-16)
(5.32216e-16 0 -7.23783e-20)
(1.06202e-15 0 7.6204e-18)
(1.05824e-15 0 1.53235e-17)
(1.05169e-15 0 2.28922e-17)
(1.04211e-15 0 3.02231e-17)
(1.02968e-15 0 3.72335e-17)
(1.01458e-15 0 4.38406e-17)
(9.96887e-16 0 4.99927e-17)
(9.76828e-16 0 5.56899e-17)
(9.5466e-16 0 6.08908e-17)
(9.30506e-16 0 6.55644e-17)
(9.04543e-16 0 6.969e-17)
(8.77008e-16 0 7.32985e-17)
(8.48098e-16 0 7.64005e-17)
(8.1802e-16 0 7.89544e-17)
(7.86907e-16 0 8.10327e-17)
(7.54978e-16 0 8.26664e-17)
(7.2246e-16 0 8.38865e-17)
(6.89434e-16 0 8.47136e-17)
(6.56047e-16 0 8.51686e-17)
(6.22422e-16 0 8.53547e-17)
(5.88684e-16 0 8.52306e-17)
(5.54935e-16 0 8.48791e-17)
(5.21238e-16 0 8.43001e-17)
(4.87706e-16 0 8.35659e-17)
(4.5435e-16 0 8.26457e-17)
(4.2118e-16 0 8.16634e-17)
(3.88268e-16 0 8.05881e-17)
(3.55615e-16 0 7.94507e-17)
(3.23262e-16 0 7.82513e-17)
(2.91271e-16 0 7.70519e-17)
(2.59569e-16 0 7.58835e-17)
(2.28126e-16 0 7.47668e-17)
(1.96931e-16 0 7.37121e-17)
(1.65953e-16 0 7.27092e-17)
(1.35244e-16 0 7.182e-17)
(1.04742e-16 0 7.10652e-17)
(7.43532e-17 0 7.04448e-17)
(4.40474e-17 0 6.99381e-17)
(1.4455e-17 0 6.96383e-17)
(-7.22675e-09 0 5.20011e-08)
(-2.41159e-08 0 5.10783e-08)
(-3.91838e-08 0 4.92174e-08)
(-5.36813e-08 0 4.65104e-08)
(-6.71961e-08 0 4.3064e-08)
(-7.95101e-08 0 3.90062e-08)
(-9.04505e-08 0 3.44699e-08)
(-9.98784e-08 0 2.96093e-08)
(-1.07723e-07 0 2.4572e-08)
(-1.13967e-07 0 1.9482e-08)
(-1.18624e-07 0 1.44741e-08)
(-1.21759e-07 0 9.57743e-09)
(-1.23462e-07 0 4.99356e-09)
(-1.23902e-07 0 1.0513e-09)
(-1.23309e-07 0 -2.18143e-09)
(-1.22005e-07 0 -3.99019e-09)
(-1.19682e-07 0 -7.72683e-09)
(-1.15997e-07 0 -1.12927e-08)
(-1.12353e-07 0 -1.26027e-08)
(-1.08601e-07 0 -1.22383e-08)
(-1.04133e-07 0 -1.36088e-08)
(-9.89942e-08 0 -1.65334e-08)
(-9.44395e-08 0 -1.56333e-08)
(-8.96569e-08 0 -1.56934e-08)
(-8.47912e-08 0 -1.64296e-08)
(-8.00737e-08 0 -1.59527e-08)
(-7.54672e-08 0 -1.57253e-08)
(-7.09698e-08 0 -1.53877e-08)
(-6.65893e-08 0 -1.50428e-08)
(-6.23451e-08 0 -1.46459e-08)
(-5.82297e-08 0 -1.42665e-08)
(-5.42259e-08 0 -1.38999e-08)
(-5.03395e-08 0 -1.35587e-08)
(-4.65619e-08 0 -1.32338e-08)
(-4.28671e-08 0 -1.2963e-08)
(-3.92541e-08 0 -1.27428e-08)
(-3.5711e-08 0 -1.25682e-08)
(-3.22162e-08 0 -1.24138e-08)
(-2.8703e-08 0 -1.24016e-08)
(-2.52391e-08 0 -1.23851e-08)
(-2.17487e-08 0 -1.2422e-08)
(-1.82006e-08 0 -1.24834e-08)
(-1.46761e-08 0 -1.26193e-08)
(-1.10673e-08 0 -1.27549e-08)
(-7.41748e-09 0 -1.29252e-08)
(-3.68408e-09 0 -1.30628e-08)
(9.2545e-11 0 -1.32274e-08)
(3.92686e-09 0 -1.33292e-08)
(7.80713e-09 0 -1.33922e-08)
(1.17143e-08 0 -1.34053e-08)
(1.56332e-08 0 -1.33217e-08)
(1.95262e-08 0 -1.31612e-08)
(2.33712e-08 0 -1.28845e-08)
(2.71442e-08 0 -1.24989e-08)
(3.07937e-08 0 -1.19442e-08)
(3.42763e-08 0 -1.13557e-08)
(3.75499e-08 0 -1.05497e-08)
(4.057e-08 0 -9.64774e-09)
(4.33272e-08 0 -8.60874e-09)
(4.57513e-08 0 -7.51094e-09)
(4.78188e-08 0 -6.30161e-09)
(4.95199e-08 0 -5.03944e-09)
(5.08093e-08 0 -3.70606e-09)
(5.16835e-08 0 -2.3534e-09)
(5.21345e-08 0 -1.00639e-09)
(5.21728e-08 0 3.01351e-10)
(5.18149e-08 0 1.51933e-09)
(5.1085e-08 0 2.62666e-09)
(5.00069e-08 0 3.56691e-09)
(4.86208e-08 0 4.3121e-09)
(4.69758e-08 0 4.87428e-09)
(4.51034e-08 0 5.12454e-09)
(4.29951e-08 0 5.10568e-09)
(4.0571e-08 0 4.83253e-09)
(3.76147e-08 0 4.52467e-09)
(3.40925e-08 0 4.87916e-09)
(3.00261e-08 0 8.35771e-09)
(7.38627e-09 0 6.59459e-08)
(-1.96115e-12 0 6.08887e-08)
(1.27845e-15 0 -4.025e-16)
(5.36865e-16 0 -1.96455e-19)
(1.0713e-15 0 1.08464e-17)
(1.06745e-15 0 2.17445e-17)
(1.06065e-15 0 3.24565e-17)
(1.05075e-15 0 4.28273e-17)
(1.03788e-15 0 5.27534e-17)
(1.02224e-15 0 6.20799e-17)
(1.00401e-15 0 7.0786e-17)
(9.83394e-16 0 7.882e-17)
(9.60595e-16 0 8.61198e-17)
(9.35769e-16 0 9.26649e-17)
(9.09154e-16 0 9.84138e-17)
(8.8102e-16 0 1.03429e-16)
(8.51489e-16 0 1.07689e-16)
(8.2078e-16 0 1.11245e-16)
(7.8911e-16 0 1.14079e-16)
(7.56684e-16 0 1.16312e-16)
(7.2368e-16 0 1.17935e-16)
(6.90169e-16 0 1.19011e-16)
(6.56378e-16 0 1.1959e-16)
(6.22443e-16 0 1.19734e-16)
(5.88405e-16 0 1.19507e-16)
(5.54376e-16 0 1.18918e-16)
(5.20452e-16 0 1.18059e-16)
(4.86682e-16 0 1.16974e-16)
(4.53161e-16 0 1.15609e-16)
(4.19918e-16 0 1.1411e-16)
(3.86914e-16 0 1.12507e-16)
(3.54199e-16 0 1.10832e-16)
(3.21835e-16 0 1.09115e-16)
(2.89834e-16 0 1.07409e-16)
(2.58153e-16 0 1.05693e-16)
(2.26772e-16 0 1.04039e-16)
(1.9568e-16 0 1.02488e-16)
(1.64826e-16 0 1.01071e-16)
(1.34251e-16 0 9.97994e-17)
(1.03904e-16 0 9.8724e-17)
(7.36915e-17 0 9.78451e-17)
(4.36131e-17 0 9.71834e-17)
(1.42999e-17 0 9.67801e-17)
(-7.67173e-09 0 6.86974e-08)
(-2.5693e-08 0 6.74658e-08)
(-4.18245e-08 0 6.49833e-08)
(-5.72812e-08 0 6.13393e-08)
(-7.16029e-08 0 5.67008e-08)
(-8.45633e-08 0 5.12251e-08)
(-9.59671e-08 0 4.51098e-08)
(-1.0568e-07 0 3.85619e-08)
(-1.13634e-07 0 3.18062e-08)
(-1.19821e-07 0 2.50058e-08)
(-1.24268e-07 0 1.83273e-08)
(-1.27086e-07 0 1.18016e-08)
(-1.28374e-07 0 5.96565e-09)
(-1.28387e-07 0 6.09072e-10)
(-1.27365e-07 0 -3.23403e-09)
(-1.25474e-07 0 -4.95625e-09)
(-1.22365e-07 0 -1.18296e-08)
(-1.18248e-07 0 -1.55417e-08)
(-1.1427e-07 0 -1.62445e-08)
(-1.10198e-07 0 -1.50071e-08)
(-1.04886e-07 0 -2.07762e-08)
(-9.96237e-08 0 -2.06346e-08)
(-9.47609e-08 0 -2.05219e-08)
(-8.9735e-08 0 -2.05917e-08)
(-8.4647e-08 0 -2.14133e-08)
(-7.98613e-08 0 -2.06362e-08)
(-7.51304e-08 0 -2.03416e-08)
(-7.0571e-08 0 -1.98642e-08)
(-6.61599e-08 0 -1.93778e-08)
(-6.19017e-08 0 -1.88331e-08)
(-5.77803e-08 0 -1.8331e-08)
(-5.38065e-08 0 -1.78296e-08)
(-4.99656e-08 0 -1.73687e-08)
(-4.62337e-08 0 -1.69534e-08)
(-4.25939e-08 0 -1.65854e-08)
(-3.90279e-08 0 -1.62976e-08)
(-3.55514e-08 0 -1.60564e-08)
(-3.2111e-08 0 -1.5889e-08)
(-2.8648e-08 0 -1.58588e-08)
(-2.52392e-08 0 -1.58306e-08)
(-2.18333e-08 0 -1.5903e-08)
(-1.8322e-08 0 -1.59941e-08)
(-1.48394e-08 0 -1.6174e-08)
(-1.12481e-08 0 -1.63801e-08)
(-7.59902e-09 0 -1.66111e-08)
(-3.85689e-09 0 -1.68312e-08)
(-5.43767e-11 0 -1.70446e-08)
(3.81233e-09 0 -1.72154e-08)
(7.76118e-09 0 -1.73217e-08)
(1.17493e-08 0 -1.73645e-08)
(1.57713e-08 0 -1.72961e-08)
(1.9787e-08 0 -1.70871e-08)
(2.37651e-08 0 -1.67713e-08)
(2.76709e-08 0 -1.62827e-08)
(3.1452e-08 0 -1.558e-08)
(3.50895e-08 0 -1.48099e-08)
(3.85108e-08 0 -1.37714e-08)
(4.16864e-08 0 -1.26006e-08)
(4.456e-08 0 -1.12641e-08)
(4.71141e-08 0 -9.79378e-09)
(4.92499e-08 0 -8.21867e-09)
(5.10142e-08 0 -6.5519e-09)
(5.23371e-08 0 -4.78827e-09)
(5.3216e-08 0 -3.00421e-09)
(5.36514e-08 0 -1.21635e-09)
(5.36237e-08 0 5.26628e-10)
(5.31519e-08 0 2.14016e-09)
(5.2269e-08 0 3.64464e-09)
(5.10113e-08 0 4.92664e-09)
(4.93953e-08 0 5.99185e-09)
(4.74828e-08 0 6.7802e-09)
(4.53417e-08 0 7.26042e-09)
(4.30251e-08 0 7.43037e-09)
(4.06013e-08 0 7.40693e-09)
(3.81528e-08 0 7.47882e-09)
(3.60293e-08 0 8.22802e-09)
(3.34888e-08 0 1.14287e-08)
(6.70274e-09 0 9.04968e-08)
(-2.07132e-12 0 6.8747e-08)
(1.28877e-15 0 -7.09704e-16)
(5.43262e-16 0 -3.82571e-19)
(1.08397e-15 0 1.41241e-17)
(1.07987e-15 0 2.84033e-17)
(1.07277e-15 0 4.23827e-17)
(1.06241e-15 0 5.58967e-17)
(1.04894e-15 0 6.87697e-17)
(1.03259e-15 0 8.0919e-17)
(1.01361e-15 0 9.22513e-17)
(9.92162e-16 0 1.02612e-16)
(9.68494e-16 0 1.12031e-16)
(9.428e-16 0 1.20438e-16)
(9.15317e-16 0 1.27861e-16)
(8.86283e-16 0 1.34251e-16)
(8.55905e-16 0 1.39628e-16)
(8.24399e-16 0 1.44116e-16)
(7.91974e-16 0 1.47672e-16)
(7.58835e-16 0 1.50433e-16)
(7.25158e-16 0 1.52387e-16)
(6.91109e-16 0 1.53669e-16)
(6.56781e-16 0 1.543e-16)
(6.22329e-16 0 1.54373e-16)
(5.87867e-16 0 1.53928e-16)
(5.53487e-16 0 1.53039e-16)
(5.19294e-16 0 1.51798e-16)
(4.85266e-16 0 1.50268e-16)
(4.51486e-16 0 1.48448e-16)
(4.18057e-16 0 1.46401e-16)
(3.8497e-16 0 1.44209e-16)
(3.52224e-16 0 1.41924e-16)
(3.1984e-16 0 1.39649e-16)
(2.87838e-16 0 1.37322e-16)
(2.56188e-16 0 1.35048e-16)
(2.2491e-16 0 1.32856e-16)
(1.93953e-16 0 1.30777e-16)
(1.63265e-16 0 1.28906e-16)
(1.32907e-16 0 1.27241e-16)
(1.02777e-16 0 1.25804e-16)
(7.28022e-17 0 1.24656e-16)
(4.29927e-17 0 1.23808e-16)
(1.40621e-17 0 1.23281e-16)
(-8.3098e-09 0 8.65263e-08)
(-2.78475e-08 0 8.4851e-08)
(-4.53042e-08 0 8.15984e-08)
(-6.19836e-08 0 7.68673e-08)
(-7.7349e-08 0 7.0881e-08)
(-9.11279e-08 0 6.38243e-08)
(-1.03114e-07 0 5.59664e-08)
(-1.13185e-07 0 4.75796e-08)
(-1.21267e-07 0 3.89398e-08)
(-1.27345e-07 0 3.02758e-08)
(-1.31503e-07 0 2.17699e-08)
(-1.33915e-07 0 1.35162e-08)
(-1.34553e-07 0 6.64668e-09)
(-1.34028e-07 0 -7.50986e-10)
(-1.32711e-07 0 -4.78617e-09)
(-1.29883e-07 0 -7.81159e-09)
(-1.25464e-07 0 -1.57926e-08)
(-1.21135e-07 0 -1.96558e-08)
(-1.16713e-07 0 -2.06064e-08)
(-1.11821e-07 0 -1.95778e-08)
(-1.05707e-07 0 -2.65991e-08)
(-1.00372e-07 0 -2.55362e-08)
(-9.50575e-08 0 -2.56424e-08)
(-8.97108e-08 0 -2.58706e-08)
(-8.44263e-08 0 -2.63222e-08)
(-7.95101e-08 0 -2.55128e-08)
(-7.46603e-08 0 -2.50291e-08)
(-7.00329e-08 0 -2.43913e-08)
(-6.55862e-08 0 -2.37231e-08)
(-6.13127e-08 0 -2.30359e-08)
(-5.72049e-08 0 -2.2375e-08)
(-5.32657e-08 0 -2.17201e-08)
(-4.94586e-08 0 -2.11383e-08)
(-4.57892e-08 0 -2.061e-08)
(-4.22304e-08 0 -2.01495e-08)
(-3.87215e-08 0 -1.97783e-08)
(-3.53572e-08 0 -1.94596e-08)
(-3.19846e-08 0 -1.93126e-08)
(-2.86187e-08 0 -1.92393e-08)
(-2.52672e-08 0 -1.9214e-08)
(-2.19261e-08 0 -1.93144e-08)
(-1.84973e-08 0 -1.94688e-08)
(-1.50135e-08 0 -1.9687e-08)
(-1.14908e-08 0 -1.99859e-08)
(-7.85883e-09 0 -2.02931e-08)
(-4.12596e-09 0 -2.06104e-08)
(-2.81722e-10 0 -2.0892e-08)
(3.62065e-09 0 -2.11598e-08)
(7.64602e-09 0 -2.13377e-08)
(1.17486e-08 0 -2.14272e-08)
(1.58885e-08 0 -2.13866e-08)
(2.00522e-08 0 -2.11668e-08)
(2.42099e-08 0 -2.08196e-08)
(2.83003e-08 0 -2.02038e-08)
(3.22716e-08 0 -1.94042e-08)
(3.61082e-08 0 -1.84537e-08)
(3.97222e-08 0 -1.71463e-08)
(4.3079e-08 0 -1.57196e-08)
(4.6133e-08 0 -1.40573e-08)
(4.88382e-08 0 -1.22115e-08)
(5.11144e-08 0 -1.02034e-08)
(5.29476e-08 0 -8.15017e-09)
(5.43487e-08 0 -5.89058e-09)
(5.5237e-08 0 -3.63922e-09)
(5.56207e-08 0 -1.38062e-09)
(5.55098e-08 0 8.37024e-10)
(5.49182e-08 0 2.94194e-09)
(5.38666e-08 0 4.83361e-09)
(5.23706e-08 0 6.50318e-09)
(5.04811e-08 0 7.93257e-09)
(4.82559e-08 0 9.00437e-09)
(4.57726e-08 0 9.69354e-09)
(4.3166e-08 0 9.96071e-09)
(4.06396e-08 0 9.88167e-09)
(3.84732e-08 0 9.61551e-09)
(3.73052e-08 0 9.43968e-09)
(3.38592e-08 0 1.5795e-08)
(3.72868e-09 0 1.18558e-07)
(-2.0427e-12 0 7.2406e-08)
(1.31877e-15 0 -1.10192e-15)
(5.5138e-16 0 -5.89366e-19)
(1.10011e-15 0 1.74845e-17)
(1.0957e-15 0 3.5362e-17)
(1.08813e-15 0 5.27741e-17)
(1.07715e-15 0 6.95659e-17)
(1.06293e-15 0 8.55098e-17)
(1.04571e-15 0 1.00575e-16)
(1.0257e-15 0 1.14534e-16)
(1.00318e-15 0 1.27334e-16)
(9.7841e-16 0 1.38894e-16)
(9.51589e-16 0 1.49161e-16)
(9.22979e-16 0 1.58178e-16)
(8.92807e-16 0 1.65932e-16)
(8.61364e-16 0 1.72457e-16)
(8.28825e-16 0 1.77792e-16)
(7.95417e-16 0 1.82011e-16)
(7.61389e-16 0 1.85206e-16)
(7.26916e-16 0 1.87439e-16)
(6.92102e-16 0 1.88814e-16)
(6.57112e-16 0 1.89393e-16)
(6.22081e-16 0 1.8929e-16)
(5.87071e-16 0 1.88556e-16)
(5.52236e-16 0 1.87305e-16)
(5.1767e-16 0 1.85609e-16)
(4.83332e-16 0 1.835e-16)
(4.49294e-16 0 1.81111e-16)
(4.15669e-16 0 1.78464e-16)
(3.82437e-16 0 1.75641e-16)
(3.49649e-16 0 1.72705e-16)
(3.17234e-16 0 1.69727e-16)
(2.85233e-16 0 1.66739e-16)
(2.53686e-16 0 1.63823e-16)
(2.22501e-16 0 1.61031e-16)
(1.9173e-16 0 1.58415e-16)
(1.613e-16 0 1.56048e-16)
(1.3116e-16 0 1.53969e-16)
(1.01319e-16 0 1.5217e-16)
(7.16959e-17 0 1.50712e-16)
(4.22483e-17 0 1.49678e-16)
(1.37829e-17 0 1.49048e-16)
(-9.13597e-09 0 1.06034e-07)
(-3.06243e-08 0 1.03877e-07)
(-4.97837e-08 0 9.97262e-08)
(-6.79939e-08 0 9.37321e-08)
(-8.4656e-08 0 8.61526e-08)
(-9.94579e-08 0 7.72559e-08)
(-1.1218e-07 0 6.73765e-08)
(-1.22664e-07 0 5.68793e-08)
(-1.30841e-07 0 4.60865e-08)
(-1.36726e-07 0 3.53192e-08)
(-1.4061e-07 0 2.45308e-08)
(-1.42259e-07 0 1.52804e-08)
(-1.42175e-07 0 5.7219e-09)
(-1.41131e-07 0 -2.34632e-09)
(-1.39072e-07 0 -5.36055e-09)
(-1.34983e-07 0 -1.32608e-08)
(-1.29259e-07 0 -2.07365e-08)
(-1.24601e-07 0 -2.4649e-08)
(-1.1965e-07 0 -2.45911e-08)
(-1.13532e-07 0 -2.54364e-08)
(-1.06345e-07 0 -3.31236e-08)
(-1.01198e-07 0 -3.06987e-08)
(-9.52883e-08 0 -3.10456e-08)
(-8.95146e-08 0 -3.15997e-08)
(-8.40561e-08 0 -3.13395e-08)
(-7.89735e-08 0 -3.05302e-08)
(-7.40189e-08 0 -2.97967e-08)
(-6.93162e-08 0 -2.89679e-08)
(-6.48309e-08 0 -2.80946e-08)
(-6.05644e-08 0 -2.72199e-08)
(-5.64908e-08 0 -2.63767e-08)
(-5.25905e-08 0 -2.55705e-08)
(-4.88467e-08 0 -2.4845e-08)
(-4.52505e-08 0 -2.41858e-08)
(-4.17844e-08 0 -2.363e-08)
(-3.8364e-08 0 -2.31739e-08)
(-3.5093e-08 0 -2.27657e-08)
(-3.18274e-08 0 -2.2632e-08)
(-2.85962e-08 0 -2.25389e-08)
(-2.5289e-08 0 -2.25156e-08)
(-2.20587e-08 0 -2.26511e-08)
(-1.87338e-08 0 -2.28896e-08)
(-1.52624e-08 0 -2.31439e-08)
(-1.18295e-08 0 -2.35507e-08)
(-8.21243e-09 0 -2.39628e-08)
(-4.49382e-09 0 -2.44031e-08)
(-6.09752e-10 0 -2.47961e-08)
(3.37818e-09 0 -2.51646e-08)
(7.4798e-09 0 -2.546e-08)
(1.17081e-08 0 -2.56203e-08)
(1.60095e-08 0 -2.56267e-08)
(2.03568e-08 0 -2.54321e-08)
(2.47098e-08 0 -2.5056e-08)
(2.90179e-08 0 -2.43466e-08)
(3.32428e-08 0 -2.34557e-08)
(3.73303e-08 0 -2.22926e-08)
(4.11946e-08 0 -2.07763e-08)
(4.47959e-08 0 -1.9035e-08)
(4.80724e-08 0 -1.70418e-08)
(5.09534e-08 0 -1.47989e-08)
(5.34132e-08 0 -1.23217e-08)
(5.53872e-08 0 -9.78748e-09)
(5.68238e-08 0 -7.07006e-09)
(5.77398e-08 0 -4.27243e-09)
(5.80991e-08 0 -1.4853e-09)
(5.7905e-08 0 1.33713e-09)
(5.71591e-08 0 3.82702e-09)
(5.58983e-08 0 6.23121e-09)
(5.41332e-08 0 8.39202e-09)
(5.18944e-08 0 1.02126e-08)
(4.9255e-08 0 1.16252e-08)
(4.63158e-08 0 1.25361e-08)
(4.32176e-08 0 1.28713e-08)
(4.02605e-08 0 1.25128e-08)
(3.80059e-08 0 1.14348e-08)
(3.65376e-08 0 1.01239e-08)
(1.8819e-08 0 3.76095e-08)
(1.25519e-09 0 1.49024e-07)
(-2.09898e-12 0 7.0696e-08)
(1.30873e-15 0 -1.55737e-15)
(5.61351e-16 0 -8.16841e-19)
(1.11991e-15 0 2.10311e-17)
(1.11514e-15 0 4.26722e-17)
(1.10695e-15 0 6.37136e-17)
(1.09516e-15 0 8.39588e-17)
(1.07996e-15 0 1.03211e-16)
(1.06162e-15 0 1.21265e-16)
(1.04037e-15 0 1.37953e-16)
(1.01651e-15 0 1.53225e-16)
(9.90332e-16 0 1.66966e-16)
(9.62084e-16 0 1.79126e-16)
(9.32088e-16 0 1.89724e-16)
(9.00572e-16 0 1.98792e-16)
(8.67775e-16 0 2.06361e-16)
(8.33964e-16 0 2.12451e-16)
(7.99387e-16 0 2.17269e-16)
(7.64253e-16 0 2.20806e-16)
(7.28757e-16 0 2.23194e-16)
(6.93053e-16 0 2.24559e-16)
(6.57257e-16 0 2.25003e-16)
(6.21502e-16 0 2.2459e-16)
(5.85902e-16 0 2.23463e-16)
(5.5054e-16 0 2.21705e-16)
(5.15478e-16 0 2.19461e-16)
(4.80757e-16 0 2.16732e-16)
(4.4646e-16 0 2.1365e-16)
(4.12598e-16 0 2.1029e-16)
(3.79211e-16 0 2.06712e-16)
(3.4632e-16 0 2.03032e-16)
(3.13884e-16 0 1.99278e-16)
(2.81945e-16 0 1.95577e-16)
(2.50491e-16 0 1.91978e-16)
(2.19492e-16 0 1.88514e-16)
(1.88949e-16 0 1.8533e-16)
(1.58819e-16 0 1.82404e-16)
(1.2903e-16 0 1.7986e-16)
(9.95409e-17 0 1.77709e-16)
(7.0331e-17 0 1.75983e-16)
(4.13384e-17 0 1.74752e-16)
(1.34417e-17 0 1.74028e-16)
(-1.01889e-08 0 1.27685e-07)
(-3.41392e-08 0 1.24963e-07)
(-5.54244e-08 0 1.1975e-07)
(-7.55471e-08 0 1.12253e-07)
(-9.38268e-08 0 1.02771e-07)
(-1.09877e-07 0 9.17017e-08)
(-1.23471e-07 0 7.94409e-08)
(-1.3441e-07 0 6.64705e-08)
(-1.42607e-07 0 5.32348e-08)
(-1.48449e-07 0 3.96218e-08)
(-1.51639e-07 0 2.7441e-08)
(-1.52289e-07 0 1.58785e-08)
(-1.51482e-07 0 3.78809e-09)
(-1.50024e-07 0 -3.885e-09)
(-1.46275e-07 0 -7.27501e-09)
(-1.40287e-07 0 -2.0459e-08)
(-1.34165e-07 0 -2.62604e-08)
(-1.28491e-07 0 -3.02068e-08)
(-1.2282e-07 0 -2.69983e-08)
(-1.14398e-07 0 -3.80768e-08)
(-1.07849e-07 0 -3.64166e-08)
(-1.0158e-07 0 -3.71633e-08)
(-9.53935e-08 0 -3.66528e-08)
(-8.90349e-08 0 -3.79521e-08)
(-8.3579e-08 0 -3.64341e-08)
(-7.81809e-08 0 -3.56988e-08)
(-7.31405e-08 0 -3.46702e-08)
(-6.83704e-08 0 -3.35832e-08)
(-6.3876e-08 0 -3.24731e-08)
(-5.96182e-08 0 -3.13813e-08)
(-5.55774e-08 0 -3.03401e-08)
(-5.17484e-08 0 -2.93576e-08)
(-4.8089e-08 0 -2.84689e-08)
(-4.45878e-08 0 -2.76757e-08)
(-4.12212e-08 0 -2.70108e-08)
(-3.79601e-08 0 -2.64449e-08)
(-3.47753e-08 0 -2.59683e-08)
(-3.16468e-08 0 -2.58295e-08)
(-2.854e-08 0 -2.5716e-08)
(-2.53896e-08 0 -2.57179e-08)
(-2.22416e-08 0 -2.58786e-08)
(-1.9049e-08 0 -2.62083e-08)
(-1.57088e-08 0 -2.65795e-08)
(-1.22273e-08 0 -2.70354e-08)
(-8.70497e-09 0 -2.76162e-08)
(-4.97781e-09 0 -2.82094e-08)
(-1.08079e-09 0 -2.87666e-08)
(3.02501e-09 0 -2.9244e-08)
(7.1943e-09 0 -2.96936e-08)
(1.15661e-08 0 -2.99723e-08)
(1.60619e-08 0 -3.00627e-08)
(2.06501e-08 0 -2.99195e-08)
(2.52591e-08 0 -2.95443e-08)
(2.98484e-08 0 -2.87353e-08)
(3.43792e-08 0 -2.77975e-08)
(3.87662e-08 0 -2.63949e-08)
(4.29188e-08 0 -2.46817e-08)
(4.68224e-08 0 -2.26149e-08)
(5.03755e-08 0 -2.02647e-08)
(5.35057e-08 0 -1.75514e-08)
(5.61718e-08 0 -1.46686e-08)
(5.83071e-08 0 -1.1581e-08)
(5.98626e-08 0 -8.24396e-09)
(6.07987e-08 0 -4.89867e-09)
(6.11243e-08 0 -1.45713e-09)
(6.08326e-08 0 1.79183e-09)
(5.99359e-08 0 4.96764e-09)
(5.84238e-08 0 7.92778e-09)
(5.63293e-08 0 1.05986e-08)
(5.37014e-08 0 1.29012e-08)
(5.05753e-08 0 1.4733e-08)
(4.70117e-08 0 1.59699e-08)
(4.31258e-08 0 1.64764e-08)
(3.9209e-08 0 1.58847e-08)
(3.6157e-08 0 1.36038e-08)
(3.70603e-08 0 7.84534e-09)
(6.08507e-09 0 7.68596e-08)
(-6.43693e-10 0 1.2273e-07)
(-1.55746e-12 0 6.99983e-08)
(1.36968e-15 0 -1.92853e-15)
(5.73262e-16 0 -1.02364e-18)
(1.14359e-15 0 2.48671e-17)
(1.13839e-15 0 5.0489e-17)
(1.12942e-15 0 7.53872e-17)
(1.11664e-15 0 9.93134e-17)
(1.10021e-15 0 1.2203e-16)
(1.08046e-15 0 1.43237e-16)
(1.05767e-15 0 1.62799e-16)
(1.03217e-15 0 1.80605e-16)
(1.0043e-15 0 1.96538e-16)
(9.74357e-16 0 2.10611e-16)
(9.42645e-16 0 2.22801e-16)
(9.09433e-16 0 2.33068e-16)
(8.75012e-16 0 2.41557e-16)
(8.39733e-16 0 2.48361e-16)
(8.03792e-16 0 2.53603e-16)
(7.67334e-16 0 2.57377e-16)
(7.30649e-16 0 2.59807e-16)
(6.93901e-16 0 2.61027e-16)
(6.57143e-16 0 2.61151e-16)
(6.2052e-16 0 2.60334e-16)
(5.84196e-16 0 2.58659e-16)
(5.48235e-16 0 2.56292e-16)
(5.12666e-16 0 2.53324e-16)
(4.77521e-16 0 2.4984e-16)
(4.42862e-16 0 2.45942e-16)
(4.08731e-16 0 2.41764e-16)
(3.75178e-16 0 2.3736e-16)
(3.42215e-16 0 2.3282e-16)
(3.0979e-16 0 2.28261e-16)
(2.77933e-16 0 2.23783e-16)
(2.46614e-16 0 2.1943e-16)
(2.15853e-16 0 2.15294e-16)
(1.85609e-16 0 2.11458e-16)
(1.55831e-16 0 2.07974e-16)
(1.26476e-16 0 2.04934e-16)
(9.74522e-17 0 2.0239e-16)
(6.87491e-17 0 2.00416e-16)
(4.02837e-17 0 1.9902e-16)
(1.30488e-17 0 1.98244e-16)
(-1.15023e-08 0 1.52021e-07)
(-3.85272e-08 0 1.48616e-07)
(-6.24766e-08 0 1.4211e-07)
(-8.49578e-08 0 1.32796e-07)
(-1.05214e-07 0 1.21016e-07)
(-1.22776e-07 0 1.07331e-07)
(-1.37347e-07 0 9.22945e-08)
(-1.48728e-07 0 7.63536e-08)
(-1.57207e-07 0 5.97787e-08)
(-1.6257e-07 0 4.40937e-08)
(-1.64688e-07 0 2.95998e-08)
(-1.64341e-07 0 1.46333e-08)
(-1.6327e-07 0 8.29146e-10)
(-1.59875e-07 0 -3.88147e-09)
(-1.54006e-07 0 -1.54957e-08)
(-1.46508e-07 0 -2.65839e-08)
(-1.40309e-07 0 -3.37684e-08)
(-1.32621e-07 0 -3.57031e-08)
(-1.25172e-07 0 -3.26091e-08)
(-1.15356e-07 0 -4.77775e-08)
(-1.094e-07 0 -4.23853e-08)
(-1.01768e-07 0 -4.36877e-08)
(-9.50238e-08 0 -4.34634e-08)
(-8.84588e-08 0 -4.3623e-08)
(-8.27345e-08 0 -4.20827e-08)
(-7.71309e-08 0 -4.09576e-08)
(-7.1987e-08 0 -3.96151e-08)
(-6.71795e-08 0 -3.82172e-08)
(-6.26742e-08 0 -3.68351e-08)
(-5.84527e-08 0 -3.55023e-08)
(-5.44811e-08 0 -3.42312e-08)
(-5.07358e-08 0 -3.30479e-08)
(-4.7183e-08 0 -3.19836e-08)
(-4.38098e-08 0 -3.10472e-08)
(-4.05759e-08 0 -3.02584e-08)
(-3.7514e-08 0 -2.95217e-08)
(-3.43884e-08 0 -2.91176e-08)
(-3.14509e-08 0 -2.88327e-08)
(-2.85185e-08 0 -2.87489e-08)
(-2.55751e-08 0 -2.88104e-08)
(-2.246e-08 0 -2.89695e-08)
(-1.94315e-08 0 -2.94002e-08)
(-1.62334e-08 0 -2.99253e-08)
(-1.28371e-08 0 -3.05368e-08)
(-9.28212e-09 0 -3.11937e-08)
(-5.60531e-09 0 -3.20103e-08)
(-1.69581e-09 0 -3.27886e-08)
(2.44959e-09 0 -3.34688e-08)
(6.84135e-09 0 -3.40151e-08)
(1.13262e-08 0 -3.45131e-08)
(1.60478e-08 0 -3.47351e-08)
(2.08904e-08 0 -3.46828e-08)
(2.57945e-08 0 -3.42594e-08)
(3.07375e-08 0 -3.35274e-08)
(3.5646e-08 0 -3.24798e-08)
(4.04024e-08 0 -3.08319e-08)
(4.49473e-08 0 -2.89058e-08)
(4.92255e-08 0 -2.654e-08)
(5.31214e-08 0 -2.37851e-08)
(5.65675e-08 0 -2.05941e-08)
(5.9496e-08 0 -1.71729e-08)
(6.17963e-08 0 -1.34869e-08)
(6.34697e-08 0 -9.5466e-09)