/*--------------------------------*- C++ -*----------------------------------*\
  =========                 |
  \\      /  F ield         | OpenFOAM: The Open Source CFD Toolbox
   \\    /   O peration     | Website:  https://openfoam.org
    \\  /    A nd           | Version:  6
     \\/     M anipulation  |
\*---------------------------------------------------------------------------*/
FoamFile
{
    version     2.0;
    format      ascii;
    class       surfaceScalarField;
    location    "4200";
    object      phi;
}
// * * * * * * * * * * * * * * * * * * * * * * * * * * * * * * * * * * * * * //

dimensions      [0 3 -1 0 0 0 0];

internalField   nonuniform List<scalar> 
9440
(
-2.66063e-14
2.66072e-14
-5.31183e-14
2.65099e-14
-7.92904e-14
2.61686e-14
-1.04848e-13
2.55562e-14
-1.29545e-13
2.46949e-14
-1.5312e-13
2.35726e-14
-1.75451e-13
2.23305e-14
-1.96395e-13
2.09434e-14
-2.15815e-13
1.94192e-14
-2.33561e-13
1.77455e-14
-2.4961e-13
1.60486e-14
-2.63847e-13
1.42361e-14
-2.76149e-13
1.23024e-14
-2.86908e-13
1.0757e-14
-2.96189e-13
9.28136e-15
-3.04339e-13
8.14842e-15
-3.11024e-13
6.68348e-15
-3.14763e-13
3.7395e-15
-3.17484e-13
2.71977e-15
-3.19868e-13
2.3824e-15
-3.21689e-13
1.82191e-15
-3.19493e-13
-2.19856e-15
-3.18102e-13
-1.39023e-15
-3.15516e-13
-2.58555e-15
-3.11763e-13
-3.75451e-15
-3.07234e-13
-4.52717e-15
-3.01958e-13
-5.27339e-15
-2.95849e-13
-6.10746e-15
-2.89089e-13
-6.75887e-15
-2.81503e-13
-7.58411e-15
-2.73146e-13
-8.3544e-15
-2.64061e-13
-9.08262e-15
-2.5424e-13
-9.8172e-15
-2.43695e-13
-1.05438e-14
-2.32367e-13
-1.13273e-14
-2.20337e-13
-1.20302e-14
-2.07555e-13
-1.27797e-14
-1.94137e-13
-1.34191e-14
-1.8003e-13
-1.41044e-14
-1.65362e-13
-1.46648e-14
-1.50128e-13
-1.52328e-14
-1.34463e-13
-1.56591e-14
-1.18435e-13
-1.60251e-14
-1.02088e-13
-1.63457e-14
-8.56402e-14
-1.64446e-14
-6.90902e-14
-1.65467e-14
-5.26283e-14
-1.64586e-14
-3.63853e-14
-1.62385e-14
-2.05229e-14
-1.58585e-14
-5.07534e-15
-1.54437e-14
9.74356e-15
-1.48134e-14
2.38705e-14
-1.41227e-14
3.71361e-14
-1.32587e-14
4.94421e-14
-1.22997e-14
6.06818e-14
-1.12343e-14
7.08837e-14
-1.01954e-14
7.99332e-14
-9.04413e-15
8.78125e-14
-7.87566e-15
9.4418e-14
-6.59938e-15
9.99082e-14
-5.48597e-15
1.04234e-13
-4.32129e-15
1.07451e-13
-3.21016e-15
1.09589e-13
-2.13267e-15
1.10737e-13
-1.14236e-15
1.10983e-13
-2.38982e-16
1.10501e-13
4.8802e-16
1.09275e-13
1.23263e-15
1.07475e-13
1.80664e-15
1.05299e-13
2.18111e-15
1.02972e-13
2.33195e-15
1.00663e-13
2.31487e-15
9.87611e-14
1.90709e-15
9.78576e-14
9.11233e-16
9.94947e-14
-1.63085e-15
1.07562e-13
-8.06042e-15
1.34373e-13
-2.68066e-14
2.18526e-13
-8.41463e-14
9.88477e-14
1.19684e-13
-4.03848e-18
9.88584e-14
7.01456e-22
-1.19115e-22
6.97262e-22
-7.23783e-25
6.96073e-22
1.18907e-24
6.93488e-22
3.15363e-24
6.8899e-22
5.11818e-24
6.82476e-22
7.03104e-24
6.74256e-22
8.84049e-24
6.64226e-22
1.05983e-23
6.52646e-22
1.22009e-23
6.39721e-22
1.37519e-23
6.25297e-22
1.5096e-23
6.09632e-22
1.63368e-23
5.93037e-22
1.75259e-23
5.75459e-22
1.84565e-23
5.56951e-22
1.9387e-23
5.37926e-22
2.00591e-23
5.18229e-22
2.07829e-23
4.98066e-22
2.12482e-23
4.77645e-22
2.17652e-23
4.56759e-22
2.21271e-23
4.35873e-22
2.26441e-23
4.14779e-22
2.29026e-23
3.93531e-22
2.31611e-23
3.7218e-22
2.33679e-23
3.5057e-22
2.3523e-23
3.29166e-22
2.36263e-23
3.07763e-22
2.37814e-23
2.86153e-22
2.37297e-23
2.64439e-22
2.37297e-23
2.42778e-22
2.38848e-23
2.20961e-22
2.37297e-23
1.99195e-22
2.37297e-23
1.77379e-22
2.35746e-23
1.55407e-22
2.34713e-23
1.33331e-22
2.34196e-23
1.11359e-22
2.32645e-23
8.92838e-23
2.32128e-23
6.7105e-23
2.30577e-23
4.47712e-23
2.29026e-23
2.24373e-23
2.29026e-23
2.29026e-23
-2.60773e-14
5.26827e-14
-5.34648e-14
5.38955e-14
-8.04681e-14
5.31707e-14
-1.06571e-13
5.16564e-14
-1.31564e-13
4.96868e-14
-1.55419e-13
4.74282e-14
-1.77953e-13
4.48618e-14
-1.98998e-13
4.19863e-14
-2.18413e-13
3.88296e-14
-2.36189e-13
3.55213e-14
-2.52132e-13
3.19889e-14
-2.66218e-13
2.83221e-14
-2.78437e-13
2.45202e-14
-2.89014e-13
2.13336e-14
-2.98157e-13
1.8424e-14
-3.06493e-13
1.64849e-14
-3.12579e-13
1.2771e-14
-3.16201e-13
7.35984e-15
-3.18913e-13
5.43096e-15
-3.21383e-13
4.85395e-15
-3.22559e-13
2.99831e-15
-3.20707e-13
-4.05196e-15
-3.19123e-13
-2.97401e-15
-3.16535e-13
-5.1746e-15
-3.12585e-13
-7.70373e-15
-3.08048e-13
-9.06314e-15
-3.0276e-13
-1.05578e-14
-2.96674e-13
-1.21903e-14
-2.89815e-13
-1.36157e-14
-2.82212e-13
-1.51842e-14
-2.73866e-13
-1.66954e-14
-2.648e-13
-1.81482e-14
-2.54942e-13
-1.96734e-14
-2.44361e-13
-2.11218e-14
-2.33129e-13
-2.25558e-14
-2.20995e-13
-2.41609e-14
-2.08221e-13
-2.55496e-14
-1.94759e-13
-2.68776e-14
-1.80622e-13
-2.82325e-14
-1.65874e-13
-2.9407e-14
-1.50613e-13
-3.04884e-14
-1.34833e-13
-3.14348e-14
-1.18691e-13
-3.21608e-14
-1.02299e-13
-3.2734e-14
-8.56487e-14
-3.30861e-14
-6.89895e-14
-3.32019e-14
-5.23843e-14
-3.30587e-14
-3.60256e-14
-3.25907e-14
-1.9954e-14
-3.19233e-14
-4.40857e-15
-3.0979e-14
1.05476e-14
-2.976e-14
2.47292e-14
-2.82946e-14
3.80732e-14
-2.65939e-14
5.04698e-14
-2.46886e-14
6.18143e-14
-2.25686e-14
7.20636e-14
-2.0435e-14
8.11316e-14
-1.81051e-14
8.89756e-14
-1.57089e-14
9.56066e-14
-1.32216e-14
1.01064e-13
-1.09344e-14
1.05343e-13
-8.58871e-15
1.08547e-13
-6.40417e-15
1.10615e-13
-4.18885e-15
1.1168e-13
-2.19659e-15
1.11865e-13
-4.11834e-16
1.11186e-13
1.18041e-15
1.09792e-13
2.63826e-15
1.07862e-13
3.74977e-15
1.05559e-13
4.49487e-15
1.02985e-13
4.91809e-15
1.00313e-13
4.99763e-15
9.77404e-14
4.49438e-15
9.55492e-14
3.1149e-15
9.35415e-14
3.87496e-16
9.04935e-14
-4.99866e-15
7.86644e-14
-1.49672e-14
2.67557e-14
-3.22258e-14
2.52316e-14
1.21222e-13
-2.9012e-18
1.24103e-13
6.98147e-22
-2.647e-22
6.99123e-22
-1.55096e-24
6.98037e-22
2.79173e-24
6.95504e-22
6.92764e-24
6.90851e-22
1.09084e-23
6.84337e-22
1.47342e-23
6.75962e-22
1.85082e-23
6.65829e-22
2.20237e-23
6.54197e-22
2.5229e-23
6.41065e-22
2.82275e-23
6.26538e-22
3.10193e-23
6.10821e-22
3.35525e-23
5.93967e-22
3.5879e-23
5.76338e-22
3.79986e-23
5.57675e-22
3.98081e-23
5.3865e-22
4.15141e-23
5.18694e-22
4.291e-23
4.98583e-22
4.41508e-23
4.78007e-22
4.5133e-23
4.57224e-22
4.59602e-23
4.36183e-22
4.6684e-23
4.14986e-22
4.73044e-23
3.93738e-22
4.78731e-23
3.72335e-22
4.8235e-23
3.50673e-22
4.85452e-23
3.2927e-22
4.89071e-23
3.07711e-22
4.90622e-23
2.86101e-22
4.91656e-23
2.64543e-22
4.90622e-23
2.42674e-22
4.90105e-23
2.20961e-22
4.88554e-23
1.9904e-22
4.85452e-23
1.77275e-22
4.82867e-23
1.55355e-22
4.77697e-23
1.33176e-22
4.74595e-23
1.11256e-22
4.69942e-23
8.91287e-23
4.66323e-23
6.69499e-23
4.6167e-23
4.47195e-23
4.57534e-23
2.25407e-23
4.53398e-23
4.50296e-23
-2.82622e-14
8.09441e-14
-5.52425e-14
8.08729e-14
-8.17112e-14
7.9637e-14
-1.07656e-13
7.76006e-14
-1.32782e-13
7.48119e-14
-1.56763e-13
7.14067e-14
-1.7949e-13
6.75885e-14
-2.00744e-13
6.32368e-14
-2.20452e-13
5.85353e-14
-2.38387e-13
5.34527e-14
-2.54594e-13
4.81945e-14
-2.68796e-13
4.25233e-14
-2.81173e-13
3.68943e-14
-2.91828e-13
3.1988e-14
-3.012e-13
2.7795e-14
-3.09954e-13
2.5239e-14
-3.15226e-13
1.80422e-14
-3.18635e-13
1.07674e-14
-3.21626e-13
8.4216e-15
-3.24398e-13
7.62447e-15
-3.241e-13
2.70279e-15
-3.22788e-13
-5.36408e-15
-3.21038e-13
-4.72303e-15
-3.18303e-13
-7.90919e-15
-3.14138e-13
-1.18673e-14
-3.0966e-13
-1.35398e-14
-3.04315e-13
-1.58997e-14
-2.98191e-13
-1.83128e-14
-2.91339e-13
-2.04642e-14
-2.83739e-13
-2.27809e-14
-2.75432e-13
-2.50032e-14
-2.66335e-13
-2.72432e-14
-2.56475e-13
-2.95307e-14
-2.45877e-13
-3.1717e-14
-2.34552e-13
-3.38808e-14
-2.22441e-13
-3.62662e-14
-2.09619e-13
-3.83655e-14
-1.96087e-13
-4.0405e-14
-1.81799e-13
-4.2517e-14
-1.66924e-13
-4.42756e-14
-1.51509e-13
-4.58972e-14
-1.35598e-13
-4.73395e-14
-1.19214e-13
-4.85405e-14
-1.02575e-13
-4.93677e-14
-8.56963e-14
-4.99578e-14
-6.88346e-14
-5.0058e-14
-5.19926e-14
-4.98952e-14
-3.53552e-14
-4.9222e-14
-1.90452e-14
-4.82263e-14
-3.21448e-15
-4.68026e-14
1.19613e-14
-4.4927e-14
2.64124e-14
-4.27385e-14
3.99661e-14
-4.01411e-14
5.25063e-14
-3.72212e-14
6.39728e-14
-3.40264e-14
7.43738e-14
-3.08283e-14
8.35204e-14
-2.72438e-14
9.14055e-14
-2.35878e-14
9.80611e-14
-1.98695e-14
1.03452e-13
-1.63135e-14
1.07672e-13
-1.27994e-14
1.1066e-13
-9.38112e-15
1.12559e-13
-6.07601e-15
1.13482e-13
-3.10921e-15
1.1341e-13
-3.30454e-16
1.12476e-13
2.12313e-15
1.10883e-13
4.24047e-15
1.08663e-13
5.97763e-15
1.0598e-13
7.18619e-15
1.02998e-13
7.91189e-15
9.97655e-14
8.24121e-15
9.64468e-14
7.82381e-15
9.27699e-14
6.80303e-15
8.81451e-14
5.02407e-15
8.01707e-14
2.98371e-15
6.26037e-14
2.61005e-15
1.89161e-14
1.14732e-14
1.55526e-14
1.24597e-13
-3.45482e-18
1.3967e-13
7.01456e-22
-2.91171e-22
7.03414e-22
-1.70606e-24
7.02225e-22
4.4461e-24
6.99433e-22
1.065e-23
6.9478e-22
1.68021e-23
6.88111e-22
2.26441e-23
6.79477e-22
2.81758e-23
6.68982e-22
3.34491e-23
6.57195e-22
3.84122e-23
6.43908e-22
4.30134e-23
6.29019e-22
4.72527e-23
6.13148e-22
5.10267e-23
5.96087e-22
5.44388e-23
5.78199e-22
5.75408e-23
5.59381e-22
6.02808e-23
5.39942e-22
6.26589e-23
5.19935e-22
6.46752e-23
4.99565e-22
6.6588e-23
4.78834e-22
6.81907e-23
4.58e-22
6.94832e-23
4.36751e-22
7.06206e-23
4.15555e-22
7.15511e-23
3.941e-22
7.23266e-23
3.72593e-22
7.28436e-23
3.51087e-22
7.33089e-23
3.29425e-22
7.36708e-23
3.07815e-22
7.37225e-23
2.86049e-22
7.37225e-23
2.64439e-22
7.35157e-23
2.42519e-22
7.32572e-23
2.20702e-22
7.29987e-23
1.98834e-22
7.243e-23
1.7681e-22
7.18096e-23
1.54993e-22
7.12409e-23
1.32763e-22
7.05689e-23
1.10842e-22
6.98968e-23
8.87151e-23
6.91213e-23
6.65363e-23
6.82941e-23
4.43059e-23
6.76737e-23
2.21788e-23
6.70533e-23
6.65363e-23
-2.86172e-14
1.09558e-13
-5.64794e-14
1.08732e-13
-8.37128e-14
1.06868e-13
-1.10243e-13
1.04127e-13
-1.35862e-13
1.0043e-13
-1.60383e-13
9.59259e-14
-1.83552e-13
9.07555e-14
-2.05186e-13
8.48706e-14
-2.2515e-13
7.84971e-14
-2.43411e-13
7.17114e-14
-2.59661e-13
6.44437e-14
-2.7392e-13
5.67796e-14
-2.86542e-13
4.95191e-14
-2.96919e-13
4.23632e-14
-3.06419e-13
3.72941e-14
-3.15573e-13
3.43906e-14
-3.19406e-13
2.1873e-14
-3.2261e-13
1.39704e-14
-3.25816e-13
1.16277e-14
-3.2937e-13
1.11775e-14
-3.26149e-13
-5.17738e-16
-3.2612e-13
-5.39454e-15
-3.23896e-13
-6.94774e-15
-3.20896e-13
-1.0908e-14
-3.16631e-13
-1.61329e-14
-3.12095e-13
-1.80729e-14
-3.06638e-13
-2.13573e-14
-3.00469e-13
-2.44823e-14
-2.93608e-13
-2.73259e-14
-2.86049e-13
-3.03359e-14
-2.77692e-13
-3.33557e-14
-2.68572e-13
-3.63613e-14
-2.5874e-13
-3.93597e-14
-2.48112e-13
-4.23405e-14
-2.36792e-13
-4.51973e-14
-2.24637e-13
-4.84207e-14
-2.1173e-13
-5.12692e-14
-1.98064e-13
-5.40686e-14
-1.8369e-13
-5.68845e-14
-1.68608e-13
-5.93548e-14
-1.52889e-13
-6.16102e-14
-1.36703e-13
-6.35205e-14
-1.20103e-13
-6.51353e-14
-1.03106e-13
-6.63621e-14
-8.59226e-14
-6.71352e-14
-6.85961e-14
-6.73804e-14
-5.13364e-14
-6.71461e-14
-3.42953e-14
-6.62574e-14
-1.76094e-14
-6.49067e-14
-1.3974e-15
-6.30088e-14
1.41606e-14
-6.04786e-14
2.89175e-14
-5.74895e-14
4.27828e-14
-5.3999e-14
5.56368e-14
-5.00678e-14
6.73616e-14
-4.57439e-14
7.78638e-14
-4.13203e-14
8.70645e-14
-3.64377e-14
9.50118e-14
-3.1526e-14
1.01677e-13
-2.65263e-14
1.06996e-13
-2.16251e-14
1.11042e-13
-1.68361e-14
1.13916e-13
-1.22462e-14
1.15618e-13
-7.76796e-15
1.16233e-13
-3.71655e-15
1.15865e-13
4.8751e-17
1.14587e-13
3.41041e-15
1.12578e-13
6.2569e-15
1.09918e-13
8.64967e-15
1.06756e-13
1.03573e-14
1.03204e-13
1.14758e-14
9.93999e-14
1.20574e-14
9.53634e-14
1.1871e-14
9.10642e-14
1.11162e-14
8.59768e-14
1.01219e-14
7.93937e-14
9.57755e-15
7.07827e-14
1.12315e-14
6.41059e-14
1.8161e-14
1.42802e-14
1.74434e-13
-2.99685e-18
1.53963e-13
7.04765e-22
-3.97051e-22
7.09618e-22
-2.32645e-24
7.08429e-22
6.15216e-24
7.05585e-22
1.45274e-23
7.0057e-22
2.26958e-23
6.93643e-22
3.0554e-23
6.84751e-22
3.80503e-23
6.74049e-22
4.52364e-23
6.61745e-22
5.18539e-23
6.48096e-22
5.8006e-23
6.32897e-22
6.35895e-23
6.1656e-22
6.87077e-23
5.99137e-22
7.34123e-23
5.80939e-22
7.75999e-23
5.61759e-22
8.12188e-23
5.4201e-22
8.44241e-23
5.21848e-22
8.71125e-23
5.01168e-22
8.95423e-23
4.80178e-22
9.14552e-23
4.59085e-22
9.32129e-23
4.37734e-22
9.46088e-23
4.1633e-22
9.57979e-23
3.94669e-22
9.6625e-23
3.73058e-22
9.72971e-23
3.51448e-22
9.77624e-23
3.29528e-22
9.79692e-23
3.07815e-22
9.80209e-23
2.85843e-22
9.79175e-23
2.64181e-22
9.76073e-23
2.42209e-22
9.69869e-23
2.20133e-22
9.62632e-23
1.98213e-22
9.54877e-23
1.76189e-22
9.46605e-23
1.54321e-22
9.35748e-23
1.32142e-22
9.24374e-23
1.10118e-22
9.13518e-23
8.78879e-23
9.02144e-23
6.5916e-23
8.91804e-23
4.37372e-23
8.80947e-23
2.16618e-23
8.72159e-23
8.64404e-23
-2.93039e-14
1.38858e-13
-5.8207e-14
1.37633e-13
-8.65419e-14
1.352e-13
-1.13984e-13
1.31567e-13
-1.40463e-13
1.26909e-13
-1.6572e-13
1.21181e-13
-1.89489e-13
1.14521e-13
-2.1167e-13
1.07048e-13
-2.3205e-13
9.88726e-14
-2.50486e-13
9.01463e-14
-2.66848e-13
8.08034e-14
-2.81217e-13
7.11463e-14
-2.93909e-13
6.22113e-14
-3.0389e-13
5.2343e-14
-3.13968e-13
4.73699e-14
-3.22072e-13
4.24922e-14
-3.25156e-13
2.49553e-14
-3.28476e-13
1.72901e-14
-3.31764e-13
1.49143e-14
-3.34648e-13
1.4061e-14
-3.30135e-13
-5.02822e-15
-3.3032e-13
-5.20966e-15
-3.27759e-13
-9.50942e-15
-3.24169e-13
-1.44953e-14
-3.19974e-13
-2.03268e-14
-3.15219e-13
-2.28284e-14
-3.09641e-13
-2.69317e-14
-3.03419e-13
-3.07045e-14
-2.96583e-13
-3.4158e-14
-2.88983e-13
-3.79338e-14
-2.80636e-13
-4.1702e-14
-2.7163e-13
-4.53626e-14
-2.61821e-13
-4.9164e-14
-2.51205e-13
-5.29546e-14
-2.39857e-13
-5.65435e-14
-2.27578e-13
-6.06947e-14
-2.14592e-13
-6.42519e-14
-2.00705e-13
-6.79485e-14
-1.86121e-13
-7.1467e-14
-1.70849e-13
-7.46223e-14
-1.54877e-13
-7.7579e-14
-1.38306e-13
-8.0089e-14
-1.21296e-13
-8.214e-14
-1.03835e-13
-8.38188e-14
-8.61394e-14
-8.48263e-14
-6.83045e-14
-8.5208e-14
-5.05256e-14
-8.49197e-14
-3.28971e-14
-8.38792e-14
-1.56671e-14
-8.21315e-14
1.06075e-15
-7.97279e-14
1.72094e-14
-7.66198e-14
3.24299e-14
-7.27032e-14
4.67659e-14
-6.83275e-14
5.99384e-14
-6.32331e-14
7.19127e-14
-5.77088e-14
8.26529e-14
-5.20521e-14
9.1984e-14
-4.57636e-14
9.99818e-14
-3.95167e-14
1.06606e-13
-3.31403e-14
1.11855e-13
-2.6863e-14
1.15715e-13
-2.06854e-14
1.18327e-13
-1.48471e-14
1.19663e-13
-9.09328e-15
1.19934e-13
-3.97945e-15
1.19191e-13
8.01795e-16
1.17391e-13
5.21764e-15
1.14841e-13
8.8168e-15
1.11655e-13
1.18424e-14
1.0789e-13
1.41353e-14
1.03633e-13
1.57433e-14
9.92101e-14
1.64919e-14
9.45779e-14
1.65128e-14
8.99632e-14
1.57425e-14
8.55155e-14
1.45819e-14
8.13582e-14
1.37435e-14
7.84461e-14
1.41557e-14
7.38056e-14
2.28104e-14
1.35947e-14
2.34655e-13
-2.26955e-18
1.67569e-13
7.14691e-22
-5.09549e-22
7.17993e-22
-2.94683e-24
7.16804e-22
8.01331e-24
7.13702e-22
1.85599e-23
7.0848e-22
2.88996e-23
7.01087e-22
3.89292e-23
6.91937e-22
4.85452e-23
6.80666e-22
5.75408e-23
6.67948e-22
6.5916e-23
6.53628e-22
7.37742e-23
6.37963e-22
8.08569e-23
6.21264e-22
8.73193e-23
6.03428e-22
9.31095e-23
5.84507e-22
9.8176e-23
5.64964e-22
1.0257e-22
5.4475e-22
1.06551e-22
5.24226e-22
1.09912e-22
5.03081e-22
1.12755e-22
4.81884e-22
1.15185e-22
4.60533e-22
1.17201e-22
4.38871e-22
1.18856e-22
4.17106e-22
1.20096e-22
3.95341e-22
1.20975e-22
3.73524e-22
1.21596e-22
3.51552e-22
1.21957e-22
3.2958e-22
1.22061e-22
3.07711e-22
1.21906e-22
2.85584e-22
1.21389e-22
2.6356e-22
1.20717e-22
2.41537e-22
1.19838e-22
2.19358e-22
1.187e-22
1.97334e-22
1.17408e-22
1.75104e-22
1.16012e-22
1.53132e-22
1.14565e-22
1.31005e-22
1.1291e-22
1.08981e-22
1.11256e-22
8.6854e-23
1.09705e-22
6.47786e-23
1.08154e-22
4.28583e-23
1.0681e-22
2.08863e-23
1.05466e-22
1.04328e-22
-3.05133e-14
1.69368e-13
-6.0626e-14
1.67744e-13
-9.01084e-14
1.64681e-13
-1.18705e-13
1.6016e-13
-1.46214e-13
1.54416e-13
-1.72388e-13
1.47353e-13
-1.96948e-13
1.39077e-13
-2.19794e-13
1.29892e-13
-2.40693e-13
1.19769e-13
-2.59362e-13
1.08813e-13
-2.75847e-13
9.72863e-14
-2.9076e-13
8.60593e-14
-3.0262e-13
7.40687e-14
-3.13128e-13
6.28504e-14
-3.24623e-13
5.88627e-14
-3.28866e-13
4.67344e-14
-3.32322e-13
2.84095e-14
-3.35903e-13
2.087e-14
-3.398e-13
1.881e-14
-3.38971e-13
1.32331e-14
-3.36084e-13
-7.91616e-15
-3.35227e-13
-6.06477e-15
-3.32452e-13
-1.22847e-14
-3.28077e-13
-1.88683e-14
-3.24098e-13
-2.43055e-14
-3.19007e-13
-2.79182e-14
-3.13392e-13
-3.25461e-14
-3.07135e-13
-3.69583e-14
-3.00289e-13
-4.10021e-14
-2.92669e-13
-4.55527e-14
-2.8441e-13
-4.996e-14
-2.75391e-13
-5.4376e-14
-2.65608e-13
-5.89449e-14
-2.55001e-13
-6.35562e-14
-2.43572e-13
-6.79708e-14
-2.31331e-13
-7.29337e-14
-2.18223e-13
-7.73586e-14
-2.0416e-13
-8.20064e-14
-1.89343e-13
-8.62768e-14
-1.73757e-13
-9.02057e-14
-1.57411e-13
-9.39215e-14
-1.40389e-13
-9.71056e-14
-1.22808e-13
-9.97131e-14
-1.04815e-13
-1.01806e-13
-8.65241e-14
-1.03112e-13
-6.8021e-14
-1.03705e-13
-4.95964e-14
-1.03338e-13
-3.12949e-14
-1.02175e-13
-1.32753e-14
-1.00144e-13
4.21874e-15
-9.72141e-14
2.09367e-14
-9.33303e-14
3.68629e-14
-8.86221e-14
5.17294e-14
-8.31856e-14
6.53556e-14
-7.68514e-14
7.77779e-14
-7.01236e-14
8.87563e-14
-6.30245e-14
9.82935e-14
-5.52934e-14
1.06324e-13
-4.754e-14
1.1294e-13
-3.97478e-14
1.18005e-13
-3.19205e-14
1.21606e-13
-2.42762e-14
1.23954e-13
-1.71864e-14
1.24973e-13
-1.01024e-14
1.24706e-13
-3.70147e-15
1.23376e-13
2.14194e-15
1.21069e-13
7.53552e-15
1.17921e-13
1.19721e-14
1.14026e-13
1.5746e-14
1.09479e-13
1.86921e-14
1.04506e-13
2.07282e-14
9.92292e-14
2.178e-14
9.38949e-14
2.18564e-14
8.88632e-14
2.07836e-14
8.4747e-14
1.87077e-14
8.26048e-14
1.58977e-14
8.36598e-14
1.31114e-14
7.3292e-14
3.31864e-14
-5.01972e-16
3.08462e-13
-2.73968e-18
1.67076e-13
7.24617e-22
-5.69107e-22
7.28901e-22
-3.30872e-24
7.27402e-22
9.77107e-24
7.2399e-22
2.27992e-23
7.1851e-22
3.56205e-23
7.10652e-22
4.78731e-23
7.00932e-22
5.95053e-23
6.89042e-22
7.05172e-23
6.75807e-22
8.07535e-23
6.60762e-22
9.01627e-23
6.44425e-22
9.87964e-23
6.27055e-22
1.06551e-22
6.08391e-22
1.13427e-22
5.88953e-22
1.19528e-22
5.68945e-22
1.24801e-22
5.48162e-22
1.2935e-22
5.27069e-22
1.33331e-22
5.05562e-22
1.36537e-22
4.83952e-22
1.39277e-22
4.62136e-22
1.41603e-22
4.40164e-22
1.43257e-22
4.18036e-22
1.44498e-22
3.95961e-22
1.45429e-22
3.73886e-22
1.45894e-22
3.51707e-22
1.45946e-22
3.29425e-22
1.45687e-22
3.07194e-22
1.45067e-22
2.8486e-22
1.44188e-22
2.62682e-22
1.43102e-22
2.40451e-22
1.41655e-22
2.18066e-22
1.4e-22
1.95938e-22
1.38036e-22
1.73605e-22
1.3602e-22
1.51529e-22
1.33796e-22
1.2935e-22
1.31418e-22
1.0743e-22
1.29247e-22
8.52513e-23
1.26921e-22
6.34344e-23
1.24853e-22
4.15658e-23
1.2294e-22
1.96972e-23
1.21337e-22
1.19941e-22
-3.19893e-14
2.01355e-13
-6.35605e-14
1.99312e-13
-9.44641e-14
1.95584e-13
-1.24478e-13
1.90173e-13
-1.53249e-13
1.83184e-13
-1.80575e-13
1.7468e-13
-2.06159e-13
1.64659e-13
-2.29807e-13
1.53534e-13
-2.51223e-13
1.41183e-13
-2.70216e-13
1.27804e-13
-2.87422e-13
1.14491e-13
-3.02225e-13
1.00859e-13
-3.13126e-13
8.49718e-14
-3.2555e-13
7.5275e-14
-3.36995e-13
7.03042e-14
-3.37401e-13
4.71413e-14
-3.4127e-13
3.22777e-14
-3.44996e-13
2.45974e-14
-3.50689e-13
2.45027e-14
-3.41966e-13
4.51249e-15
-3.43799e-13
-6.08258e-15
-3.4099e-13
-8.87322e-15
-3.37962e-13
-1.53113e-14
-3.32655e-13
-2.4173e-14
-3.28873e-13
-2.80866e-14
-3.23512e-13
-3.32771e-14
-3.17768e-13
-3.82899e-14
-3.11474e-13
-4.32523e-14
-3.04581e-13
-4.78936e-14
-2.97085e-13
-5.30467e-14
-2.88893e-13
-5.81508e-14
-2.79977e-13
-6.32884e-14
-2.70249e-13
-6.86697e-14
-2.59691e-13
-7.41104e-14
-2.483e-13
-7.93629e-14
-2.35931e-13
-8.5298e-14
-2.22726e-13
-9.05591e-14
-2.08511e-13
-9.62218e-14
-1.93379e-13
-1.01404e-13
-1.77373e-13
-1.0621e-13
-1.60575e-13
-1.10716e-13
-1.4297e-13
-1.14705e-13
-1.24801e-13
-1.17878e-13
-1.06159e-13
-1.20444e-13
-8.70571e-14
-1.22212e-13
-6.77637e-14
-1.22995e-13
-4.83629e-14
-1.22733e-13
-2.91459e-14
-1.21384e-13
-1.02328e-14
-1.19052e-13
8.09456e-15
-1.15533e-13
2.57013e-14
-1.10934e-13
4.23432e-14
-1.05258e-13
5.78732e-14
-9.87081e-14
7.20992e-14
-9.10695e-14
8.50395e-14
-8.30576e-14
9.63014e-14
-7.42781e-14
1.06096e-13
-6.50808e-14
1.1422e-13
-5.5655e-14
1.20729e-13
-4.62464e-14
1.2561e-13
-3.67931e-14
1.29025e-13
-2.7681e-14
1.30881e-13
-1.90342e-14
1.31348e-13
-1.05593e-14
1.30617e-13
-2.95887e-15
1.28614e-13
4.15441e-15
1.25626e-13
1.05327e-14
1.21686e-13
1.59205e-14
1.16995e-13
2.04456e-14
1.11574e-13
2.41196e-14
1.0557e-13
2.67408e-14
9.92038e-14
2.81542e-14
9.27595e-14
2.831e-14
8.66911e-14
2.68626e-14
8.19957e-14
2.34119e-14
8.00059e-14
1.78974e-14
8.27977e-14
1.03285e-14
3.87931e-15
1.12113e-13
-7.37253e-15
3.19719e-13
-2.28423e-18
1.59712e-13
7.41161e-22
-7.2131e-22
7.41981e-22
-4.291e-24
7.40534e-22
1.16839e-23
7.36811e-22
2.75038e-23
7.30762e-22
4.27549e-23
7.22336e-22
5.73857e-23
7.11892e-22
7.12926e-23
6.9933e-22
8.43724e-23
6.85164e-22
9.65216e-23
6.69396e-22
1.0774e-22
6.52284e-22
1.17666e-22
6.33931e-22
1.26765e-22
6.14544e-22
1.34779e-22
5.94278e-22
1.41655e-22
5.73495e-22
1.47807e-22
5.5204e-22
1.52977e-22
5.30275e-22
1.57268e-22
5.08251e-22
1.60835e-22
4.86227e-22
1.63885e-22
4.63842e-22
1.66108e-22
4.41353e-22
1.67814e-22
4.18915e-22
1.69003e-22
3.96426e-22
1.69624e-22
3.73886e-22
1.69831e-22
3.51448e-22
1.69572e-22
3.28804e-22
1.689e-22
3.06315e-22
1.67763e-22
2.83723e-22
1.66263e-22
2.61286e-22
1.64402e-22
2.38745e-22
1.62179e-22
2.16204e-22
1.59698e-22
1.93819e-22
1.57009e-22
1.71485e-22
1.54011e-22
1.49151e-22
1.50857e-22
1.27179e-22
1.47807e-22
1.05155e-22
1.44602e-22
8.32351e-23
1.41706e-22
6.15216e-23
1.38915e-22
3.99115e-23
1.36485e-22
1.84048e-23
1.34365e-22
1.32607e-22
-3.38135e-14
2.35166e-13
-6.71814e-14
2.32677e-13
-9.98271e-14
2.28229e-13
-1.31495e-13
2.21838e-13
-1.61779e-13
2.13465e-13
-1.90417e-13
2.03316e-13
-2.1726e-13
1.91501e-13
-2.41835e-13
1.78108e-13
-2.63878e-13
1.63224e-13
-2.83789e-13
1.47714e-13
-3.01589e-13
1.32289e-13
-3.14957e-13
1.14226e-13
-3.27017e-13
9.70295e-14
-3.42491e-13
9.07487e-14
-3.47497e-13
7.53121e-14
-3.49236e-13
4.88794e-14
-3.52439e-13
3.54802e-14
-3.57078e-13
2.92356e-14
-3.59011e-13
2.64355e-14
-3.49076e-13
-5.42224e-15
-3.51898e-13
-3.26084e-15
-3.47653e-13
-1.31186e-14
-3.43413e-13
-1.95523e-14
-3.38517e-13
-2.90676e-14
-3.34005e-13
-3.25976e-14
-3.28553e-13
-3.87299e-14
-3.22613e-13
-4.42304e-14
-3.16439e-13
-4.94258e-14
-3.09606e-13
-5.47282e-14
-3.02185e-13
-6.04665e-14
-2.94185e-13
-6.61474e-14
-2.85335e-13
-7.21318e-14
-2.75742e-13
-7.82623e-14
-2.65237e-13
-8.46125e-14
-2.53871e-13
-9.0724e-14
-2.41605e-13
-9.75643e-14
-2.28104e-13
-1.0406e-13
-2.13698e-13
-1.10623e-13
-1.98272e-13
-1.16827e-13
-1.8182e-13
-1.22657e-13
-1.6454e-13
-1.2799e-13
-1.46351e-13
-1.32891e-13
-1.27364e-13
-1.36861e-13
-1.07837e-13
-1.39966e-13
-8.79106e-14
-1.42132e-13
-6.75571e-14
-1.43344e-13
-4.70863e-14
-1.43198e-13
-2.67398e-14
-1.41724e-13
-6.80996e-15
-1.38976e-13
1.26451e-14
-1.3498e-13
3.13016e-14
-1.29584e-13
4.89978e-14
-1.22948e-13
6.53106e-14
-1.15016e-13
8.03083e-14
-1.06061e-13
9.37452e-14
-9.64858e-14
1.05395e-13
-8.59216e-14
1.15402e-13
-7.50774e-14
1.23644e-13
-6.38894e-14
1.30091e-13
-5.26831e-14
1.3478e-13
-4.14762e-14
1.37823e-13
-3.07138e-14
1.39253e-13
-2.0458e-14
1.39124e-13
-1.04215e-14
1.37614e-13
-1.44154e-15
1.34888e-13
6.88961e-15
1.31137e-13
1.42912e-14
1.2633e-13
2.07359e-14
1.20588e-13
2.61968e-14
1.14125e-13
3.05892e-14
1.07004e-13
3.38702e-14
9.9342e-14
3.5828e-14
9.13101e-14
3.63477e-14
8.32206e-14
3.49606e-14
7.60476e-14
3.0592e-14
7.33046e-14
2.06483e-14
8.62299e-14
-2.58581e-15
-3.0144e-14
2.28493e-13
-2.53185e-15
2.92114e-13
-2.91028e-18
1.57189e-13
7.54396e-22
-7.61016e-22
7.58008e-22
-4.54949e-24
7.56302e-22
1.41138e-23
7.52062e-22
3.24151e-23
7.45393e-22
5.0458e-23
7.36294e-22
6.76737e-23
7.24869e-22
8.40105e-23
7.1153e-22
9.92617e-23
6.96383e-22
1.13375e-22
6.79322e-22
1.26145e-22
6.61331e-22
1.37881e-22
6.41892e-22
1.48169e-22
6.21419e-22
1.57164e-22
6.00378e-22
1.65023e-22
5.78613e-22
1.71795e-22
5.56434e-22
1.7743e-22
5.33842e-22
1.82083e-22
5.11301e-22
1.85909e-22
4.88398e-22
1.88856e-22
4.65548e-22
1.91027e-22
4.42593e-22
1.92578e-22
4.19587e-22
1.93405e-22
3.96633e-22
1.93664e-22
3.73679e-22
1.93405e-22
3.50776e-22
1.9263e-22
3.27719e-22
1.91182e-22
3.04816e-22
1.89424e-22
2.81862e-22
1.87098e-22
2.59063e-22
1.8441e-22
2.36212e-22
1.81204e-22
2.13464e-22
1.77585e-22
1.90924e-22
1.73811e-22
1.6828e-22
1.69727e-22
1.46101e-22
1.6554e-22
1.23974e-22
1.61352e-22
1.02209e-22
1.57371e-22
8.0495e-23
1.53442e-22
5.90917e-23
1.49823e-22
3.77918e-23
1.46721e-22
1.6647e-23
1.43929e-22
1.41861e-22
-3.60154e-14
2.71182e-13
-7.15551e-14
2.68215e-13
-1.06261e-13
2.62935e-13
-1.39845e-13
2.55418e-13
-1.7198e-13
2.45602e-13
-2.02214e-13
2.33548e-13
-2.3041e-13
2.19694e-13
-2.56164e-13
2.03858e-13
-2.79262e-13
1.86321e-13
-3.00283e-13
1.68736e-13
-3.1759e-13
1.49595e-13
-3.29847e-13
1.2648e-13
-3.46228e-13
1.1341e-13
-3.60318e-13
1.04837e-13
-3.58757e-13
7.37497e-14
-3.6367e-13
5.37955e-14
-3.66733e-13
3.85422e-14
-3.71453e-13
3.39535e-14
-3.61743e-13
1.67254e-14
-3.62509e-13
-4.65901e-15
-3.58908e-13
-6.86157e-15
-3.5539e-13
-1.6636e-14
-3.48998e-13
-2.5944e-14
-3.45201e-13
-3.28649e-14
-3.3962e-13
-3.81786e-14
-3.33972e-13
-4.43805e-14
-3.28069e-13
-5.01331e-14
-3.21929e-13
-5.55674e-14
-3.15151e-13
-6.15024e-14
-3.07972e-13
-6.76419e-14
-3.00119e-13
-7.39992e-14
-2.91564e-13
-8.06839e-14
-2.82093e-13
-8.77308e-14
-2.71769e-13
-9.49329e-14
-2.60486e-13
-1.02007e-13
-2.48142e-13
-1.09906e-13
-2.34485e-13
-1.17716e-13
-2.19958e-13
-1.25147e-13
-2.04179e-13
-1.32602e-13
-1.87252e-13
-1.39579e-13
-1.69273e-13
-1.45963e-13
-1.50431e-13
-1.51726e-13
-1.30624e-13
-1.56662e-13
-1.09985e-13
-1.60599e-13
-8.88573e-14
-1.63255e-13
-6.74063e-14
-1.64789e-13
-4.56617e-14
-1.6494e-13
-2.39401e-14
-1.63441e-13
-2.62259e-15
-1.60286e-13
1.80931e-14
-1.55687e-13
3.8018e-14
-1.49502e-13
5.67381e-14
-1.41663e-13
7.40323e-14
-1.32307e-13
9.00703e-14
-1.22091e-13
1.04111e-13
-1.1052e-13
1.16314e-13
-9.8116e-14
1.26595e-13
-8.53507e-14
1.34943e-13
-7.22285e-14
1.41247e-13
-5.89796e-14
1.45686e-13
-4.59073e-14
1.48257e-13
-3.32749e-14
1.49004e-13
-2.11952e-14
1.48253e-13
-9.66365e-15
1.45892e-13
9.27922e-16
1.42314e-13
1.0476e-14
1.37613e-13
1.9e-14
1.31754e-13
2.66012e-14
1.25014e-13
3.29435e-14
1.17355e-13
3.82534e-14
1.08998e-13
4.22339e-14
9.9871e-14
4.49627e-14
8.99299e-14
4.62951e-14
7.89892e-14
4.59075e-14
6.6328e-14
4.32614e-14
5.03329e-14
3.665e-14
2.37406e-14
2.40137e-14
-1.69709e-14
2.69212e-13
-1.27864e-15
2.76431e-13
-2.07269e-18
1.55915e-13
7.77557e-22
-9.066e-22
7.76671e-22
-5.53177e-24
7.74551e-22
1.63885e-23
7.70105e-22
3.80503e-23
7.62609e-22
5.87815e-23
7.52631e-22
7.88924e-23
7.40172e-22
9.78141e-23
7.25593e-22
1.15443e-22
7.09152e-22
1.31677e-22
6.91006e-22
1.46256e-22
6.71671e-22
1.59387e-22
6.50888e-22
1.70916e-22
6.29329e-22
1.81049e-22
6.07099e-22
1.89683e-22
5.84248e-22
1.96972e-22
5.61087e-22
2.03073e-22
5.37616e-22
2.07933e-22
5.14248e-22
2.11655e-22
4.90622e-22
2.14498e-22
4.67099e-22
2.16463e-22
4.43369e-22
2.176e-22
4.19846e-22
2.18014e-22
3.96426e-22
2.17704e-22
3.72852e-22
2.16773e-22
3.49329e-22
2.15119e-22
3.25961e-22
2.12947e-22
3.0249e-22
2.1e-22
2.79173e-22
2.06743e-22
2.55857e-22
2.02763e-22
2.32593e-22
1.98317e-22
2.0969e-22
1.9356e-22
1.86788e-22
1.88339e-22
1.64144e-22
1.8291e-22
1.41913e-22
1.77482e-22
1.19941e-22
1.72002e-22
9.82277e-23
1.66677e-22
7.69278e-23
1.61662e-22
5.58864e-23
1.57009e-22
3.50518e-23
1.52977e-22
1.45274e-23
1.4972e-22
1.47238e-22
-3.86029e-14
3.09783e-13
-7.65913e-14
3.06204e-13
-1.1372e-13
3.00063e-13
-1.49656e-13
2.91354e-13
-1.83903e-13
2.79848e-13
-2.16099e-13
2.65743e-13
-2.46167e-13
2.4976e-13
-2.72481e-13
2.30173e-13
-2.97863e-13
2.11703e-13
-3.19745e-13
1.90617e-13
-3.33509e-13
1.63358e-13
-3.52091e-13
1.45059e-13
-3.71382e-13
1.32702e-13
-3.7199e-13
1.05441e-13
-3.7708e-13
7.8837e-14
-3.79021e-13
5.57342e-14
-3.87104e-13
4.66241e-14
-3.79671e-13
2.65184e-14
-3.72219e-13
9.27473e-15
-3.73865e-13
-3.00805e-15
-3.67996e-13
-1.27307e-14
-3.62486e-13
-2.21441e-14
-3.56248e-13
-3.21801e-14
-3.51581e-13
-3.7531e-14
-3.45581e-13
-4.41763e-14
-3.39795e-13
-5.01671e-14
-3.33959e-13
-5.59706e-14
-3.27777e-13
-6.17483e-14
-3.2125e-13
-6.80264e-14
-3.14299e-13
-7.45924e-14
-3.06779e-13
-8.1517e-14
-2.98471e-13
-8.89877e-14
-2.8939e-13
-9.68118e-14
-2.79241e-13
-1.05079e-13
-2.68185e-13
-1.1306e-13
-2.55666e-13
-1.22422e-13
-2.42028e-13
-1.31351e-13
-2.27133e-13
-1.40038e-13
-2.11131e-13
-1.486e-13
-1.93744e-13
-1.56963e-13
-1.75099e-13
-1.64601e-13
-1.55305e-13
-1.71514e-13
-1.34568e-13
-1.77394e-13
-1.12837e-13
-1.82324e-13
-9.02954e-14
-1.85791e-13
-6.73593e-14
-1.87722e-13
-4.40995e-14
-1.88195e-13
-2.09248e-14
-1.86611e-13
2.03361e-15
-1.83238e-13
2.44005e-14
-1.78048e-13
4.57821e-14
-1.70879e-13
6.58698e-14
-1.61744e-13
8.46491e-14
-1.5108e-13
1.01538e-13
-1.38973e-13
1.16292e-13
-1.25266e-13
1.29186e-13
-1.11003e-13
1.39774e-13
-9.59309e-14
1.48174e-13
-8.06237e-14
1.54287e-13
-6.5084e-14
1.58317e-13
-4.99298e-14
1.6035e-13
-3.53008e-14
1.6043e-13
-2.12691e-14
1.58788e-13
-8.01559e-15
1.5558e-13
4.14126e-15
1.50976e-13
1.50897e-14
1.45106e-13
2.48769e-14
1.38165e-13
3.35517e-14
1.30189e-13
4.09285e-14
1.2136e-13
4.70882e-14
1.11692e-13
5.19097e-14
1.01153e-13
5.5511e-14
8.95792e-14
5.7874e-14
7.62481e-14
5.9244e-14
5.95347e-14
5.99837e-14
3.47154e-14
6.14757e-14
-1.50899e-14
7.38273e-14
-9.64043e-15
2.63774e-13
-3.70023e-15
2.70497e-13
-1.95332e-18
1.52225e-13
7.97409e-22
-9.79393e-22
7.98643e-22
-6.15216e-24
7.96213e-22
1.91803e-23
7.90836e-22
4.40474e-23
7.8272e-22
6.82941e-23
7.71553e-22
9.13001e-23
7.57801e-22
1.12962e-22
7.41774e-22
1.33073e-22
7.23783e-22
1.51374e-22
7.04138e-22
1.67918e-22
6.832e-22
1.82497e-22
6.61021e-22
1.95318e-22
6.38015e-22
2.06382e-22
6.14388e-22
2.15687e-22
5.90349e-22
2.2339e-22
5.65947e-22
2.29594e-22
5.41441e-22
2.34557e-22
5.1704e-22
2.3828e-22
4.92586e-22
2.40813e-22
4.68184e-22
2.42261e-22
4.43834e-22
2.42881e-22
4.19536e-22
2.42519e-22
3.95392e-22
2.41485e-22
3.71249e-22
2.39572e-22
3.47157e-22
2.36884e-22
3.23066e-22
2.33523e-22
2.99233e-22
2.29594e-22
2.75193e-22
2.24786e-22
2.51411e-22
2.19461e-22
2.27785e-22
2.13619e-22
2.04469e-22
2.07157e-22
1.81359e-22
2.00333e-22
1.58767e-22
1.93353e-22
1.36433e-22
1.86116e-22
1.14565e-22
1.79033e-22
9.32129e-23
1.72209e-22
7.23266e-23
1.65746e-22
5.18539e-23