/*--------------------------------*- C++ -*----------------------------------*\
  =========                 |
  \\      /  F ield         | OpenFOAM: The Open Source CFD Toolbox
   \\    /   O peration     | Website:  https://openfoam.org
    \\  /    A nd           | Version:  6
     \\/     M anipulation  |
\*---------------------------------------------------------------------------*/
FoamFile
{
    version     2.0;
    format      ascii;
    class       surfaceScalarField;
    location    "3800";
    object      phi;
}
// * * * * * * * * * * * * * * * * * * * * * * * * * * * * * * * * * * * * * //

dimensions      [0 3 -1 0 0 0 0];

internalField   nonuniform List<scalar> 
9440
(
1.21843e-10
-1.21843e-10
2.14044e-10
-9.21998e-11
2.68921e-10
-5.48753e-11
2.63483e-10
5.43864e-12
2.16734e-10
4.67506e-11
1.44147e-10
7.25877e-11
5.38807e-11
9.02671e-11
-6.92146e-11
1.23096e-10
-1.91867e-10
1.22653e-10
-2.96918e-10
1.05051e-10
-4.07169e-10
1.10251e-10
-5.15948e-10
1.08779e-10
-6.86451e-10
1.70503e-10
-1.00264e-09
3.16192e-10
-1.28658e-09
2.83939e-10
-1.59224e-09
3.05653e-10
-1.86378e-09
2.71539e-10
-1.95852e-09
9.47463e-11
-1.89792e-09
-6.06056e-11
-1.84395e-09
-5.3973e-11
-1.64027e-09
-2.03673e-10
-1.23898e-09
-4.01299e-10
-9.99549e-10
-2.39431e-10
-8.15425e-10
-1.84126e-10
-7.79781e-10
-3.56462e-11
-2.90845e-10
-4.88938e-10
4.21727e-11
-3.33021e-10
4.94603e-10
-4.52433e-10
9.95076e-10
-5.00475e-10
1.20461e-09
-2.09532e-10
1.35897e-09
-1.54367e-10
1.54189e-09
-1.82925e-10
1.79561e-09
-2.53719e-10
1.87255e-09
-7.69473e-11
1.90181e-09
-2.92632e-11
1.91467e-09
-1.28551e-11
1.90022e-09
1.4439e-11
1.86764e-09
3.25855e-11
1.82978e-09
3.78562e-11
1.77949e-09
5.02844e-11
1.74643e-09
3.30624e-11
1.64241e-09
1.0401e-10
1.5503e-09
9.21094e-11
1.39131e-09
1.58996e-10
1.19271e-09
1.98599e-10
1.00574e-09
1.86959e-10
8.00236e-10
2.05507e-10
4.6854e-10
3.31695e-10
2.12963e-10
2.55576e-10
2.02134e-11
1.92749e-10
-1.81319e-10
2.01532e-10
-3.3798e-10
1.5666e-10
-4.12618e-10
7.46383e-11
-4.24296e-10
1.16771e-11
-3.56034e-10
-6.82619e-11
-2.84692e-10
-7.13422e-11
-1.33886e-10
-1.50806e-10
-2.2267e-11
-1.11619e-10
-3.15885e-11
9.32157e-12
-1.20553e-11
-1.9533e-11
1.1648e-10
-1.28535e-10
3.86628e-10
-2.70148e-10
5.52929e-10
-1.66301e-10
7.32453e-10
-1.79524e-10
8.78613e-10
-1.4616e-10
1.11225e-09
-2.33638e-10
1.26678e-09
-1.54531e-10
1.26299e-09
3.79314e-12
1.33128e-09
-6.82868e-11
1.46447e-09
-1.33199e-10
1.54102e-09
-7.65458e-11
1.59965e-09
-5.86304e-11
1.53744e-09
6.22135e-11
1.4753e-09
6.21329e-11
1.31543e-09
1.59869e-10
1.18474e-09
1.30695e-10
8.81529e-10
3.03207e-10
2.52242e-10
6.29285e-10
-2.93639e-10
5.4588e-10
-3.23942e-10
3.03016e-11
9.77754e-16
-3.23945e-10
-3.95185e-18
-1.45562e-19
-3.77301e-18
-1.78835e-19
-3.70141e-18
-7.28398e-20
-3.64678e-18
-5.61991e-20
-3.56256e-18
-8.59853e-20
-3.43214e-18
-1.32313e-19
-3.25213e-18
-1.82012e-19
-3.025e-18
-2.29191e-19
-2.75604e-18
-2.71066e-19
-2.45197e-18
-3.06182e-19
-2.12032e-18
-3.33741e-19
-1.76902e-18
-3.53349e-19
-1.40609e-18
-3.64909e-19
-1.03942e-18
-3.68574e-19
-6.76515e-19
-3.64708e-19
-3.24368e-19
-3.53858e-19
1.0737e-20
-3.3672e-19
3.23314e-19
-3.14102e-19
6.08759e-19
-2.86892e-19
8.63389e-19
-2.56013e-19
1.08445e-18
-2.22396e-19
1.27008e-18
-1.8694e-19
1.41926e-18
-1.50494e-19
1.53177e-18
-1.13829e-19
1.60806e-18
-7.76286e-20
1.64915e-18
-4.24797e-20
1.65659e-18
-8.87017e-21
1.63229e-18
2.28082e-20
1.5785e-18
5.22537e-20
1.49766e-18
7.92444e-20
1.39238e-18
1.03629e-19
1.26537e-18
1.25312e-19
1.11938e-18
1.44246e-19
9.57188e-19
1.60413e-19
7.81552e-19
1.7382e-19
5.95227e-19
1.8448e-19
4.0096e-19
1.92401e-19
2.01542e-19
1.97537e-19
1.99654e-19
1.56381e-10
-2.78223e-10
2.81923e-10
-2.17739e-10
3.29161e-10
-1.02111e-10
3.02402e-10
3.21992e-11
2.61998e-10
8.71569e-11
1.75538e-10
1.59049e-10
6.42208e-11
2.01586e-10
-4.16956e-11
2.29014e-10
-1.70825e-10
2.51783e-10
-3.33699e-10
2.67926e-10
-5.09212e-10
2.85765e-10
-7.42407e-10
3.41974e-10
-1.01065e-09
4.38746e-10
-1.28998e-09
5.95519e-10
-1.57776e-09
5.71718e-10
-1.76576e-09
4.93654e-10
-1.9488e-09
4.54576e-10
-1.94443e-09
9.03778e-11
-1.82664e-09
-1.78402e-10
-1.79343e-09
-8.71812e-11
-1.73188e-09
-2.65231e-10
-1.40332e-09
-7.29862e-10
-1.11937e-09
-5.23386e-10
-9.12405e-10
-3.91092e-10
-4.6584e-10
-4.82215e-10
-1.01149e-10
-8.53634e-10
2.64934e-10
-6.99108e-10
5.0867e-10
-6.96175e-10
8.95086e-10
-8.86896e-10
1.15783e-09
-4.72283e-10
1.3548e-09
-3.51335e-10
1.52975e-09
-3.57887e-10
1.78415e-09
-5.08123e-10
1.835e-09
-1.27794e-10
1.85017e-09
-4.44397e-11
1.82439e-09
1.29213e-11
1.76812e-09
7.07e-11
1.71128e-09
8.94246e-11
1.63964e-09
1.09492e-10
1.59171e-09
9.82092e-11
1.53048e-09
9.42851e-11
1.47831e-09
1.56186e-10
1.39109e-09
1.79321e-10
1.29269e-09
2.57393e-10
1.15916e-09
3.32124e-10
9.78691e-10
3.6743e-10
8.02715e-10
3.81482e-10
6.60862e-10
4.73547e-10
5.0674e-10
4.09696e-10
2.05511e-10
4.93977e-10
-3.57291e-11
4.42772e-10
-1.84729e-10
3.05659e-10
-2.87508e-10
1.77416e-10
-2.92443e-10
1.66119e-11
-2.84212e-10
-7.64929e-11
-2.74334e-10
-8.12205e-11
-2.89588e-10
-1.35553e-10
-1.91394e-10
-2.09812e-10
-1.67085e-11
-1.65363e-10
6.17416e-11
-9.79828e-11
1.62683e-10
-2.29477e-10
3.88084e-10
-4.95548e-10
5.71436e-10
-3.49652e-10
7.42417e-10
-3.50505e-10
8.20798e-10
-2.2454e-10
9.69581e-10
-3.8242e-10
1.16955e-09
-3.54498e-10
1.14856e-09
2.47779e-11
1.30538e-09
-2.251e-10
1.34759e-09
-1.75417e-10
1.40862e-09
-1.37573e-10
1.39325e-09
-4.32603e-11
1.38461e-09
7.08458e-11
1.33022e-09
1.16521e-10
1.2107e-09
2.7939e-10
1.10986e-09
2.31535e-10
9.35849e-10
4.77215e-10
9.08597e-10
6.56535e-10
8.61366e-10
5.93108e-10
5.10855e-10
3.80809e-10
8.64829e-16
1.86907e-10
-3.86341e-18
-1.90542e-18
-3.6688e-18
-3.74794e-19
-3.68544e-18
-5.89914e-20
-3.67642e-18
-6.84223e-20
-3.60889e-18
-1.56956e-19
-3.48184e-18
-2.62975e-19
-3.29931e-18
-3.68282e-19
-3.06688e-18
-4.65422e-19
-2.79115e-18
-5.50602e-19
-2.47953e-18
-6.21587e-19
-2.13993e-18
-6.77043e-19
-1.78058e-18
-7.16286e-19
-1.40976e-18
-7.39183e-19
-1.03555e-18
-7.46073e-19
-6.65665e-19
-7.37721e-19
-3.07229e-19
-7.15258e-19
3.33545e-20
-6.80112e-19
3.50525e-19
-6.33943e-19
6.39638e-19
-5.78562e-19
8.97007e-19
-5.15855e-19
1.1199e-18
-4.47713e-19
1.30652e-18
-3.75962e-19
1.45593e-18
-3.02315e-19
1.56797e-18
-2.28328e-19
1.6432e-18
-1.55373e-19
1.68276e-18
-8.46248e-20
1.68826e-18
-1.70534e-20
1.66174e-18
4.6566e-20
1.60549e-18
1.0564e-19
1.52204e-18
1.59738e-19
1.41406e-18
2.08568e-19
1.28431e-18
2.51956e-19
1.13555e-18
2.89814e-19
9.70595e-19
3.22124e-19
7.92213e-19
3.48909e-19
6.03148e-19
3.70216e-19
4.06097e-19
3.86097e-19
2.03659e-19
3.96605e-19
4.01833e-19
1.67077e-10
-4.45299e-10
2.83772e-10
-3.34432e-10
3.88864e-10
-2.07202e-10
2.94075e-10
1.2699e-10
2.29748e-10
1.51486e-10
1.33006e-10
2.55792e-10
2.58609e-11
3.08733e-10
-9.68677e-11
3.51743e-10
-2.47019e-10
4.01935e-10
-4.36531e-10
4.57439e-10
-6.77059e-10
5.26293e-10
-9.69338e-10
6.34253e-10
-1.28766e-09
7.5707e-10
-1.50368e-09
8.11541e-10
-1.66958e-09
7.37617e-10
-1.75908e-09
5.83153e-10
-1.82826e-09
5.23753e-10
-1.83146e-09
9.3572e-11
-1.50999e-09
-4.99872e-10
-1.37528e-09
-2.21892e-10
-1.26779e-09
-3.72729e-10
-1.13133e-09
-8.66322e-10
-9.04434e-10
-7.50286e-10
-5.06022e-10
-7.89507e-10
2.43269e-11
-1.01257e-09
2.2907e-10
-1.05838e-09
5.32701e-10
-1.00274e-09
7.5068e-10
-9.14158e-10
8.3074e-10
-9.6696e-10
1.16837e-09
-8.09922e-10
1.46838e-09
-6.51347e-10
1.67281e-09
-5.62318e-10
1.73643e-09
-5.71751e-10
1.83113e-09
-2.22496e-10
1.8667e-09
-8.00142e-11
1.84546e-09
3.41593e-11
1.7553e-09
1.60858e-10
1.63676e-09
2.07955e-10
1.49137e-09
2.54885e-10
1.38298e-09
2.06595e-10
1.33556e-09
1.417e-10
1.30486e-09
1.86882e-10
1.24335e-09
2.40826e-10
1.1607e-09
3.40049e-10
1.04879e-09
4.44024e-10
8.58269e-10
5.57953e-10
6.61697e-10
5.78052e-10
5.45918e-10
5.89325e-10
3.1913e-10
6.36483e-10
1.21965e-10
6.91141e-10
-3.08649e-11
5.95601e-10
-1.31172e-10
4.05965e-10
-1.85611e-10
2.31856e-10
-1.94281e-10
2.52815e-11
-2.08704e-10
-6.207e-11
-1.92384e-10
-9.75404e-11
-2.28029e-10
-9.99079e-11
-2.26096e-10
-2.11745e-10
-5.8466e-11
-3.32993e-10
9.4887e-11
-2.51336e-10
2.21847e-10
-3.56437e-10
3.35902e-10
-6.09603e-10
5.2176e-10
-5.3551e-10
6.54488e-10
-4.83233e-10
7.71982e-10
-3.42034e-10
9.02633e-10
-5.13071e-10
1.03361e-09
-4.85478e-10
1.17446e-09
-1.1607e-10
1.22958e-09
-2.80223e-10
1.30472e-09
-2.50553e-10
1.35269e-09
-1.8555e-10
1.31265e-09
-3.2167e-12
1.32243e-09
6.10655e-11
1.2337e-09
2.0525e-10
1.16874e-09
3.44344e-10
1.00313e-09
3.9714e-10
9.89579e-10
4.90767e-10
1.07515e-09
5.70962e-10
1.1037e-09
5.64555e-10
8.22178e-10
6.62329e-10
9.70605e-16
1.00908e-09
-2.09609e-18
3.3505e-18
-3.35226e-18
8.8023e-19
-3.69413e-18
2.80237e-19
-3.76438e-18
-1.16322e-21
-3.71491e-18
-2.09631e-19
-3.58715e-18
-3.94094e-19
-3.39645e-18
-5.62459e-19
-3.15206e-18
-7.13356e-19
-2.86214e-18
-8.44084e-19
-2.53498e-18
-9.52293e-19
-2.17917e-18
-1.03635e-18
-1.80348e-18
-1.09539e-18
-1.41665e-18
-1.12931e-18
-1.0272e-18
-1.13868e-18
-6.43202e-19
-1.12474e-18
-2.72084e-19
-1.08924e-18
7.95234e-20
-1.03444e-18
4.05906e-19
-9.62901e-19
7.02344e-19
-8.77449e-19
9.6515e-19
-7.81003e-19
1.19165e-18
-6.76478e-19
1.38017e-18
-5.66687e-19
1.52992e-18
-4.54249e-19
1.64093e-18
-3.41535e-19
1.71395e-18
-2.30622e-19
1.75033e-18
-1.23274e-19
1.75188e-18
-2.09404e-20
1.72081e-18
7.52346e-20
1.65959e-18
1.64386e-19
1.57087e-18
2.45898e-19
1.45745e-18
3.19364e-19
1.32216e-18
3.84553e-19
1.16786e-18
4.41366e-19
9.9738e-19
4.89802e-19
8.1352e-19
5.29924e-19
6.19029e-19
5.61828e-19
4.16604e-19
5.85623e-19
2.08887e-19
6.01412e-19
6.09295e-19
1.58205e-10
-6.03502e-10
2.51011e-10
-4.27236e-10
3.39444e-10
-2.95633e-10
2.4301e-10
2.23425e-10
1.48363e-10
2.46135e-10
5.52359e-11
3.4892e-10
-4.66264e-11
4.10596e-10
-1.73516e-10
4.78634e-10
-3.33764e-10
5.62183e-10
-5.12227e-10
6.35903e-10
-7.38851e-10
7.52917e-10
-1.03682e-09
9.32218e-10
-1.30455e-09
1.0248e-09
-1.49006e-09
9.9705e-10
-1.61289e-09
8.60448e-10
-1.66967e-09
6.3993e-10
-1.66163e-09
5.15713e-10
-1.55603e-09
-1.20271e-11
-1.36066e-09
-6.95252e-10
-1.09467e-09
-4.87877e-10
-9.94592e-10
-4.72813e-10
-8.16942e-10
-1.04397e-09
-3.92267e-10
-1.17496e-09
-1.66249e-11
-1.16515e-09
3.28152e-10
-1.35735e-09
5.40695e-10
-1.27093e-09
8.08403e-10
-1.27045e-09
1.14054e-09
-1.2463e-09
1.16032e-09
-9.86736e-10
1.31865e-09
-9.6826e-10
1.50877e-09
-8.4147e-10
1.65673e-09
-7.10287e-10
1.6557e-09
-5.70724e-10
1.74667e-09
-3.13461e-10
1.78823e-09
-1.2158e-10
1.813e-09
9.38769e-12
1.82397e-09
1.49875e-10
1.70421e-09
3.27712e-10
1.54951e-09
4.09591e-10
1.37924e-09
3.7686e-10
1.20311e-09
3.17826e-10
1.16952e-09
2.20466e-10
1.14439e-09
2.6596e-10
1.08668e-09
3.9775e-10
9.59289e-10
5.71417e-10
7.81761e-10
7.35479e-10
5.79751e-10
7.8006e-10
4.17296e-10
7.51779e-10
2.54026e-10
7.99752e-10
1.26783e-10
8.18382e-10
5.35989e-12
7.17024e-10
-7.83346e-11
4.89659e-10
-4.85564e-11
2.02077e-10
-9.9133e-11
7.58577e-11
-1.30938e-10
-3.02647e-11
-8.40665e-11
-1.44412e-10
-4.71553e-11
-1.36819e-10
-3.82033e-11
-2.20697e-10
3.62946e-11
-4.07491e-10
2.21857e-10
-4.36897e-10
3.17678e-10
-4.52258e-10
3.57813e-10
-6.49737e-10
4.83996e-10
-6.61693e-10
5.85842e-10
-5.85078e-10
7.28083e-10
-4.84275e-10
8.76784e-10
-6.61772e-10
9.55836e-10
-5.6453e-10
1.19806e-09
-3.58291e-10
1.21965e-09
-3.01818e-10
1.25558e-09
-2.86487e-10
1.26221e-09
-1.92181e-10
1.27182e-09
-1.28282e-11
1.25271e-09
8.01804e-11
1.18794e-09
2.70019e-10
1.10004e-09
4.32238e-10
1.02752e-09
4.69655e-10
9.88631e-10
5.29655e-10
8.30114e-10
7.29476e-10
5.47965e-10
8.46701e-10
2.24422e-10
9.85869e-10
1.10106e-15
1.2335e-09
-4.20697e-18
1.20769e-18
-3.95143e-18
6.23461e-19
-3.97475e-18
3.00684e-19
-3.97229e-18
-6.86076e-21
-3.89937e-18
-2.85994e-19
-3.75551e-18
-5.4155e-19
-3.54734e-18
-7.74346e-19
-3.28278e-18
-9.81712e-19
-2.97035e-18
-1.16035e-18
-2.61904e-18
-1.30743e-18
-2.23822e-18
-1.42096e-18
-1.83739e-18
-1.49993e-18
-1.42602e-18
-1.5443e-18
-1.01325e-18
-1.55494e-18
-6.07708e-19
-1.53363e-18
-2.17278e-19
-1.48286e-18
1.51059e-19
-1.4058e-18
4.91357e-19
-1.30606e-18
7.98791e-19
-1.18759e-18
1.06967e-18
-1.05445e-18
1.30145e-18
-9.10689e-19
1.49261e-18
-7.60193e-19
1.64263e-18
-6.06553e-19
1.75184e-18
-4.52997e-19
1.8213e-18
-3.0233e-19
1.85266e-18
-1.56909e-19
1.84806e-18
-1.86483e-20
1.80996e-18
1.10962e-19
1.7411e-18
2.30819e-19
1.64434e-18
3.40158e-19
1.52264e-18
4.38498e-19
1.37898e-18
5.25591e-19
1.2163e-18
6.01363e-19
1.0375e-18
6.65866e-19
8.45424e-19
7.19229e-19
6.42824e-19
7.61624e-19
4.32393e-19
7.93228e-19
2.1677e-19
8.142e-19
8.24665e-19
6.14455e-11
-6.64946e-10
1.14633e-10
-4.80421e-10
1.2338e-10
-3.04379e-10
1.64255e-10
1.82551e-10
9.45778e-11
3.15814e-10
2.12387e-12
4.41375e-10
-1.34244e-10
5.46965e-10
-2.80895e-10
6.25287e-10
-4.19267e-10
7.00555e-10
-6.16134e-10
8.32771e-10
-8.46775e-10
9.83558e-10
-1.0868e-09
1.17224e-09
-1.27833e-09
1.21633e-09
-1.44128e-09
1.16e-09
-1.49667e-09
9.15838e-10
-1.49984e-09
6.43095e-10
-1.38735e-09
4.03219e-10
-1.2499e-09
-1.4948e-10
-1.2241e-09
-7.21047e-10
-9.08762e-10
-8.0322e-10
-5.41847e-10
-8.39731e-10
-2.56782e-10
-1.32904e-09
3.22617e-11
-1.46401e-09
3.59633e-10
-1.49253e-09
7.31122e-10
-1.72884e-09
1.00345e-09
-1.54326e-09
1.21685e-09
-1.48386e-09
1.38788e-09
-1.41734e-09
1.53385e-09
-1.13271e-09
1.56661e-09
-1.00102e-09
1.64194e-09
-9.16805e-10
1.65466e-09
-7.23015e-10
1.63682e-09
-5.52883e-10
1.70734e-09
-3.8399e-10
1.70375e-09
-1.17991e-10
1.70218e-09
1.09549e-11
1.76759e-09
8.44629e-11
1.71715e-09
3.78146e-10
1.62839e-09
4.98345e-10
1.45025e-09
5.55003e-10
1.23338e-09
5.34693e-10
1.14246e-09
3.11384e-10
9.6752e-10
4.40894e-10
8.13082e-10
5.52186e-10
6.7092e-10
7.13577e-10
5.68834e-10
8.37564e-10
4.55811e-10
8.93081e-10
3.20272e-10
8.87317e-10
1.91422e-10
9.28601e-10
7.01828e-11
9.3962e-10
1.62594e-11
7.70946e-10
1.12899e-11
4.94628e-10
-2.71758e-12
2.16084e-10
-4.22236e-11
1.15363e-10
-7.43859e-11
1.89747e-12
-1.35339e-10
-8.34593e-11
4.27226e-11
-3.1488e-10
2.08228e-10
-3.86202e-10
2.13639e-10
-4.12902e-10
2.63446e-10
-4.86704e-10
3.69592e-10
-5.58404e-10
4.01454e-10
-6.81599e-10
5.38231e-10
-7.9847e-10
6.34247e-10
-6.81094e-10
8.17455e-10
-6.67484e-10
8.99485e-10
-7.43803e-10
9.2525e-10
-5.90295e-10
1.11545e-09
-5.48493e-10
1.20157e-09
-3.87938e-10
1.19884e-09
-2.83763e-10
1.18966e-09
-1.82994e-10
1.21182e-09
-3.49961e-11
1.17663e-09
1.15375e-10
1.15423e-09
2.92412e-10
1.12741e-09
4.59053e-10
1.0557e-09
5.41367e-10
9.26399e-10
6.5895e-10
6.89915e-10
9.65956e-10
3.82612e-10
1.154e-09
1.78582e-10
1.1899e-09
1.23955e-15
1.41208e-09
-4.28647e-18
1.37528e-18
-4.27339e-18
6.09e-19
-4.28152e-18
3.05643e-19
-4.2509e-18
-4.10133e-20
-4.15492e-18
-3.85704e-19
-3.98831e-18
-7.12059e-19
-3.75471e-18
-1.01196e-18
-3.46142e-18
-1.2791e-18
-3.11743e-18
-1.5085e-18
-2.73257e-18
-1.69645e-18
-2.31719e-18
-1.8405e-18
-1.88176e-18
-1.93946e-18
-1.43667e-18
-1.99339e-18
-9.91935e-19
-2.00357e-18
-5.56944e-19
-1.97237e-18
-1.40214e-19
-1.90319e-18
2.50795e-19
-1.80023e-18
6.09832e-19
-1.66834e-18
9.31931e-19
-1.51274e-18
1.21343e-18
-1.33882e-18
1.45194e-18
-1.1519e-18
1.64625e-18
-9.57055e-19
1.79619e-18
-7.58937e-19
1.90251e-18
-5.61689e-19
1.96672e-18
-3.68869e-19
1.99092e-18
-1.83428e-19
1.97767e-18
-7.72474e-21
1.92982e-18
1.56445e-19
1.85044e-18
3.07787e-19
1.74268e-18
4.45442e-19
1.60973e-18
5.68912e-19
1.45475e-18
6.77988e-19
1.2808e-18
7.72671e-19
1.09087e-18
8.53112e-19
8.87819e-19
9.19549e-19
6.74427e-19
9.72258e-19
4.53366e-19
1.01151e-18
2.27234e-19
1.03754e-18
1.05053e-18
4.10237e-11
-7.05969e-10
7.79311e-11
-5.17327e-10
4.58332e-11
-2.7228e-10
7.73508e-11
1.51035e-10
2.30002e-11
3.70165e-10
-7.88658e-11
5.43242e-10
-2.0013e-10
6.6823e-10
-3.55506e-10
7.80664e-10
-5.71047e-10
9.16098e-10
-7.9219e-10
1.05391e-09
-1.03791e-09
1.22927e-09
-1.19013e-09
1.32447e-09
-1.2998e-09
1.326e-09
-1.31855e-09
1.17876e-09
-1.28489e-09
8.82173e-10
-1.20928e-09
5.67485e-10
-1.06946e-09
2.63403e-10
-1.08473e-09
-1.34218e-10
-9.24198e-10
-8.81579e-10
-6.26532e-10
-1.10089e-09
-2.16159e-10
-1.25011e-09
-1.01252e-10
-1.44395e-09
4.47522e-11
-1.61002e-09
4.0976e-10
-1.85754e-09
7.50995e-10
-2.07008e-09
1.07357e-09
-1.86584e-09
1.31054e-09
-1.72083e-09
1.46189e-09
-1.56869e-09
1.614e-09
-1.28483e-09
1.68774e-09
-1.07476e-09
1.77904e-09
-1.00811e-09
1.85959e-09
-8.03571e-10
1.78181e-09
-4.75103e-10
1.7977e-09
-3.99885e-10
1.80772e-09
-1.28012e-10
1.76433e-09
5.4339e-11
1.73641e-09
1.12379e-10
1.69246e-09
4.22088e-10
1.59555e-09
5.95256e-10
1.42665e-09
7.23902e-10
1.21995e-09
7.41383e-10
1.01283e-09
5.18508e-10
8.3383e-10
6.1989e-10
7.04864e-10
6.8115e-10
5.7834e-10
8.40099e-10
4.54084e-10
9.61819e-10
3.27403e-10
1.01976e-09
2.00351e-10
1.01437e-09
1.11019e-10
1.01793e-09
7.69096e-11
9.73729e-10
1.00306e-10
7.47549e-10
8.54615e-11
5.09472e-10
2.67737e-12
2.98868e-10
-4.02659e-11
1.58306e-10
6.53558e-12
-4.49041e-11
9.5208e-11
-1.72132e-10
8.01549e-11
-2.99827e-10
1.56999e-10
-4.63047e-10
3.37624e-10
-5.93526e-10
4.56209e-10
-6.05288e-10
5.33883e-10
-6.36078e-10
5.42764e-10
-6.9048e-10
6.16809e-10
-8.72515e-10
7.42183e-10
-8.06468e-10
8.89322e-10
-8.14623e-10
9.15144e-10
-7.69625e-10
9.5473e-10
-6.29881e-10
1.0726e-09
-6.66361e-10
1.17839e-09
-4.93736e-10
1.21532e-09
-3.20689e-10
1.185e-09
-1.52679e-10
1.19399e-09
-4.39848e-11
1.17107e-09
1.38296e-10
1.16024e-09
3.03234e-10
1.06712e-09
5.52175e-10
9.91967e-10
6.16512e-10
8.04533e-10
8.4638e-10
6.73171e-10
1.09731e-09
6.18583e-10
1.20858e-09
3.88774e-10
1.4197e-09
1.34063e-15
1.80085e-09
-4.41329e-18
1.93646e-18
-4.57592e-18
7.70101e-19
-4.62739e-18
3.53676e-19
-4.5951e-18
-7.70948e-20
-4.48128e-18
-5.03518e-19
-4.28821e-18
-9.09273e-19
-4.02185e-18
-1.2826e-18
-3.69083e-18
-1.6145e-18
-3.30537e-18
-1.8984e-18
-2.87662e-18
-2.12968e-18
-2.41615e-18
-2.30544e-18
-1.93569e-18
-2.42435e-18
-1.44685e-18
-2.48661e-18
-9.6074e-19
-2.49395e-18
-4.87761e-19
-2.44951e-18
-3.72576e-20
-2.3577e-18
3.82689e-19
-2.22402e-18
7.65433e-19
-2.05473e-18
1.10585e-18
-1.8566e-18
1.40035e-18
-1.63654e-18
1.64679e-18
-1.40136e-18
1.84436e-18
-1.15745e-18
1.99343e-18
-9.10659e-19
2.09533e-18
-6.66108e-19
2.15216e-18
-4.28134e-19
2.16663e-18
-2.00277e-19
2.14184e-18
1.46994e-20
2.08116e-18
2.14748e-19
1.98809e-18
3.98452e-19
1.86615e-18
5.64935e-19
1.71881e-18
7.13757e-19
1.54943e-18
8.44819e-19
1.36124e-18
9.58267e-19
1.1573e-18
1.05441e-18
9.40528e-19
1.13365e-18
7.13681e-19
1.1964e-18
4.79398e-19
1.24307e-18
2.40217e-19
1.27399e-18
1.28941e-18
-4.10789e-11
-6.64889e-10
-2.99435e-11
-5.2846e-10
-1.11371e-11
-2.91085e-10
-1.08463e-11
1.50745e-10
-8.7651e-11
4.46971e-10
-1.67999e-10
6.23591e-10
-2.67805e-10
7.68037e-10
-4.32622e-10
9.45481e-10
-6.32148e-10
1.11562e-09
-8.94176e-10
1.31594e-09
-1.11094e-09
1.44604e-09
-1.22609e-09
1.43961e-09
-1.27327e-09
1.37318e-09
-1.19389e-09
1.09938e-09
-1.07369e-09
7.6197e-10
-9.3653e-10
4.30323e-10
-7.93141e-10
1.20012e-10
-6.68334e-10
-2.59027e-10
-4.78792e-10
-1.07112e-09
-4.0801e-10
-1.17167e-09
-1.83882e-10
-1.47424e-09
1.22817e-10
-1.75065e-09
5.17129e-10
-2.00433e-09
7.57401e-10
-2.09781e-09
8.17701e-10
-2.13038e-09
1.02763e-09
-2.07577e-09
1.1497e-09
-1.8429e-09
1.3595e-09
-1.7785e-09
1.54154e-09
-1.46687e-09
1.84564e-09
-1.37887e-09
1.7858e-09
-9.48276e-10
1.90267e-09
-9.20438e-10
1.86782e-09
-4.40258e-10
1.87304e-09
-4.05112e-10
1.87092e-09
-1.25896e-10
1.81733e-09
1.07933e-10
1.707e-09
2.22706e-10
1.66533e-09
4.63747e-10
1.606e-09
6.54589e-10
1.52329e-09
8.06604e-10
1.38204e-09
8.82637e-10
1.05468e-09
8.45861e-10
8.67351e-10
8.07218e-10
6.92786e-10
8.55712e-10
5.4174e-10
9.91143e-10
4.10314e-10
1.09324e-09
3.07852e-10
1.12222e-09
2.11262e-10
1.11096e-09
1.61159e-10
1.06803e-09
1.62876e-10
9.7201e-10
1.69327e-10
7.41098e-10
1.70813e-10
5.07985e-10
1.33703e-10
3.35978e-10
1.55318e-10
1.36691e-10
8.94113e-11
2.10025e-11
1.17647e-10
-2.00367e-10
2.63235e-10
-4.45415e-10
3.55793e-10
-5.55604e-10
3.94603e-10
-6.32337e-10
4.84372e-10
-6.95057e-10
6.36276e-10
-7.87982e-10
7.28447e-10
-7.82651e-10
7.22799e-10
-8.66867e-10
8.51013e-10
-9.34682e-10
9.43896e-10
-9.07507e-10
1.00383e-09
-8.29556e-10
1.09633e-09
-7.22387e-10
1.10426e-09
-6.74288e-10
1.14485e-09
-5.34336e-10
1.17429e-09
-3.50128e-10
1.17687e-09
-1.55257e-10
1.19597e-09
-6.30899e-11
1.16393e-09
1.70328e-10
1.12249e-09
3.44669e-10
1.05133e-09
6.23339e-10
9.54219e-10
7.13616e-10
7.77119e-10
1.02348e-09
6.60477e-10
1.21395e-09
4.9312e-10
1.37594e-09
3.09373e-10
1.60344e-09
1.3988e-15
2.11022e-09
-4.82011e-18
2.31051e-18
-4.99151e-18
9.3983e-19
-5.05737e-18
4.15912e-19
-5.02108e-18
-1.17358e-19
-4.88703e-18
-6.41734e-19
-4.66154e-18
-1.13909e-18
-4.35375e-18
-1.59485e-18
-3.97472e-18
-1.99809e-18
-3.53666e-18
-2.3411e-18
-3.05238e-18
-2.61865e-18
-2.53505e-18
-2.82748e-18
-1.99796e-18
-2.96614e-18
-1.45419e-18
-3.03504e-18
-9.16297e-19
-3.03643e-18
-3.95955e-19
-2.97435e-18
9.64253e-20
-2.85446e-18
5.51975e-19
-2.68379e-18
9.63566e-19
-2.47036e-18
1.32591e-18
-2.22277e-18
1.63554e-18
-1.94977e-18
1.89069e-18
-1.65987e-18
2.09115e-18
-1.36102e-18
2.23799e-18
-1.06039e-18
2.3333e-18
-7.64137e-19
2.38002e-18
-4.77419e-19
2.38161e-18
-2.04335e-19
2.34189e-18
5.20038e-20
2.26487e-18
2.89378e-19
2.15457e-18
5.06347e-19
2.01497e-18
7.02115e-19
1.84987e-18
8.76402e-19
1.66288e-18
1.02931e-18
1.45738e-18
1.16122e-18
1.23654e-18
1.27268e-18
1.00328e-18
1.36429e-18
7.60351e-19
1.43669e-18
5.1032e-19
1.49044e-18
2.55629e-19
1.52602e-18
1.54373e-18
-2.57725e-11
-6.39116e-10
-5.84904e-11
-4.95741e-10
-8.34684e-11
-2.66106e-10
-6.89068e-11
1.36185e-10
-8.61843e-11
4.6425e-10
-2.11773e-10
7.49181e-10
-3.48516e-10
9.0478e-10
-4.84498e-10
1.08146e-09
-6.75513e-10
1.30664e-09
-8.76221e-10
1.51665e-09
-1.01623e-09
1.58605e-09
-1.16223e-09
1.58561e-09
-1.18873e-09
1.39967e-09
-1.089e-09
9.9965e-10
-9.33183e-10
6.06151e-10
-7.77748e-10
2.74887e-10
-6.54213e-10
-3.52499e-12
-4.08758e-10
-5.04485e-10
-2.69132e-10
-1.21075e-09
-2.36428e-11
-1.41716e-09
3.11502e-10
-1.80939e-09
5.35827e-10
-1.97498e-09
6.55376e-10
-2.12388e-09
8.65471e-10
-2.30791e-09
9.98416e-10
-2.26333e-09
1.11708e-09
-2.19444e-09
1.23937e-09
-1.9652e-09
1.45859e-09
-1.99772e-09
1.53727e-09
-1.54555e-09
1.69019e-09
-1.5318e-09
1.71786e-09
-9.7595e-10
1.9159e-09
-1.11847e-09
1.91728e-09
-4.41643e-10
1.90165e-09
-3.89485e-10
1.92166e-09
-1.45915e-10
1.90678e-09
1.22814e-10
1.78112e-09
3.48365e-10
1.71999e-09
5.24875e-10
1.62884e-09
7.45737e-10
1.5041e-09
9.31336e-10
1.30956e-09
1.07718e-09
1.09114e-09
1.06427e-09
8.39321e-10
1.05904e-09
6.41969e-10
1.05306e-09
5.66103e-10
1.06701e-09
5.00209e-10
1.15914e-09
3.69853e-10
1.25258e-09
2.53031e-10
1.22778e-09
2.19043e-10
1.10202e-09
2.26763e-10
9.64289e-10
2.29046e-10
7.38814e-10
2.56718e-10
4.80313e-10
2.78786e-10
3.13909e-10
2.41328e-10
1.7415e-10
2.99834e-10
-3.75039e-11
3.28645e-10
-2.29177e-10
2.92238e-10
-4.09008e-10
3.86839e-10
-6.50206e-10
5.48296e-10
-7.93793e-10
6.51235e-10
-7.97996e-10
6.61463e-10
-7.9821e-10
7.6276e-10
-8.83948e-10
8.49756e-10
-9.53863e-10
9.2313e-10
-1.00806e-09
9.79505e-10
-9.63882e-10
1.04217e-09
-8.92224e-10
1.12132e-09
-8.01534e-10
1.15244e-09
-7.05416e-10
1.16767e-09
-5.49562e-10
1.12447e-09
-3.06936e-10
1.21173e-09
-2.42519e-10
1.15176e-09
-3.11905e-12
1.16043e-09
1.61651e-10
1.04976e-09
4.55342e-10
1.02259e-09
6.50502e-10
8.32799e-10
9.03402e-10
7.55419e-10
1.10085e-09
6.0017e-10
1.3692e-09
3.90455e-10
1.58565e-09
2.17606e-10
1.77629e-09
1.41417e-15
2.32782e-09
-5.30757e-18
2.9009e-18
-5.51456e-18
1.14506e-18
-5.58984e-18
4.87465e-19
-5.54507e-18
-1.66193e-19
-5.38439e-18
-8.06674e-19
-5.11731e-18
-1.41057e-18
-4.75698e-18
-1.95973e-18
-4.31774e-18
-2.442e-18
-3.81421e-18
-2.8494e-18
-3.2612e-18
-3.1765e-18
-2.67372e-18
-3.41983e-18
-2.06686e-18
-3.57787e-18
-1.45557e-18
-3.65118e-18
-8.5421e-19
-3.6426e-18
-2.76066e-19
-3.55723e-18
2.67091e-19
-3.40226e-18
7.65401e-19
-3.18662e-18
1.21116e-18
-2.92049e-18
1.59891e-18
-2.61471e-18
1.92544e-18
-2.28025e-18
2.18954e-18
-1.92766e-18
2.39179e-18
-1.5667e-18
2.53423e-18
-1.20599e-18
2.62002e-18
-8.52848e-19
2.6531e-18
-5.13231e-19
2.63794e-18
-1.91755e-19
2.57926e-18
1.08208e-19
2.48183e-18
3.84386e-19
2.35034e-18
6.35444e-19
2.18926e-18
8.60801e-19
2.00278e-18
1.06046e-18
1.79479e-18
1.23486e-18
1.56884e-18
1.3847e-18
1.32815e-18
1.51084e-18
1.07568e-18
1.61422e-18
8.14105e-19
1.6957e-18
5.45891e-19
1.75607e-18
2.73346e-19
1.79596e-18
1.81582e-18
3.82698e-11
-6.77385e-10
-1.99605e-11
-4.37509e-10
-7.37277e-11
-2.12337e-10
-1.60191e-10
2.22649e-10
-3.11607e-10
6.15667e-10
-3.14803e-10
7.52377e-10
-4.1565e-10
1.00563e-09
-5.65767e-10
1.23158e-09
-7.1862e-10
1.45949e-09
-8.54584e-10
1.65261e-09
-9.62121e-10
1.69358e-09
-1.03445e-09
1.65794e-09
-9.84353e-10
1.34958e-09
-8.80422e-10
8.95717e-10
-7.54869e-10
4.80597e-10
-6.29322e-10
1.49338e-10
-5.01646e-10
-1.31203e-10
-1.09816e-10
-8.96316e-10
-3.73885e-11
-1.28318e-09
1.11581e-10
-1.56614e-09
3.49389e-10
-2.0472e-09
5.79606e-10
-2.2052e-09
7.44701e-10
-2.28898e-09
8.3993e-10
-2.40314e-09
9.39663e-10
-2.36307e-09
1.0358e-09
-2.29058e-09
1.20217e-09
-2.13157e-09
1.32172e-09
-2.11728e-09
1.48342e-09
-1.70725e-09
1.79541e-09
-1.84379e-09
1.70106e-09
-8.81599e-10
1.89016e-09
-1.30758e-09
2.01613e-09
-5.6762e-10
1.81054e-09
-1.83894e-10
1.97459e-09
-3.09972e-10
1.93556e-09
1.61845e-10
1.92405e-09
3.59872e-10
1.78895e-09
6.59971e-10
1.69626e-09
8.38421e-10
1.48588e-09
1.14172e-09
1.27862e-09
1.28443e-09
1.08843e-09
1.25447e-09
8.79174e-10
1.26829e-09
7.70085e-10
1.16215e-09
5.50258e-10
1.28683e-09
3.37575e-10
1.37182e-09
2.57006e-10
1.33314e-09
2.81059e-10
1.20372e-09
2.93131e-10
1.08995e-09
3.07386e-10
9.50034e-10
3.23227e-10
7.22972e-10
3.26689e-10
4.76851e-10
3.68587e-10
2.72011e-10
3.80149e-10
1.62588e-10
3.68377e-10
-2.57324e-11
4.01329e-10
-2.62129e-10
4.46015e-10
-4.53694e-10
4.3804e-10
-6.4223e-10
4.89848e-10
-8.45602e-10
6.45597e-10
-9.53745e-10
7.738e-10
-9.26413e-10
7.99717e-10
-9.09865e-10
8.84578e-10
-1.03872e-09
9.2565e-10
-1.04913e-09
9.79477e-10
-1.01771e-09
1.05001e-09
-9.62753e-10
1.13935e-09
-8.90879e-10
1.17125e-09
-7.37318e-10
1.19655e-09
-5.74862e-10
1.15131e-09
-2.61701e-10
1.18084e-09
-2.72056e-10
1.12578e-09
5.19433e-11
1.11129e-09
1.76139e-10
1.00088e-09
5.65749e-10
9.8788e-10
6.63493e-10
8.13189e-10
1.07809e-09
8.37122e-10
1.07691e-09
6.85842e-10
1.52047e-09
5.62971e-10
1.70851e-09
3.91738e-10
1.94751e-09
1.40199e-15
2.71955e-09
-6.04899e-18
3.05109e-18
-6.17127e-18
1.26553e-18
-6.24269e-18
5.55144e-19
-6.18523e-18
-2.27739e-19
-5.98828e-18
-1.00789e-18
-5.66647e-18
-1.73683e-18
-5.23925e-18
-2.39155e-18
-4.72513e-18
-2.96086e-18
-4.14131e-18
-3.43807e-18
-3.50454e-18
-3.81819e-18
-2.83176e-18
-4.09758e-18
-2.14017e-18
-4.27443e-18
-1.44699e-18
-4.34933e-18
-7.68836e-19
-4.32569e-18
-1.21097e-19
-4.20986e-18
4.82727e-19
-4.01091e-18
1.03153e-18
-3.74017e-18
1.51694e-18
-3.41051e-18
1.93338e-18
-3.03561e-18
2.27802e-18
-2.62915e-18
2.5505e-18
-2.20415e-18
2.7525e-18
-1.77244e-18
2.88738e-18
-1.3443e-18
2.95964e-18
-9.28263e-19
2.97458e-18
-5.3108e-19
2.93791e-18
-1.57789e-19
2.85544e-18
1.88116e-19
2.73289e-18
5.04477e-19
2.5757e-18
7.90237e-19
2.38892e-18
1.0452e-18
2.17718e-18
1.26983e-18
1.94463e-18
1.46501e-18
1.69498e-18
1.63192e-18
1.43153e-18
1.77186e-18
1.15716e-18
1.88611e-18
8.74478e-19
1.97589e-18
5.85784e-19
2.04226e-18
2.93198e-19
2.08604e-18
2.1078e-18
-5.94434e-11
-6.1794e-10
-4.90636e-11
-4.47888e-10
-1.08353e-10
-1.53047e-10
-2.28699e-10
3.42995e-10
-2.60452e-10
6.47421e-10
-3.52855e-10
8.44781e-10
-5.31995e-10
1.18477e-09
-6.59808e-10
1.35939e-09
-8.12655e-10
1.61234e-09
-9.0602e-10
1.74598e-09
-9.83866e-10
1.77143e-09
-9.42416e-10
1.61649e-09
-8.23065e-10
1.23023e-09
-6.97621e-10
7.70271e-10
-5.81346e-10
3.6432e-10
-4.99389e-10
6.73783e-11
-2.73432e-10
-3.57162e-10
-1.31518e-11
-1.1566e-09
1.59389e-10
-1.45573e-09
4.45582e-10
-1.85233e-09
5.14448e-10
-2.11607e-09
6.65819e-10
-2.35658e-09
8.61306e-10
-2.48447e-09
9.15419e-10
-2.45726e-09
9.34771e-10
-2.38242e-09
9.71358e-10
-2.32717e-09
1.10379e-09
-2.264e-09
1.25739e-09
-2.27089e-09
1.37036e-09
-1.82023e-09
1.57116e-09
-2.04458e-09
1.61007e-09
-9.2052e-10
1.75166e-09
-1.44917e-09
1.77141e-09
-5.87373e-10
1.79219e-09
-2.04675e-10
1.8304e-09
-3.48189e-10
1.73101e-09
2.61229e-10
2.04237e-09
4.85111e-11
1.76865e-09
9.33696e-10
1.56386e-09
1.04321e-09
1.41054e-09
1.29503e-09
1.31143e-09
1.38353e-09
1.11931e-09
1.44659e-09
8.30063e-10
1.55754e-09
6.24329e-10
1.36788e-09
5.42306e-10
1.36885e-09
5.52952e-10
1.36117e-09
5.62775e-10
1.32332e-09
4.57771e-10
1.30873e-09
3.80753e-10
1.16697e-09
3.96657e-10
9.34129e-10
4.04869e-10
7.1476e-10
4.00216e-10
4.81504e-10
4.17991e-10
2.54236e-10
4.72133e-10
1.08445e-10
4.83458e-10
-3.70563e-11
4.8425e-10
-2.62921e-10
5.23407e-10
-4.9285e-10
5.9423e-10
-7.13053e-10
6.46308e-10
-8.9768e-10
6.68281e-10
-9.75718e-10
7.46473e-10
-1.00461e-09
8.46094e-10
-1.00949e-09
8.76729e-10
-1.06936e-09
9.39e-10
-1.1114e-09
1.01259e-09
-1.0913e-09
1.07046e-09
-1.02063e-09
1.1475e-09
-9.67921e-10
1.12362e-09
-7.13438e-10
1.23406e-09
-6.85304e-10
1.33655e-09
-3.64196e-10
1.21035e-09
-1.45854e-10
1.13523e-09
1.2706e-10
1.01757e-09
2.93794e-10
9.65434e-10
6.17877e-10
9.10001e-10
7.18921e-10
9.08326e-10
1.07976e-09
8.39615e-10
1.14562e-09
6.22408e-10
1.73768e-09
4.28273e-10
1.90264e-09
1.80695e-10
2.19509e-09
1.3755e-15
2.90024e-09
-6.68947e-18
2.91801e-18
-6.88074e-18
1.455e-18
-7.02474e-18
6.95416e-19
-6.96512e-18
-2.91443e-19
-6.71723e-18
-1.26008e-18
-6.32118e-18
-2.13736e-18
-5.80857e-18
-2.90882e-18
-5.20234e-18
-3.57191e-18
-4.52142e-18
-4.12394e-18
-3.78393e-18
-4.56071e-18
-3.00861e-18
-4.87797e-18
-2.21507e-18
-5.07304e-18
-1.42335e-18
-5.14611e-18
-6.53001e-19
-5.10106e-18
7.78519e-20
-4.94569e-18
7.53469e-19
-4.69145e-18
1.36119e-18
-4.35275e-18
1.89184e-18
-3.94594e-18
2.33984e-18
-3.48828e-18
2.70303e-18
-2.99683e-18
2.98221e-18
-2.4876e-18
3.18064e-18
-1.97487e-18
3.30341e-18
-1.47076e-18
3.35682e-18
-9.85054e-19
3.34787e-18
-5.25224e-19
3.28381e-18
-9.65772e-20
3.1718e-18
2.97477e-19
3.01865e-18
6.55122e-19
2.83067e-18
9.75811e-19
2.61355e-18
1.25996e-18
2.37236e-18
1.50868e-18
2.11154e-18
1.7235e-18
1.83492e-18
1.9062e-18
1.54578e-18