/*--------------------------------*- C++ -*----------------------------------*\
  =========                 |
  \\      /  F ield         | OpenFOAM: The Open Source CFD Toolbox
   \\    /   O peration     | Website:  https://openfoam.org
    \\  /    A nd           | Version:  6
     \\/     M anipulation  |
\*---------------------------------------------------------------------------*/
FoamFile
{
    version     2.0;
    format      ascii;
    class       volScalarField;
    location    "3800";
    object      Su;
}
// * * * * * * * * * * * * * * * * * * * * * * * * * * * * * * * * * * * * * //

dimensions      [0 0 -1 0 0 0 0];

internalField   nonuniform List<scalar> 
4800
(
0.218637
0.214718
0.210767
0.206772
0.202734
0.198664
0.19458
0.190505
0.186465
0.18249
0.178607
0.174843
0.171224
0.167772
0.164518
0.161484
0.158682
0.156112
0.153758
0.151587
0.149572
0.147686
0.145896
0.144175
0.142506
0.140881
0.139283
0.137694
0.136099
0.134481
0.132823
0.13112
0.129365
0.127542
0.125639
0.123649
0.12157
0.119399
0.117138
0.114789
0.112358
0.109848
0.107264
0.104613
0.101905
0.099155
0.0963816
0.0936036
0.0908458
0.0881351
0.0854918
0.0829341
0.0804753
0.0781196
0.0758636
0.0736987
0.0716155
0.0696038
0.0676514
0.0657505
0.0638972
0.0620847
0.0602976
0.0585192
0.0567367
0.0549383
0.053109
0.0512287
0.049284
0.0472649
0.0451529
0.0429275
0.0405692
0.0380624
0.0353956
0.0325623
0.029559
0.0263879
0.0230842
0.0197119
0.0163176
0.0129084
0.00949855
0.00609747
0.00270984
-0.000662633
-0.0040192
-0.00735972
-0.0106843
-0.0139932
-0.0172869
-0.0205657
-0.0238302
-0.027081
-0.0303187
-0.0335439
-0.0367573
-0.0399595
-0.0431512
-0.0463331
-0.0495058
-0.0526699
-0.055826
-0.0589747
-0.0621166
-0.0652522
-0.068382
-0.0715065
-0.0746263
-0.0777417
-0.0808533
-0.0839614
-0.0870665
-0.0901689
-0.0932691
-0.0963673
-0.099464
-0.10256
-0.105654
-0.108748
0.218635
0.214711
0.210755
0.206754
0.202709
0.198635
0.194548
0.190473
0.186434
0.182457
0.178572
0.174807
0.171191
0.167754
0.164524
0.16152
0.158748
0.156203
0.153867
0.151705
0.149688
0.147795
0.145997
0.14427
0.142598
0.140965
0.13935
0.137739
0.136121
0.134483
0.132813
0.131099
0.129333
0.127502
0.125592
0.123597
0.121513
0.119337
0.117069
0.114714
0.112278
0.109767
0.107185
0.104539
0.101838
0.0990963
0.0963327
0.0935697
0.0908284
0.0881278
0.0854905
0.0829384
0.0804829
0.0781271
0.075867
0.073694
0.0716001
0.0695786
0.0676223
0.0657192
0.0638597
0.0620373
0.0602402
0.0584525
0.0566607
0.0548527
0.0530169
0.0511338
0.0491874
0.0471657
0.04505
0.0428223
0.040465
0.0379632
0.035305
0.0324852
0.029506
0.0263782
0.0231229
0.0197626
0.0163312
0.012885
0.00946387
0.00605977
0.00267192
-0.000699766
-0.00405518
-0.0073944
-0.0107176
-0.0140252
-0.0173174
-0.0205948
-0.0238579
-0.0271073
-0.0303435
-0.0335673
-0.0367793
-0.0399801
-0.0431705
-0.0463511
-0.0495225
-0.0526854
-0.0558403
-0.0589879
-0.0621287
-0.0652632
-0.068392
-0.0715156
-0.0746345
-0.0777491
-0.0808598
-0.0839672
-0.0870715
-0.0901732
-0.0932726
-0.0963702
-0.0994663
-0.102561
-0.105655
-0.108749
0.218627
0.214688
0.210719
0.206705
0.202649
0.198567
0.194478
0.190403
0.186367
0.182395
0.178518
0.174764
0.17117
0.167769
0.164586
0.161633
0.158907
0.156399
0.154091
0.151944
0.149929
0.148025
0.146209
0.144466
0.142776
0.141114
0.139465
0.137818
0.136162
0.134489
0.132793
0.131058
0.129271
0.127422
0.125503
0.123502
0.121412
0.119229
0.116953
0.114589
0.112144
0.109628
0.107047
0.104405
0.101713
0.098982
0.0962312
0.0934847
0.0907615
0.0880805
0.0854635
0.0829275
0.0804822
0.0781291
0.0758644
0.0736827
0.0715771
0.0695415
0.0675712
0.0656562
0.0637828
0.0619414
0.0601243
0.058319
0.056512
0.0546905
0.0528432
0.0509547
0.0490042
0.0469777
0.0448593
0.0426311
0.0402772
0.0377832
0.0351378
0.0323357
0.0293826
0.0262893
0.0230636
0.0197163
0.0162752
0.0128125
0.00938606
0.00598137
0.0025949
-0.000774594
-0.00412746
-0.00746398
-0.0107844
-0.0140892
-0.0173786
-0.0206531
-0.0239134
-0.0271599
-0.0303932
-0.0336142
-0.0368234
-0.0400214
-0.0432091
-0.0463871
-0.0495559
-0.0527163
-0.0558689
-0.0590142
-0.0621528
-0.0652853
-0.0684121
-0.0715339
-0.0746509
-0.0777638
-0.0808729
-0.0839786
-0.0870814
-0.0901817
-0.0932798
-0.096376
-0.0994707
-0.102564
-0.105657
-0.108749
0.218612
0.214643
0.21065
0.206619
0.202552
0.198465
0.194375
0.190305
0.186279
0.182323
0.17847
0.17475
0.1712
0.167853
0.16473
0.161834
0.15916
0.156694
0.154409
0.15227
0.150254
0.148338
0.146502
0.144729
0.142999
0.141293
0.139598
0.137906
0.136205
0.134489
0.132752
0.130982
0.129166
0.127296
0.125363
0.123356
0.121265
0.119083
0.116804
0.114433
0.111978
0.109453
0.106868
0.104228
0.101543
0.098825
0.0960914
0.0933645
0.0906647
0.0880102
0.0854181
0.0829015
0.0804684
0.0781182
0.075848
0.0736569
0.0715404
0.0694909
0.0675012
0.0655643
0.0636677
0.0617998
0.0599554
0.0581256
0.0562978
0.0544585
0.0525958
0.0506969
0.0487404
0.046708
0.0445863
0.0423598
0.0400124
0.0375295
0.0348998
0.0321177
0.0291849
0.0261039
0.0228812
0.0195401
0.0161225
0.0126798
0.00926064
0.00586045
0.00247805
-0.000887356
-0.00423607
-0.0075684
-0.0108846
-0.0141851
-0.0174703
-0.0207405
-0.0239965
-0.0272386
-0.0304677
-0.0336844
-0.0368893
-0.0400833
-0.0432669
-0.0464409
-0.0496059
-0.0527626
-0.0559117
-0.0590536
-0.0621889
-0.0653183
-0.0684422
-0.0715611
-0.0746754
-0.0777857
-0.0808924
-0.0839958
-0.0870963
-0.0901944
-0.0932904
-0.0963846
-0.0994774
-0.102569
-0.10566
-0.10875
0.218589
0.214578
0.210551
0.206503
0.20243
0.198341
0.194254
0.190192
0.186182
0.182253
0.178436
0.174767
0.171281
0.168006
0.164953
0.162123
0.159502
0.157072
0.154803
0.152665
0.150641
0.148706
0.146833
0.145011
0.143228
0.141465
0.139714
0.137966
0.136215
0.134452
0.13267
0.130861
0.129014
0.127121
0.125173
0.123157
0.121064
0.118886
0.116612
0.114243
0.111784
0.109251
0.106657
0.104013
0.101333
0.0986297
0.0959191
0.0932183
0.0905461
0.0879198
0.085354
0.0828581
0.0804353
0.0780856
0.0758092
0.0736057
0.0714748
0.0694102
0.0673991
0.0654338
0.0635071
0.061609
0.0597343
0.0578765
0.0560238
0.0541618
0.0522784
0.0503629
0.0483974
0.0463603
0.0442367
0.0420135
0.0396747
0.0372059
0.0345953
0.0318336
0.0289182
0.0258514
0.0226438
0.019323
0.015928
0.0125002
0.00909049
0.00569754
0.00232146
-0.001038
-0.00438093
-0.00770755
-0.0110181
-0.0143129
-0.0175923
-0.0208568
-0.024107
-0.0273434
-0.0305667
-0.0337777
-0.036977
-0.0401654
-0.0433436
-0.0465124
-0.0496723
-0.0528241
-0.0559684
-0.0591058
-0.0622368
-0.065362
-0.068482
-0.0715971
-0.0747079
-0.0778148
-0.0809182
-0.0840185
-0.087116
-0.0902112
-0.0933045
-0.096396
-0.0994861
-0.102575
-0.105664
-0.108752
0.218566
0.214512
0.210451
0.206379
0.202296
0.198206
0.194127
0.190081
0.186093
0.182197
0.178428
0.174824
0.171416
0.168224
0.165252
0.162489
0.159917
0.157514
0.155254
0.153109
0.151061
0.149084
0.147155
0.14527
0.143416
0.141583
0.139764
0.137955
0.136149
0.13434
0.132519
0.130677
0.128804
0.12689
0.124929
0.122905
0.12081
0.118634
0.116368
0.114006
0.111552
0.109018
0.106422
0.103781
0.10111
0.0984222
0.0957325
0.0930568
0.0904127
0.0878156
0.0852757
0.0827971
0.0803803
0.0780284
0.0757449
0.0735294
0.0713778
0.0692857
0.067248
0.0652552
0.0632972
0.0613659
0.0594565
0.0575663
0.0556843
0.0537962
0.0518909
0.0499567
0.0479795
0.0459383
0.0438156
0.0415973
0.0392691
0.0368155
0.034223
0.0314811
0.0285873
0.0255462
0.0223713
0.0190799
0.0157002
0.0122787
0.00887793
0.00549361
0.00212557
-0.00122628
-0.00456186
-0.00788126
-0.0111847
-0.0144723
-0.0177445
-0.0210018
-0.0242447
-0.0274739
-0.03069
-0.0338938
-0.037086
-0.0402675
-0.043439
-0.0466012
-0.0497547
-0.0529004
-0.0560388
-0.0591705
-0.0622962
-0.0654163
-0.0685313
-0.0716418
-0.0747481
-0.0778507
-0.0809501
-0.0840465
-0.0871404
-0.0902321
-0.0933219
-0.0964101
-0.099497
-0.102583
-0.105668
-0.108753
0.218542
0.214445
0.21035
0.206256
0.20216
0.198071
0.194005
0.189983
0.18603
0.18218
0.178471
0.17494
0.171616
0.168508
0.165613
0.162912
0.160382
0.158002
0.155745
0.153578
0.151487
0.149455
0.147463
0.1455
0.143557
0.141633
0.139733
0.137852
0.135989
0.134133
0.132274
0.1304
0.128506
0.126577
0.124607
0.122582
0.120489
0.11832
0.116067
0.113722
0.111283
0.108759
0.106169
0.103536
0.100877
0.0982076
0.0955404
0.0928904
0.0902731
0.087701
0.0851805
0.082714
0.0803025
0.0779482
0.0756521
0.0734155
0.071239
0.0691176
0.0670448
0.0650151
0.0630217
0.0610563
0.0591113
0.0571853
0.0552711
0.0533563
0.05143
0.0494778
0.0474867
0.0454399
0.0433193
0.0411088
0.0387932
0.0363562
0.0337848
0.0310674
0.0282012
0.0251894
0.0220421
0.0187767
0.0154208
0.0120126
0.00862318
0.00524914
0.00189073
-0.00145195
-0.00477864
-0.00808933
-0.0113841
-0.0146631
-0.0179267
-0.0211752
-0.0244094
-0.0276298
-0.0308372
-0.0340324
-0.0372162
-0.0403893
-0.0435526
-0.0467069
-0.0498529
-0.0529912
-0.0561226
-0.0592475
-0.0623667
-0.0654807
-0.0685899
-0.0716947
-0.0747958
-0.0778934
-0.0809879
-0.0840798
-0.0871693
-0.0902567
-0.0933425
-0.0964267
-0.0995099
-0.102592
-0.105674
-0.108755
0.218523
0.214389
0.21026
0.206142
0.202036
0.19795
0.193899
0.189906
0.185999
0.18221
0.178575
0.175125
0.171882
0.168853
0.166024
0.163373
0.160875
0.158509
0.156244
0.154048
0.151909
0.149808
0.147729
0.145668
0.143626
0.141608
0.139618
0.137659
0.135729
0.133817
0.131917
0.130013
0.128102
0.126162
0.124189
0.12217
0.120089
0.117935
0.115698
0.113373
0.110955
0.108451
0.105881
0.103265
0.100627
0.0979803
0.0953375
0.0927117
0.0901177
0.0875655
0.0850588
0.0825999
0.0801902
0.0778291
0.0755185
0.073259
0.0710489
0.0688885
0.0667771
0.0647083
0.0626734
0.0606671
0.0586849
0.0567225
0.0547744
0.0528316
0.0508837
0.0489163
0.0469153
0.0448645
0.0427469
0.0405461
0.0382444
0.035827
0.03328
0.0305921
0.0277591
0.0247828
0.0216662
0.0184284
0.0150972
0.0117039
0.00832683
0.00496446
0.00161716
-0.00171483
-0.00503114
-0.00833162
-0.0116162
-0.0148851
-0.0181385
-0.0213768
-0.0246007
-0.0278109
-0.0310081
-0.0341931
-0.0373669
-0.0405303
-0.0436842
-0.0468292
-0.0499663
-0.0530961
-0.0562192
-0.0593363
-0.0624481
-0.0655549
-0.0686573
-0.0717557
-0.0748507
-0.0779424
-0.0810314
-0.084118
-0.0872025
-0.0902851
-0.0933661
-0.0964459
-0.0995246
-0.102603
-0.10568
-0.108757
0.218509
0.214345
0.210186
0.206042
0.20192
0.197838
0.193811
0.189856
0.186002
0.182283
0.17873
0.175367
0.17221
0.169255
0.166482
0.163867
0.161388
0.159026
0.156739
0.154498
0.152292
0.150105
0.147928
0.145759
0.143608
0.141485
0.1394
0.137357
0.135356
0.133388
0.131446
0.129506
0.127578
0.125629
0.123653
0.121647
0.119586
0.117458
0.115247
0.112948
0.110559
0.108088
0.105548
0.102961
0.100347
0.0977223
0.095104
0.0925056
0.0899353
0.0873994
0.0849018
0.0824448
0.0800307
0.0776593
0.0753292
0.0730414
0.0707967
0.0685943
0.0664354
0.0643202
0.0622425
0.0601938
0.0581698
0.0561689
0.0541864
0.0522157
0.0502466
0.0482659
0.0462583
0.0442085
0.0420957
0.0399064
0.037621
0.0352272
0.0327096
0.0300589
0.0272666
0.0243327
0.0212545
0.018049
0.0147381
0.0113535
0.00798872
0.00463928
0.00130471
-0.00201498
-0.00531934
-0.00860807
-0.011881
-0.0151381
-0.0183797
-0.0216063
-0.0248183
-0.0280166
-0.0312021
-0.0343755
-0.0375379
-0.0406901
-0.043833
-0.0469676
-0.0500945
-0.0532145
-0.0563283
-0.0594365
-0.0625397
-0.0656384
-0.0687332
-0.0718243
-0.0749123
-0.0779976
-0.0810803
-0.0841609
-0.0872397
-0.0903169
-0.0933927
-0.0964674
-0.0995412
-0.102614
-0.105687
-0.108759
0.218492
0.214299
0.210119
0.205958
0.201833
0.19776
0.193754
0.189837
0.186041
0.182395
0.178928
0.175655
0.172583
0.169697
0.166972
0.164384
0.161915
0.15954
0.157217
0.154922
0.152637
0.15035
0.148062
0.145776
0.143504
0.141267
0.139079
0.136947
0.134869
0.132835
0.130846
0.128867
0.126916
0.12496
0.122986
0.120993
0.118958
0.116867
0.114689
0.112429
0.110085
0.107658
0.105157
0.102603
0.100022
0.097433
0.0948475
0.0922726
0.089717
0.0871905
0.0846968
0.082237
0.0798136
0.0774273
0.0750754
0.0727567
0.0704735
0.0682278
0.0660206
0.0638533
0.0617246
0.0596298
0.0575626
0.0555219
0.0535052
0.051506
0.049515
0.047521
0.0455081
0.0434644
0.0413632
0.039188
0.0369218
0.0345549
0.0320712
0.0294628
0.0267142
0.0238225
0.0207828
0.0176096
0.0143253
0.0109559
0.0076061
0.00427223
0.000952712
-0.00235271
-0.00564338
-0.00891871
-0.0121783
-0.0154221
-0.0186503
-0.0218633
-0.0250619
-0.0282467
-0.0314188
-0.034579
-0.0377284
-0.040868
-0.0439987
-0.0471213
-0.0502368
-0.0533458
-0.0564492
-0.0595474
-0.0626411
-0.0657309
-0.068817
-0.0719001
-0.0749804
-0.0780584
-0.0811342
-0.0842082
-0.0872807
-0.0903519
-0.0934219
-0.096491
-0.0995594
-0.102627
-0.105695
-0.108762
0.218479
0.214262
0.210062
0.205891
0.201766
0.197707
0.193731
0.18986
0.186126
0.182558
0.179177
0.175993
0.173
0.170173
0.167487
0.164917
0.162449
0.160047
0.157674
0.155309
0.152934
0.150539
0.148125
0.145706
0.143305
0.14095
0.138659
0.136433
0.134273
0.132167
0.130124
0.128101
0.126122
0.124153
0.122185
0.120207
0.118196
0.116146
0.114013
0.111807
0.109519
0.107145
0.104698
0.102192
0.0996476
0.097088
0.0945282
0.091976
0.0894394
0.0869231
0.0844304
0.0819651
0.0795302
0.0771254
0.0747479
0.0723966
0.0700724
0.0677782
0.0655186
0.0632987
0.0611184
0.0589739
0.0568617
0.0547801
0.0527271
0.0506982
0.0486851
0.0466788
0.0446594
0.0426162
0.0405327
0.038381
0.0361424
0.0338084
0.0313631
0.0287965
0.0260932
0.0232514
0.0202635
0.0171334
0.0138712
0.0105064
0.00717441
0.00386087
0.000560063
-0.00272852
-0.0060035
-0.00926366
-0.0125082
-0.0157369
-0.0189499
-0.0221477
-0.025331
-0.0285007
-0.0316577
-0.0348031
-0.037938
-0.0410634
-0.0441804
-0.0472898
-0.0503926
-0.0534895
-0.0565813
-0.0596685
-0.0627517
-0.0658315
-0.0689083
-0.0719825
-0.0750545
-0.0781244
-0.0811927
-0.0842596
-0.0873252
-0.0903898
-0.0934536
-0.0965166
-0.0995792
-0.102641
-0.105703
-0.108765
0.218466
0.214228
0.210017
0.205847
0.201735
0.197697
0.193756
0.18994
0.186277
0.182789
0.179494
0.176391
0.173467
0.17069
0.168034
0.165476
0.162996
0.160552
0.158114
0.155662
0.15318
0.150663
0.148118
0.145562
0.143028
0.14055
0.138148
0.135821
0.133573
0.13139
0.129287
0.127224
0.125217
0.12323
0.121262
0.119294
0.117299
0.115286
0.113206
0.111057
0.108827
0.106512
0.10412
0.101666
0.0991708
0.0966535
0.094128
0.0916051
0.089089
0.0865829
0.0840933
0.0816223
0.0791729
0.0767472
0.0743417
0.0719544
0.0695872
0.0672446
0.0649312
0.0626545
0.0604194
0.0582239
0.0560651
0.0539413
0.051851
0.0497913
0.047755
0.0457354
0.0437141
0.0416723
0.0396047
0.0374781
0.0352738
0.0329788
0.030578
0.0280587
0.0254071
0.0226167
0.0196746
0.0165844
0.013348
0.00998304
0.00668348
0.00340169
0.000125644
-0.00314286
-0.0064
-0.0096431
-0.0128708
-0.0160826
-0.0192785
-0.0224592
-0.0256254
-0.028778
-0.0319182
-0.0350471
-0.0381659
-0.0412757
-0.0443775
-0.0474724
-0.0505612
-0.0536447
-0.0567238
-0.059799
-0.0628708
-0.0659399
-0.0690065
-0.072071
-0.0751339
-0.0781953
-0.0812554
-0.0843146
-0.0873728
-0.0904304
-0.0934875
-0.096544
-0.0996003
-0.102656
-0.105712
-0.108768
0.218465
0.214223
0.210006
0.205837
0.201741
0.197735
0.193844
0.190094
0.186508
0.183105
0.179894
0.176866
0.173999
0.17126
0.168622
0.166066
0.163563
0.161067
0.158552
0.156002
0.153403
0.150752
0.148062
0.145361
0.14269
0.140084
0.13756
0.135124
0.132779
0.13052
0.128353
0.126247
0.124203
0.122192
0.120215
0.118253
0.11628
0.114295
0.112264
0.110173
0.108009
0.105764
0.103439
0.101049
0.0986101
0.0961405
0.093654
0.0911603
0.0886639
0.0861704
0.0836849
0.0812073
0.0787406
0.0762892
0.073851
0.0714248
0.0690119
0.0666172
0.0642475
0.0619124
0.05962
0.0573707
0.0551638
0.0529981
0.0508719
0.048783
0.0467254
0.0446933
0.042672
0.0406345
0.0385819
0.0364812
0.0343142
0.0320641
0.0297146
0.0272492
0.0246545
0.0219195
0.0190266
0.0159707
0.012744
0.00933374
0.00612029
0.00289356
-0.000350049
-0.00359556
-0.00683296
-0.0100572
-0.0132661
-0.0164589
-0.0196359
-0.0227974
-0.0259445
-0.0290782
-0.0321998
-0.0353104
-0.0384114
-0.0415039
-0.0445891
-0.047668
-0.0507416
-0.0538107
-0.056876
-0.0599381
-0.0629977
-0.0660551
-0.0691108
-0.072165
-0.0752181
-0.0782703
-0.0813218
-0.0843728
-0.0874232
-0.0904734
-0.0935233
-0.096573
-0.0996225
-0.102672
-0.105721
-0.108771
0.218466
0.214228
0.210023
0.205872
0.201801
0.197836
0.194004
0.190329
0.186827
0.183507
0.180372
0.177408
0.174588
0.171879
0.169252
0.166685
0.164141
0.161583
0.15899
0.156337
0.153611
0.150817
0.147974
0.145119
0.142303
0.139559
0.136907
0.134363
0.131924
0.129583
0.12734
0.125183
0.123093
0.121048
0.119046
0.117084
0.11513
0.113172
0.111183
0.109146
0.10705
0.104879
0.102628
0.10031
0.0979355
0.0955205
0.0930772
0.0906166
0.0881451
0.0856668
0.083186
0.0807043
0.078222
0.0757421
0.0732658
0.0707945
0.068331
0.0658816
0.0634542
0.0610597
0.0587089
0.0564048
0.0541484
0.0519407
0.0497804
0.0476656
0.0455895
0.043547
0.0415273
0.0394999
0.0374657
0.0353919
0.0332626
0.0310601
0.0287672
0.0263639
0.0238345
0.0211657
0.0183374
0.015329
0.0120883
0.00816804
0.00549389
0.0023487
-0.00086219
-0.00408535
-0.0073023
-0.0105061
-0.0136943
-0.0168661
-0.0200218
-0.023162
-0.026288
-0.0294007
-0.0325017
-0.0355922
-0.0386736
-0.0417473
-0.0448143
-0.0478759
-0.050933
-0.0539864
-0.0570369
-0.060085
-0.0631314
-0.0661765
-0.0692205
-0.0722638
-0.0753066
-0.0783491
-0.0813914
-0.0844337
-0.087476
-0.0905183
-0.0935607
-0.0966032
-0.0996458
-0.102689
-0.105731
-0.108774
0.218476
0.214256
0.210075
0.20596
0.201931
0.19802
0.194255
0.190656
0.18723
0.183987
0.180923
0.178018
0.175238
0.172547
0.169922
0.167334
0.164745
0.162122
0.159442
0.156679
0.153826
0.15089
0.147895
0.144888
0.141921
0.139032
0.136247
0.13358
0.131035
0.128602
0.126274
0.124048
0.121906
0.119823
0.117792
0.115816
0.113866
0.111929
0.109985
0.108006
0.105973
0.103872
0.101696
0.0994482
0.0971392
0.0947806
0.0923838
0.0899609
0.0875167
0.0850532
0.0825747
0.0800868
0.0775886
0.0750814
0.0725681
0.0700519
0.0675367
0.065031
0.0625446
0.0600894
0.0576785
0.0553185
0.0530122
0.0507624
0.0485697
0.0464318
0.0443415
0.0422871
0.0402691
0.0382593
0.0362502
0.0342076
0.032119
0.0299672
0.0277331
0.0253957
0.0229396
0.0203492
0.0176048
0.0146893
0.0115722
0.00822702
0.00501408
0.00180903
-0.00140293
-0.00461126
-0.00780827
-0.0109902
-0.0141554
-0.0173039
-0.020436
-0.0235527
-0.0266552
-0.0297448
-0.0328231
-0.0358915
-0.0389516
-0.0420047
-0.0450521
-0.0480949
-0.0511342
-0.0541708
-0.0572055
-0.0602388
-0.0632711
-0.066303
-0.0693348
-0.0723665
-0.0753985
-0.0784309
-0.0814637
-0.0844969
-0.0875306
-0.0905648
-0.0935995
-0.0966345
-0.0996699
-0.102706
-0.105741
-0.108777
0.218484
0.214287
0.21014
0.206073
0.202118
0.19829
0.194605
0.19108
0.187728
0.184555
0.181552
0.178689
0.175933
0.173253
0.170626
0.168014
0.16538
0.162688
0.159916
0.157044
0.154065
0.150992
0.147852
0.144693
0.141569
0.138528
0.135604
0.132814
0.130155
0.127615
0.125187
0.122874
0.120666
0.118535
0.116469
0.114467
0.112508
0.110578
0.108659
0.106728
0.104763
0.102736
0.100635
0.0984597
0.096219
0.0939207
0.0915742
0.0891886
0.0867696
0.0843206
0.0818422
0.0793428
0.0768267
0.0742927
0.0717419
0.0691813
0.0666156
0.0640547
0.0615106
0.0589964
0.0565263
0.0541106
0.0517544
0.0494625
0.0472376
0.0450781
0.0429798
0.0409254
0.0389109
0.036916
0.0349336
0.0329257
0.0308804
0.0287816
0.026608
0.0243397
0.0219572
0.0194448
0.016783
0.0139592
0.0109483
0.00772364
0.00445069
0.00122227
-0.00198564
-0.00517729
-0.0083523
-0.0115099
-0.0146498
-0.0177724
-0.0208784
-0.023969
-0.0270455
-0.0301097
-0.0331631
-0.0362074
-0.0392442
-0.042275
-0.0453012
-0.0483239
-0.0513442
-0.0543629
-0.0573807
-0.0603982
-0.0634158
-0.0664339
-0.0694528
-0.0724725
-0.0754933
-0.078515
-0.0815379
-0.0845618
-0.0875867
-0.0906126
-0.0936392
-0.0966666
-0.0996946
-0.102723
-0.105752
-0.108781
0.218505
0.214354
0.210264
0.206268
0.202389
0.198638
0.195032
0.191584
0.188304
0.185193
0.182236
0.179405
0.176668
0.173992
0.17135
0.168703
0.166022
0.16327
0.160417
0.157443
0.154346
0.151141
0.14786
0.144549
0.141261
0.138062
0.134994
0.132077
0.129304
0.126656
0.124125
0.12171
0.119409
0.117211
0.115099
0.113061
0.111079
0.10915
0.107254
0.105357
0.103436
0.101475
0.0994448
0.0973415
0.0951695
0.092932
0.090637
0.0882893
0.0858953
0.08346
0.0809818
0.0784682
0.0759312
0.0733706
0.0707824
0.0681792
0.0655661
0.0629529
0.0603534
0.0577826
0.0552547
0.052783
0.0503771
0.0480436
0.0457861
0.0436064
0.0415002
0.0394496
0.0374471
0.0354726
0.0335188
0.0315483
0.0295484
0.0275043
0.0253931
0.0231958
0.0208879
0.0184529
0.0158691
0.0131244
0.0101912
0.0070437
0.00378738
0.000571413
-0.00261809
-0.00578649
-0.00893553
-0.0120657
-0.0151774
-0.0182713
-0.0213485
-0.0244103
-0.0274584
-0.0304946
-0.0335207
-0.0365387
-0.0395503
-0.042557
-0.0455603
-0.0485615
-0.0515615
-0.0545611
-0.0575612
-0.0605621
-0.0635643
-0.0665681
-0.0695735
-0.0725808
-0.0755899
-0.0786008
-0.0816135
-0.0846279
-0.0876438
-0.0906611
-0.0936796
-0.0966992
-0.0997197
-0.102741
-0.105762
-0.108784
0.218545
0.214473
0.210458
0.206535
0.202729
0.199056
0.19553
0.192156
0.188941
0.185882
0.182965
0.180156
0.177423
0.174738
0.172076
0.169399
0.166678
0.163872
0.160945
0.157876
0.154669
0.151347
0.147943
0.144502
0.141075
0.137725
0.134504
0.131442
0.128542
0.125772
0.123119
0.120587
0.118177
0.115889
0.113711
0.111626
0.109607
0.107657
0.105767
0.103905
0.102024
0.10011
0.098136
0.0960955
0.0939873
0.0918069
0.0895605
0.0872502
0.084882
0.0824603
0.0799852
0.0774616
0.074903
0.0723155
0.0696914
0.0670475
0.0643902
0.061728
0.0590756
0.0564508
0.0538687
0.0513429
0.0488892
0.0465178
0.0442329
0.0420343
0.0399196
0.0378735
0.035885
0.0339339
0.0320104
0.0300813
0.0281315
0.0261447
0.0240958
0.0219669
0.0197306
0.0173689
0.0148527
0.0121778
0.00932498
0.00625738
0.0030431
-0.000140534
-0.00330019
-0.00643895
-0.00955794
-0.0126575
-0.0157381
-0.0188005
-0.0218459
-0.0248761
-0.0278928
-0.0308984
-0.0338948
-0.0368841
-0.0398683
-0.0428491
-0.045828
-0.0488061
-0.0517846
-0.0547643
-0.0577457
-0.0607293
-0.0637155
-0.0667043
-0.069696
-0.0726905
-0.0756877
-0.0786875
-0.0816898
-0.0846945
-0.0877012
-0.0907099
-0.0937202
-0.0967319
-0.0997448
-0.102759
-0.105773
-0.108788
0.218587
0.214597
0.210663
0.206824
0.203103
0.199515
0.196069
0.192768
0.189614
0.186601
0.183709
0.180905
0.17817
0.175473
0.17279
0.170087
0.167332
0.164473
0.161474
0.158321
0.155022
0.151604
0.14811
0.144575
0.141024
0.137512
0.134121
0.130898
0.127854
0.12496
0.122189
0.11954
0.117018
0.114627
0.11236
0.110209
0.108139
0.106159
0.104249
0.102392
0.100534
0.0986527
0.0967244
0.0947345
0.0926779
0.0905447
0.0883388
0.0860622
0.083718
0.0813098
0.0788396
0.0763115
0.073738
0.0711279
0.0684729
0.0657903
0.0630924
0.0603865
0.0576865
0.0550115
0.0523785
0.0498014
0.0473013
0.0448946
0.0425867
0.0403759
0.0382576
0.0362175
0.0342441
0.0323179
0.030425
0.0285389
0.0266406
0.0247114
0.0227237
0.0206591
0.0184904
0.016203
0.0137642
0.0111648
0.00838964
0.00539993
0.00223769
-0.000904059
-0.00402743
-0.00713249
-0.0102185
-0.0132849
-0.0163317
-0.0193597
-0.0223703
-0.0253657
-0.028348
-0.03132
-0.0342839
-0.0372421
-0.0401968
-0.0431497
-0.0461024
-0.0490562
-0.052012
-0.0549707
-0.0579326
-0.0608983
-0.0638679
-0.0668415
-0.0698191
-0.0728005
-0.0757856
-0.0787742
-0.0817661
-0.084761
-0.0877586
-0.0907586
-0.0937607
-0.0967645
-0.0997699
-0.102776
-0.105784
-0.108791
0.218637
0.214746
0.210907
0.207154
0.203509
0.19999
0.19661
0.193373
0.190274
0.187304
0.184434
0.181633
0.178888
0.176169
0.173458
0.170728
0.167937
0.165026
0.16196
0.158732
0.155355
0.151857
0.148289
0.144673
0.141014
0.137362
0.133806
0.130424
0.127242
0.124228
0.12134
0.118573
0.115935
0.113433
0.111063
0.108829
0.106691
0.104662
0.102719
0.100845
0.098991
0.0971201
0.0952139
0.0932562
0.0912389
0.0891443
0.0869714
0.0847198
0.0823928
0.0799955
0.0775318
0.0750039
0.0724247
0.0698003
0.0671255
0.0644115
0.0616763
0.058932
0.0561915
0.0534752
0.0508001
0.0481825
0.0456434
0.0432057
0.0408784
0.038659
0.0365399
0.0345085
0.032552
0.0306521
0.0287904
0.0269461
0.0250979
0.0232257
0.0213011
0.019305
0.0172066
0.0149926
0.0126311
0.0101067
0.00740859
0.00449499
0.00138924
-0.00170772
-0.0047933
-0.00786378
-0.0109158
-0.0139474
-0.0169581
-0.0199488
-0.0229213
-0.0258784
-0.028823
-0.031758
-0.0346865
-0.0376109
-0.0405337
-0.0434567
-0.0463817
-0.0493097
-0.0522418
-0.0551785
-0.0581204
-0.0610676
-0.0640203
-0.0669783
-0.0699415
-0.0729098
-0.0758827
-0.0788601
-0.0818416
-0.0848267
-0.0878152
-0.0908066
-0.0938006
-0.0967967
-0.0997946
-0.102794
-0.105794
-0.108795
0.218685
0.214891
0.211149
0.207485
0.203924
0.200479
0.197163
0.193982
0.190926
0.187978
0.185112
0.182305
0.179543
0.176797
0.174053
0.17129
0.16845
0.165479
0.162349
0.159056
0.155617
0.152067
0.148457
0.144803
0.141082
0.137313
0.133595
0.130047
0.126722
0.123599
0.12061
0.117725
0.114967
0.112348
0.109868
0.107528
0.105303
0.103198
0.101203
0.0992973
0.0974225
0.0955434
0.0936403
0.0916905
0.089686
0.0876112
0.0854582
0.0832258
0.0809124
0.0785245
0.0760684
0.0735444
0.0709642
0.0683303
0.065645
0.0629144
0.0601525
0.0573788
0.0546048
0.0518527
0.0491418
0.0464937
0.0439305
0.0414758
0.0391382
0.0369181
0.0348056
0.0327877
0.0308511
0.0289796
0.0271502
0.025345
0.0235453
0.021731
0.0198675
0.0179363
0.0159071
0.0137638
0.0114782
0.00903119
0.00641021
0.00356844
0.000516435
-0.00253916
-0.00559077
-0.0086296
-0.011649
-0.0146452
-0.0176178
-0.020568
-0.0234987
-0.0264136
-0.0293165
-0.032211
-0.0351006
-0.0379884
-0.0408768
-0.043768
-0.0466635
-0.0495645
-0.0524718
-0.0553859
-0.0583072
-0.0612356
-0.064171
-0.0671133
-0.0700622
-0.0730173
-0.0759781
-0.0789443
-0.0819155
-0.084891
-0.0878705
-0.0908535
-0.0938395
-0.0968281
-0.0998187
-0.102811
-0.105804
-0.108798
0.218731
0.21503
0.211379
0.207801
0.204316
0.20094
0.19768
0.194536
0.1915
0.18856
0.185695
0.182882
0.1801
0.177321
0.174537
0.171724
0.168823
0.165787
0.162597
0.159255
0.155772
0.152183
0.148547
0.144881
0.141136
0.137297
0.133455
0.129753
0.126288
0.123058
0.119981
0.116994
0.114127
0.111402
0.108817
0.106367
0.104041
0.101838
0.0997579
0.0977879
0.0958703
0.0939562
0.0920312
0.0900709
0.0880587
0.0859847
0.0838331
0.0816074
0.0792968
0.0769157
0.0744675
0.0719509
0.0693729
0.0667364
0.0640481
0.0613153
0.0585453
0.0557593
0.052972
0.0502019
0.0474686
0.044803
0.0422311
0.039776
0.0374393
0.0352224
0.0331181
0.0311131
0.0291938
0.0273494
0.0255566
0.0237923
0.0220379
0.0202725
0.0184652
0.0165949
0.014629
0.0125524
0.0103389
0.0079656
0.00541631
0.00264147
-0.000361141
-0.00338548
-0.00641356
-0.00942823
-0.0124186
-0.0153799
-0.0183121
-0.0212182
-0.0241026
-0.0269705
-0.0298271
-0.0326769
-0.0355241
-0.0383721
-0.0412236
-0.0440809
-0.0469454
-0.0498181
-0.0526998
-0.0555908
-0.058491
-0.0614003
-0.0643185
-0.0672451
-0.0701797
-0.0731218
-0.0760707
-0.079026
-0.081987
-0.0849532
-0.087924
-0.0908988
-0.0938771
-0.0968583
-0.0998419
-0.102827
-0.105814
-0.108802
0.218775
0.215158
0.211586
0.208082
0.204663
0.201343
0.198128
0.195014
0.191995
0.189058
0.186178
0.183341
0.180524
0.177701
0.174865
0.171986
0.16901
0.165904
0.162657
0.159275
0.155765
0.152154
0.14851
0.144862
0.141133
0.13727
0.133336
0.129499
0.125899
0.122568
0.119435
0.116385
0.113431
0.110616
0.107936
0.105387
0.102954
0.100642
0.0984582
0.0963905
0.0944026
0.0924322
0.0904546
0.0884491
0.0863989
0.0843005
0.0821347
0.0799062
0.0775898
0.0752065
0.0727612
0.0702551
0.0676849
0.0650577
0.0623786
0.0596577
0.0569011
0.0541251
0.0513502
0.0485942
0.0458664
0.0432027
0.0406356
0.0381913
0.0358646
0.0336507
0.0315497
0.0295584
0.0276623
0.0258448
0.0240833
0.0223518
0.0206369
0.018912
0.0171517
0.0153346
0.0134213
0.0114004
0.00924675
0.00693726
0.00445201
0.00174021
-0.00121721
-0.00423266
-0.00725812
-0.0102616
-0.0132288
-0.0161555
-0.0190442
-0.021901
-0.0247332
-0.0275483
-0.030353
-0.0331533
-0.0359539
-0.0387588
-0.0415709
-0.0443923
-0.0472243
-0.0500679
-0.0529233
-0.0557906
-0.0586697
-0.06156
-0.064461
-0.0673722
-0.0702928
-0.0732221
-0.0761595
-0.0791041
-0.0820554
-0.0850126
-0.087975
-0.090942
-0.0939129
-0.0968871
-0.099864
-0.102843
-0.105823
-0.108805
0.218809
0.215259
0.211753
0.208311
0.204947
0.20167
0.198483
0.195386
0.192368
0.189414
0.186505
0.183629
0.180762
0.177884
0.174983
0.172029
0.168973
0.165791
0.162487
0.15907
0.155539
0.151924
0.148288
0.144666
0.14098
0.137161
0.13323
0.129312
0.125592
0.122166
0.118988
0.115909
0.112898
0.110012
0.107253
0.104614
0.102083
0.0996583
0.0973574
0.0951658
0.0930699
0.091017
0.0889643
0.0868939
0.0847889
0.0826444
0.0804466
0.0781984
0.0758678
0.0734762
0.0710324
0.0685372
0.0659782
0.0633726
0.0607205
0.058028
0.0553086
0.0525739
0.0498465
0.0471471
0.0444743
0.0418486
0.0393027
0.0368657
0.0345379
0.0323204
0.0302215
0.0282475
0.0263753
0.0245679
0.0228106
0.021097
0.0194037
0.0176974
0.0159704
0.0141991
0.0123354
0.0103601
0.00825215
0.00599329
0.00356155
0.000906077
-0.0020132
-0.00506809
-0.00812826
-0.0111391
-0.014089
-0.0169795
-0.0198189
-0.0226188
-0.0253908
-0.0281455
-0.0308919
-0.033637
-0.0363867
-0.0391449
-0.0419149
-0.0446985
-0.0474969
-0.0503105
-0.0531393
-0.055983
-0.058841
-0.0617125
-0.0645968
-0.0674929
-0.0703999
-0.073317
-0.0762433
-0.0791778
-0.0821198
-0.0850685
-0.088023
-0.0909826
-0.0939465
-0.0969141
-0.0998847
-0.102858
-0.105832
-0.108808
0.218832
0.215328
0.211866
0.208465
0.205136
0.201883
0.198704
0.195597
0.192554
0.189563
0.18661
0.183678
0.180743
0.177789
0.174801
0.17176
0.168627
0.165385
0.162049
0.158628
0.155097
0.151494
0.147881
0.144293
0.140671
0.136937
0.133073
0.129137
0.125331
0.121817
0.118593
0.115525
0.112514
0.10959
0.106775
0.104064
0.10145
0.098924
0.0965018
0.0941686
0.0919284
0.089758
0.0876124
0.0854654
0.0832951
0.0810977
0.0788605
0.0765847
0.0742397
0.0718377
0.0693921
0.0669065
0.0643706
0.0618065
0.0592104
0.0565747
0.0539371
0.0513006
0.0486803
0.0460668
0.0434773
0.0409257
0.0384325
0.0360047
0.0336497
0.0313936
0.0292812
0.0273323
0.0254943
0.0236379
0.0217888
0.0200825
0.0184211
0.0166839
0.0149834
0.0132367
0.0114137
0.00946802
0.00738686
0.0051523
0.00275022
0.000142849
-0.00171455
-0.00590672
-0.00904832
-0.0120825
-0.0150165
-0.0178639
-0.0206432
-0.0233744
-0.0260752
-0.0287601