/*--------------------------------*- C++ -*----------------------------------*\
  =========                 |
  \\      /  F ield         | OpenFOAM: The Open Source CFD Toolbox
   \\    /   O peration     | Website:  https://openfoam.org
    \\  /    A nd           | Version:  6
     \\/     M anipulation  |
\*---------------------------------------------------------------------------*/
FoamFile
{
    version     2.0;
    format      ascii;
    class       volVectorField;
    location    "3800";
    object      U;
}
// * * * * * * * * * * * * * * * * * * * * * * * * * * * * * * * * * * * * * //

dimensions      [0 1 -1 0 0 0 0];

internalField   nonuniform List<vector> 
4800
(
(-1.53817e-05 0 -3.88986e-05)
(7.27019e-05 0 -2.64763e-05)
(8.65034e-05 0 -6.75793e-05)
(0.000107469 0 1.22573e-05)
(9.10931e-05 0 -1.096e-05)
(6.91322e-05 0 -2.04239e-05)
(4.77465e-05 0 -2.91654e-06)
(5.86282e-06 0 1.4079e-05)
(-5.52952e-05 0 -1.2477e-05)
(-9.18037e-05 0 -2.21837e-05)
(-0.000131381 0 1.53646e-05)
(-0.000193404 0 -2.0578e-07)
(-0.00023263 0 7.38133e-06)
(-0.000290325 0 4.55773e-05)
(-0.000439043 0 1.10466e-05)
(-0.000601167 0 9.92332e-05)
(-0.000718836 0 2.77681e-05)
(-0.000760305 0 -4.35156e-05)
(-0.000774943 0 -8.0096e-05)
(-0.000789714 0 -8.57644e-05)
(-0.000699015 0 -0.000183862)
(-0.00053335 0 -0.000207661)
(-0.000431005 0 -0.000159222)
(-0.000375885 0 -0.000113745)
(-0.000323349 0 1.20429e-05)
(-0.000187809 0 -2.70147e-05)
(-8.44741e-05 0 -4.92649e-05)
(0.000121962 0 -0.000241729)
(0.00031239 0 -0.000116602)
(0.000415839 0 -6.72104e-05)
(0.000507072 0 -3.98278e-05)
(0.000575805 0 -5.25527e-05)
(0.000646308 0 -6.23538e-05)
(0.000731748 0 -6.17575e-05)
(0.000778828 0 -2.3282e-05)
(0.000770115 0 -1.77848e-05)
(0.000760251 0 -1.50104e-05)
(0.000753028 0 -1.20175e-05)
(0.000742159 0 -1.30738e-05)
(0.000724506 0 5.45669e-06)
(0.000704793 0 -1.78613e-05)
(0.000681754 0 2.79957e-05)
(0.000647297 0 1.05795e-07)
(0.00059411 0 4.19437e-05)
(0.000527684 0 3.45026e-05)
(0.000446345 0 5.3592e-05)
(0.000370147 0 4.9141e-05)
(0.0002823 0 5.86549e-06)
(0.000108553 0 -1.42535e-05)
(2.94063e-05 0 -0.000104424)
(-3.67507e-05 0 -3.93408e-05)
(-0.000115635 0 -1.81993e-05)
(-0.000159102 0 -3.79624e-05)
(-0.00017168 0 -5.26977e-05)
(-0.000135406 0 -8.07701e-05)
(-0.000133983 0 -6.68991e-05)
(-8.80324e-05 0 -0.000105459)
(-3.12055e-05 0 -1.28179e-05)
(1.86602e-05 0 -2.14594e-06)
(1.95845e-06 0 -7.42363e-05)
(2.41167e-05 0 -9.3691e-05)
(9.299e-05 0 -0.000112232)
(0.000200446 0 -0.000101564)
(0.000318544 0 -0.0001095)
(0.000406809 0 -0.000109562)
(0.000426498 0 -7.93886e-05)
(0.000457198 0 -7.07871e-05)
(0.000511707 0 -3.67284e-05)
(0.000559911 0 -4.1423e-05)
(0.000596837 0 -6.45418e-05)
(0.000608834 0 -1.6989e-05)
(0.000621865 0 -9.94466e-07)
(0.00062653 0 9.39085e-06)
(0.000610794 0 8.64524e-06)
(0.000569094 0 1.47574e-05)
(0.000503935 0 5.14417e-05)
(0.000447312 0 2.59245e-05)
(0.000371326 0 4.54015e-05)
(1.93058e-05 0 0.000103397)
(-0.000693259 0 -9.95218e-05)
(5.8092e-06 0 -0.000166649)
(-9.11774e-13 0 -3.28872e-14)
(-2.54095e-12 0 -3.57624e-14)
(-1.49488e-12 0 -1.45647e-14)
(-1.46965e-12 0 -1.12384e-14)
(-1.44192e-12 0 -1.71971e-14)
(-1.39894e-12 0 -2.64625e-14)
(-1.33685e-12 0 -3.64023e-14)
(-1.25543e-12 0 -4.58383e-14)
(-1.15621e-12 0 -5.42133e-14)
(-1.0416e-12 0 -6.12364e-14)
(-9.14458e-13 0 -6.67482e-14)
(-7.77868e-13 0 -7.06698e-14)
(-6.35022e-13 0 -7.29818e-14)
(-4.89102e-13 0 -7.37148e-14)
(-3.43186e-13 0 -7.29417e-14)
(-2.00177e-13 0 -7.07717e-14)
(-6.27261e-14 0 -6.7344e-14)
(6.68102e-14 0 -6.28205e-14)
(1.86415e-13 0 -5.73784e-14)
(2.9443e-13 0 -5.12027e-14)
(3.89567e-13 0 -4.44792e-14)
(4.70905e-13 0 -3.73881e-14)
(5.37868e-13 0 -3.00988e-14)
(5.90207e-13 0 -2.27658e-14)
(6.27966e-13 0 -1.55257e-14)
(6.51441e-13 0 -8.49594e-15)
(6.61147e-13 0 -1.77403e-15)
(6.57776e-13 0 4.56165e-15)
(6.42158e-13 0 1.04507e-14)
(6.15231e-13 0 1.58489e-14)
(5.78008e-13 0 2.07258e-14)
(5.31551e-13 0 2.50625e-14)
(4.76951e-13 0 2.88492e-14)
(4.15314e-13 0 3.20826e-14)
(3.47748e-13 0 3.4764e-14)
(2.75356e-13 0 3.68961e-14)
(1.99237e-13 0 3.84802e-14)
(1.20501e-13 0 3.95074e-14)
(4.03085e-14 0 3.99307e-14)
(2.06046e-06 0 -4.11908e-05)
(7.65934e-05 0 -6.00529e-05)
(0.00013415 0 -5.37322e-06)
(0.000123278 0 -9.01553e-06)
(0.000109886 0 3.60713e-05)
(9.07695e-05 0 5.88132e-05)
(5.89141e-05 0 6.24685e-05)
(4.72788e-06 0 6.82602e-05)
(-4.3579e-05 0 8.06358e-05)
(-8.53766e-05 0 8.53223e-05)
(-0.000154501 0 8.66031e-05)
(-0.000247473 0 0.000108492)
(-0.000355216 0 0.000146458)
(-0.000427796 0 0.000242444)
(-0.000568507 0 0.000234161)
(-0.000705609 0 0.000152014)
(-0.000762103 0 0.000155165)
(-0.00077487 0 9.8015e-05)
(-0.000747858 0 2.68939e-05)
(-0.000752175 0 2.66578e-05)
(-0.000733685 0 -6.60185e-05)
(-0.000590411 0 -0.00020044)
(-0.000489078 0 -0.000118432)
(-0.000396599 0 -4.71347e-05)
(-0.000311507 0 5.20702e-06)
(-5.43962e-05 0 -0.000331459)
(-1.59254e-05 0 -0.000177695)
(0.000194315 0 -0.000171213)
(0.00023027 0 -0.000314759)
(0.000427081 0 -0.00013)
(0.000501408 0 -7.86328e-05)
(0.000566145 0 -8.45615e-05)
(0.000639496 0 -0.000148939)
(0.000741217 0 -4.98508e-05)
(0.000750748 0 -1.21791e-05)
(0.000738394 0 -1.39096e-06)
(0.000718466 0 2.10211e-05)
(0.000697132 0 3.3576e-05)
(0.000672846 0 2.87226e-05)
(0.000643834 0 1.39519e-05)
(0.000618753 0 1.99539e-05)
(0.000603041 0 4.2932e-05)
(0.000580643 0 5.6551e-05)
(0.00054669 0 8.01268e-05)
(0.000493482 0 0.000107115)
(0.000434742 0 8.64993e-05)
(0.000366401 0 9.65337e-05)
(0.000255163 0 0.000179013)
(0.000239374 0 0.000109845)
(0.000162075 0 0.000168969)
(1.88537e-05 0 0.000156069)
(-5.67854e-05 0 0.000118191)
(-0.000101396 0 7.39643e-05)
(-0.000124169 0 2.60035e-05)
(-0.000104852 0 -2.97273e-05)
(-0.00010844 0 -3.15645e-05)
(-0.000116225 0 -5.53478e-05)
(-0.000101109 0 -6.93145e-05)
(-3.80179e-05 0 2.82593e-05)
(1.70305e-05 0 3.38263e-05)
(5.09241e-05 0 -5.29741e-05)
(8.69892e-05 0 -0.000157023)
(0.000222672 0 -9.15433e-05)
(0.000287249 0 -0.000101639)
(0.000350898 0 -5.68032e-05)
(0.000357127 0 -0.000130124)
(0.000417306 0 -8.15554e-05)
(0.00048674 0 -6.71104e-05)
(0.000538416 0 -5.45296e-05)
(0.000541272 0 -3.35322e-05)
(0.00054547 0 -2.78058e-05)
(0.000556472 0 -4.73844e-05)
(0.000557351 0 4.95074e-05)
(0.000550576 0 4.48723e-05)
(0.000514131 0 0.000112455)
(0.000478822 0 3.28003e-05)
(0.000409973 0 0.000160422)
(0.000408149 0 0.000199505)
(0.000359278 0 0.000182936)
(3.65242e-05 0 0.000133472)
(5.0305e-06 0 6.46383e-05)
(-7.22566e-13 0 -4.15566e-13)
(-2.5099e-12 0 -1.10728e-13)
(-1.47085e-12 0 -2.63673e-14)
(-1.47236e-12 0 -2.49248e-14)
(-1.45703e-12 0 -4.85882e-14)
(-1.41815e-12 0 -7.90575e-14)
(-1.35623e-12 0 -1.10059e-13)
(-1.27324e-12 0 -1.38923e-13)
(-1.17161e-12 0 -1.64334e-13)
(-1.05414e-12 0 -1.85554e-13)
(-9.23892e-13 0 -2.02157e-13)
(-7.84102e-13 0 -2.13927e-13)
(-6.38067e-13 0 -2.20818e-13)
(-4.89062e-13 0 -2.22929e-13)
(-3.40243e-13 0 -2.20486e-13)
(-1.94579e-13 0 -2.13823e-13)
(-5.47749e-14 0 -2.03366e-13)
(7.67758e-14 0 -1.89609e-13)
(1.98032e-13 0 -1.73091e-13)
(3.07329e-13 0 -1.54374e-13)
(4.03382e-13 0 -1.34022e-13)
(4.85285e-13 0 -1.1258e-13)
(5.5249e-13 0 -9.05617e-14)
(6.0478e-13 0 -6.84313e-14)
(6.42236e-13 0 -4.66004e-14)
(6.65193e-13 0 -2.54209e-14)
(6.74205e-13 0 -5.18471e-15)
(6.7e-13 0 1.38748e-14)
(6.53445e-13 0 3.15787e-14)
(6.25506e-13 0 4.77964e-14)
(5.87221e-13 0 6.24394e-14)
(5.39674e-13 0 7.54536e-14)
(4.83971e-13 0 8.68121e-14)
(4.21229e-13 0 9.65075e-14)
(3.52562e-13 0 1.04546e-13)
(2.79072e-13 0 1.10939e-13)
(2.01849e-13 0 1.157e-13)
(1.21951e-13 0 1.18828e-13)
(4.07318e-14 0 1.20297e-13)
(-1.26634e-06 0 -0.000164393)
(9.19822e-05 0 -0.000101422)
(0.000134362 0 -5.64978e-05)
(0.000145845 0 1.17125e-05)
(0.000112808 0 1.95608e-05)
(6.95819e-05 0 7.45338e-05)
(3.45558e-05 0 9.84924e-05)
(-4.7432e-06 0 0.000113672)
(-6.59743e-05 0 0.000135767)
(-0.000129461 0 0.000145784)
(-0.000205613 0 0.000150686)
(-0.000318848 0 0.000183356)
(-0.000453349 0 0.000234612)
(-0.000544911 0 0.00028119)
(-0.000644523 0 0.000255989)
(-0.000706183 0 0.000231982)
(-0.000741687 0 0.00020361)
(-0.000747709 0 -3.35578e-05)
(-0.000617395 0 -0.000131808)
(-0.000591031 0 -6.07926e-05)
(-0.000587974 0 -0.000115794)
(-0.000439939 0 -0.00036954)
(-0.000395186 0 -0.000241666)
(-0.000310815 0 -0.000226959)
(-0.000112576 0 -0.00039563)
(6.34924e-05 0 -0.00041058)
(0.000176928 0 -0.000359701)
(0.000285608 0 -0.000275131)
(0.000206627 0 -0.00040189)
(0.00043644 0 -0.00026622)
(0.000535891 0 -0.000181919)
(0.000605778 0 -0.000181299)
(0.000663304 0 -0.000269197)
(0.00074463 0 -4.12451e-05)
(0.000745413 0 -7.67556e-06)
(0.000742165 0 2.34432e-05)
(0.000726337 0 4.21631e-05)
(0.000687237 0 6.25809e-05)
(0.000628438 0 8.51437e-05)
(0.000566493 0 7.34707e-05)
(0.00053207 0 5.19143e-05)
(0.000524233 0 6.43044e-05)
(0.000514673 0 8.02854e-05)
(0.000490933 0 0.000122271)
(0.000452559 0 0.000162631)
(0.000383743 0 0.000211606)
(0.000309235 0 0.000207861)
(0.000220916 0 0.0002156)
(0.000176878 0 0.000246629)
(0.000101912 0 0.000264482)
(-2.48714e-06 0 0.000215282)
(-3.98057e-05 0 0.00013889)
(-7.02669e-05 0 8.12416e-05)
(-8.26069e-05 0 -1.19134e-05)
(-6.6139e-05 0 -2.44827e-05)
(-8.2253e-05 0 -2.72661e-05)
(-7.70389e-05 0 -6.07062e-05)
(-8.49287e-05 0 -0.000112846)
(-7.98882e-05 0 -0.000155577)
(2.75341e-05 0 -0.000103422)
(7.33598e-05 0 -0.000116504)
(7.1962e-05 0 -0.000224935)
(0.000206133 0 -0.000169108)
(0.000239841 0 -0.000166845)
(0.000299009 0 -0.000108083)
(0.000322011 0 -0.000163088)
(0.0003855 0 -0.000200216)
(0.000503205 0 8.78625e-05)
(0.000504202 0 -0.000117499)
(0.000504085 0 -9.72424e-05)
(0.000519683 0 -0.000100817)
(0.000538965 0 -1.61105e-05)
(0.000531191 0 -5.75341e-07)
(0.000518617 0 4.33119e-05)
(0.00048964 0 9.55925e-05)
(0.000457593 0 8.61296e-05)
(0.000405335 0 0.000182617)
(0.000408225 0 0.000226031)
(0.000388099 0 0.000245363)
(0.000291393 0 0.000190548)
(5.59797e-06 0 0.000239562)
(-6.62708e-13 0 2.8933e-13)
(-2.09633e-12 0 1.01088e-13)
(-1.40928e-12 0 4.42493e-14)
(-1.49169e-12 0 -1.39171e-14)
(-1.49582e-12 0 -7.33174e-14)
(-1.46041e-12 0 -1.31414e-13)
(-1.39672e-12 0 -1.86148e-13)
(-1.3097e-12 0 -2.35756e-13)
(-1.20284e-12 0 -2.78937e-13)
(-1.07942e-12 0 -3.14776e-13)
(-9.42832e-13 0 -3.42678e-13)
(-7.9653e-13 0 -3.62336e-13)
(-6.44025e-13 0 -3.73698e-13)
(-4.88769e-13 0 -3.76951e-13)
(-3.3408e-13 0 -3.72491e-13)
(-1.83057e-13 0 -3.609e-13)
(-3.85121e-14 0 -3.4291e-13)
(9.70858e-14 0 -3.19369e-13)
(2.2165e-13 0 -2.91202e-13)
(3.33499e-13 0 -2.59372e-13)
(4.31361e-13 0 -2.24838e-13)
(5.14365e-13 0 -1.8853e-13)
(5.82017e-13 0 -1.51313e-13)
(6.34169e-13 0 -1.13973e-13)
(6.70976e-13 0 -7.7199e-14)
(6.92857e-13 0 -4.15798e-14)
(7.00443e-13 0 -7.59876e-15)
(6.94539e-13 0 2.43601e-14)
(6.76079e-13 0 5.40052e-14)
(6.46092e-13 0 8.1127e-14)
(6.05665e-13 0 1.05586e-13)
(5.55923e-13 0 1.27302e-13)
(4.98005e-13 0 1.46236e-13)
(4.33048e-13 0 1.62385e-13)
(3.6218e-13 0 1.75767e-13)
(2.8651e-13 0 1.86409e-13)
(2.07127e-13 0 1.94344e-13)
(1.25098e-13 0 1.99603e-13)
(4.17773e-14 0 2.02225e-13)
(4.56737e-05 0 -0.000225699)
(6.05411e-05 0 -0.000172521)
(8.70865e-05 0 -0.000136085)
(0.000133878 0 7.78834e-05)
(8.60197e-05 0 8.31385e-05)
(3.75875e-05 0 0.000119851)
(2.12335e-06 0 0.000142431)
(-3.14249e-05 0 0.000166038)
(-9.60258e-05 0 0.000190218)
(-0.000173392 0 0.000214774)
(-0.000226106 0 0.000259942)
(-0.000344521 0 0.00031561)
(-0.000472995 0 0.000373253)
(-0.000573252 0 0.000359878)
(-0.000617525 0 0.000328528)
(-0.0006679 0 0.000248171)
(-0.0006919 0 0.000216527)
(-0.000708617 0 5.75266e-05)
(-0.000513218 0 -0.000370452)
(-0.000482225 0 -0.000140461)
(-0.000448289 0 -0.000170611)
(-0.000356377 0 -0.000314037)
(-0.000258177 0 -0.000389369)
(-3.40961e-05 0 -0.000469659)
(6.34669e-05 0 -0.00049077)
(0.000183506 0 -0.000494486)
(0.000306662 0 -0.000486244)
(0.000358783 0 -0.000479619)
(0.000475321 0 -0.000391294)
(0.000496207 0 -0.000373012)
(0.000532272 0 -0.000351738)
(0.000608441 0 -0.000288924)
(0.000679597 0 -0.000182856)
(0.000688892 0 -0.000115542)
(0.000701734 0 -5.17472e-05)
(0.000720274 0 1.21982e-05)
(0.00073108 0 9.33524e-05)
(0.000719332 0 0.000103987)
(0.000660333 0 0.000137068)
(0.000581875 0 0.000128605)
(0.000502286 0 9.20795e-05)
(0.000456985 0 9.73054e-05)
(0.000461359 0 0.00010311)
(0.000455017 0 0.000124739)
(0.000426322 0 0.000171213)
(0.000354955 0 0.000242733)
(0.00027206 0 0.000264298)
(0.000185318 0 0.000261176)
(0.000130218 0 0.000289732)
(7.92902e-05 0 0.000297628)
(1.76104e-05 0 0.000252305)
(-3.03538e-05 0 0.000160514)
(-3.74295e-05 0 6.11017e-05)
(-5.12835e-06 0 4.28274e-06)
(-4.66998e-05 0 -2.52998e-05)
(-6.25878e-05 0 -6.3851e-05)
(2.79384e-05 0 -4.611e-05)
(-2.3514e-05 0 -8.17784e-05)
(-2.99476e-05 0 -0.000159091)
(8.27613e-05 0 -0.000142917)
(0.000108029 0 -0.000167391)
(0.000103549 0 -0.000254334)
(0.000189539 0 -0.000244791)
(0.000217581 0 -0.000210727)
(0.00027494 0 -0.000154962)
(0.000283939 0 -0.000256756)
(0.000399667 0 -0.000193781)
(0.000467526 0 -0.000112195)
(0.000485734 0 -9.30965e-05)
(0.000484356 0 -0.000122716)
(0.000502412 0 -5.97592e-05)
(0.000512626 0 2.62004e-05)
(0.000507474 0 4.58632e-05)
(0.000488815 0 0.000109843)
(0.000465196 0 0.000166015)
(0.000429228 0 0.000205657)
(0.000406016 0 0.000217551)
(0.000370923 0 0.000262511)
(0.000333588 0 0.000300591)
(-0.00018055 0 0.000335911)
(5.21878e-06 0 0.000417168)
(-7.41485e-13 0 9.14309e-13)
(-2.63434e-12 0 3.00738e-13)
(-1.58524e-12 0 1.16184e-13)
(-1.5894e-12 0 -1.6048e-15)
(-1.5743e-12 0 -9.91251e-14)
(-1.53098e-12 0 -1.87129e-13)
(-1.46057e-12 0 -2.67361e-13)
(-1.36603e-12 0 -3.39014e-13)
(-1.25063e-12 0 -4.00887e-13)
(-1.11788e-12 0 -4.51944e-13)
(-9.71451e-13 0 -4.91462e-13)
(-8.15122e-13 0 -5.19065e-13)
(-6.52683e-13 0 -5.34721e-13)
(-4.87855e-13 0 -5.38725e-13)
(-3.24192e-13 0 -5.31673e-13)
(-1.64997e-13 0 -5.14421e-13)
(-1.32438e-14 0 -4.88047e-13)
(1.28483e-13 0 -4.53793e-13)
(2.5803e-13 0 -4.13007e-13)
(3.73693e-13 0 -3.6709e-13)
(4.74224e-13 0 -3.17434e-13)
(5.58811e-13 0 -2.65376e-13)
(6.27047e-13 0 -2.1216e-13)
(6.78894e-13 0 -1.58906e-13)
(7.14628e-13 0 -1.0659e-13)
(7.34793e-13 0 -5.60366e-14)
(7.40145e-13 0 -7.91775e-15)
(7.31604e-13 0 3.72394e-14)
(7.10212e-13 0 7.90411e-14)
(6.77087e-13 0 1.17211e-13)
(6.33396e-13 0 1.51572e-13)
(5.80324e-13 0 1.82029e-13)
(5.19055e-13 0 2.08546e-13)
(4.5076e-13 0 2.31134e-13)
(3.76585e-13 0 2.49831e-13)
(2.97649e-13 0 2.64691e-13)
(2.15043e-13 0 2.7577e-13)
(1.29833e-13 0 2.83122e-13)
(4.33539e-14 0 2.86792e-13)
(-2.54416e-05 0 -0.000270038)
(6.01401e-05 0 -0.000193096)
(-1.78587e-05 0 -0.000143576)
(0.000109937 0 8.88547e-05)
(4.70866e-05 0 0.000122739)
(1.88162e-05 0 0.000155896)
(-1.21789e-05 0 0.000188153)
(-8.69748e-05 0 0.000214331)
(-0.0001279 0 0.000251931)
(-0.000197234 0 0.000296076)
(-0.000285616 0 0.000348258)
(-0.000373878 0 0.000434258)
(-0.000492866 0 0.000446999)
(-0.000547197 0 0.000427611)
(-0.000591979 0 0.000351368)
(-0.000603829 0 0.000258558)
(-0.000603753 0 0.000202075)
(-0.00061546 0 -4.13441e-05)
(-0.000484253 0 -0.000245738)
(-0.00038136 0 -0.000267506)
(-0.000374441 0 -0.000217023)
(-8.91735e-05 0 -0.000517602)
(-9.83841e-05 0 -0.000568898)
(0.00015318 0 -0.00057131)
(0.000216401 0 -0.000616062)
(0.000409609 0 -0.000517041)
(0.000424885 0 -0.000539351)
(0.000491619 0 -0.000539033)
(0.000622409 0 -0.000394405)
(0.000615927 0 -0.000388769)
(0.000624961 0 -0.000349128)
(0.000655947 0 -0.000294425)
(0.000664138 0 -0.000250729)
(0.000669781 0 -0.000142724)
(0.000679735 0 -6.40022e-05)
(0.000678688 0 -1.39428e-05)
(0.000693476 0 3.16753e-05)
(0.000702615 0 0.000157782)
(0.000683041 0 0.000189556)
(0.000629084 0 0.000186103)
(0.000523322 0 0.000192123)
(0.000460522 0 9.63697e-05)
(0.000406595 0 0.000123331)
(0.000361869 0 0.000202445)
(0.000295983 0 0.00027548)
(0.000246713 0 0.000323485)
(0.000211991 0 0.000329941)
(0.000150667 0 0.000314381)
(0.000104557 0 0.000327081)
(5.69279e-05 0 0.000331157)
(-1.03122e-05 0 0.000278728)
(1.3552e-05 0 0.00018824)
(2.30538e-06 0 7.62309e-05)
(1.78132e-05 0 3.99757e-05)
(-1.764e-05 0 6.16616e-07)
(-2.96299e-05 0 -6.54579e-05)
(-3.00115e-05 0 -0.000115094)
(7.75401e-05 0 -0.000110492)
(7.99511e-05 0 -0.000139601)
(9.46287e-05 0 -0.00018703)
(0.00013246 0 -0.000219321)
(0.000143677 0 -0.000283253)
(0.000214225 0 -0.000292887)
(0.000248327 0 -0.00026173)
(0.000282762 0 -0.000242745)
(0.000314349 0 -0.000279433)
(0.000402794 0 -0.00023472)
(0.000434001 0 -0.000166685)
(0.000453881 0 -0.000146046)
(0.000482835 0 -0.000117843)
(0.000484514 0 -8.87155e-05)
(0.000480276 0 -3.3106e-05)
(0.000478972 0 2.74308e-05)
(0.000465434 0 0.000109475)
(0.000451598 0 0.000168976)
(0.000451226 0 0.000155762)
(0.000414668 0 0.000223034)
(0.000313807 0 0.000333843)
(0.000299545 0 0.000388036)
(-0.000252343 0 0.000423293)
(6.09664e-06 0 0.000558689)
(-9.1294e-13 0 5.1696e-13)
(-2.71108e-12 0 2.46492e-13)
(-1.71098e-12 0 1.21266e-13)
(-1.70647e-12 0 -9.57484e-15)
(-1.68113e-12 0 -1.3434e-13)
(-1.62865e-12 0 -2.50722e-13)
(-1.5486e-12 0 -3.57262e-13)
(-1.44323e-12 0 -4.52163e-13)
(-1.31577e-12 0 -5.33771e-13)
(-1.17e-12 0 -6.00776e-13)
(-1.00995e-12 0 -6.52292e-13)
(-8.39789e-13 0 -6.87878e-13)
(-6.63685e-13 0 -7.07538e-13)
(-4.85721e-13 0 -7.11703e-13)
(-3.09776e-13 0 -7.012e-13)
(-1.39432e-13 0 -6.77211e-13)
(2.21163e-14 0 -6.41207e-13)
(1.72126e-13 0 -5.94881e-13)
(3.08353e-13 0 -5.40066e-13)
(4.29073e-13 0 -4.78653e-13)
(5.33075e-13 0 -4.12518e-13)
(6.19638e-13 0 -3.4345e-13)
(6.88486e-13 0 -2.73098e-13)
(7.39739e-13 0 -2.02937e-13)
(7.73846e-13 0 -1.3424e-13)
(7.91529e-13 0 -6.80675e-14)
(7.93719e-13 0 -5.27462e-15)
(7.81498e-13 0 5.34814e-14)
(7.56051e-13 0 1.07721e-13)
(7.18623e-13 0 1.5712e-13)
(6.70483e-13 0 2.01482e-13)
(6.12897e-13 0 2.40716e-13)
(5.4711e-13 0 2.74807e-13)
(4.74333e-13 0 3.03795e-13)
(3.95737e-13 0 3.27756e-13)
(3.12449e-13 0 3.46777e-13)
(2.25559e-13 0 3.60948e-13)
(1.3612e-13 0 3.70349e-13)
(4.54468e-14 0 3.75038e-13)
(-2.32744e-05 0 -0.000282113)
(3.05954e-05 0 -0.000213526)
(9.59109e-06 0 -0.00011778)
(4.39292e-05 0 6.13076e-05)
(2.47467e-05 0 0.000129534)
(-1.02005e-05 0 0.000193663)
(-5.55149e-05 0 0.000234303)
(-8.5225e-05 0 0.000281747)
(-0.000187854 0 0.000310202)
(-0.000255076 0 0.000370428)
(-0.000362605 0 0.000436382)
(-0.000459135 0 0.000490171)
(-0.000514113 0 0.000495528)
(-0.000519588 0 0.000490408)
(-0.00053308 0 0.000368714)
(-0.000503109 0 0.000233258)
(-0.000464363 0 0.000100114)
(-0.00044985 0 -6.90776e-05)
(-0.00039983 0 -0.000271542)
(-0.000288714 0 -0.000390937)
(-0.000186651 0 -0.000478626)
(-5.65575e-05 0 -0.000583042)
(-4.00161e-05 0 -0.000639577)
(0.000123621 0 -0.000687104)
(0.000251007 0 -0.000748409)
(0.000394466 0 -0.000676856)
(0.000466865 0 -0.000629501)
(0.000562028 0 -0.000545605)
(0.000617199 0 -0.000476104)
(0.000641761 0 -0.000433238)
(0.000675204 0 -0.000355402)
(0.00072473 0 -0.000276972)
(0.000743441 0 -0.000205857)
(0.000716169 0 -0.000167074)
(0.000711828 0 -1.30072e-05)
(0.000710033 0 2.10143e-05)
(0.00070619 0 2.38292e-05)
(0.000688359 0 0.000147791)
(0.000665596 0 0.000219509)
(0.000616411 0 0.000285958)
(0.000532191 0 0.000290677)
(0.000448342 0 0.000209272)
(0.00033269 0 0.000241577)
(0.000318833 0 0.000256087)
(0.000255305 0 0.000314409)
(0.000207629 0 0.000358897)
(0.000155998 0 0.000381263)
(0.000108109 0 0.000370302)
(5.29947e-05 0 0.00037597)
(1.28001e-05 0 0.000372078)
(3.96477e-05 0 0.000296807)
(5.50693e-05 0 0.000199361)
(2.59067e-05 0 0.000100233)
(1.5684e-05 0 4.36838e-05)
(-3.62461e-05 0 -3.39406e-05)
(7.51303e-05 0 -3.19525e-05)
(5.1654e-05 0 -0.000116329)
(-1.01599e-05 0 -0.000208255)
(0.00012548 0 -0.000204321)
(0.000177226 0 -0.000216359)
(0.000202904 0 -0.000242007)
(0.000226853 0 -0.000279992)
(0.000216504 0 -0.000357622)
(0.000299603 0 -0.000300728)
(0.000312735 0 -0.000299174)
(0.000341461 0 -0.000306423)
(0.000425783 0 -0.00021246)
(0.000393161 0 -0.000283822)
(0.000450032 0 -0.000173364)
(0.000483342 0 -0.000101616)
(0.00048601 0 -5.37709e-05)
(0.000471953 0 8.134e-06)
(0.000471508 0 6.02182e-05)
(0.000473192 0 0.000124236)
(0.000449128 0 0.000200389)
(0.000400706 0 0.000269208)
(0.000398717 0 0.000286231)
(0.00025597 0 0.000424347)
(0.000299516 0 0.000470035)
(-5.12335e-05 0 0.000539486)
(5.67422e-06 0 0.000652099)
(-9.07698e-13 0 6.62211e-13)
(-2.79473e-12 0 2.7582e-13)
(-1.84066e-12 0 1.31864e-13)
(-1.84448e-12 0 -2.36217e-14)
(-1.81524e-12 0 -1.77844e-13)
(-1.7539e-12 0 -3.24266e-13)
(-1.66201e-12 0 -4.58913e-13)
(-1.54253e-12 0 -5.7872e-13)
(-1.39924e-12 0 -6.8138e-13)
(-1.2364e-12 0 -7.65226e-13)
(-1.05855e-12 0 -8.29187e-13)
(-8.70368e-13 0 -8.72761e-13)
(-6.76508e-13 0 -8.96001e-13)
(-4.81517e-13 0 -8.99504e-13)
(-2.897e-13 0 -8.84377e-13)
(-1.05004e-13 0 -8.52179e-13)
(6.90862e-14 0 -8.04851e-13)
(2.29624e-13 0 -7.44615e-13)
(3.74257e-13 0 -6.73868e-13)
(5.0124e-13 0 -5.95073e-13)
(6.09428e-13 0 -5.10651e-13)
(6.98231e-13 0 -4.22901e-13)
(7.6756e-13 0 -3.33919e-13)
(8.17753e-13 0 -2.45559e-13)
(8.49498e-13 0 -1.59401e-13)
(8.63758e-13 0 -7.67412e-14)
(8.61694e-13 0 1.39493e-15)
(8.446e-13 0 7.42385e-14)
(8.13851e-13 0 1.41248e-13)
(7.70848e-13 0 2.02075e-13)
(7.16992e-13 0 2.56534e-13)
(6.53648e-13 0 3.04561e-13)
(5.82135e-13 0 3.46188e-13)
(5.03709e-13 0 3.81504e-13)
(4.19566e-13 0 4.10639e-13)
(3.30842e-13 0 4.33732e-13)
(2.38616e-13 0 4.50917e-13)
(1.43923e-13 0 4.62308e-13)
(4.80433e-14 0 4.67987e-13)
(-5.85652e-05 0 -0.000262278)
(-2.44073e-05 0 -0.000207056)
(-1.37208e-05 0 -0.000117649)
(7.18559e-06 0 -1.33754e-06)
(-2.46983e-06 0 0.000152616)
(-7.35861e-05 0 0.000222847)
(-4.89911e-05 0 0.000293899)
(-0.000151823 0 0.00033159)
(-0.000180962 0 0.000406809)
(-0.000302006 0 0.000461988)
(-0.000406582 0 0.000528053)
(-0.000498286 0 0.000543598)
(-0.000490002 0 0.000564927)
(-0.000513311 0 0.000459936)
(-0.00046538 0 0.000327333)
(-0.000394772 0 0.000202468)
(-0.000352818 0 8.97499e-05)
(-0.000339784 0 -6.85919e-05)
(-0.000167797 0 -0.000437513)
(-0.0001791 0 -0.000472903)
(-0.000113914 0 -0.000547901)
(-6.41961e-05 0 -0.00064338)
(0.000203176 0 -0.000719452)
(0.000323078 0 -0.000767488)
(0.000318773 0 -0.000829213)
(0.00038249 0 -0.000798597)
(0.000454789 0 -0.00073796)
(0.000466905 0 -0.000708534)
(0.000555502 0 -0.000605762)
(0.000693992 0 -0.000394871)
(0.000658143 0 -0.000411227)
(0.000712811 0 -0.000345888)
(0.000779467 0 -0.000162012)
(0.000757657 0 -0.000139157)
(0.000738783 0 -6.11168e-05)
(0.000731544 0 5.54663e-05)
(0.000716298 0 8.80249e-05)
(0.000669544 0 0.00020127)
(0.000651807 0 0.00025541)
(0.000632807 0 0.000288287)
(0.000591555 0 0.000295514)
(0.000515379 0 0.000225984)
(0.000328941 0 0.000285776)
(0.000322723 0 0.000287357)
(0.000247584 0 0.000354096)
(0.00018491 0 0.000407936)
(0.000143215 0 0.000426668)
(0.000104373 0 0.00041803)
(5.85526e-05 0 0.00041387)
(5.20086e-05 0 0.000390737)
(7.62563e-05 0 0.000299635)
(8.209e-05 0 0.000203503)
(7.09796e-05 0 0.000124765)
(4.72264e-05 0 5.28513e-05)
(8.59152e-05 0 1.66329e-05)
(1.82558e-05 0 -0.000112747)
(5.27769e-05 0 -0.00017466)
(0.000174485 0 -0.000170892)
(0.000144048 0 -0.000248609)
(0.00015803 0 -0.000295412)
(0.000232509 0 -0.00029438)
(0.000299932 0 -0.000283584)
(0.000282264 0 -0.000359121)
(0.000329666 0 -0.000348377)
(0.000325373 0 -0.000366866)
(0.000395856 0 -0.000300313)
(0.000426438 0 -0.000275393)
(0.000440657 0 -0.000250491)
(0.000448876 0 -0.000206006)
(0.000464253 0 -0.000139606)
(0.000469517 0 -7.03071e-05)
(0.000473747 0 -4.60225e-05)
(0.000471848 0 4.02048e-05)
(0.000469111 0 0.000117988)
(0.000423938 0 0.000242436)
(0.000432148 0 0.000244786)
(0.000317941 0 0.000393406)
(0.000293218 0 0.000445783)
(0.000307285 0 0.000541537)
(-0.000207139 0 0.000619074)
(5.76065e-06 0 0.000770542)
(-9.44159e-13 0 8.49833e-13)
(-2.95561e-12 0 3.41987e-13)
(-2.00978e-12 0 1.53918e-13)
(-2.01567e-12 0 -3.88906e-14)
(-1.98159e-12 0 -2.2905e-13)
(-1.90972e-12 0 -4.09672e-13)
(-1.80306e-12 0 -5.75491e-13)
(-1.66569e-12 0 -7.22517e-13)
(-1.50228e-12 0 -8.479e-13)
(-1.31781e-12 0 -9.49667e-13)
(-1.11749e-12 0 -1.02658e-12)
(-9.06602e-13 0 -1.0781e-12)
(-6.90429e-13 0 -1.10433e-12)
(-4.74096e-13 0 -1.10608e-12)
(-2.6245e-13 0 -1.08477e-12)
(-5.9906e-14 0 -1.04243e-12)
(1.2968e-13 0 -9.81562e-13)
(3.03108e-13 0 -9.0502e-13)
(4.57895e-13 0 -8.15875e-13)
(5.92289e-13 0 -7.17263e-13)
(7.05246e-13 0 -6.12245e-13)
(7.9637e-13 0 -5.03695e-13)
(8.65828e-13 0 -3.94209e-13)
(9.14258e-13 0 -2.86049e-13)
(9.42664e-13 0 -1.81111e-13)
(9.52325e-13 0 -8.09224e-14)
(9.44699e-13 0 1.33406e-14)
(9.21351e-13 0 1.00825e-13)
(8.83888e-13 0 1.8096e-13)
(8.33909e-13 0 2.5341e-13)
(7.72969e-13 0 3.18032e-13)
(7.0255e-13 0 3.74826e-13)
(6.24053e-13 0 4.23898e-13)
(5.38785e-13 0 4.65417e-13)
(4.47964e-13 0 4.99587e-13)
(3.52727e-13 0 5.26618e-13)
(2.54134e-13 0 5.46703e-13)
(1.5319e-13 0 5.60002e-13)
(5.11258e-14 0 5.66627e-13)
(-3.21708e-05 0 -0.000249382)
(-3.52618e-05 0 -0.000186482)
(-2.03098e-05 0 -9.4356e-05)
(-6.11773e-05 0 0.000139149)
(-1.68715e-05 0 0.000178055)
(-1.45256e-05 0 0.000279876)
(-0.000141038 0 0.00031924)
(-0.000136011 0 0.000409098)
(-0.00022842 0 0.000479246)
(-0.000308344 0 0.00056566)
(-0.000389986 0 0.000614622)
(-0.000430947 0 0.000621516)
(-0.000480912 0 0.000555421)
(-0.000487647 0 0.000406193)
(-0.000411092 0 0.000265917)
(-0.000334392 0 0.000135691)
(-0.000287198 0 1.37633e-05)
(-0.00024916 0 -0.00011724)
(-9.91485e-05 0 -0.000438556)
(-7.17413e-05 0 -0.000521913)
(4.12136e-05 0 -0.000654215)
(0.000263392 0 -0.000697904)
(0.000269405 0 -0.000786731)
(0.000301052 0 -0.000900412)
(0.000420525 0 -0.000871527)
(0.000393598 0 -0.000864376)
(0.000508534 0 -0.000762639)
(0.000458849 0 -0.000768497)
(0.000680655 0 -0.000525717)
(0.000539539 0 -0.000650646)
(0.000697082 0 -0.000391802)
(0.000706522 0 -0.000391852)
(0.000785023 0 -0.00019358)
(0.000768974 0 -0.000178738)
(0.000761251 0 -6.41004e-05)
(0.000765035 0 4.01134e-05)
(0.000750809 0 0.000100359)
(0.000699571 0 0.000193265)
(0.000665062 0 0.000282406)
(0.000628955 0 0.000356512)
(0.000582032 0 0.000399826)
(0.000468478 0 0.000409138)
(0.000389623 0 0.000332116)
(0.000260043 0 0.000402078)
(0.000242719 0 0.000418017)
(0.000215319 0 0.000444799)
(0.000184499 0 0.000458413)
(0.000112377 0 0.000463915)
(8.68769e-05 0 0.000439452)
(8.05818e-05 0 0.000389685)
(0.000100602 0 0.000298964)
(0.000101828 0 0.000206255)
(0.000118245 0 0.00014781)
(9.5483e-05 0 5.22242e-05)
(0.000112139 0 -3.82629e-07)
(0.000132769 0 -7.38303e-05)
(0.000138544 0 -0.0001662)
(0.000118355 0 -0.000262835)
(0.000186507 0 -0.000290243)
(0.00027268 0 -0.000268762)
(0.000257872 0 -0.000323253)
(0.000268982 0 -0.000360123)
(0.000347054 0 -0.000347824)
(0.000322418 0 -0.000411065)
(0.000394984 0 -0.000346895)
(0.000403047 0 -0.000342091)
(0.000435265 0 -0.000304327)
(0.000450835 0 -0.000279737)
(0.000468572 0 -0.000228932)
(0.000463775 0 -0.000161546)
(0.000461755 0 -4.63834e-05)
(0.000471107 0 -1.36548e-05)
(0.000463168 0 9.8633e-05)
(0.000454254 0 0.000147874)
(0.000405858 0 0.000257718)
(0.000396721 0 0.000313191)
(0.000304209 0 0.000438562)
(0.000231879 0 0.000519276)
(0.000370789 0 0.000576694)
(-0.000402974 0 0.000655429)
(6.43076e-06 0 0.000914581)
(-1.15401e-12 0 1.04162e-12)
(-3.15374e-12 0 4.16978e-13)
(-2.22088e-12 0 1.80676e-13)
(-2.22695e-12 0 -5.67103e-14)
(-2.18586e-12 0 -2.89682e-13)
(-2.10034e-12 0 -5.09932e-13)
(-1.97486e-12 0 -7.10917e-13)
(-1.81494e-12 0 -8.88018e-13)
(-1.62639e-12 0 -1.0381e-12)
(-1.41508e-12 0 -1.15903e-12)
(-1.18698e-12 0 -1.24946e-12)
(-9.48116e-13 0 -1.3088e-12)
(-7.04487e-13 0 -1.33725e-12)
(-4.61956e-13 0 -1.33581e-12)
(-2.26055e-13 0 -1.30631e-12)
(-1.79492e-15 0 -1.25134e-12)
(2.06498e-13 0 -1.17408e-12)
(3.95311e-13 0 -1.07817e-12)
(5.62014e-13 0 -9.67497e-13)
(7.04871e-13 0 -8.46003e-13)
(8.22996e-13 0 -7.17506e-13)
(9.16266e-13 0 -5.85545e-13)
(9.85205e-13 0 -4.53275e-13)
(1.03085e-12 0 -3.23397e-13)
(1.05462e-12 0 -1.9813e-13)
(1.05821e-12 0 -7.92179e-14)
(1.04344e-12 0 3.20423e-14)
(1.01222e-12 0 1.34753e-13)
(9.66435e-13 0 2.28358e-13)
(9.0792e-13 0 3.12583e-13)
(8.38408e-13 0 3.87373e-13)
(7.59515e-13 0 4.52834e-13)
(6.72725e-13 0 5.09184e-13)
(5.79398e-13 0 5.56704e-13)
(4.80767e-13 0 5.95701e-13)
(3.77957e-13 0 6.26478e-13)
(2.71999e-13 0 6.49303e-13)
(1.63847e-13 0 6.64396e-13)
(5.46691e-14 0 6.7191e-13)
(2.57615e-05 0 -0.000252764)
(-1.46598e-05 0 -0.000189469)
(-2.23571e-05 0 -0.000105544)
(-6.53871e-05 0 1.94277e-05)
(-8.36443e-05 0 0.00022125)
(-0.000128654 0 0.000302533)
(-0.00011218 0 0.000389394)
(-0.000184476 0 0.000457958)
(-0.000262659 0 0.000552773)
(-0.000305226 0 0.000647621)
(-0.000375734 0 0.000664631)
(-0.00039697 0 0.000657411)
(-0.000421613 0 0.000556449)
(-0.000392154 0 0.000391116)
(-0.000331005 0 0.000226716)
(-0.000272525 0 9.13236e-05)
(-0.000242813 0 -1.57985e-05)
(-0.000135256 0 -0.000260754)
(-6.77111e-06 0 -0.000501083)
(1.02451e-05 0 -0.00056186)
(7.11682e-05 0 -0.000731829)
(0.000286566 0 -0.000806205)
(0.000251254 0 -0.000906827)
(0.000333222 0 -0.000959783)
(0.000359697 0 -0.000942706)
(0.000377532 0 -0.000904825)
(0.000480968 0 -0.000812023)
(0.000436774 0 -0.000813091)
(0.000576246 0 -0.000704026)
(0.000562836 0 -0.000685202)
(0.00075818 0 -0.00038591)
(0.000650622 0 -0.000513409)
(0.00080335 0 -0.000152475)
(0.000782009 0 -0.000165592)
(0.000759642 0 -1.02632e-05)
(0.000775078 0 4.60686e-05)
(0.000781288 0 0.000141121)
(0.00075649 0 0.000206429)
(0.000702602 0 0.000303868)
(0.000636929 0 0.000396441)
(0.000550375 0 0.000481568)
(0.000496381 0 0.000469876)
(0.000337401 0 0.000486089)
(0.000354708 0 0.000409037)
(0.00026754 0 0.000455441)
(0.000169918 0 0.000508236)
(8.71568e-05 0 0.000542227)
(0.000117326 0 0.000501513)
(0.000124713 0 0.000444729)
(0.000107642 0 0.000387942)
(0.000135008 0 0.00029631)
(0.000131856 0 0.000184101)
(0.000137567 0 0.00010714)
(0.000157845 0 9.36406e-05)
(0.000148833 0 -2.93164e-05)
(0.000151167 0 -0.000109085)
(0.0001877 0 -0.000164657)
(0.000168915 0 -0.000268628)
(0.000186219 0 -0.000340697)
(0.000213015 0 -0.000379642)
(0.000304024 0 -0.000334497)
(0.000322754 0 -0.00035061)
(0.000305614 0 -0.00041426)