/*--------------------------------*- C++ -*----------------------------------*\
  =========                 |
  \\      /  F ield         | OpenFOAM: The Open Source CFD Toolbox
   \\    /   O peration     | Website:  https://openfoam.org
    \\  /    A nd           | Version:  6
     \\/     M anipulation  |
\*---------------------------------------------------------------------------*/
FoamFile
{
    version     2.0;
    format      ascii;
    class       volScalarField;
    location    "1100";
    object      T;
}
// * * * * * * * * * * * * * * * * * * * * * * * * * * * * * * * * * * * * * //

dimensions      [0 0 0 1 0 0 0];

internalField   nonuniform List<scalar> 
4800
(
552.475
552.324
552.176
552.033
551.897
551.769
551.651
551.542
551.443
551.352
551.27
551.195
551.126
551.062
551.003
550.947
550.895
550.846
550.799
550.754
550.71
550.668
550.626
550.586
550.545
550.505
550.465
550.424
550.383
550.341
550.297
550.252
550.205
550.156
550.104
550.049
549.99
549.928
549.861
549.788
549.71
549.624
549.532
549.432
549.326
549.213
549.096
548.974
548.848
548.721
548.593
548.464
548.337
548.211
548.088
547.966
547.848
547.732
547.62
547.51
547.402
547.295
547.189
547.083
546.976
546.867
546.755
546.64
546.519
546.393
546.26
546.12
545.973
545.819
545.659
545.494
545.325
545.154
544.981
544.807
544.628
544.549
544.467
544.382
544.293
544.202
544.108
544.013
543.915
543.817
543.717
543.616
543.514
543.411
543.307
543.203
543.099
542.994
542.888
542.782
542.675
542.568
542.461
542.353
542.246
542.137
542.029
541.92
541.812
541.702
541.593
541.484
541.374
541.265
541.155
541.045
540.935
540.825
540.715
540.605
552.474
552.324
552.178
552.036
551.902
551.776
551.658
551.55
551.452
551.361
551.279
551.204
551.134
551.071
551.011
550.956
550.903
550.854
550.807
550.762
550.718
550.676
550.634
550.593
550.553
550.513
550.472
550.432
550.39
550.348
550.304
550.259
550.211
550.162
550.11
550.054
549.995
549.933
549.865
549.792
549.713
549.628
549.535
549.436
549.331
549.219
549.101
548.98
548.855
548.728
548.601
548.474
548.347
548.223
548.1
547.98
547.862
547.748
547.635
547.526
547.417
547.311
547.204
547.098
546.991
546.882
546.771
546.656
546.536
546.411
546.279
546.14
545.993
545.84
545.681
545.516
545.346
545.172
544.995
544.816
544.632
544.553
544.47
544.385
544.296
544.204
544.11
544.014
543.917
543.818
543.717
543.616
543.514
543.411
543.308
543.204
543.099
542.994
542.888
542.782
542.675
542.568
542.461
542.353
542.246
542.137
542.029
541.92
541.812
541.702
541.593
541.484
541.374
541.265
541.155
541.045
540.935
540.825
540.715
540.605
552.475
552.327
552.183
552.044
551.912
551.788
551.673
551.566
551.468
551.378
551.296
551.221
551.151
551.087
551.027
550.971
550.919
550.869
550.822
550.777
550.733
550.691
550.649
550.608
550.568
550.528
550.487
550.446
550.405
550.362
550.318
550.272
550.224
550.174
550.121
550.065
550.005
549.941
549.873
549.799
549.72
549.634
549.542
549.444
549.339
549.228
549.112
548.991
548.867
548.742
548.616
548.491
548.366
548.243
548.122
548.003
547.887
547.773
547.661
547.552
547.443
547.336
547.23
547.123
547.016
546.907
546.796
546.682
546.563
546.439
546.309
546.172
546.029
545.877
545.718
545.552
545.38
545.202
545.018
544.831
544.639
544.56
544.477
544.391
544.301
544.209
544.114
544.017
543.919
543.82
543.719
543.617
543.515
543.412
543.308
543.204
543.099
542.994
542.888
542.782
542.675
542.568
542.461
542.354
542.246
542.138
542.029
541.92
541.812
541.702
541.593
541.484
541.374
541.265
541.155
541.045
540.935
540.825
540.715
540.605
552.477
552.332
552.191
552.055
551.926
551.805
551.692
551.587
551.49
551.401
551.319
551.244
551.174
551.11
551.05
550.994
550.941
550.891
550.844
550.798
550.754
550.712
550.67
550.629
550.589
550.549
550.508
550.467
550.426
550.382
550.338
550.291
550.243
550.191
550.137
550.08
550.019
549.954
549.885
549.81
549.73
549.644
549.552
549.455
549.351
549.241
549.126
549.007
548.885
548.762
548.638
548.514
548.391
548.27
548.15
548.033
547.918
547.805
547.694
547.585
547.477
547.37
547.264
547.157
547.049
546.94
546.829
546.715
546.597
546.473
546.344
546.208
546.065
545.914
545.755
545.588
545.414
545.232
545.044
544.85
544.649
544.571
544.488
544.4
544.309
544.215
544.119
544.022
543.922
543.822
543.721
543.619
543.516
543.413
543.309
543.205
543.1
542.994
542.888
542.782
542.676
542.569
542.461
542.354
542.246
542.138
542.029
541.92
541.812
541.703
541.593
541.484
541.374
541.265
541.155
541.045
540.935
540.825
540.715
540.605
552.479
552.339
552.202
552.07
551.944
551.826
551.715
551.612
551.516
551.428
551.347
551.271
551.202
551.137
551.077
551.021
550.968
550.918
550.87
550.825
550.781
550.738
550.697
550.656
550.615
550.575
550.535
550.493
550.451
550.408
550.362
550.315
550.266
550.213
550.158
550.099
550.037
549.971
549.9
549.824
549.744
549.658
549.566
549.468
549.365
549.257
549.144
549.027
548.907
548.786
548.664
548.542
548.421
548.302
548.185
548.069
547.956
547.844
547.734
547.626
547.518
547.411
547.305
547.197
547.089
546.979
546.867
546.751
546.632
546.508
546.379
546.243
546.1
545.949
545.789
545.621
545.445
545.262
545.07
544.871
544.663
544.587
544.503
544.413
544.32
544.224
544.126
544.027
543.927
543.826
543.724
543.621
543.518
543.414
543.31
543.205
543.1
542.995
542.889
542.782
542.676
542.569
542.461
542.354
542.246
542.138
542.029
541.921
541.812
541.703
541.593
541.484
541.374
541.265
541.155
541.045
540.935
540.825
540.715
540.605
552.482
552.346
552.214
552.085
551.963
551.847
551.739
551.638
551.544
551.457
551.376
551.302
551.233
551.168
551.108
551.051
550.998
550.948
550.901
550.855
550.811
550.768
550.727
550.686
550.646
550.605
550.565
550.523
550.481
550.437
550.391
550.343
550.292
550.239
550.183
550.123
550.059
549.991
549.919
549.842
549.761
549.674
549.583
549.486
549.384
549.276
549.165
549.05
548.932
548.813
548.694
548.574
548.456
548.339
548.225
548.111
548
547.89
547.781
547.673
547.566
547.46
547.353
547.245
547.135
547.024
546.909
546.792
546.671
546.545
546.414
546.277
546.133
545.98
545.82
545.652
545.476
545.292
545.1
544.9
544.685
544.61
544.524
544.43
544.334
544.235
544.135
544.034
543.932
543.83
543.727
543.623
543.52
543.416
543.311
543.206
543.101
542.995
542.889
542.783
542.676
542.569
542.462
542.354
542.246
542.138
542.029
541.921
541.812
541.703
541.593
541.484
541.374
541.265
541.155
541.045
540.935
540.825
540.715
540.605
552.484
552.353
552.225
552.101
551.983
551.87
551.765
551.666
551.574
551.488
551.408
551.334
551.264
551.2
551.14
551.084
551.031
550.981
550.933
550.887
550.844
550.801
550.76
550.719
550.678
550.638
550.597
550.556
550.513
550.468
550.422
550.373
550.322
550.268
550.21
550.149
550.084
550.015
549.941
549.864
549.781
549.694
549.603
549.506
549.405
549.299
549.189
549.076
548.961
548.844
548.727
548.611
548.496
548.382
548.27
548.159
548.05
547.941
547.834
547.727
547.621
547.515
547.407
547.298
547.188
547.074
546.958
546.838
546.713
546.584
546.45
546.31
546.164
546.01
545.849
545.68
545.505
545.323
545.134
544.939
544.726
544.646
544.551
544.451
544.349
544.247
544.144
544.041
543.937
543.834
543.73
543.626
543.522
543.417
543.312
543.207
543.102
542.996
542.89
542.783
542.676
542.569
542.462
542.354
542.246
542.138
542.029
541.921
541.812
541.703
541.593
541.484
541.374
541.265
541.155
541.045
540.935
540.825
540.715
540.605
552.487
552.361
552.237
552.117
552.002
551.893
551.79
551.693
551.602
551.517
551.438
551.365
551.297
551.232
551.172
551.116
551.063
551.013
550.966
550.92
550.877
550.834
550.793
550.752
550.712
550.671
550.631
550.589
550.546
550.502
550.455
550.406
550.354
550.298
550.24
550.177
550.111
550.041
549.966
549.888
549.805
549.717
549.626
549.53
549.429
549.325
549.217
549.106
548.993
548.879
548.765
548.652
548.54
548.429
548.32
548.212
548.105
547.999
547.893
547.788
547.683
547.577
547.469
547.359
547.247
547.131
547.012
546.888
546.76
546.627
546.488
546.344
546.195
546.038
545.876
545.707
545.533
545.355
545.174
544.994
544.824
544.698
544.584
544.474
544.366
544.26
544.154
544.048
543.943
543.838
543.734
543.629
543.524
543.419
543.314
543.208
543.102
542.996
542.89
542.784
542.677
542.569
542.462
542.354
542.246
542.138
542.029
541.921
541.812
541.703
541.593
541.484
541.374
541.265
541.155
541.045
540.935
540.825
540.715
540.605
552.489
552.367
552.248
552.132
552.021
551.915
551.814
551.719
551.63
551.547
551.469
551.396
551.327
551.263
551.204
551.147
551.095
551.045
550.997
550.952
550.909
550.866
550.825
550.785
550.745
550.704
550.664
550.622
550.579
550.535
550.488
550.438
550.386
550.33
550.271
550.207
550.14
550.069
549.994
549.914
549.83
549.743
549.651
549.556
549.456
549.353
549.247
549.138
549.028
548.917
548.806
548.697
548.588
548.481
548.376
548.271
548.167
548.063
547.959
547.855
547.751
547.645
547.537
547.426
547.312
547.194
547.071
546.944
546.811
546.673
546.529
546.38
546.226
546.066
545.902
545.733
545.56
545.384
545.208
545.037
544.877
544.739
544.614
544.496
544.382
544.272
544.163
544.056
543.949
543.843
543.737
543.631
543.526
543.42
543.315
543.209
543.103
542.997
542.891
542.784
542.677
542.57
542.462
542.354
542.246
542.138
542.03
541.921
541.812
541.703
541.594
541.484
541.375
541.265
541.155
541.045
540.935
540.825
540.715
540.605
552.491
552.374
552.259
552.147
552.039
551.935
551.837
551.744
551.656
551.574
551.496
551.424
551.356
551.293
551.233
551.177
551.124
551.074
551.027
550.982
550.939
550.897
550.856
550.816
550.776
550.736
550.696
550.654
550.612
550.567
550.52
550.471
550.418
550.362
550.302
550.238
550.17
550.099
550.023
549.943
549.859
549.771
549.679
549.584
549.486
549.385
549.28
549.174
549.067
548.959
548.852
548.746
548.642
548.539
548.437
548.335
548.234
548.132
548.03
547.928
547.824
547.719
547.61
547.499
547.383
547.263
547.136
547.004
546.866
546.722
546.573
546.418
546.259
546.095
545.927
545.757
545.584
545.41
545.236
545.069
544.911
544.768
544.637
544.514
544.396
544.283
544.172
544.062
543.954
543.847
543.74
543.634
543.528
543.422
543.316
543.21
543.104
542.998
542.891
542.784
542.677
542.57
542.462
542.355
542.246
542.138
542.03
541.921
541.812
541.703
541.594
541.484
541.375
541.265
541.155
541.045
540.935
540.825
540.715
540.605
552.493
552.38
552.268
552.16
552.055
551.954
551.858
551.766
551.68
551.598
551.522
551.45
551.382
551.319
551.259
551.203
551.151
551.101
551.054
551.009
550.966
550.924
550.884
550.844
550.805
550.765
550.725
550.684
550.642
550.598
550.551
550.502
550.449
550.393
550.333
550.269
550.202
550.13
550.053
549.973
549.889
549.802
549.71
549.616
549.519
549.419
549.317
549.213
549.109
549.005
548.902
548.8
548.7
548.601
548.502
548.404
548.305
548.206
548.106
548.005
547.903
547.797
547.689
547.576
547.459
547.336
547.206
547.069
546.925
546.775
546.619
546.458
546.293
546.125
545.954
545.781
545.606
545.432
545.259
545.091
544.932
544.787
544.653
544.528
544.408
544.292
544.179
544.068
543.959
543.85
543.743
543.636
543.53
543.423
543.317
543.211
543.104
542.998
542.891
542.784
542.677
542.57
542.462
542.355
542.247
542.138
542.03
541.921
541.812
541.703
541.594
541.484
541.375
541.265
541.155
541.045
540.935
540.825
540.715
540.605
552.495
552.385
552.277
552.171
552.069
551.97
551.876
551.786
551.7
551.62
551.544
551.472
551.404
551.341
551.282
551.226
551.173
551.124
551.077
551.032
550.99
550.949
550.908
550.869
550.83
550.791
550.752
550.712
550.67
550.627
550.581
550.532
550.48
550.424
550.365
550.301
550.234
550.162
550.086
550.006
549.923
549.835
549.745
549.652
549.556
549.457
549.357
549.256
549.155
549.054
548.955
548.857
548.761
548.666
548.572
548.477
548.381
548.284
548.187
548.087
547.985
547.88
547.771
547.657
547.538
547.412
547.278
547.136
546.987
546.831
546.669
546.501
546.33
546.157
545.981
545.805
545.627
545.451
545.276
545.105
544.944
544.798
544.664
544.537
544.416
544.299
544.184
544.073
543.962
543.853
543.745
543.638
543.531
543.424
543.318
543.211
543.105
542.998
542.892
542.785
542.678
542.57
542.463
542.355
542.247
542.138
542.03
541.921
541.812
541.703
541.594
541.484
541.375
541.265
541.155
541.045
540.935
540.825
540.715
540.605
552.497
552.39
552.285
552.181
552.081
551.984
551.891
551.802
551.717
551.637
551.562
551.49
551.423
551.359
551.3
551.244
551.192
551.142
551.096
551.052
551.009
550.969
550.929
550.891
550.853
550.815
550.777
550.737
550.697
550.654
550.609
550.562
550.511
550.456
550.397
550.335
550.268
550.197
550.122
550.042
549.959
549.872
549.783
549.691
549.596
549.499
549.4
549.302
549.204
549.107
549.012
548.919
548.827
548.736
548.645
548.553
548.461
548.366
548.27
548.171
548.07
547.964
547.855
547.74
547.618
547.489
547.351
547.205
547.05
546.888
546.719
546.546
546.369
546.19
546.009
545.829
545.648
545.468
545.289
545.113
544.944
544.802
544.669
544.543
544.421
544.303
544.188
544.076
543.965
543.856
543.747
543.639
543.532
543.425
543.319
543.212
543.105
542.999
542.892
542.785
542.678
542.57
542.463
542.355
542.247
542.138
542.03
541.921
541.812
541.703
541.594
541.484
541.375
541.265
541.155
541.045
540.935
540.825
540.715
540.605
552.498
552.394
552.29
552.189
552.09
551.995
551.903
551.815
551.731
551.651
551.575
551.503
551.436
551.373
551.313
551.258
551.206
551.157
551.11
551.067
551.025
550.986
550.947
550.91
550.873
550.836
550.799
550.762
550.723
550.682
550.638
550.592
550.542
550.489
550.432
550.371
550.305
550.235
550.161
550.082
549.999
549.913
549.824
549.733
549.64
549.544
549.448
549.352
549.257
549.164
549.073
548.984
548.896
548.809
548.721
548.633
548.543
548.451
548.356
548.257
548.156
548.05
547.939
547.822
547.698
547.565
547.423
547.271
547.111
546.943
546.768
546.589
546.406
546.222
546.036
545.851
545.666
545.482
545.299
545.115
544.925
544.802
544.673
544.547
544.424
544.306
544.191
544.078
543.966
543.857
543.748
543.64
543.533
543.426
543.319
543.212
543.106
542.999
542.892
542.785
542.678
542.57
542.463
542.355
542.247
542.138
542.03
541.921
541.812
541.703
541.594
541.484
541.375
541.265
541.155
541.045
540.935
540.825
540.715
540.605
552.499
552.396
552.295
552.195
552.097
552.002
551.911
551.823
551.739
551.659
551.583
551.512
551.444
551.381
551.322
551.267
551.215
551.166
551.121
551.078
551.038
551
550.963
550.927
550.892
550.857
550.822
550.786
550.749
550.71
550.669
550.625
550.577
550.526
550.47
550.411
550.347
550.278
550.205
550.126
550.044
549.959
549.871
549.781
549.688
549.594
549.5
549.406
549.315
549.225
549.138
549.053
548.969
548.885
548.801
548.715
548.627
548.536
548.442
548.343
548.24
548.133
548.021
547.902
547.774
547.636
547.489
547.332
547.166
546.992
546.813
546.628
546.439
546.25
546.06
545.871
545.682
545.495
545.311
545.131
544.96
544.814
544.678
544.549
544.426
544.306
544.191
544.078
543.967
543.857
543.748
543.64
543.533
543.426
543.319
543.212
543.106
542.999
542.892
542.785
542.678
542.57
542.463
542.355
542.247
542.138
542.03
541.921
541.812
541.703
541.594
541.484
541.375
541.265
541.155
541.045
540.935
540.825
540.715
540.605
552.499
552.398
552.297
552.198
552.101
552.007
551.915
551.827
551.743
551.663
551.587
551.515
551.448
551.385
551.326
551.271
551.22
551.173
551.129
551.088
551.049
551.012
550.978
550.944
550.911
550.879
550.847
550.813
550.779
550.743
550.704
550.662
550.617
550.568
550.515
550.458
550.396
550.328
550.255
550.178
550.096
550.012
549.924
549.834
549.742
549.65
549.557
549.467
549.378
549.291
549.207
549.125
549.044
548.963
548.881
548.797
548.71
548.62
548.525
548.426
548.321
548.212
548.097
547.974
547.842
547.7
547.547
547.384
547.212
547.034
546.848
546.658
546.465
546.271
546.077
545.884
545.693
545.504
545.32
545.142
544.975
544.822
544.681
544.549
544.424
544.305
544.189
544.076
543.965
543.856
543.748
543.64
543.533
543.426
543.319
543.212
543.106
542.999
542.892
542.785
542.678
542.57
542.463
542.355
542.247
542.138
542.03
541.921
541.812
541.703
541.594
541.484
541.375
541.265
541.155
541.045
540.935
540.825
540.715
540.605
552.499
552.398
552.298
552.199
552.102
552.008
551.916
551.828
551.744
551.663
551.587
551.516
551.448
551.386
551.328
551.274
551.224
551.178
551.136
551.097
551.06
551.026
550.994
550.964
550.934
550.905
550.876
550.846
550.815
550.782
550.747
550.708
550.666
550.62
550.569
550.514
550.453
550.387
550.315
550.239
550.158
550.073
549.986
549.896
549.805
549.713
549.623
549.534
549.447
549.363
549.28
549.2
549.121
549.042
548.961
548.878
548.791
548.7
548.604
548.502
548.395
548.283
548.164
548.037
547.899
547.75
547.592
547.423
547.247
547.062
546.872
546.677
546.479
546.281
546.084
545.888
545.696
545.507
545.323
545.146
544.978
544.821
544.678
544.544
544.419
544.3
544.185
544.073
543.963
543.854
543.746
543.639
543.532
543.425
543.319
543.212
543.105
542.999
542.892
542.785
542.678
542.57
542.463
542.355
542.247
542.138
542.03
541.921
541.812
541.703
541.594
541.484
541.375
541.265
541.155
541.045
540.935
540.825
540.715
540.605
552.499
552.398
552.298
552.199
552.102
552.007
551.915
551.826
551.741
551.661
551.585
551.514
551.447
551.385
551.329
551.276
551.229
551.185
551.145
551.109
551.076
551.046
551.017
550.99
550.965
550.94
550.915
550.889
550.861
550.832
550.8
550.765
550.726
550.683
550.635
550.582
550.523
550.458
550.388
550.311
550.23
550.146
550.059
549.969
549.878
549.787
549.697
549.609
549.523
549.439
549.358
549.278
549.199
549.12
549.04
548.956
548.868
548.774
548.675
548.57
548.459
548.342
548.218
548.084
547.94
547.785
547.62
547.446
547.263
547.073
546.878
546.678
546.476
546.275
546.076
545.879
545.687
545.498
545.315
545.139
544.97
544.811
544.667
544.534
544.41
544.292
544.178
544.068
543.959
543.851
543.744
543.637
543.531
543.424
543.318
543.211
543.105
542.998
542.891
542.784
542.677
542.57
542.462
542.355
542.247
542.138
542.03
541.921
541.812
541.703
541.594
541.484
541.375
541.265
541.155
541.045
540.935
540.825
540.715
540.605
552.499
552.398
552.297
552.198
552.1
552.005
551.912
551.824
551.739
551.659
551.583
551.513
551.448
551.388
551.333
551.284
551.239
551.198
551.162
551.13
551.101
551.075
551.051
551.028
551.007
550.986
550.965
550.944
550.921
550.895
550.867
550.836
550.8
550.76
550.716
550.665
550.609
550.545
550.475
550.398
550.317
550.232
550.144
550.054
549.963
549.872
549.782
549.694
549.608
549.524
549.441
549.36
549.28
549.199
549.117
549.03
548.939
548.84
548.736
548.625
548.509
548.385
548.254
548.112
547.961
547.799
547.627
547.447
547.258
547.062
546.86
546.656
546.451
546.248
546.048
545.853
545.661
545.475
545.293
545.117
544.947
544.788
544.646
544.516
544.396
544.281
544.169
544.061
543.954
543.847
543.741
543.635
543.529
543.423
543.317
543.211
543.104
542.998
542.891
542.784
542.677
542.57
542.462
542.354
542.246
542.138
542.03
541.921
541.812
541.703
541.594
541.484
541.375
541.265
541.155
541.045
540.935
540.825
540.715
540.605
552.499
552.398
552.297
552.198
552.1
552.005
551.913
551.824
551.74
551.661
551.588
551.519
551.457
551.4
551.349
551.303
551.262
551.226
551.194
551.167
551.142
551.12
551.101
551.083
551.066
551.05
551.033
551.016
550.997
550.976
550.951
550.924
550.892
550.855
550.813
550.765
550.711
550.648
550.578
550.501
550.42
550.334
550.245
550.154
550.063
549.971
549.881
549.791
549.704
549.617
549.532
549.448
549.364
549.279
549.193
549.101
549.003
548.897
548.785
548.667
548.542
548.41
548.269
548.118
547.958
547.788
547.608
547.421
547.225
547.022
546.814
546.605
546.398
546.195
545.997
545.804
545.616
545.433
545.254
545.08
544.909
544.748
544.613
544.492
544.377
544.267
544.159
544.053
543.948
543.843
543.738
543.633
543.527
543.422
543.316
543.21
543.104
542.997
542.891
542.784
542.677
542.57
542.462
542.354
542.246
542.138
542.03
541.921
541.812
541.703
541.594
541.484
541.375
541.265
541.155
541.045
540.935
540.825
540.715
540.605
552.5
552.4
552.3
552.202
552.105
552.011
551.921
551.834
551.753
551.676
551.606
551.542
551.483
551.431
551.385
551.344
551.309
551.278
551.252
551.229
551.209
551.192
551.177
551.162
551.149
551.136
551.123
551.109
551.093
551.075
551.054
551.029
551
550.966
550.927
550.881
550.828
550.766
550.696
550.619
550.537
550.45
550.361
550.27
550.178
550.085
549.993
549.902
549.812
549.722
549.633
549.543
549.454
549.363
549.27
549.169
549.061
548.944
548.821
548.692
548.556
548.413
548.261
548.1
547.929
547.748
547.56
547.364
547.16
546.95
546.737
546.524
546.316
546.114
545.918
545.73
545.548
545.371
545.198
545.026
544.853
544.68
544.568
544.462
544.356
544.251
544.147
544.044
543.941
543.837
543.734
543.63
543.525
543.42
543.314
543.209
543.103
542.997
542.89
542.783
542.676
542.569
542.462
542.354
542.246
542.138
542.03
541.921
541.812
541.703
541.594
541.484
541.375
541.265
541.155
541.045
540.935
540.825
540.715
540.605
552.502
552.405
552.31
552.215
552.122
552.032
551.945
551.863
551.786
551.714
551.65
551.592
551.541
551.496
551.456
551.423
551.394
551.37
551.349
551.332
551.316
551.301
551.288
551.276
551.263
551.251
551.239
551.225
551.21
551.193
551.174
551.15
551.123
551.09
551.053
551.008
550.956
550.894
550.824
550.748
550.665
550.578
550.489
550.397
550.304
550.211
550.118
550.026
549.932
549.839
549.744
549.648
549.551
549.452
549.348
549.234
549.11
548.98
548.843
548.7
548.551
548.395
548.229
548.055
547.871
547.679
547.48
547.274
547.063
546.846
546.626
546.409
546.2
546.001
545.811
545.63
545.457
545.289
545.124
544.959
544.782
544.549
544.517
544.431
544.334
544.234
544.134
544.034
543.933
543.832
543.729
543.626
543.522
543.418
543.313
543.208
543.102
542.996
542.889
542.783
542.676
542.569
542.462
542.354
542.246
542.138
542.029
541.921
541.812
541.703
541.594
541.484
541.375
541.265
541.155
541.045
540.935
540.825
540.715
540.605
552.506
552.419
552.332
552.245
552.16
552.078
551.998
551.923
551.854
551.791
551.736
551.688
551.647
551.612
551.583
551.559
551.538
551.521
551.506
551.492
551.479
551.465
551.451
551.435
551.42
551.403
551.387
551.369
551.351
551.331
551.308
551.283
551.254
551.22
551.181
551.136
551.083
551.021
550.951
550.875
550.793
550.707
550.618
550.527
550.435
550.342
550.248
550.154
550.059
549.961
549.86
549.757
549.651
549.541
549.421
549.29
549.149
549.002
548.85
548.693
548.529
548.357
548.176
547.986
547.788
547.581
547.369
547.153
546.932
546.708
546.482
546.262
546.053
545.857
545.674
545.502
545.341
545.187
545.038
544.893
544.758
544.663
544.519
544.413
544.314
544.218
544.121
544.024
543.925
543.826
543.725
543.623
543.52
543.416
543.311
543.206
543.101
542.995
542.889
542.782
542.676
542.569
542.461
542.354
542.246
542.138
542.029
541.921
541.812
541.703
541.594
541.484
541.375
541.265
541.155
541.045
540.935
540.825
540.715
540.605
552.516
552.446
552.376
552.305
552.234
552.164
552.097
552.034
551.977
551.928
551.886
551.852
551.826
551.806
551.79
551.777
551.767
551.757
551.747
551.736
551.721
551.704
551.682
551.658
551.632
551.604
551.575
551.546
551.517
551.487
551.455
551.422
551.385
551.345
551.3
551.249
551.193
551.129
551.058
550.982
550.9
550.815
550.728
550.639
550.549
550.457
550.364
550.27
550.174
550.072
549.965
549.854
549.738
549.613
549.477
549.329
549.172
549.01
548.845
548.675
548.496
548.308
548.111
547.903
547.687
547.463
547.235
547.004
546.772
546.539
546.307
546.084
545.877
545.687
545.513
545.353
545.205
545.068
544.937
544.811
544.696
544.593
544.486
544.387
544.293
544.2
544.107
544.013
543.917
543.819
543.72
543.619
543.517
543.413
543.309
543.205
543.1
542.994
542.888
542.782
542.675
542.568
542.461
542.354
542.246
542.138
542.029
541.921
541.812
541.703
541.594
541.484
541.375
541.265
541.155
541.045
540.935
540.825
540.715
540.605
552.532
552.496
552.456
552.411
552.363
552.314
552.266
552.22
552.181
552.149
552.126
552.113
552.107
552.106
552.107
552.109
552.109
552.108
552.102
552.09
552.07
552.043
552.008
551.966
551.919
551.869
551.818
551.766
551.715
551.664
551.613
551.561
551.507
551.451
551.392
551.329
551.263
551.192
551.117
551.037
550.954
550.87
550.784
550.698
550.611
550.522
550.43
550.335
550.238
550.135
550.024
549.905
549.779
549.643
549.495
549.336
549.17
549.001
548.829
548.652
548.465
548.264
548.05
547.823
547.586
547.342
547.094
546.844
546.598
546.355
546.118
545.894
545.69
545.507
545.343
545.196
545.062
544.941
544.828
544.721
544.622
544.533
544.449
544.361
544.272
544.183
544.093
544.002
543.908
543.813
543.715
543.615
543.513
543.411
543.307
543.203
543.098
542.993
542.887
542.781
542.675
542.568
542.461
542.353
542.246
542.137
542.029
541.921
541.812
541.703
541.594
541.484
541.375
541.265
541.155
541.045
540.935
540.825
540.715
540.605
552.562
552.583
552.593
552.591
552.578
552.558
552.535
552.513
552.496
552.487
552.488
552.499
552.52
552.543
552.565
552.584
552.597
552.603
552.6
552.585
552.555
552.512
552.455
552.387
552.31
552.225
552.136
552.047
551.959
551.872
551.786
551.701
551.615
551.528
551.441
551.354
551.268
551.181
551.093
551.001
550.91
550.822
550.736
550.653
550.57
550.483
550.391
550.292
550.193
550.092
549.98
549.855
549.724
549.585
549.437
549.28
549.12
548.958
548.797
548.628
548.44
548.233
548.004
547.758
547.505
547.241
546.972
546.698
546.434
546.183
545.94
545.715
545.516
545.34
545.188
545.053
544.931
544.821
544.723
544.633
544.552
544.485
544.425
544.341
544.254
544.167
544.079
543.991
543.899
543.806
543.709
543.611
543.51
543.408
543.306
543.202
543.097
542.992
542.887
542.781
542.674
542.568
542.461
542.353
542.245
542.137
542.029
541.921
541.812
541.703
541.594
541.484
541.375
541.265
541.155
541.045
540.935
540.825
540.715
540.605
552.614
552.73
552.822
552.884
552.921
552.94
552.948
552.953
552.961
552.977
553.004
553.044
553.094
553.145
553.19
553.228
553.255
553.268
553.267
553.248
553.202
553.137
553.054
552.953
552.837
552.706
552.566
552.421
552.275
552.132
551.992
551.852
551.713
551.575
551.439
551.308
551.183
551.063
550.947
550.829
550.716
550.614
550.521
550.437
550.357
550.272
550.172
550.061
549.96
549.864
549.749
549.62
549.495
549.369
549.236
549.105
548.972
548.84
548.715
548.577
548.401
548.197
547.958
547.699
547.451
547.179
546.892
546.589
546.303
546.049
545.802
545.581
545.39
545.215
545.079
544.95
544.834
544.728
544.641
544.567
544.506
544.459
544.441
544.335
544.24
544.152
544.066
543.979
543.89
543.799
543.704
543.607
543.507
543.406
543.304
543.2
543.096
542.991
542.886
542.78
542.674
542.567
542.46
542.353
542.245
542.137
542.029
541.921
541.812
541.703
541.594
541.484
541.375
541.265
541.155
541.045
540.935
540.825
540.715
540.605
552.704
552.984
553.203
553.358
553.458
553.52
553.562
553.594
553.624
553.66
553.709
553.774
553.853
553.933
553.996
554.049
554.093
554.111
554.111
554.086
554.024
553.934
553.823
553.693
553.538
553.359
553.157
552.937
552.71
552.485
552.264
552.047
551.829
551.61
551.393
551.186
550.992
550.814
550.647
550.482
550.327
550.193
550.074
549.975
549.892
549.803
549.682
549.549
549.448
549.357
549.227
549.1
548.994
548.898
548.798
548.711
548.635
548.545
548.501
548.441
548.28
548.095
547.849
547.579
547.41
547.145
546.856
546.519
546.207
545.97
545.729
545.525
545.355
545.153
545.052
544.911
544.794
544.674
544.6
544.544
544.503
544.448
544.441
544.331
544.231
544.14
544.053
543.968
543.882
543.792
543.699
543.603
543.504
543.404
543.302
543.199
543.095
542.991
542.886
542.78
542.674
542.567
542.46
542.353
542.245
542.137
542.029
541.921
541.812
541.703
541.594
541.484
541.375
541.265
541.155
541.045
540.935
540.825
540.715
540.605
552.869
553.43
553.844
554.12
554.29
554.391
554.458
554.508
554.546
554.585
554.638
554.71
554.81
554.916
554.967
555.025
555.091
555.11
555.108
555.083
555.008
554.89
554.757
554.615
554.441
554.231
553.977
553.67
553.331
552.987
552.656
552.335
552.011
551.679
551.341
551.013
550.709
550.43
550.177
549.941
549.728
549.537
549.357
549.21
549.105
548.999
548.837
548.678
548.574
548.479
548.316
548.187
548.098
548.036
547.97
547.95
547.967
548.003
548.064
548.077
547.967
547.89
547.679
547.503
547.329
547.112
546.874
546.474
546.161
545.958
545.787
545.528
545.391
545.113
545.012
544.845
544.824
544.691
544.692
544.585
544.532
544.459
544.47
544.343
544.228
544.13
544.043
543.959
543.874
543.786
543.694
543.599
543.502
543.402
543.301
543.198
543.094
542.99
542.885
542.78
542.674
542.567
542.46
542.353
542.245
542.137
542.029
541.921
541.812
541.703
541.594
541.484
541.375
541.265
541.155
541.046
540.936
540.825
540.715
540.605
553.201
554.254
554.946
555.356
555.575
555.68
555.757
555.794
555.801
555.806
555.825
555.855
555.965
556.127
556.054
556.086
556.21
556.207
556.197
556.196
556.124
555.955
555.799
555.68
555.53
555.353
555.105
554.717
554.226
553.703
553.215
552.767
552.321
551.859
551.362
550.861
550.397
549.966
549.581
549.244
548.966
548.695
548.399
548.145
547.96
547.796
547.594
547.407
547.266
547.135
546.974
546.843
546.762
546.742
546.714
546.77
546.836
546.996
547.161
547.291
547.289
547.346
547.237
547.156
547.019
546.962
546.734
546.401
546.19
545.951
545.871
545.645
545.471
545.107
544.942
544.779
544.914
544.742
544.898
544.695
544.773
544.549
544.562
544.372
544.231
544.124
544.034
543.951
543.867
543.781
543.691
543.597
543.5
543.4
543.299
543.197
543.094
542.99
542.885
542.779
542.673
542.567
542.46
542.353
542.245
542.137
542.029
541.921
541.812
541.703
541.594
541.485
541.375
541.265
541.156
541.046
540.936
540.826
540.715
540.605
553.936
555.839
556.878
557.369
557.581
557.584
557.66
557.586
557.467
557.391
557.313
557.187
557.277
557.718
557.168
557.146
557.436
557.284
557.296
557.451
557.412
557.062
556.838
556.786
556.679
556.674
556.603
556.186
555.505
554.675
553.94
553.351
552.814
552.297
551.644
550.876
550.206
549.593
549.037
548.546
548.249
547.848
547.33
546.877
546.403
546.116
545.881
545.707
545.56
545.383
545.219
545.146
545.109
545.099
545.145
545.234
545.33
545.483
545.746
545.916
546.157
546.323
546.436
546.36
546.319
546.399
546.307
546.214
546.071
545.69
545.799
545.828
545.715
545.374
545.286
544.907
545.192
544.862
545.122
544.791
544.97
544.553
544.779
544.398
544.227
544.116
544.026
543.944
543.862
543.777
543.688
543.595
543.498
543.399
543.299
543.197
543.093
542.989
542.885
542.779
542.673
542.567
542.46
542.353
542.245
542.137
542.029
541.921
541.812
541.703
541.594
541.485