/*--------------------------------*- C++ -*----------------------------------*\
  =========                 |
  \\      /  F ield         | OpenFOAM: The Open Source CFD Toolbox
   \\    /   O peration     | Website:  https://openfoam.org
    \\  /    A nd           | Version:  6
     \\/     M anipulation  |
\*---------------------------------------------------------------------------*/
FoamFile
{
    version     2.0;
    format      ascii;
    class       volVectorField;
    location    "1100";
    object      U;
}
// * * * * * * * * * * * * * * * * * * * * * * * * * * * * * * * * * * * * * //

dimensions      [0 1 -1 0 0 0 0];

internalField   nonuniform List<vector> 
4800
(
(7.83691e-05 0 -3.7293e-05)
(-4.02363e-05 0 0.000139274)
(-0.000431472 0 -3.29437e-05)
(-0.000581614 0 5.79062e-05)
(-0.000706932 0 0.000212227)
(-0.000897173 0 5.12215e-05)
(-0.0010414 0 6.87792e-05)
(-0.00116711 0 5.58073e-05)
(-0.00125177 0 -1.72669e-05)
(-0.0013088 0 3.36001e-05)
(-0.0013488 0 -3.20931e-05)
(-0.00137229 0 -2.9322e-06)
(-0.0013806 0 -1.88392e-05)
(-0.00138061 0 -2.3152e-05)
(-0.00137919 0 -1.47092e-05)
(-0.00137879 0 -1.31145e-05)
(-0.00134858 0 -4.00315e-05)
(-0.00132009 0 -8.89142e-05)
(-0.00130678 0 -5.71199e-05)
(-0.00129236 0 -4.5095e-05)
(-0.00128033 0 -2.02568e-05)
(-0.00127615 0 -1.6804e-05)
(-0.00127808 0 -4.16566e-06)
(-0.00126249 0 -1.76165e-05)
(-0.00123239 0 -5.01465e-05)
(-0.00120687 0 -3.59483e-05)
(-0.00113696 0 -1.79202e-05)
(-0.0010171 0 -0.00015068)
(-0.000928641 0 -0.000141341)
(-0.000889737 0 -9.9256e-05)
(-0.00086482 0 1.1966e-05)
(-0.000735239 0 -2.94204e-05)
(-0.000538841 0 -0.000165538)
(-0.000368503 0 -0.000129776)
(-0.000246854 0 -0.000124289)
(-0.000199944 0 -2.98736e-05)
(-0.000107283 0 -4.415e-05)
(1.94593e-05 0 -4.76456e-05)
(0.000184466 0 -0.000170059)
(0.000233101 0 -6.8483e-05)
(0.000264858 0 1.95671e-06)
(0.000254793 0 2.48272e-05)
(0.000207607 0 2.4748e-05)
(0.000130301 0 6.10564e-05)
(4.05913e-05 0 5.50287e-05)
(-6.83132e-05 0 5.21261e-05)
(-0.000152591 0 2.47795e-05)
(-0.000228233 0 -3.9791e-05)
(-0.000337068 0 3.47298e-05)
(-0.000439146 0 0.00010471)
(-0.000560336 0 4.77983e-05)
(-0.000672794 0 4.37869e-05)
(-0.000775752 0 3.73219e-05)
(-0.000868345 0 -3.0253e-05)
(-0.000959821 0 -2.8513e-05)
(-0.00105679 0 -2.27693e-05)
(-0.00114406 0 -5.87003e-05)
(-0.00120423 0 -6.76501e-05)
(-0.00122508 0 -8.91711e-05)
(-0.0012123 0 -0.00012426)
(-0.00113344 0 -0.000190346)
(-0.00106866 0 -0.000173715)
(-0.00101338 0 -0.000118619)
(-0.000946821 0 -9.76939e-05)
(-0.000869486 0 -0.000112721)
(-0.000799316 0 -0.000117234)
(-0.000729027 0 -0.000123554)
(-0.000680825 0 -0.000129994)
(-0.000627141 0 -0.000141852)
(-0.000584577 0 -0.000158563)
(-0.00056769 0 -0.000173007)
(-0.000568135 0 -0.000168624)
(-0.000639711 0 -0.00011895)
(-0.000699157 0 -0.000140003)
(-0.000735653 0 -0.000175517)
(-0.000752433 0 -0.000193633)
(-0.000722671 0 -0.00027799)
(-0.000693062 0 -0.000274737)
(-0.000754819 0 -0.000348111)
(5.87297e-06 0 -0.000479806)
(-9.64391e-12 0 1.13854e-12)
(-1.47173e-12 0 1.71953e-13)
(-1.89972e-13 0 9.80334e-14)
(-2.38238e-13 0 4.78864e-14)
(-3.05361e-13 0 1.98829e-14)
(-3.26916e-13 0 2.724e-15)
(-3.19746e-13 0 -9.22504e-15)
(-2.91947e-13 0 -1.8288e-14)
(-2.48274e-13 0 -2.53588e-14)
(-1.92316e-13 0 -3.0774e-14)
(-1.27234e-13 0 -3.4673e-14)
(-5.59526e-14 0 -3.7144e-14)
(1.88141e-14 0 -3.82804e-14)
(9.45937e-14 0 -3.81985e-14)
(1.69181e-13 0 -3.70399e-14)
(2.40653e-13 0 -3.49648e-14)
(3.07375e-13 0 -3.2143e-14)
(3.68005e-13 0 -2.87437e-14)
(4.21497e-13 0 -2.49282e-14)
(4.67105e-13 0 -2.08442e-14)
(5.04361e-13 0 -1.66219e-14)
(5.33053e-13 0 -1.23709e-14)
(5.53196e-13 0 -8.17971e-15)
(5.64997e-13 0 -4.11772e-15)
(5.68809e-13 0 -2.39728e-16)
(5.65091e-13 0 3.41056e-15)
(5.54361e-13 0 6.79938e-15)
(5.37165e-13 0 9.90342e-15)
(5.14064e-13 0 1.27106e-14)
(4.85625e-13 0 1.52198e-14)
(4.52418e-13 0 1.74386e-14)
(4.15017e-13 0 1.93801e-14)
(3.73986e-13 0 2.10601e-14)
(3.29868e-13 0 2.24947e-14)
(2.83178e-13 0 2.36982e-14)
(2.34393e-13 0 2.46837e-14)
(1.83954e-13 0 2.54615e-14)
(1.32264e-13 0 2.604e-14)
(7.97013e-14 0 2.64253e-14)
(2.66238e-14 0 2.66204e-14)
(-0.000151049 0 0.000128455)
(-0.000292395 0 9.46271e-05)
(-0.000341004 0 0.000364117)
(-0.000576942 0 0.000205582)
(-0.000699015 0 0.000162442)
(-0.000832554 0 0.000243196)
(-0.000980337 0 0.000125546)
(-0.00106864 0 0.000181284)
(-0.00114709 0 0.000106417)
(-0.00120539 0 8.83372e-05)
(-0.00124913 0 3.81132e-05)
(-0.00127222 0 3.56517e-05)
(-0.00128021 0 2.32737e-05)
(-0.00127808 0 5.3108e-06)
(-0.00127794 0 -7.83761e-07)
(-0.0012866 0 -1.7907e-05)
(-0.00129051 0 -2.32694e-05)
(-0.0012888 0 4.98688e-06)
(-0.00126951 0 1.6581e-05)
(-0.0012241 0 -2.885e-05)
(-0.00119016 0 -4.57159e-06)
(-0.00117955 0 -3.65018e-06)
(-0.00118455 0 -1.4354e-05)
(-0.00118809 0 -3.0572e-05)
(-0.00115467 0 -8.89172e-05)
(-0.00113842 0 -9.51469e-05)
(-0.00113958 0 -9.13292e-05)
(-0.00105707 0 -0.000109748)
(-0.000922694 0 -0.000127588)
(-0.00083604 0 -0.000152025)
(-0.000777912 0 -0.000184585)
(-0.000715158 0 -0.000161094)
(-0.000588459 0 -0.00021425)
(-0.000399536 0 -0.000273391)
(-0.000271421 0 -0.000195292)
(-0.00025326 0 3.38142e-07)
(-1.22508e-05 0 -0.000268895)
(2.24712e-05 0 -0.000105028)
(0.000119161 0 -0.000175817)
(0.000203623 0 -0.000101323)
(0.000225956 0 3.34273e-06)
(0.000247844 0 6.44407e-05)
(0.000241223 0 8.13745e-05)
(0.000209299 0 0.000113471)
(0.000108405 0 0.000177397)
(2.41302e-05 0 0.00016728)
(-0.000116084 0 0.000170124)
(-0.000219848 0 0.000192681)
(-0.000295851 0 0.000196174)
(-0.000416643 0 0.000126925)
(-0.000484908 0 0.000182676)
(-0.000574947 0 0.000167945)
(-0.000659136 0 0.000151157)
(-0.000732701 0 0.000154303)
(-0.000787528 0 0.00016461)
(-0.000828462 0 0.000153639)
(-0.000858609 0 0.000134039)
(-0.000874488 0 0.000116986)
(-0.000869972 0 6.44832e-05)
(-0.000831403 0 -1.12657e-05)
(-0.000811652 0 -2.65512e-05)
(-0.000782421 0 -3.1842e-05)
(-0.000714896 0 -5.30592e-05)
(-0.000640602 0 -7.44528e-05)
(-0.000554958 0 -0.00011264)
(-0.000489513 0 -5.02596e-05)
(-0.000390182 0 -8.50106e-05)
(-0.000326741 0 -1.73773e-05)
(-0.000259941 0 1.84264e-05)
(-0.000226972 0 5.95248e-05)
(-0.000207975 0 0.000167332)
(-0.000303692 0 0.000234638)
(-0.000390718 0 0.000193644)
(-0.000438273 0 0.000167204)
(-0.000420063 0 0.000109661)
(-0.000376742 0 8.43679e-05)
(-0.000355619 0 8.13934e-05)
(-0.000350335 0 -0.00028317)
(-0.00078679 0 -0.000196795)
(8.78376e-06 0 -0.000599696)
(-1.4363e-11 0 5.72168e-12)
(-1.60058e-12 0 6.01875e-13)
(-3.229e-13 0 2.68455e-13)
(-3.16389e-13 0 1.22051e-13)
(-3.50523e-13 0 4.84478e-14)
(-3.56024e-13 0 2.6694e-15)
(-3.40758e-13 0 -3.07257e-14)
(-3.0808e-13 0 -5.70072e-14)
(-2.6076e-13 0 -7.7935e-14)
(-2.01631e-13 0 -9.40911e-14)
(-1.33604e-13 0 -1.05716e-13)
(-5.956e-14 0 -1.13012e-13)
(1.77595e-14 0 -1.16253e-13)
(9.58341e-14 0 -1.15808e-13)
(1.72415e-13 0 -1.12124e-13)
(2.4555e-13 0 -1.05704e-13)
(3.13596e-13 0 -9.70711e-14)
(3.75219e-13 0 -8.67373e-14)
(4.29397e-13 0 -7.51838e-14)
(4.75411e-13 0 -6.28449e-14)
(5.12834e-13 0 -5.00995e-14)
(5.41495e-13 0 -3.72681e-14)
(5.6145e-13 0 -2.46154e-14)
(5.72937e-13 0 -1.23578e-14)
(5.76337e-13 0 -6.70555e-16)
(5.7213e-13 0 1.03085e-14)
(5.60854e-13 0 2.0479e-14)
(5.43077e-13 0 2.97796e-14)
(5.19381e-13 0 3.81857e-14)
(4.90353e-13 0 4.57043e-14)
(4.56578e-13 0 5.2364e-14)
(4.18639e-13 0 5.82052e-14)
(3.77101e-13 0 6.32721e-14)
(3.32506e-13 0 6.7607e-14)
(2.85367e-13 0 7.12481e-14)
(2.36157e-13 0 7.42287e-14)
(1.8531e-13 0 7.65779e-14)
(1.33228e-13 0 7.83198e-14)
(8.02817e-14 0 7.94728e-14)
(2.68189e-14 0 8.00468e-14)
(-0.000122867 0 0.000324632)
(-0.000290923 0 0.000366786)
(-0.000312382 0 0.000456887)
(-0.000461648 0 0.000418693)
(-0.00063547 0 0.000318779)
(-0.000667359 0 0.000444327)
(-0.000817878 0 0.000293587)
(-0.000884429 0 0.00028103)
(-0.00098021 0 0.000126894)
(-0.00103242 0 7.88766e-05)
(-0.00106098 0 7.22879e-05)
(-0.00108308 0 2.38091e-05)
(-0.001105 0 3.07846e-05)
(-0.00111809 0 -2.93054e-05)
(-0.00114405 0 -5.53431e-06)
(-0.00116289 0 3.39777e-07)
(-0.00116625 0 -1.42932e-05)
(-0.00116657 0 -7.33418e-05)
(-0.00117354 0 -8.41734e-05)
(-0.00117749 0 -7.27126e-05)
(-0.00116517 0 -7.1907e-05)
(-0.00113435 0 -7.03242e-05)
(-0.00111298 0 -4.25588e-05)
(-0.00109246 0 -1.45204e-05)
(-0.00106396 0 -0.000104974)
(-0.00103499 0 -0.000170318)
(-0.00102878 0 -0.0001235)
(-0.000997511 0 -7.55167e-05)
(-0.000824197 0 -0.000409649)
(-0.000773549 0 -0.000232333)
(-0.000710062 0 -0.000212024)
(-0.000658352 0 -0.000238234)
(-0.000578364 0 -0.000288601)
(-0.000384736 0 -0.000391592)
(-0.000344631 0 -0.000225687)
(-0.000222445 0 -0.000250872)
(-3.8328e-05 0 -0.000361003)
(-6.80967e-06 0 -0.000286527)
(7.05042e-05 0 -0.000191135)
(0.000163985 0 -0.000165259)
(0.00017214 0 -5.62684e-05)
(0.000195861 0 -1.15256e-06)
(0.000225703 0 5.91469e-05)
(0.000182125 0 0.000182643)
(0.00015576 0 0.000204556)
(7.24249e-05 0 0.000240927)
(-3.34114e-05 0 0.000253169)
(-0.000149759 0 0.000276395)
(-0.000290653 0 0.000240788)
(-0.000354008 0 0.00023015)
(-0.000421792 0 0.000208044)
(-0.00047996 0 0.00018566)
(-0.00053808 0 0.000152163)
(-0.000557357 0 0.00016953)
(-0.000585065 0 0.000139814)
(-0.000596286 0 0.000112973)
(-0.000603606 0 6.98704e-05)
(-0.000609765 0 1.34035e-05)
(-0.000629097 0 -3.34428e-05)
(-0.000649515 0 -7.61618e-05)
(-0.000658293 0 -9.71841e-05)
(-0.000635844 0 -8.82095e-05)
(-0.000589422 0 -0.000157795)
(-0.00055848 0 -0.000142184)
(-0.000446595 0 -0.000234385)
(-0.000396998 0 -0.000154138)
(-0.000298329 0 -0.000165788)
(-0.00020424 0 -0.000131995)
(-7.04131e-05 0 -0.000145151)
(6.16452e-05 0 -8.65836e-05)
(0.000152678 0 -2.0951e-05)
(0.000187549 0 9.57812e-05)
(0.000293675 0 6.84783e-05)
(0.000372802 0 7.95979e-05)
(0.000357871 0 7.08492e-05)
(0.000298415 0 4.75663e-05)
(0.000214094 0 4.36835e-06)
(0.000272208 0 -3.69636e-05)
(-0.000415843 0 -0.000212559)
(8.63416e-06 0 -0.000617054)
(-1.48447e-11 0 4.25081e-12)
(-2.15843e-12 0 4.2899e-13)
(-6.97163e-13 0 2.36951e-13)
(-4.58245e-13 0 1.23829e-13)
(-4.24743e-13 0 4.88151e-14)
(-4.0609e-13 0 -1.01098e-14)
(-3.79422e-13 0 -5.95395e-14)
(-3.39156e-13 0 -1.01216e-13)
(-2.85358e-13 0 -1.35408e-13)
(-2.20097e-13 0 -1.62059e-13)
(-1.46155e-13 0 -1.81185e-13)
(-6.64905e-14 0 -1.93005e-13)
(1.60185e-14 0 -1.97962e-13)
(9.87235e-14 0 -1.96696e-13)
(1.79284e-13 0 -1.89995e-13)
(2.55705e-13 0 -1.78732e-13)
(3.26342e-13 0 -1.63803e-13)
(3.89892e-13 0 -1.46077e-13)
(4.4539e-13 0 -1.26364e-13)
(4.92189e-13 0 -1.0539e-13)
(5.29937e-13 0 -8.37862e-14)
(5.58537e-13 0 -6.20898e-14)
(5.78107e-13 0 -4.07476e-14)
(5.88942e-13 0 -2.01255e-14)
(5.91475e-13 0 -5.16462e-16)
(5.86241e-13 0 1.78567e-14)
(5.73832e-13 0 3.48401e-14)
(5.54872e-13 0 5.03471e-14)
(5.29989e-13 0 6.43518e-14)
(4.99803e-13 0 7.68755e-14)
(4.64919e-13 0 8.7971e-14)
(4.25925e-13 0 9.77062e-14)
(3.83388e-13 0 1.06152e-13)
(3.37844e-13 0 1.13377e-13)
(2.898e-13 0 1.19442e-13)
(2.39723e-13 0 1.24401e-13)
(1.88045e-13 0 1.28302e-13)
(1.35159e-13 0 1.31186e-13)
(8.14282e-14 0 1.33087e-13)
(2.71977e-14 0 1.34024e-13)
(-0.000156301 0 0.000510288)
(-0.000366835 0 0.00049783)
(-0.00042587 0 0.000475741)
(-0.000491301 0 0.000431456)
(-0.000558151 0 0.000418304)
(-0.000689049 0 0.000281323)
(-0.000740717 0 0.000259848)
(-0.000806985 0 0.000174042)
(-0.000833004 0 0.000176651)
(-0.00084553 0 0.000165091)
(-0.000851713 0 0.000153633)
(-0.000918923 0 4.24213e-05)
(-0.000943079 0 7.90114e-05)
(-0.000958993 0 1.13088e-05)
(-0.000983768 0 -1.23274e-05)
(-0.00100804 0 2.74768e-05)
(-0.0010179 0 -3.09314e-05)
(-0.00104126 0 -1.91154e-05)
(-0.00105281 0 -1.15862e-05)
(-0.00105322 0 -1.94443e-05)
(-0.00105168 0 -1.65214e-05)
(-0.00104961 0 -8.82552e-06)
(-0.00101174 0 -1.2037e-05)
(-0.000979753 0 -3.69325e-05)
(-0.0009666 0 -7.35233e-05)
(-0.000945264 0 -0.000141866)
(-0.00091063 0 -0.000210008)
(-0.000878904 0 -0.000264007)
(-0.000832752 0 -0.000262275)
(-0.000724231 0 -0.000298758)
(-0.000649689 0 -0.000288492)
(-0.000603406 0 -0.000317185)
(-0.000517268 0 -0.000425175)
(-0.000363177 0 -0.000492602)
(-0.000372562 0 -0.000345506)
(-0.000200422 0 -0.000414405)
(-0.000138438 0 -0.000394763)
(-9.52601e-07 0 -0.000371849)
(3.13361e-05 0 -0.000285212)
(0.000108135 0 -0.000173514)
(0.000137723 0 -0.000117272)
(0.000149578 0 3.35687e-05)
(0.000161001 0 9.51405e-05)
(0.000162102 0 0.000189229)
(0.000155619 0 0.000247023)
(0.000130193 0 0.000308807)
(8.37187e-06 0 0.000337453)
(-0.000101163 0 0.000340457)
(-0.000151954 0 0.000353638)
(-0.000233352 0 0.000329434)
(-0.000340021 0 0.000274887)
(-0.000396617 0 0.000251515)
(-0.000383692 0 0.000304722)
(-0.000474108 0 0.000192918)
(-0.000492706 0 0.00017848)
(-0.000515505 0 0.000155282)
(-0.000532566 0 0.000126264)
(-0.000545903 0 8.87081e-05)
(-0.000562775 0 1.85393e-05)
(-0.000598603 0 -4.93369e-05)
(-0.000611976 0 -6.89553e-05)
(-0.000541421 0 -0.000267514)
(-0.000502539 0 -0.000249166)
(-0.000528687 0 -0.000132043)
(-0.000389866 0 -0.00030406)
(-0.000312246 0 -0.000265366)
(-0.000190951 0 -0.000307693)
(9.22123e-07 0 -0.000315825)
(0.000101346 0 -0.000277898)
(0.000210808 0 -0.000230461)
(0.00032994 0 -0.000137161)
(0.000404146 0 1.04605e-05)
(0.000487733 0 -6.99905e-05)
(0.000512371 0 7.57646e-05)
(0.000488047 0 9.08704e-05)
(0.000437306 0 8.81209e-05)
(0.000369536 0 9.60694e-05)
(0.000361182 0 -6.09766e-05)
(-0.000207071 0 -0.000115766)
(8.28153e-06 0 -0.00050544)
(-1.61548e-11 0 -4.5058e-12)
(-2.09426e-12 0 -1.36617e-13)
(-6.77032e-13 0 9.16802e-14)
(-5.04524e-13 0 8.7205e-14)
(-4.84462e-13 0 3.30114e-14)
(-4.64378e-13 0 -3.2483e-14)
(-4.31864e-13 0 -9.61677e-14)
(-3.83949e-13 0 -1.52875e-13)
(-3.21602e-13 0 -2.00275e-13)
(-2.47407e-13 0 -2.3731e-13)
(-1.64551e-13 0 -2.6367e-13)
(-7.63373e-14 0 -2.79579e-13)
(1.40689e-14 0 -2.85674e-13)
(1.03801e-13 0 -2.82897e-13)
(1.90379e-13 0 -2.72407e-13)
(2.71742e-13 0 -2.55479e-13)
(3.46251e-13 0 -2.33414e-13)
(4.12658e-13 0 -2.07472e-13)
(4.70084e-13 0 -1.78823e-13)
(5.17989e-13 0 -1.48513e-13)
(5.56134e-13 0 -1.17453e-13)
(5.84534e-13 0 -8.64115e-14)
(6.03414e-13 0 -5.60187e-14)
(6.13168e-13 0 -2.67778e-14)
(6.1432e-13 0 9.24136e-16)
(6.07487e-13 0 2.68041e-14)
(5.93344e-13 0 5.06743e-14)
(5.72588e-13 0 7.24336e-14)
(5.45909e-13 0 9.20566e-14)
(5.13972e-13 0 1.09578e-13)
(4.77409e-13 0 1.25074e-13)
(4.3682e-13 0 1.38642e-13)
(3.92772e-13 0 1.50387e-13)
(3.45796e-13 0 1.6041e-13)
(2.96391e-13 0 1.68805e-13)
(2.45017e-13 0 1.75656e-13)
(1.92095e-13 0 1.81037e-13)
(1.38013e-13 0 1.85009e-13)
(8.31188e-14 0 1.87621e-13)
(2.77555e-14 0 1.88907e-13)
(-2.48911e-06 0 0.00070766)
(-0.000149946 0 0.00068474)
(-0.000256447 0 0.000625643)
(-0.000324767 0 0.000569499)
(-0.000390261 0 0.000553705)
(-0.000347528 0 0.000598668)
(-0.000367109 0 0.000609703)
(-0.000421141 0 0.000575445)
(-0.000545249 0 0.000423051)
(-0.000602028 0 0.000306269)
(-0.000735097 0 6.65469e-05)
(-0.000756771 0 0.000103574)
(-0.000764869 0 9.93694e-05)
(-0.000770188 0 6.26092e-05)
(-0.000816024 0 -8.2775e-06)
(-0.000846047 0 8.6478e-05)
(-0.000872276 0 -4.67244e-05)
(-0.000896177 0 6.97182e-07)
(-0.000902191 0 -5.57001e-05)
(-0.000905387 0 -6.90661e-05)
(-0.000902227 0 -0.00010813)
(-0.000902325 0 -0.000105379)
(-0.000888927 0 -0.000101514)
(-0.000876485 0 -0.000111206)
(-0.000856391 0 -0.000162837)
(-0.000831182 0 -0.000191813)
(-0.000818927 0 -0.000198156)
(-0.000797929 0 -0.000266481)
(-0.000738572 0 -0.000386994)
(-0.000654356 0 -0.000404509)
(-0.000598559 0 -0.000395804)
(-0.000564496 0 -0.000418071)
(-0.00046756 0 -0.000520656)
(-0.00042832 0 -0.000498134)
(-0.000284728 0 -0.000528064)
(-0.000312378 0 -0.000472419)
(-0.000179537 0 -0.000503047)
(-9.00813e-05 0 -0.00043809)
(2.39569e-05 0 -0.000334327)
(-2.42242e-05 0 -0.000230977)
(9.83342e-05 0 -0.000139506)
(0.000104384 0 1.11574e-05)
(0.000114874 0 0.00011201)
(0.000127188 0 0.00021572)
(0.000103519 0 0.000316697)
(9.62073e-05 0 0.000405443)
(5.31046e-05 0 0.000426502)
(-5.18103e-05 0 0.00041647)
(-8.8749e-05 0 0.000406047)
(-0.000170915 0 0.000379996)
(-0.000225646 0 0.000365228)
(-0.000304447 0 0.000322774)
(-0.000389998 0 0.000258408)
(-0.000395229 0 0.000270304)
(-0.000431744 0 0.000219436)
(-0.000455554 0 0.000172301)
(-0.000480422 0 0.000122407)
(-0.000493292 0 8.34914e-05)
(-0.000505457 0 -3.31482e-05)
(-0.000511102 0 -1.83047e-05)
(-0.000527117 0 -7.9666e-05)
(-0.000521357 0 -0.000140821)
(-0.000452767 0 -0.000281978)
(-0.00044911 0 -0.000282417)
(-0.000354158 0 -0.000389745)
(-0.000218221 0 -0.000450615)
(-0.000217621 0 -0.000426473)
(-8.96341e-05 0 -0.000438492)
(6.83884e-05 0 -0.000382165)
(0.00013856 0 -0.000357659)
(0.000320615 0 -0.000194204)
(0.000411466 0 -9.57756e-05)
(0.000489993 0 -0.000120529)
(0.000553617 0 0.000101899)
(0.000546237 0 0.00013379)
(0.000501672 0 0.000150762)
(0.000394986 0 0.000151104)
(0.000387216 0 5.38632e-05)
(-0.000239755 0 1.47834e-05)
(8.09694e-06 0 -0.000422382)
(-2.08854e-11 0 -6.58442e-12)
(-1.95048e-12 0 -9.81826e-14)
(-5.52295e-13 0 1.209e-13)
(-5.16914e-13 0 9.99942e-14)
(-5.44431e-13 0 2.83529e-14)
(-5.35269e-13 0 -5.67778e-14)
(-4.99814e-13 0 -1.39831e-13)
(-4.43263e-13 0 -2.13809e-13)
(-3.69793e-13 0 -2.75382e-13)
(-2.83492e-13 0 -3.23043e-13)
(-1.88424e-13 0 -3.56385e-13)
(-8.8494e-14 0 -3.75766e-13)
(1.2701e-14 0 -3.82108e-13)
(1.1199e-13 0 -3.76741e-13)
(2.06702e-13 0 -3.61264e-13)
(2.94699e-13 0 -3.37419e-13)
(3.74348e-13 0 -3.06975e-13)
(4.44483e-13 0 -2.71635e-13)
(5.04349e-13 0 -2.32971e-13)
(5.53559e-13 0 -1.92382e-13)
(5.92039e-13 0 -1.51072e-13)
(6.19971e-13 0 -1.10043e-13)
(6.3774e-13 0 -7.00997e-14)
(6.45884e-13 0 -3.1868e-14)
(6.45057e-13 0 4.18878e-15)
(6.35991e-13 0 3.77469e-14)
(6.19461e-13 0 6.86024e-14)
(5.96254e-13 0 9.66543e-14)
(5.67134e-13 0 1.21889e-13)
(5.3282e-13 0 1.44363e-13)
(4.93983e-13 0 1.64184e-13)
(4.51238e-13 0 1.81486e-13)
(4.05156e-13 0 1.96417e-13)
(3.56263e-13 0 2.09122e-13)
(3.05046e-13 0 2.19735e-13)
(2.51955e-13 0 2.28377e-13)
(1.97397e-13 0 2.35152e-13)
(1.41743e-13 0 2.40147e-13)
(8.53266e-14 0 2.43429e-13)
(2.84836e-14 0 2.45043e-13)
(-5.57344e-05 0 0.000778175)
(-4.7413e-05 0 0.000775673)
(-0.000161164 0 0.000697462)
(-0.000288183 0 0.000607039)
(-0.000321087 0 0.000598799)
(-0.00056188 0 0.000378646)
(-0.00053293 0 0.000348313)
(-0.000589699 0 0.000254091)
(-0.000624349 0 0.000120203)
(-0.000569053 0 0.000192715)
(-0.000571347 0 0.000203033)
(-0.000588458 0 0.000172905)
(-0.000609773 0 0.000117625)
(-0.000644593 0 3.93441e-05)
(-0.000650434 0 7.53742e-05)
(-0.000654079 0 7.21373e-05)
(-0.000669312 0 5.41543e-05)
(-0.000710988 0 2.78735e-05)
(-0.000733637 0 -3.01142e-05)
(-0.000757398 0 -2.47046e-05)
(-0.000767403 0 -4.7102e-05)
(-0.000769324 0 -4.62376e-05)
(-0.00075886 0 -5.58708e-05)
(-0.000754392 0 -6.71382e-05)
(-0.000749585 0 -0.000118783)
(-0.000739098 0 -0.000200868)
(-0.000720067 0 -0.000266102)
(-0.000671783 0 -0.000377238)
(-0.000685027 0 -0.000363567)
(-0.000645524 0 -0.00039334)
(-0.000568918 0 -0.000446451)
(-0.000527056 0 -0.000477396)
(-0.000497553 0 -0.000507777)
(-0.000428206 0 -0.000539849)
(-0.00032669 0 -0.000583915)
(-0.000326163 0 -0.000569049)
(-0.000124482 0 -0.000605814)
(-0.000195751 0 -0.000480878)
(-0.000124763 0 -0.000402712)
(8.42207e-05 0 -0.000294655)
(2.38981e-05 0 -0.000143798)
(9.69592e-05 0 -4.20178e-05)
(0.000101431 0 8.79293e-05)
(0.000101751 0 0.00019323)
(0.000112321 0 0.000314438)
(9.75097e-05 0 0.000445013)
(7.14848e-05 0 0.000499185)
(4.30335e-05 0 0.000484878)
(-6.41978e-05 0 0.000463234)
(-0.000117282 0 0.000434811)
(-0.000187902 0 0.000404447)
(-0.000232946 0 0.000383309)
(-0.000308019 0 0.000326957)
(-0.00036221 0 0.000274466)
(-0.000379889 0 0.000231652)
(-0.000383313 0 0.000190279)
(-0.0004005 0 0.000151965)
(-0.000431838 0 0.000101804)
(-0.000446013 0 6.60789e-05)
(-0.000459294 0 -6.78115e-05)
(-0.000467857 0 -0.000108449)
(-0.000437724 0 -0.000204364)
(-0.000390276 0 -0.000308635)
(-0.000424516 0 -0.000313305)
(-0.000333783 0 -0.000428563)
(-0.000325144 0 -0.000459244)
(-0.000243925 0 -0.000520826)
(-0.000210196 0 -0.000547506)
(-4.46455e-05 0 -0.00056388)
(2.49372e-05 0 -0.000528971)
(0.000255939 0 -0.00036251)
(0.000394525 0 -0.00018828)
(0.000445815 0 -0.0001625)
(0.000536001 0 1.18102e-05)
(0.000514261 0 0.00021862)
(0.000495416 0 0.000225885)
(0.000391268 0 0.000247168)
(0.00038067 0 0.000183313)
(-0.00021374 0 0.000166719)
(7.95799e-06 0 -0.000345254)
(-3.10202e-11 0 -5.91231e-12)
(-1.97436e-12 0 3.02724e-13)
(-6.07579e-13 0 2.93937e-13)
(-5.97071e-13 0 1.63305e-13)
(-6.41234e-13 0 3.70164e-14)
(-6.32562e-13 0 -8.32743e-14)
(-5.88895e-13 0 -1.92641e-13)
(-5.19501e-13 0 -2.87149e-13)
(-4.30836e-13 0 -3.6432e-13)
(-3.2841e-13 0 -4.22951e-13)
(-2.17273e-13 0 -4.62884e-13)
(-1.0206e-13 0 -4.84814e-13)
(1.30939e-14 0 -4.90104e-13)
(1.24646e-13 0 -4.80597e-13)
(2.29701e-13 0 -4.5845e-13)
(3.26031e-13 0 -4.25971e-13)
(4.12035e-13 0 -3.85478e-13)
(4.86662e-13 0 -3.3918e-13)
(5.49337e-13 0 -2.89098e-13)
(5.99888e-13 0 -2.37011e-13)
(6.38473e-13 0 -1.84428e-13)
(6.65506e-13 0 -1.32583e-13)
(6.81589e-13 0 -8.2445e-14)
(6.87456e-13 0 -3.47469e-14)
(6.83934e-13 0 9.99119e-15)
(6.719e-13 0 5.14265e-14)
(6.52252e-13 0 8.93625e-14)
(6.25875e-13 0 1.23721e-13)
(5.93618e-13 0 1.5452e-13)
(5.56266e-13 0 1.81854e-13)
(5.14532e-13 0 2.05875e-13)
(4.69054e-13 0 2.26767e-13)
(4.20408e-13 0 2.44731e-13)
(3.69114e-13 0 2.59963e-13)
(3.15646e-13 0 2.72649e-13)
(2.60433e-13 0 2.82952e-13)
(2.03865e-13 0 2.91014e-13)
(1.4629e-13 0 2.96949e-13)
(8.80157e-14 0 3.00845e-13)
(2.93704e-14 0 3.02762e-13)
(-8.13648e-05 0 0.000791559)
(-0.000123326 0 0.000822521)
(-0.000155596 0 0.000763454)
(-0.000165914 0 0.000705311)
(-0.000335951 0 0.000628576)
(-0.000228813 0 0.000618244)
(-0.000285487 0 0.000535954)
(-0.000270161 0 0.000519566)
(-0.000224297 0 0.000559354)
(-0.000304986 0 0.000431852)
(-0.000419685 0 0.000257783)
(-0.000493536 0 0.000111851)
(-0.000521054 0 7.514e-05)
(-0.000528599 0 8.91076e-05)
(-0.000524829 0 8.37581e-05)
(-0.000527117 0 6.60157e-05)
(-0.000553277 0 3.00327e-05)
(-0.000565839 0 4.03606e-05)
(-0.000569843 0 1.55582e-05)
(-0.000574871 0 -3.04966e-05)
(-0.000592298 0 -4.32231e-05)
(-0.000601048 0 -7.89317e-05)
(-0.000604058 0 -0.00010416)
(-0.000605227 0 -0.000125849)
(-0.000606409 0 -0.00017101)
(-0.000621365 0 -0.000197664)
(-0.000620677 0 -0.000257811)
(-0.000599211 0 -0.000362505)
(-0.000591851 0 -0.000406158)
(-0.000582812 0 -0.00042314)
(-0.000521284 0 -0.000491)
(-0.000487965 0 -0.000517864)
(-0.00041721 0 -0.000579592)
(-0.000379733 0 -0.000599757)
(-0.000378241 0 -0.000603117)
(-0.000230866 0 -0.00066823)
(-0.000273613 0 -0.000618826)
(-0.000190827 0 -0.000575948)
(-4.66789e-05 0 -0.000495015)
(-0.000150059 0 -0.000328036)
(4.22277e-05 0 -0.000226799)
(4.19851e-05 0 -7.99382e-05)
(8.12755e-05 0 8.49772e-05)
(9.69967e-05 0 0.000175802)
(0.000118934 0 0.000310483)
(0.000100067 0 0.000443096)
(0.0001192 0 0.000531387)
(-3.14534e-06 0 0.000555565)
(-1.7826e-05 0 0.000521708)
(-0.000134695 0 0.000483918)
(-0.000154903 0 0.000458713)
(-0.000222807 0 0.000418397)
(-0.000240822 0 0.00038796)
(-0.000305002 0 0.000314823)
(-0.000331408 0 0.00024437)
(-0.00034052 0 0.000161412)
(-0.000323318 0 0.000156263)
(-0.000330877 0 0.000129786)
(-0.000370868 0 4.12468e-05)
(-0.000408057 0 5.42354e-06)
(-0.000413746 0 -4.36176e-05)
(-0.000304625 0 -0.000318119)
(-0.000391247 0 -0.000255197)
(-0.000370061 0 -0.000350695)
(-0.000305334 0 -0.000463725)
(-0.000287794 0 -0.00053053)
(-0.000233577 0 -0.000599334)
(-0.000160676 0 -0.000642414)
(-5.7666e-05 0 -0.000664363)
(2.22986e-05 0 -0.000632471)
(0.000153248 0 -0.000529993)
(0.000273244 0 -0.000331296)
(0.000382761 0 -0.00022189)
(0.000461052 0 -5.20928e-05)
(0.000476241 0 0.000148584)
(0.000431248 0 0.000292423)
(0.00044186 0 0.000220162)
(0.000385979 0 0.000295186)
(-0.000363247 0 0.000267383)
(7.48393e-06 0 -0.000322018)
(-5.47481e-11 0 -1.2786e-10)
(-2.12695e-12 0 1.7565e-13)
(-9.14148e-13 0 4.38941e-13)
(-7.73834e-13 0 2.22157e-13)
(-7.9101e-13 0 3.95741e-14)
(-7.64926e-13 0 -1.20793e-13)
(-7.03689e-13 0 -2.60395e-13)
(-6.14943e-13 0 -3.77872e-13)
(-5.05595e-13 0 -4.71788e-13)
(-3.82055e-13 0 -5.41482e-13)
(-2.50287e-13 0 -5.87266e-13)
(-1.15714e-13 0 -6.10364e-13)
(1.6918e-14 0 -6.1276e-13)
(1.43644e-13 0 -5.96985e-13)
(2.61328e-13 0 -5.65906e-13)
(3.67671e-13 0 -5.22528e-13)
(4.6114e-13 0 -4.6982e-13)
(5.40863e-13 0 -4.10572e-13)
(6.06518e-13 0 -3.47304e-13)
(6.58228e-13 0 -2.82201e-13)
(6.96467e-13 0 -2.17086e-13)
(7.21955e-13 0 -1.53418e-13)
(7.35576e-13 0 -9.23184e-14)
(7.38321e-13 0 -3.46016e-14)
(7.31231e-13 0 1.91798e-14)
(7.15362e-13 0 6.86923e-14)
(6.91756e-13 0 1.13777e-13)
(6.61412e-13 0 1.54408e-13)
(6.25267e-13 0 1.90665e-13)
(5.84175e-13 0 2.22704e-13)
(5.38896e-13 0 2.5074e-13)
(4.90094e-13 0 2.75022e-13)
(4.38352e-13 0 2.95814e-13)
(3.84181e-13 0 3.13377e-13)
(3.28035e-13 0 3.27953e-13)
(2.7032e-13 0 3.39756e-13)
(2.11394e-13 0 3.4897e-13)
(1.51574e-13 0 3.55742e-13)
(9.11401e-14 0 3.60183e-13)
(3.04009e-14 0 3.62369e-13)
(-6.39372e-05 0 0.000823851)
(3.57739e-05 0 0.000893188)
(-0.000136328 0 0.000841858)
(-0.00027162 0 0.000736746)
(-0.000167908 0 0.00070601)
(-0.000205353 0 0.000610929)
(-0.000254322 0 0.000513008)
(-0.000323433 0 0.000421054)
(-0.000498998 0 0.000246343)
(-0.000437042 0 0.00020071)
(-0.000357001 0 0.000261689)
(-0.000377449 0 0.000211242)
(-0.000386906 0 0.000186926)
(-0.000423429 0 0.000106209)
(-0.000455789 0 3.79432e-05)
(-0.000463617 0 5.9169e-05)
(-0.00047384 0 7.39974e-05)
(-0.000482709 0 4.79961e-05)
(-0.000477109 0 -4.31292e-06)
(-0.00046962 0 -2.51579e-05)
(-0.000474365 0 -3.08074e-05)
(-0.00048158 0 -5.10686e-05)
(-0.000484666 0 -6.20019e-05)
(-0.000484728 0 -6.94408e-05)
(-0.000488047 0 -0.000114903)
(-0.000494429 0 -0.000171139)
(-0.000495674 0 -0.000271886)
(-0.000505922 0 -0.00034889)
(-0.00048577 0 -0.000433736)
(-0.000445756 0 -0.000512686)
(-0.000409421 0 -0.000561534)
(-0.000390983 0 -0.000589453)
(-0.000388466 0 -0.000604704)
(-0.000329906 0 -0.000649177)
(-0.000290466 0 -0.000673417)
(-0.000307636 0 -0.000666928)
(-0.000199014 0 -0.000697653)
(-0.0001767 0 -0.000643782)
(-0.000159893 0 -0.000533084)
(-3.95156e-05 0 -0.00042722)
(-1.02821e-05 0 -0.00028524)
(6.35283e-05 0 -0.000147774)
(7.45355e-05 0 3.61861e-05)
(9.27529e-05 0 0.000149289)
(0.000115533 0 0.000295154)
(0.000112362 0 0.000438819)
(9.93618e-05 0 0.00056765)
(0.000113421 0 0.000602707)
(-3.11308e-05 0 0.000583705)
(-6.14834e-05 0 0.000553181)
(-0.00013427 0 0.000514558)
(-0.00020782 0 0.000462559)
(-0.000241439 0 0.000403242)
(-0.000273146 0 0.000328485)
(-0.000264001 0 0.000272522)
(-0.000291808 0 0.000183135)
(-0.000280315 0 0.000152344)
(-0.000277518 0 0.000134204)
(-0.000306048 0 8.13129e-05)
(-0.000325884 0 2.88767e-05)
(-0.000305359 0 -0.000117804)
(-0.000244987 0 -0.000270992)
(-0.00036547 0 -0.000239328)
(-0.000244573 0 -0.000415078)
(-0.000296762 0 -0.000463999)
(-0.000242739 0 -0.000566352)
(-0.000201428 0 -0.000653924)
(-0.000164514 0 -0.000708855)
(-0.000119712 0 -0.00075065)
(-3.80393e-05 0 -0.000763177)
(4.7862e-05 0 -0.000657962)
(0.00011642 0 -0.00050722)
(0.000301097 0 -0.000371736)
(0.000415984 0 2.14852e-05)
(0.00039511 0 0.000184188)
(0.000433248 0 0.000233339)
(0.000328722 0 0.00039645)
(0.00041244 0 0.000342619)
(-2.44162e-05 0 0.000450708)
(1.08876e-05 0 -0.000141653)
(-1.08535e-12 0 -2.49278e-12)
(-1.82667e-12 0 6.05552e-13)
(-9.67374e-13 0 5.06511e-13)
(-9.96413e-13 0 2.46802e-13)
(-9.84185e-13 0 1.99085e-14)
(-9.32531e-13 0 -1.79107e-13)
(-8.45974e-13 0 -3.50333e-13)
(-7.30893e-13 0 -4.92236e-13)
(-5.94447e-13 0 -6.03535e-13)
(-4.43888e-13 0 -6.83933e-13)
(-2.86155e-13 0 -7.3429e-13)
(-1.27555e-13 0 -7.56539e-13)
(2.64723e-14 0 -7.53498e-13)
(1.715e-13 0 -7.28595e-13)
(3.04158e-13 0 -6.85607e-13)
(4.22118e-13 0 -6.28401e-13)
(5.23992e-13 0 -5.60726e-13)
(6.09178e-13 0 -4.86042e-13)
(6.77708e-13 0 -4.07419e-13)
(7.30105e-13 0 -3.27473e-13)
(7.67255e-13 0 -2.48341e-13)
(7.90273e-13 0 -1.71693e-13)
(8.00405e-13 0 -9.87712e-14)
(7.98954e-13 0 -3.04419e-14)
(7.87228e-13 0 3.27466e-14)
(7.66497e-13 0 9.05072e-14)
(7.37968e-13 0 1.42756e-13)
(7.02764e-13 0 1.89559e-13)
(6.61914e-13 0 2.31091e-13)
(6.16341e-13 0 2.676e-13)
(5.66849e-13 0 2.9939e-13)
(5.14128e-13 0 3.26792e-13)
(4.58763e-13 0 3.50148e-13)
(4.01253e-13 0 3.69792e-13)
(3.42025e-13 0 3.86031e-13)
(2.81451e-13 0 3.99136e-13)
(2.19851e-13 0 4.09338e-13)
(1.57502e-13 0 4.16821e-13)
(9.46425e-14 0 4.21722e-13)
(3.15561e-14 0 4.24135e-13)
(-4.72692e-05 0 0.00089112)
(-0.000233413 0 0.000921243)
(-6.70717e-05 0 0.000921489)
(-0.000131621 0 0.000798065)
(-0.00014911 0 0.00069824)
(-0.000174666 0 0.000621976)
(-0.000205487 0 0.000547316)
(-0.000234381 0 0.000504963)
(-0.000140079 0 0.00053134)
(-0.000181379 0 0.00042052)
(-0.000305582 0 0.000266061)
(-0.000292107 0 0.000231434)
(-0.000362006 0 0.000113137)
(-0.000374274 0 9.08475e-05)
(-0.00037639 0 0.000118609)
(-0.000395485 0 9.83786e-05)
(-0.000408007 0 6.86766e-05)
(-0.000413606 0 4.29771e-05)
(-0.000417619 0 -1.2979e-06)
(-0.000418387 0 -3.82519e-05)
(-0.000419352 0 -4.20614e-05)
(-0.000418671 0 -5.32007e-05)
(-0.000408039 0 -8.2541e-05)
(-0.00038418 0 -0.000122334)
(-0.000374658 0 -0.000132673)
(-0.000368024 0 -0.000176369)
(-0.000387541 0 -0.000264308)
(-0.000424027 0 -0.000327987)
(-0.000418363 0 -0.000415525)
(-0.000430777 0 -0.000464915)
(-0.000411448 0 -0.000528076)
(-0.000377941 0 -0.00058859)
(-0.00036663 0 -0.000623742)
(-0.000309479 0 -0.000670594)
(-0.000263752 0 -0.00069907)
(-0.000237305 0 -0.000717392)
(-0.000235336 0 -0.000712045)
(-0.000177856 0 -0.000678161)
(-0.000200892 0 -0.000567672)
(-0.000105856 0 -0.000463663)
(-0.000140026 0 -0.000296521)
(-5.66518e-05 0 -0.000160042)
(1.34546e-05 0 1.91985e-05)
(5.31385e-05 0 0.000138342)
(7.75428e-05 0 0.000284232)
(0.000106468 0 0.00044872)
(8.35297e-05 0 0.000586991)
(0.00010557 0 0.000671137)
(4.49044e-05 0 0.000651474)
(-7.6179e-05 0 0.000614627)
(-0.00011627 0 0.000570259)
(-0.000148363 0 0.000511734)
(-0.000183788 0 0.000442773)
(-0.000191985 0 0.000364358)
(-0.000202704 0 0.000279493)
(-0.000185875 0 0.000227527)