0.010101 	9.82728e-11 	-5.07289e-15 	1.55972e-12
0.020202 	3.251e-12 	-9.21184e-16 	6.32519e-14
