0 	3.62956e-21 	0 	-4.35547e-20
0.010101 	1.62617e-20 	1.35346e-22 	-3.5633e-20
0.020202 	-2.5135e-21 	6.8099e-23 	-1.21153e-19
0.030303 	-7.30051e-20 	3.41347e-23 	-1.10238e-20
0.040404 	6.68047e-20 	3.04487e-22 	-3.20464e-20
0.0505051 	-5.91094e-20 	1.01212e-22 	-2.94282e-20
