/*--------------------------------*- C++ -*----------------------------------*\
  =========                 |
  \\      /  F ield         | OpenFOAM: The Open Source CFD Toolbox
   \\    /   O peration     | Website:  https://openfoam.org
    \\  /    A nd           | Version:  6
     \\/     M anipulation  |
\*---------------------------------------------------------------------------*/
FoamFile
{
    version     2.0;
    format      ascii;
    class       volScalarField;
    location    "500";
    object      dmdt;
}
// * * * * * * * * * * * * * * * * * * * * * * * * * * * * * * * * * * * * * //

dimensions      [0 0 0 0 0 0 0];

internalField   nonuniform List<scalar> 
4800
(
-0.218497
-0.214324
-0.2102
-0.206161
-0.202231
-0.198427
-0.19476
-0.19124
-0.187874
-0.184666
-0.181618
-0.178737
-0.176021
-0.173468
-0.171075
-0.168835
-0.166744
-0.164792
-0.162969
-0.161265
-0.159666
-0.158159
-0.156731
-0.155368
-0.154056
-0.152783
-0.151538
-0.150314
-0.149104
-0.147901
-0.146698
-0.145494
-0.144285
-0.143068
-0.141834
-0.140575
-0.139279
-0.137934
-0.136523
-0.135028
-0.13344
-0.131742
-0.129905
-0.127909
-0.125747
-0.123416
-0.120923
-0.118289
-0.115535
-0.112682
-0.109747
-0.10675
-0.103716
-0.100674
-0.0976507
-0.0946661
-0.0917331
-0.0888592
-0.0860461
-0.0832899
-0.0805838
-0.0779187
-0.0752826
-0.0726588
-0.0700328
-0.0673988
-0.0647391
-0.0620403
-0.0592909
-0.0564755
-0.0535838
-0.0506061
-0.0475358
-0.0443724
-0.0411198
-0.0377903
-0.0344031
-0.0309773
-0.0275237
-0.0240513
-0.020556
-0.0170607
-0.0135679
-0.0100829
-0.00660881
-0.00314778
0.000298881
0.00373027
0.00714606
0.0105463
0.0139315
0.0173022
0.0206591
0.0240032
0.0273352
0.030656
0.0339666
0.0372678
0.0405604
0.0438452
0.0471228
0.0503939
0.0536592
0.0569191
0.0601743
0.0634252
0.0666722
0.0699158
0.0731563
0.0763941
0.0796295
0.0828628
0.0860942
0.0893241
0.0925527
0.0957801
0.0990066
0.102232
0.105458
0.108683
-0.218502
-0.214339
-0.210228
-0.206205
-0.202287
-0.198496
-0.194843
-0.191334
-0.187977
-0.184779
-0.181744
-0.178874
-0.176168
-0.173624
-0.171239
-0.169008
-0.166925
-0.164981
-0.163165
-0.161468
-0.159875
-0.158375
-0.156952
-0.155594
-0.154285
-0.153013
-0.15177
-0.150549
-0.149341
-0.148141
-0.14694
-0.145737
-0.144526
-0.143304
-0.142066
-0.140803
-0.139504
-0.138152
-0.136733
-0.135237
-0.133645
-0.131933
-0.13008
-0.128075
-0.125907
-0.12357
-0.121074
-0.118438
-0.115683
-0.112828
-0.109893
-0.106898
-0.103869
-0.100835
-0.0978194
-0.0948423
-0.0919157
-0.0890468
-0.0862364
-0.0834822
-0.0807785
-0.0781147
-0.0754781
-0.0728522
-0.0702254
-0.0675897
-0.0649266
-0.0622239
-0.0594662
-0.0566421
-0.0537405
-0.0507541
-0.0476784
-0.0445144
-0.0412679
-0.0379504
-0.0345707
-0.0311331
-0.0276432
-0.0241187
-0.0205846
-0.0170747
-0.0135739
-0.0100834
-0.00660511
-0.00314081
0.000308331
0.00374153
0.00715854
0.0105596
0.0139451
0.0173159
0.0206726
0.0240163
0.0273478
0.0306681
0.0339781
0.0372786
0.0405705
0.0438546
0.0471315
0.0504019
0.0536666
0.0569259
0.0601805
0.0634308
0.0666773
0.0699204
0.0731604
0.0763978
0.0796327
0.0828656
0.0860967
0.0893262
0.0925544
0.0957815
0.0990077
0.102233
0.105458
0.108683
-0.218512
-0.214373
-0.21029
-0.206294
-0.202405
-0.198639
-0.195006
-0.191516
-0.188178
-0.185001
-0.181989
-0.179139
-0.176453
-0.173928
-0.171562
-0.169348
-0.16728
-0.16535
-0.163548
-0.161862
-0.160281
-0.15879
-0.157376
-0.156026
-0.154722
-0.153456
-0.152219
-0.151002
-0.1498
-0.148602
-0.147403
-0.1462
-0.144987
-0.143759
-0.142513
-0.14124
-0.13993
-0.138568
-0.137141
-0.135634
-0.134024
-0.132286
-0.130409
-0.128385
-0.126206
-0.123863
-0.121366
-0.118731
-0.115975
-0.11312
-0.110184
-0.107194
-0.104176
-0.101154
-0.0981524
-0.0951879
-0.0922736
-0.0894156
-0.0866133
-0.0838658
-0.0811668
-0.0785035
-0.0758633
-0.073234
-0.070608
-0.0679681
-0.0652951
-0.0625795
-0.0598032
-0.0569575
-0.0540314
-0.0510185
-0.0479153
-0.0447218
-0.0414431
-0.0380904
-0.0346755
-0.0312064
-0.0276938
-0.0241594
-0.020618
-0.0170962
-0.0135841
-0.0100836
-0.00659718
-0.00312645
0.000327555
0.00376427
0.00718367
0.0105862
0.0139724
0.0173433
0.0206997
0.0240426
0.0273732
0.0306923
0.034001
0.0373002
0.0405907
0.0438733
0.0471489
0.050418
0.0536813
0.0569394
0.0601928
0.063442
0.0666874
0.0699295
0.0731686
0.076405
0.0796391
0.0828712
0.0861015
0.0893303
0.0925578
0.0957842
0.0990098
0.102235
0.105459
0.108683
-0.218529
-0.214428
-0.210388
-0.206432
-0.202581
-0.198852
-0.19525
-0.19179
-0.188481
-0.185333
-0.182349
-0.179528
-0.17687
-0.174372
-0.172031
-0.16984
-0.167793
-0.165882
-0.164097
-0.162425
-0.160857
-0.159378
-0.157975
-0.156631
-0.155333
-0.154073
-0.152842
-0.15163
-0.150431
-0.149236
-0.14804
-0.146838
-0.145624
-0.144392
-0.143139
-0.141856
-0.140533
-0.139158
-0.137718
-0.136189
-0.13455
-0.132783
-0.130878
-0.128831
-0.126633
-0.124283
-0.121789
-0.11916
-0.116407
-0.113551
-0.110618
-0.107635
-0.10463
-0.101625
-0.0986417
-0.0956949
-0.0927969
-0.0899532
-0.0871634
-0.0844256
-0.0817312
-0.0790692
-0.0764275
-0.0737962
-0.0711656
-0.0685137
-0.0658225
-0.063081
-0.0602762
-0.0573988
-0.0544386
-0.0513881
-0.0482401
-0.044992
-0.0416496
-0.0382284
-0.0347495
-0.0312421
-0.0277246
-0.0242013
-0.0206611
-0.0171255
-0.0135972
-0.0100823
-0.00658386
-0.00310375
0.000357317
0.00379909
0.00722188
0.0106264
0.0140135
0.0173844
0.0207402
0.024082
0.0274111
0.0307284
0.0340352
0.0373323
0.0406207
0.0439013
0.0471748
0.0504419
0.0537033
0.0569595
0.0602112
0.0634587
0.0667025
0.0699431
0.0731807
0.0764158
0.0796486
0.0828795
0.0861087
0.0893364
0.0925629
0.0957883
0.099013
0.102237
0.105461
0.108684
-0.218561
-0.214521
-0.210533
-0.206623
-0.202815
-0.199128
-0.195567
-0.192148
-0.188878
-0.185767
-0.182818
-0.180032
-0.177408
-0.174941
-0.172629
-0.170464
-0.168441
-0.16655
-0.164783
-0.163127
-0.161572
-0.160105
-0.158712
-0.157374
-0.156083
-0.154827
-0.153601
-0.152394
-0.151199
-0.150009
-0.148815
-0.147614
-0.146399
-0.145164
-0.143905
-0.142616
-0.141285
-0.139897
-0.138434
-0.136878
-0.13521
-0.133414
-0.131481
-0.129406
-0.127188
-0.124831
-0.12234
-0.119715
-0.116965
-0.114109
-0.111179
-0.108205
-0.105216
-0.102233
-0.0992722
-0.0963482
-0.0934704
-0.0906437
-0.0878678
-0.08514
-0.0824518
-0.0797931
-0.0771524
-0.0745181
-0.0718749
-0.0692027
-0.0664833
-0.0637058
-0.0608615
-0.0579393
-0.0549335
-0.0518399
-0.0486546
-0.0453746
-0.0420013
-0.03854
-0.0350034
-0.0314298
-0.0278588
-0.0243
-0.0207294
-0.0171652
-0.0136125
-0.0100776
-0.00656345
-0.00307125
0.000398749
0.00384682
0.00727373
0.0106806
0.0140687
0.0174394
0.0207942
0.0241344
0.0274613
0.0307763
0.0340804
0.0373748
0.0406605
0.0439383
0.047209
0.0504735
0.0537323
0.0569861
0.0602354
0.0634807
0.0667224
0.0699609
0.0731967
0.07643
0.0796612
0.0828905
0.0861181
0.0893444
0.0925696
0.0957937
0.0990171
0.10224
0.105462
0.108684
-0.218597
-0.214629
-0.210711
-0.206864
-0.20311
-0.199468
-0.195954
-0.192584
-0.189363
-0.186298
-0.18339
-0.180642
-0.178053
-0.175619
-0.173336
-0.171199
-0.169199
-0.167328
-0.165578
-0.163939
-0.162397
-0.160941
-0.159557
-0.158225
-0.15694
-0.15569
-0.15447
-0.153269
-0.152079
-0.150896
-0.149706
-0.148508
-0.147293
-0.146055
-0.144792
-0.143498
-0.142162
-0.140761
-0.139277
-0.137694
-0.135997
-0.13417
-0.132207
-0.130106
-0.12787
-0.125502
-0.123005
-0.120383
-0.117638
-0.11479
-0.111868
-0.108905
-0.105931
-0.102967
-0.100031
-0.0971324
-0.0942771
-0.0914697
-0.0887099
-0.0859944
-0.0833152
-0.0806613
-0.0780213
-0.0753807
-0.0727194
-0.0700194
-0.0672663
-0.0644476
-0.0615528
-0.0585727
-0.0555081
-0.0523596
-0.0491283
-0.0458098
-0.0424034
-0.0389146
-0.0353565
-0.0317464
-0.0281049
-0.0244606
-0.0208214
-0.0172121
-0.0136264
-0.0100665
-0.00653337
-0.00302696
0.000453364
0.00390854
0.00733996
0.0107492
0.0141381
0.0175083
0.0208616
0.0241995
0.0275237
0.0308356
0.0341364
0.0374274
0.0407096
0.0439839
0.0472513
0.0505125
0.0537681
0.0570188
0.0602652
0.0635077
0.0667469
0.069983
0.0732164
0.0764475
0.0796766
0.082904
0.0861298
0.0893544
0.0925778
0.0958004
0.0990222
0.102244
0.105464
0.108685
-0.218639
-0.214752
-0.210911
-0.207139
-0.203455
-0.199875
-0.196416
-0.193096
-0.189925
-0.186907
-0.184044
-0.181338
-0.178786
-0.176385
-0.174131
-0.172019
-0.170043
-0.168193
-0.166461
-0.164838
-0.16331
-0.161863
-0.160487
-0.159163
-0.157885
-0.156644
-0.155431
-0.154237
-0.153055
-0.15188
-0.150697
-0.149502
-0.148289
-0.147051
-0.145787
-0.14449
-0.143149
-0.141739
-0.140241
-0.138638
-0.136913
-0.135054
-0.133057
-0.130926
-0.128664
-0.126278
-0.123767
-0.121138
-0.118397
-0.115557
-0.11265
-0.109706
-0.106754
-0.103814
-0.100903
-0.0980301
-0.0952002
-0.092415
-0.0896732
-0.0869717
-0.0843038
-0.0816561
-0.0790157
-0.0763659
-0.0736856
-0.0709565
-0.0681608
-0.0652888
-0.0623326
-0.0592866
-0.0561549
-0.0529399
-0.0496448
-0.0462712
-0.0428211
-0.0392974
-0.0357058
-0.0320522
-0.0283506
-0.0246267
-0.0209143
-0.0172546
-0.0136319
-0.0100442
-0.00649013
-0.00296829
0.000523008
0.00398554
0.00742138
0.0108328
0.0142219
0.017591
0.0209421
0.0242772
0.0275979
0.030906
0.0342027
0.0374896
0.0407676
0.0440378
0.0473012
0.0505584
0.0538103
0.0570575
0.0603004
0.0635397
0.0667757
0.0700089
0.0732396
0.0764682
0.0796949
0.0829199
0.0861436
0.089366
0.0925875
0.0958082
0.0990283
0.102248
0.105467
0.108686
-0.218684
-0.214886
-0.211131
-0.20744
-0.203831
-0.200321
-0.196928
-0.193669
-0.190554
-0.187586
-0.184768
-0.182101
-0.179584
-0.177217
-0.174994
-0.172909
-0.170955
-0.169127
-0.167414
-0.165806
-0.164291
-0.162856
-0.161488
-0.160174
-0.158905
-0.157674
-0.156472
-0.155288
-0.154117
-0.152951
-0.151777
-0.150588
-0.149379
-0.148145
-0.14688
-0.145583
-0.14424
-0.142825
-0.141317
-0.139698
-0.137949
-0.136059
-0.134023
-0.131853
-0.129559
-0.127142
-0.124609
-0.121967
-0.119225
-0.116398
-0.11351
-0.110589
-0.107661
-0.104749
-0.101867
-0.0990252
-0.0962234
-0.093462
-0.0907398
-0.0880531
-0.085397
-0.082755
-0.0801151
-0.077457
-0.0747578
-0.0719967
-0.069156
-0.0662269
-0.0631998
-0.0600754
-0.0568606
-0.0535617
-0.0501853
-0.046739
-0.0432249
-0.0396446
-0.0360012
-0.032296
-0.0285371
-0.0247529
-0.0209857
-0.01728
-0.0136209
-0.010005
-0.00642964
-0.00289228
0.000609775
0.0040792
0.00751884
0.0109316
0.0143202
0.0176874
0.0210355
0.0243668
0.0276833
0.0309868
0.0342788
0.0375608
0.040834
0.0440995
0.0473582
0.050611
0.0538585
0.0571016
0.0603406
0.0635762
0.0668087
0.0700386
0.0732662
0.0764918
0.0797156
0.0829381
0.0861592
0.0893794
0.0925986
0.0958172
0.0990351
0.102253
0.10547
0.108687
-0.218729
-0.21502
-0.211351
-0.207745
-0.204223
-0.200798
-0.197483
-0.194291
-0.191231
-0.188314
-0.185544
-0.182921
-0.180442
-0.178105
-0.17591
-0.17385
-0.171921
-0.170116
-0.168424
-0.166834
-0.165334
-0.16391
-0.162553
-0.161252
-0.159995
-0.158777
-0.157587
-0.156416
-0.155259
-0.154104
-0.15294
-0.151758
-0.150556
-0.149326
-0.148065
-0.146767
-0.145424
-0.144007
-0.142491
-0.140856
-0.139083
-0.137162
-0.135087
-0.132874
-0.130535
-0.128078
-0.125517
-0.122858
-0.120116
-0.117299
-0.114428
-0.111529
-0.10863
-0.10575
-0.102904
-0.100096
-0.0973249
-0.0945888
-0.091886
-0.0892149
-0.0865702
-0.0839344
-0.0812968
-0.078632
-0.0759151
-0.0731208
-0.0702298
-0.0672328
-0.0641256
-0.060915
-0.0576084
-0.0542153
-0.0507453
-0.0472085
-0.0436101
-0.0399554
-0.0362468
-0.0324851
-0.0286746
-0.0248409
-0.0210267
-0.0172793
-0.0135859
-0.00994308
-0.00634751
-0.00279574
0.000715884
0.00419094
0.00763311
0.011046
0.014433
0.0177971
0.0211413
0.0244679
0.0277794
0.0310775
0.034364
0.0376405
0.0409082
0.0441683
0.0474218
0.0506696
0.0539123
0.0571507
0.0603854
0.0636168
0.0668454
0.0700716
0.0732957
0.076518
0.0797388
0.0829583
0.0861767
0.0893942
0.092611
0.0958271
0.0990428
0.102258
0.105473
0.108688
-0.218779
-0.215167
-0.211594
-0.208084
-0.20465
-0.201308
-0.19807
-0.194948
-0.19195
-0.189085
-0.18636
-0.183779
-0.18134
-0.179041
-0.176878
-0.174846
-0.172943
-0.171162
-0.169489
-0.167916
-0.166431
-0.165022
-0.163681
-0.162395
-0.161154
-0.159953
-0.158778
-0.157623
-0.156481
-0.15534
-0.154185
-0.153013
-0.151817
-0.150592
-0.149334
-0.148037
-0.146692
-0.145269
-0.143747
-0.142098
-0.1403
-0.138346
-0.136228
-0.133963
-0.131574
-0.129075
-0.126482
-0.123806
-0.121059
-0.118247
-0.11539
-0.112515
-0.109648
-0.106804
-0.103993
-0.101219
-0.0984779
-0.0957681
-0.0930856
-0.0904299
-0.0877959
-0.0851703
-0.0825399
-0.0798713
-0.077134
-0.0742972
-0.0713459
-0.0682745
-0.0650837
-0.0617816
-0.058377
-0.0548818
-0.0513081
-0.0476669
-0.0439685
-0.0402259
-0.0364468
-0.0326313
-0.0287741
-0.0248921
-0.0210312
-0.017245
-0.01352
-0.00985268
-0.00623922
-0.00267534
0.000843597
0.00432213
0.00776485
0.0111761
0.0145598
0.0179196
0.0212586
0.0245796
0.0278851
0.0311771
0.0344574
0.0377277
0.0409894
0.0442436
0.0474914
0.0507336
0.0539711
0.0572045
0.0604343
0.0636612
0.0668855
0.0701077
0.073328
0.0765467
0.0797641
0.0829804
0.0861958
0.0894104
0.0926244
0.095838
0.0990511
0.102264
0.105477
0.108689
-0.218828
-0.215314
-0.211839
-0.208423
-0.205082
-0.20183
-0.198675
-0.19563
-0.192702
-0.189897
-0.187224
-0.184686
-0.182285
-0.180021
-0.177892
-0.175892
-0.174018
-0.172264
-0.170615
-0.169063
-0.167597
-0.166205
-0.164881
-0.163614
-0.162392
-0.161209
-0.160054
-0.158918
-0.157794
-0.156664
-0.15552
-0.154356
-0.153168
-0.151947
-0.15069
-0.149391
-0.148039
-0.146606
-0.145072
-0.143406
-0.141584
-0.139594
-0.137428
-0.135108
-0.132667
-0.130122
-0.127493
-0.124794
-0.122036
-0.119223
-0.116378
-0.113528
-0.110691
-0.10788
-0.105107
-0.102368
-0.0996552
-0.0969687
-0.0943061
-0.0916654
-0.0890417
-0.0864258
-0.0837986
-0.0811187
-0.0783497
-0.0754627
-0.0724481
-0.0693022
-0.066029
-0.0626373
-0.0591378
-0.0555435
-0.0518659
-0.048116
-0.0443075
-0.0404603
-0.0365948
-0.0327164
-0.0288136
-0.0248908
-0.0209897
-0.017169
-0.013416
-0.00972766
-0.00609994
-0.0025276
0.000995155
0.00447398
0.00791442
0.0113216
0.0147001
0.0180539
0.0213864
0.0247007
0.0279993
0.0312844
0.034558
0.0378216
0.0410767
0.0443245
0.0475661
0.0508024
0.0540342
0.0572622
0.0604869
0.0637089
0.0669286
0.0701464
0.0733626
0.0765775
0.0797912
0.0830041
0.0862163
0.0894278
0.0926389
0.0958496
0.0990601
0.10227
0.10548
0.10869
-0.218877
-0.21546
-0.212082
-0.208763
-0.205518
-0.202358
-0.199293
-0.196331
-0.193479
-0.190744
-0.188133
-0.185648
-0.183291
-0.181065
-0.178971
-0.177006
-0.175166
-0.173443
-0.171821
-0.170292
-0.168847
-0.167476
-0.166174
-0.164928
-0.163728
-0.162568
-0.161434
-0.160318
-0.15921
-0.158092
-0.156959
-0.155803
-0.154621
-0.153403
-0.152143
-0.150835
-0.149466
-0.148016
-0.146464
-0.144777
-0.142926
-0.140894
-0.138676
-0.136298
-0.133801
-0.131206
-0.128538
-0.125812
-0.123037
-0.120221
-0.117387
-0.114564
-0.111762
-0.108988
-0.106243
-0.103524
-0.100831
-0.098163
-0.0955169
-0.0928878
-0.0902704
-0.087659
-0.0850241
-0.0823176
-0.0795043
-0.0765611
-0.0734804
-0.070262
-0.0669127
-0.063442
-0.0598601
-0.0561777
-0.0524047
-0.0485525
-0.0446377
-0.040677
-0.0366892
-0.0327096
-0.0287628
-0.0248238
-0.0208936
-0.017043
-0.0132659
-0.0095612
-0.0059244
-0.00234888
0.00117272
0.00464741
0.00808186
0.011482
0.0148528
0.0181987
0.0215234
0.0248298
0.0281207
0.0313983
0.0346644
0.0379209
0.041169
0.04441
0.0476451
0.0508752
0.054101
0.0573232
0.0605426
0.0637594
0.0669743
0.0701874
0.0733993
0.0766101
0.07982
0.0830292
0.0862379
0.0894462
0.0926542
0.095862
0.0990696
0.102277
0.105484
0.108692
-0.218928
-0.215614
-0.212336
-0.209115
-0.205965
-0.202897
-0.19992
-0.197043
-0.194272
-0.191614
-0.189071
-0.186648
-0.184348
-0.182173
-0.180126
-0.178205
-0.176407
-0.174718
-0.173128
-0.171628
-0.17021
-0.168866
-0.167589
-0.166368
-0.165193
-0.164056
-0.162943
-0.161848
-0.160753
-0.159646
-0.158522
-0.157373
-0.156192
-0.154971
-0.1537
-0.152374
-0.150981
-0.149507
-0.147927
-0.146207
-0.144315
-0.142234
-0.13996
-0.137524
-0.13497
-0.132326
-0.129613
-0.126853
-0.124052
-0.121225
-0.118399
-0.115593
-0.112812
-0.11006
-0.107337
-0.10464
-0.101968
-0.0993175
-0.096684
-0.0940618
-0.0914438
-0.0888219
-0.0861589
-0.0834088
-0.0805417
-0.0775384
-0.0743934
-0.0711083
-0.0676921
-0.0641552
-0.060507
-0.0567553
-0.0529054
-0.0489679
-0.0449611
-0.0409031
-0.0368118
-0.0327245
-0.0286904
-0.0247046
-0.0207398
-0.0168582
-0.0130602
-0.00934519
-0.00570663
-0.00213537
0.00137823
0.00484296
0.00826668
0.011656
0.0150164
0.0183524
0.0216676
0.0249652
0.0282476
0.031517
0.0347754
0.0380243
0.0412652
0.0444992
0.0477276
0.0509511
0.0541707
0.057387
0.0606007
0.0638122
0.0670219
0.0702303
0.0734376
0.0766441
0.07985
0.0830554
0.0862605
0.0894654
0.0926702
0.0958748
0.0990794
0.102284
0.105489
0.108693
-0.218983
-0.215778
-0.212607
-0.209488
-0.206437
-0.203463
-0.200579
-0.197792
-0.195109
-0.192534
-0.190071
-0.187722
-0.185491
-0.183381
-0.181393
-0.179526
-0.177774
-0.176127
-0.174574
-0.173108
-0.171724
-0.170412
-0.169165
-0.167972
-0.166823
-0.165709
-0.164616
-0.16354
-0.162454
-0.161353
-0.160236
-0.159087
-0.157901
-0.156668
-0.155379
-0.154028
-0.152604
-0.151092
-0.149468
-0.147701
-0.145759
-0.143621
-0.141281
-0.138778
-0.136162
-0.133463
-0.130702
-0.127901
-0.125071
-0.122227
-0.119397
-0.116593
-0.11382
-0.111082
-0.108376
-0.105697
-0.103041
-0.100401
-0.0977703
-0.0951428
-0.0925085
-0.0898568
-0.0871465
-0.0843366
-0.0814065
-0.0783429
-0.0751407
-0.071801
-0.0683325
-0.0647463
-0.0610514
-0.0572506
-0.0533435
-0.0493384
-0.0452549
-0.0411154
-0.0369389
-0.0327556
-0.0286148
-0.0245425
-0.0205192
-0.0166008
-0.0127859
-0.0090695
-0.00543987
-0.00188333
0.00161311
0.00506041
0.00846762
0.0118419
0.0151887
0.0185126
0.021817
0.0251047
0.028378
0.0316389
0.0348893
0.0381305
0.0413639
0.0445909
0.0478123
0.0510293
0.0542425
0.0574527
0.0606606
0.0638666
0.0670711
0.0702745
0.0734772
0.0766793
0.079881
0.0830825
0.0862839
0.0894853
0.0926867
0.0958881
0.0990896
0.102291
0.105493
0.108695
-0.219044
-0.215959
-0.212905
-0.209901
-0.20696
-0.204094
-0.201314
-0.198627
-0.19604
-0.193557
-0.191182
-0.188917
-0.186766
-0.18473
-0.18281
-0.181004
-0.179308
-0.177711
-0.176205
-0.174783
-0.173439
-0.172166
-0.170952
-0.169788
-0.168665
-0.167571
-0.166496
-0.16543
-0.164348
-0.16325
-0.162131
-0.160974
-0.159774
-0.158519
-0.157201
-0.155813
-0.154344
-0.152781
-0.1511
-0.149272
-0.147265
-0.145054
-0.142634
-0.140053
-0.137366
-0.134603
-0.131786
-0.128939
-0.126073
-0.123202
-0.120357
-0.117548
-0.11478
-0.112051
-0.109354
-0.106682
-0.104029
-0.101386
-0.0987431
-0.0960925
-0.0934229
-0.0907233
-0.0879514
-0.085072
-0.0820737
-0.0789493
-0.0756953
-0.0723131
-0.068809
-0.0651908
-0.061464
-0.0576272
-0.0536764
-0.0496172
-0.045468
-0.0412544
-0.0370015
-0.0327368
-0.0284921
-0.0243106
-0.0202044
-0.0162468
-0.0124246
-0.00872179
-0.00511711
-0.00158979
0.00187762
0.00529837
0.00868238
0.0120368
0.015367
0.0186767
0.0219689
0.0252459
0.0285097
0.031762
0.0350043
0.0382378
0.0414639
0.0446838
0.0478984
0.0511087
0.0543156
0.0575197
0.0607216
0.063922
0.0671212
0.0703196
0.0735175
0.0767151
0.0799126
0.0831101
0.0863077
0.0895055
0.0927034
0.0959016
0.0991
0.102299
0.105497
0.108696
-0.219113
-0.216167
-0.213252
-0.210384
-0.207573
-0.204833
-0.202174
-0.199602
-0.197124
-0.194747
-0.192473
-0.190304
-0.188241
-0.186288
-0.184444
-0.18271
-0.18108
-0.179544
-0.178093
-0.176721
-0.175423
-0.17419
-0.173011
-0.171876
-0.170773
-0.169695
-0.168631
-0.167565
-0.166479
-0.165374
-0.164241
-0.163066
-0.161839
-0.16055
-0.15919
-0.15775
-0.156221
-0.154589
-0.152833
-0.150924
-0.148834
-0.146532
-0.144015
-0.141341
-0.13857
-0.13573
-0.132847
-0.129942
-0.127028
-0.124122
-0.121255
-0.118436
-0.115664
-0.112934
-0.110237
-0.107564
-0.104903
-0.102243
-0.0995714
-0.0968799
-0.0941578
-0.0913962
-0.088552
-0.0855991
-0.0825343
-0.079355
-0.0760595
-0.0726484
-0.0691241
-0.0654883
-0.0617389
-0.0578707
-0.0538808
-0.049774
-0.0455642
-0.0412759
-0.0369383
-0.0325757
-0.0282189
-0.0239348
-0.0197476
-0.0157617
-0.0119532
-0.00828896
-0.00473274
-0.001254
0.00216972
0.00555346
0.00890714
0.0122371
0.0155476
0.0188413
0.0221204
0.0253863
0.0286406
0.0318843
0.0351186
0.0383447
0.0415637
0.0447767
0.0479846
0.0511884
0.054389
0.057587
0.0607831
0.0639779
0.0671718
0.0703651
0.0735582
0.0767513
0.0799444
0.0831379
0.0863317
0.0895258
0.0927204
0.0959153
0.0991105
0.102306
0.105502
0.108698
-0.219196
-0.216417
-0.213669
-0.210964
-0.208312
-0.205726
-0.203213
-0.200778
-0.198432
-0.196178
-0.194021
-0.19196
-0.189999
-0.188139
-0.186382
-0.184728
-0.183173
-0.181706
-0.180318
-0.179002
-0.177752
-0.17656
-0.175414
-0.174304
-0.173216
-0.172142
-0.171076
-0.169997
-0.168896
-0.167769
-0.166606
-0.165396
-0.164128
-0.162789
-0.16137
-0.159861
-0.158253
-0.156532
-0.154678
-0.152667
-0.15047
-0.148053
-0.145417
-0.142626
-0.139747
-0.13681
-0.133844
-0.130869
-0.127898
-0.124951
-0.122056
-0.119221
-0.116439
-0.113701
-0.110997
-0.108313
-0.105632
-0.102942
-0.10023
-0.0974867
-0.0947022
-0.0918675
-0.0889474
-0.0859281
-0.0828086
-0.0795875
-0.0762639
-0.0728379
-0.0693062
-0.0656622
-0.0618989
-0.0580081
-0.0539834
-0.0498269
-0.0455499
-0.0411746
-0.0367305
-0.0322456
-0.0277645
-0.0233699
-0.0190955
-0.0151031
-0.0113466
-0.00776063
-0.00428595
-0.000880091
0.00248339
0.00581943
0.00913614
0.0124377
0.0157262
0.0190028
0.0222683
0.0255232
0.028768
0.0320036
0.0352305
0.0384496
0.0416619
0.0448684
0.0480699
0.0512675
0.0544619
0.057654
0.0608444
0.0640336
0.0672222
0.0704105
0.0735988
0.0767873
0.0799762
0.0831656
0.0863556
0.0895461
0.0927372
0.0959288
0.0991209
0.102313
0.105506
0.108699
-0.2193
-0.216727
-0.214183
-0.21168
-0.209226
-0.20683
-0.204495
-0.202229
-0.200041
-0.197935
-0.195913
-0.193978
-0.192133
-0.190379
-0.188718
-0.187152
-0.185678
-0.184288
-0.182969
-0.181713
-0.180512
-0.179359
-0.178243
-0.177149
-0.176065
-0.174983
-0.173896
-0.17279
-0.171655
-0.170487
-0.169275
-0.168011
-0.16668
-0.165271
-0.163773
-0.162173
-0.160461
-0.158625
-0.156645
-0.154502
-0.152165
-0.149603
-0.146818
-0.143882
-0.140865
-0.137805
-0.134734
-0.131672
-0.128635
-0.125644
-0.122722
-0.119867
-0.117068
-0.114316
-0.111596
-0.108889
-0.106179
-0.103451
-0.100693
-0.0978957
-0.09505
-0.0921449
-0.0891613
-0.0860949
-0.0829434
-0.0797047
-0.0763759
-0.0729514
-0.0694215
-0.0657758
-0.062004
-0.0580947
-0.0540368
-0.0498279
-0.045477
-0.0410028
-0.0364309
-0.0317877
-0.0271244
-0.0225608
-0.0181711
-0.0142159
-0.0105813
-0.00713569
-0.00378635
-0.000480796
0.00280654
0.00608615
0.00936133
0.0126322
0.0158978
0.0191572
0.0224094
0.0256537
0.0288899
0.0321179
0.0353381
0.0385509
0.0417571
0.0449575
0.0481531
0.0513448
0.0545334
0.0577198
0.0609046
0.0640885
0.0672719
0.0704552
0.0736388
0.0768229
0.0800076
0.083193
0.0863792
0.0895661
0.0927538
0.0959422
0.0991312
0.102321
0.10551
0.1087
-0.219428
-0.217111
-0.214823
-0.212571
-0.210363
-0.208202
-0.206087
-0.204029
-0.202033
-0.200102
-0.198241
-0.196451
-0.194737
-0.193101
-0.191547
-0.190078
-0.188693
-0.187386
-0.186141
-0.184946
-0.183792
-0.182673
-0.181576
-0.180486
-0.179393
-0.178288
-0.177164
-0.17601
-0.174821
-0.17359
-0.172307
-0.170966
-0.16955
-0.168047
-0.166444
-0.164722
-0.162873
-0.160887
-0.158748
-0.156436
-0.15392
-0.15117
-0.148197
-0.14508
-0.141894
-0.138682
-0.13548
-0.132311
-0.129198
-0.126159
-0.123202
-0.120319
-0.117499
-0.114726
-0.111981
-0.109246
-0.106502
-0.103735
-0.100934
-0.0980895
-0.095196
-0.0922421
-0.0892226
-0.0861383
-0.0829834
-0.0797526
-0.076441
-0.0730384
-0.0695298
-0.0659007
-0.0621365
-0.0582213
-0.054139
-0.0498822
-0.0454517
-0.0408556
-0.0361081
-0.0312238
-0.0262644
-0.0214126
-0.016829
-0.0130208
-0.00964461
-0.00643427
-0.00326245
-8.18995e-05
0.00311919
0.00633917
0.00957253
0.0128135
0.0160575
0.0193007
0.0225406
0.0257755
0.029004
0.0322255
0.0354398
0.0386471
0.041848
0.0450431
0.0482333
0.0514195
0.0546027
0.0577837
0.0609632
0.0641419
0.0673203
0.0704989
0.0736779
0.0768576
0.0800381
0.0832196
0.0864021
0.0895856
0.09277
0.0959552
0.0991411
0.102328
0.105515
0.108702
-0.219586
-0.217586
-0.215612
-0.21367
-0.211764
-0.209891
-0.208049
-0.206244
-0.204477
-0.202756
-0.201083
-0.199461
-0.197896
-0.196393
-0.194957
-0.193592
-0.192301
-0.191081
-0.189911
-0.188773
-0.187659
-0.186562
-0.185471
-0.184372
-0.183256
-0.182113
-0.180936
-0.17972
-0.178458
-0.177145
-0.17577
-0.174326
-0.172799
-0.171172
-0.169429
-0.167551
-0.165528
-0.163353
-0.161011
-0.158479
-0.155731
-0.152746
-0.149547
-0.146207
-0.142813
-0.139416
-0.136057
-0.132762
-0.129555
-0.126451
-0.123446
-0.120526
-0.117674
-0.114871
-0.112096
-0.10933
-0.106557
-0.10376
-0.10093
-0.0980582
-0.0951429
-0.0921751
-0.089155
-0.0860862
-0.0829619
-0.0797744
-0.0765141
-0.0731655
-0.0697094
-0.0661287
-0.0624054
-0.0585158
-0.0544337
-0.0501403
-0.0456223
-0.040869
-0.0358689
-0.030618
-0.0251852
-0.0197917
-0.0147248
-0.0114007
-0.00856199
-0.00572027
-0.00277241
0.000274404
0.00339343
0.00656072
0.00975854
0.0129745
0.0162002
0.0194299
0.0226596
0.0258865
0.0291087
0.0323249
0.0355344
0.0387372
0.0419335
0.0451239
0.0483094
0.0514908
0.054669
0.057845
0.0610195
0.0641933
0.067367
0.0705409
0.0737155
0.076891
0.0800675
0.0832453
0.0864242
0.0896043
0.0927855
0.0959676
0.0991507
0.102334
0.105519
0.108703
-0.219778
-0.21816
-0.216566
-0.215
-0.213459
-0.211934
-0.21042
-0.208918
-0.207425
-0.205949
-0.204495
-0.203066
-0.201669
-0.200313
-0.199004
-0.19775
-0.196557
-0.195421
-0.194316
-0.193225
-0.192141
-0.191058
-0.189965
-0.18885
-0.187701
-0.186511
-0.185273
-0.183981
-0.182628
-0.18121
-0.179721
-0.178151
-0.176483
-0.1747
-0.172785
-0.170717
-0.168485
-0.166079
-0.163482
-0.160672
-0.157633
-0.154359
-0.150882
-0.147276
-0.143636
-0.140018
-0.136469
-0.133022
-0.129699
-0.126504
-0.123429
-0.120454
-0.117559
-0.114719
-0.111912
-0.109118
-0.106323
-0.103512
-0.100676
-0.0978074
-0.094903
-0.091958
-0.0889755
-0.0859613
-0.082907
-0.0797986
-0.0766253
-0.0733692
-0.0700093
-0.0665253
-0.0628939
-0.0590812
-0.0550483
-0.0507595
-0.046177
-0.0412588
-0.0359608
-0.030254
-0.0241546
-0.0177052
-0.0108227
-0.00924835
-0.00748474
-0.00513935
-0.00241199
0.000531997
0.00359774
0.0067333
0.00990955
0.0131095
0.0163227
0.0195426
0.0227647
0.0259855
0.0292029
0.032415
0.0356208
0.03882
0.0420127
0.0451993
0.0483807
0.0515578
0.0547315
0.057903
0.0610729
0.0642421
0.0674113
0.0705808
0.0737512
0.0769227
0.0800955
0.0832696
0.0864451
0.089622
0.0928001
0.0959794
0.0991597
0.102341
0.105522
0.108704
-0.219999
-0.218824
-0.217671
-0.216543
-0.215432
-0.214319
-0.213196
-0.212052
-0.210881
-0.20969
-0.208485
-0.207275
-0.206067
-0.204872
-0.2037
-0.202558
-0.201458
-0.200393
-0.199343
-0.198293
-0.197239
-0.196168
-0.195069
-0.193933
-0.192747
-0.191503
-0.190194
-0.188813
-0.187355
-0.185816
-0.184192
-0.182472
-0.180639
-0.178674
-0.176561
-0.174277
-0.171805
-0.169127
-0.166225
-0.163081
-0.159692
-0.156077
-0.152278
-0.148371
-0.144453
-0.140583
-0.136815
-0.133187
-0.129717
-0.126403
-0.12323
-0.120175
-0.117214
-0.114321
-0.111472
-0.108652
-0.105845
-0.103037
-0.100217
-0.0973767
-0.0945101
-0.0916152
-0.0886952
-0.0857545
-0.082788
-0.0797832
-0.0767262
-0.0736057
-0.0703998
-0.0670831
-0.0636218
-0.0599727
-0.0560809
-0.0518815
-0.0473033
-0.0422734
-0.0367405
-0.0306773
-0.0240135
-0.0161336
-0.000718573
-0.00705078
-0.00693141
-0.00495547
-0.00230074
0.000637781
0.00370848
0.00684639
0.0100209
0.0132164
0.016424
0.0196383
0.0228554
0.0260721
0.029286
0.0324952
0.0356984
0.038895
0.0420849
0.0452685
0.0484465
0.0516199
0.0547898
0.0579571
0.0611228
0.0642878
0.0674528
0.0706183
0.0737848
0.0769525
0.0801216
0.0832924
0.0864647
0.0896385
0.0928138
0.0959904
0.099168
0.102347
0.105526
0.108706
-0.220236
-0.219538
-0.218868
-0.218227
-0.217602
-0.216965
-0.216294
-0.215564
-0.214767
-0.213905
-0.212987
-0.212024
-0.211028
-0.21001
-0.20898
-0.207949
-0.206935
-0.205935
-0.20494
-0.203937
-0.202915
-0.201859
-0.200753
-0.199591
-0.198361
-0.197053
-0.195659
-0.194175
-0.192595
-0.190917
-0.18914
-0.187253
-0.185238
-0.183071
-0.180742
-0.178227
-0.175497
-0.172526
-0.169288
-0.165778
-0.162018
-0.158058
-0.153941
-0.14973
-0.145519
-0.141386
-0.137387
-0.133562
-0.129923
-0.126462
-0.123158
-0.119986
-0.116922
-0.113944
-0.111029
-0.108164
-0.105336
-0.102531
-0.0997341
-0.0969296
-0.0941058
-0.0912545
-0.0883734
-0.0854712
-0.0825578
-0.079634
-0.0766945
-0.0737295
-0.0707256
-0.0676578
-0.0644799
-0.061132
-0.0575275
-0.0535585
-0.0491196
-0.0441198
-0.0385402
-0.0324274
-0.0258835
-0.0190173
-0.0121854
-0.0102237
-0.00808861
-0.00544348
-0.00250171
0.000581123
0.00372788
0.00690451
0.0100967
0.0132982
0.0165062
0.0197183
0.0229326
0.0261466
0.0293583
0.0325656
0.0357671
0.0389619
0.0421498
0.045331
0.0485063
0.0516767
0.0548431
0.0580068
0.0611688
0.06433
0.0674911
0.0706529
0.0738157
0.0769799
0.0801457
0.0833133
0.0864826
0.0896536
0.0928262
0.0960003
0.0991757
0.102352
0.105529
0.108707
-0.220458
-0.220211
-0.220012
-0.219867
-0.219756
-0.21964
-0.219474
-0.219216
-0.218849
-0.21837
-0.217787
-0.217114
-0.216366
-0.215552
-0.214685
-0.213784
-0.21287
-0.211948
-0.21102
-0.210071
-0.209092
-0.208057
-0.206948
-0.205753
-0.204464
-0.203069
-0.201564
-0.199945
-0.198211
-0.196362
-0.194401
-0.192322
-0.190108
-0.187726
-0.185174
-0.182431
-0.179458
-0.176218
-0.172678
-0.168842
-0.164763
-0.16054
-0.156216
-0.1518
-0.147342
-0.142986
-0.1388
-0.134817
-0.131034
-0.127431
-0.12398
-0.120655
-0.117436
-0.114307
-0.111259
-0.108282
-0.105368
-0.102513
-0.099691
-0.0968696
-0.0940199
-0.0911234
-0.0881709
-0.0851723
-0.0821699
-0.0792052
-0.0763
-0.0734644
-0.0706902
-0.067943
-0.0651758
-0.0623018
-0.0591732
-0.0556184
-0.0514882
-0.0466834
-0.0412233
-0.0352486
-0.0290127
-0.0228777
-0.0174352
-0.0132247
-0.00962315
-0.00620353
-0.0028586
0.00043743
0.00369692
0.00693128
0.0101508
0.0133635
0.0165744
0.0197858
0.0229982
0.0262103
0.0294204
0.0326265
0.0358269
0.0390206
0.0422071
0.0453866
0.0485598
0.0517276
0.0548912
0.0580518
0.0612105
0.0643682
0.0675259
0.0706842
0.0738437
0.0770047
0.0801674
0.0833321
0.0864987
0.0896671
0.0928374
0.0960092
0.0991824
0.102357
0.105532
0.108708
-0.220598
-0.220654
-0.220814
-0.221095