/*--------------------------------*- C++ -*----------------------------------*\
  =========                 |
  \\      /  F ield         | OpenFOAM: The Open Source CFD Toolbox
   \\    /   O peration     | Website:  https://openfoam.org
    \\  /    A nd           | Version:  6
     \\/     M anipulation  |
\*---------------------------------------------------------------------------*/
FoamFile
{
    version     2.0;
    format      ascii;
    class       surfaceScalarField;
    location    "500";
    object      phi;
}
// * * * * * * * * * * * * * * * * * * * * * * * * * * * * * * * * * * * * * //

dimensions      [0 3 -1 0 0 0 0];

internalField   nonuniform List<scalar> 
9440
(
-1.80522e-10
1.80522e-10
-4.29061e-10
2.4854e-10
-6.2852e-10
1.9946e-10
-8.53526e-10
2.25007e-10
-9.96e-10
1.42475e-10
-1.19482e-09
1.98823e-10
-1.36436e-09
1.69535e-10
-1.53711e-09
1.7275e-10
-1.67121e-09
1.34109e-10
-1.90878e-09
2.37561e-10
-2.09755e-09
1.88775e-10
-2.31715e-09
2.19599e-10
-2.49702e-09
1.79867e-10
-2.7028e-09
2.05783e-10
-2.89319e-09
1.90391e-10
-3.11319e-09
2.19993e-10
-3.28043e-09
1.6724e-10
-3.45448e-09
1.74045e-10
-3.61824e-09
1.6376e-10
-3.73909e-09
1.20845e-10
-3.86227e-09
1.23177e-10
-3.92921e-09
6.69407e-11
-3.98556e-09
5.63451e-11
-3.96549e-09
-2.00761e-11
-3.94553e-09
-1.99596e-11
-3.92885e-09
-1.6678e-11
-3.89994e-09
-2.89079e-11
-3.87614e-09
-2.3802e-11
-3.82372e-09
-5.24218e-11
-3.74574e-09
-7.79783e-11
-3.74455e-09
-1.19007e-12
-3.66727e-09
-7.72796e-11
-3.49055e-09
-1.76722e-10
-3.23207e-09
-2.58479e-10
-2.9277e-09
-3.04366e-10
-2.66762e-09
-2.60087e-10
-2.37125e-09
-2.96373e-10
-1.85409e-09
-5.17165e-10
-1.53348e-09
-3.20613e-10
-1.43219e-09
-1.01292e-10
-9.28276e-10
-5.03912e-10
-4.36701e-10
-4.91575e-10
-2.04155e-10
-2.32547e-10
-1.46198e-10
-5.79573e-11
-8.44675e-11
-6.17298e-11
-1.54906e-10
7.04386e-11
-3.20163e-10
1.65257e-10
-4.06868e-10
8.67051e-11
-4.96395e-10
8.9527e-11
-5.88247e-10
9.18524e-11
-6.70899e-10
8.26526e-11
-8.36493e-10
1.65594e-10
-1.01572e-09
1.79228e-10
-1.17332e-09
1.57601e-10
-1.29857e-09
1.25243e-10
-1.38767e-09
8.91009e-11
-1.44723e-09
5.95634e-11
-1.46025e-09
1.30243e-11
-1.43382e-09
-2.64224e-11
-1.39145e-09
-4.23702e-11
-1.33574e-09
-5.57046e-11
-1.24229e-09
-9.34446e-11
-1.08427e-09
-1.58013e-10
-9.90436e-10
-9.3833e-11
-9.59732e-10
-3.07017e-11
-7.04802e-10
-2.54928e-10
-6.93361e-10
-1.14408e-11
-4.83728e-10
-2.09633e-10
-3.63458e-10
-1.20272e-10
-2.33897e-10
-1.29563e-10
-1.2482e-10
-1.09079e-10
-5.96385e-11
-6.51844e-11
-7.12451e-11
1.16039e-11
-1.10148e-10
3.89004e-11
-2.82188e-10
1.72037e-10
-4.42416e-10
1.60225e-10
-5.65081e-10
1.22664e-10
-4.55163e-10
-1.0992e-10
-3.10992e-10
-1.44171e-10
1.1573e-15
-3.10994e-10
1.43485e-18
-1.01816e-18
1.93785e-18
-5.03003e-19
2.32957e-18
-3.9294e-19
2.68742e-18
-3.59582e-19
3.02298e-18
-3.37416e-19
3.33484e-18
-3.13536e-19
3.61966e-18
-2.86492e-19
3.8737e-18
-2.56212e-19
4.09451e-18
-2.23858e-19
4.28077e-18
-1.90199e-19
4.43197e-18
-1.55923e-19
4.54817e-18
-1.21568e-19
4.62999e-18
-8.75746e-20
4.67856e-18
-5.44183e-20
4.69507e-18
-2.25214e-20
4.68091e-18
7.8999e-21
4.63808e-18
3.67103e-20
4.56892e-18
6.36881e-20
4.47571e-18
8.85995e-20
4.36061e-18
1.11394e-19
4.22592e-18
1.32216e-19
4.07414e-18
1.51185e-19
3.90756e-18
1.68203e-19
3.7279e-18
1.83029e-19
3.53633e-18
1.9555e-19
3.33392e-18
2.05925e-19
3.12201e-18
2.14491e-19
2.90217e-18
2.21589e-19
2.67596e-18
2.27486e-19
2.44475e-18
2.3241e-19
2.20963e-18
2.36568e-19
1.97147e-18
2.40121e-19
1.73081e-18
2.43144e-19
1.48802e-18
2.45639e-19
1.24329e-18
2.47581e-19
9.96858e-19
2.4899e-19
7.49011e-19
2.49949e-19
5.00084e-19
2.50583e-19
2.50369e-19
2.51022e-19
2.51451e-19
-1.98447e-10
3.78971e-10
-4.49389e-10
4.99484e-10
-7.07942e-10
4.58015e-10
-7.75417e-10
2.92483e-10
-1.11284e-09
4.79897e-10
-1.13061e-09
2.16597e-10
-1.33743e-09
3.76358e-10
-1.48041e-09
3.15728e-10
-1.67439e-09
3.28083e-10
-1.86024e-09
4.23414e-10
-2.04324e-09
3.71773e-10
-2.22141e-09
3.97769e-10
-2.42505e-09
3.83505e-10
-2.61901e-09
3.99741e-10
-2.82817e-09
3.99542e-10
-2.99482e-09
3.86645e-10
-3.18248e-09
3.54889e-10
-3.34209e-09
3.33656e-10
-3.46922e-09
2.90875e-10
-3.59141e-09
2.43035e-10
-3.66284e-09
1.94608e-10
-3.70792e-09
1.12018e-10
-3.7439e-09
9.23196e-11
-3.67255e-09
-9.14276e-11
-3.681e-09
-1.15124e-11
-3.70164e-09
3.95648e-12
-3.69777e-09
-3.27681e-11
-3.68264e-09
-3.89368e-11
-3.58964e-09
-1.4542e-10
-3.48807e-09
-1.79545e-10
-3.4443e-09
-4.49686e-11
-3.34971e-09
-1.71865e-10
-3.25867e-09
-2.67767e-10
-3.13684e-09
-3.80316e-10
-2.88335e-09
-5.57852e-10
-2.44335e-09
-7.00099e-10
-2.05102e-09
-6.88703e-10
-1.87731e-09
-6.90876e-10
-1.55125e-09
-6.4668e-10
-1.06354e-09
-5.89006e-10
-6.57268e-10
-9.10182e-10
-3.56459e-10
-7.92385e-10
-1.27541e-10
-4.61464e-10
7.57073e-12
-1.93069e-10
3.72539e-11
-9.14122e-11
-1.00552e-10
2.08245e-10
-2.63512e-10
3.28218e-10
-3.78178e-10
2.01372e-10
-4.82286e-10
1.93635e-10
-5.71153e-10
1.8072e-10
-6.82833e-10
1.94332e-10
-8.35782e-10
3.18544e-10
-9.99003e-10
3.42451e-10
-1.1491e-09
3.07699e-10
-1.24774e-09
2.23892e-10
-1.33512e-09
1.7648e-10
-1.39296e-09
1.17411e-10
-1.41679e-09
3.68598e-11
-1.4345e-09
-8.70797e-12
-1.40661e-09
-7.02486e-11
-1.32661e-09
-1.35699e-10
-1.22697e-09
-1.93084e-10
-1.06234e-09
-3.22629e-10
-9.98371e-10
-1.57801e-10
-9.27972e-10
-1.01098e-10
-7.42189e-10
-4.4071e-10
-5.93891e-10
-1.59739e-10
-4.3544e-10
-3.68086e-10
-2.77071e-10
-2.78643e-10
-1.33258e-10
-2.73381e-10
-4.65357e-12
-2.37687e-10
1.1841e-10
-1.88253e-10
2.25737e-10
-9.57284e-11
3.4028e-10
-7.56472e-11
4.91444e-10
2.08702e-11
6.9167e-10
-4.00031e-11
8.35646e-10
-2.13128e-11
7.68803e-10
-4.30773e-11
4.87643e-10
1.36988e-10
8.5623e-16
1.76649e-10
1.92048e-18
-2.79754e-19
2.04316e-18
-6.27063e-19
2.35945e-18
-7.12308e-19
2.70738e-18
-7.10731e-19
3.0459e-18
-6.7923e-19
3.36204e-18
-6.33305e-19
3.64994e-18
-5.78701e-19
3.90605e-18
-5.17678e-19
4.12817e-18
-4.52635e-19
4.31504e-18
-3.84953e-19
4.46633e-18
-3.15866e-19
4.58216e-18
-2.46525e-19
4.66315e-18
-1.77951e-19
4.71045e-18
-1.11023e-19
4.72549e-18
-4.6403e-20
4.70972e-18
1.53682e-20
4.66505e-18
7.38156e-20
4.59384e-18
1.28603e-19
4.49851e-18
1.79555e-19
4.38143e-18
2.26542e-19
4.24489e-18
2.69324e-19
4.09116e-18
3.07553e-19
3.92239e-18
3.40947e-19
3.74042e-18
3.695e-19
3.5467e-18
3.9356e-19
3.34248e-18
4.13722e-19
3.1291e-18
4.30655e-19
2.90807e-18
4.44961e-19
2.68088e-18
4.57117e-19
2.4489e-18
4.67465e-19
2.21319e-18
4.76212e-19
1.97449e-18
4.83466e-19
1.73331e-18
4.89292e-19
1.48996e-18
4.93772e-19
1.2447e-18
4.97058e-19
9.97817e-19
4.99377e-19
7.49645e-19
5.00985e-19
5.00523e-19
5.02095e-19
2.50797e-19
5.02828e-19
5.03235e-19
-2.36526e-10
6.15498e-10
-4.66286e-10
7.29246e-10
-6.65221e-10
6.56952e-10
-8.31565e-10
4.58828e-10
-9.98467e-10
6.46801e-10
-1.12681e-09
3.44946e-10
-1.34655e-09
5.96091e-10
-1.49648e-09
4.65664e-10
-1.69627e-09
5.27872e-10
-1.81084e-09
5.37986e-10
-1.9793e-09
5.40225e-10
-2.15072e-09
5.69192e-10
-2.32085e-09
5.53628e-10
-2.51172e-09
5.90613e-10
-2.65875e-09
5.46564e-10
-2.82983e-09
5.57723e-10
-2.9562e-09
4.8126e-10
-3.10778e-09
4.85223e-10
-3.17643e-09
3.59529e-10
-3.26728e-09
3.33872e-10
-3.32025e-09
2.47576e-10
-3.34021e-09
1.31981e-10
-3.31278e-09
6.48834e-11
-3.28842e-09
-1.15784e-10
-3.22465e-09
-7.5284e-11
-3.16552e-09
-5.51818e-11
-3.11046e-09
-8.782e-11
-3.04565e-09
-1.03756e-10
-2.9375e-09
-2.53563e-10
-2.85232e-09
-2.64732e-10
-2.7788e-09
-1.18491e-10
-2.72543e-09
-2.25236e-10
-2.69276e-09
-3.00437e-10
-2.6659e-09
-4.07181e-10
-2.59343e-09
-6.30326e-10
-2.40231e-09
-8.91217e-10
-2.01599e-09
-1.07503e-09
-1.77938e-09
-9.27492e-10
-1.37647e-09
-1.04959e-09
-8.00224e-10
-1.16525e-09
-5.73684e-10
-1.13672e-09
-3.94358e-10
-9.71711e-10
-2.0892e-10
-6.46901e-10
-1.25338e-11
-3.89453e-10
8.40711e-11
-1.88015e-10
-3.69709e-11
3.29289e-10
-1.74554e-10
4.65804e-10
-3.31106e-10
3.57925e-10
-4.51976e-10
3.14508e-10
-5.49793e-10
2.78539e-10
-7.03188e-10
3.4773e-10
-8.23783e-10
4.39141e-10
-9.50951e-10
4.69622e-10
-1.07947e-09
4.36221e-10
-1.19792e-09
3.42351e-10
-1.27766e-09
2.56216e-10
-1.32002e-09
1.59783e-10
-1.33297e-09
4.98063e-11
-1.36638e-09
2.47089e-11
-1.31717e-09
-1.19457e-10
-1.21905e-09
-2.33817e-10
-1.15978e-09
-2.5235e-10
-1.10278e-09
-3.79622e-10
-9.97496e-10
-2.63086e-10
-7.69083e-10
-3.29511e-10
-6.93048e-10
-5.16745e-10
-4.33545e-10
-4.19244e-10
-3.09494e-10
-4.9214e-10
-1.52156e-10
-4.35984e-10
-2.9622e-11
-3.95918e-10
5.27306e-11
-3.20044e-10
1.43977e-10
-2.79502e-10
2.43865e-10
-1.9562e-10
3.4057e-10
-1.72355e-10
4.401e-10
-7.86623e-11
5.22437e-10
-1.22342e-10
6.18882e-10
-1.17759e-10
4.47242e-10
1.28561e-10
2.02146e-10
3.82081e-10
6.73324e-16
3.78793e-10
1.48665e-18
-1.22309e-18
1.95867e-18
-1.10035e-18
2.36178e-18
-1.11775e-18
2.73962e-18
-1.09106e-18
3.09257e-18
-1.03465e-18
3.41732e-18
-9.60539e-19
3.71096e-18
-8.74982e-19
3.9711e-18
-7.80827e-19
4.19585e-18
-6.80937e-19
4.38413e-18
-5.77207e-19
4.53567e-18
-4.71451e-19
4.65074e-18
-3.65392e-19
4.73008e-18
-2.60649e-19
4.77507e-18
-1.58752e-19
4.78726e-18
-6.08307e-20
4.76817e-18
3.23795e-20
4.71984e-18
1.20288e-19
4.64479e-18
2.02327e-19
4.54549e-18
2.7803e-19
4.42421e-18
3.47127e-19
4.28312e-18
4.09525e-19
4.12455e-18
4.6519e-19
3.95094e-18
5.14109e-19
3.76448e-18
5.56402e-19
3.56687e-18
5.92471e-19
3.35942e-18
6.23006e-19
3.14341e-18
6.4882e-19
2.92022e-18
6.70661e-19
2.69123e-18
6.89104e-19
2.45765e-18
7.04561e-19
2.22044e-18
7.17328e-19
1.98032e-18
7.27646e-19
1.73779e-18
7.35751e-19
1.49324e-18
7.41919e-19
1.24702e-18
7.46481e-19
9.99425e-19
7.49791e-19
7.50755e-19
7.5217e-19
5.01256e-19
7.53842e-19
2.51203e-19
7.54935e-19
7.55506e-19
-3.40421e-10
9.5592e-10
-5.33238e-10
9.22066e-10
-6.75467e-10
7.99183e-10
-8.54872e-10
6.38234e-10
-9.36366e-10
7.28297e-10
-1.08753e-09
4.9611e-10
-1.24892e-09
7.57486e-10
-1.43061e-09
6.4735e-10
-1.61343e-09
7.10697e-10
-1.75841e-09
6.82964e-10
-1.88605e-09
6.67866e-10
-2.03944e-09
7.22581e-10
-2.16403e-09
6.78211e-10
-2.3005e-09
7.27083e-10
-2.43569e-09
6.81748e-10
-2.5543e-09
6.76325e-10
-2.66033e-09
5.87292e-10
-2.73846e-09
5.63346e-10
-2.80956e-09
4.30621e-10
-2.84987e-09
3.74187e-10
-2.89454e-09
2.92236e-10
-2.88411e-09
1.21551e-10
-2.80842e-09
-1.08109e-11
-2.84801e-09
-7.61939e-11
-2.76385e-09
-1.59445e-10
-2.67296e-09
-1.4608e-10
-2.60123e-09
-1.59551e-10
-2.52528e-09
-1.79705e-10
-2.52969e-09
-2.49155e-10
-2.45757e-09
-3.36847e-10
-2.31219e-09
-2.63878e-10
-2.23961e-09
-2.97815e-10
-2.18044e-09
-3.59614e-10
-2.18226e-09
-4.05361e-10
-2.16117e-09
-6.51416e-10
-2.12168e-09
-9.3071e-10
-2.07819e-09
-1.11852e-09
-1.6173e-09
-1.38838e-09
-1.219e-09
-1.4479e-09
-9.0473e-10
-1.47952e-09
-6.67755e-10
-1.3737e-09
-4.97108e-10
-1.14236e-09
-2.90932e-10
-8.53074e-10
-1.30242e-10
-5.50141e-10
-9.68488e-11
-2.21406e-10
-5.56977e-11
2.88142e-10
-1.21724e-10
5.31833e-10
-2.14487e-10
4.50691e-10
-3.57685e-10
4.5771e-10
-5.00451e-10
4.21309e-10
-6.05323e-10
4.52606e-10
-7.29726e-10
5.63548e-10
-8.55049e-10
5.94949e-10
-9.74424e-10
5.55601e-10
-1.08685e-09
4.54783e-10
-1.17971e-09
3.49082e-10
-1.22772e-09
2.07788e-10
-1.2455e-09
6.7589e-11
-1.23097e-09
1.01825e-11
-1.20119e-09
-1.49229e-10
-1.15997e-09
-2.75043e-10
-1.06925e-09
-3.43064e-10
-1.07587e-09
-3.73003e-10
-8.84473e-10
-4.54486e-10
-6.77787e-10
-5.36199e-10
-5.64648e-10
-6.29884e-10
-3.41547e-10
-6.42349e-10
-2.36608e-10
-5.97082e-10
-5.27561e-11
-6.19839e-10
8.76742e-11
-5.36352e-10
2.06411e-10
-4.38784e-10
2.50428e-10
-3.23522e-10
1.76234e-10
-1.21428e-10
-4.46959e-11
4.85732e-11
-3.10273e-10
1.86914e-10
-5.5118e-10
1.18563e-10
-6.68641e-10
-2.98607e-13
-4.68868e-10
-7.12132e-11
-2.42029e-10
1.55239e-10
5.0911e-16
1.36761e-10
1.48191e-18
-1.44753e-18
1.94197e-18
-1.56175e-18
2.38918e-18
-1.56673e-18
2.79673e-18
-1.50026e-18
3.16739e-18
-1.40694e-18
3.50352e-18
-1.29824e-18
3.80512e-18
-1.17798e-18
4.07099e-18
-1.04794e-18
4.29958e-18
-9.10757e-19
4.48989e-18
-7.68661e-19
4.64173e-18
-6.24073e-19
4.75548e-18
-4.794e-19
4.83198e-18
-3.36876e-19
4.87299e-18
-1.98663e-19
4.88047e-18
-6.64728e-20
4.85607e-18
5.85409e-20
4.80188e-18
1.75598e-19
4.72049e-18
2.84117e-19
4.61459e-18
3.83695e-19
4.48661e-18
4.74162e-19
4.33879e-18
5.55587e-19
4.17347e-18
6.28195e-19
3.99323e-18
6.92248e-19
3.80055e-18
7.48046e-19
3.5974e-18
7.96022e-19
3.38523e-18
8.36829e-19
3.16525e-18
8.7128e-19
2.93867e-18
9.00207e-19
2.70669e-18
9.24338e-19
2.47042e-18
9.4426e-19
2.23076e-18
9.6046e-19
1.98842e-18
9.73376e-19
1.74396e-18
9.83444e-19
1.49781e-18
9.91118e-19
1.25033e-18
9.96857e-19
1.0018e-18
1.00109e-18
7.52428e-19
1.00416e-18
5.02349e-19
1.00632e-18
2.51774e-19
1.00771e-18
1.00842e-18
-2.15113e-10
1.17103e-09
-3.93353e-10
1.10031e-09
-6.09109e-10
1.01494e-09
-8.49222e-10
8.78349e-10
-9.30323e-10
8.09399e-10
-1.06731e-09
6.33101e-10
-1.18702e-09
8.77189e-10
-1.37002e-09
8.30357e-10
-1.53555e-09
8.76218e-10
-1.66101e-09
8.08432e-10
-1.82143e-09
8.28282e-10
-1.88929e-09
7.90433e-10
-2.01099e-09
7.99914e-10
-2.07603e-09
7.92118e-10
-2.17665e-09
7.8236e-10
-2.23855e-09
7.38222e-10
-2.31233e-09
6.61073e-10
-2.36214e-09
6.13147e-10
-2.4402e-09
5.08678e-10
-2.47601e-09
4.09994e-10
-2.47836e-09
2.94587e-10
-2.49637e-09
1.39555e-10
-2.40495e-09
-1.02225e-10
-2.41772e-09
-6.34327e-11
-2.38984e-09
-1.87323e-10
-2.35803e-09
-1.77894e-10
-2.28061e-09
-2.36971e-10
-2.19579e-09
-2.64524e-10
-2.21678e-09
-2.28172e-10
-2.14344e-09
-4.1018e-10
-2.07118e-09
-3.36144e-10
-2.00448e-09
-3.64519e-10
-1.941e-09
-4.23091e-10
-1.9214e-09
-4.24966e-10
-1.97186e-09
-6.00958e-10
-1.97166e-09
-9.30914e-10
-1.82756e-09
-1.26262e-09
-1.64536e-09
-1.57057e-09
-1.41277e-09
-1.68048e-09
-1.11552e-09
-1.77677e-09
-7.81815e-10
-1.7074e-09
-5.41633e-10
-1.38254e-09
-3.7256e-10
-1.02214e-09
-2.91384e-10
-6.31314e-10
-2.30315e-10
-2.82471e-10
-5.05004e-11
1.0833e-10
1.22623e-11
4.69075e-10
-9.11515e-11
5.5411e-10
-2.70555e-10
6.37117e-10
-4.81257e-10
6.32016e-10
-6.59743e-10
6.31096e-10
-7.43473e-10
6.47284e-10
-8.1534e-10
6.66821e-10
-8.98121e-10
6.38387e-10
-9.81398e-10
5.38065e-10
-1.06247e-09
4.30162e-10
-1.12308e-09
2.68398e-10
-1.15854e-09
1.03046e-10
-1.14947e-09
1.12067e-12
-1.15799e-09
-1.40709e-10
-1.13558e-09
-2.97455e-10
-1.0647e-09
-4.13948e-10
-9.7711e-10
-4.60599e-10
-8.50509e-10
-5.81091e-10
-6.59383e-10
-7.27328e-10
-5.08652e-10
-7.80618e-10
-3.9317e-10
-7.57833e-10
-2.60553e-10
-7.29703e-10
-9.38113e-11
-7.86584e-10
4.31232e-11
-6.73289e-10
1.74162e-10
-5.69824e-10
2.71178e-10
-4.20539e-10
3.58732e-10
-2.08984e-10
3.64321e-10
4.29833e-11
3.41022e-10
2.10212e-10
9.40459e-11
3.65538e-10
-4.0806e-10
5.01806e-10
-6.1805e-10
1.38777e-10
-3.52464e-10
-1.10349e-10
6.14959e-17
-2.15704e-10
1.21268e-18
-2.84588e-18
1.93765e-18
-2.28778e-18
2.45629e-18
-2.08656e-18
2.8907e-18
-1.93578e-18
3.27675e-18
-1.79405e-18
3.62437e-18
-1.64688e-18
3.93516e-18
-1.48961e-18
4.20817e-18
-1.32147e-18
4.44168e-18
-1.1447e-18
4.63447e-18
-9.61916e-19
4.7864e-18
-7.7621e-19
4.898e-18
-5.90751e-19
4.97019e-18
-4.085e-19
5.00518e-18
-2.32347e-19
5.00548e-18
-6.46103e-20
4.97313e-18
9.3147e-20
4.9104e-18
2.39971e-19
4.82007e-18
3.75316e-19
4.70506e-18
4.98932e-19
4.56804e-18
6.1082e-19
4.41139e-18
7.11204e-19
4.23752e-18
8.00484e-19
4.04903e-18
8.79146e-19
3.84853e-18
9.477e-19
3.63821e-18
1.00672e-18
3.41968e-18
1.05691e-18
3.19418e-18
1.09914e-18
2.9628e-18
1.13433e-18
2.72661e-18
1.16338e-18
2.48662e-18
1.1871e-18
2.24367e-18
1.2062e-18
1.99849e-18
1.2213e-18
1.75163e-18
1.23303e-18
1.50355e-18
1.24195e-18
1.25456e-18
1.24865e-18
1.00488e-18
1.25359e-18
7.54582e-19
1.25718e-18
5.03738e-19
1.25968e-18
2.52486e-19
1.26129e-18
1.26211e-18
-2.13396e-10
1.38443e-09
-3.59159e-10
1.24607e-09
-4.86589e-10
1.14237e-09
-6.95454e-10
1.08722e-09
-8.83278e-10
9.97224e-10
-1.10439e-09
8.54216e-10
-1.18987e-09
9.62664e-10
-1.28676e-09
9.27253e-10
-1.36278e-09
9.52229e-10
-1.47375e-09
9.194e-10
-1.58432e-09
9.38852e-10
-1.69252e-09
8.9863e-10
-1.77633e-09
8.8372e-10
-1.83901e-09
8.54804e-10
-1.8689e-09
8.12245e-10
-1.93363e-09
8.02952e-10
-1.99467e-09
7.22112e-10
-2.03501e-09
6.53478e-10
-2.10145e-09
5.75114e-10
-2.11465e-09
4.23202e-10
-2.12423e-09
3.04163e-10
-2.12109e-09
1.36407e-10
-2.11284e-09
-1.10475e-10
-2.09712e-09
-7.91556e-11
-2.11525e-09
-1.69189e-10
-2.1005e-09
-1.92651e-10
-2.03935e-09
-2.98116e-10
-2.01137e-09
-2.9251e-10
-1.97476e-09
-2.64777e-10
-1.95235e-09
-4.32589e-10
-1.86406e-09
-4.24441e-10
-1.78877e-09
-4.39802e-10
-1.74658e-09
-4.6528e-10
-1.72603e-09
-4.45517e-10
-1.81544e-09
-5.11556e-10
-1.86083e-09
-8.85524e-10
-1.74757e-09
-1.37588e-09
-1.67703e-09
-1.64112e-09
-1.54719e-09
-1.81032e-09
-1.37302e-09
-1.95094e-09
-1.10688e-09
-1.97354e-09
-7.61582e-10
-1.72783e-09
-5.64492e-10
-1.21923e-09
-3.48579e-10
-8.47225e-10
-2.08471e-10
-4.22576e-10
-4.43481e-11
-5.579e-11
8.26917e-11
3.42038e-10
7.71913e-11
5.59614e-10
-7.32247e-12
7.21635e-10
-2.49996e-10
8.74694e-10
-4.55313e-10
8.36418e-10
-6.008e-10
7.92777e-10
-7.31845e-10
7.97873e-10
-8.21207e-10
7.27753e-10
-8.78177e-10
5.95041e-10
-9.34627e-10
4.86616e-10
-1.03339e-09
3.67162e-10
-1.07528e-09
1.44943e-10
-1.08758e-09
1.34206e-11
-1.09528e-09
-1.33015e-10
-1.08443e-09
-3.08304e-10
-1.04717e-09
-4.51216e-10
-9.24713e-10
-5.83059e-10
-7.93957e-10
-7.11852e-10
-7.15091e-10
-8.06198e-10
-5.81705e-10
-9.14007e-10
-3.82631e-10
-9.56909e-10
-2.0858e-10
-9.03755e-10
-9.0962e-11
-9.04203e-10
-2.53205e-12
-7.61719e-10
8.56336e-11
-6.5799e-10
2.02386e-10
-5.37291e-10
3.97153e-10
-4.03751e-10
4.6794e-10
-2.78038e-11
4.84602e-10
1.93551e-10
4.32909e-10
4.17231e-10
4.35593e-10
4.99122e-10
2.29196e-10
3.45173e-10
1.13466e-11
1.075e-10
-5.89876e-16
-2.04356e-10
1.60194e-18
-3.46444e-18
2.13945e-18
-2.82595e-18
2.60767e-18
-2.5553e-18
3.03304e-18
-2.36188e-18
3.42453e-18
-2.18641e-18
3.7822e-18
-2.00554e-18
4.1033e-18
-1.81169e-18
4.38493e-18
-1.60391e-18
4.62447e-18
-1.38511e-18
4.82018e-18
-1.15893e-18
4.97186e-18
-9.29479e-19
5.08025e-18
-7.00768e-19
5.14634e-18
-4.76459e-19
5.17292e-18
-2.60165e-19
5.16324e-18
-5.48735e-20
5.11995e-18
1.37358e-19
5.04575e-18
3.15312e-19
4.94368e-18
4.78425e-19
4.81695e-18
6.26603e-19
4.66842e-18
7.60065e-19
4.50067e-18
8.79234e-19
4.31619e-18
9.84693e-19
4.11758e-18
1.07715e-18
3.90755e-18
1.15738e-18
3.6884e-18
1.22623e-18
3.46191e-18
1.2846e-18
3.22937e-18
1.3335e-18
2.99185e-18
1.374e-18
2.75033e-18
1.40715e-18
2.50571e-18
1.43397e-18
2.25878e-18
1.45535e-18
2.01021e-18
1.47211e-18
1.76056e-18
1.48502e-18
1.51024e-18
1.4948e-18
1.25951e-18
1.50209e-18
1.00846e-18
1.50746e-18
7.57084e-19
1.51134e-18
5.05344e-19
1.51404e-18
2.53306e-19
1.51577e-18
1.51665e-18
-1.64399e-10
1.54883e-09
-3.21636e-10
1.40331e-09
-4.57905e-10
1.27864e-09
-5.71759e-10
1.20107e-09
-6.99979e-10
1.12544e-09
-8.82759e-10
1.037e-09
-1.03853e-09
1.11843e-09
-1.17995e-09
1.06868e-09
-1.24213e-09
1.0144e-09
-1.38953e-09
1.0668e-09
-1.40862e-09
9.57943e-10
-1.45214e-09
9.42141e-10
-1.48758e-09
9.19168e-10
-1.57245e-09
9.39671e-10
-1.63592e-09
8.75708e-10
-1.66729e-09
8.34321e-10
-1.71192e-09
7.6675e-10
-1.72949e-09
6.71045e-10
-1.77093e-09
6.16552e-10
-1.77989e-09
4.32156e-10
-1.80277e-09
3.2705e-10
-1.84243e-09
1.76059e-10
-1.90736e-09
-4.55406e-11
-1.86635e-09
-1.20167e-10
-1.8638e-09
-1.7174e-10
-1.8635e-09
-1.92955e-10
-1.87577e-09
-2.85853e-10
-1.87211e-09
-2.96169e-10
-1.78163e-09
-3.55261e-10
-1.75473e-09
-4.59488e-10
-1.69831e-09
-4.80857e-10
-1.65595e-09
-4.82161e-10
-1.62989e-09
-4.91341e-10
-1.57672e-09
-4.98689e-10
-1.57924e-09
-5.0903e-10
-1.68284e-09
-7.81924e-10
-1.74688e-09
-1.31184e-09
-1.68086e-09
-1.70713e-09
-1.56287e-09
-1.92832e-09
-1.41136e-09
-2.10245e-09
-1.2432e-09
-2.1417e-09
-9.42971e-10
-2.02806e-09
-6.37367e-10
-1.52484e-09
-4.58084e-10
-1.02651e-09
-2.39391e-10
-6.41268e-10
-4.17727e-11
-2.53408e-10
8.86323e-11
2.11635e-10
1.18205e-10
5.30044e-10
5.38996e-11
7.85943e-10
-1.27356e-10
1.05595e-09
-3.20528e-10
1.02959e-09
-4.85439e-10
9.57692e-10
-5.82765e-10
8.95204e-10
-6.79764e-10
8.24757e-10
-7.99927e-10
7.15209e-10
-8.54607e-10
5.413e-10
-9.15299e-10
4.27857e-10
-1.0038e-09
2.33446e-10
-1.02262e-09
3.22368e-11
-1.04752e-09
-1.08114e-10
-1.02206e-09
-3.33761e-10
-9.84593e-10
-4.88688e-10
-9.15206e-10
-6.52449e-10
-8.09818e-10
-8.17244e-10
-6.96733e-10
-9.19286e-10
-5.6511e-10
-1.04563e-09
-4.77373e-10
-1.04465e-09
-3.18522e-10
-1.06261e-09
-1.93682e-10
-1.02904e-09
-6.16178e-11
-8.93783e-10
7.93938e-11
-7.99e-10
2.07088e-10
-6.64984e-10
3.35202e-10
-5.31864e-10
4.99818e-10
-1.92417e-10
5.7934e-10
1.1403e-10
6.88587e-10
3.07985e-10
7.0031e-10
4.87399e-10
5.92766e-10
4.52717e-10
3.8846e-10
3.11807e-10
-1.08741e-15
1.84106e-10
2.07583e-18
-3.74337e-18
2.41061e-18
-3.16104e-18
2.80163e-18
-2.94622e-18
3.20907e-18
-2.76973e-18
3.60598e-18
-2.58396e-18
3.97655e-18
-2.37683e-18
4.31109e-18
-2.14701e-18
4.60372e-18
-1.89723e-18
4.85065e-18
-1.63289e-18
5.04963e-18
-1.35952e-18
5.20057e-18
-1.08278e-18
5.30456e-18
-8.07679e-19
5.36264e-18
-5.38559e-19
5.37821e-18
-2.79633e-19
5.35547e-18
-3.45381e-20
5.29791e-18
1.94094e-19
5.20886e-18
4.04658e-19
5.09186e-18
5.9646e-19
4.95041e-18
7.69539e-19
4.78759e-18
9.24417e-19
4.60613e-18
1.06185e-18
4.40864e-18
1.18272e-18
4.19782e-18
1.28799e-18
3.97639e-18
1.37874e-18
3.74677e-18
1.45613e-18
3.51081e-18
1.52138e-18
3.26986e-18
1.57572e-18
3.02501e-18
1.62041e-18
2.77715e-18
1.65668e-18
2.52709e-18
1.68571e-18
2.27554e-18
1.70859e-18
2.02312e-18
1.72631e-18
1.77033e-18
1.7398e-18
1.51753e-18
1.74991e-18
1.26488e-18
1.75739e-18
1.01234e-18
1.76284e-18
7.59786e-19
1.76676e-18
5.07075e-19
1.76947e-18
2.5418e-19
1.77119e-18
1.77203e-18
-1.19707e-10
1.66854e-09
-2.13379e-10
1.49699e-09
-3.16779e-10
1.38204e-09
-4.26184e-10
1.31048e-09
-5.85884e-10
1.28514e-09
-7.81766e-10
1.23288e-09
-8.96712e-10
1.23338e-09
-1.01956e-09
1.19152e-09
-1.05689e-09
1.05173e-09
-1.08579e-09
1.09571e-09
-1.2281e-09
1.10025e-09
-1.31334e-09
1.02739e-09
-1.35249e-09
9.58316e-10
-1.34722e-09
9.34398e-10
-1.333e-09
8.61486e-10
-1.38129e-09
8.82609e-10
-1.42985e-09
8.15319e-10
-1.45898e-09
7.00172e-10
-1.49768e-09
6.55249e-10
-1.54826e-09
4.82737e-10
-1.53676e-09
3.15547e-10
-1.59035e-09
2.2965e-10
-1.65382e-09
1.79323e-11
-1.68616e-09
-8.78361e-11
-1.71534e-09
-1.42559e-10
-1.69985e-09
-2.0844e-10
-1.68173e-09
-3.03973e-10
-1.67394e-09
-3.03963e-10
-1.67146e-09
-3.57738e-10
-1.62301e-09
-5.07937e-10
-1.56043e-09
-5.43438e-10
-1.50396e-09
-5.3863e-10
-1.44429e-09
-5.51009e-10
-1.39643e-09
-5.46548e-10
-1.36584e-09
-5.39622e-10
-1.44788e-09
-6.99881e-10
-1.54191e-09
-1.21781e-09
-1.55362e-09
-1.69543e-09
-1.45191e-09
-2.03002e-09
-1.29912e-09
-2.25525e-09
-1.13383e-09
-2.30698e-09
-9.44564e-10
-2.21733e-09
-7.31728e-10
-1.73767e-09
-4.9269e-10
-1.26555e-09
-2.44407e-10
-8.89552e-10
-9.046e-11
-4.07356e-10
6.41721e-11
5.70027e-11
7.57987e-11
5.18418e-10
5.96952e-11
8.02048e-10
-2.69457e-11
1.1426e-09
-1.66537e-10
1.16919e-09
-3.31079e-10
1.12224e-09
-4.7483e-10
1.03896e-09
-5.73543e-10
9.23474e-10
-6.80207e-10
8.21875e-10
-7.48985e-10
6.10082e-10
-7.92189e-10
4.71065e-10
-8.86915e-10
3.28175e-10
-9.43212e-10
8.85353e-11
-9.79156e-10
-7.21689e-11
-9.61234e-10
-3.51682e-10
-9.62715e-10
-4.87208e-10
-8.89539e-10
-7.25627e-10
-8.01778e-10
-9.05006e-10
-6.83023e-10
-1.03804e-09
-5.80653e-10
-1.148e-09
-4.29118e-10
-1.19618e-09
-2.49029e-10
-1.24269e-09
-1.6169e-10
-1.11638e-09
-5.76391e-11
-9.9783e-10
2.30718e-11
-8.79708e-10
1.27889e-10
-7.69798e-10
2.04929e-10
-6.08901e-10
4.24462e-10
-4.11947e-10
5.14334e-10
2.41598e-11
6.13193e-10
2.09127e-10
6.60038e-10
4.40553e-10
5.71757e-10
5.40996e-10
3.31709e-10
5.51855e-10
-1.14252e-15
5.15819e-10
2.5299e-18
-2.76061e-18
2.62591e-18
-3.25692e-18
2.97861e-18
-3.29831e-18
3.39535e-18
-3.18642e-18
3.81364e-18
-3.00226e-18
4.20682e-18
-2.76979e-18
4.56088e-18
-2.50062e-18
4.86805e-18
-2.20366e-18
5.12402e-18
-1.888e-18
5.32636e-18
-1.56177e-18
5.47568e-18
-1.23276e-18
5.57368e-18
-9.0717e-19
5.62156e-18
-5.90094e-19
5.62331e-18
-2.86102e-19
5.5841e-18
7.44799e-22
5.50847e-18
2.67321e-19
5.40066e-18
5.1163e-19
5.26494e-18
7.32779e-19
5.10528e-18
9.30873e-19
4.92503e-18
1.10675e-18
4.727e-18
1.26164e-18
4.51391e-18
1.39685e-18
4.28857e-18
1.51372e-18
4.05379e-18
1.61367e-18
3.81202e-18
1.6982e-18
3.56515e-18
1.76884e-18
3.31455e-18
1.82717e-18
3.06128e-18
1.87469e-18
2.80618e-18
1.91285e-18
2.54997e-18
1.94302e-18
2.29327e-18
1.96644e-18
2.03662e-18
1.98431e-18
1.78044e-18
1.99768e-18
1.525e-18
2.00754e-18
1.27033e-18
2.0147e-18
1.01626e-18
2.01984e-18
7.62496e-19
2.02346e-18
5.08793e-19
2.0259e-18
2.55019e-19
2.0274e-18
2.02808e-18
-1.4894e-10
1.81748e-09
-2.57987e-10
1.60603e-09
-4.24809e-10
1.54886e-09
-5.41629e-10
1.42729e-09
-5.92352e-10
1.33586e-09
-6.50012e-10
1.29053e-09
-7.12249e-10
1.29561e-09
-8.14089e-10
1.29336e-09
-9.6476e-10
1.2024e-09
-9.70917e-10
1.10186e-09
-9.58691e-10
1.08802e-09
-9.88387e-10
1.05708e-09
-1.0913e-09
1.06122e-09
-1.17849e-09
1.02159e-09
-1.23183e-09
9.14826e-10
-1.2625e-09
9.13279e-10
-1.29128e-09
8.44103e-10
-1.28945e-09
6.98342e-10
-1.23675e-09
6.02541e-10
-1.24203e-09
4.88023e-10
-1.28494e-09
3.58456e-10
-1.32925e-09
2.73955e-10
-1.43205e-09
1.20739e-10
-1.49053e-09
-2.93616e-11
-1.55079e-09
-8.23e-11
-1.54085e-09
-2.18377e-10
-1.5517e-09
-2.93133e-10
-1.55388e-09
-3.01785e-10
-1.50878e-09
-4.02832e-10
-1.47332e-09
-5.43397e-10
-1.4475e-09
-5.69259e-10
-1.39992e-09
-5.86216e-10
-1.31763e-09
-6.33294e-10
-1.25298e-09
-6.11192e-10
-1.17394e-09
-6.18662e-10
-1.17814e-09
-6.95682e-10
-1.2434e-09
-1.15256e-09
-1.31867e-09
-1.62016e-09
-1.31062e-09
-2.03807e-09
-1.20899e-09
-2.35689e-09
-1.07602e-09
-2.43996e-09
-9.01947e-10
-2.39141e-09
-6.49511e-10
-1.99011e-09
-4.567e-10
-1.45836e-09
-3.14596e-10
-1.03166e-09
-1.96602e-10
-5.25352e-10
-7.26707e-11
-6.69296e-11
-1.53236e-12
4.4728e-10
6.3361e-11
7.37156e-10
5.7636e-11
1.14832e-09
-1.07332e-10
1.33416e-09
-2.76195e-10
1.2911e-09
-4.10543e-10
1.17331e-09
-5.14198e-10
1.02713e-09
-5.5434e-10
8.6202e-10
-6.1289e-10
6.68634e-10
-6.65965e-10
5.24142e-10
-7.33833e-10
3.96044e-10
-8.66973e-10
2.21677e-10
-8.93705e-10
-4.54337e-11
-9.20981e-10
-3.24403e-10
-9.60054e-10
-4.48132e-10
-9.17397e-10
-7.68282e-10
-8.35587e-10
-9.86813e-10
-6.59284e-10
-1.21434e-09
-4.87451e-10
-1.31983e-09
-3.39836e-10
-1.34379e-09
-2.49405e-10
-1.33312e-09
-1.52174e-10
-1.2136e-09
-6.18174e-11
-1.08818e-09
1.34262e-11
-9.54948e-10
9.26776e-11
-8.49045e-10
1.85515e-10
-7.01735e-10
3.25138e-10
-5.51567e-10
4.54006e-10
-1.04707e-10
5.12873e-10
1.50259e-10
5.48389e-10
4.05034e-10
4.7008e-10
6.19303e-10
2.79241e-10
7.42694e-10
-4.89048e-16
7.95061e-10
1.98347e-18
-3.92495e-18
2.58497e-18
-3.85776e-18
3.09094e-18
-3.80353e-18
3.57996e-18
-3.6751e-18
4.04658e-18
-3.4684e-18
4.4764e-18
-3.19848e-18
4.85784e-18
-2.88035e-18
5.18372e-18
-2.52718e-18
5.45025e-18
-2.15153e-18
5.65538e-18
-1.7644e-18
5.80126e-18
-1.37618e-18
5.89076e-18
-9.94574e-19
5.92555e-18
-6.25576e-19
5.91015e-18
-2.73931e-19
5.85068e-18
5.62988e-20
5.75278e-18
3.6182e-19
5.62181e-18
6.40442e-19
5.46304e-18
8.91146e-19
5.28117e-18
1.11408e-18
5.07991e-18
1.31033e-18
4.86221e-18
1.48159e-18
4.63079e-18
1.62975e-18
4.38852e-18
1.75667e-18
4.13831e-18
1.86419e-18
3.88266e-18
1.95416e-18
3.62347e-18
2.02851e-18
3.36207e-18
2.08915e-18
3.09944e-18
2.13791e-18
2.83634e-18
2.17652e-18
2.5734e-18
2.20654e-18
2.31113e-18
2.22944e-18
2.04999e-18
2.24651e-18
1.7903e-18
2.25897e-18
1.53217e-18
2.26787e-18
1.27547e-18
2.27411e-18
1.01988e-18
2.27841e-18
7.64944e-19
2.28128e-18
5.10293e-19
2.28311e-18
2.55694e-19
2.28413e-18
2.28448e-18
-7.44792e-11
1.89196e-09
-1.898e-10
1.72135e-09
-2.33743e-10
1.5928e-09
-2.84852e-10
1.4784e-09
-3.76242e-10
1.42725e-09
-4.6304e-10
1.37733e-09
-5.31324e-10
1.3639e-09
-6.11302e-10
1.37334e-09
-7.3107e-10
1.32217e-09
-8.75513e-10
1.2463e-09
-9.36437e-10
1.14895e-09
-9.35444e-10
1.05609e-09
-9.15987e-10
1.04177e-09
-9.05573e-10
1.01118e-09
-9.63093e-10
9.72346e-10
-1.01547e-09
9.6566e-10
-1.03475e-09
8.63381e-10
-1.07057e-09
7.34158e-10
-1.11773e-09
6.49704e-10
-1.14443e-09
5.14717e-10
-1.20176e-09
4.15786e-10
-1.23695e-09
3.09144e-10
-1.27607e-09
1.5986e-10
-1.31195e-09
6.52054e-12
-1.37007e-09
-2.41897e-11
-1.42277e-09
-1.65676e-10
-1.46075e-09
-2.55156e-10
-1.46833e-09
-2.94201e-10
-1.40759e-09
-4.63576e-10
-1.3782e-09
-5.72787e-10
-1.34194e-09
-6.0552e-10
-1.305e-09
-6.23156e-10
-1.25246e-09
-6.85842e-10
-1.17895e-09
-6.84698e-10
-1.08942e-09
-7.082e-10
-1.01424e-09
-7.70856e-10
-9.97648e-10
-1.16916e-09
-1.07121e-09
-1.5466e-09
-1.06997e-09
-2.03932e-09
-1.03603e-09
-2.39082e-09
-9.6881e-10
-2.50718e-09
-7.95306e-10
-2.56491e-09
-6.41932e-10
-2.14349e-09
-5.19347e-10
-1.58095e-09
-3.94102e-10
-1.1569e-09
-2.80243e-10
-6.39211e-10
-1.46187e-10
-2.00987e-10
-1.64625e-11
3.17554e-10
6.29289e-11
6.57764e-10
9.98765e-11
1.11138e-09
-3.15009e-11
1.46554e-09
-1.84749e-10
1.44435e-09
-2.6754e-10
1.2561e-09
-3.61329e-10
1.12092e-09
-4.61264e-10
9.61955e-10
-5.13599e-10
7.20969e-10
-5.49745e-10
5.60288e-10
-5.82979e-10
4.29278e-10
-7.08774e-10
3.47474e-10
-8.22727e-10
6.85226e-11
-8.84594e-10
-2.62533e-10
-8.55764e-10
-4.76957e-10
-7.60219e-10
-8.63821e-10
-5.94092e-10
-1.15294e-09
-4.01725e-10
-1.4067e-09
-2.89656e-10
-1.4319e-09
-1.96945e-10
-1.4365e-09
-1.37533e-10
-1.39253e-09
-6.92538e-11
-1.28188e-09
-1.59356e-11
-1.1415e-09
1.52943e-11
-9.86175e-10
3.71016e-11
-8.7085e-10
1.0411e-10
-7.68741e-10
1.60892e-10
-6.08347e-10
2.75363e-10
-2.1918e-10
3.64071e-10
6.15476e-11
4.96023e-10
2.73078e-10
5.43547e-10
5.71776e-10
3.62152e-10
9.24087e-10
9.54538e-16
1.15721e-09
2.10736e-18
-4.04602e-18
2.63959e-18
-4.3891e-18
3.21975e-18
-4.38391e-18
3.78705e-18
-4.24305e-18
4.3169e-18
-3.9988e-18
4.79488e-18
-3.67629e-18
5.21101e-18
-3.2956e-18
5.55937e-18
-2.8739e-18
5.83737e-18
-2.42684e-18
6.0436e-18
-1.96828e-18
6.18287e-18
-1.51158e-18
6.25976e-18
-1.06641e-18
6.2772e-18
-6.399e-19
6.24038e-18
-2.37049e-19
6.1562e-18
1.38435e-19
6.0314e-18
4.83582e-19
5.87251e-18
7.96441e-19
5.68596e-18
1.07618e-18
5.47742e-18
1.32312e-18
5.25118e-18
1.53861e-18
5.01037e-18
1.72477e-18
4.7577e-18
1.88408e-18
4.49603e-18
2.01905e-18
4.22829e-18
2.13207e-18
3.95702e-18
2.2255e-18
3.68411e-18