/*--------------------------------*- C++ -*----------------------------------*\
  =========                 |
  \\      /  F ield         | OpenFOAM: The Open Source CFD Toolbox
   \\    /   O peration     | Website:  https://openfoam.org
    \\  /    A nd           | Version:  6
     \\/     M anipulation  |
\*---------------------------------------------------------------------------*/
FoamFile
{
    version     2.0;
    format      ascii;
    class       volVectorField;
    location    "500";
    object      U;
}
// * * * * * * * * * * * * * * * * * * * * * * * * * * * * * * * * * * * * * //

dimensions      [0 1 -1 0 0 0 0];

internalField   nonuniform List<vector> 
4800
(
(2.59427e-05 0 5.84162e-05)
(-0.000136185 0 -9.39541e-05)
(-0.000253543 0 -0.000122914)
(-0.00030031 0 0.000158986)
(-0.000377212 0 -0.000147186)
(-0.000437123 0 8.40087e-05)
(-0.000510162 0 4.72912e-06)
(-0.000575008 0 5.41496e-06)
(-0.000648198 0 1.06008e-05)
(-0.000718665 0 1.22713e-05)
(-0.000780292 0 3.80381e-06)
(-0.00085053 0 3.69313e-05)
(-0.000935944 0 3.07956e-05)
(-0.00102624 0 4.92259e-05)
(-0.00111786 0 3.44549e-05)
(-0.00119804 0 7.66611e-05)
(-0.00127412 0 2.20385e-05)
(-0.00134589 0 5.49901e-05)
(-0.00141418 0 2.96222e-05)
(-0.00147332 0 3.18805e-05)
(-0.00152546 0 2.51241e-05)
(-0.00156564 0 1.26056e-05)
(-0.00158663 0 1.24182e-05)
(-0.00158985 0 5.13989e-06)
(-0.00158202 0 1.23563e-06)
(-0.00157498 0 -1.73966e-05)
(-0.00156208 0 -4.66988e-05)
(-0.00154743 0 -4.65229e-05)
(-0.00153759 0 -4.02435e-05)
(-0.00153716 0 -3.60501e-05)
(-0.00153379 0 -1.36397e-05)
(-0.00147054 0 -2.11991e-05)
(-0.00143213 0 -3.55509e-05)
(-0.00141984 0 -6.99155e-05)
(-0.00134869 0 -0.000270753)
(-0.00118246 0 -0.000161322)
(-0.00099739 0 -0.000103145)
(-0.000812251 0 -0.000201943)
(-0.000718786 0 -0.000132689)
(-0.000634915 0 1.16776e-05)
(-0.000434989 0 -0.00012518)
(-0.000260896 0 -0.000112839)
(-0.000163098 0 -1.32762e-05)
(-7.27689e-05 0 -2.37024e-05)
(-2.81228e-05 0 -2.47066e-05)
(-7.12096e-05 0 1.79911e-05)
(-0.000103122 0 3.53734e-05)
(-0.000140156 0 8.67217e-06)
(-0.000187584 0 3.97287e-06)
(-0.000218466 0 1.52954e-05)
(-0.000246938 0 5.03317e-06)
(-0.000299506 0 -1.77932e-05)
(-0.000381178 0 -6.06701e-06)
(-0.000451134 0 -1.40019e-05)
(-0.000504412 0 2.59554e-05)
(-0.000548193 0 -2.65636e-06)
(-0.00057266 0 -2.81763e-06)
(-0.000579664 0 1.53295e-07)
(-0.000581783 0 2.15914e-06)
(-0.000586931 0 -4.13655e-06)
(-0.000561724 0 -2.78388e-05)
(-0.000501033 0 -5.38035e-05)
(-0.000455967 0 -3.26191e-05)
(-0.000425534 0 -2.13969e-05)
(-0.000383581 0 -6.14653e-05)
(-0.000326115 0 -8.27007e-05)
(-0.000290496 0 -2.00529e-05)
(-0.000222743 0 -8.3129e-05)
(-0.000175968 0 -3.38012e-05)
(-0.000118055 0 -3.74987e-05)
(-6.84432e-05 0 -3.35906e-05)
(-3.66706e-05 0 -2.51746e-05)
(-2.47324e-05 0 -5.99989e-06)
(-1.10967e-05 0 -1.5153e-07)
(-9.71167e-07 0 -5.51073e-05)
(-0.000104376 0 -7.04273e-05)
(-0.000257927 0 -6.74605e-05)
(-0.000240715 0 -0.000149673)
(-0.00052268 0 -9.52236e-05)
(5.32118e-06 0 -0.000101438)
(3.68626e-13 0 -2.071e-13)
(-3.45795e-13 0 -1.00604e-13)
(8.53488e-13 0 -7.85892e-14)
(1.0034e-12 0 -7.19164e-14)
(1.14208e-12 0 -6.74829e-14)
(1.27155e-12 0 -6.27069e-14)
(1.39075e-12 0 -5.72984e-14)
(1.49867e-12 0 -5.12425e-14)
(1.59364e-12 0 -4.47715e-14)
(1.67506e-12 0 -3.80399e-14)
(1.74255e-12 0 -3.11845e-14)
(1.79603e-12 0 -2.43137e-14)
(1.83563e-12 0 -1.75149e-14)
(1.86171e-12 0 -1.08837e-14)
(1.87472e-12 0 -4.50428e-15)
(1.87519e-12 0 1.57998e-15)
(1.8638e-12 0 7.34206e-15)
(1.8414e-12 0 1.27376e-14)
(1.80893e-12 0 1.77199e-14)
(1.76726e-12 0 2.22788e-14)
(1.71731e-12 0 2.64432e-14)
(1.66001e-12 0 3.02371e-14)
(1.59634e-12 0 3.36406e-14)
(1.52709e-12 0 3.66059e-14)
(1.45285e-12 0 3.911e-14)
(1.37405e-12 0 4.11849e-14)
(1.29118e-12 0 4.28982e-14)
(1.20483e-12 0 4.43178e-14)
(1.11563e-12 0 4.54973e-14)
(1.02414e-12 0 4.6482e-14)
(9.30876e-13 0 4.73136e-14)
(8.3622e-13 0 4.80241e-14)
(7.40456e-13 0 4.86289e-14)
(6.43766e-13 0 4.91277e-14)
(5.46261e-13 0 4.95162e-14)
(4.4803e-13 0 4.9798e-14)
(3.49174e-13 0 4.99898e-14)
(2.49819e-13 0 5.01166e-14)
(1.50091e-13 0 5.02045e-14)
(5.00738e-14 0 5.02901e-14)
(-0.000154361 0 4.3762e-05)
(-6.81163e-05 0 0.000202891)
(-0.00021827 0 0.000197243)
(-0.00034674 0 5.7198e-05)
(-0.000371596 0 0.000178873)
(-0.000448284 0 4.86836e-05)
(-0.000485179 0 0.000111298)
(-0.000559965 0 0.000133909)
(-0.000642451 0 8.00273e-05)
(-0.000699077 0 0.00016437)
(-0.000772133 0 0.000134184)
(-0.00084311 0 0.000135426)
(-0.000923776 0 0.00011648)
(-0.00100465 0 0.000118389)
(-0.00108495 0 0.000119054)
(-0.00116358 0 0.000123223)
(-0.00123944 0 0.000118927)
(-0.00130728 0 8.75043e-05)
(-0.00136177 0 0.000100963)
(-0.00141371 0 6.04811e-05)
(-0.00145398 0 6.97807e-05)
(-0.00148245 0 2.90735e-05)
(-0.00149273 0 2.51597e-05)
(-0.00147654 0 -5.34343e-06)
(-0.00146921 0 -9.65681e-06)
(-0.00147686 0 -6.82314e-06)
(-0.00148051 0 1.7723e-06)
(-0.00148204 0 4.17315e-06)
(-0.00145843 0 -2.19148e-05)
(-0.00142558 0 -5.89581e-05)
(-0.00139799 0 -3.50473e-05)
(-0.001348 0 -6.74972e-05)
(-0.00131237 0 -0.000130552)
(-0.00130354 0 -0.00016138)
(-0.00129181 0 -0.000210691)
(-0.00114709 0 -0.000242206)
(-0.000999555 0 -9.32497e-05)
(-0.000801011 0 -0.000307356)
(-0.00069309 0 -0.000167125)
(-0.000570819 0 -7.34687e-05)
(-0.000342259 0 -0.000313923)
(-0.000146018 0 -0.00029778)
(-0.00011346 0 -0.000137097)
(-7.35956e-05 0 -1.07612e-05)
(6.12938e-05 0 -2.9995e-05)
(-1.88272e-05 0 5.69089e-05)
(-9.53313e-05 0 0.000107568)
(-0.000119786 0 5.78525e-05)
(-0.000177541 0 6.52822e-05)
(-0.000205489 0 6.4679e-05)
(-0.000251784 0 6.55765e-05)
(-0.00030439 0 0.000135187)
(-0.000378667 0 0.000120693)
(-0.000432019 0 0.000113864)
(-0.000489278 0 6.62752e-05)
(-0.000525312 0 6.46162e-05)
(-0.000547735 0 4.70869e-05)
(-0.000560264 0 1.04791e-05)
(-0.000571661 0 -2.4345e-05)
(-0.000577752 0 -3.00604e-05)
(-0.000563414 0 -4.25019e-05)
(-0.000503589 0 -7.58907e-05)
(-0.000450663 0 -9.45179e-05)
(-0.000425689 0 -5.53637e-05)
(-0.00039569 0 -9.05674e-07)
(-0.000304432 0 -0.000154859)
(-0.000282548 0 5.32196e-06)
(-0.000197124 0 -8.86858e-05)
(-0.000143033 0 -4.78225e-05)
(-7.94942e-05 0 -5.31402e-05)
(-3.13762e-05 0 -5.24056e-05)
(2.35619e-05 0 -4.29968e-05)
(7.2491e-05 0 -1.32206e-05)
(0.000127305 0 -2.90487e-05)
(0.000161329 0 5.28965e-05)
(0.000216995 0 4.01757e-05)
(0.000274226 0 3.41827e-05)
(0.000340701 0 3.46964e-05)
(-1.91145e-05 0 8.35439e-05)
(5.71773e-06 0 -4.43003e-05)
(4.10003e-13 0 -2.62346e-13)
(-2.3616e-13 0 -2.26012e-13)
(8.80527e-13 0 -2.21049e-13)
(1.01337e-12 0 -2.14062e-13)
(1.15066e-12 0 -2.03329e-13)
(1.28159e-12 0 -1.89368e-13)
(1.40236e-12 0 -1.73039e-13)
(1.5112e-12 0 -1.54778e-13)
(1.60684e-12 0 -1.35299e-13)
(1.68864e-12 0 -1.1503e-13)
(1.75627e-12 0 -9.43578e-14)
(1.8097e-12 0 -7.36186e-14)
(1.84906e-12 0 -5.31052e-14)
(1.87472e-12 0 -3.30882e-14)
(1.88719e-12 0 -1.37849e-14)
(1.88704e-12 0 4.65362e-15)
(1.87495e-12 0 2.21052e-14)
(1.85178e-12 0 3.84582e-14)
(1.81847e-12 0 5.3631e-14)
(1.77599e-12 0 6.75872e-14)
(1.72526e-12 0 8.0308e-14)
(1.66721e-12 0 9.17477e-14)
(1.60271e-12 0 1.0183e-13)
(1.53256e-12 0 1.10506e-13)
(1.45742e-12 0 1.17822e-13)
(1.37784e-12 0 1.23929e-13)
(1.29432e-12 0 1.29029e-13)
(1.20743e-12 0 1.3331e-13)
(1.11779e-12 0 1.36921e-13)
(1.02596e-12 0 1.39975e-13)
(9.32418e-13 0 1.42556e-13)
(8.37535e-13 0 1.44717e-13)
(7.41559e-13 0 1.46487e-13)
(6.44653e-13 0 1.47882e-13)
(5.46931e-13 0 1.48928e-13)
(4.48503e-13 0 1.49673e-13)
(3.49492e-13 0 1.50187e-13)
(2.50034e-13 0 1.50536e-13)
(1.50264e-13 0 1.5077e-13)
(5.01594e-14 0 1.50937e-13)
(-0.000127542 0 0.000224904)
(-9.14784e-05 0 0.000256235)
(-0.000243238 0 0.000208244)
(-0.000338899 0 0.000114312)
(-0.000341217 0 0.000222946)
(-0.000437923 0 0.000103676)
(-0.000478463 0 0.000196547)
(-0.000580092 0 0.000104169)
(-0.000623605 0 0.000168752)
(-0.000682325 0 0.000186093)
(-0.000753889 0 0.00017826)
(-0.00082199 0 0.000188971)
(-0.000890443 0 0.00019901)
(-0.000963622 0 0.000185964)
(-0.00102777 0 0.000197023)
(-0.00110008 0 0.000167459)
(-0.00116333 0 0.00015839)
(-0.00121371 0 0.000157331)
(-0.00125705 0 0.000116839)
(-0.00129277 0 0.000118834)
(-0.00132264 0 7.95975e-05)
(-0.00133333 0 6.31118e-05)
(-0.00133615 0 4.98429e-05)
(-0.00132931 0 -0.000104257)
(-0.00130237 0 -2.36374e-05)
(-0.00127056 0 9.00581e-06)
(-0.00125038 0 -1.42648e-05)
(-0.00124569 0 -2.28493e-05)
(-0.00123725 0 -0.00010986)
(-0.00119048 0 -0.000120714)
(-0.00114078 0 -3.43957e-05)
(-0.00109571 0 -6.46781e-05)
(-0.00108193 0 -8.3556e-05)
(-0.00107934 0 -0.00014407)
(-0.00107962 0 -0.000179268)
(-0.00100771 0 -0.000340582)
(-0.000811045 0 -0.00058091)
(-0.000818513 0 -0.000239984)
(-0.000618223 0 -0.000354307)
(-0.000482692 0 -0.000412199)
(-0.000299435 0 -0.0004776)
(-0.000160452 0 -0.000398821)
(-0.00011879 0 -0.000267044)
(-0.000100597 0 -0.000145383)
(5.10203e-05 0 -5.55916e-05)
(2.18006e-05 0 9.07417e-05)
(-6.17249e-05 0 0.000157186)
(-9.30912e-05 0 0.000112841)
(-0.000160587 0 0.000109307)
(-0.000195333 0 0.000101461)
(-0.000257072 0 0.000115091)
(-0.000318891 0 0.000145911)
(-0.000351199 0 0.000177165)
(-0.000411055 0 0.000149976)
(-0.000466621 0 0.000107696)
(-0.000502486 0 7.23241e-05)
(-0.000520079 0 4.47645e-05)
(-0.00053407 0 1.40051e-05)
(-0.000544707 0 7.89986e-06)
(-0.000533889 0 -1.75431e-05)
(-0.000513026 0 -4.12069e-05)
(-0.00050609 0 -5.12053e-05)
(-0.000444827 0 -0.000191359)
(-0.000412574 0 -8.286e-05)
(-0.00036639 0 -4.88748e-05)
(-0.000267333 0 -0.000196553)
(-0.000247325 0 -0.000112065)
(-0.000137767 0 -0.000190466)
(-9.70674e-05 0 -0.000169183)
(-1.94278e-05 0 -0.000156223)
(-9.03752e-06 0 -0.000117002)
(3.81204e-05 0 -8.56573e-05)
(7.62425e-05 0 -6.43848e-05)
(0.00012615 0 -5.40083e-05)
(0.000159548 0 -2.82385e-05)
(0.000182843 0 -2.18018e-05)
(0.000201977 0 -4.05052e-05)
(0.000273952 0 -4.69344e-05)
(-0.00021475 0 3.68191e-05)
(5.69543e-06 0 0.000105055)
(3.75793e-13 0 -2.976e-13)
(-3.42619e-13 0 -3.45482e-13)
(8.64095e-13 0 -3.66012e-13)
(1.02028e-12 0 -3.60357e-13)
(1.16644e-12 0 -3.42776e-13)
(1.30198e-12 0 -3.18769e-13)
(1.42562e-12 0 -2.90737e-13)
(1.53641e-12 0 -2.59701e-13)
(1.63339e-12 0 -2.26715e-13)
(1.716e-12 0 -1.92432e-13)
(1.78396e-12 0 -1.57463e-13)
(1.83728e-12 0 -1.22383e-13)
(1.87616e-12 0 -8.77201e-14)
(1.90103e-12 0 -5.39549e-14)
(1.91247e-12 0 -2.14467e-14)
(1.91108e-12 0 9.54953e-15)
(1.8976e-12 0 3.88207e-14)
(1.87293e-12 0 6.6186e-14)
(1.83806e-12 0 9.1517e-14)
(1.79394e-12 0 1.14734e-13)
(1.74147e-12 0 1.3577e-13)
(1.68153e-12 0 1.54549e-13)
(1.6151e-12 0 1.71011e-13)
(1.54308e-12 0 1.8518e-13)
(1.46627e-12 0 1.97206e-13)
(1.38526e-12 0 2.07346e-13)
(1.30057e-12 0 2.15895e-13)
(1.21273e-12 0 2.23124e-13)
(1.12229e-12 0 2.29244e-13)
(1.02978e-12 0 2.34405e-13)
(9.35618e-13 0 2.38708e-13)
(8.40151e-13 0 2.42222e-13)
(7.43621e-13 0 2.45008e-13)
(6.46206e-13 0 2.47138e-13)
(5.48052e-13 0 2.48708e-13)
(4.49289e-13 0 2.49834e-13)
(3.50036e-13 0 2.50631e-13)
(2.50402e-13 0 2.51187e-13)
(1.50492e-13 0 2.51553e-13)
(5.02406e-14 0 2.51748e-13)
(-0.000155377 0 0.000315308)
(-0.000158476 0 0.000308855)
(-0.000257371 0 0.000270089)
(-0.000334967 0 0.000209225)
(-0.000308687 0 0.000282842)
(-0.000426678 0 0.000150122)
(-0.00046324 0 0.000256724)
(-0.000542931 0 0.000243672)
(-0.000590613 0 0.000254794)
(-0.000654799 0 0.000230888)
(-0.000715789 0 0.0002414)
(-0.000774638 0 0.000258433)
(-0.00084046 0 0.000239171)
(-0.000885535 0 0.000288636)
(-0.00095607 0 0.000226406)
(-0.000996515 0 0.000257746)
(-0.00105005 0 0.000203614)
(-0.00107768 0 0.000224345)
(-0.00111261 0 0.000160252)
(-0.00113736 0 0.0001457)
(-0.00115444 0 0.000111511)
(-0.00115445 0 4.4433e-05)
(-0.00113804 0 3.06866e-06)
(-0.00114031 0 3.48976e-06)
(-0.00112076 0 -3.18559e-05)
(-0.0010754 0 -4.60254e-05)
(-0.00104909 0 -6.05098e-05)
(-0.00103735 0 -6.53304e-05)
(-0.00103214 0 -7.93504e-05)
(-0.00100591 0 -7.84552e-05)
(-0.000958097 0 -9.53716e-05)
(-0.000907397 0 -0.000140656)
(-0.000883225 0 -0.000160414)
(-0.000878999 0 -0.000185265)
(-0.000864014 0 -0.000307821)
(-0.000871762 0 -0.000342467)
(-0.000875467 0 -0.000350545)
(-0.00068772 0 -0.000533885)
(-0.000554991 0 -0.00053632)
(-0.000390435 0 -0.000602195)
(-0.000400987 0 -0.000483646)
(-0.000209848 0 -0.000454298)
(-0.000152101 0 -0.00031972)
(-7.94024e-05 0 -0.000215546)
(-7.17378e-05 0 -0.000106638)
(5.88819e-06 0 0.000165905)
(-5.0127e-05 0 0.000218136)
(-6.74756e-05 0 0.000178505)
(-9.54263e-05 0 0.000155552)
(-0.000183218 0 0.000147714)
(-0.000229297 0 0.00018408)
(-0.000262942 0 0.000232041)
(-0.000322088 0 0.000223139)
(-0.000369167 0 0.00020643)
(-0.000422278 0 0.000170989)
(-0.000458188 0 0.000132864)
(-0.000481903 0 8.15015e-05)
(-0.000498983 0 2.26491e-05)
(-0.000504004 0 1.10705e-05)
(-0.000486836 0 -9.10749e-05)
(-0.000455159 0 -0.00014133)
(-0.000460351 0 -0.000104026)
(-0.000454014 0 -9.83486e-05)
(-0.000384567 0 -0.000154177)
(-0.000294236 0 -0.000216286)
(-0.000253854 0 -0.000203296)
(-0.000176578 0 -0.000238753)
(-0.000125294 0 -0.000229867)
(-5.64188e-05 0 -0.000223038)
(2.56028e-05 0 -0.000196667)
(4.1879e-05 0 -0.000162524)
(8.15997e-05 0 -0.000114161)
(8.72915e-05 0 -5.2368e-05)
(0.00010385 0 -6.85447e-07)
(-0.000132922 0 6.97593e-05)
(-0.000186955 0 -1.18393e-05)
(-0.0002072 0 1.16795e-05)
(-0.000285013 0 0.00012964)
(-0.000509983 0 0.000176808)
(5.69559e-06 0 0.000151744)
(3.16232e-13 0 -5.32062e-13)
(-3.48755e-13 0 -5.3242e-13)
(8.66234e-13 0 -5.36896e-13)
(1.03719e-12 0 -5.18263e-13)
(1.19283e-12 0 -4.88318e-13)
(1.33418e-12 0 -4.51755e-13)
(1.46169e-12 0 -4.10593e-13)
(1.57522e-12 0 -3.65753e-13)
(1.67411e-12 0 -3.18339e-13)
(1.75789e-12 0 -2.69174e-13)
(1.82632e-12 0 -2.19105e-13)
(1.87944e-12 0 -1.68958e-13)
(1.91749e-12 0 -1.19505e-13)
(1.94099e-12 0 -7.14829e-14)
(1.95069e-12 0 -2.54607e-14)
(1.94731e-12 0 1.81841e-14)
(1.93159e-12 0 5.91772e-14)
(1.90447e-12 0 9.72888e-14)
(1.86702e-12 0 1.32345e-13)
(1.82024e-12 0 1.64258e-13)
(1.76508e-12 0 1.93022e-13)
(1.70245e-12 0 2.18677e-13)
(1.63334e-12 0 2.41271e-13)
(1.55876e-12 0 2.60889e-13)
(1.47959e-12 0 2.77699e-13)
(1.39653e-12 0 2.91967e-13)
(1.3101e-12 0 3.0402e-13)
(1.22078e-12 0 3.14174e-13)
(1.12907e-12 0 3.22688e-13)
(1.03542e-12 0 3.29764e-13)
(9.40235e-13 0 3.35558e-13)
(8.43836e-13 0 3.40204e-13)
(7.46475e-13 0 3.43839e-13)
(6.48353e-13 0 3.46607e-13)
(5.49627e-13 0 3.48668e-13)
(4.50426e-13 0 3.50176e-13)
(3.50846e-13 0 3.51267e-13)
(2.50955e-13 0 3.52032e-13)
(1.50825e-13 0 3.52528e-13)
(5.03548e-14 0 3.52785e-13)
(-0.000108451 0 0.000420689)
(-0.000107045 0 0.000411421)
(-0.000201735 0 0.000378163)
(-0.000308003 0 0.000310339)
(-0.000332619 0 0.000292982)
(-0.000434181 0 0.000189758)
(-0.0004219 0 0.000336126)
(-0.000524018 0 0.000275728)
(-0.000556913 0 0.000312322)
(-0.000626219 0 0.00027542)
(-0.000679416 0 0.000278657)
(-0.000724755 0 0.000292513)
(-0.000770263 0 0.000290041)
(-0.000813538 0 0.000288537)
(-0.000848987 0 0.00029697)
(-0.000885136 0 0.00027526)
(-0.000906018 0 0.000270849)
(-0.000935871 0 0.000230638)
(-0.000964239 0 0.000182075)
(-0.000987571 0 0.000146335)
(-0.000997259 0 0.000120331)
(-0.000995896 0 4.12171e-05)
(-0.000971685 0 -3.02018e-06)
(-0.00096667 0 -3.68339e-05)
(-0.000960136 0 -9.66861e-05)
(-0.000943798 0 -8.87303e-05)
(-0.000921728 0 -6.64499e-05)
(-0.000908979 0 -7.12075e-05)
(-0.000900023 0 -0.000103061)
(-0.000865346 0 -0.000159072)
(-0.000850859 0 -9.06952e-05)
(-0.000816829 0 -9.04442e-05)
(-0.000780709 0 -0.000128871)
(-0.000772931 0 -0.000139278)
(-0.000789063 0 -0.00025672)
(-0.000796346 0 -0.000403373)
(-0.000778247 0 -0.000469244)
(-0.000678636 0 -0.000579914)
(-0.000589614 0 -0.00064566)
(-0.000549815 0 -0.000639059)
(-0.000318859 0 -0.000689525)
(-0.000334246 0 -0.000500678)
(-0.000153512 0 -0.000386949)
(-0.000107657 0 -0.000243859)
(-0.000175143 0 -7.339e-05)
(-1.46778e-05 0 8.73361e-05)
(-2.73566e-05 0 0.000214036)
(3.47888e-05 0 0.000218767)
(-9.8573e-05 0 0.000253211)
(-0.000131413 0 0.000222811)
(-0.00024774 0 0.000211303)
(-0.000290268 0 0.000233444)
(-0.000314217 0 0.000247588)
(-0.000342753 0 0.000238118)
(-0.000380716 0 0.000199853)
(-0.000413108 0 0.00014811)
(-0.000442256 0 7.95898e-05)
(-0.000456271 0 3.08477e-05)
(-0.00046304 0 4.82638e-06)
(-0.000468389 0 -3.40605e-05)
(-0.000458373 0 -0.000105085)
(-0.000424019 0 -0.000200413)
(-0.000411314 0 -0.00015499)
(-0.000371929 0 -0.00019137)
(-0.000318734 0 -0.000252835)
(-0.000189708 0 -0.000334082)
(-0.00016673 0 -0.00029223)
(-0.000162604 0 -0.000256901)
(-3.83467e-05 0 -0.00027332)
(-7.34879e-06 0 -0.00023905)
(5.18604e-05 0 -0.000200207)
(5.38865e-05 0 -0.000166287)
(0.000138162 0 -5.4721e-05)
(0.000169811 0 1.78314e-05)
(0.000130904 0 7.44257e-05)
(8.92689e-05 0 0.000114959)
(8.07846e-05 0 0.000110769)
(-0.000378576 0 -0.000110457)
(-0.000542985 0 -6.80405e-05)
(5.50954e-06 0 -5.71107e-05)
(3.14395e-13 0 -8.62235e-13)
(-4.12067e-13 0 -7.69907e-13)
(8.78794e-13 0 -7.30657e-13)
(1.0694e-12 0 -6.87207e-13)
(1.2335e-12 0 -6.40197e-13)
(1.38022e-12 0 -5.89024e-13)
(1.51187e-12 0 -5.33518e-13)
(1.62867e-12 0 -4.73881e-13)
(1.72997e-12 0 -4.11092e-13)
(1.81523e-12 0 -3.46115e-13)
(1.88417e-12 0 -2.80057e-13)
(1.93688e-12 0 -2.1403e-13)
(1.97364e-12 0 -1.49075e-13)
(1.99507e-12 0 -8.6202e-14)
(2.00213e-12 0 -2.62166e-14)
(1.99572e-12 0 3.03376e-14)
(1.97671e-12 0 8.31137e-14)
(1.94609e-12 0 1.31887e-13)
(1.90503e-12 0 1.76525e-13)
(1.85462e-12 0 2.16996e-13)
(1.79589e-12 0 2.53358e-13)
(1.72978e-12 0 2.85736e-13)
(1.65731e-12 0 3.14279e-13)
(1.57951e-12 0 3.39149e-13)
(1.49735e-12 0 3.60548e-13)
(1.41158e-12 0 3.78748e-13)
(1.32277e-12 0 3.94084e-13)
(1.23139e-12 0 4.06907e-13)
(1.13788e-12 0 4.17544e-13)
(1.04265e-12 0 4.26273e-13)
(9.46058e-13 0 4.33332e-13)
(8.48432e-13 0 4.38936e-13)
(7.50024e-13 0 4.43294e-13)
(6.51035e-13 0 4.46614e-13)
(5.51621e-13 0 4.49101e-13)
(4.51888e-13 0 4.50937e-13)
(3.51892e-13 0 4.52269e-13)
(2.51664e-13 0 4.532e-13)
(1.51245e-13 0 4.53799e-13)
(5.04973e-14 0 4.54105e-13)
(-5.98628e-05 0 0.000513326)
(-0.000126219 0 0.00046897)
(-0.000167939 0 0.000440225)
(-0.000225116 0 0.000408306)
(-0.000311868 0 0.000351763)
(-0.000431416 0 0.000274812)
(-0.000447836 0 0.000330455)
(-0.000477976 0 0.000346417)
(-0.000517649 0 0.000358234)
(-0.000570004 0 0.00034417)
(-0.000597801 0 0.000367165)
(-0.000660202 0 0.00032725)
(-0.000693347 0 0.000330874)
(-0.000725396 0 0.000314747)
(-0.000733942 0 0.000333356)
(-0.000754456 0 0.000321556)
(-0.000790692 0 0.000259384)
(-0.000808069 0 0.000245927)
(-0.000830306 0 0.000209983)
(-0.000840243 0 0.000183703)
(-0.0008529 0 0.00012097)
(-0.000858358 0 7.90544e-05)
(-0.000846556 0 -9.43625e-05)
(-0.00084114 0 -2.0665e-05)
(-0.000844571 0 -4.83677e-05)
(-0.000850483 0 -6.18e-05)
(-0.000821005 0 -0.000139553)
(-0.000805177 0 -0.000147048)
(-0.00081195 0 -7.59748e-05)
(-0.00078015 0 -0.0001714)
(-0.000765948 0 -0.000154958)
(-0.000739021 0 -0.00017196)
(-0.000702689 0 -0.000197075)
(-0.000690053 0 -0.000186796)
(-0.000715212 0 -0.000206523)
(-0.000763568 0 -0.000341407)
(-0.000720376 0 -0.000554054)
(-0.000675315 0 -0.000656164)
(-0.000658907 0 -0.000687751)
(-0.000572754 0 -0.000751979)
(-0.000539948 0 -0.000704074)
(-0.00033272 0 -0.000642633)
(-0.0003073 0 -0.000432483)
(-0.00014565 0 -0.000315911)
(-0.000125476 0 -0.000182284)
(-6.81916e-05 0 -2.63544e-05)
(2.39876e-05 0 0.000136818)
(5.01907e-05 0 0.000213887)
(1.51719e-05 0 0.000262464)
(-3.86938e-05 0 0.000294261)
(-0.000145106 0 0.000300786)
(-0.000221468 0 0.000293048)
(-0.000273086 0 0.000296114)
(-0.000313463 0 0.000268856)
(-0.000345546 0 0.00022471)
(-0.000361847 0 0.00019316)
(-0.000399882 0 0.000123509)
(-0.000420907 0 4.02157e-05)
(-0.000436245 0 -1.47975e-05)
(-0.000440309 0 -7.05955e-05)
(-0.000436522 0 -0.000121661)
(-0.00043143 0 -0.000141133)
(-0.000383319 0 -0.000228761)
(-0.000353188 0 -0.000261248)
(-0.000308317 0 -0.000305088)
(-0.000264336 0 -0.000315599)
(-0.000148116 0 -0.000350989)
(-0.00012085 0 -0.000333725)
(-2.51822e-05 0 -0.000330237)
(-5.85329e-07 0 -0.000285604)
(3.80862e-06 0 -0.000253022)
(4.96991e-05 0 -0.000194274)
(0.000117395 0 -0.000136641)
(0.000180485 0 -1.28257e-05)
(0.000209326 0 6.96716e-05)
(0.000181117 0 0.000173239)
(0.000165054 0 0.00019945)
(0.000188424 0 0.000147066)
(-0.000378431 0 4.68054e-05)
(6.0668e-06 0 -8.73086e-05)
(3.14961e-13 0 -1.26869e-12)
(-3.10485e-13 0 -1.02275e-12)
(9.49429e-13 0 -9.28372e-13)
(1.12815e-12 0 -8.59532e-13)
(1.29152e-12 0 -7.96092e-13)
(1.44134e-12 0 -7.30484e-13)
(1.57706e-12 0 -6.6026e-13)
(1.69765e-12 0 -5.85075e-13)
(1.80188e-12 0 -5.05964e-13)
(1.88893e-12 0 -4.24169e-13)
(1.95841e-12 0 -3.41138e-13)
(2.01042e-12 0 -2.58304e-13)
(2.04532e-12 0 -1.76992e-13)
(2.06385e-12 0 -9.85025e-14)
(2.06723e-12 0 -2.38968e-14)
(2.05664e-12 0 4.6101e-14)
(2.03314e-12 0 1.11057e-13)
(1.99789e-12 0 1.70748e-13)
(1.95213e-12 0 2.25107e-13)
(1.89707e-12 0 2.74177e-13)
(1.83382e-12 0 3.18088e-13)
(1.76337e-12 0 3.57036e-13)
(1.68675e-12 0 3.91259e-13)
(1.60503e-12 0 4.21016e-13)
(1.51919e-12 0 4.4659e-13)
(1.43006e-12 0 4.68303e-13)
(1.33825e-12 0 4.86528e-13)
(1.24424e-12 0 5.01665e-13)
(1.14844e-12 0 5.14107e-13)
(1.05121e-12 0 5.24214e-13)
(9.52898e-13 0 5.32309e-13)
(8.53798e-13 0 5.38683e-13)
(7.54154e-13 0 5.4361e-13)
(6.54159e-13 0 5.47351e-13)
(5.53949e-13 0 5.50148e-13)
(4.53594e-13 0 5.52211e-13)
(3.5311e-13 0 5.53704e-13)
(2.52486e-13 0 5.54744e-13)
(1.5173e-13 0 5.55412e-13)
(5.06612e-14 0 5.55751e-13)
(-2.71642e-05 0 0.000596927)
(-0.000103224 0 0.000525564)
(-0.00016824 0 0.000478892)
(-0.000206119 0 0.000451709)
(-0.000238995 0 0.000429418)
(-0.000341003 0 0.000402531)
(-0.000376363 0 0.000425413)
(-0.000425538 0 0.00039804)
(-0.000468796 0 0.000390339)
(-0.000525159 0 0.000373531)
(-0.000567126 0 0.000355181)
(-0.000574132 0 0.000377888)
(-0.000593819 0 0.000373932)
(-0.000598136 0 0.000386134)
(-0.000644514 0 0.000321226)
(-0.000661638 0 0.000310909)
(-0.000674002 0 0.000301811)
(-0.000690721 0 0.00027522)
(-0.000699971 0 0.000260425)
(-0.000712584 0 0.000173023)
(-0.000709965 0 0.000137684)
(-0.000738291 0 4.31477e-05)
(-0.000754015 0 -6.70179e-06)
(-0.000752244 0 -4.85656e-05)
(-0.000743087 0 -7.87455e-05)
(-0.000748439 0 -7.29989e-05)
(-0.000750046 0 -9.40573e-05)
(-0.000752841 0 -9.86261e-05)
(-0.000735056 0 -0.000158405)
(-0.00070335 0 -0.000187157)
(-0.00068696 0 -0.0001816)
(-0.000681399 0 -0.000167477)
(-0.000663205 0 -0.000169722)
(-0.000642679 0 -0.000177809)
(-0.000639038 0 -0.000199573)
(-0.000664028 0 -0.000356314)
(-0.000697286 0 -0.000536323)
(-0.000692218 0 -0.000663271)
(-0.000643465 0 -0.000755458)
(-0.000606907 0 -0.000798604)
(-0.000530953 0 -0.000821765)
(-0.000454844 0 -0.000700509)
(-0.000324294 0 -0.000529255)
(-0.000190992 0 -0.000374291)
(-0.00017045 0 -0.000198592)
(-5.91583e-05 0 -6.3188e-05)
(3.82766e-05 0 0.00010114)
(2.93793e-05 0 0.000208595)
(5.5669e-05 0 0.000279847)
(1.77139e-06 0 0.000362221)
(-6.84484e-05 0 0.000361751)
(-0.000189112 0 0.000339961)
(-0.000215083 0 0.000339266)
(-0.000247284 0 0.000319097)
(-0.000307262 0 0.000259314)
(-0.000339156 0 0.00019491)
(-0.000344424 0 0.000172159)
(-0.000392958 0 6.98374e-05)
(-0.000414096 0 1.38617e-05)
(-0.000423173 0 -5.04566e-05)
(-0.000418321 0 -0.000130644)
(-0.000393923 0 -0.000199546)
(-0.000380975 0 -0.000241005)
(-0.000340369 0 -0.000311261)
(-0.000318025 0 -0.00033639)
(-0.000221157 0 -0.000391563)
(-0.00018865 0 -0.000389627)
(-0.000166765 0 -0.00038996)
(-6.71347e-05 0 -0.000381342)
(-5.12142e-05 0 -0.000331895)
(9.23664e-06 0 -0.000296799)
(6.00623e-05 0 -0.000244855)
(8.37537e-05 0 -0.000208949)
(0.000181287 0 -1.69827e-05)
(0.000213712 0 7.39031e-05)
(0.000257508 0 0.000131316)
(0.000267242 0 0.000211852)
(0.000294129 0 0.000168303)
(-0.000147279 0 0.00011158)
(6.46608e-06 0 3.20803e-05)
(3.73022e-13 0 -1.44614e-12)
(-1.79546e-13 0 -1.1974e-12)
(1.04245e-12 0 -1.1003e-12)
(1.20214e-12 0 -1.02632e-12)
(1.36301e-12 0 -9.54074e-13)
(1.5165e-12 0 -8.76473e-13)
(1.65749e-12 0 -7.91741e-13)
(1.78296e-12 0 -7.00226e-13)
(1.89087e-12 0 -6.03601e-13)
(1.98006e-12 0 -5.0369e-13)
(2.05004e-12 0 -4.02452e-13)
(2.10103e-12 0 -3.01689e-13)
(2.13344e-12 0 -2.03004e-13)
(2.14817e-12 0 -1.0796e-13)
(2.14674e-12 0 -1.78823e-14)
(2.13068e-12 0 6.62904e-14)
(2.10135e-12 0 1.43994e-13)
(2.06014e-12 0 2.14977e-13)
(2.00845e-12 0 2.79228e-13)
(1.9476e-12 0 3.36896e-13)
(1.87874e-12 0 3.88217e-13)
(1.80295e-12 0 4.33483e-13)
(1.72129e-12 0 4.73027e-13)
(1.63484e-12 0 5.07224e-13)
(1.54463e-12 0 5.36472e-13)
(1.45152e-12 0 5.61196e-13)
(1.35613e-12 0 5.81844e-13)
(1.25897e-12 0 5.98881e-13)
(1.16043e-12 0 6.12767e-13)
(1.06085e-12 0 6.23936e-13)
(9.60527e-13 0 6.32787e-13)
(8.59733e-13 0 6.39684e-13)
(7.58692e-13 0 6.44965e-13)
(6.57573e-13 0 6.48943e-13)
(5.56481e-13 0 6.51896e-13)
(4.55444e-13 0 6.54061e-13)
(3.54426e-13 0 6.5562e-13)
(2.53372e-13 0 6.56702e-13)
(1.52251e-13 0 6.57392e-13)
(5.08361e-14 0 6.57735e-13)
(-2.61967e-05 0 0.000659603)
(-8.13098e-05 0 0.000582442)
(-0.000104892 0 0.000540764)
(-0.000149296 0 0.000511624)
(-0.000176911 0 0.000490708)
(-0.000307286 0 0.000447592)
(-0.00032715 0 0.000474484)
(-0.000371918 0 0.000448896)
(-0.000438409 0 0.000392683)
(-0.000400003 0 0.000462949)
(-0.000471772 0 0.000413225)
(-0.000519174 0 0.000370768)
(-0.000538748 0 0.000351067)
(-0.000536678 0 0.000356155)
(-0.000528693 0 0.000369648)
(-0.000543616 0 0.000362773)
(-0.000562557 0 0.00033078)
(-0.000576628 0 0.000281505)
(-0.000592946 0 0.000237826)
(-0.000620509 0 0.000147314)
(-0.000617306 0 9.37447e-05)
(-0.000622623 0 7.96728e-05)
(-0.000648314 0 6.37794e-07)
(-0.000670896 0 -3.63664e-05)
(-0.000684322 0 -6.4558e-05)
(-0.000683043 0 -9.17391e-05)
(-0.000671337 0 -0.000123041)
(-0.000672446 0 -0.000118902)
(-0.000677085 0 -0.000122629)
(-0.000659707 0 -0.000177305)
(-0.000629363 0 -0.0002114)
(-0.000607647 0 -0.000228315)
(-0.000589095 0 -0.000209602)
(-0.000562157 0 -0.000210324)
(-0.000555572 0 -0.00020463)
(-0.000579886 0 -0.000285966)
(-0.00060017 0 -0.000526814)
(-0.000611022 0 -0.000694996)
(-0.000618771 0 -0.000790069)
(-0.000538174 0 -0.000887309)
(-0.000521176 0 -0.000898377)
(-0.000367396 0 -0.000847116)
(-0.000343042 0 -0.000625844)
(-0.00028024 0 -0.000435357)
(-0.000100047 0 -0.000311929)
(-8.28834e-05 0 -0.000126877)
(2.40548e-05 0 4.08233e-05)
(-5.33799e-06 0 0.000191291)
(2.78145e-05 0 0.00031565)
(6.36238e-05 0 0.000435782)
(-3.68571e-05 0 0.000432813)
(-0.000103071 0 0.000411294)
(-0.000158684 0 0.00038105)
(-0.000229127 0 0.000342815)
(-0.000254335 0 0.000300609)
(-0.000285319 0 0.000229216)
(-0.000308938 0 0.000172223)
(-0.000334224 0 0.000116675)
(-0.000379928 0 2.17832e-05)
(-0.00039288 0 -2.20749e-05)
(-0.000396102 0 -0.0001198)
(-0.000394083 0 -0.000190669)
(-0.000373305 0 -0.000285577)
(-0.000339007 0 -0.000354299)
(-0.000292994 0 -0.000399711)
(-0.000237016 0 -0.000435107)
(-0.000216808 0 -0.000443136)
(-0.000126298 0 -0.000472707)
(-5.07428e-05 0 -0.000435681)
(-4.83885e-05 0 -0.000382204)
(2.04926e-06 0 -0.000341411)
(6.72059e-06 0 -0.000303116)
(6.69706e-05 0 -0.000230244)
(0.000118185 0 -0.000122035)
(0.000188026 0 5.35126e-06)
(0.000235634 0 9.5977e-05)
(0.000265581 0 0.000183563)
(0.000283388 0 0.000204249)
(-0.000174493 0 0.000162872)
(6.84518e-06 0 0.000133974)
(4.16912e-13 0 -1.30298e-12)
(-6.04021e-14 0 -1.28359e-12)
(1.12091e-12 0 -1.24891e-12)
(1.2748e-12 0 -1.19123e-12)
(1.4418e-12 0 -1.11724e-12)
(1.60409e-12 0 -1.02932e-12)
(1.7535e-12 0 -9.29527e-13)
(1.88579e-12 0 -8.20177e-13)
(1.99842e-12 0 -7.04177e-13)
(2.09008e-12 0 -5.84259e-13)
(2.16041e-12 0 -4.63108e-13)
(2.20987e-12 0 -3.4297e-13)
(2.23905e-12 0 -2.25731e-13)
(2.24897e-12 0 -1.13147e-13)
(2.24148e-12 0 -6.75866e-15)
(2.21852e-12 0 9.2283e-14)
(2.18183e-12 0 1.83258e-13)
(2.13312e-12 0 2.65848e-13)
(2.07405e-12 0 3.40082e-13)
(2.00606e-12 0 4.06234e-13)
(1.93041e-12 0 4.64699e-13)
(1.84818e-12 0 5.15914e-13)
(1.7605e-12 0 5.60343e-13)
(1.66847e-12 0 5.98483e-13)
(1.57316e-12 0 6.30866e-13)
(1.47543e-12 0 6.58044e-13)
(1.37594e-12 0 6.80576e-13)
(1.27517e-12 0 6.99018e-13)
(1.17349e-12 0 7.13906e-13)
(1.07123e-12 0 7.25745e-13)
(9.68647e-13 0 7.35006e-13)
(8.65977e-13 0 7.42124e-13)
(7.63412e-13 0 7.47498e-13)
(6.6109e-13 0 7.5149e-13)
(5.59067e-13 0 7.54417e-13)
(4.57318e-13 0 7.56536e-13)
(3.55751e-13 0 7.58043e-13)
(2.54258e-13 0 7.59075e-13)
(1.52762e-13 0 7.59718e-13)
(5.10039e-14 0 7.60021e-13)
(-1.98172e-05 0 0.000701835)
(-9.42572e-05 0 0.000631674)
(-0.000124301 0 0.000587481)
(-0.000208393 0 0.00053957)
(-0.000243675 0 0.000511067)
(-0.000238062 0 0.000507411)
(-0.000271837 0 0.000508388)
(-0.000300704 0 0.000499168)
(-0.000351661 0 0.000460991)
(-0.000416877 0 0.000405222)
(-0.000376673 0 0.00045035)
(-0.000381064 0 0.000451293)
(-0.000418496 0 0.000417277)
(-0.000442919 0 0.000388717)
(-0.000504942 0 0.000311662)
(-0.000492434 0 0.000336262)
(-0.000511222 0 0.00030222)
(-0.000534297 0 0.000237043)
(-0.000502377 0 0.000260561)
(-0.000489645 0 0.000243756)
(-0.000505521 0 0.000176377)
(-0.000515656 0 0.000134571)
(-0.0005547 0 1.21491e-05)
(-0.000589984 0 -4.17125e-05)
(-0.000609653 0 -4.91438e-05)
(-0.000616059 0 -6.53611e-05)
(-0.000617525 0 -0.000122191)
(-0.000624638 0 -0.000129405)
(-0.000617927 0 -0.000159127)
(-0.000589887 0 -0.000218773)
(-0.000587799 0 -0.000207247)
(-0.000576502 0 -0.000208882)
(-0.000535144 0 -0.000243627)
(-0.000508212 0 -0.000229356)
(-0.000489423 0 -0.00022886)
(-0.000484018 0 -0.000271822)
(-0.000479502 0 -0.000473188)
(-0.000493047 0 -0.000688219)
(-0.000519186 0 -0.000832357)
(-0.000512892 0 -0.00091676)
(-0.000477044 0 -0.000955111)
(-0.000379652 0 -0.000925794)
(-0.000322829 0 -0.000743689)
(-0.00022534 0 -0.000568249)
(-0.000150503 0 -0.000391142)
(-8.2749e-05 0 -0.000192608)
(-7.41647e-05 0 -9.80099e-06)
(-4.05048e-05 0 0.000184246)
(1.63755e-05 0 0.000313173)
(5.75327e-05 0 0.000464801)
(2.36481e-05 0 0.000492462)
(-0.000102712 0 0.000471303)
(-0.000117009 0 0.000431187)
(-0.000235408 0 0.000372167)
(-0.000188632 0 0.000342927)
(-0.0002417 0 0.00025872)
(-0.0002548 0 0.000197993)
(-0.000271805 0 0.00015248)