/*--------------------------------*- C++ -*----------------------------------*\
  =========                 |
  \\      /  F ield         | OpenFOAM: The Open Source CFD Toolbox
   \\    /   O peration     | Website:  https://openfoam.org
    \\  /    A nd           | Version:  6
     \\/     M anipulation  |
\*---------------------------------------------------------------------------*/
FoamFile
{
    version     2.0;
    format      ascii;
    class       volScalarField;
    location    "4250";
    object      Su;
}
// * * * * * * * * * * * * * * * * * * * * * * * * * * * * * * * * * * * * * //

dimensions      [0 0 -1 0 0 0 0];

internalField   nonuniform List<scalar> 
4800
(
0.218186
0.213376
0.208561
0.203733
0.198885
0.194009
0.189096
0.184143
0.179151
0.174131
0.169097
0.164071
0.159076
0.154134
0.149269
0.144498
0.139842
0.135324
0.130975
0.126826
0.122887
0.11915
0.115612
0.112287
0.10918
0.106291
0.103611
0.101124
0.0988097
0.0966413
0.0945937
0.0926435
0.0907682
0.088947
0.0871627
0.0854025
0.0836568
0.0819185
0.0801829
0.0784478
0.0767123
0.0749767
0.0732412
0.0715057
0.069771
0.068039
0.0663095
0.0645823
0.0628575
0.0611348
0.0594172
0.0577076
0.0560049
0.0543081
0.0526169
0.0509296
0.0492422
0.0475512
0.0458531
0.0441425
0.0424171
0.0406663
0.038881
0.0370611
0.0352038
0.0332995
0.0313342
0.0292955
0.0271787
0.0249829
0.0227058
0.020352
0.0179344
0.0154661
0.0129598
0.0104232
0.00786175
0.00528349
0.00269048
7.88052e-05
-0.00252961
-0.00513579
-0.00778269
-0.0104698
-0.01319
-0.015936
-0.0187021
-0.0214836
-0.0242763
-0.0270767
-0.029882
-0.0326894
-0.0354967
-0.038302
-0.0411037
-0.0439005
-0.0466913
-0.0494752
-0.0522517
-0.0550203
-0.0577806
-0.0605327
-0.0632763
-0.0660117
-0.0687391
-0.0714587
-0.0741708
-0.0768759
-0.0795744
-0.0822667
-0.0849534
-0.0876349
-0.0903118
-0.0929846
-0.0956538
-0.09832
-0.100984
-0.103646
-0.106306
-0.108966
0.218185
0.213374
0.208558
0.203732
0.198888
0.194014
0.189105
0.184156
0.179169
0.174151
0.16912
0.164093
0.159096
0.154152
0.149282
0.144505
0.139848
0.135346
0.131023
0.126892
0.122959
0.119227
0.115709
0.11241
0.109334
0.106479
0.10383
0.101371
0.0990795
0.0969307
0.0949006
0.0929653
0.0911007
0.0892852
0.0875027
0.0857414
0.083992
0.082248
0.0805056
0.0787631
0.0770201
0.0752765
0.0735326
0.0717882
0.0700456
0.0683058
0.0665681
0.064834
0.0631033
0.0613763
0.0596553
0.0579407
0.0562333
0.0545319
0.0528337
0.0511356
0.0494335
0.0477256
0.046009
0.0442804
0.042538
0.0407703
0.0389735
0.0371438
0.0352752
0.0333557
0.0313719
0.0293189
0.0271958
0.0249949
0.022712
0.0203537
0.0179303
0.0154524
0.0129269
0.0103619
0.00777649
0.00519233
0.00261728
5.25205e-05
-0.0025096
-0.00510126
-0.00774938
-0.0104411
-0.0131659
-0.0159161
-0.0186857
-0.0214702
-0.0242654
-0.0270681
-0.0298752
-0.0326842
-0.0354929
-0.0382994
-0.0411021
-0.0438997
-0.0466911
-0.0494756
-0.0522525
-0.0550214
-0.057782
-0.0605342
-0.0632779
-0.0660134
-0.0687408
-0.0714603
-0.0741724
-0.0768775
-0.0795758
-0.0822681
-0.0849546
-0.087636
-0.0903127
-0.0929854
-0.0956545
-0.0983206
-0.100984
-0.103646
-0.106306
-0.108966
0.218188
0.21338
0.208572
0.203756
0.198921
0.194055
0.189152
0.184208
0.179224
0.174212
0.169187
0.164167
0.159174
0.154228
0.149355
0.144586
0.139949
0.13547
0.131168
0.127054
0.123139
0.119438
0.115966
0.112721
0.109697
0.10689
0.104287
0.101872
0.0996216
0.0975124
0.0955169
0.0936097
0.0917643
0.0899605
0.0881838
0.0864222
0.0846669
0.0829125
0.0811566
0.079399
0.0776396
0.0758795
0.074119
0.0723587
0.0706015
0.068847
0.0670947
0.0653465
0.0636023
0.0618637
0.0601333
0.0584094
0.0566921
0.0549779
0.053264
0.0515464
0.0498212
0.0480876
0.0463437
0.0445897
0.04282
0.0410208
0.0391958
0.0373397
0.0354414
0.0334869
0.0314728
0.029397
0.0272535
0.0250352
0.0227428
0.0203795
0.0179497
0.0154642
0.0129357
0.0103807
0.00781496
0.00525213
0.00269877
0.000153481
-0.00240711
-0.00501637
-0.00767939
-0.0103835
-0.0131184
-0.0158769
-0.0186535
-0.0214438
-0.0242441
-0.0270511
-0.0298619
-0.0326741
-0.0354855
-0.0382943
-0.041099
-0.0438982
-0.046691
-0.0494765
-0.0522542
-0.0550237
-0.0577848
-0.0605373
-0.0632812
-0.0660168
-0.0687442
-0.0714637
-0.0741756
-0.0768805
-0.0795787
-0.0822707
-0.084957
-0.0876382
-0.0903147
-0.0929871
-0.0956559
-0.0983218
-0.100985
-0.103647
-0.106307
-0.108966
0.218198
0.213411
0.208622
0.203825
0.199004
0.19415
0.189253
0.184311
0.179327
0.174315
0.169294
0.164283
0.159302
0.154368
0.149507
0.144756
0.140148
0.135704
0.131436
0.127357
0.123482
0.119831
0.116412
0.113224
0.110262
0.107518
0.104977
0.102624
0.100433
0.0983788
0.0964288
0.0945569
0.0927375
0.0909503
0.0891813
0.0874186
0.0856551
0.0838869
0.0821137
0.080336
0.078555
0.0767731
0.0749908
0.0732094
0.0714312
0.069656
0.0678841
0.0661174
0.064356
0.0626018
0.0608566
0.0591187
0.057386
0.055653
0.0539164
0.0521722
0.0504189
0.0486549
0.046878
0.0450868
0.043274
0.0414317
0.0395662
0.0376687
0.0357249
0.0337283
0.031679
0.0295672
0.027387
0.0251391
0.0228291
0.0204601
0.0180348
0.0155624
0.0130577
0.0105371
0.00801255
0.00548477
0.00294353
0.000377868
-0.0022292
-0.00488367
-0.00757513
-0.0102992
-0.0130493
-0.01582
-0.0186067
-0.0214056
-0.0242132
-0.0270265
-0.0298428
-0.0326597
-0.0354751
-0.0382873
-0.0410948
-0.0438964
-0.0466911
-0.0494782
-0.0522571
-0.0550275
-0.0577892
-0.0605421
-0.0632863
-0.066022
-0.0687493
-0.0714687
-0.0741805
-0.0768852
-0.0795831
-0.0822747
-0.0849607
-0.0876415
-0.0903176
-0.0929896
-0.0956581
-0.0983236
-0.100987
-0.103648
-0.106307
-0.108966
0.218219
0.213473
0.208719
0.203948
0.199144
0.194297
0.189401
0.184455
0.179467
0.174452
0.169429
0.164421
0.159457
0.154555
0.149732
0.145016
0.140443
0.13604
0.131817
0.127787
0.123969
0.12038
0.117028
0.113911
0.111023
0.108355
0.105891
0.103613
0.101494
0.0995025
0.0976045
0.0957743
0.0939857
0.0922182
0.0904588
0.0886956
0.086924
0.0851412
0.083349
0.0815487
0.079743
0.0779354
0.0761261
0.0743182
0.0725141
0.0707144
0.06892
0.0671323
0.0653517
0.0635797
0.0618171
0.0600618
0.0583105
0.056556
0.0547931
0.0530193
0.0512337
0.0494333
0.047617
0.0457825
0.0439192
0.0420229
0.0401022
0.0381461
0.0361439
0.0340943
0.0319927
0.0298313
0.0276101
0.0253304
0.0229966
0.020615
0.0181943
0.0157427
0.0132724
0.0107948
0.00831083
0.00580645
0.003259
0.000652411
-0.00201467
-0.00471995
-0.00744499
-0.0101931
-0.0129618
-0.0157476
-0.018547
-0.0213568
-0.0241738
-0.0269954
-0.0298188
-0.0326418
-0.0354625
-0.0382791
-0.0410903
-0.0438949
-0.046692
-0.0494811
-0.0522615
-0.055033
-0.0577955
-0.0605489
-0.0632934
-0.0660292
-0.0687565
-0.0714757
-0.0741872
-0.0768915
-0.079589
-0.0822802
-0.0849657
-0.087646
-0.0903216
-0.0929931
-0.095661
-0.0983259
-0.100988
-0.103649
-0.106308
-0.108966
0.218245
0.213549
0.208837
0.204093
0.199305
0.194466
0.189571
0.184624
0.179635
0.174623
0.169608
0.164614
0.159666
0.15479
0.15001
0.145348
0.140829
0.136478
0.132313
0.128346
0.124596
0.121078
0.117801
0.114764
0.11196
0.109379
0.107004
0.104812
0.102772
0.100849
0.0990091
0.0972259
0.0954726
0.0937294
0.0919813
0.0902183
0.0884378
0.0866388
0.0848263
0.0830016
0.0811697
0.0793335
0.077495
0.0756583
0.0738265
0.072001
0.0701829
0.0683735
0.0665733
0.0647834
0.0630032
0.0612298
0.0594591
0.0576795
0.0558877
0.0540834
0.0522652
0.0504246
0.0485628
0.0466784
0.0447568
0.042801
0.0408177
0.0387952
0.0367293
0.0346147
0.0324479
0.0302238
0.0279462
0.025619
0.0232498
0.0208472
0.018421
0.0159823
0.0135391
0.0110917
0.00862587
0.00612063
0.00355408
0.00091232
-0.00179776
-0.00454268
-0.0072985
-0.0100709
-0.0128596
-0.0156624
-0.0184765
-0.0212991
-0.0241276
-0.026959
-0.0297911
-0.0326215
-0.0354485
-0.0382705
-0.0410861
-0.0438944
-0.0466944
-0.0494857
-0.0522679
-0.0550407
-0.057804
-0.060558
-0.0633028
-0.0660385
-0.0687657
-0.0714846
-0.0741958
-0.0768995
-0.0795965
-0.0822871
-0.084972
-0.0876516
-0.0903266
-0.0929974
-0.0956647
-0.0983289
-0.100991
-0.103651
-0.106309
-0.108967
0.21827
0.213621
0.208948
0.20423
0.199458
0.194627
0.189736
0.184793
0.179812
0.174808
0.169806
0.164833
0.159912
0.155071
0.150338
0.145737
0.141285
0.137001
0.132906
0.129016
0.125346
0.121911
0.118719
0.115771
0.113061
0.110576
0.108297
0.106196
0.104238
0.102389
0.100614
0.0988813
0.0971677
0.0954517
0.0937159
0.0919529
0.0901613
0.088344
0.0865072
0.0846543
0.0827921
0.0809248
0.0790576
0.0771942
0.0753363
0.0734863
0.0716452
0.0698156
0.0679978
0.0661915
0.0643948
0.0626041
0.060813
0.0590081
0.057191
0.0553582
0.0535046
0.051619
0.0497091
0.0477695
0.0457838
0.0437653
0.0417145
0.0396211
0.0374823
0.035292
0.0330511
0.0307528
0.0284062
0.0260164
0.0235955
0.0211541
0.0187029
0.0162566
0.0138199
0.0113824
0.00892073
0.00641124
0.00382698
0.00115466
-0.00158817
-0.0043611
-0.00714227
-0.0099372
-0.012746
-0.0155668
-0.0183973
-0.0212346
-0.024076
-0.026919
-0.0297611
-0.0326002
-0.0354346
-0.0382627
-0.0410834
-0.0438958
-0.0466991
-0.0494929
-0.052277
-0.0550511
-0.0578153
-0.0605698
-0.0633147
-0.0660504
-0.0687773
-0.0714958
-0.0742064
-0.0769095
-0.0796057
-0.0822956
-0.0849797
-0.0876585
-0.0903326
-0.0930026
-0.0956691
-0.0983325
-0.100993
-0.103653
-0.10631
-0.108967
0.218289
0.213673
0.209026
0.20433
0.199575
0.194756
0.189876
0.184951
0.179996
0.175029
0.17007
0.165143
0.160264
0.155456
0.150758
0.146207
0.141824
0.137619
0.133601
0.129792
0.126209
0.122868
0.119773
0.116924
0.114314
0.111931
0.109749
0.107738
0.105864
0.104095
0.102388
0.100711
0.0990425
0.097355
0.0956337
0.0938699
0.0920644
0.0902248
0.0883582
0.0864728
0.0845759
0.0826748
0.0807766
0.0788847
0.0770017
0.07513
0.0732694
0.0714229
0.0695907
0.0677699
0.0659581
0.0641517
0.0623418
0.0605173
0.0586767
0.0568147
0.0549224
0.0529938
0.0510359
0.0490392
0.0469909
0.0449096
0.042789
0.0406199
0.0384023
0.0361296
0.0338035
0.0314192
0.0289903
0.0265256
0.0240399
0.0215433
0.0190495
0.0165706
0.0141097
0.0116549
0.00918346
0.00666701
0.00407091
0.00137807
-0.00138675
-0.00417834
-0.0069794
-0.00979455
-0.0126232
-0.0154632
-0.0183114
-0.0211651
-0.0240212
-0.0268772
-0.0297306
-0.0325794
-0.035422
-0.038257
-0.0410833
-0.0439002
-0.046707
-0.0495035
-0.0522894
-0.0550649
-0.0578299
-0.0605847
-0.0633296
-0.0660651
-0.0687915
-0.0715094
-0.0742192
-0.0769215
-0.0796168
-0.0823057
-0.0849888
-0.0876667
-0.0903398
-0.0930088
-0.0956743
-0.0983368
-0.100997
-0.103655
-0.106312
-0.108968
0.218299
0.213702
0.209071
0.204389
0.199648
0.194844
0.189983
0.185083
0.180158
0.175224
0.170301
0.165413
0.16059
0.15586
0.15124
0.146757
0.14244
0.138308
0.134377
0.130663
0.127182
0.123942
0.12095
0.118205
0.115702
0.113423
0.111339
0.109418
0.107629
0.105939
0.104302
0.102686
0.101065
0.0994075
0.097703
0.0959382
0.0941163
0.0922503
0.0903508
0.0884292
0.0864946
0.0845574
0.0826249
0.0807017
0.0787912
0.0768959
0.075016
0.0731543
0.07131
0.0694779
0.0676559
0.0658371
0.0640103
0.0621656
0.0602983
0.0584038
0.0564715
0.0545018
0.052496
0.0504458
0.0483448
0.0462058
0.0440175
0.0417728
0.0394762
0.0371196
0.0347052
0.0322319
0.0297153
0.0271693
0.0246082
0.022041
0.0194843
0.0169489
0.0144351
0.0119297
0.00941767
0.00687774
0.0042739
0.00157723
-0.00119322
-0.00399369
-0.00680972
-0.00964362
-0.0124927
-0.0153531
-0.0182209
-0.0210927
-0.0239652
-0.0268356
-0.0297015
-0.032561
-0.0354126
-0.038255
-0.0410872
-0.0439088
-0.0467192
-0.0495183
-0.0523061
-0.0550826
-0.0578482
-0.0606032
-0.063348
-0.0660829
-0.0688086
-0.0715256
-0.0742344
-0.0769356
-0.0796298
-0.0823175
-0.0849995
-0.0876761
-0.0903481
-0.093016
-0.0956803
-0.0983417
-0.101001
-0.103658
-0.106313
-0.108968
0.218302
0.21371
0.209081
0.204405
0.199676
0.194891
0.190057
0.18519
0.180305
0.175421
0.170555
0.165724
0.160954
0.156283
0.151742
0.147348
0.143121
0.139084
0.135253
0.131641
0.128262
0.125128
0.122244
0.119607
0.117208
0.11503
0.113041
0.111209
0.109507
0.107899
0.106338
0.104783
0.103209
0.101583
0.0998917
0.098123
0.0962821
0.0943866
0.0924548
0.0904963
0.0885234
0.0865473
0.0845765
0.0826177
0.0806763
0.0787543
0.0768522
0.074972
0.0731126
0.0712687
0.0694372
0.0676063
0.0657641
0.0638995
0.0620053
0.0600762
0.058105
0.0560944
0.0540417
0.051943
0.0497954
0.0476015
0.0453538
0.0430448
0.0406776
0.0382422
0.0357433
0.0331843
0.0305815
0.0279553
0.025316
0.0226716
0.0200436
0.0174446
0.0148687
0.0122963
0.00971511
0.00711088
0.00446588
0.00175771
-0.0010052
-0.00380167
-0.00662967
-0.00948302
-0.0123546
-0.0152379
-0.0181277
-0.0210197
-0.0239103
-0.0267965
-0.0296761
-0.0325472
-0.0354082
-0.0382583
-0.0410967
-0.0439229
-0.0467368
-0.0495384
-0.0523278
-0.0551052
-0.0578711
-0.0606259
-0.0633701
-0.0661042
-0.0688289
-0.0715446
-0.0742522
-0.076952
-0.0796448
-0.0823312
-0.0850117
-0.087687
-0.0903576
-0.0930241
-0.0956872
-0.0983472
-0.101005
-0.103661
-0.106315
-0.108969
0.218298
0.213699
0.209066
0.204392
0.199671
0.1949
0.19009
0.185257
0.180418
0.175594
0.170799
0.16605
0.161365
0.156777
0.15232
0.148019
0.143888
0.139944
0.136208
0.132698
0.129425
0.126399
0.123626
0.121101
0.118811
0.116734
0.114839
0.113098
0.111484
0.109962
0.108482
0.106989
0.105459
0.103859
0.102172
0.100396
0.0985343
0.0966075
0.0946431
0.0926463
0.0906329
0.0886135
0.0865996
0.0846012
0.0826268
0.080676
0.0787486
0.0768467
0.0749688
0.0731111
0.0712667
0.0694211
0.0675608
0.0656735
0.0637506
0.0617865
0.0597768
0.057725
0.0556284
0.0534873
0.051298
0.0490574
0.0467618
0.0444027
0.0419801
0.0394822
0.0369085
0.0342674
0.0315843
0.0288847
0.0261737
0.0234646
0.0207805
0.0181284
0.0154883
0.0128334
0.0101563
0.00745295
0.00473019
0.00198804
-0.000785212
-0.00358784
-0.00643229
-0.00931003
-0.0122088
-0.015119
-0.018034
-0.0209486
-0.0238592
-0.0267627
-0.0296569
-0.0325401
-0.0354111
-0.038269
-0.0411134
-0.0439442
-0.0467613
-0.0495649
-0.0523555
-0.0551333
-0.057899
-0.0606532
-0.0633964
-0.0661293
-0.0688525
-0.0715668
-0.0742726
-0.0769708
-0.079662
-0.0823467
-0.0850255
-0.0876992
-0.0903683
-0.0930333
-0.0956948
-0.0983534
-0.10101
-0.103664
-0.106317
-0.108969
0.218289
0.213677
0.209036
0.204356
0.199634
0.194876
0.19009
0.185289
0.180492
0.175723
0.171004
0.166346
0.16176
0.157269
0.152904
0.148697
0.14467
0.14084
0.137221
0.133826
0.130667
0.127754
0.125095
0.122682
0.1205
0.118526
0.11673
0.115084
0.113561
0.112128
0.110723
0.109281
0.107783
0.106196
0.104501
0.102707
0.100823
0.09886
0.0968616
0.0948291
0.0927744
0.0907103
0.0886541
0.0866183
0.0846105
0.082629
0.0806744
0.0787487
0.0768509
0.0749777
0.07312
0.0712606
0.0693791
0.0674636
0.0655066
0.063505
0.061457
0.0593646
0.0572261
0.0550442
0.0528165
0.0505382
0.048205
0.0458064
0.0433364
0.0407828
0.0381476
0.0354482
0.0327088
0.0299508
0.0271878
0.0244386
0.0217201
0.0190233
0.0163124
0.0135637
0.0107774
0.00795818
0.00512263
0.00229121
-0.000552755
-0.00334652
-0.00621144
-0.00912252
-0.0120561
-0.0149987
-0.0179427
-0.0208828
-0.0238152
-0.0267373
-0.0296469
-0.0325426
-0.0354235
-0.0382891
-0.0411393
-0.0439741
-0.0467939
-0.049599
-0.0523901
-0.0551678
-0.0579328
-0.0606857
-0.0634274
-0.0661586
-0.0688799
-0.0715921
-0.074296
-0.0769922
-0.0796813
-0.082364
-0.085041
-0.0877129
-0.0903801
-0.0930434
-0.0957033
-0.0983603
-0.101015
-0.103668
-0.106319
-0.10897
0.218278
0.213644
0.208987
0.204299
0.199578
0.194834
0.190077
0.185317
0.180571
0.175863
0.171214
0.16664
0.162152
0.157768
0.153512
0.149414
0.145499
0.141787
0.138291
0.135019
0.131981
0.129185
0.126638
0.124337
0.122265
0.1204
0.118708
0.117163
0.115733
0.114386
0.11304
0.111639
0.11016
0.10857
0.10686
0.105039
0.103119
0.101111
0.0990702
0.0969972
0.094897
0.0927871
0.0906877
0.0886113
0.086566
0.0845543
0.0825764
0.0806323
0.07872
0.076835
0.0749671
0.0730955
0.0711915
0.0692467
0.0672538
0.0652109
0.0631189
0.0609835
0.0588066
0.0565891
0.0543275
0.0520172
0.0496537
0.0472248
0.0447202
0.0421278
0.0394514
0.0367117
0.0339352
0.0311431
0.0283541
0.0255792
0.0228321
0.0200887
0.0173078
0.0144673
0.0115651
0.00861323
0.00563788
0.00265389
-0.000396379
-0.00305908
-0.00595841
-0.00892054
-0.0118995
-0.0148809
-0.0178579
-0.020826
-0.0237821
-0.0267237
-0.0296491
-0.0325575
-0.0354482
-0.038321
-0.0411763
-0.0440145
-0.0468361
-0.0496419
-0.0524328
-0.0552095
-0.0579729
-0.060724
-0.0634635
-0.0661923
-0.0689112
-0.0716209
-0.0743224
-0.0770161
-0.0797029
-0.0823834
-0.0850582
-0.0877279
-0.0903932
-0.0930546
-0.0957126
-0.0983678
-0.101021
-0.103672
-0.106322
-0.108971
0.218267
0.213611
0.208936
0.204237
0.199517
0.194786
0.190057
0.185343
0.180659
0.17602
0.171446
0.166958
0.162573
0.158308
0.154179
0.150211
0.146423
0.142832
0.139451
0.136294
0.133372
0.130692
0.12826
0.126071
0.124109
0.122355
0.120767
0.119323
0.117981
0.116704
0.1154
0.114021
0.112546
0.110945
0.109214
0.107353
0.105387
0.103333
0.101242
0.0991196
0.0969659
0.0948046
0.0926597
0.0905428
0.0884633
0.0864281
0.0844329
0.0824739
0.0805469
0.0786482
0.0767693
0.0748858
0.0729626
0.0709921
0.0689635
0.0668768
0.064738
0.0625584
0.0603428
0.0580943
0.0558087
0.0534764
0.0510881
0.0486313
0.0460991
0.0434811
0.0407825
0.0380236
0.0352296
0.0324213
0.0296174
0.0268245
0.0240486
0.0212472
0.0183869
0.0154519
0.0124377
0.00936211
0.00625809
0.00317575
0.000180467
-0.00251511
-0.00566044
-0.00871134
-0.0117467
-0.0147719
-0.0177851
-0.0207833
-0.0237642
-0.026726
-0.0296674
-0.0325881
-0.0354879
-0.0383672
-0.0412266
-0.044067
-0.0468894
-0.0496948
-0.0524843
-0.0552591
-0.0580201
-0.0607684
-0.0635049
-0.0662307
-0.0689465
-0.0716533
-0.0743518
-0.0770427
-0.0797267
-0.0824046
-0.0850769
-0.0877443
-0.0904074
-0.0930666
-0.0957226
-0.0983759
-0.101027
-0.103676
-0.106324
-0.108972
0.218254
0.213575
0.208881
0.204172
0.199452
0.194733
0.190028
0.185355
0.180732
0.176172
0.17169
0.167302
0.163029
0.158887
0.154889
0.151052
0.147393
0.143929
0.140674
0.137641
0.13484
0.132278
0.129962
0.127886
0.126037
0.124395
0.122912
0.12156
0.120297
0.119069
0.117788
0.11642
0.114939
0.113315
0.111541
0.109628
0.107605
0.105499
0.10335
0.101166
0.0989468
0.0967264
0.0945316
0.0923747
0.0902674
0.0882159
0.0862097
0.0842405
0.0823
0.0803857
0.0784933
0.0765981
0.0746594
0.0726661
0.0705999
0.0684666
0.0662805
0.0640595
0.0618086
0.0595317
0.0572217
0.0548682
0.0524625
0.0499911
0.0474451
0.0448174
0.0421154
0.0393562
0.0365597
0.0337414
0.0309171
0.0280993
0.0252805
0.0224133
0.0194755
0.016454
0.0133447
0.0101707
0.00695988
0.00376448
0.000650066
-0.0023541
-0.00543522
-0.0085272
-0.0116109
-0.01468
-0.0177307
-0.0207602
-0.0237666
-0.0267486
-0.0297056
-0.0326378
-0.0355456
-0.03843
-0.0412922
-0.0441334
-0.0469552
-0.0497588
-0.0525457
-0.0553173
-0.0580748
-0.0608193
-0.063552
-0.066274
-0.0689861
-0.0716892
-0.0743842
-0.0770719
-0.0797528
-0.0824277
-0.0850973
-0.0877621
-0.0904227
-0.0930796
-0.0957334
-0.0983846
-0.101034
-0.103681
-0.106327
-0.108973
0.218239
0.213533
0.20882
0.204101
0.199384
0.19468
0.190002
0.185371
0.180811
0.176339
0.171961
0.167686
0.163529
0.159509
0.155641
0.151939
0.148414
0.145083
0.14196
0.139057
0.136384
0.133946
0.13175
0.12979
0.128056
0.126524
0.12514
0.123866
0.122667
0.121465
0.120191
0.11882
0.117314
0.115645
0.113815
0.111838
0.10975
0.107582
0.105365
0.103103
0.100809
0.0985221
0.0962683
0.0940663
0.0919318
0.0898693
0.0878637
0.0858984
0.0839529
0.0820257
0.0801175
0.0782065
0.0762491
0.0742292
0.072121
0.0699397
0.0677069
0.065447
0.0631667
0.0608695
0.0585433
0.0561759
0.0537587
0.0512798
0.048733
0.0461119
0.0434201
0.0406721
0.0378805
0.0350568
0.0322149
0.0293603
0.0264734
0.0235257
0.0205064
0.0174017
0.0142069
0.0109423
0.00764019
0.0043507
0.00111636
-0.00204838
-0.00520928
-0.00836093
-0.011497
-0.0146118
-0.0177012
-0.0207627
-0.0237946
-0.0267964
-0.029768
-0.0327103
-0.0356246
-0.0385123
-0.0413753
-0.0442155
-0.0470348
-0.049835
-0.0526178
-0.0553847
-0.0581374
-0.0608771
-0.063605
-0.0663223
-0.0690299
-0.0717288
-0.0744197
-0.0771036
-0.079781
-0.0824527
-0.0851192
-0.0877811
-0.090439
-0.0930935
-0.0957449
-0.0983938
-0.101041
-0.103686
-0.10633
-0.108974
0.218223
0.213489
0.208757
0.204031
0.199318
0.194628
0.189983
0.185406
0.180917
0.176534
0.172261
0.168102
0.164069
0.160181
0.15645
0.152886
0.149501
0.146309
0.143321
0.14055
0.138006
0.135696
0.133623
0.131784
0.130165
0.128735
0.127437
0.126227
0.125072
0.12388
0.122602
0.121207
0.119653
0.117922
0.116019
0.113966
0.111801
0.10956
0.107261
0.104906
0.102528
0.100164
0.0978441
0.0955943
0.0934349
0.0913693
0.0893754
0.0874253
0.0854863
0.0835555
0.0816368
0.0797047
0.077713
0.0756453
0.0734832
0.071252
0.0689798
0.0666912
0.0643897
0.0620781
0.0597432
0.0573721
0.0549552
0.052481
0.0499439
0.0473396
0.044672
0.0419494
0.0391737
0.0363493
0.0334808
0.0305684
0.0275987
0.024561
0.0214478
0.0182477
0.0149612
0.0116081
0.008215
0.0048311
0.00150659
-0.00175793
-0.00500252
-0.00822006
-0.0114119
-0.0145743
-0.0177034
-0.0207971
-0.0238541
-0.0268745
-0.0298591
-0.0328095
-0.0357279
-0.0386165
-0.041478
-0.0443149
-0.0471296
-0.0499242
-0.052701
-0.0554618
-0.0582082
-0.0609418
-0.0636638
-0.0663755
-0.0690778
-0.0717718
-0.0744581
-0.0771377
-0.0798112
-0.0824793
-0.0851424
-0.0878012
-0.0904563
-0.093108
-0.0957569
-0.0984035
-0.101048
-0.103691
-0.106333
-0.108975
0.218207
0.213444
0.208692
0.203959
0.199251
0.194587
0.189991
0.185479
0.181068
0.176774
0.172604
0.168565
0.164663
0.160913
0.157324
0.153904
0.150663
0.147613
0.144767
0.142133
0.139721
0.137538
0.135587
0.133865
0.132351
0.131011
0.129786
0.128629
0.127498
0.126309
0.125013
0.12357
0.121948
0.120134
0.11814
0.115992
0.113737
0.111404
0.109005
0.106546
0.104079
0.10163
0.0992392
0.096941
0.0947585
0.0926971
0.0907305
0.0888098
0.0868836
0.0849417
0.0830014
0.0810303
0.0789854
0.0768572
0.074641
0.0723657
0.0700651
0.0677553
0.0654411
0.0631288
0.0608004
0.0584388
0.0560314
0.0535698
0.0510488
0.0484629
0.0458148
0.0431085
0.040341
0.0375119
0.0346195
0.0316621
0.0286268
0.0255069
0.0222992
0.0190006
0.0156143
0.0121567
0.00865788
0.00518549
0.00179972
-0.00152368
-0.00483219
-0.00811392
-0.0113632
-0.0145747
-0.0177444
-0.02087
-0.0239511
-0.0269883
-0.0299835
-0.0329392
-0.0358587
-0.0387453
-0.0416023
-0.044433
-0.0472404
-0.0500273
-0.052796
-0.0555487
-0.0582874
-0.0610134
-0.0637284
-0.0664335
-0.0691297
-0.071818
-0.0744992
-0.0771741
-0.0798433
-0.0825073
-0.0851668
-0.0878223
-0.0904743
-0.0931232
-0.0957695
-0.0984135
-0.101056
-0.103697
-0.106337
-0.108976
0.218189
0.213392
0.208619
0.203876
0.199174
0.194539
0.189995
0.18556
0.181244
0.177054
0.172999
0.169087
0.165323
0.161716
0.158271
0.154997
0.151902
0.148997
0.146292
0.143795
0.141515
0.139457
0.137626
0.13602
0.134607
0.133347
0.13218
0.131059
0.129931
0.12873
0.127391
0.125881
0.124174
0.12226
0.120156
0.117897
0.115536
0.113094
0.110581
0.108015
0.105448
0.102908
0.100448
0.0981008
0.0958957
0.0938429
0.0919128
0.0900148
0.0880803
0.0861035
0.0841158
0.0820767
0.0799616
0.0777714
0.0755096
0.0732048
0.0708915
0.0685831
0.0662871
0.0640014
0.0616995
0.0593627
0.0569782
0.0545401
0.0520407
0.0494746
0.0468429
0.0441454
0.041376
0.0385328
0.035613
0.0326134
0.029522
0.026334
0.0230465
0.0196628
0.0161941
0.0126641
0.00910834
0.00557702
0.00211014
-0.00130607
-0.00469524
-0.00804697
-0.0113572
-0.0146202
-0.0178315
-0.0209888
-0.0240923
-0.0271438
-0.0301462
-0.0331036
-0.0360203
-0.0389009
-0.0417498
-0.044571
-0.0473681
-0.0501445
-0.0529028
-0.0556455
-0.0583746
-0.0610917
-0.0637984
-0.0664959
-0.0691852
-0.0718672
-0.0745427
-0.0772123
-0.0798768
-0.0825366
-0.0851922
-0.0878442
-0.0904929
-0.0931389
-0.0957824
-0.0984238
-0.101064
-0.103702
-0.10634
-0.108977
0.218172
0.213343
0.208546
0.203795
0.199111
0.194518
0.190033
0.185674
0.181451
0.177372
0.173445
0.16967
0.166051
0.162593
0.159298
0.156173
0.153226
0.150466
0.147901
0.145541
0.143394
0.141466
0.139757
0.138257
0.136931
0.135732
0.134611
0.133509
0.132369
0.131134
0.12974
0.128144
0.126325
0.124289
0.122059
0.119674
0.117189
0.114623
0.111979
0.109295
0.106625
0.104008
0.101486
0.0990939
0.0968688
0.0948313
0.0929131
0.0909805
0.0889852
0.0869424
0.0848764
0.0827539
0.0805687
0.0783255
0.0760361
0.0737334
0.0714472
0.0691804
0.0669312
0.06469
0.0624298
0.0601321
0.0577835
0.0553782
0.0529058
0.0503602
0.04774
0.0450436
0.0422679
0.0394119
0.0364696
0.0334336
0.0302933
0.0270459
0.0236911
0.0202363
0.0167008
0.0131133
0.00950693
0.00592136
0.00237995
-0.00112581
-0.00459767
-0.00802438
-0.0114006
-0.0147186
-0.017973
-0.0211615
-0.0242851
-0.0273471
-0.0303523
-0.0333065
-0.0362156
-0.0390856
-0.041922
-0.0447297
-0.0475131
-0.0502759
-0.0530213
-0.0557517
-0.0584695
-0.0611762
-0.0638734
-0.0665623
-0.0692438
-0.0719188
-0.0745881
-0.0772521
-0.0799115
-0.0825668
-0.0852184
-0.0878666
-0.090512
-0.0931548
-0.0957955
-0.0984343
-0.101072
-0.103708
-0.106343
-0.108978
0.21816
0.213309
0.208492
0.203736
0.199075
0.194534
0.190124
0.185856
0.181739
0.177778
0.173976
0.170338
0.166863
0.163553
0.160408
0.157433
0.154634
0.152018
0.149594
0.147371
0.145354
0.143546
0.141946
0.140543
0.139297
0.138158
0.137071
0.135972
0.134813
0.133534
0.132065
0.130353
0.128397
0.126215
0.123834
0.121302
0.118687
0.11599
0.113218
0.110423
0.107658
0.104971
0.102396
0.0999649
0.0977171
0.0956712
0.0936887
0.0916419
0.0895336
0.0873932
0.0852254
0.0830161
0.0807688
0.0784966
0.0762224
0.0739698
0.0717456
0.0695442
0.0673603
0.0651807
0.0629781
0.0607359
0.0584368
0.0560727
0.0536308
0.0511027
0.048489
0.0457906
0.0430067
0.0401367
0.0371746
0.0341106
0.0309342
0.0276428
0.0242378
0.02073
0.017147
0.0135177
0.00986718
0.00622356
0.00260992
-0.000981191
-0.00454047
-0.00805029
-0.0115001
-0.0148787
-0.0181786
-0.0213974
-0.0245378
-0.0276053
-0.0306073
-0.033552
-0.0364473
-0.039301
-0.0421197
-0.0449094
-0.0476751
-0.0504211
-0.0531507
-0.0558667
-0.0585712
-0.0612661
-0.0639526
-0.0666319
-0.0693049
-0.0719724
-0.0746349
-0.0772929
-0.079947
-0.0825975
-0.0852449
-0.0878893
-0.0905312
-0.0931709
-0.0958087
-0.0984448
-0.10108
-0.103713
-0.106347
-0.108979
0.218152
0.213287
0.208461
0.203715
0.199084
0.194595
0.190266
0.186099
0.182098
0.178263
0.174595
0.171096
0.167765
0.164602
0.161606
0.158779
0.156125
0.15365
0.151362
0.149269
0.147377
0.145687
0.144195
0.142882
0.141705
0.140617
0.139549
0.138445
0.137252
0.135905
0.134328
0.132482
0.130378
0.128038
0.125493
0.122809
0.120056
0.117224
0.114324
0.111422
0.108582
0.105839
0.103218
0.10075
0.09846
0.09634
0.0942139
0.0920044
0.0897484
0.0874883
0.0852198
0.082937
0.0806486
0.0783677
0.0761242
0.0739322
0.0717857
0.0696667
0.0675608
0.065453
0.0633178
0.0611441
0.0589079
0.0565926
0.0541817
0.0516666
0.0490593
0.0463671
0.0435907
0.0407246
0.0377564
0.0346779
0.031482
0.0281646
0.0247308
0.0211973
0.0175919
0.0139391
0.0102563
0.00655752
0.00285772
-0.000846898
-0.00451797
-0.00812872
-0.0116651
-0.0151124
-0.0184606
-0.021708
-0.02486
-0.0279259
-0.0309167
-0.0338438
-0.0367177
-0.0395481
-0.0423431
-0.0451096
-0.0478534
-0.050579
-0.05329
-0.0559892
-0.0586787
-0.0613602
-0.0640349
-0.0667038
-0.0693677
-0.0720271
-0.0746824
-0.0773343
-0.0799828
-0.0826284
-0.0852714
-0.0879119
-0.0905503
-0.0931869
-0.0958218
-0.0984552
-0.101088
-0.103719
-0.10635
-0.10898
0.218144
0.213268
0.208449
0.203731
0.199149
0.19473
0.190486
0.186424
0.182541
0.178834
0.175303
0.171945
0.16876
0.165744
0.162894
0.160212
0.157698
0.155359
0.153202
0.151235
0.149463
0.147885
0.14649
0.14525
0.144135
0.143089
0.142027
0.140908
0.139671
0.138239
0.136534
0.134534
0.132266
0.129755
0.127034
0.124191
0.121296
0.118327
0.11531
0.112324
0.109424
0.106638
0.103989
0.101481
0.0991126
0.0968597
0.0945586
0.0921912
0.0898019
0.0874337
0.0850813
0.082732
0.0804031
0.0781088
0.0758879
0.0737376
0.0716412
0.0695758
0.0675224
0.0654733
0.0634019
0.0613021
0.059148
0.0569009
0.0545295
0.0520237
0.0494358
0.046774
0.0440306
0.0411963
0.0382418
0.035163
0.0319658
0.0286464
0.0252142
0.0216957
0.0181097
0.0144587
0.0107488
0.00698653
0.00317426
-0.000692985
-0.00452326
-0.00826848
-0.0119115
-0.0154374
-0.0188361
-0.0221081
-0.0252635
-0.0283173
-0.031286
-0.0341851
-0.0370283
-0.0398272
-0.0425915
-0.0453292
-0.0480464
-0.050748
-0.0534375
-0.0561176
-0.0587904
-0.0614572
-0.0641192
-0.0667769
-0.0694311
-0.072082
-0.07473
-0.0773754
-0.0800183
-0.082659
-0.0852975
-0.0879342
-0.0905691
-0.0932025
-0.0958345
-0.0984654
-0.101095
-0.103724
-0.106353
-0.108981
0.218148
0.213284
0.208487
0.203806
0.199281
0.194936
0.190785
0.18683
0.183068
0.179494
0.176101
0.172886
0.169846
0.166974
0.164265
0.161721
0.159341
0.157131
0.155097
0.153247
0.151588
0.150111
0.148798
0.147627
0.146568
0.14554
0.14447
0.143319
0.142018
0.140473
0.138614
0.136453
0.134024
0.131348
0.128458
0.125466
0.122435
0.119342
0.116235
0.113188
0.110243
0.107442
0.104799
0.102267
0.0997889
0.0973842
0.0948988
0.0923736
0.0898702
0.0874588
0.0851101
0.0827494
0.0803769
0.0779887
0.0757185
0.0735305
0.0713986
0.0693157
0.0672473
0.0652074
0.0631475
0.0611079
0.0590661
0.0569297
0.0546268
0.0521204
0.0495925
0.0470136
0.0443484
0.041599
0.038675
0.0356094
0.0324301
0.0291398
0.0257697
0.022348
0.0188535
0.0152423
0.0115222
0.00767713
0.00369338
-0.000446515
-0.00453726
-0.00848557
-0.0122676
-0.0158826
-0.01933
-0.0226169
-0.0257618
-0.0287884
-0.0317203
-0.0345781
-0.0373791
-0.040137
-0.0428631
-0.0455657
-0.0482516
-0.0509254
-0.0535906
-0.0562497
-0.0589043
-0.0615554
-0.0642038
-0.0668499
-0.069494
-0.0721363
-0.0747768
-0.0774157
-0.0800529
-0.0826887
-0.0853229
-0.0879557
-0.0905872
-0.0932176
-0.0958468
-0.0984752
-0.101103
-0.10373
-0.106356
-0.108982
0.218162
0.213327
0.20857
0.203946
0.19949
0.195229
0.191173
0.187327
0.183687
0.180245
0.176992
0.173922
0.171024
0.168291
0.165719
0.163305
0.16105
0.158959
0.157038
0.155295
0.153736
0.152349
0.151113
0.150001
0.148972
0.147929
0.146819
0.145611
0.144225
0.142543
0.140507
0.13818
0.135625
0.132837
0.129825
0.126694
0.123505
0.120318
0.11719
0.114114
0.111144
0.108364
0.10581
0.103301
0.100641
0.098072
0.095378
0.0926597
0.0900101
0.0877071
0.0855889
0.0833108
0.0809208
0.0782692
0.075911
0.0735856
0.0712488
0.0690011
0.0667787
0.0646773
0.0624352
0.0603592
0.0584738
0.0565349
0.0543855
0.0518016
0.0494672
0.047058
0.0445118
0.0419876
0.0390768
0.0360178
0.0328652
0.029655