/*--------------------------------*- C++ -*----------------------------------*\
  =========                 |
  \\      /  F ield         | OpenFOAM: The Open Source CFD Toolbox
   \\    /   O peration     | Website:  https://openfoam.org
    \\  /    A nd           | Version:  6
     \\/     M anipulation  |
\*---------------------------------------------------------------------------*/
FoamFile
{
    version     2.0;
    format      ascii;
    class       volScalarField;
    location    "4250";
    object      T;
}
// * * * * * * * * * * * * * * * * * * * * * * * * * * * * * * * * * * * * * //

dimensions      [0 0 0 1 0 0 0];

internalField   nonuniform List<scalar> 
4800
(
552.463
552.288
552.114
551.939
551.763
551.586
551.408
551.228
551.047
550.865
550.682
550.5
550.319
550.14
549.963
549.79
549.621
549.458
549.3
549.149
549.007
548.871
548.743
548.622
548.51
548.405
548.308
548.217
548.134
548.055
547.981
547.91
547.842
547.776
547.711
547.647
547.584
547.521
547.458
547.395
547.332
547.269
547.206
547.143
547.08
547.018
546.955
546.892
546.83
546.767
546.705
546.643
546.581
546.52
546.458
546.397
546.336
546.275
546.213
546.151
546.088
546.025
545.96
545.894
545.827
545.758
545.686
545.612
545.536
545.456
545.373
545.288
545.2
545.111
545.02
544.928
544.835
544.742
544.648
544.553
544.458
544.364
544.268
544.17
544.072
543.972
543.872
543.771
543.67
543.568
543.466
543.364
543.263
543.161
543.059
542.958
542.857
542.756
542.655
542.555
542.455
542.355
542.255
542.156
542.057
541.958
541.86
541.762
541.664
541.567
541.469
541.372
541.275
541.178
541.081
540.984
540.888
540.791
540.695
540.598
552.463
552.288
552.114
551.939
551.763
551.586
551.408
551.229
551.048
550.866
550.683
550.501
550.32
550.14
549.964
549.791
549.622
549.458
549.302
549.152
549.009
548.874
548.746
548.627
548.515
548.412
548.316
548.226
548.143
548.065
547.992
547.922
547.854
547.788
547.724
547.66
547.596
547.533
547.47
547.407
547.343
547.28
547.217
547.154
547.09
547.027
546.964
546.901
546.839
546.776
546.714
546.651
546.589
546.528
546.466
546.405
546.343
546.281
546.219
546.156
546.093
546.029
545.963
545.897
545.829
545.76
545.688
545.613
545.536
545.456
545.374
545.288
545.2
545.11
545.019
544.926
544.832
544.738
544.645
544.552
544.459
544.365
544.269
544.171
544.073
543.973
543.872
543.771
543.67
543.568
543.467
543.365
543.263
543.161
543.059
542.958
542.857
542.756
542.655
542.555
542.454
542.355
542.255
542.156
542.057
541.958
541.86
541.762
541.664
541.566
541.469
541.372
541.275
541.178
541.081
540.984
540.888
540.791
540.695
540.598
552.463
552.288
552.114
551.939
551.764
551.588
551.41
551.23
551.05
550.868
550.686
550.504
550.323
550.143
549.966
549.794
549.625
549.463
549.307
549.158
549.016
548.882
548.756
548.638
548.528
548.427
548.332
548.245
548.163
548.087
548.014
547.945
547.878
547.813
547.748
547.684
547.621
547.557
547.493
547.43
547.366
547.302
547.238
547.174
547.111
547.047
546.983
546.92
546.857
546.794
546.731
546.668
546.606
546.544
546.482
546.419
546.357
546.294
546.231
546.167
546.103
546.038
545.971
545.904
545.835
545.764
545.691
545.616
545.538
545.458
545.375
545.289
545.201
545.111
545.019
544.926
544.833
544.74
544.648
544.556
544.463
544.368
544.271
544.173
544.074
543.974
543.874
543.772
543.671
543.569
543.467
543.365
543.263
543.161
543.06
542.958
542.857
542.756
542.655
542.555
542.454
542.355
542.255
542.156
542.057
541.958
541.86
541.762
541.664
541.566
541.469
541.372
541.275
541.178
541.081
540.984
540.888
540.791
540.695
540.598
552.463
552.29
552.116
551.942
551.767
551.591
551.413
551.234
551.053
550.872
550.69
550.508
550.327
550.148
549.972
549.8
549.633
549.471
549.317
549.169
549.028
548.896
548.772
548.656
548.549
548.449
548.357
548.272
548.192
548.118
548.047
547.979
547.913
547.849
547.784
547.72
547.657
547.592
547.528
547.464
547.399
547.334
547.27
547.205
547.141
547.076
547.012
546.948
546.884
546.82
546.757
546.694
546.631
546.568
546.505
546.442
546.379
546.315
546.25
546.185
546.119
546.053
545.985
545.916
545.846
545.773
545.699
545.622
545.543
545.462
545.378
545.292
545.204
545.114
545.024
544.932
544.841
544.749
544.657
544.564
544.469
544.373
544.275
544.176
544.077
543.976
543.875
543.774
543.672
543.57
543.468
543.366
543.263
543.161
543.06
542.958
542.857
542.756
542.655
542.554
542.454
542.354
542.255
542.156
542.057
541.958
541.86
541.762
541.664
541.566
541.469
541.372
541.275
541.178
541.081
540.984
540.888
540.791
540.695
540.598
552.464
552.292
552.119
551.946
551.772
551.596
551.419
551.239
551.059
550.877
550.694
550.513
550.333
550.155
549.98
549.809
549.643
549.484
549.33
549.184
549.046
548.916
548.794
548.681
548.576
548.48
548.39
548.308
548.231
548.159
548.09
548.024
547.959
547.895
547.831
547.767
547.703
547.638
547.573
547.508
547.442
547.377
547.311
547.245
547.18
547.115
547.05
546.985
546.92
546.856
546.792
546.728
546.665
546.601
546.537
546.473
546.408
546.343
546.277
546.21
546.143
546.074
546.004
545.933
545.861
545.786
545.71
545.632
545.551
545.469
545.384
545.298
545.21
545.121
545.031
544.941
544.851
544.761
544.668
544.574
544.477
544.379
544.28
544.18
544.08
543.979
543.877
543.775
543.673
543.571
543.469
543.366
543.264
543.162
543.06
542.958
542.857
542.756
542.655
542.554
542.454
542.354
542.255
542.155
542.056
541.958
541.86
541.761
541.664
541.566
541.469
541.371
541.274
541.177
541.081
540.984
540.888
540.791
540.695
540.598
552.465
552.295
552.124
551.952
551.778
551.603
551.425
551.246
551.065
550.883
550.701
550.52
550.34
550.164
549.99
549.821
549.657
549.5
549.348
549.205
549.069
548.941
548.822
548.712
548.61
548.517
548.431
548.351
548.277
548.208
548.141
548.076
548.013
547.949
547.886
547.822
547.757
547.692
547.626
547.56
547.494
547.427
547.361
547.294
547.227
547.161
547.095
547.03
546.964
546.899
546.835
546.771
546.706
546.642
546.577
546.511
546.445
546.379
546.311
546.243
546.173
546.102
546.03
545.957
545.882
545.805
545.727
545.646
545.563
545.479
545.393
545.306
545.218
545.13
545.041
544.952
544.863
544.772
544.679
544.583
544.485
544.385
544.285
544.185
544.084
543.982
543.88
543.778
543.675
543.572
543.47
543.367
543.264
543.162
543.06
542.958
542.857
542.755
542.654
542.554
542.454
542.354
542.254
542.155
542.056
541.958
541.859
541.761
541.663
541.566
541.468
541.371
541.274
541.177
541.081
540.984
540.887
540.791
540.695
540.598
552.466
552.297
552.128
551.957
551.784
551.608
551.431
551.252
551.071
550.89
550.708
550.528
550.349
550.174
550.002
549.835
549.674
549.518
549.37
549.229
549.096
548.971
548.856
548.749
548.65
548.56
548.478
548.401
548.33
548.263
548.199
548.136
548.074
548.012
547.949
547.885
547.82
547.754
547.687
547.62
547.553
547.485
547.417
547.35
547.282
547.215
547.148
547.082
547.016
546.951
546.885
546.82
546.755
546.69
546.624
546.558
546.49
546.422
546.353
546.282
546.21
546.137
546.063
545.987
545.909
545.83
545.749
545.665
545.58
545.493
545.406
545.317
545.228
545.14
545.051
544.963
544.873
544.782
544.689
544.592
544.492
544.392
544.291
544.19
544.088
543.985
543.883
543.78
543.677
543.574
543.471
543.368
543.265
543.162
543.06
542.958
542.856
542.755
542.654
542.554
542.453
542.353
542.254
542.155
542.056
541.957
541.859
541.761
541.663
541.565
541.468
541.371
541.274
541.177
541.08
540.984
540.887
540.791
540.695
540.598
552.466
552.299
552.131
551.96
551.788
551.613
551.436
551.257
551.078
550.898
550.718
550.539
550.362
550.188
550.017
549.852
549.693
549.541
549.395
549.257
549.127
549.006
548.894
548.79
548.696
548.609
548.53
548.457
548.389
548.325
548.263
548.203
548.142
548.081
548.018
547.954
547.889
547.822
547.755
547.686
547.617
547.548
547.48
547.411
547.343
547.275
547.207
547.14
547.074
547.008
546.942
546.877
546.811
546.745
546.678
546.61
546.542
546.472
546.401
546.328
546.254
546.179
546.102
546.023
545.943
545.86
545.776
545.689
545.601
545.512
545.422
545.331
545.241
545.151
545.062
544.973
544.883
544.792
544.698
544.6
544.5
544.398
544.297
544.195
544.092
543.989
543.886
543.782
543.679
543.575
543.472
543.368
543.265
543.163
543.06
542.958
542.856
542.755
542.654
542.553
542.453
542.353
542.253
542.154
542.055
541.957
541.858
541.76
541.663
541.565
541.468
541.371
541.274
541.177
541.08
540.984
540.887
540.791
540.694
540.598
552.467
552.3
552.132
551.962
551.79
551.616
551.44
551.262
551.084
550.905
550.726
550.549
550.374
550.202
550.035
549.872
549.716
549.566
549.423
549.289
549.162
549.045
548.936
548.837
548.746
548.664
548.588
548.518
548.453
548.392
548.333
548.274
548.215
548.155
548.093
548.029
547.963
547.896
547.827
547.757
547.687
547.617
547.547
547.477
547.408
547.339
547.271
547.203
547.136
547.07
547.004
546.938
546.871
546.805
546.737
546.668
546.598
546.527
546.454
546.379
546.303
546.226
546.146
546.065
545.982
545.896
545.809
545.719
545.628
545.535
545.442
545.349
545.257
545.165
545.073
544.983
544.892
544.799
544.705
544.607
544.507
544.405
544.303
544.2
544.097
543.993
543.889
543.785
543.681
543.577
543.473
543.369
543.266
543.163
543.06
542.958
542.856
542.754
542.653
542.552
542.452
542.352
542.253
542.153
542.055
541.956
541.858
541.76
541.662
541.565
541.467
541.37
541.273
541.177
541.08
540.984
540.887
540.791
540.694
540.598
552.467
552.3
552.133
551.963
551.791
551.618
551.443
551.266
551.089
550.912
550.735
550.56
550.387
550.218
550.053
549.894
549.74
549.594
549.455
549.324
549.202
549.088
548.983
548.888
548.801
548.722
548.65
548.583
548.522
548.463
548.407
548.35
548.293
548.234
548.173
548.109
548.042
547.973
547.903
547.832
547.761
547.689
547.617
547.546
547.476
547.406
547.337
547.269
547.202
547.135
547.068
547.002
546.935
546.867
546.799
546.729
546.657
546.584
546.51
546.434
546.356
546.276
546.195
546.111
546.025
545.937
545.846
545.753
545.659
545.564
545.468
545.372
545.277
545.183
545.089
544.996
544.902
544.808
544.712
544.614
544.514
544.412
544.31
544.206
544.102
543.997
543.893
543.788
543.683
543.578
543.474
543.37
543.266
543.163
543.06
542.957
542.855
542.753
542.652
542.552
542.451
542.351
542.252
542.153
542.054
541.955
541.857
541.759
541.662
541.564
541.467
541.37
541.273
541.176
541.08
540.983
540.887
540.791
540.694
540.598
552.467
552.3
552.132
551.963
551.791
551.618
551.444
551.269
551.093
550.918
550.744
550.572
550.402
550.236
550.074
549.918
549.768
549.625
549.49
549.363
549.244
549.134
549.034
548.942
548.859
548.784
548.715
548.652
548.593
548.538
548.484
548.43
548.375
548.317
548.256
548.191
548.124
548.054
547.982
547.91
547.837
547.764
547.691
547.618
547.547
547.476
547.406
547.337
547.269
547.201
547.135
547.068
547
546.932
546.862
546.791
546.718
546.643
546.567
546.49
546.41
546.329
546.246
546.16
546.072
545.982
545.888
545.793
545.695
545.597
545.499
545.401
545.304
545.207
545.112
545.015
544.918
544.82
544.722
544.622
544.521
544.42
544.317
544.212
544.107
544.002
543.896
543.79
543.685
543.579
543.474
543.37
543.266
543.162
543.059
542.956
542.854
542.752
542.651
542.551
542.45
542.35
542.251
542.152
542.053
541.955
541.856
541.759
541.661
541.564
541.466
541.369
541.273
541.176
541.08
540.983
540.887
540.79
540.694
540.598
552.467
552.299
552.131
551.961
551.79
551.617
551.444
551.27
551.096
550.923
550.752
550.583
550.416
550.254
550.095
549.943
549.797
549.658
549.527
549.403
549.289
549.183
549.087
548.999
548.92
548.849
548.784
548.724
548.669
548.617
548.566
548.513
548.459
548.401
548.34
548.275
548.207
548.135
548.063
547.989
547.915
547.84
547.765
547.691
547.619
547.547
547.476
547.406
547.337
547.269
547.202
547.134
547.066
546.997
546.926
546.853
546.779
546.703
546.625
546.546
546.465
546.383
546.298
546.211
546.122
546.029
545.933
545.835
545.736
545.636
545.536
545.436
545.338
545.24
545.142
545.042
544.941
544.839
544.736
544.633
544.53
544.429
544.325
544.219
544.113
544.006
543.899
543.793
543.686
543.58
543.475
543.37
543.265
543.161
543.058
542.955
542.853
542.751
542.65
542.549
542.449
542.349
542.25
542.151
542.052
541.954
541.856
541.758
541.66
541.563
541.466
541.369
541.272
541.176
541.079
540.983
540.887
540.79
540.694
540.598
552.466
552.298
552.129
551.959
551.788
551.616
551.443
551.271
551.099
550.928
550.759
550.593
550.431
550.272
550.117
549.969
549.827
549.692
549.565
549.447
549.337
549.235
549.143
549.059
548.984
548.917
548.855
548.799
548.747
548.698
548.65
548.599
548.545
548.488
548.426
548.36
548.29
548.217
548.143
548.068
547.992
547.915
547.839
547.764
547.689
547.617
547.545
547.474
547.405
547.337
547.269
547.201
547.132
547.061
546.989
546.915
546.839
546.762
546.683
546.602
546.52
546.436
546.351
546.263
546.172
546.078
545.981
545.881
545.781
545.679
545.578
545.478
545.378
545.278
545.178
545.075
544.969
544.862
544.754
544.646
544.535
544.439
544.334
544.226
544.118
544.01
543.902
543.795
543.688
543.581
543.475
543.369
543.264
543.16
543.057
542.954
542.851
542.75
542.648
542.548
542.448
542.348
542.248
542.149
542.051
541.953
541.855
541.757
541.659
541.562
541.465
541.368
541.272
541.175
541.079
540.983
540.886
540.79
540.694
540.598
552.466
552.297
552.127
551.957
551.786
551.614
551.443
551.272
551.102
550.934
550.768
550.605
550.446
550.291
550.142
549.998
549.86
549.73
549.607
549.493
549.387
549.29
549.202
549.122
549.051
548.987
548.93
548.878
548.829
548.783
548.735
548.685
548.632
548.574
548.511
548.443
548.372
548.298
548.222
548.145
548.067
547.988
547.91
547.834
547.758
547.684
547.612
547.541
547.471
547.402
547.334
547.266
547.196
547.125
547.051
546.975
546.898
546.819
546.738
546.657
546.574
546.489
546.403
546.314
546.222
546.127
546.029
545.929
545.828
545.726
545.624
545.523
545.422
545.321
545.217
545.11
545.001
544.889
544.777
544.665
544.556
544.457
544.345
544.234
544.124
544.014
543.905
543.796
543.688
543.581
543.474
543.368
543.263
543.159
543.055
542.952
542.85
542.748
542.647
542.546
542.446
542.346
542.247
542.148
542.05
541.951
541.854
541.756
541.659
541.562
541.465
541.368
541.271
541.175
541.079
540.982
540.886
540.79
540.694
540.598
552.465
552.296
552.125
551.955
551.783
551.612
551.442
551.272
551.105
550.939
550.777
550.617
550.463
550.312
550.167
550.028
549.895
549.77
549.652
549.542
549.44
549.347
549.263
549.188
549.121
549.061
549.008
548.959
548.913
548.868
548.822
548.772
548.719
548.66
548.595
548.526
548.453
548.376
548.298
548.219
548.138
548.058
547.978
547.9
547.824
547.749
547.677
547.605
547.535
547.465
547.397
547.328
547.258
547.185
547.11
547.033
546.954
546.873
546.792
546.709
546.625
546.54
546.453
546.363
546.271
546.175
546.077
545.977
545.876
545.774
545.671
545.569
545.467
545.363
545.256
545.147
545.034
544.919
544.802
544.686
544.574
544.465
544.353
544.241
544.129
544.018
543.907
543.797
543.688
543.58
543.473
543.366
543.261
543.156
543.052
542.949
542.847
542.745
542.644
542.544
542.444
542.344
542.245
542.147
542.048
541.95
541.852
541.755
541.658
541.561
541.464
541.367
541.271
541.174
541.078
540.982
540.886
540.79
540.694
540.598
552.465
552.294
552.123
551.952
551.781
551.61
551.441
551.273
551.107
550.945
550.786
550.631
550.481
550.335
550.195
550.06
549.933
549.812
549.698
549.593
549.496
549.408
549.328
549.257
549.194
549.139
549.088
549.042
548.999
548.955
548.909
548.859
548.805
548.744
548.678
548.606
548.53
548.452
548.371
548.289
548.206
548.123
548.041
547.961
547.884
547.809
547.736
547.665
547.595
547.525
547.456
547.386
547.315
547.242
547.165
547.086
547.005
546.923
546.841
546.757
546.673
546.587
546.5
546.41
546.317
546.222
546.125
546.025
545.924
545.821
545.718
545.615
545.51
545.403
545.294
545.181
545.065
544.947
544.827
544.708
544.59
544.476
544.361
544.247
544.133
544.02
543.908
543.797
543.687
543.578
543.47
543.364
543.258
543.153
543.049
542.946
542.844
542.743
542.642
542.541
542.442
542.342
542.243
542.145
542.047
541.949
541.851
541.754
541.657
541.56
541.463
541.367
541.27
541.174
541.078
540.982
540.886
540.79
540.694
540.598
552.464
552.292
552.121
551.949
551.779
551.608
551.44
551.274
551.111
550.952
550.797
550.647
550.5
550.359
550.224
550.095
549.972
549.856
549.748
549.647
549.555
549.471
549.396
549.329
549.271
549.219
549.172
549.128
549.086
549.043
548.996
548.946
548.889
548.827
548.758
548.683
548.605
548.523
548.44
548.355
548.268
548.183
548.098
548.017
547.939
547.864
547.791
547.721
547.65
547.58
547.511
547.441
547.368
547.293
547.215
547.134
547.052
546.969
546.885
546.801
546.717
546.631
546.543
546.453
546.361
546.267
546.17
546.071
545.971
545.868
545.764
545.659
545.551
545.441
545.328
545.212
545.093
544.971
544.848
544.725
544.605
544.486
544.369
544.252
544.136
544.021
543.908
543.796
543.685
543.575
543.467
543.36
543.254
543.15
543.046
542.943
542.841
542.739
542.639
542.539
542.439
542.34
542.241
542.143
542.045
541.947
541.85
541.753
541.656
541.559
541.462
541.366
541.269
541.173
541.077
540.981
540.885
540.79
540.694
540.598
552.464
552.291
552.119
551.947
551.776
551.607
551.44
551.277
551.117
550.961
550.81
550.663
550.522
550.386
550.256
550.132
550.014
549.903
549.8
549.705
549.617
549.538
549.467
549.405
549.35
549.301
549.257
549.215
549.174
549.131
549.084
549.032
548.973
548.907
548.835
548.757
548.675
548.59
548.503
548.414
548.325
548.236
548.149
548.066
547.987
547.912
547.84
547.771
547.701
547.63
547.56
547.489
547.414
547.337
547.257
547.174
547.091
547.007
546.923
546.839
546.755
546.669
546.582
546.493
546.401
546.307
546.211
546.113
546.013
545.91
545.805
545.698
545.588
545.475
545.359
545.239
545.116
544.991
544.864
544.738
544.615
544.495
544.375
544.256
544.138
544.021
543.906
543.793
543.681
543.571
543.463
543.355
543.25
543.145
543.041
542.939
542.837
542.736
542.635
542.535
542.436
542.337
542.239
542.141
542.043
541.945
541.848
541.751
541.654
541.558
541.461
541.365
541.269
541.173
541.077
540.981
540.885
540.789
540.694
540.598
552.463
552.289
552.116
551.944
551.773
551.605
551.44
551.28
551.123
550.971
550.824
550.682
550.546
550.415
550.29
550.171
550.059
549.954
549.856
549.765
549.682
549.608
549.541
549.483
549.432
549.386
549.344
549.303
549.262
549.219
549.17
549.115
549.053
548.984
548.908
548.826
548.74
548.652
548.56
548.467
548.374
548.282
548.193
548.108
548.028
547.953
547.883
547.814
547.744
547.673
547.6
547.526
547.45
547.37
547.288
547.205
547.121
547.037
546.954
546.871
546.788
546.703
546.616
546.528
546.437
546.344
546.249
546.151
546.051
545.947
545.842
545.733
545.621
545.505
545.386
545.263
545.137
545.009
544.88
544.752
544.627
544.503
544.38
544.258
544.138
544.02
543.903
543.789
543.676
543.566
543.457
543.349
543.244
543.139
543.036
542.934
542.832
542.731
542.631
542.532
542.433
542.334
542.236
542.138
542.041
541.944
541.847
541.75
541.653
541.557
541.46
541.364
541.268
541.172
541.076
540.981
540.885
540.789
540.693
540.598
552.462
552.287
552.113
551.941
551.771
551.604
551.442
551.284
551.131
550.983
550.84
550.703
550.572
550.447
550.327
550.214
550.107
550.007
549.914
549.828
549.75
549.681
549.619
549.564
549.516
549.473
549.432
549.392
549.351
549.306
549.255
549.197
549.131
549.058
548.977
548.89
548.8
548.707
548.611
548.514
548.417
548.322
548.23
548.144
548.063
547.989
547.92
547.849
547.777
547.703
547.628
547.551
547.472
547.39
547.307
547.224
547.141
547.059
546.977
546.896
546.814
546.731
546.645
546.558
546.469
546.376
546.281
546.184
546.083
545.979
545.873
545.763
545.649
545.531
545.409
545.284
545.156
545.026
544.895
544.765
544.636
544.509
544.383
544.259
544.137
544.016
543.898
543.783
543.669
543.558
543.449
543.342
543.237
543.133
543.03
542.928
542.827
542.727
542.627
542.528
542.43
542.331
542.234
542.136
542.039
541.942
541.845
541.748
541.652
541.556
541.459
541.363
541.267
541.172
541.076
540.98
540.885
540.789
540.693
540.598
552.462
552.286
552.111
551.939
551.77
551.605
551.445
551.29
551.141
550.997
550.86
550.728
550.602
550.482
550.368
550.26
550.158
550.063
549.975
549.895
549.822
549.756
549.698
549.647
549.602
549.561
549.521
549.481
549.439
549.393
549.34
549.278
549.207
549.127
549.041
548.949
548.854
548.757
548.656
548.555
548.454
548.357
548.263
548.175
548.094
548.02
547.948
547.873
547.797
547.719
547.641
547.561
547.479
547.397
547.314
547.232
547.152
547.072
546.993
546.914
546.834
546.752
546.669
546.583
546.495
546.403
546.308
546.211
546.11
546.006
545.898
545.787
545.672
545.553
545.429
545.302
545.172
545.04
544.908
544.776
544.645
544.514
544.385
544.258
544.133
544.01
543.891
543.774
543.66
543.549
543.44
543.333
543.228
543.125
543.022
542.921
542.821
542.721
542.622
542.524
542.426
542.328
542.231
542.134
542.037
541.94
541.843
541.747
541.651
541.555
541.458
541.363
541.267
541.171
541.075
540.98
540.884
540.789
540.693
540.598
552.462
552.285
552.11
551.938
551.77
551.607
551.45
551.299
551.154
551.015
550.882
550.755
550.634
550.52
550.411
550.308
550.212
550.122
550.039
549.964
549.895
549.834
549.779
549.732
549.689
549.65
549.611
549.571
549.528
549.479
549.422
549.355
549.278
549.194
549.101
549.004
548.904
548.801
548.696
548.591
548.488
548.388
548.293
548.204
548.121
548.044
547.967
547.887
547.805
547.723
547.641
547.558
547.475
547.392
547.311
547.231
547.153
547.076
547
546.923
546.846
546.767
546.686
546.602
546.515
546.424
546.329
546.232
546.131
546.027
545.919
545.808
545.692
545.572
545.447
545.319
545.188
545.056
544.922
544.788
544.654
544.519
544.386
544.255
544.127
544.002
543.881
543.763
543.648
543.537
543.429
543.323
543.218
543.116
543.014
542.914
542.815
542.716
542.617
542.519
542.422
542.325
542.228
542.131
542.034
541.938
541.842
541.745
541.649
541.553
541.458
541.362
541.266
541.17
541.075
540.979
540.884
540.789
540.693
540.598
552.461
552.284
552.11
551.939
551.773
551.612
551.458
551.311
551.17
551.036
550.908
550.786
550.67
550.561
550.458
550.36
550.269
550.184
550.106
550.035
549.971
549.913
549.863
549.818
549.777
549.739
549.701
549.66
549.615
549.563
549.502
549.429
549.347
549.256
549.157
549.054
548.949
548.841
548.732
548.624
548.518
548.417
548.321
548.23
548.145
548.063
547.979
547.893
547.807
547.721
547.636
547.551
547.466
547.383
547.302
547.224
547.148
547.073
546.999
546.924
546.849
546.773
546.695
546.613
546.527
546.437
546.343
546.246
546.147
546.044
545.937
545.825
545.709
545.589
545.465
545.337
545.207
545.075
544.94
544.804
544.666
544.525
544.386
544.25
544.118
543.99
543.867
543.748
543.634
543.523
543.415
543.31
543.207
543.106
543.005
542.906
542.808
542.71
542.612
542.515
542.418
542.321
542.225
542.128
542.032
541.936
541.84
541.744
541.648
541.552
541.457
541.361
541.265
541.17
541.074
540.979
540.884
540.788
540.693
540.598
552.461
552.285
552.111
551.941
551.777
551.62
551.469
551.326
551.189
551.06
550.937
550.82
550.71
550.606
550.507
550.415
550.329
550.249
550.175
550.108
550.048
549.994
549.946
549.904
549.865
549.828
549.789
549.747
549.7
549.644
549.577
549.498
549.41
549.313
549.209
549.1
548.99
548.878
548.766
548.655
548.548
548.447
548.351
548.259
548.169
548.082
547.992
547.9
547.809
547.722
547.637
547.552
547.466
547.379
547.297
547.217
547.14
547.064
546.989
546.915
546.84
546.765
546.691
546.614
546.531
546.44
546.348
546.255
546.158
546.059
545.953
545.841
545.726
545.607
545.485
545.361
545.234
545.104
544.969
544.829
544.685
544.534
544.386
544.242
544.105
543.974
543.849
543.73
543.616
543.506
543.4
543.296
543.194
543.094
542.996
542.898
542.8
542.703
542.606
542.51
542.414
542.318
542.222
542.126
542.03
541.934
541.838
541.742
541.647
541.551
541.456
541.36
541.265
541.169
541.074
540.979
540.883
540.788
540.693
540.598
552.462
552.287
552.114
551.946
551.785
551.63
551.483
551.344
551.212
551.087
550.969
550.858
550.753
550.653
550.56
550.473
550.391
550.315
550.245
550.182
550.126
550.075
550.03
549.99
549.953
549.915
549.874
549.83
549.78
549.719
549.645
549.561
549.468
549.367
549.258
549.145
549.029
548.914
548.8
548.689
548.581
548.481
548.388
548.297
548.201
548.108
548.01
547.91
547.813
547.73
547.654
547.572
547.486
547.39
547.304
547.22
547.135
547.053
546.972
546.896
546.814
546.738
546.669
546.599
546.521
546.428
546.343
546.256
546.163
546.072
545.967
545.856
545.742
545.625
545.51
545.394
545.276
545.151
545.02
544.875
544.72
544.552
544.388
544.232
544.087
543.952
543.826
543.707
543.594
543.486
543.381
543.28
543.18
543.082
542.985
542.888
542.792
542.697
542.601
542.505
542.41
542.314
542.219
542.123
542.028
541.932
541.836
541.741
541.646
541.55
541.455
541.359
541.264
541.169
541.074
540.978
540.883
540.788
540.693
540.598
552.463
552.29
552.12
551.954
551.795
551.644
551.501
551.365
551.238
551.118
551.005
550.899
550.799
550.704
550.616
550.533
550.455
550.383
550.318
550.258
550.206
550.159
550.116
550.077
550.039
549.998
549.953
549.905
549.85
549.783
549.701
549.611
549.518
549.417
549.309
549.192
549.069
548.952
548.842
548.73
548.622
548.525
548.443
548.358
548.243
548.147
548.037
547.916
547.795
547.729
547.689
547.618
547.541
547.417
547.335
547.24
547.14
547.049
546.953
546.878
546.765
546.674
546.613
546.554
546.49
546.382
546.323
546.238
546.142
546.081
545.972
545.869
545.753
545.64
545.543
545.436
545.326
545.222
545.111
544.958
544.784
544.588
544.398
544.218
544.061
543.922
543.795
543.677
543.567
543.462
543.361
543.262
543.165
543.069
542.974
542.879
542.784
542.69
542.595
542.5
542.406
542.311
542.216
542.121
542.025
541.93
541.835
541.74
541.644
541.549
541.454
541.359
541.264
541.168
541.073
540.978
540.883
540.788
540.693
540.598
552.464
552.294
552.126
551.964
551.808
551.66
551.521
551.39
551.267
551.152
551.044
550.944
550.849
550.759
550.675
550.596
550.523
550.455
550.393
550.338
550.29
550.247
550.208
550.169
550.128
550.08
550.025
549.968
549.908
549.83
549.736
549.643
549.554
549.465
549.368
549.245
549.101
548.986
548.885
548.774
548.669
548.576
548.528
548.474
548.29
548.213
548.077
547.924
547.757
547.725
547.715
547.664
547.605
547.487
547.371
547.242
547.143
547.029
546.889
546.809
546.707
546.606
546.553
546.503
546.434
546.334
546.244
546.189
546.161
546.086
546.01
545.901
545.762
545.655
545.651
545.497
545.314
545.297
545.227
545.081
544.889
544.633
544.403
544.192
544.021
543.882
543.756
543.641
543.535
543.435
543.338
543.242
543.149
543.055
542.963
542.87
542.777
542.683
542.59
542.496
542.402
542.308
542.213
542.118
542.023
541.929
541.834
541.739
541.643
541.548
541.453
541.358
541.263
541.168
541.073
540.978
540.883
540.788
540.693
540.598
552.466
552.298
552.133
551.973
551.82
551.677
551.542
551.416
551.298
551.189
551.087
550.992
550.902
550.818
550.739
550.665
550.596
550.532
550.475
550.426
550.385
550.348
550.313
550.277
550.232
550.167
550.09
550.019
549.955
549.856
549.737
549.648
549.569
549.497
549.436
549.296
549.101
549.003
548.913
548.789
548.731
548.647
548.562
548.45
548.291
548.205
548.1
547.935
547.785
547.743
547.758
547.743
547.693
547.592
547.424
547.281
547.198
547.041
546.845
546.762
546.631
546.5
546.458
546.414
546.333
546.235
546.15
546.131
546.128
546.091
546.087
545.985
545.823
545.762
545.606
545.557
545.472
545.319
545.311
545.07
544.919
544.653
544.412
544.096
543.955
543.83
543.705
543.598
543.499
543.405
543.313
543.222
543.132
543.042
542.951
542.861
542.769
542.677
542.585
542.492
542.398
542.305
542.211
542.116
542.022
541.927
541.832
541.737
541.643
541.548
541.453
541.358
541.263
541.168
541.073
540.978
540.883
540.788
540.693
540.598
552.467
552.3
552.134
551.973
551.825
551.687
551.559
551.44
551.329
551.226
551.131
551.042
550.96
550.883
550.812
550.744
550.677
550.617
550.565
550.524
550.495
550.468
550.443
550.418
550.37
550.269
550.154
550.069
550.007
549.84
549.668
549.628
549.545
549.47
549.475
549.352
549.081
549.013
548.946
548.865
548.814
548.733
548.609
548.434
548.294
548.22
548.138
547.929
547.723
547.695
547.833
547.898
547.851
547.791
547.525
547.363
547.322
547.102
546.861
546.802
546.601
546.41
546.334
546.242
546.216
546.182
546.07
546.022
546.004
546.056
546.137
545.981
545.927
545.763
545.586
545.491
545.466
545.365
545.304
545.111
544.936
544.681
544.459
544.068
543.916
543.744
543.637
543.545
543.458
543.373
543.287
543.201
543.115
543.028
542.941
542.852
542.763
542.672
542.58
542.488
542.395
542.302
542.209
542.115
542.02
541.926
541.831
541.737
541.642
541.547
541.452
541.357
541.262
541.167
541.072
540.977
540.882
540.787
540.692
540.597
552.465
552.293
552.12
551.952
551.813
551.685
551.569
551.461
551.356
551.26
551.173
551.092
551.02
550.954
550.897
550.834
550.766
550.715
550.665
550.633
550.618
550.6
550.602
550.605
550.553
550.37
550.226
550.159
550.037
549.727
549.504
549.565
549.524
549.365
549.455
549.351
549.067
549.015
548.959
548.912
548.903
548.822
548.666
548.43
548.333
548.251
548.159
547.804
547.547
547.612
547.922
548.098
548.103
548.118
547.692
547.452
547.513
547.292
546.964
546.922
546.628
546.428
546.254
546.161
546.156
546.197
546.118
546.137
546.103
546.132
546.127
545.956
545.859
545.696
545.565
545.487
545.429
545.346
545.26
545.089
544.904
544.668
544.448
543.924
543.814
543.68
543.567
543.489
543.417
543.341
543.261
543.18
543.099
543.016
542.932
542.845
542.757
542.668
542.577
542.485
542.393
542.3
542.207
542.113
542.019
541.925
541.83
541.736
541.641
541.546
541.452
541.357
541.262
541.167
541.072
540.977
540.882
540.787
540.692
540.597
552.458
552.273
552.078
551.882
551.77
551.657
551.569
551.479
551.379
551.283
551.205
551.127
551.075
551.024
550.995
550.92
550.847
550.855
550.789
550.742
550.727
550.721
550.788
550.799
550.703
550.487
550.361
550.218
550.132
549.619
549.176
549.298
549.425
549.416
549.495
549.256
549.002
549.113
549.037
549.037
549.049
548.875
548.713
548.45
548.383
548.333
548.181
547.421
547.343
547.651
548.036
548.231
548.291
548.164
547.837
547.708
547.501
547.363
546.927
546.834
546.587
546.462
546.327
546.268
546.276
546.283
546.25
546.251
546.211
546.16
546.079
545.932
545.796
545.656
545.537
545.445
545.367
545.275
545.175
545.032
544.791
544.395
544.144
543.873
543.713
543.6
543.521
543.437
543.379
543.315
543.237
543.159
543.085
543.006
542.925
542.84
542.753
542.664
542.574
542.483
542.391
542.299
542.206
542.112
542.018
541.924
541.83
541.735
541.641
541.546
541.451
541.357
541.262
541.167