/*--------------------------------*- C++ -*----------------------------------*\
  =========                 |
  \\      /  F ield         | OpenFOAM: The Open Source CFD Toolbox
   \\    /   O peration     | Website:  https://openfoam.org
    \\  /    A nd           | Version:  6
     \\/     M anipulation  |
\*---------------------------------------------------------------------------*/
FoamFile
{
    version     2.0;
    format      ascii;
    class       volVectorField;
    location    "4250";
    object      U;
}
// * * * * * * * * * * * * * * * * * * * * * * * * * * * * * * * * * * * * * //

dimensions      [0 1 -1 0 0 0 0];

internalField   nonuniform List<vector> 
4800
(
(-4.35882e-05 0 -2.95716e-05)
(7.05137e-06 0 -2.78856e-05)
(1.04482e-05 0 -1.67025e-05)
(1.27472e-05 0 -1.14419e-05)
(1.81087e-05 0 -1.38366e-05)
(2.324e-05 0 -7.26365e-06)
(1.82095e-05 0 -3.55712e-06)
(5.56535e-06 0 -5.01128e-07)
(-1.66669e-05 0 1.98493e-06)
(-4.47053e-05 0 9.80485e-06)
(-7.35041e-05 0 -5.26233e-06)
(-0.000109207 0 -2.91886e-06)
(-0.000133322 0 -4.97847e-05)
(-0.000168628 0 -3.87649e-05)
(-0.000196549 0 -8.19576e-05)
(-0.000208865 0 -0.000131481)
(-0.000222138 0 -9.07494e-05)
(-0.000319226 0 3.9043e-05)
(-0.0004464 0 5.06707e-05)
(-0.000474584 0 1.61117e-05)
(-0.000484032 0 -3.78945e-05)
(-0.00055132 0 -4.88093e-05)
(-0.000617414 0 -0.000100151)
(-0.000672757 0 -4.12317e-05)
(-0.000783396 0 -3.7151e-05)
(-0.000916322 0 -0.000158035)
(-0.00103646 0 -1.1477e-05)
(-0.00110026 0 8.05564e-06)
(-0.00113979 0 2.33742e-06)
(-0.00117818 0 3.35928e-05)
(-0.00120442 0 -1.33732e-05)
(-0.00121193 0 -1.02769e-06)
(-0.00120481 0 3.43147e-06)
(-0.00117776 0 -4.07834e-06)
(-0.00115432 0 -1.52216e-05)
(-0.00112643 0 -3.38237e-05)
(-0.00109434 0 -3.61593e-05)
(-0.00106472 0 -5.09432e-05)
(-0.00103885 0 -6.64373e-05)
(-0.00101528 0 -4.89799e-05)
(-0.000991578 0 -3.96265e-05)
(-0.000972821 0 -3.8112e-05)
(-0.000965248 0 -2.94945e-05)
(-0.000965525 0 -1.79261e-05)
(-0.000946336 0 1.23527e-05)
(-0.000914752 0 -7.90185e-05)
(-0.000894735 0 -2.2068e-05)
(-0.000881985 0 -5.08253e-05)
(-0.000880982 0 -5.53472e-05)
(-0.000898468 0 -5.59079e-05)
(-0.000901919 0 -3.83289e-05)
(-0.000889931 0 -4.38893e-05)
(-0.000892906 0 -5.01785e-05)
(-0.000897068 0 -4.46876e-05)
(-0.000846263 0 -3.39184e-05)
(-0.000788904 0 -6.56447e-05)
(-0.000748227 0 -8.81487e-05)
(-0.000715234 0 -4.30237e-05)
(-0.000654688 0 5.11283e-05)
(-0.000540183 0 2.13745e-05)
(-0.000412306 0 -8.99402e-05)
(-0.000320451 0 -8.114e-05)
(-0.00027835 0 -0.000102976)
(-0.000218075 0 -8.40763e-05)
(-0.000130468 0 -3.45402e-05)
(-5.76248e-05 0 -2.17657e-05)
(6.92937e-05 0 -0.000136238)
(0.000108428 0 -6.72397e-05)
(0.000134638 0 -3.13734e-05)
(0.000133289 0 -4.11744e-05)
(0.000141205 0 -3.48912e-05)
(0.000121886 0 -3.84943e-05)
(8.84972e-05 0 -3.12382e-05)
(8.58321e-05 0 -2.79279e-05)
(0.000123589 0 -3.51373e-05)
(0.000153308 0 -7.47834e-05)
(0.000203976 0 -7.92351e-05)
(0.000171245 0 -0.000112657)
(0.000359696 0 -0.000175149)
(-0.000329991 0 0.000157502)
(1.18133e-06 0 0.000191712)
(-7.88755e-14 0 -2.78621e-13)
(-1.65463e-12 0 -2.15475e-14)
(-8.78777e-13 0 1.32788e-14)
(-8.98425e-13 0 6.25229e-15)
(-8.98704e-13 0 -6.27067e-15)
(-8.75633e-13 0 -1.726e-14)
(-8.32862e-13 0 -2.60884e-14)
(-7.7422e-13 0 -3.31819e-14)
(-7.02708e-13 0 -3.89322e-14)
(-6.20711e-13 0 -4.35637e-14)
(-5.30293e-13 0 -4.71768e-14)
(-4.33399e-13 0 -4.98019e-14)
(-3.31956e-13 0 -5.14388e-14)
(-2.27914e-13 0 -5.20826e-14)
(-1.23246e-13 0 -5.174e-14)
(-1.99266e-14 0 -5.04387e-14)
(8.01143e-14 0 -4.82301e-14)
(1.75042e-13 0 -4.51899e-14)
(2.63176e-13 0 -4.14133e-14)
(3.43039e-13 0 -3.70101e-14)
(4.13408e-13 0 -3.20983e-14)
(4.73342e-13 0 -2.67999e-14)
(5.22203e-13 0 -2.12384e-14)
(5.59648e-13 0 -1.55355e-14)
(5.85603e-13 0 -9.80842e-15)
(6.00217e-13 0 -4.1659e-15)
(6.03823e-13 0 1.29548e-15)
(5.9689e-13 0 6.49411e-15)
(5.79999e-13 0 1.13645e-14)
(5.53816e-13 0 1.58572e-14)
(5.1908e-13 0 1.99366e-14)
(4.76587e-13 0 2.35794e-14)
(4.27183e-13 0 2.67715e-14)
(3.71749e-13 0 2.95057e-14)
(3.11193e-13 0 3.17797e-14)
(2.46436e-13 0 3.35944e-14)
(1.78407e-13 0 3.49541e-14)
(1.08026e-13 0 3.58684e-14)
(3.6181e-14 0 3.63649e-14)
(-2.78627e-05 0 3.00711e-06)
(-1.80018e-05 0 -1.74008e-05)
(-1.98403e-05 0 -4.29693e-06)
(-2.38113e-05 0 -3.53475e-06)
(-2.47414e-05 0 -3.01182e-06)
(-2.54702e-05 0 -7.6461e-06)
(-2.49504e-05 0 8.4679e-06)
(-2.80637e-05 0 2.6758e-05)
(-4.2692e-05 0 3.19021e-05)
(-6.53019e-05 0 4.7928e-05)
(-9.31695e-05 0 5.42213e-05)
(-0.000154472 0 5.26597e-05)
(-0.000197543 0 5.99389e-05)
(-0.000219855 0 4.99355e-05)
(-0.000215663 0 8.5806e-05)
(-0.000290363 0 0.000166111)
(-0.00043759 0 9.81809e-05)
(-0.000467277 0 9.1755e-05)
(-0.000476327 0 9.41509e-05)
(-0.000487184 0 5.09192e-05)
(-0.000587301 0 -1.61601e-05)
(-0.000664586 0 0.000122182)
(-0.000708394 0 0.000339918)
(-0.000864694 0 0.000217851)
(-0.000958123 0 0.000188483)
(-0.00100525 0 0.000226816)
(-0.00105735 0 0.000117354)
(-0.00108614 0 6.63956e-05)
(-0.00112935 0 3.68918e-05)
(-0.00117659 0 2.40222e-05)
(-0.00119927 0 3.62376e-05)
(-0.00120165 0 1.23215e-05)
(-0.00118623 0 -3.87815e-05)
(-0.00116979 0 -5.06381e-05)
(-0.00115134 0 -4.05026e-05)
(-0.00113202 0 -2.51941e-05)
(-0.00111388 0 -2.4368e-05)
(-0.00109422 0 -1.89381e-05)
(-0.00106658 0 -4.28656e-06)
(-0.00103465 0 -1.65638e-05)
(-0.00100877 0 -1.69467e-05)
(-0.000990299 0 -1.70162e-05)
(-0.000979375 0 -2.54913e-05)
(-0.000971993 0 -2.56272e-05)
(-0.000959016 0 -3.53499e-06)
(-0.000945455 0 -3.64252e-06)
(-0.000935682 0 -4.26659e-07)
(-0.000931701 0 3.9144e-06)
(-0.000934053 0 9.73095e-06)
(-0.000928569 0 7.66397e-05)
(-0.000918546 0 3.68673e-05)
(-0.000908722 0 9.19868e-06)
(-0.000899607 0 3.07892e-05)
(-0.000890518 0 -7.62279e-06)
(-0.000853436 0 -5.95648e-05)
(-0.000808545 0 -8.44756e-05)
(-0.000776007 0 -7.48767e-05)
(-0.000741063 0 -0.000148703)
(-0.000701444 0 -0.000202429)
(-0.00067832 0 -7.9026e-05)
(-0.000570113 0 -0.000247431)
(-0.000503299 0 -6.58073e-05)
(-0.000406105 0 -5.77018e-05)
(-0.000307415 0 -4.40209e-05)
(-0.000226573 0 -0.000136844)
(-0.000127861 0 -0.000229209)
(-4.23411e-05 0 -0.000164938)
(-4.33887e-05 0 -2.81586e-05)
(3.76789e-05 0 -1.43547e-05)
(8.13395e-05 0 -3.48283e-05)
(8.88944e-05 0 7.13279e-05)
(5.25245e-05 0 7.07491e-05)
(1.70463e-05 0 3.67363e-05)
(1.20437e-06 0 1.58267e-05)
(3.05718e-05 0 -3.61477e-05)
(-0.000250103 0 6.64574e-05)
(-0.000405318 0 0.000175754)
(-0.00049117 0 0.000225355)
(-0.00058807 0 0.00018473)
(-0.000635319 0 0.000142637)
(2.25473e-06 0 -0.000454094)
(-5.3743e-13 0 5.42429e-15)
(-1.38291e-12 0 1.35358e-13)
(-8.50977e-13 0 8.15272e-14)
(-9.17975e-13 0 2.40585e-14)
(-9.22217e-13 0 -2.05474e-14)
(-8.95451e-13 0 -5.4123e-14)
(-8.48784e-13 0 -8.01378e-14)
(-7.87064e-13 0 -1.00961e-13)
(-7.1309e-13 0 -1.17901e-13)
(-6.28956e-13 0 -1.31594e-13)
(-5.36531e-13 0 -1.42292e-13)
(-4.37661e-13 0 -1.50057e-13)
(-3.34237e-13 0 -1.54873e-13)
(-2.28215e-13 0 -1.56724e-13)
(-1.21602e-13 0 -1.5563e-13)
(-1.64166e-14 0 -1.51674e-13)
(8.53631e-14 0 -1.45011e-13)
(1.81859e-13 0 -1.35858e-13)
(2.71356e-13 0 -1.24491e-13)
(3.52355e-13 0 -1.11224e-13)
(4.23618e-13 0 -9.64027e-14)
(4.84201e-13 0 -8.03908e-14)
(5.33467e-13 0 -6.3565e-14)
(5.71078e-13 0 -4.63042e-14)
(5.96972e-13 0 -2.89762e-14)
(6.11321e-13 0 -1.19218e-14)
(6.14483e-13 0 4.55918e-15)
(6.06959e-13 0 2.0218e-14)
(5.89362e-13 0 3.48597e-14)
(5.62388e-13 0 4.8341e-14)
(5.26802e-13 0 6.05629e-14)
(4.83422e-13 0 7.1463e-14)
(4.33109e-13 0 8.10055e-14)
(3.76757e-13 0 8.91745e-14)
(3.15282e-13 0 9.59667e-14)
(2.49611e-13 0 1.01387e-13)
(1.80681e-13 0 1.05446e-13)
(1.09437e-13 0 1.0816e-13)
(3.66775e-14 0 1.09558e-13)
(-3.07701e-05 0 2.90198e-05)
(-4.57986e-05 0 1.02205e-05)
(-5.83734e-05 0 1.31059e-05)
(-4.65303e-05 0 1.37498e-05)
(-5.53285e-05 0 -8.27341e-06)
(-4.14089e-05 0 1.24625e-05)
(-4.7208e-05 0 2.1632e-05)
(-4.98355e-05 0 4.05435e-05)
(-5.39931e-05 0 6.17063e-05)
(-7.08055e-05 0 7.54669e-05)
(-9.10211e-05 0 9.20588e-05)
(-0.000125663 0 0.000101756)
(-0.000162175 0 0.000102157)
(-0.000221779 0 8.61834e-05)
(-0.000289668 0 6.631e-05)
(-0.000341668 0 0.00014371)
(-0.00042294 0 0.000207635)
(-0.000478424 0 0.000187512)
(-0.000503077 0 0.000158327)
(-0.000579987 0 -9.59987e-06)
(-0.0006699 0 9.32504e-05)
(-0.000725154 0 0.000168389)
(-0.000793187 0 2.55191e-05)
(-0.000833936 0 0.000267963)
(-0.000914521 0 0.00022042)
(-0.000973382 0 0.000179714)
(-0.00101946 0 0.00021466)
(-0.00108233 0 0.000129114)
(-0.00111874 0 9.85417e-05)
(-0.0011318 0 7.33867e-05)
(-0.00113145 0 3.93131e-05)
(-0.00111097 0 -2.87633e-05)
(-0.00109285 0 -4.2099e-05)
(-0.0010735 0 -3.24312e-05)
(-0.00104807 0 -4.81185e-05)
(-0.00102572 0 -7.98894e-05)
(-0.00100768 0 -9.89241e-05)
(-0.000989747 0 -9.45693e-05)
(-0.000973721 0 -6.94741e-05)
(-0.000961367 0 -5.90609e-05)
(-0.000952846 0 -5.07222e-05)
(-0.000947949 0 -4.54357e-05)
(-0.000946686 0 -3.7272e-05)
(-0.000940687 0 1.54195e-06)
(-0.000925539 0 -2.68877e-05)
(-0.000919771 0 -4.42547e-05)
(-0.00092049 0 -3.45431e-05)
(-0.000924986 0 -3.95941e-05)
(-0.000927174 0 -3.35433e-05)
(-0.000924365 0 -2.18678e-05)
(-0.000924743 0 -1.79069e-05)
(-0.000920871 0 -2.27397e-05)
(-0.000900648 0 -4.64581e-05)
(-0.000897425 0 -4.8914e-05)
(-0.000894197 0 -8.55031e-05)
(-0.000847708 0 -0.000132529)
(-0.000820637 0 -8.96087e-05)
(-0.00080758 0 -0.000110807)
(-0.000808104 0 -0.000106489)
(-0.000786071 0 -0.000167207)
(-0.000654747 0 -0.000333922)
(-0.000593481 0 -0.000135783)
(-0.000495364 0 -0.000157852)
(-0.000431065 0 -0.000198411)
(-0.000285423 0 -0.000349331)
(-0.000272322 0 -0.000203612)
(-0.00025208 0 4.5333e-06)
(-0.000160888 0 -6.01282e-05)
(-0.000106854 0 -0.000131825)
(-0.000103468 0 -3.80782e-05)
(4.34916e-05 0 4.33442e-05)
(-6.36873e-05 0 7.13282e-05)
(-7.30671e-05 0 7.87274e-05)
(-0.000147918 0 6.79182e-05)
(-0.000311006 0 9.41335e-05)
(-0.000373809 0 0.000192642)
(-0.000473124 0 0.000156784)
(-0.00053601 0 2.3459e-05)
(-0.000585115 0 1.41473e-05)
(-0.000649068 0 -4.25274e-05)
(3.64627e-06 0 -0.000535533)
(-1.09192e-12 0 9.55074e-13)
(-1.64833e-12 0 4.0896e-13)
(-9.90077e-13 0 1.53416e-13)
(-1.0005e-12 0 2.90399e-14)
(-9.76886e-13 0 -4.57852e-14)
(-9.35224e-13 0 -9.84482e-14)
(-8.797e-13 0 -1.39257e-13)
(-8.11983e-13 0 -1.7248e-13)
(-7.33342e-13 0 -1.99959e-13)
(-6.45102e-13 0 -2.22443e-13)
(-5.48756e-13 0 -2.40152e-13)
(-4.4598e-13 0 -2.53064e-13)
(-3.38623e-13 0 -2.61079e-13)
(-2.2867e-13 0 -2.64124e-13)
(-1.18197e-13 0 -2.62208e-13)
(-9.30789e-15 0 -2.55456e-13)
(9.59304e-14 0 -2.44119e-13)
(1.95563e-13 0 -2.28564e-13)
(2.8781e-13 0 -2.09255e-13)
(3.71128e-13 0 -1.86734e-13)
(4.44241e-13 0 -1.61593e-13)
(5.06179e-13 0 -1.34459e-13)
(5.56289e-13 0 -1.05979e-13)
(5.94237e-13 0 -7.68042e-14)
(6.19985e-13 0 -4.75615e-14)
(6.33752e-13 0 -1.88296e-14)
(6.35962e-13 0 8.8868e-15)
(6.2719e-13 0 3.51727e-14)
(6.08122e-13 0 5.97071e-14)
(5.79519e-13 0 8.22583e-14)
(5.42202e-13 0 1.02671e-13)
(4.9703e-13 0 1.2085e-13)
(4.44894e-13 0 1.36746e-13)
(3.8671e-13 0 1.50341e-13)
(3.23405e-13 0 1.61636e-13)
(2.55916e-13 0 1.70645e-13)
(1.8518e-13 0 1.77386e-13)
(1.12138e-13 0 1.81875e-13)
(3.75792e-14 0 1.84122e-13)
(-4.35334e-05 0 4.98058e-05)
(-6.07813e-05 0 2.77976e-05)
(-6.19435e-05 0 1.14705e-05)
(-5.14816e-05 0 1.66976e-05)
(-5.23765e-05 0 -1.59715e-05)
(-3.9516e-05 0 4.0036e-05)
(-2.23456e-05 0 9.8861e-06)
(-3.07381e-05 0 3.40914e-05)
(-3.63881e-05 0 6.98759e-05)
(-6.09623e-05 0 9.75649e-05)
(-8.89134e-05 0 0.000116817)
(-9.95771e-05 0 0.000143845)
(-0.000119052 0 0.000162898)
(-0.000186143 0 0.000157)
(-0.000300991 0 0.000166726)
(-0.000377814 0 0.000169976)
(-0.00040196 0 0.000219552)
(-0.000455481 0 0.000216023)
(-0.000509399 0 0.000235231)
(-0.000570045 0 0.000242574)
(-0.000639854 0 0.000237677)
(-0.000700501 0 0.000310987)
(-0.000779531 0 0.000266035)
(-0.00082375 0 0.00023658)
(-0.000866543 0 0.000244794)
(-0.000933452 0 0.000163042)
(-0.00097852 0 0.000174457)
(-0.00102579 0 0.000139593)
(-0.00103445 0 0.00013246)
(-0.00101312 0 8.90411e-05)
(-0.000998844 0 1.94142e-05)
(-0.000978793 0 -4.26833e-05)
(-0.000950216 0 -5.47448e-05)
(-0.000919881 0 -8.98852e-05)
(-0.00089457 0 -9.42256e-05)
(-0.000879939 0 -9.09116e-05)
(-0.000872156 0 -7.8689e-05)
(-0.000866171 0 -6.61452e-05)
(-0.000861172 0 -6.46097e-05)
(-0.000860524 0 -5.89654e-05)
(-0.000864618 0 -5.352e-05)
(-0.000864498 0 -5.61596e-05)
(-0.000859653 0 -5.69665e-05)
(-0.000849019 0 -4.96233e-05)
(-0.000846418 0 -4.0518e-05)
(-0.000847258 0 -2.82745e-05)
(-0.000855962 0 -1.4153e-06)
(-0.000868496 0 -1.17433e-05)
(-0.000877844 0 8.39258e-06)
(-0.000882806 0 2.36853e-05)
(-0.000885961 0 2.03421e-05)
(-0.000888208 0 8.87845e-06)
(-0.000879318 0 -7.78507e-05)
(-0.000873745 0 -6.61978e-05)
(-0.000874022 0 -8.4537e-05)
(-0.000872518 0 -0.00010197)
(-0.00084015 0 -0.000150321)
(-0.000823498 0 -0.000162229)
(-0.000813506 0 -0.000187041)
(-0.000802065 0 -0.000227951)
(-0.00072935 0 -0.000294232)
(-0.000664271 0 -0.000238654)
(-0.000599989 0 -0.000253014)
(-0.000512284 0 -0.000352715)
(-0.000437188 0 -0.000346045)
(-0.000370561 0 -0.000267407)
(-0.000212511 0 -0.00032837)
(-0.000208306 0 -0.000226921)
(-0.000173501 0 -0.000179228)
(-0.00019328 0 1.67237e-05)
(-0.000139712 0 4.13861e-05)
(-0.000106168 0 0.000112884)
(-0.000112888 0 0.000132419)
(-0.00016613 0 0.000137256)
(-0.000255377 0 0.000186727)
(-0.000312178 0 0.000185117)
(-0.000346415 0 0.00010602)
(-0.000225834 0 -0.000150415)
(-0.000155079 0 -0.000171886)
(-0.000353305 0 -0.000367404)
(2.97845e-06 0 -0.000553626)
(-9.74958e-13 0 5.25179e-13)
(-2.31175e-12 0 2.80467e-13)
(-1.2309e-12 0 9.44822e-14)
(-1.11718e-12 0 -1.50578e-14)
(-1.0497e-12 0 -9.26447e-14)
(-9.88923e-13 0 -1.54075e-13)
(-9.22816e-13 0 -2.05456e-13)
(-8.47765e-13 0 -2.49331e-13)
(-7.63053e-13 0 -2.86735e-13)
(-6.69148e-13 0 -3.17953e-13)
(-5.67152e-13 0 -3.42877e-13)
(-4.58589e-13 0 -3.61223e-13)
(-3.45297e-13 0 -3.72686e-13)
(-2.29344e-13 0 -3.77049e-13)
(-1.12934e-13 0 -3.74258e-13)
(1.67214e-15 0 -3.64456e-13)
(1.12256e-13 0 -3.47997e-13)
(2.16723e-13 0 -3.25424e-13)
(3.13185e-13 0 -2.97448e-13)
(4.00017e-13 0 -2.64894e-13)
(4.75894e-13 0 -2.28663e-13)
(5.39815e-13 0 -1.89693e-13)
(5.91121e-13 0 -1.48928e-13)
(6.29495e-13 0 -1.07297e-13)
(6.54947e-13 0 -6.5681e-14)
(6.67769e-13 0 -2.4884e-14)
(6.68485e-13 0 1.43951e-14)
(6.57779e-13 0 5.1583e-14)
(6.36448e-13 0 8.62375e-14)
(6.05352e-13 0 1.18041e-13)
(5.65393e-13 0 1.46783e-13)
(5.17497e-13 0 1.72342e-13)
(4.626e-13 0 1.94658e-13)
(4.01647e-13 0 2.13717e-13)
(3.35586e-13 0 2.29532e-13)
(2.6536e-13 0 2.42132e-13)
(1.91911e-13 0 2.51549e-13)
(1.16173e-13 0 2.57814e-13)
(3.89243e-14 0 2.60947e-13)
(-2.29872e-05 0 8.55024e-05)
(-2.51383e-05 0 4.82182e-05)
(-8.05242e-06 0 -3.01192e-05)
(1.80779e-05 0 -4.068e-05)
(2.77147e-05 0 -3.48302e-05)
(7.35349e-06 0 -1.66114e-05)
(1.54091e-05 0 -1.55596e-05)
(-3.12333e-06 0 5.88492e-05)
(-1.78886e-05 0 9.20124e-05)
(-5.5415e-05 0 0.000124659)
(-9.98984e-05 0 0.000141584)
(-0.000178802 0 0.000125261)
(-0.000202308 0 0.000130408)
(-0.000168597 0 0.000213926)
(-0.000239178 0 0.000270609)
(-0.000333611 0 0.0002842)
(-0.00040363 0 0.000244011)
(-0.000454575 0 0.000220522)
(-0.0004934 0 0.00026209)
(-0.000568752 0 0.000285528)
(-0.000660305 0 0.000234156)
(-0.000692875 0 0.000290138)
(-0.000738585 0 0.0003302)
(-0.000785432 0 0.000316672)
(-0.000809201 0 0.00034721)
(-0.000864226 0 0.000294529)
(-0.000891389 0 0.000254504)
(-0.000898587 0 0.000237076)
(-0.000917025 0 6.92261e-05)
(-0.000881784 0 -3.4536e-05)
(-0.000855159 0 4.30804e-07)
(-0.000834503 0 -6.34529e-05)
(-0.000801433 0 -0.00013615)
(-0.000778437 0 -9.26349e-05)
(-0.000750859 0 -0.000109865)
(-0.000733577 0 -8.99159e-05)
(-0.000719085 0 -8.92807e-05)
(-0.000712681 0 -7.79016e-05)
(-0.000709385 0 -6.54411e-05)
(-0.000709596 0 -5.47223e-05)
(-0.000720894 0 -2.45944e-05)
(-0.000730355 0 -4.29112e-05)
(-0.000741134 0 -2.92177e-05)
(-0.000744158 0 -2.11089e-05)
(-0.000746742 0 -7.43393e-06)
(-0.000762284 0 -1.65234e-05)
(-0.000779688 0 -1.82615e-05)
(-0.000791489 0 -1.81936e-05)
(-0.000803074 0 -6.90086e-06)
(-0.000819342 0 6.4863e-06)
(-0.000834864 0 -1.50505e-05)
(-0.000843149 0 -3.58639e-05)
(-0.000843473 0 -5.29162e-05)
(-0.000833195 0 -7.28011e-05)
(-0.000835428 0 -0.000105765)
(-0.0008478 0 -0.000122267)
(-0.00084631 0 -0.000135856)
(-0.000834819 0 -0.000150932)
(-0.000827232 0 -0.000180104)
(-0.00079752 0 -0.000278531)
(-0.000735174 0 -0.000372492)
(-0.000739562 0 -0.000277005)
(-0.000680286 0 -0.000343951)
(-0.000597059 0 -0.000447784)
(-0.000589876 0 -0.000320435)
(-0.000475709 0 -0.00032343)
(-0.000386091 0 -0.000315165)
(-0.000379779 0 -0.000171967)
(-0.000267852 0 -0.000210599)
(-0.000233577 0 -8.72783e-05)
(-0.000191594 0 -3.30877e-05)
(-0.000184973 0 8.71718e-05)
(-0.000136391 0 0.000182012)
(-0.000147075 0 0.000185151)
(-0.000164051 0 0.000204483)
(-0.000162097 0 0.000211827)
(-9.69798e-05 0 0.000184097)
(7.04652e-05 0 9.70241e-05)
(0.000287076 0 -1.95808e-05)
(-0.000143513 0 -0.000194313)
(2.78632e-06 0 -0.000471865)
(-7.45512e-13 0 -5.04605e-13)
(-2.25228e-12 0 -5.67013e-14)
(-1.2856e-12 0 -4.05532e-14)
(-1.18763e-12 0 -9.06474e-14)
(-1.1159e-12 0 -1.55133e-13)
(-1.04803e-12 0 -2.19211e-13)
(-9.74955e-13 0 -2.78658e-13)
(-8.93262e-13 0 -3.32243e-13)
(-8.01963e-13 0 -3.79415e-13)
(-7.01244e-13 0 -4.19626e-13)
(-5.92026e-13 0 -4.52211e-13)
(-4.75789e-13 0 -4.76455e-13)
(-3.54449e-13 0 -4.91718e-13)
(-2.30242e-13 0 -4.97554e-13)
(-1.05604e-13 0 -4.93792e-13)
(1.69529e-14 0 -4.80581e-13)
(1.34962e-13 0 -4.58392e-13)
(2.46112e-13 0 -4.27987e-13)
(3.48341e-13 0 -3.90378e-13)
(4.39912e-13 0 -3.46746e-13)
(5.19442e-13 0 -2.98367e-13)
(5.85914e-13 0 -2.46546e-13)
(6.38685e-13 0 -1.92564e-13)
(6.77484e-13 0 -1.37651e-13)
(7.02398e-13 0 -8.29499e-14)
(7.13829e-13 0 -2.94884e-14)
(7.12429e-13 0 2.18477e-14)
(6.99033e-13 0 7.03351e-14)
(6.7458e-13 0 1.15419e-13)
(6.40065e-13 0 1.56705e-13)
(5.96503e-13 0 1.93939e-13)
(5.44904e-13 0 2.26979e-13)
(4.86269e-13 0 2.5577e-13)
(4.21584e-13 0 2.80313e-13)
(3.51821e-13 0 3.00644e-13)
(2.77933e-13 0 3.16818e-13)
(2.00863e-13 0 3.28891e-13)
(1.21536e-13 0 3.36915e-13)
(4.07119e-14 0 3.40926e-13)
(-1.10125e-05 0 8.58652e-05)
(9.38345e-06 0 5.64233e-05)
(5.00076e-05 0 3.2547e-06)
(7.95709e-05 0 -3.11401e-05)
(7.76904e-05 0 -3.24007e-05)
(6.19956e-05 0 -2.90855e-05)
(5.35969e-05 0 1.66319e-05)
(4.00781e-05 0 6.98851e-05)
(6.831e-06 0 0.000128351)
(-3.35212e-05 0 0.00016275)
(-7.56871e-05 0 0.000192613)
(-0.000123656 0 0.000216633)
(-0.000162682 0 0.000228168)
(-0.000220106 0 0.000235633)
(-0.000230221 0 0.000330377)
(-0.000277546 0 0.000372039)
(-0.00038218 0 0.000314469)
(-0.000411905 0 0.000309902)
(-0.000463847 0 0.000308011)
(-0.0005292 0 0.00034898)
(-0.000602872 0 0.000371806)
(-0.000660878 0 0.000356154)
(-0.000709835 0 0.000348914)
(-0.000746914 0 0.000357747)
(-0.000776469 0 0.000347758)
(-0.000800343 0 0.000320823)
(-0.000817875 0 0.00024154)
(-0.000797603 0 0.000149737)
(-0.000788865 0 0.000105722)
(-0.000782204 0 -1.46455e-05)
(-0.000739847 0 -5.91687e-05)
(-0.000707192 0 -7.42464e-05)
(-0.000679203 0 -0.000100732)
(-0.000644035 0 -0.000120697)
(-0.00061426 0 -0.000120552)
(-0.000591868 0 -0.000113903)
(-0.00057625 0 -0.000104748)
(-0.000568252 0 -7.50863e-05)
(-0.000554891 0 -6.88918e-05)
(-0.000548287 0 -4.63578e-05)
(-0.000543967 0 -4.04792e-05)
(-0.000546857 0 -3.51779e-05)
(-0.000569134 0 -2.14939e-05)
(-0.000596078 0 -1.00369e-05)
(-0.000625616 0 -1.03083e-05)
(-0.000650693 0 -5.60752e-07)
(-0.000669762 0 1.74304e-05)
(-0.000686372 0 3.47263e-05)
(-0.000704921 0 3.69002e-05)
(-0.000724946 0 4.05918e-05)
(-0.00074253 0 4.04535e-05)
(-0.00075027 0 2.13247e-05)
(-0.000747332 0 -9.12899e-06)
(-0.000764031 0 -0.000125825)
(-0.000794236 0 -0.000101764)
(-0.000802873 0 -0.000111483)
(-0.000791683 0 -0.000135953)
(-0.000794904 0 -0.000187052)
(-0.000796143 0 -0.000227384)
(-0.000766797 0 -0.000306104)
(-0.000758814 0 -0.000342848)
(-0.00075053 0 -0.000332725)
(-0.00071077 0 -0.000401225)
(-0.000697679 0 -0.000429085)
(-0.000580336 0 -0.000524967)
(-0.000528603 0 -0.000463358)
(-0.000467278 0 -0.000385507)
(-0.00041255 0 -0.000280295)
(-0.000361696 0 -0.000184525)
(-0.000304794 0 -0.000109005)
(-0.000269504 0 8.31309e-05)
(-0.000224934 0 5.60786e-05)
(-0.000182749 0 0.000133426)
(-0.000132443 0 0.000175897)
(-7.21035e-05 0 0.000167547)
(5.71923e-06 0 0.000133084)
(9.34433e-05 0 5.32705e-05)
(0.000159769 0 -0.000114583)
(0.000266223 0 -0.0001761)
(-5.78225e-05 0 -0.000198966)
(2.89715e-06 0 -0.000378414)
(-6.22398e-13 0 -5.38603e-13)
(-2.04701e-12 0 -1.38584e-13)
(-1.26484e-12 0 -1.09086e-13)
(-1.23176e-12 0 -1.51474e-13)
(-1.17827e-12 0 -2.17576e-13)
(-1.11245e-12 0 -2.88482e-13)
(-1.03585e-12 0 -3.57238e-13)
(-9.48522e-13 0 -4.21145e-13)
(-8.50436e-13 0 -4.78731e-13)
(-7.41945e-13 0 -5.28726e-13)
(-6.23981e-13 0 -5.69821e-13)
(-4.98096e-13 0 -6.00737e-13)
(-3.66396e-13 0 -6.20372e-13)
(-2.31418e-13 0 -6.27953e-13)
(-9.5962e-14 0 -6.23143e-13)
(3.70727e-14 0 -6.06085e-13)
(1.6485e-13 0 -5.77395e-13)
(2.84736e-13 0 -5.3811e-13)
(3.94426e-13 0 -4.89611e-13)
(4.92028e-13 0 -4.33518e-13)
(5.76094e-13 0 -3.71569e-13)
(6.45618e-13 0 -3.05512e-13)
(7.00016e-13 0 -2.37033e-13)
(7.3911e-13 0 -1.677e-13)
(7.6311e-13 0 -9.89399e-14)
(7.72567e-13 0 -3.20068e-14)
(7.68308e-13 0 3.20345e-14)
(7.51351e-13 0 9.2325e-14)
(7.22818e-13 0 1.48214e-13)
(6.83872e-13 0 1.99248e-13)
(6.35668e-13 0 2.45146e-13)
(5.79328e-13 0 2.85766e-13)
(5.15934e-13 0 3.21071e-13)
(4.46521e-13 0 3.51097e-13)
(3.72091e-13 0 3.75917e-13)
(2.93608e-13 0 3.95626e-13)
(2.12009e-13 0 4.10317e-13)
(1.28208e-13 0 4.20069e-13)
(4.29352e-14 0 4.2494e-13)
(-1.68863e-05 0 7.32479e-05)
(6.06009e-05 0 2.712e-05)
(0.000104747 0 5.87571e-07)
(0.000132449 0 -3.18719e-05)
(0.0001248 0 -3.2639e-05)
(0.000114781 0 -5.74933e-08)
(9.08098e-05 0 2.29227e-05)
(5.80482e-05 0 0.00010094)
(1.11241e-05 0 0.000175918)
(-3.77527e-05 0 0.000216823)
(-0.000163572 0 0.000236022)
(-0.000209466 0 0.000248167)
(-0.000265122 0 0.00023191)
(-0.000306343 0 0.000256133)
(-0.000326299 0 0.000332487)
(-0.000335172 0 0.000375815)
(-0.000340272 0 0.000397227)
(-0.000468132 0 0.000286231)
(-0.000458923 0 0.00034231)
(-0.000484909 0 0.000414393)
(-0.000566318 0 0.000416311)
(-0.000627629 0 0.000404667)
(-0.000674515 0 0.000392125)
(-0.000715063 0 0.000374975)
(-0.000734057 0 0.000357614)
(-0.000741468 0 0.000337469)
(-0.000751268 0 0.000244918)
(-0.000717207 0 0.000148587)
(-0.000672923 0 0.000105389)
(-0.000656168 0 3.73859e-05)
(-0.000638366 0 -7.11522e-05)
(-0.00059887 0 -0.000130364)
(-0.00056089 0 -0.000132167)
(-0.000519567 0 -0.000166582)
(-0.000493525 0 -0.000159753)
(-0.000471544 0 -0.00014651)
(-0.000452424 0 -0.00013373)
(-0.000441356 0 -9.66648e-05)
(-0.000422376 0 -9.51926e-05)
(-0.000416213 0 -5.9108e-05)
(-0.00041255 0 -4.75566e-05)
(-0.000418854 0 -1.68066e-05)
(-0.000422454 0 -4.87441e-06)
(-0.000424534 0 1.76359e-06)
(-0.000440142 0 1.17366e-05)
(-0.000477583 0 2.89936e-05)
(-0.000514634 0 2.37181e-05)
(-0.000543388 0 1.57809e-05)
(-0.000566752 0 4.16301e-05)
(-0.000582312 0 3.70703e-05)
(-0.000590876 0 2.143e-05)
(-0.000595009 0 2.36282e-05)
(-0.000604651 0 -0.000124615)
(-0.000658918 0 -7.27044e-06)
(-0.000671779 0 -5.794e-05)
(-0.000674598 0 -7.39238e-05)
(-0.000634553 0 -0.000253199)
(-0.000694189 0 -0.000173536)
(-0.000710918 0 -0.000210031)
(-0.000664575 0 -0.000399272)
(-0.000744003 0 -0.000318475)
(-0.000744001 0 -0.000353581)
(-0.000712945 0 -0.000429493)
(-0.000711791 0 -0.000437722)
(-0.000644639 0 -0.000526275)
(-0.000611791 0 -0.00050693)
(-0.000462514 0 -0.000530919)
(-0.000494893 0 -0.000315497)
(-0.000381995 0 -0.000295489)
(-0.000356931 0 -0.000185941)
(-0.000330048 0 -7.52874e-05)
(-0.000306378 0 2.21818e-05)
(-0.000266714 0 8.95799e-05)
(-0.00019948 0 9.91989e-05)
(-7.7936e-05 0 9.61634e-05)
(6.90702e-05 0 1.13276e-05)
(0.000149501 0 -3.58136e-05)
(0.000195425 0 -0.000159973)
(0.000336377 0 -0.000155934)
(-4.40841e-05 0 -0.000110628)
(2.84116e-06 0 -0.000263043)
(-5.82983e-13 0 -2.22016e-13)
(-2.03251e-12 0 -4.14488e-14)
(-1.29849e-12 0 -1.05617e-13)
(-1.29612e-12 0 -1.88389e-13)
(-1.25291e-12 0 -2.74922e-13)
(-1.1877e-12 0 -3.59531e-13)
(-1.10762e-12 0 -4.40252e-13)
(-1.01476e-12 0 -5.15954e-13)
(-9.09545e-13 0 -5.85276e-13)
(-7.92334e-13 0 -6.4644e-13)
(-6.64037e-13 0 -6.97422e-13)
(-5.2634e-13 0 -7.36216e-13)
(-3.81665e-13 0 -7.61104e-13)
(-2.33013e-13 0 -7.70874e-13)
(-8.37366e-14 0 -7.64962e-13)
(6.27005e-14 0 -7.43511e-13)
(2.02937e-13 0 -7.0733e-13)
(3.33895e-13 0 -6.57808e-13)
(4.52933e-13 0 -5.96796e-13)
(5.57955e-13 0 -5.26455e-13)
(6.47448e-13 0 -4.49094e-13)
(7.2045e-13 0 -3.6701e-13)
(7.76497e-13 0 -2.82369e-13)
(8.15577e-13 0 -1.97145e-13)
(8.38092e-13 0 -1.13076e-13)
(8.44803e-13 0 -3.16532e-14)
(8.36761e-13 0 4.58905e-14)
(8.15212e-13 0 1.18581e-13)
(7.81503e-13 0 1.857e-13)
(7.36997e-13 0 2.46761e-13)
(6.8302e-13 0 3.01486e-13)
(6.2083e-13 0 3.49758e-13)
(5.516e-13 0 3.91585e-13)
(4.7643e-13 0 4.27054e-13)
(3.9635e-13 0 4.56301e-13)
(3.12333e-13 0 4.79473e-13)
(2.25305e-13 0 4.96715e-13)
(1.36159e-13 0 5.08145e-13)
(4.55834e-14 0 5.1385e-13)
(1.89038e-06 0 4.37745e-05)
(6.35758e-05 0 -4.79806e-05)
(0.000113278 0 -8.87035e-05)
(0.000151102 0 -4.92588e-05)
(0.000145446 0 -3.55562e-05)
(0.000141272 0 -1.12581e-05)
(9.98798e-05 0 8.93202e-05)
(6.83606e-05 0 0.000150313)
(3.37981e-05 0 0.000214831)
(1.64325e-05 0 0.000267839)
(1.78369e-05 0 0.000302095)
(-2.87915e-05 0 0.00032023)
(-5.04156e-06 0 0.000381492)
(-0.000175143 0 0.000344472)
(-0.000308504 0 0.000367885)
(-0.000378798 0 0.000389465)
(-0.000354552 0 0.000432986)
(-0.000351178 0 0.000454552)
(-0.000395357 0 0.000447647)
(-0.000483663 0 0.000442547)
(-0.000544684 0 0.000453932)
(-0.0005817 0 0.000460318)
(-0.000633998 0 0.00042848)
(-0.000660854 0 0.000414887)
(-0.000666524 0 0.00040528)
(-0.000666332 0 0.00033354)
(-0.000666063 0 0.000243491)
(-0.000664132 0 0.000106993)
(-0.000616835 0 -9.98883e-06)
(-0.000555823 0 -6.85066e-05)
(-0.000514421 0 -0.000109537)
(-0.000488089 0 -0.000129828)
(-0.000439241 0 -0.00019606)
(-0.00039329 0 -0.000210547)
(-0.000355452 0 -0.000185472)
(-0.000333946 0 -0.000159259)
(-0.000322825 0 -0.000125461)
(-0.000311045 0 -0.000106524)
(-0.000312601 0 -7.12227e-05)
(-0.000309999 0 -5.86834e-05)
(-0.000315268 0 -2.97396e-05)
(-0.000325174 0 -9.56122e-06)
(-0.000328015 0 -9.53049e-07)
(-0.000328748 0 1.31708e-05)
(-0.000324834 0 3.67319e-05)
(-0.000324692 0 4.00329e-05)
(-0.000344723 0 7.22365e-05)
(-0.000359933 0 7.48677e-05)
(-0.000376752 0 6.44376e-05)
(-0.000403177 0 6.98722e-05)
(-0.000419053 0 6.37369e-05)
(-0.000435005 0 1.20166e-05)
(-0.000455274 0 1.97129e-05)
(-0.00046895 0 -3.24547e-05)
(-0.000468473 0 -6.44286e-05)
(-0.000456717 0 -0.000118587)
(-0.000480425 0 -0.000133693)
(-0.00051319 0 -0.000143545)
(-0.000508145 0 -0.000227678)
(-0.000512106 0 -0.000316189)
(-0.000607642 0 -0.000307144)
(-0.000623623 0 -0.000386619)
(-0.000640948 0 -0.000462945)
(-0.000648949 0 -0.000515205)
(-0.00064463 0 -0.000538684)
(-0.000634288 0 -0.000552625)
(-0.000517935 0 -0.000574109)
(-0.000530865 0 -0.000380065)
(-0.000481733 0 -0.000269201)
(-0.000461281 0 -0.000176347)
(-0.000441353 0 -0.000103984)
(-0.000427779 0 -3.41222e-06)
(-0.000373522 0 6.55274e-05)
(-0.000279779 0 1.88e-05)
(-0.000185824 0 -8.79781e-05)
(-7.57978e-05 0 -0.000166706)
(0.000154262 0 -0.000146411)
(0.000218871 0 -0.000200945)
(0.000379997 0 -0.000112663)
(-1.14888e-06 0 -1.25969e-06)
(2.71041e-06 0 -0.000131357)
(-6.14618e-13 0 1.40293e-13)
(-2.14356e-12 0 1.00944e-13)
(-1.41178e-12 0 -8.35892e-14)
(-1.40106e-12 0 -2.21543e-13)
(-1.34941e-12 0 -3.34109e-13)
(-1.27778e-12 0 -4.34273e-13)
(-1.19227e-12 0 -5.27995e-13)
(-1.09355e-12 0 -6.16797e-13)
(-9.80921e-13 0 -6.99617e-13)
(-8.54091e-13 0 -7.74004e-13)
(-7.13757e-13 0 -8.36933e-13)
(-5.61779e-13 0 -8.85397e-13)
(-4.01054e-13 0 -9.16837e-13)
(-2.35275e-13 0 -9.29453e-13)
(-6.85994e-14 0 -9.22395e-13)
(9.4705e-14 0 -8.95823e-13)
(2.50553e-13 0 -8.5083e-13)
(3.95271e-13 0 -7.89282e-13)
(5.25779e-13 0 -7.13645e-13)
(6.39729e-13 0 -6.26767e-13)
(7.3554e-13 0 -5.31661e-13)
(8.12343e-13 0 -4.31292e-13)
(8.6988e-13 0 -3.28416e-13)
(9.08403e-13 0 -2.25478e-13)
(9.28601e-13 0 -1.24572e-13)
(9.31534e-13 0 -2.74348e-14)
(9.18543e-13 0 6.45444e-14)
(8.9116e-13 0 1.50308e-13)
(8.50998e-13 0 2.29105e-13)
(7.99658e-13 0 3.00462e-13)
(7.38664e-13 0 3.64139e-13)
(6.69427e-13 0 4.20083e-13)
(5.9323e-13 0 4.68378e-13)
(5.11238e-13 0 5.09194e-13)
(4.2451e-13 0 5.42749e-13)
(3.34022e-13 0 5.69266e-13)
(2.4068e-13 0 5.88956e-13)
(1.45343e-13 0 6.01989e-13)
(4.86397e-14 0 6.08486e-13)
(-3.09807e-05 0 -5.33582e-05)
(7.13612e-05 0 -0.000111866)
(0.000136707 0 -8.38005e-05)
(0.000149065 0 -5.89169e-05)
(0.000146788 0 -5.1456e-05)
(0.000144589 0 6.29727e-05)
(9.74539e-05 0 0.000120812)
(6.11746e-05 0 0.000177347)
(4.57821e-05 0 0.000245341)
(-3.75724e-05 0 0.000314839)
(-2.62738e-05 0 0.000331018)
(-0.000152725 0 0.000312842)
(-0.000257279 0 0.000313793)
(-7.21822e-05 0 0.000437158)
(-0.000220849 0 0.000440318)
(-0.000244527 0 0.00048898)
(-0.000352754 0 0.000453594)
(-0.000404558 0 0.000441475)
(-0.000457839 0 0.000436551)
(-0.00048296 0 0.000480833)
(-0.000506958 0 0.000510817)
(-0.000548922 0 0.000489546)
(-0.000607239 0 0.000431398)
(-0.000611885 0 0.000429978)
(-0.000627097 0 0.000368347)
(-0.000591113 0 0.000288761)
(-0.000555307 0 0.000228903)
(-0.000549823 0 0.000160101)
(-0.000556275 0 6.16172e-05)
(-0.000518436 0 -0.000130815)
(-0.000463549 0 -0.000124404)
(-0.000418739 0 -0.000169291)
(-0.000362513 0 -0.00022568)
(-0.000320979 0 -0.000213718)
(-0.000226806 0 -0.000235741)
(-0.00018749 0 -0.00018595)
(-0.000168819 0 -0.000132989)
(-0.000163618 0 -0.000107426)
(-0.000190712 0 -6.49542e-05)
(-0.000203223 0 -5.51953e-05)
(-0.000222382 0 -3.06413e-05)
(-0.0002327 0 -1.21148e-05)
(-0.000237748 0 -1.36948e-06)
(-0.000238717 0 8.64589e-06)
(-0.000235176 0 2.53788e-05)
(-0.000232256 0 3.5844e-05)
(-0.000226622 0 6.98846e-05)
(-0.000222198 0 8.47874e-05)
(-0.000217006 0 6.96489e-05)
(-0.000217073 0 6.36006e-05)