0 	0 	0 	0
0.010101 	-3.56649e-28 	-5.03971e-28 	-1.35247e-27
0.020202 	-1.85405e-27 	-4.20896e-28 	-1.09258e-27
