/*--------------------------------*- C++ -*----------------------------------*\
  =========                 |
  \\      /  F ield         | OpenFOAM: The Open Source CFD Toolbox
   \\    /   O peration     | Website:  https://openfoam.org
    \\  /    A nd           | Version:  6
     \\/     M anipulation  |
\*---------------------------------------------------------------------------*/
FoamFile
{
    version     2.0;
    format      ascii;
    class       surfaceScalarField;
    location    "6900";
    object      phi;
}
// * * * * * * * * * * * * * * * * * * * * * * * * * * * * * * * * * * * * * //

dimensions      [0 3 -1 0 0 0 0];

internalField   nonuniform List<scalar> 
9440
(
4.50878e-14
-4.50869e-14
9.17105e-14
-4.40056e-14
1.37048e-13
-4.32492e-14
1.80918e-13
-4.18829e-14
2.2321e-13
-4.03498e-14
2.63887e-13
-3.87831e-14
3.029e-13
-3.71765e-14
3.4035e-13
-3.56852e-14
3.76442e-13
-3.44039e-14
4.11526e-13
-3.34865e-14
4.45927e-13
-3.29014e-14
4.80171e-13
-3.28527e-14
5.14808e-13
-3.33643e-14
5.50007e-13
-3.40537e-14
5.86081e-13
-3.50598e-14
6.23107e-13
-3.61491e-14
6.61698e-13
-3.78587e-14
7.03927e-13
-4.16456e-14
7.48133e-13
-4.37719e-14
7.93734e-13
-4.53203e-14
8.40877e-13
-4.70189e-14
8.93153e-13
-5.23068e-14
9.45799e-13
-5.28337e-14
1.00013e-12
-5.46707e-14
1.0563e-12
-5.66619e-14
1.11336e-12
-5.77016e-14
1.17086e-12
-5.82782e-14
1.22837e-12
-5.84311e-14
1.28521e-12
-5.78843e-14
1.34097e-12
-5.69421e-14
1.39507e-12
-5.53889e-14
1.44694e-12
-5.32585e-14
1.49612e-12
-5.06786e-14
1.54205e-12
-4.75119e-14
1.58439e-12
-4.40046e-14
1.62267e-12
-4.00107e-14
1.65665e-12
-3.57625e-14
1.68593e-12
-3.11085e-14
1.71041e-12
-2.63365e-14
1.72987e-12
-2.13344e-14
1.74427e-12
-1.62905e-14
1.7534e-12
-1.10107e-14
1.75737e-12
-5.83284e-15
1.75627e-12
-7.27415e-16
1.74994e-12
4.53444e-15
1.7386e-12
9.60566e-15
1.72226e-12
1.46758e-14
1.70168e-12
1.89785e-14
1.67654e-12
2.3639e-14
1.64723e-12
2.78988e-14
1.61401e-12
3.19147e-14
1.57698e-12
3.58474e-14
1.53657e-12
3.93454e-14
1.49304e-12
4.25936e-14
1.44663e-12
4.56242e-14
1.39778e-12
4.81901e-14
1.34657e-12
5.07095e-14
1.29348e-12
5.27362e-14
1.23848e-12
5.48094e-14
1.18216e-12
5.62818e-14
1.12468e-12
5.75904e-14
1.06627e-12
5.86884e-14
1.0071e-12
5.96009e-14
9.47388e-13
6.02958e-14
8.87301e-13
6.08255e-14
8.2711e-13
6.10768e-14
7.6684e-13
6.12951e-14
7.06655e-13
6.13463e-14
6.467e-13
6.12456e-14
5.87235e-13
6.08761e-14
5.28364e-13
6.0399e-14
4.70363e-13
5.96315e-14
4.13732e-13
5.83587e-14
3.59849e-13
5.56955e-14
3.12207e-13
4.95287e-14
2.82366e-13
3.17917e-14
3.09335e-13
-2.49679e-14
1.55614e-13
1.55763e-13
-1.2878e-15
1.58969e-13
1.44592e-21
-1.35658e-22
1.45134e-21
-2.06795e-24
1.49983e-21
-3.80503e-23
1.67649e-21
-2.99336e-23
1.82476e-21
-1.50443e-23
1.93219e-21
-9.30578e-25
2.00178e-21
1.10635e-23
2.0389e-21
2.10931e-23
2.04898e-21
2.93649e-23
2.03688e-21
3.60858e-23
2.0071e-21
4.14107e-23
1.96373e-21
4.565e-23
1.9096e-21
4.88554e-23
1.84777e-21
5.14403e-23
1.78045e-21
5.33015e-23
1.70927e-21
5.46973e-23
1.63575e-21
5.57313e-23
1.56094e-21
5.64551e-23
1.48582e-21
5.69204e-23
1.41096e-21
5.73857e-23
1.33641e-21
5.75925e-23
1.26285e-21
5.77476e-23
1.19021e-21
5.79026e-23
1.11876e-21
5.81611e-23
1.04824e-21
5.83162e-23
9.78813e-22
5.84713e-23
9.10209e-22
5.87298e-23
8.42535e-22
5.904e-23
7.75379e-22
5.93502e-23
7.09152e-22
5.97638e-23
6.43443e-22
6.00223e-23
5.78044e-22
6.02808e-23
5.13059e-22
6.06427e-23
4.48229e-22
6.09012e-23
3.8376e-22
6.12114e-23
3.19447e-22
6.14699e-23
2.55237e-22
6.16767e-23
1.91182e-22
6.18318e-23
1.27179e-22
6.18835e-23
6.32793e-23
6.18318e-23
6.14182e-23
4.67502e-14
-8.92311e-14
9.3086e-14
-8.61851e-14
1.37848e-13
-8.44333e-14
1.81498e-13
-8.20784e-14
2.23766e-13
-7.92538e-14
2.64363e-13
-7.61203e-14
3.03245e-13
-7.29251e-14
3.405e-13
-6.99519e-14
3.7637e-13
-6.74472e-14
4.11068e-13
-6.5536e-14
4.45181e-13
-6.45626e-14
4.7912e-13
-6.45515e-14
5.13398e-13
-6.56241e-14
5.48221e-13
-6.70955e-14
5.84059e-13
-6.93686e-14
6.2045e-13
-7.12627e-14
6.59276e-13
-7.5673e-14
7.01451e-13
-8.30824e-14
7.45445e-13
-8.72987e-14
7.90873e-13
-9.05589e-14
8.38718e-13
-9.49504e-14
8.9076e-13
-1.0471e-13
9.43818e-13
-1.06526e-13
9.98458e-13
-1.10214e-13
1.05519e-12
-1.14563e-13
1.11275e-12
-1.1668e-13
1.17073e-12
-1.17914e-13
1.22882e-12
-1.18415e-13
1.28622e-12
-1.17399e-13
1.34254e-12
-1.15588e-13
1.3972e-12
-1.12556e-13
1.44961e-12
-1.08353e-13
1.49927e-12
-1.03177e-13
1.54566e-12
-9.68749e-14
1.58831e-12
-8.97377e-14
1.627e-12
-8.18844e-14
1.66122e-12
-7.32527e-14
1.69076e-12
-6.39563e-14
1.7154e-12
-5.43275e-14
1.73499e-12
-4.42822e-14
1.74936e-12
-3.40013e-14
1.75863e-12
-2.35967e-14
1.76258e-12
-1.30334e-14
1.76135e-12
-2.6678e-15
1.75498e-12
7.82684e-15
1.74351e-12
1.81166e-14
1.72706e-12
2.83028e-14
1.70619e-12
3.71866e-14
1.68095e-12
4.63983e-14
1.6514e-12
5.51507e-14
1.61794e-12
6.32827e-14
1.58062e-12
7.13033e-14
1.53989e-12
7.84451e-14
1.49613e-12
8.49634e-14
1.44946e-12
9.1167e-14
1.40028e-12
9.65028e-14
1.34886e-12
1.0154e-13
1.2954e-12
1.05875e-13
1.24017e-12
1.10001e-13
1.1836e-12
1.13095e-13
1.12589e-12
1.15821e-13
1.06732e-12
1.18065e-13
1.00796e-12
1.2003e-13
9.48061e-13
1.21541e-13
8.87867e-13
1.22619e-13
8.27484e-13
1.23315e-13
7.66985e-13
1.23891e-13
7.06653e-13
1.24003e-13
6.46618e-13
1.23823e-13
5.86951e-13
1.23287e-13
5.27767e-13
1.22513e-13
4.69251e-13
1.21244e-13
4.11553e-13
1.19301e-13
3.54531e-13
1.16094e-13
2.97177e-13
1.10369e-13
2.32186e-13
1.00358e-13
1.29062e-13
8.17998e-14
7.09653e-14
2.17553e-13
-9.95988e-16
2.33857e-13
1.3996e-21
-4.96311e-22
1.41536e-21
-5.06648e-24
1.5079e-21
2.06795e-25
1.69143e-21
1.17873e-23
1.83882e-21
2.45569e-23
1.94418e-21
3.63443e-23
2.01181e-21
4.67874e-23
2.04712e-21
5.59381e-23
2.0557e-21
6.39514e-23
2.04221e-21
7.07756e-23
2.01139e-21
7.65142e-23
1.96693e-21
8.1529e-23
1.91213e-21
8.56649e-23
1.84963e-21
8.92321e-23
1.7818e-21
9.23857e-23
1.7103e-21
9.49707e-23
1.63642e-21
9.71937e-23
1.56146e-21
9.921e-23
1.48629e-21
1.01019e-22
1.41112e-21
1.0257e-22
1.33662e-21
1.0407e-22
1.263e-21
1.05517e-22
1.19047e-21
1.06913e-22
1.11892e-21
1.08154e-22
1.04835e-21
1.09395e-22
9.79072e-22
1.10739e-22
9.10519e-22
1.11928e-22
8.42794e-22
1.13117e-22
7.75792e-22
1.14358e-22
7.09463e-22
1.15599e-22
6.43753e-22
1.16839e-22
5.78406e-22
1.17822e-22
5.13421e-22
1.18804e-22
4.48487e-22
1.19579e-22
3.84019e-22
1.20562e-22
3.19654e-22
1.21234e-22
2.55392e-22
1.21906e-22
1.91234e-22
1.22423e-22
1.27076e-22
1.22785e-22
6.29174e-23
1.23043e-22
1.23147e-22
4.58309e-14
-1.32972e-13
9.38996e-14
-1.30639e-13
1.40403e-13
-1.27829e-13
1.85178e-13
-1.23849e-13
2.28058e-13
-1.19201e-13
2.6891e-13
-1.14132e-13
3.07669e-13
-1.08947e-13
3.44509e-13
-1.04181e-13
3.79635e-13
-1.00101e-13
4.1355e-13
-9.71343e-14
4.4654e-13
-9.5407e-14
4.79408e-13
-9.54532e-14
5.12518e-13
-9.6962e-14
5.46342e-13
-9.93501e-14
5.80998e-13
-1.02671e-13
6.1603e-13
-1.0516e-13
6.5501e-13
-1.1375e-13
6.96746e-13
-1.2415e-13
7.40123e-13
-1.30244e-13
7.85072e-13
-1.35318e-13
8.34454e-13
-1.44382e-13
8.86298e-13
-1.56846e-13
9.39856e-13
-1.6061e-13
9.95262e-13
-1.66381e-13
1.05299e-12
-1.73282e-13
1.11136e-12
-1.76257e-13
1.1704e-12
-1.78378e-13
1.22955e-12
-1.79198e-13
1.28814e-12
-1.77799e-13
1.34559e-12
-1.75038e-13
1.4013e-12
-1.70426e-13
1.45479e-12
-1.64165e-13
1.50545e-12
-1.56281e-13
1.5528e-12
-1.46797e-13
1.59626e-12
-1.35878e-13
1.63559e-12
-1.23972e-13
1.67044e-12
-1.10922e-13
1.70042e-12
-9.68079e-14
1.7255e-12
-8.23098e-14
1.74536e-12
-6.70586e-14
1.75988e-12
-5.14308e-14
1.7691e-12
-3.56959e-14
1.77304e-12
-1.97975e-14
1.77169e-12
-4.08463e-15
1.76519e-12
1.16416e-14
1.75353e-12
2.71969e-14
1.73659e-12
4.27787e-14
1.7153e-12
5.61538e-14
1.68958e-12
6.99471e-14
1.65956e-12
8.31522e-14
1.62564e-12
9.53732e-14
1.58779e-12
1.07522e-13
1.54649e-12
1.18307e-13
1.50211e-12
1.28125e-13
1.45475e-12
1.37522e-13
1.40508e-12
1.45404e-13
1.35308e-12
1.52998e-13
1.29912e-12
1.59538e-13
1.24338e-12
1.65679e-13
1.18632e-12
1.7035e-13
1.12815e-12
1.74416e-13
1.06904e-12
1.77851e-13
1.00922e-12
1.80751e-13
9.48976e-13
1.82931e-13
8.88414e-13
1.84549e-13
8.27626e-13
1.85695e-13
7.66922e-13
1.86397e-13
7.06313e-13
1.86612e-13
6.4595e-13
1.86376e-13
5.85975e-13
1.85629e-13
5.26388e-13
1.84628e-13
4.67227e-13
1.8308e-13
4.08249e-13
1.81084e-13
3.48807e-13
1.78455e-13
2.86676e-13
1.75515e-13
2.16313e-13
1.73816e-13
1.21428e-13
1.79842e-13
6.65069e-14
2.75672e-13
-9.50315e-16
3.03895e-13
1.40622e-21
-7.3454e-22
1.42063e-21
-7.44463e-24
1.51953e-21
9.09899e-24
1.70415e-21
2.66766e-23
1.85061e-21
4.34787e-23
1.95463e-21
5.88332e-23
2.02096e-21
7.25851e-23
2.05513e-21
8.47343e-23
2.06252e-21
9.5436e-23
2.048e-21
1.0469e-22
2.0163e-21
1.12858e-22
1.97112e-21
1.19838e-22
1.9157e-21
1.25938e-22
1.85273e-21
1.31212e-22
1.78438e-21
1.35709e-22
1.71252e-21
1.3969e-22
1.63844e-21
1.43206e-22
1.56327e-21
1.46463e-22
1.48784e-21
1.49306e-22
1.41267e-21
1.51891e-22
1.33807e-21
1.54269e-22
1.26445e-21
1.56544e-22
1.19171e-21
1.58715e-22
1.12016e-21
1.6099e-22
1.04964e-21
1.62955e-22
9.80313e-22
1.65126e-22
9.11708e-22
1.6709e-22
8.44034e-22
1.69158e-22
7.77033e-22
1.71071e-22
7.10703e-22
1.73036e-22
6.44736e-22
1.74794e-22
5.79285e-22
1.76448e-22
5.14248e-22
1.78051e-22
4.49469e-22
1.7955e-22
3.84742e-22
1.80791e-22
3.20377e-22
1.81928e-22
2.55909e-22
1.8291e-22
1.91596e-22
1.83634e-22
1.27334e-22
1.84203e-22
6.30208e-23
1.84668e-22
1.84927e-22
4.77074e-14
-1.78675e-13
9.68533e-14
-1.76246e-13
1.44431e-13
-1.72361e-13
1.90113e-13
-1.66581e-13
2.33465e-13
-1.59677e-13
2.74366e-13
-1.52246e-13
3.12784e-13
-1.44681e-13
3.48881e-13
-1.37714e-13
3.83007e-13
-1.31801e-13
4.15488e-13
-1.2734e-13
4.47132e-13
-1.2494e-13
4.78479e-13
-1.24869e-13
5.09789e-13
-1.2653e-13
5.424e-13
-1.30419e-13
5.75434e-13
-1.34374e-13
6.08704e-13
-1.37315e-13
6.47891e-13
-1.52047e-13
6.88963e-13
-1.64559e-13
7.31929e-13
-1.72781e-13
7.7561e-13
-1.78809e-13
8.27959e-13
-1.96776e-13
8.79037e-13
-2.08203e-13
9.33603e-13
-2.15689e-13
9.90312e-13
-2.23831e-13
1.0493e-12
-2.33236e-13
1.10912e-12
-2.37258e-13
1.1698e-12
-2.40451e-13
1.23061e-12
-2.41596e-13
1.29106e-12
-2.40026e-13
1.35013e-12
-2.36061e-13
1.4076e-12
-2.30023e-13
1.46272e-12
-2.21552e-13
1.51487e-12
-2.10822e-13
1.5636e-12
-1.98045e-13
1.6083e-12
-1.832e-13
1.6487e-12
-1.67074e-13
1.68438e-12
-1.49369e-13
1.71511e-12
-1.30363e-13
1.74063e-12
-1.10669e-13
1.76083e-12
-9.01168e-14
1.77568e-12
-6.91282e-14
1.785e-12
-4.78378e-14
1.78881e-12
-2.63806e-14
1.7872e-12
-5.18747e-15
1.78035e-12
1.58679e-14
1.76856e-12
3.64574e-14
1.75117e-12
5.77528e-14
1.72907e-12
7.59756e-14
1.70277e-12
9.4118e-14
1.67199e-12
1.11965e-13
1.63726e-12
1.28306e-13
1.59861e-12
1.4457e-13
1.55643e-12
1.59079e-13
1.51121e-12
1.72139e-13
1.4631e-12
1.84654e-13
1.41248e-12
1.95266e-13
1.35958e-12
2.05367e-13
1.30477e-12
2.14056e-13
1.2483e-12
2.22092e-13
1.19048e-12
2.28355e-13
1.13155e-12
2.33761e-13
1.0718e-12
2.38262e-13
1.01142e-12
2.42012e-13
9.50618e-13
2.44854e-13
8.8954e-13
2.46971e-13
8.28258e-13
2.48532e-13
7.67055e-13
2.49363e-13
7.0599e-13
2.49636e-13
6.45285e-13
2.49223e-13
5.84839e-13
2.4839e-13
5.24793e-13
2.47149e-13
4.65142e-13
2.4535e-13
4.05669e-13
2.43303e-13
3.45719e-13
2.41265e-13
2.84433e-13
2.39755e-13
2.21416e-13
2.39868e-13
1.58841e-13
2.45507e-13
6.90426e-14
3.68604e-13
-9.37404e-16
3.76391e-13
1.42276e-21
-9.39682e-22
1.43717e-21
-9.51258e-24
1.53716e-21
1.46308e-23
1.721e-21
3.83605e-23
1.86591e-21
6.02808e-23
1.96838e-21
8.00297e-23
2.03316e-21
9.77624e-23
2.06578e-21
1.13479e-22
2.07178e-21
1.27179e-22
2.05611e-21
1.39277e-22
2.02328e-21
1.49875e-22
1.97722e-21
1.59181e-22
1.92097e-21
1.67246e-22
1.85728e-21
1.74122e-22
1.78836e-21
1.8017e-22
1.71604e-21
1.85547e-22
1.6417e-21
1.90303e-22
1.56611e-21
1.94543e-22
1.49037e-21
1.98368e-22
1.4151e-21
2.01832e-22
1.34029e-21
2.05141e-22
1.26662e-21
2.08294e-22
1.19393e-21
2.11293e-22
1.12217e-21
2.1424e-22
1.05181e-21
2.17238e-22
9.82277e-22
2.2003e-22
9.13776e-22
2.22873e-22
8.45947e-22
2.25614e-22
7.78997e-22
2.2825e-22
7.12461e-22
2.30783e-22
6.46442e-22
2.33162e-22
5.80836e-22
2.35591e-22
5.15695e-22
2.37763e-22
4.5071e-22
2.39727e-22
3.85828e-22
2.41537e-22
3.2136e-22
2.43088e-22
2.56633e-22
2.44328e-22
1.92164e-22
2.45569e-22
1.27799e-22
2.46345e-22
6.32276e-23
2.46913e-22
2.47275e-22
5.01904e-14
-2.26883e-13
1.01156e-13
-2.23707e-13
1.50128e-13
-2.18313e-13
1.96919e-13
-2.10447e-13
2.40872e-13
-2.00775e-13
2.81756e-13
-1.90364e-13
3.19662e-13
-1.79924e-13
3.54729e-13
-1.70237e-13
3.87345e-13
-1.62009e-13
4.18117e-13
-1.55855e-13
4.47712e-13
-1.52442e-13
4.76845e-13
-1.52084e-13
5.05956e-13
-1.53912e-13
5.36724e-13
-1.59658e-13
5.67061e-13
-1.6339e-13
5.99396e-13
-1.68542e-13
6.37875e-13
-1.89641e-13
6.77987e-13
-2.04014e-13
7.19964e-13
-2.14332e-13
7.6387e-13
-2.22521e-13
8.17616e-13
-2.5056e-13
8.69067e-13
-2.59929e-13
9.24795e-13
-2.71919e-13
9.83426e-13
-2.83193e-13
1.044e-12
-2.94763e-13
1.10593e-12
-3.00352e-13
1.16889e-12
-3.04787e-13
1.23199e-12
-3.06268e-13
1.29477e-12
-3.04564e-13
1.35639e-12
-2.99616e-13
1.41613e-12
-2.91859e-13
1.4734e-12
-2.81068e-13
1.52758e-12
-2.67375e-13
1.57817e-12
-2.51125e-13
1.62452e-12
-2.32137e-13
1.66643e-12
-2.11659e-13
1.70327e-12
-1.8895e-13
1.73499e-12
-1.64873e-13
1.76125e-12
-1.39744e-13
1.78193e-12
-1.13626e-13
1.79696e-12
-8.69767e-14
1.80636e-12
-6.00249e-14
1.81005e-12
-3.28197e-14
1.80819e-12
-6.00545e-15
1.80096e-12
2.04962e-14
1.78857e-12
4.6346e-14
1.77091e-12
7.30204e-14
1.74749e-12
9.71349e-14
1.7203e-12
1.19201e-13
1.68863e-12
1.41683e-13
1.65287e-12
1.62294e-13
1.61314e-12
1.82703e-13
1.56988e-12
2.00948e-13
1.52354e-12
2.17289e-13
1.47414e-12
2.3308e-13
1.42241e-12
2.46249e-13
1.36834e-12
2.58913e-13
1.31242e-12
2.69688e-13
1.2548e-12
2.79648e-13
1.19604e-12
2.87296e-13
1.13613e-12
2.94087e-13
1.07552e-12
2.99521e-13
1.01427e-12
3.04138e-13
9.52694e-13
3.07544e-13
8.90944e-13
3.10048e-13
8.29024e-13
3.11995e-13
7.67223e-13
3.12908e-13
7.05716e-13
3.13083e-13
6.44412e-13
3.12651e-13
5.83457e-13
3.11635e-13
5.23017e-13
3.10041e-13
4.62983e-13
3.07977e-13
4.03489e-13
3.05519e-13
3.44508e-13
3.03078e-13
2.85602e-13
3.01587e-13
2.28209e-13
3.00265e-13
1.69771e-13
3.07007e-13
7.09624e-14
4.70513e-13
-9.25728e-16
4.50767e-13
1.44757e-21
-1.18122e-21
1.46127e-21
-1.19941e-23
1.56084e-21
1.94904e-23
1.74292e-21
4.97859e-23
1.88566e-21
7.70829e-23
1.98616e-21
1.01743e-22
2.04882e-21
1.23715e-22
2.07953e-21
1.42947e-22
2.08387e-21
1.60059e-22
2.06676e-21
1.75052e-22
2.03259e-21
1.88132e-22
1.98529e-21
1.99557e-22
1.92785e-21
2.09484e-22
1.86338e-21
2.18117e-22
1.79364e-21
2.25562e-22
1.72085e-21
2.32283e-22
1.64588e-21
2.38073e-22
1.56994e-21
2.43243e-22
1.49389e-21
2.48051e-22
1.41836e-21
2.52445e-22
1.3435e-21
2.56581e-22
1.26957e-21
2.6051e-22
1.19688e-21
2.64336e-22
1.12522e-21
2.68058e-22
1.0546e-21
2.71625e-22
9.85121e-22
2.75296e-22
9.16465e-22
2.78863e-22
8.48636e-22
2.82327e-22
7.81582e-22
2.85739e-22
7.14839e-22
2.88945e-22
6.4882e-22
2.9215e-22
5.83007e-22
2.95148e-22
5.17763e-22
2.9794e-22
4.52468e-22
3.00473e-22
3.87379e-22
3.02645e-22
3.22652e-22
3.04764e-22
2.57822e-22
3.0647e-22
1.92992e-22
3.07815e-22
1.28368e-22
3.08952e-22
6.36412e-23
3.09727e-22
3.10296e-22
5.31866e-14
-2.78102e-13
1.06839e-13
-2.73886e-13
1.58087e-13
-2.66567e-13
2.06411e-13
-2.55871e-13
2.51227e-13
-2.42763e-13
2.92218e-13
-2.28612e-13
3.29402e-13
-2.14468e-13
3.62913e-13
-2.01227e-13
3.93499e-13
-1.90207e-13
4.21962e-13
-1.8208e-13
4.48848e-13
-1.77252e-13
4.74508e-13
-1.75843e-13
5.01623e-13
-1.79312e-13
5.28679e-13
-1.85194e-13
5.54796e-13
-1.88192e-13
5.88628e-13
-2.01272e-13
6.25007e-13
-2.2514e-13
6.63374e-13
-2.41727e-13
7.03277e-13
-2.53805e-13
7.50921e-13
-2.69968e-13
8.02979e-13
-3.02651e-13
8.5616e-13
-3.13376e-13
9.13206e-13
-3.29458e-13
9.74508e-13
-3.45213e-13
1.037e-12
-3.58197e-13
1.10173e-12
-3.66231e-13
1.16748e-12
-3.71895e-13
1.23364e-12
-3.73974e-13
1.29945e-12
-3.72109e-13
1.36427e-12
-3.66343e-13
1.42696e-12
-3.5662e-13
1.48706e-12
-3.43391e-13
1.54391e-12
-3.2657e-13
1.59689e-12
-3.06562e-13
1.64539e-12
-2.83203e-13
1.68902e-12
-2.57931e-13
1.72732e-12
-2.29961e-13
1.76026e-12
-2.00569e-13
1.7874e-12
-1.69671e-13
1.80861e-12
-1.37625e-13
1.82397e-12
-1.05126e-13
1.83343e-12
-7.22456e-14
1.83703e-12
-3.91384e-14
1.83474e-12
-6.36689e-15
1.82703e-12
2.56409e-14
1.81356e-12
5.73419e-14
1.7958e-12
8.84221e-14
1.77085e-12
1.19857e-13
1.74237e-12
1.45587e-13
1.70962e-12
1.72506e-13
1.67233e-12
1.97832e-13
1.63142e-12
2.22043e-13
1.58664e-12
2.44349e-13
1.53876e-12
2.63998e-13
1.48789e-12
2.82986e-13
1.4347e-12
2.98697e-13
1.37923e-12
3.13869e-13
1.32186e-12
3.26771e-13
1.26294e-12
3.38512e-13
1.20277e-12
3.47642e-13
1.14172e-12
3.55551e-13
1.08005e-12
3.61832e-13
1.01786e-12
3.67206e-13
9.55295e-13
3.71205e-13
8.9267e-13
3.73988e-13
8.29984e-13
3.76204e-13
7.67519e-13
3.771e-13
7.05291e-13
3.77229e-13
6.43378e-13
3.76661e-13
5.81892e-13
3.75388e-13
5.2092e-13
3.73435e-13
4.60597e-13
3.70865e-13
4.01163e-13
3.67642e-13
3.42943e-13
3.64096e-13
2.85997e-13
3.61424e-13
2.34072e-13
3.55157e-13
1.79035e-13
3.65071e-13
5.85874e-14
5.94026e-13
-9.12624e-16
5.12724e-13
1.47901e-21
-1.35327e-21
1.4928e-21
-1.37519e-23
1.59119e-21
2.45569e-23
1.77017e-21
6.13148e-23
1.91043e-21
9.46088e-23
2.00808e-21
1.24284e-22
2.06811e-21
1.50547e-22
2.09659e-21
1.73915e-22
2.09887e-21
1.94439e-22
2.07984e-21
2.12275e-22
2.04407e-21
2.2794e-22
1.99511e-21
2.41485e-22
1.93653e-21
2.53272e-22
1.87082e-21
2.63405e-22
1.80036e-21
2.72298e-22
1.72664e-21
2.80104e-22
1.6511e-21
2.86928e-22
1.57475e-21
2.9308e-22
1.49828e-21
2.98561e-22
1.42244e-21
3.03782e-22
1.34748e-21
3.08538e-22
1.27334e-21
3.13036e-22
1.2006e-21
3.17586e-22
1.12879e-21
3.22032e-22
1.05827e-21
3.26478e-22
9.88688e-22
3.30821e-22
9.1998e-22
3.35112e-22
8.51996e-22
3.39403e-22
7.84788e-22
3.43642e-22
7.18096e-22
3.47674e-22
6.51767e-22
3.51603e-22
5.85851e-22
3.55222e-22
5.20245e-22
3.5879e-22
4.54743e-22
3.61788e-22
3.89447e-22
3.64632e-22
3.24358e-22
3.67113e-22
2.59218e-22
3.69181e-22
1.94129e-22
3.70835e-22
1.29144e-22
3.72283e-22
6.41582e-23
3.73265e-22
3.73782e-22
5.72805e-14
-3.33432e-13
1.14643e-13
-3.27817e-13
1.69034e-13
-3.17997e-13
2.19506e-13
-3.03474e-13
2.65434e-13
-2.85892e-13
3.0641e-13
-2.66876e-13
3.42507e-13
-2.47953e-13
3.74168e-13
-2.30392e-13
4.02119e-13
-2.15797e-13
4.27223e-13
-2.04966e-13
4.49883e-13
-1.97856e-13
4.7213e-13
-1.96209e-13
4.95856e-13
-2.01334e-13
5.17489e-13
-2.05321e-13
5.4008e-13
-2.09479e-13
5.74543e-13
-2.34643e-13
6.08218e-13
-2.57939e-13
6.44677e-13
-2.77531e-13
6.81048e-13
-2.89748e-13
7.35997e-13
-3.24717e-13
7.83699e-13
-3.50381e-13
8.39711e-13
-3.69641e-13
8.98416e-13
-3.88645e-13
9.62776e-13
-4.10274e-13
1.02797e-12
-4.2431e-13
1.09607e-12
-4.35462e-13
1.16544e-12
-4.42603e-13
1.23544e-12
-4.45494e-13
1.30513e-12
-4.43509e-13
1.37381e-12
-4.36906e-13
1.44028e-12
-4.25122e-13
1.5039e-12
-4.09196e-13
1.56402e-12
-3.89007e-13
1.61992e-12
-3.64884e-13
1.67094e-12
-3.36746e-13
1.71679e-12
-3.0639e-13
1.75689e-12
-2.72737e-13
1.79112e-12
-2.37509e-13
1.81924e-12
-2.00543e-13
1.84126e-12
-1.62397e-13
1.85696e-12
-1.23573e-13
1.86642e-12
-8.44265e-14
1.86974e-12
-4.51359e-14
1.86691e-12
-6.15711e-15
1.85858e-12
3.14371e-14
1.84393e-12
6.95596e-14
1.82545e-12
1.04571e-13
1.79964e-12
1.4347e-13
1.76921e-12
1.73964e-13
1.73505e-12
2.04766e-13
1.69604e-12
2.35109e-13
1.65352e-12
2.6302e-13
1.60688e-12
2.89622e-13
1.55712e-12
3.12601e-13
1.50442e-12
3.34745e-13
1.44932e-12
3.53068e-13
1.39215e-12
3.70529e-13
1.33301e-12
3.85626e-13
1.27253e-12
3.98937e-13
1.21071e-12
4.09641e-13
1.14831e-12
4.18359e-13
1.08522e-12
4.25557e-13
1.02177e-12
4.3151e-13
9.58233e-13
4.35826e-13
8.94553e-13
4.38965e-13
8.30938e-13
4.41322e-13
7.67718e-13
4.42023e-13
7.04793e-13
4.42048e-13
6.42146e-13
4.41379e-13
5.79927e-13
4.39846e-13
5.1828e-13
4.37472e-13
4.57355e-13
4.34318e-13
3.97567e-13
4.30082e-13
3.39837e-13
4.24588e-13
2.86147e-13
4.17965e-13
2.3392e-13
4.1031e-13
1.28455e-13
4.73519e-13
4.44083e-14
6.81097e-13
-8.97171e-16
5.6045e-13
1.51706e-21
-1.57165e-21
1.53106e-21
-1.60266e-23
1.628e-21
2.98302e-23
1.80346e-21
7.37225e-23
1.94005e-21
1.13117e-22
2.0344e-21
1.4822e-22
2.09147e-21
1.79343e-22
2.11707e-21
2.06743e-22
2.11676e-21
2.30628e-22
2.09556e-21
2.51463e-22
2.05761e-21
2.69506e-22
2.00684e-21
2.85171e-22
1.94672e-21
2.98767e-22
1.87972e-21
3.10503e-22
1.80817e-21
3.20584e-22
1.73346e-21
3.2927e-22
1.65726e-21
3.36973e-22
1.58028e-21
3.43745e-22
1.50345e-21
3.49897e-22
1.42725e-21
3.55584e-22
1.35203e-21
3.61064e-22
1.27784e-21
3.66389e-22
1.20494e-21
3.71611e-22
1.13324e-21
3.76677e-22
1.06262e-21
3.81744e-22
9.9303e-22
3.8681e-22
9.24271e-22
3.92032e-22
8.56235e-22
3.97098e-22
7.8882e-22
4.02217e-22
7.21974e-22
4.07025e-22
6.55437e-22
4.11626e-22
5.89418e-22
4.16175e-22
5.23243e-22
4.20208e-22
4.57534e-22
4.24085e-22
3.91929e-22
4.27394e-22
3.26374e-22
4.30289e-22
2.60872e-22
4.32822e-22
1.95577e-22
4.3489e-22
1.30178e-22
4.36441e-22
6.46752e-23
4.37579e-22
4.38354e-22
6.28204e-14
-3.94323e-13
1.25189e-13
-3.86801e-13
1.83616e-13
-3.73504e-13
2.3699e-13
-3.54017e-13
2.84418e-13
-3.30557e-13
3.25448e-13
-3.0523e-13
3.60096e-13
-2.80024e-13
3.89219e-13
-2.57052e-13
4.13568e-13
-2.37813e-13
4.33798e-13
-2.23004e-13
4.51356e-13
-2.13381e-13
4.69928e-13
-2.12918e-13
4.87624e-13
-2.17348e-13
5.01449e-13
-2.17656e-13
5.25793e-13
-2.3253e-13
5.55167e-13
-2.62937e-13
5.86441e-13
-2.88343e-13
6.19122e-13
-3.09559e-13
6.58144e-13
-3.28341e-13
7.13114e-13
-3.7948e-13
7.6072e-13
-3.98008e-13
8.18676e-13
-4.2784e-13
8.80778e-13
-4.51214e-13
9.47412e-13
-4.77592e-13
1.01671e-12
-4.94501e-13
1.08885e-12
-5.08708e-13
1.16282e-12
-5.1788e-13
1.23732e-12
-5.21495e-13
1.31172e-12
-5.19583e-13
1.38505e-12
-5.12089e-13
1.45621e-12
-4.98282e-13
1.52415e-12
-4.79276e-13
1.5882e-12
-4.55332e-13
1.64763e-12
-4.26708e-13
1.70178e-12
-3.93383e-13
1.75001e-12
-3.57175e-13
1.79239e-12
-3.17743e-13
1.82821e-12
-2.75998e-13
1.85745e-12
-2.3248e-13
1.88011e-12
-1.87772e-13
1.89611e-12
-1.42275e-13
1.90555e-12
-9.654e-14
1.90848e-12
-5.0701e-14
1.90517e-12
-5.41878e-15
1.89578e-12
3.83342e-14
1.88033e-12
8.26184e-14
1.85944e-12
1.23172e-13
1.83416e-12
1.66585e-13
1.80074e-12
2.05365e-13
1.76471e-12
2.38925e-13
1.72381e-12
2.74313e-13
1.67931e-12
3.05994e-13
1.63065e-12
3.36943e-13
1.57854e-12
3.63577e-13
1.52381e-12
3.88547e-13
1.46625e-12
4.09906e-13
1.40703e-12
4.2925e-13
1.34576e-12
4.46621e-13
1.28357e-12
4.61077e-13
1.21976e-12
4.73624e-13
1.15563e-12
4.82894e-13
1.09112e-12
4.90688e-13
1.02626e-12
4.97224e-13
9.61324e-13
5.01823e-13
8.96452e-13
5.05114e-13
8.31982e-13
5.07272e-13
7.67812e-13
5.0787e-13
7.03965e-13
5.07758e-13
6.40593e-13
5.06788e-13
5.77577e-13
5.05064e-13
5.15062e-13
5.02339e-13
4.53173e-13
4.98695e-13
3.92008e-13
4.93854e-13
3.32435e-13
4.86879e-13
2.77427e-13
4.75778e-13
2.35792e-13
4.54825e-13
1.00172e-13
6.12073e-13
4.76341e-14
7.36606e-13
-8.80419e-16
6.11346e-13
1.56669e-21
-1.69076e-21
1.57692e-21
-1.73708e-23
1.67184e-21
3.61375e-23
1.84286e-21
8.72676e-23
1.97515e-21
1.33073e-22
2.06547e-21
1.73915e-22
2.11882e-21
2.09845e-22
2.141e-21
2.41433e-22
2.13759e-21
2.69144e-22
2.11365e-21
2.93029e-22
2.07317e-21
3.13605e-22
2.02049e-21
3.31286e-22
1.95845e-21
3.46434e-22
1.88969e-21
3.59255e-22
1.8169e-21
3.70422e-22
1.74116e-21
3.79934e-22
1.66398e-21
3.88258e-22
1.58643e-21
3.95651e-22
1.50919e-21
4.02423e-22
1.43273e-21
4.08576e-22
1.35725e-21
4.14573e-22
1.28311e-21
4.20311e-22
1.21006e-21
4.25895e-22
1.1383e-21
4.31685e-22
1.06768e-21
4.37579e-22
9.982e-22
4.43524e-22
9.29338e-22
4.49469e-22
8.61354e-22
4.55466e-22
7.93628e-22
4.61308e-22
7.26575e-22
4.6715e-22
6.59935e-22
4.7263e-22
5.9345e-22
4.77904e-22
5.27121e-22
4.82763e-22
4.60895e-22
4.87209e-22
3.94875e-22
4.9119e-22
3.28908e-22
4.94551e-22
2.6294e-22
4.97446e-22
1.97076e-22
4.99824e-22
1.31315e-22
5.01685e-22
6.5399e-23
5.02978e-22
5.03753e-22
7.02018e-14
-4.62622e-13
1.39209e-13
-4.52474e-13
2.03139e-13
-4.34558e-13
2.60331e-13
-4.08422e-13
3.09664e-13
-3.77171e-13
3.50687e-13
-3.43614e-13
3.83369e-13
-3.10167e-13
4.09042e-13
-2.80296e-13
4.28217e-13
-2.54688e-13
4.42026e-13
-2.34654e-13
4.54073e-13
-2.23423e-13
4.67472e-13
-2.2448e-13
4.74664e-13
-2.22878e-13
4.83893e-13
-2.25414e-13
5.08362e-13
-2.55724e-13
5.3084e-13
-2.8434e-13
5.57687e-13
-3.14328e-13
5.87156e-13
-3.38379e-13
6.36015e-13
-3.76769e-13
6.79829e-13
-4.23084e-13
7.33959e-13
-4.52149e-13
7.9243e-13
-4.86544e-13
8.59077e-13
-5.18311e-13
9.28167e-13
-5.47348e-13
1.00249e-12
-5.69702e-13
1.07973e-12
-5.87023e-13
1.15902e-12
-5.98445e-13
1.23923e-12
-6.03169e-13
1.31945e-12
-6.01449e-13
1.39835e-12
-5.92791e-13
1.47514e-12
-5.77033e-13
1.54823e-12
-5.54463e-13
1.61692e-12
-5.26255e-13
1.68056e-12
-4.9268e-13
1.73823e-12
-4.53486e-13
1.78948e-12
-4.10944e-13
1.83424e-12
-3.65073e-13
1.87178e-12
-3.16156e-13
1.90224e-12
-2.65586e-13
1.92557e-12
-2.13765e-13
1.9419e-12
-1.61245e-13
1.9512e-12
-1.08473e-13
1.95355e-12
-5.56278e-14
1.94946e-12
-3.84342e-15
1.93904e-12
4.63023e-14
1.92254e-12
9.67719e-14
1.89935e-12
1.44113e-13
1.87349e-12
1.90327e-13
1.83786e-12
2.39019e-13
1.79901e-12
2.75943e-13
1.75613e-12
3.15524e-13
1.70883e-12
3.51798e-13
1.65788e-12
3.86584e-13
1.60305e-12
4.17292e-13
1.54576e-12
4.44931e-13
1.48549e-12
4.69469e-13
1.42386e-12
4.90388e-13
1.36016e-12
5.10057e-13
1.29581e-12
5.25371e-13
1.22978e-12
5.39824e-13
1.16369e-12
5.49375e-13
1.09734e-12
5.57654e-13
1.03091e-12
5.64486e-13
9.64572e-13
5.692e-13
8.98402e-13
5.72535e-13
8.32902e-13
5.74224e-13
7.67689e-13
5.74727e-13
7.02991e-13
5.74282e-13
6.38681e-13
5.73096e-13
5.74917e-13
5.70987e-13
5.11504e-13
5.68058e-13
4.48363e-13
5.64279e-13
3.85416e-13
5.59358e-13
3.22133e-13
5.52827e-13
2.581e-13
5.42563e-13
1.87221e-13
5.28527e-13
8.90168e-14
7.13154e-13
4.93129e-14
7.79224e-13
-8.6124e-16
6.63852e-13
1.62128e-21
-1.79003e-21
1.63037e-21
-1.86116e-23
1.72297e-21
4.30134e-23
1.88871e-21
1.0195e-22
2.01599e-21
1.5489e-22
2.1014e-21
2.0178e-22
2.15041e-21
2.43139e-22
2.16861e-21
2.79225e-22
2.16147e-21
3.10451e-22
2.13418e-21
3.37438e-22
2.09085e-21
3.60392e-22
2.03564e-21
3.79883e-22
1.97133e-21
3.96375e-22
1.90086e-21
4.10488e-22
1.82647e-21
4.22327e-22
1.74949e-21
4.3246e-22
1.67137e-21
4.41146e-22
1.59315e-21
4.48849e-22
1.5154e-21
4.5588e-22
1.43867e-21
4.62342e-22
1.36304e-21
4.68546e-22
1.28875e-21
4.74647e-22
1.21585e-21
4.8085e-22
1.14415e-21
4.87261e-22
1.07368e-21
4.93879e-22
1.00415e-21
5.00548e-22
9.35335e-22
5.07475e-22
8.67196e-22
5.14403e-22
7.99522e-22
5.21176e-22
7.32055e-22
5.27948e-22
6.65157e-22
5.34514e-22
5.9831e-22
5.40563e-22
5.31619e-22
5.46198e-22
4.64824e-22
5.51264e-22
3.98184e-22
5.55917e-22
3.31803e-22
5.60001e-22
2.6537e-22
5.63362e-22
1.98937e-22
5.6605e-22
1.32607e-22
5.6817e-22
6.61745e-23
5.69617e-22
5.706e-22
8.00927e-14
-5.40841e-13
1.58214e-13
-5.27322e-13
2.29519e-13
-5.03036e-13
2.91499e-13
-4.67665e-13
3.43217e-13
-4.26219e-13
3.84057e-13
-3.81861e-13
4.13697e-13
-3.37312e-13
4.35414e-13
-2.99627e-13
4.46431e-13
-2.63442e-13
4.52694e-13
-2.38796e-13
4.60909e-13
-2.29664e-13
4.59894e-13
-2.21655e-13
4.56387e-13
-2.17735e-13
4.69937e-13
-2.37513e-13
4.82527e-13
-2.67054e-13
5.015e-13
-3.02249e-13
5.18559e-13
-3.30535e-13
5.56054e-13
-3.75228e-13
6.00322e-13
-4.20607e-13
6.43312e-13
-4.65859e-13
6.99171e-13
-5.08008e-13
7.61823e-13
-5.49413e-13
8.3125e-13
-5.88167e-13
9.05242e-13
-6.21982e-13
9.84874e-13
-6.5018e-13
1.06823e-12
-6.71424e-13
1.15392e-12
-6.85372e-13
1.24111e-12
-6.91786e-13
1.32823e-12
-6.90175e-13
1.41399e-12
-6.80305e-13
1.49721e-12
-6.62165e-13
1.57659e-12
-6.35899e-13
1.65079e-12
-6.02627e-13
1.7192e-12
-5.63364e-13
1.78095e-12
-5.17613e-13
1.83577e-12
-4.68224e-13
1.88298e-12
-4.14791e-13
1.92259e-12
-3.58326e-13
1.95422e-12
-2.99801e-13
1.97819e-12
-2.4033e-13
1.99455e-12
-1.8019e-13
2.00362e-12
-1.20104e-13
2.00537e-12
-5.99005e-14
2.00025e-12
-1.19278e-15
1.9885e-12
5.5661e-14
1.97053e-12
1.12446e-13
1.94602e-12
1.66437e-13
1.91662e-12
2.17656e-13
1.88071e-12
2.72992e-13
1.83826e-12
3.1661e-13
1.79279e-12
3.59358e-13
1.74219e-12
4.00935e-13
1.68896e-12
4.38539e-13
1.63093e-12
4.74232e-13
1.57036e-12
5.04605e-13
1.50696e-12
5.32186e-13
1.44246e-12
5.54415e-13
1.37602e-12
5.76229e-13
1.30894e-12
5.92407e-13
1.24069e-12
6.08235e-13
1.17204e-12
6.18416e-13
1.10382e-12
6.26472e-13
1.03558e-12
6.33543e-13
9.67779e-13
6.38025e-13
9.00243e-13
6.41297e-13
8.33474e-13
6.42414e-13
7.67285e-13
6.42524e-13
7.01648e-13
6.41707e-13
6.36541e-13
6.40159e-13
5.71962e-13
6.37679e-13
5.07649e-13
6.34628e-13
4.43436e-13
6.30878e-13
3.78498e-13
6.26798e-13
3.11356e-13
6.22575e-13
2.38666e-13
6.17947e-13
1.44816e-13
6.25138e-13
8.33583e-14
7.77428e-13
4.56697e-14
8.19764e-13
-8.39811e-16
7.12639e-13
1.68084e-21
-1.86944e-21
1.69205e-21
-1.95421e-23
1.7819e-21
5.11818e-23
1.94165e-21
1.18649e-22
2.06289e-21
1.7924e-22
2.14276e-21
2.32696e-22
2.18655e-21
2.79587e-22
2.19989e-21
3.20222e-22
2.18846e-21
3.55274e-22
2.15713e-21
3.85156e-22
2.11034e-21
4.10385e-22
2.05213e-21
4.31633e-22
1.98534e-21
4.49469e-22
1.9127e-21
4.64152e-22
1.83655e-21
4.76456e-22
1.75822e-21
4.86848e-22
1.67913e-21
4.95688e-22
1.60018e-21
5.03443e-22
1.52186e-21
5.1037e-22
1.44493e-21
5.16988e-22
1.36914e-21
5.23243e-22
1.2949e-21
5.29758e-22
1.22231e-21
5.36427e-22
1.15076e-21
5.43303e-22
1.0804e-21
5.50644e-22
1.01107e-21
5.58192e-22
9.42262e-22
5.65843e-22
8.73968e-22
5.73857e-22
8.06191e-22
5.81818e-22
7.38621e-22
5.89676e-22
6.71309e-22
5.97173e-22
6.03894e-22
6.04255e-22
5.36737e-22
6.10873e-22
4.69477e-22
6.16767e-22
4.02268e-22
6.2204e-22
3.35163e-22
6.26693e-22
2.6811e-22
6.30518e-22
2.01005e-22
6.33569e-22
1.34107e-22
6.35947e-22
6.71567e-23
6.37653e-22
6.38739e-22
9.34647e-14
-6.32464e-13
1.83633e-13
-6.14287e-13
2.64704e-13
-5.81342e-13
3.32877e-13
-5.33157e-13
3.87567e-13
-4.78296e-13
4.28597e-13
-4.20352e-13
4.54098e-13
-3.60366e-13
4.67433e-13
-3.10622e-13
4.69186e-13
-2.62975e-13
4.71933e-13
-2.39459e-13
4.62526e-13
-2.18318e-13
4.464e-13
-2.0375e-13
4.44766e-13
-2.14493e-13
4.45739e-13
-2.37057e-13
4.52694e-13
-2.72767e-13
4.58417e-13
-3.06926e-13