/*--------------------------------*- C++ -*----------------------------------*\
  =========                 |
  \\      /  F ield         | OpenFOAM: The Open Source CFD Toolbox
   \\    /   O peration     | Website:  https://openfoam.org
    \\  /    A nd           | Version:  6
     \\/     M anipulation  |
\*---------------------------------------------------------------------------*/
FoamFile
{
    version     2.0;
    format      ascii;
    class       surfaceScalarField;
    location    "8600";
    object      phi;
}
// * * * * * * * * * * * * * * * * * * * * * * * * * * * * * * * * * * * * * //

dimensions      [0 3 -1 0 0 0 0];

internalField   nonuniform List<scalar> 
9440
(
2.43793e-13
-2.43792e-13
4.84381e-13
-2.39622e-13
7.20529e-13
-2.35376e-13
9.48036e-13
-2.26767e-13
1.16496e-12
-2.1619e-13
1.36993e-12
-2.04238e-13
1.56177e-12
-1.91118e-13
1.73981e-12
-1.77314e-13
1.90364e-12
-1.63125e-13
2.05323e-12
-1.48893e-13
2.1886e-12
-1.34679e-13
2.30993e-12
-1.20644e-13
2.41772e-12
-1.07113e-13
2.51195e-12
-9.35783e-14
2.59293e-12
-8.03333e-14
2.66045e-12
-6.68892e-14
2.71418e-12
-5.31148e-14
2.75694e-12
-4.21671e-14
2.78837e-12
-3.08571e-14
2.80804e-12
-1.9102e-14
2.81397e-12
-5.39617e-15
2.81179e-12
2.69511e-15
2.79969e-12
1.25985e-14
2.77861e-12
2.15613e-14
2.74961e-12
2.9448e-14
2.71256e-12
3.74798e-14
2.66928e-12
4.36858e-14
2.62082e-12
4.88354e-14
2.56742e-12
5.37542e-14
2.51e-12
5.7744e-14
2.44952e-12
6.07763e-14
2.38673e-12
6.3058e-14
2.32222e-12
6.47472e-14
2.25677e-12
6.56676e-14
2.19086e-12
6.60952e-14
2.12475e-12
6.62662e-14
2.05891e-12
6.5968e-14
1.99346e-12
6.5545e-14
1.92877e-12
6.47577e-14
1.86496e-12
6.3843e-14
1.80203e-12
6.29378e-14
1.74011e-12
6.1901e-14
1.67923e-12
6.08245e-14
1.61948e-12
5.96672e-14
1.56059e-12
5.87783e-14
1.50274e-12
5.77115e-14
1.44553e-12
5.70417e-14
1.38948e-12
5.58467e-14
1.33426e-12
5.49903e-14
1.27997e-12
5.4037e-14
1.22658e-12
5.31113e-14
1.17389e-12
5.23784e-14
1.12197e-12
5.15796e-14
1.07091e-12
5.0697e-14
1.02059e-12
4.99317e-14
9.712e-13
4.89747e-14
9.22567e-13
4.81931e-14
8.74857e-13
4.72462e-14
8.2781e-13
4.65616e-14
7.8169e-13
4.56109e-14
7.36493e-13
4.46653e-14
6.92202e-13
4.3738e-14
6.48781e-13
4.2846e-14
6.06239e-13
4.19498e-14
5.64585e-13
4.10423e-14
5.23862e-13
4.00932e-14
4.84027e-13
3.91882e-14
4.45051e-13
3.83133e-14
4.06904e-13
3.74691e-14
3.69802e-13
3.64112e-14
3.33736e-13
3.53623e-14
2.98854e-13
3.41656e-14
2.6556e-13
3.2568e-14
2.34943e-13
2.98791e-14
2.10322e-13
2.3878e-14
2.02677e-13
6.89221e-15
2.49358e-13
-4.74359e-14
1.32364e-13
1.16231e-13
4.72749e-16
1.31127e-13
7.90809e-22
-3.38158e-21
8.03503e-22
-1.45274e-23
8.0128e-22
5.68686e-25
7.53096e-22
1.60266e-24
7.16649e-22
1.75776e-24
6.92143e-22
2.68834e-24
6.75703e-22
4.3427e-24
6.65053e-22
6.25555e-24
6.57712e-22
8.5303e-24
6.52646e-22
1.08567e-23
6.48096e-22
1.32349e-23
6.4365e-22
1.54579e-23
6.3848e-22
1.76293e-23
6.32276e-22
1.96972e-23
6.24625e-22
2.15067e-23
6.15371e-22
2.32645e-23
6.04307e-22
2.47637e-23
5.91382e-22
2.60562e-23
5.76648e-22
2.71936e-23
5.60053e-22
2.7969e-23
5.41958e-22
2.88479e-23
5.22054e-22
2.93649e-23
5.00858e-22
2.97785e-23
4.7811e-22
3.00887e-23
4.54226e-22
3.02438e-23
4.29152e-22
3.01921e-23
4.03147e-22
3.0037e-23
3.76367e-22
2.98302e-23
3.48967e-22
2.952e-23
3.20843e-22
2.91064e-23
2.92357e-22
2.86411e-23
2.63302e-22
2.81758e-23
2.3404e-22
2.77106e-23
2.04624e-22
2.7297e-23
1.75104e-22
2.68834e-23
1.45532e-22
2.65215e-23
1.15909e-22
2.60562e-23
8.62336e-23
2.56426e-23
5.68687e-23
2.50222e-23
2.77623e-23
2.44535e-23
2.29026e-23
2.47746e-13
-4.90573e-13
4.91664e-13
-4.81998e-13
7.28848e-13
-4.71218e-13
9.57791e-13
-4.54397e-13
1.17615e-12
-4.3325e-13
1.38213e-12
-4.08923e-13
1.57465e-12
-3.82357e-13
1.75305e-12
-3.54445e-13
1.91706e-12
-3.25889e-13
2.06654e-12
-2.97135e-13
2.20177e-12
-2.68693e-13
2.32305e-12
-2.40726e-13
2.43064e-12
-2.13533e-13
2.52465e-12
-1.86433e-13
2.60563e-12
-1.60195e-13
2.67243e-12
-1.326e-13
2.72612e-12
-1.05738e-13
2.76883e-12
-8.38433e-14
2.79994e-12
-6.09795e-14
2.81852e-12
-3.67138e-14
2.82457e-12
-1.05196e-14
2.82139e-12
6.75959e-15
2.80868e-12
2.61446e-14
2.78669e-12
4.4357e-14
2.75703e-12
5.9866e-14
2.71896e-12
7.62583e-14
2.67489e-12
8.8421e-14
2.62556e-12
9.87865e-14
2.57128e-12
1.08611e-13
2.51307e-12
1.16481e-13
2.45188e-12
1.22444e-13
2.38841e-12
1.26954e-13
2.32333e-12
1.30206e-13
2.25738e-12
1.31933e-13
2.19095e-12
1.32803e-13
2.12456e-12
1.32868e-13
2.05841e-12
1.32288e-13
1.99282e-12
1.31253e-13
1.92793e-12
1.29704e-13
1.86402e-12
1.27755e-13
1.80096e-12
1.25947e-13
1.73913e-12
1.23637e-13
1.67827e-12
1.21526e-13
1.61841e-12
1.19325e-13
1.5596e-12
1.17329e-13
1.50181e-12
1.15195e-13
1.44471e-12
1.13782e-13
1.38859e-12
1.11561e-13
1.33355e-12
1.09565e-13
1.27925e-12
1.07827e-13
1.22589e-12
1.05918e-13
1.17318e-12
1.04476e-13
1.12124e-12
1.02865e-13
1.07022e-12
1.01014e-13
1.0199e-12
9.95045e-14
9.70438e-13
9.76483e-14
9.21825e-13
9.59742e-14
8.74046e-13
9.41492e-14
8.27031e-13
9.26603e-14
7.80889e-13
9.07988e-14
7.35684e-13
8.88813e-14
6.9145e-13
8.69431e-14
6.48044e-13
8.51885e-14
6.05517e-13
8.3379e-14
5.63894e-13
8.15369e-14
5.232e-13
7.96273e-14
4.83255e-13
7.79491e-14
4.44236e-13
7.61177e-14
4.06162e-13
7.43036e-14
3.68981e-13
7.23317e-14
3.32715e-13
7.03483e-14
2.97477e-13
6.81036e-14
2.63304e-13
6.54223e-14
2.30139e-13
6.17151e-14
1.97136e-13
5.55386e-14
1.56949e-13
4.57288e-14
8.15018e-14
2.6651e-14
4.54248e-14
1.5094e-13
3.66133e-16
1.75109e-13
8.10657e-22
-5.79697e-21
8.18599e-22
-2.5229e-23
8.02365e-22
-1.6647e-23
7.53251e-22
-9.46088e-24
7.17579e-22
-2.37814e-24
6.93798e-22
4.91139e-24
6.77668e-22
1.18907e-23
6.67276e-22
1.88701e-23
6.60038e-22
2.53841e-23
6.54972e-22
3.1588e-23
6.50371e-22
3.7068e-23
6.45821e-22
4.21862e-23
6.40548e-22
4.65289e-23
6.34137e-22
5.0458e-23
6.26331e-22
5.38701e-23
6.1687e-22
5.6817e-23
6.05651e-22
5.91434e-23
5.92468e-22
6.09529e-23
5.77527e-22
6.24004e-23
5.6088e-22
6.32793e-23
5.42527e-22
6.39514e-23
5.2252e-22
6.41582e-23
5.01168e-22
6.40548e-23
4.78266e-22
6.35378e-23
4.54174e-22
6.29691e-23
4.29048e-22
6.21419e-23
4.0294e-22
6.1108e-23
3.76057e-22
5.98672e-23
3.48502e-22
5.86264e-23
3.20429e-22
5.72823e-23
2.91891e-22
5.58864e-23
2.62785e-22
5.43871e-23
2.33679e-22
5.3043e-23
2.04159e-22
5.15954e-23
1.7469e-22
5.04063e-23
1.45067e-22
4.93206e-23
1.15495e-22
4.8235e-23
8.56649e-23
4.74078e-23
5.61966e-23
4.66323e-23
2.6263e-23
4.58051e-23
4.52881e-23
2.52104e-13
-7.41903e-13
5.02479e-13
-7.31037e-13
7.45853e-13
-7.1343e-13
9.79575e-13
-6.8698e-13
1.20142e-12
-6.53967e-13
1.40988e-12
-6.16261e-13
1.60391e-12
-5.75272e-13
1.78302e-12
-5.32452e-13
1.94711e-12
-4.88885e-13
2.09644e-12
-4.4539e-13
2.2311e-12
-4.023e-13
2.35174e-12
-3.60325e-13
2.45861e-12
-3.19386e-13
2.55201e-12
-2.7884e-13
2.63239e-12
-2.39598e-13
2.6975e-12
-1.96757e-13
2.75103e-12
-1.58348e-13
2.79329e-12
-1.25203e-13
2.82358e-12
-9.03992e-14
2.83975e-12
-5.20574e-14
2.84582e-12
-1.57873e-14
2.84108e-12
1.22748e-14
2.82692e-12
4.10332e-14
2.80318e-12
6.87945e-14
2.77197e-12
9.17394e-14
2.73176e-12
1.17091e-13
2.68611e-12
1.34658e-13
2.63487e-12
1.50562e-13
2.57883e-12
1.65157e-13
2.51903e-12
1.76738e-13
2.45631e-12
1.85584e-13
2.39143e-12
1.92212e-13
2.32515e-12
1.96813e-13
2.2583e-12
1.99074e-13
2.19107e-12
2.00274e-13
2.12389e-12
2.00241e-13
2.0572e-12
1.99126e-13
1.9911e-12
1.97455e-13
1.92607e-12
1.94796e-13
1.86203e-12
1.91804e-13
1.7989e-12
1.89038e-13
1.73691e-12
1.85544e-13
1.6761e-12
1.82217e-13
1.61626e-12
1.78989e-13
1.55756e-12
1.75811e-13
1.49992e-12
1.72574e-13
1.44283e-12
1.70559e-13
1.38677e-12
1.67265e-13
1.33168e-12
1.6426e-13
1.27743e-12
1.61645e-13
1.22411e-12
1.58754e-13
1.17149e-12
1.56575e-13
1.11951e-12
1.54274e-13
1.06841e-12
1.51511e-13
1.01801e-12
1.49262e-13
9.68589e-13
1.4639e-13
9.19945e-13
1.43899e-13
8.72197e-13
1.41141e-13
8.25156e-13
1.38913e-13
7.79017e-13
1.36115e-13
7.33806e-13
1.33234e-13
6.8946e-13
1.30399e-13
6.46028e-13
1.27702e-13
6.03514e-13
1.24941e-13
5.61879e-13
1.22194e-13
5.21088e-13
1.19417e-13
4.81264e-13
1.16746e-13
4.42229e-13
1.14101e-13
4.04089e-13
1.11373e-13
3.66856e-13
1.08474e-13
3.30436e-13
1.05658e-13
2.94751e-13
1.02666e-13
2.59506e-13
9.9526e-14
2.24151e-13
9.59173e-14
1.86322e-13
9.22031e-14
1.41055e-13
8.98238e-14
7.25252e-14
9.40036e-14
4.13823e-14
1.80902e-13
3.4858e-16
2.15193e-13
8.23892e-22
-8.5962e-21
8.27181e-22
-3.76884e-23
8.09551e-22
-2.60045e-23
7.60334e-22
-1.44757e-23
7.24869e-22
-2.79173e-24
7.00829e-22
8.84049e-24
6.84647e-22
2.00074e-23
6.7379e-22
3.07608e-23
6.66242e-22
4.07903e-23
6.60504e-22
5.01478e-23
6.55437e-22
5.85747e-23
6.50216e-22
6.61228e-23
6.44477e-22
7.28436e-23
6.37498e-22
7.86856e-23
6.29278e-22
8.36486e-23
6.19248e-22
8.77329e-23
6.07461e-22
9.09899e-23
5.93864e-22
9.36265e-23
5.78458e-22
9.53843e-23
5.61552e-22
9.67284e-23
5.42682e-22
9.71937e-23
5.22365e-22
9.72971e-23
5.00703e-22
9.69869e-23
4.77697e-22
9.60564e-23
4.53347e-22
9.48156e-23
4.27963e-22
9.33163e-23
4.017e-22
9.1662e-23
3.74816e-22
8.97491e-23
3.47106e-22
8.75778e-23
3.19033e-22
8.5303e-23
2.90392e-22
8.30283e-23
2.61389e-22
8.08569e-23
2.32179e-22
7.85822e-23
2.02969e-22
7.64625e-23
1.73605e-22
7.45497e-23
1.44033e-22
7.26368e-23
1.14616e-22
7.10341e-23
8.49411e-23
6.969e-23
5.54211e-23
6.8656e-23
2.57977e-23
6.78805e-23
6.74669e-23
2.62299e-13
-1.00346e-12
5.21281e-13
-9.88711e-13
7.7253e-13
-9.63541e-13
1.01272e-12
-9.26054e-13
1.23942e-12
-8.79564e-13
1.45109e-12
-8.26832e-13
1.64696e-12
-7.70044e-13
1.82681e-12
-7.11225e-13
1.9909e-12
-6.51911e-13
2.13958e-12
-5.93013e-13
2.27357e-12
-5.35255e-13
2.39345e-12
-4.79187e-13
2.49906e-12
-4.24001e-13
2.59197e-12
-3.70772e-13
2.67141e-12
-3.18075e-13
2.73466e-12
-2.59078e-13
2.7881e-12
-2.10889e-13
2.82954e-12
-1.65772e-13
2.85925e-12
-1.19255e-13
2.8713e-12
-6.32825e-14
2.87779e-12
-2.14939e-14
2.87048e-12
2.03404e-14
2.85435e-12
5.78836e-14
2.82814e-12
9.56805e-14
2.79408e-12
1.26454e-13
2.75117e-12
1.60608e-13
2.70283e-12
1.8357e-13
2.64875e-12
2.05173e-13
2.59008e-12
2.24321e-13
2.5278e-12
2.39469e-13
2.46289e-12
2.50901e-13
2.39587e-12
2.59607e-13
2.32781e-12
2.65191e-13
2.25949e-12
2.67678e-13
2.19094e-12
2.69061e-13
2.1228e-12
2.68569e-13
2.05529e-12
2.66786e-13
1.98866e-12
2.64185e-13
1.92314e-12
2.60369e-13
1.85872e-12
2.56235e-13
1.79556e-12
2.52163e-13
1.7336e-12
2.47419e-13
1.67283e-12
2.42862e-13
1.61307e-12
2.38586e-13
1.55433e-12
2.34337e-13
1.49702e-12
2.29625e-13
1.4402e-12
2.27084e-13
1.38405e-12
2.23061e-13
1.32908e-12
2.18845e-13
1.27487e-12
2.15425e-13
1.2216e-12
2.11555e-13
1.16896e-12
2.08702e-13
1.11696e-12
2.05727e-13
1.06584e-12
2.02031e-13
1.0155e-12
1.9897e-13
9.66002e-13
1.95225e-13
9.17295e-13
1.91905e-13
8.69428e-13
1.88268e-13
8.224e-13
1.85168e-13
7.7625e-13
1.81455e-13
7.30992e-13
1.77652e-13
6.86644e-13
1.73875e-13
6.43247e-13
1.70198e-13
6.00753e-13
1.66504e-13
5.59175e-13
1.62817e-13
5.18375e-13
1.59236e-13
4.78446e-13
1.55668e-13
4.39415e-13
1.52106e-13
4.01312e-13
1.48428e-13
3.63983e-13
1.44735e-13
3.27377e-13
1.41178e-13
2.91479e-13
1.37464e-13
2.55998e-13
1.33888e-13
2.20166e-13
1.3062e-13
1.83075e-13
1.28158e-13
1.44505e-13
1.27248e-13
1.06032e-13
1.31325e-13
4.52332e-14
2.40541e-13
3.43225e-16
2.59156e-13
8.27201e-22
-1.1541e-20
8.38865e-22
-5.0458e-23
8.2108e-22
-3.43797e-23
7.72018e-22
-1.84048e-23
7.36449e-22
-2.37814e-24
7.11944e-22
1.34417e-23
6.954e-22
2.87445e-23
6.8382e-22
4.32719e-23
6.756e-22
5.6817e-23
6.68879e-22
6.92247e-23
6.62934e-22
8.05984e-23
6.56937e-22
9.07831e-23
6.50319e-22
9.96236e-23
6.42513e-22
1.07275e-22
6.3331e-22
1.13686e-22
6.22505e-22
1.18856e-22
6.09994e-22
1.23043e-22
5.95673e-22
1.26197e-22
5.79699e-22
1.28523e-22
5.62069e-22
1.29867e-22
5.42786e-22
1.30384e-22
5.22003e-22
1.30333e-22
4.99772e-22
1.29661e-22
4.76404e-22
1.28316e-22
4.51899e-22
1.26559e-22
4.26257e-22
1.24284e-22
3.99838e-22
1.21802e-22
3.72645e-22
1.19062e-22
3.44883e-22
1.16219e-22
3.16759e-22
1.13117e-22
2.88169e-22
1.10015e-22
2.59218e-22
1.06913e-22
2.3006e-22
1.03915e-22
2.01005e-22
1.01071e-22
1.71743e-22
9.82794e-23
1.42378e-22
9.58496e-23
1.13272e-22
9.36782e-23
8.38554e-23
9.17137e-23
5.46456e-23
9.03695e-23
2.53841e-23
8.93872e-23
8.88702e-23
2.76336e-13
-1.27907e-12
5.47887e-13
-1.25897e-12
8.10009e-13
-1.22454e-12
1.05909e-12
-1.17403e-12
1.29206e-12
-1.11143e-12
1.50769e-12
-1.04137e-12
1.7056e-12
-9.66878e-13
1.88601e-12
-8.90565e-13
2.04965e-12
-8.1449e-13
2.19741e-12
-7.39728e-13
2.33015e-12
-6.66977e-13
2.44864e-12
-5.9666e-13
2.55308e-12
-5.27451e-13
2.64522e-12
-4.61945e-13
2.72224e-12
-3.94154e-13
2.78491e-12
-3.20818e-13
2.83794e-12
-2.63023e-13
2.87852e-12
-2.0548e-13
2.90557e-12
-1.45463e-13
2.91548e-12
-7.23868e-14
2.92008e-12
-2.53129e-14
2.91026e-12
3.09058e-14
2.89101e-12
7.78459e-14
2.8618e-12
1.25569e-13
2.82346e-12
1.65426e-13
2.77715e-12
2.07527e-13
2.72506e-12
2.36226e-13
2.66717e-12
2.63588e-13
2.60478e-12
2.87201e-13
2.53933e-12
3.05371e-13
2.47121e-12
3.1942e-13
2.40141e-12
3.29766e-13
2.33101e-12
3.35916e-13
2.26064e-12
3.38326e-13
2.19037e-12
3.39562e-13
2.12098e-12
3.38149e-13
2.05235e-12
3.35561e-13
1.98507e-12
3.31569e-13
1.91913e-12
3.26363e-13
1.8544e-12
3.20978e-13
1.79107e-12
3.15462e-13
1.72911e-12
3.09299e-13
1.6684e-12
3.03453e-13
1.60875e-12
2.98065e-13
1.55024e-12
2.92631e-13
1.49298e-12
2.86637e-13
1.4368e-12
2.82962e-13
1.38054e-12
2.7898e-13
1.32557e-12
2.73432e-13
1.27148e-12
2.69094e-13
1.21822e-12
2.64344e-13
1.16562e-12
2.60795e-13
1.11371e-12
2.57093e-13
1.06262e-12
2.52537e-13
1.01212e-12
2.48843e-13
9.62588e-13
2.44097e-13
9.1381e-13
2.39986e-13
8.65896e-13
2.35451e-13
8.18744e-13
2.31554e-13
7.72649e-13
2.26752e-13
7.27329e-13
2.22139e-13
6.83027e-13
2.17317e-13
6.39568e-13
2.12764e-13
5.97016e-13
2.08139e-13
5.55457e-13
2.03431e-13
5.14658e-13
1.99064e-13
4.74756e-13
1.94577e-13
4.35808e-13
1.90035e-13
3.97649e-13
1.8555e-13
3.60227e-13
1.81101e-13
3.23662e-13
1.76669e-13
2.87793e-13
1.72244e-13
2.52611e-13
1.6797e-13
2.18085e-13
1.64032e-13
1.83503e-13
1.61616e-13
1.50182e-13
1.59438e-13
1.15942e-13
1.64423e-13
4.79711e-14
3.07369e-13
3.39026e-16
3.05875e-13
8.47053e-22
-1.44991e-20
8.54995e-22
-6.3331e-23
8.37055e-22
-4.24447e-23
7.88045e-22
-2.18169e-23
7.52269e-22
-1.18907e-24
7.27247e-22
1.89735e-23
7.0998e-22
3.84639e-23
6.97365e-22
5.6817e-23
6.88008e-22
7.40327e-23
6.80304e-22
8.9594e-23
6.73067e-22
1.03708e-22
6.65777e-22
1.16219e-22
6.57971e-22
1.27231e-22
6.48872e-22
1.36485e-22
6.38583e-22
1.44291e-22
6.26641e-22
1.50754e-22
6.13199e-22
1.55768e-22
5.97948e-22
1.59542e-22
5.81094e-22
1.62024e-22
5.62638e-22
1.63368e-22
5.42734e-22
1.63989e-22
5.21279e-22
1.63575e-22
4.9848e-22
1.62386e-22
4.74647e-22
1.60628e-22
4.49624e-22
1.58147e-22
4.23775e-22
1.55303e-22
3.9715e-22
1.51943e-22
3.6975e-22
1.48272e-22
3.41781e-22
1.44343e-22
3.13605e-22
1.40414e-22
2.85067e-22
1.36433e-22
2.56219e-22
1.32349e-22
2.27164e-22
1.28523e-22
1.98265e-22
1.24853e-22
1.69262e-22
1.21492e-22
1.40259e-22
1.1839e-22
1.11308e-22
1.1565e-22
8.25113e-23
1.13427e-22
5.36633e-23
1.11566e-22
2.48671e-23
1.10325e-22
1.09705e-22
2.95203e-13
-1.57354e-12
5.83932e-13
-1.54642e-12
8.60898e-13
-1.50039e-12
1.12122e-12
-1.43326e-12
1.36202e-12
-1.35115e-12
1.58215e-12
-1.26042e-12
1.78187e-12
-1.16553e-12
1.96208e-12
-1.06971e-12
2.12434e-12
-9.75703e-13
2.27036e-12
-8.84724e-13
2.40129e-12
-7.96886e-13
2.51725e-12
-7.11625e-13
2.6211e-12
-6.30325e-13
2.71172e-12
-5.51608e-13
2.78435e-12
-4.65851e-13
2.8489e-12
-3.84456e-13
2.90134e-12
-3.14575e-13
2.94082e-12
-2.44095e-13
2.96183e-12
-1.65645e-13
2.9739e-12
-8.36522e-14
2.97337e-12
-2.40177e-14
2.96091e-12
4.4101e-14
2.93731e-12
1.02152e-13
2.90452e-12
1.59026e-13
2.86025e-12
2.10331e-13
2.80979e-12
2.58582e-13
2.75272e-12
2.93861e-13
2.68998e-12
3.26843e-13
2.62288e-12
3.5478e-13
2.55306e-12
3.75635e-13
2.48103e-12
3.9185e-13
2.40772e-12
4.03432e-13
2.33439e-12
4.09568e-13
2.26145e-12
4.11542e-13
2.1892e-12
4.12044e-13
2.11812e-12
4.09411e-13
2.04826e-12
4.05562e-13
1.98015e-12
3.99786e-13
1.9137e-12
3.9287e-13
1.84859e-12
3.86102e-13
1.78519e-12
3.78822e-13
1.72325e-12
3.71163e-13
1.66285e-12
3.63739e-13
1.60332e-12
3.57421e-13
1.54535e-12
3.50395e-13
1.48777e-12
3.43966e-13
1.43247e-12
3.37969e-13
1.37623e-12
3.34886e-13
1.32118e-12
3.28107e-13
1.26729e-12
3.22559e-13
1.21393e-12
3.17244e-13
1.16151e-12
3.12716e-13
1.10954e-12
3.08516e-13
1.05842e-12
3.03086e-13
1.00788e-12
2.98761e-13
9.58282e-13
2.93045e-13
9.09467e-13
2.88112e-13
8.61448e-13
2.82745e-13
8.14269e-13
2.77975e-13
7.67987e-13
2.72243e-13
7.22676e-13
2.66625e-13
6.78389e-13
2.60752e-13
6.35006e-13
2.55266e-13
5.92507e-13
2.49728e-13
5.50963e-13
2.4404e-13
5.10183e-13
2.38883e-13
4.70326e-13
2.33451e-13
4.31357e-13
2.27998e-13
3.93176e-13
2.22704e-13
3.55778e-13
2.17455e-13
3.19208e-13
2.12179e-13
2.83504e-13
2.06872e-13
2.48897e-13
2.0149e-13
2.15546e-13
1.96283e-13
1.83288e-13
1.92763e-13
1.55439e-13
1.8617e-13
1.27621e-13
1.91116e-13
3.71493e-14
3.96712e-13
3.33067e-16
3.41792e-13
8.73523e-22
-1.72123e-20
8.75933e-22
-7.56353e-23
8.57683e-22
-4.99927e-23
8.08673e-22
-2.46603e-23
7.7238e-22
7.75482e-25
7.46737e-22
2.55909e-23
7.28281e-22
4.92173e-23
7.14581e-22
7.15511e-23
7.03621e-22
9.21789e-23
6.94418e-22
1.11101e-22
6.85629e-22
1.28058e-22
6.76737e-22
1.42999e-22
6.67225e-22
1.55975e-22
6.56678e-22
1.6709e-22
6.45046e-22
1.76241e-22
6.31656e-22
1.83531e-22
6.16922e-22
1.89218e-22
6.00481e-22
1.9325e-22
5.8249e-22
1.9599e-22
5.63207e-22
1.97541e-22
5.4232e-22
1.978e-22
5.2009e-22
1.97024e-22
4.96722e-22
1.9537e-22
4.72217e-22
1.92888e-22
4.46729e-22
1.89683e-22
4.20466e-22
1.85857e-22
3.93428e-22
1.8167e-22
3.65872e-22
1.77068e-22
3.37903e-22
1.7226e-22
3.09624e-22
1.67349e-22
2.80983e-22
1.62386e-22
2.52342e-22
1.57475e-22
2.23546e-22
1.52718e-22
1.94956e-22
1.48169e-22
1.66108e-22
1.44085e-22
1.3757e-22
1.40362e-22
1.09033e-22
1.37105e-22
8.06501e-23
1.34313e-22
5.24226e-23
1.32194e-22
2.4195e-23
1.30798e-22
1.30074e-22
3.20649e-13
-1.89347e-12
6.32458e-13
-1.85696e-12
9.28559e-13
-1.79539e-12
1.20299e-12
-1.70661e-12
1.45264e-12
-1.59972e-12
1.67704e-12
-1.48376e-12
1.87743e-12
-1.36487e-12
2.05616e-12
-1.24739e-12
2.2158e-12
-1.13432e-12
2.35866e-12
-1.02656e-12
2.48595e-12
-9.2318e-13
2.59976e-12
-8.24446e-13
2.70247e-12
-7.32072e-13
2.78946e-12
-6.37647e-13
2.86005e-12
-5.3552e-13
2.92596e-12
-4.49467e-13
2.97778e-12
-3.65522e-13
3.01619e-12
-2.81661e-13
3.02985e-12
-1.78479e-13
3.04581e-12
-9.88251e-14
3.03823e-12
-1.56771e-14
3.02314e-12
5.99202e-14
2.99369e-12
1.32288e-13
2.95637e-12
1.97009e-13
2.90441e-12
2.6292e-13
2.84906e-12
3.14515e-13
2.7857e-12
3.57767e-13
2.7168e-12
3.96255e-13
2.64398e-12
4.28081e-13
2.56864e-12
4.51412e-13
2.49179e-12
4.6909e-13
2.41429e-12
4.81289e-13
2.3375e-12
4.86669e-13
2.26149e-12
4.87819e-13
2.18679e-12
4.86974e-13
2.11381e-12
4.82577e-13
2.04264e-12
4.76873e-13
1.97353e-12
4.68997e-13
1.90647e-12
4.5998e-13
1.84117e-12
4.51417e-13
1.77786e-12
4.42094e-13
1.71609e-12
4.32865e-13
1.65589e-12
4.23821e-13
1.59665e-12
4.16495e-13
1.53923e-12
4.07606e-13
1.4816e-12
4.01351e-13
1.42692e-12
3.92359e-13
1.37137e-12
3.90107e-13
1.31619e-12
3.82914e-13
1.26248e-12
3.75844e-13
1.20907e-12
3.70204e-13
1.15673e-12
3.64563e-13
1.10475e-12
3.59959e-13
1.05349e-12
3.53776e-13
1.00283e-12
3.48817e-13
9.53029e-13
3.42198e-13
9.04165e-13
3.36297e-13
8.56037e-13
3.30159e-13
8.08861e-13
3.24401e-13
7.62414e-13
3.1791e-13
7.1711e-13
3.11119e-13
6.7274e-13
3.04283e-13
6.29341e-13
2.97797e-13
5.8697e-13
2.912e-13
5.45433e-13
2.84655e-13
5.04678e-13
2.7869e-13
4.64998e-13
2.72163e-13
4.26112e-13
2.65894e-13
3.87918e-13
2.5989e-13
3.50498e-13
2.53848e-13
3.13897e-13
2.47736e-13
2.78176e-13
2.41535e-13
2.43716e-13
2.34877e-13
2.11236e-13
2.27679e-13
1.82608e-13
2.20298e-13
1.56121e-13
2.11557e-13
8.63121e-14
2.59819e-13
2.05835e-14
4.61329e-13
3.26666e-16
3.61163e-13
8.93375e-22
-1.97402e-20
9.01575e-22
-8.75778e-23
8.83067e-22
-5.69204e-23
8.34057e-22
-2.64698e-23
7.97195e-22
3.82571e-24
7.70415e-22
3.3294e-23
7.50666e-22
6.15216e-23
7.35209e-22
8.78879e-23
7.22542e-22
1.1229e-22
7.11324e-22
1.34365e-22
7.00622e-22
1.54062e-22
6.89765e-22
1.7133e-22
6.7834e-22
1.86271e-22
6.6588e-22
1.98885e-22
6.52284e-22
2.09122e-22
6.37394e-22
2.1729e-22
6.20954e-22
2.23546e-22
6.03273e-22
2.28043e-22
5.8399e-22
2.30783e-22
5.63413e-22
2.32128e-22
5.41545e-22
2.32024e-22
5.18435e-22
2.3068e-22
4.9424e-22
2.2825e-22
4.69011e-22
2.24993e-22
4.42955e-22
2.21064e-22
4.16175e-22
2.16463e-22
3.88827e-22
2.11241e-22
3.61116e-22
2.05606e-22
3.32992e-22
1.99764e-22
3.04661e-22
1.93819e-22
2.7602e-22
1.87873e-22
2.47637e-22
1.8198e-22
2.19048e-22
1.76345e-22
1.9082e-22
1.7102e-22
1.62489e-22
1.66057e-22
1.34262e-22
1.6161e-22
1.06241e-22
1.57733e-22
7.85305e-23
1.54631e-22
5.0975e-23
1.5215e-22
2.34713e-23
1.50547e-22
1.49771e-22
3.54752e-13
-2.24752e-12
6.97542e-13
-2.19851e-12
1.01793e-12
-2.11469e-12
1.30914e-12
-1.99676e-12
1.56825e-12
-1.85778e-12
1.79592e-12
-1.71038e-12
1.99474e-12
-1.56265e-12
2.16937e-12
-1.42099e-12
2.32421e-12
-1.28814e-12
2.46151e-12
-1.16286e-12
2.58396e-12
-1.04464e-12
2.69611e-12
-9.35633e-13
2.79609e-12
-8.31098e-13
2.8767e-12
-7.17326e-13
2.95168e-12
-6.09595e-13
3.01639e-12
-5.13294e-13
3.06789e-12
-4.16166e-13
3.10047e-12
-3.13406e-13
3.11644e-12
-1.93648e-13
3.12812e-12
-1.09728e-13
3.11672e-12
-3.5295e-15
3.0965e-12
8.0858e-14
3.0614e-12
1.68066e-13
3.01635e-12
2.42714e-13
2.95764e-12
3.22242e-13
2.89482e-12
3.77917e-13
2.82395e-12
4.2917e-13
2.7473e-12
4.73415e-13
2.66759e-12
5.08253e-13
2.58584e-12
5.33588e-13
2.50286e-12
5.52468e-13
2.4205e-12
5.63996e-13
2.33958e-12
5.67896e-13
2.25998e-12
5.67682e-13
2.18271e-12
5.64469e-13
2.10738e-12
5.58089e-13
2.03493e-12
5.49464e-13
1.96502e-12
5.39004e-13
1.89733e-12
5.27729e-13
1.83193e-12
5.16825e-13
1.76875e-12
5.05237e-13
1.70744e-12
4.94103e-13
1.6474e-12
4.83747e-13
1.58896e-12
4.74776e-13
1.53182e-12
4.64544e-13
1.47534e-12
4.57585e-13
1.41961e-12
4.47806e-13
1.36602e-12
4.43365e-13
1.31062e-12
4.37952e-13
1.25684e-12
4.29213e-13
1.20344e-12
4.23153e-13
1.15115e-12
4.16369e-13
1.09921e-12
4.11381e-13
1.04766e-12
4.04761e-13
9.97062e-13
3.98817e-13
9.46914e-13
3.91712e-13
8.97951e-13
3.84591e-13
8.49567e-13
3.77841e-13
8.02475e-13
3.70759e-13
7.55912e-13
3.63706e-13
7.10532e-13
3.55702e-13
6.66265e-13
3.47722e-13
6.22928e-13
3.40282e-13
5.80509e-13
3.32737e-13
5.38967e-13
3.25293e-13
4.98477e-13
3.18248e-13
4.58845e-13
3.10844e-13
4.19974e-13
3.03793e-13
3.81908e-13
2.96964e-13
3.44405e-13
2.9034e-13
3.07614e-13
2.83503e-13
2.71602e-13
2.76507e-13
2.36425e-13
2.69002e-13
2.02912e-13
2.60129e-13
1.74218e-13
2.47919e-13
1.57963e-13
2.2673e-13
6.06197e-14
3.56076e-13
2.20472e-14
4.98813e-13
3.1971e-16
3.82022e-13
9.26462e-22
-2.20564e-20
9.32233e-22
-9.9727e-23
9.13466e-22
-6.31759e-23
8.64404e-22
-2.7297e-23
8.26664e-22
8.32351e-24
7.98591e-22
4.28583e-23
7.77033e-22
7.56353e-23
7.5961e-22
1.06241e-22
7.44618e-22
1.34262e-22
7.31021e-22
1.59542e-22
7.17838e-22
1.81928e-22
7.04706e-22
2.01522e-22
6.90903e-22
2.18169e-22
6.76117e-22
2.32128e-22
6.60452e-22
2.43553e-22
6.43598e-22
2.52394e-22
6.25452e-22
2.59011e-22
6.06013e-22
2.63612e-22
5.85385e-22
2.66197e-22
5.6331e-22
2.67076e-22
5.40149e-22
2.66507e-22
5.16006e-22
2.64594e-22
4.90932e-22
2.61544e-22
4.65082e-22
2.57408e-22
4.38354e-22
2.52342e-22
4.11005e-22
2.46707e-22
3.83191e-22
2.40503e-22
3.55274e-22
2.33885e-22
3.26995e-22
2.27061e-22
2.98664e-22
2.19978e-22
2.70126e-22
2.12947e-22
2.42002e-22
2.0602e-22
2.13723e-22
1.99351e-22
1.85909e-22
1.9325e-22
1.57992e-22
1.87408e-22
1.30436e-22
1.82342e-22
1.03139e-22
1.77896e-22
7.60489e-23
1.74432e-22
4.93723e-23
1.7164e-22
2.26958e-23
1.69831e-22
1.68952e-22
4.0025e-13
-2.64707e-12
7.85383e-13
-2.58242e-12
1.13786e-12
-2.4661e-12
1.44661e-12
-2.30447e-12
1.71495e-12
-2.12508e-12
1.94343e-12
-1.93783e-12
2.13648e-12
-1.75468e-12
2.30243e-12
-1.58592e-12
2.44907e-12
-1.43379e-12
2.57783e-12
-1.29064e-12
2.69573e-12
-1.16158e-12
2.80494e-12
-1.04389e-12
2.89752e-12
-9.22747e-13
2.97797e-12
-7.96869e-13
3.05631e-12
-6.87036e-13
3.1211e-12
-5.77217e-13
3.16966e-12
-4.63885e-13
3.19702e-12
-3.39949e-13
3.22345e-12
-2.19289e-13
3.22195e-12
-1.07462e-13
3.21002e-12
9.12797e-15
3.18195e-12
1.09629e-13
3.14105e-12
2.09634e-13
3.08558e-12
2.9882e-13
3.02002e-12
3.88407e-13
2.94716e-12
4.51338e-13
2.86686e-12
5.10006e-13
2.78128e-12
5.59489e-13
2.69317e-12
5.96818e-13
2.60356e-12
6.23619e-13
2.51361e-12
6.42801e-13
2.4258e-12
6.52146e-13
2.33987e-12
6.54128e-13
2.25644e-12
6.51374e-13
2.17609e-12
6.45034e-13
2.09854e-12
6.35819e-13
2.02468e-12
6.2346e-13
1.954e-12
6.0978e-13
1.88588e-12
5.95907e-13
1.82061e-12
5.82105e-13
1.75778e-12
5.68038e-13
1.69713e-12
5.54679e-13
1.63765e-12
5.43112e-13
1.58001e-12
5.32265e-13
1.52337e-12
5.20978e-13
1.46811e-12
5.12607e-13
1.41176e-12
5.03881e-13
1.35984e-12
4.94969e-13
1.3048e-12
4.92628e-13
1.25062e-12
4.82993e-13
1.19744e-12
4.75896e-13
1.14485e-12
4.68485e-13
1.09298e-12
4.62735e-13
1.04119e-12
4.55997e-13
9.90449e-13
4.4897e-13
9.39969e-13
4.4157e-13
8.90837e-13
4.33069e-13
8.42159e-13
4.2583e-13
7.95156e-13
4.17041e-13
7.48379e-13
4.09729e-13
7.02959e-13
4.00341e-13
6.58661e-13
3.91211e-13
6.15362e-13
3.82745e-13
5.73076e-13
3.74159e-13
5.31633e-13
3.65849e-13
4.91385e-13
3.57588e-13
4.51884e-13
3.49412e-13
4.13155e-13
3.41571e-13
3.75054e-13
3.34093e-13
3.37662e-13
3.26743e-13
3.00718e-13
3.19442e-13
2.64183e-13
3.12027e-13
2.2801e-13
3.04144e-13
1.9177e-13
2.9533e-13
1.55241e-13
2.83399e-13
1.13499e-13
2.67416e-13
4.21259e-14
4.26389e-13
2.3227e-14
5.16648e-13
3.11025e-16
4.04091e-13
9.66166e-22
-2.37306e-20
9.68835e-22
-1.10791e-22
9.49345e-22
-6.85009e-23
9.00024e-22
-2.66249e-23
8.61198e-22
1.46825e-23
8.3142e-22
5.44388e-23
8.07639e-22
9.21789e-23
7.87631e-22
1.27024e-22
7.69898e-22
1.58767e-22
7.53355e-22
1.87253e-22
7.37432e-22
2.12327e-22
7.21405e-22
2.33885e-22
7.04861e-22
2.5229e-22
6.87542e-22
2.67386e-22
6.69293e-22
2.79639e-22
6.50216e-22
2.89048e-22
6.30105e-22
2.95872e-22
6.08598e-22
3.00267e-22
5.86264e-22
3.02645e-22
5.62741e-22
3.03007e-22
5.38288e-22
3.01714e-22
5.12904e-22
2.98974e-22
4.86848e-22
2.94942e-22
4.60016e-22
2.89772e-22
4.32667e-22
2.83723e-22
4.04802e-22
2.76847e-22
3.76574e-22
2.69506e-22
3.48346e-22
2.61803e-22
3.19964e-22
2.53686e-22
2.91633e-22
2.45569e-22
2.63302e-22
2.37556e-22
2.35281e-22
2.29698e-22
2.07519e-22
2.22046e-22
1.80067e-22
2.14912e-22
1.52925e-22
2.08346e-22
1.26042e-22
2.02556e-22
9.95719e-23
1.97593e-22
7.33089e-23
1.93612e-22
4.75629e-23
1.90613e-22
2.18686e-23
1.88597e-22
1.8777e-22
4.63846e-13
-3.11023e-12
9.07263e-13
-3.02464e-12
1.2975e-12
-2.8553e-12
1.62758e-12
-2.63351e-12
1.89954e-12
-2.39603e-12
2.12286e-12
-2.16015e-12
2.30504e-12
-1.93586e-12
2.4547e-12
-1.73459e-12
2.58935e-12
-1.56747e-12
2.70646e-12
-1.40679e-12
2.82e-12
-1.27417e-12
2.92058e-12
-1.14353e-12
3.00718e-12
-1.00844e-12
3.09541e-12
-8.84204e-13
3.17292e-12
-7.63679e-13
3.23897e-12
-6.42417e-13
3.28177e-12
-5.05859e-13
3.31663e-12
-3.74008e-13
3.3403e-12
-2.42192e-13
3.33418e-12
-1.00597e-13
3.31679e-12
2.72341e-14
3.28189e-12
1.45216e-13
3.23265e-12
2.59525e-13
3.16616e-12
3.65934e-13
3.09054e-12
4.64614e-13
3.0062e-12
5.36226e-13
2.91435e-12
6.0237e-13
2.81829e-12
6.56036e-13
2.72022e-12
6.95333e-13
2.62089e-12
7.23359e-13
2.52322e-12
7.40838e-13
2.42912e-12
7.46575e-13
2.33747e-12
7.46075e-13
2.24986e-12
7.39233e-13
2.16593e-12
7.29181e-13
2.08652e-12
7.15403e-13
2.01123e-12
6.98892e-13
1.94003e-12
6.81076e-13
1.87176e-12
6.6423e-13
1.80699e-12
6.46887e-13
1.74484e-12
6.30152e-13
1.68466e-12
6.14789e-13
1.62654e-12
6.01129e-13
1.56984e-12
5.88813e-13
1.51407e-12
5.76547e-13
1.45966e-12
5.66788e-13
1.40469e-12
5.58576e-13
1.35194e-12
5.47401e-13
1.29864e-12
5.45577e-13
1.24407e-12
5.37176e-13
1.19113e-12
5.28413e-13
1.13787e-12
5.21281e-13
1.08625e-12
5.13846e-13
1.03423e-12
5.07478e-13
9.83079e-13
4.99551e-13
9.3211e-13
4.9193e-13
8.82692e-13
4.81846e-13
8.33937e-13
4.73913e-13
7.86596e-13
4.63677e-13
7.39871e-13
4.55719e-13
6.94137e-13
4.45309e-13
6.49895e-13
4.34661e-13
6.06728e-13
4.25094e-13
5.64714e-13
4.15327e-13
5.23448e-13
4.06248e-13
4.83334e-13
3.96814e-13
4.44076e-13
3.8776e-13
4.05545e-13
3.79173e-13
3.67639e-13
3.71051e-13
3.30323e-13
3.63096e-13
2.93254e-13
3.55533e-13
2.56311e-13
3.47975e-13
2.18739e-13
3.40712e-13
1.79071e-13
3.33984e-13
1.34736e-13
3.26712e-13
7.14188e-14
3.29704e-13
2.98635e-14
4.6691e-13
1.91845e-14
5.26288e-13
3.01972e-16
4.22146e-13
1.00587e-21
-2.48225e-20
1.01118e-21
-1.21596e-22
9.91169e-22
-7.23783e-23
9.41332e-22
-2.41433e-23
9.01007e-22
2.32128e-23
8.69108e-22
6.87594e-23
8.42484e-22
1.11463e-22
8.19374e-22
1.50754e-22
7.98436e-22
1.86322e-22
7.7848e-22
2.1791e-22
7.5899e-22
2.45414e-22
7.39706e-22
2.69092e-22
7.20061e-22
2.88841e-22
6.99795e-22
3.05023e-22
6.78702e-22
3.17741e-22
6.57092e-22
3.2746e-22
6.34448e-22
3.34129e-22
6.10925e-22
3.3811e-22
5.86626e-22
3.3992e-22
5.61501e-22
3.39609e-22
5.35548e-22
3.37438e-22
5.0882e-22
3.33767e-22
4.81678e-22
3.28598e-22
4.53915e-22
3.2229e-22
4.25791e-22
3.15052e-22
3.97512e-22
3.07143e-22
3.68923e-22
2.98509e-22
3.4023e-22
2.89513e-22
3.11847e-22
2.80363e-22
2.8362e-22
2.71005e-22
2.55392e-22
2.61803e-22
2.27681e-22
2.52859e-22
2.00436e-22
2.4438e-22
1.73501e-22
2.36315e-22
1.47083e-22
2.29026e-22
1.21079e-22
2.22563e-22
9.55394e-23
2.1698e-22
7.03104e-23
2.12534e-22
4.55466e-23
2.09277e-22
2.10414e-23
2.07209e-22
2.06382e-22
5.48666e-13
-3.65822e-12
1.06137e-12
-3.53618e-12
1.5073e-12
-3.30021e-12
1.86487e-12
-2.99009e-12
2.13703e-12
-2.6672e-12
2.34589e-12
-2.36803e-12
2.51076e-12
-2.09976e-12
2.63855e-12
-1.86141e-12
2.74362e-12
-1.6716e-12
2.84371e-12
-1.50594e-12
2.94635e-12
-1.37589e-12
3.04001e-12
-1.23629e-12
3.13257e-12
-1.10011e-12
3.2215e-12
-9.7227e-13
3.30191e-12
-8.43242e-13
3.36493e-12
-7.04612e-13
3.4158e-12
-5.55928e-13
3.45561e-12
-4.13039e-13
3.47104e-12
-2.56876e-13
3.46459e-12
-9.34166e-14
3.44048e-12
5.20345e-14
3.3976e-12
1.88766e-13
3.33786e-12
3.19894e-13
3.25754e-12
4.46856e-13
3.17004e-12
5.52691e-13
3.07199e-12
6.34814e-13