/*--------------------------------*- C++ -*----------------------------------*\
  =========                 |
  \\      /  F ield         | OpenFOAM: The Open Source CFD Toolbox
   \\    /   O peration     | Website:  https://openfoam.org
    \\  /    A nd           | Version:  6
     \\/     M anipulation  |
\*---------------------------------------------------------------------------*/
FoamFile
{
    version     2.0;
    format      ascii;
    class       volVectorField;
    location    "8600";
    object      U;
}
// * * * * * * * * * * * * * * * * * * * * * * * * * * * * * * * * * * * * * //

dimensions      [0 1 -1 0 0 0 0];

internalField   nonuniform List<vector> 
4800
(
(5.00424e-08 0 -4.73552e-08)
(1.45524e-07 0 -4.94478e-08)
(2.40435e-07 0 -4.9711e-08)
(3.33379e-07 0 -4.83361e-08)
(4.22247e-07 0 -4.62096e-08)
(5.06572e-07 0 -4.36391e-08)
(5.85914e-07 0 -4.07458e-08)
(6.59886e-07 0 -3.7669e-08)
(7.28268e-07 0 -3.4497e-08)
(7.90967e-07 0 -3.13197e-08)
(8.47975e-07 0 -2.8155e-08)
(8.99332e-07 0 -2.50556e-08)
(9.45136e-07 0 -2.20899e-08)
(9.8551e-07 0 -1.91909e-08)
(1.02055e-06 0 -1.63789e-08)
(1.0503e-06 0 -1.35915e-08)
(1.07471e-06 0 -1.07543e-08)
(1.09403e-06 0 -8.46489e-09)
(1.10877e-06 0 -6.16814e-09)
(1.119e-06 0 -3.79003e-09)
(1.12447e-06 0 -1.01844e-09)
(1.12529e-06 0 6.12987e-10)
(1.12226e-06 0 2.61564e-09)
(1.1159e-06 0 4.41154e-09)
(1.10587e-06 0 6.02247e-09)
(1.09263e-06 0 7.62227e-09)
(1.07652e-06 0 8.87808e-09)
(1.05819e-06 0 9.90253e-09)
(1.0378e-06 0 1.0885e-08)
(1.01561e-06 0 1.16805e-08)
(9.92025e-07 0 1.22781e-08)
(9.67366e-07 0 1.27297e-08)
(9.41902e-07 0 1.30545e-08)
(9.159e-07 0 1.32301e-08)
(8.89604e-07 0 1.3298e-08)
(8.6318e-07 0 1.33176e-08)
(8.36771e-07 0 1.32473e-08)
(8.10497e-07 0 1.3148e-08)
(7.84459e-07 0 1.29792e-08)
(7.58744e-07 0 1.27855e-08)
(7.33383e-07 0 1.2577e-08)
(7.08407e-07 0 1.23457e-08)
(6.83846e-07 0 1.21288e-08)
(6.59705e-07 0 1.18744e-08)
(6.35983e-07 0 1.16873e-08)
(6.1267e-07 0 1.1448e-08)
(5.89688e-07 0 1.1291e-08)
(5.67039e-07 0 1.10352e-08)
(5.44776e-07 0 1.08428e-08)
(5.22881e-07 0 1.06388e-08)
(5.0133e-07 0 1.04314e-08)
(4.80119e-07 0 1.02585e-08)
(4.59212e-07 0 1.00661e-08)
(4.38617e-07 0 9.86101e-09)
(4.18347e-07 0 9.67984e-09)
(3.98398e-07 0 9.45953e-09)
(3.78793e-07 0 9.26826e-09)
(3.59528e-07 0 9.04471e-09)
(3.40591e-07 0 8.85945e-09)
(3.21978e-07 0 8.63632e-09)
(3.03704e-07 0 8.40479e-09)
(2.85801e-07 0 8.17857e-09)
(2.68261e-07 0 7.96031e-09)
(2.51069e-07 0 7.73471e-09)
(2.34227e-07 0 7.50457e-09)
(2.17746e-07 0 7.26981e-09)
(2.0163e-07 0 7.03452e-09)
(1.85874e-07 0 6.80068e-09)
(1.70451e-07 0 6.58599e-09)
(1.55395e-07 0 6.33713e-09)
(1.40762e-07 0 6.08774e-09)
(1.26589e-07 0 5.83175e-09)
(1.12997e-07 0 5.53031e-09)
(1.00326e-07 0 5.07815e-09)
(8.95528e-08 0 4.44693e-09)
(8.2938e-08 0 3.0981e-09)
(8.35154e-08 0 -1.1476e-08)
(7.09428e-08 0 4.26579e-09)
(3.48458e-10 0 2.54932e-08)
(1.28219e-15 0 -6.79558e-16)
(1.62067e-16 0 -2.90547e-18)
(3.20956e-16 0 1.13737e-19)
(3.10875e-16 0 3.20532e-19)
(2.93949e-16 0 3.51552e-19)
(2.81758e-16 0 5.37667e-19)
(2.73569e-16 0 8.6854e-19)
(2.68151e-16 0 1.25111e-18)
(2.64553e-16 0 1.70606e-18)
(2.62072e-16 0 2.17135e-18)
(2.60148e-16 0 2.64698e-18)
(2.58349e-16 0 3.09159e-18)
(2.56426e-16 0 3.52586e-18)
(2.54151e-16 0 3.93945e-18)
(2.5138e-16 0 4.30134e-18)
(2.47999e-16 0 4.65289e-18)
(2.43936e-16 0 4.95274e-18)
(2.39138e-16 0 5.21124e-18)
(2.33606e-16 0 5.43871e-18)
(2.2734e-16 0 5.59381e-18)
(2.20402e-16 0 5.76959e-18)
(2.12803e-16 0 5.87298e-18)
(2.04582e-16 0 5.9557e-18)
(1.95794e-16 0 6.01774e-18)
(1.86467e-16 0 6.04876e-18)
(1.76675e-16 0 6.03842e-18)
(1.6646e-16 0 6.0074e-18)
(1.55903e-16 0 5.96604e-18)
(1.45067e-16 0 5.904e-18)
(1.33962e-16 0 5.82128e-18)
(1.2264e-16 0 5.72823e-18)
(1.11132e-16 0 5.63517e-18)
(9.94685e-17 0 5.54211e-18)
(8.77329e-17 0 5.45939e-18)
(7.59455e-17 0 5.37667e-18)
(6.41272e-17 0 5.3043e-18)
(5.22882e-17 0 5.21124e-18)
(4.04285e-17 0 5.12852e-18)
(2.86205e-17 0 5.00444e-18)
(1.69262e-17 0 4.89071e-18)
(5.55245e-18 0 4.58051e-18)
(4.85934e-08 0 -1.46606e-07)
(1.49412e-07 0 -1.41972e-07)
(2.43053e-07 0 -1.38286e-07)
(3.3689e-07 0 -1.33032e-07)
(4.26423e-07 0 -1.26769e-07)
(5.11213e-07 0 -1.19719e-07)
(5.90888e-07 0 -1.1206e-07)
(6.6507e-07 0 -1.04031e-07)
(7.33561e-07 0 -9.5806e-08)
(7.96279e-07 0 -8.75292e-08)
(8.53244e-07 0 -7.93118e-08)
(9.04553e-07 0 -7.11878e-08)
(9.50312e-07 0 -6.32895e-08)
(9.90624e-07 0 -5.53661e-08)
(1.02558e-06 0 -4.75908e-08)
(1.05524e-06 0 -3.96152e-08)
(1.07952e-06 0 -3.14257e-08)
(1.09874e-06 0 -2.49129e-08)
(1.11343e-06 0 -1.81905e-08)
(1.12345e-06 0 -1.11018e-08)
(1.12868e-06 0 -2.94965e-09)
(1.12926e-06 0 1.9295e-09)
(1.12601e-06 0 7.80799e-09)
(1.11933e-06 0 1.32065e-08)
(1.10896e-06 0 1.79448e-08)
(1.09539e-06 0 2.27521e-08)
(1.07893e-06 0 2.64849e-08)
(1.06027e-06 0 2.9572e-08)
(1.03953e-06 0 3.25234e-08)
(1.017e-06 0 3.49122e-08)
(9.93111e-07 0 3.67122e-08)
(9.68177e-07 0 3.80819e-08)
(9.42461e-07 0 3.9076e-08)
(9.16241e-07 0 3.96171e-08)
(8.89751e-07 0 3.98881e-08)
(8.63163e-07 0 3.99437e-08)
(8.36628e-07 0 3.9778e-08)
(8.10265e-07 0 3.94936e-08)
(7.84159e-07 0 3.90329e-08)
(7.58385e-07 0 3.84792e-08)
(7.32986e-07 0 3.79493e-08)
(7.07996e-07 0 3.72818e-08)
(6.8344e-07 0 3.66546e-08)
(6.59309e-07 0 3.59776e-08)
(6.35578e-07 0 3.54293e-08)
(6.12277e-07 0 3.48061e-08)
(5.89328e-07 0 3.43905e-08)
(5.66707e-07 0 3.37077e-08)
(5.44456e-07 0 3.31444e-08)
(5.22584e-07 0 3.26155e-08)
(5.01052e-07 0 3.20662e-08)
(4.79841e-07 0 3.16477e-08)
(4.5893e-07 0 3.11866e-08)
(4.38334e-07 0 3.06613e-08)
(4.18061e-07 0 3.0222e-08)
(3.98114e-07 0 2.96745e-08)
(3.78494e-07 0 2.92135e-08)
(3.59221e-07 0 2.86907e-08)
(3.40275e-07 0 2.82904e-08)
(3.21659e-07 0 2.77627e-08)
(3.03385e-07 0 2.72212e-08)
(2.8549e-07 0 2.66784e-08)
(2.67963e-07 0 2.61751e-08)
(2.50782e-07 0 2.5666e-08)
(2.33945e-07 0 2.51611e-08)
(2.17476e-07 0 2.4626e-08)
(2.01353e-07 0 2.41516e-08)
(1.85562e-07 0 2.36653e-08)
(1.70131e-07 0 2.3182e-08)
(1.55078e-07 0 2.26122e-08)
(1.40388e-07 0 2.2053e-08)
(1.26078e-07 0 2.1414e-08)
(1.12167e-07 0 2.06314e-08)
(9.86369e-08 0 1.9545e-08)
(8.51818e-08 0 1.73152e-08)
(7.2291e-08 0 1.18215e-08)
(4.56419e-08 0 -3.90356e-09)
(2.99737e-08 0 5.79914e-08)
(2.77434e-10 0 5.85177e-08)
(1.02766e-15 0 -1.83347e-15)
(1.65134e-16 0 -7.95127e-18)
(3.24193e-16 0 -3.21567e-18)
(3.11123e-16 0 -1.57164e-18)
(2.94166e-16 0 -1.24077e-19)
(2.82275e-16 0 1.51994e-18)
(2.74293e-16 0 3.24668e-18)
(2.68989e-16 0 5.02512e-18)
(2.65463e-16 0 6.78288e-18)
(2.63002e-16 0 8.48894e-18)
(2.61069e-16 0 1.00606e-17)
(2.59238e-16 0 1.15288e-17)
(2.57274e-16 0 1.28316e-17)
(2.54937e-16 0 1.40311e-17)
(2.52094e-16 0 1.50754e-17)
(2.4864e-16 0 1.60163e-17)
(2.44504e-16 0 1.67814e-17)
(2.39624e-16 0 1.74018e-17)
(2.33999e-16 0 1.79188e-17)
(2.27681e-16 0 1.82497e-17)
(2.20681e-16 0 1.85599e-17)
(2.13009e-16 0 1.87046e-17)
(2.04738e-16 0 1.87667e-17)
(1.95887e-16 0 1.87253e-17)
(1.86488e-16 0 1.86426e-17)
(1.76644e-16 0 1.84668e-17)
(1.66398e-16 0 1.8229e-17)
(1.55799e-16 0 1.79395e-17)
(1.44912e-16 0 1.76293e-17)
(1.33786e-16 0 1.72777e-17)
(1.22464e-16 0 1.69055e-17)
(1.10935e-16 0 1.65126e-17)
(9.92927e-17 0 1.61507e-17)
(8.75674e-17 0 1.57785e-17)
(7.57698e-17 0 1.54579e-17)
(6.39514e-17 0 1.51684e-17)
(5.21124e-17 0 1.48582e-17)
(4.0232e-17 0 1.46101e-17)
(2.83723e-17 0 1.43309e-17)
(1.64919e-17 0 1.40517e-17)
(5.2526e-18 0 1.36381e-17)
(4.87393e-08 0 -2.46498e-07)
(1.5295e-07 0 -2.43101e-07)
(2.48467e-07 0 -2.37546e-07)
(3.44569e-07 0 -2.28917e-07)
(4.35796e-07 0 -2.18074e-07)
(5.2177e-07 0 -2.05634e-07)
(6.02238e-07 0 -1.92071e-07)
(6.76865e-07 0 -1.77863e-07)
(7.45516e-07 0 -1.63375e-07)
(8.08213e-07 0 -1.48855e-07)
(8.65036e-07 0 -1.34471e-07)
(9.16114e-07 0 -1.20398e-07)
(9.61605e-07 0 -1.06741e-07)
(1.00166e-06 0 -9.31183e-08)
(1.03633e-06 0 -7.99931e-08)
(1.06566e-06 0 -6.59881e-08)
(1.08955e-06 0 -5.27115e-08)
(1.10851e-06 0 -4.17305e-08)
(1.123e-06 0 -3.01333e-08)
(1.13255e-06 0 -1.78565e-08)
(1.13718e-06 0 -5.0375e-09)
(1.1373e-06 0 3.8438e-09)
(1.13366e-06 0 1.34941e-08)
(1.12632e-06 0 2.26518e-08)
(1.11522e-06 0 3.04015e-08)
(1.10093e-06 0 3.86735e-08)
(1.08377e-06 0 4.4651e-08)
(1.06437e-06 0 4.98781e-08)
(1.0429e-06 0 5.47585e-08)
(1.01969e-06 0 5.86534e-08)
(9.95194e-07 0 6.16083e-08)
(9.69682e-07 0 6.38063e-08)
(9.43431e-07 0 6.53929e-08)
(9.16782e-07 0 6.61808e-08)
(8.89954e-07 0 6.65831e-08)
(8.63061e-07 0 6.65854e-08)
(8.36256e-07 0 6.62393e-08)
(8.09681e-07 0 6.5701e-08)
(7.83442e-07 0 6.48589e-08)
(7.57607e-07 0 6.38486e-08)
(7.3217e-07 0 6.29278e-08)
(7.07153e-07 0 6.17701e-08)
(6.82572e-07 0 6.06871e-08)
(6.58439e-07 0 5.9602e-08)
(6.34731e-07 0 5.85578e-08)
(6.11481e-07 0 5.74869e-08)
(5.88577e-07 0 5.67918e-08)
(5.65981e-07 0 5.57015e-08)
(5.43721e-07 0 5.47175e-08)
(5.21846e-07 0 5.38368e-08)
(5.00331e-07 0 5.28852e-08)
(4.79142e-07 0 5.21486e-08)
(4.58246e-07 0 5.13478e-08)
(4.37635e-07 0 5.04322e-08)
(4.17333e-07 0 4.96623e-08)
(3.9737e-07 0 4.87318e-08)
(3.77742e-07 0 4.7891e-08)
(3.58481e-07 0 4.69478e-08)
(3.39535e-07 0 4.619e-08)
(3.20916e-07 0 4.52523e-08)
(3.02635e-07 0 4.42874e-08)
(2.84726e-07 0 4.332e-08)
(2.67174e-07 0 4.24288e-08)
(2.49978e-07 0 4.15178e-08)
(2.33141e-07 0 4.05954e-08)
(2.16665e-07 0 3.96477e-08)
(2.00535e-07 0 3.87614e-08)
(1.84759e-07 0 3.78427e-08)
(1.69323e-07 0 3.69228e-08)
(1.54242e-07 0 3.59507e-08)
(1.39499e-07 0 3.4983e-08)
(1.25063e-07 0 3.39411e-08)
(1.10843e-07 0 3.27995e-08)
(9.67009e-08 0 3.13068e-08)
(8.20226e-08 0 2.92166e-08)
(6.68948e-08 0 2.66584e-08)
(4.08945e-08 0 2.35328e-08)
(2.48987e-08 0 6.94084e-08)
(2.642e-10 0 7.76002e-08)
(9.97759e-16 0 -2.87736e-15)
(1.66876e-16 0 -1.25835e-17)
(3.27346e-16 0 -8.5303e-18)
(3.13977e-16 0 -4.78731e-18)
(2.97041e-16 0 -1.03398e-18)
(2.8514e-16 0 2.75038e-18)
(2.77095e-16 0 6.37963e-18)
(2.71687e-16 0 9.92617e-18)
(2.68007e-16 0 1.32349e-17)
(2.65349e-16 0 1.63472e-17)
(2.63188e-16 0 1.91286e-17)
(2.61131e-16 0 2.16618e-17)
(2.58939e-16 0 2.38745e-17)
(2.56395e-16 0 2.58287e-17)
(2.53355e-16 0 2.75038e-17)
(2.49705e-16 0 2.891e-17)
(2.45342e-16 0 3.00267e-17)
(2.40265e-16 0 3.09159e-17)
(2.34464e-16 0 3.15569e-17)
(2.28002e-16 0 3.20016e-17)
(2.20847e-16 0 3.2229e-17)
(2.13009e-16 0 3.22911e-17)
(2.04613e-16 0 3.22083e-17)
(1.9568e-16 0 3.19188e-17)
(1.86209e-16 0 3.15569e-17)
(1.76262e-16 0 3.10917e-17)
(1.65932e-16 0 3.0554e-17)
(1.55303e-16 0 2.99233e-17)
(1.44384e-16 0 2.92408e-17)
(1.33228e-16 0 2.85171e-17)
(1.21885e-16 0 2.77829e-17)
(1.10356e-16 0 2.70488e-17)
(9.87137e-17 0 2.6325e-17)
(8.70297e-17 0 2.56116e-17)
(7.53148e-17 0 2.49912e-17)
(6.35275e-17 0 2.43915e-17)
(5.17298e-17 0 2.38538e-17)
(3.99115e-17 0 2.34196e-17)
(2.80724e-17 0 2.30577e-17)
(1.62438e-17 0 2.27371e-17)
(5.15954e-18 0 2.2551e-17)
(5.03067e-08 0 -3.48709e-07)
(1.59121e-07 0 -3.4371e-07)
(2.57449e-07 0 -3.35191e-07)
(3.56486e-07 0 -3.22435e-07)
(4.5002e-07 0 -3.06548e-07)
(5.37601e-07 0 -2.88465e-07)
(6.1908e-07 0 -2.68908e-07)
(6.94224e-07 0 -2.48578e-07)
(7.63022e-07 0 -2.27996e-07)
(8.25599e-07 0 -2.07508e-07)
(8.82155e-07 0 -1.87338e-07)
(9.32909e-07 0 -1.67697e-07)
(9.78047e-07 0 -1.48558e-07)
(1.01773e-06 0 -1.29658e-07)
(1.05201e-06 0 -1.11331e-07)
(1.08101e-06 0 -9.12658e-08)
(1.10444e-06 0 -7.35999e-08)
(1.1231e-06 0 -5.78678e-08)
(1.13727e-06 0 -4.169e-08)
(1.14622e-06 0 -2.34996e-08)
(1.1499e-06 0 -6.76671e-09)
(1.14937e-06 0 6.64345e-09)
(1.14516e-06 0 1.98851e-08)
(1.13683e-06 0 3.30029e-08)
(1.12462e-06 0 4.37029e-08)
(1.10922e-06 0 5.56659e-08)
(1.09102e-06 0 6.37211e-08)
(1.0705e-06 0 7.11819e-08)
(1.04792e-06 0 7.79778e-08)
(1.0237e-06 0 8.33193e-08)
(9.9827e-07 0 8.73558e-08)
(9.71893e-07 0 9.04023e-08)
(9.44857e-07 0 9.24465e-08)
(9.1755e-07 0 9.33958e-08)
(8.90165e-07 0 9.39009e-08)
(8.62815e-07 0 9.38017e-08)
(8.35657e-07 0 9.32095e-08)
(8.08806e-07 0 9.23545e-08)
(7.82362e-07 0 9.10672e-08)
(7.56378e-07 0 8.96264e-08)
(7.30836e-07 0 8.82823e-08)
(7.05801e-07 0 8.66323e-08)
(6.81257e-07 0 8.50405e-08)
(6.57158e-07 0 8.3528e-08)
(6.33458e-07 0 8.20356e-08)
(6.10245e-07 0 8.05205e-08)
(5.87437e-07 0 7.95709e-08)
(5.64929e-07 0 7.80619e-08)
(5.42675e-07 0 7.66502e-08)
(5.20804e-07 0 7.54431e-08)
(4.99328e-07 0 7.40664e-08)
(4.78134e-07 0 7.30896e-08)
(4.57227e-07 0 7.20304e-08)
(4.36616e-07 0 7.07348e-08)
(4.16299e-07 0 6.96772e-08)
(3.96352e-07 0 6.83377e-08)
(3.76707e-07 0 6.71662e-08)
(3.57406e-07 0 6.58903e-08)
(3.38419e-07 0 6.48382e-08)
(3.19809e-07 0 6.35212e-08)
(3.01529e-07 0 6.21827e-08)
(2.83603e-07 0 6.08582e-08)
(2.66047e-07 0 5.9571e-08)
(2.48868e-07 0 5.8266e-08)
(2.32052e-07 0 5.69677e-08)
(2.15579e-07 0 5.56877e-08)
(1.99432e-07 0 5.44459e-08)
(1.83634e-07 0 5.32077e-08)
(1.682e-07 0 5.19301e-08)
(1.53114e-07 0 5.05997e-08)
(1.38317e-07 0 4.93216e-08)
(1.23808e-07 0 4.79699e-08)
(1.0952e-07 0 4.65883e-08)
(9.52953e-08 0 4.51337e-08)
(8.07475e-08 0 4.36799e-08)
(6.68399e-08 0 4.24443e-08)
(4.75917e-08 0 4.40459e-08)
(2.5547e-08 0 8.46658e-08)
(2.58941e-10 0 9.41189e-08)
(9.95521e-16 0 -4.02717e-15)
(1.69218e-16 0 -1.76293e-17)
(3.31989e-16 0 -1.20768e-17)
(3.1862e-16 0 -6.57609e-18)
(3.01693e-16 0 -1.03398e-18)
(2.89679e-16 0 4.45644e-18)
(2.81469e-16 0 9.75039e-18)
(2.75844e-16 0 1.48065e-17)
(2.71884e-16 0 1.95215e-17)
(2.68896e-16 0 2.38745e-17)
(2.66363e-16 0 2.78346e-17)
(2.63974e-16 0 3.13812e-17)
(2.61451e-16 0 3.44934e-17)
(2.58566e-16 0 3.71921e-17)
(2.55165e-16 0 3.94669e-17)
(2.51163e-16 0 4.13177e-17)
(2.465e-16 0 4.28066e-17)
(2.41134e-16 0 4.39647e-17)
(2.35074e-16 0 4.47815e-17)
(2.28354e-16 0 4.53192e-17)
(2.20971e-16 0 4.55156e-17)
(2.12958e-16 0 4.5526e-17)
(2.04355e-16 0 4.53295e-17)
(1.95235e-16 0 4.48746e-17)
(1.85661e-16 0 4.42748e-17)
(1.75631e-16 0 4.352e-17)
(1.65219e-16 0 4.26929e-17)
(1.54497e-16 0 4.17623e-17)
(1.43506e-16 0 4.07593e-17)
(1.32328e-16 0 3.9684e-17)
(1.20986e-16 0 3.86087e-17)
(1.09477e-16 0 3.7554e-17)
(9.78555e-17 0 3.64993e-17)
(8.62129e-17 0 3.55067e-17)
(7.45497e-17 0 3.45658e-17)
(6.28244e-17 0 3.36973e-17)
(5.11301e-17 0 3.29425e-17)
(3.94255e-17 0 3.22807e-17)
(2.77002e-17 0 3.18051e-17)
(1.60059e-17 0 3.14535e-17)
(5.07682e-18 0 3.12674e-17)
(5.27166e-08 0 -4.55869e-07)
(1.67599e-07 0 -4.4887e-07)
(2.70145e-07 0 -4.36935e-07)
(3.73199e-07 0 -4.19369e-07)
(4.69816e-07 0 -3.97597e-07)
(5.59439e-07 0 -3.73093e-07)
(6.4212e-07 0 -3.46894e-07)
(7.17785e-07 0 -3.19922e-07)
(7.86606e-07 0 -2.92889e-07)
(8.48906e-07 0 -2.66187e-07)
(9.05029e-07 0 -2.4009e-07)
(9.55224e-07 0 -2.14937e-07)
(9.99926e-07 0 -1.90024e-07)
(1.03909e-06 0 -1.66176e-07)
(1.07278e-06 0 -1.42402e-07)
(1.10146e-06 0 -1.1544e-07)
(1.12437e-06 0 -9.44708e-08)
(1.14281e-06 0 -7.41219e-08)
(1.15636e-06 0 -5.29481e-08)
(1.16463e-06 0 -2.64979e-08)
(1.16707e-06 0 -9.52981e-09)
(1.16582e-06 0 1.04512e-08)
(1.16058e-06 0 2.7274e-08)
(1.15085e-06 0 4.44445e-08)
(1.13722e-06 0 5.84021e-08)
(1.12029e-06 0 7.37739e-08)
(1.10068e-06 0 8.40331e-08)
(1.07863e-06 0 9.38694e-08)
(1.05456e-06 0 1.02385e-07)
(1.02894e-06 0 1.09077e-07)
(1.00223e-06 0 1.14128e-07)
(9.74678e-07 0 1.17953e-07)
(9.46611e-07 0 1.20277e-07)
(9.18422e-07 0 1.21259e-07)
(8.90283e-07 0 1.21774e-07)
(8.62334e-07 0 1.21404e-07)
(8.34703e-07 0 1.20506e-07)
(8.07501e-07 0 1.1921e-07)
(7.80836e-07 0 1.17396e-07)
(7.54707e-07 0 1.15485e-07)
(7.29077e-07 0 1.13556e-07)
(7.04008e-07 0 1.11374e-07)
(6.79469e-07 0 1.09302e-07)
(6.55401e-07 0 1.07374e-07)
(6.3176e-07 0 1.05451e-07)
(6.08632e-07 0 1.03245e-07)
(5.85904e-07 0 1.02169e-07)
(5.63538e-07 0 1.00415e-07)
(5.41321e-07 0 9.84918e-08)
(5.19411e-07 0 9.69586e-08)
(4.97965e-07 0 9.52321e-08)
(4.76798e-07 0 9.39549e-08)
(4.55907e-07 0 9.26197e-08)
(4.35322e-07 0 9.09547e-08)
(4.14983e-07 0 8.96057e-08)
(3.95005e-07 0 8.79221e-08)
(3.75321e-07 0 8.64336e-08)
(3.56005e-07 0 8.47975e-08)
(3.36985e-07 0 8.33835e-08)
(3.1836e-07 0 8.16977e-08)
(3.00075e-07 0 7.99928e-08)
(2.8215e-07 0 7.82832e-08)
(2.6459e-07 0 7.66381e-08)
(2.47389e-07 0 7.49907e-08)
(2.30563e-07 0 7.33109e-08)
(2.14088e-07 0 7.17226e-08)
(1.97957e-07 0 7.0105e-08)
(1.82169e-07 0 6.84924e-08)
(1.66747e-07 0 6.68576e-08)
(1.51639e-07 0 6.52252e-08)
(1.36829e-07 0 6.3625e-08)
(1.22342e-07 0 6.19829e-08)
(1.08138e-07 0 6.03827e-08)
(9.42178e-08 0 5.8882e-08)
(8.03747e-08 0 5.78238e-08)
(6.77037e-08 0 5.74432e-08)
(5.10972e-08 0 6.03543e-08)
(2.62928e-08 0 1.08649e-07)
(2.55014e-10 0 1.1302e-07)
(1.00186e-15 0 -5.21181e-15)
(1.72478e-16 0 -2.27578e-17)
(3.3841e-16 0 -1.53649e-17)
(3.2502e-16 0 -8.04433e-18)
(3.08063e-16 0 -7.13443e-19)
(2.95903e-16 0 6.48303e-18)
(2.87445e-16 0 1.34417e-17)
(2.81469e-16 0 2.00178e-17)
(2.77075e-16 0 2.61699e-17)
(2.73662e-16 0 3.17637e-17)
(2.70674e-16 0 3.68612e-17)
(2.67769e-16 0 4.14004e-17)
(2.6475e-16 0 4.53709e-17)
(2.61368e-16 0 4.8752e-17)
(2.57491e-16 0 5.15954e-17)
(2.53045e-16 0 5.39218e-17)
(2.47968e-16 0 5.57623e-17)
(2.4223e-16 0 5.71478e-17)
(2.35809e-16 0 5.81094e-17)
(2.28746e-16 0 5.86471e-17)
(2.21074e-16 0 5.88746e-17)
(2.12803e-16 0 5.87815e-17)
(2.03952e-16 0 5.84093e-17)
(1.94625e-16 0 5.77889e-17)
(1.84854e-16 0 5.69411e-17)
(1.7468e-16 0 5.59174e-17)
(1.64185e-16 0 5.4749e-17)
(1.5338e-16 0 5.34669e-17)
(1.42306e-16 0 5.21124e-17)
(1.31077e-16 0 5.07062e-17)
(1.19734e-16 0 4.92896e-17)
(1.08257e-16 0 4.78524e-17)
(9.66767e-17 0 4.64876e-17)
(8.50859e-17 0 4.51847e-17)
(7.35053e-17 0 4.39543e-17)
(6.19041e-17 0 4.2848e-17)
(5.03133e-17 0 4.18657e-17)
(3.87638e-17 0 4.10282e-17)
(2.72349e-17 0 4.03871e-17)
(1.57061e-17 0 3.99425e-17)
(4.97342e-18 0 3.9715e-17)
(5.60518e-08 0 -5.69661e-07)
(1.78987e-07 0 -5.60209e-07)
(2.87384e-07 0 -5.44108e-07)
(3.9573e-07 0 -5.20628e-07)
(4.96241e-07 0 -4.91762e-07)
(5.88316e-07 0 -4.59675e-07)
(6.72243e-07 0 -4.25877e-07)
(7.48251e-07 0 -3.91508e-07)
(8.16764e-07 0 -3.57559e-07)
(8.78427e-07 0 -3.24443e-07)
(9.33774e-07 0 -2.92357e-07)
(9.83193e-07 0 -2.61523e-07)
(1.02731e-06 0 -2.30909e-07)
(1.06568e-06 0 -2.02438e-07)
(1.09872e-06 0 -1.7249e-07)
(1.12679e-06 0 -1.40188e-07)
(1.14945e-06 0 -1.15011e-07)
(1.16784e-06 0 -8.9472e-08)
(1.18038e-06 0 -6.25925e-08)
(1.18754e-06 0 -3.02377e-08)
(1.18906e-06 0 -9.82478e-09)
(1.18683e-06 0 1.52214e-08)
(1.18007e-06 0 3.60616e-08)
(1.16853e-06 0 5.7227e-08)
(1.15313e-06 0 7.52218e-08)
(1.13421e-06 0 9.34631e-08)
(1.11272e-06 0 1.06171e-07)
(1.08874e-06 0 1.18245e-07)
(1.06274e-06 0 1.28482e-07)
(1.03531e-06 0 1.36282e-07)
(1.00693e-06 0 1.42382e-07)
(9.77903e-07 0 1.46724e-07)
(9.48548e-07 0 1.49192e-07)
(9.19268e-07 0 1.50036e-07)
(8.90199e-07 0 1.50395e-07)
(8.61529e-07 0 1.49569e-07)
(8.33319e-07 0 1.48297e-07)
(8.05698e-07 0 1.46324e-07)
(7.7875e-07 0 1.43903e-07)
(7.52456e-07 0 1.41462e-07)
(7.26744e-07 0 1.38913e-07)
(7.01653e-07 0 1.36144e-07)
(6.77178e-07 0 1.33497e-07)
(6.53201e-07 0 1.3112e-07)
(6.29685e-07 0 1.28682e-07)
(6.06621e-07 0 1.26075e-07)
(5.83985e-07 0 1.24337e-07)
(5.61727e-07 0 1.22832e-07)
(5.39649e-07 0 1.20347e-07)
(5.17692e-07 0 1.18436e-07)
(4.96262e-07 0 1.1639e-07)
(4.75126e-07 0 1.14786e-07)
(4.54237e-07 0 1.13198e-07)
(4.3367e-07 0 1.11204e-07)
(4.13296e-07 0 1.09597e-07)
(3.93301e-07 0 1.07491e-07)
(3.73585e-07 0 1.05684e-07)
(3.54259e-07 0 1.03702e-07)
(3.35195e-07 0 1.01969e-07)
(3.16544e-07 0 9.9853e-08)
(2.98216e-07 0 9.78204e-08)
(2.80296e-07 0 9.56583e-08)
(2.62737e-07 0 9.36656e-08)
(2.4558e-07 0 9.16106e-08)
(2.28773e-07 0 8.95458e-08)
(2.12296e-07 0 8.76125e-08)
(1.96168e-07 0 8.56647e-08)
(1.804e-07 0 8.36677e-08)
(1.64972e-07 0 8.17038e-08)
(1.49851e-07 0 7.97672e-08)
(1.35056e-07 0 7.7822e-08)
(1.20603e-07 0 7.58659e-08)
(1.06545e-07 0 7.39152e-08)
(9.30022e-08 0 7.20621e-08)
(7.96515e-08 0 7.08303e-08)
(6.84098e-08 0 6.94391e-08)
(5.50767e-08 0 7.25426e-08)
(2.76422e-08 0 1.35825e-07)
(2.5042e-10 0 1.30461e-07)
(9.93968e-16 0 -6.3514e-15)
(1.76715e-16 0 -2.77933e-17)
(3.46723e-16 0 -1.84875e-17)
(3.33271e-16 0 -9.29544e-18)
(3.1621e-16 0 -8.27181e-20)
(3.03823e-16 0 8.91287e-18)
(2.95004e-16 0 1.75362e-17)
(2.88572e-16 0 2.56736e-17)
(2.8364e-16 0 3.32423e-17)
(2.79608e-16 0 4.01389e-17)
(2.7601e-16 0 4.63531e-17)
(2.72473e-16 0 5.18435e-17)
(2.68792e-16 0 5.66412e-17)
(2.64781e-16 0 6.07151e-17)
(2.60345e-16 0 6.41065e-17)
(2.5534e-16 0 6.68569e-17)
(2.49716e-16 0 6.89972e-17)
(2.43481e-16 0 7.05585e-17)
(2.36594e-16 0 7.16028e-17)
(2.29139e-16 0 7.21819e-17)
(2.21105e-16 0 7.23576e-17)
(2.12482e-16 0 7.21198e-17)
(2.03362e-16 0 7.15511e-17)
(1.93788e-16 0 7.07033e-17)
(1.83789e-16 0 6.95659e-17)
(1.73439e-16 0 6.82321e-17)
(1.62779e-16 0 6.67225e-17)
(1.5186e-16 0 6.50681e-17)
(1.40755e-16 0 6.33207e-17)
(1.29505e-16 0 6.15526e-17)
(1.18121e-16 0 5.97638e-17)
(1.06665e-16 0 5.79647e-17)
(9.51775e-17 0 5.62483e-17)
(8.37003e-17 0 5.46043e-17)
(7.22129e-17 0 5.31153e-17)
(6.07357e-17 0 5.17505e-17)
(4.93206e-17 0 5.05511e-17)
(3.79366e-17 0 4.95481e-17)
(2.66145e-17 0 4.8752e-17)
(1.53235e-17 0 4.82246e-17)
(4.83901e-18 0 4.79558e-17)
(6.05524e-08 0 -6.92231e-07)
(1.94338e-07 0 -6.79487e-07)
(3.10413e-07 0 -6.57995e-07)
(4.25528e-07 0 -6.26885e-07)
(5.30725e-07 0 -5.89198e-07)
(6.25416e-07 0 -5.47972e-07)
(7.10318e-07 0 -5.05338e-07)
(7.86177e-07 0 -4.6277e-07)
(8.53878e-07 0 -4.21396e-07)
(9.14337e-07 0 -3.81681e-07)
(9.6825e-07 0 -3.43878e-07)
(1.01689e-06 0 -3.06564e-07)
(1.05981e-06 0 -2.72003e-07)
(1.09723e-06 0 -2.37962e-07)
(1.13006e-06 0 -1.99686e-07)
(1.15712e-06 0 -1.66272e-07)
(1.17997e-06 0 -1.35607e-07)
(1.19792e-06 0 -1.04811e-07)
(1.20968e-06 0 -6.96561e-08)
(1.21535e-06 0 -3.45125e-08)
(1.21597e-06 0 -8.08614e-09)
(1.2126e-06 0 2.12696e-08)
(1.20386e-06 0 4.694e-08)
(1.19005e-06 0 7.16228e-08)
(1.17237e-06 0 9.44559e-08)
(1.15094e-06 0 1.15086e-07)
(1.12711e-06 0 1.3052e-07)
(1.10075e-06 0 1.44764e-07)
(1.07232e-06 0 1.56783e-07)
(1.04266e-06 0 1.65542e-07)
(1.01222e-06 0 1.72318e-07)
(9.8136e-07 0 1.77063e-07)
(9.50477e-07 0 1.7935e-07)
(9.19902e-07 0 1.79951e-07)
(8.89735e-07 0 1.79902e-07)
(8.60187e-07 0 1.78477e-07)
(8.31318e-07 0 1.76559e-07)
(8.03247e-07 0 1.73829e-07)
(7.75994e-07 0 1.70632e-07)
(7.49512e-07 0 1.67569e-07)
(7.23781e-07 0 1.64249e-07)
(6.98743e-07 0 1.60851e-07)
(6.74364e-07 0 1.57569e-07)
(6.50461e-07 0 1.54849e-07)
(6.27137e-07 0 1.5167e-07)
(6.04129e-07 0 1.4912e-07)
(5.81707e-07 0 1.46144e-07)
(5.59519e-07 0 1.45103e-07)
(5.37706e-07 0 1.42227e-07)
(5.15797e-07 0 1.3979e-07)
(4.94312e-07 0 1.37548e-07)
(4.73202e-07 0 1.35548e-07)
(4.52312e-07 0 1.33774e-07)
(4.31754e-07 0 1.31444e-07)
(4.11295e-07 0 1.29597e-07)
(3.91249e-07 0 1.27126e-07)
(3.71477e-07 0 1.24969e-07)
(3.52119e-07 0 1.22647e-07)
(3.33029e-07 0 1.20556e-07)
(3.14354e-07 0 1.18071e-07)
(2.9599e-07 0 1.15625e-07)
(2.78051e-07 0 1.1309e-07)
(2.60496e-07 0 1.10674e-07)
(2.43323e-07 0 1.08268e-07)
(2.26569e-07 0 1.0578e-07)
(2.10084e-07 0 1.03605e-07)
(1.94019e-07 0 1.01193e-07)
(1.7828e-07 0 9.88336e-08)
(1.62863e-07 0 9.65783e-08)
(1.47747e-07 0 9.43309e-08)
(1.32941e-07 0 9.20619e-08)
(1.18475e-07 0 8.97729e-08)
(1.04441e-07 0 8.73818e-08)
(9.11638e-08 0 8.48844e-08)
(7.82252e-08 0 8.27625e-08)
(6.81507e-08 0 7.87266e-08)
(4.81781e-08 0 9.41037e-08)
(2.36756e-08 0 1.75358e-07)
(2.45818e-10 0 1.41413e-07)
(9.78537e-16 0 -7.40707e-15)
(1.81889e-16 0 -3.26426e-17)
(3.56928e-16 0 -2.13826e-17)
(3.43425e-16 0 -1.0226e-17)
(3.2625e-16 0 9.20238e-19)
(3.13522e-16 0 1.1777e-17)
(3.04216e-16 0 2.21478e-17)
(2.97175e-16 0 3.18878e-17)
(2.9155e-16 0 4.08937e-17)
(2.86773e-16 0 4.90932e-17)
(2.82389e-16 0 5.64241e-17)
(2.78077e-16 0 6.28657e-17)
(2.73621e-16 0 6.84492e-17)
(2.68844e-16 0 7.31952e-17)
(2.63633e-16 0 7.70726e-17)
(2.57936e-16 0 8.01641e-17)
(2.5167e-16 0 8.25526e-17)
(2.44845e-16 0 8.42587e-17)
(2.37453e-16 0 8.53547e-17)
(2.29481e-16 0 8.59337e-17)
(2.20992e-16 0 8.59648e-17)
(2.11996e-16 0 8.55408e-17)
(2.02535e-16 0 8.4724e-17)
(1.9265e-16 0 8.35763e-17)
(1.82393e-16 0 8.21494e-17)
(1.71826e-16 0 8.0464e-17)
(1.61e-16 0 7.85822e-17)
(1.49989e-16 0 7.65349e-17)
(1.38822e-16 0 7.44049e-17)
(1.27531e-16 0 7.22336e-17)
(1.16136e-16 0 7.00519e-17)
(1.04731e-16 0 6.78909e-17)
(9.3337e-17 0 6.58126e-17)
(8.19736e-17 0 6.38377e-17)
(7.06619e-17 0 6.20282e-17)
(5.93502e-17 0 6.03945e-17)
(4.81006e-17 0 5.89676e-17)
(3.69543e-17 0 5.77889e-17)
(2.59011e-17 0 5.68687e-17)
(1.48893e-17 0 5.6269e-17)
(4.69425e-18 0 5.59691e-17)
(6.65449e-08 0 -8.26556e-07)
(2.14911e-07 0 -8.09411e-07)
(3.41091e-07 0 -7.80558e-07)
(4.64475e-07 0 -7.39268e-07)
(5.75121e-07 0 -6.90231e-07)
(6.72307e-07 0 -6.37733e-07)
(7.57571e-07 0 -5.84537e-07)
(8.32287e-07 0 -5.32841e-07)
(8.98197e-07 0 -4.83717e-07)
(9.56355e-07 0 -4.37613e-07)
(1.0087e-06 0 -3.93143e-07)
(1.0558e-06 0 -3.51095e-07)
(1.09729e-06 0 -3.11941e-07)
(1.13372e-06 0 -2.71795e-07)
(1.16629e-06 0 -2.27293e-07)
(1.19299e-06 0 -1.92242e-07)
(1.21609e-06 0 -1.55609e-07)
(1.23277e-06 0 -1.19908e-07)
(1.24464e-06 0 -7.17586e-08)
(1.2483e-06 0 -4.30444e-08)
(1.24864e-06 0 -3.21406e-09)
(1.2431e-06 0 2.83513e-08)
(1.23189e-06 0 6.06899e-08)
(1.21565e-06 0 8.78103e-08)
(1.19508e-06 0 1.17841e-07)
(1.1708e-06 0 1.38488e-07)
(1.14387e-06 0 1.576e-07)
(1.11453e-06 0 1.741e-07)
(1.08316e-06 0 1.87511e-07)
(1.05081e-06 0 1.9721e-07)
(1.01791e-06 0 2.04383e-07)
(9.84804e-07 0 2.09227e-07)
(9.52114e-07 0 2.11078e-07)
(9.20029e-07 0 2.11202e-07)
(8.88607e-07 0 2.10417e-07)
(8.58089e-07 0 2.08185e-07)
(8.28494e-07 0 2.05398e-07)
(7.99975e-07 0 2.01695e-07)
(7.72469e-07 0 1.97586e-07)
(7.4583e-07 0 1.93737e-07)
(7.20105e-07 0 1.89542e-07)
(6.95172e-07 0 1.85504e-07)
(6.70955e-07 0 1.81513e-07)
(6.47188e-07 0 1.78379e-07)
(6.24142e-07 0 1.74468e-07)
(6.01302e-07 0 1.72001e-07)
(5.79143e-07 0 1.67759e-07)
(5.5688e-07 0 1.67237e-07)
(5.35439e-07 0 1.64159e-07)
(5.13721e-07 0 1.61021e-07)
(4.92033e-07 0 1.58807e-07)
(4.70953e-07 0 1.563e-07)
(4.50059e-07 0 1.54391e-07)
(4.29511e-07 0 1.51784e-07)
(4.08975e-07 0 1.49672e-07)
(3.88884e-07 0 1.46842e-07)
(3.69028e-07 0 1.44285e-07)
(3.49587e-07 0 1.41654e-07)
(3.3046e-07 0 1.39172e-07)
(3.11757e-07 0 1.36404e-07)
(2.93416e-07 0 1.33405e-07)
(2.75429e-07 0 1.30488e-07)
(2.57892e-07 0 1.27696e-07)
(2.40784e-07 0 1.24831e-07)
(2.23988e-07 0 1.22079e-07)
(2.07547e-07 0 1.19462e-07)
(1.91534e-07 0 1.16672e-07)
(1.75827e-07 0 1.14012e-07)
(1.60436e-07 0 1.11455e-07)
(1.45316e-07 0 1.08926e-07)
(1.3046e-07 0 1.06355e-07)
(1.15888e-07 0 1.03744e-07)
(1.01667e-07 0 1.0097e-07)
(8.80258e-08 0 9.78917e-08)
(7.5857e-08 0 9.40529e-08)
(6.48537e-08 0 8.79315e-08)
(4.29314e-08 0 1.1788e-07)
(1.89747e-08 0 1.96736e-07)
(2.40691e-10 0 1.48027e-07)
(9.73418e-16 0 -8.38699e-15)
(1.88103e-16 0 -3.74609e-17)
(3.6914e-16 0 -2.40193e-17)
(3.55574e-16 0 -1.07533e-17)
(3.38214e-16 0 2.42984e-18)
(3.25051e-16 0 1.52305e-17)
(3.15125e-16 0 2.74314e-17)
(3.07329e-16 0 3.88258e-17)
(3.00846e-16 0 4.93103e-17)
(2.95128e-16 0 5.87815e-17)
(2.89772e-16 0 6.71981e-17)
(2.84509e-16 0 7.45703e-17)
(2.79122e-16 0 8.08879e-17)
(2.73404e-16 0 8.62026e-17)
(2.67314e-16 0 9.05349e-17)
(2.6081e-16 0 9.39367e-17)
(2.5381e-16 0 9.65113e-17)
(2.46293e-16 0 9.83311e-17)
(2.3828e-16 0 9.93961e-17)
(2.29739e-16 0 9.98407e-17)
(2.20692e-16 0 9.97063e-17)
(2.11231e-16 0 9.90549e-17)
(2.01387e-16 0 9.79589e-17)
(1.91203e-16 0 9.64803e-17)
(1.80687e-16 0 9.46812e-17)
(1.69872e-16 0 9.26339e-17)
(1.58839e-16 0 9.03488e-17)
(1.47693e-16 0 8.78983e-17)
(1.36454e-16 0 8.5365e-17)
(1.25132e-16 0 8.27594e-17)
(1.13758e-16 0 8.01641e-17)
(1.02426e-16 0 7.75999e-17)
(9.1145e-17 0 7.5139e-17)
(7.99263e-17 0 7.28539e-17)
(6.87801e-17 0 7.06929e-17)
(5.76855e-17 0 6.87904e-17)
(4.6715e-17 0 6.71257e-17)
(3.58376e-17 0 6.58126e-17)
(2.50843e-17 0 6.47579e-17)
(1.44136e-17 0 6.40755e-17)
(4.53915e-18 0 6.37446e-17)
(7.46393e-08 0 -9.76759e-07)
(2.4217e-07 0 -9.54301e-07)
(3.82959e-07 0 -9.13585e-07)
(5.15471e-07 0 -8.58704e-07)
(6.32016e-07 0 -7.94999e-07)
(7.31202e-07 0 -7.28112e-07)
(8.15514e-07 0 -6.62406e-07)
(8.87289e-07 0 -6.00355e-07)
(9.49476e-07 0 -5.43732e-07)
(1.00473e-06 0 -4.9034e-07)
(1.05477e-06 0 -4.40108e-07)
(1.09948e-06 0 -3.94619e-07)
(1.13862e-06 0 -3.52144e-07)
(1.1758e-06 0 -3.01384e-07)
(1.20674e-06 0 -2.58767e-07)
(1.23453e-06 0 -2.17095e-07)
(1.25696e-06 0 -1.76731e-07)
(1.27359e-06 0 -1.30367e-07)
(1.28454e-06 0 -8.00369e-08)
(1.28804e-06 0 -4.41759e-08)
(1.2868e-06 0 2.26173e-09)
(1.27883e-06 0 3.81649e-08)
(1.26469e-06 0 7.6082e-08)
(1.24554e-06 0 1.08637e-07)
(1.22144e-06 0 1.42515e-07)
(1.19372e-06 0 1.66085e-07)
(1.16299e-06 0 1.88122e-07)
(1.12989e-06 0 2.06958e-07)
(1.09509e-06 0 2.21245e-07)
(1.0595e-06 0 2.31673e-07)
(1.02363e-06 0 2.3927e-07)
(9.88007e-07 0 2.43435e-07)
(9.53234e-07 0 2.4449e-07)
(9.19383e-07 0 2.43981e-07)
(8.86589e-07 0 2.41996e-07)
(8.54982e-07 0 2.3892e-07)
(8.24675e-07 0 2.34695e-07)
(7.95718e-07 0 2.29861e-07)
(7.67986e-07 0 2.24818e-07)
(7.41262e-07 0 2.1988e-07)
(7.1562e-07 0 2.14734e-07)
(6.90926e-07 0 2.09834e-07)
(6.66923e-07 0 2.05478e-07)
(6.4346e-07 0 2.01456e-07)
(6.20638e-07 0 1.97168e-07)
(5.98166e-07 0 1.94152e-07)
(5.7606e-07 0 1.90454e-07)
(5.54237e-07 0 1.87745e-07)
(5.32718e-07 0 1.8633e-07)
(5.11464e-07 0 1.82436e-07)
(4.89629e-07 0 1.79957e-07)
(4.68476e-07 0 1.77081e-07)
(4.47567e-07 0 1.74962e-07)
(4.26946e-07 0 1.7229e-07)
(4.06394e-07 0 1.69676e-07)
(3.86153e-07 0 1.66785e-07)
(3.66268e-07 0 1.63633e-07)
(3.46628e-07 0 1.60878e-07)
(3.27567e-07 0 1.57648e-07)
(3.08753e-07 0 1.5475e-07)
(2.90393e-07 0 1.51356e-07)
(2.72432e-07 0 1.4783e-07)
(2.54854e-07 0 1.44683e-07)
(2.37766e-07 0 1.41504e-07)
(2.21056e-07 0 1.38285e-07)
(2.04649e-07 0 1.35272e-07)
(1.88722e-07 0 1.32136e-07)
(1.73076e-07 0 1.29164e-07)
(1.57703e-07 0 1.26308e-07)
(1.42589e-07 0 1.23521e-07)
(1.27715e-07 0 1.20701e-07)
(1.12999e-07 0 1.17844e-07)
(9.8419e-08 0 1.1483e-07)
(8.3916e-08 0 1.11446e-07)
(7.00045e-08 0 1.07174e-07)
(5.26577e-08 0 1.00425e-07)
(3.8386e-08 0 1.49765e-07)
(9.16987e-09 0 2.01915e-07)
(2.34743e-10 0 1.55279e-07)
(9.50522e-16 0 -9.19777e-15)
(1.95539e-16 0 -4.21035e-17)
(3.83636e-16 0 -2.63354e-17)
(3.69874e-16 0 -1.07844e-17)
(3.52245e-16 0 4.60119e-18)
(3.38524e-16 0 1.94594e-17)
(3.27812e-16 0 3.35629e-17)
(3.19054e-16 0 4.6653e-17)