0 	-1.15846e-12 	0 	4.58613e-13
0.010101 	-1.53797e-10 	0 	6.83416e-12
0.020202 	9.24197e-13 	0 	-8.75832e-11
0.030303 	2.5457e-10 	0 	6.95829e-12
0.040404 	1.43786e-11 	0 	8.27355e-13
