0.010101 	-2.67509e-10 	9.87228e-16 	-2.07678e-12
0.020202 	-1.31172e-11 	3.66294e-15 	-2.5026e-13
