0.010101 	-4.75297e-13 	5.05422e-16 	-4.94944e-15
0.020202 	-2.05614e-14 	4.86958e-17 	-3.02451e-16
