0 	-15.2176
0.010101 	-9.60418
0.020202 	-9.60444
0.030303 	-9.60945
0.040404 	-9.66623
0.0505051 	-9.60275
0.0606061 	-9.60411
0.0707071 	-9.60416
0.0808081 	-9.60417
0.0909091 	-9.60417
