0 	-2.11091e-12 	0 	8.14382e-13
0.010101 	-2.61377e-10 	0 	3.93487e-12
0.020202 	2.4017e-10 	0 	1.90563e-11
0.030303 	1.21802e-10 	0 	5.73318e-12
0.040404 	6.6475e-12 	0 	3.69194e-13
