/*--------------------------------*- C++ -*----------------------------------*\
  =========                 |
  \\      /  F ield         | OpenFOAM: The Open Source CFD Toolbox
   \\    /   O peration     | Website:  https://openfoam.org
    \\  /    A nd           | Version:  6
     \\/     M anipulation  |
\*---------------------------------------------------------------------------*/
FoamFile
{
    version     2.0;
    format      ascii;
    class       surfaceScalarField;
    location    "3850";
    object      phi;
}
// * * * * * * * * * * * * * * * * * * * * * * * * * * * * * * * * * * * * * //

dimensions      [0 3 -1 0 0 0 0];

internalField   nonuniform List<scalar> 
9440
(
-3.72471e-10
3.72471e-10
-6.09139e-10
2.36664e-10
-8.94015e-10
2.84874e-10
-1.41192e-09
5.179e-10
-1.86424e-09
4.52321e-10
-2.13571e-09
2.71469e-10
-2.59399e-09
4.58279e-10
-2.86086e-09
2.66868e-10
-3.13979e-09
2.78928e-10
-3.35067e-09
2.10876e-10
-3.41324e-09
6.25704e-11
-3.3978e-09
-1.54362e-11
-3.26865e-09
-1.29157e-10
-2.79883e-09
-4.69816e-10
-2.43723e-09
-3.61598e-10
-2.08014e-09
-3.57087e-10
-1.38312e-09
-6.97019e-10
-9.056e-10
-4.77523e-10
-2.65326e-10
-6.40273e-10
3.64246e-10
-6.29571e-10
9.2129e-10
-5.57043e-10
1.40235e-09
-4.8106e-10
1.68317e-09
-2.80822e-10
1.92661e-09
-2.43438e-10
2.06831e-09
-1.41691e-10
2.19426e-09
-1.25954e-10
2.31219e-09
-1.17923e-10
2.52643e-09
-2.14243e-10
2.70876e-09
-1.82323e-10
2.77287e-09
-6.41132e-11
2.82395e-09
-5.10733e-11
2.83838e-09
-1.44363e-11
2.82835e-09
1.00392e-11
2.87135e-09
-4.30004e-11
2.92639e-09
-5.5042e-11
2.99385e-09
-6.74572e-11
3.07301e-09
-7.91559e-11
3.11566e-09
-4.26457e-11
3.04577e-09
6.98965e-11
2.93419e-09
1.11581e-10
2.74255e-09
1.91643e-10
2.52615e-09
2.16405e-10
2.32684e-09
1.9931e-10
2.14033e-09
1.86513e-10
1.98397e-09
1.56363e-10
1.80548e-09
1.78494e-10
1.65632e-09
1.49163e-10
1.58488e-09
7.14426e-11
1.53371e-09
5.11715e-11
1.47247e-09
6.12463e-11
1.42492e-09
4.75571e-11
1.23729e-09
1.87626e-10
1.08784e-09
1.49458e-10
7.82987e-10
3.04855e-10
6.60341e-10
1.22648e-10
6.07473e-10
5.28709e-11
6.28515e-10
-2.10399e-11
6.0509e-10
2.34278e-11
4.91979e-10
1.13113e-10
3.19454e-10
1.72527e-10
1.66213e-10
1.53243e-10
5.78727e-11
1.08342e-10
-3.43862e-11
9.22605e-11
-1.16155e-10
8.17701e-11
-1.99513e-10
8.33593e-11
-2.23657e-10
2.41455e-11
-1.88093e-10
-3.5562e-11
-1.54133e-10
-3.39584e-11
-1.43016e-10
-1.11163e-11
-1.32176e-10
-1.08386e-11
-6.02218e-11
-7.19527e-11
-7.1193e-11
1.09727e-11
-1.34398e-10
6.32062e-11
-3.13494e-10
1.79098e-10
-6.52626e-10
3.39134e-10
-8.90691e-10
2.38067e-10
-1.02726e-09
1.36574e-10
-1.09571e-09
6.84512e-11
-9.22531e-10
-1.73179e-10
-3.26999e-10
-5.95529e-10
-1.76123e-15
-3.26994e-10
-4.74834e-18
-7.78697e-20
-4.62422e-18
-1.2412e-19
-4.4858e-18
-1.36696e-19
-4.32756e-18
-1.56263e-19
-4.14265e-18
-1.82878e-19
-3.92732e-18
-2.13261e-19
-3.6807e-18
-2.44548e-19
-3.40399e-18
-2.74632e-19
-3.09998e-18
-3.01942e-19
-2.77266e-18
-3.2527e-19
-2.42693e-18
-3.43696e-19
-2.06836e-18
-3.56558e-19
-1.70291e-18
-3.63437e-19
-1.33671e-18
-3.64156e-19
-9.75853e-19
-3.58764e-19
-6.26157e-19
-3.47514e-19
-2.93019e-19
-3.30841e-19
1.8733e-20
-3.09327e-19
3.04949e-19
-2.83661e-19
5.62227e-19
-2.54608e-19
7.87949e-19
-2.22964e-19
9.80285e-19
-1.8953e-19
1.13817e-18
-1.55077e-19
1.26123e-18
-1.20325e-19
1.34977e-18
-8.59216e-20
1.40462e-18
-5.24309e-20
1.42712e-18
-2.03288e-20
1.419e-18
9.99798e-21
1.38232e-18
3.82472e-20
1.31937e-18
6.41933e-20
1.23263e-18
8.76783e-20
1.12467e-18
1.08601e-19
9.98174e-19
1.26903e-19
8.55824e-19
1.42563e-19
7.00319e-19
1.55578e-19
5.34338e-19
1.6596e-19
3.60538e-19
1.73725e-19
1.8155e-19
1.78884e-19
1.81433e-19
-4.39454e-10
8.11922e-10
-9.85352e-10
7.82558e-10
-1.36721e-09
6.66726e-10
-1.47205e-09
6.22734e-10
-1.63163e-09
6.11895e-10
-2.11953e-09
7.59367e-10
-2.30147e-09
6.40219e-10
-2.62371e-09
5.89105e-10
-2.87117e-09
5.26387e-10
-2.97988e-09
3.19585e-10
-3.08866e-09
1.71346e-10
-3.02414e-09
-7.99481e-11
-2.88563e-09
-2.67668e-10
-2.73777e-09
-6.17682e-10
-2.06689e-09
-1.03248e-09
-1.75429e-09
-6.69684e-10
-1.29343e-09
-1.15788e-09
-6.57229e-10
-1.11372e-09
-3.32639e-11
-1.26424e-09
4.6904e-10
-1.13187e-09
8.63442e-10
-9.51443e-10
1.20492e-09
-8.22535e-10
1.54343e-09
-6.19332e-10
1.79953e-09
-4.99533e-10
1.99994e-09
-3.42094e-10
2.23438e-09
-3.60394e-10
2.39939e-09
-2.82926e-10
2.64878e-09
-4.63633e-10
2.78496e-09
-3.18504e-10
2.84137e-09
-1.20513e-10
2.85211e-09
-6.18149e-11
2.86507e-09
-2.73904e-11
2.86936e-09
5.75484e-12
2.93956e-09
-1.13199e-10
3.03505e-09
-1.50523e-10
3.05235e-09
-8.47563e-11
3.07194e-09
-9.87365e-11
3.12386e-09
-9.45608e-11
3.05234e-09
1.41415e-10
2.97445e-09
1.8948e-10
2.88614e-09
2.79958e-10
2.74119e-09
3.61359e-10
2.48045e-09
4.60061e-10
2.21201e-09
4.54953e-10
1.9922e-09
3.76177e-10
1.86472e-09
3.05987e-10
1.80185e-09
2.12034e-10
1.74702e-09
1.26277e-10
1.73953e-09
5.86692e-11
1.74822e-09
5.25623e-11
1.62653e-09
1.69253e-10
1.71475e-09
9.94106e-11
1.63806e-09
2.26159e-10
1.48407e-09
4.5885e-10
1.08934e-09
5.17375e-10
8.77315e-10
2.64903e-10
7.12603e-10
1.43676e-10
5.27573e-10
2.08461e-10
3.80812e-10
2.59877e-10
2.36882e-10
3.16461e-10
1.07769e-10
2.82359e-10
-3.45114e-13
2.16458e-10
-6.29118e-11
1.5483e-10
-1.19788e-10
1.38649e-10
-1.70477e-10
1.34051e-10
-2.18608e-10
7.22788e-11
-2.22937e-10
-3.12306e-11
-1.89327e-10
-6.75663e-11
-1.6039e-10
-4.00504e-11
-1.54444e-10
-1.67821e-11
-1.44272e-10
-8.21227e-11
-1.0184e-10
-3.14565e-11
-8.39222e-11
4.52915e-11
-3.74055e-11
1.32584e-10
3.79349e-11
2.63797e-10
4.27257e-11
2.33281e-10
1.16388e-10
6.29161e-11
3.35959e-10
-1.51116e-10
4.12702e-10
-2.49917e-10
1.18343e-10
-3.01165e-10
-1.33039e-15
-2.08646e-10
-4.77639e-18
-2.85982e-19
-4.63677e-18
-2.61974e-19
-4.50532e-18
-2.64754e-19
-4.35418e-18
-3.03812e-19
-4.17303e-18
-3.60375e-19
-3.95861e-18
-4.24011e-19
-3.71078e-18
-4.88695e-19
-3.4313e-18
-5.50443e-19
-3.12331e-18
-6.06275e-19
-2.79109e-18
-6.5385e-19
-2.43979e-18
-6.9135e-19
-2.07524e-18
-7.17453e-19
-1.70363e-18
-7.31332e-19
-1.33132e-18
-7.32643e-19
-9.64603e-19
-7.21509e-19
-6.09484e-19
-6.98474e-19
-2.71505e-19
-6.64449e-19
4.43984e-20
-6.20646e-19
3.34003e-19
-5.68496e-19
5.93871e-19
-5.09572e-19
8.21383e-19
-4.45513e-19
1.01474e-18
-3.77953e-19
1.17292e-18
-3.08461e-19
1.29564e-18
-2.38489e-19
1.38326e-18
-1.69335e-19
1.43672e-18
-1.02121e-19
1.45745e-18
-3.77841e-20
1.44725e-18
2.29217e-20
1.40827e-18
7.9413e-20
1.34286e-18
1.3126e-19
1.25355e-18
1.78166e-19
1.14297e-18
2.19943e-19
1.01383e-18
2.56485e-19
8.68839e-19
2.87752e-19
7.10701e-19
3.13739e-19
5.42102e-19
3.3447e-19
3.65697e-19
3.49977e-19
1.84098e-19
3.60291e-19
3.6544e-19
-1.95031e-10
1.00695e-09
-4.92345e-10
1.07987e-09
-1.02934e-09
1.20372e-09
-1.42544e-09
1.01883e-09
-1.52063e-09
7.07077e-10
-1.79253e-09
1.03127e-09
-2.05201e-09
8.99695e-10
-2.22696e-09
7.64057e-10
-2.30416e-09
6.03583e-10
-2.26838e-09
2.83799e-10
-2.30295e-09
2.05917e-10
-2.35029e-09
-3.26077e-11
-2.27678e-09
-3.4118e-10
-2.07978e-09
-8.14682e-10
-1.8185e-09
-1.29375e-09
-1.38431e-09
-1.10387e-09
-9.11685e-10
-1.63051e-09
-3.81007e-10
-1.6444e-09
-9.06592e-11
-1.55458e-09
1.70093e-10
-1.39262e-09
5.51317e-10
-1.33266e-09
8.79461e-10
-1.15068e-09
1.17721e-09
-9.17083e-10
1.30748e-09
-6.29797e-10
1.5546e-09
-5.89217e-10
1.71456e-09
-5.20351e-10
1.95399e-09
-5.22349e-10
2.18563e-09
-6.95275e-10
2.42633e-09
-5.59194e-10
2.63501e-09
-3.29194e-10
2.81725e-09
-2.4405e-10
2.94383e-09
-1.5397e-10
3.01356e-09
-6.39661e-11
3.02979e-09
-1.29428e-10
2.99813e-09
-1.18856e-10
2.97522e-09
-6.18453e-11
2.95891e-09
-8.24236e-11
2.93892e-09
-7.45645e-11
2.93803e-09
1.42304e-10
2.89259e-09
2.34931e-10
2.81325e-09
3.59299e-10
2.69956e-09
4.75053e-10
2.49075e-09
6.68876e-10
2.30521e-09
6.40498e-10
2.20052e-09
4.80875e-10
2.1109e-09
3.9561e-10
2.07456e-09
2.48377e-10
2.04841e-09
1.52436e-10
2.02e-09
8.70837e-11
1.97671e-09
9.58559e-11
1.90659e-09
2.39379e-10
1.85869e-09
1.47306e-10
1.79929e-09
2.85563e-10
1.64112e-09
6.1703e-10
1.53546e-09
6.23037e-10
1.28338e-09
5.16988e-10
8.05488e-10
6.21571e-10
4.6606e-10
5.47892e-10
3.31117e-10
3.94823e-10
2.37599e-10
4.09981e-10
1.22002e-10
3.97958e-10
6.11579e-12
3.32347e-10
-7.82454e-11
2.39193e-10
-1.25816e-10
1.86221e-10
-1.36177e-10
1.44413e-10
-1.67086e-10
1.0319e-10
-2.01016e-10
2.7009e-12
-1.97992e-10
-7.05885e-11
-1.84873e-10
-5.31674e-11
-1.58127e-10
-4.35263e-11
-1.48538e-10
-9.17095e-11
-1.03158e-10
-7.68349e-11
-4.13488e-11
-1.65154e-11
6.40618e-11
2.71765e-11
2.61815e-10
6.60475e-11
3.95208e-10
9.98906e-11
4.11206e-10
4.69208e-11
2.4532e-10
1.47739e-11
1.0593e-10
-1.10522e-10
1.33561e-10
-3.28792e-10
-1.15332e-15
-7.50806e-11
-4.72024e-18
-5.02765e-19
-4.63881e-18
-3.41975e-19
-4.54423e-18
-3.56501e-19
-4.41074e-18
-4.34311e-19
-4.23667e-18
-5.31395e-19
-4.02329e-18
-6.3429e-19
-3.77253e-18
-7.36328e-19
-3.48713e-18
-8.32682e-19
-3.17088e-18
-9.1934e-19
-2.82859e-18
-9.92944e-19
-2.4659e-18
-1.05081e-18
-2.08912e-18
-1.09097e-18
-1.70494e-18
-1.1122e-18
-1.32018e-18
-1.11401e-18
-9.41568e-19
-1.09663e-18
-5.7546e-19
-1.06094e-18
-2.27702e-19
-1.00839e-18
9.65485e-20
-9.40909e-19
3.92927e-19
-8.60735e-19
6.5793e-19
-7.70331e-19
8.88943e-19
-6.72243e-19
1.08423e-18
-5.68995e-19
1.24289e-18
-4.62998e-19
1.36479e-18
-3.56469e-19
1.45047e-18
-2.5138e-19
1.50106e-18
-1.49421e-19
1.51815e-18
-5.1996e-20
1.50374e-18
3.97783e-20
1.46012e-18
1.25047e-19
1.38976e-18
2.03189e-19
1.29532e-18
2.73787e-19
1.17952e-18
3.36581e-19
1.0451e-18
3.91443e-19
8.94827e-19
4.38329e-19
7.31432e-19
4.77261e-19
5.57609e-19
5.08291e-19
3.76011e-19
5.31485e-19
1.89247e-19
5.46905e-19
5.54601e-19
-3.29598e-10
1.33655e-09
-5.71616e-10
1.32188e-09
-7.20112e-10
1.35221e-09
-1.01731e-09
1.31602e-09
-1.36817e-09
1.05794e-09
-1.49409e-09
1.15718e-09
-1.68556e-09
1.09116e-09
-1.69226e-09
7.70759e-10
-1.70842e-09
6.19738e-10
-1.71722e-09
2.92601e-10
-1.66788e-09
1.56577e-10
-1.66024e-09
-4.02479e-11
-1.71268e-09
-2.8874e-10
-1.70099e-09
-8.26374e-10
-1.76813e-09
-1.22661e-09
-1.10877e-09
-1.76323e-09
-6.10868e-10
-2.12841e-09
-1.56203e-10
-2.09906e-09
1.89222e-10
-1.90001e-09
4.52897e-10
-1.6563e-09
5.66285e-10
-1.44605e-09
6.45276e-10
-1.22967e-09
7.95104e-10
-1.06691e-09
9.46589e-10
-7.81279e-10
1.13791e-09
-7.80535e-10
1.31232e-09
-6.94757e-10
1.56569e-09
-7.75716e-10
1.82033e-09
-9.49911e-10
2.0361e-09
-7.74959e-10
2.18773e-09
-4.80827e-10
2.38827e-09
-4.44591e-10
2.60506e-09
-3.70756e-10
2.7198e-09
-1.78702e-10
2.75844e-09
-1.68058e-10
2.78085e-09
-1.4126e-10
2.78012e-09
-6.11167e-11
2.78475e-09
-8.70525e-11
2.75511e-09
-4.49135e-11
2.76264e-09
1.34779e-10
2.76323e-09
2.34341e-10
2.73978e-09
3.82756e-10
2.6559e-09
5.58935e-10
2.60342e-09
7.21362e-10
2.59828e-09
6.45636e-10
2.55516e-09
5.24006e-10
2.49998e-09
4.50791e-10
2.41425e-09
3.34112e-10
2.32823e-09
2.38454e-10
2.27716e-09
1.38159e-10
2.19236e-09
1.80658e-10
2.10836e-09
3.23382e-10
1.8624e-09
3.93271e-10
1.75261e-09
3.95361e-10
1.63408e-09
7.35564e-10
1.31367e-09
9.43443e-10
1.01857e-09
8.12091e-10
9.1531e-10
7.24838e-10
8.32225e-10
6.30981e-10
6.38543e-10
5.88507e-10
4.22583e-10
6.25943e-10
2.09616e-10
6.10926e-10
6.65407e-11
4.75425e-10
-2.10545e-11
3.2679e-10
-7.34028e-11
2.38571e-10
-9.38203e-11
1.64832e-10
-1.38085e-10
1.47456e-10
-1.8566e-10
5.02764e-11
-2.10373e-10
-4.58735e-11
-1.84945e-10
-7.85946e-11
-1.48384e-10
-8.00861e-11
-1.18563e-10
-1.21529e-10
-8.2987e-11
-1.12409e-10
-5.96369e-12
-9.3537e-11
8.02646e-11
-5.90498e-11
2.45462e-10
-9.91472e-11
3.64125e-10
-1.87705e-11
4.23792e-10
-1.27437e-11
4.63302e-10
-2.47325e-11
3.12459e-10
4.03235e-11
9.62272e-11
-1.12557e-10
-8.94602e-16
2.11503e-11
-4.48122e-18
4.37864e-19
-4.6526e-18
-1.69226e-19
-4.62191e-18
-3.84687e-19
-4.50782e-18
-5.45707e-19
-4.33956e-18
-6.96874e-19
-4.12533e-18
-8.45651e-19
-3.86888e-18
-9.89815e-19
-3.57379e-18
-1.12473e-18
-3.24449e-18
-1.24552e-18
-2.88645e-18
-1.34779e-18
-2.50606e-18
-1.42795e-18
-2.11034e-18
-1.48338e-18
-1.70675e-18
-1.51245e-18
-1.3028e-18
-1.51455e-18
-9.05877e-19
-1.49007e-18
-5.22916e-19
-1.44032e-18
-1.60219e-19
-1.36738e-18
1.76722e-19
-1.27399e-18
4.83331e-19
-1.16336e-18
7.56019e-19
-1.03894e-18
9.92191e-19
-9.04309e-19
1.19023e-18
-7.62965e-19
1.34942e-18
-6.18235e-19
1.46988e-18
-4.73154e-19
1.55243e-18
-3.30398e-19
1.59848e-18
-1.92244e-19
1.60993e-18
-6.05566e-20
1.58901e-18
6.31963e-20
1.53826e-18
1.77912e-19
1.46036e-18
2.82809e-19
1.35812e-18
3.77379e-19
1.23438e-18
4.61331e-19
1.09199e-18
5.34542e-19
9.33759e-19
5.97008e-19
7.62462e-19
6.48799e-19
5.80803e-19
6.90026e-19
3.91431e-19
7.20809e-19
1.96943e-19
7.41261e-19
7.51463e-19
-9.01787e-12
1.34556e-09
-1.43189e-10
1.45605e-09
-4.06918e-10
1.61594e-09
-7.14624e-10
1.62372e-09
-1.05721e-09
1.40052e-09
-1.22377e-09
1.32375e-09
-1.38738e-09
1.25476e-09
-1.44272e-09
8.26101e-10
-1.36007e-09
5.37086e-10
-1.37031e-09
3.02838e-10
-1.37787e-09
1.6414e-10
-1.25549e-09
-1.62628e-10
-1.26925e-09
-2.74981e-10
-1.28619e-09
-8.0944e-10
-1.14277e-09
-1.37003e-09
-6.49134e-10
-2.25686e-09
-1.9943e-10
-2.57811e-09
1.84412e-10
-2.4829e-09
4.13727e-10
-2.12932e-09
5.12327e-10
-1.7549e-09
5.48502e-10
-1.48222e-09
5.64912e-10
-1.24607e-09
5.5759e-10
-1.05959e-09
7.07589e-10
-9.31276e-10
9.24231e-10
-9.97175e-10
1.20095e-09
-9.71472e-10
1.46176e-09
-1.03653e-09
1.64941e-09
-1.13756e-09
1.81303e-09
-9.38577e-10
1.95805e-09
-6.25841e-10
2.17443e-09
-6.60966e-10
2.3229e-09
-5.19224e-10
2.43092e-09
-2.86718e-10
2.48012e-09
-2.1726e-10
2.51101e-09
-1.72142e-10
2.54584e-09
-9.59479e-11
2.52831e-09
-6.95104e-11
2.53786e-09
-5.44606e-11
2.54002e-09
1.32618e-10
2.57813e-09
1.96231e-10
2.58898e-09
3.71916e-10
2.61454e-09
5.33372e-10
2.64431e-09
6.91604e-10
2.69088e-09
5.99066e-10
2.67984e-09
5.35042e-10
2.68157e-09
4.49071e-10
2.62401e-09
3.91675e-10
2.52606e-09
3.36402e-10
2.42284e-09
2.41384e-10
2.30584e-09
2.97662e-10
2.15645e-09
4.72773e-10
1.9904e-09
5.59324e-10
1.80097e-09
5.84792e-10
1.63826e-09
8.98282e-10
1.49465e-09
1.08705e-09
1.15136e-09
1.15539e-09
7.859e-10
1.0903e-09
5.78472e-10
8.38411e-10
4.80254e-10
6.86728e-10
3.63338e-10
7.42861e-10
2.5068e-10
7.23586e-10
1.33245e-10
5.92861e-10
2.38021e-11
4.36234e-10
-7.75701e-11
3.39944e-10
-9.83424e-11
1.85606e-10
-1.32368e-10
1.81483e-10
-1.68876e-10
8.67843e-11
-1.78089e-10
-3.6659e-11
-1.42552e-10
-1.14131e-10
-1.18348e-10
-1.04289e-10
-9.25568e-11
-1.47319e-10
-4.93711e-11
-1.55594e-10
1.89688e-11
-1.61876e-10
1.1228e-10
-1.5236e-10
1.95633e-10
-1.82498e-10
2.87312e-10
-1.10448e-10
3.41058e-10
-6.64877e-11
3.29897e-10
-1.35686e-11
3.99192e-10
-2.89696e-11
2.54017e-10
3.26212e-11
-5.03644e-16
2.7517e-10
-4.94453e-18
2.85401e-19
-4.86731e-18
-2.45188e-19
-4.7828e-18
-4.67162e-19
-4.65899e-18
-6.67261e-19
-4.48834e-18
-8.65106e-19
-4.26949e-18
-1.06191e-18
-4.0038e-18
-1.25276e-18
-3.69458e-18
-1.43105e-18
-3.34676e-18
-1.59027e-18
-2.96662e-18
-1.72472e-18
-2.56149e-18
-1.82978e-18
-2.13941e-18
-1.90209e-18
-1.70885e-18
-1.93961e-18
-1.27832e-18
-1.94165e-18
-8.56118e-19
-1.90883e-18
-4.49976e-19
-1.84296e-18
-6.68349e-20
-1.74695e-18
2.87355e-19
-1.62451e-18
6.07747e-19
-1.47996e-18
8.90653e-19
-1.31797e-18
1.13353e-18
-1.14327e-18
1.33496e-18
-9.60481e-19
1.4945e-18
-7.73951e-19
1.61263e-18
-5.87601e-19
1.69058e-18
-4.04853e-19
1.73017e-18
-2.2858e-19
1.73368e-18
-6.11035e-20
1.70373e-18
9.57844e-20
1.64316e-18
2.40771e-19
1.55493e-18
3.72962e-19
1.44207e-18
4.91808e-19
1.30759e-18
5.97038e-19
1.15445e-18
6.88585e-19
9.85549e-19
7.66526e-19
8.03688e-19
8.31025e-19
6.11587e-19
8.82286e-19
4.11882e-19
9.20513e-19
2.07146e-19
9.45886e-19
9.58538e-19
-4.62468e-11
1.39181e-09
-1.14834e-10
1.52463e-09
-2.40355e-10
1.74146e-09
-4.44624e-10
1.82799e-09
-6.26285e-10
1.58218e-09
-7.44513e-10
1.44198e-09
-7.16996e-10
1.22725e-09
-8.54945e-10
9.64049e-10
-9.98694e-10
6.80833e-10
-1.03816e-09
3.42301e-10
-1.01643e-09
1.42415e-10
-1.01321e-09
-1.65856e-10
-9.86341e-10
-3.01847e-10
-9.57852e-10
-8.37929e-10
-8.54788e-10
-1.47309e-09
-6.20053e-10
-2.49159e-09
-3.56153e-10
-2.84201e-09
7.27125e-12
-2.84632e-09
3.05459e-10
-2.42751e-09
4.87472e-10
-1.93691e-09
4.81873e-10
-1.47662e-09
4.97117e-10
-1.26132e-09
5.54944e-10
-1.11741e-09
6.19786e-10
-9.96116e-10
7.57353e-10
-1.13474e-09
1.06864e-09
-1.28275e-09
1.32396e-09
-1.29185e-09
1.51586e-09
-1.32945e-09
1.67182e-09
-1.09453e-09
1.82398e-09
-7.78003e-10
2.09038e-09
-9.27355e-10
2.13759e-09
-5.66436e-10
2.22191e-09
-3.71033e-10
2.26111e-09
-2.5646e-10
2.29461e-09
-2.0564e-10
2.35127e-09
-1.52605e-10
2.35337e-09
-7.16096e-11
2.33736e-09
-3.84406e-11
2.34031e-09
1.29667e-10
2.35274e-09
1.83809e-10
2.3802e-09
3.44461e-10
2.44414e-09
4.69435e-10
2.52209e-09
6.13652e-10
2.55411e-09
5.67046e-10
2.5798e-09
5.09354e-10
2.59928e-09
4.29603e-10
2.57003e-09
4.20917e-10
2.51732e-09
3.89123e-10
2.39134e-09
3.6736e-10
2.19753e-09
4.91471e-10
2.02127e-09
6.49036e-10
1.85662e-09
7.23984e-10
1.59028e-09
8.51131e-10
1.44266e-09
1.0459e-09
1.33102e-09
1.19869e-09
1.24938e-09
1.23704e-09
1.20987e-09
1.1298e-09
9.41243e-10
1.10704e-09
5.37333e-10
1.09064e-09
3.49122e-10
9.31074e-10
2.76272e-10
7.96438e-10
2.05685e-10
6.63449e-10
8.69257e-11
5.54995e-10
-4.0959e-11
4.6783e-10
-1.20778e-10
2.65425e-10
-1.10119e-10
1.70825e-10
-1.32116e-10
1.08781e-10
-1.63735e-10
-5.03958e-12
-1.68331e-10
-1.09535e-10
-1.32836e-10
-1.39783e-10
-1.03325e-10
-1.7683e-10
-6.50726e-11
-1.93846e-10
-1.83777e-11
-2.0857e-10
8.6297e-11
-2.57034e-10
1.38344e-10
-2.34545e-10
2.13424e-10
-1.85527e-10
2.69895e-10
-1.22957e-10
3.92542e-10
-1.36214e-10
4.07213e-10
-4.36397e-11
1.67831e-10
2.72005e-10
-1.04397e-17
4.43002e-10
-5.26211e-18
-2.26176e-19
-5.08854e-18
-4.17713e-19
-4.98279e-18
-5.71523e-19
-4.85683e-18
-7.91542e-19
-4.68514e-18
-1.03485e-18
-4.46034e-18
-1.28451e-18
-4.18209e-18
-1.52853e-18
-3.8538e-18
-1.75661e-18
-3.4812e-18
-1.9599e-18
-3.07168e-18
-2.13107e-18
-2.6338e-18
-2.26433e-18
-2.17693e-18
-2.35552e-18
-1.71089e-18
-2.40219e-18
-1.2455e-18
-2.40359e-18
-7.90255e-19
-2.36066e-18
-3.53961e-19
-2.27589e-18
5.56052e-20
-2.15315e-18
4.31899e-19
-1.99739e-18
7.69742e-19
-1.8143e-18
1.06536e-18
-1.60997e-18
1.31632e-18
-1.39053e-18
1.52149e-18
-1.16192e-18
1.68085e-18
-9.29616e-19
1.79538e-18
-6.98519e-19
1.86686e-18
-4.72843e-19
1.89765e-18
-2.56067e-19
1.89057e-18
-5.09487e-20
1.84872e-18
1.40439e-19
1.77535e-18
3.16633e-19
1.67378e-18
4.7669e-19
1.5473e-18
6.20093e-19
1.39914e-18
7.46658e-19
1.23239e-18
8.5644e-19
1.05005e-18
9.49659e-19
8.54949e-19
1.02662e-18
6.49814e-19
1.08767e-18
4.37255e-19
1.13312e-18
2.19798e-19
1.16326e-18
1.17828e-18
-2.10352e-10
1.60216e-09
-4.53539e-10
1.76782e-09
-5.08422e-10
1.79634e-09
-5.18e-10
1.83757e-09
-6.46956e-10
1.71113e-09
-7.67219e-10
1.56224e-09
-8.52161e-10
1.31219e-09
-8.3636e-10
9.48248e-10
-7.40062e-10
5.84534e-10
-7.56588e-10
3.58826e-10
-7.16191e-10
1.02019e-10
-8.09075e-10
-7.29729e-11
-6.07365e-10
-5.03556e-10
-6.40735e-10
-8.04559e-10
-7.63275e-10
-1.35055e-09
-7.04129e-10
-2.55074e-09
-5.09579e-10
-3.03656e-09
-2.51921e-10
-3.10398e-09
5.72329e-11
-2.73666e-09
2.88753e-10
-2.16843e-09
3.93152e-10
-1.58102e-09
3.77889e-10
-1.24605e-09
5.02693e-10
-1.24221e-09
8.66344e-10
-1.35976e-09
1.14268e-09
-1.41107e-09
1.34835e-09
-1.48843e-09
1.45292e-09
-1.39642e-09
1.49385e-09
-1.37038e-09
1.53736e-09
-1.13804e-09
1.67918e-09
-9.19826e-10
1.74123e-09
-9.89402e-10
1.82034e-09
-6.45536e-10
1.90723e-09
-4.57929e-10
1.99359e-09
-3.4281e-10
2.09428e-09
-3.06329e-10
2.18281e-09
-2.41135e-10
2.18264e-09
-7.14299e-11
2.14979e-09
-5.5876e-12
2.14006e-09
1.39398e-10
2.16967e-09
1.54201e-10
2.1976e-09
3.16529e-10
2.24161e-09
4.25433e-10
2.34643e-09
5.08833e-10
2.391e-09
5.22476e-10
2.43332e-09
4.67036e-10
2.42605e-09
4.36869e-10
2.41465e-09
4.32319e-10
2.40569e-09
3.98086e-10
2.34253e-09
4.30519e-10
2.22291e-09
6.11093e-10
2.07397e-09
7.97974e-10
1.84787e-09
9.50085e-10
1.60769e-09
1.09132e-09
1.358e-09
1.29559e-09
1.18271e-09
1.37398e-09
1.07389e-09
1.34586e-09
7.96889e-10
1.40681e-09
7.10306e-10
1.19363e-09
6.10069e-10
1.19088e-09
4.44852e-10
1.09629e-09
2.95485e-10
9.45806e-10
2.05849e-10
7.53087e-10
9.97645e-11
6.6108e-10
1.11623e-12
5.66478e-10
-7.65791e-11
3.43121e-10
-9.98081e-11
1.94054e-10
-1.02764e-10
1.11737e-10
-1.20893e-10
1.30894e-11
-1.16011e-10
-1.14417e-10
-6.37166e-11
-1.92077e-10
-8.41569e-12
-2.32131e-10
3.63761e-11
-2.38638e-10
8.13954e-11
-2.53589e-10
1.1134e-10
-2.86978e-10
1.51817e-10
-2.75022e-10
2.0591e-10
-2.39621e-10
2.05174e-10
-1.22221e-10
1.11745e-10
-4.27849e-11
6.34984e-11
4.60653e-12
8.04118e-11
2.55091e-10
4.87473e-16
5.23413e-10
-5.16574e-18
3.91466e-19
-5.24161e-18
-3.41096e-19
-5.20272e-18
-6.09776e-19
-5.10015e-18
-8.93101e-19
-4.9348e-18
-1.1988e-18
-4.70435e-18
-1.51319e-18
-4.41017e-18
-1.82055e-18
-4.0571e-18
-2.10717e-18
-3.65237e-18
-2.36179e-18
-3.20493e-18
-2.57537e-18
-2.72499e-18
-2.74091e-18
-2.2236e-18
-2.8534e-18
-1.71229e-18
-2.90995e-18
-1.20256e-18
-2.9098e-18
-7.05487e-19
-2.85432e-18
-2.31221e-19
-2.74687e-18
2.11367e-19
-2.59257e-18
6.14989e-19
-2.39788e-18
9.74075e-19
-2.1702e-18
1.28479e-18
-1.91738e-18
1.54493e-18
-1.64725e-18
1.75379e-18
-1.36725e-18
1.91195e-18
-1.08421e-18
2.02106e-18
-8.04084e-19
2.08363e-18
-5.31932e-19
2.10277e-18
-2.71834e-19
2.08196e-18
-2.69404e-20
2.02491e-18
2.00463e-19
1.9354e-18
4.08844e-19
1.81718e-18
5.97305e-19
1.67386e-18
7.65456e-19
1.50892e-18
9.13288e-19
1.32561e-18
1.04107e-18
1.12701e-18
1.14922e-18
9.15996e-19
1.23827e-18
6.95269e-19
1.30874e-18
4.67392e-19
1.36111e-18
2.34818e-19
1.3958e-18
1.41307e-18
1.22069e-11
1.58995e-09
2.73854e-12
1.77728e-09
-7.9613e-11
1.87869e-09
-1.23371e-10
1.88132e-09
-2.44516e-10
1.83227e-09
-2.84147e-10
1.60187e-09
-2.86113e-10
1.31415e-09
-4.04902e-10
1.06704e-09
-5.44753e-10
7.24384e-10
-5.82132e-10
3.96204e-10
-4.93335e-10
1.32216e-11
-4.781e-10
-8.82084e-11
-4.11782e-10
-5.69875e-10
-4.95145e-10
-7.21196e-10
-5.11472e-10
-1.33422e-09
-4.91846e-10
-2.57037e-09
-3.41469e-10
-3.18694e-09
-2.06785e-10
-3.23867e-09
-9.88759e-11
-2.84457e-09
-5.31321e-11
-2.21417e-09
3.76771e-11
-1.67183e-09
2.18149e-10
-1.42652e-09
5.10842e-10
-1.53491e-09
7.78549e-10
-1.62747e-09
1.11415e-09
-1.74667e-09
1.30792e-09
-1.68219e-09
1.43679e-09
-1.52529e-09
1.49736e-09
-1.43095e-09
1.44012e-09
-1.08079e-09
1.52813e-09
-1.00784e-09
1.43088e-09
-8.92147e-10
1.4517e-09
-6.66348e-10
1.54731e-09
-5.53534e-10
1.64482e-09
-4.40325e-10
1.75108e-09
-4.12584e-10
1.84773e-09
-3.3778e-10
1.92755e-09
-1.51252e-10
1.95758e-09
-3.56073e-11
2.01506e-09
8.19174e-11
2.06748e-09
1.01779e-10
2.1037e-09
2.80314e-10
2.1666e-09
3.62537e-10
2.27025e-09
4.05176e-10
2.35677e-09
4.35962e-10
2.37579e-09
4.48017e-10
2.353e-09
4.59655e-10
2.27571e-09
5.0961e-10
2.26037e-09
4.13429e-10
2.09021e-09
6.00684e-10
1.84344e-09
8.57861e-10
1.63138e-09
1.01003e-09
1.54664e-09
1.03482e-09
1.32566e-09
1.3123e-09
1.10691e-09
1.51434e-09
9.77818e-10
1.50308e-09
8.69728e-10
1.45395e-09
7.73675e-10
1.50286e-09
6.08923e-10
1.35838e-09
5.57357e-10
1.24245e-09
4.48346e-10
1.2053e-09
3.15879e-10
1.07827e-09
1.92162e-10
8.76805e-10
1.29134e-10
7.24108e-10
8.42044e-11
6.11408e-10
7.18929e-12
4.20136e-10
-6.87715e-11
2.70014e-10
-9.1807e-11
1.34772e-10
-1.07158e-10
2.84399e-11
-1.27721e-10
-9.38549e-11
-1.03941e-10
-2.15857e-10
-6.99188e-11
-2.66154e-10
-2.43412e-11
-2.84216e-10
5.61844e-11
-3.34116e-10
1.26781e-10
-3.57575e-10
1.67706e-10
-3.15948e-10
2.13861e-10
-2.85776e-10
2.3074e-10
-1.39101e-10
2.15535e-10
-2.75808e-11
1.74409e-10
4.57315e-11
1.18142e-10
3.11357e-10
8.41513e-16
6.41552e-10
-5.53205e-18
2.69301e-19
-5.50955e-18
-3.63239e-19
-5.48598e-18
-6.33399e-19
-5.40585e-18
-9.72845e-19
-5.24919e-18
-1.3546e-18
-5.0117e-18
-1.74935e-18
-4.69679e-18
-2.13367e-18
-4.31172e-18
-2.49e-18
-3.86596e-18
-2.8049e-18
-3.37047e-18
-3.06782e-18
-2.83748e-18
-3.27054e-18
-2.28015e-18
-3.40716e-18
-1.71214e-18
-3.47429e-18
-1.14708e-18
-3.47119e-18
-5.98043e-19
-3.39981e-18
-7.69156e-20
-3.26466e-18
4.06058e-19
-3.07244e-18
8.42665e-19
-2.83154e-18
1.2269e-18
-2.55153e-18
1.55492e-18
-2.24242e-18
1.82493e-18
-1.9141e-18
2.03684e-18
-1.57586e-18
2.19207e-18
-1.23602e-18
2.29321e-18
-9.01751e-19
2.34373e-18
-5.78973e-19
2.34766e-18
-2.72343e-19
2.30936e-18
1.46696e-20
2.23329e-18
2.79666e-19
2.12386e-18
5.21168e-19
1.98533e-18
7.38447e-19
1.8217e-18
9.31359e-19
1.6367e-18
1.10019e-18
1.43377e-18
1.24551e-18
1.21606e-18
1.36806e-18
9.86465e-19
1.46863e-18
7.47644e-19
1.548e-18
5.02073e-19
1.60687e-18
2.52091e-19
1.64579e-18
1.66516e-18
9.86847e-11
1.49126e-09
1.75754e-10
1.70021e-09
1.70684e-10
1.88376e-09
1.37189e-10
1.91482e-09
1.37367e-10
1.83209e-09
8.13513e-11
1.65788e-09
1.93344e-12
1.39357e-09
-6.31713e-11
1.13214e-09
-1.31635e-10
7.92847e-10
-2.48065e-10
5.12634e-10
-3.15369e-10
8.05247e-11
-2.3898e-10
-1.64598e-10
-2.58963e-10
-5.49892e-10
-2.19193e-10
-7.60966e-10
-2.96299e-10
-1.25712e-09
-3.58837e-10
-2.50783e-09
-3.66423e-10
-3.17935e-09
-2.77855e-10
-3.32723e-09
-1.91943e-10
-2.93048e-09
-2.19785e-10
-2.18633e-09
-1.98309e-10
-1.6933e-09
-1.05859e-10
-1.51897e-09
2.03395e-10
-1.84416e-09
5.94945e-10
-2.01902e-09
8.50628e-10
-2.00235e-09
1.00724e-09
-1.83879e-09
1.11891e-09
-1.63696e-09
1.13881e-09
-1.45085e-09
1.14927e-09
-1.09124e-09
1.12065e-09
-9.79224e-10
1.09222e-09
-8.63706e-10
1.21211e-09
-7.86237e-10
1.3278e-09
-6.69225e-10
1.42614e-09
-5.3866e-10
1.5256e-09
-5.12047e-10
1.60831e-09
-4.20481e-10
1.68342e-09
-2.26359e-10
1.77542e-09
-1.2761e-10
1.86801e-09
-1.0672e-11
1.88331e-09
8.64829e-11
1.94267e-09
2.20949e-10
2.04837e-09
2.56843e-10
2.14536e-09
3.08181e-10
2.17623e-09
4.051e-10
2.24794e-09
3.76303e-10
2.24514e-09
4.62452e-10
2.16255e-09
5.92199e-10
2.04403e-09
5.31954e-10
1.91878e-09
7.25928e-10
1.79795e-09
9.78698e-10
1.61181e-09
1.19617e-09
1.3317e-09
1.31494e-09
1.12311e-09
1.52088e-09
1.0007e-09
1.63676e-09
8.57702e-10
1.64608e-09
7.18323e-10
1.59333e-09
6.23622e-10
1.59757e-09
5.17602e-10
1.46441e-09
4.05614e-10
1.35444e-09
3.23323e-10
1.2876e-09
2.86752e-10
1.11485e-09
2.20342e-10
9.43217e-10
1.06922e-10
8.37529e-10
5.88936e-11
6.59437e-10
6.5683e-11
4.13347e-10
7.97361e-11
2.55961e-10
8.2001e-11
1.32506e-10
1.43276e-10
-3.28357e-11
1.50936e-10
-1.01516e-10
1.52807e-10
-2.17728e-10
2.13299e-10
-3.26647e-10
2.54004e-10
-3.24922e-10
2.40291e-10
-3.20404e-10
2.42819e-10
-3.60103e-10
2.573e-10
-3.30431e-10
2.64278e-10
-2.92756e-10
2.56541e-10
-1.31366e-10
1.90462e-10
3.84969e-11
1.30194e-10
1.05998e-10
1.12057e-10
3.29491e-10
9.17377e-16
7.53607e-10
-5.72533e-18
2.50106e-19
-5.77896e-18
-3.09647e-19
-5.82538e-18
-5.87499e-19
-5.78761e-18
-1.01072e-18
-5.64394e-18
-1.49788e-18
-5.39602e-18
-1.99639e-18
-5.05312e-18
-2.4752e-18
-4.62663e-18
-2.91462e-18
-4.12887e-18
-3.3003e-18
-3.57319e-18
-3.6207e-18
-2.97411e-18
-3.86641e-18
-2.34728e-18
-4.03047e-18
-1.70904e-18
-4.10881e-18
-1.07571e-18
-4.1007e-18
-4.62894e-19
-4.00888e-18
1.15313e-19
-3.83932e-18
6.46949e-19
-3.60084e-18
1.12268e-18
-3.30435e-18
1.53601e-18
-2.96212e-18
1.88324e-18
-2.58691e-18
2.16317e-18
-2.19114e-18
2.37668e-18
-1.78627e-18
2.52633e-18
-1.38241e-18
2.61599e-18
-9.88013e-19
2.65036e-18
-6.09888e-19
2.63467e-18
-2.53201e-19
2.57436e-18
7.83794e-20
2.47479e-18
3.82493e-19
2.34114e-18
6.57878e-19
2.17824e-18
9.04138e-19
1.99053e-18
1.12154e-18
1.78202e-18
1.31079e-18
1.55632e-18
1.47291e-18
1.31663e-18
1.60903e-18
1.06584e-18
1.72032e-18
8.0651e-19
1.80788e-18
5.40993e-19
1.87265e-18
2.71459e-19
1.9154e-18
1.93666e-18
1.30888e-10
1.36037e-09
2.41338e-10
1.58976e-09
3.36766e-10
1.78833e-09
3.47545e-10
1.90404e-09
3.23314e-10
1.85632e-09
2.95965e-10
1.68523e-09
2.36406e-10
1.45313e-09
1.36825e-10
1.23172e-09
4.01992e-11
8.89471e-10
1.14873e-11
5.41345e-10
-9.79524e-11
1.89964e-10
-7.7473e-11
-1.85078e-10
-1.10417e-10
-5.16949e-10
-9.3619e-11
-7.77765e-10
-1.03977e-10
-1.24676e-09
-2.3831e-10
-2.3735e-09
-2.94962e-10
-3.1227e-09
-3.03652e-10
-3.31854e-09
-3.29396e-10
-2.90473e-09
-4.4208e-10
-2.07364e-09
-4.00195e-10
-1.73519e-09
-1.55872e-10
-1.76329e-09
1.93452e-10
-2.19348e-09
4.81259e-10
-2.30682e-09
6.42939e-10
-2.16403e-09
7.21122e-10
-1.91698e-09
7.97232e-10
-1.71307e-09
8.18707e-10
-1.47232e-09
8.55784e-10
-1.12832e-09
8.81136e-10
-1.00457e-09
9.67042e-10
-9.49609e-10
1.05316e-09
-8.72352e-10
1.15557e-09
-7.71631e-10
1.26072e-09
-6.4381e-10
1.37243e-09
-6.23754e-10
1.41867e-09
-4.66718e-10
1.46843e-09
-2.7612e-10
1.52052e-09
-1.797e-10
1.57674e-09
-6.68834e-11
1.66949e-09
-6.26957e-12
1.79225e-09
9.81907e-11
1.89322e-09
1.55867e-10
1.94907e-09
2.52331e-10
1.95655e-09
3.97627e-10
1.94259e-09
3.90264e-10
1.91022e-09
4.94822e-10
1.88056e-09
6.21855e-10
1.78407e-09
6.28444e-10
1.60307e-09
9.06923e-10
1.3773e-09
1.20447e-09
1.25553e-09
1.31794e-09
1.16902e-09
1.40144e-09
1.0089e-09
1.68101e-09
8.32288e-10
1.81337e-09
7.29864e-10
1.7485e-09
5.73334e-10
1.74986e-09
4.62011e-10
1.70889e-09
3.52914e-10
1.5735e-09
2.36188e-10
1.47116e-09
1.95776e-10
1.32801e-09
1.50301e-10
1.16032e-09
1.30762e-10
9.62757e-10
1.67563e-10
8.00729e-10
2.16849e-10
6.10151e-10
2.10837e-10
4.19359e-10
2.31899e-10
2.34899e-10
2.44783e-10
1.19621e-10
2.20697e-10
-8.74992e-12
2.00112e-10
-8.09323e-11
1.97771e-10
-2.15387e-10
2.16214e-10
-3.45091e-10
2.85141e-10
-3.9385e-10
3.11424e-10
-3.46688e-10
3.13969e-10
-3.6265e-10
3.38838e-10
-3.553e-10
3.45562e-10
-2.99481e-10
2.76511e-10
-6.23169e-11
1.35628e-10
1.79377e-10
5.93032e-11
1.82321e-10
9.91346e-11
2.89657e-10
6.55864e-16
8.52739e-10
-5.77326e-18
3.87972e-19
-6.05608e-18
-2.71742e-20
-6.2486e-18
-3.95649e-19
-6.27477e-18
-9.84936e-19
-6.14245e-18
-1.63023e-18
-5.87483e-18
-2.26362e-18
-5.49253e-18
-2.85667e-18
-5.01231e-18
-3.39355e-18
-4.44927e-18
-3.86155e-18
-3.81891e-18
-4.24877e-18
-3.13816e-18
-4.54441e-18
-2.42562e-18
-4.73988e-18
-1.70093e-18
-4.83004e-18
-9.83883e-19
-4.81403e-18
-2.93341e-19
-4.69556e-18
3.53799e-19
-4.48267e-18
9.43438e-19
-4.18696e-18
1.4649e-18
-3.8227e-18
1.91122e-18
-3.40568e-18
2.27902e-18
-2.95208e-18
2.56803e-18
-2.47746e-18
2.78054e-18
-1.9959e-18
2.92073e-18
-1.51948e-18
2.99411e-18
-1.05811e-18
3.00705e-18
-6.19413e-19
2.96625e-18
-2.08948e-19
2.87847e-18
1.69603e-19
2.75018e-18
5.14137e-19
2.5874e-18
8.23829e-19