/*--------------------------------*- C++ -*----------------------------------*\
  =========                 |
  \\      /  F ield         | OpenFOAM: The Open Source CFD Toolbox
   \\    /   O peration     | Website:  https://openfoam.org
    \\  /    A nd           | Version:  6
     \\/     M anipulation  |
\*---------------------------------------------------------------------------*/
FoamFile
{
    version     2.0;
    format      ascii;
    class       volVectorField;
    location    "3850";
    object      U;
}
// * * * * * * * * * * * * * * * * * * * * * * * * * * * * * * * * * * * * * //

dimensions      [0 1 -1 0 0 0 0];

internalField   nonuniform List<vector> 
4800
(
(-0.000138816 0 -1.75009e-05)
(-0.000214932 0 -0.000137329)
(-0.000204591 0 -0.000102617)
(-0.000443091 0 0.000144188)
(-0.000644188 0 8.91501e-05)
(-0.000799358 0 -5.83762e-05)
(-0.000954184 0 0.000187602)
(-0.00110667 0 1.89459e-05)
(-0.00121453 0 5.17087e-05)
(-0.00130226 0 3.03755e-05)
(-0.00136476 0 -6.14701e-05)
(-0.0013979 0 -4.74741e-05)
(-0.00135876 0 -0.000155769)
(-0.00116387 0 -0.000231931)
(-0.00103 0 -0.000102705)
(-0.000859547 0 -0.000106173)
(-0.000631269 0 -0.000207994)
(-0.00046263 0 -3.88819e-05)
(-0.000245818 0 -0.00011032)
(1.23535e-05 0 -0.000184045)
(0.000261172 0 -0.000237365)
(0.000475025 0 -0.000143442)
(0.000599195 0 -8.2597e-05)
(0.000696934 0 -3.7547e-05)
(0.000802209 0 -2.51111e-05)
(0.000885731 0 3.6043e-05)
(0.00091524 0 -4.3824e-05)
(0.000954942 0 -4.361e-05)
(0.00103049 0 7.57535e-06)
(0.00112372 0 3.09573e-05)
(0.00113313 0 3.44945e-05)
(0.00113059 0 3.18868e-05)
(0.00113117 0 2.0316e-05)
(0.00113541 0 1.2784e-05)
(0.00116706 0 2.60119e-05)
(0.00122009 0 -7.07108e-06)
(0.00122431 0 -1.89689e-05)
(0.00123401 0 -1.79414e-05)
(0.00123591 0 -2.24508e-05)
(0.00121096 0 -6.94272e-06)
(0.00114673 0 -2.38067e-05)
(0.00105952 0 -9.78779e-05)
(0.00098774 0 -0.000103013)
(0.000913865 0 -5.06693e-05)
(0.000822076 0 -5.30672e-05)
(0.000742099 0 3.27794e-06)
(0.000685409 0 2.54337e-05)
(0.000647932 0 -7.37384e-07)
(0.000623214 0 2.59382e-05)
(0.000600991 0 1.96406e-05)
(0.000580305 0 -6.52736e-05)
(0.000534454 0 0.000116479)
(0.000434271 0 -6.79499e-05)
(0.000309981 0 3.43982e-05)
(0.000248837 0 -0.000115412)
(0.00024824 0 -0.000167856)
(0.000249354 0 -0.000170368)
(0.000256885 0 -0.000122935)
(0.000231676 0 -4.22859e-05)
(0.000147936 0 -4.72532e-05)
(7.59922e-05 0 -2.12993e-05)
(4.56161e-05 0 -1.87933e-05)
(8.48238e-06 0 -2.42617e-06)
(-2.23059e-05 0 -2.33703e-05)
(-5.17014e-05 0 -3.60432e-05)
(-7.97691e-05 0 -3.15912e-05)
(-8.77016e-05 0 -4.27463e-05)
(-7.02196e-05 0 -3.92403e-05)
(-5.80148e-05 0 -3.56712e-05)
(-4.11347e-05 0 -3.97164e-05)
(-3.88175e-05 0 -5.44992e-05)
(-2.11506e-05 0 -2.84413e-05)
(-3.59089e-05 0 -5.30498e-06)
(-6.31519e-05 0 2.97744e-05)
(-0.000140958 0 2.79771e-05)
(-0.000318462 0 -9.21339e-05)
(-0.000381614 0 -0.000186587)
(-0.000430106 0 -0.000216891)
(-0.000480069 0 -0.000220746)
(-0.000530679 0 -0.000221363)
(5.38135e-06 0 -0.000160356)
(-9.65814e-13 0 -1.84723e-14)
(-2.77273e-12 0 -2.48238e-14)
(-1.82204e-12 0 -2.73391e-14)
(-1.76268e-12 0 -3.12526e-14)
(-1.69404e-12 0 -3.65755e-14)
(-1.61399e-12 0 -4.26523e-14)
(-1.5216e-12 0 -4.89095e-14)
(-1.41694e-12 0 -5.49264e-14)
(-1.30079e-12 0 -6.03883e-14)
(-1.17453e-12 0 -6.5054e-14)
(-1.03992e-12 0 -6.87393e-14)
(-8.99058e-13 0 -7.13116e-14)
(-7.54253e-13 0 -7.26874e-14)
(-6.07924e-13 0 -7.28313e-14)
(-4.62513e-13 0 -7.17528e-14)
(-3.20402e-13 0 -6.95028e-14)
(-1.83835e-13 0 -6.61682e-14)
(-5.48572e-14 0 -6.18653e-14)
(6.47365e-14 0 -5.67322e-14)
(1.73435e-13 0 -5.09215e-14)
(2.70035e-13 0 -4.45928e-14)
(3.53647e-13 0 -3.79059e-14)
(4.2369e-13 0 -3.10154e-14)
(4.79879e-13 0 -2.4065e-14)
(5.222e-13 0 -1.71843e-14)
(5.50877e-13 0 -1.04862e-14)
(5.66348e-13 0 -4.06575e-15)
(5.69225e-13 0 1.9996e-15)
(5.60265e-13 0 7.64944e-15)
(5.40339e-13 0 1.28387e-14)
(5.104e-13 0 1.75357e-14)
(4.71459e-13 0 2.17201e-14)
(4.24569e-13 0 2.53807e-14)
(3.708e-13 0 2.85126e-14)
(3.11229e-13 0 3.11157e-14)
(2.46931e-13 0 3.3192e-14)
(1.78975e-13 0 3.4745e-14)
(1.08417e-13 0 3.57768e-14)
(3.63099e-14 0 3.62865e-14)
(-6.3764e-05 0 0.000246766)
(-0.000319541 0 0.000227006)
(-0.000489357 0 0.000118521)
(-0.000509932 0 6.74979e-05)
(-0.000601116 0 0.00019882)
(-0.000763972 0 0.000181971)
(-0.000886501 0 0.00021356)
(-0.00101231 0 0.000205522)
(-0.00111307 0 0.000150316)
(-0.00117279 0 9.05016e-05)
(-0.00121813 0 4.2828e-05)
(-0.00124277 0 4.03929e-07)
(-0.00124483 0 -6.221e-05)
(-0.00106985 0 -0.000359674)
(-0.000911383 0 -0.000281472)
(-0.000768954 0 -0.0002358)
(-0.000556784 0 -0.000375004)
(-0.000433242 0 -0.000378833)
(-0.000149286 0 -0.000500537)
(0.000107707 0 -0.000432616)
(0.000282608 0 -0.000314076)
(0.000393352 0 -0.000274102)
(0.000542339 0 -0.000175927)
(0.000647901 0 -0.000163479)
(0.000764193 0 -8.5225e-05)
(0.000848979 0 -0.000133281)
(0.000932145 0 -8.55535e-05)
(0.000988293 0 -0.000122389)
(0.00106684 0 -0.000104722)
(0.00114734 0 -7.39603e-05)
(0.00114972 0 -7.28337e-05)
(0.00114442 0 -3.88404e-05)
(0.00114908 0 -1.5998e-05)
(0.00116748 0 -7.49981e-05)
(0.00121107 0 -8.43568e-05)
(0.00122684 0 -3.86475e-05)
(0.00122247 0 -3.57983e-05)
(0.00123472 0 -1.36567e-05)
(0.00124052 0 6.87837e-05)
(0.00121837 0 8.98577e-05)
(0.00116985 0 0.00013603)
(0.00112237 0 0.000175481)
(0.00105808 0 0.000185496)
(0.000946107 0 0.000160133)
(0.000822195 0 0.000131205)
(0.000755719 0 9.29022e-05)
(0.00072917 0 5.87693e-05)
(0.000713452 0 4.47869e-05)
(0.000700546 0 2.73668e-05)
(0.000696159 0 3.20164e-05)
(0.000684171 0 7.1788e-05)
(0.000652366 0 -3.50699e-06)
(0.000635651 0 6.36055e-05)
(0.000628199 0 8.572e-05)
(0.000534478 0 0.000183111)
(0.000304356 0 0.000262154)
(0.000315224 0 0.000133913)
(0.000265727 0 8.73605e-05)
(0.000169754 0 8.23136e-05)
(0.000107479 0 0.000113537)
(6.08695e-05 0 9.29532e-05)
(1.76029e-05 0 7.15047e-05)
(-1.19068e-05 0 5.33318e-05)
(-3.95038e-05 0 5.99292e-05)
(-4.81057e-05 0 6.80787e-05)
(-8.2132e-05 0 2.41493e-05)
(-9.4231e-05 0 -1.0673e-05)
(-7.44478e-05 0 -9.25314e-06)
(-6.72206e-05 0 2.16099e-06)
(-5.23939e-05 0 1.18937e-05)
(-6.54177e-05 0 -2.53947e-05)
(-4.50139e-05 0 1.94299e-05)
(-3.97017e-05 0 2.76294e-05)
(-1.58635e-05 0 5.98891e-05)
(4.05555e-05 0 0.000126768)
(6.89091e-06 0 0.000123228)
(6.25388e-06 0 9.82865e-05)
(-2.78977e-05 0 4.03143e-05)
(0.000425933 0 3.55626e-05)
(-0.000378651 0 -0.000130611)
(5.96652e-06 0 -9.10735e-05)
(-9.69528e-13 0 -7.69583e-14)
(-2.78782e-12 0 -7.72189e-14)
(-1.82837e-12 0 -8.02899e-14)
(-1.77189e-12 0 -9.20149e-14)
(-1.70544e-12 0 -1.08651e-13)
(-1.62633e-12 0 -1.27454e-13)
(-1.53388e-12 0 -1.46649e-13)
(-1.42842e-12 0 -1.65015e-13)
(-1.31092e-12 0 -1.81643e-13)
(-1.18288e-12 0 -1.95824e-13)
(-1.04618e-12 0 -2.07009e-13)
(-9.03006e-13 0 -2.14802e-13)
(-7.55773e-13 0 -2.18954e-13)
(-6.06989e-13 0 -2.1936e-13)
(-4.59184e-13 0 -2.16055e-13)
(-3.14817e-13 0 -2.09197e-13)
(-1.76198e-13 0 -1.99058e-13)
(-4.54213e-14 0 -1.85995e-13)
(7.56802e-14 0 -1.70431e-13)
(1.85575e-13 0 -1.52836e-13)
(2.83051e-13 0 -1.33695e-13)
(3.67224e-13 0 -1.13496e-13)
(4.37531e-13 0 -9.27076e-14)
(4.93711e-13 0 -7.17628e-14)
(5.35778e-13 0 -5.10514e-14)
(5.63995e-13 0 -3.09105e-14)
(5.78833e-13 0 -1.16226e-14)
(5.8094e-13 0 6.58393e-15)
(5.71104e-13 0 2.3532e-14)
(5.50225e-13 0 3.90907e-14)
(5.19281e-13 0 5.31689e-14)
(4.79304e-13 0 6.57087e-14)
(4.31362e-13 0 7.66778e-14)
(3.76535e-13 0 8.60629e-14)
(3.15908e-13 0 9.38635e-14)
(2.50561e-13 0 1.00086e-13)
(1.8156e-13 0 1.0474e-13)
(1.09959e-13 0 1.07835e-13)
(3.68196e-14 0 1.09375e-13)
(-2.72701e-05 0 0.000366946)
(-0.000108827 0 0.000405624)
(-0.000303239 0 0.000462464)
(-0.000510638 0 0.000320976)
(-0.000601098 0 0.000201003)
(-0.00063275 0 0.000412412)
(-0.000803582 0 0.000258693)
(-0.00088426 0 0.000221243)
(-0.000913794 0 0.000229368)
(-0.000909519 0 0.00015769)
(-0.000905881 0 0.000112669)
(-0.000940023 0 -5.59359e-05)
(-0.000957075 0 -0.000114978)
(-0.000938025 0 -0.000202069)
(-0.000632565 0 -0.000715341)
(-0.000724507 0 -0.000359741)
(-0.00038604 0 -0.00062869)
(-0.00025256 0 -0.00062266)
(-0.000122414 0 -0.000603428)
(4.65432e-05 0 -0.000555643)
(8.40255e-05 0 -0.000532971)
(0.000306465 0 -0.000449217)
(0.000414492 0 -0.000347329)
(0.000492948 0 -0.000271972)
(0.000570776 0 -0.000221712)
(0.000653646 0 -0.000217078)
(0.000748085 0 -0.000167122)
(0.000801822 0 -0.000277556)
(0.000926337 0 -0.000254861)
(0.00104432 0 -7.57729e-05)
(0.00109924 0 -7.24134e-06)
(0.00114171 0 -1.45512e-05)
(0.00118769 0 -1.26547e-06)
(0.00122001 0 -1.47019e-05)
(0.00121478 0 -2.56562e-05)
(0.00119149 0 -1.90957e-05)
(0.00117614 0 -5.11256e-05)
(0.00117765 0 -7.58354e-05)
(0.00117951 0 5.10393e-05)
(0.00117242 0 6.21666e-05)
(0.00114659 0 0.000104085)
(0.00110444 0 0.000160352)
(0.00103878 0 0.000223614)
(0.00095602 0 0.000216508)
(0.000895974 0 0.000173155)
(0.000866229 0 0.000149265)
(0.000838144 0 0.000113964)
(0.000820751 0 4.73439e-05)
(0.000814832 0 -5.9747e-06)
(0.000806191 0 8.04213e-06)
(0.000779364 0 7.41424e-05)
(0.000749811 0 2.40338e-05)
(0.000727906 0 0.00010554)
(0.000669572 0 0.000270505)
(0.000649533 0 0.000208059)
(0.000601841 0 -5.25885e-05)
(0.000423034 0 7.30121e-05)
(0.000211036 0 0.000185979)
(0.000139649 0 0.000180529)
(0.00010941 0 0.000161413)
(6.52695e-05 0 0.000139723)
(2.49036e-05 0 0.000104274)
(-1.47248e-05 0 7.05995e-05)
(-3.86323e-05 0 6.06844e-05)
(-4.64147e-05 0 5.78574e-05)
(-6.59178e-05 0 4.22547e-05)
(-7.42003e-05 0 -8.5947e-06)
(-7.03265e-05 0 -3.17411e-05)
(-7.30963e-05 0 -1.8819e-05)
(-6.67382e-05 0 -9.22499e-06)
(-6.58046e-05 0 -3.16642e-05)
(-5.22545e-05 0 -3.55027e-05)
(-2.72817e-05 0 1.03452e-05)
(1.37232e-05 0 4.23269e-05)
(7.51766e-05 0 8.51017e-05)
(0.000116262 0 0.000110041)
(0.000158985 0 6.06956e-05)
(0.000112571 0 -3.22708e-06)
(0.00022064 0 -0.000113005)
(-0.000411854 0 -0.00013483)
(6.83972e-06 0 -6.88844e-05)
(-1.06944e-12 0 -1.59825e-13)
(-2.78246e-12 0 -1.2079e-13)
(-1.83657e-12 0 -1.24251e-13)
(-1.79098e-12 0 -1.47625e-13)
(-1.72948e-12 0 -1.78354e-13)
(-1.65199e-12 0 -2.1166e-13)
(-1.55916e-12 0 -2.45004e-13)
(-1.45193e-12 0 -2.76625e-13)
(-1.3316e-12 0 -3.05123e-13)
(-1.19989e-12 0 -3.29359e-13)
(-1.0589e-12 0 -3.48432e-13)
(-9.11002e-13 0 -3.61685e-13)
(-7.58811e-13 0 -3.68706e-13)
(-6.05024e-13 0 -3.69331e-13)
(-4.5235e-13 0 -3.63627e-13)
(-3.03405e-13 0 -3.51882e-13)
(-1.60632e-13 0 -3.34568e-13)
(-2.62307e-14 0 -3.12311e-13)
(9.78951e-14 0 -2.85846e-13)
(2.10171e-13 0 -2.55981e-13)
(3.09375e-13 0 -2.23551e-13)
(3.94634e-13 0 -1.8939e-13)
(4.65424e-13 0 -1.54292e-13)
(5.21536e-13 0 -1.18992e-13)
(5.63052e-13 0 -8.4143e-14)
(5.90306e-13 0 -5.03086e-14)
(6.03842e-13 0 -1.7956e-14)
(6.04379e-13 0 1.254e-14)
(5.92772e-13 0 4.0892e-14)
(5.69976e-13 0 6.689e-14)
(5.37018e-13 0 9.03906e-14)
(4.94968e-13 0 1.11305e-13)
(4.44923e-13 0 1.29586e-13)
(3.87985e-13 0 1.45216e-13)
(3.25252e-13 0 1.582e-13)
(2.57808e-13 0 1.68552e-13)
(1.86724e-13 0 1.76292e-13)
(1.13052e-13 0 1.81439e-13)
(3.78494e-14 0 1.84008e-13)
(-6.61027e-05 0 0.000451309)
(-0.000185653 0 0.000449982)
(-0.000276272 0 0.000506961)
(-0.000284507 0 0.000533853)
(-0.000517734 0 0.000382967)
(-0.000589087 0 0.000416046)
(-0.000658895 0 0.000402834)
(-0.000668399 0 0.000397613)
(-0.000701591 0 0.000284583)
(-0.000711823 0 5.71018e-05)
(-0.000673986 0 3.58623e-05)
(-0.000670998 0 9.85274e-06)
(-0.000691419 0 -0.000167396)
(-0.000687038 0 -0.000371138)
(-0.000734692 0 -0.000372293)
(-0.000576551 0 -0.000579102)
(-0.000301578 0 -0.000741304)
(-6.7853e-05 0 -0.000768391)
(-6.56147e-05 0 -0.000700094)
(0.000189194 0 -0.000628903)
(0.000151413 0 -0.000577269)
(0.000282032 0 -0.000487225)
(0.000217651 0 -0.000436166)
(0.000387577 0 -0.000270936)
(0.000404539 0 -0.000277864)
(0.000499326 0 -0.000232262)
(0.000568979 0 -0.000287598)
(0.000657433 0 -0.000336199)
(0.000786408 0 -0.000239523)
(0.000851919 0 -0.000164293)
(0.000899254 0 -0.000144014)
(0.00098428 0 -7.11804e-05)
(0.00108998 0 -2.05494e-05)
(0.00111054 0 -6.71438e-05)
(0.00110778 0 -6.18321e-05)
(0.00111245 0 -4.02647e-05)
(0.00111188 0 -1.49331e-05)
(0.00110617 0 1.06207e-05)
(0.00110901 0 5.19428e-05)
(0.0011077 0 0.000114746)
(0.00109968 0 0.000162336)
(0.00108908 0 0.000186882)
(0.00104184 0 0.000277539)
(0.00101491 0 0.000266556)
(0.00102875 0 0.00019386)
(0.0010197 0 0.000173672)
(0.000996494 0 0.000115457)
(0.000941082 0 0.000126195)
(0.000893289 0 9.22663e-05)
(0.000888851 0 4.41725e-05)
(0.000864954 0 0.000108513)
(0.000812484 0 0.000122982)
(0.000716532 0 0.000181512)
(0.000653039 0 0.000271575)
(0.000615556 0 0.000311203)
(0.000450229 0 0.00042991)
(0.000358475 0 0.000310386)
(0.000345946 0 0.000135606)
(0.000317728 0 0.000103545)
(0.000186739 0 0.000179599)
(0.00010884 0 0.000190607)
(4.6915e-05 0 0.000159221)
(4.55412e-06 0 0.000110356)
(-1.01763e-05 0 7.89154e-05)
(-2.84849e-05 0 5.372e-05)
(-5.41877e-05 0 4.15261e-05)
(-6.23316e-05 0 1.55446e-05)
(-8.3374e-05 0 -2.5816e-05)
(-7.2557e-05 0 -3.37748e-05)
(-6.56706e-05 0 -3.33483e-05)
(-6.13644e-05 0 -4.73617e-05)
(-3.65536e-05 0 -4.26203e-05)
(-1.34148e-05 0 -2.81315e-05)
(1.63993e-05 0 -2.22288e-05)
(6.42618e-05 0 -1.37834e-05)
(0.00011178 0 1.21664e-05)
(0.00016404 0 2.76795e-06)
(9.90413e-05 0 -1.19517e-05)
(0.000437174 0 1.59909e-06)
(-0.000499242 0 -0.000109924)
(7.24464e-06 0 -6.82578e-06)
(-1.10304e-12 0 -1.45346e-14)
(-2.74188e-12 0 -1.0224e-13)
(-1.85486e-12 0 -1.48238e-13)
(-1.82594e-12 0 -1.96003e-13)
(-1.76948e-12 0 -2.45654e-13)
(-1.69298e-12 0 -2.95988e-13)
(-1.59884e-12 0 -3.45228e-13)
(-1.48854e-12 0 -3.91483e-13)
(-1.36366e-12 0 -4.32972e-13)
(-1.22619e-12 0 -4.68146e-13)
(-1.0785e-12 0 -4.95753e-13)
(-9.2328e-13 0 -5.14871e-13)
(-7.63418e-13 0 -5.24931e-13)
(-6.0191e-13 0 -5.25713e-13)
(-4.41736e-13 0 -5.1734e-13)
(-2.85759e-13 0 -5.0025e-13)
(-1.36627e-13 0 -4.75154e-13)
(3.30062e-15 0 -4.4298e-13)
(1.32011e-13 0 -4.04819e-13)
(2.4787e-13 0 -3.61855e-13)
(3.49642e-13 0 -3.1531e-13)
(4.36483e-13 0 -2.66392e-13)
(5.07929e-13 0 -2.16247e-13)
(5.63859e-13 0 -1.65925e-13)
(6.04462e-13 0 -1.16356e-13)
(6.30182e-13 0 -6.83331e-14)
(6.41682e-13 0 -2.25105e-14)
(6.39788e-13 0 2.05949e-14)
(6.25454e-13 0 6.05917e-14)
(5.99724e-13 0 9.71997e-14)
(5.63696e-13 0 1.30233e-13)
(5.18499e-13 0 1.59582e-13)
(4.65273e-13 0 1.85197e-13)
(4.05149e-13 0 2.07067e-13)
(3.39244e-13 0 2.25212e-13)
(2.68653e-13 0 2.39663e-13)
(1.94447e-13 0 2.50459e-13)
(1.17675e-13 0 2.57633e-13)
(3.93887e-14 0 2.61213e-13)
(-1.39796e-05 0 0.000533182)
(6.30562e-06 0 0.00055129)
(-9.71992e-05 0 0.00058991)
(-0.000190348 0 0.000585444)
(-0.000398281 0 0.000488123)
(-0.000482984 0 0.000474621)
(-0.000506031 0 0.000465091)
(-0.000616958 0 0.000194872)
(-0.000549608 0 0.00017188)
(-0.000544641 0 0.000164826)
(-0.000560515 0 7.5407e-05)
(-0.0005156 0 -3.71797e-05)
(-0.000506376 0 -7.31411e-05)
(-0.000530045 0 -0.000326855)
(-0.00055225 0 -0.000564379)
(-0.000301071 0 -0.000837671)
(-0.000111415 0 -0.000929063)
(4.20974e-05 0 -0.000896086)
(0.000159695 0 -0.000788954)
(0.000159269 0 -0.000666251)
(0.00018852 0 -0.000585177)
(0.000265405 0 -0.000494818)
(0.000156586 0 -0.000421749)
(0.000275359 0 -0.000340233)
(0.000317841 0 -0.000331716)
(0.000430425 0 -0.00029216)
(0.00053142 0 -0.000300394)
(0.000599851 0 -0.000387159)
(0.000695524 0 -0.000346844)
(0.000773162 0 -0.000207328)
(0.000809604 0 -0.00020662)
(0.00088354 0 -0.000213857)
(0.000980452 0 -0.000125269)
(0.000993951 0 -7.67608e-05)
(0.000996222 0 -6.20212e-05)
(0.00100775 0 -4.46719e-06)
(0.0010202 0 -5.33195e-05)
(0.0010189 0 -3.58575e-05)
(0.00101587 0 5.98045e-05)
(0.0010198 0 8.65353e-05)
(0.00103172 0 0.000160792)
(0.00104377 0 0.000258758)
(0.00105784 0 0.000281402)
(0.00107036 0 0.000254061)
(0.00107314 0 0.000235411)
(0.00107035 0 0.000193495)
(0.00105939 0 0.000155518)
(0.00102935 0 0.000122172)
(0.000955852 0 0.000134122)
(0.000908249 0 0.00013836)
(0.000895462 0 0.000122941)
(0.000844074 0 0.000150879)
(0.000782274 0 8.03237e-05)
(0.000651864 0 0.000287043)
(0.000581196 0 0.000398266)
(0.000618013 0 0.000259125)
(0.000359916 0 0.00040184)
(0.00021716 0 0.000411532)
(0.000217201 0 0.000304751)
(0.000155859 0 0.000270533)
(0.000116125 0 0.000263878)
(8.39686e-05 0 0.000214881)
(3.45136e-05 0 0.000155934)
(-3.71903e-06 0 0.000108441)
(-5.18504e-05 0 6.63348e-05)
(-3.30708e-05 0 6.60636e-05)
(-6.59257e-05 0 2.18785e-05)
(-7.46222e-05 0 -1.45393e-05)
(-5.65751e-05 0 -3.63525e-05)
(-4.47732e-05 0 -3.01326e-05)
(-5.27179e-05 0 -4.97724e-05)
(-2.32063e-05 0 -4.14155e-05)
(-4.08047e-06 0 -4.483e-05)
(3.17665e-05 0 -2.03851e-05)
(5.02978e-05 0 -7.11967e-05)
(9.76304e-05 0 -2.55339e-05)
(0.000129382 0 -1.73417e-05)
(5.61513e-05 0 -8.59743e-06)
(0.000359817 0 -1.32154e-06)
(-0.00032028 0 -1.31981e-05)
(6.6487e-06 0 5.49892e-05)
(-1.06135e-12 0 1.44011e-13)
(-2.88119e-12 0 -8.28829e-14)
(-1.92997e-12 0 -1.7037e-13)
(-1.88835e-12 0 -2.42594e-13)
(-1.82947e-12 0 -3.12396e-13)
(-1.75157e-12 0 -3.81513e-13)
(-1.65466e-12 0 -4.48514e-13)
(-1.53968e-12 0 -5.11156e-13)
(-1.40827e-12 0 -5.67158e-13)
(-1.26267e-12 0 -6.14502e-13)
(-1.10562e-12 0 -6.51547e-13)
(-9.4018e-13 0 -6.77095e-13)
(-7.69652e-13 0 -6.90413e-13)
(-5.97434e-13 0 -6.91241e-13)
(-4.26888e-13 0 -6.7978e-13)
(-2.61219e-13 0 -6.56656e-13)
(-1.03362e-13 0 -6.22865e-13)
(4.4104e-14 0 -5.797e-13)
(1.7902e-13 0 -5.28665e-13)
(2.9968e-13 0 -4.71382e-13)
(4.04838e-13 0 -4.09515e-13)
(4.93698e-13 0 -3.44689e-13)
(5.65891e-13 0 -2.78437e-13)
(6.21427e-13 0 -2.12151e-13)
(6.60643e-13 0 -1.4705e-13)
(6.84151e-13 0 -8.41648e-14)
(6.9277e-13 0 -2.4332e-14)
(6.87482e-13 0 3.17961e-14)
(6.69377e-13 0 8.37366e-14)
(6.39617e-13 0 1.31154e-13)
(5.994e-13 0 1.73837e-13)
(5.49932e-13 0 2.11674e-13)
(4.92408e-13 0 2.44625e-13)
(4.28e-13 0 2.72707e-13)
(3.57848e-13 0 2.95965e-13)
(2.83055e-13 0 3.14462e-13)
(2.04694e-13 0 3.28265e-13)
(1.23806e-13 0 3.37429e-13)
(4.14292e-14 0 3.42e-13)
(-6.40479e-06 0 0.000558771)
(-1.15796e-05 0 0.000602187)
(-6.03964e-05 0 0.000657398)
(-0.000130663 0 0.000662888)
(-0.000231733 0 0.000598179)
(-0.000284664 0 0.000574662)
(-0.000344009 0 0.000517432)
(-0.000317302 0 0.000446486)
(-0.000371654 0 0.000269879)
(-0.000429048 0 9.84138e-05)
(-0.000425764 0 7.16916e-05)
(-0.000402603 0 -0.000109804)
(-0.000374692 0 -0.000153072)
(-0.000408651 0 -0.000304394)
(-0.000458974 0 -0.000568169)
(-0.000195044 0 -0.000959926)
(-0.000163335 0 -0.00107178)
(-3.35559e-05 0 -0.00106955)
(0.000105774 0 -0.000918068)
(0.000135996 0 -0.000731872)
(0.000201722 0 -0.000580188)
(0.000183038 0 -0.000499313)
(0.000196904 0 -0.000406629)
(0.000254637 0 -0.000369364)
(0.000241696 0 -0.00045061)
(0.000384767 0 -0.000489559)
(0.000469662 0 -0.000528145)
(0.000550832 0 -0.000522051)
(0.000646828 0 -0.0003863)
(0.000711014 0 -0.000278487)
(0.000739708 0 -0.000318307)
(0.000843289 0 -0.000238013)
(0.00090306 0 -0.000125209)
(0.000901329 0 -9.74484e-05)
(0.000907668 0 -6.82322e-05)
(0.000928735 0 -5.57745e-05)
(0.00095953 0 -1.38838e-05)
(0.0009524 0 -4.18503e-06)
(0.000929764 0 5.48723e-05)
(0.000932178 0 7.03449e-05)
(0.000943496 0 0.000154504)
(0.000969316 0 0.000208607)
(0.000993714 0 0.000289585)
(0.00103018 0 0.000227591)
(0.00102911 0 0.00020866)
(0.00103377 0 0.000175279)
(0.00103506 0 0.000151405)
(0.00102162 0 0.000139362)
(0.000993886 0 0.000110544)
(0.000920793 0 0.000208608)
(0.000820268 0 0.00034428)
(0.000784687 0 0.000325436)
(0.000701132 0 0.000355364)
(0.00060739 0 0.000408967)
(0.000556212 0 0.000458723)
(0.000428114 0 0.000546225)
(0.000578848 0 0.000292545)
(0.00049209 0 0.00028624)
(0.000239403 0 0.000346168)
(0.000140916 0 0.000343831)
(0.000139783 0 0.000310376)
(9.88865e-05 0 0.000251712)
(5.54051e-05 0 0.000197921)
(3.01702e-05 0 0.000165772)
(-7.78292e-05 0 7.63875e-05)
(-2.50018e-05 0 7.32203e-05)
(-3.21311e-05 0 6.01062e-05)
(-6.7211e-05 0 -1.57224e-06)
(-6.45395e-05 0 -3.96192e-05)
(-5.54235e-05 0 -5.45693e-05)
(-5.04143e-05 0 -7.04482e-05)
(-3.18955e-05 0 -7.97113e-05)
(-1.35241e-05 0 -8.28135e-05)
(7.95261e-06 0 -0.000100211)
(4.6936e-05 0 -7.41129e-05)
(7.19362e-05 0 -5.79823e-05)
(0.000104026 0 -4.23457e-05)
(1.42824e-05 0 -3.31913e-05)
(0.000466231 0 -3.64002e-05)
(-0.000439383 0 4.46896e-05)
(6.59803e-06 0 0.000137126)
(-1.113e-12 0 1.24405e-14)
(-2.99047e-12 0 -1.3258e-13)
(-2.01421e-12 0 -2.07737e-13)
(-1.96792e-12 0 -2.91761e-13)
(-1.9084e-12 0 -3.79992e-13)
(-1.8291e-12 0 -4.69285e-13)
(-1.72849e-12 0 -5.56256e-13)
(-1.60718e-12 0 -6.3753e-13)
(-1.467e-12 0 -7.10035e-13)
(-1.31058e-12 0 -7.71159e-13)
(-1.1411e-12 0 -8.18822e-13)
(-9.62146e-13 0 -8.51522e-13)
(-7.77565e-13 0 -8.68361e-13)
(-5.91277e-13 0 -8.69049e-13)
(-4.0715e-13 0 -8.53897e-13)
(-2.28843e-13 0 -8.23771e-13)
(-5.96711e-14 0 -7.8002e-13)
(9.75009e-14 0 -7.2438e-13)
(2.40328e-13 0 -6.58853e-13)
(3.6702e-13 0 -5.85587e-13)
(4.76335e-13 0 -5.0676e-13)
(5.67561e-13 0 -4.2448e-13)
(6.40467e-13 0 -3.40713e-13)
(6.95246e-13 0 -2.57224e-13)
(7.32448e-13 0 -1.75539e-13)
(7.52901e-13 0 -9.69294e-14)
(7.57643e-13 0 -2.24104e-14)
(7.47857e-13 0 4.72448e-14)
(7.24812e-13 0 1.11481e-13)
(6.89825e-13 0 1.6993e-13)
(6.44215e-13 0 2.2238e-13)
(5.89287e-13 0 2.68739e-13)
(5.26306e-13 0 3.09005e-13)
(4.56488e-13 0 3.43237e-13)
(3.81e-13 0 3.7153e-13)
(3.00953e-13 0 3.93991e-13)
(2.17414e-13 0 4.10728e-13)
(1.31411e-13 0 4.2183e-13)
(4.39597e-14 0 4.27364e-13)
(-2.87847e-05 0 0.000582598)
(-0.000105601 0 0.000642345)
(-0.000287011 0 0.00068439)
(-0.000146579 0 0.000751932)
(-0.000238518 0 0.00065802)
(-0.000268428 0 0.000581353)
(-0.000376633 0 0.000448715)
(-0.00036921 0 0.000315716)
(-0.000319414 0 0.000216973)
(-0.000287289 0 0.000153985)
(-0.000297615 0 6.32672e-05)
(-0.000315422 0 -3.02533e-05)
(-0.000295737 0 -0.000106864)
(-0.000184866 0 -0.000407437)
(-0.000338104 0 -0.000555106)
(-0.000262416 0 -0.00100988)
(-0.000240796 0 -0.00118408)
(-0.000138877 0 -0.0011957)
(-1.71676e-05 0 -0.00104879)
(5.35548e-05 0 -0.0008388)
(0.000171346 0 -0.000614353)
(0.000146878 0 -0.000494138)
(0.000126645 0 -0.000484972)
(0.000271285 0 -0.00046984)
(0.000431712 0 -0.000470943)
(0.000489158 0 -0.000565683)
(0.000588787 0 -0.000531319)
(0.000579956 0 -0.000536394)
(0.000597037 0 -0.000493739)
(0.000672492 0 -0.000351873)
(0.000625519 0 -0.000459601)
(0.000745714 0 -0.000223872)
(0.000758165 0 -0.000157249)
(0.000777594 0 -0.000103709)
(0.000804793 0 -0.000100294)
(0.000854874 0 -5.76664e-05)
(0.000884109 0 -2.12641e-05)
(0.000873607 0 -2.27634e-05)
(0.000853068 0 4.45709e-05)
(0.000855943 0 7.1254e-05)
(0.00087168 0 0.000103463)
(0.00088699 0 0.000151714)
(0.000908868 0 0.000202048)
(0.000940879 0 0.000225905)
(0.000974689 0 0.000186918)
(0.000977653 0 0.000168533)
(0.000959097 0 0.000215368)
(0.000955209 0 0.000176893)
(0.000952904 0 0.000125853)
(0.000921997 0 9.50791e-05)
(0.000867872 0 0.000126316)
(0.000797392 0 0.000252234)
(0.000692206 0 0.000364459)
(0.000586278 0 0.000461449)
(0.00050766 0 0.000512332)
(0.000461585 0 0.000517086)
(0.000312317 0 0.00057833)
(0.000372127 0 0.000474296)
(0.000257655 0 0.000417989)
(0.00019488 0 0.00038312)
(0.000141065 0 0.00034476)
(9.52467e-05 0 0.000276592)
(6.56155e-05 0 0.000230634)
(3.09403e-05 0 0.000203865)
(-6.84927e-05 0 0.000112755)
(1.91018e-06 0 8.17886e-05)
(-4.27771e-05 0 4.08665e-05)
(-4.6897e-05 0 6.8938e-06)
(-5.99754e-05 0 -4.57215e-05)
(-2.8632e-05 0 -6.3673e-05)
(-1.13974e-05 0 -7.02867e-05)
(7.90033e-06 0 -7.08173e-05)
(2.48409e-05 0 -7.91094e-05)
(3.56018e-05 0 -0.000101041)
(5.72437e-05 0 -9.6607e-05)
(6.7868e-05 0 -8.32633e-05)
(8.9065e-05 0 -5.09474e-05)
(1.10955e-06 0 -3.85519e-05)
(0.000257234 0 4.60615e-06)
(-0.000524755 0 0.00010792)
(7.51515e-06 0 0.000198854)
(-1.28695e-12 0 3.35188e-14)
(-3.00223e-12 0 -1.51762e-13)
(-2.08881e-12 0 -2.3626e-13)
(-2.06057e-12 0 -3.36929e-13)
(-2.00699e-12 0 -4.46732e-13)
(-1.92783e-12 0 -5.59542e-13)
(-1.8229e-12 0 -6.69815e-13)
(-1.69346e-12 0 -7.72755e-13)
(-1.5419e-12 0 -8.64339e-13)
(-1.37146e-12 0 -9.41289e-13)
(-1.18599e-12 0 -1.00105e-12)
(-9.89719e-13 0 -1.04178e-12)
(-7.87179e-13 0 -1.06243e-12)
(-5.8297e-13 0 -1.06268e-12)
(-3.8161e-13 0 -1.043e-12)
(-1.87342e-13 0 -1.00455e-12)
(-3.9707e-15 0 -9.49144e-13)
(1.65271e-13 0 -8.79054e-13)
(3.17813e-13 0 -7.969e-13)
(4.51773e-13 0 -7.0547e-13)
(5.65945e-13 0 -6.07556e-13)
(6.59745e-13 0 -5.05835e-13)
(7.33147e-13 0 -4.02765e-13)
(7.86601e-13 0 -3.00521e-13)
(8.20938e-13 0 -2.00955e-13)
(8.37279e-13 0 -1.0558e-13)
(8.36944e-13 0 -1.55778e-14)
(8.21373e-13 0 6.81804e-14)
(7.92063e-13 0 1.45095e-13)
(7.50517e-13 0 2.14799e-13)
(6.98209e-13 0 2.7711e-13)
(6.36557e-13 0 3.31989e-13)
(5.66906e-13 0 3.79501e-13)
(4.90525e-13 0 4.19776e-13)
(4.08602e-13 0 4.52979e-13)
(3.22253e-13 0 4.79282e-13)
(2.32532e-13 0 4.98848e-13)
(1.40442e-13 0 5.11812e-13)
(4.69636e-14 0 5.1827e-13)
(-5.15787e-06 0 0.000638315)
(1.5595e-05 0 0.000710672)
(-9.46785e-06 0 0.000759995)
(-6.05032e-05 0 0.000759933)
(-4.10094e-05 0 0.0007394)
(-0.000149595 0 0.000640102)
(-0.000117435 0 0.000539015)
(-0.00010813 0 0.000423693)
(-0.000211071 0 0.00025447)
(-0.000233252 0 0.000133748)
(-0.00022525 0 -1.62049e-05)
(-0.000202627 0 -2.00667e-05)
(-0.000129429 0 -0.000255429)
(-0.000252161 0 -0.000235926)
(-0.000152167 0 -0.000555716)
(-0.000240096 0 -0.0010231)
(-0.000120247 0 -0.00126064)
(-0.000127801 0 -0.0012776)
(-4.13008e-05 0 -0.00112934)
(-5.11794e-05 0 -0.000890443)
(2.60221e-05 0 -0.000664931)
(-1.0771e-05 0 -0.000546304)
(0.000192995 0 -0.000531995)
(0.000249669 0 -0.000576556)
(0.000355355 0 -0.000634945)
(0.000500628 0 -0.000621439)
(0.000573723 0 -0.000566353)
(0.00055717 0 -0.000565185)
(0.000636965 0 -0.000432283)
(0.000577853 0 -0.000406178)
(0.000569461 0 -0.000339143)
(0.000593728 0 -0.000269481)
(0.000605793 0 -0.00021224)
(0.000631124 0 -0.000177171)
(0.000679356 0 -0.000147157)
(0.000730816 0 -0.000139628)
(0.000768191 0 -4.23685e-05)
(0.000780554 0 1.04274e-05)
(0.000794896 0 5.20716e-05)
(0.000823467 0 4.58638e-05)
(0.00083144 0 0.00015679)
(0.000843749 0 0.000199071)
(0.000876788 0 0.000196503)
(0.000921658 0 0.000187859)
(0.000952088 0 0.000178488)
(0.000949353 0 0.000182124)
(0.000938108 0 0.000179808)
(0.00088462 0 0.00024696)
(0.000822787 0 0.000298791)
(0.000764921 0 0.000384458)
(0.000707913 0 0.000447744)
(0.000649511 0 0.000463681)
(0.000595931 0 0.000477054)
(0.000459283 0 0.000585301)
(0.000415183 0 0.000588112)
(0.000392882 0 0.000557897)
(0.00028514 0 0.000589797)
(0.000299346 0 0.000541573)
(0.000252294 0 0.00048001)
(0.000204555 0 0.00043258)
(0.000152132 0 0.000380479)
(9.70615e-05 0 0.000307391)
(4.89812e-05 0 0.000269162)
(4.16687e-05 0 0.000225177)
(1.08242e-05 0 0.000170608)
(1.83998e-05 0 0.000101059)
(-2.32218e-05 0 2.84228e-05)
(-4.28749e-05 0 -9.05641e-06)
(-5.93189e-05 0 -5.78067e-05)
(-3.5834e-05 0 -9.38498e-05)
(-3.30142e-05 0 -0.000115501)
(-1.9983e-05 0 -0.00012809)
(2.71158e-06 0 -0.000135838)
(3.89673e-05 0 -0.000134293)
(6.47819e-05 0 -0.000129464)
(7.31314e-05 0 -0.00010966)
(9.61641e-05 0 -4.84736e-05)
(1.06117e-05 0 -1.57027e-05)
(0.000322836 0 1.33723e-08)
(-0.000474168 0 0.000121294)
(7.67986e-06 0 0.000243858)
(-1.35999e-12 0 1.32234e-13)
(-3.13012e-12 0 -1.40867e-13)
(-2.19904e-12 0 -2.48635e-13)
(-2.17836e-12 0 -3.73189e-13)
(-2.13101e-12 0 -5.10681e-13)
(-2.05218e-12 0 -6.52509e-13)
(-1.9417e-12 0 -7.90845e-13)
(-1.8017e-12 0 -9.19433e-13)
(-1.63554e-12 0 -1.03334e-12)
(-1.44728e-12 0 -1.12864e-12)
(-1.24159e-12 0 -1.20229e-12)
(-1.02353e-12 0 -1.25211e-12)
(-7.98458e-13 0 -1.27685e-12)
(-5.71844e-13 0 -1.2762e-12)
(-3.49025e-13 0 -1.25083e-12)
(-1.34992e-13 0 -1.20231e-12)
(6.58285e-14 0 -1.133e-12)
(2.49745e-13 0 -1.04588e-12)
(4.13912e-13 0 -9.44347e-13)
(5.56364e-13 0 -8.3196e-13)
(6.7597e-13 0 -7.12269e-13)
(7.72352e-13 0 -5.88622e-13)
(8.45781e-13 0 -4.64045e-13)
(8.97056e-13 0 -3.41167e-13)
(9.27388e-13 0 -2.22181e-13)
(9.38278e-13 0 -1.08835e-13)
(9.31404e-13 0 -2.45414e-15)
(9.0853e-13 0 9.60258e-14)
(8.71431e-13 0 1.86002e-13)
(8.21839e-13 0 2.6715e-13)
(7.61406e-13 0 3.39363e-13)
(6.91679e-13 0 4.02696e-13)
(6.14093e-13 0 4.57316e-13)
(5.29966e-13 0 5.03456e-13)
(4.40505e-13 0 5.4138e-13)
(3.46822e-13 0 5.71349e-13)
(2.49943e-13 0 5.93597e-13)
(1.50833e-13 0 6.08317e-13)
(5.04181e-14 0 6.15645e-13)
(1.2919e-05 0 0.000633381)
(5.45789e-05 0 0.000708706)
(0.000103186 0 0.000759288)
(4.09431e-05 0 0.000761707)
(4.79141e-05 0 0.000736653)
(5.96023e-05 0 0.000666694)
(1.37077e-06 0 0.000552959)
(-1.14666e-05 0 0.000448505)
(-4.79112e-05 0 0.000316359)
(-5.13855e-05 0 0.000197678)
(-0.000142854 0 1.57133e-05)
(-7.42906e-05 0 -2.18119e-05)
(-0.000109177 0 -0.000198544)
(-8.99465e-05 0 -0.000302987)
(-0.00012933 0 -0.000502279)
(-9.48913e-05 0 -0.00101941)
(-0.000130811 0 -0.00127618)
(-0.000165126 0 -0.00132046)
(-7.15488e-05 0 -0.00116275)
(-8.61762e-05 0 -0.000898363)
(-7.64683e-05 0 -0.000678866)
(-6.3843e-05 0 -0.000576481)
(1.29113e-05 0 -0.000651746)
(0.000154531 0 -0.000723306)
(0.000284211 0 -0.000758287)
(0.000395412 0 -0.000699005)
(0.000419771 0 -0.000649977)
(0.000429588 0 -0.000588085)
(0.000511475 0 -0.000444407)
(0.000434722 0 -0.000402207)
(0.000409667 0 -0.000386256)
(0.000481792 0 -0.00028328)
(0.000506256 0 -0.000242081)
(0.000545005 0 -0.000186783)
(0.000576602 0 -0.000188809)
(0.000620413 0 -0.000154618)
(0.00065601 0 -0.000113253)
(0.000691336 0 -5.62353e-05)
(0.000736544 0 6.69774e-06)
(0.000766589 0 4.1531e-05)
(0.000769027 0 9.69893e-05)
(0.000784895 0 0.000119719)
(0.000835515 0 0.000140629)
(0.00088265 0 0.000161863)
(0.000885027 0 0.000181683)
(0.000895193 0 0.000159856)
(0.000888055 0 0.000174589)
(0.000863596 0 6.55481e-05)
(0.000771925 0 0.000200228)
(0.00074288 0 0.00030138)
(0.000686963 0 0.000395175)
(0.000647803 0 0.000419746)
(0.000438444 0 0.000599326)
(0.000435463 0 0.000614317)
(0.000375705 0 0.000620998)
(0.000319273 0 0.000605668)
(0.000252242 0 0.000612766)
(0.000228378 0 0.000575161)
(0.000180147 0 0.000529384)
(0.000149765 0 0.000493395)
(0.000121794 0 0.000431772)
(8.66546e-05 0 0.000350724)
(8.36404e-05 0 0.000298281)
(6.63123e-06 0 0.000266226)
(1.9922e-05 0 0.000161274)
(3.09143e-05 0 7.97645e-05)