/*--------------------------------*- C++ -*----------------------------------*\
  =========                 |
  \\      /  F ield         | OpenFOAM: The Open Source CFD Toolbox
   \\    /   O peration     | Website:  https://openfoam.org
    \\  /    A nd           | Version:  6
     \\/     M anipulation  |
\*---------------------------------------------------------------------------*/
FoamFile
{
    version     2.0;
    format      ascii;
    class       surfaceScalarField;
    location    "2800";
    object      phi;
}
// * * * * * * * * * * * * * * * * * * * * * * * * * * * * * * * * * * * * * //

dimensions      [0 3 -1 0 0 0 0];

internalField   nonuniform List<scalar> 
9440
(
-1.89794e-14
1.89784e-14
-5.46438e-14
1.69192e-14
-8.60306e-14
1.63893e-14
-1.16735e-13
1.63157e-14
-1.47312e-13
1.63317e-14
-1.77843e-13
1.63772e-14
-2.08292e-13
1.63985e-14
-2.3862e-13
1.64055e-14
-2.68747e-13
1.63487e-14
-2.98508e-13
1.61552e-14
-3.27831e-13
1.59055e-14
-3.56535e-13
1.54999e-14
-3.84377e-13
1.48698e-14
-4.11585e-13
1.44908e-14
-4.38028e-13
1.39997e-14
-4.64013e-13
1.38357e-14
-4.89183e-13
1.33332e-14
-5.11664e-13
1.09754e-14
-5.32965e-13
1.0146e-14
-5.5391e-13
1.01565e-14
-5.74528e-13
1.02153e-14
-5.90706e-13
6.17519e-15
-6.07034e-13
6.74254e-15
-6.21881e-13
5.6945e-15
-6.34903e-13
4.31549e-15
-6.46489e-13
3.33915e-15
-6.56657e-13
2.39525e-15
-6.65336e-13
1.39198e-15
-6.72534e-13
4.06615e-16
-6.78195e-13
-6.2287e-16
-6.82318e-13
-1.63999e-15
-6.8493e-13
-2.62658e-15
-6.86035e-13
-3.5965e-15
-6.8558e-13
-4.6152e-15
-6.8359e-13
-5.6006e-15
-6.80072e-13
-6.57248e-15
-6.74986e-13
-7.5819e-15
-6.68399e-13
-8.5174e-15
-6.60266e-13
-9.49922e-15
-6.50657e-13
-1.04035e-14
-6.3956e-13
-1.13249e-14
-6.27032e-13
-1.21832e-14
-6.1313e-13
-1.29879e-14
-5.9787e-13
-1.3779e-14
-5.81415e-13
-1.44084e-14
-5.63748e-13
-1.50557e-14
-5.44977e-13
-1.56018e-14
-5.25267e-13
-1.59864e-14
-5.04661e-13
-1.63348e-14
-4.83301e-13
-1.65502e-14
-4.61335e-13
-1.66213e-14
-4.38854e-13
-1.66125e-14
-4.16032e-13
-1.64391e-14
-3.93019e-13
-1.61246e-14
-3.69947e-13
-1.56897e-14
-3.46904e-13
-1.51788e-14
-3.2404e-13
-1.45302e-14
-3.0144e-13
-1.3806e-14
-2.79281e-13
-1.29255e-14
-2.57542e-13
-1.20782e-14
-2.36344e-13
-1.11237e-14
-2.1571e-13
-1.01623e-14
-1.95687e-13
-9.1722e-15
-1.76277e-13
-8.19605e-15
-1.5751e-13
-7.20982e-15
-1.39266e-13
-6.35874e-15
-1.21572e-13
-5.50035e-15
-1.0433e-13
-4.76074e-15
-8.73972e-14
-4.18188e-15
-7.05785e-14
-3.82036e-15
-5.37176e-14
-3.63345e-15
-3.64446e-14
-3.83883e-15
-1.81661e-14
-4.66018e-15
2.67353e-15
-7.0557e-15
3.0131e-14
-1.35307e-14
7.66999e-14
-3.25242e-14
1.82029e-13
-9.11827e-14
7.32061e-14
1.23044e-13
-8.84291e-15
9.63255e-14
1.31322e-22
7.88064e-20
2.65887e-22
1.08464e-22
4.30341e-22
-1.54683e-22
1.51891e-21
-1.28523e-22
2.42095e-21
-6.41065e-23
3.07753e-21
-8.4269e-24
3.52674e-21
3.49484e-23
3.8101e-21
6.79839e-23
3.96214e-21
9.25408e-23
4.01157e-21
1.10325e-22
3.98194e-21
1.22578e-22
3.89209e-21
1.30384e-22
3.75773e-21
1.34675e-22
3.59162e-21
1.36175e-22
3.40364e-21
1.35606e-22
3.20217e-21
1.33331e-22
2.99362e-21
1.29919e-22
2.78274e-21
1.25473e-22
2.57372e-21
1.2051e-22
2.3692e-21
1.15133e-22
2.1715e-21
1.09446e-22
1.98224e-21
1.03708e-22
1.80232e-21
9.80209e-23
1.63223e-21
9.23857e-23
1.47254e-21
8.6854e-23
1.32313e-21
8.15807e-23
1.1839e-21
7.65659e-23
1.05455e-21
7.1913e-23
9.34559e-22
6.75703e-23
8.23562e-22
6.35378e-23
7.20888e-22
5.99189e-23
6.2571e-22
5.65585e-23
5.37461e-22
5.35599e-23
4.55311e-22
5.09233e-23
3.78694e-22
4.86486e-23
3.06729e-22
4.6684e-23
2.38642e-22
4.5133e-23
1.74018e-22
4.37889e-23
1.12083e-22
4.2393e-23
5.30947e-23
4.03768e-23
3.5362e-23
-2.05508e-14
2.07647e-14
-5.52666e-14
2.17201e-14
-8.66332e-14
2.17401e-14
-1.17489e-13
2.17112e-14
-1.48174e-13
2.17612e-14
-1.78781e-13
2.19202e-14
-2.09315e-13
2.21002e-14
-2.39707e-13
2.22281e-14
-2.69826e-13
2.22065e-14
-2.9963e-13
2.20447e-14
-3.28943e-13
2.16903e-14
-3.57616e-13
2.10635e-14
-3.85445e-13
2.00464e-14
-4.12586e-13
1.94725e-14
-4.39029e-13
1.88106e-14
-4.654e-13
1.91414e-14
-4.90129e-13
1.75895e-14
-5.12564e-13
1.35674e-14
-5.33983e-13
1.2381e-14
-5.5523e-13
1.29088e-14
-5.75286e-13
1.24972e-14
-5.91848e-13
5.71082e-15
-6.08099e-13
6.74262e-15
-6.2299e-13
5.13477e-15
-6.35919e-13
2.61684e-15
-6.4755e-13
1.19178e-15
-6.57697e-13
-3.65093e-16
-6.66376e-13
-1.94767e-15
-6.73518e-13
-3.55929e-15
-6.79166e-13
-5.1574e-15
-6.83303e-13
-6.73967e-15
-6.85948e-13
-8.26496e-15
-6.86983e-13
-9.86937e-15
-6.86544e-13
-1.13806e-14
-6.8462e-13
-1.2862e-14
-6.81021e-13
-1.45076e-14
-6.75934e-13
-1.59986e-14
-6.69347e-13
-1.74216e-14
-6.61193e-13
-1.89555e-14
-6.51529e-13
-2.03519e-14
-6.40412e-13
-2.17033e-14
-6.27833e-13
-2.30097e-14
-6.13881e-13
-2.41731e-14
-5.98622e-13
-2.52595e-14
-5.82e-13
-2.62486e-14
-5.6424e-13
-2.70382e-14
-5.45383e-13
-2.76939e-14
-5.2555e-13
-2.80782e-14
-5.04819e-13
-2.83587e-14
-4.83343e-13
-2.8371e-14
-4.61247e-13
-2.81256e-14
-4.38686e-13
-2.76653e-14
-4.15759e-13
-2.69585e-14
-3.92601e-13
-2.59961e-14
-3.69411e-13
-2.47352e-14
-3.46237e-13
-2.33694e-14
-3.23257e-13
-2.17159e-14
-3.00607e-13
-1.9874e-14
-2.78378e-13
-1.78106e-14
-2.56589e-13
-1.57921e-14
-2.35346e-13
-1.35846e-14
-2.14679e-13
-1.13744e-14
-1.94675e-13
-9.07697e-15
-1.75347e-13
-6.81167e-15
-1.56579e-13
-4.68304e-15
-1.38439e-13
-2.66226e-15
-1.20875e-13
-7.1518e-16
-1.03748e-13
9.39944e-16
-8.69326e-14
2.26619e-15
-7.03486e-14
3.26261e-15
-5.38682e-14
3.91738e-15
-3.73105e-14
3.96174e-15
-2.04006e-14
3.0786e-15
-3.32032e-15
7.61251e-16
1.2495e-14
-4.23896e-15
1.92105e-14
-1.39592e-14
-1.61446e-14
-3.04152e-14
5.26426e-15
1.27145e-13
-6.83862e-15
1.28541e-13
-1.59558e-22
1.27965e-19
2.6884e-24
1.78051e-22
4.56604e-22
1.56751e-22
1.58333e-21
1.72932e-22
2.47663e-21
1.95266e-22
3.1209e-21
2.12896e-22
3.55982e-21
2.24786e-22
3.8346e-21
2.31662e-22
3.97993e-21
2.34609e-22
4.02382e-21
2.34299e-22
3.9898e-21
2.31455e-22
3.89638e-21
2.26699e-22
3.75923e-21
2.20599e-22
3.591e-21
2.13516e-22
3.40137e-21
2.05709e-22
3.19876e-21
1.97541e-22
2.98912e-21
1.89011e-22
2.77778e-21
1.80532e-22
2.56834e-21
1.72105e-22
2.36357e-21
1.63678e-22
2.16582e-21
1.55768e-22
1.97655e-21
1.4791e-22
1.79664e-21
1.40362e-22
1.62675e-21
1.33228e-22
1.46726e-21
1.26455e-22
1.31811e-21
1.20045e-22
1.17925e-21
1.14099e-22
1.05021e-21
1.08309e-22
9.30527e-22
1.03087e-22
8.19943e-22
9.82277e-23
7.17528e-22
9.37299e-23
6.22764e-22
8.9594e-23
5.34824e-22
8.58717e-23
4.52985e-22
8.25113e-23
3.76781e-22
7.97195e-23
3.05178e-22
7.72897e-23
2.37246e-22
7.51183e-23
1.72674e-22
7.33089e-23
1.10015e-22
7.17062e-23
4.80282e-23
7.03104e-23
6.94315e-23
-2.28604e-14
2.86276e-14
-5.61932e-14
2.90959e-14
-8.64138e-14
2.94525e-14
-1.16606e-13
2.98263e-14
-1.46967e-13
3.02053e-14
-1.77405e-13
3.06058e-14
-2.07919e-13
3.10583e-14
-2.38378e-13
3.13586e-14
-2.68714e-13
3.14758e-14
-2.98747e-13
3.13086e-14
-3.28376e-13
3.08783e-14
-3.57294e-13
2.99043e-14
-3.8555e-13
2.86192e-14
-4.13003e-13
2.76656e-14
-4.39903e-13
2.69065e-14
-4.67092e-13
2.80111e-14
-4.91301e-13
2.39917e-14
-5.13748e-13
1.87518e-14
-5.35652e-13
1.75922e-14
-5.57603e-13
1.87661e-14
-5.76354e-13
1.57746e-14
-5.93541e-13
8.06947e-15
-6.09813e-13
8.85587e-15
-6.24681e-13
6.53451e-15
-6.37474e-13
2.65491e-15
-6.49177e-13
8.73883e-16
-6.5932e-13
-1.49015e-15
-6.67968e-13
-3.7966e-15
-6.75112e-13
-6.12613e-15
-6.80772e-13
-8.40697e-15
-6.84917e-13
-1.06885e-14
-6.87504e-13
-1.29436e-14
-6.88559e-13
-1.52369e-14
-6.88087e-13
-1.74235e-14
-6.86112e-13
-1.95525e-14
-6.82548e-13
-2.19194e-14
-6.77437e-13
-2.40845e-14
-6.70802e-13
-2.61527e-14
-6.62575e-13
-2.83984e-14
-6.52853e-13
-3.04074e-14
-6.41657e-13
-3.23475e-14
-6.2905e-13
-3.41834e-14
-6.14925e-13
-3.59849e-14
-5.99503e-13
-3.74927e-14
-5.82773e-13
-3.89171e-14
-5.6488e-13
-4.00042e-14
-5.45841e-13
-4.0948e-14
-5.25779e-13
-4.15102e-14
-5.04847e-13
-4.18238e-14
-4.8314e-13
-4.17871e-14
-4.60806e-13
-4.13551e-14
-4.37946e-13
-4.06234e-14
-4.14779e-13
-3.94426e-14
-3.91421e-13
-3.79071e-14
-3.6801e-13
-3.59503e-14
-3.44578e-13
-3.38772e-14
-3.21421e-13
-3.12435e-14
-2.98616e-13
-2.8366e-14
-2.76213e-13
-2.52363e-14
-2.54363e-13
-2.20296e-14
-2.3306e-13
-1.86574e-14
-2.12439e-13
-1.51776e-14
-1.92497e-13
-1.16405e-14
-1.73159e-13
-8.23987e-15
-1.54572e-13
-4.85483e-15
-1.36648e-13
-1.69421e-15
-1.19256e-13
1.23153e-15
-1.02381e-13
3.81753e-15
-8.5919e-14
5.94367e-15
-6.97774e-14
7.61112e-15
-5.38982e-14
8.84644e-15
-3.81133e-14
9.27095e-15
-2.27305e-14
9.04561e-15
-8.38964e-15
7.98957e-15
2.4941e-15
6.63189e-15
3.47754e-15
6.96301e-15
-2.20205e-14
1.71065e-14
-6.10161e-15
1.33332e-13
-6.52001e-15
1.46701e-13
-1.59521e-22
1.90994e-19
-1.86115e-23
2.66766e-22
4.72734e-22
2.84912e-22
1.60561e-21
3.09107e-22
2.49426e-21
3.28908e-22
3.13279e-21
3.42246e-22
3.5667e-21
3.49484e-22
3.8376e-21
3.5181e-22
3.97957e-21
3.49897e-22
4.02103e-21
3.44624e-22
3.98505e-21
3.37024e-22
3.89028e-21
3.27564e-22
3.75214e-21
3.1681e-22
3.58319e-21
3.0523e-22
3.3932e-21
2.93132e-22
3.19023e-21
2.8088e-22
2.98064e-21
2.68524e-22
2.76935e-21
2.56323e-22
2.55992e-21
2.44173e-22
2.3556e-21
2.32489e-22
2.15791e-21
2.21116e-22
1.969e-21
2.10362e-22
1.7895e-21
1.99919e-22
1.62003e-21
1.90096e-22
1.4608e-21
1.80739e-22
1.31212e-21
1.7195e-22
1.17356e-21
1.63678e-22
1.04499e-21
1.55924e-22
9.25667e-22
1.48582e-22
8.15393e-22
1.41913e-22
7.1334e-22
1.35761e-22
6.19041e-22
1.30022e-22
5.31464e-22
1.24853e-22
4.50193e-22
1.20251e-22
3.74351e-22
1.16167e-22
3.03007e-22
1.126e-22
2.35436e-22
1.09653e-22
1.7102e-22
1.07223e-22
1.08619e-22
1.05207e-22
4.71493e-23
1.03759e-22
1.03191e-22
-2.25722e-14
3.68378e-14
-5.58908e-14
3.70888e-14
-8.59906e-14
3.75375e-14
-1.16017e-13
3.82492e-14
-1.46272e-13
3.90059e-14
-1.76775e-13
3.98159e-14
-2.07385e-13
4.05656e-14
-2.38024e-13
4.11213e-14
-2.68581e-13
4.14123e-14
-2.98953e-13
4.1348e-14
-3.28841e-13
4.07606e-14
-3.58045e-13
3.94522e-14
-3.86874e-13
3.81808e-14
-4.14411e-13
3.63492e-14
-4.4182e-13
3.59054e-14
-4.69961e-13
3.82186e-14
-4.93274e-13
2.98733e-14
-5.15721e-13
2.42992e-14
-5.3815e-13
2.36791e-14
-5.61498e-13
2.63566e-14
-5.77666e-13
1.67918e-14
-5.96181e-13
1.20678e-14
-6.1235e-13
1.116e-14
-6.27094e-13
8.09399e-15
-6.39845e-13
2.91934e-15
-6.51573e-13
8.30664e-16
-6.61686e-13
-2.4105e-15
-6.70331e-13
-5.43002e-15
-6.7744e-13
-8.52845e-15
-6.83117e-13
-1.14548e-14
-6.8721e-13
-1.45234e-14
-6.8976e-13
-1.75083e-14
-6.90817e-13
-2.04728e-14
-6.90304e-13
-2.33933e-14
-6.88324e-13
-2.61502e-14
-6.84734e-13
-2.92803e-14
-6.79612e-13
-3.21211e-14
-6.729e-13
-3.492e-14
-6.64656e-13
-3.78343e-14
-6.5487e-13
-4.05229e-14
-6.4351e-13
-4.31734e-14
-6.30709e-13
-4.55873e-14
-6.16516e-13
-4.79182e-14
-6.00885e-13
-5.00065e-14
-5.83962e-13
-5.18689e-14
-5.65753e-13
-5.33979e-14
-5.46437e-13
-5.46093e-14
-5.26094e-13
-5.53694e-14
-5.04836e-13
-5.57784e-14
-4.82753e-13
-5.57585e-14
-4.60033e-13
-5.51685e-14
-4.3686e-13
-5.41107e-14
-4.13297e-13
-5.25506e-14
-3.89529e-13
-5.04737e-14
-3.65722e-13
-4.78264e-14
-3.42047e-13
-4.49103e-14
-3.18646e-13
-4.13086e-14
-2.95565e-13
-3.74397e-14
-2.72961e-13
-3.31858e-14
-2.50947e-13
-2.87636e-14
-2.29598e-13
-2.4121e-14
-2.08905e-13
-1.94136e-14
-1.88981e-13
-1.45554e-14
-1.69834e-13
-9.85625e-15
-1.51408e-13
-5.25753e-15
-1.33723e-13
-8.87621e-16
-1.16657e-13
3.09316e-15
-1.00199e-13
6.69485e-15
-8.42374e-14
9.69054e-15
-6.86678e-14
1.20988e-14
-5.33905e-14
1.39361e-14
-3.83937e-14
1.49208e-14
-2.37377e-14
1.52854e-14
-9.88788e-15
1.52522e-14
2.42754e-15
1.56102e-14
1.28656e-14
1.79644e-14
2.6163e-14
2.53637e-14
-8.07526e-15
1.89205e-13
-6.42231e-15
1.6235e-13
-1.19809e-22
2.55532e-19
-5.16921e-25
3.58169e-22
4.96981e-22
3.92394e-22
1.62541e-21
4.25171e-22
2.5076e-21
4.47867e-22
3.14008e-21
4.61567e-22
3.56897e-21
4.67719e-22
3.83564e-21
4.67616e-22
3.97434e-21
4.62653e-22
4.01343e-21
4.54122e-22
3.97559e-21
4.42645e-22
3.87953e-21
4.29203e-22
3.74051e-21
4.14573e-22
3.57109e-21
3.98908e-22
3.38095e-21
3.82778e-22
3.17792e-21
3.66389e-22
2.96844e-21
3.50156e-22
2.75725e-21
3.34233e-22
2.54823e-21
3.1862e-22
2.34423e-21
3.03472e-22
2.14721e-21
2.88893e-22
1.95856e-21
2.74831e-22
1.77963e-21
2.61389e-22
1.61062e-21
2.48671e-22
1.45212e-21
2.36625e-22
1.30384e-21
2.252e-22
1.16576e-21
2.14498e-22
1.0377e-21
2.04572e-22
9.18946e-22
1.95163e-22
8.09241e-22
1.86426e-22
7.07653e-22
1.78309e-22
6.13871e-22
1.70968e-22
5.26862e-22
1.64247e-22
4.46161e-22
1.58198e-22
3.70784e-22
1.52873e-22
3.0006e-22
1.4822e-22
2.33006e-22
1.44343e-22
1.69055e-22
1.41241e-22
1.07172e-22
1.38863e-22
4.66323e-23
1.37312e-22
1.36537e-22
-2.22189e-14
4.48757e-14
-5.52966e-14
4.51406e-14
-8.53688e-14
4.58388e-14
-1.15301e-13
4.68084e-14
-1.45578e-13
4.80625e-14
-1.76149e-13
4.93261e-14
-2.06916e-13
5.04614e-14
-2.37817e-13
5.13705e-14
-2.68708e-13
5.19066e-14
-2.99392e-13
5.19235e-14
-3.2961e-13
5.1188e-14
-3.5933e-13
4.97306e-14
-3.88733e-13
4.85267e-14
-4.16386e-13
4.53556e-14
-4.45108e-13
4.64212e-14
-4.72703e-13
4.80789e-14
-4.95904e-13
3.58348e-14
-5.18932e-13
3.0614e-14
-5.42156e-13
3.07424e-14
-5.65322e-13
3.39381e-14
-5.80614e-13
1.71026e-14
-5.99588e-13
1.66849e-14
-6.15765e-13
1.36282e-14
-6.30103e-13
9.3931e-15
-6.43078e-13
3.54525e-15
-6.54711e-13
8.27345e-16
-6.64786e-13
-3.24438e-15
-6.73351e-13
-7.0292e-15
-6.80503e-13
-1.07818e-14
-6.86091e-13
-1.44903e-14
-6.90156e-13
-1.82943e-14
-6.92755e-13
-2.1945e-14
-6.93815e-13
-2.56328e-14
-6.93285e-13
-2.93183e-14
-6.91287e-13
-3.27122e-14
-6.87638e-13
-3.66551e-14
-6.8249e-13
-4.01459e-14
-6.75681e-13
-4.37612e-14
-6.67318e-13
-4.73739e-14
-6.57448e-13
-5.07167e-14
-6.45996e-13
-5.40924e-14
-6.33021e-13
-5.7175e-14
-6.18606e-13
-6.00946e-14
-6.02699e-13
-6.28266e-14
-5.85446e-13
-6.51897e-14
-5.66936e-13
-6.71401e-14
-5.47246e-13
-6.87016e-14
-5.26451e-13
-6.97484e-14
-5.04733e-13
-7.02656e-14
-4.82204e-13
-7.02601e-14
-4.58948e-13
-6.96082e-14
-4.35276e-13
-6.81974e-14
-4.11169e-13
-6.63157e-14
-3.8694e-13
-6.36194e-14
-3.62689e-13
-6.02714e-14
-3.38553e-13
-5.65358e-14
-3.14742e-13
-5.19227e-14
-2.91341e-13
-4.69838e-14
-2.68456e-13
-4.15697e-14
-2.46275e-13
-3.58267e-14
-2.24829e-13
-2.98543e-14
-2.04142e-13
-2.382e-14
-1.84316e-13
-1.75543e-14
-1.65286e-13
-1.15434e-14
-1.47102e-13
-5.61162e-15
-1.29767e-13
7.08691e-17
-1.13157e-13
5.20584e-15
-9.7188e-14
9.85192e-15
-8.17901e-14
1.37891e-14
-6.69532e-14
1.70995e-14
-5.23575e-14
1.94889e-14
-3.80606e-14
2.10473e-14
-2.37969e-14
2.16927e-14
-9.49386e-15
2.18313e-14
5.1336e-15
2.20449e-14
2.09998e-14
2.33079e-14
3.57644e-14
3.19175e-14
-8.2899e-15
2.54656e-13
-6.34016e-15
1.77491e-13
-8.00938e-23
3.19567e-19
3.37077e-23
4.49986e-22
5.29809e-22
4.95326e-22
1.64811e-21
5.36685e-22
2.52125e-21
5.63724e-22
3.14623e-21
5.7882e-22
3.56887e-21
5.84558e-22
3.83067e-21
5.82749e-22
3.96576e-21
5.75356e-22
4.002e-21
5.63879e-22
3.96214e-21
5.48938e-22
3.86479e-21
5.31774e-22
3.7249e-21
5.13007e-22
3.55496e-21
4.93362e-22
3.36461e-21
4.73251e-22
3.16169e-21
4.52985e-22
2.95247e-21
4.32822e-22
2.74159e-21
4.12918e-22
2.53314e-21
3.93686e-22
2.32965e-21
3.74971e-22
2.13314e-21
3.56928e-22
1.94517e-21
3.39713e-22
1.76696e-21
3.23324e-22
1.59853e-21
3.07608e-22
1.44069e-21
2.92874e-22
1.29319e-21
2.78863e-22
1.15578e-21
2.65577e-22
1.02829e-21
2.53117e-22
9.10209e-22
2.41537e-22
8.01176e-22
2.30835e-22
7.00312e-22
2.20806e-22
6.07151e-22
2.11707e-22
5.20814e-22
2.03383e-22
4.40836e-22
1.95938e-22
3.66079e-22
1.89321e-22
2.96182e-22
1.83634e-22
2.29905e-22
1.78826e-22
1.66625e-22
1.75e-22
1.05672e-22
1.72157e-22
4.58568e-23
1.70244e-22
1.69417e-22
-2.19251e-14
5.27654e-14
-5.45708e-14
5.30732e-14
-8.43109e-14
5.40783e-14
-1.14126e-13
5.55143e-14
-1.4435e-13
5.73259e-14
-1.74984e-13
5.91559e-14
-2.05973e-13
6.08341e-14
-2.37251e-13
6.22527e-14
-2.68598e-13
6.31073e-14
-2.99698e-13
6.31611e-14
-3.30368e-13
6.23134e-14
-3.61211e-13
6.13722e-14
-3.90352e-13
5.88455e-14
-4.19038e-13
5.56231e-14
-4.50447e-13
5.98483e-14
-4.74967e-13
5.50831e-14
-4.99054e-13
4.28977e-14
-5.23031e-13
3.80842e-14
-5.48028e-13
3.97785e-14
-5.67868e-13
3.83903e-14
-5.85152e-13
1.95902e-14
-6.03679e-13
2.10346e-14
-6.20009e-13
1.64205e-14
-6.33847e-13
1.03566e-14
-6.47177e-13
4.68017e-15
-6.5861e-13
7.69375e-16
-6.68647e-13
-3.97779e-15
-6.77208e-13
-8.50242e-15
-6.8427e-13
-1.30024e-14
-6.89794e-13
-1.74839e-14
-6.93878e-13
-2.19438e-14
-6.9643e-13
-2.63364e-14
-6.97449e-13
-3.07517e-14
-6.96954e-13
-3.51385e-14
-6.94881e-13
-3.92883e-14
-6.91265e-13
-4.39472e-14
-6.86101e-13
-4.81485e-14
-6.79196e-13
-5.2666e-14
-6.70779e-13
-5.69469e-14
-6.60746e-13
-6.10645e-14
-6.49141e-13
-6.51657e-14
-6.35928e-13
-6.9015e-14
-6.21209e-13
-7.25993e-14
-6.05025e-13
-7.59544e-14
-5.87455e-13
-7.88725e-14
-5.68486e-13
-8.13946e-14
-5.48352e-13
-8.33003e-14
-5.27059e-13
-8.46999e-14
-5.04723e-13
-8.54562e-14
-4.81552e-13
-8.54985e-14
-4.57733e-13
-8.47145e-14
-4.33301e-13
-8.31522e-14
-4.08541e-13
-8.08555e-14
-3.837e-13
-7.75093e-14
-3.58792e-13
-7.35089e-14
-3.34111e-13
-6.88561e-14
-3.09787e-13
-6.32078e-14
-2.85947e-13
-5.71321e-14
-2.62718e-13
-5.04701e-14
-2.40273e-13
-4.3337e-14
-2.18726e-13
-3.58747e-14
-1.9797e-13
-2.84871e-14
-1.78179e-13
-2.07202e-14
-1.59406e-13
-1.31796e-14
-1.41538e-13
-5.8612e-15
-1.24612e-13
1.21958e-15
-1.08491e-13
7.58542e-15
-9.31329e-14
1.33894e-14
-7.85371e-14
1.84573e-14
-6.4452e-14
2.26155e-14
-5.08055e-14
2.57479e-14
-3.7329e-14
2.7751e-14
-2.36812e-14
2.8465e-14
-9.19981e-15
2.79801e-14
7.11808e-15
2.65316e-14
2.63094e-14
2.50639e-14
3.375e-14
4.5533e-14
-2.09993e-14
3.3054e-13
-6.24512e-15
1.79603e-13
-4.0373e-23
3.81272e-19
7.89958e-23
5.40459e-22
5.71168e-22
5.96035e-22
1.67514e-21
6.45718e-22
2.53639e-21
6.77668e-22
3.15192e-21
6.94987e-22
3.56711e-21
7.00881e-22
3.82333e-21
6.98089e-22
3.95423e-21
6.8868e-22
3.98706e-21
6.73997e-22
3.94493e-21
6.55954e-22
3.84613e-21
6.35223e-22
3.70525e-21
6.12631e-22
3.5348e-21
5.88901e-22
3.34429e-21
5.64758e-22
3.14153e-21
5.40459e-22
2.93261e-21
5.16316e-22
2.72236e-21
4.92534e-22
2.51437e-21
4.69528e-22
2.31161e-21
4.47195e-22
2.11593e-21
4.2574e-22
1.92873e-21
4.05112e-22
1.75124e-21
3.8557e-22
1.58379e-21
3.66855e-22
1.42668e-21
3.49019e-22
1.27986e-21
3.32268e-22
1.14337e-21
3.16603e-22
1.01676e-21
3.01714e-22
8.99456e-22
2.87807e-22
7.91095e-22
2.75038e-22
6.91213e-22
2.63043e-22
5.98879e-22
2.52083e-22
5.13317e-22
2.42209e-22
4.3427e-22
2.33368e-22
3.60392e-22
2.25407e-22
2.91426e-22
2.18634e-22
2.26079e-22
2.12896e-22
1.63782e-22
2.08294e-22
1.03759e-22
2.04934e-22
4.4978e-23
2.02763e-22
2.01729e-22
-2.14242e-14
6.03271e-14
-5.34914e-14
6.07983e-14
-8.27892e-14
6.21915e-14
-1.12355e-13
6.42829e-14
-1.42468e-13
6.67892e-14
-1.7324e-13
6.943e-14
-2.04571e-13
7.18541e-14
-2.36302e-13
7.38885e-14
-2.68159e-13
7.51197e-14
-2.9978e-13
7.52161e-14
-3.31727e-13
7.50042e-14
-3.6314e-13
7.38712e-14
-3.92042e-13
6.92042e-14
-4.23662e-13
6.91029e-14
-4.56163e-13
7.46362e-14
-4.78267e-13
5.99318e-14
-5.032e-13
5.10623e-14
-5.28048e-13
4.66752e-14
-5.56623e-13
5.26341e-14
-5.69342e-13
3.59524e-14
-5.91094e-13
2.67692e-14
-6.08777e-13
2.47528e-14
-6.25147e-13
1.94592e-14
-6.38424e-13
1.09541e-14
-6.51988e-13
6.23569e-15
-6.63321e-13
7.84065e-16
-6.73313e-13
-4.59468e-15
-6.81769e-13
-9.92636e-15
-6.88746e-13
-1.51653e-14
-6.94291e-13
-2.03227e-14
-6.98314e-13
-2.55353e-14
-7.00858e-13
-3.06254e-14
-7.01886e-13
-3.57667e-14
-7.01344e-13
-4.0921e-14
-6.99324e-13
-4.57383e-14
-6.95659e-13
-5.12262e-14
-6.90424e-13
-5.61779e-14
-6.83544e-13
-6.15124e-14
-6.74977e-13
-6.66474e-14
-6.6479e-13
-7.15561e-14
-6.52993e-13
-7.64351e-14
-6.39486e-13
-8.11609e-14
-6.24491e-13
-8.54068e-14
-6.0799e-13
-8.94386e-14
-5.89925e-13
-9.31025e-14
-5.70475e-13
-9.61963e-14
-5.49686e-13
-9.86322e-14
-5.27736e-13
-1.00394e-13
-5.04694e-13
-1.01453e-13
-4.80807e-13
-1.01562e-13
-4.56143e-13
-1.00791e-13
-4.30921e-13
-9.90363e-14
-4.05382e-13
-9.63208e-14
-3.79733e-13
-9.23622e-14
-3.54e-13
-8.77408e-14
-3.28648e-13
-8.20222e-14
-3.03607e-13
-7.53982e-14
-2.79255e-13
-6.79867e-14
-2.55597e-13
-6.00062e-14
-2.32876e-13
-5.13351e-14
-2.11028e-13
-4.24213e-14
-1.90268e-13
-3.33912e-14
-1.70667e-13
-2.39381e-14
-1.5205e-13
-1.49094e-14
-1.34579e-13
-5.9694e-15
-1.18121e-13
2.57248e-15
-1.0265e-13
1.03447e-14
-8.80699e-14
1.74306e-14
-7.43403e-14
2.37094e-14
-6.13407e-14
2.89285e-14
-4.88704e-14
3.28898e-14
-3.66252e-14
3.53881e-14
-2.42292e-14
3.6187e-14
-1.06042e-14
3.46799e-14
5.5891e-15
3.08369e-14
2.62297e-14
2.50608e-14
-3.92277e-14
1.31735e-13
-2.54734e-14
3.37607e-13
-6.1353e-15
1.76868e-13
1.25902e-23
4.4086e-19
1.34572e-22
6.30105e-22
6.20851e-22
6.954e-22
1.70715e-21
7.53355e-22
2.55366e-21
7.90475e-22
3.15776e-21
8.10379e-22
3.56437e-21
8.17099e-22
3.81382e-21
8.13532e-22
3.9396e-21
8.02314e-22
3.96897e-21
7.85253e-22
3.92425e-21
7.6385e-22
3.82349e-21
7.39551e-22
3.68152e-21
7.13185e-22
3.51066e-21
6.85629e-22
3.32004e-21
6.57402e-22
3.11733e-21
6.29019e-22
2.90888e-21
6.00792e-22
2.69935e-21
5.73236e-22
2.49209e-21
5.46301e-22
2.29015e-21
5.20193e-22
2.09535e-21
4.95119e-22
1.90918e-21
4.71079e-22
1.73258e-21
4.48229e-22
1.56596e-21
4.26308e-22
1.40993e-21
4.05629e-22
1.26414e-21
3.86035e-22
1.12848e-21
3.67578e-22
1.00285e-21
3.50363e-22
8.86583e-22
3.34129e-22
7.79204e-22
3.19085e-22
6.80201e-22
3.05281e-22
5.88953e-22
2.92408e-22
5.04477e-22
2.80673e-22
4.26308e-22
2.7023e-22
3.53568e-22
2.61079e-22
2.85636e-22
2.53169e-22
2.21426e-22
2.465e-22
1.60473e-22
2.41278e-22
1.01588e-22
2.37297e-22
4.40474e-23
2.34764e-22
2.3373e-22
-2.07647e-14
6.74322e-14
-5.1962e-14
6.80894e-14
-8.06495e-14
7.0064e-14
-1.09848e-13
7.30452e-14
-1.39829e-13
7.64819e-14
-1.70719e-13
8.01818e-14
-2.02485e-13
8.36635e-14
-2.34812e-13
8.64734e-14
-2.6728e-13
8.8089e-14
-3.00201e-13
8.8913e-14
-3.33548e-13
8.94355e-14
-3.64415e-13
8.6155e-14
-3.95063e-13
8.16368e-14
-4.31884e-13
8.81059e-14
-4.58944e-13
8.42982e-14
-4.83446e-13
6.74853e-14
-5.08726e-13
5.98699e-14
-5.36396e-13
5.83777e-14
-5.62414e-13
6.32094e-14
-5.74061e-13
3.27115e-14
-5.97724e-13
3.612e-14
-6.14944e-13
2.82593e-14
-6.30471e-13
2.18918e-14
-6.4438e-13
1.24107e-14
-6.57531e-13
7.59685e-15
-6.68836e-13
9.72547e-16
-6.78641e-13
-5.2061e-15
-6.8706e-13
-1.12103e-14
-6.94009e-13
-1.7191e-14
-6.99449e-13
-2.31143e-14
-7.0351e-13
-2.89494e-14
-7.06004e-13
-3.48388e-14
-7.07024e-13
-4.06759e-14
-7.06504e-13
-4.65827e-14
-7.04452e-13
-5.21374e-14
-7.00914e-13
-5.83089e-14
-6.95564e-13
-6.42669e-14
-6.8861e-13
-7.03909e-14
-6.79985e-13
-7.63801e-14
-6.69626e-13
-8.22081e-14
-6.57658e-13
-8.78774e-14
-6.43963e-13
-9.35142e-14
-6.2853e-13
-9.86831e-14
-6.11531e-13
-1.03471e-13
-5.93058e-13
-1.078e-13
-5.72978e-13
-1.11704e-13
-5.51459e-13
-1.14782e-13
-5.28723e-13
-1.16979e-13
-5.04929e-13
-1.1832e-13
-4.80045e-13
-1.18754e-13
-4.54395e-13
-1.18e-13
-4.28134e-13
-1.16117e-13
-4.01653e-13
-1.12898e-13
-3.74936e-13
-1.08468e-13
-3.4828e-13
-1.03092e-13
-3.22085e-13
-9.62414e-14
-2.96325e-13
-8.85286e-14
-2.71252e-13
-7.97917e-14
-2.47068e-13
-7.03083e-14
-2.23895e-13
-6.00386e-14
-2.01818e-13
-4.94608e-14
-1.80991e-13
-3.86348e-14
-1.61479e-13
-2.73476e-14
-1.43213e-13
-1.65821e-14
-1.26174e-13
-5.94592e-15
-1.10227e-13
4.12615e-15
-9.54952e-14
1.35286e-14
-8.18612e-14
2.20946e-14
-6.9174e-14
2.96773e-14
-5.73624e-14
3.60923e-14
-4.63344e-14
4.11344e-14
-3.58914e-14
4.44823e-14
-2.57041e-14
4.57671e-14
-1.48099e-14
4.37542e-14
2.98527e-16
3.58668e-14
3.17145e-14
1.39203e-14
-7.15806e-14
2.55413e-13
-2.17329e-14
3.08212e-13
-6.00934e-15
1.77445e-13
7.87916e-23
4.96715e-19
1.99816e-22
7.17631e-22
6.78857e-22
7.93111e-22
1.74427e-21
8.59803e-22
2.57362e-21
9.02609e-22
3.16453e-21
9.25719e-22
3.56086e-21
9.33422e-22
3.8026e-21
9.29544e-22
3.92254e-21
9.16878e-22
3.94762e-21
8.97543e-22
3.8999e-21
8.73348e-22
3.79717e-21
8.45689e-22
3.65397e-21
8.15548e-22
3.48238e-21
7.84064e-22
3.29161e-21
7.51649e-22
3.08916e-21
7.19234e-22
2.88128e-21
6.87025e-22
2.67241e-21
6.55231e-22
2.46598e-21
6.24211e-22
2.26503e-21
5.94329e-22
2.07131e-21
5.65533e-22
1.88628e-21
5.37926e-22
1.71071e-21
5.11508e-22
1.54528e-21
4.86382e-22
1.39034e-21
4.62601e-22
1.24573e-21
4.40164e-22
1.11121e-21
4.18915e-22
9.86671e-22
3.99115e-22
8.71538e-22
3.80451e-22
7.65297e-22
3.63184e-22
6.67431e-22
3.47157e-22
5.77217e-22
3.32475e-22
4.94034e-22
3.19137e-22
4.17106e-22
3.07143e-22
3.4571e-22
2.96493e-22
2.78967e-22
2.87445e-22
2.16204e-22
2.79846e-22
1.56441e-22
2.73745e-22
9.90032e-23
2.69299e-22
4.29617e-23
2.66404e-22
2.65267e-22
-1.97865e-14
7.37979e-14
-4.98926e-14
7.47821e-14
-7.77186e-14
7.75003e-14
-1.06337e-13
8.16455e-14
-1.36202e-13
8.64703e-14
-1.67188e-13
9.14438e-14
-1.99463e-13
9.63907e-14
-2.32533e-13
1.00207e-13
-2.6625e-13
1.02706e-13
-3.01033e-13
1.04868e-13
-3.34691e-13
1.04564e-13
-3.65541e-13
9.88072e-14
-4.02209e-13
1.00464e-13
-4.38905e-13
1.07345e-13
-4.61464e-13
8.98187e-14
-4.90002e-13
7.94216e-14
-5.1686e-13
7.05965e-14
-5.48094e-13
7.3974e-14
-5.61223e-13
6.12162e-14
-5.84991e-13
4.19015e-14
-6.0431e-13
4.14256e-14
-6.22248e-13
3.27693e-14
-6.36446e-13
2.32678e-14
-6.51451e-13
1.52219e-14
-6.63941e-13
8.54245e-15
-6.75096e-13
1.24937e-15
-6.84833e-13
-5.66679e-15
-6.93107e-13
-1.24349e-14
-6.9995e-13
-1.91325e-14
-7.05381e-13
-2.57387e-14
-7.09358e-13
-3.22924e-14
-7.1193e-13
-3.88328e-14
-7.12941e-13
-4.54696e-14
-7.12471e-13
-5.20849e-14
-7.10496e-13
-5.83649e-14
-7.06924e-13
-6.5347e-14
-7.01485e-13
-7.23791e-14
-6.9461e-13
-7.91466e-14
-6.85911e-13
-8.61608e-14
-6.75394e-13
-9.30034e-14
-6.63115e-13
-9.96386e-14
-6.49205e-13
-1.06104e-13
-6.3342e-13
-1.12349e-13
-6.15874e-13
-1.18105e-13
-5.96719e-13
-1.23253e-13
-5.76032e-13
-1.27904e-13
-5.53761e-13
-1.31788e-13
-5.30028e-13
-1.3468e-13
-5.05165e-13
-1.3639e-13
-4.79284e-13
-1.37096e-13
-4.52461e-13
-1.3655e-13
-4.25089e-13
-1.34488e-13
-3.97403e-13
-1.30876e-13
-3.69338e-13
-1.26132e-13
-3.4164e-13
-1.19709e-13
-3.14309e-13
-1.11834e-13
-2.8759e-13
-1.02869e-13
-2.61649e-13
-9.27317e-14
-2.36855e-13
-8.14992e-14
-2.13138e-13
-6.95735e-14
-1.90824e-13
-5.70346e-14
-1.7003e-13
-4.41577e-14
-1.50533e-13
-3.1064e-14
-1.32623e-13
-1.82277e-14
-1.16045e-13
-5.80431e-15
-1.00807e-13
6.03993e-15
-8.69371e-14
1.72105e-14
-7.42673e-14
2.73561e-14
-6.27981e-14
3.64829e-14
-5.2331e-14
4.42169e-14
-4.29264e-14
5.06114e-14
-3.4626e-14
5.53199e-14
-2.7597e-14
5.81057e-14
-2.25912e-14
5.83111e-14
-2.1337e-14
5.4339e-14
-3.04683e-14
4.29146e-14
-5.08317e-14
2.9574e-13
-2.05925e-14
2.98007e-13
-5.868e-15
1.78675e-13
1.58234e-22
5.48758e-19
2.754e-22
8.03761e-22
7.45445e-22
8.89426e-22
1.78702e-21
9.65165e-22
2.59668e-21
1.01407e-21
3.17219e-21
1.0408e-21
3.55698e-21
1.05031e-21
3.78994e-21
1.04659e-21
3.90326e-21
1.03268e-21
3.92342e-21
1.01138e-21
3.87214e-21
9.84397e-22
3.76708e-21
9.53326e-22
3.62248e-21
9.19618e-22
3.45007e-21
8.84204e-22
3.2592e-21
8.47809e-22
3.05695e-21
8.11051e-22
2.84943e-21
7.745e-22
2.64145e-21
7.38569e-22
2.43605e-21
7.03517e-22
2.23628e-21
6.69499e-22
2.04365e-21
6.36826e-22
1.85986e-21
6.05445e-22
1.68559e-21
5.75511e-22
1.52155e-21
5.47077e-22
1.3679e-21
5.2009e-22
1.22449e-21
4.94499e-22
1.09136e-21
4.70562e-22
9.6806e-22
4.48073e-22
8.54219e-22
4.27032e-22
7.49322e-22
4.07386e-22
6.52697e-22
3.8924e-22
5.63879e-22
3.72645e-22
4.8204e-22
3.57497e-22
4.06508e-22
3.43797e-22
3.36611e-22
3.31803e-22
2.71367e-22
3.21515e-22
2.10156e-22
3.12881e-22
1.51994e-22
3.05902e-22
9.61598e-23
3.00887e-22
4.18243e-23
2.97733e-22
2.96337e-22
-1.83841e-14
7.90341e-14
-4.6906e-14
8.04425e-14
-7.35877e-14
8.42697e-14
-1.0151e-13
9.00173e-14
-1.31097e-13
9.66435e-14
-1.6229e-13
1.03371e-13
-1.95469e-13
1.10477e-13
-2.28977e-13
1.14826e-13
-2.65162e-13
1.2024e-13
-3.01533e-13
1.22849e-13
-3.33219e-13
1.18157e-13
-3.71086e-13
1.18901e-13
-4.14396e-13
1.26353e-13
-4.38551e-13
1.14457e-13
-4.68882e-13
1.03509e-13
-4.96209e-13
9.05381e-14
-5.32976e-13
9.16112e-14
-5.5137e-13
7.70963e-14
-5.67913e-13
6.29945e-14
-5.94983e-13
5.47349e-14
-6.12998e-13
4.57574e-14
-6.29647e-13
3.63077e-14
-6.44383e-13
2.54864e-14
-6.58979e-13
1.79153e-14
-6.71246e-13
9.53858e-15
-6.82228e-13
1.60926e-15
-6.91752e-13
-6.09802e-15
-6.99854e-13
-1.36059e-14
-7.06601e-13
-2.09614e-14
-7.11939e-13
-2.82671e-14
-7.15941e-13
-3.54303e-14
-7.18441e-13
-4.27397e-14
-7.19585e-13
-4.99863e-14
-7.19184e-13
-5.73958e-14
-7.1736e-13
-6.43352e-14
-7.13669e-13
-7.2417e-14
-7.08372e-13
-8.02822e-14
-7.01334e-13
-8.80132e-14
-6.92694e-13
-9.58486e-14
-6.8215e-13
-1.03817e-13
-6.69678e-13
-1.11596e-13
-6.55348e-13
-1.19139e-13
-6.39262e-13
-1.26358e-13
-6.21207e-13
-1.3331e-13
-6.01283e-13
-1.39553e-13
-5.79754e-13
-1.45047e-13
-5.56541e-13
-1.49853e-13
-5.319e-13
-1.5342e-13
-5.0581e-13
-1.55844e-13
-4.78565e-13
-1.56971e-13
-4.50445e-13
-1.56579e-13
-4.21698e-13
-1.5444e-13
-3.92356e-13
-1.5073e-13
-3.62977e-13
-1.45346e-13
-3.33986e-13
-1.37873e-13
-3.05255e-13
-1.29092e-13
-2.77373e-13
-1.18653e-13
-2.50468e-13
-1.06931e-13
-2.24868e-13
-9.38081e-14
-2.00643e-13
-7.99408e-14
-1.7798e-13
-6.52979e-14
-1.56997e-13
-5.02201e-14
-1.37708e-13
-3.49361e-14
-1.20113e-13
-1.99348e-14
-1.04126e-13
-5.45491e-15
-8.96916e-14
8.35776e-15
-7.67722e-14
2.14411e-14
-6.52455e-14
3.33425e-14
-5.49857e-14
4.40754e-14
-4.6004e-14
5.33977e-14
-3.8209e-14
6.12572e-14
-3.18135e-14
6.76177e-14
-2.74461e-14
7.26535e-14
-2.68086e-14
7.67775e-14
-3.46245e-14
8.14221e-14
-6.8091e-14
9.57764e-14
-4.33119e-14
2.90457e-13
-2.2015e-14
2.96274e-13
-5.71172e-15
1.77937e-13
2.6415e-22
5.95665e-19
3.61116e-22
8.87358e-22
8.21132e-22
9.84242e-22
1.83593e-21
1.06965e-21
2.62351e-21
1.12528e-21
3.1817e-21
1.15614e-21
3.55326e-21
1.16798e-21
3.77608e-21
1.16488e-21
3.88186e-21
1.15035e-21
3.89643e-21
1.12719e-21
3.84107e-21
1.09762e-21
3.73332e-21
1.06355e-21
3.58707e-21
1.02612e-21
3.41367e-21
9.86671e-22
3.22244e-21
9.46036e-22
3.0204e-21
9.04936e-22
2.8135e-21
8.6399e-22
2.60639e-21
8.23717e-22
2.40213e-21
7.84271e-22
2.20351e-21
7.46065e-22
2.01232e-21
7.09256e-22
1.82998e-21
6.74049e-22
1.65705e-21
6.4029e-22
1.49461e-21
6.08443e-22
1.34231e-21
5.78251e-22
1.20055e-21
5.4961e-22
1.06882e-21
5.22623e-22
9.47018e-22
4.97342e-22
8.34574e-22
4.73768e-22