/*--------------------------------*- C++ -*----------------------------------*\
  =========                 |
  \\      /  F ield         | OpenFOAM: The Open Source CFD Toolbox
   \\    /   O peration     | Website:  https://openfoam.org
    \\  /    A nd           | Version:  6
     \\/     M anipulation  |
\*---------------------------------------------------------------------------*/
FoamFile
{
    version     2.0;
    format      ascii;
    class       volVectorField;
    location    "2800";
    object      U;
}
// * * * * * * * * * * * * * * * * * * * * * * * * * * * * * * * * * * * * * //

dimensions      [0 1 -1 0 0 0 0];

internalField   nonuniform List<vector> 
4800
(
(-3.05698e-09 0 4.33315e-09)
(-1.50109e-08 0 1.29668e-09)
(-2.82792e-08 0 2.63362e-10)
(-4.07274e-08 0 7.81067e-11)
(-5.30113e-08 0 1.99887e-10)
(-6.52563e-08 0 4.65005e-10)
(-7.74676e-08 0 7.95973e-10)
(-8.96319e-08 0 1.15634e-09)
(-1.01725e-07 0 1.50728e-09)
(-1.13699e-07 0 1.81658e-09)
(-1.25511e-07 0 2.08642e-09)
(-1.37116e-07 0 2.28717e-09)
(-1.48449e-07 0 2.39785e-09)
(-1.5948e-07 0 2.49815e-09)
(-1.70211e-07 0 2.53663e-09)
(-1.8061e-07 0 2.59624e-09)
(-1.9083e-07 0 2.58034e-09)
(-2.00275e-07 0 2.15912e-09)
(-2.08972e-07 0 2.01965e-09)
(-2.17469e-07 0 2.04675e-09)
(-2.25663e-07 0 2.08771e-09)
(-2.32879e-07 0 1.27203e-09)
(-2.39407e-07 0 1.41471e-09)
(-2.45646e-07 0 1.21376e-09)
(-2.51218e-07 0 9.65299e-10)
(-2.56135e-07 0 7.73425e-10)
(-2.6051e-07 0 5.99742e-10)
(-2.64297e-07 0 4.09946e-10)
(-2.67489e-07 0 2.22022e-10)
(-2.70074e-07 0 2.31531e-11)
(-2.72044e-07 0 -1.74887e-10)
(-2.73404e-07 0 -3.69523e-10)
(-2.74158e-07 0 -5.6268e-10)
(-2.74299e-07 0 -7.67516e-10)
(-2.73813e-07 0 -9.6582e-10)
(-2.72717e-07 0 -1.16257e-09)
(-2.71001e-07 0 -1.36904e-09)
(-2.6868e-07 0 -1.56195e-09)
(-2.65727e-07 0 -1.76338e-09)
(-2.62188e-07 0 -1.95124e-09)
(-2.58051e-07 0 -2.14252e-09)
(-2.53323e-07 0 -2.32174e-09)
(-2.48043e-07 0 -2.48976e-09)
(-2.42212e-07 0 -2.65518e-09)
(-2.35871e-07 0 -2.78881e-09)
(-2.29043e-07 0 -2.9261e-09)
(-2.2176e-07 0 -3.04266e-09)
(-2.14063e-07 0 -3.12663e-09)
(-2.05999e-07 0 -3.20345e-09)
(-1.97607e-07 0 -3.25354e-09)
(-1.88941e-07 0 -3.27425e-09)
(-1.80052e-07 0 -3.27879e-09)
(-1.70991e-07 0 -3.25022e-09)
(-1.61824e-07 0 -3.19316e-09)
(-1.52605e-07 0 -3.11199e-09)
(-1.43383e-07 0 -3.01435e-09)
(-1.34193e-07 0 -2.88973e-09)
(-1.25105e-07 0 -2.74971e-09)
(-1.16143e-07 0 -2.57876e-09)
(-1.07365e-07 0 -2.41386e-09)
(-9.87719e-08 0 -2.22828e-09)
(-9.04058e-08 0 -2.04109e-09)
(-8.22744e-08 0 -1.84882e-09)
(-7.43875e-08 0 -1.65995e-09)
(-6.67522e-08 0 -1.46942e-09)
(-5.935e-08 0 -1.306e-09)
(-5.21621e-08 0 -1.14171e-09)
(-4.51732e-08 0 -1.00128e-09)
(-3.83386e-08 0 -8.91012e-10)
(-3.15861e-08 0 -8.25336e-10)
(-2.48488e-08 0 -7.92669e-10)
(-1.80186e-08 0 -8.30676e-10)
(-1.08951e-08 0 -9.8257e-10)
(-3.05854e-09 0 -1.42404e-09)
(6.68962e-09 0 -2.67754e-09)
(2.16827e-08 0 -6.40197e-09)
(4.92132e-08 0 -1.87697e-08)
(2.77962e-08 0 1.69369e-08)
(-6.7864e-09 0 1.87671e-08)
(-2.26974e-14 0 1.57954e-14)
(5.32505e-17 0 2.16928e-17)
(1.39246e-16 0 -3.09366e-17)
(3.8985e-16 0 -2.57046e-17)
(7.87972e-16 0 -1.28213e-17)
(1.0997e-15 0 -1.68538e-18)
(1.32085e-15 0 6.98968e-18)
(1.46737e-15 0 1.35968e-17)
(1.55445e-15 0 1.85082e-17)
(1.59474e-15 0 2.2065e-17)
(1.5987e-15 0 2.45156e-17)
(1.57481e-15 0 2.60769e-17)
(1.52996e-15 0 2.69351e-17)
(1.46987e-15 0 2.72349e-17)
(1.39905e-15 0 2.71212e-17)
(1.32116e-15 0 2.66662e-17)
(1.23916e-15 0 2.59838e-17)
(1.15527e-15 0 2.50946e-17)
(1.07129e-15 0 2.4102e-17)
(9.88584e-16 0 2.30266e-17)
(9.08141e-16 0 2.18893e-17)
(8.30748e-16 0 2.07416e-17)
(7.56912e-16 0 1.96042e-17)
(6.86912e-16 0 1.84771e-17)
(6.20954e-16 0 1.73708e-17)
(5.59133e-16 0 1.63161e-17)
(5.01406e-16 0 1.53132e-17)
(4.47691e-16 0 1.43826e-17)
(3.97822e-16 0 1.35141e-17)
(3.51624e-16 0 1.27076e-17)
(3.0889e-16 0 1.19838e-17)
(2.6932e-16 0 1.13117e-17)
(2.32634e-16 0 1.0712e-17)
(1.98554e-16 0 1.01847e-17)
(1.66801e-16 0 9.72971e-18)
(1.37085e-16 0 9.3368e-18)
(1.09074e-16 0 9.02661e-18)
(8.2532e-17 0 8.75778e-18)
(5.72202e-17 0 8.4786e-18)
(3.30355e-17 0 8.07535e-18)
(1.06189e-17 0 7.07239e-18)
(-3.38702e-09 0 8.38735e-09)
(-1.54164e-08 0 9.95474e-09)
(-2.85478e-08 0 1.04614e-08)
(-4.10212e-08 0 1.05209e-08)
(-5.33577e-08 0 1.04088e-08)
(-6.56406e-08 0 1.02246e-08)
(-7.7887e-08 0 9.98383e-09)
(-9.00802e-08 0 9.70306e-09)
(-1.02182e-07 0 9.37508e-09)
(-1.14164e-07 0 9.00112e-09)
(-1.25982e-07 0 8.59936e-09)
(-1.37579e-07 0 8.14462e-09)
(-1.48892e-07 0 7.59873e-09)
(-1.59903e-07 0 7.23776e-09)
(-1.70631e-07 0 6.88064e-09)
(-1.81086e-07 0 6.75969e-09)
(-1.91293e-07 0 6.44066e-09)
(-2.00639e-07 0 5.02553e-09)
(-2.09384e-07 0 4.56677e-09)
(-2.1792e-07 0 4.65289e-09)
(-2.26092e-07 0 4.68116e-09)
(-2.33252e-07 0 2.33475e-09)
(-2.39855e-07 0 2.71947e-09)
(-2.46074e-07 0 2.1675e-09)
(-2.51633e-07 0 1.40896e-09)
(-2.56549e-07 0 8.95996e-10)
(-2.60929e-07 0 4.0041e-10)
(-2.6471e-07 0 -1.2212e-10)
(-2.6789e-07 0 -6.45748e-10)
(-2.70464e-07 0 -1.17612e-09)
(-2.72436e-07 0 -1.69918e-09)
(-2.73804e-07 0 -2.20282e-09)
(-2.7455e-07 0 -2.71919e-09)
(-2.74683e-07 0 -3.22612e-09)
(-2.74211e-07 0 -3.71926e-09)
(-2.73113e-07 0 -4.24288e-09)
(-2.71382e-07 0 -4.74277e-09)
(-2.69061e-07 0 -5.21517e-09)
(-2.66102e-07 0 -5.71571e-09)
(-2.6255e-07 0 -6.17555e-09)
(-2.58398e-07 0 -6.6294e-09)
(-2.53654e-07 0 -7.06142e-09)
(-2.48356e-07 0 -7.45314e-09)
(-2.42513e-07 0 -7.82726e-09)
(-2.3614e-07 0 -8.14878e-09)
(-2.2926e-07 0 -8.43436e-09)
(-2.21941e-07 0 -8.67298e-09)
(-2.14203e-07 0 -8.82506e-09)
(-2.06089e-07 0 -8.94903e-09)
(-1.97648e-07 0 -8.99223e-09)
(-1.88933e-07 0 -8.95577e-09)
(-1.80002e-07 0 -8.86001e-09)
(-1.70904e-07 0 -8.6822e-09)
(-1.61687e-07 0 -8.42449e-09)
(-1.52415e-07 0 -8.08424e-09)
(-1.43143e-07 0 -7.70576e-09)
(-1.33905e-07 0 -7.2441e-09)
(-1.24783e-07 0 -6.72859e-09)
(-1.15795e-07 0 -6.13848e-09)
(-1.06995e-07 0 -5.56222e-09)
(-9.83826e-08 0 -4.92683e-09)
(-9.00002e-08 0 -4.28904e-09)
(-8.18655e-08 0 -3.62753e-09)
(-7.39986e-08 0 -2.9746e-09)
(-6.638e-08 0 -2.34568e-09)
(-5.89979e-08 0 -1.76572e-09)
(-5.18566e-08 0 -1.19855e-09)
(-4.49171e-08 0 -7.14515e-10)
(-3.81291e-08 0 -3.24213e-10)
(-3.14477e-08 0 -4.7691e-11)
(-2.48353e-08 0 1.28221e-10)
(-1.823e-08 0 1.02792e-10)
(-1.1542e-08 0 -2.3097e-10)
(-4.75887e-09 0 -1.1495e-09)
(1.76199e-09 0 -3.40546e-09)
(6.75042e-09 0 -9.11625e-09)
(9.86538e-11 0 -2.50471e-08)
(1.31007e-09 0 5.18696e-08)
(-5.30917e-09 0 4.32629e-08)
(-1.64803e-14 0 4.13591e-14)
(4.49519e-19 0 5.73029e-17)
(9.18584e-17 0 4.13591e-19)
(4.07986e-16 0 8.88185e-18)
(8.11992e-16 0 2.6232e-17)
(1.11951e-15 0 4.08937e-17)
(1.33614e-15 0 5.19469e-17)
(1.47889e-15 0 5.99292e-17)
(1.56291e-15 0 6.543e-17)
(1.60075e-15 0 6.89248e-17)
(1.60272e-15 0 7.08067e-17)
(1.57724e-15 0 7.14167e-17)
(1.53112e-15 0 7.10548e-17)
(1.47004e-15 0 6.99381e-17)
(1.39847e-15 0 6.82631e-17)
(1.32003e-15 0 6.61745e-17)
(1.23758e-15 0 6.3786e-17)
(1.15338e-15 0 6.1201e-17)
(1.06922e-15 0 5.8523e-17)
(9.86382e-16 0 5.57623e-17)
(9.05877e-16 0 5.3043e-17)
(8.28473e-16 0 5.03236e-17)
(7.54637e-16 0 4.76766e-17)
(6.84678e-16 0 4.51227e-17)
(6.18804e-16 0 4.26618e-17)
(5.57075e-16 0 4.03251e-17)
(4.99472e-16 0 3.8133e-17)
(4.45892e-16 0 3.60444e-17)
(3.96147e-16 0 3.41315e-17)
(3.50094e-16 0 3.23531e-17)
(3.07494e-16 0 3.07298e-17)
(2.68058e-16 0 2.92305e-17)
(2.31518e-16 0 2.78863e-17)
(1.97562e-16 0 2.66869e-17)
(1.65953e-16 0 2.56736e-17)
(1.36392e-16 0 2.47947e-17)
(1.08485e-16 0 2.40503e-17)
(8.19839e-17 0 2.34196e-17)
(5.65378e-17 0 2.28198e-17)
(3.16086e-17 0 2.21374e-17)
(9.60564e-18 0 2.09587e-17)
(-3.81528e-09 0 9.72204e-09)
(-1.61079e-08 0 9.61947e-09)
(-2.87003e-08 0 9.57449e-09)
(-4.08288e-08 0 9.63798e-09)
(-5.29814e-08 0 9.757e-09)
(-6.51722e-08 0 9.9199e-09)
(-7.73827e-08 0 1.01119e-08)
(-8.95882e-08 0 1.02705e-08)
(-1.01749e-07 0 1.03662e-08)
(-1.13816e-07 0 1.0379e-08)
(-1.25739e-07 0 1.03005e-08)
(-1.37451e-07 0 1.00593e-08)
(-1.48884e-07 0 9.63901e-09)
(-1.60037e-07 0 9.39944e-09)
(-1.70932e-07 0 9.12557e-09)
(-1.81598e-07 0 9.40848e-09)
(-1.91852e-07 0 8.42047e-09)
(-2.01103e-07 0 6.56473e-09)
(-2.10016e-07 0 6.05019e-09)
(-2.18695e-07 0 6.31926e-09)
(-2.26779e-07 0 5.83521e-09)
(-2.33806e-07 0 2.72792e-09)
(-2.40548e-07 0 3.15739e-09)
(-2.46748e-07 0 2.36346e-09)
(-2.52267e-07 0 1.10489e-09)
(-2.57191e-07 0 4.3159e-10)
(-2.61577e-07 0 -3.45169e-10)
(-2.65353e-07 0 -1.12607e-09)
(-2.68528e-07 0 -1.9161e-09)
(-2.71105e-07 0 -2.69183e-09)
(-2.73079e-07 0 -3.46503e-09)
(-2.74437e-07 0 -4.22387e-09)
(-2.75177e-07 0 -5.00465e-09)
(-2.75307e-07 0 -5.74621e-09)
(-2.74819e-07 0 -6.46985e-09)
(-2.73718e-07 0 -7.27239e-09)
(-2.71989e-07 0 -8.00467e-09)
(-2.69655e-07 0 -8.70481e-09)
(-2.66668e-07 0 -9.462e-09)
(-2.63093e-07 0 -1.01445e-08)
(-2.58913e-07 0 -1.08024e-08)
(-2.54145e-07 0 -1.1433e-08)
(-2.4881e-07 0 -1.2025e-08)
(-2.42899e-07 0 -1.25447e-08)
(-2.36472e-07 0 -1.30282e-08)
(-2.29542e-07 0 -1.34042e-08)
(-2.22161e-07 0 -1.37239e-08)
(-2.14341e-07 0 -1.39134e-08)
(-2.0614e-07 0 -1.40328e-08)
(-1.97613e-07 0 -1.40286e-08)
(-1.88805e-07 0 -1.38931e-08)
(-1.79766e-07 0 -1.36554e-08)
(-1.70561e-07 0 -1.32777e-08)
(-1.61255e-07 0 -1.27782e-08)
(-1.51899e-07 0 -1.21367e-08)
(-1.42531e-07 0 -1.14472e-08)
(-1.33206e-07 0 -1.05926e-08)
(-1.24019e-07 0 -9.65008e-09)
(-1.14962e-07 0 -8.60971e-09)
(-1.06117e-07 0 -7.56728e-09)
(-9.74802e-08 0 -6.45084e-09)
(-8.90937e-08 0 -5.31588e-09)
(-8.09816e-08 0 -4.14912e-09)
(-7.31248e-08 0 -3.01779e-09)
(-6.55404e-08 0 -1.91667e-09)
(-5.82373e-08 0 -8.82596e-10)
(-5.11738e-08 0 8.9882e-11)
(-4.43188e-08 0 9.35211e-10)
(-3.76519e-08 0 1.62389e-09)
(-3.11305e-08 0 2.15665e-09)
(-2.47275e-08 0 2.5329e-09)
(-1.83982e-08 0 2.62879e-09)
(-1.21727e-08 0 2.41655e-09)
(-6.23489e-09 0 1.73638e-09)
(-1.20353e-09 0 4.81998e-10)
(1.48079e-09 0 -1.43047e-09)
(-3.97611e-09 0 -2.62135e-09)
(-4.51208e-09 0 5.37461e-08)
(-5.05716e-09 0 5.37699e-08)
(-1.57547e-14 0 6.3815e-14)
(-3.81073e-18 0 8.89633e-17)
(9.08245e-17 0 8.83326e-17)
(4.15669e-16 0 9.64079e-17)
(8.19974e-16 0 1.04835e-16)
(1.12541e-15 0 1.11028e-16)
(1.3399e-15 0 1.14854e-16)
(1.48086e-15 0 1.16695e-16)
(1.56343e-15 0 1.16901e-16)
(1.60012e-15 0 1.15785e-16)
(1.60122e-15 0 1.13696e-16)
(1.57507e-15 0 1.10853e-16)
(1.52849e-15 0 1.07482e-16)
(1.46707e-15 0 1.03749e-16)
(1.39528e-15 0 9.97683e-17)
(1.31669e-15 0 9.56841e-17)
(1.23417e-15 0 9.15069e-17)
(1.15e-15 0 8.7371e-17)
(1.06585e-15 0 8.32557e-17)
(9.83104e-16 0 7.92336e-17)
(9.02702e-16 0 7.53768e-17)
(8.25382e-16 0 7.16545e-17)
(7.517e-16 0 6.80563e-17)
(6.81907e-16 0 6.46649e-17)
(6.16167e-16 0 6.14388e-17)
(5.54583e-16 0 5.8399e-17)
(4.97136e-16 0 5.55555e-17)
(4.4371e-16 0 5.28465e-17)
(3.94131e-16 0 5.03339e-17)
(3.48212e-16 0 4.80282e-17)
(3.05747e-16 0 4.58982e-17)
(2.66476e-16 0 4.39233e-17)
(2.30101e-16 0 4.21449e-17)
(1.96331e-16 0 4.05525e-17)
(1.64909e-16 0 3.91773e-17)
(1.35472e-16 0 3.79779e-17)
(1.07689e-16 0 3.69543e-17)
(8.12912e-17 0 3.61064e-17)
(5.59278e-17 0 3.53827e-17)
(3.11537e-17 0 3.4814e-17)
(9.42986e-18 0 3.45245e-17)
(-3.72912e-09 0 1.32497e-08)
(-1.60113e-08 0 1.32817e-08)
(-2.85589e-08 0 1.3391e-08)
(-4.06274e-08 0 1.35971e-08)
(-5.27254e-08 0 1.38362e-08)
(-6.49098e-08 0 1.41017e-08)
(-7.71558e-08 0 1.43684e-08)
(-8.94158e-08 0 1.45655e-08)
(-1.01657e-07 0 1.46708e-08)
(-1.13838e-07 0 1.4645e-08)
(-1.25883e-07 0 1.4461e-08)
(-1.37722e-07 0 1.40231e-08)
(-1.49299e-07 0 1.34466e-08)
(-1.60594e-07 0 1.29892e-08)
(-1.71641e-07 0 1.26677e-08)
(-1.82542e-07 0 1.31475e-08)
(-1.92768e-07 0 1.11145e-08)
(-2.01865e-07 0 8.78886e-09)
(-2.11028e-07 0 8.22896e-09)
(-2.19916e-07 0 8.8007e-09)
(-2.27773e-07 0 7.2401e-09)
(-2.34643e-07 0 3.87688e-09)
(-2.4158e-07 0 4.08397e-09)
(-2.47733e-07 0 3.0088e-09)
(-2.53201e-07 0 1.14978e-09)
(-2.58154e-07 0 3.83406e-10)
(-2.62527e-07 0 -7.37399e-10)
(-2.66299e-07 0 -1.80473e-09)
(-2.69466e-07 0 -2.89327e-09)
(-2.72039e-07 0 -3.93659e-09)
(-2.74006e-07 0 -5.01107e-09)
(-2.75348e-07 0 -6.061e-09)
(-2.76081e-07 0 -7.11501e-09)
(-2.76203e-07 0 -8.13879e-09)
(-2.75704e-07 0 -9.11654e-09)
(-2.74598e-07 0 -1.022e-08)
(-2.72862e-07 0 -1.12248e-08)
(-2.70513e-07 0 -1.2192e-08)
(-2.67502e-07 0 -1.32306e-08)
(-2.63914e-07 0 -1.41718e-08)
(-2.59692e-07 0 -1.50914e-08)
(-2.5484e-07 0 -1.59418e-08)
(-2.49466e-07 0 -1.67702e-08)
(-2.43492e-07 0 -1.74893e-08)
(-2.36988e-07 0 -1.81474e-08)
(-2.29952e-07 0 -1.86705e-08)
(-2.22456e-07 0 -1.91041e-08)
(-2.14524e-07 0 -1.93679e-08)
(-2.06201e-07 0 -1.95119e-08)
(-1.97534e-07 0 -1.95016e-08)
(-1.88573e-07 0 -1.92975e-08)
(-1.79394e-07 0 -1.89396e-08)
(-1.70048e-07 0 -1.83915e-08)
(-1.6058e-07 0 -1.76703e-08)
(-1.51065e-07 0 -1.67484e-08)
(-1.41567e-07 0 -1.57508e-08)
(-1.32146e-07 0 -1.45055e-08)
(-1.22852e-07 0 -1.31572e-08)
(-1.13704e-07 0 -1.16762e-08)
(-1.0478e-07 0 -1.01568e-08)
(-9.61087e-08 0 -8.54995e-09)
(-8.76922e-08 0 -6.91295e-09)
(-7.95734e-08 0 -5.23541e-09)
(-7.1756e-08 0 -3.61373e-09)
(-6.42428e-08 0 -2.01832e-09)
(-5.70199e-08 0 -5.11223e-10)
(-5.00687e-08 0 8.70733e-10)
(-4.33629e-08 0 2.10746e-09)
(-3.68782e-08 0 3.13134e-09)
(-3.05711e-08 0 3.94536e-09)
(-2.44043e-08 0 4.56049e-09)
(-1.83507e-08 0 4.83807e-09)
(-1.24216e-08 0 4.8576e-09)
(-6.71676e-09 0 4.6288e-09)
(-1.46193e-09 0 4.35911e-09)
(3.30748e-09 0 4.75464e-09)
(7.43231e-09 0 8.26144e-09)
(-5.94806e-09 0 6.42609e-08)
(-4.96972e-09 0 6.08405e-08)
(-1.56404e-14 0 8.93435e-14)
(-1.69924e-19 0 1.24987e-16)
(9.92927e-17 0 1.35461e-16)
(4.24478e-16 0 1.46856e-16)
(8.26602e-16 0 1.55355e-16)
(1.12954e-15 0 1.60763e-16)
(1.34181e-15 0 1.63441e-16)
(1.48092e-15 0 1.63885e-16)
(1.562e-15 0 1.6251e-16)
(1.59755e-15 0 1.59749e-16)
(1.5978e-15 0 1.55934e-16)
(1.57102e-15 0 1.51353e-16)
(1.52401e-15 0 1.46277e-16)
(1.46232e-15 0 1.40828e-16)
(1.39041e-15 0 1.35182e-16)
(1.31177e-15 0 1.29454e-16)
(1.22927e-15 0 1.23736e-16)
(1.14514e-15 0 1.18111e-16)
(1.0611e-15 0 1.12559e-16)
(9.78493e-16 0 1.07192e-16)
(8.98287e-16 0 1.02002e-16)
(8.21153e-16 0 9.70386e-17)
(7.47637e-16 0 9.22617e-17)
(6.7805e-16 0 8.77535e-17)
(6.12548e-16 0 8.34729e-17)
(5.51192e-16 0 7.943e-17)
(4.9392e-16 0 7.56353e-17)
(4.40691e-16 0 7.20991e-17)
(3.91329e-16 0 6.87491e-17)
(3.45637e-16 0 6.56678e-17)
(3.03379e-16 0 6.2814e-17)
(2.64305e-16 0 6.01981e-17)
(2.28147e-16 0 5.78199e-17)
(1.94605e-16 0 5.56899e-17)
(1.63389e-16 0 5.38081e-17)
(1.34169e-16 0 5.21641e-17)
(1.06613e-16 0 5.07992e-17)
(8.04123e-17 0 4.96929e-17)
(5.52453e-17 0 4.8814e-17)
(3.07608e-17 0 4.82143e-17)
(9.32646e-18 0 4.79455e-17)
(-3.59592e-09 0 1.66689e-08)
(-1.58338e-08 0 1.68101e-08)
(-2.83243e-08 0 1.70491e-08)
(-4.03675e-08 0 1.7381e-08)
(-5.24504e-08 0 1.777e-08)
(-6.46525e-08 0 1.81672e-08)
(-7.69437e-08 0 1.85248e-08)
(-8.92898e-08 0 1.88004e-08)
(-1.01651e-07 0 1.89484e-08)
(-1.13962e-07 0 1.89248e-08)
(-1.26145e-07 0 1.86625e-08)
(-1.38166e-07 0 1.80403e-08)
(-1.4991e-07 0 1.7511e-08)
(-1.61421e-07 0 1.66678e-08)
(-1.7272e-07 0 1.66231e-08)
(-1.83671e-07 0 1.7799e-08)
(-1.93782e-07 0 1.31051e-08)
(-2.03052e-07 0 1.09609e-08)
(-2.12449e-07 0 1.11302e-08)
(-2.21445e-07 0 1.24743e-08)
(-2.28921e-07 0 6.42142e-09)
(-2.35991e-07 0 5.96099e-09)
(-2.42903e-07 0 5.02913e-09)
(-2.49022e-07 0 3.61516e-09)
(-2.54437e-07 0 1.28515e-09)
(-2.59436e-07 0 4.10314e-10)
(-2.63771e-07 0 -1.07766e-09)
(-2.67524e-07 0 -2.43843e-09)
(-2.70684e-07 0 -3.81189e-09)
(-2.73246e-07 0 -5.14246e-09)
(-2.75191e-07 0 -6.51955e-09)
(-2.76538e-07 0 -7.85149e-09)
(-2.7728e-07 0 -9.18367e-09)
(-2.77401e-07 0 -1.0508e-08)
(-2.76896e-07 0 -1.17405e-08)
(-2.75768e-07 0 -1.31588e-08)
(-2.74023e-07 0 -1.44313e-08)
(-2.71645e-07 0 -1.57071e-08)
(-2.68592e-07 0 -1.70205e-08)
(-2.64959e-07 0 -1.82299e-08)
(-2.60714e-07 0 -1.94346e-08)
(-2.55794e-07 0 -2.05314e-08)
(-2.50348e-07 0 -2.15921e-08)
(-2.44273e-07 0 -2.2552e-08)
(-2.37649e-07 0 -2.33985e-08)
(-2.30489e-07 0 -2.40954e-08)
(-2.22849e-07 0 -2.46509e-08)
(-2.1476e-07 0 -2.50127e-08)
(-2.06254e-07 0 -2.51985e-08)
(-1.97403e-07 0 -2.51935e-08)
(-1.88247e-07 0 -2.49457e-08)
(-1.78861e-07 0 -2.44523e-08)
(-1.69306e-07 0 -2.37631e-08)
(-1.59637e-07 0 -2.28185e-08)
(-1.49943e-07 0 -2.16025e-08)
(-1.4026e-07 0 -2.028e-08)
(-1.30671e-07 0 -1.86413e-08)
(-1.21221e-07 0 -1.68765e-08)
(-1.11967e-07 0 -1.49472e-08)
(-1.02936e-07 0 -1.29059e-08)
(-9.42243e-08 0 -1.07956e-08)
(-8.57867e-08 0 -8.63527e-09)
(-7.76865e-08 0 -6.41894e-09)
(-6.99152e-08 0 -4.27295e-09)
(-6.2471e-08 0 -2.16512e-09)
(-5.53678e-08 0 -1.58903e-10)
(-4.8577e-08 0 1.65756e-09)
(-4.2061e-08 0 3.3234e-09)
(-3.57861e-08 0 4.70755e-09)
(-2.9738e-08 0 5.84667e-09)
(-2.38527e-08 0 6.69027e-09)
(-1.80749e-08 0 7.19743e-09)
(-1.23614e-08 0 7.39165e-09)
(-6.64408e-09 0 7.39801e-09)
(-8.63017e-10 0 7.5064e-09)
(5.33032e-09 0 8.3345e-09)
(1.11124e-08 0 1.17015e-08)
(-6.38511e-09 0 8.79434e-08)
(-4.89889e-09 0 6.90565e-08)
(-1.54985e-14 0 1.15097e-13)
(6.697e-18 0 1.61631e-16)
(1.12703e-16 0 1.77544e-16)
(4.35583e-16 0 1.92371e-16)
(8.33871e-16 0 2.02318e-16)
(1.1335e-15 0 2.08077e-16)
(1.34302e-15 0 2.10455e-16)
(1.47991e-15 0 2.10073e-16)
(1.55929e-15 0 2.07602e-16)
(1.59355e-15 0 2.036e-16)
(1.59283e-15 0 1.98317e-16)
(1.56539e-15 0 1.92195e-16)
(1.51794e-15 0 1.85516e-16)
(1.45597e-15 0 1.78454e-16)
(1.38391e-15 0 1.71206e-16)
(1.30526e-15 0 1.63875e-16)
(1.22283e-15 0 1.56596e-16)
(1.13881e-15 0 1.4943e-16)
(1.05494e-15 0 1.42461e-16)
(9.72558e-16 0 1.35689e-16)
(8.92559e-16 0 1.29164e-16)
(8.15662e-16 0 1.22909e-16)
(7.42426e-16 0 1.16943e-16)
(6.73098e-16 0 1.11256e-16)
(6.07843e-16 0 1.059e-16)
(5.46777e-16 0 1.00813e-16)
(4.89794e-16 0 9.6015e-17)
(4.36813e-16 0 9.15379e-17)
(3.877e-16 0 8.73399e-17)
(3.42277e-16 0 8.34522e-17)
(3.00298e-16 0 7.98229e-17)
(2.61492e-16 0 7.65349e-17)
(2.25593e-16 0 7.3526e-17)
(1.9233e-16 0 7.08273e-17)
(1.61383e-16 0 6.84389e-17)
(1.32452e-16 0 6.63709e-17)
(1.05217e-16 0 6.46338e-17)
(7.93059e-17 0 6.32483e-17)
(5.44595e-17 0 6.2204e-17)
(3.03058e-17 0 6.15112e-17)
(9.17137e-18 0 6.11907e-17)
(-3.45799e-09 0 1.99266e-08)
(-1.56502e-08 0 2.00682e-08)
(-2.79763e-08 0 2.0413e-08)
(-3.99332e-08 0 2.08892e-08)
(-5.19804e-08 0 2.14904e-08)
(-6.41858e-08 0 2.20959e-08)
(-7.65349e-08 0 2.26434e-08)
(-8.9004e-08 0 2.30907e-08)
(-1.01531e-07 0 2.33527e-08)
(-1.14018e-07 0 2.33679e-08)
(-1.26418e-07 0 2.30461e-08)
(-1.38697e-07 0 2.2319e-08)
(-1.50579e-07 0 2.20392e-08)
(-1.62431e-07 0 2.03229e-08)
(-1.74311e-07 0 2.0924e-08)
(-1.85183e-07 0 2.14384e-08)
(-1.94879e-07 0 1.60626e-08)
(-2.04711e-07 0 1.39813e-08)
(-2.14352e-07 0 1.39428e-08)
(-2.23111e-07 0 1.49734e-08)
(-2.30345e-07 0 7.44746e-09)
(-2.37748e-07 0 7.62819e-09)
(-2.44548e-07 0 6.08257e-09)
(-2.50609e-07 0 4.11309e-09)
(-2.56027e-07 0 1.70538e-09)
(-2.61029e-07 0 3.99601e-10)
(-2.65326e-07 0 -1.37226e-09)
(-2.69068e-07 0 -3.03755e-09)
(-2.72208e-07 0 -4.69232e-09)
(-2.74741e-07 0 -6.33653e-09)
(-2.76676e-07 0 -7.99579e-09)
(-2.78019e-07 0 -9.6051e-09)
(-2.78743e-07 0 -1.12328e-08)
(-2.78861e-07 0 -1.28492e-08)
(-2.78358e-07 0 -1.43618e-08)
(-2.77203e-07 0 -1.60803e-08)
(-2.75478e-07 0 -1.76279e-08)
(-2.73066e-07 0 -1.9256e-08)
(-2.69996e-07 0 -2.08345e-08)
(-2.66304e-07 0 -2.23328e-08)
(-2.62002e-07 0 -2.38284e-08)
(-2.57023e-07 0 -2.5215e-08)
(-2.51428e-07 0 -2.65204e-08)
(-2.45269e-07 0 -2.77403e-08)
(-2.38516e-07 0 -2.87967e-08)
(-2.31205e-07 0 -2.96901e-08)
(-2.23373e-07 0 -3.0384e-08)
(-2.15105e-07 0 -3.08787e-08)
(-2.06375e-07 0 -3.11313e-08)
(-1.97271e-07 0 -3.1138e-08)
(-1.87873e-07 0 -3.08519e-08)
(-1.78224e-07 0 -3.0257e-08)
(-1.68387e-07 0 -2.94226e-08)
(-1.58461e-07 0 -2.82144e-08)
(-1.48516e-07 0 -2.67445e-08)
(-1.38593e-07 0 -2.50786e-08)
(-1.2879e-07 0 -2.30066e-08)
(-1.19153e-07 0 -2.08146e-08)
(-1.0974e-07 0 -1.83975e-08)
(-1.00593e-07 0 -1.58244e-08)
(-9.17926e-08 0 -1.31348e-08)
(-8.33399e-08 0 -1.04652e-08)
(-7.52232e-08 0 -7.63718e-09)
(-6.75107e-08 0 -4.93658e-09)
(-6.01833e-08 0 -2.28822e-09)
(-5.32227e-08 0 2.48951e-10)
(-4.66102e-08 0 2.59056e-09)
(-4.03151e-08 0 4.65995e-09)
(-3.43227e-08 0 6.4492e-09)
(-2.85876e-08 0 7.94962e-09)
(-2.30411e-08 0 9.05526e-09)
(-1.76155e-08 0 9.76709e-09)
(-1.21888e-08 0 1.00373e-08)
(-6.5572e-09 0 9.96329e-09)
(-4.67738e-10 0 9.71283e-09)
(6.78346e-09 0 9.53276e-09)
(1.1927e-08 0 1.59847e-08)
(-9.08791e-09 0 1.15037e-07)
(-4.82153e-09 0 7.29536e-08)
(-1.52095e-14 0 1.40272e-13)
(1.57768e-17 0 1.98089e-16)
(1.30033e-16 0 2.18272e-16)
(4.49263e-16 0 2.36481e-16)
(8.42308e-16 0 2.48278e-16)
(1.13766e-15 0 2.54761e-16)
(1.34381e-15 0 2.57088e-16)
(1.47809e-15 0 2.56168e-16)
(1.55551e-15 0 2.52807e-16)
(1.58826e-15 0 2.47575e-16)
(1.5864e-15 0 2.40978e-16)
(1.55821e-15 0 2.33399e-16)
(1.51028e-15 0 2.25128e-16)
(1.44801e-15 0 2.16453e-16)
(1.37582e-15 0 2.07602e-16)
(1.29716e-15 0 1.98689e-16)
(1.21483e-15 0 1.89828e-16)
(1.13099e-15 0 1.81091e-16)
(1.04735e-15 0 1.72643e-16)
(9.65196e-16 0 1.64433e-16)
(8.85507e-16 0 1.56534e-16)
(8.08931e-16 0 1.48965e-16)
(7.35994e-16 0 1.41779e-16)
(6.67007e-16 0 1.34892e-16)
(6.02094e-16 0 1.28378e-16)
(5.41307e-16 0 1.22226e-16)
(4.84645e-16 0 1.16436e-16)
(4.32026e-16 0 1.10966e-16)
(3.83243e-16 0 1.05869e-16)
(3.3811e-16 0 1.01175e-16)
(2.96462e-16 0 9.67698e-17)
(2.58018e-16 0 9.2758e-17)
(2.22439e-16 0 8.91184e-17)
(1.89517e-16 0 8.58614e-17)
(1.58932e-16 0 8.29455e-17)
(1.30364e-16 0 8.04537e-17)
(1.03501e-16 0 7.83444e-17)
(7.79721e-17 0 7.6659e-17)
(5.35083e-17 0 7.54182e-17)
(2.97475e-17 0 7.46014e-17)
(8.99559e-18 0 7.42291e-17)
(-3.25892e-09 0 2.31236e-08)
(-1.53612e-08 0 2.3308e-08)
(-2.74709e-08 0 2.37875e-08)
(-3.92845e-08 0 2.44837e-08)
(-5.12652e-08 0 2.53371e-08)
(-6.34772e-08 0 2.62153e-08)
(-7.59263e-08 0 2.70203e-08)
(-8.85529e-08 0 2.76898e-08)
(-1.01268e-07 0 2.80975e-08)
(-1.13991e-07 0 2.81746e-08)
(-1.26815e-07 0 2.75871e-08)
(-1.39219e-07 0 2.75704e-08)
(-1.51428e-07 0 2.60824e-08)
(-1.63916e-07 0 2.48748e-08)
(-1.76157e-07 0 2.72666e-08)
(-1.8691e-07 0 2.3558e-08)
(-1.9637e-07 0 1.90768e-08)
(-2.06875e-07 0 1.7071e-08)
(-2.16828e-07 0 1.79156e-08)
(-2.25055e-07 0 1.69029e-08)
(-2.31904e-07 0 8.40756e-09)
(-2.39965e-07 0 9.52004e-09)
(-2.46567e-07 0 7.25019e-09)
(-2.52507e-07 0 4.46332e-09)
(-2.57948e-07 0 2.25715e-09)
(-2.62924e-07 0 4.13543e-10)
(-2.67205e-07 0 -1.61985e-09)
(-2.70911e-07 0 -3.60047e-09)
(-2.74018e-07 0 -5.55453e-09)
(-2.76539e-07 0 -7.48881e-09)
(-2.78465e-07 0 -9.42581e-09)
(-2.79793e-07 0 -1.13314e-08)
(-2.80517e-07 0 -1.32464e-08)
(-2.80629e-07 0 -1.51606e-08)
(-2.8013e-07 0 -1.69575e-08)
(-2.78969e-07 0 -1.89929e-08)
(-2.77222e-07 0 -2.08188e-08)
(-2.74797e-07 0 -2.28008e-08)
(-2.71728e-07 0 -2.46904e-08)
(-2.67933e-07 0 -2.64866e-08)
(-2.63581e-07 0 -2.82963e-08)
(-2.5853e-07 0 -3.00149e-08)
(-2.52777e-07 0 -3.15636e-08)
(-2.46526e-07 0 -3.3068e-08)
(-2.39597e-07 0 -3.43762e-08)
(-2.32105e-07 0 -3.55018e-08)
(-2.2404e-07 0 -3.63665e-08)
(-2.15497e-07 0 -3.7005e-08)
(-2.0651e-07 0 -3.73662e-08)
(-1.97118e-07 0 -3.73969e-08)
(-1.87406e-07 0 -3.70857e-08)
(-1.7743e-07 0 -3.64235e-08)
(-1.67279e-07 0 -3.54194e-08)
(-1.57037e-07 0 -3.39632e-08)
(-1.46765e-07 0 -3.22344e-08)
(-1.3654e-07 0 -3.01686e-08)
(-1.26461e-07 0 -2.7712e-08)
(-1.16582e-07 0 -2.50103e-08)
(-1.06972e-07 0 -2.20825e-08)
(-9.76996e-08 0 -1.89366e-08)
(-8.87747e-08 0 -1.56342e-08)
(-8.02499e-08 0 -1.23512e-08)
(-7.21878e-08 0 -8.93795e-09)
(-6.45402e-08 0 -5.61319e-09)
(-5.73185e-08 0 -2.37171e-09)
(-5.05253e-08 0 8.17621e-10)
(-4.41455e-08 0 3.58023e-09)
(-3.81348e-08 0 6.16233e-09)
(-3.24712e-08 0 8.4454e-09)
(-2.7126e-08 0 1.03221e-08)
(-2.20322e-08 0 1.17425e-08)
(-1.70876e-08 0 1.26443e-08)
(-1.21551e-08 0 1.29486e-08)
(-6.94629e-09 0 1.25469e-08)
(-9.30615e-10 0 1.14542e-08)
(5.95934e-09 0 1.01095e-08)
(-2.35663e-09 0 3.70169e-08)
(-1.20689e-08 0 1.46962e-07)
(-4.73407e-09 0 7.08497e-08)
(-1.48674e-14 0 1.64557e-13)
(2.69219e-17 0 2.34113e-16)
(1.51085e-16 0 2.58287e-16)
(4.65599e-16 0 2.79815e-16)
(8.52162e-16 0 2.93628e-16)
(1.14228e-15 0 3.01073e-16)
(1.34443e-15 0 3.03596e-16)
(1.47564e-15 0 3.02324e-16)
(1.55068e-15 0 2.98199e-16)
(1.58171e-15 0 2.9185e-16)
(1.57864e-15 0 2.83961e-16)
(1.54955e-15 0 2.74955e-16)
(1.501e-15 0 2.65163e-16)
(1.43844e-15 0 2.54906e-16)
(1.36614e-15 0 2.44432e-16)
(1.28748e-15 0 2.33896e-16)
(1.20524e-15 0 2.23422e-16)
(1.12165e-15 0 2.13154e-16)
(1.03829e-15 0 2.03166e-16)
(9.56448e-16 0 1.93478e-16)
(8.77101e-16 0 1.84172e-16)
(8.00907e-16 0 1.75238e-16)
(7.28353e-16 0 1.6676e-16)
(6.59708e-16 0 1.58633e-16)
(5.95177e-16 0 1.50929e-16)
(5.34814e-16 0 1.43661e-16)
(4.78524e-16 0 1.36836e-16)
(4.26267e-16 0 1.30415e-16)
(3.77887e-16 0 1.24387e-16)
(3.33157e-16 0 1.18825e-16)
(2.91881e-16 0 1.13665e-16)
(2.53831e-16 0 1.08898e-16)
(2.18686e-16 0 1.04576e-16)
(1.86157e-16 0 1.0072e-16)
(1.55975e-16 0 9.72971e-17)
(1.27841e-16 0 9.43606e-17)
(1.01412e-16 0 9.18791e-17)
(7.63798e-17 0 8.99145e-17)
(5.24122e-17 0 8.84463e-17)
(2.91271e-17 0 8.75054e-17)
(8.80947e-18 0 8.70918e-17)
(-3.00284e-09 0 2.62022e-08)
(-1.49566e-08 0 2.64661e-08)
(-2.6757e-08 0 2.71404e-08)
(-3.83686e-08 0 2.8144e-08)
(-5.02558e-08 0 2.93171e-08)
(-6.24655e-08 0 3.0567e-08)
(-7.50358e-08 0 3.17126e-08)
(-8.78579e-08 0 3.267e-08)
(-1.00806e-07 0 3.33083e-08)
(-1.14103e-07 0 3.30759e-08)
(-1.27152e-07 0 3.33706e-08)
(-1.3976e-07 0 3.28904e-08)
(-1.52644e-07 0 3.0544e-08)
(-1.66146e-07 0 3.08539e-08)
(-1.78071e-07 0 3.37442e-08)
(-1.88463e-07 0 2.52818e-08)
(-1.98767e-07 0 2.27759e-08)
(-2.0955e-07 0 2.07548e-08)
(-2.19585e-07 0 2.43422e-08)
(-2.26637e-07 0 1.28244e-08)
(-2.34664e-07 0 1.33415e-08)
(-2.42256e-07 0 1.06313e-08)
(-2.48952e-07 0 8.67503e-09)
(-2.54667e-07 0 4.52608e-09)
(-2.60304e-07 0 2.98771e-09)
(-2.65115e-07 0 4.54316e-10)
(-2.69376e-07 0 -1.84889e-09)
(-2.7304e-07 0 -4.12632e-09)
(-2.76129e-07 0 -6.37655e-09)
(-2.78625e-07 0 -8.60034e-09)
(-2.80537e-07 0 -1.08178e-08)
(-2.81865e-07 0 -1.30204e-08)
(-2.82576e-07 0 -1.52213e-08)
(-2.8269e-07 0 -1.74383e-08)
(-2.82188e-07 0 -1.95127e-08)
(-2.81066e-07 0 -2.18765e-08)
(-2.79282e-07 0 -2.40154e-08)
(-2.76847e-07 0 -2.63519e-08)
(-2.73738e-07 0 -2.8566e-08)
(-2.69921e-07 0 -3.07099e-08)
(-2.65466e-07 0 -3.28327e-08)
(-2.60355e-07 0 -3.49069e-08)
(-2.54519e-07 0 -3.67935e-08)
(-2.48005e-07 0 -3.85369e-08)
(-2.40946e-07 0 -4.01709e-08)
(-2.33226e-07 0 -4.1563e-08)
(-2.24913e-07 0 -4.26657e-08)
(-2.16031e-07 0 -4.34441e-08)
(-2.0676e-07 0 -4.3948e-08)
(-1.97013e-07 0 -4.40459e-08)
(-1.86905e-07 0 -4.37398e-08)
(-1.76524e-07 0 -4.30098e-08)
(-1.65976e-07 0 -4.18509e-08)
(-1.55332e-07 0 -4.0127e-08)
(-1.44664e-07 0 -3.81526e-08)
(-1.34082e-07 0 -3.56421e-08)
(-1.23694e-07 0 -3.27764e-08)
(-1.13524e-07 0 -2.95383e-08)
(-1.03668e-07 0 -2.60514e-08)
(-9.41931e-08 0 -2.22522e-08)
(-8.51425e-08 0 -1.83757e-08)
(-7.65626e-08 0 -1.44032e-08)
(-6.84883e-08 0 -1.02318e-08)
(-6.09324e-08 0 -6.29001e-09)
(-5.38652e-08 0 -2.3344e-09)
(-4.72726e-08 0 1.3202e-09)
(-4.11373e-08 0 4.78717e-09)
(-3.54599e-08 0 7.92061e-09)
(-3.01979e-08 0 1.06938e-08)
(-2.52989e-08 0 1.30211e-08)
(-2.0731e-08 0 1.48245e-08)
(-1.6435e-08 0 1.59993e-08)
(-1.23018e-08 0 1.64283e-08)
(-8.06669e-09 0 1.57475e-08)
(-2.8338e-09 0 1.3432e-08)
(6.33321e-09 0 7.58619e-09)
(-1.50067e-08 0 7.34622e-08)
(-1.40645e-08 0 1.24341e-07)
(-4.6353e-09 0 6.951e-08)
(-1.4403e-14 0 1.87696e-13)
(4.00087e-17 0 2.69547e-16)
(1.75735e-16 0 2.97702e-16)
(4.84625e-16 0 3.22631e-16)
(8.63577e-16 0 3.38617e-16)
(1.14763e-15 0 3.47219e-16)
(1.34508e-15 0 3.50104e-16)
(1.47269e-15 0 3.48615e-16)
(1.54503e-15 0 3.43838e-16)
(1.57403e-15 0 3.36559e-16)
(1.5695e-15 0 3.27439e-16)
(1.53941e-15 0 3.17048e-16)
(1.49023e-15 0 3.05747e-16)
(1.42727e-15 0 2.93939e-16)
(1.3548e-15 0 2.8181e-16)
(1.27615e-15 0 2.69651e-16)
(1.19409e-15 0 2.57563e-16)
(1.11074e-15 0 2.45693e-16)
(1.02768e-15 0 2.34102e-16)
(9.46202e-16 0 2.22905e-16)
(8.67268e-16 0 2.1213e-16)
(7.91519e-16 0 2.01801e-16)
(7.19399e-16 0 1.91947e-16)
(6.51198e-16 0 1.82538e-16)
(5.87123e-16 0 1.73646e-16)
(5.27214e-16 0 1.6524e-16)
(4.7139e-16 0 1.57299e-16)
(4.19577e-16 0 1.49895e-16)
(3.71642e-16 0 1.42916e-16)
(3.27367e-16 0 1.36454e-16)
(2.86546e-16 0 1.30488e-16)
(2.4893e-16 0 1.24977e-16)
(2.1425e-16 0 1.19962e-16)
(1.82228e-16 0 1.15474e-16)
(1.52563e-16 0 1.11514e-16)
(1.24935e-16 0 1.08123e-16)
(9.90342e-17 0 1.05269e-16)
(7.4529e-17 0 1.03005e-16)
(5.10887e-17 0 1.01319e-16)
(2.8393e-17 0 1.00234e-16)
(8.59234e-18 0 9.97994e-17)
(-2.65513e-09 0 2.90776e-08)
(-1.43838e-08 0 2.94552e-08)
(-2.57864e-08 0 3.03975e-08)
(-3.70972e-08 0 3.18103e-08)
(-4.88522e-08 0 3.34313e-08)
(-6.10781e-08 0 3.51469e-08)
(-7.37422e-08 0 3.68268e-08)
(-8.67995e-08 0 3.8099e-08)
(-1.00388e-07 0 3.86288e-08)
(-1.14039e-07 0 3.93031e-08)
(-1.27313e-07 0 3.96739e-08)
(-1.40502e-07 0 3.81567e-08)
(-1.54902e-07 0 3.56755e-08)
(-1.6821e-07 0 4.00992e-08)
(-1.7995e-07 0 3.56997e-08)
(-1.90577e-07 0 2.97823e-08)
(-2.0238e-07 0 2.59334e-08)
(-2.12573e-07 0 2.57968e-08)
(-2.21946e-07 0 2.88847e-08)
(-2.28776e-07 0 1.26953e-08)
(-2.38092e-07 0 1.63489e-08)
(-2.44958e-07 0 1.23057e-08)
(-2.51566e-07 0 9.36525e-09)
(-2.57378e-07 0 5.63552e-09)
(-2.62949e-07 0 3.40082e-09)
(-2.67661e-07 0 5.87641e-10)
(-2.71868e-07 0 -2.03999e-09)
(-2.7549e-07 0 -4.60257e-09)
(-2.78531e-07 0 -7.14844e-09)
(-2.81001e-07 0 -9.66382e-09)
(-2.82897e-07 0 -1.21527e-08)
(-2.84222e-07 0 -1.46445e-08)
(-2.84949e-07 0 -1.71459e-08)
(-2.85073e-07 0 -1.96594e-08)
(-2.84578e-07 0 -2.20566e-08)
(-2.83514e-07 0 -2.46396e-08)
(-2.81645e-07 0 -2.72732e-08)
(-2.79231e-07 0 -2.98583e-08)
(-2.7612e-07 0 -3.24672e-08)
(-2.72306e-07 0 -3.50145e-08)
(-2.67676e-07 0 -3.74409e-08)
(-2.62495e-07 0 -3.98959e-08)
(-2.56561e-07 0 -4.21823e-08)
(-2.49874e-07 0 -4.42868e-08)
(-2.4252e-07 0 -4.61596e-08)
(-2.34575e-07 0 -4.79022e-08)
(-2.25982e-07 0 -4.93042e-08)
(-2.16782e-07 0 -5.03199e-08)
(-2.07033e-07 0 -5.08998e-08)
(-1.96922e-07 0 -5.11667e-08)
(-1.86367e-07 0 -5.08924e-08)
(-1.75531e-07 0 -5.01079e-08)
(-1.64511e-07 0 -4.87308e-08)
(-1.53367e-07 0 -4.68902e-08)
(-1.42215e-07 0 -4.45753e-08)
(-1.31198e-07 0 -4.15824e-08)
(-1.20393e-07 0 -3.82587e-08)