/*--------------------------------*- C++ -*----------------------------------*\
  =========                 |
  \\      /  F ield         | OpenFOAM: The Open Source CFD Toolbox
   \\    /   O peration     | Website:  https://openfoam.org
    \\  /    A nd           | Version:  6
     \\/     M anipulation  |
\*---------------------------------------------------------------------------*/
FoamFile
{
    version     2.0;
    format      ascii;
    class       volScalarField;
    location    "1020";
    object      p;
}
// * * * * * * * * * * * * * * * * * * * * * * * * * * * * * * * * * * * * * //

dimensions      [1 -1 -2 0 0 0 0];

internalField   nonuniform List<scalar> 
5964
(
103804
103804
103804
103804
103804
103804
103804
103804
103804
103804
103804
103804
103804
103804
103804
103804
103804
103804
103804
103804
103804
103805
103805
103805
103800
103797
103795
103792
103790
103788
103786
103785
103783
103782
103780
103779
103778
103777
103775
103774
103773
103772
103771
103770
103769
103768
103766
103765
103764
103763
103762
103762
103761
103760
103759
103758
103757
103756
103755
103755
103754
103753
103752
103752
103751
103751
103750
103749
103749
103748
103748
103748
103747
103747
103747
103746
103746
103746
103746
103745
103745
103745
103745
103745
103744
103744
103744
103744
103744
103744
103744
103744
103744
103744
103744
103744
103744
103744
103744
103744
103744
103744
103744
103744
103744
103744
103744
103744
103741
103738
103736
103733
103731
103729
103728
103726
103725
103723
103722
103720
103719
103718
103717
103715
103714
103713
103712
103711
103710
103709
103708
103707
103706
103705
103704
103703
103702
103701
103700
103699
103698
103698
103697
103696
103695
103695
103694
103693
103693
103692
103691
103691
103690
103690
103689
103689
103689
103688
103688
103688
103687
103687
103687
103687
103687
103687
103686
103686
103684
103684
103683
103683
103683
103683
103683
103683
103683
103684
103684
103684
103684
103684
103684
103684
103684
103684
103684
103684
103684
103684
103684
103684
103681
103679
103676
103674
103672
103671
103669
103667
103666
103664
103663
103662
103660
103659
103658
103657
103656
103655
103653
103652
103651
103650
103649
103648
103647
103646
103645
103644
103643
103642
103641
103641
103640
103639
103638
103637
103637
103636
103635
103634
103634
103633
103633
103632
103632
103631
103631
103630
103630
103630
103629
103629
103629
103628
103628
103628
103628
103628
103628
103628
103623
103623
103623
103623
103623
103623
103623
103623
103623
103623
103623
103623
103623
103623
103623
103623
103623
103623
103623
103623
103623
103623
103623
103623
103621
103619
103617
103615
103613
103612
103610
103608
103607
103606
103604
103603
103602
103600
103599
103598
103597
103596
103595
103594
103593
103592
103590
103589
103588
103587
103586
103586
103585
103584
103583
103582
103581
103580
103579
103579
103578
103577
103576
103576
103575
103575
103574
103573
103573
103572
103572
103572
103571
103571
103570
103570
103570
103570
103570
103569
103569
103569
103569
103569
103563
103563
103563
103562
103562
103562
103562
103563
103563
103563
103563
103563
103563
103563
103563
103563
103563
103563
103563
103563
103563
103563
103563
103563
103561
103560
103558
103556
103554
103553
103551
103549
103548
103547
103545
103544
103543
103542
103541
103539
103538
103537
103536
103535
103534
103533
103532
103531
103530
103529
103528
103527
103526
103525
103524
103523
103522
103521
103521
103520
103519
103518
103518
103517
103516
103516
103515
103515
103514
103514
103513
103513
103512
103512
103512
103511
103511
103511
103511
103511
103510
103510
103510
103510
103502
103502
103502
103502
103502
103502
103502
103502
103502
103502
103502
103502
103502
103502
103502
103502
103502
103502
103502
103502
103502
103502
103502
103502
103502
103500
103498
103497
103495
103493
103492
103490
103489
103488
103486
103485
103484
103483
103482
103481
103480
103478
103477
103476
103475
103474
103473
103472
103471
103470
103469
103468
103467
103466
103465
103464
103464
103463
103462
103461
103460
103460
103459
103458
103458
103457
103456
103456
103455
103455
103454
103454
103454
103453
103453
103453
103452
103452
103452
103452
103452
103452
103452
103452
103442
103442
103442
103442
103442
103442
103442
103442
103442
103442
103442
103442
103442
103442
103442
103442
103442
103442
103442
103442
103442
103442
103442
103442
103442
103441
103439
103437
103436
103434
103433
103431
103430
103429
103428
103426
103425
103424
103423
103422
103421
103420
103419
103418
103416
103415
103414
103413
103412
103411
103410
103409
103408
103407
103407
103406
103405
103404
103403
103402
103402
103401
103400
103399
103399
103398
103398
103397
103397
103396
103396
103395
103395
103394
103394
103394
103394
103393
103393
103393
103393
103393
103393
103393
103381
103381
103381
103381
103381
103381
103381
103381
103381
103381
103381
103381
103381
103381
103381
103381
103381
103381
103381
103381
103381
103381
103381
103381
103381
103381
103380
103378
103376
103375
103374
103372
103371
103370
103369
103368
103366
103365
103364
103363
103362
103361
103360
103359
103358
103357
103356
103355
103354
103353
103352
103351
103350
103349
103348
103347
103346
103345
103344
103344
103343
103342
103341
103341
103340
103339
103339
103338
103338
103337
103337
103336
103336
103336
103335
103335
103335
103335
103334
103334
103334
103334
103334
103334
103321
103321
103321
103321
103321
103321
103321
103321
103321
103321
103321
103321
103321
103321
103321
103321
103321
103321
103321
103321
103321
103321
103321
103321
103321
103321
103320
103318
103317
103316
103314
103313
103312
103311
103310
103309
103308
103306
103305
103304
103303
103302
103301
103300
103299
103298
103297
103296
103295
103294
103293
103292
103291
103290
103289
103288
103287
103286
103286
103285
103284
103283
103283
103282
103281
103281
103280
103279
103279
103278
103278
103278
103277
103277
103276
103276
103276
103276
103275
103275
103275
103275
103275
103275
103260
103260
103260
103260
103260
103260
103260
103260
103260
103260
103260
103260
103260
103260
103260
103260
103260
103261
103261
103261
103261
103261
103261
103261
103261
103261
103261
103259
103258
103256
103255
103254
103253
103252
103251
103250
103249
103248
103247
103246
103245
103244
103242
103241
103240
103239
103238
103237
103236
103235
103234
103233
103232
103231
103230
103229
103228
103228
103227
103226
103225
103224
103224
103223
103222
103222
103221
103221
103220
103220
103219
103219
103218
103218
103218
103217
103217
103217
103217
103216
103216
103216
103216
103216
103200
103200
103200
103200
103200
103200
103200
103200
103200
103200
103200
103200
103200
103200
103200
103200
103200
103200
103200
103200
103200
103200
103200
103200
103200
103200
103200
103199
103198
103197
103196
103195
103194
103193
103192
103191
103190
103189
103188
103187
103186
103185
103184
103183
103182
103181
103179
103178
103177
103176
103175
103174
103173
103172
103171
103170
103170
103169
103168
103167
103166
103165
103165
103164
103163
103163
103162
103162
103161
103161
103160
103160
103159
103159
103159
103158
103158
103158
103158
103158
103157
103157
103157
103157
103140
103140
103140
103140
103140
103140
103140
103140
103140
103140
103140
103140
103140
103140
103140
103140
103140
103140
103140
103140
103140
103140
103140
103140
103140
103140
103140
103140
103138
103137
103136
103135
103134
103134
103133
103132
103131
103130
103129
103128
103127
103126
103125
103124
103123
103122
103121
103120
103119
103118
103116
103115
103114
103113
103112
103112
103111
103110
103109
103108
103107
103107
103106
103105
103104
103104
103103
103103
103102
103102
103101
103101
103100
103100
103100
103099
103099
103099
103099
103099
103098
103098
103098
103098
103079
103079
103079
103079
103079
103079
103079
103079
103079
103079
103079
103079
103079
103079
103079
103079
103079
103079
103079
103079
103079
103079
103079
103079
103079
103079
103079
103079
103079
103078
103077
103076
103075
103074
103074
103073
103072
103071
103070
103069
103068
103067
103066
103065
103064
103063
103062
103061
103060
103059
103058
103057
103056
103055
103054
103053
103052
103051
103050
103049
103048
103048
103047
103046
103046
103045
103044
103044
103043
103043
103042
103042
103041
103041
103041
103040
103040
103040
103040
103040
103039
103039
103039
103039
103019
103019
103019
103019
103019
103019
103019
103019
103019
103019
103019
103019
103019
103019
103019
103019
103019
103019
103019
103019
103019
103019
103019
103019
103019
103019
103019
103019
103018
103018
103017
103016
103016
103015
103015
103014
103013
103013
103012
103011
103010
103009
103008
103007
103005
103004
103003
103002
103001
103000
102999
102998
102997
102996
102995
102994
102993
102992
102991
102990
102989
102989
102988
102987
102987
102986
102985
102985
102984
102984
102983
102983
102982
102982
102982
102981
102981
102981
102981
102981
102980
102980
102980
102980
102959
102959
102959
102958
102958
102958
102958
102958
102958
102958
102958
102958
102958
102958
102958
102958
102958
102958
102958
102958
102958
102958
102958
102958
102958
102958
102958
102958
102958
102958
102956
102957
102956
102956
102956
102955
102955
102954
102953
102952
102951
102950
102949
102948
102947
102946
102944
102943
102942
102941
102940
102939
102938
102937
102936
102935
102934
102933
102932
102931
102930
102930
102929
102928
102928
102927
102926
102926
102925
102925
102924
102924
102923
102923
102923
102922
102922
102922
102922
102922
102921
102921
102921
102921
102898
102898
102898
102898
102898
102898
102898
102898
102898
102898
102898
102898
102898
102898
102898
102898
102898
102898
102898
102898
102898
102898
102898
102898
102898
102898
102898
102898
102898
102898
102897
102897
102897
102897
102897
102897
102896
102895
102895
102894
102893
102891
102890
102889
102888
102887
102886
102885
102883
102882
102881
102880
102879
102878
102877
102876
102875
102874
102873
102872
102871
102871
102870
102869
102868
102868
102867
102867
102866
102866
102865
102865
102864
102864
102864
102863
102863
102863
102863
102862
102862
102862
102862
102862
102838
102838
102838
102838
102838
102838
102838
102838
102838
102838
102838
102838
102838
102838
102838
102837
102837
102837
102837
102837
102837
102837
102837
102837
102837
102837
102837
102837
102837
102838
102838
102838
102838
102838
102838
102838
102838
102837
102836
102835
102834
102833
102832
102831
102829
102828
102827
102826
102825
102823
102822
102821
102820
102819
102818
102817
102816
102815
102814
102813
102812
102812
102811
102810
102809
102809
102808
102808
102807
102807
102806
102806
102805
102805
102805
102804
102804
102804
102804
102803
102803
102803
102803
102803
102777
102777
102777
102777
102777
102777
102777
102777
102777
102777
102777
102777
102777
102777
102777
102777
102777
102777
102777
102777
102777
102777
102777
102777
102777
102777
102777
102777
102777
102777
102777
102777
102777
102777
102777
102777
102777
102777
102777
102776
102776
102774
102773
102772
102771
102769
102768
102767
102766
102765
102763
102762
102761
102760
102759
102758
102757
102756
102755
102754
102753
102752
102752
102751
102750
102750
102749
102748
102748
102747
102747
102746
102746
102746
102745
102745
102745
102745
102744
102744
102744
102744
102744
102744
102717
102717
102717
102717
102717
102717
102717
102717
102717
102717
102717
102717
102717
102717
102717
102717
102717
102717
102717
102717
102717
102717
102717
102717
102717
102717
102717
102717
102717
102717
102717
102717
102717
102717
102717
102717
102717
102717
102717
102717
102717
102715
102714
102713
102712
102711
102709
102708
102707
102706
102704
102703
102702
102701
102700
102699
102698
102697
102696
102695
102694
102693
102693
102692
102691
102690
102690
102689
102689
102688
102688
102687
102687
102687
102686
102686
102686
102685
102685
102685
102685
102685
102685
102685
102657
102657
102657
102657
102657
102657
102657
102656
102656
102656
102656
102656
102656
102656
102656
102656
102656
102656
102656
102656
102656
102656
102656
102656
102656
102656
102656
102656
102656
102656
102656
102656
102656
102656
102656
102656
102656
102656
102656
102656
102656
102656
102655
102655
102654
102652
102651
102649
102648
102647
102645
102644
102643
102642
102641
102640
102639
102638
102637
102636
102635
102634
102633
102633
102632
102631
102631
102630
102630
102629
102629
102628
102628
102627
102627
102627
102627
102626
102626
102626
102626
102626
102626
102626
102596
102596
102596
102596
102596
102596
102596
102596
102596
102596
102596
102596
102596
102596
102596
102596
102596
102596
102596
102596
102596
102596
102596
102596
102596
102596
102596
102596
102596
102596
102596
102596
102596
102596
102596
102596
102596
102596
102596
102596
102596
102596
102596
102596
102595
102593
102592
102591
102589
102588
102587
102585
102584
102583
102582
102581
102580
102579
102578
102577
102576
102575
102574
102573
102573
102572
102571
102571
102570
102570
102569
102569
102569
102568
102568
102568
102567
102567
102567
102567
102567
102566
102566
102566
102536
102536
102536
102536
102536
102536
102536
102536
102535
102535
102535
102535
102535
102535
102535
102535
102535
102535
102535
102535
102535
102535
102535
102535
102535
102535
102535
102535
102535
102535
102535
102535
102535
102535
102535
102535
102535
102535
102535
102535
102535
102535
102535
102535
102535
102534
102533
102532
102530
102529
102528
102526
102525
102524
102523
102521
102520
102519
102518
102517
102517
102516
102515
102514
102513
102513
102512
102512
102511
102511
102510
102510
102509
102509
102509
102508
102508
102508
102508
102507
102507
102507
102507
102507
102475
102475
102475
102475
102475
102475
102475
102475
102475
102475
102475
102475
102475
102475
102475
102475
102475
102475
102475
102475
102475
102475
102475
102475
102475
102475
102475
102475
102475
102475
102475
102475
102475
102475
102475
102475
102475
102475
102475
102475
102475
102475
102475
102475
102475
102475
102474
102473
102471
102470
102468
102467
102466
102465
102463
102462
102461
102460
102459
102458
102457
102456
102456
102455
102454
102454
102453
102452
102452
102451
102451
102450
102450
102450
102449
102449
102449
102449
102448
102448
102448
102448
102448
102448
102415
102415
102415
102415
102415
102415
102415
102415
102415
102414
102414
102414
102414
102414
102414
102414
102414
102414
102414
102414
102414
102414
102414
102414
102414
102414
102414
102414
102414
102414
102414
102414
102414
102414
102414
102414
102414
102414
102414
102414
102414
102414
102414
102415
102415
102415
102414
102414
102413
102411
102409
102408
102407
102405
102404
102403
102402
102401
102400
102399
102398
102397
102396
102396
102395
102394
102394
102393
102393
102392
102392
102391
102391
102390
102390
102390
102389
102389
102389
102389
102389
102389
102389
102389
102354
102354
102354
102354
102354
102354
102354
102354
102354
102354
102354
102354
102354
102354
102354
102354
102354
102354
102354
102354
102354
102354
102354
102354
102354
102354
102354
102354
102354
102354
102354
102354
102354
102354
102354
102354
102354
102354
102354
102354
102354
102354
102354
102354
102354
102354
102354
102354
102354
102352
102350
102349
102347
102346
102345
102344
102342
102341
102340
102339
102339
102338
102337
102336
102336
102335
102334
102334
102333
102333
102332
102332
102331
102331
102331
102330
102330
102330
102330
102330
102329
102329
102329
102329
102294
102294
102294
102294
102294
102294
102294
102294
102294
102294
102294
102293
102293
102293
102293
102293
102293
102293
102293
102293
102293
102293
102293
102293
102293
102293
102293
102293
102293
102293
102293
102293
102293
102293
102293
102293
102293
102293
102293
102293
102293
102293
102294
102294
102294
102294
102294
102294
102294
102292
102291
102289
102288
102287
102285
102284
102283
102282
102281
102280
102279
102278
102278
102277
102276
102276
102275
102274
102274
102273
102273
102272
102272
102272
102271
102271
102271
102271
102270
102270
102270
102270
102270
102270
102234
102234
102233
102233
102233
102233
102233
102233
102233
102233
102233
102233
102233
102233
102233
102233
102233
102233
102233
102233
102233
102233
102233
102233
102233
102233
102233
102233
102233
102233
102233
102233
102233
102233
102233
102233
102233
102233
102233
102233
102233
102233
102233
102233
102233
102233
102233
102233
102233
102233
102232
102230
102229
102227
102226
102225
102224
102223
102222
102221
102220
102219
102218
102217
102217
102216
102215
102215
102214
102214
102213
102213
102213
102212
102212
102212
102211
102211
102211
102211
102211
102211
102211
102211
102173
102173
102173
102173
102173
102173
102173
102173
102173
102173
102173
102173
102173
102173
102173
102173
102173
102173
102172
102172
102172
102172
102172
102172
102172
102172
102172
102172
102172
102172
102172
102172
102172
102172
102172
102172
102172
102172
102172
102172
102172
102173
102173
102173
102173
102173
102173
102173
102173
102173
102172
102171
102169
102168
102166
102165
102164
102163
102162
102161
102160
102159
102159
102158
102157
102157
102156
102155
102155
102154
102154
102154
102153
102153
102153
102152
102152
102152
102152
102151
102151
102151
102151
102151
102113
102113
102113
102112
102112
102112
102112
102112
102112
102112
102112
102112
102112
102112
102112
102112
102112
102112
102112
102112
102112
102112
102112
102112
102112
102112
102112
102112
102112
102112
102112
102112
102112
102112
102112
102112
102112
102112
102112
102112
102112
102112
102112
102112
102112
102112
102112
102112
102112
102112
102112
102111
102110
102108
102107
102106
102105
102104
102103
102102
102101
102100
102099
102098
102098
102097
102097
102096
102095
102095
102095
102094
102094
102093
102093
102093
102093
102092
102092
102092
102092
102092
102092
102092
102052
102052
102052
102052
102052
102052
102052
102052
102052
102052
102052
102052
102052
102052
102052
102052
102052
102052
102052
102052
102052
102052
102052
102052
102052
102052
102052
102052
102052
102052
102052
102052
102052
102052
102052
102052
102052
102052
102052
102052
102052
102052
102052
102052
102052
102052
102052
102052
102052
102052
102052
102052
102050
102049
102047
102046
102045
102044
102043
102042
102041
102040
102040
102039
102038
102038
102037
102036
102036
102035
102035
102035
102034
102034
102034
102033
102033
102033
102033
102033
102032
102032
102032
102032
101992
101992
101992
101992
101991
101991
101991
101991
101991
101991
101991
101991
101991
101991
101991
101991
101991
101991
101991
101991
101991
101991
101991
101991
101991
101991
101991
101991
101991
101991
101991
101991
101991
101991
101991
101991
101991
101991
101991
101991
101991
101991
101991
101991
101991
101991
101991
101991
101991
101991
101991
101991
101990
101989
101988
101986
101985
101984
101983
101982
101982
101981
101980
101979
101979
101978
101977
101977
101976
101976
101976
101975
101975
101974
101974
101974
101974
101973
101973
101973
101973
101973
101973
101973
101931
101931
101931
101931
101931
101931
101931
101931
101931
101931
101931
101931
101931
101931
101931
101931
101931
101931
101931
101931
101931
101931
101931
101931
101931
101931
101931
101931
101931
101931
101931
101931
101931
101931
101931
101931
101931
101931
101931
101931
101931
101931
101931
101931
101931
101931
101931
101931
101931
101931
101931
101931
101930
101929
101928
101927
101926
101925
101924
101923
101922
101921
101920
101920
101919
101918
101918
101917
101917
101916
101916
101916
101915
101915
101915
101914
101914
101914
101914
101914
101913
101913
101913
101913
101871
101871
101871
101871
101871
101871
101871
101870
101870
101870
101870
101870
101870
101870
101870
101870
101870
101870
101870
101870
101870
101870
101870
101870
101870
101870
101870
101870
101870
101870
101870
101870
101870
101870
101870
101870
101870
101870
101870
101870
101870
101870
101870
101870
101870
101870
101870
101870
101871
101871
101871
101870
101870
101869
101868
101867
101866
101865
101864
101863
101862
101861
101861
101860
101859
101859
101858
101858
101857
101857
101856
101856
101856
101855
101855
101855
101855
101854
101854
101854
101854
101854
101854
101854
101810
101810
101810
101810
101810
101810
101810
101810
101810
101810
101810
101810
101810
101810
101810
101810
101810
101810
101810
101810
101810
101810
101810
101810
101810
101810
101810
101810
101810
101810
101810
101810
101810
101810
101810
101810
101810
101810
101810
101810
101810
101810
101810
101810
101810
101810
101810
101810
101810
101810
101810
101810
101810
101809
101808
101807
101806
101805
101804
101803
101802
101802
101801
101800
101800
101799
101799
101798
101798
101797
101797
101796
101796
101796
101795
101795
101795
101795
101795
101794
101794
101794
101794
101794
101750
101750
101750
101750
101750
101750
101750
101750
101750
101750
101750
101750
101750
101750
101750
101749
101749
101749
101749
101749
101749
101749
101749
101749
101749
101749
101749
101749
101749
101749
101749
101749
101749
101749
101749
101749
101749
101749
101749
101749
101749
101749
101749
101749
101749
101750
101750
101750
101750
101750
101750
101750
101750
101749
101748
101747
101746
101745
101744
101743
101743
101742
101741
101741
101740
101739
101739
101738
101738
101738
101737
101737
101736
101736
101736
101736
101735
101735
101735
101735
101735
101735
101735
101735
101689
101689
101689
101689
101689
101689
101689
101689
101689
101689
101689
101689
101689
101689
101689
101689
101689
101689
101689
101689
101689
101689
101689
101689
101689
101689
101689
101689
101689
101689
101689
101689
101689
101689
101689
101689
101689
101689
101689
101689
101689
101689
101689
101689
101689
101689
101689
101689
101689
101689
101689
101689
101689
101689
101688
101687
101686
101685
101684
101684
101683
101682
101681
101681
101680
101680
101679
101679
101678
101678
101677
101677
101677
101676
101676
101676
101676
101676
101675
101675
101675
101675
101675
101675
101629
101629
101629
101629
101629
101629
101629
101629
101629
101629
101629
101629
101629
101629
101629
101629
101629
101629
101629
101629
101629
101629
101629
101629
101629
101629
101629
101629
101629
101629
101629
101629
101629
101629
101629
101629
101629
101629
101629
101629
101629
101629
101629
101629
101629
101629
101629
101629
101629
101629
101629
101629
101629
101629
101628
101627
101626
101625
101625
101624
101623
101622
101622
101621
101621
101620
101619
101619
101619
101618
101618
101617
101617
101617
101617
101616
101616
101616
101616
101616
101616
101615
101615
101615
101568
101568
101568
101568
101568
101568
101568
101568
101568
101568
101568
101568
101568
101568
101568
101568
101568
101568
101568
101568
101568
101568
101568
101568
101568
101568
101568
101568
101568
101568
101568
101568
101568
101568
101568
101568
101568
101568
101568
101568
101568
101568
101568
101568
101568
101568
101568
101568
101568
101568
101568
101569
101569
101569
101568
101567
101566
101565
101565
101564
101563
101562
101562
101561
101561
101560
101560
101559
101559
101558
101558
101558
101557
101557
101557
101557
101556
101556
101556
101556
101556
101556
101556
101556
101508
101508
101508
101508
101508
101508
101508
101508
101508
101508
101508
101508
101508
101508
101508
101508
101508
101508
101508
101508
101508
101508
101508
101508
101508
101508
101508
101508
101508
101508
101508
101508
101508
101508
101508
101508
101508
101508
101508
101508
101508
101508
101508
101508
101508
101508
101508
101508
101508
101508
101508
101508
101508
101508
101508
101507
101506
101505
101505
101504
101503
101503
101502
101501
101501
101500
101500
101499
101499
101499
101498
101498
101498
101497
101497
101497
101497
101497
101496
101496
101496
101496
101496
101496
101447
101447
101447
101447
101447
101447
101447
101447
101447
101447
101447
101447
101447
101447
101447
101447
101447
101447
101447
101447
101447
101447
101447
101447
101447
101447
101447
101447
101447
101447
101447
101447
101447
101447
101447
101447
101447
101447
101447
101447
101447
101447
101447
101447
101447
101447
101447
101447
101447
101447
101448
101448
101447
101447
101447
101447
101446
101445
101445
101444
101443
101443
101442
101442
101441
101441
101440
101440
101439
101439
101439
101438
101438
101438
101437
101437
101437
101437
101437
101437
101437
101436
101436
101436
101387
101387
101387
101387
101387
101387
101387
101387
101387
101387
101387
101387
101387
101387
101387
101387
101387
101387
101387
101387
101387
101387
101387
101387
101387
101387
101387
101387
101387
101387
101387
101387
101387
101387
101387
101387
101387
101387
101387
101387
101387
101387
101387
101387
101387
101387
101387
101387
101387
101387
101387
101387
101387
101387
101387
101386
101386
101385
101385
101384
101383
101383
101382
101382
101381
101381
101380
101380
101379
101379
101379
101378
101378
101378
101378
101377
101377
101377
101377
101377
101377
101377
101377
101377
101327
101327
101326
101326
101326
101326
101326
101326
101326
101326
101326
101326
101326
101326
101326
101326
101326
101326
101326
101326
101326
101326
101326
101326
101326
101326
101326
101326
101326
101326
101326
101326
101326
101326
101326
101327
101327
101327
101327
101327
101327
101327
101327
101327
101327
101327
101327
101327
101327
101327
101327
101327
101326
101326
101326
101326
101326
101325
101324
101324
101323
101323
101322
101322
101321
101321
101320
101320
101320
101319
101319
101319
101318
101318
101318
101318
101318
101317
101317
101317
101317
101317
101317
101317
101266
101266
101266
101266
101266
101266
101266
101266
101266
101266
101266
101266
101266
101266
101266
101266
101266
101266
101266
101266
101266
101266
101266
101266
101266
101266
101266
101266
101266
101266
101266
101266
101266
101266
101266
101266
101266
101266
101266
101266
101266
101266
101266
101266
101266
101266
101266
101266
101266
101266
101266
101266
101266
101266
101267
101267
101266
101265
101264
101264
101263
101263
101262
101262
101261
101261
101260
101260
101260
101259
101259
101259
101259
101258
101258
101258
101258
101258
101258
101257
101257
101257
101257
101257
101206
101206
101206
101206
101206
101206
101206
101205
101205
101205
101205
101206
101206
101206
101206
101206
101206
101206
101206
101206
101206
101206
101206
101206
101206
101206
101206
101206
101206
101206
101206
101206
101206
101206
101206
101206
101206
101206
101206
101206
101206
101206
101206
101206
101206
101206
101206
101206
101206
101206
101206
101206
101206
101206
101207
101206
101206
101205
101204
101204
101203
101203
101202
101202
101201
101201
101201
101200
101200
101200
101199
101199
101199
101199
101198
101198
101198
101198
101198
101198
101198
101197
101197
101197
101145
101145
101145
101145
101145
101145
101145
101145
101145
101145
101145
101145
101145
101145
101145
101145
101145
101145
101145
101145
101145
101145
101145
101145
101145
101145
101145
101145
101145
101145
101145
101145
101145
101145
101145
101145
101145
101145
101145
101145
101145
101145
101145
101145
101145
101145
101145
101145
101145
101145
101146
101146
101146
101146
101146
101146
101145
101145
101144
101144
101143
101143
101142
101142
101141
101141
101141
101140
101140
101140
101139
101139
101139
101139
101138
101138
101138
101138
101138
101138
101138
101138
101138
101138
101085
101085
101085
101085
101085
101085
101085
101085
101085
101085
101085
101085
101085
101085
101085
101085
101085
101085
101085
101085
101085
101085
101085
101085
101085
101085
101085
101085
101085
101085
101085
101085
101085
101085
101085
101085
101085
101085
101085
101085
101085
101085
101085
101085
101085
101085
101085
101085
101085
101085
101085
101085
101085
101085
101086
101086
101085
101084
101084
101083
101083
101083
101082
101082
101081
101081
101081
101080
101080
101080
101079
101079
101079
101079
101079
101078
101078
101078
101078
101078
101078
101078
101078
101078
101024
101024
101024
101024
101024
101024
101024
101024
101024
101024
101024
101024
101024
101024
101024
101024
101024
101024
101024
101024
101024
101024
101024
101024
101024
101024
101024
101024
101024
101024
101024
101024
101024
101024
101024
101024
101024
101024
101024
101024
101024
101024
101024
101024
101024
101024
101024
101025
101025
101025
101025
101025
101025
101025
101025
101025
101025
101024
101024
101023
101023
101022
101022
101022
101021
101021
101021
101020
101020
101020
101020
101019
101019
101019
101019
101019
101019
101018
101018
101018
101018
101018
101018
101018
100964
100964
100964
100964
100964
100964
100964
100964
100964
100964
100964
100964
100964
100964
100964
100964
100964
100964
100964
100964
100964
100964
100964
100964
100964
100964
100964
100964
100964
100964
100964
100964
100964
100964
100964
100964
100964
100964
100964
100964
100964
100964
100964
100964
100964
100964
100964
100964
100964
100964
100964
100964
100965
100965
100965
100965
100964
100964
100964
100963
100963
100962
100962
100962
100961
100961
100961
100960
100960
100960
100960
100959
100959
100959
100959
100959
100959
100959
100958
100958
100958
100958
100958
100958
100903
100903
100903
100903
100903
100903
100903
100903
100903
100903
100903
100903
100903
100903
100903
100903
100903
100903
100903
100903
100903
100903
100904
100904
100904
100904
100904
100904
100904
100904
100904
100904
100904
100904
100904
100904
100904
100904
100904
100904
100904
100904
100904
100904
100904
100904
100904
100904
100904
100904
100904
100904
100904
100904
100904
100904
100904
100904
100903
100903
100903
100902
100902
100902
100901
100901
100901
100900
100900
100900
100900
100900
100899
100899
100899
100899
100899
100899
100899
100899
100898
100898
100898
100898
100843
100843
100843
100843
100843
100843
100843
100843
100843
100843
100843
100843
100843
100843
100843
100843
100843
100843
100843
100843
100843
100843
100843
100843
100843
100843
100843
100843
100843
100843
100843
100843
100843
100843
100843
100843
100843
100843
100843
100843
100843
100843
100843
100843
100843
100843
100843
100843
100843
100843
100844
100844
100844
100844
100844
100844
100844
100844
100843
100843
100842
100842
100842
100841
100841
100841
100841
100840
100840
100840
100840