/*--------------------------------*- C++ -*----------------------------------*\
  =========                 |
  \\      /  F ield         | OpenFOAM: The Open Source CFD Toolbox
   \\    /   O peration     | Website:  https://openfoam.org
    \\  /    A nd           | Version:  6
     \\/     M anipulation  |
\*---------------------------------------------------------------------------*/
FoamFile
{
    version     2.0;
    format      ascii;
    class       surfaceScalarField;
    location    "1200";
    object      phi;
}
// * * * * * * * * * * * * * * * * * * * * * * * * * * * * * * * * * * * * * //

dimensions      [0 3 -1 0 0 0 0];

internalField   nonuniform List<scalar> 
9440
(
7.79325e-11
-7.79325e-11
1.65435e-10
-8.75023e-11
1.87985e-10
-2.25507e-11
3.41476e-11
1.53838e-10
-1.1603e-10
1.50177e-10
-2.55934e-10
1.39904e-10
-3.29393e-10
7.3459e-11
-3.77952e-10
4.85596e-11
-3.70158e-10
-7.79466e-12
-4.13288e-10
4.31304e-11
-4.85419e-10
7.21301e-11
-6.48614e-10
1.63195e-10
-8.68086e-10
2.19472e-10
-1.14818e-09
2.8009e-10
-1.37394e-09
2.25768e-10
-1.59869e-09
2.2474e-10
-1.82635e-09
2.27667e-10
-2.11166e-09
2.85306e-10
-2.29796e-09
1.86297e-10
-2.49191e-09
1.93956e-10
-2.66381e-09
1.719e-10
-2.85203e-09
1.88211e-10
-3.06873e-09
2.16697e-10
-3.23419e-09
1.6546e-10
-3.46797e-09
2.33779e-10
-3.66242e-09
1.94455e-10
-3.86566e-09
2.03236e-10
-4.02273e-09
1.57077e-10
-4.13759e-09
1.14852e-10
-4.15923e-09
2.16423e-11
-4.10047e-09
-5.87588e-11
-3.98504e-09
-1.1543e-10
-3.68564e-09
-2.99399e-10
-3.29674e-09
-3.88901e-10
-3.20896e-09
-8.778e-11
-3.088e-09
-1.20967e-10
-2.82801e-09
-2.59989e-10
-2.705e-09
-1.23008e-10
-2.50399e-09
-2.01006e-10
-2.32668e-09
-1.77316e-10
-2.06611e-09
-2.6057e-10
-1.75253e-09
-3.13581e-10
-1.50414e-09
-2.48389e-10
-1.31564e-09
-1.88497e-10
-1.07481e-09
-2.40831e-10
-8.69326e-10
-2.05482e-10
-9.09622e-10
4.02954e-11
-9.16018e-10
6.3962e-12
-1.08567e-09
1.69651e-10
-1.2354e-09
1.49733e-10
-1.41874e-09
1.83333e-10
-1.6008e-09
1.82064e-10
-1.74623e-09
1.45434e-10
-1.85638e-09
1.10141e-10
-1.92836e-09
7.19855e-11
-1.96223e-09
3.38662e-11
-1.96995e-09
7.72304e-12
-1.95736e-09
-1.2592e-11
-1.90631e-09
-5.10557e-11
-1.86683e-09
-3.94739e-11
-1.78882e-09
-7.80166e-11
-1.65173e-09
-1.37094e-10
-1.50925e-09
-1.42478e-10
-1.42358e-09
-8.56664e-11
-1.32081e-09
-1.02777e-10
-1.20011e-09
-1.20693e-10
-1.16727e-09
-3.28489e-11
-1.15099e-09
-1.6276e-11
-1.20337e-09
5.23815e-11
-1.33165e-09
1.28276e-10
-1.43642e-09
1.04775e-10
-1.48643e-09
5.00086e-11
-1.538e-09
5.15691e-11
-1.56304e-09
2.50374e-11
-1.56857e-09
5.52546e-12
-1.52852e-09
-4.00476e-11
-1.50554e-09
-2.29881e-11
-1.09558e-09
-4.09957e-10
-7.60304e-10
-3.35274e-10
-6.42645e-15
-7.60293e-10
-2.62455e-18
-5.11494e-17
-1.75412e-18
-8.70334e-19
-1.58644e-18
-1.66739e-19
-1.50085e-18
-8.37323e-20
-1.37285e-18
-1.28161e-19
-1.18954e-18
-1.84002e-19
-9.63606e-19
-2.26787e-19
-7.10242e-19
-2.54427e-19
-4.42019e-19
-2.69448e-19
-1.68579e-19
-2.74635e-19
1.02645e-19
-2.72169e-19
3.65763e-19
-2.63646e-19
6.15919e-19
-2.50264e-19
8.49065e-19
-2.32983e-19
1.06188e-18
-2.12635e-19
1.25175e-18
-1.8997e-19
1.41685e-18
-1.65662e-19
1.55617e-18
-1.40312e-19
1.66942e-18
-1.14451e-19
1.75686e-18
-8.85575e-20
1.81915e-18
-6.3059e-20
1.8572e-18
-3.83348e-20
1.87206e-18
-1.47075e-20
1.86493e-18
7.56561e-21
1.83715e-18
2.82994e-20
1.79025e-18
4.73834e-20
1.7259e-18
6.47739e-20
1.64585e-18
8.04805e-20
1.55192e-18
9.45491e-20
1.44582e-18
1.07045e-19
1.32914e-18
1.18044e-19
1.2033e-18
1.27623e-19
1.06955e-18
1.35867e-19
9.29042e-19
1.42857e-19
7.82846e-19
1.48676e-19
6.31989e-19
1.53403e-19
4.77451e-19
1.57114e-19
3.20152e-19
1.59899e-19
1.60873e-19
1.61906e-19
1.63531e-19
-6.15329e-11
-1.63996e-11
-1.7537e-10
2.63349e-11
-2.23003e-10
2.50828e-11
-2.39224e-10
1.70058e-10
-2.87116e-10
1.98069e-10
-2.93224e-10
1.46011e-10
-3.43727e-10
1.23962e-10
-3.92781e-10
9.76135e-11
-4.32049e-10
3.14735e-11
-5.06577e-10
1.17658e-10
-6.14938e-10
1.8049e-10
-7.22932e-10
2.71188e-10
-8.88901e-10
3.85441e-10
-1.02911e-09
4.20295e-10
-1.22877e-09
4.25433e-10
-1.55506e-09
5.51025e-10
-1.83941e-09
5.12013e-10
-2.04219e-09
4.88087e-10
-2.19289e-09
3.36997e-10
-2.35974e-09
3.60806e-10
-2.5977e-09
4.0986e-10
-2.7653e-09
3.55812e-10
-2.94959e-09
4.00986e-10
-3.14409e-09
3.59953e-10
-3.30446e-09
3.94148e-10
-3.50199e-09
3.91989e-10
-3.67553e-09
3.76778e-10
-3.83023e-09
3.11776e-10
-3.9143e-09
1.98922e-10
-3.96173e-09
6.90671e-11
-3.95813e-09
-6.23594e-11
-3.87992e-09
-1.93635e-10
-3.69956e-09
-4.79766e-10
-3.43299e-09
-6.55465e-10
-3.15716e-09
-3.63612e-10
-2.95552e-09
-3.22607e-10
-2.75961e-09
-4.55897e-10
-2.55659e-09
-3.26034e-10
-2.39383e-09
-3.63767e-10
-2.25933e-09
-3.11814e-10
-1.983e-09
-5.369e-10
-1.7293e-09
-5.67279e-10
-1.5006e-09
-4.77084e-10
-1.21035e-09
-4.78748e-10
-1.03516e-09
-4.16022e-10
-7.72046e-10
-4.68598e-10
-7.51558e-10
1.98071e-11
-7.77659e-10
3.24965e-11
-9.0345e-10
2.95441e-10
-1.08709e-09
3.33374e-10
-1.27153e-09
3.67774e-10
-1.41613e-09
3.26658e-10
-1.53037e-09
2.59673e-10
-1.56343e-09
1.43202e-10
-1.61351e-09
1.22063e-10
-1.62039e-09
4.07462e-11
-1.62649e-09
1.38203e-11
-1.63179e-09
-7.28957e-12
-1.64098e-09
-4.18722e-11
-1.63244e-09
-4.80174e-11
-1.54859e-09
-1.6186e-10
-1.39587e-09
-2.89821e-10
-1.23058e-09
-3.07765e-10
-1.10955e-09
-2.06701e-10
-1.01762e-09
-1.94709e-10
-9.39675e-10
-1.98634e-10
-9.75994e-10
3.4698e-12
-9.2343e-10
-6.88403e-11
-9.9675e-10
1.257e-10
-1.03938e-09
1.70901e-10
-1.09207e-09
1.57467e-10
-1.11272e-09
7.06536e-11
-1.07675e-09
1.56e-11
-9.90422e-10
-6.12919e-11
-9.13424e-10
-7.14751e-11
-8.70308e-10
-8.31644e-11
-8.34451e-10
-5.88463e-11
-7.7565e-10
-4.6876e-10
-5.52183e-10
-5.58747e-10
5.3161e-16
-1.31249e-09
6.37548e-19
5.07943e-17
-1.06625e-18
8.32642e-19
-1.50343e-18
2.67075e-19
-1.54528e-18
-4.3062e-20
-1.42869e-18
-2.45657e-19
-1.23233e-18
-3.81844e-19
-9.91246e-19
-4.6987e-19
-7.25263e-19
-5.22656e-19
-4.47206e-19
-5.49666e-19
-1.66113e-19
-5.57501e-19
1.11167e-19
-5.50665e-19
3.79145e-19
-5.3228e-19
6.332e-19
-5.04626e-19
8.69413e-19
-4.69494e-19
1.08454e-18
-4.28384e-19
1.27605e-18
-3.8262e-19
1.4422e-18
-3.33425e-19
1.58203e-18
-2.81966e-19
1.69531e-18
-2.29378e-19
1.78235e-18
-1.76743e-19
1.84387e-18
-1.25045e-19
1.88082e-18
-7.51174e-20
1.89433e-18
-2.76053e-20
1.88566e-18
1.70469e-20
1.85624e-18
5.85724e-20
1.80764e-18
9.68402e-20
1.7416e-18
1.31807e-19
1.65992e-18
1.63478e-19
1.56442e-18
1.91894e-19
1.45682e-18
2.17125e-19
1.33872e-18
2.39282e-19
1.21154e-18
2.58514e-19
1.07654e-18
2.75001e-19
9.34861e-19
2.88938e-19
7.87573e-19
3.00513e-19
6.357e-19
3.09895e-19
4.80236e-19
3.17237e-19
3.22158e-19
3.2267e-19
1.62499e-19
3.263e-19
3.28125e-19
-1.07844e-10
9.14449e-11
-2.50189e-10
1.68679e-10
-3.76854e-10
1.51748e-10
-3.94789e-10
1.87994e-10
-3.78793e-10
1.82073e-10
-3.83405e-10
1.50624e-10
-4.05064e-10
1.4562e-10
-4.22728e-10
1.15278e-10
-4.80779e-10
8.95242e-11
-5.19633e-10
1.56512e-10
-5.93768e-10
2.54625e-10
-6.88084e-10
3.65504e-10
-8.4887e-10
5.46227e-10
-1.05988e-09
6.31305e-10
-1.2701e-09
6.35653e-10
-1.48025e-09
7.61179e-10
-1.71114e-09
7.42901e-10
-1.89848e-09
6.75419e-10
-2.10224e-09
5.4076e-10
-2.25418e-09
5.12751e-10
-2.40542e-09
5.61093e-10
-2.57109e-09
5.21485e-10
-2.7135e-09
5.43399e-10
-2.89813e-09
5.44581e-10
-3.04626e-09
5.42277e-10
-3.1896e-09
5.35328e-10
-3.32991e-09
5.17087e-10
-3.42644e-09
4.08301e-10
-3.51622e-09
2.88705e-10
-3.55584e-09
1.08687e-10
-3.54652e-09
-7.16864e-11
-3.46803e-09
-2.7212e-10
-3.40305e-09
-5.44746e-10
-3.33607e-09
-7.22446e-10
-3.09653e-09
-6.03152e-10
-2.87749e-09
-5.41645e-10
-2.86048e-09
-4.72908e-10
-2.58797e-09
-5.98548e-10
-2.48865e-09
-4.6309e-10
-2.30516e-09
-4.95304e-10
-2.0257e-09
-8.1636e-10
-1.85116e-09
-7.41818e-10
-1.63554e-09
-6.92706e-10
-1.36879e-09
-7.45495e-10
-1.15465e-09
-6.30163e-10
-9.57864e-10
-6.65383e-10
-6.65984e-10
-2.72074e-10
-7.55627e-10
1.22139e-10
-7.40566e-10
2.80381e-10
-8.02974e-10
3.95782e-10
-9.08598e-10
4.73398e-10
-1.01612e-09
4.34183e-10
-1.14307e-09
3.86621e-10
-1.23738e-09
2.37504e-10
-1.34198e-09
2.26665e-10
-1.44561e-09
1.44379e-10
-1.51756e-09
8.5771e-11
-1.56744e-09
4.25858e-11
-1.61461e-09
5.29269e-12
-1.58583e-09
-7.67916e-11
-1.53204e-09
-2.15658e-10
-1.37966e-09
-4.42202e-10
-1.27449e-09
-4.12929e-10
-1.10426e-09
-3.76933e-10
-9.67584e-10
-3.31388e-10
-8.16454e-10
-3.49765e-10
-6.52189e-10
-1.60797e-10
-4.75952e-10
-2.45078e-10
-3.22733e-10
-2.75196e-11
-1.95611e-10
4.37772e-11
-8.30186e-11
4.4873e-11
-8.55627e-12
-3.81074e-12
2.66396e-11
-1.95981e-11
5.04792e-11
-8.51339e-11
9.59426e-11
-1.16941e-10
1.84934e-10
-1.72158e-10
3.48476e-10
-2.22388e-10
1.76851e-10
-2.97132e-10
-1.51783e-10
-2.30105e-10
1.26487e-15
-1.46427e-09
-1.28488e-18
8.53081e-17
-1.67003e-18
1.21792e-18
-1.81357e-18
4.10254e-19
-1.74787e-18
-1.10782e-19
-1.56488e-18
-4.30768e-19
-1.32035e-18
-6.28734e-19
-1.04403e-18
-7.48789e-19
-7.52274e-19
-8.17121e-19
-4.55041e-19
-8.49546e-19
-1.59276e-19
-8.55683e-19
1.29553e-19
-8.41549e-19
4.06798e-19
-8.11142e-19
6.68332e-19
-7.67395e-19
9.10523e-19
-7.12688e-19
1.1303e-18
-6.4911e-19
1.32525e-18
-5.78604e-19
1.49366e-18
-5.03034e-19
1.63462e-18
-4.24217e-19
1.74795e-18
-3.43916e-19
1.83405e-18
-2.63787e-19
1.8938e-18
-1.85308e-19
1.92834e-18
-1.09704e-19
1.93898e-18
-3.79022e-20
1.92719e-18
2.94648e-20
1.89451e-18
9.20232e-20
1.84261e-18
1.4959e-19
1.77327e-18
2.02109e-19
1.68834e-18
2.49601e-19
1.58965e-18
2.9214e-19
1.47898e-18
3.29853e-19
1.35795e-18
3.6292e-19
1.22803e-18
3.91577e-19
1.09048e-18
4.16102e-19
9.46435e-19
4.36792e-19
7.96956e-19
4.53939e-19
6.43042e-19
4.67811e-19
4.85669e-19
4.78641e-19
3.25789e-19
4.86621e-19
1.64323e-19
4.91888e-19
4.945e-19
-1.67677e-10
2.59122e-10
-2.40852e-10
2.41854e-10
-3.27718e-10
2.38615e-10
-3.74133e-10
2.34408e-10
-4.06232e-10
2.14172e-10
-4.15213e-10
1.59605e-10
-4.21846e-10
1.52254e-10
-4.47802e-10
1.41235e-10
-5.04712e-10
1.46434e-10
-5.4559e-10
1.97391e-10
-5.95707e-10
3.04742e-10
-6.872e-10
4.56997e-10
-7.93781e-10
6.52808e-10
-9.5362e-10
7.91145e-10
-1.17081e-09
8.52839e-10
-1.32376e-09
9.14134e-10
-1.50333e-09
9.22468e-10
-1.69884e-09
8.70932e-10
-1.87958e-09
7.21499e-10
-2.03155e-09
6.64723e-10
-2.20903e-09
7.38574e-10
-2.36371e-09
6.76158e-10
-2.46848e-09
6.48168e-10
-2.60641e-09
6.82513e-10
-2.73925e-09
6.75119e-10
-2.82791e-09
6.23985e-10
-2.92259e-09
6.11763e-10
-2.97825e-09
4.63964e-10
-3.04037e-09
3.50823e-10
-3.03645e-09
1.04768e-10
-3.04557e-09
-6.25697e-11
-3.02003e-09
-2.97658e-10
-2.97428e-09
-5.90494e-10
-3.00847e-09
-6.88256e-10
-2.96138e-09
-6.50249e-10
-2.877e-09
-6.26027e-10
-2.79052e-09
-5.59387e-10
-2.6717e-09
-7.17371e-10
-2.54632e-09
-5.8847e-10
-2.38422e-09
-6.57399e-10
-2.28706e-09
-9.13523e-10
-2.13923e-09
-8.89648e-10
-1.93312e-09
-8.9881e-10
-1.74669e-09
-9.3193e-10
-1.39413e-09
-9.82725e-10
-1.22256e-09
-8.36952e-10
-9.4095e-10
-5.53683e-10
-9.65931e-10
1.4712e-10
-7.64129e-10
7.8579e-11
-7.69811e-10
4.01462e-10
-8.50465e-10
5.54052e-10
-9.41961e-10
5.25678e-10
-1.05837e-09
5.03026e-10
-1.20918e-09
3.88321e-10
-1.32747e-09
3.44949e-10
-1.42655e-09
2.43457e-10
-1.47576e-09
1.34987e-10
-1.52343e-09
9.02555e-11
-1.52657e-09
8.42788e-12
-1.46419e-09
-1.39169e-10
-1.40998e-09
-2.69873e-10
-1.30977e-09
-5.42408e-10
-1.23727e-09
-4.85428e-10
-1.09883e-09
-5.15377e-10
-9.54059e-10
-4.76161e-10
-7.9864e-10
-5.05185e-10
-5.01299e-10
-4.58138e-10
-3.47354e-10
-3.99024e-10
-1.28847e-10
-2.46028e-10
7.20995e-11
-1.57171e-10
2.4562e-10
-1.28649e-10
3.54934e-10
-1.13127e-10
4.12198e-10
-7.68648e-11
4.32133e-10
-1.05071e-10
4.36917e-10
-1.21727e-10
4.53641e-10
-1.88886e-10
4.68659e-10
-2.37411e-10
2.88687e-10
-1.17164e-10
-3.16435e-11
9.02229e-11
1.37979e-15
-1.49592e-09
-2.80614e-18
7.73002e-17
-2.54757e-18
9.59225e-19
-2.3346e-18
1.96641e-19
-2.06786e-18
-3.80517e-19
-1.76285e-18
-7.38931e-19
-1.44041e-18
-9.54381e-19
-1.11236e-18
-1.0801e-18
-7.84698e-19
-1.14808e-18
-4.61178e-19
-1.17635e-18
-1.45142e-19
-1.1749e-18
1.59959e-19
-1.14959e-18
4.50545e-19
-1.10427e-18
7.2304e-19
-1.04194e-18
9.74101e-19
-9.65285e-19
1.20081e-18
-8.76943e-19
1.40082e-18
-7.79512e-19
1.57248e-18
-6.75569e-19
1.71492e-18
-5.67629e-19
1.82807e-18
-4.58092e-19
1.91253e-18
-3.49173e-19
1.96941e-18
-2.4282e-19
2.00014e-18
-1.40637e-19
2.00635e-18
-4.38395e-20
1.98974e-18
4.67439e-20
1.95207e-18
1.30629e-19
1.89513e-18
2.07597e-19
1.82077e-18
2.77614e-19
1.73088e-18
3.4076e-19
1.62736e-18
3.97189e-19
1.51204e-18
4.47113e-19
1.38661e-18
4.90805e-19
1.25255e-18
5.28599e-19
1.11117e-18
5.60879e-19
9.63582e-19
5.88055e-19
8.10828e-19
6.10532e-19
6.53872e-19
6.28684e-19
4.93649e-19
6.42836e-19
3.31056e-19
6.53247e-19
1.66936e-19
6.60102e-19
6.63511e-19
-9.9e-11
3.58122e-10
-2.58314e-10
4.01168e-10
-3.59697e-10
3.39998e-10
-3.9343e-10
2.68142e-10
-3.97556e-10
2.18298e-10
-4.04986e-10
1.67036e-10
-4.1554e-10
1.62808e-10
-4.35805e-10
1.61501e-10
-4.65542e-10
1.76172e-10
-5.12082e-10
2.43931e-10
-6.00849e-10
3.9351e-10
-7.59163e-10
6.15312e-10
-9.33491e-10
8.27138e-10
-1.05379e-09
9.11444e-10
-1.1969e-09
9.95948e-10
-1.31812e-09
1.03536e-09
-1.4538e-09
1.05815e-09
-1.63095e-09
1.04809e-09
-1.79937e-09
8.89918e-10
-1.93575e-09
8.01098e-10
-2.02552e-09
8.28346e-10
-2.12383e-09
7.74473e-10
-2.22133e-09
7.45663e-10
-2.27676e-09
7.37947e-10
-2.36474e-09
7.63096e-10
-2.43721e-09
6.96454e-10
-2.4802e-09
6.54752e-10
-2.49637e-09
4.8013e-10
-2.50403e-09
3.58481e-10
-2.50127e-09
1.02011e-10
-2.52934e-09
-3.44999e-11
-2.55969e-09
-2.67305e-10
-2.6425e-09
-5.07689e-10
-2.68378e-09
-6.46974e-10
-2.6765e-09
-6.57526e-10
-2.67388e-09
-6.28656e-10
-2.6061e-09
-6.27159e-10
-2.67562e-09
-6.47855e-10
-2.56698e-09
-6.97115e-10
-2.44595e-09
-7.7843e-10
-2.43837e-09
-9.21106e-10
-2.31434e-09
-1.01368e-09
-2.14394e-09
-1.06921e-09
-1.99389e-09
-1.08197e-09
-1.79609e-09
-1.18052e-09
-1.65891e-09
-9.74136e-10
-1.50021e-09
-7.12385e-10
-1.09336e-09
-2.59732e-10
-1.00118e-09
-1.36025e-11
-8.49211e-10
2.49498e-10
-8.03723e-10
5.08564e-10
-8.79509e-10
6.01464e-10
-9.71122e-10
5.94638e-10
-1.13164e-09
5.48837e-10
-1.26046e-09
4.73766e-10
-1.35044e-09
3.33439e-10
-1.39284e-09
1.77391e-10
-1.40925e-09
1.06667e-10
-1.39502e-09
-5.80809e-12
-1.34608e-09
-1.88114e-10
-1.23226e-09
-3.83689e-10
-1.20577e-09
-5.68904e-10
-1.05646e-09
-6.34732e-10
-9.49426e-10
-6.22413e-10
-7.64164e-10
-6.61425e-10
-6.06306e-10
-6.63044e-10
-4.53462e-10
-6.10983e-10
-3.14975e-10
-5.37512e-10
-7.21009e-11
-4.88904e-10
1.73242e-10
-4.02516e-10
3.55457e-10
-3.10866e-10
4.79143e-10
-2.36816e-10
5.89256e-10
-1.8698e-10
5.96245e-10
-1.12063e-10
5.71403e-10
-9.68873e-11
5.31059e-10
-1.48544e-10
5.27773e-10
-2.34128e-10
4.58032e-10
-4.7427e-11
1.93094e-10
3.55157e-10
1.25218e-15
-1.30283e-09
-3.98658e-18
-1.77135e-17
-3.41481e-18
3.87063e-19
-2.91176e-18
-3.07889e-19
-2.42627e-18
-8.69543e-19
-1.9783e-18
-1.19043e-18
-1.56612e-18
-1.37e-18
-1.18035e-18
-1.46931e-18
-8.12964e-19
-1.51892e-18
-4.5973e-19
-1.53309e-18
-1.19833e-19
-1.51835e-18
2.05281e-19
-1.47814e-18
5.1288e-19
-1.41493e-18
7.99691e-19
-1.33122e-18
1.06244e-18
-1.22983e-18
1.29824e-18
-1.1139e-18
1.50476e-18
-9.86772e-19
1.68042e-18
-8.51837e-19
1.82446e-18
-7.12386e-19
1.93699e-18
-5.71506e-19
2.01888e-18
-4.31993e-19
2.07159e-18
-2.96266e-19
2.09693e-18
-1.66305e-19
2.09693e-18
-4.36088e-20
2.07363e-18
7.08069e-20
2.02904e-18
1.76362e-19
1.96515e-18
2.72832e-19
1.88391e-18
3.60246e-19
1.7873e-18
4.38796e-19
1.67728e-18
5.08766e-19
1.55573e-18
5.70503e-19
1.42441e-18
6.24405e-19
1.28483e-18
6.70929e-19
1.13834e-18
7.10579e-19
9.86059e-19
7.43889e-19
8.2898e-19
7.71383e-19
6.68024e-19
7.93547e-19
5.0406e-19
8.10801e-19
3.37912e-19
8.23478e-19
1.70344e-19
8.31817e-19
8.35962e-19
-9.40808e-11
4.52203e-10
-2.37e-10
5.44088e-10
-3.41438e-10
4.44436e-10
-4.05487e-10
3.32192e-10
-4.43819e-10
2.5663e-10
-4.76677e-10
1.99895e-10
-4.76566e-10
1.62698e-10
-4.76203e-10
1.61139e-10
-5.30897e-10
2.30867e-10
-5.77909e-10
2.90944e-10
-6.31682e-10
4.47285e-10
-7.06655e-10
6.90285e-10
-8.67819e-10
9.88303e-10
-1.07374e-09
1.11736e-09
-1.27262e-09
1.19483e-09
-1.44239e-09
1.20513e-09
-1.51455e-09
1.13031e-09
-1.56294e-09
1.09648e-09
-1.65725e-09
9.84233e-10
-1.77586e-09
9.19707e-10
-1.82597e-09
8.78455e-10
-1.90466e-09
8.53161e-10
-1.97634e-09
8.17344e-10
-2.00287e-09
7.64472e-10
-2.00176e-09
7.61983e-10
-1.9898e-09
6.84495e-10
-2.00328e-09
6.6823e-10
-2.05378e-09
5.30633e-10
-2.02552e-09
3.30221e-10
-2.08473e-09
1.61214e-10
-2.10025e-09
-1.89793e-11
-2.14822e-09
-2.19334e-10
-2.24907e-09
-4.06836e-10
-2.33418e-09
-5.61867e-10
-2.40676e-09
-5.8495e-10
-2.47006e-09
-5.65356e-10
-2.46769e-09
-6.2953e-10
-2.47706e-09
-6.38489e-10
-2.47653e-09
-6.97645e-10
-2.45371e-09
-8.01248e-10
-2.44985e-09
-9.24962e-10
-2.3848e-09
-1.07874e-09
-2.32538e-09
-1.12862e-09
-2.2503e-09
-1.15706e-09
-2.2048e-09
-1.22602e-09
-2.06912e-09
-1.10981e-09
-1.85945e-09
-9.22058e-10
-1.52621e-09
-5.92976e-10
-1.35559e-09
-1.84215e-10
-1.10871e-09
2.6116e-12
-9.07134e-10
3.0699e-10
-8.37259e-10
5.31589e-10
-8.50739e-10
6.08117e-10
-9.56332e-10
6.54431e-10
-1.0218e-09
5.39233e-10
-1.11307e-09
4.24713e-10
-1.193e-09
2.57322e-10
-1.23789e-09
1.51549e-10
-1.23855e-09
-5.1424e-12
-1.24052e-09
-1.86145e-10
-1.16274e-09
-4.61473e-10
-1.1127e-09
-6.18946e-10
-9.56763e-10
-7.90668e-10
-7.91388e-10
-7.87789e-10
-5.87186e-10
-8.65628e-10
-4.0264e-10
-8.47591e-10
-2.21597e-10
-7.92029e-10
-4.01767e-11
-7.18934e-10
8.27723e-11
-6.11855e-10
2.39893e-10
-5.59638e-10
3.79309e-10
-4.50284e-10
4.68446e-10
-3.25954e-10
5.58867e-10
-2.77403e-10
5.90567e-10
-1.43767e-10
5.42667e-10
-4.899e-11
3.88585e-10
5.53484e-12
1.04842e-10
4.96128e-11
-7.23015e-11
1.29713e-10
2.47495e-11
2.58102e-10
1.10131e-15
-1.27809e-09
-3.82931e-18
3.48357e-17
-4.23804e-18
7.94993e-19
-3.47342e-18
-1.07441e-18
-2.74716e-18
-1.59911e-18
-2.15787e-18
-1.78284e-18
-1.66543e-18
-1.86546e-18
-1.22996e-18
-1.9078e-18
-8.27131e-19
-1.92485e-18
-4.44998e-19
-1.91843e-18
-7.96163e-20
-1.8871e-18
2.68493e-19
-1.82963e-18
5.96588e-19
-1.74613e-18
9.01081e-19
-1.63828e-18
1.17837e-18
-1.50899e-18
1.42537e-18
-1.36206e-18
1.6397e-18
-1.20176e-18
1.81987e-18
-1.03247e-18
1.96534e-18
-8.58414e-19
2.07651e-18
-6.83464e-19
2.15461e-18
-5.11048e-19
2.20155e-18
-3.44074e-19
2.21963e-18
-1.84883e-19
2.21135e-18
-3.52255e-20
2.17918e-18
1.03723e-19
2.12551e-18
2.31321e-19
2.05256e-18
3.47373e-19
1.96246e-18
4.5202e-19
1.85728e-18
5.45621e-19
1.73902e-18
6.28653e-19
1.60964e-18
7.01655e-19
1.47093e-18
7.65202e-19
1.32449e-18
8.19907e-19
1.17165e-18
8.66418e-19
1.01355e-18
9.054e-19
8.51145e-19
9.37505e-19
6.85278e-19
9.63332e-19
5.16737e-19
9.83401e-19
3.4625e-19
9.9812e-19
1.74489e-19
1.00779e-18
1.01259e-18
1.19918e-10
3.32286e-10
5.83453e-11
6.05661e-10
-2.06839e-10
7.0962e-10
-3.59217e-10
4.8457e-10
-4.66522e-10
3.63935e-10
-5.42039e-10
2.75413e-10
-5.33353e-10
1.54012e-10
-5.87099e-10
2.14885e-10
-6.31758e-10
2.75527e-10
-6.55923e-10
3.1511e-10
-7.69519e-10
5.60881e-10
-8.19934e-10
7.40701e-10
-8.82696e-10
1.05107e-09
-1.00484e-09
1.23951e-09
-1.08894e-09
1.27893e-09
-1.20033e-09
1.31652e-09
-1.33294e-09
1.26292e-09
-1.4582e-09
1.22174e-09
-1.57275e-09
1.09878e-09
-1.6579e-09
1.00486e-09
-1.71418e-09
9.34739e-10
-1.75571e-09
8.94685e-10
-1.77171e-09
8.33351e-10
-1.75413e-09
7.46888e-10
-1.7362e-09
7.44046e-10
-1.77727e-09
7.25567e-10
-1.66565e-09
5.56609e-10
-1.66744e-09
5.32429e-10
-1.64516e-09
3.07937e-10
-1.69047e-09
2.06523e-10
-1.74312e-09
3.36681e-11
-1.80928e-09
-1.53173e-10
-1.88014e-09
-3.35981e-10
-2.00772e-09
-4.34279e-10
-2.1061e-09
-4.86573e-10
-2.16811e-09
-5.03354e-10
-2.26356e-09
-5.34074e-10
-2.36702e-09
-5.35028e-10
-2.4479e-09
-6.16765e-10
-2.4815e-09
-7.67648e-10
-2.46981e-09
-9.36653e-10
-2.46295e-09
-1.0856e-09
-2.48656e-09
-1.10501e-09
-2.46509e-09
-1.17853e-09
-2.48906e-09
-1.20205e-09
-2.41776e-09
-1.18112e-09
-2.26446e-09
-1.07536e-09
-2.04896e-09
-8.08483e-10
-1.64543e-09
-5.87744e-10
-1.41282e-09
-2.29999e-10
-1.13863e-09
3.28018e-11
-9.30586e-10
3.23542e-10
-8.08867e-10
4.86398e-10
-7.67205e-10
6.12769e-10
-7.55649e-10
5.27677e-10
-7.90864e-10
4.59928e-10
-8.69215e-10
3.35672e-10
-9.37233e-10
2.19567e-10
-9.86783e-10
4.44065e-11
-1.01977e-09
-1.53158e-10
-9.90347e-10
-4.90897e-10
-8.82568e-10
-7.26725e-10
-7.9473e-10
-8.78508e-10
-6.77991e-10
-9.04529e-10
-5.77015e-10
-9.66605e-10
-4.38437e-10
-9.86171e-10
-2.60829e-10
-9.69638e-10
-5.27407e-11
-9.27024e-10
1.56563e-10
-8.2116e-10
3.08998e-10
-7.12074e-10
4.55905e-10
-5.97193e-10
5.60619e-10
-4.3067e-10
5.78777e-10
-2.95563e-10
5.83591e-10
-1.48584e-10
5.4404e-10
-9.4407e-12
4.49121e-10
1.0045e-10
3.05594e-10
1.93138e-10
1.21341e-10
3.13962e-10
1.64502e-11
3.6299e-10
-3.42306e-15
-1.26164e-09
-1.45025e-17
-3.95406e-15
-6.15196e-18
-7.55608e-18
-3.99811e-18
-3.23003e-18
-2.93089e-18
-2.66876e-18
-2.24048e-18
-2.47537e-18
-1.70777e-18
-2.40029e-18
-1.24702e-18
-2.3708e-18
-8.20709e-19
-2.35358e-18
-4.13674e-19
-2.32813e-18
-2.21415e-20
-2.28156e-18
3.51988e-19
-2.20682e-18
7.04443e-19
-2.10153e-18
1.03037e-18
-1.96672e-18
1.3253e-18
-1.80581e-18
1.58566e-18
-1.62366e-18
1.80899e-18
-1.42579e-18
1.99393e-18
-1.21789e-18
2.14029e-18
-1.00531e-18
2.24892e-18
-7.92877e-19
2.32159e-18
-5.84724e-19
2.36074e-18
-3.84264e-19
2.36929e-18
-1.94168e-19
2.3503e-18
-1.63878e-20
2.30678e-18
1.47814e-19
2.24156e-18
2.97793e-19
2.15721e-18
4.33441e-19
2.05606e-18
5.55063e-19
1.94031e-18
6.63242e-19
1.81202e-18
7.58713e-19
1.67318e-18
8.42271e-19
1.52563e-18
9.14729e-19
1.371e-18
9.769e-19
1.21063e-18
1.02961e-18
1.04566e-18
1.07366e-18
8.76973e-19
1.10985e-18
7.05346e-19
1.13889e-18
5.31456e-19
1.1614e-18
3.55916e-19
1.17787e-18
1.79288e-19
1.18867e-18
1.19401e-18
-4.90369e-10
8.22654e-10
-6.23032e-10
7.38325e-10
-5.35659e-10
6.22247e-10
-5.10089e-10
4.59e-10
-5.22162e-10
3.76009e-10
-5.88489e-10
3.41741e-10
-6.44217e-10
2.0974e-10
-7.15207e-10
2.85875e-10
-7.52392e-10
3.12711e-10
-7.98373e-10
3.61091e-10
-8.78156e-10
6.40664e-10
-9.57007e-10
8.19552e-10
-9.88485e-10
1.08254e-09
-1.04072e-09
1.29174e-09
-1.11379e-09
1.352e-09
-1.21044e-09
1.41317e-09
-1.32203e-09
1.37451e-09
-1.38864e-09
1.28835e-09
-1.45799e-09
1.16812e-09
-1.53806e-09
1.08494e-09
-1.59101e-09
9.8769e-10
-1.61861e-09
9.22285e-10
-1.63358e-09
8.48317e-10
-1.59079e-09
7.04093e-10
-1.51763e-09
6.70889e-10
-1.52193e-09
7.29864e-10
-1.49448e-09
5.29163e-10
-1.4148e-09
4.52747e-10
-1.41798e-09
3.11117e-10
-1.42169e-09
2.10233e-10
-1.47978e-09
9.17508e-11
-1.53524e-09
-9.77138e-11
-1.63852e-09
-2.32696e-10
-1.76309e-09
-3.09713e-10
-1.85562e-09
-3.94037e-10
-1.90526e-09
-4.53717e-10
-1.96235e-09
-4.7699e-10
-2.03528e-09
-4.62094e-10
-2.14534e-09
-5.06702e-10
-2.32533e-09
-5.87661e-10
-2.431e-09
-8.30987e-10
-2.45455e-09
-1.06205e-09
-2.55404e-09
-1.00552e-09
-2.5766e-09
-1.15597e-09
-2.61863e-09
-1.16002e-09
-2.62861e-09
-1.17113e-09
-2.5475e-09
-1.15647e-09
-2.33251e-09
-1.02348e-09
-2.0566e-09
-8.63652e-10
-1.74392e-09
-5.42676e-10
-1.43584e-09
-2.75283e-10
-1.14126e-09
2.89598e-11
-9.01021e-10
2.4616e-10
-7.31004e-10
4.42751e-10
-6.61944e-10
4.58616e-10
-6.22838e-10
4.20822e-10
-6.61648e-10
3.74482e-10
-6.92858e-10
2.50776e-10
-7.32786e-10
8.43341e-11
-7.46757e-10
-1.39187e-10
-8.23222e-10
-4.14433e-10
-8.43714e-10
-7.06235e-10
-7.95844e-10
-9.26379e-10
-7.37666e-10
-9.62709e-10
-6.09905e-10
-1.09437e-09
-4.48295e-10
-1.14778e-09
-2.77473e-10
-1.14046e-09
-8.66871e-11
-1.11781e-09
1.25783e-10
-1.03363e-09
3.20108e-10
-9.064e-10
4.89533e-10
-7.66618e-10
6.29516e-10
-5.70654e-10
6.64155e-10
-3.30203e-10
6.3138e-10
-1.1581e-10
5.79109e-10
4.28283e-11
5.18546e-10
1.61011e-10
4.6994e-10
2.41742e-10
5.00235e-10
2.83664e-10
4.39794e-10
4.23428e-10
4.09311e-15
-8.21848e-10
-1.14345e-18
-2.93074e-18
-4.11523e-18
-4.58432e-18
-3.43683e-18
-3.90997e-18
-2.73751e-18
-3.36953e-18
-2.1654e-18
-3.04847e-18
-1.67828e-18
-2.88859e-18
-1.22979e-18
-2.82074e-18
-7.95261e-19
-2.78985e-18
-3.67102e-19
-2.75842e-18
5.25921e-20
-2.70377e-18
4.57283e-19
-2.61433e-18
8.3925e-19
-2.48633e-18
1.19128e-18
-2.32129e-18
1.50746e-18
-2.12402e-18
1.78353e-18
-1.90115e-18
2.01689e-18
-1.66007e-18
2.20651e-18
-1.40814e-18
2.35273e-18
-1.15216e-18
2.45708e-18
-8.98058e-19
2.52205e-18
-6.50773e-19
2.55084e-18
-4.14228e-19
2.54707e-18
-1.91379e-19
2.5145e-18
1.57194e-20
2.45676e-18
2.0582e-19
2.37721e-18
3.78388e-19
2.27883e-18
5.33486e-19
2.16424e-18
6.71655e-19
2.03578e-18
7.93766e-19
1.89558e-18
9.00872e-19
1.74564e-18
9.94093e-19
1.58781e-18
1.07453e-18
1.4237e-18
1.14326e-18
1.25469e-18
1.20132e-18
1.08185e-18
1.24968e-18
9.06013e-19
1.28928e-18
7.27857e-19
1.32096e-18
5.4793e-19
1.34545e-18
3.66711e-19
1.36332e-18
1.84635e-19
1.375e-18
1.38077e-18
-1.73464e-10
9.96118e-10
-3.90604e-10
9.55466e-10
-5.13007e-10
7.4465e-10
-6.44858e-10
5.90851e-10
-7.12435e-10
4.43585e-10
-7.2901e-10
3.58316e-10
-7.81391e-10
2.6212e-10
-8.01973e-10
3.06457e-10
-8.68878e-10
3.79616e-10
-9.45492e-10
4.37706e-10
-9.40928e-10
6.36099e-10
-9.74352e-10
8.52975e-10
-9.85166e-10
1.09336e-09
-1.02506e-09
1.33164e-09
-1.07894e-09
1.40587e-09
-1.1187e-09
1.45293e-09
-1.19086e-09
1.44668e-09
-1.28873e-09
1.38622e-09
-1.35001e-09
1.2294e-09
-1.37881e-09
1.11374e-09
-1.41347e-09
1.02235e-09
-1.42472e-09
9.33529e-10
-1.46945e-09
8.93055e-10
-1.49632e-09
7.30962e-10
-1.46001e-09
6.34579e-10
-1.34408e-09
6.13926e-10
-1.33002e-09
5.15111e-10
-1.28701e-09
4.0973e-10
-1.26738e-09
2.91493e-10
-1.27365e-09
2.16496e-10
-1.30829e-09
1.26398e-10
-1.38451e-09
-2.15026e-11
-1.45818e-09
-1.59019e-10
-1.5285e-09
-2.39392e-10
-1.58624e-09
-3.36297e-10
-1.62738e-09
-4.12579e-10
-1.6973e-09
-4.07073e-10
-1.77138e-09
-3.88014e-10
-1.87214e-09
-4.05947e-10
-2.03393e-09
-4.25864e-10
-2.23838e-09
-6.26545e-10
-2.38612e-09
-9.14304e-10
-2.55105e-09
-8.40589e-10
-2.60045e-09
-1.10657e-09
-2.66147e-09
-1.099e-09
-2.69701e-09
-1.13559e-09
-2.67877e-09
-1.1747e-09
-2.5637e-09
-1.13855e-09
-2.37803e-09
-1.04933e-09
-2.11211e-09
-8.08597e-10
-1.8459e-09
-5.41486e-10
-1.49918e-09
-3.17769e-10
-1.1719e-09
-8.11163e-11
-8.82724e-10
1.53575e-10
-6.9084e-10
2.66732e-10
-5.99982e-10
3.29963e-10
-5.68427e-10
3.42927e-10
-5.38376e-10
2.20724e-10
-5.46128e-10
9.20859e-11
-5.9231e-10
-9.30057e-11
-6.66128e-10
-3.40617e-10
-7.18437e-10
-6.53927e-10
-7.05269e-10
-9.39549e-10
-6.88961e-10
-9.79018e-10
-5.94881e-10
-1.18845e-09
-4.62523e-10
-1.28014e-09
-2.8083e-10
-1.32216e-09
-8.62752e-11
-1.31237e-09
1.10742e-10
-1.23065e-09
3.06408e-10
-1.10207e-09
4.76083e-10
-9.36294e-10
6.43225e-10
-7.37797e-10
6.99457e-10
-3.86436e-10
6.85132e-10
-1.01485e-10
6.42679e-10
8.52793e-11
6.03067e-10
2.00622e-10
5.95992e-10
2.48816e-10
6.63159e-10
2.16495e-10
6.72522e-10
4.14065e-10
-8.72298e-17
-1.49327e-10
-3.67888e-18
-6.38751e-20
-3.44081e-18
-4.82309e-18
-2.8964e-18
-4.45512e-18
-2.41644e-18
-3.85034e-18
-2.00552e-18
-3.45945e-18
-1.61043e-18
-3.28415e-18
-1.19891e-18
-3.23304e-18
-7.63829e-19
-3.22612e-18
-3.12454e-19
-3.21152e-18
1.42039e-19
-3.16053e-18
5.85279e-19
-3.06029e-18
1.00429e-18
-2.90826e-18
1.38855e-18
-2.70831e-18
1.73033e-18
-2.46813e-18
2.0246e-18
-2.1972e-18
2.26882e-18
-1.90553e-18
2.46249e-18
-1.6027e-18
2.60683e-18
-1.29727e-18
2.70436e-18
-9.96464e-19
2.75859e-18
-7.06078e-19
2.77369e-18
-4.30524e-19
2.75417e-18
-1.72953e-19
2.7046e-18
6.46053e-20
2.62933e-18
2.81075e-19
2.53231e-18
4.76181e-19
2.417e-18
6.50295e-19
2.28635e-18
8.04296e-19
2.14289e-18
9.39422e-19
1.9888e-18
1.05711e-18
1.82608e-18
1.15886e-18
1.65654e-18
1.24613e-18
1.48175e-18
1.3203e-18
1.30305e-18
1.38265e-18
1.12145e-18
1.43437e-18
9.37696e-19
1.47656e-18
7.52344e-19
1.51018e-18
5.65799e-19
1.53608e-18
3.78389e-19
1.55491e-18
1.90401e-19
1.56719e-18
1.57322e-18
-1.12611e-10
1.10873e-09
-2.35677e-10
1.07853e-09
-3.81038e-10
8.90012e-10
-5.69243e-10
7.79056e-10
-7.49845e-10
6.24187e-10
-8.32406e-10
4.40877e-10
-8.96048e-10
3.25762e-10
-9.81534e-10
3.91943e-10
-1.03415e-09
4.32232e-10
-1.07969e-09
4.8325e-10
-1.08441e-09
6.40816e-10
-1.11986e-09
8.8842e-10
-1.12602e-09
1.09951e-09
-1.08574e-09
1.29136e-09
-1.07774e-09
1.39787e-09
-1.07086e-09
1.44606e-09
-1.08452e-09
1.46034e-09
-1.12664e-09
1.42834e-09
-1.19329e-09
1.29605e-09
-1.24727e-09
1.16772e-09
-1.26525e-09
1.04033e-09
-1.27056e-09
9.3884e-10
-1.23598e-09
8.58471e-10
-1.25144e-09
7.46422e-10
-1.29689e-09
6.8003e-10
-1.26091e-09
5.77953e-10
-1.21501e-09
4.69208e-10
-1.18556e-09
3.80281e-10
-1.149e-09
2.54928e-10
-1.12183e-09
1.89325e-10
-1.09818e-09
1.0275e-10
-1.16591e-09
4.62304e-11
-1.23994e-09
-8.4991e-11
-1.28794e-09
-1.91387e-10
-1.32584e-09
-2.98405e-10
-1.36689e-09
-3.71528e-10
-1.41678e-09
-3.57182e-10
-1.44515e-09
-3.59646e-10
-1.51834e-09
-3.32753e-10
-1.64139e-09
-3.02822e-10
-1.89536e-09
-3.72571e-10
-2.14545e-09
-6.64214e-10
-2.32702e-09
-6.5902e-10
-2.52885e-09
-9.0474e-10
-2.63522e-09
-9.92627e-10
-2.70997e-09
-1.06085e-09
-2.70925e-09
-1.17543e-09
-2.66314e-09
-1.18466e-09
-2.56803e-09
-1.14443e-09
-2.41985e-09
-9.56786e-10
-2.20726e-09
-7.54075e-10
-1.8692e-09
-6.55824e-10
-1.51323e-09
-4.37096e-10
-1.19068e-09
-1.68975e-10
-8.90596e-10
-3.33491e-11
-6.93811e-10
1.33177e-10
-5.93089e-10
2.42205e-10
-5.2949e-10
1.57125e-10
-5.12391e-10
7.49867e-11
-5.37088e-10
-6.83093e-11
-5.86687e-10
-2.9102e-10
-6.63457e-10
-5.77158e-10
-6.68911e-10
-9.34097e-10
-6.1267e-10
-1.03526e-09
-5.59182e-10
-1.24194e-09
-4.61595e-10
-1.37773e-09
-3.11769e-10
-1.47198e-09
-1.29067e-10
-1.49507e-09
8.37784e-11
-1.4435e-09
3.07327e-10
-1.32562e-09
4.4473e-10
-1.0737e-09
5.80742e-10
-8.73809e-10
6.6747e-10
-4.73165e-10
6.55987e-10
-9.00026e-11
6.45548e-10
9.57177e-11
6.06114e-10
2.40054e-10
5.64131e-10
2.90799e-10
5.38406e-10
2.42221e-10
6.3389e-10
3.1858e-10
-4.28423e-17
4.84564e-10
-5.09071e-18
3.64736e-18
-3.07277e-18
-6.84127e-18
-2.29161e-18
-5.23665e-18
-2.02555e-18
-4.11738e-18
-1.83022e-18
-3.65446e-18
-1.55932e-18
-3.5552e-18
-1.19199e-18
-3.60086e-18
-7.49234e-19
-3.6698e-18
-2.61465e-19
-3.7008e-18
2.42279e-19
-3.66638e-18
7.37316e-19
-3.55801e-18
1.20423e-18
-3.3782e-18
1.62874e-18
-3.13586e-18
2.00126e-18
-2.84337e-18
2.31627e-18
-2.51442e-18
2.57165e-18
-2.16256e-18
2.76792e-18
-1.80016e-18
2.90763e-18
-1.4379e-18
2.99475e-18
-1.08445e-18