/*--------------------------------*- C++ -*----------------------------------*\
  =========                 |
  \\      /  F ield         | OpenFOAM: The Open Source CFD Toolbox
   \\    /   O peration     | Website:  https://openfoam.org
    \\  /    A nd           | Version:  6
     \\/     M anipulation  |
\*---------------------------------------------------------------------------*/
FoamFile
{
    version     2.0;
    format      ascii;
    class       volScalarField;
    location    "1200";
    object      Su;
}
// * * * * * * * * * * * * * * * * * * * * * * * * * * * * * * * * * * * * * //

dimensions      [0 0 -1 0 0 0 0];

internalField   nonuniform List<scalar> 
4800
(
0.219052
0.215977
0.212909
0.20985
0.206808
0.203796
0.200822
0.197887
0.194985
0.192108
0.189245
0.186391
0.183545
0.180715
0.177915
0.175159
0.172462
0.169835
0.167292
0.164839
0.162477
0.160204
0.15802
0.155925
0.153917
0.151995
0.150158
0.148404
0.146729
0.145127
0.143587
0.142096
0.140642
0.139206
0.137768
0.136316
0.134849
0.133358
0.13184
0.130289
0.128703
0.127072
0.125383
0.123623
0.121781
0.11984
0.11778
0.115591
0.113269
0.11082
0.108256
0.105591
0.102844
0.100033
0.0971716
0.094272
0.0913428
0.0883899
0.0854178
0.0824275
0.0794184
0.0763854
0.0733143
0.0701862
0.0669859
0.0637
0.0603112
0.0568066
0.0531771
0.0494178
0.0455355
0.0415412
0.037442
0.0332445
0.0289577
0.0245931
0.0201667
0.0157069
0.0112202
0.00670189
0.00124605
-0.000317991
-0.00281283
-0.005371
-0.00798413
-0.0106446
-0.0133454
-0.0160807
-0.0188453
-0.021635
-0.024446
-0.0272754
-0.0301206
-0.0329794
-0.0358498
-0.0387303
-0.0416194
-0.0445157
-0.0474182
-0.0503259
-0.0532378
-0.0561533
-0.0590715
-0.0619921
-0.0649146
-0.0678384
-0.0707634
-0.0736894
-0.076616
-0.0795432
-0.0824709
-0.0853989
-0.0883272
-0.0912559
-0.0941847
-0.0971137
-0.100043
-0.102972
-0.105901
-0.108831
0.219041
0.215945
0.212862
0.209802
0.206771
0.203773
0.200811
0.197884
0.194987
0.192115
0.18926
0.186417
0.183586
0.180775
0.177993
0.175252
0.172567
0.169958
0.167433
0.164997
0.162648
0.160389
0.15822
0.156139
0.154145
0.152237
0.150413
0.148671
0.147007
0.145412
0.143876
0.142386
0.140928
0.139484
0.138036
0.136578
0.135102
0.133602
0.132074
0.130512
0.128915
0.127272
0.125571
0.123801
0.121951
0.120005
0.117945
0.11576
0.113446
0.111008
0.108456
0.105805
0.103072
0.100274
0.0974228
0.0945295
0.0916036
0.0886514
0.0856778
0.0826859
0.079677
0.0766453
0.0735757
0.0704504
0.0672548
0.0639747
0.0605942
0.0571052
0.0534963
0.0497631
0.0459099
0.0419408
0.0378611
0.0336777
0.0293953
0.0250214
0.0205672
0.0160488
0.0114766
0.00686911
0.0012772
-0.000251379
-0.00275675
-0.0053235
-0.00794399
-0.0106107
-0.0133167
-0.0160562
-0.0188242
-0.0216167
-0.0244301
-0.0272614
-0.0301083
-0.0329685
-0.0358402
-0.0387218
-0.0416119
-0.0445091
-0.0474124
-0.0503207
-0.0532333
-0.0561493
-0.0590681
-0.0619891
-0.0649119
-0.0678362
-0.0707615
-0.0736877
-0.0766146
-0.079542
-0.0824699
-0.0853981
-0.0883265
-0.0912553
-0.0941842
-0.0971133
-0.100043
-0.102972
-0.105901
-0.108831
0.219031
0.215917
0.212822
0.209758
0.206733
0.203747
0.200798
0.197884
0.195001
0.192143
0.189305
0.186483
0.183677
0.180891
0.178136
0.175427
0.172778
0.170202
0.167709
0.165302
0.162984
0.160755
0.158614
0.156561
0.154594
0.152712
0.150913
0.149194
0.147549
0.14597
0.144443
0.142956
0.141493
0.140036
0.13857
0.137093
0.135596
0.134075
0.132526
0.130944
0.129327
0.127659
0.125933
0.124143
0.122274
0.120316
0.118252
0.116072
0.113772
0.111358
0.108833
0.106209
0.103498
0.100716
0.0978754
0.094988
0.0920649
0.0891141
0.0861414
0.0831514
0.080144
0.077112
0.0740394
0.0709141
0.0677248
0.0644584
0.0611019
0.0576475
0.0540798
0.050395
0.0465892
0.0426588
0.0386016
0.0344218
0.0301261
0.0257246
0.0212245
0.016621
0.0119166
0.00715887
0.0013322
-0.00012502
-0.00264859
-0.00523171
-0.00786665
-0.0105455
-0.0132615
-0.016009
-0.0187836
-0.0215813
-0.0243991
-0.0272341
-0.0300842
-0.0329472
-0.0358213
-0.0387051
-0.041597
-0.0444959
-0.0474008
-0.0503105
-0.0532243
-0.0561414
-0.0590612
-0.0619831
-0.0649068
-0.0678317
-0.0707577
-0.0736844
-0.0766118
-0.0795396
-0.0824678
-0.0853964
-0.0883251
-0.0912541
-0.0941833
-0.0971126
-0.100042
-0.102971
-0.105901
-0.108831
0.219025
0.215901
0.212801
0.209736
0.206714
0.203736
0.2008
0.197902
0.195036
0.192198
0.189385
0.18659
0.183816
0.181067
0.178354
0.17569
0.173089
0.170561
0.168113
0.16575
0.163473
0.161286
0.159187
0.157174
0.155245
0.1534
0.151635
0.149948
0.14833
0.146772
0.145258
0.143776
0.142309
0.140838
0.13935
0.137847
0.136322
0.134774
0.133194
0.131583
0.129932
0.128228
0.126467
0.124644
0.122747
0.120766
0.118687
0.116506
0.114223
0.111835
0.109339
0.106745
0.104063
0.101303
0.0984801
0.095608
0.0926978
0.089757
0.0867925
0.0838091
0.0808041
0.0777691
0.0746894
0.0715589
0.0683689
0.0651087
0.0617676
0.0583339
0.0547923
0.0511398
0.0473649
0.0434568
0.0394083
0.03522
0.0308959
0.0264456
0.021875
0.0171812
0.0123724
0.00749306
0.00140051
5.24987e-05
-0.00249441
-0.00510169
-0.00775813
-0.0104546
-0.0131845
-0.0159429
-0.0187261
-0.0215309
-0.0243546
-0.0271948
-0.0300493
-0.0329161
-0.0357937
-0.0386806
-0.0415753
-0.0444767
-0.0473837
-0.0502955
-0.0532111
-0.0561298
-0.0590511
-0.0619743
-0.0648991
-0.0678251
-0.070752
-0.0736795
-0.0766076
-0.0795361
-0.0824649
-0.0853939
-0.0883231
-0.0912524
-0.0941819
-0.0971115
-0.100041
-0.102971
-0.105901
-0.108831
0.219024
0.215898
0.212794
0.20973
0.206713
0.203745
0.200823
0.197944
0.195101
0.19229
0.189505
0.186743
0.184005
0.1813
0.178639
0.176031
0.173489
0.17102
0.168631
0.166325
0.164105
0.161973
0.159927
0.157964
0.156084
0.154284
0.152561
0.150911
0.149324
0.147789
0.14629
0.144813
0.143341
0.141858
0.140352
0.138824
0.137271
0.135689
0.134074
0.132425
0.130734
0.128988
0.127184
0.125317
0.123378
0.121358
0.119254
0.117067
0.114795
0.112426
0.109962
0.107403
0.104755
0.102027
0.0992317
0.0963836
0.0934927
0.0905657
0.0876105
0.0846309
0.0816246
0.0785823
0.0754931
0.0723535
0.0691559
0.0658907
0.0625448
0.0591084
0.0555726
0.0519288
0.0481603
0.0442523
0.0401957
0.0359852
0.0316212
0.0271131
0.0224719
0.0177064
0.012828
0.00785928
0.00148033
0.000279493
-0.00230073
-0.00494307
-0.00762851
-0.0103468
-0.0130928
-0.0158633
-0.018656
-0.0214687
-0.0242992
-0.0271452
-0.030005
-0.0328766
-0.0357584
-0.0386491
-0.0415472
-0.0444518
-0.0473617
-0.050276
-0.0531939
-0.0561147
-0.0590379
-0.0619628
-0.0648891
-0.0678164
-0.0707445
-0.0736731
-0.0766022
-0.0795315
-0.082461
-0.0853906
-0.0883203
-0.0912502
-0.0941801
-0.0971101
-0.10004
-0.10297
-0.1059
-0.10883
0.219027
0.215905
0.212805
0.209744
0.206734
0.203776
0.200871
0.198014
0.195199
0.19242
0.189673
0.186956
0.184268
0.181617
0.179013
0.176467
0.173992
0.171593
0.169274
0.167036
0.164881
0.162812
0.160825
0.158921
0.157096
0.155347
0.15367
0.152059
0.150504
0.148992
0.147507
0.146037
0.144564
0.143073
0.141553
0.140003
0.138423
0.136808
0.135157
0.133467
0.13173
0.129938
0.128084
0.126163
0.124173
0.122108
0.119972
0.117766
0.115488
0.113132
0.110694
0.108171
0.105563
0.102874
0.100116
0.0972993
0.0944298
0.0915151
0.0885642
0.0855803
0.082563
0.0795042
0.0763977
0.0732383
0.0700216
0.0667375
0.0633757
0.0599266
0.0563783
0.0527187
0.0489329
0.0450043
0.0409214
0.0366759
0.0322657
0.0276963
0.0229814
0.0181503
0.0132394
0.00824878
0.00158224
0.000564125
-0.00207755
-0.00477271
-0.00749423
-0.0102355
-0.0129964
-0.0157775
-0.0185786
-0.0213985
-0.0242355
-0.0270876
-0.029953
-0.0328298
-0.0357164
-0.0386115
-0.0415137
-0.0444219
-0.0473351
-0.0502524
-0.0531731
-0.0560965
-0.0590219
-0.0619489
-0.064877
-0.0678059
-0.0707355
-0.0736654
-0.0765955
-0.0795258
-0.0824562
-0.0853866
-0.088317
-0.0912474
-0.0941779
-0.0971083
-0.100039
-0.102969
-0.1059
-0.10883
0.219033
0.215924
0.212833
0.209782
0.206783
0.203842
0.200959
0.198129
0.195346
0.192607
0.189905
0.18724
0.184615
0.182032
0.179501
0.177031
0.174628
0.172301
0.170054
0.167888
0.165804
0.163802
0.161881
0.16004
0.158272
0.156574
0.154945
0.153373
0.151851
0.150361
0.148892
0.14743
0.14596
0.144464
0.142935
0.141369
0.139765
0.138118
0.136429
0.134696
0.132914
0.131072
0.129163
0.127187
0.125141
0.123027
0.12085
0.118613
0.116319
0.113961
0.111534
0.109036
0.106463
0.103815
0.101098
0.0983144
0.0954679
0.0925649
0.089614
0.0866187
0.0835806
0.0804939
0.0773539
0.074155
0.0708971
0.0675741
0.0641797
0.0607045
0.057135
0.0534546
0.0496455
0.0456905
0.0415736
0.0372858
0.032829
0.0282123
0.0234563
0.0185962
0.0136767
0.00871941
0.0017884
0.000923461
-0.00185188
-0.00462334
-0.00738158
-0.0101393
-0.0129079
-0.015694
-0.0184996
-0.0213244
-0.0241667
-0.0270243
-0.0298952
-0.0327773
-0.035669
-0.0385688
-0.0414754
-0.0443877
-0.0473047
-0.0502254
-0.0531493
-0.0560754
-0.0590034
-0.0619327
-0.0648629
-0.0677938
-0.070725
-0.0736563
-0.0765878
-0.0795192
-0.0824506
-0.0853819
-0.0883131
-0.0912443
-0.0941753
-0.0971063
-0.100037
-0.102968
-0.105899
-0.10883
0.219026
0.215915
0.212848
0.20983
0.206865
0.203955
0.201104
0.19831
0.195569
0.192878
0.190231
0.187628
0.185071
0.182564
0.180113
0.177723
0.175402
0.173155
0.170988
0.168899
0.166889
0.164958
0.163105
0.161327
0.159617
0.15797
0.156387
0.154853
0.153361
0.151893
0.15044
0.148988
0.147521
0.146024
0.14449
0.142914
0.141291
0.139617
0.137893
0.136116
0.134284
0.13239
0.130423
0.128391
0.12629
0.124124
0.1219
0.119622
0.117295
0.114915
0.112481
0.109989
0.107437
0.104819
0.102133
0.0993754
0.0965481
0.0936551
0.0907017
0.0876899
0.0846194
0.0814877
0.0782956
0.0750418
0.0717304
0.0683582
0.0649189
0.0614035
0.057799
0.0540884
0.0502516
0.0462683
0.0421183
0.0377901
0.0332867
0.0286226
0.0238253
0.0189418
0.0140388
0.00922461
0.0047595
0.00132374
-0.00170902
-0.00455744
-0.00732886
-0.0100804
-0.0128405
-0.0156208
-0.0184244
-0.0212503
-0.0240957
-0.0269577
-0.0298335
-0.0327208
-0.0356176
-0.0385223
-0.0414336
-0.0443502
-0.0472711
-0.0501956
-0.0531228
-0.0560521
-0.0589829
-0.0619147
-0.0648473
-0.0677801
-0.0707132
-0.0736462
-0.0765791
-0.0795118
-0.0824443
-0.0853766
-0.0883087
-0.0912406
-0.0941724
-0.097104
-0.100036
-0.102967
-0.105898
-0.10883
0.219047
0.215973
0.212933
0.209942
0.207007
0.204136
0.20133
0.198585
0.195899
0.193267
0.190687
0.188157
0.185676
0.183251
0.180884
0.178581
0.176347
0.174186
0.172101
0.170093
0.168161
0.166302
0.164515
0.162799
0.161144
0.159548
0.158008
0.15651
0.155045
0.153598
0.152159
0.150716
0.149254
0.14776
0.146224
0.14464
0.142998
0.141297
0.139539
0.137719
0.135839
0.133892
0.131866
0.129777
0.12762
0.1254
0.123123
0.120794
0.118418
0.115996
0.113531
0.111024
0.10847
0.105861
0.103189
0.100446
0.0976278
0.0947371
0.0917732
0.0887355
0.0856237
0.0824394
0.0791861
0.0758658
0.0724871
0.0690497
0.0655506
0.0619823
0.0583314
0.0545809
0.0507093
0.0466939
0.0425116
0.0381461
0.0335964
0.0288732
0.0240009
0.0190275
0.0140351
0.00917147
0.00477333
0.001187
-0.00187043
-0.00467026
-0.00737886
-0.0100788
-0.0128037
-0.0155633
-0.0183565
-0.0211787
-0.0240247
-0.0268897
-0.0297697
-0.0326618
-0.0355636
-0.0384731
-0.0413891
-0.0443101
-0.0472352
-0.0501635
-0.0530943
-0.0560268
-0.0589606
-0.0618952
-0.0648302
-0.0677653
-0.0707003
-0.0736351
-0.0765696
-0.0795037
-0.0824375
-0.0853708
-0.0883039
-0.0912366
-0.0941692
-0.0971015
-0.100034
-0.102966
-0.105898
-0.10883
0.219078
0.216061
0.213073
0.210128
0.20724
0.204419
0.201669
0.198985
0.196366
0.193808
0.191306
0.188857
0.186461
0.184124
0.18185
0.179639
0.177497
0.175424
0.173426
0.1715
0.169645
0.167859
0.16614
0.164484
0.162883
0.161334
0.159833
0.158368
0.156928
0.155501
0.154075
0.152639
0.151182
0.149689
0.14815
0.146554
0.144892
0.143165
0.14137
0.139508
0.137578
0.135576
0.133493
0.131347
0.12913
0.126851
0.124516
0.122127
0.11969
0.117208
0.114692
0.112145
0.109562
0.106933
0.10425
0.101501
0.0986762
0.0957726
0.0927842
0.089709
0.0865466
0.0832993
0.079974
0.0765769
0.0731184
0.0696014
0.0660277
0.0623927
0.0586853
0.0548889
0.0509783
0.0469278
0.0427138
0.0383136
0.0337154
0.0289154
0.0239178
0.0187518
0.0134992
0.00833976
0.00375314
0.00031613
-0.0024651
-0.00501706
-0.00754964
-0.0101382
-0.0127978
-0.0155213
-0.0182963
-0.0211109
-0.0239552
-0.0268219
-0.0297054
-0.0326018
-0.0355083
-0.0384225
-0.041343
-0.0442685
-0.0471977
-0.0501299
-0.0530643
-0.0560002
-0.0589371
-0.0618745
-0.0648121
-0.0677495
-0.0706866
-0.0736233
-0.0765594
-0.079495
-0.0824301
-0.0853646
-0.0882987
-0.0912323
-0.0941657
-0.0970987
-0.100032
-0.102964
-0.105897
-0.108829
0.219114
0.216172
0.213257
0.210384
0.207569
0.204822
0.202147
0.199545
0.197012
0.194544
0.192134
0.189778
0.187477
0.185235
0.183056
0.180941
0.178892
0.17691
0.175
0.173156
0.171379
0.169665
0.168011
0.166414
0.164867
0.163365
0.161901
0.160465
0.159046
0.157634
0.156218
0.154787
0.153331
0.151836
0.150287
0.148674
0.146987
0.145227
0.143392
0.141483
0.139501
0.137443
0.135304
0.133098
0.130821
0.12848
0.126079
0.123619
0.121108
0.118555
0.115969
0.11336
0.110718
0.108037
0.105314
0.102531
0.0996761
0.0967394
0.0937088
0.0905814
0.0873542
0.08403
0.0806185
0.0771281
0.0735738
0.0699639
0.0663032
0.062591
0.05882
0.0549735
0.0510251
0.046944
0.0427021
0.0382719
0.0336292
0.0287456
0.0235858
0.0181243
0.0123724
0.00649013
0.00123853
-0.00151784
-0.00353938
-0.0055771
-0.00781063
-0.0102356
-0.0128085
-0.0154874
-0.0182408
-0.0210461
-0.0238879
-0.0267556
-0.029642
-0.0325423
-0.035453
-0.0383717
-0.0412966
-0.0442262
-0.0471595
-0.0500956
-0.0530336
-0.0559728
-0.0589128
-0.0618531
-0.0647932
-0.067733
-0.0706723
-0.0736109
-0.0765487
-0.0794858
-0.0824222
-0.085358
-0.0882931
-0.0912278
-0.094162
-0.0970958
-0.100029
-0.102963
-0.105896
-0.108829
0.219164
0.216321
0.213505
0.210733
0.208016
0.205369
0.202797
0.200299
0.197874
0.195513
0.193212
0.190962
0.188767
0.18663
0.184552
0.182537
0.180583
0.178693
0.176868
0.175106
0.173405
0.171761
0.170172
0.168633
0.167137
0.165678
0.164247
0.162838
0.161437
0.160037
0.158626
0.157195
0.155735
0.15423
0.152663
0.151025
0.149306
0.147502
0.145617
0.143651
0.141606
0.139484
0.137285
0.135018
0.132679
0.130272
0.127799
0.125261
0.122669
0.120033
0.117363
0.114671
0.111946
0.109188
0.106392
0.103541
0.100624
0.0976266
0.0945307
0.0913301
0.0880187
0.0846005
0.0810852
0.0774839
0.0738172
0.0701014
0.0663427
0.0625421
0.058696
0.0547916
0.0508055
0.046705
0.0424545
0.038018
0.033355
0.0284081
0.0230912
0.0172748
0.0107467
0.00324478
-0.00434011
-0.00454854
-0.00494478
-0.00619427
-0.00806249
-0.0103168
-0.0128085
-0.0154489
-0.0181846
-0.0209827
-0.0238229
-0.0266918
-0.0295809
-0.0324847
-0.0353992
-0.0383219
-0.0412508
-0.0441844
-0.0471215
-0.0500612
-0.0530026
-0.0559451
-0.0588882
-0.0618312
-0.064774
-0.0677161
-0.0706575
-0.0735981
-0.0765376
-0.0794763
-0.0824141
-0.0853511
-0.0882874
-0.091223
-0.0941581
-0.0970927
-0.100027
-0.102961
-0.105895
-0.108829
0.219233
0.216525
0.213841
0.211199
0.208613
0.206093
0.203648
0.201282
0.198988
0.196758
0.194584
0.192457
0.190379
0.188353
0.186384
0.184473
0.182615
0.180818
0.17908
0.177398
0.17577
0.174195
0.172672
0.171187
0.169736
0.168313
0.166914
0.165525
0.164138
0.162745
0.161335
0.1599
0.158429
0.156905
0.155311
0.153638
0.151874
0.150016
0.148068
0.146031
0.14391
0.141712
0.13944
0.1371
0.13469
0.132208
0.129657
0.127037
0.124361
0.121636
0.118871
0.116077
0.113249
0.110392
0.107494
0.104543
0.10153
0.0984369
0.0952454
0.0919424
0.0885206
0.0849854
0.0813444
0.0776166
0.0738268
0.0699914
0.0661226
0.0622262
0.058302
0.0543406
0.050321
0.0462109
0.0419761
0.0375702
0.0329359
0.0279959
0.0226256
0.0165846
0.00923801
-0.00137155
-0.0128781
-0.00809091
-0.00595637
-0.00650279
-0.00814222
-0.0103108
-0.0127674
-0.015393
-0.0181229
-0.0209197
-0.0237607
-0.0266317
-0.0295236
-0.0324304
-0.0353483
-0.0382744
-0.0412067
-0.0441438
-0.0470844
-0.0500274
-0.0529721
-0.0559177
-0.0588636
-0.0618094
-0.0647546
-0.0676991
-0.0706426
-0.073585
-0.0765264
-0.0794666
-0.0824058
-0.085344
-0.0882814
-0.091218
-0.094154
-0.0970895
-0.100025
-0.102959
-0.105894
-0.108828
0.219316
0.216772
0.214252
0.211774
0.209353
0.207002
0.204723
0.202519
0.200382
0.198306
0.196281
0.194295
0.192349
0.190445
0.188595
0.186793
0.185034
0.183331
0.181679
0.180077
0.178523
0.177016
0.175552
0.174117
0.172705
0.171318
0.169946
0.168573
0.167195
0.165802
0.164388
0.162941
0.161449
0.159897
0.158266
0.156547
0.154729
0.152805
0.150779
0.148653
0.146437
0.144145
0.141782
0.139353
0.136856
0.134289
0.131653
0.128948
0.126182
0.123361
0.120493
0.117587
0.114643
0.111659
0.108625
0.105538
0.102391
0.0991659
0.0958432
0.0924052
0.0888435
0.0851638
0.0813757
0.0775002
0.0735659
0.0695949
0.0656045
0.0616065
0.0576054
0.0535971
0.0495634
0.0454693
0.0412802
0.0369438
0.0323984
0.0275729
0.0223667
0.0166284
0.0101293
0.0026601
-0.00436427
-0.0044728
-0.0048281
-0.00606069
-0.00792323
-0.0101775
-0.0126718
-0.0153159
-0.0180558
-0.0208584
-0.0237032
-0.0265771
-0.0294716
-0.032381
-0.0353015
-0.0382303
-0.0411655
-0.0441055
-0.047049
-0.049995
-0.0529426
-0.055891
-0.0588396
-0.0617879
-0.0647355
-0.0676822
-0.0706277
-0.073572
-0.076515
-0.0794568
-0.0823974
-0.0853368
-0.0882753
-0.091213
-0.0941499
-0.0970863
-0.100022
-0.102958
-0.105893
-0.108828
0.219412
0.217062
0.21474
0.212462
0.210241
0.208092
0.206015
0.204011
0.202065
0.200171
0.19832
0.196497
0.194702
0.192936
0.191215
0.18953
0.187876
0.18627
0.184707
0.183186
0.181705
0.180261
0.178852
0.177465
0.176095
0.174739
0.17339
0.172026
0.170654
0.169256
0.167833
0.166365
0.164845
0.163256
0.161575
0.159799
0.157911
0.155901
0.15378
0.15155
0.149225
0.146822
0.144347
0.141807
0.139206
0.13654
0.133809
0.13101
0.128147
0.125221
0.122241
0.119212
0.116131
0.11299
0.109788
0.106532
0.103213
0.0998143
0.096319
0.0927083
0.0889721
0.0851153
0.081152
0.077107
0.0730094
0.0688885
0.0647686
0.0606652
0.0565895
0.0525451
0.0485173
0.0444663
0.0403542
0.0361287
0.0317354
0.0271205
0.0222286
0.0170143
0.0115093
0.0059599
0.0012659
-0.00134867
-0.00330161
-0.00531099
-0.0075366
-0.00996327
-0.0125418
-0.015228
-0.0179892
-0.0208028
-0.0236533
-0.0265304
-0.029427
-0.0323381
-0.0352602
-0.0381909
-0.0411281
-0.0440703
-0.0470162
-0.0499646
-0.0529146
-0.0558655
-0.0588165
-0.0617671
-0.0647169
-0.0676657
-0.0706131
-0.0735591
-0.0765038
-0.079447
-0.0823889
-0.0853296
-0.0882692
-0.0912079
-0.0941457
-0.0970829
-0.10002
-0.102956
-0.105892
-0.108828
0.219528
0.217411
0.215323
0.213278
0.211293
0.209379
0.207533
0.205755
0.20403
0.202346
0.200696
0.199061
0.19744
0.195835
0.194258
0.192704
0.19117
0.189671
0.188205
0.18677
0.185366
0.18399
0.182636
0.181297
0.179966
0.17864
0.177308
0.175953
0.174582
0.173176
0.17174
0.170245
0.168688
0.16705
0.165308
0.163458
0.161481
0.159368
0.157132
0.154774
0.152318
0.149781
0.147175
0.144508
0.141785
0.139008
0.136172
0.133272
0.130304
0.127265
0.124158
0.120982
0.117733
0.114408
0.111013
0.107547
0.104001
0.100375
0.0966623
0.0928416
0.0888964
0.0848305
0.0806655
0.0764284
0.0721504
0.0678684
0.0636139
0.0594054
0.0552594
0.0511871
0.0471791
0.0431917
0.0391811
0.0350983
0.0308987
0.0265446
0.0220137
0.0173181
0.0125469
0.00792192
0.00385708
0.000606196
-0.00209552
-0.00462135
-0.00715119
-0.00974612
-0.012415
-0.0151486
-0.017934
-0.0207593
-0.0236152
-0.0264945
-0.0293918
-0.0323033
-0.0352258
-0.0381572
-0.0410954
-0.044039
-0.0469865
-0.0499367
-0.0528887
-0.0558416
-0.0587947
-0.0617473
-0.0646991
-0.0676497
-0.0705989
-0.0735466
-0.0764927
-0.0794374
-0.0823805
-0.0853224
-0.0882631
-0.0912028
-0.0941415
-0.0970796
-0.100017
-0.102954
-0.105891
-0.108827
0.21966
0.217808
0.215984
0.214204
0.212483
0.210829
0.209242
0.207718
0.206242
0.204798
0.203374
0.201955
0.200533
0.199114
0.197705
0.196304
0.194911
0.193539
0.192185
0.190849
0.189535
0.188235
0.186944
0.185655
0.184367
0.183073
0.181759
0.180414
0.179044
0.177633
0.17618
0.174655
0.173053
0.171355
0.169539
0.167595
0.165507
0.163269
0.160893
0.158386
0.155772
0.153077
0.150319
0.147508
0.144652
0.141754
0.138806
0.135797
0.132715
0.12955
0.126301
0.12296
0.119526
0.11599
0.112345
0.108596
0.104763
0.100858
0.096881
0.0928087
0.0886202
0.0843163
0.0799234
0.0754747
0.071002
0.0665452
0.0621466
0.0578293
0.0536129
0.0495164
0.045535
0.0416232
0.0377312
0.0338118
0.0298242
0.0257385
0.0215493
0.0172805
0.0130135
0.00887913
0.00505326
0.0016523
-0.00135673
-0.00415546
-0.00687569
-0.00958895
-0.0123262
-0.015097
-0.017901
-0.0207345
-0.0235929
-0.026472
-0.0293681
-0.0322781
-0.0351995
-0.0381301
-0.0410682
-0.0440122
-0.0469605
-0.0499119
-0.0528653
-0.0558198
-0.0587745
-0.0617288
-0.0646823
-0.0676345
-0.0705853
-0.0735345
-0.076482
-0.0794279
-0.0823723
-0.0853153
-0.0882571
-0.0911977
-0.0941373
-0.0970762
-0.100014
-0.102952
-0.10589
-0.108827
0.219803
0.218236
0.216694
0.2152
0.213766
0.212398
0.211095
0.209848
0.208642
0.207459
0.206281
0.205101
0.203907
0.202703
0.201492
0.200274
0.199049
0.197829
0.196611
0.195398
0.194192
0.192985
0.191772
0.190548
0.189312
0.188055
0.186768
0.185442
0.184078
0.182667
0.181195
0.179638
0.177983
0.176212
0.174306
0.172249
0.170029
0.167646
0.16511
0.162432
0.15964
0.156768
0.153839
0.15087
0.147874
0.144851
0.141795
0.138684
0.135496
0.132209
0.128811
0.125278
0.121621
0.117825
0.113885
0.109809
0.105622
0.101354
0.0970293
0.0926452
0.0881804
0.0836205
0.0789801
0.0742961
0.0696086
0.064958
0.060397
0.0559575
0.0516609
0.0475347
0.0435822
0.0397567
0.035995
0.0322468
0.0284733
0.0246442
0.0207574
0.016832
0.0129145
0.00908468
0.0054263
0.00203757
-0.00105437
-0.0039526
-0.00675494
-0.00952514
-0.0122972
-0.0150865
-0.0178984
-0.0207333
-0.0235896
-0.0264651
-0.0293572
-0.0322635
-0.0351819
-0.0381104
-0.0410472
-0.0439904
-0.0469386
-0.0498905
-0.0528447
-0.0558002
-0.0587561
-0.0617118
-0.0646666
-0.0676203
-0.0705724
-0.0735229
-0.0764717
-0.0794188
-0.0823643
-0.0853084
-0.0882511
-0.0911926
-0.0941332
-0.0970729
-0.100012
-0.10295
-0.105889
-0.108827
0.219946
0.218667
0.217419
0.216221
0.215084
0.21401
0.212999
0.21204
0.211118
0.210211
0.209302
0.208382
0.207443
0.206483
0.205501
0.204497
0.203474
0.202436
0.201383
0.20032
0.199247
0.198156
0.197044
0.195905
0.194738
0.193536
0.19229
0.190995
0.189649
0.188241
0.186751
0.185157
0.183442
0.181589
0.179577
0.177393
0.175028
0.172487
0.169781
0.166925
0.163949
0.160895
0.157792
0.154668
0.15154
0.148409
0.145266
0.142079
0.13881
0.135417
0.131885
0.12818
0.124305
0.120211
0.115884
0.111367
0.106725
0.102015
0.0972708
0.0925055
0.0877112
0.0828598
0.0779433
0.0729923
0.0680588
0.0631836
0.0584309
0.0538464
0.0494522
0.0452802
0.0413434
0.0375994
0.0339732
0.0304025
0.0268407
0.0232518
0.0196298
0.0159872
0.0123478
0.00875412
0.00524555
0.00192664
-0.00111638
-0.0039914
-0.00678857
-0.00956051
-0.0123341
-0.0151221
-0.0179296
-0.020758
-0.023607
-0.0264749
-0.02936
-0.0322603
-0.0351739
-0.0380986
-0.0410326
-0.043974
-0.0469212
-0.0498727
-0.052827
-0.0557831
-0.0587398
-0.0616964
-0.0646523
-0.0676071
-0.0705604
-0.073512
-0.0764619
-0.0794101
-0.0823566
-0.0853016
-0.0882452
-0.0911877
-0.094129
-0.0970695
-0.100009
-0.102949
-0.105887
-0.108826
0.220086
0.219089
0.218125
0.217214
0.216365
0.215579
0.214856
0.214183
0.213545
0.212922
0.212294
0.211651
0.210984
0.210288
0.20956
0.208797
0.208
0.207172
0.206313
0.205428
0.204515
0.203568
0.202583
0.201556
0.200482
0.199356
0.198171
0.196922
0.195604
0.194202
0.192695
0.19106
0.189281
0.187341
0.185219
0.182903
0.180391
0.177698
0.174832
0.171815
0.168677
0.165463
0.162211
0.158964
0.155743
0.152553
0.14938
0.146184
0.142903
0.139467
0.135856
0.132013
0.127917
0.123486
0.118699
0.11363
0.108404
0.103135
0.0978754
0.0926546
0.0874727
0.0822819
0.0770484
0.0717855
0.0665524
0.0613995
0.0564008
0.0516215
0.0470912
0.0428414
0.038892
0.035206
0.0317022
0.0283045
0.0249507
0.021593
0.0182136
0.0148231
0.0114272
0.00803938
0.00466862
0.00141448
-0.00145819
-0.00421502
-0.00694501
-0.00967954
-0.0124299
-0.0152007
-0.0179934
-0.0208084
-0.0236448
-0.0265014
-0.0293767
-0.0322686
-0.0351753
-0.0380946
-0.0410246
-0.0439631
-0.0469084
-0.0498587
-0.0528126
-0.0557685
-0.0587256
-0.0616828
-0.0646394
-0.067595
-0.0705492
-0.0735018
-0.0764526
-0.0794017
-0.0823492
-0.0852951
-0.0882396
-0.0911828
-0.0941249
-0.0970662
-0.100007
-0.102947
-0.105886
-0.108826
0.220212
0.219467
0.218757
0.218103
0.217515
0.216994
0.216538
0.216138
0.215774
0.215429
0.215082
0.214719
0.214328
0.213903
0.213436
0.212924
0.212367
0.211763
0.211115
0.210425
0.209692
0.208911
0.208078
0.207186
0.206231
0.205205
0.204103
0.202918
0.201638
0.200248
0.198729
0.197058
0.195221
0.193201
0.190976
0.18854
0.185899
0.183076
0.180089
0.17696
0.173719
0.170412
0.167085
0.163794
0.160568
0.157414
0.154312
0.151219
0.14803
0.144645
0.141028
0.137113
0.132831
0.128056
0.122736
0.117
0.111074
0.105145
0.0992872
0.0935453
0.087916
0.0823246
0.0767106
0.0710741
0.0654513
0.0599103
0.0545493
0.0494627
0.0447011
0.0403043
0.0362961
0.0326382
0.0292395
0.0260077
0.0228593
0.0197286
0.0165768
0.013407
0.0102274
0.00704993
0.00382765
0.000390372
-0.00196529
-0.00453346
-0.0071709
-0.00985308
-0.0125691
-0.015314
-0.0180853
-0.0208816
-0.0237016
-0.0265438
-0.0294065
-0.0322879
-0.035186
-0.0380984
-0.041023
-0.0439576
-0.0469001
-0.0498485
-0.0528012
-0.0557566
-0.0587135
-0.0616709
-0.0646279
-0.0675841
-0.070539
-0.0734923
-0.0764439
-0.0793938
-0.0823421
-0.0852888
-0.088234
-0.091178
-0.0941209
-0.097063
-0.100004
-0.102945
-0.105885
-0.108825
0.22031
0.219762
0.219253
0.218805
0.218428
0.218128
0.217902
0.217741
0.217625
0.217535
0.217448
0.217346
0.217215
0.217043
0.216821
0.216544
0.21621
0.215819
0.215374
0.214877
0.214328
0.213722
0.213052
0.212312
0.211494
0.210589
0.209588
0.208483
0.207257
0.205897
0.204381
0.20269
0.200809
0.198723
0.196419
0.193896
0.191172
0.188278
0.185245
0.182096
0.178858
0.17558
0.172315
0.169128
0.16605
0.163087
0.160215
0.157383
0.154427
0.151213
0.147696
0.143842
0.139495
0.134436
0.128528
0.122027
0.115336
0.108703
0.102221
0.0959197
0.0897602
0.083665
0.077565
0.0714375
0.0652866
0.0592068
0.053311
0.0477249
0.0425669
0.0378925
0.0337267
0.0300282
0.0266924
0.0236075
0.0206622
0.0177671
0.0148563
0.0119268
0.00898667
0.00604182
0.00303369
-0.000270451
-0.00238062
-0.00483042
-0.0074082
-0.0100497
-0.0127337
-0.0154514
-0.0181988
-0.0209737
-0.0237746
-0.0266
-0.0294482
-0.0323173
-0.0352051
-0.0381094
-0.0410275
-0.0439572
-0.0468961
-0.0498419
-0.0527928
-0.0557472
-0.0587035
-0.0616607
-0.0646179
-0.0675744
-0.0705297
-0.0734836
-0.0764358
-0.0793864
-0.0823353
-0.0852827
-0.0882287
-0.0911734
-0.094117
-0.0970597
-0.100002
-0.102943
-0.105884
-0.108825
0.220368
0.219936
0.219547
0.219226
0.218989
0.218843
0.218787
0.21881
0.218893
0.21901
0.219138
0.219251
0.219331
0.219362
0.219333
0.219237
0.219073
0.218845
0.218557
0.218214
0.217816
0.21736
0.21684
0.216245
0.215565
0.214789
0.213903
0.212893
0.211742
0.21043
0.20894
0.207251
0.20535
0.203229
0.200888
0.198341
0.195619
0.192762
0.18981
0.186788
0.183724
0.180667
0.177678
0.174813
0.172107
0.16956
0.167135
0.164767
0.162189
0.159253
0.155985
0.152435
0.148333
0.143219
0.136786
0.129533
0.122101
0.114795
0.107724
0.100836
0.0940662
0.087351
0.0806114
0.0738073
0.0668836
0.0599764
0.0532574
0.0469206
0.0411061
0.0359171
0.0314196
0.0275652
0.0242242
0.0212503
0.0184997
0.015851
0.0132052
0.0105428
0.00786839
0.00520177
0.00254019
-0.000131372
-0.00256211
-0.00505899
-0.00762748
-0.0102483
-0.012909
-0.015603
-0.0183273
-0.0210802
-0.0238607
-0.0266678
-0.0295
-0.0323553
-0.0352318
-0.0381267
-0.0410375
-0.0439614
-0.0468959
-0.0498386
-0.0527873
-0.0557401
-0.0586955
-0.0616522
-0.0646092
-0.0675658
-0.0705213
-0.0734756
-0.0764283
-0.0793794
-0.0823289
-0.0852769
-0.0882235
-0.0911689
-0.0941132
-0.0970566
-0.0999993
-0.102941
-0.105883
-0.108825
0.220369
0.219943
0.219566
0.219269
0.219073
0.218989
0.219019
0.219149
0.219355
0.219608
0.219873
0.220123
0.220331
0.220475
0.220541
0.22052
0.220416
0.220235
0.219992
0.219697
0.219358
0.218974
0.218541
0.21805
0.217485
0.216826
0.216053
0.215146
0.214083
0.212843
0.211405
0.209751
0.20787
0.205764
0.203452
0.200975
0.198385
0.195736
0.193064
0.190394
0.187752
0.185185
0.182753
0.180495
0.178439
0.176583
0.174866
0.173171
0.171084
0.168566
0.165806
0.162998
0.159682
0.154904
0.148105
0.140222
0.13227
0.124515
0.117033
0.109635
0.102225
0.0947832
0.0872174
0.079443
0.0714045
0.0633179
0.0553707
0.0478179
0.0409186
0.0348812
0.0297788
0.0255698
0.0220999
0.0191727
0.0165972
0.014201
0.0118504
0.00948063
0.0070728
0.00464061
0.00219374
-0.000274947
-0.00271403
-0.00523265
-0.00781229
-0.0104326
-0.0130832
-0.0157606
-0.0184648
-0.0211965
-0.0239564
-0.0267444
-0.0295596
-0.0324003
-0.0352644
-0.0381492
-0.0410518
-0.0439694
-0.046899
-0.0498381
-0.0527841
-0.0557351
-0.0586892
-0.0616452
-0.0646018
-0.0675582
-0.0705138
-0.0734683
-0.0764213
-0.0793729
-0.0823228
-0.0852714
-0.0882185
-0.0911645
-0.0941094
-0.0970534
-0.0999968
-0.10294
-0.105882
-0.108824
0.220306
0.219754
0.219259
0.218857
0.218577
0.218437
0.218439
0.218567
0.218792
0.219072
0.219366
0.219635
0.219847
0.21997
0.219979
0.219864
0.219628
0.219293
0.218887
0.21844
0.217978
0.217508
0.217032
0.216549
0.216037
0.215459
0.21478
0.213973
0.213012
0.21187
0.210524
0.208956
0.207157
0.20514
0.202951
0.200666
0.198375
0.196155
0.194041
0.192029
0.190126
0.188372
0.186817
0.185485
0.184379
0.183495
0.182747
0.181906
0.180428
0.178556
0.176687
0.175156
0.173233
0.169272
0.162505
0.154473
0.146587
0.138858
0.131413
0.123799
0.115768
0.107562
0.0990001
0.0899093
0.0803851
0.070763
0.0611173
0.0517947
0.0431471
0.0356057
0.0294429
0.0245728
0.0207636
0.0177649
0.0153119
0.0131471
0.0110978
0.00901931
0.00684648
0.00456991
0.00220811
-0.000226785
-0.00269523
-0.00528988
-0.007932
-0.0105864
-0.0132467
-0.0159177
-0.0186063
-0.0213186
-0.0240582
-0.0268268
-0.0296245
-0.03245
-0.0353012
-0.0381754
-0.0410695
-0.0439803
-0.0469047
-0.0498398
-0.0527829
-0.0557317
-0.0586844
-0.0616394
-0.0645954
-0.0675515
-0.0705071
-0.0734617
-0.0764149
-0.0793668
-0.0823171
-0.0852661
-0.0882137
-0.0911602
-0.0941057
-0.0970504
-0.0999944
-0.102938
-0.105881
-0.108824
0.220151