/*--------------------------------*- C++ -*----------------------------------*\
  =========                 |
  \\      /  F ield         | OpenFOAM: The Open Source CFD Toolbox
   \\    /   O peration     | Website:  https://openfoam.org
    \\  /    A nd           | Version:  6
     \\/     M anipulation  |
\*---------------------------------------------------------------------------*/
FoamFile
{
    version     2.0;
    format      ascii;
    class       volScalarField;
    location    "1200";
    object      T;
}
// * * * * * * * * * * * * * * * * * * * * * * * * * * * * * * * * * * * * * //

dimensions      [0 0 0 1 0 0 0];

internalField   nonuniform List<scalar> 
4800
(
552.494
552.383
552.271
552.16
552.05
551.941
551.833
551.727
551.621
551.517
551.413
551.31
551.206
551.104
551.002
550.902
550.804
550.709
550.617
550.528
550.442
550.36
550.281
550.205
550.132
550.062
549.996
549.932
549.871
549.813
549.757
549.703
549.651
549.598
549.546
549.494
549.44
549.386
549.331
549.275
549.217
549.158
549.097
549.033
548.966
548.896
548.821
548.742
548.658
548.569
548.476
548.379
548.28
548.178
548.074
547.969
547.862
547.755
547.648
547.539
547.43
547.32
547.209
547.095
546.979
546.86
546.737
546.61
546.478
546.342
546.201
546.056
545.908
545.756
545.6
545.442
545.281
545.12
544.957
544.793
544.626
544.538
544.448
544.355
544.26
544.164
544.066
543.967
543.867
543.765
543.663
543.561
543.458
543.354
543.25
543.145
543.041
542.936
542.83
542.725
542.619
542.514
542.408
542.302
542.196
542.09
541.984
541.878
541.771
541.665
541.559
541.453
541.347
541.24
541.134
541.028
540.922
540.816
540.709
540.603
552.494
552.382
552.27
552.159
552.049
551.94
551.833
551.726
551.621
551.517
551.414
551.31
551.208
551.106
551.005
550.906
550.808
550.714
550.622
550.534
550.448
550.367
550.288
550.212
550.14
550.071
550.005
549.942
549.881
549.823
549.768
549.714
549.661
549.609
549.556
549.503
549.45
549.395
549.34
549.283
549.225
549.166
549.104
549.04
548.973
548.902
548.827
548.748
548.664
548.576
548.483
548.387
548.288
548.186
548.083
547.978
547.872
547.765
547.657
547.548
547.439
547.329
547.218
547.105
546.989
546.87
546.747
546.621
546.49
546.355
546.215
546.071
545.923
545.771
545.616
545.457
545.296
545.132
544.966
544.799
544.629
544.541
544.45
544.357
544.262
544.165
544.067
543.968
543.867
543.766
543.664
543.561
543.458
543.354
543.25
543.146
543.041
542.936
542.831
542.725
542.619
542.514
542.408
542.302
542.196
542.09
541.984
541.878
541.771
541.665
541.559
541.453
541.347
541.241
541.134
541.028
540.922
540.816
540.709
540.603
552.493
552.381
552.268
552.157
552.047
551.939
551.832
551.726
551.622
551.518
551.415
551.313
551.211
551.11
551.01
550.912
550.816
550.722
550.632
550.545
550.461
550.38
550.302
550.228
550.156
550.088
550.023
549.961
549.901
549.844
549.788
549.734
549.681
549.629
549.575
549.522
549.467
549.412
549.356
549.299
549.24
549.18
549.117
549.052
548.984
548.913
548.838
548.759
548.676
548.588
548.497
548.402
548.303
548.202
548.099
547.995
547.889
547.782
547.674
547.565
547.456
547.346
547.235
547.122
547.006
546.887
546.766
546.64
546.511
546.377
546.239
546.097
545.95
545.798
545.642
545.483
545.32
545.153
544.982
544.81
544.635
544.545
544.454
544.36
544.265
544.168
544.069
543.969
543.869
543.767
543.665
543.562
543.459
543.355
543.251
543.146
543.041
542.936
542.831
542.725
542.62
542.514
542.408
542.302
542.196
542.09
541.984
541.878
541.772
541.665
541.559
541.453
541.347
541.241
541.134
541.028
540.922
540.816
540.709
540.603
552.493
552.38
552.267
552.156
552.047
551.939
551.832
551.727
551.623
551.52
551.418
551.317
551.216
551.116
551.018
550.921
550.827
550.735
550.647
550.561
550.478
550.399
550.323
550.25
550.18
550.113
550.049
549.988
549.929
549.873
549.818
549.764
549.711
549.658
549.604
549.549
549.494
549.438
549.38
549.322
549.262
549.2
549.136
549.07
549.001
548.93
548.854
548.775
548.692
548.606
548.515
548.421
548.324
548.224
548.121
548.017
547.912
547.805
547.697
547.589
547.48
547.37
547.258
547.145
547.029
546.911
546.79
546.665
546.537
546.404
546.268
546.126
545.979
545.827
545.67
545.509
545.343
545.173
544.999
544.822
544.642
544.552
544.459
544.365
544.269
544.171
544.072
543.972
543.871
543.769
543.667
543.564
543.46
543.356
543.252
543.147
543.042
542.937
542.832
542.726
542.62
542.514
542.408
542.302
542.196
542.09
541.984
541.878
541.772
541.666
541.559
541.453
541.347
541.241
541.134
541.028
540.922
540.816
540.709
540.603
552.493
552.38
552.267
552.156
552.047
551.939
551.833
551.729
551.626
551.524
551.423
551.322
551.223
551.125
551.028
550.934
550.842
550.752
550.665
550.582
550.501
550.424
550.35
550.279
550.211
550.145
550.083
550.023
549.965
549.91
549.855
549.802
549.748
549.695
549.64
549.585
549.528
549.471
549.412
549.352
549.291
549.228
549.162
549.095
549.024
548.951
548.875
548.795
548.713
548.627
548.538
548.445
548.349
548.25
548.148
548.045
547.94
547.834
547.727
547.619
547.51
547.4
547.288
547.174
547.058
546.939
546.818
546.693
546.565
546.433
546.296
546.155
546.008
545.855
545.697
545.533
545.365
545.192
545.015
544.835
544.65
544.56
544.466
544.371
544.273
544.175
544.075
543.975
543.873
543.771
543.669
543.566
543.462
543.358
543.253
543.148
543.043
542.938
542.832
542.727
542.621
542.515
542.409
542.303
542.197
542.091
541.984
541.878
541.772
541.666
541.559
541.453
541.347
541.241
541.134
541.028
540.922
540.816
540.709
540.603
552.493
552.38
552.268
552.157
552.047
551.94
551.835
551.731
551.629
551.528
551.429
551.33
551.233
551.137
551.042
550.95
550.86
550.773
550.689
550.608
550.53
550.454
550.382
550.313
550.247
550.184
550.123
550.065
550.008
549.953
549.9
549.846
549.793
549.739
549.684
549.627
549.57
549.511
549.452
549.39
549.327
549.262
549.195
549.125
549.053
548.978
548.901
548.821
548.738
548.653
548.564
548.473
548.378
548.281
548.18
548.078
547.974
547.869
547.762
547.653
547.544
547.433
547.32
547.206
547.089
546.97
546.848
546.723
546.594
546.462
546.324
546.182
546.034
545.88
545.72
545.554
545.383
545.208
545.03
544.849
544.662
544.57
544.475
544.377
544.278
544.179
544.079
543.978
543.876
543.774
543.671
543.568
543.464
543.359
543.255
543.15
543.044
542.939
542.833
542.728
542.622
542.516
542.41
542.303
542.197
542.091
541.985
541.878
541.772
541.666
541.56
541.453
541.347
541.241
541.135
541.028
540.922
540.816
540.709
540.603
552.494
552.381
552.269
552.158
552.049
551.943
551.838
551.735
551.635
551.535
551.437
551.341
551.245
551.152
551.06
550.97
550.883
550.799
550.717
550.639
550.563
550.49
550.421
550.354
550.29
550.228
550.169
550.112
550.057
550.003
549.95
549.897
549.843
549.789
549.734
549.677
549.619
549.559
549.498
549.435
549.37
549.303
549.234
549.162
549.088
549.011
548.932
548.851
548.768
548.683
548.595
548.504
548.411
548.315
548.216
548.115
548.012
547.907
547.8
547.691
547.581
547.469
547.355
547.239
547.121
547
546.877
546.751
546.622
546.488
546.35
546.207
546.057
545.902
545.74
545.573
545.4
545.224
545.046
544.866
544.68
544.583
544.483
544.382
544.282
544.182
544.082
543.981
543.879
543.777
543.674
543.57
543.466
543.361
543.256
543.151
543.046
542.94
542.834
542.729
542.622
542.516
542.41
542.304
542.198
542.091
541.985
541.879
541.772
541.666
541.56
541.454
541.347
541.241
541.135
541.028
540.922
540.816
540.709
540.603
552.493
552.38
552.269
552.16
552.052
551.947
551.843
551.742
551.643
551.545
551.449
551.355
551.262
551.171
551.082
550.995
550.911
550.83
550.751
550.675
550.602
550.532
550.465
550.401
550.339
550.279
550.222
550.166
550.112
550.059
550.006
549.953
549.9
549.846
549.79
549.733
549.674
549.613
549.551
549.486
549.42
549.351
549.28
549.206
549.13
549.051
548.971
548.888
548.803
548.717
548.629
548.538
548.446
548.351
548.254
548.154
548.051
547.946
547.839
547.73
547.618
547.505
547.389
547.271
547.151
547.029
546.904
546.776
546.646
546.511
546.372
546.228
546.077
545.92
545.757
545.588
545.414
545.237
545.059
544.884
544.722
544.598
544.488
544.384
544.284
544.184
544.084
543.983
543.882
543.779
543.676
543.572
543.468
543.363
543.258
543.153
543.047
542.942
542.836
542.73
542.623
542.517
542.411
542.305
542.198
542.092
541.986
541.879
541.773
541.666
541.56
541.454
541.347
541.241
541.135
541.028
540.922
540.816
540.709
540.603
552.494
552.383
552.272
552.164
552.057
551.953
551.852
551.752
551.655
551.559
551.466
551.374
551.284
551.196
551.11
551.027
550.946
550.867
550.792
550.719
550.649
550.581
550.516
550.454
550.394
550.336
550.281
550.226
550.173
550.121
550.068
550.016
549.963
549.909
549.853
549.796
549.736
549.674
549.61
549.544
549.476
549.406
549.332
549.256
549.178
549.097
549.015
548.93
548.844
548.756
548.667
548.576
548.483
548.389
548.292
548.192
548.09
547.985
547.878
547.768
547.655
547.539
547.421
547.301
547.178
547.054
546.927
546.797
546.665
546.529
546.389
546.243
546.091
545.933
545.768
545.597
545.42
545.24
545.059
544.882
544.723
544.593
544.482
544.38
544.282
544.184
544.086
543.985
543.884
543.782
543.679
543.575
543.47
543.365
543.26
543.155
543.049
542.943
542.837
542.731
542.624
542.518
542.412
542.305
542.199
542.092
541.986
541.88
541.773
541.667
541.56
541.454
541.348
541.241
541.135
541.028
540.922
540.816
540.709
540.603
552.495
552.386
552.277
552.171
552.066
551.964
551.864
551.767
551.672
551.579
551.488
551.399
551.312
551.228
551.145
551.065
550.987
550.912
550.84
550.77
550.703
550.638
550.575
550.515
550.457
550.401
550.347
550.294
550.241
550.19
550.138
550.086
550.033
549.979
549.923
549.865
549.805
549.742
549.677
549.609
549.539
549.467
549.391
549.313
549.233
549.15
549.065
548.979
548.89
548.8
548.709
548.617
548.523
548.428
548.33
548.231
548.128
548.023
547.914
547.803
547.688
547.57
547.45
547.326
547.201
547.073
546.944
546.812
546.678
546.54
546.398
546.251
546.099
545.939
545.772
545.598
545.417
545.229
545.039
544.852
544.685
544.561
544.46
544.368
544.276
544.182
544.086
543.987
543.886
543.784
543.681
543.577
543.473
543.368
543.262
543.157
543.051
542.945
542.838
542.732
542.626
542.519
542.413
542.306
542.2
542.093
541.986
541.88
541.773
541.667
541.561
541.454
541.348
541.241
541.135
541.029
540.922
540.816
540.71
540.603
552.496
552.39
552.284
552.18
552.078
551.978
551.881
551.787
551.695
551.606
551.518
551.433
551.349
551.268
551.189
551.112
551.038
550.966
550.897
550.83
550.766
550.703
550.643
550.586
550.529
550.475
550.422
550.37
550.318
550.267
550.216
550.164
550.111
550.057
550.001
549.942
549.881
549.817
549.75
549.681
549.609
549.534
549.457
549.377
549.294
549.209
549.122
549.033
548.942
548.849
548.755
548.661
548.565
548.468
548.369
548.268
548.164
548.058
547.948
547.834
547.717
547.597
547.473
547.346
547.217
547.086
546.954
546.819
546.682
546.543
546.4
546.252
546.098
545.937
545.769
545.592
545.405
545.206
544.998
544.784
544.594
544.494
544.421
544.347
544.266
544.178
544.085
543.988
543.888
543.787
543.684
543.58
543.475
543.37
543.264
543.158
543.052
542.946
542.84
542.733
542.627
542.52
542.413
542.307
542.2
542.094
541.987
541.88
541.774
541.667
541.561
541.454
541.348
541.242
541.135
541.029
540.922
540.816
540.71
540.603
552.498
552.395
552.293
552.193
552.094
551.998
551.905
551.814
551.726
551.641
551.557
551.476
551.396
551.319
551.243
551.17
551.099
551.031
550.965
550.901
550.839
550.78
550.722
550.666
550.612
550.559
550.507
550.456
550.405
550.354
550.303
550.251
550.198
550.144
550.087
550.027
549.965
549.9
549.831
549.76
549.686
549.609
549.529
549.446
549.362
549.274
549.185
549.092
548.998
548.903
548.806
548.708
548.609
548.509
548.408
548.304
548.199
548.09
547.977
547.861
547.741
547.617
547.49
547.359
547.226
547.091
546.955
546.817
546.678
546.536
546.392
546.243
546.089
545.928
545.759
545.579
545.387
545.175
544.938
544.665
544.39
544.383
544.37
544.325
544.257
544.176
544.085
543.99
543.89
543.789
543.686
543.582
543.477
543.372
543.266
543.16
543.054
542.948
542.841
542.734
542.628
542.521
542.414
542.308
542.201
542.094
541.988
541.881
541.774
541.668
541.561
541.455
541.348
541.242
541.135
541.029
540.922
540.816
540.71
540.603
552.501
552.403
552.305
552.21
552.116
552.024
551.936
551.85
551.767
551.686
551.607
551.53
551.455
551.381
551.31
551.241
551.173
551.108
551.045
550.984
550.925
550.868
550.813
550.759
550.706
550.655
550.604
550.554
550.503
550.453
550.402
550.35
550.296
550.241
550.183
550.122
550.058
549.991
549.92
549.846
549.769
549.689
549.607
549.522
549.435
549.345
549.252
549.157
549.06
548.961
548.861
548.759
548.657
548.553
548.448
548.341
548.231
548.119
548.003
547.884
547.759
547.631
547.499
547.364
547.226
547.087
546.947
546.806
546.663
546.52
546.374
546.225
546.071
545.912
545.744
545.564
545.37
545.15
544.883
544.503
543.88
544.254
544.333
544.313
544.254
544.176
544.087
543.992
543.893
543.791
543.688
543.584
543.479
543.374
543.268
543.162
543.056
542.949
542.842
542.736
542.629
542.522
542.415
542.308
542.202
542.095
541.988
541.881
541.775
541.668
541.561
541.455
541.348
541.242
541.135
541.029
540.922
540.816
540.71
540.603
552.504
552.412
552.32
552.23
552.143
552.057
551.975
551.895
551.817
551.742
551.669
551.597
551.526
551.457
551.39
551.325
551.261
551.199
551.139
551.081
551.025
550.97
550.917
550.865
550.814
550.764
550.714
550.664
550.614
550.564
550.513
550.46
550.406
550.35
550.29
550.228
550.162
550.092
550.019
549.941
549.861
549.778
549.692
549.604
549.513
549.42
549.324
549.226
549.126
549.024
548.92
548.814
548.707
548.599
548.489
548.377
548.263
548.146
548.025
547.9
547.771
547.638
547.5
547.359
547.217
547.073
546.928
546.783
546.638
546.493
546.346
546.198
546.046
545.889
545.724
545.549
545.36
545.152
544.915
544.644
544.39
544.386
544.374
544.329
544.262
544.181
544.09
543.994
543.895
543.793
543.69
543.586
543.481
543.376
543.27
543.164
543.057
542.95
542.844
542.737
542.63
542.523
542.416
542.309
542.202
542.095
541.989
541.882
541.775
541.668
541.562
541.455
541.349
541.242
541.136
541.029
540.923
540.816
540.71
540.603
552.507
552.422
552.338
552.255
552.175
552.097
552.022
551.949
551.878
551.81
551.743
551.676
551.611
551.547
551.485
551.424
551.364
551.306
551.249
551.194
551.14
551.088
551.037
550.987
550.937
550.888
550.839
550.79
550.74
550.689
550.638
550.584
550.529
550.472
550.411
550.346
550.278
550.205
550.128
550.047
549.962
549.875
549.785
549.693
549.599
549.502
549.403
549.301
549.197
549.091
548.983
548.873
548.762
548.648
548.531
548.413
548.293
548.169
548.042
547.911
547.776
547.636
547.492
547.345
547.197
547.047
546.898
546.749
546.601
546.454
546.308
546.162
546.012
545.859
545.7
545.533
545.355
545.166
544.966
544.765
544.594
544.5
544.429
544.357
544.276
544.188
544.095
543.998
543.897
543.795
543.692
543.588
543.483
543.377
543.271
543.165
543.058
542.952
542.845
542.738
542.631
542.524
542.417
542.31
542.203
542.096
541.989
541.882
541.776
541.669
541.562
541.455
541.349
541.242
541.136
541.029
540.923
540.816
540.71
540.603
552.511
552.435
552.359
552.285
552.213
552.143
552.077
552.012
551.95
551.888
551.829
551.769
551.711
551.652
551.595
551.539
551.483
551.429
551.376
551.324
551.273
551.223
551.174
551.126
551.078
551.03
550.981
550.932
550.882
550.831
550.779
550.725
550.669
550.609
550.546
550.479
550.407
550.331
550.249
550.164
550.075
549.983
549.888
549.791
549.692
549.592
549.489
549.384
549.276
549.166
549.053
548.938
548.82
548.699
548.576
548.45
548.322
548.19
548.055
547.916
547.773
547.625
547.474
547.321
547.165
547.01
546.856
546.703
546.553
546.405
546.26
546.115
545.97
545.822
545.67
545.512
545.347
545.177
545.004
544.836
544.689
544.571
544.473
544.382
544.29
544.196
544.1
544
543.899
543.797
543.693
543.589
543.484
543.378
543.272
543.166
543.06
542.953
542.846
542.739
542.632
542.525
542.418
542.311
542.204
542.097
541.99
541.883
541.776
541.669
541.562
541.456
541.349
541.242
541.136
541.029
540.923
540.816
540.71
540.603
552.516
552.449
552.383
552.318
552.256
552.196
552.138
552.083
552.03
551.977
551.926
551.874
551.823
551.771
551.72
551.669
551.619
551.569
551.52
551.472
551.424
551.377
551.33
551.284
551.237
551.19
551.143
551.094
551.044
550.993
550.94
550.885
550.827
550.765
550.7
550.629
550.553
550.472
550.386
550.295
550.2
550.102
550.002
549.9
549.797
549.692
549.585
549.476
549.364
549.249
549.131
549.01
548.886
548.757
548.625
548.489
548.35
548.208
548.063
547.915
547.763
547.607
547.448
547.286
547.124
546.962
546.803
546.646
546.493
546.344
546.2
546.058
545.917
545.775
545.631
545.482
545.331
545.176
545.021
544.871
544.733
544.609
544.5
544.399
544.3
544.202
544.103
544.002
543.901
543.798
543.694
543.59
543.485
543.379
543.273
543.167
543.061
542.954
542.847
542.74
542.633
542.526
542.418
542.311
542.204
542.097
541.99
541.883
541.776
541.669
541.563
541.456
541.349
541.243
541.136
541.029
540.923
540.816
540.71
540.603
552.521
552.465
552.409
552.354
552.302
552.253
552.205
552.16
552.116
552.073
552.031
551.988
551.945
551.901
551.857
551.813
551.769
551.725
551.681
551.637
551.593
551.549
551.505
551.461
551.416
551.371
551.324
551.276
551.227
551.176
551.122
551.066
551.006
550.942
550.872
550.798
550.717
550.631
550.539
550.442
550.34
550.236
550.13
550.022
549.914
549.804
549.693
549.581
549.465
549.346
549.223
549.095
548.962
548.825
548.682
548.534
548.381
548.226
548.069
547.91
547.748
547.582
547.414
547.244
547.074
546.905
546.739
546.578
546.422
546.273
546.129
545.991
545.854
545.718
545.582
545.443
545.302
545.16
545.018
544.879
544.746
544.623
544.511
544.406
544.305
544.204
544.104
544.003
543.901
543.798
543.694
543.59
543.485
543.38
543.274
543.168
543.061
542.955
542.848
542.741
542.634
542.526
542.419
542.312
542.205
542.098
541.991
541.884
541.777
541.67
541.563
541.456
541.349
541.243
541.136
541.03
540.923
540.816
540.71
540.603
552.527
552.48
552.435
552.391
552.35
552.311
552.274
552.239
552.206
552.173
552.14
552.107
552.073
552.038
552.002
551.966
551.929
551.891
551.853
551.815
551.776
551.736
551.696
551.655
551.613
551.569
551.524
551.477
551.428
551.377
551.323
551.266
551.203
551.136
551.063
550.984
550.898
550.806
550.708
550.605
550.497
550.386
550.274
550.16
550.047
549.934
549.82
549.704
549.586
549.463
549.335
549.201
549.061
548.912
548.755
548.591
548.422
548.251
548.079
547.906
547.731
547.555
547.377
547.197
547.018
546.841
546.668
546.502
546.343
546.191
546.048
545.913
545.781
545.652
545.522
545.392
545.261
545.129
544.997
544.867
544.74
544.62
544.509
544.405
544.304
544.203
544.103
544.001
543.9
543.797
543.694
543.59
543.485
543.38
543.274
543.168
543.062
542.955
542.848
542.741
542.634
542.527
542.42
542.313
542.205
542.098
541.991
541.884
541.777
541.67
541.563
541.456
541.35
541.243
541.136
541.03
540.923
540.816
540.71
540.603
552.532
552.495
552.46
552.427
552.396
552.368
552.341
552.317
552.294
552.271
552.248
552.225
552.201
552.175
552.149
552.121
552.092
552.062
552.031
551.999
551.966
551.932
551.896
551.859
551.82
551.78
551.737
551.691
551.644
551.593
551.538
551.479
551.415
551.344
551.267
551.183
551.092
550.995
550.891
550.782
550.668
550.552
550.434
550.316
550.2
550.084
549.969
549.854
549.735
549.611
549.48
549.341
549.193
549.032
548.858
548.674
548.484
548.293
548.102
547.912
547.724
547.535
547.345
547.154
546.964
546.777
546.595
546.422
546.257
546.103
545.96
545.826
545.699
545.576
545.454
545.332
545.21
545.087
544.964
544.841
544.719
544.601
544.497
544.397
544.298
544.199
544.099
543.999
543.897
543.795
543.692
543.589
543.485
543.38
543.274
543.168
543.062
542.956
542.849
542.742
542.635
542.527
542.42
542.313
542.206
542.099
541.991
541.884
541.777
541.67
541.564
541.457
541.35
541.243
541.136
541.03
540.923
540.817
540.71
540.603
552.536
552.509
552.483
552.459
552.438
552.419
552.402
552.387
552.374
552.361
552.349
552.336
552.321
552.306
552.289
552.27
552.25
552.228
552.205
552.18
552.153
552.125
552.095
552.062
552.028
551.991
551.951
551.908
551.861
551.811
551.756
551.695
551.629
551.556
551.475
551.387
551.291
551.189
551.081
550.968
550.85
550.731
550.61
550.491
550.375
550.261
550.149
550.037
549.922
549.799
549.668
549.527
549.372
549.199
549.006
548.798
548.583
548.367
548.154
547.946
547.741
547.538
547.334
547.13
546.926
546.724
546.529
546.345
546.172
546.012
545.866
545.733
545.61
545.493
545.378
545.265
545.151
545.036
544.921
544.805
544.689
544.566
544.479
544.385
544.29
544.193
544.094
543.995
543.894
543.793
543.69
543.587
543.483
543.379
543.274
543.168
543.062
542.956
542.849
542.742
542.635
542.528
542.421
542.313
542.206
542.099
541.992
541.885
541.778
541.671
541.564
541.457
541.35
541.243
541.137
541.03
540.923
540.817
540.71
540.603
552.54
552.52
552.501
552.485
552.471
552.46
552.451
552.445
552.441
552.437
552.434
552.43
552.425
552.419
552.411
552.401
552.388
552.374
552.358
552.34
552.32
552.298
552.273
552.247
552.217
552.184
552.148
552.108
552.063
552.014
551.959
551.898
551.83
551.754
551.671
551.58
551.481
551.376
551.267
551.153
551.036
550.917
550.799
550.684
550.573
550.466
550.363
550.26
550.154
550.038
549.911
549.772
549.614
549.431
549.217
548.981
548.739
548.498
548.263
548.034
547.81
547.589
547.367
547.145
546.922
546.701
546.486
546.283
546.095
545.925
545.774
545.639
545.518
545.406
545.299
545.194
545.089
544.982
544.876
544.769
544.66
544.539
544.463
544.375
544.281
544.185
544.088
543.99
543.89
543.789
543.688
543.585
543.482
543.378
543.273
543.168
543.062
542.956
542.849
542.742
542.635
542.528
542.421
542.314
542.207
542.099
541.992
541.885
541.778
541.671
541.564
541.457
541.35
541.243
541.137
541.03
540.923
540.817
540.71
540.603
552.542
552.526
552.512
552.5
552.491
552.485
552.483
552.484
552.486
552.49
552.495
552.499
552.501
552.502
552.501
552.497
552.491
552.483
552.472
552.459
552.445
552.428
552.409
552.387
552.362
552.334
552.302
552.266
552.224
552.176
552.122
552.061
551.992
551.916
551.831
551.739
551.64
551.537
551.431
551.322
551.211
551.101
550.993
550.89
550.792
550.7
550.613
550.528
550.435
550.329
550.211
550.083
549.935
549.75
549.517
549.254
548.985
548.72
548.464
548.214
547.969
547.725
547.481
547.234
546.982
546.731
546.487
546.256
546.045
545.856
545.692
545.551
545.429
545.321
545.221
545.125
545.029
544.933
544.836
544.739
544.642
544.545
544.457
544.366
544.273
544.178
544.082
543.984
543.885
543.785
543.685
543.583
543.48
543.377
543.272
543.167
543.062
542.956
542.849
542.743
542.636
542.529
542.421
542.314
542.207
542.1
541.992
541.885
541.778
541.671
541.564
541.457
541.35
541.244
541.137
541.03
540.923
540.817
540.71
540.603
552.542
552.526
552.512
552.501
552.494
552.491
552.491
552.496
552.503
552.512
552.521
552.53
552.537
552.542
552.544
552.543
552.539
552.532
552.522
552.511
552.498
552.484
552.468
552.45
552.429
552.405
552.377
552.344
552.306
552.261
552.209
552.149
552.081
552.005
551.921
551.832
551.738
551.643
551.547
551.45
551.355
551.263
551.175
551.094
551.02
550.953
550.892
550.831
550.756
550.665
550.566
550.465
550.345
550.173
549.927
549.642
549.355
549.074
548.803
548.536
548.267
547.998
547.724
547.442
547.15
546.857
546.568
546.293
546.041
545.821
545.635
545.481
545.354
545.247
545.153
545.066
544.981
544.895
544.807
544.719
544.63
544.54
544.452
544.36
544.267
544.172
544.075
543.978
543.88
543.781
543.681
543.58
543.478
543.375
543.271
543.166
543.061
542.955
542.849
542.743
542.636
542.529
542.422
542.314
542.207
542.1
541.993
541.886
541.778
541.671
541.564
541.458
541.351
541.244
541.137
541.03
540.923
540.817
540.71
540.603
552.54
552.519
552.501
552.486
552.476
552.47
552.47
552.474
552.482
552.492
552.502
552.511
552.519
552.523
552.522
552.518
552.509
552.496
552.48
552.463
552.446
552.428
552.411
552.393
552.374
552.353
552.328
552.298
552.264
552.222
552.173
552.117
552.052
551.979
551.9
551.817
551.735
551.655
551.579
551.507
551.439
551.376
551.32
551.272
551.233
551.201
551.174
551.144
551.092
551.025
550.958
550.903
550.834
550.69
550.447
550.158
549.874
549.595
549.326
549.051
548.761
548.465
548.155
547.826
547.481
547.132
546.782
546.444
546.128
545.853
545.627
545.448
545.308
545.198
545.109
545.03
544.955
544.879
544.8
544.717
544.631
544.543
544.453
544.358
544.263
544.166
544.07
543.973
543.875
543.777
543.677
543.577
543.476
543.373
543.27
543.165
543.061
542.955
542.849
542.742
542.636
542.529
542.422
542.315
542.207
542.1
541.993
541.886
541.779
541.672
541.565
541.458
541.351
541.244
541.137
541.03
540.924
540.817
540.71
540.603
552.534
552.502
552.474
552.449
552.43
552.417
552.411
552.41
552.414
552.419
552.425
552.43
552.431
552.428
552.419
552.401
552.377
552.347
552.314
552.28
552.247
552.216
552.189
552.166
552.146
552.125
552.103
552.076
552.045
552.008
551.964
551.912
551.852
551.785
551.714
551.643
551.579
551.526
551.484
551.449
551.421
551.399
551.386
551.382
551.387
551.397
551.411
551.416
551.395
551.366
551.346
551.352
551.35
551.261
551.054
550.804
550.561
550.307
550.066
549.801
549.495
549.18
548.836
548.451
548.046
547.637
547.212
546.79
546.377
546.008
545.714
545.488
545.32
545.199
545.11
545.035
544.971
544.904
544.829
544.745
544.656
544.563
544.466
544.363
544.261
544.162
544.064
543.967
543.87
543.772
543.674
543.574
543.473
543.371
543.268
543.164
543.06
542.955
542.849
542.742
542.636
542.529
542.422
542.315
542.208
542.1
541.993
541.886
541.779
541.672
541.565
541.458
541.351
541.244
541.137
541.03
540.924
540.817
540.71
540.603
552.523
552.472
552.423
552.381
552.346
552.319
552.3
552.289
552.282
552.276
552.271
552.263
552.252
552.234
552.206
552.165
552.114
552.052
551.985
551.918
551.855
551.8
551.755
551.721
551.697
551.675
551.654
551.63
551.603
551.57
551.531
551.485
551.431
551.371
551.31
551.255
551.215
551.198
551.207
551.225
551.249
551.277
551.313
551.361
551.415
551.47
551.521
551.565
551.597
551.621
551.659
551.73
551.802
551.799
551.692
551.563
551.43
551.217
551.04
550.805
550.501
550.191
549.83
549.402
548.944
548.488
547.982
547.477
546.919
546.395
545.985
545.671
545.445
545.298
545.201
545.119
545.064
544.999
544.917
544.819
544.712
544.604
544.5
544.375
544.263
544.159
544.059
543.962
543.865
543.768
543.67
543.571
543.471
543.369
543.267
543.163
543.059
542.954
542.848
542.742
542.636
542.529
542.422
542.315
542.208
542.101
541.993
541.886
541.779
541.672
541.565
541.458
541.351
541.244
541.137
541.031
540.924
540.817
540.71
540.603
552.505
552.417
552.337
552.266
552.205
552.155
552.116
552.085
552.059
552.032
552.003
551.974
551.941
551.899
551.843
551.769
551.677
551.569
551.451
551.334
551.228
551.137
551.067
551.021
550.994
550.974
550.955
550.934
550.91
550.88
550.844
550.802
550.751
550.696
550.644
550.602
550.586
550.615
550.692
550.775
550.86
550.943
551.032
551.133
551.238
551.334
551.413
551.507
551.618
551.706
551.804
551.945
552.083
552.199
552.277
552.41
552.499
552.324
552.287
552.075
551.83
551.562
551.209
550.816
550.347
549.868
549.289
548.784
548.021
547.224
546.625
546.127
545.779
545.579
545.476
545.344
545.306
545.227
545.113
544.972
544.808
544.664
544.512
544.382
544.263
544.155
544.054
543.956
543.86
543.764
543.666
543.568
543.468
543.368
543.266
543.162
543.058
542.954
542.848
542.742
542.636
542.529
542.422
542.315
542.208
542.101
541.994
541.886
541.779
541.672
541.565
541.458
541.351
541.244
541.138
541.031
540.924
540.817
540.71
540.603
552.471
552.32
552.188
552.073
551.973
551.889
551.818
551.756
551.695
551.629
551.559
551.491
551.425
551.35
551.258
551.144
551.004
550.84
550.662
550.486
550.33
550.201
550.113
550.063
550.045
550.036
550.028
550.011
549.988
549.955
549.917
549.87
549.815
549.752
549.699
549.663
549.66
549.733
549.896
550.045
550.195
550.339
550.478
550.628
550.772
550.91
551.01
551.162
551.406
551.561
551.703
551.937
552.105
552.33
552.403
552.7
552.992
553.267
553.389
553.307
553.138
552.885
552.541
552.41
552.003
551.436
550.794
550.274
549.329
548.249
547.53
546.851
546.406
546.103
545.918
545.692
545.578
545.397
545.287
545.094
544.942
544.776
544.544
544.39
544.262
544.15
544.048
543.951
543.855
543.76
543.663
543.565
543.466
543.366
543.264
543.162
543.058
542.953
542.848
542.742
542.636
542.529
542.422
542.315
542.208
542.101
541.994
541.887
541.779
541.672
541.565
541.458
541.351
541.245
541.138
541.031
540.924
540.817
540.71
540.603
552.406
552.144
551.927
551.748
551.591
551.452
551.329
551.213
551.091
550.957
550.817
550.687
550.574
550.458
550.331
550.181
550.006
549.797
549.57
549.351
549.167
549.016
548.943
548.915
548.933
548.956
548.981
548.976
548.957
548.902
548.852
548.783
548.708
548.607
548.529
548.479
548.463
548.574
548.813
549.007
549.229
549.441
549.619
549.811
549.97
550.18
550.296
550.442
550.615
550.877
551.115
551.457
551.758
552.063
552.257
552.623
553.03
553.695
554.131
554.478
554.405
554.041
553.748
554.215
554.076
553.492
552.759
552.241
551.055
549.377
548.648
548.012
547.639
546.927
546.867
546.185
546.224
545.669
545.644
545.237
545.073
544.785
544.537
544.385
544.255
544.143
544.042
543.945
543.851
543.756
543.66
543.563
543.465
543.365
543.264
543.161
543.057
542.953
542.848
542.742
542.636
542.529
542.422
542.315
542.208
542.101
541.994
541.887
541.78
541.673
541.566
541.459
541.352
541.245
541.138
541.031
540.924
540.817
540.71
540.603
552.278
551.824
551.477
551.214
550.961
550.719
550.491
550.279
550.044
549.804
549.567
549.345
549.178
549.023
548.888
548.741
548.602
548.398
548.169
547.97
547.866
547.71
547.729
547.721
547.83
547.93
548.051
548.073
548.09
547.947
547.879
547.749
547.654
547.467
547.336
547.229
547.142
547.196
547.376
547.579
547.819
548.077
548.339
548.579
548.784
549.026
549.271
549.535
549.695
549.951
550.298
550.7
550.906
551.388
551.609
552.056
552.457
553.462
554.368
555.463
555.521
554.88
554.485
555.85
556.124
555.978
554.913
554.457
553.216
550.609
549.75
549.057
549.431
547.841
547.894
546.795
547.049
545.945
546.191
545.336
545.23
544.744
544.532
544.382
544.241
544.133
544.035
543.941
543.847
543.754
543.658
543.562
543.464
543.364
543.263
543.161
543.057
542.953
542.848
542.742
542.636
542.529
542.423
542.316
542.208
542.101
541.994
541.887
541.78
541.673
541.566
541.459
541.352
541.245
541.138
541.031
540.924
540.817
540.71
540.603