/*--------------------------------*- C++ -*----------------------------------*\
  =========                 |
  \\      /  F ield         | OpenFOAM: The Open Source CFD Toolbox
   \\    /   O peration     | Website:  https://openfoam.org
    \\  /    A nd           | Version:  6
     \\/     M anipulation  |
\*---------------------------------------------------------------------------*/
FoamFile
{
    version     2.0;
    format      ascii;
    class       volVectorField;
    location    "1200";
    object      U;
}
// * * * * * * * * * * * * * * * * * * * * * * * * * * * * * * * * * * * * * //

dimensions      [0 1 -1 0 0 0 0];

internalField   nonuniform List<vector> 
4800
(
(-6.72332e-05 0 -0.000109826)
(8.34048e-05 0 -0.000125501)
(8.54208e-05 0 -0.000135548)
(6.50036e-05 0 -4.89149e-05)
(-4.67247e-05 0 -3.96952e-05)
(-9.02407e-05 0 7.8903e-06)
(-0.000129139 0 -3.39162e-07)
(-0.000146959 0 -1.76483e-05)
(-0.000151963 0 -3.35768e-05)
(-0.000156013 0 -5.22878e-05)
(-0.000168874 0 -7.61911e-05)
(-0.000220578 0 -4.92676e-05)
(-0.00028692 0 -2.86314e-05)
(-0.000408796 0 7.28192e-05)
(-0.00050189 0 5.20903e-05)
(-0.000581473 0 -9.86682e-05)
(-0.000667752 0 -0.000142116)
(-0.000803594 0 2.29928e-05)
(-0.000886007 0 0.000104334)
(-0.000959294 0 1.39294e-05)
(-0.00102871 0 -4.51043e-05)
(-0.00110268 0 7.71798e-05)
(-0.00118226 0 3.51189e-05)
(-0.0012634 0 -2.62305e-05)
(-0.00134382 0 7.35497e-05)
(-0.00142535 0 3.41141e-05)
(-0.0015105 0 2.96403e-05)
(-0.00158852 0 2.41699e-05)
(-0.00163959 0 2.10162e-05)
(-0.00166485 0 -1.36814e-05)
(-0.0016763 0 -1.49129e-05)
(-0.00164852 0 -4.5775e-05)
(-0.00148984 0 -8.32991e-05)
(-0.00137658 0 -0.000120154)
(-0.00132605 0 -9.89571e-05)
(-0.00126538 0 -6.15364e-05)
(-0.00117089 0 -6.66242e-05)
(-0.00110289 0 -6.34458e-05)
(-0.00104957 0 -8.01155e-05)
(-0.000985849 0 -6.30218e-05)
(-0.000872086 0 -8.79431e-05)
(-0.000750209 0 -0.000115226)
(-0.000660243 0 -9.86506e-05)
(-0.000574043 0 -6.25876e-05)
(-0.000463718 0 -8.78093e-05)
(-0.000386976 0 -5.9146e-05)
(-0.000362467 0 -5.79345e-06)
(-0.000362611 0 -1.08536e-05)
(-0.000399961 0 2.96837e-05)
(-0.000454378 0 1.28535e-05)
(-0.000539816 0 2.92599e-05)
(-0.000615041 0 2.74779e-05)
(-0.000676111 0 1.10015e-06)
(-0.000725961 0 -1.26669e-05)
(-0.000762036 0 -1.76622e-05)
(-0.000781503 0 -3.37752e-05)
(-0.000787824 0 -3.16903e-05)
(-0.000788295 0 -3.19007e-05)
(-0.000782125 0 -2.91241e-05)
(-0.000767459 0 -4.48601e-05)
(-0.000726219 0 -5.98177e-05)
(-0.000674943 0 -7.66107e-05)
(-0.000627897 0 -7.45924e-05)
(-0.000585336 0 -7.39007e-05)
(-0.000541972 0 -8.3526e-05)
(-0.000505754 0 -0.000104621)
(-0.000474409 0 -0.000141779)
(-0.000464259 0 -8.40345e-05)
(-0.000448839 0 -7.90144e-05)
(-0.000503043 0 4.49698e-05)
(-0.000570436 0 -3.02318e-05)
(-0.000594582 0 -0.000123062)
(-0.000614277 0 -0.00012065)
(-0.000620057 0 -0.000129313)
(-0.000620717 0 -0.000125471)
(-0.000619111 0 -0.000124899)
(-0.000589524 0 -0.000187536)
(-0.000542826 0 -0.000215497)
(-0.000638734 0 -0.000207537)
(2.91506e-06 0 -0.000308563)
(-3.94196e-11 0 -9.65096e-12)
(-1.7755e-12 0 -1.74085e-13)
(-8.73036e-13 0 -3.33479e-14)
(-6.17457e-13 0 -1.67465e-14)
(-5.74741e-13 0 -2.56321e-14)
(-5.12479e-13 0 -3.68003e-14)
(-4.30629e-13 0 -4.53575e-14)
(-3.3477e-13 0 -5.08854e-14)
(-2.30452e-13 0 -5.38895e-14)
(-1.2212e-13 0 -5.4927e-14)
(-1.31868e-14 0 -5.44337e-14)
(9.36816e-14 0 -5.27292e-14)
(1.96336e-13 0 -5.00528e-14)
(2.92997e-13 0 -4.65966e-14)
(3.82188e-13 0 -4.25271e-14)
(4.62724e-13 0 -3.79941e-14)
(5.3372e-13 0 -3.31325e-14)
(5.94605e-13 0 -2.80623e-14)
(6.45118e-13 0 -2.28902e-14)
(6.85255e-13 0 -1.77115e-14)
(7.15201e-13 0 -1.26118e-14)
(7.35269e-13 0 -7.66696e-15)
(7.45851e-13 0 -2.9415e-15)
(7.47397e-13 0 1.51312e-15)
(7.40416e-13 0 5.65988e-15)
(7.25482e-13 0 9.47669e-15)
(7.0323e-13 0 1.29548e-14)
(6.74349e-13 0 1.60961e-14)
(6.39554e-13 0 1.89098e-14)
(5.99548e-13 0 2.1409e-14)
(5.54993e-13 0 2.36087e-14)
(5.06488e-13 0 2.55247e-14)
(4.5457e-13 0 2.71733e-14)
(3.99718e-13 0 2.85713e-14)
(3.42378e-13 0 2.97352e-14)
(2.82967e-13 0 3.06806e-14)
(2.21888e-13 0 3.14229e-14)
(1.59521e-13 0 3.19799e-14)
(9.6205e-14 0 3.23812e-14)
(3.21747e-14 0 3.27062e-14)
(-2.44431e-05 0 2.47759e-05)
(-6.93694e-05 0 2.55153e-05)
(-9.04788e-05 0 4.42605e-05)
(-6.70725e-05 0 9.35846e-05)
(-0.000106774 0 9.06573e-05)
(-0.00013119 0 6.32031e-05)
(-0.000139014 0 5.51937e-05)
(-0.00014577 0 6.45212e-05)
(-0.000167097 0 3.59866e-05)
(-0.000188005 0 8.91798e-05)
(-0.000223836 0 0.000113697)
(-0.000268281 0 0.000139784)
(-0.000323753 0 0.000145747)
(-0.00037064 0 0.000133626)
(-0.000439791 0 0.000150352)
(-0.00056618 0 0.000229655)
(-0.000690243 0 0.000234239)
(-0.000771138 0 0.000142336)
(-0.000846913 0 8.73592e-06)
(-0.000917669 0 0.000123005)
(-0.000995943 0 0.000156766)
(-0.00107773 0 5.76316e-05)
(-0.00114843 0 0.000102441)
(-0.00121658 0 0.000112743)
(-0.00128271 0 0.000103483)
(-0.00135835 0 0.000122264)
(-0.00143971 0 0.000129046)
(-0.00150995 0 8.24912e-05)
(-0.00155529 0 5.59442e-05)
(-0.00157773 0 1.82753e-05)
(-0.00158832 0 -2.98636e-05)
(-0.00159446 0 -4.76111e-05)
(-0.00152528 0 -0.000221775)
(-0.0013834 0 -0.00028329)
(-0.00131637 0 -3.28645e-05)
(-0.00122704 0 -9.81259e-05)
(-0.00113947 0 -0.000185763)
(-0.00107478 0 -6.4592e-05)
(-0.00100851 0 -9.43202e-05)
(-0.000944616 0 -6.40201e-05)
(-0.000846176 0 -0.000108878)
(-0.000738711 0 -0.000153325)
(-0.000645449 0 -0.000114698)
(-0.00055024 0 -6.76024e-05)
(-0.000440037 0 -0.000105772)
(-0.000353285 0 -9.05914e-05)
(-0.000315887 0 4.74206e-05)
(-0.000293845 0 2.52906e-05)
(-0.000337675 0 0.000103522)
(-0.000378051 0 0.000109056)
(-0.000480972 0 0.000130508)
(-0.000550172 0 0.000115786)
(-0.000590948 0 9.04484e-05)
(-0.000618707 0 7.92943e-05)
(-0.000642318 0 5.33124e-05)
(-0.00064865 0 4.33548e-05)
(-0.000648013 0 2.83368e-05)
(-0.000648647 0 1.68712e-05)
(-0.000659088 0 -1.49741e-05)
(-0.00066655 0 -4.57688e-06)
(-0.000639776 0 -3.6083e-05)
(-0.000577778 0 -6.04968e-05)
(-0.000519387 0 -5.16111e-05)
(-0.000467355 0 -1.9333e-05)
(-0.000416604 0 -1.30639e-05)
(-0.000391082 0 -7.84388e-06)
(-0.000384287 0 6.32159e-05)
(-0.000364232 0 6.39797e-05)
(-0.000361505 0 0.000134868)
(-0.000402971 0 8.14627e-05)
(-0.000441974 0 7.78162e-05)
(-0.000452537 0 7.29165e-05)
(-0.000448361 0 6.74818e-05)
(-0.000405148 0 6.12208e-05)
(-0.000371666 0 3.93791e-05)
(-0.000342157 0 -7.107e-06)
(-0.000340172 0 -2.24839e-05)
(-0.000263739 0 -0.000229623)
(-0.000707741 0 -0.00020064)
(4.77997e-06 0 -0.000503685)
(-7.77335e-11 0 -1.90118e-12)
(-1.62132e-12 0 -7.51806e-15)
(-7.26803e-13 0 2.00671e-14)
(-6.09742e-13 0 -2.53589e-14)
(-5.94795e-13 0 -7.47635e-14)
(-5.32204e-13 0 -1.13169e-13)
(-4.44714e-13 0 -1.39331e-13)
(-3.43302e-13 0 -1.55416e-13)
(-2.34494e-13 0 -1.63823e-13)
(-1.22664e-13 0 -1.66427e-13)
(-1.0989e-14 0 -1.64567e-13)
(9.80625e-14 0 -1.59185e-13)
(2.02469e-13 0 -1.50978e-13)
(3.00523e-13 0 -1.40495e-13)
(3.90791e-13 0 -1.28204e-13)
(4.72119e-13 0 -1.14518e-13)
(5.43652e-13 0 -9.98174e-14)
(6.04848e-13 0 -8.44555e-14)
(6.55469e-13 0 -6.87657e-14)
(6.95533e-13 0 -5.306e-14)
(7.25246e-13 0 -3.76207e-14)
(7.4494e-13 0 -2.26904e-14)
(7.55031e-13 0 -8.46256e-15)
(7.55998e-13 0 4.92251e-15)
(7.4838e-13 0 1.73743e-14)
(7.32777e-13 0 2.88447e-14)
(7.09849e-13 0 3.93161e-14)
(6.80304e-13 0 4.87917e-14)
(6.44867e-13 0 5.72886e-14)
(6.04247e-13 0 6.48341e-14)
(5.59108e-13 0 7.14651e-14)
(5.10053e-13 0 7.72274e-14)
(4.57616e-13 0 8.21736e-14)
(4.0228e-13 0 8.6359e-14)
(3.44487e-13 0 8.98377e-14)
(2.84655e-13 0 9.26596e-14)
(2.23187e-13 0 9.48703e-14)
(1.60479e-13 0 9.65139e-14)
(9.69314e-14 0 9.76412e-14)
(3.24997e-14 0 9.83312e-14)
(-3.94042e-05 0 2.46991e-05)
(-9.57016e-05 0 3.66779e-05)
(-0.000145316 0 3.15184e-05)
(-0.000144317 0 7.04496e-05)
(-0.000156914 0 7.08849e-05)
(-0.000158728 0 4.70803e-05)
(-0.000160059 0 3.26753e-05)
(-0.00016702 0 3.28723e-06)
(-0.000181034 0 -2.23623e-05)
(-0.000203398 0 1.10216e-05)
(-0.000220647 0 5.43581e-05)
(-0.000246803 0 0.000115446)
(-0.000307144 0 0.000194571)
(-0.000377535 0 0.000200361)
(-0.000458078 0 0.000179441)
(-0.000530475 0 0.000256954)
(-0.00065683 0 0.000230291)
(-0.000725449 0 0.000247026)
(-0.000795584 0 0.000217548)
(-0.000878644 0 0.000128762)
(-0.000939628 0 0.00014729)
(-0.000995812 0 0.00018742)
(-0.00105682 0 0.000202166)
(-0.00112629 0 0.00017181)
(-0.00118459 0 0.00019253)
(-0.00125031 0 0.000171538)
(-0.00131093 0 0.000155056)
(-0.00135724 0 0.000155192)
(-0.00139864 0 8.64878e-05)
(-0.0014182 0 2.35799e-05)
(-0.00141999 0 -2.49597e-05)
(-0.00141523 0 -0.000104219)
(-0.00140286 0 -0.000173402)
(-0.00132181 0 -0.000284558)
(-0.00125115 0 -0.000284134)
(-0.00122238 0 -0.000185629)
(-0.0011571 0 -0.000224834)
(-0.00108483 0 -0.000199609)
(-0.00102057 0 -0.00022992)
(-0.000961165 0 -0.00021126)
(-0.000860333 0 -0.000312136)
(-0.000784934 0 -0.000287209)
(-0.00071261 0 -0.000253827)
(-0.00059978 0 -0.000326388)
(-0.000530323 0 -0.000235488)
(-0.000369503 0 -0.000287008)
(-0.00035946 0 7.99815e-06)
(-0.000257196 0 -3.60906e-06)
(-0.000319794 0 0.000145846)
(-0.000294242 0 0.000151394)
(-0.000327784 0 0.000157332)
(-0.000398348 0 0.000148696)
(-0.000430258 0 0.000134667)
(-0.000475446 0 6.80283e-05)
(-0.000519736 0 7.52653e-05)
(-0.000564729 0 1.97367e-05)
(-0.000596368 0 6.69231e-06)
(-0.000624101 0 -4.10605e-06)
(-0.000641136 0 -1.17543e-05)
(-0.000646094 0 -1.52565e-05)
(-0.000636743 0 -6.21204e-05)
(-0.000580703 0 -0.000141623)
(-0.000512609 0 -0.000175196)
(-0.000474818 0 -0.000121373)
(-0.000415355 0 -0.000124895)
(-0.000344971 0 -0.000132669)
(-0.000312466 0 -5.33739e-06)
(-0.000201687 0 -8.33722e-05)
(-0.000157591 0 1.06693e-05)
(-0.000104776 0 5.47668e-05)
(-7.55157e-05 0 5.89975e-05)
(-1.89308e-05 0 3.72114e-05)
(-1.16438e-05 0 2.7561e-05)
(1.76709e-05 0 -1.01668e-05)
(2.77633e-05 0 -1.37656e-05)
(6.40063e-05 0 -1.99244e-05)
(3.59093e-05 0 -3.55288e-05)
(0.000354014 0 -6.16758e-05)
(-0.000573814 0 -8.9572e-05)
(5.96054e-06 0 -0.000574221)
(-1.03791e-10 0 2.58907e-11)
(-1.7652e-12 0 4.10589e-13)
(-9.2412e-13 0 1.35466e-13)
(-7.12288e-13 0 -3.07689e-14)
(-6.62551e-13 0 -1.35285e-13)
(-5.77047e-13 0 -2.02116e-13)
(-4.72877e-13 0 -2.43732e-13)
(-3.59261e-13 0 -2.67955e-13)
(-2.41463e-13 0 -2.79842e-13)
(-1.22864e-13 0 -2.82637e-13)
(-5.94474e-15 0 -2.78443e-13)
(1.0727e-13 0 -2.68684e-13)
(2.15026e-13 0 -2.54404e-13)
(3.15771e-13 0 -2.36436e-13)
(4.08165e-13 0 -2.15499e-13)
(4.91111e-13 0 -1.92245e-13)
(5.63783e-13 0 -1.67292e-13)
(6.25657e-13 0 -1.41237e-13)
(6.76514e-13 0 -1.14659e-13)
(7.164e-13 0 -8.8106e-14)
(7.45571e-13 0 -6.20706e-14)
(7.64427e-13 0 -3.69643e-14)
(7.73464e-13 0 -1.31015e-14)
(7.73234e-13 0 9.30235e-15)
(7.64339e-13 0 3.01191e-14)
(7.47424e-13 0 4.9286e-14)
(7.23177e-13 0 6.67831e-14)
(6.92322e-13 0 8.26158e-14)
(6.55596e-13 0 9.68069e-14)
(6.13724e-13 0 1.09396e-13)
(5.67386e-13 0 1.2044e-13)
(5.17197e-13 0 1.30018e-13)
(4.63701e-13 0 1.38221e-13)
(4.07382e-13 0 1.45146e-13)
(3.48678e-13 0 1.5089e-13)
(2.88e-13 0 1.55541e-13)
(2.25742e-13 0 1.59176e-13)
(1.62292e-13 0 1.61858e-13)
(9.80223e-14 0 1.63638e-13)
(3.28646e-14 0 1.64525e-13)
(-9.20758e-05 0 4.05483e-05)
(-9.5271e-05 0 8.54678e-05)
(-0.000117946 0 0.000116006)
(-0.000146237 0 0.000106056)
(-0.000156903 0 9.78099e-05)
(-0.000166252 0 7.52357e-05)
(-0.00016413 0 7.9478e-05)
(-0.000170758 0 8.24836e-05)
(-0.000193957 0 8.91143e-05)
(-0.000214248 0 9.90515e-05)
(-0.00022729 0 0.000124802)
(-0.000251294 0 0.000152847)
(-0.000294758 0 0.00023628)
(-0.000339857 0 0.000304096)
(-0.000422057 0 0.000309763)
(-0.000501595 0 0.000323846)
(-0.000560814 0 0.000345702)
(-0.000631108 0 0.000327164)
(-0.000732836 0 0.000265996)
(-0.000790798 0 0.000289115)
(-0.00084584 0 0.000284132)
(-0.000913667 0 0.000209722)
(-0.000963851 0 0.000204332)
(-0.00101555 0 0.000241882)
(-0.00107546 0 0.000212046)
(-0.00111508 0 0.000222306)
(-0.00114958 0 0.00022846)
(-0.00119077 0 0.000149204)
(-0.00120738 0 0.000131664)
(-0.00121533 0 5.78253e-05)
(-0.00122042 0 -5.1468e-05)
(-0.00121531 0 -0.000131579)
(-0.00119896 0 -0.000239294)
(-0.00119251 0 -0.000285331)
(-0.00117977 0 -0.000266218)
(-0.00116445 0 -0.000250245)
(-0.00116104 0 -0.00012658)
(-0.0010813 0 -0.000309829)
(-0.0010642 0 -0.000167375)
(-0.00101573 0 -0.000204166)
(-0.000930418 0 -0.000390813)
(-0.000879342 0 -0.00033865)
(-0.000812431 0 -0.000341356)
(-0.000760366 0 -0.000334136)
(-0.000672553 0 -0.000333623)
(-0.000520546 0 -0.000353028)
(-0.000400702 0 -0.000296537)
(-0.000426436 0 6.60083e-05)
(-0.000331535 0 7.05889e-05)
(-0.000304756 0 0.000159412)
(-0.000297388 0 0.000206968)
(-0.000354787 0 0.0002054)
(-0.000403865 0 0.000183741)
(-0.000451397 0 0.000123892)
(-0.000519444 0 0.000103308)
(-0.000551645 0 7.91737e-05)
(-0.0005806 0 4.83107e-05)
(-0.000605955 0 3.14222e-05)
(-0.000613305 0 1.8197e-05)
(-0.000603365 0 -5.09431e-05)
(-0.000584362 0 -0.000121917)
(-0.000538343 0 -0.000209506)
(-0.000513995 0 -0.000154292)
(-0.000448611 0 -0.000194033)
(-0.000417826 0 -0.000140145)
(-0.000345956 0 -0.000149382)
(-0.000271432 0 -0.000141927)
(-0.000152984 0 -0.000139024)
(-9.6779e-05 0 -4.32836e-05)
(-1.12075e-05 0 -8.73083e-06)
(5.03118e-05 0 2.48445e-06)
(0.000114168 0 -3.3842e-06)
(0.000136969 0 -2.62548e-06)
(0.000159775 0 -1.14239e-05)
(0.000177367 0 -3.30367e-05)
(0.000183135 0 -8.35885e-05)
(0.000144249 0 -0.000111512)
(0.000344694 0 -0.000117392)
(-0.000467536 0 -1.97721e-05)
(5.82242e-06 0 -0.000579648)
(-1.15775e-10 0 3.28898e-11)
(-1.93978e-12 0 4.37112e-13)
(-1.22362e-12 0 1.21379e-13)
(-8.80493e-13 0 -9.82598e-14)
(-7.66141e-13 0 -2.3394e-13)
(-6.40651e-13 0 -3.16623e-13)
(-5.10554e-13 0 -3.65777e-13)
(-3.79412e-13 0 -3.93041e-13)
(-2.49175e-13 0 -4.05179e-13)
(-1.21264e-13 0 -4.06117e-13)
(2.96337e-15 0 -3.98228e-13)
(1.22101e-13 0 -3.83083e-13)
(2.34717e-13 0 -3.61866e-13)
(3.39428e-13 0 -3.35594e-13)
(4.34982e-13 0 -3.05211e-13)
(5.20326e-13 0 -2.71623e-13)
(5.9466e-13 0 -2.35721e-13)
(6.57481e-13 0 -1.98369e-13)
(7.086e-13 0 -1.60402e-13)
(7.48121e-13 0 -1.22592e-13)
(7.76387e-13 0 -8.56257e-14)
(7.93909e-13 0 -5.00681e-14)
(8.01297e-13 0 -1.63483e-14)
(7.99219e-13 0 1.52418e-14)
(7.88364e-13 0 4.45304e-14)
(7.69441e-13 0 7.14373e-14)
(7.43179e-13 0 9.59445e-14)
(7.10328e-13 0 1.18072e-13)
(6.71647e-13 0 1.37866e-13)
(6.2788e-13 0 1.55393e-13)
(5.79731e-13 0 1.70745e-13)
(5.27833e-13 0 1.84035e-13)
(4.72744e-13 0 1.95396e-13)
(4.1495e-13 0 2.04969e-13)
(3.54882e-13 0 2.12894e-13)
(2.9294e-13 0 2.19299e-13)
(2.29504e-13 0 2.24295e-13)
(1.64941e-13 0 2.27973e-13)
(9.95983e-14 0 2.30398e-13)
(3.33871e-14 0 2.31602e-13)
(-1.68699e-05 0 0.000128504)
(-7.30935e-05 0 0.000132941)
(-0.00014275 0 0.000104331)
(-0.000158078 0 9.38025e-05)
(-0.000159211 0 9.10353e-05)
(-0.000159894 0 6.65211e-05)
(-0.000162878 0 5.14135e-05)
(-0.000170375 0 3.40303e-05)
(-0.000181385 0 4.09259e-05)
(-0.000192458 0 7.91773e-05)
(-0.00022117 0 0.000131125)
(-0.000274225 0 0.000208138)
(-0.000338295 0 0.000272705)
(-0.000398646 0 0.000316031)
(-0.000450232 0 0.00035914)
(-0.000497482 0 0.000394178)
(-0.000550228 0 0.000392786)
(-0.000621069 0 0.000346034)
(-0.000683665 0 0.000287131)
(-0.000751081 0 0.000227025)
(-0.000783673 0 0.000290802)
(-0.00083186 0 0.000291374)
(-0.000872639 0 0.000273289)
(-0.000902074 0 0.000273177)
(-0.000923233 0 0.000297379)
(-0.000960194 0 0.000252193)
(-0.000986412 0 0.000231866)
(-0.000997517 0 0.00020338)
(-0.00100472 0 0.000143602)
(-0.00100379 0 1.83559e-05)
(-0.000998791 0 -1.17378e-06)
(-0.00101424 0 -0.00010535)
(-0.00104518 0 -0.000250345)
(-0.00106852 0 -0.00026699)
(-0.00107509 0 -0.000258639)
(-0.00106577 0 -0.000282911)
(-0.00105645 0 -0.000297494)
(-0.00106821 0 -0.000231649)
(-0.00103236 0 -0.000254469)
(-0.00101145 0 -0.000272302)
(-0.000987559 0 -0.000347192)
(-0.000934828 0 -0.000389955)
(-0.000886791 0 -0.000389229)
(-0.000842904 0 -0.00041003)
(-0.000767417 0 -0.000462844)
(-0.000716608 0 -0.000367561)
(-0.00062379 0 -0.000257195)
(-0.000548647 0 1.80233e-06)
(-0.000412377 0 -7.59483e-05)
(-0.000381177 0 0.000136203)
(-0.000305592 0 0.000249486)
(-0.000320691 0 0.000217089)
(-0.000355509 0 0.000212972)
(-0.000431124 0 0.00018685)
(-0.000486666 0 0.000167792)
(-0.000523306 0 0.000104993)
(-0.00055333 0 4.87343e-05)
(-0.000567476 0 4.16011e-05)
(-0.000567032 0 -1.87345e-05)
(-0.000549905 0 -7.53068e-05)
(-0.000535972 0 -0.000131348)
(-0.000470931 0 -0.000268329)
(-0.000444728 0 -0.000230151)
(-0.000401227 0 -0.000229582)
(-0.000341881 0 -0.000244466)
(-0.000265048 0 -0.000247242)
(-0.000199441 0 -0.000230859)
(-0.000178147 0 -0.000176347)
(-7.15083e-05 0 -0.000171222)
(2.855e-05 0 -0.000117959)
(9.0204e-05 0 -0.00010275)
(0.000155974 0 -8.01471e-05)
(0.000204916 0 -3.72886e-05)
(0.000237488 0 -4.39182e-05)
(0.000241857 0 -4.27308e-05)
(0.000233979 0 -5.77342e-05)
(0.00019583 0 -8.91596e-05)
(0.000256118 0 -6.93405e-05)
(-0.000141073 0 6.07241e-05)
(4.82951e-06 0 -0.000545466)
(-1.14592e-10 0 2.00688e-11)
(-2.08359e-12 0 2.73252e-13)
(-1.53908e-12 0 -2.22494e-14)
(-1.06761e-12 0 -2.50012e-13)
(-8.80914e-13 0 -3.85873e-13)
(-7.08884e-13 0 -4.64877e-13)
(-5.49295e-13 0 -5.09881e-13)
(-3.98663e-13 0 -5.33401e-13)
(-2.54539e-13 0 -5.41887e-13)
(-1.15913e-13 0 -5.38651e-13)
(1.70896e-14 0 -5.25546e-13)
(1.43632e-13 0 -5.03839e-13)
(2.62514e-13 0 -4.74631e-13)
(3.72427e-13 0 -4.39023e-13)
(4.72137e-13 0 -3.98168e-13)
(5.60601e-13 0 -3.53257e-13)
(6.37036e-13 0 -3.05481e-13)
(7.00976e-13 0 -2.56003e-13)
(7.52291e-13 0 -2.0592e-13)
(7.91176e-13 0 -1.56233e-13)
(8.18095e-13 0 -1.07817e-13)
(8.33705e-13 0 -6.13884e-14)
(8.38774e-13 0 -1.74897e-14)
(8.34112e-13 0 2.35102e-14)
(8.20534e-13 0 6.13982e-14)
(7.98838e-13 0 9.60857e-14)
(7.69812e-13 0 1.27572e-13)
(7.34243e-13 0 1.55911e-13)
(6.92918e-13 0 1.81191e-13)
(6.46604e-13 0 2.03523e-13)
(5.96028e-13 0 2.23042e-13)
(5.41848e-13 0 2.39906e-13)
(4.84635e-13 0 2.54292e-13)
(4.2488e-13 0 2.66389e-13)
(3.63008e-13 0 2.76383e-13)
(2.99401e-13 0 2.84446e-13)
(2.34417e-13 0 2.90727e-13)
(1.68394e-13 0 2.95345e-13)
(1.01651e-13 0 2.98384e-13)
(3.40687e-14 0 2.99895e-13)
(-2.33691e-05 0 0.000168062)
(-7.32447e-05 0 0.000171039)
(-0.000116221 0 0.000152499)
(-0.000156529 0 0.000113373)
(-0.000175831 0 8.34749e-05)
(-0.000186964 0 6.26993e-05)
(-0.000188356 0 7.14949e-05)
(-0.000186425 0 9.63687e-05)
(-0.000202775 0 9.08894e-05)
(-0.000226003 0 9.25169e-05)
(-0.000238746 0 0.000167023)
(-0.000268619 0 0.000273843)
(-0.000310436 0 0.000383219)
(-0.000388669 0 0.000413098)
(-0.000470469 0 0.000422653)
(-0.000554003 0 0.000415653)
(-0.000606106 0 0.000395571)
(-0.000604596 0 0.000417495)
(-0.000644056 0 0.000379348)
(-0.000680276 0 0.000353667)
(-0.000717725 0 0.000332036)
(-0.000755711 0 0.000324858)
(-0.000780811 0 0.000322258)
(-0.000798409 0 0.000299913)
(-0.000799669 0 0.000302907)
(-0.000793738 0 0.000308241)
(-0.000794503 0 0.000301782)
(-0.000818235 0 0.000188994)
(-0.000809448 0 0.000150806)
(-0.000825848 0 6.49261e-05)
(-0.000841249 0 -2.02942e-05)
(-0.000848017 0 -0.000112907)
(-0.000884811 0 -0.000147538)
(-0.000914281 0 -0.00023415)
(-0.00094674 0 -0.000239453)
(-0.000981779 0 -0.000204519)
(-0.000991165 0 -0.000230868)
(-0.000984527 0 -0.000291074)
(-0.000982128 0 -0.000329413)
(-0.000989826 0 -0.000343466)
(-0.000990866 0 -0.000360654)
(-0.000963255 0 -0.000425722)
(-0.000925901 0 -0.000467478)
(-0.00092556 0 -0.000455679)
(-0.000905308 0 -0.00049469)
(-0.000897632 0 -0.000398685)
(-0.000783724 0 -0.000335072)
(-0.000660979 0 -0.000282611)
(-0.000611387 0 1.47722e-05)
(-0.000469724 0 1.02942e-05)
(-0.000406205 0 0.000118238)
(-0.00032814 0 0.000255033)
(-0.000323389 0 0.000244055)
(-0.000366397 0 0.000240631)
(-0.000400638 0 0.000207441)
(-0.000417747 0 0.000166127)
(-0.000469558 0 8.37727e-05)
(-0.000495668 0 2.92589e-05)
(-0.000502897 0 -8.50205e-06)
(-0.000495806 0 -9.17119e-05)
(-0.000482878 0 -0.00017748)
(-0.000472219 0 -0.000204728)
(-0.000386359 0 -0.000290665)
(-0.000363595 0 -0.000267452)
(-0.000282102 0 -0.000302783)
(-0.000169229 0 -0.000316856)
(-0.000142473 0 -0.000294474)
(-5.7321e-05 0 -0.000268127)
(1.56542e-05 0 -0.000206955)
(5.39071e-05 0 -0.000198275)
(0.000115616 0 -0.000153818)
(0.000161436 0 -0.00011515)
(0.000196384 0 -0.000105588)
(0.000231183 0 -4.23343e-05)
(0.000233882 0 -2.9109e-05)
(0.000214981 0 -2.60173e-05)
(0.000169453 0 -3.37821e-05)
(-1.57321e-05 0 7.90574e-05)
(-0.00040297 0 0.000142688)
(5.07354e-06 0 -0.000597)
(-1.78592e-10 0 3.9115e-11)
(-2.16887e-12 0 2.41583e-13)
(-1.85732e-12 0 -2.76461e-13)
(-1.24412e-12 0 -4.9373e-13)
(-9.81006e-13 0 -5.94654e-13)
(-7.64659e-13 0 -6.47092e-13)
(-5.79078e-13 0 -6.75421e-13)
(-4.11419e-13 0 -6.88754e-13)
(-2.54426e-13 0 -6.90303e-13)
(-1.04923e-13 0 -6.81091e-13)
(3.77753e-14 0 -6.61553e-13)
(1.73016e-13 0 -6.32212e-13)
(2.99534e-13 0 -5.93899e-13)
(4.15891e-13 0 -5.47763e-13)
(5.20748e-13 0 -4.95192e-13)
(6.13013e-13 0 -4.37707e-13)
(6.91914e-13 0 -3.76862e-13)
(7.57042e-13 0 -3.1416e-13)
(8.08369e-13 0 -2.50994e-13)
(8.46224e-13 0 -1.88608e-13)
(8.71232e-13 0 -1.28068e-13)
(8.84236e-13 0 -7.02376e-14)
(8.86196e-13 0 -1.57669e-14)
(8.78107e-13 0 3.4906e-14)
(8.60939e-13 0 8.15366e-14)
(8.35615e-13 0 1.24041e-13)
(8.03005e-13 0 1.62453e-13)
(7.63947e-13 0 1.96883e-13)
(7.19259e-13 0 2.27484e-13)
(6.69731e-13 0 2.54432e-13)
(6.16113e-13 0 2.77921e-13)
(5.59083e-13 0 2.98167e-13)
(4.99227e-13 0 3.154e-13)
(4.37041e-13 0 3.29858e-13)
(3.7294e-13 0 3.41777e-13)
(3.07285e-13 0 3.51376e-13)
(2.40403e-13 0 3.5884e-13)
(1.72597e-13 0 3.6432e-13)
(1.04148e-13 0 3.67921e-13)
(3.48978e-14 0 3.6971e-13)
(-3.53458e-05 0 0.000186816)
(8.81344e-05 0 0.000301897)
(-3.43317e-05 0 0.000248377)
(-0.000125493 0 0.000178931)
(-0.00017322 0 0.00012696)
(-0.000201995 0 9.38301e-05)
(-0.000211763 0 7.24464e-05)
(-0.000229401 0 3.82872e-05)
(-0.000239025 0 9.09104e-05)
(-0.000254935 0 0.000146838)
(-0.000295166 0 0.000187349)
(-0.000321129 0 0.000281566)
(-0.000325204 0 0.000421387)
(-0.000371484 0 0.000484748)
(-0.000420729 0 0.000514483)
(-0.00045083 0 0.000542567)
(-0.000510276 0 0.000524524)
(-0.000543673 0 0.000502662)
(-0.000616503 0 0.000420266)
(-0.000648285 0 0.000391067)
(-0.000678331 0 0.000360482)
(-0.000700844 0 0.000338263)
(-0.000708431 0 0.00032926)
(-0.000702493 0 0.000320352)
(-0.000693908 0 0.000316517)
(-0.000717417 0 0.000228553)
(-0.000688451 0 0.000208904)
(-0.000657666 0 0.000213318)
(-0.000662046 0 0.00011095)
(-0.000667035 0 6.87163e-05)
(-0.000690567 0 4.42936e-06)
(-0.000705447 0 -4.61734e-05)
(-0.000733008 0 -0.000139822)
(-0.000780698 0 -0.000193991)
(-0.000822893 0 -0.00021741)
(-0.000851802 0 -0.000229322)
(-0.000877553 0 -0.000233502)
(-0.000921803 0 -0.000194546)
(-0.000964869 0 -0.000219343)
(-0.000989894 0 -0.000307178)
(-0.000990125 0 -0.000378957)
(-0.000981471 0 -0.000425957)
(-0.000989894 0 -0.000441836)
(-0.000990115 0 -0.000474271)
(-0.000996988 0 -0.000480531)
(-0.00099105 0 -0.00047103)
(-0.000946225 0 -0.000397288)
(-0.000878928 0 -0.000218189)
(-0.000734911 0 -0.000165566)
(-0.000619049 0 -5.11434e-05)
(-0.000503644 0 7.95242e-05)
(-0.000402731 0 0.000150755)
(-0.000336563 0 0.000225941)
(-0.000312757 0 0.000267106)
(-0.000298787 0 0.000219727)
(-0.000296025 0 0.000172608)
(-0.000344309 0 0.000118525)
(-0.000366313 0 8.47338e-05)
(-0.000389195 0 2.031e-06)
(-0.000425555 0 -7.17705e-05)
(-0.000398608 0 -0.000221407)
(-0.000381847 0 -0.000296512)
(-0.000320899 0 -0.000350316)
(-0.000291615 0 -0.000363814)
(-0.000257377 0 -0.000386099)
(-0.000195093 0 -0.000376607)
(-0.000147835 0 -0.000362365)
(-7.48137e-05 0 -0.000338308)
(2.48589e-05 0 -0.000284566)
(8.54925e-05 0 -0.000253498)
(0.000146375 0 -0.000201927)
(0.000201159 0 -0.000138219)
(0.000227206 0 -0.000108416)
(0.000234433 0 -6.46525e-05)
(0.000230347 0 -6.39928e-06)
(0.000216414 0 1.2086e-05)
(0.000170419 0 3.33302e-05)
(0.000172495 0 7.9085e-05)
(-0.000398705 0 0.000136369)
(4.21723e-06 0 -0.000510719)
(-6.92408e-11 0 -1.61471e-09)
(-2.50253e-12 0 -1.4253e-12)
(-2.43165e-12 0 -8.6089e-13)
(-1.3858e-12 0 -8.53573e-13)
(-1.03428e-12 0 -8.51641e-13)
(-7.89651e-13 0 -8.53148e-13)
(-5.90957e-13 0 -8.55719e-13)
(-4.13545e-13 0 -8.55685e-13)
(-2.46877e-13 0 -8.49311e-13)
(-8.71631e-14 0 -8.33732e-13)
(6.59694e-14 0 -8.0729e-13)
(2.11286e-13 0 -7.69532e-13)
(3.46963e-13 0 -7.21e-13)
(4.71134e-13 0 -6.6296e-13)
(5.82193e-13 0 -5.97143e-13)
(6.7893e-13 0 -5.25511e-13)
(7.60583e-13 0 -4.50073e-13)
(8.26844e-13 0 -3.72745e-13)
(8.77843e-13 0 -2.95268e-13)
(9.14102e-13 0 -2.19154e-13)
(9.36465e-13 0 -1.45668e-13)
(9.46006e-13 0 -7.58102e-14)
(9.43917e-13 0 -1.03227e-14)
(9.31416e-13 0 5.03073e-14)
(9.09669e-13 0 1.05823e-13)
(8.79754e-13 0 1.56163e-13)
(8.42654e-13 0 2.01417e-13)
(7.99274e-13 0 2.41773e-13)
(7.50466e-13 0 2.77473e-13)
(6.97041e-13 0 3.08785e-13)
(6.39764e-13 0 3.35986e-13)
(5.79326e-13 0 3.59362e-13)
(5.16326e-13 0 3.79205e-13)
(4.51258e-13 0 3.95812e-13)
(3.84526e-13 0 4.09471e-13)
(3.16464e-13 0 4.20444e-13)
(2.4736e-13 0 4.2896e-13)
(1.77474e-13 0 4.35199e-13)
(1.07041e-13 0 4.39291e-13)
(3.58576e-14 0 4.4132e-13)
(-0.000190803 0 0.000188017)
(-0.000301386 0 0.000156453)
(-0.000178974 0 0.000240344)
(-0.000212383 0 0.000170279)
(-0.00020091 0 0.000164332)
(-0.000210099 0 0.000146906)
(-0.000263976 0 5.49522e-05)
(-0.0002741 0 0.000104322)
(-0.000282823 0 0.000134432)
(-0.000315571 0 0.000122795)
(-0.000324798 0 0.000270027)
(-0.000373314 0 0.000303836)
(-0.000388654 0 0.000400501)
(-0.000393947 0 0.000497348)
(-0.000430966 0 0.000530203)
(-0.000451389 0 0.000552557)
(-0.00051029 0 0.000521433)
(-0.000546691 0 0.000489383)
(-0.000564997 0 0.0004639)
(-0.000603088 0 0.000416209)
(-0.000634279 0 0.0003789)
(-0.000643164 0 0.000365824)
(-0.000650642 0 0.000333148)
(-0.000644438 0 0.000285313)
(-0.00063631 0 0.000264641)
(-0.000602914 0 0.000317063)
(-0.000616421 0 0.000199008)
(-0.000569807 0 0.000207265)
(-0.000571553 0 0.000119557)
(-0.000564097 0 9.79012e-05)
(-0.00057737 0 3.93631e-05)
(-0.000605279 0 -4.2797e-05)
(-0.000638358 0 -0.000111275)
(-0.000686684 0 -0.000136011)
(-0.000728141 0 -0.000160173)
(-0.000758455 0 -0.000176431)
(-0.00077141 0 -0.000197803)
(-0.000772789 0 -0.000228666)
(-0.000814862 0 -0.000261582)
(-0.000907821 0 -0.000291466)
(-0.0009498 0 -0.000368198)
(-0.000970097 0 -0.000435291)
(-0.00100804 0 -0.000433918)
(-0.0010219 0 -0.000464128)
(-0.00104343 0 -0.000471084)
(-0.0010554 0 -0.00046709)
(-0.0010534 0 -0.000445838)
(-0.000983745 0 -0.000372847)
(-0.000877361 0 -0.000281581)
(-0.000776143 0 -9.42192e-05)
(-0.000635087 0 -4.32899e-05)
(-0.000508901 0 9.75299e-05)
(-0.000394857 0 0.000156852)
(-0.00030805 0 0.000226202)
(-0.00028565 0 0.000194545)
(-0.000251542 0 0.000168468)
(-0.000253067 0 0.000142969)
(-0.000273153 0 9.85092e-05)
(-0.000298145 0 3.0699e-05)
(-0.000302286 0 -5.11687e-05)
(-0.000315724 0 -0.000173217)
(-0.000337676 0 -0.000298598)
(-0.000325402 0 -0.000356384)
(-0.000308896 0 -0.000376592)
(-0.000276055 0 -0.000407911)
(-0.000208182 0 -0.000436184)
(-0.000137261 0 -0.000424885)
(-8.78912e-05 0 -0.000410543)
(-2.19652e-06 0 -0.000377126)
(9.19027e-05 0 -0.000311426)
(0.000157873 0 -0.000265744)
(0.000225231 0 -0.000195027)
(0.000264327 0 -0.000119867)
(0.000266114 0 -5.59828e-05)
(0.000249998 0 -5.55519e-06)
(0.000229571 0 5.01648e-05)
(0.000196479 0 9.13898e-05)
(0.000267226 0 0.000118028)
(-0.000161719 0 0.000109417)
(7.65901e-06 0 -0.000352936)
(-9.80399e-13 0 -3.73109e-12)
(-2.34588e-12 0 -2.37188e-12)
(-1.5104e-12 0 -1.428e-12)
(-1.23487e-12 0 -1.20766e-12)
(-9.80581e-13 0 -1.10477e-12)
(-7.68737e-13 0 -1.05777e-12)
(-5.81615e-13 0 -1.03831e-12)
(-4.05011e-13 0 -1.02869e-12)
(-2.32473e-13 0 -1.01731e-12)
(-6.2902e-14 0 -9.97066e-13)
(1.01975e-13 0 -9.6423e-13)
(2.59307e-13 0 -9.17572e-13)
(4.06106e-13 0 -8.57603e-13)
(5.39748e-13 0 -7.85967e-13)
(6.58197e-13 0 -7.04961e-13)
(7.60083e-13 0 -6.17174e-13)
(8.4468e-13 0 -5.25207e-13)
(9.11847e-13 0 -4.31494e-13)
(9.6196e-13 0 -3.38187e-13)
(9.95824e-13 0 -2.47099e-13)
(1.01458e-12 0 -1.59698e-13)
(1.01958e-12 0 -7.71094e-14)
(1.01231e-12 0 -1.33681e-16)
(9.94252e-13 0 7.07268e-14)
(9.66795e-13 0 1.35236e-13)
(9.31208e-13 0 1.93386e-13)
(8.88614e-13 0 2.45344e-13)
(8.40004e-13 0 2.91402e-13)
(7.86272e-13 0 3.31917e-13)
(7.28244e-13 0 3.67273e-13)
(6.66689e-13 0 3.97852e-13)
(6.02301e-13 0 4.24033e-13)
(5.35678e-13 0 4.46185e-13)
(4.67307e-13 0 4.64668e-13)
(3.97572e-13 0 4.79826e-13)
(3.26774e-13 0 4.9197e-13)
(2.55157e-13 0 5.0137e-13)
(1.82928e-13 0 5.08239e-13)
(1.10269e-13 0 5.12733e-13)
(3.6927e-14 0 5.14956e-13)
(-0.000138238 0 0.000354222)
(-9.61299e-05 0 0.000371137)
(-0.000170612 0 0.000283568)
(-0.000239286 0 0.000209435)
(-0.000285016 0 0.000138661)
(-0.000288842 0 0.000111775)
(-0.000304391 0 9.12148e-05)
(-0.000307374 0 0.000152721)
(-0.000341062 0 0.000147842)
(-0.000368585 0 0.000159706)
(-0.000375285 0 0.000254304)
(-0.00039869 0 0.00035018)
(-0.000391827 0 0.000457137)
(-0.000385078 0 0.000532383)
(-0.000419059 0 0.000558922)
(-0.000438908 0 0.000575488)
(-0.000456801 0 0.000568465)
(-0.000490372 0 0.000534648)
(-0.000543782 0 0.000463723)
(-0.00054807 0 0.000439752)
(-0.000559936 0 0.000413875)
(-0.000566139 0 0.000389999)
(-0.000577859 0 0.000358528)
(-0.000622368 0 0.000253982)
(-0.00059772 0 0.000244578)
(-0.000545137 0 0.000286559)
(-0.000530929 0 0.000247522)
(-0.000533473 0 0.000157833)
(-0.000503118 0 0.00014835)
(-0.000506328 0 8.09146e-05)
(-0.000511987 0 4.04219e-05)
(-0.000548473 0 -4.51945e-05)
(-0.000577813 0 -8.59606e-05)
(-0.000602333 0 -0.000121672)
(-0.000622794 0 -0.00014996)
(-0.000646028 0 -0.000171591)
(-0.000663489 0 -0.000178017)
(-0.000677677 0 -0.000149222)
(-0.000711775 0 -0.000153439)
(-0.000795349 0 -0.000188199)
(-0.000845283 0 -0.000305018)
(-0.00089884 0 -0.000414098)
(-0.00101251 0 -0.000360928)
(-0.0010236 0 -0.000456712)
(-0.00105679 0 -0.000462675)
(-0.00107603 0 -0.000468161)
(-0.00108079 0 -0.00047351)
(-0.00106725 0 -0.000448227)
(-0.000993803 0 -0.00039819)
(-0.000901732 0 -0.000313784)
(-0.000807306 0 -0.000145948)
(-0.000663801 0 -5.32644e-05)
(-0.000521864 0 5.06527e-05)