0.010101 	-4.05431e-17 	4.11972e-20 	-3.83708e-19
0.020202 	-2.06034e-18 	4.56229e-21 	-1.6915e-20
