/*--------------------------------*- C++ -*----------------------------------*\
  =========                 |
  \\      /  F ield         | OpenFOAM: The Open Source CFD Toolbox
   \\    /   O peration     | Website:  https://openfoam.org
    \\  /    A nd           | Version:  6
     \\/     M anipulation  |
\*---------------------------------------------------------------------------*/
FoamFile
{
    version     2.0;
    format      ascii;
    class       volVectorField;
    location    "3000";
    object      U;
}
// * * * * * * * * * * * * * * * * * * * * * * * * * * * * * * * * * * * * * //

dimensions      [0 1 -1 0 0 0 0];

internalField   nonuniform List<vector> 
4800
(
(9.94975e-06 0 -2.89387e-05)
(8.08046e-05 0 -2.73142e-05)
(0.000103142 0 -2.22596e-05)
(9.87e-05 0 -6.34942e-05)
(6.19903e-05 0 -0.000112181)
(4.89526e-06 0 -8.3375e-05)
(-3.84639e-05 0 -5.74865e-05)
(-0.00010358 0 -0.000105247)
(-0.000180039 0 -6.30707e-05)
(-0.000251009 0 -3.17137e-05)
(-0.000287775 0 -4.23324e-05)
(-0.000205055 0 -0.000156509)
(-0.000162624 0 3.00001e-05)
(-7.64251e-06 0 -7.08834e-06)
(0.000125054 0 2.20728e-05)
(0.000252892 0 -3.49724e-06)
(0.00039625 0 -0.000209687)
(0.000671511 0 -0.000108863)
(0.000905869 0 -2.40395e-05)
(0.00105642 0 -7.77576e-05)
(0.00118089 0 -0.000147793)
(0.00134717 0 -0.000133021)
(0.00156199 0 -4.17896e-05)
(0.00176168 0 -4.41762e-05)
(0.00186441 0 -0.000117311)
(0.00196354 0 -9.96572e-05)
(0.00212388 0 -2.11854e-05)
(0.00229073 0 -0.000102695)
(0.00230178 0 -0.000102922)
(0.0023115 0 -8.83931e-05)
(0.00235587 0 -0.000101949)
(0.00243574 0 -9.00229e-05)
(0.00247432 0 -2.40684e-05)
(0.00247244 0 -2.52023e-05)
(0.00246722 0 -2.88612e-05)
(0.00244894 0 -3.18034e-05)
(0.00242944 0 -2.13558e-05)
(0.002429 0 1.04698e-06)
(0.00242583 0 2.51398e-05)
(0.0024086 0 3.0049e-05)
(0.00240204 0 -6.41096e-06)
(0.00241458 0 -2.47807e-05)
(0.00244399 0 -5.60061e-05)
(0.00247906 0 -7.55633e-05)
(0.00251585 0 -6.9907e-05)
(0.00255085 0 -7.77245e-05)
(0.00258417 0 -0.000155289)
(0.00262467 0 -9.42408e-05)
(0.00265646 0 -8.25612e-06)
(0.00269107 0 -2.89709e-06)
(0.00274123 0 -1.65927e-05)
(0.00274577 0 -2.20782e-05)
(0.00273272 0 5.61454e-06)
(0.00269277 0 -2.65549e-05)
(0.00261948 0 -6.90681e-05)
(0.00253738 0 0.000116787)
(0.00246745 0 6.95119e-05)
(0.00234657 0 5.77347e-05)
(0.0021391 0 0.000357895)
(0.0019864 0 0.00014222)
(0.00162273 0 -0.000231167)
(0.00104284 0 -0.000214272)
(0.000754414 0 -0.000104104)
(0.000536279 0 1.2296e-05)
(0.000328884 0 8.06435e-05)
(0.000170932 0 3.82096e-05)
(6.11331e-05 0 1.79081e-05)
(8.67286e-06 0 4.70341e-06)
(-3.49963e-07 0 -2.70284e-05)
(2.21876e-05 0 -6.44013e-05)
(6.17435e-05 0 -5.40546e-06)
(8.50878e-05 0 8.63463e-06)
(8.54057e-05 0 -2.33659e-05)
(5.00334e-05 0 -4.69078e-05)
(-9.76211e-05 0 -5.38584e-05)
(-0.000249364 0 4.45427e-05)
(-0.000187991 0 -5.99914e-05)
(-0.00019659 0 -6.75726e-05)
(-0.000158892 0 -4.41893e-05)
(-0.000145219 0 -3.15621e-05)
(-0.00013561 0 -3.03181e-05)
(-0.000108077 0 -4.73868e-05)
(-9.86613e-08 0 -9.09373e-05)
(-8.54041e-13 0 3.85606e-14)
(-1.68393e-12 0 -5.17021e-15)
(-1.6498e-12 0 -2.83299e-14)
(-1.57737e-12 0 -4.37575e-14)
(-1.47937e-12 0 -5.49821e-14)
(-1.36167e-12 0 -6.34865e-14)
(-1.22884e-12 0 -6.99076e-14)
(-1.08494e-12 0 -7.44426e-14)
(-9.33681e-13 0 -7.72143e-14)
(-7.78438e-13 0 -7.83674e-14)
(-6.22393e-13 0 -7.79954e-14)
(-4.68494e-13 0 -7.6218e-14)
(-3.19426e-13 0 -7.31794e-14)
(-1.77557e-13 0 -6.9043e-14)
(-4.49161e-14 0 -6.39822e-14)
(7.68336e-14 0 -5.81743e-14)
(1.86412e-13 0 -5.17972e-14)
(2.82913e-13 0 -4.50248e-14)
(3.65779e-13 0 -3.80208e-14)
(4.34765e-13 0 -3.09354e-14)
(4.89903e-13 0 -2.39049e-14)
(5.3146e-13 0 -1.70491e-14)
(5.59891e-13 0 -1.04671e-14)
(5.75805e-13 0 -4.23679e-15)
(5.79937e-13 0 1.58294e-15)
(5.73118e-13 0 6.94741e-15)
(5.56226e-13 0 1.18243e-14)
(5.30158e-13 0 1.61952e-14)
(4.95811e-13 0 2.00574e-14)
(4.54095e-13 0 2.34238e-14)
(4.05946e-13 0 2.63194e-14)
(3.52334e-13 0 2.87745e-14)
(2.94235e-13 0 3.08188e-14)
(2.326e-13 0 3.2478e-14)
(1.68295e-13 0 3.3777e-14)
(1.02043e-13 0 3.47625e-14)
(3.42546e-14 0 3.56011e-14)
(-2.3201e-05 0 -0.000152004)
(8.8952e-05 0 -7.72063e-05)
(0.000126565 0 -3.95655e-06)
(7.6425e-05 0 6.02715e-05)
(-5.80622e-06 0 0.000107076)
(-1.14963e-05 0 0.000128965)
(-5.13373e-05 0 9.45755e-05)
(-8.99776e-05 0 0.000116746)
(-9.71177e-05 0 0.00016351)
(-0.000134895 0 0.000147348)
(-0.000169384 0 -4.07977e-06)
(-0.000172051 0 -0.00012397)
(1.86677e-05 0 -0.000222784)
(0.000141171 0 -0.000393845)
(0.000311721 0 -8.50553e-05)
(0.000418703 0 -0.000238124)
(0.000554401 0 -0.000534206)
(0.000872764 0 -0.000275394)
(0.00104993 0 -0.000273222)
(0.00121099 0 -0.000326974)
(0.00139446 0 -0.000248886)
(0.00153756 0 -0.000318754)
(0.00166756 0 -0.000336204)
(0.00181598 0 -0.000242608)
(0.00193375 0 -0.000225199)
(0.00199935 0 -0.000212859)
(0.00208333 0 -0.000104875)
(0.00220144 0 -0.000162332)
(0.00229503 0 -0.000144586)
(0.00233069 0 -7.38141e-05)
(0.00237095 0 -4.32217e-05)
(0.00239885 0 -5.09093e-06)
(0.00238994 0 -4.3e-06)
(0.00236689 0 4.08518e-05)
(0.00234272 0 8.23098e-05)
(0.00232167 0 5.28371e-05)
(0.00231304 0 1.647e-05)
(0.0023164 0 2.67646e-06)
(0.00232849 0 -1.60046e-05)
(0.0023258 0 -1.77721e-05)
(0.00232596 0 -1.62962e-05)
(0.00234761 0 -1.28535e-05)
(0.00240765 0 -1.09268e-05)
(0.00247474 0 -3.96264e-05)
(0.00252549 0 -3.89873e-05)
(0.00257682 0 -6.3203e-05)
(0.00263444 0 -2.71799e-05)
(0.00267115 0 -6.75246e-06)
(0.0026866 0 -9.44205e-05)
(0.00271147 0 -0.000130753)
(0.00273807 0 -1.69752e-05)
(0.00273605 0 8.72684e-06)
(0.00272034 0 2.16999e-05)
(0.00267947 0 9.92633e-05)
(0.00258933 0 0.000194329)
(0.00247843 0 6.4134e-05)
(0.00240106 0 0.000156632)
(0.00226787 0 0.00024614)
(0.00200135 0 -0.000128744)
(0.00185675 0 0.000202678)
(0.0017543 0 0.00063586)
(0.00157102 0 0.000692565)
(0.00114501 0 0.000591466)
(0.000727158 0 0.000383776)
(0.000545894 0 0.000234295)
(0.000369399 0 0.000174287)
(0.000230138 0 0.000108811)
(0.000160297 0 3.26346e-05)
(0.000137595 0 3.63337e-06)
(0.000136613 0 -2.92209e-05)
(0.000142085 0 -5.47658e-05)
(0.000175393 0 -7.15586e-05)
(0.000210067 0 4.54212e-05)
(0.000203192 0 0.000108943)
(0.0002027 0 7.4301e-05)
(0.000178718 0 7.89539e-05)
(-1.52533e-05 0 0.000132757)
(-7.22848e-06 0 4.58594e-05)
(-5.54091e-05 0 8.1435e-06)
(-8.25982e-05 0 -4.66061e-06)
(-8.53876e-05 0 -2.62369e-05)
(-5.39873e-05 0 -7.44005e-05)
(-1.23367e-07 0 -9.18271e-05)
(-8.71153e-13 0 4.81729e-14)
(-1.75043e-12 0 -3.79406e-14)
(-1.68801e-12 0 -9.41184e-14)
(-1.60367e-12 0 -1.35586e-13)
(-1.49875e-12 0 -1.67592e-13)
(-1.37626e-12 0 -1.92565e-13)
(-1.23955e-12 0 -2.1162e-13)
(-1.09217e-12 0 -2.25125e-13)
(-9.37606e-13 0 -2.33379e-13)
(-7.79219e-13 0 -2.3675e-13)
(-6.20243e-13 0 -2.35521e-13)
(-4.63679e-13 0 -2.30052e-13)
(-3.12251e-13 0 -2.20774e-13)
(-1.6836e-13 0 -2.08172e-13)
(-3.40473e-14 0 -1.92767e-13)
(8.90186e-14 0 -1.75095e-13)
(1.99561e-13 0 -1.55697e-13)
(2.9669e-13 0 -1.35105e-13)
(3.79869e-13 0 -1.13824e-13)
(4.48881e-13 0 -9.23196e-14)
(5.03789e-13 0 -7.10115e-14)
(5.44898e-13 0 -5.02613e-14)
(5.72704e-13 0 -3.03692e-14)
(5.87855e-13 0 -1.15762e-14)
(5.91121e-13 0 5.93075e-15)
(5.83359e-13 0 2.20147e-14)
(5.65474e-13 0 3.65925e-14)
(5.38391e-13 0 4.96383e-14)
(5.0304e-13 0 6.11805e-14)
(4.60357e-13 0 7.12863e-14)
(4.11297e-13 0 8.00399e-14)
(3.56833e-13 0 8.75193e-14)
(2.97939e-13 0 9.37823e-14)
(2.35558e-13 0 9.88632e-14)
(1.7058e-13 0 1.02781e-13)
(1.03867e-13 0 1.05562e-13)
(3.50932e-14 0 1.07301e-13)
(-1.54241e-05 0 -0.000179938)
(4.09309e-05 0 -8.48605e-05)
(3.4928e-05 0 2.85397e-05)
(2.74812e-05 0 9.71203e-05)
(-6.27741e-06 0 0.000108784)
(-7.69186e-06 0 8.48463e-05)
(-3.64288e-06 0 6.49457e-05)
(-1.97513e-06 0 5.09608e-05)
(1.71053e-05 0 9.19256e-05)
(2.97382e-05 0 0.000134674)
(0.000126373 0 -2.12035e-05)
(0.000310419 0 -0.000152637)
(0.00050934 0 -0.000201427)
(0.000366982 0 -0.000644416)
(0.000752488 0 -0.000448207)
(0.00089153 0 -0.000433878)
(0.000921975 0 -0.000737027)
(0.00115154 0 -0.000606017)
(0.00129907 0 -0.000536539)
(0.0014375 0 -0.000476809)
(0.00158074 0 -0.000342175)
(0.00168418 0 -0.000447324)
(0.00179338 0 -0.000462192)
(0.00187358 0 -0.000298468)
(0.00195377 0 -0.000140824)
(0.00200314 0 -0.000378991)
(0.00208866 0 -0.000342558)
(0.00213882 0 -0.000173095)
(0.00213548 0 -0.000161005)
(0.00213355 0 -0.000135362)
(0.00214972 0 -0.000113427)
(0.00219661 0 -8.24637e-05)
(0.00222056 0 -3.30742e-05)
(0.00220991 0 -2.97017e-05)
(0.00217331 0 4.38251e-06)
(0.00215916 0 3.21634e-05)
(0.00216386 0 9.82596e-06)
(0.00217863 0 4.28532e-06)
(0.00221724 0 4.45896e-05)
(0.00226873 0 2.25018e-05)
(0.00231154 0 -4.37059e-05)
(0.00234523 0 -0.000130462)
(0.00238265 0 -0.000106717)
(0.00242175 0 -0.00012432)
(0.00245293 0 -0.000206153)
(0.00246639 0 -0.000121058)
(0.00247721 0 -0.000105178)
(0.00250655 0 -8.81468e-05)
(0.00254966 0 -4.26844e-05)
(0.00256714 0 2.573e-06)
(0.00255807 0 -2.37283e-05)
(0.00254843 0 1.13775e-06)
(0.0025402 0 6.17041e-05)
(0.00251051 0 0.00013475)
(0.00244127 0 0.000129228)
(0.00234344 0 0.000145513)
(0.00225799 0 0.000423495)
(0.00219153 0 0.000476711)
(0.00205728 0 0.000379118)
(0.00175067 0 0.000659762)
(0.00167304 0 0.000803133)
(0.00162421 0 0.000787187)
(0.00132002 0 0.000784319)
(0.000955612 0 0.000604503)
(0.000681263 0 0.000511202)
(0.000489829 0 0.000421681)
(0.000382578 0 0.000253287)
(0.000302851 0 0.000105826)
(0.000260448 0 1.40721e-05)
(0.000262213 0 -1.6244e-05)
(0.000265091 0 -3.30761e-05)
(0.000264333 0 -7.63962e-06)
(0.000276306 0 -1.48253e-05)
(0.000301454 0 6.47246e-05)
(0.000297696 0 0.00015714)
(0.000288496 0 0.000155702)
(0.000220597 0 0.000149572)
(0.000248455 0 4.96797e-06)
(6.70878e-05 0 4.41625e-05)
(-3.30726e-05 0 4.41774e-05)
(-5.92831e-05 0 -1.58405e-05)
(-3.3269e-05 0 -0.000113092)
(-1.46832e-07 0 -0.000159041)
(-8.96299e-13 0 -1.00124e-14)
(-1.82545e-12 0 -1.00843e-13)
(-1.7467e-12 0 -1.75648e-13)
(-1.65014e-12 0 -2.36883e-13)
(-1.53566e-12 0 -2.87063e-13)
(-1.40504e-12 0 -3.27476e-13)
(-1.26093e-12 0 -3.58718e-13)
(-1.10655e-12 0 -3.80948e-13)
(-9.45306e-13 0 -3.94479e-13)
(-7.8058e-13 0 -3.9978e-13)
(-6.15695e-13 0 -3.97318e-13)
(-4.53747e-13 0 -3.87695e-13)
(-2.97546e-13 0 -3.7164e-13)
(-1.4955e-13 0 -3.49982e-13)
(-1.1839e-14 0 -3.23613e-13)
(1.13904e-13 0 -2.93452e-13)
(2.26402e-13 0 -2.60432e-13)
(3.24787e-13 0 -2.25463e-13)
(4.08564e-13 0 -1.89408e-13)
(4.77577e-13 0 -1.53061e-13)
(5.31961e-13 0 -1.17126e-13)
(5.72103e-13 0 -8.22111e-14)
(5.98576e-13 0 -4.88152e-14)
(6.12105e-13 0 -1.73366e-14)
(6.13528e-13 0 1.19215e-14)
(6.03779e-13 0 3.87503e-14)
(5.8385e-13 0 6.30399e-14)
(5.54746e-13 0 8.47798e-14)
(5.17459e-13 0 1.04044e-13)
(4.72954e-13 0 1.20956e-13)
(4.22179e-13 0 1.35651e-13)
(3.66076e-13 0 1.48237e-13)
(3.05579e-13 0 1.58777e-13)
(2.41598e-13 0 1.6729e-13)
(1.74994e-13 0 1.73756e-13)
(1.06563e-13 0 1.78127e-13)
(3.5993e-14 0 1.80286e-13)
(-4.63717e-05 0 -0.000169425)
(-1.08851e-05 0 -2.81365e-05)
(-3.31175e-05 0 4.18527e-05)
(2.56771e-06 0 9.25689e-05)
(1.62091e-05 0 7.2865e-05)
(9.78942e-05 0 6.49126e-05)
(0.000134664 0 3.31211e-05)
(0.000170431 0 4.97018e-05)
(0.000192719 0 0.000110856)
(0.000311737 0 -8.14957e-05)
(0.000417862 0 -0.000292975)
(0.000565085 0 -0.000473976)
(0.000717883 0 -0.000525525)
(0.00108491 0 -0.000184508)
(0.000950718 0 -0.000870257)
(0.00128397 0 -0.000395187)
(0.00139133 0 -0.000479028)
(0.00136208 0 -0.00081815)
(0.0015356 0 -0.000552286)
(0.0016205 0 -0.000438812)
(0.0016527 0 -0.000513691)
(0.00174649 0 -0.000482568)
(0.00183719 0 -0.000470545)
(0.00187342 0 -0.000409492)
(0.00191308 0 -0.000373044)
(0.00197074 0 -0.000224856)
(0.00195915 0 -0.000217752)
(0.00193657 0 -0.000209166)
(0.00193943 0 -0.00018212)
(0.00193486 0 -0.000154757)
(0.00191541 0 -0.000149478)
(0.00190259 0 -1.21735e-05)
(0.00190712 0 4.20855e-05)
(0.00193629 0 6.93322e-05)
(0.00195734 0 6.99748e-05)
(0.00195748 0 5.94784e-05)
(0.00197015 0 2.69283e-05)
(0.00199976 0 -1.13819e-05)
(0.00202701 0 -4.45377e-05)
(0.00205062 0 -0.000115841)
(0.00208415 0 -0.000124717)
(0.00212154 0 -9.35647e-05)
(0.0021445 0 -0.000132299)
(0.00216659 0 -0.000115378)
(0.0021891 0 -8.526e-05)
(0.00220002 0 -0.000144442)
(0.00221522 0 -0.000168666)
(0.0022502 0 -5.58591e-05)
(0.00225278 0 -0.000198429)
(0.0022748 0 -9.6133e-05)
(0.00227391 0 -2.77217e-05)
(0.00227617 0 1.47429e-05)
(0.0023019 0 9.57895e-05)
(0.00229407 0 0.000159479)
(0.00226168 0 0.000246186)
(0.0022195 0 8.54057e-05)
(0.00213332 0 0.00038434)
(0.00205607 0 0.000631963)
(0.00197257 0 0.000583822)
(0.0018403 0 0.000440504)
(0.001605 0 0.000916084)
(0.00152374 0 0.00101333)
(0.00134862 0 0.00104687)
(0.00107986 0 0.00094574)
(0.000836644 0 0.000757337)
(0.000675749 0 0.000495914)
(0.000491432 0 0.000345528)
(0.000380318 0 0.00019512)
(0.000327792 0 3.55869e-06)
(0.000331386 0 -7.25938e-05)
(0.000370484 0 -3.53009e-05)
(0.000383496 0 -8.61784e-05)
(0.000400705 0 -2.56397e-05)
(0.000421195 0 -7.95308e-06)
(0.000415303 0 9.16949e-05)
(0.000392402 0 0.000159199)
(0.000331502 0 0.000231922)
(0.000244179 0 0.000257299)
(5.04094e-05 0 0.000190966)
(2.26938e-05 0 0.000115543)
(-4.14725e-05 0 5.07697e-06)
(-1.19091e-05 0 -0.000106567)
(-1.25461e-07 0 -0.000187906)
(-9.50222e-13 0 -6.57343e-14)
(-1.9153e-12 0 -1.77904e-13)
(-1.82332e-12 0 -2.70162e-13)
(-1.71439e-12 0 -3.4903e-13)
(-1.58868e-12 0 -4.16131e-13)
(-1.44729e-12 0 -4.71391e-13)
(-1.29258e-12 0 -5.14518e-13)
(-1.1278e-12 0 -5.45222e-13)
(-9.56438e-13 0 -5.63699e-13)
(-7.82058e-13 0 -5.70442e-13)
(-6.08159e-13 0 -5.6609e-13)
(-4.38001e-13 0 -5.51507e-13)
(-2.74538e-13 0 -5.27758e-13)
(-1.20332e-13 0 -4.96063e-13)
(2.24827e-14 0 -4.57741e-13)
(1.52199e-13 0 -4.14151e-13)
(2.67551e-13 0 -3.66648e-13)
(3.67714e-13 0 -3.16549e-13)
(4.52271e-13 0 -2.65087e-13)
(5.21162e-13 0 -2.13383e-13)
(5.74639e-13 0 -1.62424e-13)
(6.13209e-13 0 -1.13048e-13)
(6.37578e-13 0 -6.59378e-14)
(6.48592e-13 0 -2.16206e-14)
(6.47208e-13 0 1.95197e-14)
(6.34477e-13 0 5.72308e-14)
(6.11504e-13 0 9.13861e-14)
(5.79395e-13 0 1.21976e-13)
(5.39216e-13 0 1.4909e-13)
(4.91964e-13 0 1.72878e-13)
(4.38578e-13 0 1.93505e-13)
(3.7996e-13 0 2.1111e-13)
(3.16992e-13 0 2.25785e-13)
(2.50537e-13 0 2.37562e-13)
(1.81417e-13 0 2.46426e-13)
(1.10397e-13 0 2.52331e-13)
(3.7252e-14 0 2.55213e-13)
(-6.485e-05 0 -0.000168422)
(-4.70566e-05 0 -5.14365e-05)
(5.40697e-06 0 2.92007e-05)
(2.52784e-05 0 5.4936e-05)
(0.000110357 0 -1.04371e-05)
(0.000194127 0 4.27939e-06)
(0.000257681 0 -4.97908e-06)
(0.000355575 0 -2.78607e-05)
(0.000475835 0 -4.26596e-05)
(0.000625186 0 -0.00022191)
(0.000843697 0 -0.000196198)
(0.00108453 0 -0.000176716)
(0.00105493 0 -0.000670633)
(0.0011339 0 -0.000819012)
(0.00138759 0 -0.000707178)
(0.00137896 0 -0.000907065)
(0.00152793 0 -0.000746403)
(0.00160513 0 -0.000716934)
(0.00162163 0 -0.00067606)
(0.00167777 0 -0.00056277)
(0.00169689 0 -0.00059264)
(0.00174306 0 -0.000623151)
(0.00183271 0 -0.000323023)
(0.0018274 0 -0.000289862)
(0.00181249 0 -0.000237316)
(0.00176833 0 -0.000303407)
(0.00172786 0 -0.000317197)
(0.00170553 0 -0.000209432)
(0.00169274 0 -0.000125908)
(0.00166621 0 -0.000101976)
(0.00160742 0 -7.91025e-05)
(0.00155503 0 -6.98692e-05)
(0.0015566 0 -6.48406e-05)
(0.00158789 0 -4.0407e-05)
(0.00166382 0 -3.64175e-05)
(0.00169496 0 -4.04687e-05)
(0.00170375 0 -4.25976e-05)
(0.00173029 0 -4.60452e-05)
(0.00176382 0 -9.34084e-05)
(0.00179725 0 -8.20904e-05)
(0.00181214 0 -0.000136634)
(0.00183139 0 -0.000150925)
(0.00186226 0 -0.000124584)
(0.00187263 0 -0.000163894)
(0.00188493 0 -0.000173155)
(0.00191456 0 -0.000158164)
(0.00194347 0 -0.000169554)
(0.00198905 0 -0.000104817)
(0.00199155 0 -8.4491e-05)
(0.00198725 0 -3.54566e-05)
(0.0019888 0 -2.53107e-05)
(0.00199447 0 -0.000169549)
(0.0020131 0 0.000103274)
(0.0020096 0 0.000223572)
(0.00202116 0 0.000297129)
(0.00201001 0 0.000398552)
(0.00198379 0 0.000502576)
(0.00193427 0 0.000632006)
(0.00191183 0 0.000538315)
(0.00174198 0 0.000664693)
(0.00156183 0 0.00099385)
(0.00152048 0 0.00110347)
(0.00144686 0 0.00115519)
(0.00126294 0 0.00114136)
(0.00104378 0 0.000954565)
(0.000828212 0 0.00071201)
(0.00064732 0 0.000473555)
(0.000480687 0 0.000208227)
(0.000404737 0 3.5346e-06)
(0.000397477 0 -9.44163e-05)
(0.000450659 0 -0.000132592)
(0.000499604 0 -7.981e-05)
(0.000469554 0 5.00339e-05)
(0.000468679 0 0.000136589)
(0.000518049 0 0.000129685)
(0.000527373 0 0.000129913)
(0.000525854 0 0.000126766)
(0.000499201 0 0.000135428)
(0.00029739 0 0.00022513)
(9.23083e-05 0 0.000235193)
(3.49891e-06 0 6.66192e-05)
(4.98074e-06 0 -9.55461e-05)
(-1.28448e-07 0 -0.000202733)
(-1.0134e-12 0 -1.51448e-13)
(-2.02911e-12 0 -2.74685e-13)
(-1.91711e-12 0 -3.77732e-13)
(-1.79543e-12 0 -4.72743e-13)
(-1.65739e-12 0 -5.56908e-13)
(-1.50283e-12 0 -6.27343e-13)
(-1.33435e-12 0 -6.82494e-13)
(-1.15563e-12 0 -7.21556e-13)
(-9.70525e-13 0 -7.44597e-13)
(-7.82971e-13 0 -7.52129e-13)
(-5.96761e-13 0 -7.44982e-13)
(-4.15415e-13 0 -7.24325e-13)
(-2.42101e-13 0 -6.9161e-13)
(-7.95338e-14 0 -6.48512e-13)
(7.00729e-14 0 -5.96845e-13)
(2.04997e-13 0 -5.38468e-13)
(3.24004e-13 0 -4.75215e-13)
(4.26348e-13 0 -4.08842e-13)
(5.1173e-13 0 -3.40978e-13)
(5.8024e-13 0 -2.73078e-13)
(6.32297e-13 0 -2.06408e-13)
(6.68588e-13 0 -1.42024e-13)
(6.90004e-13 0 -8.07658e-14)
(6.97562e-13 0 -2.32657e-14)
(6.9238e-13 0 3.00314e-14)
(6.75646e-13 0 7.88421e-14)
(6.48595e-13 0 1.23026e-13)
(6.12451e-13 0 1.62571e-13)
(5.68361e-13 0 1.97575e-13)
(5.17369e-13 0 2.28212e-13)
(4.60412e-13 0 2.54683e-13)
(3.98357e-13 0 2.77174e-13)
(3.3203e-13 0 2.95823e-13)
(2.62239e-13 0 3.10705e-13)
(1.89763e-13 0 3.21841e-13)
(1.15351e-13 0 3.29216e-13)
(3.88753e-14 0 3.3281e-13)
(-4.08783e-05 0 -0.000165772)
(-2.97742e-05 0 -9.39057e-05)
(2.24063e-05 0 -6.37586e-05)
(0.000151996 0 -5.82949e-05)
(0.000262879 0 -7.54779e-05)
(0.00035163 0 -0.000137274)
(0.00039996 0 -0.000130012)
(0.000523327 0 -0.000172405)
(0.000734418 0 -0.000203569)
(0.000960911 0 -0.000299787)
(0.00105538 0 -0.000620835)
(0.00115603 0 -0.000788937)
(0.00137661 0 -0.000724988)
(0.00144985 0 -0.000839515)
(0.00162251 0 -0.00067684)
(0.00167816 0 -0.000731185)
(0.00167995 0 -0.000722338)
(0.00168393 0 -0.00072273)
(0.00167598 0 -0.000719486)
(0.00172039 0 -0.000575173)
(0.00174517 0 -0.000501154)
(0.00172805 0 -0.000481366)
(0.0016703 0 -0.000518225)
(0.00162006 0 -0.000518727)
(0.00158709 0 -0.000424586)
(0.00155676 0 -0.000250156)
(0.00148253 0 -0.000188736)
(0.00138155 0 -0.000173425)
(0.00131753 0 -9.8355e-05)
(0.00128914 0 -3.55322e-05)
(0.00127417 0 -2.30272e-05)
(0.00127619 0 -7.55551e-06)
(0.00129398 0 -3.51916e-06)
(0.00133445 0 1.72172e-05)
(0.00139174 0 7.44391e-05)
(0.00143469 0 2.15477e-05)
(0.00145855 0 -5.78725e-05)
(0.00149429 0 -8.01561e-05)
(0.0015315 0 -0.000129194)
(0.00156409 0 -0.000132645)
(0.00157311 0 -0.000178902)
(0.0015826 0 -0.000155843)
(0.00159288 0 -0.000139683)
(0.00160442 0 -0.000178335)
(0.00162266 0 -0.000193668)
(0.00163804 0 -0.00015821)
(0.00165044 0 -0.000180846)
(0.00168077 0 -9.50308e-05)
(0.00169083 0 -0.000114845)
(0.00170985 0 -0.000114931)
(0.00174488 0 -4.18414e-06)
(0.00173078 0 4.16255e-05)
(0.00170039 0 6.35758e-05)
(0.00170301 0 0.000124197)
(0.00172437 0 0.000200065)
(0.00178231 0 0.000211976)
(0.00176742 0 0.000526538)
(0.0016945 0 0.000788515)
(0.0017201 0 0.000771777)
(0.00160825 0 0.000904756)
(0.00151345 0 0.00105599)
(0.00148409 0 0.00119807)
(0.00139866 0 0.00136575)
(0.0013117 0 0.00136374)
(0.00114349 0 0.00123384)
(0.00101934 0 0.00093965)
(0.000847198 0 0.000666265)
(0.000716841 0 0.000419521)
(0.000638095 0 -1.58735e-05)
(0.000535564 0 -8.98572e-05)
(0.000545203 0 -9.5981e-05)
(0.000599941 0 -6.6169e-05)
(0.000607304 0 -8.04557e-05)
(0.000592555 0 -9.13193e-05)
(0.000533341 0 0.000204656)
(0.000519288 0 0.000266643)
(0.000390764 0 0.000372176)
(0.000196469 0 0.000513203)
(-2.90748e-05 0 0.000559354)
(0.000192448 0 0.000324186)
(0.000134286 0 0.000128516)
(4.44294e-05 0 -5.67894e-05)
(-9.99017e-08 0 -0.000185714)
(-1.08496e-12 0 -3.75122e-13)
(-2.14082e-12 0 -3.91654e-13)
(-2.02068e-12 0 -4.93175e-13)
(-1.89292e-12 0 -6.0717e-13)
(-1.74268e-12 0 -7.11339e-13)
(-1.57231e-12 0 -7.98547e-13)
(-1.38642e-12 0 -8.66375e-13)
(-1.18983e-12 0 -9.13839e-13)
(-9.8701e-13 0 -9.41031e-13)
(-7.82443e-13 0 -9.4854e-13)
(-5.80356e-13 0 -9.37436e-13)
(-3.84629e-13 0 -9.09254e-13)
(-1.98724e-13 0 -8.65904e-13)
(-2.5567e-14 0 -8.09595e-13)
(1.32526e-13 0 -7.42718e-13)
(2.73829e-13 0 -6.67718e-13)
(3.97177e-13 0 -5.86978e-13)
(5.01951e-13 0 -5.02751e-13)
(5.88035e-13 0 -4.1709e-13)
(6.55732e-13 0 -3.31803e-13)
(7.05693e-13 0 -2.48432e-13)
(7.38852e-13 0 -1.68239e-13)
(7.56336e-13 0 -9.2206e-14)
(7.59389e-13 0 -2.10515e-14)
(7.49316e-13 0 4.47364e-14)
(7.27472e-13 0 1.04861e-13)
(6.95232e-13 0 1.59183e-13)
(6.53945e-13 0 2.07706e-13)
(6.04857e-13 0 2.50549e-13)
(5.49072e-13 0 2.87922e-13)
(4.8754e-13 0 3.20078e-13)
(4.21099e-13 0 3.47267e-13)
(3.50523e-13 0 3.69694e-13)
(2.76555e-13 0 3.87501e-13)
(1.99928e-13 0 4.00766e-13)
(1.21366e-13 0 4.09521e-13)
(4.08454e-14 0 4.13786e-13)
(1.9238e-06 0 -0.000194909)
(0.000121641 0 -0.000126739)
(0.000206585 0 -0.000109469)
(0.000319354 0 -0.000138262)
(0.000434664 0 -0.000106407)
(0.000540495 0 -0.000153347)
(0.000656355 0 -0.000249937)
(0.000819155 0 -0.000321807)
(0.000993814 0 -0.000423089)
(0.00118064 0 -0.00051574)
(0.00130413 0 -0.00069277)
(0.00148036 0 -0.000651692)
(0.00155103 0 -0.000743979)
(0.00158375 0 -0.000880854)
(0.0015898 0 -0.000969387)
(0.00167922 0 -0.000846661)
(0.00171001 0 -0.000773112)
(0.00171005 0 -0.000747515)
(0.00168442 0 -0.000746292)
(0.00171124 0 -0.000544268)
(0.00163747 0 -0.00054894)
(0.00154483 0 -0.000609344)
(0.00154928 0 -0.000368531)
(0.0014918 0 -0.00016951)
(0.00138272 0 -7.4993e-05)
(0.0012769 0 -6.69465e-05)
(0.00119298 0 -6.38881e-05)
(0.00112736 0 -5.78231e-05)
(0.0010967 0 -7.03272e-05)
(0.00109749 0 -7.29258e-05)
(0.00110798 0 -7.36794e-05)
(0.00112785 0 -7.2686e-05)
(0.00115154 0 -6.92614e-05)
(0.00117448 0 -7.58486e-05)
(0.00120151 0 -0.000107362)
(0.00123365 0 -0.000139203)
(0.00126113 0 -0.000129677)
(0.00128722 0 -0.00010615)
(0.00131108 0 -9.37586e-05)
(0.00132196 0 -0.000135635)
(0.00132631 0 -0.000152249)
(0.00133159 0 -0.000157595)
(0.00134128 0 -0.000184226)
(0.00136654 0 -0.000159793)
(0.00139098 0 -0.000129277)
(0.00139956 0 -0.000197919)
(0.00143867 0 -0.000226938)
(0.00147536 0 -0.000127891)
(0.00148249 0 -0.000104106)
(0.00150675 0 -7.13582e-05)
(0.00153173 0 -1.15156e-05)
(0.00152137 0 -3.33579e-05)
(0.001471 0 0.000119706)
(0.00146596 0 0.000185607)
(0.00150251 0 0.000181333)
(0.001565 0 0.000158731)
(0.00150243 0 0.000539158)
(0.00156314 0 0.00053937)
(0.00160801 0 0.000682539)
(0.00147236 0 0.000994544)
(0.00141774 0 0.00113216)
(0.00141493 0 0.0012608)
(0.00135797 0 0.00140308)
(0.0013449 0 0.00140619)
(0.00129427 0 0.00134859)
(0.00108734 0 0.00128481)
(0.00104202 0 0.000979943)
(0.0010581 0 0.000515446)
(0.000963999 0 0.000264341)
(0.000817478 0 -8.2588e-05)
(0.000744787 0 -0.000199821)
(0.000712058 0 -7.27426e-05)
(0.000669835 0 0.000123149)
(0.000677967 0 2.37443e-05)
(0.000650982 0 6.57836e-05)
(0.00058055 0 0.000235003)
(0.000430122 0 0.00041423)
(0.000412391 0 0.000452771)
(0.000479329 0 0.000373389)
(0.000461696 0 0.000305703)
(0.00030563 0 0.000206099)
(9.59791e-05 0 9.49213e-05)
(2.58452e-07 0 -0.000156614)
(-1.15037e-12 0 -2.67419e-13)
(-2.14642e-12 0 -4.23586e-13)
(-2.13194e-12 0 -5.96099e-13)
(-2.01297e-12 0 -7.51401e-13)
(-1.84819e-12 0 -8.82743e-13)
(-1.65734e-12 0 -9.89187e-13)
(-1.44932e-12 0 -1.07051e-12)
(-1.23024e-12 0 -1.12643e-12)
(-1.00523e-12 0 -1.15726e-12)
(-7.79375e-13 0 -1.16372e-12)
(-5.57476e-13 0 -1.14717e-12)
(-3.43883e-13 0 -1.1096e-12)
(-1.42441e-13 0 -1.05346e-12)
(4.36518e-14 0 -9.81596e-13)
(2.1195e-13 0 -8.97093e-13)
(3.60738e-13 0 -8.03077e-13)
(4.88971e-13 0 -7.02581e-13)
(5.96236e-13 0 -5.98426e-13)
(6.82678e-13 0 -4.93141e-13)
(7.48898e-13 0 -3.88909e-13)
(7.95861e-13 0 -2.87556e-13)
(8.24815e-13 0 -1.90539e-13)
(8.37191e-13 0 -9.89669e-14)
(8.34505e-13 0 -1.36204e-14)
(8.18292e-13 0 6.4996e-14)
(7.90093e-13 0 1.36601e-13)
(7.51441e-13 0 2.01093e-13)
(7.03816e-13 0 2.58517e-13)
(6.48577e-13 0 3.09046e-13)
(5.86897e-13 0 3.52951e-13)
(5.19757e-13 0 3.90557e-13)
(4.47973e-13 0 4.22198e-13)
(3.72265e-13 0 4.48167e-13)
(2.93311e-13 0 4.68688e-13)
(2.11783e-13 0 4.83914e-13)
(1.28371e-13 0 4.93939e-13)
(4.31401e-14 0 4.98827e-13)
(-4.51679e-06 0 -0.000302672)
(0.000175752 0 -0.00021232)
(0.000289522 0 -0.000225132)
(0.000435837 0 -0.000253077)
(0.000573035 0 -0.000292152)
(0.000729234 0 -0.000265007)
(0.000856994 0 -0.000375601)
(0.000980737 0 -0.00051873)
(0.00114978 0 -0.000547321)
(0.00130368 0 -0.000587692)
(0.00134821 0 -0.000801724)
(0.00149079 0 -0.000803558)
(0.00155224 0 -0.000884394)
(0.00157468 0 -0.00101023)
(0.00168704 0 -0.000869807)
(0.0016831 0 -0.000852503)
(0.00170337 0 -0.000770471)
(0.00168949 0 -0.000703576)
(0.00164046 0 -0.000659103)
(0.00158481 0 -0.000564359)
(0.00147827 0 -0.000476995)
(0.00138662 0 -0.000307414)
(0.00129147 0 -0.000227971)
(0.00116191 0 -0.000233293)
(0.0010433 0 -0.000221879)
(0.000999085 0 -8.93982e-05)
(0.000985039 0 -5.56616e-05)
(0.000973536 0 -6.69788e-05)
(0.00097337 0 -6.58643e-05)
(0.000988667 0 -4.61063e-05)
(0.00100928 0 -6.28655e-05)
(0.00101644 0 -8.03597e-05)
(0.00101711 0 -8.56462e-05)
(0.00101943 0 -8.89218e-05)
(0.00103242 0 -8.79065e-05)
(0.00105356 0 -7.81619e-05)
(0.00105703 0 -0.000121921)
(0.00106241 0 -0.000129617)
(0.00107192 0 -0.000145174)
(0.00108694 0 -0.000158273)
(0.00110153 0 -0.000174525)
(0.0011173 0 -0.000199825)
(0.0011482 0 -0.00015183)
(0.00116171 0 -0.000218174)
(0.00119575 0 -0.000205839)
(0.0012142 0 -0.000287817)
(0.00126735 0 -0.000127334)
(0.00130219 0 -0.000108941)
(0.00130431 0 -0.000409793)
(0.00139174 0 -9.50724e-05)
(0.00138445 0 -3.8609e-05)
(0.00136657 0 7.41469e-05)
(0.00134899 0 7.8464e-05)
(0.00136502 0 4.79782e-05)
(0.00136885 0 0.000280642)
(0.00131346 0 0.000417851)
(0.00128492 0 0.000518805)
(0.00129213 0 0.000673726)
(0.00134277 0 0.000806768)
(0.00131905 0 0.000991839)
(0.00135453 0 0.00108149)
(0.00137972 0 0.00122092)
(0.00131951 0 0.00139794)
(0.0013278 0 0.00139214)
(0.00134693 0 0.00132488)
(0.00130182 0 0.00126472)
(0.00138471 0 0.000893436)
(0.00128294 0 0.000659658)
(0.0010747 0 0.000503479)
(0.000982498 0 -5.2892e-05)
(0.000951208 0 -7.63863e-05)
(0.000869819 0 5.91091e-06)
(0.000780772 0 -7.33212e-06)
(0.00069655 0 0.000174608)
(0.000647462 0 0.000310611)
(0.000594105 0 0.000376562)
(0.000581269 0 0.000410274)
(0.00052249 0 0.000476619)
(0.00049815 0 0.000468208)
(0.000321926 0 0.000461612)
(6.7906e-05 0 0.000376062)
(2.76528e-06 0 0.000104959)
(1.74024e-08 0 -0.000122603)
(-1.26089e-12 0 -2.32934e-14)
(-2.46871e-12 0 -4.39106e-13)
(-2.34781e-12 0 -7.16269e-13)
(-2.17896e-12 0 -9.19652e-13)
(-1.97992e-12 0 -1.07912e-12)
(-1.75959e-12 0 -1.20503e-12)
(-1.52341e-12 0 -1.29999e-12)
(-1.27655e-12 0 -1.3642e-12)
(-1.0243e-12 0 -1.39797e-12)
(-7.72355e-13 0 -1.40206e-12)
(-5.26232e-13 0 -1.37816e-12)
(-2.90912e-13 0 -1.32878e-12)
(-7.07247e-14 0 -1.25707e-12)
(1.30795e-13 0 -1.16667e-12)
(3.11045e-13 0 -1.06148e-12)
(4.68341e-13 0 -9.45426e-13)
(6.01828e-13 0 -8.22318e-13)
(7.11392e-13 0 -6.95641e-13)
(7.97552e-13 0 -5.68464e-13)
(8.61317e-13 0 -4.43385e-13)
(9.04063e-13 0 -3.22517e-13)
(9.2744e-13 0 -2.07504e-13)
(9.33255e-13 0 -9.95504e-14)
(9.23352e-13 0 5.35414e-16)
(8.99538e-13 0 9.22749e-14)
(8.63569e-13 0 1.75449e-13)
(8.17148e-13 0 2.50036e-13)
(7.61898e-13 0 3.16172e-13)
(6.99291e-13 0 3.74123e-13)
(6.30583e-13 0 4.24255e-13)
(5.56788e-13 0 4.66992e-13)
(4.78709e-13 0 5.02772e-13)
(3.97013e-13 0 5.31991e-13)
(3.12302e-13 0 5.54976e-13)
(2.25179e-13 0 5.71967e-13)
(1.36278e-13 0 5.8313e-13)
(4.57331e-14 0 5.88581e-13)
(-6.6475e-05 0 -0.000395985)
(0.000245211 0 -0.000370879)
(0.000366743 0 -0.000360517)
(0.000524077 0 -0.000361256)
(0.00063714 0 -0.000444524)
(0.000794817 0 -0.0004228)
(0.000918541 0 -0.00048887)
(0.00101271 0 -0.000612794)
(0.0011639 0 -0.000624887)
(0.00126367 0 -0.000711235)
(0.00132984 0 -0.000853202)
(0.00150477 0 -0.000791855)
(0.00155218 0 -0.000890659)
(0.00161018 0 -0.000888299)
(0.00156367 0 -0.000940626)
(0.00152777 0 -0.000926095)
(0.00154966 0 -0.000738258)
(0.00143281 0 -0.000746121)
(0.00139375 0 -0.00057796)
(0.00137256 0 -0.000346374)
(0.00122214 0 -0.000361309)
(0.00106223 0 -0.000288678)
(0.00101954 0 -0.000160958)
(0.000971312 0 -0.000135761)
(0.000901282 0 -8.44444e-05)
(0.000850426 0 -4.31413e-05)
(0.000852505 0 -4.4325e-05)
(0.000857312 0 -7.61866e-05)
(0.000857629 0 -0.000103524)
(0.0008648 0 -9.26015e-05)
(0.000865331 0 -9.13746e-05)
(0.000862437 0 -7.45759e-05)
(0.000855543 0 -6.28312e-05)
(0.000839618 0 -7.98112e-05)
(0.000840423 0 -8.63459e-05)
(0.000847043 0 -0.000106154)
(0.000858541 0 -0.000121194)
(0.000873346 0 -0.000119014)
(0.000884681 0 -0.000144468)
(0.000900745 0 -0.000158785)
(0.000909739 0 -0.000198057)
(0.00093694 0 -0.000175925)
(0.000943411 0 -0.000252761)
(0.000982022 0 -0.000224354)
(0.00102056 0 -0.000225321)
(0.00103855 0 -0.000261421)
(0.00105125 0 -0.000335426)
(0.00109168 0 -0.000242944)
(0.00116379 0 -0.000149699)
(0.00122571 0 -0.00010007)
(0.00120897 0 -7.26949e-05)
(0.00119771 0 1.75291e-05)
(0.00121079 0 0.000105397)
(0.0012045 0 0.000178719)
(0.00115581 0 0.000289695)
(0.00113937 0 0.000306739)
(0.00110249 0 0.000477717)
(0.00114424 0 0.000567148)
(0.00106774 0 0.000858812)
(0.00107624 0 0.00103078)
(0.00116 0 0.00112622)
(0.00115516 0 0.00131703)
(0.0012103 0 0.00140372)
(0.00125445 0 0.00136832)
(0.00129661 0 0.00130339)
(0.00131981 0 0.00119954)
(0.00135119 0 0.000970869)
(0.00132958 0 0.000589281)
(0.00114981 0 0.000436064)
(0.00107646 0 0.000269005)
(0.00102237 0 7.61657e-05)
(0.000927567 0 8.75627e-05)
(0.000844545 0 3.89872e-05)
(0.000777817 0 0.000146238)
(0.000595873 0 0.000437565)
(0.000544432 0 0.000503121)
(0.000427669 0 0.000587714)
(0.000380318 0 0.000591594)
(0.000243761 0 0.000642733)
(0.000153033 0 0.000573382)
(8.59889e-05 0 0.00047197)
(0.000218568 0 0.000217685)