/*--------------------------------*- C++ -*----------------------------------*\
  =========                 |
  \\      /  F ield         | OpenFOAM: The Open Source CFD Toolbox
   \\    /   O peration     | Website:  https://openfoam.org
    \\  /    A nd           | Version:  6
     \\/     M anipulation  |
\*---------------------------------------------------------------------------*/
FoamFile
{
    version     2.0;
    format      ascii;
    class       surfaceScalarField;
    location    "350";
    object      phi;
}
// * * * * * * * * * * * * * * * * * * * * * * * * * * * * * * * * * * * * * //

dimensions      [0 3 -1 0 0 0 0];

internalField   nonuniform List<scalar> 
9440
(
-2.13823e-10
2.13823e-10
-4.90827e-10
2.77006e-10
-1.08613e-09
5.95303e-10
-1.36135e-09
2.75217e-10
-1.48679e-09
1.25444e-10
-1.64092e-09
1.54128e-10
-1.69258e-09
5.16663e-11
-1.72114e-09
2.85581e-11
-1.72524e-09
4.09881e-12
-1.7325e-09
7.26279e-12
-1.6926e-09
-3.9894e-11
-1.65431e-09
-3.82949e-11
-1.43552e-09
-2.18785e-10
-1.33872e-09
-9.68041e-11
-1.08416e-09
-2.54559e-10
-8.49682e-10
-2.34477e-10
-7.27893e-10
-1.21789e-10
-7.1116e-10
-1.67328e-11
-5.44882e-10
-1.66277e-10
-3.32844e-10
-2.12038e-10
-2.93798e-10
-3.90456e-11
-1.65094e-10
-1.28704e-10
-5.88549e-11
-1.06239e-10
7.09858e-11
-1.29841e-10
1.00312e-10
-2.93258e-11
1.02442e-10
-2.13033e-12
-5.59703e-11
1.58412e-10
-9.60774e-11
4.01068e-11
-1.01043e-10
4.96524e-12
-9.61179e-11
-4.92533e-12
-1.38019e-10
4.19011e-11
-2.18362e-10
8.03427e-11
-2.59182e-10
4.08193e-11
-2.24438e-10
-3.47446e-11
-1.8678e-10
-3.76584e-11
-1.37964e-10
-4.88169e-11
-1.79187e-10
4.12225e-11
-2.29657e-10
5.04692e-11
-3.49888e-10
1.2023e-10
-5.07606e-10
1.57717e-10
-6.27544e-10
1.19937e-10
-6.87266e-10
5.97217e-11
-7.46491e-10
5.92235e-11
-8.29943e-10
8.34516e-11
-8.80852e-10
5.09074e-11
-8.96641e-10
1.57881e-11
-8.60762e-10
-3.58803e-11
-7.40561e-10
-1.20202e-10
-6.05502e-10
-1.35061e-10
-4.79765e-10
-1.25738e-10
-3.57998e-10
-1.21768e-10
-2.29956e-10
-1.28043e-10
-1.28711e-10
-1.01246e-10
-1.0509e-10
-2.36218e-11
-1.256e-10
2.05091e-11
-8.6115e-11
-3.94865e-11
-1.66914e-10
8.07983e-11
-2.6544e-10
9.85245e-11
-3.89983e-10
1.24542e-10
-4.98349e-10
1.08364e-10
-6.25549e-10
1.27199e-10
-7.5009e-10
1.2454e-10
-9.52635e-10
2.02545e-10
-1.19818e-09
2.45547e-10
-1.39377e-09
1.95582e-10
-1.53498e-09
1.4121e-10
-1.61721e-09
8.22365e-11
-1.6445e-09
2.72849e-11
-1.61383e-09
-3.06753e-11
-1.55221e-09
-6.16148e-11
-1.43415e-09
-1.18066e-10
-1.2901e-09
-1.44045e-10
-1.13595e-09
-1.54151e-10
-9.87581e-10
-1.48373e-10
-8.75013e-10
-1.12569e-10
-8.22122e-10
-5.28921e-11
-8.11656e-10
-1.04677e-11
-6.03921e-10
-2.07736e-10
-2.90326e-10
-3.13596e-10
1.10191e-15
-2.90329e-10
-1.18273e-18
-2.24017e-19
-1.15199e-18
-3.07419e-20
-1.09814e-18
-5.48668e-20
-1.00441e-18
-9.45946e-20
-8.76934e-19
-1.2816e-19
-7.23945e-19
-1.535e-19
-5.52616e-19
-1.71659e-19
-3.68985e-19
-1.83776e-19
-1.78425e-19
-1.90518e-19
1.41633e-20
-1.92366e-19
2.0433e-19
-1.89767e-19
3.881e-19
-1.83199e-19
5.62022e-19
-1.7319e-19
7.2321e-19
-1.60308e-19
8.69354e-19
-1.45137e-19
9.98721e-19
-1.28262e-19
1.11013e-18
-1.10235e-19
1.20289e-18
-9.15669e-20
1.2768e-18
-7.27097e-20
1.33202e-18
-5.40492e-20
1.36905e-18
-3.59033e-20
1.38864e-18
-1.85245e-20
1.39175e-18
-2.10311e-21
1.37946e-18
1.32262e-20
1.35296e-18
2.73776e-20
1.31347e-18
4.03077e-20
1.26222e-18
5.20079e-20
1.20042e-18
6.24974e-20
1.12927e-18
7.1817e-20
1.04986e-18
8.00227e-20
9.6327e-19
8.71804e-20
8.70467e-19
9.33613e-20
7.72367e-19
9.86379e-20
6.69806e-19
1.03081e-19
5.63557e-19
1.06756e-19
4.54329e-19
1.09724e-19
3.42781e-19
1.12038e-19
2.29519e-19
1.13746e-19
1.15102e-19
1.14898e-19
1.15581e-19
-4.64643e-10
6.78467e-10
-9.02866e-10
7.15232e-10
-9.86531e-10
6.7897e-10
-1.1253e-09
4.13989e-10
-1.39103e-09
3.91178e-10
-1.49634e-09
2.59433e-10
-1.55538e-09
1.10714e-10
-1.61227e-09
8.54424e-11
-1.64046e-09
3.22921e-11
-1.64237e-09
9.17418e-12
-1.55455e-09
-1.27707e-10
-1.39483e-09
-1.98016e-10
-1.25204e-09
-3.61575e-10
-1.08576e-09
-2.63081e-10
-9.20146e-10
-4.20176e-10
-7.66194e-10
-3.88429e-10
-7.15519e-10
-1.72464e-10
-5.97689e-10
-1.34562e-10
-4.35949e-10
-3.28016e-10
-3.46413e-10
-3.01575e-10
-2.33702e-10
-1.51756e-10
-1.08746e-10
-2.53659e-10
-4.1039e-11
-1.73947e-10
3.18857e-11
-2.02766e-10
2.02902e-11
-1.77306e-11
3.62917e-11
-1.81322e-11
1.25234e-10
6.9469e-11
1.87349e-10
-2.20082e-11
1.80888e-10
1.14254e-11
1.18308e-10
5.76536e-11
3.44323e-11
1.25776e-10
7.96054e-12
1.06814e-10
1.21446e-11
3.66343e-11
1.09821e-11
-3.35832e-11
1.59928e-11
-4.26702e-11
-2.04625e-11
-1.23628e-11
-5.51451e-11
7.59038e-11
-1.3822e-10
1.33542e-10
-2.41698e-10
2.23707e-10
-3.77998e-10
2.94016e-10
-5.56455e-10
2.98393e-10
-7.004e-10
2.03665e-10
-7.94687e-10
1.53509e-10
-8.35006e-10
1.23768e-10
-8.44881e-10
6.0781e-11
-8.28554e-10
-5.40473e-13
-7.6278e-10
-1.01656e-10
-6.70482e-10
-2.12501e-10
-5.58073e-10
-2.47472e-10
-4.36483e-10
-2.4733e-10
-3.13669e-10
-2.44584e-10
-1.80681e-10
-2.61033e-10
-5.21844e-11
-2.29744e-10
2.81133e-11
-1.03922e-10
6.78914e-11
-1.92709e-11
1.1759e-10
-8.91868e-11
4.26486e-11
1.55738e-10
-6.86562e-11
2.09828e-10
-2.53556e-10
3.09441e-10
-4.39567e-10
2.94373e-10
-6.4006e-10
3.2769e-10
-7.93686e-10
2.78164e-10
-9.28047e-10
3.36904e-10
-1.0241e-09
3.416e-10
-1.13424e-09
3.0572e-10
-1.18709e-09
1.94053e-10
-1.20786e-09
1.03007e-10
-1.14465e-09
-3.59297e-11
-1.0459e-09
-1.29419e-10
-9.43994e-10
-1.63526e-10
-8.40594e-10
-2.21467e-10
-7.2817e-10
-2.56472e-10
-5.66972e-10
-3.15351e-10
-4.0537e-10
-3.09977e-10
-2.67687e-10
-2.50255e-10
-1.2633e-10
-1.94251e-10
9.29814e-11
-2.29781e-10
-3.73713e-12
-1.1102e-10
-1.11246e-10
-2.06089e-10
5.88083e-16
-4.01576e-10
-1.07157e-18
2.5892e-19
-1.17765e-18
7.47287e-20
-1.13872e-18
-9.51838e-20
-1.03813e-18
-1.96382e-19
-9.02203e-19
-2.64952e-19
-7.42104e-19
-3.14132e-19
-5.64733e-19
-3.49232e-19
-3.75726e-19
-3.72661e-19
-1.80273e-19
-3.85531e-19
1.67624e-20
-3.88657e-19
2.10898e-19
-3.82864e-19
3.98108e-19
-3.69098e-19
5.74905e-19
-3.48427e-19
7.3838e-19
-3.22011e-19
8.8623e-19
-2.91049e-19
1.01675e-18
-2.56726e-19
1.12879e-18
-2.20168e-19
1.22175e-18
-1.82404e-19
1.29546e-18
-1.44337e-19
1.35017e-18
-1.0674e-19
1.38643e-18
-7.02424e-20
1.40506e-18
-3.53438e-20
1.40708e-18
-2.41671e-21
1.39361e-18
2.82772e-20
1.36589e-18
5.65758e-20
1.32517e-18
8.2401e-20
1.27271e-18
1.05743e-19
1.20974e-18
1.26648e-19
1.13747e-18
1.45204e-19
1.05702e-18
1.61528e-19
9.69451e-19
1.75755e-19
8.75744e-19
1.88032e-19
7.76809e-19
1.98505e-19
6.73481e-19
2.07317e-19
5.66525e-19
2.14602e-19
4.56643e-19
2.20482e-19
3.44489e-19
2.2506e-19
2.30671e-19
2.28424e-19
1.15785e-19
2.3064e-19
2.31742e-19
-3.86819e-10
1.06529e-09
-7.30374e-10
1.05879e-09
-9.23474e-10
8.7207e-10
-1.12356e-09
6.14081e-10
-1.32177e-09
5.89382e-10
-1.3678e-09
3.05464e-10
-1.4515e-09
1.94418e-10
-1.55008e-09
1.84022e-10
-1.54613e-09
2.83483e-11
-1.50283e-09
-3.41243e-11
-1.39873e-09
-2.31805e-10
-1.21085e-09
-3.85897e-10
-1.1496e-09
-4.22827e-10
-1.00111e-09
-4.11572e-10
-9.21004e-10
-5.00281e-10
-8.28207e-10
-4.81225e-10
-6.64389e-10
-3.36281e-10
-5.14738e-10
-2.84213e-10
-3.42908e-10
-4.99846e-10
-3.41476e-10
-3.03007e-10
-1.97819e-10
-2.95413e-10
-6.30559e-11
-3.88422e-10
3.33516e-11
-2.70355e-10
1.24585e-10
-2.94e-10
2.02917e-10
-9.60628e-11
2.72884e-10
-8.80988e-11
3.34776e-10
7.576e-12
3.27685e-10
-1.49172e-11
3.00218e-10
3.88912e-11
2.64267e-10
9.36043e-11
2.51803e-10
1.38239e-10
2.30731e-10
1.27884e-10
2.25e-10
4.23652e-11
1.93979e-10
-2.5635e-12
1.73196e-10
-2.18883e-11
7.68942e-11
8.39381e-11
1.40254e-11
1.38771e-10
-9.6652e-11
2.44219e-10
-2.21881e-10
3.48935e-10
-3.58508e-10
4.30641e-10
-5.05656e-10
4.45539e-10
-6.38125e-10
3.36133e-10
-7.44688e-10
2.6007e-10
-8.09118e-10
1.88198e-10
-8.41827e-10
9.34884e-11
-7.86645e-10
-5.57246e-11
-7.05452e-10
-1.82851e-10
-6.41908e-10
-2.76047e-10
-5.49612e-10
-3.39769e-10
-4.27901e-10
-3.69043e-10
-3.20203e-10
-3.52285e-10
-1.87652e-10
-3.93585e-10
-8.56609e-11
-3.31737e-10
3.58076e-11
-2.25392e-10
1.30826e-10
-1.14291e-10
1.24913e-10
-8.32754e-11
1.09745e-10
1.70904e-10
5.26551e-11
2.66916e-10
-7.03045e-11
4.32399e-10
-2.46862e-10
4.70929e-10
-4.11308e-10
4.92135e-10
-6.13139e-10
4.79993e-10
-7.36748e-10
4.60512e-10
-7.84283e-10
3.89133e-10
-7.8694e-10
3.08376e-10
-7.38493e-10
1.45604e-10
-6.72403e-10
3.69165e-11
-6.04863e-10
-1.03472e-10
-5.33036e-10
-2.01247e-10
-5.00211e-10
-1.96353e-10
-4.96087e-10
-2.25592e-10
-4.45636e-10
-3.06925e-10
-3.33957e-10
-4.27031e-10
-1.56025e-10
-4.87911e-10
8.21229e-11
-4.88404e-10
2.83778e-10
-3.95908e-10
4.3687e-10
-3.82875e-10
4.29639e-10
-1.03791e-10
2.34727e-10
-1.11792e-11
5.02198e-16
-1.66852e-10
-1.40925e-18
3.12019e-19
-1.34704e-18
1.18843e-20
-1.23941e-18
-2.03996e-19
-1.10619e-18
-3.30584e-19
-9.51156e-19
-4.20687e-19
-7.77203e-19
-4.88511e-19
-5.88162e-19
-5.38428e-19
-3.88596e-19
-5.72116e-19
-1.83399e-19
-5.90363e-19
2.25544e-20
-5.93998e-19
2.24664e-19
-5.84123e-19
4.1878e-19
-5.62135e-19
6.01321e-19
-5.29676e-19
7.69343e-19
-4.88546e-19
9.20553e-19
-4.40611e-19
1.0533e-18
-3.87705e-19
1.16656e-18
-3.31565e-19
1.25982e-18
-2.73765e-19
1.33306e-18
-2.15685e-19
1.38667e-18
-1.58487e-19
1.42133e-18
-1.03117e-19
1.43799e-18
-5.03105e-20
1.43777e-18
-6.10512e-22
1.42191e-18
4.56121e-20
1.39172e-18
8.81349e-20
1.34851e-18
1.26861e-19
1.29361e-18
1.61797e-19
1.2283e-18
1.93029e-19
1.1538e-18
2.20703e-19
1.07125e-18
2.45009e-19
9.81727e-19
2.66161e-19
8.86217e-19
2.84387e-19
7.85622e-19
2.99915e-19
6.80767e-19
3.12964e-19
5.72404e-19
3.2374e-19
4.61221e-19
3.32426e-19
3.47853e-19
3.39181e-19
2.32888e-19
3.44135e-19
1.16886e-19
3.47386e-19
3.48993e-19
-3.27779e-10
1.39307e-09
-5.63021e-10
1.29403e-09
-7.53696e-10
1.06275e-09
-9.50239e-10
8.10625e-10
-1.17062e-09
8.0976e-10
-1.26211e-09
3.96959e-10
-1.35287e-09
2.85181e-10
-1.41833e-09
2.49486e-10
-1.40345e-09
1.34688e-11
-1.37363e-09
-6.39447e-11
-1.28307e-09
-3.22362e-10
-1.14659e-09
-5.22377e-10
-1.09479e-09
-4.74633e-10
-9.88043e-10
-5.18315e-10
-9.10647e-10
-5.77676e-10
-8.32898e-10
-5.58975e-10
-6.44773e-10
-5.24406e-10
-4.80547e-10
-4.48439e-10
-3.91943e-10
-5.8845e-10
-3.07341e-10
-3.87608e-10
-1.08594e-10
-4.9416e-10
-3.91648e-11
-4.57851e-10
8.41039e-11
-3.93623e-10
1.52099e-10
-3.61995e-10
2.67388e-10
-2.11352e-10
3.32831e-10
-1.53542e-10
4.17324e-10
-7.69179e-11
4.28032e-10
-2.56258e-11
4.31328e-10
3.55947e-11
4.15836e-10
1.09095e-10
4.08057e-10
1.46018e-10
3.91667e-10
1.44273e-10
3.47974e-10
8.60581e-11
2.93752e-10
5.16571e-11
2.18043e-10
5.382e-11
1.2727e-10
1.7471e-10
3.82295e-11
2.27811e-10
-7.66218e-11
3.59069e-10
-2.28632e-10
5.00943e-10
-3.96525e-10
5.98533e-10
-5.55536e-10
6.04549e-10
-6.66013e-10
4.46609e-10
-7.48286e-10
3.42341e-10
-8.05155e-10
2.45065e-10
-8.1635e-10
1.04682e-10
-7.91134e-10
-8.09417e-11
-7.45805e-10
-2.28182e-10
-7.00896e-10
-3.20958e-10
-6.58133e-10
-3.82534e-10
-6.04826e-10
-4.2235e-10
-5.80763e-10
-3.7635e-10
-4.80019e-10
-4.94331e-10
-3.96398e-10
-4.1536e-10
-1.89278e-10
-4.32514e-10
-1.42958e-10
-1.60613e-10
-1.09828e-10
-1.16407e-10
-4.47202e-12
6.55465e-11
-2.14076e-11
2.8385e-10
-3.24727e-11
4.43462e-10
-1.36128e-10
5.74584e-10
-2.32681e-10
5.88686e-10
-2.93881e-10
5.41192e-10
-3.48755e-10
5.15385e-10
-3.78304e-10
4.18681e-10
-3.41347e-10
2.71417e-10
-3.17118e-10
1.21374e-10
-3.05011e-10
2.48087e-11
-3.30919e-10
-7.75649e-11
-3.57205e-10
-1.74963e-10
-3.89831e-10
-1.63729e-10
-4.0358e-10
-2.11844e-10
-3.41511e-10
-3.68996e-10
-2.58375e-10
-5.10168e-10
-1.31107e-10
-6.15181e-10
6.33957e-12
-6.25852e-10
1.67927e-10
-5.57497e-10
2.56108e-10
-4.71058e-10
3.00244e-10
-1.47929e-10
1.66611e-10
1.22452e-10
4.45694e-16
-2.4229e-13
-1.93081e-18
-9.39966e-19
-1.5624e-18
-3.57122e-19
-1.36549e-18
-4.01961e-19
-1.19579e-18
-5.01126e-19
-1.01876e-18
-5.98298e-19
-8.2712e-19
-6.8047e-19
-6.21851e-19
-7.43774e-19
-4.06843e-19
-7.86966e-19
-1.87035e-19
-8.09788e-19
3.24297e-20
-8.12864e-19
2.46652e-19
-7.97536e-19
4.51238e-19
-7.65704e-19
6.4245e-19
-7.1967e-19
8.17278e-19
-6.61966e-19
9.73458e-19
-5.95208e-19
1.10945e-18
-5.21962e-19
1.22436e-18
-4.4463e-19
1.3179e-18
-3.65378e-19
1.39026e-18
-2.86085e-19
1.44204e-18
-2.08314e-19
1.47414e-18
-1.33318e-19
1.48769e-18
-6.20558e-20
1.484e-18
4.78287e-21
1.46444e-18
6.67423e-20
1.43044e-18
1.23568e-19
1.38344e-18
1.75171e-19
1.32484e-18
2.21596e-19
1.25597e-18
2.62992e-19
1.1781e-18
2.99584e-19
1.0924e-18
3.31649e-19
9.99953e-19
3.59492e-19
9.01744e-19
3.83434e-19
7.98671e-19
4.03793e-19
6.91543e-19
4.20873e-19
5.8109e-19
4.34955e-19
4.67976e-19
4.46289e-19
3.52807e-19
4.55091e-19
2.36138e-19
4.61537e-19
1.18493e-19
4.6576e-19
4.67847e-19
-1.75708e-10
1.56877e-09
-3.63536e-10
1.48186e-09
-6.01104e-10
1.30032e-09
-8.18099e-10
1.02762e-09
-9.58125e-10
9.49787e-10
-1.16072e-09
5.9956e-10
-1.20927e-09
3.33726e-10
-1.25954e-09
2.99764e-10
-1.29164e-09
4.55693e-11
-1.26351e-09
-9.20782e-11
-1.14808e-09
-4.37792e-10
-1.11579e-09
-5.54667e-10
-1.03703e-09
-5.53393e-10
-9.50724e-10
-6.04616e-10
-9.01302e-10
-6.27097e-10
-8.35297e-10
-6.24979e-10
-6.82901e-10
-6.76801e-10
-4.84708e-10
-6.46631e-10
-4.41018e-10
-6.3214e-10
-2.52548e-10
-5.76078e-10
-1.23831e-10
-6.22877e-10
-1.63863e-11
-5.65296e-10
1.22372e-10
-5.32382e-10
1.58935e-10
-3.98558e-10
2.84821e-10
-3.37239e-10
3.71731e-10
-2.40453e-10
4.67375e-10
-1.72562e-10
5.08575e-10
-6.68262e-11
5.2032e-10
2.38492e-11
5.00451e-10
1.28963e-10
4.79311e-10
1.67157e-10
4.53289e-10
1.70294e-10
4.06062e-10
1.33284e-10
3.40088e-10
1.1763e-10
2.50313e-10
1.43594e-10
1.93084e-10
2.31938e-10
4.54979e-11
3.75395e-10
-1.13767e-10
5.18332e-10
-2.68275e-10
6.5545e-10
-4.2365e-10
7.53907e-10
-5.9407e-10
7.74967e-10
-7.49009e-10
6.01547e-10
-8.65218e-10
4.58549e-10
-8.91557e-10
2.71403e-10
-9.08239e-10
1.21361e-10
-8.9517e-10
-9.40122e-11
-8.70689e-10
-2.52665e-10
-8.46062e-10
-3.45587e-10
-8.06036e-10
-4.22562e-10
-7.73432e-10
-4.54957e-10
-6.83824e-10
-4.65959e-10
-6.75041e-10
-5.03116e-10
-6.7695e-10
-4.13453e-10
-6.45834e-10
-4.63632e-10
-6.47356e-10
-1.59092e-10
-5.95426e-10
-1.68338e-10
-5.25956e-10
-3.92543e-12
-4.13414e-10
1.71306e-10
-3.53509e-10
3.83557e-10
-2.88591e-10
5.09663e-10
-2.83254e-10
5.83349e-10
-3.15008e-10
5.72945e-10
-2.86905e-10
4.8728e-10
-2.50485e-10
3.8226e-10
-2.09007e-10
2.29938e-10
-1.99021e-10
1.11386e-10
-2.0758e-10
3.33667e-11
-2.11244e-10
-7.39023e-11
-2.73381e-10
-1.12827e-10
-3.27203e-10
-1.09908e-10
-3.67747e-10
-1.71301e-10
-4.21852e-10
-3.14893e-10
-4.81771e-10
-4.50251e-10
-5.40139e-10
-5.56814e-10
-5.48775e-10
-6.17217e-10
-4.10886e-10
-6.95387e-10
-1.41538e-10
-7.40407e-10
-4.65469e-11
-2.42921e-10
-3.80845e-11
1.13988e-10
3.76734e-16
-3.83283e-11
-1.63022e-18
-2.84304e-19
-1.60675e-18
-3.81122e-19
-1.46416e-18
-5.45427e-19
-1.29247e-18
-6.73479e-19
-1.10071e-18
-7.90475e-19
-8.90424e-19
-8.90927e-19
-6.65043e-19
-9.69106e-19
-4.29664e-19
-1.02209e-18
-1.90111e-19
-1.04889e-18
4.7758e-20
-1.0501e-18
2.78483e-19
-1.02745e-18
4.97273e-19
-9.83508e-19
7.00154e-19
-9.21386e-19
8.84036e-19
-8.44502e-19
1.04671e-18
-7.56355e-19
1.18678e-18
-6.60344e-19
1.30361e-18
-5.59622e-19
1.39719e-18
-4.57001e-19
1.46803e-18
-3.54885e-19
1.51703e-18
-2.55247e-19
1.5454e-18
-1.5964e-19
1.55453e-18
-6.92183e-20
1.54596e-18
1.52127e-20
1.52126e-18
9.31511e-20
1.48204e-18
1.64347e-19
1.42987e-18
2.28758e-19
1.36624e-18
2.86501e-19
1.29257e-18
3.37816e-19
1.21017e-18
3.83032e-19
1.12024e-18
4.22534e-19
1.0239e-18
4.56739e-19
9.22103e-19
4.86073e-19
8.15751e-19
5.10954e-19
7.05624e-19
5.3178e-19
5.92424e-19
5.48914e-19
4.76779e-19
5.62679e-19
3.59253e-19
5.73351e-19
2.40361e-19
5.81156e-19
1.20581e-19
5.86263e-19
5.88787e-19
-1.40867e-10
1.70964e-09
-3.2116e-10
1.66216e-09
-4.88173e-10
1.46733e-09
-7.89884e-10
1.32933e-09
-8.33974e-10
9.93878e-10
-9.98597e-10
7.64184e-10
-1.09543e-09
4.30556e-10
-1.09952e-09
3.03856e-10
-1.13791e-09
8.39602e-11
-1.08362e-09
-1.46363e-10
-1.03921e-09
-4.82206e-10
-1.02859e-09
-5.65282e-10
-9.85987e-10
-5.95996e-10
-9.36375e-10
-6.54227e-10
-8.3929e-10
-7.24182e-10
-7.17696e-10
-7.46573e-10
-6.44457e-10
-7.5004e-10
-5.4799e-10
-7.43099e-10
-4.61988e-10
-7.18142e-10
-2.95904e-10
-7.42163e-10
-1.96681e-10
-7.221e-10
-6.58477e-11
-6.9613e-10
2.30174e-11
-6.21247e-10
1.2769e-10
-5.03231e-10
2.53318e-10
-4.62867e-10
3.74576e-10
-3.61712e-10
4.53669e-10
-2.51656e-10
5.2243e-10
-1.35587e-10
5.31581e-10
1.46977e-11
5.16434e-10
1.44109e-10
4.83483e-10
2.00108e-10
4.49109e-10
2.04667e-10
3.93666e-10
1.88725e-10
3.29934e-10
1.81362e-10
2.33458e-10
2.40068e-10
9.45936e-11
3.70801e-10
-7.64767e-11
5.46464e-10
-2.60517e-10
7.02371e-10
-4.72488e-10
8.6742e-10
-6.5848e-10
9.39897e-10
-7.9569e-10
9.12175e-10
-8.89002e-10
6.94857e-10
-9.69783e-10
5.39328e-10
-1.00015e-09
3.01772e-10
-1.02968e-09
1.50882e-10
-1.04578e-09
-7.79082e-11
-1.02041e-09
-2.78039e-10
-9.81038e-10
-3.8496e-10
-9.95557e-10
-4.08045e-10
-9.82474e-10
-4.68042e-10
-8.92466e-10
-5.55968e-10
-9.51351e-10
-4.44233e-10
-9.57596e-10
-4.07209e-10
-1.06632e-09
-3.54911e-10
-9.8023e-10
-2.45183e-10
-9.50332e-10
-1.98237e-10
-9.17278e-10
-3.69815e-11
-8.69394e-10
1.23421e-10
-7.93169e-10
3.0733e-10
-6.08651e-10
3.25144e-10
-6.00487e-10
5.75183e-10
-4.74829e-10
4.47286e-10
-4.23293e-10
4.35743e-10
-3.79805e-10
3.3877e-10
-3.1551e-10
1.65642e-10
-2.54634e-10
5.05091e-11
-2.58403e-10
3.71342e-11
-3.08005e-10
-2.43016e-11
-3.85153e-10
-3.56802e-11
-3.98307e-10
-9.67549e-11
-4.12248e-10
-1.57362e-10
-4.91669e-10
-2.35473e-10
-5.89118e-10
-3.52802e-10
-6.69354e-10
-4.7658e-10
-7.08106e-10
-5.78465e-10
-7.39624e-10
-6.63871e-10
-8.38588e-10
-6.41445e-10
-7.21794e-10
-3.59717e-10
-3.15988e-10
-2.9182e-10
2.95159e-16
-3.54317e-10
-2.07666e-18
-1.46727e-18
-1.77056e-18
-6.8766e-19
-1.59173e-18
-7.24925e-19
-1.40899e-18
-8.56669e-19
-1.20094e-18
-9.98731e-19
-9.68602e-19
-1.12324e-18
-7.18026e-19
-1.21945e-18
-4.56467e-19
-1.28323e-18
-1.9132e-19
-1.31346e-18
7.04069e-20
-1.3111e-18
3.22426e-19
-1.27861e-18
5.59395e-19
-1.21948e-18
7.77038e-19
-1.13789e-18
9.72182e-19
-1.03836e-18
1.14272e-18
-9.25436e-19
1.2875e-18
-8.03504e-19
1.40623e-18
-6.76562e-19
1.49931e-18
-5.48128e-19
1.56767e-18
-4.21164e-19
1.61264e-18
-2.98059e-19
1.63582e-18
-1.80639e-19
1.63896e-18
-7.02248e-20
1.62389e-18
3.23116e-20
1.59246e-18
1.26472e-19
1.54646e-18
2.12065e-19
1.48761e-18
2.89141e-19
1.41755e-18
3.57934e-19
1.33778e-18
4.18815e-19
1.24967e-18
4.72248e-19
1.15445e-18
5.18753e-19
1.05323e-18
5.58879e-19
9.46985e-19
5.93176e-19
8.36577e-19
6.22177e-19
7.22758e-19
6.4638e-19
6.06189e-19
6.6624e-19
4.87451e-19
6.82158e-19
3.67057e-19
6.94475e-19
2.45468e-19
7.03468e-19
1.23105e-19
7.09345e-19
7.12247e-19
-2.84201e-10
1.99384e-09
-6.48961e-10
2.02692e-09
-7.51351e-10
1.56972e-09
-7.54182e-10
1.33217e-09
-8.00331e-10
1.04003e-09
-8.47038e-10
8.10892e-10
-9.43757e-10
5.27276e-10
-1.0024e-09
3.62503e-10
-1.05732e-09
1.38881e-10
-9.8217e-10
-2.21514e-10
-9.61415e-10
-5.0296e-10
-9.606e-10
-5.66096e-10
-9.37717e-10
-6.18877e-10
-8.56677e-10
-7.35267e-10
-7.86729e-10
-7.9413e-10
-7.47271e-10
-7.86029e-10
-6.93138e-10
-8.04173e-10
-5.94769e-10
-8.41468e-10
-4.98379e-10
-8.14532e-10
-3.94882e-10
-8.4566e-10
-3.02241e-10
-8.14742e-10
-2.76946e-10
-7.21425e-10
-2.02923e-10
-6.95271e-10
-1.80422e-11
-6.88112e-10
8.47509e-11
-5.65661e-10
2.08462e-10
-4.85424e-10
3.09359e-10
-3.52554e-10
3.86933e-10
-2.13162e-10
4.36316e-10
-3.4686e-11
4.61454e-10
1.18971e-10
4.30082e-10
2.31479e-10
3.92664e-10
2.42084e-10
3.44512e-10
2.36876e-10
2.49486e-10
2.76386e-10
9.63468e-11
3.93206e-10
-4.55759e-11
5.12722e-10
-1.70092e-10
6.70979e-10
-3.00844e-10
8.33122e-10
-4.65651e-10
1.03223e-09
-6.33376e-10
1.10762e-09
-7.66114e-10
1.04491e-09
-8.90546e-10
8.19288e-10
-1.00596e-09
6.54739e-10
-1.15883e-09
4.5464e-10
-1.17269e-09
1.64739e-10
-1.20026e-09
-5.03335e-11
-1.17758e-09
-3.00723e-10
-1.16913e-09
-3.9341e-10
-1.26648e-09
-3.10705e-10
-1.26555e-09
-4.6897e-10
-1.29849e-09
-5.23031e-10
-1.38412e-09
-3.58603e-10
-1.39922e-09
-3.92109e-10
-1.42497e-09
-3.29163e-10
-1.41029e-09
-2.59868e-10
-1.421e-09
-1.87524e-10
-1.3854e-09
-7.25885e-11
-1.28715e-09
2.51728e-11
-1.1155e-09
1.35682e-10
-9.9872e-10
2.08359e-10
-9.28055e-10
5.04518e-10
-8.07977e-10
3.27206e-10
-6.81649e-10
3.09414e-10
-6.33353e-10
2.90473e-10
-6.03295e-10
1.35583e-10
-5.00623e-10
-5.21634e-11
-4.97888e-10
3.43976e-11
-4.8495e-10
-3.72402e-11
-4.48332e-10
-7.23e-11
-4.30669e-10
-1.14418e-10
-4.22017e-10
-1.66015e-10
-4.83547e-10
-1.73944e-10
-5.69932e-10
-2.66419e-10
-6.15693e-10
-4.30821e-10
-6.03947e-10
-5.90212e-10
-6.10678e-10
-6.57141e-10
-6.82671e-10
-5.69452e-10
-5.16864e-10
-5.25526e-10
-2.78451e-10
-5.30234e-10
2.20778e-16
-6.32769e-10
-1.71135e-18
-9.45572e-19
-1.80735e-18
-5.9198e-19
-1.723e-18
-8.09716e-19
-1.55058e-18
-1.0293e-18
-1.32522e-18
-1.22407e-18
-1.06482e-18
-1.3834e-18
-7.81805e-19
-1.50202e-18
-4.86693e-19
-1.57772e-18
-1.88961e-19
-1.61042e-18
1.02901e-19
-1.60207e-18
3.81555e-19
-1.55627e-18
6.40983e-19
-1.47783e-18
8.76572e-19
-1.37231e-18
1.0851e-18
-1.24562e-18
1.26465e-18
-1.10359e-18
1.41444e-18
-9.51759e-19
1.53466e-18
-7.95082e-19
1.62627e-18
-6.37851e-19
1.69077e-18
-4.83609e-19
1.73006e-18
-3.35147e-19
1.74623e-18
-1.94537e-19
1.7415e-18
-6.32089e-20
1.71805e-18
5.796e-20
1.67805e-18
1.68544e-19
1.62353e-18
2.68475e-19
1.55641e-18
3.57959e-19
1.47844e-18
4.37404e-19
1.39121e-18
5.07359e-19
1.29617e-18
5.68461e-19
1.19458e-18
6.21401e-19
1.08753e-18
6.66881e-19
9.75985e-19
7.05596e-19
8.6078e-19
7.38207e-19
7.42618e-19
7.65326e-19
6.22107e-19
7.87507e-19
4.99768e-19
8.05235e-19
3.7605e-19
8.18918e-19
2.51345e-19
8.28888e-19
1.26006e-19
8.35394e-19
8.38604e-19
-2.14737e-10
2.20858e-09
-3.30266e-10
2.14245e-09
-5.23741e-10
1.7632e-09
-6.08366e-10
1.41679e-09
-7.02822e-10
1.13449e-09
-7.82754e-10
8.90825e-10
-8.06584e-10
5.51107e-10
-8.48781e-10
4.04701e-10
-7.82316e-10
7.24172e-11
-8.50304e-10
-1.53525e-10
-8.32772e-10
-5.20491e-10
-8.6925e-10
-5.29618e-10
-8.39981e-10
-6.48146e-10
-8.07765e-10
-7.67482e-10
-7.94534e-10
-8.07361e-10
-7.71977e-10
-8.08586e-10
-7.25207e-10
-8.50943e-10
-6.98808e-10
-8.67868e-10
-6.52929e-10
-8.6041e-10
-6.2095e-10
-8.77639e-10
-5.88692e-10
-8.47e-10
-4.97296e-10
-8.12821e-10
-3.9586e-10
-7.96708e-10
-2.98506e-10
-7.85467e-10
-1.71322e-10
-6.92845e-10
-7.71704e-11
-5.79576e-10
3.56154e-11
-4.65341e-10
1.65139e-10
-3.42687e-10
2.56944e-10
-1.26491e-10
2.90725e-10
8.51887e-11
2.81769e-10
2.40434e-10
2.37405e-10
2.86447e-10
1.53892e-10
3.20388e-10
4.86199e-11
3.81657e-10
-4.96307e-11
4.91455e-10
-1.76644e-10
6.39734e-10
-2.83987e-10
7.78321e-10
-4.33806e-10
9.82939e-10
-5.85881e-10
1.1843e-09
-6.964e-10
1.21814e-09
-7.96903e-10
1.14541e-09
-9.22466e-10
9.44849e-10
-1.01171e-09
7.43981e-10
-1.14154e-09
5.8447e-10
-1.23483e-09
2.58027e-10
-1.33751e-09
5.23399e-11
-1.34683e-09
-2.91403e-10
-1.39394e-09
-3.46305e-10
-1.50897e-09
-1.95668e-10
-1.52e-09
-4.57947e-10
-1.63591e-09
-4.07119e-10
-1.73031e-09
-2.64205e-10
-1.75731e-09
-3.65112e-10
-1.78889e-09
-2.97581e-10
-1.80727e-09
-2.41494e-10
-1.78343e-09
-2.11361e-10
-1.78126e-09
-7.47644e-11
-1.71923e-09
-3.6861e-11
-1.6244e-09
4.08527e-11
-1.61607e-09
2.00028e-10
-1.33135e-09
2.19799e-10
-1.19301e-09
1.88864e-10
-1.06449e-09
1.80892e-10
-1.00271e-09
2.28696e-10
-1.08176e-09
2.1463e-10
-7.58697e-10
-3.75228e-10
-7.73688e-10
4.9387e-11
-6.82413e-10
-1.28516e-10
-5.7017e-10
-1.84544e-10
-5.1933e-10
-1.65259e-10
-4.68588e-10
-2.16757e-10
-3.82664e-10
-2.5987e-10
-3.00247e-10
-3.48836e-10
-2.69219e-10
-4.6185e-10
-2.38931e-10
-6.20502e-10
-2.17578e-10
-6.78494e-10
-1.56408e-10
-6.30623e-10
-1.01219e-10
-5.80716e-10
-1.15511e-10
-5.15943e-10
1.64814e-16
-7.4828e-10
-1.83477e-18
3.23216e-20
-2.02461e-18
-4.02351e-19
-1.94212e-18
-8.92438e-19
-1.7449e-18
-1.22652e-18
-1.48433e-18
-1.4844e-18
-1.18344e-18
-1.68383e-18
-8.57507e-19
-1.82728e-18
-5.19394e-19
-1.91498e-18
-1.80611e-19
-1.9482e-18
1.48702e-19
-1.93027e-18
4.59997e-19
-1.86637e-18
7.46499e-19
-1.76309e-18
1.00327e-18
-1.62781e-18
1.22712e-18
-1.46816e-18
1.41648e-18
-1.29158e-18
1.57112e-18
-1.10493e-18
1.6919e-18
-9.14268e-19
1.78051e-18
-7.24703e-19
1.83923e-18
-5.40368e-19
1.87067e-18
-3.64423e-19
1.87756e-18
-1.99125e-19
1.86267e-18
-4.59376e-20
1.82864e-18
9.43408e-20
1.77798e-18
2.21444e-19
1.71302e-18
3.35513e-19
1.63585e-18
4.36986e-19
1.54839e-18
5.26511e-19
1.45232e-18
6.04872e-19
1.34911e-18
6.72927e-19
1.24006e-18
7.3157e-19
1.12624e-18
7.81691e-19
1.0086e-18
8.24146e-19
8.87899e-19
8.59742e-19
7.64799e-19
8.89217e-19
6.39835e-19
9.13229e-19
5.13452e-19
9.32353e-19
3.86019e-19
9.47069e-19
2.57851e-19
9.57766e-19
1.29216e-19
9.64733e-19
9.68166e-19
-1.43985e-10
2.35257e-09
-2.37418e-10
2.23588e-09
-3.32299e-10
1.85808e-09
-4.31574e-10
1.51607e-09
-5.21179e-10
1.22409e-09
-5.97254e-10
9.66902e-10
-6.95852e-10
6.49705e-10
-7.49545e-10
4.58395e-10
-6.79348e-10
2.22143e-12
-7.82708e-10
-5.01639e-11
-7.97241e-10
-5.05958e-10
-7.74056e-10
-5.52802e-10
-7.32856e-10
-6.89346e-10
-7.0004e-10
-8.00298e-10
-7.72707e-10
-7.34693e-10
-7.98147e-10
-7.83146e-10
-7.89933e-10
-8.59157e-10
-7.85095e-10
-8.72706e-10
-7.62503e-10
-8.83003e-10
-7.62092e-10
-8.7805e-10
-7.34762e-10
-8.7433e-10
-6.68308e-10
-8.79275e-10
-5.34607e-10
-9.3041e-10
-4.01164e-10
-9.1891e-10
-3.2159e-10
-7.7242e-10
-2.10309e-10
-6.90858e-10
-1.30348e-10
-5.45302e-10
-9.95347e-11
-3.73502e-10
-2.07067e-12
-2.23956e-10
1.23859e-10
-4.07421e-11
1.69534e-10
1.94758e-10
1.19774e-10
3.36206e-10
3.63109e-11
4.0385e-10
-6.67726e-11
4.8474e-10
-1.71289e-10
5.95971e-10
-2.77981e-10
7.46424e-10
-4.1607e-10
9.16409e-10
-5.48934e-10
1.1158e-09
-6.83181e-10
1.31854e-09
-8.70269e-10
1.40522e-09
-1.01116e-09
1.2863e-09
-1.05099e-09
9.84681e-10
-1.03073e-09
7.23718e-10
-1.16715e-09
7.20888e-10
-1.30016e-09
3.91039e-10
-1.42817e-09
1.8035e-10
-1.44901e-09
-2.70567e-10
-1.55034e-09
-2.44984e-10
-1.6778e-09
-6.82007e-11
-1.78613e-09
-3.49626e-10
-1.90327e-09
-2.89981e-10
-2.00841e-09
-1.59064e-10
-2.06708e-09
-3.06446e-10
-2.14266e-09
-2.22004e-10
-2.198e-09
-1.86151e-10
-2.22389e-09
-1.85472e-10
-2.20365e-09
-9.50131e-11
-2.17397e-09
-6.6542e-11
-2.05539e-09
-7.77286e-11
-1.93405e-09
7.86922e-11
-1.78093e-09
6.66809e-11
-1.62788e-09
3.5805e-11
-1.4876e-09
4.06162e-11
-1.4625e-09
2.03594e-10
-1.42671e-09
1.78844e-10
-1.09169e-09
-7.10255e-10
-1.04573e-09
3.43228e-12
-9.0586e-10
-2.6839e-10
-6.9816e-10
-3.92244e-10
-5.9566e-10
-2.67761e-10
-4.61936e-10
-3.50482e-10
-2.93812e-10
-4.27995e-10
-1.86772e-10
-4.55877e-10
-1.35034e-10
-5.13589e-10
-6.2837e-11
-6.92699e-10
2.32163e-11
-7.64548e-10
1.84358e-10
-7.91766e-10
2.22379e-10
-6.18737e-10
9.97305e-11
-3.93295e-10
1.35576e-16
-6.4855e-10
-2.79294e-18
-6.45014e-19
-2.51421e-18
-6.81176e-19
-2.27574e-18
-1.13099e-18
-2.00235e-18
-1.49978e-18
-1.68355e-18
-1.80283e-18
-1.32688e-18
-2.0399e-18
-9.45207e-19
-2.20813e-18
-5.5262e-19
-2.30654e-18
-1.62677e-19
-2.33695e-18
2.12598e-19
-2.30421e-18
5.6328e-19
-2.21563e-18
8.81785e-19
-2.08014e-18
1.16291e-18
-1.90748e-18
1.4037e-18
-1.70751e-18
1.60313e-18
-1.48959e-18
1.76178e-18
-1.26215e-18
1.88146e-18
-1.03245e-18
1.96485e-18
-8.06467e-19
2.01518e-18
-5.88889e-19
2.03597e-18
-3.83171e-19
2.03075e-18
-1.91657e-19
2.00295e-18
-1.57349e-20
1.95574e-18
1.43991e-19
1.89205e-18
2.87524e-19
1.81449e-18
4.15317e-19
1.72538e-18
5.28134e-19
1.62675e-18
6.26942e-19
1.52037e-18
7.12822e-19
1.40776e-18
7.86909e-19
1.29018e-18
8.5034e-19
1.1687e-18
9.04219e-19
1.04419e-18
9.49589e-19
9.17374e-19
9.87418e-19
7.88812e-19
1.01858e-18
6.58959e-19
1.04384e-18
5.28168e-19
1.06388e-18
3.96716e-19
1.07923e-18
2.64819e-19
1.09036e-18
1.32649e-19
1.0976e-18
1.10116e-18
-1.03385e-10
2.45595e-09
-1.571e-10
2.2896e-09
-2.47484e-10
1.94847e-09
-3.78868e-10
1.64745e-09
-4.89186e-10
1.33441e-09
-5.24466e-10
1.00218e-09
-5.91149e-10
7.1639e-10
-5.88612e-10
4.55859e-10
-6.5724e-10
7.08495e-11
-6.25624e-10
-8.17783e-11
-6.15728e-10
-5.15853e-10
-6.00185e-10
-5.68344e-10
-6.35069e-10
-6.54461e-10
-7.72239e-10
-6.63127e-10
-8.6036e-10
-6.46572e-10
-8.22432e-10
-8.21074e-10
-8.46956e-10
-8.34633e-10
-9.04691e-10
-8.14971e-10
-9.46371e-10
-8.41323e-10
-9.35924e-10
-8.88497e-10
-8.53184e-10
-9.5707e-10
-7.49518e-10
-9.82942e-10
-6.38714e-10
-1.04121e-09
-5.46222e-10
-1.0114e-09
-4.07475e-10
-9.11168e-10
-3.59987e-10
-7.38346e-10
-3.31076e-10
-5.74214e-10
-2.84033e-10
-4.20546e-10
-2.39502e-10
-2.68488e-10
-1.76931e-10
-1.03314e-10
-7.12916e-11
8.91166e-11
-2.33089e-11
2.88222e-10
-5.72076e-11
4.37748e-10
-1.61195e-10
5.88726e-10
-3.20767e-10
7.55541e-10
-4.5944e-10
8.85096e-10
-6.02408e-10
1.05938e-09
-7.85936e-10
1.29933e-09
-8.96507e-10
1.42911e-09
-9.20235e-10
1.42895e-09
-9.58736e-10
1.3248e-09
-1.18997e-09
1.21592e-09
-1.35621e-09
8.89957e-10
-1.28185e-09
6.46517e-10
-1.4219e-09
5.31088e-10
-1.48964e-09
2.48092e-10
-1.58284e-09
-1.77365e-10
-1.71658e-09
-1.11245e-10
-1.84626e-09
6.14778e-11
-1.96944e-09
-2.26454e-10
-2.08441e-09
-1.75005e-10
-2.21058e-09
-3.29041e-11
-2.30188e-09
-2.15143e-10
-2.36142e-09
-1.62467e-10
-2.43007e-09
-1.17499e-10
-2.48688e-09
-1.2866e-10
-2.48496e-09
-9.69365e-11
-2.45969e-09
-9.18165e-11
-2.43054e-09
-1.06883e-10
-2.26689e-09
-8.49513e-11
-2.09351e-09
-1.06706e-10
-1.96024e-09
-9.7459e-11
-1.79669e-09
-1.2294e-10
-1.7719e-09
1.78801e-10
-1.54503e-09
-4.80216e-11
-1.43602e-09
-8.19268e-10
-1.19035e-09
-2.42237e-10
-1.0367e-09
-4.22046e-10
-8.18076e-10
-6.10865e-10
-6.9199e-10
-3.93848e-10
-5.31929e-10
-5.10544e-10
-3.41583e-10
-6.18342e-10
-2.10375e-10
-5.87086e-10
-7.9548e-11
-6.44416e-10
-2.50402e-11
-7.47208e-10
-3.51343e-11
-7.54455e-10
1.62518e-11
-8.43152e-10
1.53926e-10
-7.56411e-10
8.78344e-11
-3.27204e-10
1.37131e-16
-5.60716e-10
-3.38192e-18
-1.56723e-18
-2.96355e-18
-1.09957e-18
-2.64409e-18
-1.45048e-18
-2.30497e-18
-1.83874e-18
-1.92042e-18
-2.187e-18
-1.49511e-18
-2.4646e-18
-1.04361e-18
-2.65879e-18
-5.83029e-19
-2.76603e-18
-1.29943e-19
-2.78873e-18
3.01179e-19
-2.73385e-18
6.98775e-19
-2.6116e-18
1.05444e-18
-2.4341e-18
1.36288e-18
-2.21423e-18
1.62162e-18
-1.96462e-18
1.83057e-18
-1.69698e-18
1.99148e-18
-1.42156e-18
2.10744e-18
-1.14694e-18
2.18242e-18