0 	306.434
0.010101 	313.565
0.020202 	313.875
