/*--------------------------------*- C++ -*----------------------------------*\
  =========                 |
  \\      /  F ield         | OpenFOAM: The Open Source CFD Toolbox
   \\    /   O peration     | Website:  https://openfoam.org
    \\  /    A nd           | Version:  6
     \\/     M anipulation  |
\*---------------------------------------------------------------------------*/
FoamFile
{
    version     2.0;
    format      ascii;
    class       surfaceScalarField;
    location    "2500";
    object      phi;
}
// * * * * * * * * * * * * * * * * * * * * * * * * * * * * * * * * * * * * * //

dimensions      [0 3 -1 0 0 0 0];

internalField   nonuniform List<scalar> 
9440
(
9.408e-11
-9.408e-11
5.81233e-11
3.59567e-11
1.41196e-11
4.40037e-11
-4.98118e-11
6.39314e-11
-1.79922e-10
1.3011e-10
-3.97438e-10
2.17517e-10
-6.9002e-10
2.92582e-10
-1.09904e-09
4.09025e-10
-1.66542e-09
5.66374e-10
-1.92148e-09
2.56058e-10
-2.27201e-09
3.50534e-10
-2.47107e-09
1.99061e-10
-2.59512e-09
1.24051e-10
-2.59479e-09
-3.36911e-13
-2.50853e-09
-8.62601e-11
-2.47542e-09
-3.3104e-11
-2.3059e-09
-1.69518e-10
-2.19843e-09
-1.07473e-10
-2.15203e-09
-4.64047e-11
-2.13443e-09
-1.75936e-11
-2.08539e-09
-4.90388e-11
-1.67054e-09
-4.14854e-10
-1.29177e-09
-3.78768e-10
-1.1702e-09
-1.21568e-10
-4.89242e-10
-6.80961e-10
-3.08086e-10
-1.81156e-10
-1.09216e-10
-1.98869e-10
6.8831e-11
-1.78048e-10
2.68254e-10
-1.99423e-10
9.62532e-10
-6.94278e-10
1.25224e-09
-2.89709e-10
1.70908e-09
-4.56845e-10
2.15606e-09
-4.4698e-10
2.52669e-09
-3.70622e-10
2.51812e-09
8.56693e-12
2.49226e-09
2.58519e-11
2.35683e-09
1.35431e-10
2.24849e-09
1.08347e-10
2.23154e-09
1.69411e-11
2.29685e-09
-6.53023e-11
2.4135e-09
-1.1666e-10
2.58334e-09
-1.69834e-10
2.68994e-09
-1.06603e-10
2.69114e-09
-1.20163e-12
2.8403e-09
-1.49161e-10
2.89751e-09
-5.72075e-11
3.03554e-09
-1.38036e-10
3.18934e-09
-1.53796e-10
3.43187e-09
-2.42529e-10
3.54308e-09
-1.11212e-10
3.72565e-09
-1.82579e-10
3.72961e-09
-3.95258e-12
3.74519e-09
-1.55874e-11
3.73458e-09
1.0613e-11
3.72161e-09
1.29639e-11
3.72927e-09
-7.65593e-12
3.78648e-09
-5.72138e-11
3.90646e-09
-1.19984e-10
4.05087e-09
-1.44411e-10
4.15276e-09
-1.01891e-10
4.22061e-09
-6.78566e-11
4.24291e-09
-2.22976e-11
4.23775e-09
5.15711e-12
4.22145e-09
1.62998e-11
4.12451e-09
9.69361e-11
3.96218e-09
1.62329e-10
3.72436e-09
2.37825e-10
3.5246e-09
1.99755e-10
2.9616e-09
5.63001e-10
2.23983e-09
7.21768e-10
9.50652e-10
1.28918e-09
-4.6241e-10
1.41306e-09
-1.31951e-09
8.57097e-10
-1.87117e-09
5.51662e-10
-1.99526e-09
1.24098e-10
-1.62132e-09
-3.7394e-10
-1.39249e-09
-2.28829e-10
-9.80695e-10
-4.11799e-10
-2.60192e-10
-7.20502e-10
-1.0678e-15
-2.6019e-10
-1.04702e-17
2.4859e-18
-6.70288e-18
-3.76729e-18
-4.67959e-18
-2.02227e-18
-3.80417e-18
-8.74598e-19
-3.4602e-18
-3.43263e-19
-3.3012e-18
-1.5819e-19
-3.16932e-18
-1.30978e-19
-3.0032e-18
-1.65243e-19
-2.78484e-18
-2.1759e-19
-2.51436e-18
-2.69873e-19
-2.19913e-18
-3.14823e-19
-1.84916e-18
-3.49793e-19
-1.47517e-18
-3.7408e-19
-1.08772e-18
-3.87822e-19
-6.96786e-19
-3.91575e-19
-3.11538e-19
-3.86136e-19
5.98137e-20
-3.72466e-19
4.10114e-19
-3.51631e-19
7.33334e-19
-3.24766e-19
1.02461e-18
-2.93027e-19
1.28025e-18
-2.57565e-19
1.49767e-18
-2.19494e-19
1.67536e-18
-1.79859e-19
1.81274e-18
-1.39608e-19
1.91004e-18
-9.95721e-20
1.96824e-18
-6.04623e-20
1.98887e-18
-2.28688e-20
1.97389e-18
1.27335e-20
1.92563e-18
4.59793e-20
1.84665e-18
7.66065e-20
1.7397e-18
1.04446e-19
1.60767e-18
1.29409e-19
1.45351e-18
1.51464e-19
1.28022e-18
1.70626e-19
1.09076e-18
1.86933e-19
8.88041e-19
2.00434e-19
6.74868e-19
2.11176e-19
4.53983e-19
2.19191e-19
2.28088e-19
2.24461e-19
2.26825e-19
4.30721e-11
-1.37152e-10
-7.77142e-11
1.56743e-10
-3.70325e-10
3.36614e-10
-7.40537e-10
4.34144e-10
-9.89073e-10
3.78645e-10
-1.24912e-09
4.77565e-10
-1.62285e-09
6.6631e-10
-1.90721e-09
6.93381e-10
-1.92761e-09
5.86779e-10
-2.21274e-09
5.41186e-10
-2.29731e-09
4.35103e-10
-2.63795e-09
5.39704e-10
-2.79064e-09
2.76743e-10
-2.87192e-09
8.09373e-11
-2.96269e-09
4.51649e-12
-2.92305e-09
-7.27504e-11
-2.89491e-09
-1.9766e-10
-2.84173e-09
-1.60645e-10
-2.76544e-09
-1.22693e-10
-2.67722e-09
-1.0582e-10
-2.36261e-09
-3.63643e-10
-2.09486e-09
-6.82605e-10
-1.48923e-09
-9.84398e-10
-1.10246e-09
-5.08345e-10
-9.47102e-10
-8.36315e-10
-6.30715e-10
-4.97543e-10
-3.28209e-10
-5.01376e-10
1.34639e-11
-5.19721e-10
2.58916e-10
-4.44876e-10
6.92199e-10
-1.12756e-09
1.21372e-09
-8.11234e-10
1.57797e-09
-8.21091e-10
2.02282e-09
-8.9183e-10
2.36776e-09
-7.15564e-10
2.42463e-09
-4.83076e-11
2.36757e-09
8.29171e-11
2.28364e-09
2.19356e-10
2.20646e-09
1.85526e-10
2.20855e-09
1.48502e-11
2.2581e-09
-1.14859e-10
2.39712e-09
-2.55677e-10
2.45095e-09
-2.23663e-10
2.55382e-09
-2.09481e-10
2.6742e-09
-1.21576e-10
2.80923e-09
-2.84191e-10
2.95425e-09
-2.02234e-10
3.05822e-09
-2.42009e-10
3.19598e-09
-2.91559e-10
3.28737e-09
-3.33914e-10
3.37164e-09
-1.95488e-10
3.61913e-09
-4.30069e-10
3.75913e-09
-1.43959e-10
3.80476e-09
-6.12234e-11
3.84162e-09
-2.62527e-11
3.88752e-09
-3.29388e-11
3.95645e-09
-7.65896e-11
4.0029e-09
-1.03663e-10
4.00636e-09
-1.23443e-10
3.9661e-09
-1.04155e-10
3.97506e-09
-1.10856e-10
4.00477e-09
-9.75669e-11
4.03015e-09
-4.76801e-11
4.00614e-09
2.91621e-11
4.00566e-09
1.67795e-11
3.86644e-09
2.36156e-10
3.82795e-09
2.00815e-10
3.52533e-09
5.40442e-10
3.32987e-09
3.9522e-10
2.77428e-09
1.11859e-09
2.36032e-09
1.13573e-09
2.1234e-09
1.52609e-09
2.11941e-09
1.41706e-09
1.78095e-09
1.19555e-09
1.22847e-09
1.10414e-09
3.65671e-10
9.869e-10
-4.82415e-10
4.74147e-10
-6.86577e-10
-2.46658e-11
-5.3874e-10
-5.59634e-10
-2.76063e-10
-9.83179e-10
-2.56709e-16
-5.36253e-10
-1.0066e-17
5.34155e-18
-4.96007e-18
-8.873e-18
-3.53354e-18
-3.44758e-18
-3.274e-18
-1.13252e-18
-3.27582e-18
-3.39867e-19
-3.2741e-18
-1.58382e-19
-3.20353e-18
-2.00125e-19
-3.05554e-18
-3.11938e-19
-2.83712e-18
-4.3497e-19
-2.55931e-18
-5.46987e-19
-2.2341e-18
-6.39751e-19
-1.87345e-18
-7.10619e-19
-1.48891e-18
-7.59251e-19
-1.09147e-18
-7.86359e-19
-6.91347e-19
-7.93233e-19
-2.97867e-19
-7.81555e-19
8.0648e-20
-7.53292e-19
4.36979e-19
-7.1062e-19
7.65073e-19
-6.55841e-19
1.06007e-18
-5.91306e-19
1.31832e-18
-5.19352e-19
1.53731e-18
-4.42231e-19
1.71561e-18
-3.62053e-19
1.85277e-18
-2.80737e-19
1.94915e-18
-1.99971e-19
2.00584e-18
-1.21199e-19
2.02447e-18
-4.56137e-20
2.00714e-18
2.58476e-20
1.95626e-18
9.24907e-20
1.87449e-18
1.53843e-19
1.76466e-18
2.09615e-19
1.62972e-18
2.5966e-19
1.47267e-18
3.03934e-19
1.29653e-18
3.42452e-19
1.10426e-18
3.75268e-19
8.98783e-19
4.02455e-19
6.82883e-19
4.24085e-19
4.59253e-19
4.40226e-19
2.30452e-19
4.50929e-19
4.56251e-19
-4.12367e-10
2.75215e-10
-5.92942e-10
3.37318e-10
-6.25925e-10
3.69598e-10
-9.68258e-10
7.76477e-10
-1.54062e-09
9.51011e-10
-1.79038e-09
7.27324e-10
-1.97613e-09
8.52061e-10
-2.20247e-09
9.19719e-10
-2.33773e-09
7.22036e-10
-2.47466e-09
6.78115e-10
-2.61221e-09
5.72657e-10
-2.81591e-09
7.43399e-10
-2.98659e-09
4.47426e-10
-3.13112e-09
2.25464e-10
-3.2664e-09
1.39798e-10
-3.25005e-09
-8.91016e-11
-3.27434e-09
-1.73361e-10
-3.21204e-09
-2.22953e-10
-2.99342e-09
-3.41305e-10
-2.68596e-09
-4.13285e-10
-2.36119e-09
-6.88413e-10
-2.05902e-09
-9.84771e-10
-1.6923e-09
-1.35112e-09
-1.34365e-09
-8.56993e-10
-1.14619e-09
-1.03377e-09
-5.33782e-10
-1.10995e-09
-1.05964e-10
-9.29195e-10
2.85051e-10
-9.10736e-10
8.20559e-10
-9.80384e-10
9.6473e-10
-1.27173e-09
1.34205e-09
-1.18855e-09
1.65136e-09
-1.1304e-09
1.929e-09
-1.16948e-09
2.10237e-09
-8.88937e-10
2.14738e-09
-9.33183e-11
2.10033e-09
1.29972e-10
2.05814e-09
2.61539e-10
1.94181e-09
3.01862e-10
1.96899e-09
-1.23298e-11
2.05214e-09
-1.98019e-10
2.19113e-09
-3.9466e-10
2.27568e-09
-3.08223e-10
2.3812e-09
-3.14999e-10
2.52662e-09
-2.66996e-10
2.69664e-09
-4.54215e-10
2.97543e-09
-4.81025e-10
3.12014e-09
-3.8671e-10
3.27824e-09
-4.49664e-10
3.38084e-09
-4.36519e-10
3.56358e-09
-3.78231e-10
3.39109e-09
-2.57578e-10
3.50985e-09
-2.62725e-10
3.58735e-09
-1.38727e-10
3.67808e-09
-1.16981e-10
3.7716e-09
-1.26466e-10
3.8048e-09
-1.09787e-10
3.79335e-09
-9.22235e-11
3.75609e-09
-8.6185e-11
3.7289e-09
-7.69634e-11
3.71723e-09
-9.91873e-11
3.68907e-09
-6.94092e-11
3.65506e-09
-1.36774e-11
3.63873e-09
4.54967e-11
3.57278e-09
8.27234e-11
3.56021e-09
2.48723e-10
3.43399e-09
3.27035e-10
3.41033e-09
5.64096e-10
3.12665e-09
6.78908e-10
3.17521e-09
1.07003e-09
3.00767e-09
1.30327e-09
2.99942e-09
1.53434e-09
2.76134e-09
1.65513e-09
2.29178e-09
1.66511e-09
1.75567e-09
1.64026e-09
1.33023e-09
1.41235e-09
1.02661e-09
7.77764e-10
4.93367e-10
5.08578e-10
3.06927e-10
-3.73193e-10
5.30872e-11
-7.29337e-10
-2.58486e-16
-4.83164e-10
-3.79885e-18
-5.18723e-17
4.65464e-19
-1.31367e-17
-1.21824e-18
-1.76295e-18
-2.48101e-18
1.31568e-19
-3.09392e-18
2.74479e-19
-3.3154e-18
6.45403e-20
-3.31514e-18
-1.98988e-19
-3.17858e-18
-4.47231e-19
-2.94914e-18
-6.63319e-19
-2.65207e-18
-8.43237e-19
-2.30497e-18
-9.8638e-19
-1.92208e-18
-1.0934e-18
-1.51602e-18
-1.16557e-18
-1.09834e-18
-1.20466e-18
-6.79668e-19
-1.21289e-18
-2.69604e-19
-1.19291e-18
1.2332e-19
-1.14779e-18
4.91758e-19
-1.08091e-18
8.29608e-19
-9.95818e-19
1.13203e-18
-8.9615e-19
1.39544e-18
-7.85486e-19
1.61748e-18
-6.67272e-19
1.79693e-18
-5.44726e-19
1.93354e-18
-4.2076e-19
2.02793e-18
-2.97927e-19
2.08142e-18
-1.7839e-19
2.09593e-18
-6.39116e-20
2.07378e-18
4.41363e-20
2.01761e-18
1.44749e-19
1.93026e-18
2.37249e-19
1.81471e-18
3.21228e-19
1.67399e-18
3.9649e-19
1.51119e-18
4.62985e-19
1.32934e-18
5.20762e-19
1.13145e-18
5.69923e-19
9.20414e-19
6.106e-19
6.99024e-19
6.42927e-19
4.69956e-19
6.67031e-19
2.35774e-19
6.83019e-19
6.90976e-19
-1.37907e-10
4.13123e-10
-3.78876e-10
5.78286e-10
-6.04617e-10
5.95339e-10
-8.3473e-10
1.00659e-09
-1.36761e-09
1.48389e-09
-1.97792e-09
1.33763e-09
-2.29208e-09
1.16623e-09
-2.29959e-09
9.2723e-10
-2.52616e-09
9.48605e-10
-2.73676e-09
8.88716e-10
-3.00631e-09
8.42205e-10
-3.08116e-09
8.18242e-10
-3.18929e-09
5.55557e-10
-3.30083e-09
3.3701e-10
-3.35181e-09
1.90777e-10
-3.3561e-09
-8.48096e-11
-3.34482e-09
-1.84645e-10
-3.19487e-09
-3.729e-10
-2.9276e-09
-6.08578e-10
-2.61368e-09
-7.27201e-10
-2.36771e-09
-9.34384e-10
-2.05892e-09
-1.29356e-09
-1.70747e-09
-1.70258e-09
-7.4892e-10
-1.81554e-09
-4.94168e-10
-1.28853e-09
-1.15059e-10
-1.48906e-09
2.62462e-10
-1.30672e-09
6.43822e-10
-1.2921e-09
9.5619e-10
-1.29275e-09
1.31887e-09
-1.63441e-09
1.62163e-09
-1.49132e-09
1.84228e-09
-1.35105e-09
1.85568e-09
-1.18288e-09
1.73291e-09
-7.66165e-10
1.66266e-09
-2.3065e-11
1.6561e-09
1.3653e-10
1.70449e-09
2.13141e-10
1.66188e-09
3.44473e-10
1.75875e-09
-1.09198e-10
1.89066e-09
-3.29929e-10
2.031e-09
-5.35006e-10
2.13311e-09
-4.10333e-10
2.30325e-09
-4.85138e-10
2.57056e-09
-5.34307e-10
2.67168e-09
-5.55343e-10
2.81794e-09
-6.27286e-10
2.99002e-09
-5.58789e-10
3.02836e-09
-4.88004e-10
3.05294e-09
-4.61096e-10
3.0844e-09
-4.09694e-10
3.187e-09
-3.60187e-10
3.2098e-09
-2.85527e-10
3.3033e-09
-2.32223e-10
3.33606e-09
-1.49752e-10
3.33471e-09
-1.25115e-10
3.32139e-09
-9.64671e-11
3.31373e-09
-8.45691e-11
3.27936e-09
-5.18146e-11
3.24313e-09
-4.07363e-11
3.20665e-09
-6.27116e-11
3.18443e-09
-4.7188e-11
3.18154e-09
-1.07946e-11
3.2093e-09
1.7736e-11
3.20035e-09
9.16756e-11
3.19758e-09
2.5149e-10
3.12353e-09
4.01087e-10
3.16865e-09
5.1897e-10
3.05951e-09
7.88053e-10
3.01249e-09
1.11704e-09
2.96475e-09
1.35101e-09
2.89431e-09
1.60478e-09
2.75003e-09
1.79941e-09
2.57141e-09
1.84373e-09
2.38005e-09
1.83162e-09
1.92241e-09
1.86998e-09
1.43589e-09
1.26429e-09
8.7453e-10
1.06994e-09
7.85161e-10
-2.83823e-10
7.5601e-10
-7.00186e-10
-1.39428e-10
4.12275e-10
4.76652e-17
-1.39428e-10
1.09689e-17
2.35611e-17
6.76446e-19
8.5301e-18
-2.33774e-18
3.14678e-18
-3.30343e-18
1.24145e-18
-3.57848e-18
3.40983e-19
-3.56319e-18
-2.12844e-19
-3.39466e-18
-6.14429e-19
-3.12906e-18
-9.27749e-19
-2.79522e-18
-1.17615e-18
-2.41199e-18
-1.36899e-18
-1.99426e-18
-1.51086e-18
-1.55511e-18
-1.60477e-18
-1.10657e-18
-1.65358e-18
-6.5969e-19
-1.66044e-18
-2.24487e-19
-1.62906e-18
1.90204e-19
-1.56368e-18
5.76848e-19
-1.46898e-18
9.29276e-19
-1.34992e-18
1.24269e-18
-1.21154e-18
1.51365e-18
-1.05878e-18
1.74003e-18
-8.96362e-19
1.9209e-18
-7.28658e-19
2.05637e-18
-5.59607e-19
2.14746e-18
-3.92634e-19
2.1959e-18
-2.30613e-19
2.20398e-18
-7.58599e-20
2.1744e-18
6.98418e-20
2.11011e-18
2.05204e-19
2.01424e-18
3.29374e-19
1.88997e-18
4.41859e-19
1.74049e-18
5.42448e-19
1.56896e-18
6.31131e-19
1.3785e-18
7.08028e-19
1.17213e-18
7.73333e-19
9.52741e-19
8.27275e-19
7.23128e-19
8.70082e-19
4.85943e-19
9.01965e-19
2.43731e-19
9.23095e-19
9.33602e-19
-4.55678e-10
8.68801e-10
-1.03528e-09
1.15789e-09
-1.49568e-09
1.05574e-09
-1.75494e-09
1.26585e-09
-1.8136e-09
1.54256e-09
-1.85788e-09
1.38191e-09
-2.13099e-09
1.43934e-09
-2.40289e-09
1.19913e-09
-2.78102e-09
1.32674e-09
-2.98587e-09
1.09356e-09
-3.11056e-09
9.66898e-10
-3.14854e-09
8.56223e-10
-3.16909e-09
5.76101e-10
-3.27683e-09
4.44748e-10
-3.3165e-09
2.30451e-10
-3.385e-09
-1.63131e-11
-3.22458e-09
-3.45064e-10
-3.00897e-09
-5.88506e-10
-2.87177e-09
-7.45777e-10
-2.67801e-09
-9.20966e-10
-2.33917e-09
-1.27323e-09
-1.81283e-09
-1.8199e-09
-1.77337e-09
-1.74205e-09
-1.36452e-09
-2.22438e-09
-9.17751e-10
-1.7353e-09
-3.44849e-10
-2.06196e-09
9.78507e-11
-1.74942e-09
5.14989e-10
-1.70923e-09
9.27795e-10
-1.70556e-09
1.21601e-09
-1.92262e-09
1.49033e-09
-1.76565e-09
1.58015e-09
-1.44087e-09
1.52485e-09
-1.12757e-09
1.26535e-09
-5.06674e-10
1.20944e-09
3.28518e-11
1.22293e-09
1.2303e-10
1.38154e-09
5.45299e-11
1.52041e-09
2.05607e-10
1.68489e-09
-2.73676e-10
1.80864e-09
-4.5368e-10
2.07684e-09
-8.03208e-10
2.17625e-09
-5.09744e-10
2.26519e-09
-5.74086e-10
2.44928e-09
-7.1839e-10
2.63998e-09
-7.46047e-10
2.67028e-09
-6.57585e-10
2.67854e-09
-5.67055e-10
2.72133e-09
-5.30799e-10
2.77419e-09
-5.13954e-10
2.8232e-09
-4.58708e-10
2.88852e-09
-4.2551e-10
2.9131e-09
-3.10107e-10
2.92489e-09
-2.44012e-10
2.93499e-09
-1.59861e-10
2.95355e-09
-1.43677e-10
2.90996e-09
-5.28749e-11
2.9119e-09
-8.65167e-11
2.85213e-09
7.95896e-12
2.8023e-09
9.08943e-12
2.76754e-09
-2.79512e-11
2.73987e-09
-1.95211e-11
2.73349e-09
-4.42358e-12
2.731e-09
2.02309e-11
2.70874e-09
1.13929e-10
2.66779e-09
2.92443e-10
2.77999e-09
2.88879e-10
2.79368e-09
5.05286e-10
2.79607e-09
7.85663e-10
2.73861e-09
1.1745e-09
2.80074e-09
1.28888e-09
2.74443e-09
1.66109e-09
2.67774e-09
1.8661e-09
2.58024e-09
1.94123e-09
2.42945e-09
1.98241e-09
2.25676e-09
2.04268e-09
1.80783e-09
1.71322e-09
1.2553e-09
1.62247e-09
-2.81608e-10
1.25309e-09
-1.31027e-09
3.28478e-10
-1.17004e-09
2.72044e-10
-3.07943e-16
-1.30947e-09
-8.12991e-18
1.51515e-18
-4.70653e-18
5.10744e-18
-4.24263e-18
2.68388e-18
-4.20344e-18
1.20341e-18
-4.13184e-18
2.70609e-19
-3.96459e-18
-3.78818e-19
-3.70798e-18
-8.69823e-19
-3.37746e-18
-1.2572e-18
-2.98807e-18
-1.56467e-18
-2.55385e-18
-1.80264e-18
-2.08817e-18
-1.97629e-18
-1.60392e-18
-2.0891e-18
-1.11343e-18
-2.14443e-18
-6.2831e-19
-2.1462e-18
-1.59105e-19
-2.09915e-18
2.84903e-19
-2.00878e-18
6.95907e-19
-1.88126e-18
1.06766e-18
-1.72313e-18
1.39545e-18
-1.54103e-18
1.67607e-18
-1.34144e-18
1.90773e-18
-1.13048e-18
2.08995e-18
-9.13761e-19
2.22334e-18
-6.96282e-19
2.30948e-18
-4.82355e-19
2.35065e-18
-2.75557e-19
2.34968e-18
-7.87328e-20
2.30976e-18
1.05962e-19
2.23428e-18
2.77005e-19
2.12673e-18
4.33423e-19
1.99056e-18
5.747e-19
1.82917e-18
7.00668e-19
1.64586e-18
8.11416e-19
1.44381e-18
9.07193e-19
1.22607e-18
9.88338e-19
9.95549e-19
1.05522e-18
7.5501e-19
1.10821e-18
5.07074e-19
1.14761e-18
2.54238e-19
1.1737e-18
1.18667e-18
-4.39183e-11
9.12719e-10
-2.72781e-10
1.38675e-09
-6.62117e-10
1.44508e-09
-1.04987e-09
1.6536e-09
-1.3845e-09
1.87718e-09
-1.7786e-09
1.77601e-09
-2.10929e-09
1.77003e-09
-2.50199e-09
1.59183e-09
-2.71934e-09
1.54409e-09
-2.89541e-09
1.26963e-09
-3.02075e-09
1.09224e-09
-3.07299e-09
9.08461e-10
-3.06304e-09
5.66156e-10
-3.08612e-09
4.67825e-10
-3.13391e-09
2.78241e-10
-3.12058e-09
-2.96403e-11
-2.96971e-09
-4.95938e-10
-2.84278e-09
-7.15439e-10
-2.73035e-09
-8.58199e-10
-2.71109e-09
-9.40235e-10
-2.45579e-09
-1.52852e-09
-2.30262e-09
-1.97308e-09
-1.88604e-09
-2.15862e-09
-1.53198e-09
-2.57844e-09
-1.06395e-09
-2.20334e-09
-7.90141e-10
-2.33577e-09
-4.36462e-10
-2.1031e-09
-6.00967e-11
-2.0856e-09
4.75776e-10
-2.24143e-09
6.99837e-10
-2.14668e-09
7.50125e-10
-1.81593e-09
7.7364e-10
-1.46439e-09
7.27761e-10
-1.08169e-09
5.41884e-10
-3.20798e-10
7.5261e-10
-1.77874e-10
9.2458e-10
-4.89406e-11
1.17461e-09
-1.95506e-10
1.47627e-09
-9.60474e-11
1.69696e-09
-4.94372e-10
1.74361e-09
-5.00326e-10
2.0428e-09
-1.1024e-09
2.09374e-09
-5.60688e-10
2.28435e-09
-7.64698e-10
2.34753e-09
-7.81568e-10
2.37158e-09
-7.70104e-10
2.40863e-09
-6.9463e-10
2.43949e-09
-5.97922e-10
2.49702e-09
-5.88333e-10
2.54285e-09
-5.59778e-10
2.59453e-09
-5.10391e-10
2.59549e-09
-4.26477e-10
2.62757e-09
-3.42183e-10
2.62524e-09
-2.41683e-10
2.61804e-09
-1.52668e-10
2.60422e-09
-1.29861e-10
2.57406e-09
-2.27168e-11
2.5326e-09
-4.50563e-11
2.51018e-09
3.03789e-11
2.4967e-09
2.25648e-11
2.43746e-09
3.12867e-11
2.39623e-09
2.17055e-11
2.34234e-09
4.94628e-11
2.29684e-09
6.57333e-11
2.27687e-09
1.339e-10
2.34366e-09
2.25652e-10
2.37988e-09
2.52654e-10
2.34187e-09
5.43294e-10
2.30647e-09
8.21069e-10
2.44514e-09
1.03582e-09
2.51737e-09
1.21666e-09
2.55183e-09
1.62663e-09
2.52389e-09
1.89404e-09
2.4623e-09
2.00282e-09
2.33542e-09
2.10929e-09
2.22236e-09
2.15574e-09
1.83051e-09
2.10507e-09
1.60971e-09
1.84327e-09
1.28038e-09
1.58242e-09
9.83276e-10
6.25585e-10
5.85645e-10
6.69675e-10
-1.66005e-16
-7.23821e-10
-1.09166e-17
-6.88411e-18
-7.12973e-18
1.32111e-18
-5.72266e-18
1.27763e-18
-5.13577e-18
6.17456e-19
-4.78081e-18
-8.34009e-20
-4.4554e-18
-7.03232e-19
-4.09536e-18
-1.22895e-18
-3.68493e-18
-1.66682e-18
-3.22603e-18
-2.02295e-18
-2.7275e-18
-2.30084e-18
-2.20099e-18
-2.50279e-18
-1.65925e-18
-2.63114e-18
-1.1152e-18
-2.68908e-18
-5.81253e-19
-2.68103e-18
-6.87369e-20
-2.61277e-18
4.12426e-19
-2.49124e-18
8.54037e-19
-2.3243e-18
1.24975e-18
-2.12036e-18
1.59504e-18
-1.88792e-18
1.88703e-18
-1.63526e-18
2.12446e-18
-1.37007e-18
2.30742e-18
-1.09932e-18
2.43727e-18
-8.29133e-19
2.51628e-18
-5.64716e-19
2.54748e-18
-3.10323e-19
2.53438e-18
-6.92837e-20
2.4808e-18
1.55943e-19
2.3907e-18
3.63678e-19
2.268e-18
5.52912e-19
2.11653e-18
7.23188e-19
1.93992e-18
8.74469e-19
1.74164e-18
1.00702e-18
1.52495e-18
1.12129e-18
1.29295e-18
1.21782e-18
1.04853e-18
1.29719e-18
7.94417e-19
1.35994e-18
5.33166e-19
1.40652e-18
2.67204e-19
1.43733e-18
1.45264e-18
-3.52872e-10
1.26559e-09
-6.93984e-10
1.72786e-09
-1.17353e-09
1.92462e-09
-1.63011e-09
2.11019e-09
-2.14061e-09
2.38768e-09
-2.41332e-09
2.04872e-09
-2.4196e-09
1.77632e-09
-2.43203e-09
1.60426e-09
-2.57428e-09
1.68634e-09
-2.73463e-09
1.42997e-09
-2.78507e-09
1.14269e-09
-2.79966e-09
9.23051e-10
-2.88659e-09
6.53083e-10
-2.82755e-09
4.08789e-10
-2.83184e-09
2.82535e-10
-2.73093e-09
-1.3056e-10
-2.72989e-09
-4.96975e-10
-2.57955e-09
-8.65774e-10
-2.58153e-09
-8.56224e-10
-2.61071e-09
-9.11052e-10
-2.27358e-09
-1.86565e-09
-2.08489e-09
-2.16177e-09
-1.87539e-09
-2.36813e-09
-1.78947e-09
-2.66435e-09
-1.20311e-09
-2.78969e-09
-9.01884e-10
-2.637e-09
-5.82597e-10
-2.42238e-09
-2.29366e-10
-2.43883e-09
2.69875e-11
-2.49779e-09
1.43096e-10
-2.26279e-09
1.64841e-10
-1.83768e-09
1.18174e-10
-1.41772e-09
1.00225e-11
-9.73541e-10
1.45725e-10
-4.56502e-10
4.19662e-10
-4.51811e-10
7.42173e-10
-3.71453e-10
1.04159e-09
-4.94928e-10
1.33872e-09
-3.93173e-10
1.64434e-09
-7.99997e-10
1.90734e-09
-7.63328e-10
1.91913e-09
-1.11418e-09
2.09988e-09
-7.41443e-10
2.09354e-09
-7.58363e-10
2.0737e-09
-7.61724e-10
2.0863e-09
-7.82711e-10
2.09265e-09
-7.00974e-10
2.13111e-09
-6.36391e-10
2.16684e-09
-6.24058e-10
2.18837e-09
-5.8131e-10
2.20648e-09
-5.28507e-10
2.25055e-09
-4.70542e-10
2.28465e-09
-3.76289e-10
2.32568e-09
-2.82719e-10
2.3457e-09
-1.72692e-10
2.30254e-09
-8.66996e-11
2.30624e-09
-2.64155e-11
2.24384e-09
1.73358e-11
2.21795e-09
5.62708e-11
2.15889e-09
8.16255e-11
2.12184e-09
6.83353e-11
2.10534e-09
3.82031e-11
2.07442e-09
8.03839e-11
2.06672e-09
7.34275e-11
2.08727e-09
1.13352e-10
2.14168e-09
1.71242e-10
2.02038e-09
3.73946e-10
2.01088e-09
5.52801e-10
2.10261e-09
7.29336e-10
2.1986e-09
9.39832e-10
2.19868e-09
1.21658e-09
2.24509e-09
1.58021e-09
2.20011e-09
1.93902e-09
2.13988e-09
2.06305e-09
2.05686e-09
2.19231e-09
1.98285e-09
2.22975e-09
1.8673e-09
2.22062e-09
1.81372e-09
1.89686e-09
1.5415e-09
1.85464e-09
9.5743e-10
1.20965e-09
6.40716e-10
9.8639e-10
-3.28458e-17
-8.3104e-11
-8.17636e-18
-4.80234e-18
-7.17285e-18
3.17928e-19
-6.38237e-18
4.87568e-19
-5.83616e-18
7.17973e-20
-5.40018e-18
-5.18796e-19
-4.98092e-18
-1.12182e-18
-4.53323e-18
-1.67606e-18
-4.04105e-18
-2.1585e-18
-3.50392e-18
-2.55973e-18
-2.92945e-18
-2.87523e-18
-2.32934e-18
-3.10315e-18
-1.71718e-18
-3.24388e-18
-1.10716e-18
-3.30002e-18
-5.12994e-19
-3.27644e-18
5.27924e-20
-3.18007e-18
5.79366e-19
-3.01955e-18
1.05798e-18
-2.80479e-18
1.48219e-18
-2.54641e-18
1.8477e-18
-2.2552e-18
2.15223e-18
-1.94152e-18
2.39521e-18
-1.61492e-18
2.57761e-18
-1.28389e-18
2.70169e-18
-9.55755e-19
2.77068e-18
-6.36608e-19
2.78852e-18
-3.31336e-19
2.7596e-18
-4.36648e-20
2.68854e-18
2.23744e-19
2.57993e-18
4.6917e-19
2.43828e-18
6.91687e-19
2.26781e-18
8.91012e-19
2.07247e-18
1.06735e-18
1.85591e-18
1.22123e-18
1.62149e-18
1.35339e-18
1.37232e-18
1.46467e-18
1.11128e-18
1.5559e-18
8.41005e-19
1.62784e-18
5.63977e-19
1.68115e-18
2.82505e-19
1.71637e-18
1.73384e-18
-2.21898e-10
1.48749e-09
-3.90404e-10
1.89637e-09
-7.62806e-10
2.29703e-09
-1.03305e-09
2.38043e-09
-1.11779e-09
2.47241e-09
-1.5396e-09
2.47053e-09
-2.01139e-09
2.24811e-09
-2.22189e-09
1.81476e-09
-2.38176e-09
1.84621e-09
-2.49654e-09
1.54475e-09
-2.52161e-09
1.16776e-09
-2.42365e-09
8.25096e-10
-2.39417e-09
6.23594e-10
-2.3465e-09
3.61122e-10
-2.28667e-09
2.22704e-10
-2.31464e-09
-1.0259e-10
-2.34436e-09
-4.67253e-10
-2.4732e-09
-7.36929e-10
-2.1025e-09
-1.22693e-09
-1.96731e-09
-1.04625e-09
-2.13623e-09
-1.69673e-09
-2.01703e-09
-2.28097e-09
-1.81099e-09
-2.57416e-09
-1.58406e-09
-2.89129e-09
-1.32654e-09
-3.04721e-09
-1.05071e-09
-2.91282e-09
-8.20383e-10
-2.65272e-09
-6.38046e-10
-2.62117e-09
-4.88169e-10
-2.64766e-09
-2.83485e-10
-2.46748e-09
-3.0021e-10
-1.82096e-09
-3.5579e-10
-1.36214e-09
-3.68446e-10
-9.60886e-10
-1.04517e-10
-7.20431e-10
1.96874e-10
-7.53203e-10
5.80566e-10
-7.55146e-10
9.99975e-10
-9.14338e-10
1.28134e-09
-6.7454e-10
1.46329e-09
-9.81945e-10
1.743e-09
-1.04304e-09
1.62544e-09
-9.96621e-10
1.76875e-09
-8.84757e-10
1.81669e-09
-8.06308e-10
1.8054e-09
-7.50435e-10
1.80423e-09
-7.81543e-10
1.82891e-09
-7.25649e-10
1.88925e-09
-6.96728e-10
1.92645e-09
-6.61268e-10
1.93285e-09
-5.8771e-10
1.95808e-09
-5.5374e-10
1.9717e-09
-4.84165e-10
1.95927e-09
-3.6386e-10
1.9927e-09
-3.16143e-10
2.01e-09
-1.89999e-10
2.00923e-09
-8.59332e-11
1.99046e-09
-7.64864e-12
1.97455e-09
3.32431e-11
1.92773e-09
1.03096e-10
1.88918e-09
1.20168e-10
1.85452e-09
1.03002e-10
1.81973e-09
7.29857e-11
1.80085e-09
9.92598e-11
1.87728e-09
-3.00022e-12
1.87679e-09
1.13843e-10
1.79403e-09
2.54e-10
1.82984e-09
3.38136e-10
1.87319e-09
5.09451e-10
1.97902e-09
6.23505e-10
1.85185e-09
1.067e-09
1.68201e-09
1.38642e-09
1.69676e-09
1.56546e-09
1.9073e-09
1.72848e-09
2.05768e-09
1.91267e-09
2.01525e-09
2.23475e-09
1.89984e-09
2.34515e-09
1.77395e-09
2.34651e-09
1.56789e-09
2.10292e-09
1.36632e-09
2.05621e-09
1.21866e-09
1.35732e-09
8.89774e-10
1.31527e-09
-8.48501e-17
8.0667e-10
-6.47827e-18
2.61709e-19
-7.00277e-18
8.4262e-19
-6.79768e-18
2.82716e-19
-6.42629e-18
-2.99268e-19
-6.00276e-18
-9.41999e-19
-5.53498e-18
-1.5891e-18
-5.01567e-18
-2.19487e-18
-4.44229e-18
-2.73145e-18
-3.81942e-18
-3.18227e-18
-3.15737e-18
-3.53719e-18
-2.47007e-18
-3.7907e-18
-1.77333e-18
-3.94122e-18
-1.08358e-18
-3.99077e-18
-4.16619e-19
-3.9448e-18
2.13311e-19
-3.81175e-18
7.94127e-19
-3.60244e-18
1.31636e-18
-3.32933e-18
1.7734e-18
-3.00578e-18
2.16138e-18
-2.64531e-18
2.47883e-18
-2.2608e-18
2.72623e-18
-1.864e-18
2.90575e-18
-1.46514e-18
3.02083e-18
-1.07282e-18
3.07595e-18
-6.94022e-19
3.07619e-18
-3.34182e-19
3.02701e-18
2.7136e-21
2.93396e-18
3.13956e-19
2.80245e-18
5.97945e-19
2.6376e-18
8.53997e-19
2.44414e-18
1.08215e-18
2.22635e-18
1.28299e-18
1.98807e-18
1.45744e-18
1.73277e-18
1.60663e-18
1.46355e-18
1.73175e-18
1.18322e-18
1.83399e-18
8.9432e-19
1.91438e-18
5.9919e-19
1.97383e-18
2.99983e-19
2.01303e-18
2.03248e-18
-1.44101e-10
1.63159e-09
-1.53288e-10
1.90555e-09
-3.8534e-10
2.52908e-09
-8.51416e-10
2.84651e-09
-1.26812e-09
2.88912e-09
-1.69669e-09
2.89911e-09
-1.99915e-09
2.55057e-09
-2.1967e-09
2.01231e-09
-2.14091e-09
1.79042e-09
-2.07218e-09
1.47601e-09
-2.0815e-09
1.17708e-09
-2.10715e-09
8.50746e-10
-2.01368e-09
5.30126e-10
-1.99927e-09
3.46715e-10
-1.93961e-09
1.63042e-10
-2.10166e-09
5.94649e-11
-1.83092e-09
-7.37996e-10
-2.11069e-09
-4.57159e-10
-1.92979e-09
-1.40783e-09
-1.83863e-09
-1.1374e-09
-2.03639e-09
-1.49898e-09
-1.8596e-09
-2.45776e-09
-1.68273e-09
-2.75102e-09
-1.56827e-09
-3.00576e-09
-1.40502e-09
-3.21047e-09
-1.1891e-09
-3.12874e-09
-1.0167e-09
-2.82512e-09
-9.34428e-10
-2.70345e-09
-7.27373e-10
-2.85472e-09
-3.77143e-10
-2.81771e-09
-4.17418e-10
-1.78068e-09
-5.53465e-10
-1.2261e-09
-5.16997e-10
-9.97355e-10
-2.05944e-10
-1.03149e-09
1.51254e-10
-1.1104e-09
4.52308e-10
-1.0562e-09
7.94062e-10
-1.25609e-09
1.23045e-09
-1.11093e-09
1.39745e-09
-1.14895e-09
1.46155e-09
-1.10713e-09
1.5114e-09
-1.04647e-09
1.56865e-09
-9.42008e-10
1.5983e-09
-8.35956e-10
1.56268e-09
-7.14824e-10
1.51661e-09
-7.3547e-10
1.52531e-09
-7.34352e-10
1.5631e-09
-7.34516e-10
1.58156e-09
-6.7973e-10
1.61444e-09
-6.20591e-10
1.6587e-09
-5.9801e-10
1.68911e-09
-5.14574e-10
1.67975e-09
-3.54504e-10
1.67637e-09
-3.12759e-10
1.68448e-09
-1.98109e-10
1.69756e-09
-9.90166e-11
1.67999e-09
9.9197e-12
1.64704e-09
6.61875e-11
1.6262e-09
1.23933e-10
1.60095e-09
1.4542e-10
1.56292e-09
1.41027e-10
1.52186e-09
1.14047e-10
1.55114e-09
6.99762e-11
1.54221e-09
5.93509e-12
1.55963e-09
9.64194e-11
1.58428e-09
2.29351e-10
1.66066e-09
2.61752e-10
1.64161e-09
5.28508e-10
1.57396e-09
6.91149e-10
1.72113e-09
9.19832e-10
1.84157e-09
1.26597e-09
1.91948e-09
1.48756e-09
1.67847e-09
1.96949e-09
1.41444e-09
2.1767e-09
1.40149e-09
2.2477e-09
1.4662e-09
2.28043e-09
1.48665e-09
2.32606e-09
1.36522e-09
2.22435e-09
1.06817e-09
2.35326e-09
3.1116e-10
2.11433e-09
1.13283e-10
1.51315e-09
-2.21283e-16
9.19954e-10
-7.75719e-18
-1.13298e-19
-7.56215e-18
6.47609e-19
-7.37916e-18
1.00124e-19
-7.06855e-18
-6.09373e-19
-6.64943e-18
-1.36066e-18
-6.14058e-18
-2.09729e-18
-5.55224e-18
-2.78243e-18
-4.8931e-18
-3.38984e-18
-4.17434e-18
-3.90032e-18
-3.41089e-18
-4.30013e-18
-2.62058e-18
-4.58079e-18
-1.82288e-18
-4.73904e-18
-1.03761e-18
-4.77659e-18
-2.8357e-19
-4.69989e-18
4.22622e-19
-4.51948e-18
1.06724e-18
-4.24906e-18
1.6399e-18
-3.90443e-18
2.13387e-18
-3.5024e-18
2.54589e-18
-3.05982e-18
2.87563e-18
-2.59263e-18
3.1251e-18
-2.11512e-18
3.29807e-18
-1.63951e-18
3.39963e-18
-1.1758e-18
3.43579e-18
-7.31825e-19
3.41309e-18
-3.13424e-19
3.33826e-18
7.53365e-20
3.21795e-18
4.3192e-19
3.0585e-18
7.55068e-19
2.86576e-18
1.04455e-18
2.64498e-18
1.30092e-18
2.4008e-18
1.5253e-18
2.13726e-18
1.71916e-18
1.8579e-18
1.88413e-18
1.56578e-18
2.02189e-18
1.26361e-18
2.134e-18
9.53768e-19
2.22188e-18
6.38394e-19
2.2867e-18
3.19428e-19
2.32936e-18
2.35051e-18
-5.52379e-10
2.18397e-09
-1.06882e-09
2.422e-09
-1.34479e-09
2.80505e-09
-1.44033e-09
2.94205e-09
-1.48266e-09
2.93145e-09
-1.38839e-09
2.80483e-09
-1.33768e-09
2.49986e-09
-1.40351e-09
2.07813e-09
-1.65441e-09
2.04132e-09
-1.71423e-09
1.53583e-09
-1.7525e-09
1.21535e-09
-1.81944e-09
9.17688e-10
-1.84437e-09
5.55051e-10
-1.59932e-09
1.01666e-10
-1.64178e-09
2.05501e-10
-1.64793e-09
6.56219e-11
-1.54266e-09
-8.43268e-10
-1.60976e-09
-3.90063e-10
-2.01515e-09
-1.00243e-09
-1.55889e-09
-1.59367e-09
-1.28887e-09
-1.76899e-09
-1.26596e-09
-2.48067e-09
-1.32799e-09
-2.68899e-09
-1.32408e-09
-3.00967e-09
-1.23824e-09
-3.29631e-09
-1.09852e-09
-3.26846e-09
-9.25474e-10
-2.99816e-09
-7.67724e-10
-2.8612e-09
-4.69875e-10
-3.15257e-09
-1.13429e-10
-3.17416e-09
-2.09665e-10
-1.68445e-09
-3.33674e-10
-1.10209e-09
-2.77692e-10
-1.05334e-09
-6.26708e-11
-1.24651e-09
1.4756e-10
-1.32063e-09
4.39348e-10
-1.34799e-09
6.31803e-10
-1.44855e-09
1.02857e-09
-1.5077e-09
1.21352e-09
-1.3339e-09
1.27117e-09
-1.16478e-09
1.31767e-09
-1.09297e-09
1.30059e-09
-9.24933e-10
1.27095e-09
-8.06311e-10
1.27595e-09
-7.1983e-10
1.28899e-09
-7.48512e-10
1.30057e-09
-7.45925e-10
1.34694e-09
-7.80892e-10
1.35892e-09
-6.91712e-10
1.37806e-09
-6.39729e-10
1.39606e-09
-6.16018e-10
1.41842e-09
-5.36932e-10
1.44094e-09
-3.77021e-10
1.39649e-09
-2.68311e-10
1.38342e-09
-1.85048e-10
1.35781e-09
-7.34032e-11
1.33928e-09
2.84483e-11
1.31916e-09
8.63049e-11
1.31951e-09
1.2358e-10
1.31875e-09
1.46185e-10
1.3062e-09
1.53568e-10
1.27313e-09
1.47126e-10
1.31831e-09
2.47871e-11
1.24403e-09
8.02215e-11
1.22893e-09
1.11517e-10
1.29813e-09
1.60151e-10
1.37021e-09
1.8967e-10
1.50724e-09
3.91479e-10
1.44256e-09
7.55827e-10
1.31325e-09
1.04914e-09
1.12985e-09
1.44937e-09
9.85881e-10
1.63153e-09
1.14633e-09
1.80904e-09
1.48137e-09
1.84166e-09
1.56264e-09
2.16643e-09
1.4013e-09
2.44178e-09
1.29141e-09
2.43595e-09
1.13885e-09
2.37691e-09
1.08749e-09
2.40462e-09
1.05281e-09
2.14901e-09
6.95292e-10
1.87066e-09
-3.88993e-16
1.61525e-09
-7.70095e-18
1.99832e-18
-8.10905e-18
1.05575e-18
-8.08812e-18
7.9978e-20
-7.81936e-18
-8.77139e-19
-7.38564e-18
-1.79343e-18
-6.82557e-18
-2.65626e-18
-6.15965e-18
-3.44706e-18
-5.40358e-18
-4.14458e-18
-4.57416e-18
-4.72838e-18
-3.69155e-18
-5.18149e-18
-2.77883e-18
-5.49252e-18
-1.86044e-18
-5.65663e-18
-9.60906e-19
-5.67568e-18
-1.03155e-19
-5.55774e-18
6.9304e-19
-5.31635e-18
1.41187e-18
-4.96918e-18
2.04193e-18
-4.53644e-18
2.57645e-18
-4.0394e-18
3.01308e-18
-3.49906e-18
3.35314e-18
-2.93498e-18
3.60071e-18
-2.36442e-18
3.76177e-18
-1.80182e-18
3.8436e-18
-1.25863e-18
3.85419e-18
-7.43463e-19
3.80185e-18
-2.62374e-19
3.69484e-18
1.80756e-19
3.5411e-18
5.83851e-19
3.34798e-18
9.46286e-19
3.12213e-18
1.26855e-18