/*--------------------------------*- C++ -*----------------------------------*\
  =========                 |
  \\      /  F ield         | OpenFOAM: The Open Source CFD Toolbox
   \\    /   O peration     | Website:  https://openfoam.org
    \\  /    A nd           | Version:  6
     \\/     M anipulation  |
\*---------------------------------------------------------------------------*/
FoamFile
{
    version     2.0;
    format      ascii;
    class       volScalarField;
    location    "2500";
    object      Su;
}
// * * * * * * * * * * * * * * * * * * * * * * * * * * * * * * * * * * * * * //

dimensions      [0 0 -1 0 0 0 0];

internalField   nonuniform List<scalar> 
4800
(
0.217417
0.211083
0.204806
0.198654
0.192697
0.187003
0.181635
0.176642
0.172063
0.167926
0.164223
0.160925
0.157999
0.155402
0.153087
0.151002
0.149105
0.147358
0.145726
0.144186
0.142721
0.141317
0.139954
0.138607
0.137268
0.135924
0.134566
0.133197
0.131818
0.130435
0.129041
0.127625
0.126187
0.124715
0.123201
0.121642
0.120052
0.118448
0.11685
0.115272
0.113725
0.11221
0.110727
0.109273
0.10785
0.10646
0.1051
0.103771
0.102467
0.101186
0.0999215
0.0986682
0.0974193
0.0961724
0.0949246
0.0936735
0.0924163
0.0911489
0.0898653
0.088557
0.0872136
0.0858224
0.0843673
0.0828281
0.0811773
0.0793796
0.0773924
0.0751648
0.0726318
0.0697245
0.0663901
0.0626169
0.0584682
0.0540149
0.0493125
0.0444153
0.0393398
0.0341173
0.0288346
0.0236769
0.0190831
0.0156557
0.0128423
0.0101595
0.00738328
0.00445062
0.00136631
-0.00184411
-0.00515271
-0.00853494
-0.0119702
-0.0154415
-0.0189345
-0.0224378
-0.0259418
-0.0294392
-0.0329244
-0.0363936
-0.0398441
-0.0432746
-0.0466844
-0.0500735
-0.0534424
-0.0567921
-0.0601234
-0.0634375
-0.0667357
-0.0700192
-0.0732892
-0.0765469
-0.0797936
-0.0830303
-0.0862582
-0.0894785
-0.0926921
-0.0959002
-0.0991038
-0.102304
-0.105502
-0.108698
0.217388
0.210999
0.204673
0.198473
0.192482
0.186782
0.181435
0.17649
0.171983
0.16791
0.164255
0.160992
0.158087
0.155504
0.153196
0.151116
0.149223
0.147478
0.14585
0.144315
0.142854
0.141449
0.140078
0.13872
0.137363
0.135997
0.134623
0.133236
0.131836
0.130425
0.129
0.127554
0.126084
0.124586
0.123051
0.121477
0.119876
0.118262
0.116654
0.115067
0.113511
0.111987
0.110496
0.109037
0.10761
0.106216
0.104852
0.103516
0.102205
0.100918
0.0996484
0.0983951
0.0971479
0.0959026
0.0946561
0.0934053
0.092146
0.0908732
0.0895817
0.0882653
0.0869161
0.0855221
0.0840671
0.0825311
0.0808888
0.0791059
0.0771423
0.0749471
0.0724681
0.0696479
0.0664576
0.0628835
0.0589281
0.0545976
0.0499208
0.0449381
0.0396923
0.0341973
0.0284336
0.0225418
0.0172387
0.0144274
0.0122298
0.0098991
0.0072858
0.004418
0.00135471
-0.00185227
-0.0051635
-0.00854968
-0.0119885
-0.0154623
-0.018957
-0.022461
-0.0259651
-0.029462
-0.0329465
-0.0364146
-0.039864
-0.0432932
-0.0467017
-0.0500895
-0.0534572
-0.0568057
-0.0601358
-0.0634489
-0.066746
-0.0700285
-0.0732975
-0.0765544
-0.0798001
-0.083036
-0.0862632
-0.0894827
-0.0926956
-0.0959031
-0.099106
-0.102305
-0.105502
-0.108698
0.217334
0.210862
0.204497
0.198282
0.192272
0.186573
0.18127
0.176393
0.171957
0.167953
0.164363
0.161154
0.158296
0.155746
0.153459
0.151396
0.149513
0.147775
0.146154
0.144623
0.14316
0.141742
0.140348
0.138959
0.137567
0.136167
0.134757
0.133329
0.131884
0.130417
0.12893
0.127421
0.125889
0.124334
0.122755
0.121148
0.119524
0.117891
0.116264
0.11466
0.113087
0.111549
0.110044
0.108573
0.107134
0.10573
0.104357
0.103011
0.10169
0.100393
0.0991144
0.0978524
0.0966029
0.0953574
0.0941106
0.0928578
0.091594
0.090315
0.0890161
0.087692
0.0863359
0.0849377
0.0834832
0.0819535
0.0803272
0.0785705
0.0766504
0.0745184
0.0721362
0.0694529
0.0664304
0.0630408
0.0592565
0.0550724
0.0505044
0.0455641
0.0402125
0.0343566
0.0277557
0.0200632
0.0119126
0.0117677
0.0111657
0.00952201
0.00717003
0.0043894
0.00134664
-0.00186313
-0.00518362
-0.00857924
-0.0120256
-0.0155047
-0.0190025
-0.0225078
-0.0260119
-0.0295079
-0.0329907
-0.0364567
-0.0399037
-0.0433304
-0.0467363
-0.0501216
-0.0534868
-0.0568328
-0.0601606
-0.0634714
-0.0667665
-0.070047
-0.0733141
-0.0765691
-0.0798132
-0.0830475
-0.0862731
-0.0894912
-0.0927027
-0.0959088
-0.0991104
-0.102309
-0.105504
-0.108699
0.217318
0.210804
0.204395
0.198166
0.192176
0.186504
0.181241
0.176431
0.172067
0.168131
0.164606
0.161465
0.158669
0.156168
0.153917
0.151879
0.150012
0.148284
0.146664
0.145125
0.143644
0.142197
0.140766
0.139335
0.137893
0.136433
0.134954
0.133454
0.131932
0.130384
0.128813
0.127217
0.125599
0.123963
0.12232
0.120665
0.119008
0.117351
0.115699
0.114071
0.112474
0.110915
0.109389
0.107897
0.106438
0.105012
0.10362
0.102257
0.10092
0.0996104
0.0983244
0.0970568
0.0958025
0.0945537
0.0933031
0.0920461
0.0907779
0.0894939
0.0881887
0.0868574
0.0854955
0.0840948
0.0826432
0.0811243
0.079518
0.077795
0.0759257
0.0738696
0.0715863
0.0690312
0.066164
0.0629448
0.0593476
0.0553555
0.0509455
0.0460915
0.0407213
0.0346604
0.0273206
0.0167234
-0.00283237
0.00830032
0.010381
0.00938801
0.00718748
0.00442496
0.00136483
-0.0018689
-0.00521103
-0.00862364
-0.0120822
-0.0155692
-0.0190715
-0.0225786
-0.0260825
-0.0295769
-0.0330571
-0.0365199
-0.0399632
-0.0433861
-0.0467881
-0.0501695
-0.0535309
-0.0568732
-0.0601976
-0.0635051
-0.066797
-0.0700745
-0.0733388
-0.0765912
-0.0798327
-0.0830646
-0.0862879
-0.0895038
-0.0927132
-0.0959173
-0.099117
-0.102313
-0.105507
-0.1087
0.217297
0.210739
0.204293
0.198064
0.192135
0.186563
0.18139
0.17665
0.17235
0.16849
0.165047
0.161985
0.159256
0.156807
0.154595
0.152582
0.150732
0.149009
0.147377
0.145813
0.144299
0.142812
0.14132
0.139816
0.13829
0.136746
0.135176
0.133579
0.131955
0.130302
0.128621
0.126918
0.125199
0.123476
0.121759
0.120049
0.118348
0.116661
0.114978
0.113319
0.111691
0.110104
0.108546
0.107021
0.105533
0.10408
0.102662
0.101277
0.0999239
0.0986015
0.0973059
0.0960321
0.0947725
0.0935199
0.0922664
0.0910071
0.0897349
0.0884473
0.0871369
0.0857998
0.084433
0.0830298
0.0815803
0.0800717
0.0784858
0.0767973
0.0749803
0.0729977
0.07081
0.0683747
0.065653
0.0626
0.0591836
0.0553787
0.0511635
0.0464883
0.0412819
0.0354098
0.0286685
0.0208367
0.0128514
0.0125323
0.0117642
0.00996124
0.00746522
0.00456179
0.00141933
-0.00186819
-0.00524705
-0.00868475
-0.0121599
-0.0156572
-0.019165
-0.0226741
-0.0261774
-0.0296693
-0.0331458
-0.0366041
-0.0400424
-0.0434601
-0.0468568
-0.050233
-0.0535894
-0.0569269
-0.0602466
-0.0635497
-0.0668374
-0.070111
-0.0733715
-0.0766203
-0.0798585
-0.0830872
-0.0863075
-0.0895205
-0.0927272
-0.0959285
-0.0991256
-0.102319
-0.105511
-0.108701
0.217332
0.210838
0.204439
0.198238
0.192336
0.18681
0.181706
0.177049
0.172842
0.169079
0.165724
0.162739
0.160076
0.157677
0.155501
0.153512
0.151673
0.149942
0.148286
0.146683
0.145122
0.143572
0.142004
0.140414
0.138787
0.137129
0.135434
0.133709
0.131957
0.130173
0.128359
0.12653
0.124699
0.122883
0.121089
0.119319
0.117567
0.115837
0.114115
0.112416
0.110745
0.109122
0.107525
0.105962
0.104436
0.102952
0.101507
0.100099
0.0987278
0.0973916
0.0960859
0.0948055
0.0935421
0.0922871
0.0910318
0.0897714
0.0884968
0.0872069
0.0858934
0.0845526
0.0831819
0.081777
0.0803299
0.0788315
0.0772662
0.0756094
0.0738394
0.0719218
0.0698216
0.0674964
0.0649075
0.0620086
0.0587645
0.0551485
0.0511344
0.0466971
0.0418064
0.0364478
0.0306547
0.0246158
0.0191876
0.0160151
0.0134644
0.0107944
0.00787844
0.00475714
0.00149138
-0.00187132
-0.0052982
-0.008767
-0.0122618
-0.0157708
-0.0192844
-0.0227951
-0.026297
-0.0297853
-0.0332568
-0.0367092
-0.0401412
-0.0435523
-0.0469424
-0.0503121
-0.0536622
-0.0569936
-0.0603075
-0.0636051
-0.0668875
-0.0701561
-0.0734121
-0.0766565
-0.0798905
-0.0831152
-0.0863318
-0.0895411
-0.0927444
-0.0959424
-0.0991363
-0.102327
-0.105515
-0.108702
0.217351
0.210906
0.204568
0.198431
0.192599
0.18716
0.18217
0.17764
0.173553
0.169896
0.166636
0.16373
0.161125
0.158771
0.156626
0.154655
0.152816
0.151067
0.149378
0.14773
0.146117
0.144494
0.142837
0.14114
0.139393
0.137603
0.135766
0.133892
0.131985
0.130045
0.128082
0.126113
0.124156
0.122234
0.12035
0.118502
0.116683
0.114893
0.113118
0.111373
0.109652
0.107982
0.106341
0.104735
0.103169
0.10165
0.100176
0.0987442
0.0973542
0.0960034
0.094688
0.0934017
0.0921355
0.0908802
0.0896254
0.0883651
0.0870904
0.0857985
0.0844826
0.0831392
0.0817666
0.0803626
0.0789202
0.0774335
0.0758875
0.0742612
0.0725343
0.0706771
0.0686537
0.0664223
0.0639469
0.0611854
0.0581001
0.0546663
0.0508631
0.0466772
0.042121
0.0372132
0.0320462
0.026847
0.0220841
0.0181782
0.0147911
0.011543
0.00827422
0.00494189
0.00154737
-0.0018962
-0.00537487
-0.00887679
-0.0123921
-0.0159126
-0.0194314
-0.0229427
-0.0264419
-0.0299253
-0.0333903
-0.0368354
-0.0402595
-0.0436625
-0.0470445
-0.0504063
-0.0537488
-0.0570729
-0.0603798
-0.0636708
-0.0669471
-0.0702098
-0.0734601
-0.0766993
-0.0799283
-0.0831484
-0.0863605
-0.0895656
-0.0927648
-0.0959589
-0.099149
-0.102336
-0.105521
-0.108704
0.217402
0.211067
0.204844
0.198828
0.193125
0.187802
0.182904
0.178468
0.174484
0.170931
0.167765
0.164935
0.162389
0.160076
0.157952
0.155986
0.154137
0.152363
0.150642
0.148947
0.147267
0.14556
0.143807
0.141996
0.140119
0.138177
0.13618
0.13414
0.132064
0.129963
0.127841
0.125718
0.12362
0.121571
0.119572
0.117623
0.115715
0.113848
0.112003
0.110195
0.108421
0.106695
0.105009
0.103362
0.101756
0.100202
0.0986978
0.0972424
0.0958339
0.0944686
0.0931429
0.0918499
0.0905789
0.0893225
0.088069
0.0868094
0.0855359
0.0842438
0.0829269
0.0815818
0.0802075
0.078804
0.0773659
0.0758913
0.0743641
0.0727685
0.0710847
0.0692822
0.0673277
0.0651774
0.0627993
0.0601622
0.0572289
0.0539703
0.0503659
0.0464146
0.0421296
0.0375689
0.0328241
0.0280649
0.0235309
0.0194139
0.0156549
0.012074
0.00856069
0.00506145
0.00155576
-0.00196137
-0.00548831
-0.00902114
-0.0125551
-0.0160855
-0.0196078
-0.0231179
-0.0266126
-0.0300893
-0.0335462
-0.0369822
-0.0403969
-0.0437903
-0.0471628
-0.0505154
-0.0538489
-0.0571645
-0.0604634
-0.0637467
-0.0670157
-0.0702716
-0.0735155
-0.0767486
-0.0799719
-0.0831865
-0.0863935
-0.0895937
-0.0927882
-0.0959778
-0.0991636
-0.102346
-0.105527
-0.108706
0.217459
0.211245
0.205158
0.199276
0.193701
0.188511
0.183757
0.17946
0.175603
0.172163
0.169087
0.166323
0.163824
0.161543
0.159434
0.157465
0.155609
0.153803
0.152049
0.150296
0.148543
0.146759
0.144905
0.142972
0.140956
0.138859
0.136696
0.134483
0.132236
0.129966
0.127678
0.125387
0.123127
0.120924
0.118785
0.116705
0.11468
0.112714
0.110789
0.108909
0.107075
0.105293
0.103558
0.101868
0.100223
0.0986313
0.0970956
0.095616
0.0941888
0.0928092
0.0914743
0.0901758
0.0888997
0.0876403
0.0863862
0.085127
0.0838538
0.0825619
0.0812448
0.0798992
0.0785238
0.0771196
0.0756841
0.0742191
0.0727113
0.0711436
0.0695003
0.0677483
0.0658609
0.0637976
0.0615161
0.0589833
0.0561656
0.053052
0.0496296
0.0458941
0.0418569
0.0375575
0.0330816
0.0285694
0.0241909
0.0200431
0.0161272
0.0123681
0.00870159
0.00508508
0.00149466
-0.00208151
-0.00564818
-0.00920637
-0.012755
-0.0162921
-0.0198151
-0.0233217
-0.0268097
-0.0302777
-0.0337245
-0.0371497
-0.0405531
-0.0439353
-0.0472969
-0.0506388
-0.0539621
-0.0572679
-0.0605576
-0.0638322
-0.067093
-0.0703411
-0.0735777
-0.076804
-0.0800208
-0.0832294
-0.0864305
-0.0896252
-0.0928144
-0.095999
-0.0991799
-0.102358
-0.105534
-0.108708
0.217501
0.211377
0.205413
0.199705
0.194328
0.18934
0.184776
0.180636
0.176899
0.173555
0.170555
0.167849
0.165392
0.163141
0.161042
0.15907
0.157205
0.155365
0.153569
0.151768
0.149948
0.148081
0.146118
0.14406
0.141906
0.139657
0.137329
0.134946
0.132526
0.130078
0.127607
0.125134
0.122694
0.120313
0.118002
0.115764
0.113597
0.111507
0.109487
0.10753
0.105631
0.103792
0.102007
0.100274
0.0985905
0.0969641
0.0953975
0.0938938
0.0924469
0.0910523
0.089707
0.0884026
0.0871225
0.0858586
0.0846014
0.0833407
0.0820667
0.080774
0.0794569
0.0781116
0.0767361
0.0753304
0.0738982
0.0724387
0.0709439
0.0693999
0.0677947
0.0660974
0.064267
0.0622708
0.0600685
0.0576381
0.0549524
0.0519908
0.0487312
0.0451751
0.0413457
0.0372852
0.0330536
0.0287428
0.0244477
0.0202811
0.0162971
0.0124474
0.00869221
0.00500081
0.00135237
-0.00226597
-0.00586132
-0.00943726
-0.012995
-0.0165344
-0.0200546
-0.0235546
-0.0270334
-0.0304903
-0.0339249
-0.0373373
-0.0407278
-0.0440971
-0.0474462
-0.050776
-0.0540878
-0.0573827
-0.0606619
-0.0639268
-0.0671784
-0.070418
-0.0736465
-0.0768651
-0.0800748
-0.0832766
-0.0864713
-0.08966
-0.0928434
-0.0960224
-0.0991979
-0.102371
-0.105541
-0.108711
0.217595
0.21166
0.205881
0.200346
0.195135
0.190303
0.185882
0.181879
0.178277
0.175051
0.172135
0.169486
0.167068
0.164842
0.162749
0.160776
0.158892
0.157028
0.155192
0.153345
0.15144
0.14947
0.1474
0.145229
0.142948
0.140554
0.138065
0.135506
0.132899
0.130255
0.127591
0.124929
0.122293
0.119716
0.117215
0.114801
0.112476
0.110246
0.108112
0.106071
0.104105
0.102211
0.100377
0.098601
0.0968805
0.0952201
0.0936229
0.0920948
0.0906284
0.0892196
0.0878635
0.0865511
0.0852677
0.0839992
0.0827378
0.0814736
0.0801973
0.0789026
0.0775843
0.0762386
0.074863
0.0734564
0.0720261
0.0705714
0.0690857
0.06756
0.0659807
0.0643373
0.0625681
0.0606487
0.0585379
0.0561973
0.0536073
0.0507592
0.0476459
0.044262
0.0406236
0.0367609
0.0327197
0.0285625
0.0243658
0.0202273
0.0162287
0.0123413
0.0085414
0.00480796
0.0011249
-0.00251916
-0.00613152
-0.00971667
-0.013277
-0.0168137
-0.0203271
-0.023817
-0.0272836
-0.0307268
-0.034147
-0.0375445
-0.0409202
-0.044275
-0.04761
-0.0509263
-0.0542253
-0.0575081
-0.0607759
-0.06403
-0.0672716
-0.0705016
-0.0737213
-0.0769316
-0.0801335
-0.0833279
-0.0865156
-0.0896977
-0.0928748
-0.0960477
-0.0992173
-0.102384
-0.10555
-0.108714
0.217716
0.212008
0.206432
0.201086
0.196049
0.191385
0.187127
0.183274
0.179793
0.176652
0.173799
0.171203
0.168823
0.166615
0.164532
0.162557
0.160648
0.158762
0.156873
0.154966
0.152985
0.150925
0.148762
0.146484
0.144076
0.141533
0.138877
0.136135
0.133328
0.130476
0.127606
0.124742
0.121902
0.11912
0.116422
0.113823
0.111332
0.108957
0.1067
0.104559
0.102517
0.100562
0.0986773
0.0968594
0.0951048
0.0934144
0.0917908
0.090239
0.088753
0.0873301
0.0859635
0.0846417
0.0833534
0.0820795
0.0808131
0.0795445
0.0782638
0.0769656
0.0756451
0.0742985
0.0729235
0.0715191
0.0700895
0.0686374
0.0671581
0.0656497
0.0640915
0.062489
0.0607664
0.058901
0.0568671
0.0546202
0.0521388
0.0494159
0.0464449
0.0432154
0.03974
0.036042
0.0321521
0.0281295
0.024044
0.0199554
0.0159713
0.0120782
0.00826301
0.00451197
0.000813416
-0.00284172
-0.00645992
-0.0100457
-0.0136019
-0.0171305
-0.0206326
-0.0241089
-0.0275601
-0.0309869
-0.0343901
-0.0377707
-0.0411297
-0.0444682
-0.0477876
-0.0510891
-0.0543739
-0.0576434
-0.0608987
-0.0641411
-0.0673717
-0.0705916
-0.0738016
-0.0770029
-0.0801964
-0.0833828
-0.0865631
-0.089738
-0.0929083
-0.0960748
-0.0992382
-0.102399
-0.105558
-0.108717
0.217828
0.21234
0.206983
0.201849
0.19701
0.192528
0.188432
0.18471
0.181342
0.178295
0.175517
0.172976
0.17063
0.16844
0.166368
0.164387
0.162451
0.160543
0.158607
0.156642
0.154591
0.152454
0.150205
0.147819
0.145276
0.142579
0.139748
0.136812
0.133797
0.130726
0.127629
0.12455
0.121504
0.118517
0.11562
0.112832
0.110171
0.107645
0.10526
0.103014
0.100889
0.0988659
0.0969259
0.0950628
0.0932731
0.0915549
0.089909
0.0883373
0.0868349
0.0853986
0.0840217
0.0826899
0.0813951
0.0801142
0.0788408
0.0775674
0.0762806
0.0749775
0.0736536
0.0723052
0.070931
0.0695295
0.0681027
0.0666531
0.0651774
0.0636758
0.0621389
0.0605717
0.0589093
0.0571085
0.0551476
0.0529829
0.0505991
0.0479874
0.0451405
0.042053
0.0387294
0.0351891
0.0314551
0.0275635
0.0235674
0.0195201
0.0155627
0.0116828
0.00787189
0.00412107
0.000422175
-0.00323162
-0.00684561
-0.0104239
-0.0139694
-0.0174845
-0.0209707
-0.0244295
-0.0278621
-0.0312697
-0.0346536
-0.038015
-0.0413553
-0.0446759
-0.0479781
-0.0512633
-0.0545328
-0.0577878
-0.0610297
-0.0642595
-0.0674783
-0.0706871
-0.0738869
-0.0770786
-0.080263
-0.083441
-0.0866133
-0.0897807
-0.0929438
-0.0961034
-0.0992602
-0.102415
-0.105568
-0.10872
0.21795
0.2127
0.207567
0.20264
0.197999
0.193697
0.189757
0.186175
0.182924
0.179969
0.177265
0.174777
0.172465
0.170294
0.168231
0.166244
0.16428
0.162343
0.160367
0.158341
0.156233
0.154023
0.15168
0.149182
0.146514
0.143667
0.14066
0.137524
0.134293
0.130995
0.127669
0.124367
0.121108
0.117911
0.114808
0.111821
0.108976
0.106291
0.103776
0.101425
0.0992193
0.0971309
0.0951367
0.0932257
0.0913981
0.0896519
0.0879855
0.0863961
0.0848805
0.083434
0.0820474
0.0807054
0.0794014
0.0781135
0.0768313
0.0755524
0.0742587
0.0729496
0.0716213
0.0702709
0.0688971
0.0674983
0.0660768
0.0646332
0.0631666
0.0616726
0.0601516
0.0585982
0.0569741
0.0552254
0.0533403
0.0512694
0.0489868
0.0464815
0.0437518
0.0407973
0.037618
0.0342245
0.0306292
0.0268536
0.0229469
0.0189496
0.0150292
0.0111752
0.00738211
0.00364453
-4.29698e-05
-0.0036852
-0.00728629
-0.0108497
-0.0143784
-0.0178746
-0.0213406
-0.024778
-0.0281887
-0.0315742
-0.0349362
-0.0382763
-0.041596
-0.0448969
-0.0481804
-0.051448
-0.0547009
-0.0579405
-0.0611678
-0.0643841
-0.0675904
-0.0707875
-0.0739764
-0.077158
-0.0803329
-0.083502
-0.0866659
-0.0898254
-0.092981
-0.0961334
-0.0992832
-0.102431
-0.105577
-0.108723
0.218074
0.213069
0.208172
0.203472
0.199042
0.194931
0.191159
0.18771
0.184562
0.181688
0.179042
0.176597
0.174316
0.172164
0.17011
0.168122
0.166144
0.164179
0.162162
0.16008
0.157912
0.155623
0.153182
0.150572
0.147772
0.144771
0.141591
0.138259
0.134811
0.131285
0.127732
0.12421
0.120733
0.11732
0.114007
0.110824
0.107804
0.104957
0.1023
0.0998317
0.0975317
0.0953657
0.0933176
0.0913626
0.0894954
0.0877167
0.0860259
0.0844184
0.0828901
0.0814366
0.0800428
0.0786922
0.0773777
0.0760825
0.074792
0.073506
0.0722056
0.0708906
0.0695579
0.0682063
0.0668341
0.0654394
0.0640233
0.0625864
0.0611288
0.0596467
0.0581415
0.0566052
0.0550155
0.0533227
0.0515037
0.0495088
0.047316
0.0449169
0.0423036
0.0394706
0.0364155
0.0331452
0.0296697
0.0260085
0.0222026
0.018267
0.014392
0.0105725
0.00680661
0.00309165
-0.000575523
-0.004198
-0.00777884
-0.0113209
-0.014827
-0.0182995
-0.0217409
-0.0251532
-0.0285387
-0.0318993
-0.0352369
-0.0385534
-0.0418506
-0.0451301
-0.0483934
-0.051642
-0.0548772
-0.0581002
-0.0613123
-0.0645143
-0.0677073
-0.0708921
-0.0740696
-0.0772404
-0.0804054
-0.0835652
-0.0867204
-0.0898716
-0.0930194
-0.0961644
-0.099307
-0.102448
-0.105587
-0.108726
0.218191
0.21342
0.208764
0.204302
0.200091
0.196172
0.19256
0.189242
0.1862
0.183405
0.180821
0.178424
0.17618
0.174053
0.17201
0.17002
0.168029
0.166031
0.163977
0.161843
0.159611
0.157241
0.154703
0.151976
0.149038
0.145879
0.142522
0.138997
0.135343
0.131605
0.127841
0.124102
0.120401
0.116768
0.113248
0.109873
0.106673
0.10366
0.100849
0.0982473
0.0958434
0.0935983
0.0914876
0.089482
0.0875733
0.0857592
0.0840396
0.08241
0.0808663
0.0794054
0.0780061
0.0766501
0.0753275
0.074025
0.0727283
0.0714343
0.0701287
0.0688082
0.0674702
0.0661158
0.0647448
0.0633564
0.0619507
0.0605263
0.0590814
0.0576138
0.056123
0.0546007
0.0530274
0.0513699
0.0496064
0.0476921
0.0455916
0.0432949
0.0407907
0.038073
0.0351392
0.0319938
0.02864
0.025089
0.0213732
0.0174967
0.0136696
0.00988959
0.00615699
0.00247119
-0.00116903
-0.00476533
-0.00831982
-0.0118349
-0.0153133
-0.0187574
-0.02217
-0.0255536
-0.0289106
-0.0322433
-0.0355541
-0.0388449
-0.0421176
-0.045374
-0.0486157
-0.051844
-0.0550604
-0.058266
-0.0614618
-0.0646488
-0.067828
-0.0709999
-0.0741655
-0.0773253
-0.08048
-0.0836302
-0.0867764
-0.0899191
-0.0930589
-0.0961961
-0.0993314
-0.102465
-0.105598
-0.10873
0.218313
0.213792
0.209381
0.205148
0.201146
0.197412
0.193957
0.190767
0.187824
0.18511
0.182595
0.180254
0.178053
0.175953
0.173923
0.171926
0.169922
0.167891
0.165801
0.163617
0.161315
0.158856
0.156213
0.153362
0.150284
0.146971
0.143442
0.13973
0.135881
0.131949
0.127991
0.124043
0.120116
0.116257
0.112521
0.108942
0.105552
0.102373
0.0994167
0.0966881
0.0941709
0.0918344
0.089654
0.0875954
0.085645
0.0837928
0.0820387
0.0803825
0.0788198
0.0773473
0.0759386
0.07458
0.073253
0.071945
0.070643
0.0693414
0.0680314
0.0667092
0.0653717
0.0640184
0.0626499
0.0612664
0.0598695
0.0584585
0.0570293
0.055578
0.0541029
0.0525957
0.0510422
0.0494176
0.0477001
0.045851
0.0438296
0.0416269
0.0392283
0.0366257
0.0338101
0.0307842
0.027549
0.0241079
0.0204776
0.016656
0.012877
0.00913895
0.00544325
0.00179093
-0.00181762
-0.00538278
-0.00890592
-0.0123892
-0.015835
-0.0192464
-0.0226262
-0.0259774
-0.0293027
-0.0326048
-0.0358861
-0.039149
-0.0423954
-0.0456271
-0.0488457
-0.0520527
-0.0552492
-0.0584365
-0.0616154
-0.0647868
-0.0679515
-0.0711101
-0.0742634
-0.0774119
-0.080556
-0.0836963
-0.0868333
-0.0899674
-0.0930989
-0.0962284
-0.0993562
-0.102483
-0.105608
-0.108733
0.21844
0.214172
0.210007
0.206002
0.202207
0.198652
0.195347
0.192279
0.189439
0.186813
0.184374
0.182093
0.179934
0.177859
0.175837
0.173831
0.171813
0.169752
0.167621
0.165381
0.163005
0.160456
0.157705
0.154728
0.151508
0.148038
0.144336
0.140441
0.136406
0.132295
0.128156
0.124011
0.119872
0.115792
0.111842
0.108065
0.104498
0.10116
0.0980619
0.0952043
0.0925691
0.0901268
0.087855
0.0857223
0.0837157
0.0818225
0.0800336
0.078346
0.0767596
0.0752715
0.0738459
0.0724847
0.071157
0.0698481
0.068544
0.0672391
0.0659265
0.0646028
0.0632662
0.0619161
0.0605523
0.0591751
0.0577873
0.0563899
0.0549782
0.0535451
0.0520884
0.0505965
0.0490636
0.0474643
0.045783
0.0439878
0.0420392
0.0399249
0.0376246
0.0351302
0.0324287
0.0295168
0.0263948
0.0230653
0.0195254
0.0157568
0.0120256
0.00833049
0.00467358
0.00105729
-0.00251639
-0.00604664
-0.00953425
-0.0129812
-0.0163902
-0.0197646
-0.0231076
-0.0264227
-0.0297131
-0.0329816
-0.0362311
-0.0394639
-0.0426821
-0.0458876
-0.0490818
-0.0522663
-0.0554421
-0.0586102
-0.0617716
-0.0649268
-0.0680767
-0.0712217
-0.0743625
-0.0774993
-0.0806327
-0.083763
-0.0868907
-0.0900159
-0.0931392
-0.0962608
-0.099381
-0.1025
-0.105619
-0.108737
0.218568
0.214554
0.210634
0.206857
0.203262
0.19988
0.196721
0.193782
0.191052
0.188517
0.186148
0.183922
0.181802
0.179748
0.177734
0.175721
0.173686
0.171591
0.169414
0.167106
0.164654
0.162016
0.159152
0.156036
0.152655
0.14901
0.145127
0.141049
0.136842
0.132569
0.128266
0.123949
0.119624
0.11535
0.111211
0.107256
0.103519
0.100023
0.0967758
0.0937771
0.0910177
0.0884708
0.0861095
0.0839016
0.0818317
0.0798849
0.0780553
0.0763377
0.0747234
0.0732165
0.0717693
0.070392
0.0690548
0.0677422
0.0664371
0.0651313
0.0638183
0.0624957
0.0611619
0.0598163
0.0584593
0.0570904
0.0557122
0.0543278
0.0529333
0.051519
0.050083
0.0486084
0.0470958
0.0455218
0.0438753
0.0421284
0.0402469
0.0382117
0.0360037
0.0336094
0.0310143
0.0282119
0.0251976
0.0219726
0.0185253
0.0148098
0.0111254
0.0074726
0.00385455
0.000275187
-0.00326173
-0.00675422
-0.0102026
-0.0136092
-0.016977
-0.02031
-0.0236122
-0.0268875
-0.0301396
-0.0333717
-0.0365868
-0.0397874
-0.0429757
-0.0461534
-0.0493221
-0.0524831
-0.0556373
-0.0587857
-0.061929
-0.0650678
-0.0682025
-0.0713337
-0.0744617
-0.0775868
-0.0807093
-0.0838296
-0.0869479
-0.0900644
-0.0931794
-0.0962931
-0.0994058
-0.102518
-0.105629
-0.10874
0.218694
0.214931
0.211253
0.207699
0.204305
0.201096
0.198088
0.195279
0.192655
0.190205
0.187906
0.185731
0.183648
0.181611
0.179598
0.177575
0.175513
0.173385
0.171164
0.168796
0.166267
0.163511
0.160497
0.157222
0.153669
0.149838
0.145765
0.141502
0.137125
0.132706
0.128274
0.123823
0.119359
0.114937
0.110637
0.106523
0.102636
0.0989971
0.095614
0.092484
0.0895985
0.0869338
0.0844663
0.0821642
0.080012
0.0779951
0.0761058
0.0743421
0.0726916
0.0711578
0.0697005
0.0683102
0.0669646
0.0656465
0.0643392
0.0630332
0.0617207
0.0604
0.0590699
0.0577302
0.056381
0.0550215
0.0536541
0.0522819
0.0509024
0.0495059
0.0480894
0.0466363
0.0451443
0.0435927
0.0419743
0.0402652
0.0384394
0.0364776
0.0343569
0.0320583
0.0295671
0.0268719
0.02396
0.0208323
0.0174836
0.0138254
0.0101877
0.00657345
0.00299146
-0.00055213
-0.00405164
-0.00750413
-0.0109099
-0.0142717
-0.0175938
-0.0208809
-0.024138
-0.0273696
-0.0305799
-0.0337726
-0.0369508
-0.0401171
-0.0432737
-0.0464224
-0.0495644
-0.0527011
-0.0558332
-0.0589614
-0.0620862
-0.0652082
-0.0683277
-0.0714449
-0.07456
-0.0776734
-0.0807851
-0.0838954
-0.0870044
-0.0901122
-0.093219
-0.096325
-0.0994303
-0.102535
-0.105639
-0.108743
0.218817
0.215298
0.211856
0.208522
0.205325
0.202292
0.199434
0.19675
0.194234
0.191868
0.18964
0.187508
0.185461
0.183432
0.181419
0.179382
0.177297
0.175135
0.172858
0.170412
0.167779
0.164901
0.161754
0.158314
0.154563
0.15052
0.146226
0.141756
0.137218
0.132677
0.128142
0.123597
0.11904
0.11452
0.110115
0.105888
0.10187
0.0980919
0.0945692
0.0912976
0.0882742
0.0854839
0.0829045
0.0805069
0.0782736
0.0761886
0.0742446
0.0724333
0.0707433
0.0691707
0.0676929
0.0662794
0.0649183
0.0635898
0.0622751
0.0609654
0.059653
0.058335
0.057008
0.055674
0.0543325
0.052982
0.0516251
0.0502642
0.0488977
0.0475174
0.0461164
0.0446822
0.0432077
0.0416763
0.0400809
0.0384071
0.0366282
0.034729
0.0326882
0.0304854
0.0280952
0.0255018
0.0226911
0.019659
0.0164133
0.0123839
0.00922469
0.00564042
0.00208773
-0.00142367
-0.00488625
-0.00829665
-0.0116559
-0.0149682
-0.0182394
-0.0214755
-0.0246826
-0.0278662
-0.0310311
-0.0341813
-0.0373201
-0.0404502
-0.0435736
-0.0466919
-0.0498065
-0.0529182
-0.0560276
-0.0591353
-0.0622416
-0.0653467
-0.0684509
-0.0715541
-0.0746566
-0.0777583
-0.0808594
-0.0839598
-0.0870596
-0.0901589
-0.0932577
-0.0963561
-0.0994541
-0.102552
-0.105649
-0.108747
0.218939
0.215661
0.212446
0.209324
0.206321
0.20346
0.200751
0.198196
0.195787
0.193498
0.19133
0.189235
0.187215
0.185192
0.183175
0.181118
0.178997
0.17678
0.17443
0.171901
0.169155
0.16614
0.162823
0.159191
0.155232
0.15097
0.146457
0.141789
0.137086
0.132434
0.127839
0.123266
0.118685
0.114137
0.109673
0.105352
0.101221
0.0973191
0.093668
0.0902672
0.0871147
0.0841973
0.0814967
0.0789886
0.0766559
0.0744877
0.072476
0.0706065
0.0688721
0.0672618
0.0657585
0.064325
0.0629464
0.0616041
0.0602766
0.0589578
0.057641
0.0563232
0.0549979
0.0536687
0.052333
0.0509906
0.049643
0.0482923
0.0469353
0.0455654
0.0441735
0.0427515
0.0412876
0.0397677
0.0381833
0.036528
0.0347831
0.0329402
0.0309699
0.0288522
0.0265646
0.0240885
0.0214007
0.0184879
0.0153488
0.0118479
0.00824519
0.00467473
0.00114177
-0.00234244
-0.00576873
-0.00913425
-0.012442
-0.0156987
-0.0189125
-0.0220916
-0.0252434
-0.0283745
-0.0314901
-0.0345946
-0.0376916
-0.0407835
-0.0438723
-0.0469593
-0.0500457
-0.053132
-0.0562185
-0.0593056
-0.0623934
-0.0654818
-0.0685708
-0.0716603
-0.0747503
-0.0778406
-0.0809312
-0.084022
-0.087113
-0.090204
-0.093295
-0.096386
-0.0994771
-0.102568
-0.105659
-0.10875
0.219058
0.216012
0.213018
0.210103
0.207291
0.204599
0.202038
0.199609
0.197304
0.195089
0.192981
0.190931
0.188916
0.186893
0.184854
0.182763
0.180601
0.178329
0.175908
0.173292
0.170426
0.167252
0.163732
0.159869
0.155686
0.151209
0.1465
0.141644
0.136776
0.132015
0.12738
0.122816
0.11825
0.113722
0.109249
0.104886
0.100686
0.0966797
0.0929054
0.0893768
0.0860937
0.0830456
0.0802173
0.077594
0.0751615
0.0729119
0.0708347
0.0689111
0.0671325
0.0654844
0.0639463
0.0624872
0.0610866
0.0597234
0.0583766
0.0570422
0.055715
0.054391
0.0530642
0.0517402
0.0504083
0.0490723
0.047731
0.0463873
0.0450359
0.0436678
0.0422741
0.0408484
0.0393794
0.0378517
0.036259
0.0346046
0.0328761
0.0310726
0.0291677
0.0271455
0.0249721
0.0226168
0.0200546
0.0172624
0.014226
0.0108117
0.00722655
0.00366541
0.000143892
-0.00331755
-0.00670658
-0.0100221
-0.0132708
-0.0164637
-0.0196122
-0.022727
-0.0258173
-0.0288905
-0.0319528
-0.0350086
-0.0380613
-0.0411133
-0.0441664
-0.0472215
-0.0502792
-0.0533399
-0.0564037
-0.0594704
-0.0625398
-0.0656117
-0.0686859
-0.0717621
-0.07484
-0.0779193
-0.0809999
-0.0840814
-0.0871638
-0.0902469
-0.0933305
-0.0964146
-0.0994989
-0.102583
-0.105668
-0.108753
0.219177
0.216362
0.213586
0.210874
0.208245
0.205717
0.203298
0.200983
0.198763
0.196617
0.19455
0.192522
0.190493
0.188466
0.186401
0.184276
0.182065
0.179728
0.17722
0.174485
0.171466
0.168113
0.164391
0.160307
0.15591
0.151253
0.14634
0.141261
0.136221
0.131393
0.126762
0.122242
0.117729
0.113263
0.108835
0.104478
0.100237
0.0961514
0.0922702
0.0886223
0.0852175
0.0820475
0.0790982
0.076362
0.0738308
0.0715008
0.0693572
0.067378
0.0655537
0.0638647
0.0622918
0.0608023
0.0593723
0.0579762
0.0565978
0.055238
0.0538952
0.0525649
0.051237
0.0499133
0.0485825
0.0472525
0.045919
0.0445811
0.0432327
0.0418517
0.0404378
0.0389798
0.0374695
0.0358911
0.0342443
0.0325578
0.0308299
0.0290557
0.0272194
0.0252954
0.0232479
0.0210299
0.018613
0.0159643
0.013052
0.0097322
0.00616321
0.00259948
-0.000922313
-0.00436513
-0.0077125
-0.0109682
-0.0141463
-0.0172637
-0.0203365
-0.0233783
-0.0263999
-0.0294099
-0.0324145
-0.0354184
-0.0384248
-0.0414356
-0.0444522
-0.0474749
-0.0505041
-0.0535394
-0.0565807
-0.0596274
-0.062679
-0.065735
-0.068795
-0.0718583
-0.0749246
-0.0779935
-0.0810645
-0.0841373
-0.0872117
-0.0902873
-0.0933639
-0.0964413
-0.0995194
-0.102598
-0.105677
-0.108756
0.219291
0.216697
0.214127
0.211604
0.209148
0.20677
0.204478
0.202261
0.200122
0.198036
0.19599
0.193959
0.191909
0.189858
0.187761
0.185599
0.183343
0.180951
0.178375
0.175553
0.172406
0.168859
0.164889
0.160539
0.155889
0.150982
0.145876
0.140681
0.135546
0.130667
0.126055
0.121614
0.117188
0.112802
0.108439
0.104109
0.0998479
0.0957043
0.0917304
0.0879749
0.0844642
0.0811919
0.0781425
0.0753087
0.072692
0.0702904
0.0680823
0.0660438
0.0641659
0.0624247
0.0608097
0.0592811
0.0578104
0.0563603
0.0549323
0.0535322
0.0521769
0.0508557
0.0495506
0.0482158
0.0468822
0.0455554
0.0442469
0.0429155
0.041582
0.0401566
0.0386903
0.0371415
0.035511
0.0337906
0.0320086
0.0302464
0.0285333
0.0267604
0.025016
0.0232431
0.0213681
0.0193325
0.0170993
0.0146224
0.0118545
0.00864059
0.00509333
0.00146757
-0.00208235
-0.00551103
-0.00880537
-0.0119834
-0.0150724
-0.0180984
-0.0210824
-0.0240407
-0.0269857
-0.0299265
-0.0328693
-0.0358186
-0.0387769
-0.0417457
-0.0447254
-0.047716