/*--------------------------------*- C++ -*----------------------------------*\
  =========                 |
  \\      /  F ield         | OpenFOAM: The Open Source CFD Toolbox
   \\    /   O peration     | Website:  https://openfoam.org
    \\  /    A nd           | Version:  6
     \\/     M anipulation  |
\*---------------------------------------------------------------------------*/
FoamFile
{
    version     2.0;
    format      ascii;
    class       volVectorField;
    location    "2500";
    object      U;
}
// * * * * * * * * * * * * * * * * * * * * * * * * * * * * * * * * * * * * * //

dimensions      [0 1 -1 0 0 0 0];

internalField   nonuniform List<vector> 
4800
(
(-8.64439e-05 0 -6.1768e-05)
(7.03689e-05 0 -0.000111211)
(3.71954e-05 0 -0.000245963)
(5.65478e-05 0 -0.000282432)
(-5.99818e-05 0 -0.000247622)
(-0.000140307 0 -0.000240306)
(-0.000164785 0 -0.000131553)
(-0.000334267 0 -0.000146364)
(-0.000580415 0 0.000180092)
(-0.000729716 0 -0.000143593)
(-0.000858748 0 -4.45696e-05)
(-0.000965599 0 -0.00019828)
(-0.0010256 0 -0.000154792)
(-0.00103775 0 -0.000161129)
(-0.00104438 0 -0.000138243)
(-0.00102293 0 -5.20259e-05)
(-0.000934123 0 -9.46342e-05)
(-0.000877632 0 -6.18929e-05)
(-0.000862087 0 -2.71649e-05)
(-0.000871513 0 -3.69662e-05)
(-0.000873912 0 -9.5865e-05)
(-0.000686164 0 -0.000384943)
(-0.000620708 0 -1.34223e-05)
(-0.000488281 0 3.67574e-05)
(-0.000318084 0 -0.000228107)
(-0.000199707 0 -0.000113121)
(-4.22802e-05 0 -0.000139367)
(-5.91363e-07 0 -3.5076e-05)
(9.29248e-05 0 -6.3258e-05)
(0.000213463 0 -0.000147565)
(0.000433438 0 -5.43086e-05)
(0.000592406 0 -9.15506e-05)
(0.00074113 0 -9.9925e-05)
(0.000901245 0 -0.000164366)
(0.0010346 0 -4.90762e-05)
(0.00102574 0 -2.39188e-05)
(0.000988353 0 -1.00324e-05)
(0.000909679 0 -3.22525e-05)
(0.000885881 0 -5.32427e-05)
(0.000903166 0 -8.01686e-05)
(0.000956367 0 -0.00010984)
(0.00102546 0 -0.000156213)
(0.00107465 0 -3.20231e-05)
(0.00109506 0 -1.35666e-05)
(0.00111795 0 -6.116e-05)
(0.00117729 0 -5.23865e-05)
(0.00126591 0 -0.000138648)
(0.00129249 0 -9.23604e-05)
(0.00131091 0 -6.70668e-05)
(0.00137061 0 -1.50728e-05)
(0.00147443 0 -5.13021e-06)
(0.00151296 0 -5.70446e-05)
(0.00150232 0 -6.90075e-05)
(0.00149062 0 -6.35818e-05)
(0.00149253 0 -5.02928e-05)
(0.00149852 0 -4.98265e-05)
(0.00152021 0 -4.85062e-05)
(0.00156561 0 -5.68812e-05)
(0.00161055 0 -7.38761e-05)
(0.00163577 0 -3.23154e-05)
(0.00166075 0 -2.45701e-06)
(0.00169785 0 3.29869e-07)
(0.00170066 0 -9.61336e-06)
(0.00169258 0 1.57061e-05)
(0.00167085 0 -7.13243e-05)
(0.00162936 0 5.91665e-05)
(0.00154994 0 -0.00013036)
(0.00145256 0 8.31057e-05)
(0.00134418 0 -2.33419e-05)
(0.00117562 0 -4.44513e-05)
(0.000951262 0 -0.000100212)
(0.00011629 0 0.000163536)
(-0.000698634 0 -0.000506258)
(-0.000763487 0 -0.000416835)
(-0.000640622 0 -0.000228101)
(-0.000676121 0 -8.43281e-05)
(-0.000562572 0 -0.000220826)
(-0.000496537 0 -0.000225756)
(-0.000605142 0 -0.000297626)
(7.51875e-06 0 -0.000189698)
(-3.58899e-12 0 2.57818e-13)
(-4.60611e-12 0 -7.53282e-13)
(-2.27652e-12 0 -4.0438e-13)
(-1.69675e-12 0 -1.74894e-13)
(-1.45287e-12 0 -6.86456e-14)
(-1.35227e-12 0 -3.16366e-14)
(-1.29412e-12 0 -2.61955e-14)
(-1.23452e-12 0 -3.30485e-14)
(-1.15761e-12 0 -4.35179e-14)
(-1.05984e-12 0 -5.39747e-14)
(-9.42698e-13 0 -6.29646e-14)
(-8.09659e-13 0 -6.99587e-14)
(-6.64866e-13 0 -7.4816e-14)
(-5.12577e-13 0 -7.75645e-14)
(-3.56901e-13 0 -7.83151e-14)
(-2.01665e-13 0 -7.72273e-14)
(-5.03448e-14 0 -7.44931e-14)
(9.39855e-14 0 -7.03263e-14)
(2.2869e-13 0 -6.49532e-14)
(3.51589e-13 0 -5.86054e-14)
(4.60972e-13 0 -5.15131e-14)
(5.55584e-13 0 -4.38989e-14)
(6.34607e-13 0 -3.59718e-14)
(6.97619e-13 0 -2.79215e-14)
(7.44556e-13 0 -1.99144e-14)
(7.75658e-13 0 -1.20925e-14)
(7.91423e-13 0 -4.57376e-15)
(7.92553e-13 0 2.5467e-15)
(7.79905e-13 0 9.19586e-15)
(7.54457e-13 0 1.53213e-14)
(7.17271e-13 0 2.08893e-14)
(6.69473e-13 0 2.58818e-14)
(6.12235e-13 0 3.02929e-14)
(5.46746e-13 0 3.41252e-14)
(4.74196e-13 0 3.73865e-14)
(3.95761e-13 0 4.00868e-14)
(3.12582e-13 0 4.22353e-14)
(2.2577e-13 0 4.38383e-14)
(1.36414e-13 0 4.48921e-14)
(4.56176e-14 0 4.5365e-14)
(-6.59278e-05 0 -5.60415e-05)
(7.39175e-05 0 8.34875e-05)
(-0.000131682 0 0.000193056)
(-0.000187673 0 0.000173183)
(-0.000307252 0 0.000192404)
(-0.000479542 0 0.000261002)
(-0.000631215 0 0.00012557)
(-0.000676477 0 0.000265203)
(-0.000798528 0 0.000147736)
(-0.000835574 0 0.000226214)
(-0.000896948 0 0.000302491)
(-0.00100912 0 0.000292247)
(-0.00109266 0 0.000205612)
(-0.00113682 0 0.0001275)
(-0.00117622 0 3.60744e-05)
(-0.00118524 0 1.14541e-05)
(-0.00115839 0 -6.77471e-05)
(-0.00113447 0 -3.66918e-05)
(-0.00112833 0 -1.98837e-05)
(-0.00112678 0 -2.38146e-05)
(-0.0010308 0 -5.21378e-05)
(-0.000862034 0 -0.000117848)
(-0.000677837 0 -0.000273592)
(-0.00060895 0 -0.000168877)
(-0.000330898 0 -0.000451)
(-0.000380653 0 -4.25184e-05)
(-0.000187041 0 -6.74451e-05)
(-6.27827e-05 0 -0.000112045)
(0.00014487 0 -5.27912e-05)
(3.48807e-05 0 -0.000408295)
(0.00046655 0 -0.00011191)
(0.00054903 0 -0.000191811)
(0.000673768 0 -0.000230604)
(0.000860579 0 -0.000282699)
(0.00101387 0 -1.98454e-05)
(0.00099183 0 1.49611e-05)
(0.000940566 0 9.37022e-05)
(0.000885781 0 8.62498e-05)
(0.00088323 0 3.10956e-05)
(0.000890027 0 -1.41786e-05)
(0.000923301 0 -4.26963e-05)
(0.000994905 0 -5.58479e-05)
(0.00104558 0 -8.52458e-05)
(0.00106958 0 1.30762e-05)
(0.00110051 0 -9.45352e-05)
(0.0011878 0 -0.000101037)
(0.00128858 0 -9.29248e-05)
(0.00131858 0 -5.57901e-05)
(0.00132961 0 -0.000139256)
(0.00138404 0 -6.21781e-05)
(0.0014583 0 -0.000236697)
(0.00152222 0 5.22256e-06)
(0.00151822 0 4.35252e-05)
(0.00152339 0 6.31428e-05)
(0.00154149 0 4.43621e-05)
(0.00157011 0 -6.80358e-07)
(0.00160438 0 -2.40003e-05)
(0.00160739 0 -3.74542e-05)
(0.00159718 0 -4.5591e-05)
(0.00158348 0 -5.60116e-05)
(0.00158782 0 -5.98206e-05)
(0.00160953 0 -2.16778e-05)
(0.00161021 0 8.96315e-06)
(0.00159961 0 2.06507e-06)
(0.00157275 0 0.000133704)
(0.00154818 0 6.64917e-05)
(0.00147347 0 0.000259236)
(0.00142521 0 8.96843e-05)
(0.00127995 0 0.000401429)
(0.00125744 0 0.000174981)
(0.00106402 0 0.00057261)
(0.000766317 0 0.000507068)
(0.000636395 0 0.000583107)
(0.000669186 0 0.000581175)
(0.000518205 0 0.000428439)
(-0.000233415 0 -6.8499e-05)
(-0.000294974 0 -9.69903e-05)
(-0.000174212 0 -0.000239474)
(-0.000589603 0 -0.000373975)
(7.27964e-06 0 -0.000153)
(-3.80932e-12 0 3.75227e-13)
(-4.19078e-12 0 -2.52816e-12)
(-1.69872e-12 0 -1.094e-12)
(-1.36151e-12 0 -4.01432e-13)
(-1.30997e-12 0 -1.36628e-13)
(-1.30999e-12 0 -6.33149e-14)
(-1.29551e-12 0 -6.62206e-14)
(-1.2518e-12 0 -9.5436e-14)
(-1.17853e-12 0 -1.30512e-13)
(-1.07929e-12 0 -1.63372e-13)
(-9.58683e-13 0 -1.90915e-13)
(-8.2151e-13 0 -2.12082e-13)
(-6.72472e-13 0 -2.26666e-13)
(-5.16076e-13 0 -2.34836e-13)
(-3.56564e-13 0 -2.36962e-13)
(-1.97843e-13 0 -2.33538e-13)
(-4.34438e-14 0 -2.25151e-13)
(1.03525e-13 0 -2.1245e-13)
(2.4041e-13 0 -1.96121e-13)
(3.65029e-13 0 -1.76867e-13)
(4.75678e-13 0 -1.55383e-13)
(5.71125e-13 0 -1.32345e-13)
(6.50584e-13 0 -1.08383e-13)
(7.13677e-13 0 -8.40689e-14)
(7.60385e-13 0 -5.99085e-14)
(7.90998e-13 0 -3.63323e-14)
(8.06062e-13 0 -1.36965e-14)
(8.06322e-13 0 7.71621e-15)
(7.9268e-13 0 2.7694e-14)
(7.6615e-13 0 4.60898e-14)
(7.27831e-13 0 6.28122e-14)
(6.78877e-13 0 7.78139e-14)
(6.20478e-13 0 9.10796e-14)
(5.53839e-13 0 1.02616e-13)
(4.80158e-13 0 1.1244e-13)
(4.00609e-13 0 1.20578e-13)
(3.16333e-13 0 1.27052e-13)
(2.28427e-13 0 1.31883e-13)
(1.37941e-13 0 1.35078e-13)
(4.60905e-14 0 1.36615e-13)
(-0.000149433 0 4.12651e-05)
(-0.000213439 0 8.08622e-05)
(-0.000275404 0 8.56154e-05)
(-0.000205311 0 0.000297359)
(-0.000494323 0 0.000268743)
(-0.00075296 0 0.000226904)
(-0.000702782 0 0.000522993)
(-0.000874138 0 0.000331481)
(-0.000928292 0 0.000269681)
(-0.000939282 0 0.000253409)
(-0.00102296 0 7.34816e-05)
(-0.00107877 0 0.000239049)
(-0.00116333 0 0.000112612)
(-0.00123034 0 1.74442e-05)
(-0.00128228 0 8.65338e-06)
(-0.00130377 0 -4.43365e-05)
(-0.00131346 0 -7.12248e-05)
(-0.00130989 0 -8.891e-05)
(-0.00122823 0 -9.09035e-05)
(-0.00114971 0 -6.4699e-05)
(-0.00104291 0 -0.000231687)
(-0.000885949 0 -0.00035636)
(-0.000642782 0 -0.00051349)
(-0.000686457 0 -0.000147733)
(-0.000549828 0 -0.000107918)
(-0.00027768 0 -0.000299277)
(-0.000170308 0 -0.000257724)
(1.96469e-05 0 -0.000309734)
(0.000238148 0 -0.00036794)
(0.000397561 0 -0.00045133)
(0.000508347 0 -0.000484998)
(0.000582169 0 -0.000479756)
(0.000623106 0 -0.000534963)
(0.000817604 0 -0.000323662)
(0.000892771 0 1.45997e-05)
(0.000873198 0 6.64392e-05)
(0.000831458 0 9.52981e-05)
(0.000790589 0 8.49093e-05)
(0.000781232 0 1.6773e-05)
(0.000792531 0 -4.56266e-05)
(0.00083854 0 -0.000132467)
(0.000902232 0 -6.3215e-05)
(0.000935681 0 -4.56406e-05)
(0.000978261 0 -0.000110298)
(0.00105415 0 -0.000127703)
(0.001151 0 1.36825e-05)
(0.00123417 0 -4.25605e-05)
(0.00127124 0 -0.000193284)
(0.00131891 0 -0.000150365)
(0.00137 0 -0.000101036)
(0.00142322 0 4.27399e-06)
(0.00142645 0 -9.05641e-05)
(0.00142417 0 -7.91524e-05)
(0.00143812 0 -6.9766e-05)
(0.00147988 0 -5.57199e-05)
(0.00152704 0 -3.08481e-05)
(0.00152719 0 -3.04273e-05)
(0.00151149 0 -4.22778e-05)
(0.00148827 0 -3.1945e-05)
(0.00148181 0 -4.63263e-05)
(0.00147933 0 -3.01025e-05)
(0.0014683 0 -1.80805e-05)
(0.00145593 0 1.76399e-05)
(0.00144265 0 -4.75472e-06)
(0.00142384 0 6.43099e-05)
(0.00140357 0 6.9432e-05)
(0.00137348 0 0.000188299)
(0.00135712 0 0.000129689)
(0.00128489 0 0.000371978)
(0.0012198 0 0.000499309)
(0.00120727 0 0.000575007)
(0.00116013 0 0.000632831)
(0.0010193 0 0.000629492)
(0.00083299 0 0.000576941)
(0.00069416 0 0.000451287)
(0.000269567 0 0.000359852)
(0.00032612 0 8.47002e-05)
(0.000239045 0 -0.000119512)
(-0.000416431 0 -0.000343157)
(8.91903e-06 0 -1.54443e-05)
(-4.21688e-12 0 -7.6127e-14)
(-1.88292e-12 0 -4.3928e-12)
(-1.50561e-13 0 -1.0421e-12)
(-7.39858e-13 0 -2.00189e-13)
(-1.11499e-12 0 -1.30776e-14)
(-1.28187e-12 0 -1.87684e-14)
(-1.3261e-12 0 -7.98225e-14)
(-1.29873e-12 0 -1.51834e-13)
(-1.22554e-12 0 -2.19658e-13)
(-1.12024e-12 0 -2.78045e-13)
(-9.91409e-13 0 -3.25226e-13)
(-8.4541e-13 0 -3.60804e-13)
(-6.8762e-13 0 -3.84965e-13)
(-5.22873e-13 0 -3.98205e-13)
(-3.55603e-13 0 -4.01224e-13)
(-1.89854e-13 0 -3.94893e-13)
(-2.92569e-14 0 -3.80217e-13)
(1.23016e-13 0 -3.58305e-13)
(2.64273e-13 0 -3.30332e-13)
(3.92327e-13 0 -2.97491e-13)
(5.05493e-13 0 -2.60968e-13)
(6.02585e-13 0 -2.21901e-13)
(6.82883e-13 0 -1.81356e-13)
(7.46093e-13 0 -1.40299e-13)
(7.92292e-13 0 -9.95795e-14)
(8.2187e-13 0 -5.99178e-14)
(8.35471e-13 0 -2.19051e-14)
(8.33943e-13 0 1.39968e-14)
(8.18279e-13 0 4.7448e-14)
(7.89575e-13 0 7.82183e-14)
(7.48995e-13 0 1.06169e-13)
(6.97741e-13 0 1.3123e-13)
(6.37036e-13 0 1.53384e-13)
(5.68106e-13 0 1.72643e-13)
(4.92159e-13 0 1.89038e-13)
(4.10373e-13 0 2.02611e-13)
(3.23887e-13 0 2.13403e-13)
(2.33796e-13 0 2.21451e-13)
(1.41146e-13 0 2.2679e-13)
(4.71548e-14 0 2.29445e-13)
(-6.32358e-05 0 0.000148016)
(-7.63068e-05 0 0.000211036)
(-0.000174878 0 0.000299263)
(-0.000313048 0 0.000433249)
(-0.000376724 0 0.000584098)
(-0.000699164 0 0.000470215)
(-0.00093289 0 0.00024111)
(-0.000898741 0 0.000453472)
(-0.000963279 0 0.000408796)
(-0.00106531 0 0.000302713)
(-0.00115767 0 0.000304902)
(-0.00120318 0 0.000297039)
(-0.00126356 0 0.000178031)
(-0.00130681 0 0.000107052)
(-0.00132305 0 6.58933e-05)
(-0.00133771 0 -4.86543e-05)
(-0.00135816 0 -7.85498e-05)
(-0.00134312 0 -0.000104214)
(-0.00119909 0 -0.000189216)
(-0.00108667 0 -0.000218952)
(-0.00101548 0 -0.000261954)
(-0.000914823 0 -0.000383978)
(-0.000694837 0 -0.000560441)
(-0.000510627 0 -0.000536985)
(-0.000236637 0 -0.000588661)
(-7.99754e-05 0 -0.000515031)
(-2.10165e-05 0 -0.000461603)
(0.000145894 0 -0.000422111)
(0.00038542 0 -0.000408198)
(0.000399556 0 -0.000622257)
(0.000646658 0 -0.000550678)
(0.00068933 0 -0.000490297)
(0.00072691 0 -0.000428612)
(0.000725081 0 -0.00035071)
(0.000738594 0 -0.000110406)
(0.000683589 0 2.2018e-05)
(0.000661918 0 0.000102927)
(0.000676728 0 0.000140734)
(0.000687973 0 -2.3155e-05)
(0.000715115 0 -0.000106336)
(0.000788743 0 -0.000173011)
(0.000859801 0 -0.000176849)
(0.000893973 0 -0.000208921)
(0.000976579 0 -9.2495e-05)
(0.00107061 0 -0.000159664)
(0.00110598 0 -0.000345666)
(0.00116133 0 -0.000265806)
(0.00120094 0 -0.000178168)
(0.00121394 0 -0.00018317)
(0.00122396 0 -0.000166759)
(0.0012476 0 -0.000124437)
(0.00128745 0 -0.000106439)
(0.00131879 0 -6.33089e-05)
(0.00132749 0 -5.27052e-05)
(0.00133313 0 -5.48072e-05)
(0.00133247 0 -5.56174e-05)
(0.00132856 0 -5.47574e-05)
(0.00132056 0 -4.77223e-05)
(0.00130616 0 -2.75461e-05)
(0.00128593 0 -1.1938e-05)
(0.00127255 0 -2.27123e-05)
(0.00126938 0 -1.15079e-05)
(0.00127444 0 -6.37754e-06)
(0.00128499 0 5.10567e-05)
(0.00128255 0 0.000104682)
(0.00126917 0 0.000157452)
(0.00126477 0 0.000208388)
(0.00124588 0 0.000337016)
(0.00122908 0 0.000427736)
(0.00118812 0 0.000546283)
(0.00116696 0 0.000660532)
(0.00112968 0 0.000730166)
(0.00108375 0 0.0007327)
(0.0009914 0 0.000661677)
(0.000866017 0 0.000580048)
(0.000729524 0 0.000387054)
(0.000265961 0 0.000531656)
(0.000533507 0 -0.000187412)
(-0.000342997 0 -0.00029803)
(-8.71481e-05 0 -0.000164606)
(-7.80574e-12 0 6.71378e-12)
(6.25224e-12 0 3.19412e-12)
(2.49394e-12 0 1.35341e-12)
(-3.32272e-13 0 6.55665e-13)
(-1.12824e-12 0 3.03185e-13)
(-1.37639e-12 0 8.11046e-14)
(-1.42832e-12 0 -8.23665e-14)
(-1.39156e-12 0 -2.12332e-13)
(-1.30474e-12 0 -3.18214e-13)
(-1.18486e-12 0 -4.03877e-13)
(-1.04144e-12 0 -4.71075e-13)
(-8.81249e-13 0 -5.20851e-13)
(-7.09873e-13 0 -5.5407e-13)
(-5.32335e-13 0 -5.71649e-13)
(-3.53252e-13 0 -5.74666e-13)
(-1.76835e-13 0 -5.64395e-13)
(-6.85661e-15 0 -5.42295e-13)
(1.5341e-13 0 -5.09978e-13)
(3.01225e-13 0 -4.69148e-13)
(4.34393e-13 0 -4.21539e-13)
(5.51269e-13 0 -3.68854e-13)
(6.50737e-13 0 -3.12727e-13)
(7.32185e-13 0 -2.54677e-13)
(7.95453e-13 0 -1.96073e-13)
(8.40766e-13 0 -1.38112e-13)
(8.68673e-13 0 -8.18006e-14)
(8.79976e-13 0 -2.79543e-14)
(8.75675e-13 0 2.27956e-14)
(8.56901e-13 0 6.99907e-14)
(8.24871e-13 0 1.13324e-13)
(7.80843e-13 0 1.52617e-13)
(7.26092e-13 0 1.87787e-13)
(6.61891e-13 0 2.18823e-13)
(5.89494e-13 0 2.45758e-13)
(5.10126e-13 0 2.68651e-13)
(4.24974e-13 0 2.87575e-13)
(3.35174e-13 0 3.02602e-13)
(2.41814e-13 0 3.13799e-13)
(1.45935e-13 0 3.21223e-13)
(4.87462e-14 0 3.24916e-13)
(-0.000182043 0 0.000247392)
(-0.000179136 0 0.000312403)
(-0.000571027 0 0.000237972)
(-0.000732855 0 0.00028805)
(-0.000672006 0 0.00051436)
(-0.00075905 0 0.000480211)
(-0.000714542 0 0.00065879)
(-0.000965809 0 0.000393544)
(-0.00104016 0 0.000380449)
(-0.00115916 0 0.000381867)
(-0.00122874 0 0.000384983)
(-0.00125009 0 0.000348574)
(-0.00125912 0 0.000282557)
(-0.00129354 0 0.000183841)
(-0.00132118 0 0.000105308)
(-0.00134179 0 -1.86372e-05)
(-0.00134119 0 -6.19337e-05)
(-0.00127077 0 -0.000180479)
(-0.0011644 0 -0.000309047)
(-0.00109306 0 -0.000359773)
(-0.00103693 0 -0.000465452)
(-0.00089708 0 -0.000691109)
(-0.000722868 0 -0.000791857)
(-0.000474985 0 -0.000820402)
(-0.000650544 0 -0.000476867)
(-0.000108659 0 -0.000731036)
(-0.00014129 0 -0.000612027)
(0.000141067 0 -0.000591782)
(0.000302384 0 -0.000586488)
(0.000380971 0 -0.000727487)
(0.000601759 0 -0.000623592)
(0.000606945 0 -0.00057148)
(0.000581498 0 -0.000516706)
(0.000640688 0 -0.000317006)
(0.000567049 0 3.8736e-05)
(0.000480182 0 7.52359e-05)
(0.000504541 0 7.48547e-05)
(0.000582638 0 0.000126389)
(0.000645236 0 -8.56246e-05)
(0.000694036 0 -0.00016824)
(0.000756253 0 -0.000258181)
(0.000859423 0 -0.000180599)
(0.000899077 0 -0.000205464)
(0.000908263 0 -0.000340431)
(0.00101065 0 -0.000325331)
(0.00108512 0 -0.000224755)
(0.00107412 0 -0.000214254)
(0.00107364 0 -0.000216189)
(0.0010936 0 -0.000200566)
(0.00112917 0 -0.00019549)
(0.00115022 0 -0.000216678)
(0.00116788 0 -0.00013047)
(0.00116911 0 -0.000106568)
(0.0011725 0 -5.20334e-05)
(0.00117668 0 -3.9511e-05)
(0.0011769 0 -2.94155e-05)
(0.00116521 0 -1.06634e-05)
(0.00115106 0 1.05087e-06)
(0.00113644 0 -1.63667e-05)
(0.00111421 0 -4.37654e-05)
(0.00109351 0 -1.66454e-05)
(0.00109071 0 3.39992e-06)
(0.00109176 0 2.10251e-05)
(0.0010896 0 2.22735e-05)
(0.00108057 0 9.87378e-05)
(0.00107913 0 0.000170972)
(0.00111585 0 0.000160901)
(0.00113731 0 0.000276645)
(0.00111114 0 0.000454972)
(0.00110422 0 0.000563233)
(0.00111576 0 0.00066839)
(0.00108348 0 0.0007434)
(0.00106368 0 0.000743669)
(0.0010104 0 0.000766991)
(0.000876134 0 0.000828117)
(0.000940104 0 0.000526636)
(0.000598477 0 0.000541019)
(0.000389837 0 0.000299206)
(-0.000699718 0 -8.39884e-05)
(-0.000711644 0 9.19848e-05)
(-6.97478e-07 0 -0.000130251)
(-4.33245e-12 0 3.59445e-12)
(-2.72596e-12 0 2.72752e-12)
(-1.78984e-12 0 1.16613e-12)
(-1.68922e-12 0 4.88971e-13)
(-1.66706e-12 0 1.22318e-13)
(-1.61927e-12 0 -1.18332e-13)
(-1.5345e-12 0 -2.9685e-13)
(-1.41709e-12 0 -4.36989e-13)
(-1.2731e-12 0 -5.48163e-13)
(-1.10838e-12 0 -6.34326e-13)
(-9.28405e-13 0 -6.97428e-13)
(-7.38418e-13 0 -7.38774e-13)
(-5.43469e-13 0 -7.59602e-13)
(-3.48348e-13 0 -7.61329e-13)
(-1.57483e-13 0 -7.45642e-13)
(2.51596e-14 0 -7.14492e-13)
(1.96162e-13 0 -6.70048e-13)
(3.52713e-13 0 -6.1461e-13)
(4.92621e-13 0 -5.50514e-13)
(6.14305e-13 0 -4.80045e-13)
(7.16762e-13 0 -4.05369e-13)
(7.99536e-13 0 -3.28484e-13)
(8.62658e-13 0 -2.51178e-13)
(9.06565e-13 0 -1.74998e-13)
(9.32028e-13 0 -1.01234e-13)
(9.40067e-13 0 -3.09185e-14)
(9.31888e-13 0 3.51608e-14)
(9.08808e-13 0 9.64418e-14)
(8.72202e-13 0 1.52559e-13)
(8.23458e-13 0 2.03312e-13)
(7.63946e-13 0 2.48623e-13)
(6.95007e-13 0 2.88509e-13)
(6.17934e-13 0 3.23044e-13)
(5.33976e-13 0 3.52334e-13)
(4.44324e-13 0 3.76499e-13)
(3.50112e-13 0 3.95658e-13)
(2.52417e-13 0 4.09915e-13)
(1.52262e-13 0 4.1936e-13)
(5.08476e-14 0 4.24054e-13)
(-0.000182897 0 0.000380035)
(6.5805e-05 0 0.000537948)
(-0.000214646 0 0.000537259)
(-0.000356999 0 0.000756013)
(-0.000486593 0 0.000810644)
(-0.000591575 0 0.000786788)
(-0.000805776 0 0.000632446)
(-0.000980186 0 0.00047704)
(-0.00100469 0 0.000581609)
(-0.00112723 0 0.000495183)
(-0.00119763 0 0.000401005)
(-0.00121938 0 0.00033942)
(-0.00122918 0 0.000171848)
(-0.00122515 0 0.000156582)
(-0.00125425 0 5.27313e-05)
(-0.00126198 0 -9.24219e-06)
(-0.00121238 0 -0.000228915)
(-0.00115479 0 -0.000323796)
(-0.00113841 0 -0.000317322)
(-0.00109486 0 -0.000426774)
(-0.00102937 0 -0.000555881)
(-0.000935339 0 -0.000719206)
(-0.000961597 0 -0.000693588)
(-0.000442829 0 -0.00106221)
(-0.000625415 0 -0.000817809)
(-0.000326955 0 -0.000875032)
(-0.000267213 0 -0.000768746)
(-0.000155196 0 -0.000782481)
(4.35266e-05 0 -0.000857947)
(0.000322505 0 -0.000820377)
(0.000251874 0 -0.000774615)
(0.000285987 0 -0.000627994)
(0.000262611 0 -0.000481825)
(0.000378655 0 -0.00021188)
(0.000281128 0 -1.21248e-05)
(0.00032033 0 1.81817e-05)
(0.000407291 0 -4.86737e-05)
(0.000536413 0 4.27665e-05)
(0.000622029 0 -0.00013647)
(0.000710457 0 -0.000220958)
(0.000725388 0 -0.000399267)
(0.000840652 0 -0.000248343)
(0.000874085 0 -0.000260993)
(0.000917377 0 -0.00026088)
(0.000954384 0 -0.000268029)
(0.000961849 0 -0.000260211)
(0.000971976 0 -0.000223383)
(0.000981789 0 -0.000203204)
(0.000997079 0 -0.000206916)
(0.001032 0 -0.000173641)
(0.00104496 0 -0.000120118)
(0.00104449 0 -0.000109403)
(0.00105051 0 -8.93054e-05)
(0.0010508 0 -7.87655e-05)
(0.00104557 0 -7.39928e-05)
(0.00104041 0 -1.90511e-06)
(0.00102415 0 -6.17213e-05)
(0.00101098 0 1.08147e-05)
(0.00100085 0 1.8862e-05)
(0.000987238 0 1.34505e-05)
(0.000964595 0 5.50487e-06)
(0.000947557 0 3.46726e-06)
(0.000931697 0 1.01765e-05)
(0.000908982 0 8.59202e-05)
(0.000911413 0 0.000135859)
(0.000958508 0 1.75719e-05)
(0.000960404 0 0.000239294)
(0.000938736 0 0.000375313)
(0.000914993 0 0.00051449)
(0.00103579 0 0.000436021)
(0.001023 0 0.000644914)
(0.00102021 0 0.000730016)
(0.00099252 0 0.000789656)
(0.00097299 0 0.000801058)
(0.000902669 0 0.00083729)
(0.00083142 0 0.000819575)
(0.000754362 0 0.000654273)
(0.000483623 0 0.000569785)
(0.000445382 0 0.000179805)
(-7.78024e-05 0 0.00033746)
(6.55455e-06 0 -0.000208069)
(-4.01639e-12 0 -1.09985e-12)
(-4.44539e-12 0 1.28573e-12)
(-2.57047e-12 0 7.92305e-13)
(-2.17168e-12 0 3.64173e-13)
(-1.98332e-12 0 3.74418e-14)
(-1.84722e-12 0 -2.1641e-13)
(-1.71014e-12 0 -4.19755e-13)
(-1.55606e-12 0 -5.84803e-13)
(-1.38219e-12 0 -7.17523e-13)
(-1.19071e-12 0 -8.20694e-13)
(-9.85697e-13 0 -8.95814e-13)
(-7.72046e-13 0 -9.44047e-13)
(-5.5489e-13 0 -9.66701e-13)
(-3.39292e-13 0 -9.65447e-13)
(-1.29998e-13 0 -9.42384e-13)
(6.87378e-14 0 -9.00004e-13)
(2.53292e-13 0 -8.41112e-13)
(4.20758e-13 0 -7.68696e-13)
(5.68958e-13 0 -6.85791e-13)
(6.96414e-13 0 -5.95341e-13)
(8.02298e-13 0 -5.0011e-13)
(8.86376e-13 0 -4.02616e-13)
(9.48939e-13 0 -3.05083e-13)
(9.9071e-13 0 -2.09414e-13)
(1.01275e-12 0 -1.17176e-13)
(1.01637e-12 0 -2.96033e-14)
(1.00304e-12 0 5.2381e-14)
(9.743e-13 0 1.28137e-13)
(9.31741e-13 0 1.97267e-13)
(8.76906e-13 0 2.59577e-13)
(8.1129e-13 0 3.15027e-13)
(7.36312e-13 0 3.63687e-13)
(6.53319e-13 0 4.05696e-13)
(5.63582e-13 0 4.41232e-13)
(4.68297e-13 0 4.70483e-13)
(3.6859e-13 0 4.93628e-13)
(2.65516e-13 0 5.10827e-13)
(1.60074e-13 0 5.22208e-13)
(5.34407e-14 0 5.27861e-13)
(-0.000189464 0 0.000460597)
(-0.000250995 0 0.000632423)
(-0.000260907 0 0.0006552)
(-0.000624617 0 0.000683185)
(-0.000727489 0 0.000752568)
(-0.00101369 0 0.00053377)
(-0.000962866 0 0.000613953)
(-0.000927763 0 0.000666696)
(-0.000991417 0 0.000638442)
(-0.00108094 0 0.000520935)
(-0.00110431 0 0.000470838)
(-0.00111782 0 0.000382547)
(-0.00114172 0 0.000252041)
(-0.00113893 0 0.000198537)
(-0.00114659 0 0.000145882)
(-0.00113593 0 -4.39015e-05)
(-0.00107296 0 -0.00020462)
(-0.00104485 0 -0.000225079)
(-0.00104042 0 -0.000332894)
(-0.00110433 0 -0.000331876)
(-0.000942553 0 -0.000704703)
(-0.000838248 0 -0.000866528)
(-0.000798499 0 -0.000945883)
(-0.000752408 0 -0.000994641)
(-0.000560221 0 -0.00106767)
(-0.000383548 0 -0.00103582)
(-0.000311912 0 -0.000934591)
(-0.000205253 0 -0.000943065)
(-2.99862e-05 0 -0.000974095)
(7.26031e-05 0 -0.000917906)
(-2.65391e-05 0 -0.000766185)
(8.66484e-05 0 -0.000589668)
(-1.65726e-05 0 -0.000409011)
(0.000160188 0 -4.75378e-05)
(0.000120849 0 -0.000124955)
(0.000223288 0 -5.01728e-05)
(0.000346396 0 -0.000104319)
(0.000489081 0 -0.000118198)
(0.000558869 0 -0.000258028)
(0.000749849 0 -0.000163052)
(0.000708553 0 -0.000497691)
(0.000862011 0 -0.000131986)
(0.00082608 0 -0.000269601)
(0.00082364 0 -0.000323599)
(0.000831871 0 -0.000329474)
(0.000835144 0 -0.000309802)
(0.00084895 0 -0.000265642)
(0.000851397 0 -0.000280965)
(0.000877277 0 -0.000248637)
(0.000882724 0 -0.00022583)
(0.000888405 0 -0.000202799)
(0.000903076 0 -0.000166172)
(0.000924782 0 -0.000109175)
(0.00093863 0 -4.75095e-05)
(0.000934914 0 -3.88344e-05)
(0.000922882 0 -1.79316e-05)
(0.00090981 0 1.75533e-05)
(0.00089224 0 1.29621e-05)
(0.000863308 0 1.37767e-05)
(0.000849456 0 2.33847e-05)
(0.000846527 0 9.49894e-06)
(0.000839393 0 2.78346e-05)
(0.000824461 0 2.72123e-05)
(0.000824806 0 8.33028e-06)
(0.000848606 0 4.04372e-05)
(0.000839326 0 0.000185591)
(0.000810447 0 0.000266247)
(0.000798038 0 0.000341553)
(0.000874532 0 0.000357656)
(0.000878238 0 0.000536697)
(0.000927268 0 0.000604583)
(0.000870024 0 0.000763577)
(0.000879682 0 0.000824188)
(0.0008308 0 0.000899438)
(0.000823629 0 0.000892008)
(0.000759259 0 0.00089077)
(0.000744668 0 0.000786585)
(0.000631789 0 0.000706818)
(0.000608336 0 0.000496831)
(-0.000139783 0 0.000326098)
(7.69153e-06 0 -0.000130535)
(-3.11868e-12 0 -2.23305e-12)
(-4.13538e-12 0 3.27811e-13)
(-2.71104e-12 0 3.5304e-13)
(-2.4437e-12 0 1.37851e-13)
(-2.24727e-12 0 -1.20439e-13)
(-2.0762e-12 0 -3.6501e-13)
(-1.90281e-12 0 -5.81002e-13)
(-1.71486e-12 0 -7.65064e-13)
(-1.509e-12 0 -9.16535e-13)
(-1.28667e-12 0 -1.03521e-12)
(-1.05176e-12 0 -1.12119e-12)
(-8.09304e-13 0 -1.175e-12)
(-5.64869e-13 0 -1.19782e-12)
(-3.24031e-13 0 -1.19149e-12)
(-9.20402e-14 0 -1.15857e-12)
(1.26432e-13 0 -1.10216e-12)
(3.2747e-13 0 -1.02582e-12)
(5.08034e-13 0 -9.33354e-13)
(6.65977e-13 0 -8.28625e-13)
(7.99985e-13 0 -7.15356e-13)
(9.09487e-13 0 -5.96998e-13)
(9.94563e-13 0 -4.76642e-13)
(1.05586e-12 0 -3.56977e-13)
(1.09447e-12 0 -2.40265e-13)
(1.11184e-12 0 -1.28332e-13)
(1.10962e-12 0 -2.25897e-14)
(1.08963e-12 0 7.59375e-14)
(1.05369e-12 0 1.6657e-13)
(1.00364e-12 0 2.4892e-13)
(9.41218e-13 0 3.2284e-13)
(8.68056e-13 0 3.88363e-13)
(7.85676e-13 0 4.45649e-13)
(6.9548e-13 0 4.94936e-13)
(5.98762e-13 0 5.36499e-13)
(4.9672e-13 0 5.70618e-13)
(3.90456e-13 0 5.97555e-13)
(2.80996e-13 0 6.17535e-13)
(1.69296e-13 0 6.3074e-13)
(5.65011e-14 0 6.37296e-13)
(-8.34864e-05 0 0.000534823)
(-0.000203067 0 0.00074278)
(-9.34854e-05 0 0.000842996)
(-0.000425953 0 0.000896652)
(-0.000469724 0 0.00100643)
(-0.000486448 0 0.00105293)
(-0.000684033 0 0.000905343)
(-0.000900324 0 0.000738912)
(-0.000912221 0 0.000710877)
(-0.000990084 0 0.000596018)
(-0.00102627 0 0.000421903)
(-0.000984003 0 0.000338639)
(-0.000955661 0 0.000286455)
(-0.000943701 0 0.000144007)
(-0.000927999 0 9.95213e-05)
(-0.000945669 0 -7.81249e-05)
(-0.000931406 0 -0.000212029)
(-0.000809985 0 -0.000501513)
(-0.000822676 0 -0.00050007)
(-0.000942428 0 -0.000473585)
(-0.000739914 0 -0.00085196)
(-0.00081999 0 -0.000876455)
(-0.000785717 0 -0.00100346)
(-0.000669816 0 -0.00114649)
(-0.000595207 0 -0.00118365)
(-0.000452119 0 -0.0011464)
(-0.000372373 0 -0.0010362)
(-0.000293821 0 -0.00102278)
(-0.000246724 0 -0.00103075)
(-0.000186928 0 -0.000963144)
(-0.000146033 0 -0.000740449)
(-0.000179895 0 -0.000542979)
(-8.48599e-05 0 -0.000349811)
(-6.95328e-05 0 -0.000232297)
(3.3746e-05 0 -0.000190446)
(0.000155613 0 -0.000201318)
(0.000277692 0 -0.000242123)
(0.000491264 0 -0.000181891)
(0.000520248 0 -0.00036838)
(0.000624201 0 -0.000440194)
(0.00070714 0 -0.000363769)
(0.000680883 0 -0.000396848)
(0.000707863 0 -0.000355224)
(0.000732148 0 -0.000315566)
(0.000717677 0 -0.000324695)
(0.000733448 0 -0.000258593)
(0.000738272 0 -0.000247296)
(0.000760494 0 -0.000218403)
(0.000778279 0 -0.000205862)
(0.000778601 0 -0.000198118)
(0.00078146 0 -0.000190225)
(0.000790901 0 -0.000141888)
(0.000791595 0 -0.00010775)
(0.000797482 0 -8.7939e-05)
(0.000806968 0 -3.13026e-05)
(0.000803662 0 -1.0208e-05)
(0.000793557 0 7.94993e-06)
(0.000782485 0 3.92869e-05)
(0.000766345 0 5.39733e-05)
(0.000746952 0 3.19466e-05)
(0.000728058 0 2.26398e-05)
(0.000725027 0 3.47608e-05)
(0.000726669 0 3.93698e-05)
(0.000748958 0 7.64797e-05)
(0.000746778 0 0.000100902)
(0.000718757 0 0.000164584)
(0.000734369 0 0.000159832)
(0.000785893 0 0.000206639)
(0.00079354 0 0.000394566)
(0.000738277 0 0.00056277)
(0.000626478 0 0.000758697)
(0.000696092 0 0.000793899)
(0.000816907 0 0.000771563)
(0.000839827 0 0.000822871)
(0.000778887 0 0.00088423)
(0.00073944 0 0.000888895)
(0.000714195 0 0.000824435)
(0.000465498 0 0.000872387)
(0.000705163 0 0.000513552)
(2.49382e-05 0 0.000472855)
(7.77066e-06 0 0.000198408)
(-2.58299e-12 0 -8.29746e-13)
(-3.84691e-12 0 2.32109e-13)
(-2.76009e-12 0 1.54057e-13)
(-2.64479e-12 0 -4.54939e-14)
(-2.48581e-12 0 -2.92159e-13)
(-2.30752e-12 0 -5.42184e-13)
(-2.11011e-12 0 -7.74185e-13)
(-1.89159e-12 0 -9.77989e-13)
(-1.65234e-12 0 -1.1484e-12)
(-1.39536e-12 0 -1.28248e-12)
(-1.12549e-12 0 -1.37877e-12)
(-8.48679e-13 0 -1.43702e-12)
(-5.71381e-13 0 -1.45816e-12)
(-3.00039e-13 0 -1.44425e-12)
(-4.06617e-14 0 -1.39836e-12)
(2.01488e-13 0 -1.3244e-12)
(4.22097e-13 0 -1.22682e-12)
(6.17951e-13 0 -1.11044e-12)
(7.86955e-13 0 -9.80102e-13)
(9.28042e-13 0 -8.40465e-13)
(1.04101e-12 0 -6.95784e-13)
(1.1264e-12 0 -5.49805e-13)
(1.18532e-12 0 -4.05714e-13)
(1.21936e-12 0 -2.66126e-13)
(1.23043e-12 0 -1.33104e-13)
(1.22064e-12 0 -8.19024e-15)
(1.19219e-12 0 1.0754e-13)
(1.14728e-12 0 2.13423e-13)
(1.08801e-12 0 3.09137e-13)
(1.01635e-12 0 3.94633e-13)
(9.34099e-13 0 4.70067e-13)
(8.42885e-13 0 5.35733e-13)
(7.44169e-13 0 5.92004e-13)
(6.39264e-13 0 6.39285e-13)
(5.29353e-13 0 6.77977e-13)
(4.15507e-13 0 7.08443e-13)
(2.98702e-13 0 7.30996e-13)
(1.79835e-13 0 7.45879e-13)
(5.99966e-14 0 7.53264e-13)
(2.91782e-05 0 0.000621277)
(-0.000168461 0 0.000777961)
(-9.83025e-06 0 0.00102097)
(-0.000253894 0 0.00105564)
(-0.000460024 0 0.00107415)
(-0.000567829 0 0.00104273)
(-0.000712264 0 0.000921445)
(-0.00097512 0 0.000632202)
(-0.000831617 0 0.000724217)
(-0.000840367 0 0.000642587)
(-0.000834898 0 0.000514771)
(-0.000846855 0 0.000311954)
(-0.000816906 0 0.000199862)
(-0.000797385 0 0.000113089)
(-0.000781401 0 7.30039e-05)
(-0.000788437 0 4.42237e-06)
(-0.0008197 0 -0.000130242)
(-0.000838078 0 -0.000277406)
(-0.000576611 0 -0.000693321)
(-0.000842565 0 -0.000401832)
(-0.000860183 0 -0.000621389)
(-0.000692164 0 -0.00098721)
(-0.000706212 0 -0.00106198)
(-0.000658236 0 -0.0011795)
(-0.000585819 0 -0.0012371)
(-0.000544899 0 -0.00118589)
(-0.000405819 0 -0.00108057)
(-0.000376398 0 -0.00104939)
(-0.000428044 0 -0.00107892)
(-0.000218704 0 -0.00101232)
(-0.000193827 0 -0.00069051)
(-0.00020301 0 -0.000474007)
(-0.000178796 0 -0.00036966)
(-0.000139229 0 -0.000339454)
(2.08423e-05 0 -0.000384526)
(0.000145561 0 -0.000380485)
(0.000147659 0 -0.000509901)
(0.000475952 0 -0.000361131)
(0.000500225 0 -0.000435058)
(0.000570837 0 -0.000419419)
(0.00059874 0 -0.000422557)
(0.000627905 0 -0.000355243)
(0.000627103 0 -0.000309011)
(0.000640436 0 -0.000261605)
(0.000620498 0 -0.000279286)
(0.000606952 0 -0.00030125)
(0.00061087 0 -0.000298477)
(0.000624023 0 -0.0002928)
(0.000646077 0 -0.000260708)
(0.00065059 0 -0.000246054)
(0.000668712 0 -0.000195238)
(0.000680195 0 -0.000147455)
(0.000670022 0 -0.000149981)
(0.000672611 0 -6.31483e-05)
(0.000676172 0 -3.19499e-05)
(0.00067791 0 5.3401e-06)
(0.00067072 0 2.0123e-05)
(0.000655638 0 6.24462e-05)
(0.000644451 0 6.1296e-05)
(0.000635843 0 5.80903e-05)
(0.000614724 0 3.81654e-05)
(0.000611288 0 4.80226e-05)
(0.000611355 0 -5.45076e-05)
(0.000624488 0 2.63335e-05)
(0.000624752 0 0.000103934)
(0.000649362 0 6.56193e-05)
(0.000649399 0 0.000232476)
(0.00069645 0 0.00029846)