/*--------------------------------*- C++ -*----------------------------------*\
  =========                 |
  \\      /  F ield         | OpenFOAM: The Open Source CFD Toolbox
   \\    /   O peration     | Website:  https://openfoam.org
    \\  /    A nd           | Version:  6
     \\/     M anipulation  |
\*---------------------------------------------------------------------------*/
FoamFile
{
    version     2.0;
    format      ascii;
    class       surfaceScalarField;
    location    "660";
    object      phi;
}
// * * * * * * * * * * * * * * * * * * * * * * * * * * * * * * * * * * * * * //

dimensions      [0 3 -1 0 0 0 0];

internalField   nonuniform List<scalar> 
11773
(
-8.95012e-09
8.95012e-09
-5.23567e-08
4.34069e-08
-7.93027e-08
2.69463e-08
-8.76107e-08
8.30818e-09
-9.35467e-08
5.9363e-09
-8.50929e-08
-8.45314e-09
-7.99729e-08
-5.11918e-09
-7.50683e-08
-4.90379e-09
-7.02692e-08
-4.79794e-09
-7.11724e-08
9.04686e-10
-6.56523e-08
-5.51839e-09
-6.36579e-08
-1.99239e-09
-6.30213e-08
-6.34356e-10
-6.23678e-08
-6.50994e-10
-6.1139e-08
-1.22606e-09
-5.32395e-08
-7.89645e-09
-4.64959e-08
-6.74031e-09
-2.45527e-08
-2.19397e-08
-2.57663e-12
-2.45461e-08
1.21756e-13
4.91085e-14
9.81801e-14
2.35763e-14
8.42911e-14
1.38918e-14
7.48622e-14
9.43e-15
6.78599e-14
7.00129e-15
6.23545e-14
5.5022e-15
5.78584e-14
4.49113e-15
5.40862e-14
3.76582e-15
5.08565e-14
3.2223e-15
4.80467e-14
2.80185e-15
4.55695e-14
2.46878e-15
4.33608e-14
2.20005e-15
4.13722e-14
1.98012e-15
3.95657e-14
1.79807e-15
3.79117e-14
1.64598e-15
3.63861e-14
1.51796e-15
3.49693e-14
1.40953e-15
3.36454e-14
1.31719e-15
3.24011e-14
1.23817e-15
3.12252e-14
1.17024e-15
3.01084e-14
1.11157e-15
2.90431e-14
1.06068e-15
2.80226e-14
1.01632e-15
2.70414e-14
9.77452e-16
2.60949e-14
9.43197e-16
2.51791e-14
9.12824e-16
2.42908e-14
8.85718e-16
2.34272e-14
8.61359e-16
2.2586e-14
8.39312e-16
2.17651e-14
8.19211e-16
2.09629e-14
8.00751e-16
2.01781e-14
7.83678e-16
1.94093e-14
7.6778e-16
1.86556e-14
7.52883e-16
1.7916e-14
7.38843e-16
1.719e-14
7.25542e-16
1.64766e-14
7.12887e-16
1.57755e-14
7.00799e-16
1.5086e-14
6.89218e-16
1.44078e-14
6.78096e-16
1.37403e-14
6.67395e-16
1.30831e-14
6.57087e-16
1.24359e-14
6.47152e-16
1.17983e-14
6.37575e-16
1.117e-14
6.28347e-16
1.05506e-14
6.19463e-16
9.93969e-15
6.1092e-16
9.33701e-15
6.02719e-16
8.7422e-15
5.94864e-16
8.1549e-15
5.87359e-16
7.57475e-15
5.80209e-16
7.00139e-15
5.73421e-16
6.43445e-15
5.67001e-16
5.87357e-15
5.60955e-16
5.31836e-15
5.55291e-16
4.76845e-15
5.50011e-16
4.22344e-15
5.45119e-16
3.68295e-15
5.40611e-16
3.14662e-15
5.36476e-16
2.61409e-15
5.32688e-16
2.08507e-15
5.29188e-16
1.55938e-15
5.25874e-16
1.03696e-15
5.22615e-16
5.17752e-16
5.19413e-16
5.17961e-16
-6.25144e-08
7.14647e-08
-6.89644e-08
4.98572e-08
-7.79488e-08
3.59313e-08
-8.57871e-08
1.61473e-08
-8.56023e-08
5.75236e-09
-8.3464e-08
-1.05902e-08
-6.88106e-08
-1.97706e-08
-6.13158e-08
-1.23963e-08
-4.79842e-08
-1.81268e-08
-5.81996e-08
1.11233e-08
-5.17305e-08
-1.19838e-08
-4.86569e-08
-5.06183e-09
-5.09037e-08
1.61703e-09
-5.02008e-08
-1.34891e-09
-4.63183e-08
-5.10306e-09
-4.02822e-08
-1.39265e-08
-3.18238e-08
-1.51922e-08
-1.9268e-08
-3.44891e-08
-2.13282e-12
-4.38074e-08
9.9361e-14
4.90666e-14
8.97096e-14
3.32289e-14
8.04076e-14
2.31958e-14
7.27622e-14
1.70734e-14
6.65737e-14
1.31842e-14
6.14942e-14
1.05729e-14
5.72464e-14
8.72773e-15
5.36314e-14
7.36791e-15
5.05076e-14
6.33203e-15
4.77724e-14
5.52224e-15
4.53499e-14
4.87618e-15
4.31825e-14
4.35238e-15
4.12257e-14
3.92219e-15
3.94444e-14
3.56519e-15
3.78104e-14
3.26639e-15
3.63011e-14
3.01456e-15
3.48977e-14
2.80105e-15
3.35849e-14
2.61909e-15
3.23497e-14
2.46331e-15
3.11815e-14
2.32934e-15
3.00712e-14
2.21362e-15
2.90112e-14
2.11321e-15
2.79953e-14
2.02567e-15
2.70179e-14
1.94894e-15
2.60746e-14
1.8813e-15
2.51616e-14
1.82131e-15
2.42756e-14
1.76774e-15
2.34139e-14
1.71958e-15
2.25743e-14
1.67597e-15
2.17549e-14
1.63618e-15
2.09539e-14
1.59961e-15
2.017e-14
1.56576e-15
1.94021e-14
1.53421e-15
1.86491e-14
1.50463e-15
1.79103e-14
1.47673e-15
1.71848e-14
1.45027e-15
1.6472e-14
1.42508e-15
1.57714e-14
1.401e-15
1.50824e-14
1.37792e-15
1.44045e-14
1.35574e-15
1.37374e-14
1.33438e-15
1.30806e-14
1.3138e-15
1.24338e-14
1.29396e-15
1.17966e-14
1.27482e-15
1.11686e-14
1.25638e-15
1.05495e-14
1.23862e-15
9.93896e-15
1.22153e-15
9.33664e-15
1.20513e-15
8.74218e-15
1.18942e-15
8.15523e-15
1.17441e-15
7.57544e-15
1.16012e-15
7.00244e-15
1.14654e-15
6.43587e-15
1.13371e-15
5.87535e-15
1.12163e-15
5.3205e-15
1.11032e-15
4.77094e-15
1.09977e-15
4.22628e-15
1.09001e-15
3.68612e-15
1.08102e-15
3.15009e-15
1.07279e-15
2.61782e-15
1.06528e-15
2.08893e-15
1.05842e-15
1.56306e-15
1.05209e-15
1.03999e-15
1.04606e-15
5.19996e-16
1.03979e-15
1.03814e-15
-3.37222e-08
1.05187e-07
-6.12618e-08
7.73974e-08
-7.52025e-08
4.98726e-08
-8.47555e-08
2.57011e-08
-8.33647e-08
4.36262e-09
-8.42958e-08
-9.65781e-09
-6.85717e-08
-3.5493e-08
-5.4735e-08
-2.62309e-08
-3.23381e-08
-4.05212e-08
-2.20613e-08
8.49503e-10
-1.83453e-08
-1.56963e-08
-1.04202e-08
-1.29832e-08
-1.11017e-08
2.30273e-09
-1.75553e-08
5.10919e-09
-2.2474e-08
-1.79421e-10
-2.74776e-08
-8.91753e-09
-2.30666e-08
-1.95971e-08
-1.41495e-08
-4.33997e-08
-1.84324e-12
-5.79507e-08
8.54873e-14
4.88889e-14
8.09337e-14
3.77834e-14
7.5065e-14
2.90665e-14
6.93788e-14
2.27584e-14
6.43101e-14
1.82483e-14
5.99008e-14
1.49751e-14
5.60767e-14
1.25425e-14
5.27438e-14
1.06899e-14
4.98163e-14
9.24754e-15
4.72229e-14
8.10298e-15
4.49059e-14
7.18014e-15
4.28192e-14
6.42616e-15
4.09253e-14
5.80337e-15
3.91939e-14
5.28428e-15
3.76002e-14
4.84838e-15
3.61237e-14
4.48004e-15
3.47473e-14
4.16713e-15
3.34568e-14
3.90005e-15
3.22402e-14
3.67109e-15
3.10876e-14
3.47401e-15
2.99903e-14
3.30363e-15
2.89414e-14
3.15568e-15
2.79346e-14
3.0266e-15
2.6965e-14
2.91337e-15
2.60283e-14
2.81349e-15
2.51208e-14
2.72484e-15
2.42394e-14
2.64561e-15
2.33817e-14
2.57431e-15
2.25454e-14
2.50968e-15
2.17287e-14
2.45065e-15
2.093e-14
2.39635e-15
2.01482e-14
2.34603e-15
1.9382e-14
2.29909e-15
1.86305e-14
2.25503e-15
1.7893e-14
2.21343e-15
1.71686e-14
2.17395e-15
1.64569e-14
2.13633e-15
1.57571e-14
2.10034e-15
1.50689e-14
2.06582e-15
1.43919e-14
2.03263e-15
1.37255e-14
2.00066e-15
1.30694e-14
1.96983e-15
1.24232e-14
1.94009e-15
1.17867e-14
1.91141e-15
1.11594e-14
1.88375e-15
1.05409e-14
1.85711e-15
9.93104e-15
1.83149e-15
9.32937e-15
1.80688e-15
8.73558e-15
1.78331e-15
8.1493e-15
1.76079e-15
7.57018e-15
1.73933e-15
6.99787e-15
1.71897e-15
6.43199e-15
1.69971e-15
5.87217e-15
1.68159e-15
5.31803e-15
1.66462e-15
4.76916e-15
1.64882e-15
4.22519e-15
1.63419e-15
3.68571e-15
1.62074e-15
3.15032e-15
1.60844e-15
2.61861e-15
1.59727e-15
2.09017e-15
1.58717e-15
1.56451e-15
1.57808e-15
1.04138e-15
1.56954e-15
5.20953e-16
1.56057e-15
1.55928e-15
-3.27257e-08
1.37913e-07
-5.43155e-08
9.89882e-08
-6.71219e-08
6.26795e-08
-8.02936e-08
3.88738e-08
-8.33035e-08
7.37404e-09
-7.74485e-08
-1.55113e-08
-7.0751e-08
-4.21886e-08
-5.56626e-08
-4.1317e-08
-3.33452e-08
-6.28358e-08
-9.53228e-09
-2.29602e-08
-3.75523e-09
-2.14698e-08
9.7405e-09
-2.64749e-08
1.84676e-08
-6.42002e-09
1.50877e-08
8.49385e-09
6.83877e-09
8.07468e-09
-5.19093e-09
3.11764e-09
-1.04835e-08
-1.42985e-08
-8.07895e-09
-4.57972e-08
-1.94713e-12
-6.60223e-08
7.57742e-14
4.88018e-14
7.33155e-14
4.0243e-14
6.95597e-14
3.28247e-14
6.54499e-14
2.68672e-14
6.14647e-14
2.22294e-14
5.77909e-14
1.86421e-14
5.44737e-14
1.58509e-14
5.14986e-14
1.36546e-14
4.88304e-14
1.19042e-14
4.64298e-14
1.04914e-14
4.42595e-14
9.338e-15
4.22864e-14
8.38668e-15
4.04822e-14
7.59519e-15
3.88228e-14
6.93181e-15
3.72874e-14
6.37233e-15
3.58587e-14
5.89797e-15
3.45218e-14
5.49392e-15
3.32642e-14
5.14833e-15
3.20751e-14
4.85159e-15
3.09455e-14
4.59581e-15
2.98676e-14
4.37443e-15
2.88349e-14
4.182e-15
2.78419e-14
4.01394e-15
2.68838e-14
3.86638e-15
2.59567e-14
3.73607e-15
2.50574e-14
3.62027e-15
2.41829e-14
3.51667e-15
2.33309e-14
3.42331e-15
2.24994e-14
3.33855e-15
2.16868e-14
3.26104e-15
2.08917e-14
3.18963e-15
2.01128e-14
3.12336e-15
1.93492e-14
3.06145e-15
1.85999e-14
3.00326e-15
1.78642e-14
2.94824e-15
1.71415e-14
2.89597e-15
1.64312e-14
2.84611e-15
1.57328e-14
2.79836e-15
1.50459e-14
2.75251e-15
1.43699e-14
2.70839e-15
1.37046e-14
2.66587e-15
1.30495e-14
2.62485e-15
1.24043e-14
2.58525e-15
1.17687e-14
2.54704e-15
1.11423e-14
2.51018e-15
1.05248e-14
2.47467e-15
9.91591e-15
2.4405e-15
9.3152e-15
2.40768e-15
8.72237e-15
2.37624e-15
8.13708e-15
2.34619e-15
7.55896e-15
2.31756e-15
6.98767e-15
2.29039e-15
6.42282e-15
2.2647e-15
5.86404e-15
2.24053e-15
5.31094e-15
2.2179e-15
4.76313e-15
2.19683e-15
4.2202e-15
2.17735e-15
3.68174e-15
2.15945e-15
3.14735e-15
2.14312e-15
2.61659e-15
2.12834e-15
2.08903e-15
2.11506e-15
1.56421e-15
2.10325e-15
1.04158e-15
2.09254e-15
5.20498e-16
2.08204e-15
2.07998e-15
-2.56277e-08
1.63541e-07
-4.54398e-08
1.18801e-07
-6.40742e-08
8.13149e-08
-7.72617e-08
5.20625e-08
-8.93757e-08
1.94896e-08
-8.46586e-08
-2.02265e-08
-7.71522e-08
-4.96928e-08
-6.00418e-08
-5.84247e-08
-3.85996e-08
-8.42749e-08
-8.38595e-09
-5.31703e-08
1.06099e-08
-4.04618e-08
1.75354e-08
-3.33959e-08
2.65387e-08
-1.54185e-08
2.34913e-08
1.15465e-08
1.43677e-08
1.7204e-08
5.64956e-09
1.18417e-08
-3.34369e-09
-5.29918e-09
-4.70546e-09
-4.44287e-08
-2.09534e-12
-7.07201e-08
6.83007e-14
4.87068e-14
6.68394e-14
4.17054e-14
6.43628e-14
3.53042e-14
6.14089e-14
2.98206e-14
5.83431e-14
2.52916e-14
5.53656e-14
2.16134e-14
5.25682e-14
1.864e-14
4.99823e-14
1.62306e-14
4.76085e-14
1.42669e-14
4.54337e-14
1.26545e-14
4.34392e-14
1.13204e-14
4.1605e-14
1.02086e-14
3.99121e-14
9.27606e-15
3.83427e-14
8.48943e-15
3.68812e-14
7.82266e-15
3.55134e-14
7.2551e-15
3.42272e-14
6.77017e-15
3.30119e-14
6.3544e-15
3.18583e-14
5.99669e-15
3.07585e-14
5.68786e-15
2.97057e-14
5.4202e-15
2.86941e-14
5.18724e-15
2.77188e-14
4.98353e-15
2.67757e-14
4.80444e-15
2.58612e-14
4.64607e-15
2.49724e-14
4.50513e-15
2.41068e-14
4.37882e-15
2.32623e-14
4.26481e-15
2.24372e-14
4.16112e-15
2.16299e-14
4.06611e-15
2.08393e-14
3.97841e-15
2.00643e-14
3.89687e-15
1.93039e-14
3.82055e-15
1.85574e-14
3.74867e-15
1.78242e-14
3.68061e-15
1.71036e-14
3.61585e-15
1.63952e-14
3.55398e-15
1.56986e-14
3.49466e-15
1.50132e-14
3.43764e-15
1.43387e-14
3.38271e-15
1.36747e-14
3.32972e-15
1.30209e-14
3.27855e-15
1.2377e-14
3.22914e-15
1.17427e-14
3.18143e-15
1.11175e-14
3.13538e-15
1.05013e-14
3.091e-15
9.89358e-15
3.04827e-15
9.29412e-15
3.00723e-15
8.70257e-15
2.96789e-15
8.11857e-15
2.9303e-15
7.54177e-15
2.89448e-15
6.97182e-15
2.86048e-15
6.40833e-15
2.82833e-15
5.85094e-15
2.79809e-15
5.29924e-15
2.76979e-15
4.75284e-15
2.74346e-15
4.21132e-15
2.71912e-15
3.67426e-15
2.69679e-15
3.14124e-15
2.67646e-15
2.61181e-15
2.65811e-15
2.08554e-15
2.6417e-15
1.562e-15
2.6272e-15
1.0404e-15
2.61455e-15
5.19361e-16
2.60353e-15
2.59958e-15
-1.75266e-08
1.81068e-07
-4.49021e-08
1.46179e-07
-6.64952e-08
1.0291e-07
-8.1564e-08
6.71328e-08
-9.80068e-08
3.59342e-08
-8.69243e-08
-3.13069e-08
-8.09738e-08
-5.56406e-08
-6.00817e-08
-7.93136e-08
-5.14962e-08
-9.2857e-08
-2.37817e-08
-8.08807e-08
-7.78219e-10
-6.34608e-08
1.25202e-08
-4.66895e-08
2.36333e-08
-2.65263e-08
2.40301e-08
1.11552e-08
1.5947e-08
2.52934e-08
6.98746e-09
2.0808e-08
-8.1069e-10
2.5058e-09
1.77459e-10
-4.54097e-08
-2.25883e-12
-7.05345e-08
6.21971e-14
4.86404e-14
6.12577e-14
4.26462e-14
5.95825e-14
3.69829e-14
5.74631e-14
3.19401e-14
5.51411e-14
2.76107e-14
5.27795e-14
2.39694e-14
5.04749e-14
2.09369e-14
4.82779e-14
1.84183e-14
4.62105e-14
1.63237e-14
4.42783e-14
1.45754e-14
4.24774e-14
1.31096e-14
4.07992e-14
1.18749e-14
3.92332e-14
1.08303e-14
3.77681e-14
9.94312e-15
3.63927e-14
9.187e-15
3.50968e-14
8.54062e-15
3.38706e-14
7.9865e-15
3.27058e-14
7.51013e-15
3.15946e-14
7.09943e-15
3.05306e-14
6.7442e-15
2.95079e-14
6.43586e-15
2.85218e-14
6.16709e-15
2.75679e-14
5.93172e-15
2.66428e-14
5.72449e-15
2.57435e-14
5.54092e-15
2.48674e-14
5.37724e-15
2.40126e-14
5.23026e-15
2.31771e-14
5.0973e-15
2.23595e-14
4.9761e-15
2.15587e-14
4.86478e-15
2.07734e-14
4.76177e-15
2.0003e-14
4.66577e-15
1.92465e-14
4.57571e-15
1.85034e-14
4.49071e-15
1.77731e-14
4.41005e-15
1.70552e-14
4.33315e-15
1.63491e-14
4.25956e-15
1.56545e-14
4.18889e-15
1.49709e-14
4.12087e-15
1.42982e-14
4.05526e-15
1.36359e-14
3.9919e-15
1.29837e-14
3.93067e-15
1.23414e-14
3.87149e-15
1.17086e-14
3.8143e-15
1.10849e-14
3.75907e-15
1.04702e-14
3.70581e-15
9.86402e-15
3.65453e-15
9.26612e-15
3.60524e-15
8.67614e-15
3.55799e-15
8.09374e-15
3.51282e-15
7.51859e-15
3.46977e-15
6.95031e-15
3.42891e-15
6.38853e-15
3.39028e-15
5.83287e-15
3.35395e-15
5.28293e-15
3.31995e-15
4.73831e-15
3.28834e-15
4.19857e-15
3.25914e-15
3.6633e-15
3.23239e-15
3.13203e-15
3.20809e-15
2.60431e-15
3.18622e-15
2.07968e-15
3.16675e-15
1.55765e-15
3.14966e-15
1.0376e-15
3.13506e-15
5.18168e-16
3.12346e-15
3.11802e-15
-2.7238e-08
2.08307e-07
-4.38593e-08
1.62803e-07
-5.77256e-08
1.16778e-07
-7.06091e-08
8.00182e-08
-7.39509e-08
3.92784e-08
-7.27796e-08
-3.24755e-08
-7.00757e-08
-5.83414e-08
-5.70893e-08
-9.22966e-08
-4.31639e-08
-1.06779e-07
-1.41172e-08
-1.09923e-07
5.90172e-09
-8.34746e-08
1.50178e-08
-5.58002e-08
2.09087e-08
-3.24113e-08
1.90787e-08
1.29915e-08
2.13428e-08
2.3036e-08
1.87299e-08
2.34281e-08
4.53643e-09
1.67068e-08
1.58018e-09
-4.24457e-08
-2.44285e-12
-6.89456e-08
5.69793e-14
4.87982e-14
5.63246e-14
4.33025e-14
5.51893e-14
3.81223e-14
5.36921e-14
3.34383e-14
5.19708e-14
2.93298e-14
5.01406e-14
2.57949e-14
4.82846e-14
2.27859e-14
4.64576e-14
2.02367e-14
4.46924e-14
1.80791e-14
4.30064e-14
1.62507e-14
4.14069e-14
1.4698e-14
3.98944e-14
1.33761e-14
3.84654e-14
1.22479e-14
3.71144e-14
1.1283e-14
3.58346e-14
1.04561e-14
3.46189e-14
9.74608e-15
3.34605e-14
9.13532e-15
3.23528e-14
8.60886e-15
3.12899e-14
8.15397e-15
3.02667e-14
7.75982e-15
2.92785e-14
7.41711e-15
2.83214e-14
7.11791e-15
2.73921e-14
6.85544e-15
2.64876e-14
6.62392e-15
2.56057e-14
6.41842e-15
2.47442e-14
6.23478e-15
2.39015e-14
6.06946e-15
2.30764e-14
5.91951e-15
2.22675e-14
5.78243e-15
2.14739e-14
5.65616e-15
2.06948e-14
5.53897e-15
1.99296e-14
5.42944e-15
1.91776e-14
5.3264e-15
1.84383e-14
5.22889e-15
1.77114e-14
5.13613e-15
1.69964e-14
5.04751e-15
1.62929e-14
4.96251e-15
1.56007e-14
4.88075e-15
1.49193e-14
4.80191e-15
1.42486e-14
4.72577e-15
1.35883e-14
4.65215e-15
1.2938e-14
4.58093e-15
1.22974e-14
4.51202e-15
1.16664e-14
4.44538e-15
1.10445e-14
4.38099e-15
1.04316e-14
4.31885e-15
9.82723e-15
4.25898e-15
9.23116e-15
4.20142e-15
8.64306e-15
4.14622e-15
8.06259e-15
4.09343e-15
7.48939e-15
4.04312e-15
6.92312e-15
3.99536e-15
6.36339e-15
3.95021e-15
5.80982e-15
3.90774e-15
5.262e-15
3.86802e-15
4.71953e-15
3.8311e-15
4.18197e-15
3.79703e-15
3.64887e-15
3.76585e-15
3.11977e-15
3.73759e-15
2.59417e-15
3.71225e-15
2.07158e-15
3.68982e-15
1.55149e-15
3.67027e-15
1.03337e-15
3.6537e-15
5.16638e-16
3.64073e-15
3.63498e-15
-3.44469e-09
2.11753e-07
-2.41563e-08
1.83517e-07
-4.70129e-08
1.39637e-07
-5.45067e-08
8.7515e-08
-4.89428e-08
3.37174e-08
-5.63204e-08
-2.50945e-08
-4.36173e-08
-7.10408e-08
-3.30205e-08
-1.02889e-07
-2.13782e-08
-1.18416e-07
-8.96981e-09
-1.22326e-07
6.57072e-09
-9.90095e-08
1.18847e-08
-6.11079e-08
1.49202e-08
-3.54401e-08
1.54893e-08
1.24296e-08
1.10659e-08
2.74669e-08
-1.90484e-09
3.64069e-08
-8.73587e-09
2.35461e-08
-1.84007e-09
-4.93331e-08
-2.66738e-12
-7.07761e-08
5.21999e-14
4.88883e-14
5.18156e-14
4.36889e-14
5.11106e-14
3.88323e-14
5.0114e-14
3.44368e-14
4.88927e-14
3.05499e-14
4.75211e-14
2.71625e-14
4.60662e-14
2.42347e-14
4.45809e-14
2.17143e-14
4.31029e-14
1.9548e-14
4.16573e-14
1.76863e-14
4.0259e-14
1.60858e-14
3.89154e-14
1.47089e-14
3.76287e-14
1.35237e-14
3.6398e-14
1.25031e-14
3.52201e-14
1.16236e-14
3.40909e-14
1.08653e-14
3.30059e-14
1.02109e-14
3.19606e-14
9.64538e-15
3.09507e-14
9.15573e-15
2.99724e-14
8.73068e-15
2.90221e-14
8.36049e-15
2.80971e-14
8.03674e-15
2.71947e-14
7.75219e-15
2.6313e-14
7.50066e-15
2.54501e-14
7.27686e-15
2.46047e-14
7.0763e-15
2.37755e-14
6.89522e-15
2.29616e-14
6.73043e-15
2.21621e-14
6.57928e-15
2.13765e-14
6.43955e-15
2.06042e-14
6.30942e-15
1.98447e-14
6.18738e-15
1.90976e-14
6.07219e-15
1.83626e-14
5.96284e-15
1.76393e-14
5.85854e-15
1.69275e-14
5.75861e-15
1.6227e-14
5.66256e-15
1.55374e-14
5.56997e-15
1.48585e-14
5.48053e-15
1.41901e-14
5.39401e-15
1.35319e-14
5.31024e-15
1.28837e-14
5.2291e-15
1.22452e-14
5.15051e-15
1.16162e-14
5.07444e-15
1.09963e-14
5.00088e-15
1.03854e-14
4.92984e-15
9.78318e-15
4.86136e-15
9.18924e-15
4.79549e-15
8.60331e-15
4.73229e-15
8.02506e-15
4.67184e-15
7.45414e-15
4.61422e-15
6.89021e-15
4.5595e-15
6.33287e-15
4.50778e-15
5.78175e-15
4.45913e-15
5.23643e-15
4.41363e-15
4.69649e-15
4.37137e-15
4.1615e-15
4.3324e-15
3.63099e-15
4.29678e-15
3.10448e-15
4.26456e-15
2.58146e-15
4.23577e-15
2.0614e-15
4.21042e-15
1.54376e-15
4.18849e-15
1.02814e-15
4.16992e-15
5.14448e-16
4.15504e-15
4.14979e-15
-1.66441e-08
2.28399e-07
-3.00858e-08
1.96962e-07
-3.88062e-08
1.48362e-07
-3.8117e-08
8.68295e-08
-3.62001e-08
3.18041e-08
-3.36657e-08
-2.7625e-08
-2.23947e-08
-8.23076e-08
-1.15813e-08
-1.13698e-07
-7.31177e-10
-1.29261e-07
4.61549e-09
-1.27667e-07
1.22652e-08
-1.06653e-07
1.55718e-08
-6.44073e-08
1.08329e-08
-3.06934e-08
8.38543e-09
1.48853e-08
1.36656e-09
3.44944e-08
-4.81965e-09
4.26019e-08
-6.46004e-09
2.51954e-08
-3.60475e-09
-5.21793e-08
-2.8665e-12
-7.43706e-08
4.76805e-14
4.87813e-14
4.75899e-14
4.37819e-14
4.72838e-14
3.91444e-14
4.67289e-14
3.49946e-14
4.59423e-14
3.13363e-14
4.49712e-14
2.81308e-14
4.38716e-14
2.53292e-14
4.2695e-14
2.28841e-14
4.14828e-14
2.07521e-14
4.0265e-14
1.8895e-14
3.90618e-14
1.72792e-14
3.78854e-14
1.58751e-14
3.67423e-14
1.46566e-14
3.56347e-14
1.36005e-14
3.45625e-14
1.26859e-14
3.3524e-14
1.18943e-14
3.25166e-14
1.12093e-14
3.15375e-14
1.06159e-14
3.0584e-14
1.01013e-14
2.96535e-14
9.65379e-15
2.87439e-14
9.26342e-15
2.78531e-14
8.9214e-15
2.69796e-14
8.62015e-15
2.61221e-14
8.35319e-15
2.52795e-14
8.11497e-15
2.44511e-14
7.9008e-15
2.36362e-14
7.70671e-15
2.28343e-14
7.5294e-15
2.20449e-14
7.36609e-15
2.12677e-14
7.2145e-15
2.05025e-14
7.07274e-15
1.97491e-14
6.93925e-15
1.90072e-14
6.81279e-15
1.82766e-14
6.69232e-15
1.75573e-14
6.57703e-15
1.6849e-14
6.46626e-15
1.61515e-14
6.3595e-15
1.54647e-14
6.25636e-15
1.47885e-14
6.15653e-15
1.41225e-14
6.05978e-15
1.34667e-14
5.96596e-15
1.28208e-14
5.87496e-15
1.21846e-14
5.78673e-15
1.15579e-14
5.70124e-15
1.09403e-14
5.61849e-15
1.03318e-14
5.53853e-15
9.73184e-15
5.4614e-15
9.1403e-15
5.38717e-15
8.55684e-15
5.31593e-15
7.98112e-15
5.24775e-15
7.4128e-15
5.18274e-15
6.85154e-15
5.121e-15
6.29694e-15
5.06263e-15
5.74863e-15
5.00774e-15
5.20618e-15
4.95642e-15
4.66917e-15
4.90876e-15
4.13715e-15
4.86485e-15
3.60965e-15
4.82475e-15
3.08619e-15
4.78855e-15
2.56622e-15
4.7563e-15
2.04921e-15
4.72805e-15
1.53461e-15
4.70375e-15
1.0221e-15
4.68312e-15
5.11457e-16
4.66637e-15
4.66165e-15
-1.86369e-08
2.47038e-07
-1.92392e-08
1.97569e-07
-1.91426e-08
1.48269e-07
-2.11143e-08
8.88055e-08
-1.77149e-08
2.84092e-08
-1.32197e-08
-3.21155e-08
-8.2511e-09
-8.72711e-08
9.85346e-09
-1.31797e-07
2.20692e-08
-1.41471e-07
2.48837e-08
-1.30475e-07
2.35598e-08
-1.05321e-07
1.93718e-08
-6.02112e-08
1.18455e-08
-2.31588e-08
1.09027e-08
1.58368e-08
1.15618e-08
3.38442e-08
1.04686e-08
4.37046e-08
1.43024e-11
3.56593e-08
-4.09842e-09
-4.80569e-08
-3.00385e-12
-7.8458e-08
4.33362e-14
4.86977e-14
4.35549e-14
4.3566e-14
4.36703e-14
3.9036e-14
4.35421e-14
3.51269e-14
4.31493e-14
3.17301e-14
4.253e-14
2.87484e-14
4.17411e-14
2.61144e-14
4.08376e-14
2.37819e-14
3.98652e-14
2.17174e-14
3.8858e-14
1.98941e-14
3.78396e-14
1.82887e-14
3.68252e-14
1.68802e-14
3.58238e-14
1.56485e-14
3.48399e-14
1.45749e-14
3.38751e-14
1.36412e-14
3.29296e-14
1.28308e-14
3.20023e-14
1.21278e-14
3.1092e-14
1.1518e-14
3.01972e-14
1.09883e-14
2.93166e-14
1.05272e-14
2.84492e-14
1.01242e-14
2.75941e-14
9.7705e-15
2.67506e-14
9.45819e-15
2.59183e-14
9.18061e-15
2.50968e-14
8.93206e-15
2.4286e-14
8.7077e-15
2.34858e-14
8.5035e-15
2.26961e-14
8.31606e-15
2.19171e-14
8.14259e-15
2.11486e-14
7.98078e-15
2.03907e-14
7.82874e-15
1.96435e-14
7.68491e-15
1.89069e-14
7.54806e-15
1.81809e-14
7.41719e-15
1.74656e-14
7.29148e-15
1.67609e-14
7.17032e-15
1.60667e-14
7.0532e-15
1.53829e-14
6.93977e-15
1.47095e-14
6.82973e-15
1.40462e-14
6.7229e-15
1.33929e-14
6.61912e-15
1.27495e-14
6.51833e-15
1.21158e-14
6.42047e-15
1.14915e-14
6.32556e-15
1.08765e-14
6.23361e-15
1.02705e-14
6.14469e-15
9.67317e-15
6.05885e-15
9.0843e-15
5.9762e-15
8.50359e-15
5.89683e-15
7.9307e-15
5.82084e-15
7.36531e-15
5.74837e-15
6.80705e-15
5.67953e-15
6.25555e-15
5.61444e-15
5.71041e-15
5.55322e-15
5.17121e-15
5.49599e-15
4.63753e-15
5.44287e-15
4.1089e-15
5.39396e-15
3.58486e-15
5.34934e-15
3.06489e-15
5.30911e-15
2.54848e-15
5.27336e-15
2.03507e-15
5.24215e-15
1.52411e-15
5.21544e-15
1.01514e-15
5.19286e-15
5.07701e-16
5.17459e-15
5.1698e-15
-3.89553e-09
2.50937e-07
-8.43082e-09
2.0211e-07
-9.20204e-09
1.49045e-07
-1.51797e-08
9.47884e-08
1.517e-08
-1.93507e-09
4.31436e-08
-6.00835e-08
5.47917e-08
-9.8913e-08
5.02513e-08
-1.2725e-07
4.37482e-08
-1.3496e-07
4.08028e-08
-1.27521e-07
3.91308e-08
-1.03641e-07
3.3207e-08
-5.42787e-08
1.39789e-08
-3.92107e-09
9.11175e-09
2.07139e-08
1.09559e-09
4.18702e-08
-1.23934e-09
4.60496e-08
2.85294e-09
3.15772e-08
4.83461e-11
-4.52419e-08
-3.13687e-12
-7.83982e-08
3.88741e-14
4.85824e-14
3.96109e-14
4.28327e-14
4.02646e-14
3.83902e-14
4.05814e-14
3.48155e-14
4.05497e-14
3.17642e-14
4.02331e-14
2.90646e-14
3.97071e-14
2.66379e-14
3.90373e-14
2.44472e-14
3.82754e-14
2.24735e-14
3.74586e-14
2.0704e-14
3.66121e-14
1.91274e-14
3.57523e-14
1.77316e-14
3.48889e-14
1.65032e-14
3.40274e-14
1.54275e-14
3.31704e-14
1.44895e-14
3.23188e-14
1.36737e-14
3.1473e-14
1.29654e-14
3.06328e-14
1.23504e-14
2.97979e-14
1.18158e-14
2.89683e-14
1.13498e-14
2.8144e-14
1.09421e-14
2.73251e-14
1.05835e-14
2.6512e-14
1.02659e-14
2.57051e-14
9.98267e-15
2.49049e-14
9.72797e-15
2.41118e-14
9.49695e-15
2.33263e-14
9.28556e-15
2.25489e-14
9.09044e-15
2.17801e-14
8.90882e-15
2.10203e-14
8.73844e-15
2.02697e-14
8.57746e-15
1.95286e-14
8.42438e-15
1.87974e-14
8.27803e-15
1.80761e-14
8.13743e-15
1.73648e-14
8.00186e-15
1.66637e-14
7.87073e-15
1.59729e-14
7.74359e-15
1.52921e-14
7.62012e-15
1.46216e-14
7.50006e-15
1.3961e-14
7.38325e-15
1.33105e-14
7.2696e-15
1.26698e-14
7.15904e-15
1.20387e-14
7.05157e-15
1.14171e-14
6.94722e-15
1.08048e-14
6.84603e-15
1.02016e-14
6.74808e-15
9.6071e-15
6.65347e-15
9.02119e-15
6.56231e-15
8.44351e-15
6.47472e-15
7.87375e-15
6.39083e-15
7.31159e-15
6.3108e-15
6.75667e-15
6.23475e-15
6.20862e-15
6.16284e-15
5.66702e-15
6.0952e-15
5.13148e-15
6.03198e-15
4.60153e-15
5.97331e-15
4.07672e-15
5.91932e-15
3.55657e-15
5.87011e-15
3.04056e-15
5.82579e-15
2.52817e-15
5.78647e-15
2.01886e-15
5.75224e-15
1.51203e-15
5.72308e-15
1.0071e-15
5.69867e-15
5.03487e-16
5.67909e-15
5.67379e-15
-3.41982e-09
2.5436e-07
-4.24404e-09
2.02941e-07
7.15237e-09
1.37655e-07
7.08473e-09
9.48619e-08
3.90995e-08
-3.39435e-08
4.39199e-08
-6.48974e-08
4.66647e-08
-1.01651e-07
5.93731e-08
-1.3995e-07
6.15122e-08
-1.37092e-07
5.49465e-08
-1.20947e-07
3.84269e-08
-8.71131e-08
2.30372e-08
-3.88799e-08
7.81419e-09
1.1312e-08
-1.1464e-10
2.86531e-08
-4.03763e-09
4.58037e-08
-2.66493e-09
4.46875e-08
4.05763e-09
2.48654e-08
2.79345e-09
-4.39669e-08
-3.29585e-12
-7.55928e-08
3.38652e-14
4.83972e-14
3.57377e-14
4.09643e-14
3.7147e-14
3.69897e-14
3.79195e-14
3.40497e-14
3.81939e-14
3.14938e-14
3.8115e-14
2.91448e-14
3.77947e-14
2.69571e-14
3.73144e-14
2.49245e-14
3.67309e-14
2.30524e-14
3.60827e-14
2.13465e-14
3.53943e-14
1.9809e-14
3.46809e-14
1.84376e-14
3.39513e-14
1.7225e-14
3.32101e-14
1.61607e-14
3.24601e-14
1.52315e-14
3.17026e-14
1.44233e-14
3.09385e-14
1.37217e-14
3.01687e-14
1.31127e-14
2.93939e-14
1.25834e-14
2.86153e-14
1.21218e-14
2.7834e-14
1.17172e-14
2.70512e-14
1.13605e-14
2.62682e-14
1.10436e-14
2.54863e-14
1.07598e-14
2.47069e-14
1.05031e-14
2.3931e-14
1.0269e-14
2.31599e-14
1.00533e-14
2.23944e-14
9.85293e-15
2.16355e-14
9.66514e-15
2.0884e-14
9.48779e-15
2.01404e-14
9.31916e-15
1.94054e-14
9.15788e-15
1.86793e-14
9.00284e-15
1.79624e-14
8.85319e-15
1.72552e-14
8.70826e-15
1.65577e-14
8.56755e-15
1.58701e-14
8.43068e-15
1.51925e-14
8.29737e-15
1.45249e-14
8.16744e-15
1.38672e-14
8.04076e-15
1.32195e-14
7.91728e-15
1.25815e-14
7.79697e-15
1.19533e-14
7.67987e-15
1.13346e-14
7.56603e-15
1.07252e-14
7.45553e-15
1.01249e-14
7.34849e-15
9.53359e-15
7.24501e-15
8.95087e-15
7.14524e-15
8.3765e-15
7.04932e-15
7.81018e-15
6.95743e-15
7.25157e-15
6.86971e-15
6.70033e-15
6.78634e-15
6.15607e-15
6.70748e-15
5.6184e-15
6.63331e-15
5.08689e-15
6.56399e-15
4.5611e-15
6.49967e-15
4.04054e-15
6.4405e-15
3.52473e-15
6.38661e-15
3.01315e-15
6.33812e-15
2.50527e-15
6.29516e-15
2.00052e-15
6.25786e-15
1.49829e-15
6.22624e-15
9.97987e-16
6.19995e-15
4.98823e-16
6.17926e-15
6.17318e-15
3.63306e-09
2.5073e-07
9.60791e-09
1.96975e-07
1.94808e-08
1.27789e-07
2.47197e-08
8.96299e-08
4.07303e-08
-4.99469e-08
6.96415e-08
-9.38011e-08
9.13924e-08
-1.23394e-07
8.70184e-08
-1.35568e-07
7.88555e-08
-1.2892e-07
6.64496e-08
-1.08532e-07
4.46083e-08
-6.52621e-08
2.14437e-08
-1.57046e-08
8.05796e-09
2.47082e-08
-3.02268e-09
3.97444e-08
-7.40715e-09
5.01991e-08
-3.98857e-09
4.128e-08
7.88247e-09
1.30056e-08
6.92869e-09
-4.30019e-08
-3.44605e-12
-6.86515e-08
2.73646e-14
7.07494e-14
3.22647e-14
3.60689e-14
3.45793e-14
3.46848e-14
3.56869e-14
3.29501e-14
3.61413e-14
3.10449e-14
3.62028e-14
2.90861e-14
3.6018e-14
2.71423e-14
3.56779e-14
2.52632e-14
3.52399e-14
2.34873e-14
3.47392e-14
2.18427e-14
3.41963e-14
2.03465e-14
3.36221e-14
1.90056e-14
3.30223e-14
1.78181e-14
3.23996e-14
1.67762e-14
3.17556e-14
1.58682e-14
3.10915e-14
1.50801e-14
3.04086e-14
1.43974e-14
2.97086e-14
1.38058e-14
2.89932e-14
1.32921e-14
2.82647e-14
1.28439e-14
2.75253e-14
1.24506e-14
2.67774e-14
1.21028e-14
2.60234e-14
1.17925e-14
2.52655e-14
1.1513e-14
2.45058e-14
1.12586e-14
2.37463e-14
1.10247e-14
2.29886e-14
1.08077e-14
2.22343e-14
1.06043e-14
2.14847e-14
1.04122e-14
2.07409e-14
1.02294e-14
2.00038e-14
1.00543e-14
1.92744e-14
9.88579e-15
1.85531e-14
9.72282e-15
1.78405e-14
9.56469e-15
1.71371e-14
9.41086e-15
1.64431e-14
9.26091e-15
1.57588e-14
9.11455e-15
1.50842e-14
8.97158e-15
1.44195e-14
8.83188e-15
1.37648e-14
8.69538e-15
1.31199e-14
8.56209e-15
1.24849e-14
8.43202e-15
1.18596e-14
8.30524e-15
1.12439e-14
8.18185e-15
1.06376e-14
8.06196e-15
1.00406e-14
7.94571e-15
9.45252e-15
7.83325e-15
8.87326e-15
7.72474e-15
8.30248e-15
7.62038e-15
7.73988e-15
7.52033e-15
7.18514e-15
7.42479e-15
6.63792e-15
7.33395e-15
6.09782e-15
7.24802e-15
5.56445e-15
7.16718e-15
5.03738e-15
7.09162e-15
4.51615e-15
7.02152e-15
4.00029e-15
6.95706e-15
3.48928e-15
6.89838e-15
2.98261e-15
6.84563e-15
2.47974e-15
6.79895e-15
1.98009e-15
6.75849e-15
1.48302e-15
6.72433e-15
9.87749e-16
6.6963e-15
4.93482e-16
6.67464e-15
6.6673e-15
6.01864e-09
2.44716e-07
6.17141e-09
1.96831e-07
1.54821e-09
1.3242e-07
3.57539e-08
5.54322e-08
4.76461e-08
-6.18308e-08
6.88956e-08
-1.15042e-07
8.35774e-08
-1.38067e-07
8.67825e-08
-1.38764e-07
8.02213e-08
-1.2235e-07
7.0726e-08
-9.90267e-08
4.95731e-08
-4.40981e-08
2.06855e-08
1.31938e-08
8.13892e-09
3.72657e-08
-1.12147e-09
4.90159e-08
-3.31935e-09
5.24084e-08
-2.44469e-09
4.04169e-08
1.04408e-08
1.31741e-10
1.59331e-08
-4.84825e-08
1.13262e-09
-5.38418e-08
2.50988e-14
1.1367e-09
3.10514e-14
3.01282e-14
3.30617e-14
3.26855e-14
3.40195e-14
3.20015e-14
3.44265e-14
3.0645e-14
3.45007e-14
2.90165e-14
3.43725e-14
2.72726e-14
3.4123e-14
2.55127e-14
3.38002e-14
2.38084e-14
3.34299e-14
2.22101e-14
3.30232e-14
2.07491e-14
3.25838e-14
1.944e-14
3.21117e-14
1.82845e-14
3.16065e-14
1.72754e-14
3.10677e-14
1.64005e-14
3.04962e-14
1.56451e-14
2.98933e-14
1.49937e-14
2.92615e-14
1.44312e-14
2.86038e-14
1.39436e-14
2.79234e-14
1.35183e-14
2.7224e-14
1.31444e-14
2.65091e-14
1.28124e-14
2.57822e-14
1.25145e-14
2.50464e-14
1.22442e-14
2.43048e-14
1.1996e-14
2.35601e-14
1.17658e-14
2.28145e-14
1.15499e-14
2.20702e-14
1.13457e-14
2.13289e-14
1.1151e-14
2.0592e-14
1.09641e-14
1.98608e-14
1.07837e-14
1.91363e-14
1.06087e-14
1.84194e-14
1.04384e-14
1.77107e-14
1.02723e-14
1.70108e-14
1.01099e-14
1.63201e-14
9.95101e-15
1.56388e-14
9.79534e-15
1.49673e-14
9.64282e-15
1.43055e-14
9.49341e-15
1.36537e-14
9.34711e-15
1.30118e-14
9.20398e-15
1.23797e-14
9.06409e-15
1.17575e-14
8.92756e-15
1.11449e-14
8.79452e-15
1.05419e-14
8.66513e-15
9.9483e-15
8.53955e-15
9.36381e-15
8.41797e-15
8.78824e-15
8.30058e-15
8.22132e-15
8.18761e-15
7.66274e-15
8.07925e-15
7.11219e-15
7.97572e-15
6.56931e-15
7.87726e-15
6.03373e-15
7.78409e-15
5.50505e-15
7.69642e-15
4.98282e-15
7.61447e-15
4.46659e-15
7.53845e-15
3.95587e-15
7.46856e-15
3.45013e-15
7.40497e-15
2.94885e-15
7.34784e-15
2.45148e-15
7.29734e-15
1.95743e-15
7.25363e-15
1.46607e-15
7.21685e-15
9.76458e-16
7.18713e-15
4.87504e-16
7.16484e-15
7.15552e-15
7.1122e-09
2.37609e-07
1.18674e-08
1.92085e-07
1.2344e-09
1.43062e-07
3.96437e-08
1.70315e-08
4.50274e-08
-6.72054e-08
6.78262e-08
-1.37831e-07
8.12522e-08
-1.51484e-07
8.40026e-08
-1.41505e-07
6.59359e-08
-1.04273e-07
3.13979e-08
-6.44785e-08
3.65282e-09
-1.63424e-08
-5.47156e-09
2.23292e-08
-5.38068e-09
3.71861e-08
-6.45664e-09
5.01034e-08
-5.16553e-09
5.1129e-08
-3.61849e-09
3.88818e-08
4.1019e-09
-7.57667e-09
-4.74503e-09
-3.96238e-08
-2.92935e-09
-5.5649e-08
-5.69861e-13
-1.78807e-09
3.32987e-14
4.74276e-14
3.24616e-14
3.35276e-14
3.28284e-14
3.16444e-14
3.29965e-14
3.04853e-14
3.29697e-14
2.90495e-14
3.2828e-14
2.7418e-14
3.26277e-14
2.57146e-14
3.23986e-14
2.40374e-14
3.21492e-14
2.24579e-14
3.18762e-14
2.10194e-14
3.15719e-14
1.97407e-14
3.12286e-14
1.86233e-14
3.08413e-14
1.76576e-14
3.04076e-14
1.68288e-14
2.99274e-14
1.61195e-14
2.94027e-14
1.55125e-14
2.88368e-14
1.49913e-14
2.82338e-14
1.45407e-14
2.75986e-14
1.41479e-14
2.69362e-14
1.38015e-14
2.62513e-14
1.34922e-14
2.55486e-14
1.32124e-14
2.48325e-14
1.29559e-14
2.41067e-14
1.27177e-14
2.33747e-14
1.24941e-14
2.26395e-14
1.22818e-14
2.19037e-14
1.20787e-14