/*--------------------------------*- C++ -*----------------------------------*\
  =========                 |
  \\      /  F ield         | OpenFOAM: The Open Source CFD Toolbox
   \\    /   O peration     | Website:  https://openfoam.org
    \\  /    A nd           | Version:  6
     \\/     M anipulation  |
\*---------------------------------------------------------------------------*/
FoamFile
{
    version     2.0;
    format      ascii;
    class       volScalarField;
    location    "660";
    object      Su;
}
// * * * * * * * * * * * * * * * * * * * * * * * * * * * * * * * * * * * * * //

dimensions      [0 0 -1 0 0 0 0];

internalField   nonuniform List<scalar> 
5964
(
0.361776
0.320296
0.284855
0.257316
0.2365
0.220564
0.207781
0.196809
0.186815
0.177277
0.168034
0.158941
0.149949
0.14117
0.132766
0.124893
0.117619
0.110976
0.104842
0.0997643
0.0936533
0.0878848
0.0825246
0.0776002
0.073114
0.069052
0.0653899
0.0620974
0.0591408
0.0564857
0.0540981
0.0519457
0.0499983
0.0482285
0.0466114
0.0451252
0.0437506
0.0424708
0.0412713
0.0401396
0.039065
0.0380382
0.0370513
0.0360974
0.0351705
0.0342656
0.0333782
0.0325043
0.0316405
0.0307839
0.0299319
0.0290823
0.028233
0.0273825
0.0265293
0.0256723
0.0248106
0.0239432
0.0230696
0.0221894
0.0213022
0.0204078
0.0195061
0.018597
0.0176805
0.0167569
0.0158261
0.0148885
0.0139443
0.0129938
0.0120374
0.0110758
0.0101096
0.00913954
0.00816664
0.00719184
0.00621601
0.00523976
0.00426308
0.003286
0.00231442
0.00137926
0.000569539
5.42426e-05
0.360877
0.319432
0.285211
0.258349
0.237843
0.222076
0.209436
0.198613
0.188753
0.179225
0.169983
0.160828
0.151699
0.142726
0.134089
0.125941
0.118375
0.111442
0.105042
0.0997804
0.0935635
0.0877369
0.0823473
0.0774115
0.0729251
0.0688698
0.0652183
0.0619383
0.058995
0.0563532
0.0539783
0.0518379
0.0499017
0.0481421
0.0465344
0.0450568
0.04369
0.0424173
0.0412242
0.0400984
0.0390291
0.0380072
0.0370247
0.0360748
0.0351515
0.0342499
0.0333654
0.0324942
0.0316328
0.0307783
0.0299281
0.0290801
0.0282323
0.027383
0.0265309
0.0256748
0.0248138
0.023947
0.0230739
0.0221941
0.0213072
0.020413
0.0195113
0.0186023
0.0176858
0.0167621
0.0158313
0.0148935
0.0139491
0.0129984
0.0120419
0.01108
0.0101134
0.00914295
0.00816951
0.00719396
0.00621709
0.00523945
0.0042612
0.00328283
0.00230982
0.00136411
0.00049613
-0.000171223
0.361545
0.320825
0.286992
0.260512
0.240316
0.224782
0.212358
0.201707
0.192043
0.182615
0.173458
0.164223
0.154884
0.145559
0.136428
0.127701
0.11956
0.112113
0.105282
0.0997298
0.0933354
0.0874099
0.0819718
0.0770196
0.0725373
0.0684984
0.0648703
0.0616171
0.0587016
0.056087
0.0537383
0.0516222
0.0497085
0.0479696
0.0463808
0.0449203
0.0435691
0.0423106
0.0411305
0.0400164
0.0389578
0.0379456
0.0369718
0.0360299
0.0351139
0.0342188
0.0333402
0.0324742
0.0316175
0.0307672
0.0299208
0.029076
0.028231
0.0273842
0.0265342
0.0256798
0.0248202
0.0239547
0.0230826
0.0222035
0.0213171
0.0204233
0.0195219
0.0186129
0.0176964
0.0167726
0.0158416
0.0149035
0.0139588
0.0130077
0.0120507
0.0110883
0.0101211
0.00914987
0.0081754
0.00719847
0.00621973
0.0052397
0.00425882
0.00327821
0.0022998
0.00130952
0.000196322
-0.00115802
0.362289
0.322781
0.289708
0.263637
0.243733
0.228493
0.216292
0.205729
0.196132
0.186683
0.177441
0.16806
0.158465
0.148754
0.139088
0.129694
0.120844
0.112729
0.105374
0.0994853
0.0928837
0.0868447
0.0813557
0.076394
0.0719285
0.0679221
0.064335
0.0611261
0.0582553
0.055684
0.0533759
0.0512976
0.0494184
0.047711
0.0461508
0.0447164
0.0433888
0.0421517
0.0409909
0.0398945
0.0388518
0.0378541
0.0368935
0.0359635
0.0350583
0.0341729
0.033303
0.0324449
0.0315953
0.0307512
0.0299103
0.0290703
0.0282295
0.0273863
0.0265394
0.0256877
0.0248303
0.0239665
0.0230958
0.0222178
0.0213322
0.0204389
0.0195378
0.018629
0.0177124
0.0167884
0.015857
0.0149186
0.0139734
0.0130217
0.012064
0.0111008
0.0101327
0.00916039
0.00818452
0.00720576
0.00622463
0.00524152
0.00425703
0.00327223
0.00228169
0.00120579
-0.000395909
-0.00328811
0.363236
0.325205
0.292933
0.267341
0.24781
0.232928
0.220948
0.210446
0.200736
0.191053
0.181495
0.171746
0.161706
0.15149
0.141262
0.131256
0.121745
0.112974
0.105098
0.0988981
0.0921031
0.0859642
0.0804421
0.0754927
0.0710681
0.067119
0.0635968
0.0604548
0.0576492
0.0551395
0.0528886
0.0508625
0.0490309
0.0473664
0.0458451
0.0444457
0.0431498
0.0419414
0.0408066
0.0397337
0.0387123
0.0377339
0.0367908
0.0358766
0.0349857
0.0341132
0.0332549
0.0324071
0.0315667
0.0307309
0.0298972
0.0290636
0.0282283
0.0273899
0.026547
0.0256987
0.0248441
0.0239826
0.0231138
0.0222372
0.0213526
0.02046
0.0195593
0.0186506
0.017734
0.0168096
0.0158778
0.0149388
0.0139929
0.0130404
0.0120818
0.0111176
0.0101483
0.00917463
0.00819708
0.00721621
0.00623239
0.00524583
0.00425698
0.00326809
0.00228457
0.00129717
0.000191872
-0.00115354
0.3642
0.32767
0.29638
0.271534
0.252596
0.238249
0.226435
0.215849
0.205719
0.195492
0.185287
0.174904
0.164288
0.153511
0.142738
0.132162
0.122034
0.112653
0.104291
0.0978289
0.0908824
0.0846817
0.0791648
0.0742661
0.0699199
0.0660631
0.0626376
0.0595906
0.056875
0.0544485
0.0522733
0.0503156
0.0485454
0.0469362
0.0454645
0.0441096
0.0428537
0.0416814
0.0405792
0.0395356
0.0385409
0.0375864
0.0366651
0.0357705
0.0348973
0.0340408
0.0331968
0.0323619
0.0315329
0.0307072
0.0298824
0.0290566
0.0282281
0.0273955
0.0265576
0.0257134
0.0248623
0.0240036
0.0231369
0.022262
0.0213786
0.0204868
0.0195865
0.0186779
0.0177611
0.0168364
0.015904
0.0149642
0.0140174
0.0130639
0.0121042
0.0111387
0.010168
0.00919269
0.00821321
0.00723005
0.00624344
0.00525338
0.00425984
0.00326467
0.0022776
0.0013266
0.000461446
-0.000206012
0.365046
0.330233
0.300447
0.276708
0.258597
0.244716
0.232834
0.221917
0.211141
0.200193
0.18906
0.177732
0.16628
0.154801
0.143467
0.132365
0.121634
0.11161
0.102801
0.0961464
0.0891097
0.0829054
0.0774518
0.0726602
0.0684445
0.0647265
0.0614381
0.0585209
0.0559245
0.0536059
0.0515272
0.0496557
0.0479621
0.0464211
0.0450101
0.0437096
0.0425023
0.0413736
0.0403106
0.0393023
0.0383394
0.0374137
0.0365183
0.0356471
0.0347949
0.0339573
0.0331303
0.0323105
0.031495
0.0306812
0.0298669
0.0290503
0.0282297
0.0274039
0.0265717
0.0257324
0.0248853
0.0240298
0.0231657
0.0222926
0.0214106
0.0205196
0.0196198
0.0187112
0.0177942
0.0168689
0.0159357
0.0149949
0.014047
0.0130922
0.0121311
0.0111642
0.0101918
0.0092146
0.00823299
0.00724735
0.0062579
0.0052646
0.00426723
0.00326677
0.00227107
0.00131056
0.000467442
-8.57233e-05
0.366327
0.333604
0.305251
0.282675
0.265402
0.251763
0.23975
0.22835
0.216751
0.204763
0.19244
0.179995
0.167584
0.15534
0.143334
0.131578
0.120238
0.109674
0.100514
0.0937345
0.0866736
0.0805403
0.0752291
0.0706205
0.0666034
0.0630828
0.0599807
0.0572339
0.0547906
0.0526076
0.0506487
0.0488825
0.0472817
0.0458225
0.044484
0.0432478
0.0420979
0.0410204
0.0400033
0.0390362
0.0381103
0.037218
0.0363525
0.0355083
0.0346804
0.0338646
0.033057
0.0322546
0.0314545
0.0306543
0.0298519
0.0290457
0.0282341
0.027416
0.0265904
0.0257565
0.0249138
0.0240619
0.0232005
0.0223295
0.0214489
0.0205588
0.0196593
0.0187507
0.0178333
0.0169073
0.0159731
0.0150311
0.0140818
0.0131255
0.0121627
0.011194
0.0102197
0.00924035
0.00825634
0.00726797
0.00627547
0.005279
0.00427872
0.00327495
0.00226969
0.00127531
0.000352949
-0.00028995
0.36727
0.336534
0.310116
0.288991
0.272429
0.258872
0.246603
0.234495
0.221927
0.208791
0.195269
0.181698
0.16829
0.155233
0.142562
0.130227
0.118311
0.107076
0.0974245
0.0904902
0.0834553
0.0774869
0.0724236
0.0680968
0.0643632
0.0611102
0.0582517
0.0557216
0.0534686
0.0514516
0.0496372
0.0479967
0.0465057
0.0451426
0.0438886
0.0427271
0.0416433
0.0406247
0.0396602
0.0387402
0.0378565
0.037002
0.0361705
0.0353568
0.0345562
0.0337648
0.032979
0.032196
0.0314131
0.030628
0.0298389
0.0290442
0.0282425
0.0274328
0.0266144
0.0257864
0.0249485
0.0241004
0.023242
0.0223731
0.021494
0.0206047
0.0197055
0.0187967
0.0178787
0.0169517
0.0160163
0.0150729
0.0141218
0.0131637
0.012199
0.0112282
0.0102517
0.0092699
0.00828316
0.00729166
0.00629556
0.00529523
0.00429123
0.00328274
0.00226105
0.00120216
0.000112215
-0.000753873
0.368345
0.339836
0.315362
0.29542
0.279338
0.265682
0.252847
0.23983
0.226161
0.211878
0.197262
0.182679
0.1684
0.154608
0.141356
0.128492
0.115915
0.103809
0.0934456
0.0862509
0.0793011
0.0736358
0.0689675
0.0650495
0.0617015
0.0587965
0.0562445
0.0539809
0.0519578
0.0501387
0.0484945
0.0470009
0.045637
0.0443846
0.0432274
0.0421508
0.0411422
0.0401902
0.0392849
0.0384177
0.0375811
0.0367688
0.0359751
0.0351951
0.0344247
0.0336603
0.0328985
0.0321368
0.0313726
0.0306041
0.0298294
0.0290471
0.0282562
0.0274556
0.0266448
0.0258231
0.0249903
0.0241462
0.0232908
0.0224241
0.0215464
0.0206578
0.0197587
0.0188495
0.0179306
0.0170025
0.0160655
0.0151203
0.0141673
0.0132071
0.01224
0.0112668
0.0102877
0.00930316
0.00831333
0.00731819
0.00631774
0.00531228
0.00430268
0.00328738
0.002249
0.00113093
-0.000114691
-0.00119467
0.369599
0.343294
0.320397
0.301304
0.285649
0.271784
0.258095
0.243825
0.228844
0.213458
0.198049
0.182767
0.167745
0.153252
0.139373
0.125909
0.112721
0.099776
0.088436
0.0807195
0.0739905
0.068873
0.0648122
0.0614613
0.0586144
0.0561429
0.0539627
0.0520161
0.0502628
0.0486734
0.0472251
0.0458993
0.04468
0.0435527
0.0425044
0.0415233
0.0405987
0.0397208
0.0388812
0.0380724
0.0372879
0.0365219
0.0357696
0.0350266
0.0342891
0.0335539
0.0328181
0.0320793
0.0313354
0.0305845
0.0298252
0.0290562
0.0282766
0.0274857
0.0266828
0.0258676
0.0250401
0.0242
0.0233476
0.022483
0.0216065
0.0207185
0.0198193
0.0189095
0.0179895
0.0170598
0.016121
0.0151737
0.0142183
0.0132555
0.0122859
0.0113098
0.0103278
0.00934009
0.00834676
0.00734753
0.00634204
0.00533038
0.00431391
0.00329343
0.00225719
0.00115841
-3.99598e-05
-0.00105636
0.370711
0.34638
0.3249
0.306391
0.29058
0.275626
0.260553
0.245174
0.229433
0.213391
0.197269
0.181385
0.165945
0.151058
0.136766
0.122831
0.108995
0.0950431
0.0822064
0.0732523
0.0672095
0.0631141
0.0599584
0.0573539
0.0551245
0.053169
0.0514219
0.0498398
0.0483938
0.0470642
0.0458364
0.0446987
0.0436406
0.0426526
0.0417252
0.0408496
0.0400175
0.0392212
0.0384537
0.0377088
0.036981
0.0362654
0.0355578
0.0348546
0.0341525
0.0334486
0.0327405
0.0320262
0.0313037
0.0305715
0.0298283
0.0290732
0.0283054
0.0275243
0.0267296
0.0259211
0.0250988
0.0242627
0.0234132
0.0225505
0.0216751
0.0207873
0.0198877
0.0189769
0.0180555
0.017124
0.016183
0.0152331
0.014275
0.0133093
0.0123365
0.0113572
0.0103718
0.00938062
0.00838343
0.00737977
0.00636889
0.00535046
0.00432579
0.00329667
0.00225352
0.00114951
-6.25626e-05
-0.00111097
0.371684
0.349
0.328411
0.30993
0.293168
0.276984
0.260874
0.244408
0.227694
0.211078
0.194751
0.178777
0.163286
0.148306
0.133801
0.119513
0.105076
0.0899914
0.074729
0.0621527
0.0586323
0.0564295
0.0545117
0.0528057
0.051286
0.0499129
0.0486503
0.0474732
0.0463671
0.0453239
0.0443387
0.0434077
0.0425267
0.0416912
0.040896
0.0401357
0.0394045
0.0386968
0.0380075
0.0373317
0.036665
0.0360035
0.0353439
0.0346831
0.0340185
0.0333478
0.032669
0.0319802
0.03128
0.0305673
0.0298408
0.0291
0.0283443
0.0275732
0.0267867
0.0259848
0.0251675
0.0243353
0.0234884
0.0226273
0.0217526
0.0208647
0.0199644
0.0190523
0.018129
0.0171952
0.0162515
0.0152987
0.0143375
0.0133683
0.012392
0.0114091
0.0104199
0.00942475
0.00842338
0.00741514
0.00639898
0.00537421
0.00434178
0.00330324
0.00224728
0.001117
-0.000161397
-0.00131608
0.372374
0.350673
0.330208
0.311314
0.293311
0.275352
0.257607
0.240083
0.222906
0.206236
0.190247
0.174734
0.159634
0.144991
0.130646
0.116277
0.101453
0.0854819
0.0672192
0.0351242
0.0487718
0.0493566
0.0487356
0.0479483
0.0471764
0.0464272
0.0456856
0.0449441
0.0442034
0.0434685
0.0427449
0.042037
0.0413474
0.0406767
0.0400244
0.0393884
0.038766
0.0381538
0.0375484
0.0369465
0.036345
0.0357412
0.0351323
0.0345164
0.0338912
0.0332552
0.0326067
0.0319445
0.0312674
0.0305745
0.0298651
0.0291387
0.028395
0.0276339
0.0268554
0.0260599
0.0252474
0.0244187
0.023574
0.0227142
0.0218397
0.0209514
0.0200498
0.0191359
0.0182103
0.0172737
0.016327
0.0153708
0.0144058
0.0134329
0.0124525
0.0114654
0.010472
0.0094725
0.00846669
0.00745388
0.00643297
0.00540325
0.00436613
0.00332618
0.00228515
0.00122505
0.000134853
-0.000753236
0.372829
0.35171
0.330989
0.310987
0.291119
0.271039
0.25162
0.23312
0.215631
0.199022
0.183484
0.168842
0.154739
0.140977
0.127265
0.113273
0.0985826
0.082724
0.0654123
0.0394505
0.0441658
0.0431584
0.0429264
0.042899
0.0428715
0.0427688
0.0425708
0.0422841
0.041926
0.0415156
0.041069
0.0405985
0.0401131
0.0396187
0.0391191
0.038616
0.0381095
0.0375989
0.0370828
0.0365594
0.0360269
0.0354837
0.0349282
0.034359
0.0337749
0.0331747
0.0325575
0.0319224
0.0312687
0.0305958
0.0299035
0.0291914
0.0284596
0.0277081
0.0269374
0.0261477
0.0253397
0.0245139
0.023671
0.0228118
0.0219371
0.0210477
0.0201444
0.0192282
0.0182997
0.0173599
0.0164095
0.0154494
0.0144802
0.0135029
0.012518
0.0115263
0.0105281
0.00952389
0.00851341
0.00749612
0.00647108
0.00543781
0.00439811
0.00335881
0.00233309
0.00134074
0.000432944
-0.000202271
0.373136
0.352305
0.331067
0.309463
0.287308
0.264856
0.243587
0.224101
0.206516
0.190526
0.175933
0.162321
0.149361
0.136701
0.12398
0.110825
0.0967579
0.0814298
0.064794
0.0484128
0.0371737
0.0360453
0.0367271
0.0376402
0.0384248
0.0389949
0.0393506
0.0395248
0.039557
0.0394813
0.039324
0.0391038
0.0388347
0.0385274
0.0381898
0.0378274
0.0374436
0.0370403
0.0366182
0.0361772
0.035717
0.0352371
0.0347369
0.0342161
0.0336742
0.0331107
0.0325252
0.0319175
0.0312872
0.0306343
0.0299587
0.0292605
0.0285401
0.0277978
0.0270341
0.0262497
0.0254454
0.0246219
0.0237801
0.022921
0.0220454
0.0211543
0.0202487
0.0193295
0.0183975
0.0174539
0.0164993
0.0155347
0.0145608
0.0135786
0.0125886
0.0115917
0.0105884
0.009579
0.00856359
0.00754183
0.00651307
0.00547701
0.00443501
0.00339252
0.00236284
0.00137737
0.000516971
-3.47413e-05
0.37316
0.352262
0.330507
0.306998
0.282135
0.257098
0.234071
0.214039
0.196813
0.181631
0.168036
0.1555
0.143736
0.132306
0.120766
0.108721
0.0956665
0.0811772
0.0648544
0.0460275
0.010237
0.0271404
0.0301066
0.0322609
0.0339273
0.0351758
0.0360717
0.0366941
0.0371124
0.0373767
0.0375196
0.0375628
0.0375229
0.0374138
0.0372473
0.0370331
0.0367781
0.0364871
0.0361631
0.0358078
0.0354226
0.035008
0.0345648
0.0340934
0.0335943
0.0330678
0.0325141
0.0319336
0.0313264
0.0306929
0.0300334
0.0293485
0.0286387
0.0279047
0.0271473
0.0263674
0.0255659
0.0247439
0.0239024
0.0230425
0.0221652
0.0212717
0.020363
0.0194401
0.0185041
0.017556
0.0165966
0.0156269
0.0146477
0.01366
0.0126644
0.0116618
0.0106528
0.00963785
0.00861721
0.00759081
0.00655834
0.00551948
0.00447444
0.0034247
0.00237614
0.00135447
0.000450587
-0.000125556
0.372916
0.35142
0.328709
0.303337
0.275974
0.248536
0.223907
0.203341
0.186561
0.172406
0.159979
0.14864
0.138091
0.127896
0.117609
0.106772
0.0948348
0.081316
0.0659065
0.0484746
0.0272279
0.02138
0.0239952
0.0270596
0.0295296
0.0314
0.032779
0.0338095
0.0345968
0.0352029
0.035659
0.0359823
0.0361873
0.0362893
0.0363039
0.0362452
0.0361244
0.0359499
0.0357272
0.0354603
0.0351518
0.034804
0.0344186
0.0339971
0.033541
0.0330512
0.0325289
0.0319749
0.03139
0.030775
0.0301307
0.029458
0.0287577
0.0280309
0.0272787
0.0265021
0.0257025
0.0248809
0.0240387
0.0231771
0.0222973
0.0214004
0.0204878
0.0195606
0.0186197
0.0176664
0.0167015
0.0157261
0.014741
0.0137472
0.0127455
0.0117367
0.0107214
0.00970049
0.00867423
0.00764285
0.00660628
0.00556414
0.00451559
0.00345896
0.00239413
0.00134088
0.000393979
-0.000214785
0.372306
0.349436
0.325284
0.298251
0.269011
0.239766
0.213903
0.192947
0.176539
0.163317
0.152025
0.141868
0.132529
0.123529
0.114421
0.104725
0.0939328
0.0815854
0.0673092
0.0507944
0.0314778
0.00439116
0.0173081
0.0221231
0.0253748
0.0277669
0.0295094
0.0308705
0.0319958
0.0329479
0.0337383
0.0343664
0.0348378
0.035167
0.0353738
0.035478
0.0354963
0.0354414
0.0353222
0.0351449
0.0349142
0.0346335
0.034306
0.0339341
0.0335203
0.0330665
0.0325746
0.0320459
0.031482
0.0308842
0.0302536
0.0295916
0.0288994
0.0281784
0.02743
0.0266555
0.0258564
0.0250341
0.02419
0.0233255
0.0224421
0.021541
0.0206236
0.019691
0.0187446
0.0177852
0.0168142
0.0158324
0.0148408
0.0138403
0.0128318
0.0118162
0.0107944
0.00976694
0.00873461
0.00769777
0.0066565
0.0056104
0.0045584
0.00349869
0.00243233
0.0013828
0.000448543
-0.000144646
0.371114
0.345711
0.319186
0.290394
0.259915
0.229809
0.203569
0.182819
0.166994
0.154642
0.144387
0.135315
0.127029
0.119034
0.110956
0.10234
0.0927403
0.081756
0.0691062
0.0547932
0.0386593
0.0195834
0.0165506
0.0183242
0.0217106
0.0244258
0.0262874
0.0278505
0.0292713
0.0305856
0.0317485
0.0327196
0.0334872
0.034064
0.0344754
0.0347494
0.0349102
0.0349766
0.0349615
0.0348739
0.0347205
0.0345062
0.0342355
0.033912
0.0335391
0.0331197
0.0326564
0.0321513
0.0316066
0.031024
0.0304053
0.0297522
0.0290663
0.0283494
0.0276031
0.026829
0.0260289
0.0252044
0.0243571
0.0234886
0.0226003
0.0216939
0.0207706
0.0198319
0.0188789
0.0179128
0.0169348
0.0159459
0.0149471
0.0139393
0.0129235
0.0119006
0.0108716
0.00983719
0.00879832
0.00775548
0.00670884
0.00565792
0.00460162
0.003539
0.00247447
0.00143766
0.000529718
-3.74235e-05
0.369146
0.339852
0.309523
0.277979
0.246262
0.216667
0.191675
0.17235
0.157773
0.146539
0.137342
0.129274
0.121926
0.114874
0.107789
0.100269
0.091965
0.0825593
0.0718889
0.0599437
0.0457743
0.0294983
0.00464492
0.0129541
0.0184787
0.0216411
0.0230932
0.0246854
0.0263558
0.0280828
0.0296866
0.0310565
0.0321586
0.0330059
0.0336337
0.0340823
0.0343869
0.0345738
0.0346612
0.0346614
0.0345831
0.034433
0.0342168
0.0339393
0.0336049
0.0332174
0.0327802
0.0322963
0.0317682
0.0311985
0.0305893
0.0299427
0.0292609
0.0285459
0.0277997
0.0270242
0.0262213
0.0253929
0.0245409
0.0236669
0.0227726
0.0218595
0.0209293
0.0199833
0.0190228
0.0180491
0.0170634
0.0160666
0.0150599
0.0140442
0.0130205
0.0119898
0.010953
0.00991121
0.00886529
0.00781595
0.00676335
0.00570685
0.00464485
0.00357553
0.00250208
0.00145292
0.000529508
-5.08097e-05
0.366571
0.332226
0.297077
0.26251
0.229565
0.201027
0.178537
0.161758
0.149198
0.139532
0.131811
0.12521
0.119218
0.113423
0.10749
0.101128
0.0940845
0.0860891
0.0771407
0.0673077
0.0550358
0.0414705
0.0233701
0.00516161
0.017458
0.0203745
0.0196939
0.0212689
0.0231424
0.0254185
0.0275774
0.0294178
0.0308956
0.0320332
0.0328841
0.0335071
0.0339519
0.0342548
0.03444
0.0345234
0.034516
0.0344261
0.0342605
0.0340253
0.0337258
0.0333667
0.0329523
0.0324861
0.0319716
0.0314116
0.0308089
0.0301662
0.0294858
0.0287702
0.0280217
0.0272426
0.0264349
0.0256008
0.0247422
0.0238611
0.0229592
0.0220383
0.0210999
0.0201455
0.0191766
0.0181943
0.0171999
0.0161946
0.0151793
0.014155
0.0131228
0.0120837
0.0110387
0.00998888
0.0089354
0.00787905
0.00682008
0.00575774
0.00468966
0.0036115
0.0025204
0.00143548
0.00045575
-0.000176157
0.363553
0.323009
0.282188
0.244877
0.212821
0.187091
0.167522
0.153183
0.143034
0.135499
0.129655
0.124785
0.120382
0.116061
0.111463
0.106316
0.100527
0.0939059
0.0866862
0.0787177
0.0684176
0.0583483
0.0466841
0.0325183
0.012014
0.0226081
0.0145234
0.017592
0.019429
0.022635
0.0255125
0.0278914
0.0297746
0.0312088
0.0322763
0.0330626
0.0336364
0.0340453
0.0343195
0.0344785
0.0345351
0.034499
0.0343782
0.03418
0.0339104
0.0335751
0.033179
0.0327265
0.0322216
0.0316676
0.031068
0.0304257
0.0297436
0.0290245
0.028271
0.0274856
0.0266708
0.0258288
0.0249618
0.0240719
0.0231608
0.0222305
0.0212826
0.0203187
0.0193402
0.0183483
0.0173445
0.0163297
0.0153051
0.0142716
0.0132303
0.0121821
0.0111283
0.01007
0.00900843
0.00794452
0.00687879
0.00581072
0.00473784
0.00365443
0.00255298
0.00144445
0.000424255
-0.000245985
0.360065
0.313058
0.268239
0.230121
0.199479
0.175873
0.159353
0.147894
0.140231
0.134933
0.131009
0.127941
0.125292
0.12252
0.119401
0.11569
0.111369
0.10623
0.100568
0.0938553
0.0857007
0.0776161
0.0672641
0.0559829
0.0440925
0.0306686
0.000235623
0.0152865
0.0145461
0.0200178
0.0237047
0.0266264
0.0289136
0.0306218
0.0318745
0.0327958
0.0334764
0.033974
0.0343236
0.0345466
0.0346572
0.0346662
0.0345825
0.034414
0.034168
0.0338505
0.0334674
0.0330235
0.0325233
0.031971
0.0313701
0.0307244
0.0300369
0.0293109
0.0285493
0.0277549
0.0269303
0.0260781
0.0252005
0.0242997
0.0233777
0.0224365
0.0214776
0.0205029
0.0195136
0.0185112
0.0174969
0.0164719
0.0154372
0.0143938
0.0133427
0.012285
0.0112219
0.0101544
0.00908407
0.00801193
0.00693884
0.00586487
0.00478854
0.00370541
0.00260927
0.00151121
0.000504237
-0.000155708
0.357301
0.305117
0.256488
0.21694
0.188119
0.167677
0.154329
0.145818
0.140582
0.137264
0.135186
0.13387
0.132899
0.131573
0.129947
0.127749
0.124871
0.121238
0.117079
0.111628
0.105394
0.0980868
0.0887117
0.0781208
0.0662995
0.0531875
0.0352587
0.026752
0.00402336
0.0189938
0.0224789
0.0258073
0.0284739
0.0303869
0.0317538
0.0327576
0.0335095
0.0340713
0.0344776
0.0347492
0.0349006
0.0349431
0.0348863
0.0347387
0.0345081
0.0342013
0.0338245
0.0333831
0.0328821
0.0323261
0.0317192
0.0310654
0.0303684
0.0296316
0.0288583
0.0280517
0.0272144
0.0263493
0.0254587
0.024545
0.0236102
0.0226563
0.021685
0.020698
0.0196968
0.0186828
0.0176571
0.016621
0.0155754
0.0145214
0.01346
0.0123921
0.011319
0.0102418
0.00916198
0.00808078
0.00699935
0.0059183
0.00483702
0.0037522
0.00265851
0.00156624
0.000564679
-9.39826e-05
0.355894
0.301184
0.250847
0.210434
0.18218
0.163807
0.152778
0.146565
0.143272
0.141767
0.141304
0.141413
0.141831
0.141828
0.141563
0.140789
0.13918
0.136919
0.134142
0.130012
0.125233
0.118822
0.110758
0.101053
0.0894159
0.0767082
0.0621592
0.0473521
0.02747
0.0278217
0.0214144
0.0255485
0.02868
0.0306396
0.0319854
0.0329923
0.0337702
0.0343664
0.0348066
0.0351078
0.0352836
0.0353453
0.0353028
0.0351652
0.0349405
0.0346358
0.0342575
0.0338116
0.0333032
0.0327375
0.0321189
0.0314519
0.0307406
0.0299887
0.0291998
0.0283773
0.0275242
0.0266432
0.0257371
0.0248081
0.0238584
0.02289
0.0219047
0.0209041
0.0198897
0.0188629
0.0178249
0.0167767
0.0157195
0.0146542
0.0135818
0.0125032
0.0114195
0.0103319
0.00924188
0.0081507
0.00705969
0.00596965
0.00487986
0.00378575
0.00267781
0.0015583
0.000511179
-0.000193042
0.353907
0.296413
0.245246
0.205334
0.178516
0.162414
0.153556
0.149272
0.147712
0.147568
0.148359
0.149575
0.151038
0.152085
0.152932
0.153407
0.152827
0.151826
0.150269
0.14752
0.143964
0.138749
0.131856
0.123111
0.112272
0.100228
0.0860223
0.07055
0.0546358
0.038662
0.00803848
0.0262719
0.0299951
0.0315117
0.032603
0.0335222
0.0342835
0.0348856
0.0353352
0.0356439
0.0358243
0.0358879
0.035845
0.0357046
0.0354746
0.0351621
0.0347736
0.034315
0.0337919
0.0332096
0.0325731
0.0318871
0.0311561
0.0303843
0.0295754
0.028733
0.0278604
0.0269605
0.026036
0.0250893
0.0241226
0.0231378
0.0221367
0.021121
0.0200921
0.0190513
0.0179999
0.0169389
0.0158692
0.0147919
0.0137078
0.0126179
0.0115231
0.0104245
0.00932355
0.00822153
0.00711976
0.00601896
0.00491797
0.00381082
0.00268493
0.00153793
0.000452523
-0.000285891
0.35332
0.294495
0.242565
0.203434
0.178019
0.163353
0.156076
0.1534
0.152992
0.154016
0.155679
0.157652
0.159745
0.161567
0.163224
0.164617
0.165041
0.165164
0.164587
0.163263
0.160779
0.15699
0.151223
0.143763
0.134168
0.122852
0.109078
0.0937836
0.0771556
0.059498
0.0372684
0.0372221
0.0334472
0.0329217
0.033521
0.0343304
0.0350656
0.0356537
0.0360874
0.0363779
0.0365395
0.0365848
0.0365245
0.0363669
0.0361193
0.0357883
0.0353797
0.0348996
0.0343535
0.033747
0.0330854
0.032374
0.0316174
0.0308201
0.0299864
0.0291198
0.0282239
0.0273017
0.0263558
0.0253887
0.0244025
0.0233993
0.0223807
0.0213483
0.0203035
0.0192477
0.0181818
0.017107
0.0160241
0.0149341
0.0138378
0.0127359
0.0116294
0.0105194
0.00940689
0.00829328
0.0071797
0.00606673
0.00495321
0.00383457
0.00270422
0.00157267
0.000532439
-0.000153942
0.350897
0.289808
0.2391
0.202122
0.178638
0.165657
0.159819
0.158224
0.158799
0.160631
0.16288
0.165292
0.167713
0.169994
0.172176
0.174162
0.175546
0.176429
0.176761
0.176641
0.175265
0.172946
0.168473
0.162495
0.154234
0.14376
0.13081
0.115949
0.0989568
0.0806209
0.0621866
0.0428613
0.0343493
0.033593
0.0344642
0.0353899
0.0361419
0.0367014
0.0370886
0.037329
0.0374437
0.0374477
0.0373511
0.0371609
0.0368826
0.0365213
0.0360823
0.0355709
0.0349928
0.0343537
0.0336594
0.0329152
0.0321265
0.031298
0.0304341
0.0295386
0.0286152
0.0276669
0.0266964
0.0257061
0.0246982
0.0236744
0.0226364
0.0215858
0.0205237
0.0194515
0.0183702
0.0172807
0.0161838
0.0150804
0.0139712
0.0128569
0.0117383
0.0106163
0.00949184
0.00836607
0.00723981
0.00611312
0.00498444
0.00385106
0.00271543
0.00160801
0.000636235
2.6838e-05
0.351488
0.29045
0.239259
0.203201
0.181008
0.169223
0.164351
0.163452
0.164741
0.167136
0.169786
0.172431
0.175007
0.177481
0.179965
0.182261
0.184236
0.185711
0.186879
0.187618
0.187455
0.186499
0.18357
0.179085
0.172219
0.162889
0.151063
0.136803
0.119944
0.100946
0.0801308
0.0569902
0.0130644
0.0331615
0.0356231
0.0368315
0.0375891
0.0380744
0.038366
0.0385135
0.0385476
0.0384845
0.0383318
0.0380931
0.0377708
0.0373676
0.0368871
0.0363343
0.0357145
0.0350338
0.0342981
0.0335135
0.0326855
0.0318193
0.0309194
0.02999
0.0290347
0.0280564
0.0270579
0.0260415
0.0250091
0.0239626
0.0229034
0.0218328
0.0207521
0.0196624
0.0185645
0.0174594
0.0163478
0.0152303
0.0141077
0.0129805
0.0118494
0.0107151
0.0095784
0.00844018
0.00730072
0.00615908
0.00501215
0.00385672
0.00270026
0.00158823
0.000643153
7.35932e-05
0.350284
0.289579
0.241071
0.206413
0.184771
0.173714
0.169402
0.168981
0.170732
0.173437
0.176353
0.179127
0.181763
0.184289
0.186826
0.189252
0.191485
0.19338
0.195141
0.196715
0.197535
0.19779
0.196416
0.193398
0.188031
0.180121
0.169556
0.156145
0.139834
0.120757
0.0990725
0.0748358
0.0474267
0.0385494
0.0381895
0.0389423
0.0395166
0.0398249
0.0399434
0.0399409
0.0398545
0.039697
0.0394691
0.0391674
0.0387886
0.038332
0.0377994
0.0371945
0.0365228
0.0357906
0.0350045
0.034171
0.033296
0.0323851
0.0314432
0.0304744
0.0294823
0.0284699
0.0274399
0.0263943
0.0253349
0.0242634
0.023181
0.0220889
0.0209881
0.0198796
0.0187642
0.0176426
0.0165154
0.0153833
0.0142467
0.0131062
0.0119623
0.0108155
0.00966655
0.00851595
0.00736351
0.0062071
0.00504158
0.00386148
0.00267497
0.00153547
0.000578048
1.14082e-05
0.352355
0.293875
0.245407
0.2106
0.189344
0.178649
0.174789
0.174687
0.176831
0.179664
0.182746
0.185563
0.18816
0.190612
0.193038
0.195433
0.19773
0.199878
0.20202
0.204195
0.205908
0.207075
0.207139
0.205612
0.201792
0.195464
0.186284
0.174016
0.158689
0.140264
0.118752
0.0938992
0.0666979
0.0238739
0.0401172
0.0415371
0.041971
0.041992
0.0418325
0.0416077
0.0413569
0.0410794
0.0407604
0.0403839
0.0399385
0.0394184
0.0388231
0.0381555
0.0374213
0.0366274
0.035781
0.0348894
0.0339592
0.0329962
0.0320056
0.0309916
0.0299578
0.0289071
0.0278418
0.0267639
0.0256748
0.024576
0.0234685
0.0223532
0.021231
0.0201026
0.0189686
0.0178297
0.0166862
0.0155388
0.0143878
0.0132336
0.0120766
0.0109173
0.00975613
0.0085936
0.00742916
0.00626004
0.00507989
0.00388173
0.00267362
0.00151262
0.00054065
-3.06007e-05
0.353307
0.296172
0.248853
0.215104
0.19451
0.18408
0.180372
0.180466
0.182873
0.185855
0.189026
0.191879
0.194406
0.196723
0.198949
0.201147
0.203332
0.205572
0.207941
0.210475
0.212863
0.214898
0.216001
0.215908
0.213615
0.20886
0.201165
0.190296
0.176167
0.158539
0.137469
0.112988
0.0866034
0.0586275
0.0464786
0.0454206
0.0451639
0.0446313
0.0440282
0.0434905
0.0430322
0.0426159
0.042197
0.0417396
0.0412209
0.0406291
0.0399614
0.0392205
0.0384128
0.0375462
0.0366292
0.0356699
0.0346756
0.0336527
0.0326065
0.0315414
0.0304607
0.0293672
0.0282629
0.0271494
0.026028
0.0248996
0.023765
0.0226249
0.0214799
0.0203304
0.0191769
0.0180198
0.0168594
0.0156962
0.0145303
0.0133621
0.0121918
0.0110199
0.00984684
0.00867298
0.00749794
0.0063192
0.00513092
0.00392718
0.00271774
0.0015615
0.000599706
3.79461e-05
0.353725
0.297903
0.252121
0.219753
0.199782
0.189584
0.185975
0.186253
0.188773
0.191947
0.195167
0.198054
0.20052
0.202689
0.204682
0.206617
0.208585
0.210715
0.213136
0.21587
0.218719
0.221449
0.223559
0.224548
0.223743
0.220544
0.214462
0.205195
0.192477
0.17605
0.156041
0.132426
0.105845
0.076304
0.029699
0.0491939
0.0491092
0.0477466
0.0464804
0.0455329
0.0448376
0.0442798
0.0437648
0.0432286
0.0426344
0.0419651
0.0412163
0.0403916
0.0394991
0.0385485
0.0375499
0.0365127
0.0354452
0.0343542
0.0332452
0.0321227
0.0309899
0.029849
0.0287019
0.0275497
0.0263932
0.025233
0.0240695
0.022903
0.0217339
0.0205622
0.0193882
0.0182122
0.0170343
0.0158547
0.0146735
0.013491
0.0123074
0.0111229
0.00993813
0.00875351
0.00756913
0.00638348
0.00519284
0.00399473
0.00280291
0.00167733
0.000752257
0.000216827
0.354298
0.300066
0.255905
0.224529
0.205039
0.195107
0.191642
0.192036
0.194596
0.197917
0.201199
0.204073
0.206485
0.208506
0.210274
0.211937
0.213647
0.215564
0.217877
0.220664
0.223798
0.227041
0.229968
0.231961
0.232429
0.230779
0.226341
0.218688
0.207407
0.192101
0.172856
0.149733
0.123601
0.0956408
0.0673286
0.0602644
0.0548636
0.0513337
0.0490577
0.0476306
0.0467085
0.0460358
0.0454464
0.0448434
0.044177
0.0434265
0.0425886
0.0416698
0.0406808
0.0396344
0.0385428
0.0374172
0.0362668
0.0350993
0.0339203
0.0327341
0.0315437
0.0303511
0.0291574
0.0279633
0.0267691
0.0255749
0.0243807
0.0231864
0.0219918
0.0207969
0.0196017
0.018406
0.01721
0.0160135
0.0148168
0.0136197
0.0124226
0.0112256
0.0100293
0.00883436
0.00764137
0.00645024
0.00526005
0.00407289
0.00290744
0.00182437
0.000948041
0.000446494
0.355151
0.3026
0.260083
0.229705
0.21059
0.20079
0.197376
0.197807
0.200405
0.203793
0.207151
0.209979
0.212316
0.214181
0.215728
0.217124
0.218563
0.220236
0.222359
0.225075
0.228352
0.23196
0.235502
0.238406
0.239892
0.23961
0.236713
0.230673
0.22107
0.207155
0.189037
0.16674
0.141201
0.113602
0.0869397
0.0684305
0.0597624
0.0545292
0.051403
0.0496155
0.048565
0.0478474
0.0472265
0.0465785
0.0458468
0.0450128
0.044078
0.043054
0.0419566
0.0408021
0.0396059
0.0383811
0.0371383
0.0358858
0.0346294