0.010101 	-5.61773e-10 	5.81113e-13 	-5.48461e-12
0.020202 	-2.11495e-11 	5.38027e-14 	-3.10274e-13
