0 	3.62956e-21 	0 	5.44434e-21
0.010101 	1.09951e-20 	2.96337e-23 	1.22677e-20
0.020202 	-8.0199e-21 	-3.80822e-23 	-7.39927e-21
0.030303 	-2.11708e-21 	-2.12908e-26 	-5.51709e-21
0.040404 	2.56347e-21 	1.69183e-23 	-4.42149e-21
0.0505051 	-1.11643e-21 	4.24555e-24 	-8.45522e-21
