/*--------------------------------*- C++ -*----------------------------------*\
  =========                 |
  \\      /  F ield         | OpenFOAM: The Open Source CFD Toolbox
   \\    /   O peration     | Website:  https://openfoam.org
    \\  /    A nd           | Version:  6
     \\/     M anipulation  |
\*---------------------------------------------------------------------------*/
FoamFile
{
    version     2.0;
    format      ascii;
    class       volScalarField;
    location    "60";
    object      T;
}
// * * * * * * * * * * * * * * * * * * * * * * * * * * * * * * * * * * * * * //

dimensions      [0 0 0 1 0 0 0];

internalField   nonuniform List<scalar> 
5964
(
310.24
308.801
307.539
306.437
305.415
304.412
304.367
304.33
304.287
304.235
304.176
304.112
304.044
303.974
303.904
303.832
303.76
303.688
303.617
303.545
303.474
303.403
303.333
303.263
303.195
303.127
303.06
302.995
302.93
302.867
302.806
302.745
302.686
302.629
302.573
302.519
302.466
302.415
302.365
302.317
302.27
302.225
302.181
302.139
302.099
302.06
302.022
301.986
301.951
301.918
301.885
301.855
301.825
301.797
301.77
301.745
301.72
301.697
301.675
301.654
301.634
301.615
301.597
301.58
301.564
301.549
301.535
301.522
301.51
301.499
301.488
301.479
301.47
301.462
301.455
301.448
301.443
301.438
301.434
301.43
301.427
301.425
301.424
301.423
310.25
308.834
307.583
306.474
305.419
304.353
304.346
304.326
304.289
304.238
304.178
304.113
304.045
303.975
303.904
303.832
303.76
303.688
303.617
303.545
303.474
303.403
303.333
303.263
303.195
303.127
303.06
302.995
302.93
302.867
302.806
302.745
302.686
302.629
302.573
302.519
302.466
302.415
302.365
302.317
302.27
302.225
302.181
302.139
302.099
302.06
302.022
301.986
301.951
301.917
301.885
301.855
301.825
301.797
301.77
301.745
301.72
301.697
301.675
301.654
301.634
301.615
301.597
301.58
301.564
301.549
301.535
301.522
301.51
301.499
301.488
301.479
301.47
301.462
301.455
301.448
301.443
301.438
301.434
301.43
301.427
301.425
301.424
301.423
310.274
308.896
307.659
306.537
305.433
304.204
304.322
304.33
304.297
304.244
304.183
304.116
304.046
303.976
303.904
303.832
303.761
303.689
303.617
303.545
303.474
303.403
303.333
303.264
303.195
303.127
303.06
302.995
302.931
302.867
302.806
302.745
302.687
302.629
302.573
302.519
302.466
302.415
302.365
302.317
302.27
302.225
302.181
302.139
302.099
302.06
302.022
301.986
301.951
301.917
301.885
301.855
301.825
301.797
301.77
301.745
301.72
301.697
301.675
301.654
301.634
301.615
301.597
301.58
301.564
301.549
301.535
301.522
301.51
301.499
301.488
301.479
301.47
301.462
301.455
301.448
301.443
301.438
301.434
301.43
301.427
301.425
301.424
301.423
310.3
308.964
307.746
306.612
305.501
304.474
304.383
304.359
304.315
304.256
304.19
304.12
304.049
303.977
303.905
303.833
303.761
303.689
303.617
303.545
303.474
303.403
303.333
303.264
303.195
303.127
303.061
302.995
302.931
302.868
302.806
302.745
302.687
302.629
302.573
302.519
302.466
302.415
302.365
302.317
302.27
302.225
302.181
302.139
302.099
302.06
302.022
301.986
301.951
301.917
301.885
301.855
301.825
301.797
301.77
301.745
301.72
301.697
301.675
301.654
301.634
301.615
301.597
301.58
301.564
301.549
301.535
301.522
301.51
301.499
301.488
301.479
301.47
301.462
301.455
301.448
301.443
301.438
301.433
301.43
301.427
301.425
301.424
301.423
310.329
309.041
307.852
306.725
305.547
304.183
304.391
304.396
304.342
304.272
304.199
304.125
304.051
303.978
303.905
303.833
303.761
303.689
303.617
303.546
303.474
303.404
303.333
303.264
303.195
303.127
303.061
302.995
302.931
302.868
302.806
302.745
302.687
302.629
302.573
302.519
302.466
302.415
302.365
302.317
302.27
302.225
302.181
302.139
302.099
302.06
302.022
301.986
301.951
301.917
301.885
301.855
301.825
301.797
301.77
301.745
301.72
301.697
301.675
301.654
301.634
301.615
301.597
301.58
301.564
301.549
301.535
301.522
301.51
301.499
301.488
301.479
301.47
301.462
301.455
301.448
301.443
301.438
301.433
301.43
301.427
301.425
301.424
301.423
310.357
309.117
307.965
306.878
305.79
304.623
304.571
304.477
304.38
304.291
304.208
304.129
304.053
303.979
303.906
303.833
303.761
303.689
303.617
303.546
303.475
303.404
303.334
303.264
303.195
303.128
303.061
302.995
302.931
302.868
302.806
302.746
302.687
302.629
302.573
302.519
302.466
302.415
302.365
302.317
302.27
302.225
302.181
302.139
302.099
302.06
302.022
301.986
301.951
301.917
301.885
301.855
301.825
301.797
301.77
301.745
301.72
301.697
301.675
301.654
301.634
301.615
301.597
301.58
301.564
301.549
301.535
301.522
301.51
301.499
301.488
301.479
301.47
301.462
301.455
301.448
301.443
301.438
301.433
301.43
301.427
301.425
301.424
301.423
310.382
309.183
308.065
307.024
306.046
305.2
304.784
304.557
304.412
304.304
304.213
304.131
304.054
303.979
303.906
303.833
303.761
303.689
303.618
303.546
303.475
303.404
303.334
303.265
303.196
303.128
303.061
302.995
302.931
302.868
302.806
302.746
302.687
302.629
302.573
302.519
302.466
302.415
302.365
302.317
302.27
302.225
302.181
302.139
302.099
302.06
302.022
301.986
301.951
301.917
301.885
301.855
301.825
301.797
301.77
301.745
301.72
301.697
301.675
301.654
301.634
301.615
301.597
301.58
301.564
301.549
301.535
301.522
301.51
301.499
301.488
301.479
301.47
301.462
301.455
301.448
301.443
301.438
301.433
301.43
301.427
301.425
301.424
301.423
310.4
309.233
308.14
307.127
306.198
305.398
304.822
304.566
304.415
304.304
304.213
304.13
304.053
303.979
303.906
303.833
303.761
303.69
303.618
303.547
303.476
303.405
303.335
303.265
303.196
303.128
303.061
302.996
302.931
302.868
302.806
302.746
302.687
302.629
302.573
302.519
302.466
302.415
302.365
302.317
302.27
302.225
302.181
302.139
302.099
302.06
302.022
301.986
301.951
301.918
301.885
301.855
301.825
301.797
301.77
301.745
301.72
301.697
301.675
301.654
301.634
301.615
301.597
301.58
301.564
301.549
301.535
301.522
301.51
301.499
301.488
301.479
301.47
301.462
301.455
301.448
301.443
301.438
301.433
301.43
301.427
301.425
301.424
301.423
310.413
309.268
308.193
307.19
306.257
305.401
304.567
304.486
304.385
304.291
304.206
304.127
304.051
303.978
303.905
303.833
303.762
303.69
303.619
303.547
303.476
303.405
303.335
303.265
303.196
303.128
303.062
302.996
302.931
302.868
302.806
302.746
302.687
302.629
302.573
302.519
302.466
302.415
302.365
302.317
302.27
302.225
302.181
302.139
302.099
302.06
302.022
301.986
301.951
301.918
301.885
301.855
301.825
301.797
301.77
301.745
301.72
301.697
301.675
301.654
301.634
301.615
301.597
301.58
301.564
301.549
301.535
301.522
301.51
301.499
301.488
301.479
301.47
301.462
301.455
301.448
301.443
301.438
301.433
301.43
301.427
301.425
301.424
301.423
310.419
309.285
308.217
307.213
306.27
305.38
304.481
304.428
304.354
304.275
304.197
304.122
304.049
303.977
303.905
303.834
303.762
303.691
303.619
303.548
303.477
303.406
303.336
303.266
303.197
303.129
303.062
302.996
302.931
302.868
302.806
302.746
302.687
302.629
302.573
302.519
302.466
302.415
302.365
302.317
302.27
302.225
302.181
302.139
302.099
302.06
302.022
301.986
301.951
301.918
301.885
301.855
301.825
301.797
301.77
301.745
301.72
301.697
301.675
301.654
301.634
301.615
301.597
301.58
301.564
301.549
301.535
301.522
301.51
301.499
301.488
301.479
301.47
301.462
301.455
301.448
301.443
301.438
301.433
301.43
301.427
301.425
301.424
301.423
310.42
309.289
308.22
307.213
306.265
305.361
304.447
304.395
304.331
304.261
304.19
304.118
304.047
303.976
303.905
303.834
303.763
303.692
303.62
303.549
303.478
303.407
303.336
303.266
303.197
303.129
303.062
302.996
302.931
302.868
302.806
302.746
302.687
302.629
302.573
302.519
302.466
302.415
302.365
302.317
302.27
302.225
302.181
302.139
302.099
302.06
302.022
301.986
301.951
301.918
301.885
301.855
301.825
301.797
301.77
301.745
301.72
301.697
301.675
301.654
301.634
301.615
301.597
301.58
301.564
301.549
301.535
301.522
301.51
301.499
301.488
301.479
301.47
301.462
301.455
301.448
301.443
301.438
301.433
301.43
301.427
301.425
301.424
301.423
310.421
309.291
308.218
307.208
306.26
305.353
304.434
304.38
304.318
304.253
304.185
304.117
304.047
303.977
303.907
303.836
303.765
303.693
303.622
303.55
303.478
303.407
303.337
303.267
303.198
303.129
303.062
302.996
302.932
302.868
302.806
302.746
302.687
302.629
302.573
302.519
302.466
302.415
302.365
302.317
302.27
302.225
302.181
302.139
302.099
302.06
302.022
301.986
301.951
301.918
301.885
301.855
301.825
301.797
301.77
301.745
301.72
301.697
301.675
301.654
301.634
301.615
301.597
301.58
301.564
301.549
301.535
301.522
301.51
301.499
301.488
301.479
301.47
301.462
301.455
301.448
301.443
301.438
301.433
301.43
301.427
301.425
301.424
301.423
310.425
309.297
308.22
307.212
306.267
305.357
304.433
304.377
304.316
304.252
304.186
304.118
304.049
303.98
303.909
303.838
303.767
303.695
303.623
303.551
303.48
303.408
303.337
303.267
303.198
303.13
303.062
302.996
302.932
302.868
302.806
302.746
302.687
302.629
302.573
302.519
302.466
302.415
302.365
302.317
302.27
302.225
302.181
302.139
302.099
302.06
302.022
301.986
301.951
301.918
301.886
301.855
301.825
301.797
301.77
301.745
301.72
301.697
301.675
301.654
301.634
301.615
301.597
301.58
301.564
301.549
301.535
301.522
301.51
301.499
301.488
301.479
301.47
301.462
301.455
301.448
301.443
301.438
301.433
301.43
301.427
301.425
301.424
301.423
310.425
309.298
308.224
307.222
306.28
305.37
304.442
304.384
304.322
304.258
304.191
304.123
304.054
303.984
303.913
303.842
303.77
303.697
303.625
303.553
303.481
303.409
303.338
303.268
303.198
303.13
303.062
302.996
302.932
302.868
302.806
302.746
302.687
302.629
302.573
302.519
302.466
302.415
302.365
302.317
302.27
302.225
302.181
302.139
302.099
302.06
302.022
301.986
301.951
301.918
301.886
301.855
301.825
301.797
301.77
301.745
301.72
301.697
301.675
301.654
301.634
301.615
301.597
301.58
301.564
301.549
301.535
301.522
301.51
301.499
301.488
301.479
301.47
301.462
301.455
301.448
301.443
301.438
301.434
301.43
301.427
301.425
301.424
301.423
310.427
309.302
308.229
307.229
306.293
305.387
304.465
304.401
304.337
304.27
304.202
304.132
304.062
303.99
303.918
303.846
303.773
303.7
303.627
303.554
303.482
303.41
303.339
303.268
303.198
303.13
303.062
302.996
302.932
302.868
302.806
302.746
302.687
302.629
302.573
302.519
302.466
302.415
302.365
302.317
302.27
302.225
302.181
302.139
302.099
302.06
302.022
301.986
301.951
301.918
301.886
301.855
301.825
301.797
301.77
301.745
301.72
301.697
301.675
301.654
301.634
301.615
301.597
301.58
301.564
301.549
301.535
301.522
301.51
301.499
301.488
301.479
301.47
301.462
301.455
301.448
301.443
301.438
301.434
301.43
301.427
301.425
301.424
301.423
310.425
309.299
308.234
307.249
306.324
305.42
304.491
304.426
304.359
304.289
304.218
304.145
304.072
303.999
303.925
303.851
303.777
303.704
303.63
303.556
303.483
303.411
303.339
303.268
303.199
303.13
303.062
302.996
302.931
302.868
302.806
302.745
302.686
302.629
302.573
302.519
302.466
302.414
302.365
302.317
302.27
302.225
302.181
302.139
302.099
302.06
302.022
301.986
301.951
301.918
301.886
301.855
301.825
301.797
301.77
301.745
301.72
301.697
301.675
301.654
301.634
301.615
301.597
301.58
301.564
301.549
301.535
301.522
301.51
301.499
301.488
301.479
301.47
301.462
301.455
301.448
301.443
301.438
301.434
301.43
301.427
301.425
301.424
301.423
310.428
309.312
308.262
307.293
306.376
305.469
304.527
304.461
304.39
304.315
304.238
304.162
304.085
304.009
303.933
303.858
303.782
303.707
303.632
303.558
303.485
303.412
303.34
303.269
303.199
303.13
303.062
302.996
302.931
302.868
302.806
302.745
302.686
302.629
302.573
302.518
302.466
302.414
302.365
302.317
302.27
302.225
302.181
302.139
302.099
302.06
302.022
301.986
301.951
301.918
301.886
301.855
301.825
301.797
301.77
301.745
301.72
301.697
301.675
301.654
301.634
301.615
301.597
301.58
301.564
301.549
301.535
301.522
301.51
301.499
301.488
301.479
301.47
301.462
301.455
301.448
301.443
301.438
301.434
301.43
301.427
301.425
301.424
301.423
310.433
309.328
308.292
307.338
306.432
305.53
304.577
304.509
304.43
304.346
304.263
304.181
304.1
304.021
303.942
303.864
303.787
303.711
303.635
303.56
303.486
303.413
303.34
303.269
303.199
303.13
303.062
302.996
302.931
302.867
302.805
302.745
302.686
302.628
302.572
302.518
302.465
302.414
302.365
302.316
302.27
302.225
302.181
302.139
302.099
302.06
302.022
301.986
301.951
301.918
301.886
301.855
301.825
301.797
301.77
301.745
301.72
301.697
301.675
301.654
301.634
301.615
301.597
301.58
301.564
301.549
301.535
301.522
301.51
301.499
301.488
301.479
301.47
301.462
301.455
301.448
301.443
301.438
301.434
301.43
301.427
301.425
301.424
301.423
310.445
309.362
308.347
307.412
306.516
305.616
304.653
304.574
304.479
304.384
304.291
304.202
304.117
304.033
303.952
303.872
303.793
303.715
303.638
303.562
303.487
303.413
303.34
303.269
303.198
303.129
303.061
302.995
302.93
302.867
302.805
302.744
302.685
302.628
302.572
302.518
302.465
302.414
302.364
302.316
302.27
302.225
302.181
302.139
302.099
302.06
302.022
301.986
301.951
301.918
301.886
301.855
301.826
301.797
301.77
301.745
301.72
301.697
301.675
301.654
301.634
301.615
301.597
301.58
301.564
301.549
301.535
301.522
301.51
301.499
301.488
301.479
301.47
301.462
301.455
301.448
301.443
301.438
301.434
301.43
301.427
301.425
301.424
301.423
310.457
309.401
308.408
307.486
306.597
305.717
304.78
304.66
304.535
304.423
304.32
304.224
304.133
304.046
303.961
303.879
303.798
303.719
303.641
303.564
303.488
303.414
303.34
303.269
303.198
303.129
303.061
302.994
302.929
302.866
302.804
302.744
302.685
302.628
302.572
302.518
302.465
302.414
302.364
302.316
302.27
302.225
302.181
302.139
302.099
302.06
302.022
301.986
301.951
301.918
301.886
301.855
301.826
301.797
301.771
301.745
301.72
301.697
301.675
301.654
301.634
301.615
301.597
301.58
301.564
301.549
301.535
301.522
301.51
301.499
301.489
301.479
301.47
301.462
301.455
301.448
301.443
301.438
301.434
301.43
301.427
301.425
301.424
301.423
310.474
309.448
308.479
307.569
306.681
305.818
305.045
304.755
304.588
304.459
304.347
304.245
304.149
304.058
303.97
303.886
303.803
303.722
303.643
303.565
303.489
303.414
303.34
303.268
303.197
303.128
303.06
302.994
302.929
302.865
302.803
302.743
302.684
302.627
302.571
302.517
302.465
302.414
302.364
302.316
302.27
302.225
302.181
302.139
302.099
302.06
302.022
301.986
301.951
301.918
301.886
301.855
301.826
301.797
301.771
301.745
301.72
301.697
301.675
301.654
301.634
301.615
301.597
301.58
301.564
301.549
301.535
301.522
301.51
301.499
301.489
301.479
301.47
301.462
301.455
301.448
301.443
301.438
301.434
301.43
301.427
301.425
301.424
301.423
310.489
309.494
308.552
307.652
306.749
305.833
304.876
304.75
304.613
304.486
304.37
304.264
304.164
304.069
303.979
303.892
303.807
303.725
303.645
303.566
303.489
303.414
303.34
303.267
303.196
303.127
303.059
302.992
302.928
302.864
302.803
302.742
302.684
302.626
302.571
302.517
302.464
302.413
302.364
302.316
302.269
302.225
302.181
302.139
302.099
302.06
302.022
301.986
301.951
301.918
301.886
301.855
301.826
301.798
301.771
301.745
301.72
301.697
301.675
301.654
301.634
301.615
301.597
301.58
301.564
301.549
301.536
301.522
301.51
301.499
301.489
301.479
301.47
301.462
301.455
301.448
301.443
301.438
301.434
301.43
301.427
301.425
301.424
301.423
310.501
309.532
308.617
307.729
306.818
305.875
304.86
304.763
304.636
304.509
304.39
304.28
304.176
304.079
303.986
303.897
303.811
303.727
303.646
303.566
303.489
303.413
303.339
303.266
303.195
303.126
303.058
302.991
302.926
302.863
302.802
302.741
302.683
302.626
302.57
302.516
302.464
302.413
302.364
302.316
302.269
302.224
302.181
302.139
302.099
302.06
302.022
301.986
301.951
301.918
301.886
301.855
301.826
301.798
301.771
301.745
301.72
301.697
301.675
301.654
301.634
301.615
301.597
301.58
301.564
301.55
301.536
301.522
301.51
301.499
301.489
301.479
301.47
301.462
301.455
301.448
301.443
301.438
301.434
301.43
301.427
301.425
301.424
301.423
310.51
309.561
308.669
307.796
306.891
305.951
304.943
304.812
304.667
304.531
304.407
304.293
304.187
304.087
303.992
303.901
303.813
303.729
303.646
303.566
303.488
303.412
303.337
303.264
303.193
303.124
303.056
302.99
302.925
302.862
302.8
302.74
302.682
302.625
302.57
302.516
302.463
302.413
302.363
302.315
302.269
302.224
302.181
302.139
302.099
302.06
302.022
301.986
301.951
301.918
301.886
301.855
301.826
301.798
301.771
301.745
301.721
301.697
301.675
301.654
301.634
301.615
301.597
301.58
301.564
301.55
301.536
301.522
301.51
301.499
301.489
301.479
301.47
301.462
301.455
301.448
301.443
301.438
301.434
301.43
301.427
301.425
301.424
301.423
310.519
309.582
308.696
307.822
306.92
306.012
305.193
304.882
304.696
304.55
304.421
304.304
304.195
304.093
303.996
303.904
303.815
303.729
303.646
303.565
303.487
303.41
303.335
303.263
303.191
303.122
303.054
302.988
302.923
302.861
302.799
302.739
302.681
302.624
302.569
302.515
302.463
302.412
302.363
302.315
302.269
302.224
302.181
302.139
302.099
302.06
302.022
301.986
301.951
301.918
301.886
301.855
301.826
301.798
301.771
301.745
301.721
301.697
301.675
301.654
301.634
301.615
301.597
301.58
301.564
301.55
301.536
301.523
301.51
301.499
301.489
301.479
301.47
301.462
301.455
301.449
301.443
301.438
301.434
301.43
301.427
301.425
301.424
301.423
310.521
309.584
308.695
307.823
306.92
305.977
304.989
304.851
304.7
304.56
304.431
304.312
304.201
304.097
303.999
303.905
303.815
303.729
303.645
303.564
303.485
303.408
303.333
303.26
303.189
303.12
303.052
302.986
302.922
302.859
302.798
302.738
302.68
302.623
302.568
302.514
302.462
302.412
302.363
302.315
302.269
302.224
302.181
302.139
302.099
302.06
302.022
301.986
301.951
301.918
301.886
301.855
301.826
301.798
301.771
301.745
301.721
301.697
301.675
301.654
301.634
301.615
301.597
301.58
301.565
301.55
301.536
301.523
301.51
301.499
301.489
301.479
301.47
301.462
301.455
301.449
301.443
301.438
301.434
301.43
301.427
301.425
301.424
301.423
310.52
309.575
308.669
307.784
306.881
305.945
304.94
304.839
304.704
304.567
304.437
304.317
304.205
304.099
304
303.905
303.814
303.727
303.643
303.561
303.482
303.405
303.33
303.257
303.186
303.117
303.05
302.984
302.92
302.857
302.796
302.737
302.679
302.622
302.567
302.514
302.462
302.411
302.362
302.315
302.268
302.224
302.181
302.139
302.099
302.06
302.022
301.986
301.952
301.918
301.886
301.855
301.826
301.798
301.771
301.745
301.721
301.697
301.675
301.654
301.634
301.615
301.597
301.58
301.565
301.55
301.536
301.523
301.51
301.499
301.489
301.479
301.47
301.462
301.455
301.449
301.443
301.438
301.434
301.43
301.427
301.425
301.424
301.423
310.515
309.55
308.604
307.697
306.812
305.928
304.983
304.865
304.718
304.576
304.443
304.32
304.206
304.099
303.999
303.903
303.812
303.724
303.64
303.558
303.479
303.402
303.327
303.254
303.183
303.114
303.047
302.982
302.918
302.855
302.794
302.735
302.677
302.621
302.566
302.513
302.461
302.411
302.362
302.314
302.268
302.224
302.181
302.139
302.099
302.06
302.022
301.986
301.952
301.918
301.886
301.855
301.826
301.798
301.771
301.745
301.721
301.697
301.675
301.654
301.634
301.615
301.597
301.581
301.565
301.55
301.536
301.523
301.51
301.499
301.489
301.479
301.47
301.462
301.455
301.449
301.443
301.438
301.434
301.43
301.427
301.425
301.424
301.423
310.505
309.512
308.519
307.582
306.716
305.921
305.2
304.925
304.741
304.585
304.446
304.32
304.204
304.097
303.996
303.9
303.808
303.72
303.636
303.554
303.475
303.398
303.323
303.251
303.18
303.111
303.044
302.979
302.915
302.853
302.793
302.733
302.676
302.62
302.565
302.512
302.46
302.41
302.361
302.314
302.268
302.223
302.18
302.139
302.099
302.06
302.022
301.986
301.952
301.918
301.886
301.856
301.826
301.798
301.771
301.745
301.721
301.698
301.675
301.654
301.634
301.615
301.597
301.581
301.565
301.55
301.536
301.523
301.51
301.499
301.489
301.479
301.47
301.462
301.455
301.449
301.443
301.438
301.434
301.43
301.427
301.425
301.424
301.423
310.492
309.464
308.425
307.465
306.615
305.846
305.009
304.913
304.749
304.589
304.446
304.317
304.2
304.092
303.991
303.895
303.803
303.715
303.631
303.549
303.47
303.393
303.319
303.247
303.176
303.108
303.041
302.976
302.913
302.851
302.791
302.732
302.674
302.619
302.564
302.511
302.46
302.41
302.361
302.314
302.268
302.223
302.18
302.139
302.099
302.06
302.022
301.986
301.952
301.918
301.886
301.856
301.826
301.798
301.771
301.745
301.721
301.698
301.675
301.654
301.634
301.615
301.598
301.581
301.565
301.55
301.536
301.523
301.511
301.499
301.489
301.479
301.47
301.462
301.455
301.449
301.443
301.438
301.434
301.43
301.427
301.425
301.424
301.423
310.472
309.402
308.321
307.34
306.514
305.816
305.175
304.951
304.761
304.59
304.441
304.311
304.193
304.085
303.984
303.888
303.797
303.709
303.625
303.543
303.464
303.388
303.314
303.242
303.172
303.104
303.038
302.973
302.91
302.848
302.788
302.73
302.673
302.617
302.563
302.51
302.459
302.409
302.36
302.313
302.267
302.223
302.18
302.139
302.098
302.06
302.022
301.986
301.952
301.918
301.886
301.856
301.826
301.798
301.771
301.746
301.721
301.698
301.676
301.654
301.634
301.615
301.598
301.581
301.565
301.55
301.536
301.523
301.511
301.499
301.489
301.479
301.47
301.462
301.455
301.449
301.443
301.438
301.434
301.43
301.427
301.425
301.424
301.423
310.451
309.347
308.251
307.266
306.445
305.718
304.821
304.892
304.75
304.581
304.431
304.3
304.183
304.076
303.975
303.88
303.789
303.702
303.618
303.537
303.458
303.382
303.309
303.237
303.168
303.1
303.034
302.97
302.907
302.846
302.786
302.728
302.671
302.616
302.562
302.509
302.458
302.408
302.36
302.313
302.267
302.223
302.18
302.139
302.098
302.06
302.022
301.986
301.952
301.919
301.887
301.856
301.826
301.798
301.771
301.746
301.721
301.698
301.676
301.654
301.634
301.616
301.598
301.581
301.565
301.55
301.536
301.523
301.511
301.499
301.489
301.479
301.47
301.462
301.455
301.449
301.443
301.438
301.434
301.43
301.427
301.425
301.424
301.423
310.434
309.3
308.197
307.219
306.404
305.687
304.805
304.871
304.729
304.562
304.414
304.285
304.17
304.064
303.965
303.87
303.78
303.693
303.61
303.53
303.452
303.376
303.303
303.232
303.163
303.096
303.03
302.966
302.904
302.843
302.784
302.726
302.67
302.615
302.561
302.508
302.457
302.408
302.359
302.312
302.267
302.223
302.18
302.138
302.098
302.06
302.022
301.986
301.952
301.919
301.887
301.856
301.827
301.798
301.771
301.746
301.721
301.698
301.676
301.655
301.635
301.616
301.598
301.581
301.565
301.55
301.536
301.523
301.511
301.499
301.489
301.479
301.47
301.462
301.455
301.449
301.443
301.438
301.434
301.43
301.427
301.425
301.424
301.423
310.423
309.279
308.182
307.201
306.375
305.698
305.138
304.893
304.698
304.532
304.39
304.266
304.155
304.051
303.953
303.86
303.77
303.684
303.602
303.522
303.445
303.37
303.297
303.227
303.158
303.091
303.026
302.963
302.901
302.841
302.782
302.724
302.668
302.613
302.56
302.507
302.456
302.407
302.359
302.312
302.267
302.222
302.18
302.138
302.098
302.06
302.022
301.987
301.952
301.919
301.887
301.856
301.827
301.799
301.772
301.746
301.721
301.698
301.676
301.655
301.635
301.616
301.598
301.581
301.565
301.55
301.536
301.523
301.511
301.499
301.489
301.479
301.47
301.462
301.455
301.449
301.443
301.438
301.434
301.43
301.427
301.425
301.424
301.423
310.413
309.255
308.153
307.17
306.325
305.609
305.059
304.812
304.638
304.491
304.362
304.245
304.137
304.036
303.94
303.848
303.76
303.675
303.593
303.514
303.437
303.363
303.291
303.221
303.153
303.087
303.022
302.959
302.898
302.838
302.779
302.722
302.666
302.612
302.558
302.506
302.456
302.406
302.358
302.312
302.266
302.222
302.18
302.138
302.098
302.06
302.023
301.987
301.952
301.919
301.887
301.856
301.827
301.799
301.772
301.746
301.721
301.698
301.676
301.655
301.635
301.616
301.598
301.581
301.565
301.55
301.536
301.523
301.511
301.499
301.489
301.479
301.47
301.462
301.455
301.449
301.443
301.438
301.434
301.43
301.427
301.425
301.424
301.423
310.407
309.241
308.136
307.141
306.273
305.491
304.678
304.666
304.566
304.448
304.333
304.223
304.12
304.021
303.927
303.836
303.749
303.665
303.584
303.505
303.429
303.356
303.285
303.215
303.148
303.082
303.018
302.956
302.895
302.835
302.777
302.72
302.665
302.61
302.557
302.505
302.455
302.406
302.358
302.311
302.266
302.222
302.179
302.138
302.098
302.06
302.023
301.987
301.952
301.919
301.887
301.856
301.827
301.799
301.772
301.746
301.722
301.698
301.676
301.655
301.635
301.616
301.598
301.581
301.565
301.55
301.536
301.523
301.511
301.499
301.489
301.479
301.471
301.462
301.455
301.449
301.443
301.438
301.434
301.43
301.428
301.425
301.424
301.423
310.399
309.216
308.1
307.103
306.238
305.457
304.623
304.611
304.522
304.416
304.308
304.203
304.103
304.006
303.913
303.824
303.738
303.654
303.574
303.497
303.422
303.349
303.278
303.21
303.143
303.078
303.014
302.952
302.892
302.833
302.775
302.718
302.663
302.609
302.556
302.504
302.454
302.405
302.357
302.311
302.266
302.222
302.179
302.138
302.098
302.06
302.023
301.987
301.952
301.919
301.887
301.856
301.827
301.799
301.772
301.746
301.722
301.698
301.676
301.655
301.635
301.616
301.598
301.581
301.565
301.55
301.536
301.523
301.511
301.5
301.489
301.479
301.471
301.463
301.455
301.449
301.443
301.438
301.434
301.43
301.428
301.425
301.424
301.423
310.385
309.175
308.041
307.045
306.201
305.469
304.846
304.635
304.507
304.395
304.289
304.186
304.087
303.992
303.9
303.812
303.727
303.644
303.565
303.488
303.414
303.342
303.272
303.204
303.138
303.073
303.01
302.949
302.889
302.83
302.773
302.716
302.661
302.607
302.555
302.503
302.453
302.404
302.357
302.311
302.265
302.222
302.179
302.138
302.098
302.06
302.023
301.987
301.952
301.919
301.887
301.857
301.827
301.799
301.772
301.746
301.722
301.698
301.676
301.655
301.635
301.616
301.598
301.581
301.565
301.55
301.536
301.523
301.511
301.5
301.489
301.479
301.471
301.463
301.455
301.449
301.443
301.438
301.434
301.43
301.428
301.425
301.424
301.423
310.365
309.118
307.963
306.978
306.16
305.424
304.699
304.597
304.486
304.378
304.273
304.172
304.074
303.979
303.888
303.801
303.716
303.635
303.556
303.48
303.406
303.335
303.266
303.198
303.133
303.069
303.007
302.946
302.886
302.828
302.77
302.714
302.66
302.606
302.554
302.503
302.453
302.404
302.356
302.31
302.265
302.222
302.179
302.138
302.098
302.06
302.023
301.987
301.952
301.919
301.887
301.857
301.827
301.799
301.772
301.746
301.722
301.699
301.676
301.655
301.635
301.616
301.598
301.581
301.565
301.55
301.536
301.523
301.511
301.5
301.489
301.479
301.471
301.463
301.455
301.449
301.443
301.438
301.434
301.43
301.428
301.425
301.424
301.423
310.345
309.064
307.904
306.942
306.143
305.412
304.655
304.571
304.47
304.365
304.261
304.16
304.063
303.968
303.878
303.79
303.706
303.625
303.547
303.472
303.399
303.329
303.26
303.193
303.128
303.065
303.003
302.942
302.883
302.825
302.768
302.713
302.658
302.605
302.553
302.502
302.452
302.403
302.356
302.31
302.265
302.221
302.179
302.138
302.098
302.06
302.023
301.987
301.953
301.919
301.887
301.857
301.827
301.799
301.772
301.747
301.722
301.699
301.676
301.655
301.635
301.616
301.598
301.581
301.565
301.55
301.536
301.523
301.511
301.5
301.489
301.48
301.471
301.463
301.455
301.449
301.443
301.438
301.434
301.43
301.428
301.425
301.424
301.423
310.326
309.023
307.873
306.943
306.171
305.442
304.655
304.566
304.464
304.359
304.254
304.152
304.054
303.959
303.869
303.781
303.698
303.617
303.54
303.465
303.393
303.323
303.255
303.188
303.124
303.061
303
302.94
302.881
302.823
302.767
302.711
302.657
302.604
302.552
302.501
302.451
302.403
302.356
302.31
302.265
302.221
302.179
302.138
302.098
302.06
302.023
301.987
301.953
301.92
301.888
301.857
301.828
301.799
301.773
301.747
301.722
301.699
301.677
301.655
301.635
301.616
301.598
301.581
301.565
301.55
301.536
301.523
301.511
301.5
301.489
301.48
301.471
301.463
301.455
301.449
301.443
301.438
301.434
301.43
301.428
301.426
301.424
301.423
310.315
309.012
307.889
307.002
306.244
305.508
304.68
304.578
304.47
304.36
304.253
304.148
304.048
303.953
303.861
303.774
303.69
303.61
303.533
303.459
303.387
303.317
303.25
303.184
303.12
303.058
302.997
302.937
302.878
302.821
302.765
302.71
302.656
302.603
302.551
302.5
302.451
302.403
302.355
302.309
302.265
302.221
302.179
302.138
302.099
302.06
302.023
301.987
301.953
301.92
301.888
301.857
301.828
301.8
301.773
301.747
301.722
301.699
301.677
301.656
301.635
301.616
301.598
301.582
301.566
301.551
301.536
301.523
301.511
301.5
301.489
301.48
301.471
301.463
301.455
301.449
301.443
301.438
301.434
301.43
301.428
301.426
301.424
301.423
310.323
309.046
307.961
307.118
306.365
305.605
304.724
304.605
304.485
304.369
304.256
304.148
304.046
303.949
303.856
303.768
303.684
303.604
303.527
303.453
303.382
303.313
303.246
303.18
303.117
303.055
302.994
302.935
302.876
302.819
302.763
302.708
302.655
302.602
302.55
302.5
302.45
302.402
302.355
302.309
302.265
302.221
302.179
302.138
302.099
302.06
302.023
301.988
301.953
301.92
301.888
301.857
301.828
301.8
301.773
301.747
301.722
301.699
301.677
301.656
301.636
301.617
301.599
301.582
301.566
301.551
301.537
301.523
301.511
301.5
301.489
301.48
301.471
301.463
301.455
301.449
301.443
301.438
301.434
301.43
301.428
301.426
301.424
301.423
310.34
309.109
308.074
307.268
306.512
305.718
304.781
304.642
304.509
304.383
304.264
304.152
304.046
303.947
303.853
303.764
303.68
303.6
303.523
303.449
303.378
303.309
303.242
303.177
303.114
303.052
302.992
302.933
302.875
302.818
302.762
302.707
302.654
302.601
302.55
302.499
302.45
302.402
302.355
302.309
302.265
302.221
302.179
302.138
302.099
302.06
302.023
301.988
301.953
301.92
301.888
301.857
301.828
301.8
301.773
301.747
301.723
301.699
301.677
301.656
301.636
301.617
301.599
301.582
301.566
301.551
301.537
301.523
301.511
301.5
301.489
301.48
301.471
301.463
301.456
301.449
301.443
301.438
301.434
301.43
301.428
301.426
301.424
301.423
310.369
309.198
308.216
307.439
306.673
305.838
304.848
304.688
304.54
304.403
304.276
304.159
304.05
303.948
303.852
303.762
303.678
303.597
303.52
303.446
303.375
303.306
303.24
303.175
303.112
303.05
302.99
302.931
302.873
302.817
302.761