/*--------------------------------*- C++ -*----------------------------------*\
  =========                 |
  \\      /  F ield         | OpenFOAM: The Open Source CFD Toolbox
   \\    /   O peration     | Website:  https://openfoam.org
    \\  /    A nd           | Version:  6
     \\/     M anipulation  |
\*---------------------------------------------------------------------------*/
FoamFile
{
    version     2.0;
    format      ascii;
    class       volVectorField;
    location    "60";
    object      U;
}
// * * * * * * * * * * * * * * * * * * * * * * * * * * * * * * * * * * * * * //

dimensions      [0 1 -1 0 0 0 0];

internalField   nonuniform List<vector> 
5964
(
(-0.00140484 0 4.73348e-05)
(-0.00265826 0 0.00101105)
(-0.00221787 0 -0.000636061)
(-0.00144233 0 -0.000435144)
(2.64179e-05 0 -0.000945804)
(4.28188e-09 0 2.78099e-06)
(2.89553e-09 0 1.13573e-09)
(5.20378e-09 0 5.48832e-10)
(4.27303e-09 0 3.22883e-10)
(3.69337e-09 0 2.18632e-10)
(3.28442e-09 0 1.62613e-10)
(2.97127e-09 0 1.28796e-10)
(2.71798e-09 0 1.06525e-10)
(2.50526e-09 0 9.08391e-11)
(2.32179e-09 0 7.91856e-11)
(2.1605e-09 0 7.01464e-11)
(2.01672e-09 0 6.28873e-11)
(1.88722e-09 0 5.68931e-11)
(1.76964e-09 0 5.18323e-11)
(1.66224e-09 0 4.7483e-11)
(1.56367e-09 0 4.36914e-11)
(1.47286e-09 0 4.03473e-11)
(1.38892e-09 0 3.73694e-11)
(1.31115e-09 0 3.46957e-11)
(1.23895e-09 0 3.2278e-11)
(1.17179e-09 0 3.00765e-11)
(1.10926e-09 0 2.80566e-11)
(1.051e-09 0 2.61825e-11)
(9.96724e-10 0 2.44023e-11)
(9.45932e-10 0 2.30168e-11)
(8.98107e-10 0 2.16924e-11)
(8.53093e-10 0 2.04484e-11)
(8.10707e-10 0 1.9287e-11)
(7.70766e-10 0 1.82048e-11)
(7.33096e-10 0 1.71967e-11)
(6.97536e-10 0 1.62574e-11)
(6.63938e-10 0 1.53817e-11)
(6.32162e-10 0 1.45649e-11)
(6.02083e-10 0 1.38024e-11)
(5.73582e-10 0 1.30904e-11)
(5.46553e-10 0 1.24249e-11)
(5.20894e-10 0 1.18028e-11)
(4.96516e-10 0 1.12208e-11)
(4.73331e-10 0 1.06762e-11)
(4.51263e-10 0 1.01663e-11)
(4.30238e-10 0 9.68874e-12)
(4.10189e-10 0 9.24139e-12)
(3.91053e-10 0 8.82222e-12)
(3.72772e-10 0 8.42937e-12)
(3.55293e-10 0 8.06116e-12)
(3.38564e-10 0 7.716e-12)
(3.22539e-10 0 7.39246e-12)
(3.07174e-10 0 7.0892e-12)
(2.92427e-10 0 6.80498e-12)
(2.7826e-10 0 6.53865e-12)
(2.64636e-10 0 6.28915e-12)
(2.51522e-10 0 6.05551e-12)
(2.38885e-10 0 5.83679e-12)
(2.26694e-10 0 5.63215e-12)
(2.14922e-10 0 5.44079e-12)
(2.0354e-10 0 5.26198e-12)
(1.92523e-10 0 5.09503e-12)
(1.81848e-10 0 4.93931e-12)
(1.7149e-10 0 4.79421e-12)
(1.61429e-10 0 4.6592e-12)
(1.51643e-10 0 4.53376e-12)
(1.42112e-10 0 4.41741e-12)
(1.32819e-10 0 4.30973e-12)
(1.23745e-10 0 4.2103e-12)
(1.14873e-10 0 4.11876e-12)
(1.06186e-10 0 4.03476e-12)
(9.76701e-11 0 3.95799e-12)
(8.93089e-11 0 3.88816e-12)
(8.10885e-11 0 3.82502e-12)
(7.29948e-11 0 3.76834e-12)
(6.50145e-11 0 3.71789e-12)
(5.71345e-11 0 3.6735e-12)
(4.93421e-11 0 3.63501e-12)
(4.16252e-11 0 3.60226e-12)
(3.39715e-11 0 3.57515e-12)
(2.63694e-11 0 3.55358e-12)
(1.8807e-11 0 3.53747e-12)
(1.1273e-11 0 3.52678e-12)
(3.75584e-12 0 3.52154e-12)
(-0.0015283 0 0.0021867)
(-0.00248098 0 0.000560987)
(-0.00188259 0 -0.000520328)
(-0.00149805 0 -0.00213461)
(5.62078e-05 0 -0.00154207)
(-6.82441e-07 0 1.99593e-05)
(2.34597e-09 0 2.31381e-09)
(4.44218e-09 0 1.32822e-09)
(3.96406e-09 0 8.60684e-10)
(3.54382e-09 0 6.12593e-10)
(3.20098e-09 0 4.67468e-10)
(2.91952e-09 0 3.75437e-10)
(2.68327e-09 0 3.13035e-10)
(2.48051e-09 0 2.68275e-10)
(2.30328e-09 0 2.34613e-10)
(2.14612e-09 0 2.08283e-10)
(2.0052e-09 0 1.87012e-10)
(1.87776e-09 0 1.69375e-10)
(1.76172e-09 0 1.54441e-10)
(1.65551e-09 0 1.41581e-10)
(1.55788e-09 0 1.30354e-10)
(1.46782e-09 0 1.20443e-10)
(1.3845e-09 0 1.1161e-10)
(1.30725e-09 0 1.03677e-10)
(1.23547e-09 0 9.64999e-11)
(1.16868e-09 0 8.99645e-11)
(1.10644e-09 0 8.39711e-11)
(1.04838e-09 0 7.8425e-11)
(9.94162e-10 0 7.3215e-11)
(9.43394e-10 0 6.90014e-11)
(8.95699e-10 0 6.50278e-11)
(8.50838e-10 0 6.1309e-11)
(8.08604e-10 0 5.78398e-11)
(7.68806e-10 0 5.46066e-11)
(7.3127e-10 0 5.15933e-11)
(6.95835e-10 0 4.8784e-11)
(6.62351e-10 0 4.61632e-11)
(6.30682e-10 0 4.3717e-11)
(6.007e-10 0 4.14323e-11)
(5.72291e-10 0 3.92973e-11)
(5.45346e-10 0 3.73012e-11)
(5.19766e-10 0 3.5434e-11)
(4.95459e-10 0 3.36867e-11)
(4.72343e-10 0 3.2051e-11)
(4.50337e-10 0 3.05192e-11)
(4.29371e-10 0 2.90844e-11)
(4.09376e-10 0 2.77402e-11)
(3.90291e-10 0 2.64805e-11)
(3.72058e-10 0 2.52999e-11)
(3.54624e-10 0 2.41933e-11)
(3.37937e-10 0 2.3156e-11)
(3.21951e-10 0 2.21838e-11)
(3.06623e-10 0 2.12726e-11)
(2.91911e-10 0 2.04187e-11)
(2.77776e-10 0 1.96186e-11)
(2.64183e-10 0 1.88692e-11)
(2.51098e-10 0 1.81674e-11)
(2.38488e-10 0 1.75106e-11)
(2.26323e-10 0 1.6896e-11)
(2.14575e-10 0 1.63214e-11)
(2.03216e-10 0 1.57846e-11)
(1.92221e-10 0 1.52833e-11)
(1.81566e-10 0 1.48158e-11)
(1.71228e-10 0 1.43802e-11)
(1.61185e-10 0 1.39749e-11)
(1.51416e-10 0 1.35983e-11)
(1.41902e-10 0 1.32491e-11)
(1.32625e-10 0 1.29258e-11)
(1.23566e-10 0 1.26274e-11)
(1.14708e-10 0 1.23526e-11)
(1.06036e-10 0 1.21004e-11)
(9.75327e-11 0 1.187e-11)
(8.91843e-11 0 1.16604e-11)
(8.09761e-11 0 1.14709e-11)
(7.28943e-11 0 1.13008e-11)
(6.49255e-11 0 1.11494e-11)
(5.70568e-11 0 1.10161e-11)
(4.92754e-11 0 1.09006e-11)
(4.15691e-11 0 1.08024e-11)
(3.39259e-11 0 1.0721e-11)
(2.6334e-11 0 1.06563e-11)
(1.87819e-11 0 1.06079e-11)
(1.12581e-11 0 1.05758e-11)
(3.75094e-12 0 1.05599e-11)
(-0.00164298 0 0.00350806)
(-0.00152868 0 0.00167437)
(-0.00139809 0 -0.000824604)
(-0.000714875 0 -0.00337785)
(0.00171385 0 -0.00207766)
(4.50021e-06 0 3.0231e-05)
(1.96619e-09 0 2.31122e-09)
(3.8422e-09 0 1.65126e-09)
(3.60329e-09 0 1.20484e-09)
(3.32616e-09 0 9.1537e-10)
(3.06368e-09 0 7.25029e-10)
(2.82819e-09 0 5.95461e-10)
(2.61927e-09 0 5.03511e-10)
(2.43352e-09 0 4.35471e-10)
(2.26735e-09 0 3.83155e-10)
(2.11768e-09 0 3.4157e-10)
(1.98206e-09 0 3.0758e-10)
(1.85849e-09 0 2.79156e-10)
(1.74539e-09 0 2.5494e-10)
(1.64146e-09 0 2.33993e-10)
(1.54564e-09 0 2.15647e-10)
(1.45706e-09 0 1.99411e-10)
(1.37496e-09 0 1.84916e-10)
(1.29872e-09 0 1.71879e-10)
(1.22781e-09 0 1.60074e-10)
(1.16174e-09 0 1.49319e-10)
(1.1001e-09 0 1.3946e-10)
(1.04254e-09 0 1.30362e-10)
(9.88702e-10 0 1.21897e-10)
(9.38262e-10 0 1.14788e-10)
(8.90895e-10 0 1.0816e-10)
(8.46355e-10 0 1.01981e-10)
(8.04424e-10 0 9.62236e-11)
(7.6491e-10 0 9.08592e-11)
(7.27637e-10 0 8.58588e-11)
(6.92446e-10 0 8.1195e-11)
(6.59187e-10 0 7.68425e-11)
(6.27727e-10 0 7.27781e-11)
(5.97939e-10 0 6.89805e-11)
(5.69709e-10 0 6.54302e-11)
(5.42931e-10 0 6.21098e-11)
(5.17506e-10 0 5.90028e-11)
(4.93344e-10 0 5.60946e-11)
(4.70362e-10 0 5.33714e-11)
(4.48482e-10 0 5.08209e-11)
(4.27632e-10 0 4.84316e-11)
(4.07747e-10 0 4.61927e-11)
(3.88765e-10 0 4.40946e-11)
(3.70628e-10 0 4.21281e-11)
(3.53283e-10 0 4.02849e-11)
(3.3668e-10 0 3.85573e-11)
(3.20773e-10 0 3.6938e-11)
(3.05519e-10 0 3.54204e-11)
(2.90876e-10 0 3.39983e-11)
(2.76807e-10 0 3.26659e-11)
(2.63276e-10 0 3.14179e-11)
(2.50248e-10 0 3.02493e-11)
(2.37693e-10 0 2.91556e-11)
(2.2558e-10 0 2.81324e-11)
(2.1388e-10 0 2.71757e-11)
(2.02567e-10 0 2.62818e-11)
(1.91615e-10 0 2.54473e-11)
(1.81001e-10 0 2.4669e-11)
(1.70702e-10 0 2.39438e-11)
(1.60696e-10 0 2.3269e-11)
(1.50962e-10 0 2.26422e-11)
(1.41482e-10 0 2.20608e-11)
(1.32236e-10 0 2.15226e-11)
(1.23208e-10 0 2.10258e-11)
(1.14379e-10 0 2.05684e-11)
(1.05734e-10 0 2.01486e-11)
(9.72576e-11 0 1.9765e-11)
(8.89348e-11 0 1.94162e-11)
(8.07513e-11 0 1.91007e-11)
(7.26933e-11 0 1.88175e-11)
(6.47476e-11 0 1.85654e-11)
(5.69013e-11 0 1.83437e-11)
(4.91417e-11 0 1.81514e-11)
(4.14568e-11 0 1.79879e-11)
(3.38346e-11 0 1.78525e-11)
(2.62634e-11 0 1.77448e-11)
(1.87316e-11 0 1.76643e-11)
(1.1228e-11 0 1.76109e-11)
(3.74092e-12 0 1.75842e-11)
(-0.00163851 0 0.00447229)
(-0.00129903 0 0.00188534)
(-0.00114375 0 -0.00110589)
(-0.00074745 0 -0.00383784)
(-0.00105195 0 -0.00286487)
(2.29476e-05 0 0.00166834)
(1.71538e-09 0 2.22073e-09)
(3.4056e-09 0 1.7865e-09)
(3.27536e-09 0 1.41118e-09)
(3.09551e-09 0 1.13123e-09)
(2.90274e-09 0 9.2942e-10)
(2.7136e-09 0 7.82672e-10)
(2.53507e-09 0 6.73221e-10)
(2.36949e-09 0 5.89087e-10)
(2.21707e-09 0 5.22494e-10)
(2.07709e-09 0 4.68393e-10)
(1.94851e-09 0 4.23451e-10)
(1.83022e-09 0 3.85417e-10)
(1.72119e-09 0 3.52726e-10)
(1.62047e-09 0 3.24263e-10)
(1.52724e-09 0 2.99212e-10)
(1.44078e-09 0 2.7696e-10)
(1.36045e-09 0 2.57039e-10)
(1.2857e-09 0 2.39082e-10)
(1.21604e-09 0 2.22797e-10)
(1.15105e-09 0 2.07945e-10)
(1.09033e-09 0 1.94329e-10)
(1.03355e-09 0 1.81779e-10)
(9.80378e-10 0 1.70152e-10)
(9.30523e-10 0 1.60166e-10)
(8.83692e-10 0 1.50897e-10)
(8.39648e-10 0 1.42276e-10)
(7.98177e-10 0 1.34252e-10)
(7.59089e-10 0 1.26778e-10)
(7.2221e-10 0 1.19812e-10)
(6.87382e-10 0 1.13314e-10)
(6.5446e-10 0 1.07249e-10)
(6.23311e-10 0 1.01584e-10)
(5.93812e-10 0 9.62908e-11)
(5.6585e-10 0 9.13412e-11)
(5.3932e-10 0 8.67111e-11)
(5.14126e-10 0 8.23781e-11)
(4.9018e-10 0 7.83218e-11)
(4.67399e-10 0 7.45233e-11)
(4.45706e-10 0 7.09653e-11)
(4.25032e-10 0 6.76318e-11)
(4.0531e-10 0 6.45081e-11)
(3.86481e-10 0 6.15806e-11)
(3.68487e-10 0 5.88367e-11)
(3.51276e-10 0 5.62647e-11)
(3.34799e-10 0 5.38539e-11)
(3.1901e-10 0 5.15943e-11)
(3.03867e-10 0 4.94765e-11)
(2.89328e-10 0 4.74919e-11)
(2.75357e-10 0 4.56326e-11)
(2.61918e-10 0 4.3891e-11)
(2.48977e-10 0 4.22602e-11)
(2.36503e-10 0 4.07339e-11)
(2.24467e-10 0 3.9306e-11)
(2.1284e-10 0 3.79709e-11)
(2.01595e-10 0 3.67234e-11)
(1.90709e-10 0 3.55588e-11)
(1.80156e-10 0 3.44726e-11)
(1.69915e-10 0 3.34606e-11)
(1.59964e-10 0 3.25189e-11)
(1.50283e-10 0 3.1644e-11)
(1.40853e-10 0 3.08326e-11)
(1.31655e-10 0 3.00816e-11)
(1.22671e-10 0 2.93882e-11)
(1.13886e-10 0 2.87498e-11)
(1.05283e-10 0 2.8164e-11)
(9.6846e-11 0 2.76287e-11)
(8.85615e-11 0 2.71418e-11)
(8.04149e-11 0 2.67015e-11)
(7.23926e-11 0 2.63062e-11)
(6.44814e-11 0 2.59545e-11)
(5.66686e-11 0 2.5645e-11)
(4.89418e-11 0 2.53766e-11)
(4.12888e-11 0 2.51484e-11)
(3.3698e-11 0 2.49595e-11)
(2.61576e-11 0 2.48092e-11)
(1.86564e-11 0 2.46969e-11)
(1.1183e-11 0 2.46223e-11)
(3.72592e-12 0 2.4585e-11)
(-0.00159488 0 0.00525297)
(-0.000954502 0 0.00219519)
(-0.000772226 0 -0.00106275)
(-0.000857385 0 -0.00420327)
(-0.00153466 0 -0.00297461)
(-2.7222e-06 0 8.34803e-06)
(1.56631e-09 0 2.28997e-09)
(3.08408e-09 0 1.86962e-09)
(2.99038e-09 0 1.53344e-09)
(2.87618e-09 0 1.27837e-09)
(2.73869e-09 0 1.08542e-09)
(2.58982e-09 0 9.37132e-10)
(2.43962e-09 0 8.20715e-10)
(2.29405e-09 0 7.27324e-10)
(2.15603e-09 0 6.50888e-10)
(2.02666e-09 0 5.87196e-10)
(1.90609e-09 0 5.33278e-10)
(1.79401e-09 0 4.87006e-10)
(1.68987e-09 0 4.46818e-10)
(1.59309e-09 0 4.11555e-10)
(1.50309e-09 0 3.80335e-10)
(1.4193e-09 0 3.52478e-10)
(1.34121e-09 0 3.27451e-10)
(1.26836e-09 0 3.04831e-10)
(1.20033e-09 0 2.84274e-10)
(1.13674e-09 0 2.65499e-10)
(1.07724e-09 0 2.48274e-10)
(1.02151e-09 0 2.32402e-10)
(9.69258e-10 0 2.17717e-10)
(9.20218e-10 0 2.04922e-10)
(8.74123e-10 0 1.93064e-10)
(8.3075e-10 0 1.82046e-10)
(7.89895e-10 0 1.71796e-10)
(7.51372e-10 0 1.62251e-10)
(7.15015e-10 0 1.53353e-10)
(6.80668e-10 0 1.45053e-10)
(6.48191e-10 0 1.37304e-10)
(6.17454e-10 0 1.30065e-10)
(5.88336e-10 0 1.23299e-10)
(5.60728e-10 0 1.16972e-10)
(5.34528e-10 0 1.11052e-10)
(5.09641e-10 0 1.05511e-10)
(4.8598e-10 0 1.00323e-10)
(4.63465e-10 0 9.54641e-11)
(4.42021e-10 0 9.09124e-11)
(4.21579e-10 0 8.66476e-11)
(4.02074e-10 0 8.26509e-11)
(3.83448e-10 0 7.89049e-11)
(3.65644e-10 0 7.53937e-11)
(3.48611e-10 0 7.21024e-11)
(3.32301e-10 0 6.90172e-11)
(3.16669e-10 0 6.61253e-11)
(3.01673e-10 0 6.34149e-11)
(2.87273e-10 0 6.08749e-11)
(2.73431e-10 0 5.84951e-11)
(2.60114e-10 0 5.6266e-11)
(2.47289e-10 0 5.41788e-11)
(2.34923e-10 0 5.22251e-11)
(2.22989e-10 0 5.03974e-11)
(2.11459e-10 0 4.86884e-11)
(2.00305e-10 0 4.70917e-11)
(1.89505e-10 0 4.5601e-11)
(1.79034e-10 0 4.42105e-11)
(1.6887e-10 0 4.29151e-11)
(1.58993e-10 0 4.17097e-11)
(1.49381e-10 0 4.05898e-11)
(1.40017e-10 0 3.95511e-11)
(1.30882e-10 0 3.85897e-11)
(1.21959e-10 0 3.77021e-11)
(1.13231e-10 0 3.68848e-11)
(1.04683e-10 0 3.61349e-11)
(9.62992e-11 0 3.54496e-11)
(8.80655e-11 0 3.48262e-11)
(7.99679e-11 0 3.42626e-11)
(7.1993e-11 0 3.37565e-11)
(6.41277e-11 0 3.33063e-11)
(5.63595e-11 0 3.29101e-11)
(4.86762e-11 0 3.25665e-11)
(4.10657e-11 0 3.22743e-11)
(3.35165e-11 0 3.20325e-11)
(2.60172e-11 0 3.184e-11)
(1.85564e-11 0 3.16963e-11)
(1.11231e-11 0 3.16008e-11)
(3.706e-12 0 3.15531e-11)
(-0.0014084 0 0.00601767)
(-0.000740992 0 0.00251668)
(-0.000524452 0 -0.00106328)
(-0.000876399 0 -0.00431573)
(0.000103593 0 -0.00343594)
(2.50466e-06 0 5.34051e-05)
(1.33187e-09 0 2.33082e-09)
(2.69767e-09 0 1.87844e-09)
(2.72288e-09 0 1.58424e-09)
(2.67742e-09 0 1.37089e-09)
(2.58476e-09 0 1.20219e-09)
(2.46734e-09 0 1.06361e-09)
(2.34025e-09 0 9.47997e-10)
(2.21214e-09 0 8.50682e-10)
(2.08755e-09 0 7.681e-10)
(1.96867e-09 0 6.97421e-10)
(1.85641e-09 0 6.36398e-10)
(1.75099e-09 0 5.83254e-10)
(1.65227e-09 0 5.3659e-10)
(1.55995e-09 0 4.95299e-10)
(1.47366e-09 0 4.58507e-10)
(1.39299e-09 0 4.25513e-10)
(1.31755e-09 0 3.95754e-10)
(1.24696e-09 0 3.68772e-10)
(1.18089e-09 0 3.44192e-10)
(1.11899e-09 0 3.21701e-10)
(1.06097e-09 0 3.01042e-10)
(1.00654e-09 0 2.81993e-10)
(9.55436e-10 0 2.64372e-10)
(9.07419e-10 0 2.48863e-10)
(8.62245e-10 0 2.34492e-10)
(8.1971e-10 0 2.21142e-10)
(7.79619e-10 0 2.08724e-10)
(7.41799e-10 0 1.97157e-10)
(7.06087e-10 0 1.86373e-10)
(6.72336e-10 0 1.76311e-10)
(6.40409e-10 0 1.66914e-10)
(6.10181e-10 0 1.58134e-10)
(5.81536e-10 0 1.49926e-10)
(5.54367e-10 0 1.42248e-10)
(5.28575e-10 0 1.35062e-10)
(5.04068e-10 0 1.28336e-10)
(4.80761e-10 0 1.22037e-10)
(4.58576e-10 0 1.16137e-10)
(4.37441e-10 0 1.1061e-10)
(4.17287e-10 0 1.0543e-10)
(3.98051e-10 0 1.00575e-10)
(3.79677e-10 0 9.60244e-11)
(3.6211e-10 0 9.17586e-11)
(3.45298e-10 0 8.77598e-11)
(3.29196e-10 0 8.40111e-11)
(3.13758e-10 0 8.04972e-11)
(2.98945e-10 0 7.72037e-11)
(2.84716e-10 0 7.41172e-11)
(2.71036e-10 0 7.12252e-11)
(2.57871e-10 0 6.85163e-11)
(2.45189e-10 0 6.59797e-11)
(2.32958e-10 0 6.36054e-11)
(2.21151e-10 0 6.13841e-11)
(2.09741e-10 0 5.93072e-11)
(1.98701e-10 0 5.73665e-11)
(1.88008e-10 0 5.55547e-11)
(1.77638e-10 0 5.38647e-11)
(1.67571e-10 0 5.22902e-11)
(1.57784e-10 0 5.08251e-11)
(1.4826e-10 0 4.94638e-11)
(1.38978e-10 0 4.82013e-11)
(1.29921e-10 0 4.70328e-11)
(1.21073e-10 0 4.59538e-11)
(1.12417e-10 0 4.49604e-11)
(1.03937e-10 0 4.40489e-11)
(9.56191e-11 0 4.32158e-11)
(8.74486e-11 0 4.24581e-11)
(7.9412e-11 0 4.17729e-11)
(7.1496e-11 0 4.11578e-11)
(6.36878e-11 0 4.06104e-11)
(5.59751e-11 0 4.01288e-11)
(4.83458e-11 0 3.97112e-11)
(4.07882e-11 0 3.9356e-11)
(3.32908e-11 0 3.9062e-11)
(2.58425e-11 0 3.8828e-11)
(1.84321e-11 0 3.86533e-11)
(1.10487e-11 0 3.85371e-11)
(3.68121e-12 0 3.84792e-11)
(-0.00142258 0 0.00670285)
(-0.000542852 0 0.00283408)
(-0.00050494 0 -0.00118626)
(-0.00120208 0 -0.00424021)
(-0.000682611 0 -0.00309638)
(-1.86816e-05 0 0.000284619)
(1.15136e-09 0 2.26723e-09)
(2.38704e-09 0 1.74846e-09)
(2.51707e-09 0 1.56406e-09)
(2.52029e-09 0 1.42428e-09)
(2.45271e-09 0 1.29258e-09)
(2.3535e-09 0 1.16996e-09)
(2.24193e-09 0 1.05924e-09)
(2.12728e-09 0 9.61121e-10)
(2.01421e-09 0 8.74871e-10)
(1.90503e-09 0 7.99176e-10)
(1.8009e-09 0 7.32604e-10)
(1.70226e-09 0 6.73816e-10)
(1.60923e-09 0 6.21643e-10)
(1.5217e-09 0 5.75094e-10)
(1.43947e-09 0 5.33344e-10)
(1.36226e-09 0 4.95708e-10)
(1.28979e-09 0 4.6162e-10)
(1.22177e-09 0 4.30607e-10)
(1.15793e-09 0 4.02278e-10)
(1.09799e-09 0 3.76302e-10)
(1.04169e-09 0 3.52402e-10)
(9.88777e-10 0 3.30341e-10)
(9.39022e-10 0 3.09921e-10)
(8.92216e-10 0 2.91811e-10)
(8.48135e-10 0 2.75022e-10)
(8.06592e-10 0 2.59422e-10)
(7.67408e-10 0 2.44904e-10)
(7.30419e-10 0 2.31377e-10)
(6.95471e-10 0 2.18762e-10)
(6.62425e-10 0 2.06987e-10)
(6.31151e-10 0 1.95987e-10)
(6.01527e-10 0 1.85706e-10)
(5.73442e-10 0 1.76091e-10)
(5.46794e-10 0 1.67095e-10)
(5.21486e-10 0 1.58674e-10)
(4.9743e-10 0 1.5079e-10)
(4.74544e-10 0 1.43405e-10)
(4.52752e-10 0 1.36487e-10)
(4.31982e-10 0 1.30004e-10)
(4.12171e-10 0 1.23929e-10)
(3.93257e-10 0 1.18234e-10)
(3.75183e-10 0 1.12895e-10)
(3.57896e-10 0 1.0789e-10)
(3.41348e-10 0 1.03198e-10)
(3.25493e-10 0 9.87997e-11)
(3.10287e-10 0 9.46762e-11)
(2.95692e-10 0 9.08111e-11)
(2.81668e-10 0 8.71887e-11)
(2.68181e-10 0 8.37946e-11)
(2.55197e-10 0 8.06152e-11)
(2.42685e-10 0 7.76379e-11)
(2.30615e-10 0 7.48511e-11)
(2.1896e-10 0 7.22438e-11)
(2.07692e-10 0 6.98058e-11)
(1.96787e-10 0 6.75278e-11)
(1.86222e-10 0 6.5401e-11)
(1.75974e-10 0 6.34172e-11)
(1.66021e-10 0 6.15688e-11)
(1.56343e-10 0 5.98489e-11)
(1.46922e-10 0 5.82509e-11)
(1.37738e-10 0 5.67687e-11)
(1.28775e-10 0 5.53969e-11)
(1.20016e-10 0 5.41302e-11)
(1.11445e-10 0 5.29639e-11)
(1.03047e-10 0 5.18937e-11)
(9.48078e-11 0 5.09156e-11)
(8.67128e-11 0 5.0026e-11)
(7.87489e-11 0 4.92216e-11)
(7.09032e-11 0 4.84994e-11)
(6.31631e-11 0 4.78567e-11)
(5.55165e-11 0 4.72912e-11)
(4.79517e-11 0 4.68008e-11)
(4.04571e-11 0 4.63838e-11)
(3.30216e-11 0 4.60386e-11)
(2.56341e-11 0 4.57639e-11)
(1.82838e-11 0 4.55587e-11)
(1.09599e-11 0 4.54224e-11)
(3.65165e-12 0 4.53543e-11)
(-0.00130216 0 0.00732576)
(-0.000487253 0 0.00304173)
(-0.000568076 0 -0.0011793)
(-0.00147176 0 -0.00402867)
(-9.71852e-05 0 -0.00365613)
(-9.68406e-06 0 -0.000699212)
(8.54189e-10 0 2.15975e-09)
(2.04311e-09 0 1.3256e-09)
(2.42211e-09 0 1.50492e-09)
(2.42545e-09 0 1.47072e-09)
(2.34856e-09 0 1.3751e-09)
(2.25064e-09 0 1.26593e-09)
(2.14642e-09 0 1.15947e-09)
(2.04119e-09 0 1.06117e-09)
(1.93759e-09 0 9.72393e-10)
(1.83714e-09 0 8.92932e-10)
(1.74072e-09 0 8.2198e-10)
(1.64879e-09 0 7.58572e-10)
(1.56154e-09 0 7.01757e-10)
(1.47899e-09 0 6.50674e-10)
(1.40104e-09 0 6.04567e-10)
(1.32754e-09 0 5.62788e-10)
(1.25829e-09 0 5.24784e-10)
(1.19308e-09 0 4.90087e-10)
(1.13171e-09 0 4.583e-10)
(1.07394e-09 0 4.29085e-10)
(1.01956e-09 0 4.02153e-10)
(9.68363e-10 0 3.77258e-10)
(9.2014e-10 0 3.5419e-10)
(8.74713e-10 0 3.33606e-10)
(8.31881e-10 0 3.14509e-10)
(7.91474e-10 0 2.9675e-10)
(7.53328e-10 0 2.80215e-10)
(7.17291e-10 0 2.648e-10)
(6.83221e-10 0 2.50417e-10)
(6.50984e-10 0 2.36985e-10)
(6.20458e-10 0 2.24433e-10)
(5.91529e-10 0 2.12697e-10)
(5.64089e-10 0 2.01717e-10)
(5.38039e-10 0 1.91441e-10)
(5.13289e-10 0 1.8182e-10)
(4.89753e-10 0 1.72809e-10)
(4.67352e-10 0 1.64368e-10)
(4.46013e-10 0 1.56458e-10)
(4.25667e-10 0 1.49045e-10)
(4.06252e-10 0 1.42096e-10)
(3.87708e-10 0 1.35582e-10)
(3.6998e-10 0 1.29475e-10)
(3.53019e-10 0 1.23749e-10)
(3.36775e-10 0 1.18381e-10)
(3.21206e-10 0 1.13347e-10)
(3.06269e-10 0 1.08629e-10)
(2.91925e-10 0 1.04206e-10)
(2.78138e-10 0 1.0006e-10)
(2.64874e-10 0 9.61754e-11)
(2.521e-10 0 9.25364e-11)
(2.39785e-10 0 8.91287e-11)
(2.27901e-10 0 8.59388e-11)
(2.16421e-10 0 8.29543e-11)
(2.05319e-10 0 8.01636e-11)
(1.94571e-10 0 7.75559e-11)
(1.84154e-10 0 7.51213e-11)
(1.74046e-10 0 7.28503e-11)
(1.64225e-10 0 7.07343e-11)
(1.54674e-10 0 6.87653e-11)
(1.45372e-10 0 6.69358e-11)
(1.36302e-10 0 6.52389e-11)
(1.27448e-10 0 6.36683e-11)
(1.18792e-10 0 6.22181e-11)
(1.1032e-10 0 6.08828e-11)
(1.02017e-10 0 5.96575e-11)
(9.38681e-11 0 5.85376e-11)
(8.58605e-11 0 5.7519e-11)
(7.79808e-11 0 5.65979e-11)
(7.02164e-11 0 5.57709e-11)
(6.25552e-11 0 5.5035e-11)
(5.49852e-11 0 5.43875e-11)
(4.74951e-11 0 5.3826e-11)
(4.00736e-11 0 5.33485e-11)
(3.27096e-11 0 5.29532e-11)
(2.53926e-11 0 5.26386e-11)
(1.81119e-11 0 5.24037e-11)
(1.08571e-11 0 5.22475e-11)
(3.6174e-12 0 5.21696e-11)
(-0.00124264 0 0.00789074)
(-0.000404965 0 0.00327194)
(-0.000404135 0 -0.00110446)
(-0.00105008 0 -0.00405963)
(0.00026523 0 -0.00393151)
(-5.46418e-06 0 -0.00110543)
(3.84307e-09 0 2.95077e-08)
(1.66308e-09 0 1.56959e-09)
(2.65625e-09 0 1.63432e-09)
(2.40112e-09 0 1.57139e-09)
(2.26294e-09 0 1.46966e-09)
(2.1534e-09 0 1.3596e-09)
(2.05192e-09 0 1.2526e-09)
(1.95379e-09 0 1.15288e-09)
(1.85835e-09 0 1.06176e-09)
(1.76587e-09 0 9.79229e-10)
(1.67678e-09 0 9.0474e-10)
(1.59139e-09 0 8.37541e-10)
(1.50991e-09 0 7.7684e-10)
(1.43241e-09 0 7.21883e-10)
(1.35888e-09 0 6.71987e-10)
(1.28925e-09 0 6.26549e-10)
(1.22341e-09 0 5.85043e-10)
(1.1612e-09 0 5.47012e-10)
(1.10248e-09 0 5.12066e-10)
(1.04706e-09 0 4.79866e-10)
(9.94778e-10 0 4.50121e-10)
(9.4546e-10 0 4.22579e-10)
(8.98928e-10 0 3.97024e-10)
(8.55028e-10 0 3.74104e-10)
(8.13583e-10 0 3.52818e-10)
(7.74442e-10 0 3.33006e-10)
(7.37455e-10 0 3.14543e-10)
(7.02483e-10 0 2.97321e-10)
(6.69395e-10 0 2.81241e-10)
(6.38066e-10 0 2.66216e-10)
(6.0838e-10 0 2.52169e-10)
(5.8023e-10 0 2.39029e-10)
(5.53515e-10 0 2.26731e-10)
(5.2814e-10 0 2.15218e-10)
(5.04019e-10 0 2.04435e-10)
(4.81069e-10 0 1.94334e-10)
(4.59215e-10 0 1.84868e-10)
(4.38386e-10 0 1.75997e-10)
(4.18518e-10 0 1.67681e-10)
(3.9955e-10 0 1.59885e-10)
(3.81424e-10 0 1.52576e-10)
(3.64089e-10 0 1.45722e-10)
(3.47495e-10 0 1.39296e-10)
(3.31596e-10 0 1.3327e-10)
(3.1635e-10 0 1.2762e-10)
(3.01717e-10 0 1.22323e-10)
(2.87658e-10 0 1.17357e-10)
(2.7414e-10 0 1.12702e-10)
(2.61127e-10 0 1.0834e-10)
(2.4859e-10 0 1.04254e-10)
(2.36499e-10 0 1.00428e-10)
(2.24826e-10 0 9.68457e-11)
(2.13545e-10 0 9.34942e-11)
(2.02631e-10 0 9.03602e-11)
(1.9206e-10 0 8.74316e-11)
(1.81811e-10 0 8.46973e-11)
(1.71861e-10 0 8.21467e-11)
(1.62191e-10 0 7.97702e-11)
(1.52782e-10 0 7.75587e-11)
(1.43616e-10 0 7.55038e-11)
(1.34675e-10 0 7.35979e-11)
(1.25943e-10 0 7.18337e-11)
(1.17405e-10 0 7.02046e-11)
(1.09045e-10 0 6.87047e-11)
(1.00849e-10 0 6.73283e-11)
(9.2803e-11 0 6.60703e-11)
(8.48944e-11 0 6.4926e-11)
(7.71101e-11 0 6.38913e-11)
(6.9438e-11 0 6.29622e-11)
(6.18661e-11 0 6.21355e-11)
(5.43831e-11 0 6.14081e-11)
(4.69776e-11 0 6.07773e-11)
(3.96388e-11 0 6.02408e-11)
(3.23561e-11 0 5.97967e-11)
(2.51189e-11 0 5.94433e-11)
(1.79171e-11 0 5.91793e-11)
(1.07405e-11 0 5.90039e-11)
(3.57857e-12 0 5.89163e-11)
(-0.00110847 0 0.00842999)
(-0.00035695 0 0.00355748)
(-0.000575477 0 -0.00126953)
(-0.000901877 0 -0.0040516)
(0.000200045 0 -0.00414922)
(-4.8373e-07 0 -0.00165222)
(2.44709e-09 0 2.47189e-08)
(1.43494e-09 0 2.1881e-09)
(2.42637e-09 0 1.87671e-09)
(2.27339e-09 0 1.70638e-09)
(2.15213e-09 0 1.57168e-09)
(2.04915e-09 0 1.45069e-09)
(1.95455e-09 0 1.33938e-09)
(1.86416e-09 0 1.2371e-09)
(1.77665e-09 0 1.14361e-09)
(1.69178e-09 0 1.05848e-09)
(1.60973e-09 0 9.81108e-10)
(1.53072e-09 0 9.10808e-10)
(1.45494e-09 0 8.46878e-10)
(1.38251e-09 0 7.88645e-10)
(1.31347e-09 0 7.3549e-10)
(1.24782e-09 0 6.86856e-10)
(1.1855e-09 0 6.42246e-10)
(1.12643e-09 0 6.01228e-10)
(1.0705e-09 0 5.63421e-10)
(1.01758e-09 0 5.28495e-10)
(9.67535e-10 0 4.96159e-10)
(9.20235e-10 0 4.66164e-10)
(8.75528e-10 0 4.38289e-10)
(8.33286e-10 0 4.1318e-10)
(7.93351e-10 0 3.89831e-10)
(7.55591e-10 0 3.68076e-10)
(7.19873e-10 0 3.47785e-10)
(6.8607e-10 0 3.28841e-10)
(6.5406e-10 0 3.11142e-10)
(6.2373e-10 0 2.94594e-10)
(5.9497e-10 0 2.79115e-10)
(5.67681e-10 0 2.64627e-10)
(5.41766e-10 0 2.51063e-10)
(5.17137e-10 0 2.3836e-10)
(4.9371e-10 0 2.26458e-10)
(4.71409e-10 0 2.15305e-10)
(4.50162e-10 0 2.04852e-10)
(4.299e-10 0 1.95053e-10)
(4.10563e-10 0 1.85865e-10)
(3.9209e-10 0 1.77251e-10)
(3.7443e-10 0 1.69172e-10)
(3.5753e-10 0 1.61597e-10)
(3.41345e-10 0 1.54493e-10)
(3.25829e-10 0 1.47831e-10)
(3.10943e-10 0 1.41583e-10)
(2.96647e-10 0 1.35726e-10)
(2.82906e-10 0 1.30235e-10)
(2.69686e-10 0 1.25087e-10)
(2.56954e-10 0 1.20263e-10)
(2.44681e-10 0 1.15744e-10)
(2.32839e-10 0 1.11512e-10)
(2.21401e-10 0 1.0755e-10)
(2.10341e-10 0 1.03843e-10)
(1.99636e-10 0 1.00376e-10)
(1.89262e-10 0 9.71362e-11)
(1.79199e-10 0 9.41114e-11)
(1.69426e-10 0 9.12898e-11)
(1.59924e-10 0 8.86606e-11)
(1.50674e-10 0 8.6214e-11)
(1.41659e-10 0 8.39405e-11)
(1.32861e-10 0 8.18318e-11)
(1.24267e-10 0 7.98799e-11)
(1.15859e-10 0 7.80775e-11)
(1.07623e-10 0 7.64178e-11)
(9.95469e-11 0 7.48948e-11)
(9.16159e-11 0 7.35028e-11)
(8.38176e-11 0 7.22366e-11)
(7.61398e-11 0 7.10915e-11)
(6.85704e-11 0 7.00635e-11)
(6.10982e-11 0 6.91486e-11)
(5.37119e-11 0 6.83436e-11)
(4.64008e-11 0 6.76455e-11)
(3.91542e-11 0 6.70518e-11)
(3.1962e-11 0 6.65603e-11)
(2.48139e-11 0 6.61692e-11)
(1.77e-11 0 6.58771e-11)
(1.06105e-11 0 6.5683e-11)
(3.5353e-12 0 6.5586e-11)
(-0.00123566 0 0.0087427)
(-0.000411805 0 0.00357586)
(-0.000876208 0 -0.00140637)
(-0.000784917 0 -0.00405601)
(-0.000159792 0 -0.00426404)
(5.30885e-06 0 -0.00221288)
(2.0731e-09 0 2.42495e-08)
(1.2825e-09 0 2.24645e-09)
(2.20669e-09 0 1.99518e-09)
(2.11719e-09 0 1.81021e-09)
(2.02522e-09 0 1.66174e-09)
(1.93755e-09 0 1.53338e-09)
(1.85356e-09 0 1.41827e-09)
(1.77213e-09 0 1.31364e-09)
(1.69274e-09 0 1.21815e-09)
(1.61537e-09 0 1.13094e-09)
(1.54017e-09 0 1.05128e-09)
(1.46738e-09 0 9.78486e-10)
(1.39721e-09 0 9.11914e-10)
(1.32981e-09 0 8.50947e-10)
(1.26527e-09 0 7.95021e-10)
(1.20364e-09 0 7.43623e-10)
(1.14492e-09 0 6.96294e-10)
(1.08907e-09 0 6.52622e-10)
(1.03603e-09 0 6.12248e-10)
(9.85716e-10 0 5.7485e-10)
(9.38029e-10 0 5.40148e-10)
(8.92861e-10 0 5.07894e-10)
(8.50092e-10 0 4.77871e-10)
(8.09616e-10 0 4.50723e-10)
(7.71299e-10 0 4.25444e-10)
(7.35023e-10 0 4.01863e-10)
(7.00672e-10 0 3.79845e-10)
(6.6813e-10 0 3.59273e-10)
(6.37288e-10 0 3.40036e-10)
(6.0804e-10 0 3.2204e-10)
(5.80287e-10 0 3.05195e-10)
(5.53933e-10 0 2.89422e-10)
(5.28889e-10 0 2.74647e-10)
(5.05073e-10 0 2.60804e-10)
(4.82405e-10 0 2.4783e-10)
(4.60813e-10 0 2.35669e-10)
(4.40228e-10 0 2.24267e-10)
(4.20586e-10 0 2.13576e-10)
(4.01829e-10 0 2.03551e-10)
(3.839e-10 0 1.94149e-10)
(3.66749e-10 0 1.85331e-10)
(3.50327e-10 0 1.7706e-10)
(3.34589e-10 0 1.69303e-10)
(3.19494e-10 0 1.62029e-10)
(3.05002e-10 0 1.55206e-10)
(2.91077e-10 0 1.48809e-10)
(2.77684e-10 0 1.42811e-10)
(2.64792e-10 0 1.37188e-10)
(2.52368e-10 0 1.31919e-10)
(2.40386e-10 0 1.26982e-10)
(2.28817e-10 0 1.22358e-10)
(2.17636e-10 0 1.1803e-10)
(2.0682e-10 0 1.13979e-10)
(1.96344e-10 0 1.10191e-10)
(1.86187e-10 0 1.06652e-10)
(1.7633e-10 0 1.03346e-10)
(1.66751e-10 0 1.00263e-10)
(1.57432e-10 0 9.73902e-11)
(1.48357e-10 0 9.47165e-11)
(1.39507e-10 0 9.22321e-11)
(1.30868e-10 0 8.99276e-11)
(1.22423e-10 0 8.77943e-11)
(1.14159e-10 0 8.58244e-11)
(1.06061e-10 0 8.40105e-11)
(9.81158e-11 0 8.23459e-11)
(9.03109e-11 0 8.08244e-11)
(8.26338e-11 0 7.94404e-11)
(7.50729e-11 0 7.81888e-11)
(6.76165e-11 0 7.70651e-11)
(6.02538e-11 0 7.6065e-11)
(5.29739e-11 0 7.51851e-11)
(4.57665e-11 0 7.4422e-11)
(3.86214e-11 0 7.37729e-11)
(3.15286e-11 0 7.32356e-11)
(2.44784e-11 0 7.28081e-11)
(1.74613e-11 0 7.24887e-11)
(1.04676e-11 0 7.22765e-11)
(3.48771e-12 0 7.21705e-11)
(-0.00113383 0 0.00897877)
(-0.000388885 0 0.0035583)
(-0.00102659 0 -0.00134567)
(-0.000780977 0 -0.00409835)
(-0.000645675 0 -0.00445905)
(6.14696e-06 0 -0.00262333)
(1.86332e-09 0 2.4116e-08)
(1.16584e-09 0 2.25987e-09)
(2.01918e-09 0 2.05541e-09)
(1.96265e-09 0 1.88206e-09)
(1.89447e-09 0 1.73424e-09)
(1.82275e-09 0 1.60449e-09)
(1.75039e-09 0 1.48803e-09)
(1.67839e-09 0 1.38219e-09)
(1.6072e-09 0 1.28544e-09)
(1.53718e-09 0 1.19678e-09)
(1.46865e-09 0 1.11542e-09)
(1.40191e-09 0 1.04071e-09)
(1.33721e-09 0 9.72028e-10)
(1.27476e-09 0 9.0882e-10)
(1.21468e-09 0 8.50572e-10)
(1.15708e-09 0 7.96815e-10)
(1.10198e-09 0 7.47125e-10)
(1.04941e-09 0 7.0112e-10)
(9.99332e-10 0 6.58459e-10)
(9.51702e-10 0 6.1884e-10)
(9.06454e-10 0 5.81991e-10)
(8.63508e-10 0 5.47674e-10)
(8.2277e-10 0 5.15674e-10)
(7.84154e-10 0 4.86639e-10)
(7.47544e-10 0 4.59564e-10)
(7.12843e-10 0 4.34276e-10)
(6.79945e-10 0 4.10641e-10)
(6.48749e-10 0 3.88535e-10)
(6.19154e-10 0 3.67848e-10)
(5.91066e-10 0 3.48481e-10)
(5.64391e-10 0 3.30342e-10)
(5.39042e-10 0 3.13347e-10)
(5.14937e-10 0 2.97421e-10)
(4.91996e-10 0 2.82492e-10)
(4.70146e-10 0 2.68496e-10)
(4.49319e-10 0 2.55372e-10)
(4.2945e-10 0 2.43064e-10)
(4.10479e-10 0 2.31521e-10)
(3.92349e-10 0 2.20694e-10)
(3.75009e-10 0 2.10538e-10)
(3.58409e-10 0 2.01011e-10)
(3.42505e-10 0 1.92075e-10)
(3.27252e-10 0 1.83693e-10)
(3.12613e-10 0 1.75831e-10)
(2.98549e-10 0 1.68457e-10)
(2.85026e-10 0 1.61542e-10)
(2.72012e-10 0 1.55058e-10)
(2.59474e-10 0 1.48979e-10)
(2.47386e-10 0 1.43282e-10)
(2.35718e-10 0 1.37944e-10)
(2.24446e-10 0 1.32945e-10)
(2.13546e-10 0 1.28264e-10)
(2.02993e-10 0 1.23884e-10)
(1.92766e-10 0 1.19788e-10)
(1.82845e-10 0 1.1596e-10)
(1.7321e-10 0 1.12386e-10)
(1.63842e-10 0 1.09051e-10)
(1.54724e-10 0 1.05944e-10)
(1.45838e-10 0 1.03052e-10)
(1.37169e-10 0 1.00365e-10)
(1.28701e-10 0 9.78723e-11)
(1.2042e-10 0 9.55648e-11)
(1.12311e-10 0 9.34339e-11)
(1.04362e-10 0 9.14717e-11)
(9.65599e-11 0 8.96709e-11)
(8.8892e-11 0 8.80249e-11)
(8.13468e-11 0 8.65276e-11)
(7.39129e-11 0 8.51735e-11)
(6.65794e-11 0 8.39577e-11)
(5.93357e-11 0 8.28757e-11)
(5.21715e-11 0 8.19236e-11)
(4.50769e-11 0 8.1098e-11)
(3.8042e-11 0 8.03957e-11)
(3.10574e-11 0 7.98143e-11)
(2.41137e-11 0 7.93517e-11)
(1.72017e-11 0 7.90062e-11)
(1.03122e-11 0 7.87765e-11)
(3.43596e-12 0 7.86618e-11)
(-0.000984636 0 0.00935679)
(-5.56192e-05 0 0.00376789)
(-0.00115487 0 -0.00111391)
(-0.000696027 0 -0.00446053)
(-0.000506522 0 -0.00487466)
(1.32983e-06 0 -0.00284478)
(1.72028e-09 0 2.39559e-08)
(1.06578e-09 0 2.26322e-09)
(1.85418e-09 0 2.08833e-09)
(1.81786e-09 0 1.9316e-09)
(1.7668e-09 0 1.79096e-09)
(1.70854e-09 0 1.66401e-09)
(1.64698e-09 0 1.54852e-09)
(1.58403e-09 0 1.4428e-09)
(1.52076e-09 0 1.34567e-09)
(1.45782e-09 0 1.25622e-09)
(1.3957e-09 0 1.17375e-09)
(1.3348e-09 0 1.09764e-09)
(1.27541e-09 0 1.02734e-09)
(1.21778e-09 0 9.62337e-10)
(1.16209e-09 0 9.02177e-10)
(1.10847e-09 0 8.46432e-10)
(1.057e-09 0 7.94716e-10)
(1.00772e-09 0 7.46678e-10)
(9.60645e-10 0 7.02e-10)
(9.15751e-10 0 6.60398e-10)
(8.73004e-10 0 6.21617e-10)
(8.32349e-10 0 5.85425e-10)
(7.93713e-10 0 5.51618e-10)
(7.57033e-10 0 5.20849e-10)
(7.22209e-10 0 4.92113e-10)
(6.89158e-10 0 4.65241e-10)
(6.57789e-10 0 4.40096e-10)
(6.28012e-10 0 4.16555e-10)
(5.99738e-10 0 3.94507e-10)
(5.72878e-10 0 3.7385e-10)
(5.47349e-10 0 3.54491e-10)
(5.23069e-10 0 3.36343e-10)
(4.99962e-10 0 3.19326e-10)
(4.77956e-10 0 3.03369e-10)
(4.5698e-10 0 2.88403e-10)
(4.36971e-10 0 2.74365e-10)
(4.17868e-10 0 2.61196e-10)
(3.99614e-10 0 2.48843e-10)
(3.82157e-10 0 2.37253e-10)
(3.65448e-10 0 2.26379e-10)