0 	0 	0 	0
0.010101 	-1.74948e-22 	3.88129e-27 	-7.90414e-24
0.020202 	-2.58179e-24 	-1.65969e-28 	-1.33748e-25
