/*--------------------------------*- C++ -*----------------------------------*\
  =========                 |
  \\      /  F ield         | OpenFOAM: The Open Source CFD Toolbox
   \\    /   O peration     | Website:  https://openfoam.org
    \\  /    A nd           | Version:  6
     \\/     M anipulation  |
\*---------------------------------------------------------------------------*/
FoamFile
{
    version     2.0;
    format      ascii;
    class       surfaceScalarField;
    location    "400";
    object      phi;
}
// * * * * * * * * * * * * * * * * * * * * * * * * * * * * * * * * * * * * * //

dimensions      [0 3 -1 0 0 0 0];

internalField   nonuniform List<scalar> 
9440
(
-2.66671e-13
2.66671e-13
-5.31233e-13
2.64594e-13
-7.91374e-13
2.60166e-13
-1.0449e-12
2.53555e-13
-1.28977e-12
2.44887e-13
-1.52407e-12
2.34331e-13
-1.74614e-12
2.22086e-13
-1.95441e-12
2.08292e-13
-2.1476e-12
1.93219e-13
-2.3246e-12
1.77026e-13
-2.48455e-12
1.59981e-13
-2.62682e-12
1.42295e-13
-2.75099e-12
1.24198e-13
-2.85684e-12
1.05873e-13
-2.94436e-12
8.75517e-14
-3.01372e-12
6.93882e-14
-3.06524e-12
5.15501e-14
-3.09937e-12
3.41683e-14
-3.11654e-12
1.71976e-14
-3.11818e-12
1.67054e-15
-3.10694e-12
-1.1201e-14
-3.07881e-12
-2.8102e-14
-3.03806e-12
-4.07103e-14
-2.98552e-12
-5.25038e-14
-2.92166e-12
-6.38304e-14
-2.84771e-12
-7.39105e-14
-2.7649e-12
-8.27699e-14
-2.67425e-12
-9.06196e-14
-2.57679e-12
-9.74125e-14
-2.47354e-12
-1.03216e-13
-2.36545e-12
-1.08043e-13
-2.25347e-12
-1.11947e-13
-2.13848e-12
-1.14942e-13
-2.02133e-12
-1.17117e-13
-1.9028e-12
-1.18487e-13
-1.78362e-12
-1.19137e-13
-1.66447e-12
-1.1911e-13
-1.54601e-12
-1.18419e-13
-1.42873e-12
-1.17233e-13
-1.31322e-12
-1.15477e-13
-1.19989e-12
-1.1329e-13
-1.08919e-12
-1.10662e-13
-9.81479e-13
-1.07669e-13
-8.77089e-13
-1.04349e-13
-7.76323e-13
-1.00729e-13
-6.79405e-13
-9.68803e-14
-5.86584e-13
-9.27855e-14
-4.9803e-13
-8.85189e-14
-4.13871e-13
-8.41256e-14
-3.34282e-13
-7.95543e-14
-2.59335e-13
-7.49161e-14
-1.89143e-13
-7.01595e-14
-1.23757e-13
-6.53559e-14
-6.32377e-14
-6.0492e-14
-7.60882e-15
-5.56005e-14
4.31061e-14
-5.06876e-14
8.89171e-14
-4.57868e-14
1.29805e-13
-4.08632e-14
1.65832e-13
-3.60048e-14
1.97028e-13
-3.11738e-14
2.23444e-13
-2.63942e-14
2.45171e-13
-2.17087e-14
2.62301e-13
-1.71122e-14
2.74953e-13
-1.26357e-14
2.83263e-13
-8.29562e-15
2.87422e-13
-4.14468e-15
2.87625e-13
-1.88399e-16
2.84112e-13
3.5224e-15
2.77214e-13
6.90782e-15
2.67259e-13
9.9656e-15
2.54726e-13
1.25425e-14
2.40183e-13
1.4552e-14
2.24608e-13
1.55849e-14
2.09917e-13
1.46976e-14
2.00739e-13
9.1848e-15
2.10466e-13
-9.72132e-15
2.82224e-13
-7.17521e-14
1.17179e-13
1.6505e-13
-2.5809e-18
1.17186e-13
6.35243e-21
4.58083e-20
6.6465e-21
2.79173e-24
6.62494e-21
2.13516e-23
6.5856e-21
3.99115e-23
6.52827e-21
5.79026e-23
6.45356e-21
7.52734e-23
6.36226e-21
9.21272e-23
6.25519e-21
1.07895e-22
6.13334e-21
1.22681e-22
5.99794e-21
1.36537e-22
5.85013e-21
1.48944e-22
5.69111e-21
1.60266e-22
5.52215e-21
1.70192e-22
5.34467e-21
1.7893e-22
5.15954e-21
1.86374e-22
4.9682e-21
1.9263e-22
4.77185e-21
1.97851e-22
4.57116e-21
2.01884e-22
4.36741e-21
2.05193e-22
4.16134e-21
2.07416e-22
3.95382e-21
2.08915e-22
3.74553e-21
2.09639e-22
3.53697e-21
2.0969e-22
3.32878e-21
2.09432e-22
3.12116e-21
2.0845e-22
2.91462e-21
2.0726e-22
2.70943e-21
2.05761e-22
2.50579e-21
2.04055e-22
2.30396e-21
2.02194e-22
2.10383e-21
2.00178e-22
1.90557e-21
1.98213e-22
1.70896e-21
1.96197e-22
1.51405e-21
1.94129e-22
1.3207e-21
1.92268e-22
1.12889e-21
1.9051e-22
9.38385e-22
1.88856e-22
7.49012e-22
1.87563e-22
5.60622e-22
1.86426e-22
3.73007e-22
1.8534e-22
1.86012e-22
1.84358e-22
1.83324e-22
-2.68741e-13
5.35444e-13
-5.35721e-13
5.31625e-13
-7.98167e-13
5.22653e-13
-1.05382e-12
5.09253e-13
-1.30062e-12
4.91733e-13
-1.53669e-12
4.70444e-13
-1.76028e-12
4.45722e-13
-1.96989e-12
4.17947e-13
-2.16416e-12
3.87537e-13
-2.34203e-12
3.5494e-13
-2.50262e-12
3.20618e-13
-2.64528e-12
2.85014e-13
-2.76961e-12
2.48576e-13
-2.87542e-12
2.1173e-13
-2.96271e-12
1.74896e-13
-3.03167e-12
1.38406e-13
-3.08266e-12
1.02594e-13
-3.11608e-12
6.76436e-14
-3.1324e-12
3.35735e-14
-3.13361e-12
2.94779e-15
-3.12098e-12
-2.37786e-14
-3.09196e-12
-5.70552e-14
-3.05019e-12
-8.24188e-14
-2.99666e-12
-1.05972e-13
-2.93162e-12
-1.28806e-13
-2.85663e-12
-1.48831e-13
-2.77277e-12
-1.66561e-13
-2.68109e-12
-1.82227e-13
-2.58261e-12
-1.95826e-13
-2.47836e-12
-2.07396e-13
-2.36934e-12
-2.16992e-13
-2.25647e-12
-2.24741e-13
-2.14065e-12
-2.3069e-13
-2.02272e-12
-2.34976e-13
-1.90346e-12
-2.37679e-13
-1.7836e-12
-2.38924e-13
-1.66382e-12
-2.3881e-13
-1.5448e-12
-2.37372e-13
-1.42702e-12
-2.34944e-13
-1.311e-12
-2.31424e-13
-1.19727e-12
-2.26947e-13
-1.08619e-12
-2.21678e-13
-9.78144e-13
-2.1564e-13
-8.73479e-13
-2.08949e-13
-7.72463e-13
-2.01679e-13
-6.75339e-13
-1.93941e-13
-5.8231e-13
-1.8575e-13
-4.93567e-13
-1.772e-13
-4.09303e-13
-1.68331e-13
-3.29597e-13
-1.59201e-13
-2.54571e-13
-1.49887e-13
-1.84307e-13
-1.40368e-13
-1.18881e-13
-1.30729e-13
-5.83318e-14
-1.20991e-13
-2.68512e-15
-1.11199e-13
4.80406e-14
-1.01367e-13
9.38197e-14
-9.15241e-14
1.347e-13
-8.17044e-14
1.70671e-13
-7.19379e-14
2.01805e-13
-6.22736e-14
2.28166e-13
-5.27227e-14
2.49789e-13
-4.33004e-14
2.66789e-13
-3.40847e-14
2.79293e-13
-2.51117e-14
2.8741e-13
-1.63892e-14
2.91356e-13
-8.06718e-15
2.91318e-13
-1.28864e-16
2.87518e-13
7.34336e-15
2.80272e-13
1.41724e-14
2.69885e-13
2.03684e-14
2.56724e-13
2.57199e-14
2.41215e-13
3.00743e-14
2.23759e-13
3.30549e-14
2.04476e-13
3.39906e-14
1.82081e-13
3.15899e-14
1.48732e-13
2.36406e-14
6.79004e-14
9.08475e-15
5.45584e-14
1.78402e-13
-2.08509e-18
1.71755e-13
6.35179e-21
9.58561e-20
6.66506e-21
5.94536e-24
6.6435e-21
4.33753e-23
6.60364e-21
8.0495e-23
6.54574e-21
1.16994e-22
6.47036e-21
1.52253e-22
6.37803e-21
1.85857e-22
6.26993e-21
2.17807e-22
6.14714e-21
2.47586e-22
6.0104e-21
2.75089e-22
5.86145e-21
3.00215e-22
5.70103e-21
3.22756e-22
5.53089e-21
3.42763e-22
5.35201e-21
3.60185e-22
5.1658e-21
3.75075e-22
4.97342e-21
3.87689e-22
4.77593e-21
3.98081e-22
4.57446e-21
4.06301e-22
4.36963e-21
4.12194e-22
4.16284e-21
4.16641e-22
3.9546e-21
4.19381e-22
3.74563e-21
4.20673e-22
3.53661e-21
4.20673e-22
3.32785e-21
4.19691e-22
3.11997e-21
4.17726e-22
2.91307e-21
4.15141e-22
2.70778e-21
4.11833e-22
2.50393e-21
4.08059e-22
2.30194e-21
4.03974e-22
2.10187e-21
3.99735e-22
1.9035e-21
3.95392e-22
1.70689e-21
3.9105e-22
1.51219e-21
3.86914e-22
1.31894e-21
3.82881e-22
1.12729e-21
3.79159e-22
9.37144e-22
3.75695e-22
7.47875e-22
3.72748e-22
5.59588e-22
3.70215e-22
3.71973e-22
3.68147e-22
1.84978e-22
3.667e-22
3.65821e-22
-2.7403e-13
8.09499e-13
-5.45123e-13
8.02761e-13
-8.11534e-13
7.89105e-13
-1.07102e-12
7.68774e-13
-1.32148e-12
7.42235e-13
-1.56092e-12
7.09917e-13
-1.78751e-12
6.72352e-13
-1.99971e-12
6.30184e-13
-2.19617e-12
5.84045e-13
-2.37577e-12
5.34584e-13
-2.53766e-12
4.82548e-13
-2.6812e-12
4.28592e-13
-2.80598e-12
3.73411e-13
-2.91186e-12
3.17649e-13
-2.99883e-12
2.61913e-13
-3.06712e-12
2.06744e-13
-3.11712e-12
1.52649e-13
-3.14926e-12
9.98293e-14
-3.16398e-12
4.83396e-14
-3.16453e-12
3.5537e-15
-3.14903e-12
-3.92233e-14
-3.11824e-12
-8.77908e-14
-3.07448e-12
-1.26123e-13
-3.01888e-12
-1.61513e-13
-2.95154e-12
-1.96088e-13
-2.87445e-12
-2.25863e-13
-2.78845e-12
-2.525e-13
-2.69468e-12
-2.75941e-13
-2.59418e-12
-2.96263e-13
-2.48799e-12
-3.13523e-13
-2.3771e-12
-3.27822e-13
-2.26245e-12
-3.39329e-13
-2.14494e-12
-3.48134e-13
-2.02543e-12
-3.54428e-13
-1.9047e-12
-3.58345e-13
-1.7835e-12
-3.60061e-13
-1.66247e-12
-3.59769e-13
-1.5423e-12
-3.57481e-13
-1.42347e-12
-3.53711e-13
-1.30655e-12
-3.48285e-13
-1.19196e-12
-3.41474e-13
-1.08016e-12
-3.33423e-13
-9.7147e-13
-3.24264e-13
-8.66223e-13
-3.14138e-13
-7.64687e-13
-3.03157e-13
-6.67139e-13
-2.91434e-13
-5.73755e-13
-2.79079e-13
-4.84724e-13
-2.66177e-13
-4.00185e-13
-2.52819e-13
-3.20253e-13
-2.39084e-13
-2.45078e-13
-2.25012e-13
-1.74681e-13
-2.10721e-13
-1.09157e-13
-1.96207e-13
-4.85298e-14
-1.81574e-13
7.13816e-15
-1.6683e-13
5.78666e-14
-1.52057e-13
1.03642e-13
-1.37261e-13
1.4446e-13
-1.22488e-13
1.80359e-13
-1.07803e-13
2.11368e-13
-9.32508e-14
2.37556e-13
-7.88806e-14
2.58987e-13
-6.47043e-14
2.75756e-13
-5.08263e-14
2.87965e-13
-3.72985e-14
2.95747e-13
-2.41505e-14
2.99275e-13
-1.15732e-14
2.9873e-13
4.3216e-16
2.94367e-13
1.17218e-14
2.86438e-13
2.21188e-14
2.75255e-13
3.15667e-14
2.61063e-13
3.99257e-14
2.44184e-13
4.69645e-14
2.24681e-13
5.25672e-14
2.02047e-13
5.66374e-14
1.74106e-13
5.954e-14
1.34268e-13
6.34909e-14
6.61004e-14
7.72613e-14
3.91842e-14
2.05326e-13
-2.22106e-18
2.10946e-13
6.35212e-21
1.43358e-19
6.70249e-21
8.78879e-24
6.68057e-21
6.56575e-23
6.64009e-21
1.21906e-22
6.581e-21
1.76965e-22
6.50397e-21
2.30318e-22
6.40998e-21
2.81293e-22
6.2997e-21
3.29476e-22
6.17465e-21
3.74454e-22
6.03552e-21
4.15917e-22
5.88399e-21
4.53605e-22
5.72104e-21
4.87416e-22
5.54831e-21
5.17505e-22
5.36696e-21
5.43613e-22
5.17841e-21
5.65998e-22
4.98376e-21
5.8461e-22
4.78405e-21
5.99861e-22
4.58041e-21
6.11752e-22
4.37408e-21
6.20747e-22
4.16558e-21
6.27003e-22
3.95584e-21
6.30829e-22
3.74563e-21
6.32586e-22
3.53558e-21
6.3238e-22
3.32589e-21
6.30415e-22
3.11733e-21
6.27313e-22
2.90987e-21
6.22919e-22
2.704e-21
6.17801e-22
2.49984e-21
6.11907e-22
2.2977e-21
6.056e-22
2.09752e-21
5.99086e-22
1.89916e-21
5.92365e-22
1.7028e-21
5.85747e-22
1.50811e-21
5.79233e-22
1.31522e-21
5.73081e-22
1.12388e-21
5.67187e-22
9.34094e-22
5.61914e-22
7.45393e-22
5.57416e-22
5.57468e-22
5.53384e-22
3.70629e-22
5.50385e-22
1.84048e-22
5.48162e-22
5.46766e-22
-2.8073e-13
1.09025e-12
-5.58787e-13
1.08086e-12
-8.31835e-13
1.06219e-12
-1.09758e-12
1.03456e-12
-1.3538e-12
9.98493e-13
-1.59845e-12
9.54613e-13
-1.82968e-12
9.0362e-13
-2.04587e-12
8.46404e-13
-2.2456e-12
7.83822e-13
-2.4278e-12
7.16822e-13
-2.59159e-12
6.4638e-13
-2.73636e-12
5.73402e-13
-2.86173e-12
4.98824e-13
-2.96756e-12
4.23522e-13
-3.05392e-12
3.48319e-13
-3.12109e-12
2.73957e-13
-3.16945e-12
2.01056e-13
-3.19943e-12
1.29859e-13
-3.21167e-12
6.06254e-14
-3.21168e-12
3.6209e-15
-3.19113e-12
-5.97217e-14
-3.15779e-12
-1.21081e-13
-3.11105e-12
-1.72807e-13
-3.05213e-12
-2.20377e-13
-2.98147e-12
-2.66701e-13
-2.90115e-12
-3.06121e-13
-2.81195e-12
-3.41633e-13
-2.71503e-12
-3.72811e-13
-2.61146e-12
-3.99774e-13
-2.50232e-12
-4.22596e-13
-2.38858e-12
-4.41498e-13
-2.27126e-12
-4.56592e-13
-2.15123e-12
-4.68103e-13
-2.02935e-12
-4.76241e-13
-1.90642e-12
-4.81215e-13
-1.78317e-12
-4.83249e-13
-1.66032e-12
-4.82564e-13
-1.53842e-12
-4.79312e-13
-1.41805e-12
-4.74029e-13
-1.29974e-12
-4.66531e-13
-1.18391e-12
-4.57248e-13
-1.07099e-12
-4.46278e-13
-9.61331e-13
-4.33867e-13
-8.5524e-13
-4.20172e-13
-7.52967e-13
-4.05372e-13
-6.54772e-13
-3.89574e-13
-5.60836e-13
-3.72962e-13
-4.71358e-13
-3.55603e-13
-3.86442e-13
-3.37683e-13
-3.06216e-13
-3.19261e-13
-2.30764e-13
-3.00413e-13
-1.60196e-13
-2.81244e-13
-9.4511e-14
-2.61847e-13
-3.38024e-14
-2.42241e-13
2.19298e-14
-2.2252e-13
7.26608e-14
-2.02749e-13
1.18387e-13
-1.82951e-13
1.59143e-13
-1.63208e-13
1.9491e-13
-1.43541e-13
2.25751e-13
-1.2406e-13
2.51722e-13
-1.04821e-13
2.72867e-13
-8.58225e-14
2.89275e-13
-6.72094e-14
3.01057e-13
-4.90608e-14
3.08337e-13
-3.14091e-14
3.11248e-13
-1.44669e-14
3.1e-13
1.69803e-15
3.04802e-13
1.69365e-14
2.95903e-13
3.10319e-14
2.83578e-13
4.3905e-14
2.68117e-13
5.53999e-14
2.49781e-13
6.5312e-14
2.28762e-13
7.35996e-14
2.04951e-13
8.0456e-14
1.77967e-13
8.65367e-14
1.479e-13
9.35645e-14
1.20866e-13
1.04304e-13
3.45259e-14
2.91674e-13
-2.0665e-18
2.4548e-13
6.3522e-21
1.94255e-19
6.75941e-21
1.18907e-23
6.73687e-21
8.84566e-23
6.6952e-21
1.64557e-22
6.63435e-21
2.38952e-22
6.55494e-21
3.10813e-22
6.45816e-21
3.79521e-22
6.34468e-21
4.44196e-22
6.21606e-21
5.04684e-22
6.07321e-21
5.60208e-22
5.91781e-21
6.10821e-22
5.75113e-21
6.56109e-22
5.57442e-21
6.96021e-22
5.38934e-21
7.30659e-22
5.19707e-21
7.60179e-22
4.99896e-21
7.84839e-22
4.79599e-21
8.0464e-22
4.58935e-21
8.20098e-22
4.38034e-21
8.31678e-22
4.1694e-21
8.39485e-22
3.95759e-21
8.44241e-22
3.74553e-21
8.45896e-22
3.53366e-21
8.45017e-22
3.32278e-21
8.42173e-22
3.11294e-21
8.37314e-22
2.90475e-21
8.3111e-22
2.69811e-21
8.23769e-22
2.49359e-21
8.156e-22
2.29114e-21
8.06915e-22
2.0908e-21
7.97712e-22
1.89249e-21
7.88407e-22
1.69624e-21
7.79204e-22
1.5019e-21
7.70209e-22
1.30938e-21
7.61575e-22
1.11866e-21
7.53613e-22
9.29544e-22
7.46531e-22
7.41361e-22
7.40017e-22
5.54521e-22
7.34692e-22
3.68354e-22
7.30401e-22
1.82652e-22
7.27195e-22
7.25386e-22
-2.90092e-13
1.38037e-12
-5.77423e-13
1.36824e-12
-8.59455e-13
1.34426e-12
-1.13367e-12
1.30881e-12
-1.39773e-12
1.26259e-12
-1.64945e-12
1.20638e-12
-1.88692e-12
1.14112e-12
-2.10843e-12
1.06795e-12
-2.3126e-12
9.88029e-13
-2.49827e-12
9.02534e-13
-2.66458e-12
8.12731e-13
-2.81094e-12
7.19802e-13
-2.937e-12
6.24933e-13
-3.04272e-12
5.29282e-13
-3.12819e-12
4.33834e-13
-3.19373e-12
3.3955e-13
-3.23988e-12
2.4725e-13
-3.26681e-12
1.56833e-13
-3.27671e-12
7.05794e-14
-3.2737e-12
6.65015e-16
-3.24808e-12
-8.52911e-14
-3.21077e-12
-1.58344e-13
-3.15997e-12
-2.23548e-13
-3.09635e-12
-2.83946e-13
-3.02145e-12
-3.41543e-13
-2.93673e-12
-3.90789e-13
-2.84319e-12
-4.35116e-13
-2.74199e-12
-4.73942e-13
-2.63432e-12
-5.07383e-13
-2.5212e-12
-5.35659e-13
-2.40369e-12
-5.58947e-13
-2.28278e-12
-5.77443e-13
-2.15936e-12
-5.9146e-13
-2.03433e-12
-6.01216e-13
-1.90847e-12
-6.07017e-13
-1.78249e-12
-6.09162e-13
-1.65719e-12
-6.0781e-13
-1.533e-12
-6.03443e-13
-1.41058e-12
-5.96383e-13
-1.29042e-12
-5.86637e-13
-1.17297e-12
-5.74636e-13
-1.05859e-12
-5.60602e-13
-9.47635e-13
-5.44759e-13
-8.40416e-13
-5.27333e-13
-7.37186e-13
-5.08547e-13
-6.38161e-13
-4.88543e-13
-5.43526e-13
-4.67546e-13
-4.53422e-13
-4.45656e-13
-3.68e-13
-4.23055e-13
-2.87374e-13
-3.99836e-13
-2.116e-13
-3.76141e-13
-1.40766e-13
-3.52034e-13
-7.49152e-14
-3.27655e-13
-1.40739e-14
-3.03043e-13
4.17202e-14
-2.78274e-13
9.2459e-14
-2.53453e-13
1.38167e-13
-2.28623e-13
1.78803e-13
-2.03811e-13
2.14432e-13
-1.79136e-13
2.45029e-13
-1.54627e-13
2.70689e-13
-1.30454e-13
2.91463e-13
-1.06571e-13
3.0742e-13
-8.31453e-14
3.18666e-13
-6.02848e-14
3.25274e-13
-3.79949e-14
3.27392e-13
-1.65659e-14
3.25202e-13
3.90448e-15
3.18939e-13
2.32154e-14
3.08813e-13
4.11716e-14
2.95051e-13
5.76788e-14
2.78025e-13
7.24403e-14
2.58075e-13
8.52747e-14
2.35595e-13
9.60913e-14
2.11064e-13
1.04997e-13
1.85058e-13
1.12554e-13
1.58824e-13
1.19807e-13
1.30413e-13
1.3272e-13
3.54248e-14
3.8667e-13
-2.17286e-18
2.80913e-13
6.3515e-21
2.40067e-19
6.83603e-21
1.45274e-23
6.81292e-21
1.12135e-22
6.7696e-21
2.0876e-22
6.70616e-21
3.0311e-22
6.6237e-21
3.9441e-22
6.52289e-21
4.81419e-22
6.40512e-21
5.63362e-22
6.27158e-21
6.39617e-22
6.12388e-21
7.09721e-22
5.96304e-21
7.73155e-22
5.79104e-21
8.29921e-22
5.60906e-21
8.79707e-22
5.41886e-21
9.22772e-22
5.22168e-21
9.59219e-22
5.01882e-21
9.89412e-22
4.81145e-21
1.01361e-21
4.60093e-21
1.03237e-21
4.38814e-21
1.04587e-21
4.17406e-21
1.05497e-21
3.95935e-21
1.05988e-21
3.74465e-21
1.06117e-21
3.53082e-21
1.05941e-21
3.31793e-21
1.05502e-21
3.10674e-21
1.0484e-21
2.89736e-21
1.03997e-21
2.68999e-21
1.03005e-21
2.48485e-21
1.01914e-21
2.28198e-21
1.00745e-21
2.0815e-21
9.9546e-22
1.88334e-21
9.83156e-22
1.68729e-21
9.71058e-22
1.49332e-21
9.59375e-22
1.30147e-21
9.48208e-22
1.11147e-21
9.37971e-22
9.22979e-22
9.28407e-22
7.36087e-22
9.20239e-22
5.50179e-22
9.13259e-22
3.652e-22
9.07676e-22
1.80842e-22
9.03747e-22
9.01265e-22
-3.0219e-13
1.68258e-12
-6.01413e-13
1.6675e-12
-8.94879e-13
1.63776e-12
-1.17991e-12
1.59388e-12
-1.45394e-12
1.53666e-12
-1.71469e-12
1.46716e-12
-1.96009e-12
1.38656e-12
-2.18837e-12
1.29628e-12
-2.39809e-12
1.19778e-12
-2.58808e-12
1.09257e-12
-2.7575e-12
9.82191e-13
-2.90576e-12
8.68106e-13
-3.03263e-12
7.51838e-13
-3.13806e-12
6.34756e-13
-3.22227e-12
5.18089e-13
-3.2857e-12
4.03024e-13
-3.32888e-12
2.90478e-13
-3.35166e-12
1.79667e-13
-3.36011e-12
7.90703e-14
-3.34997e-12
-9.42141e-15
-3.31992e-12
-1.15287e-13
-3.2774e-12
-2.00813e-13
-3.22133e-12
-2.79564e-13
-3.15167e-12
-3.53563e-13
-3.07144e-12
-4.21718e-13
-2.98108e-12
-4.81088e-13
-2.88204e-12
-5.34096e-13
-2.77551e-12
-5.80419e-13
-2.66262e-12
-6.20215e-13
-2.5445e-12
-6.53718e-13
-2.42222e-12
-6.81169e-13
-2.29678e-12
-7.02817e-13
-2.16913e-12
-7.19052e-13
-2.04012e-12
-7.30161e-13
-1.91058e-12
-7.36498e-13
-1.78126e-12
-7.38428e-13
-1.65286e-12
-7.36146e-13
-1.52582e-12
-7.30424e-13
-1.40087e-12
-7.21274e-13
-1.27843e-12
-7.09021e-13
-1.15893e-12
-6.94068e-13
-1.04276e-12
-6.7672e-13
-9.30229e-13
-6.5723e-13
-8.21629e-13
-6.35878e-13
-7.17209e-13
-6.12909e-13
-6.17152e-13
-5.88548e-13
-5.21651e-13
-5.62993e-13
-4.30825e-13
-5.36431e-13
-3.44811e-13
-5.09018e-13
-2.63683e-13
-4.80916e-13
-1.87527e-13
-4.52252e-13
-1.1638e-13
-4.23135e-13
-5.02994e-14
-3.93692e-13
1.06936e-14
-3.63993e-13
6.65627e-14
-3.34104e-13
1.17312e-13
-3.04165e-13
1.62941e-13
-2.74218e-13
2.03463e-13
-2.44298e-13
2.38902e-13
-2.14543e-13
2.69266e-13
-1.84963e-13
2.9455e-13
-1.5571e-13
3.14899e-13
-1.26895e-13
3.30318e-13
-9.85415e-14
3.40859e-13
-7.08006e-14
3.46701e-13
-4.38165e-14
3.47817e-13
-1.76626e-14
3.44535e-13
7.20341e-15
3.36975e-13
3.07936e-14
3.25287e-13
5.28754e-14
3.09804e-13
7.31744e-14
2.9086e-13
9.13949e-14
2.68891e-13
1.07255e-13
2.44511e-13
1.20481e-13
2.18613e-13
1.30906e-13
1.92468e-13
1.38709e-13
1.67565e-13
1.44719e-13
1.24456e-13
1.75841e-13
2.70261e-14
4.84106e-13
-1.99447e-18
3.07946e-13
5.92753e-21
2.80794e-19
6.93364e-21
1.70089e-23
6.90949e-21
1.36743e-22
6.86395e-21
2.55134e-22
6.79746e-21
3.70732e-22
6.71061e-21
4.82143e-22
6.60488e-21
5.88384e-22
6.48137e-21
6.88214e-22
6.34179e-21
7.8091e-22
6.18731e-21
8.65748e-22
6.01976e-21
9.42469e-22
5.84083e-21
1.01056e-21
5.65218e-21
1.07011e-21
5.45536e-21
1.1214e-21
5.25182e-21
1.16436e-21
5.04306e-21
1.19983e-21
4.83022e-21
1.2279e-21
4.61443e-21
1.2492e-21
4.39724e-21
1.26455e-21
4.17902e-21
1.27407e-21
3.96059e-21
1.27877e-21
3.74289e-21
1.27918e-21
3.52643e-21
1.27598e-21
3.31131e-21
1.26941e-21
3.09831e-21
1.26026e-21
2.88743e-21
1.24904e-21
2.67903e-21
1.23622e-21
2.47322e-21
1.22206e-21
2.26999e-21
1.20727e-21
2.06919e-21
1.19186e-21
1.87113e-21
1.17641e-21
1.67561e-21
1.1611e-21
1.48215e-21
1.14632e-21
1.29118e-21
1.13236e-21
1.10196e-21
1.11928e-21
9.14862e-22
1.10759e-21
7.29056e-22
1.09726e-21
5.44647e-22
1.08857e-21
3.61168e-22
1.08164e-21
1.78361e-22
1.07668e-21
1.07358e-21
-3.17181e-13
1.99979e-12
-6.31121e-13
1.98148e-12
-9.38752e-13
1.94543e-12
-1.23712e-12
1.89228e-12
-1.52345e-12
1.82302e-12
-1.79526e-12
1.73901e-12
-2.05036e-12
1.6417e-12
-2.28689e-12
1.53284e-12
-2.50331e-12
1.41425e-12
-2.69847e-12
1.28776e-12
-2.87152e-12
1.15528e-12
-3.02198e-12
1.01861e-12
-3.14964e-12
8.79535e-13
-3.25456e-12
7.39714e-13
-3.33707e-12
6.00645e-13
-3.39772e-12
4.6372e-13
-3.43675e-12
3.29547e-13
-3.45483e-12
1.97793e-13
-3.46299e-12
8.72787e-14
-3.44101e-12
-3.13468e-14
-3.40678e-12
-1.49476e-13
-3.35783e-12
-2.49705e-13
-3.2952e-12
-3.42149e-13
-3.21822e-12
-4.30491e-13
-3.1313e-12
-5.0858e-13
-3.03418e-12
-5.78152e-13
-2.92845e-12
-6.39769e-13
-2.81536e-12
-6.93459e-13
-2.69613e-12
-7.39381e-13
-2.57196e-12
-7.77833e-13
-2.44392e-12
-8.09152e-13
-2.31303e-12
-8.33648e-13
-2.18024e-12
-8.51786e-13
-2.04648e-12
-8.63857e-13
-1.91252e-12
-8.70397e-13
-1.77914e-12
-8.71751e-13
-1.64701e-12
-8.6822e-13
-1.51663e-12
-8.60752e-13
-1.38863e-12
-8.4921e-13
-1.26349e-12
-8.34111e-13
-1.14156e-12
-8.15939e-13
-1.02325e-12
-7.94967e-13
-9.08874e-13
-7.71552e-13
-7.9866e-13
-7.46037e-13
-6.92832e-13
-7.18682e-13
-5.91587e-13
-6.89739e-13
-4.95075e-13
-6.59454e-13
-4.03418e-13
-6.28039e-13
-3.16702e-13
-5.95687e-13
-2.3501e-13
-5.6256e-13
-1.58398e-13
-5.28818e-13
-8.69251e-14
-4.94564e-13
-2.05921e-14
-4.59982e-13
4.05466e-14
-4.25094e-13
9.65131e-14
-3.9003e-13
1.47275e-13
-3.54892e-13
1.92841e-13
-3.19746e-13
2.33232e-13
-2.84658e-13
2.68438e-13
-2.49719e-13
2.98509e-13
-2.15004e-13
3.23435e-13
-1.80609e-13
3.43253e-13
-1.46689e-13
3.58028e-13
-1.13292e-13
3.67842e-13
-8.05907e-14
3.72689e-13
-4.8642e-14
3.72766e-13
-1.7721e-14
3.68187e-13
1.17977e-14
3.59059e-13
3.99397e-14
3.45567e-13
6.63833e-14
3.28014e-13
9.0741e-14
3.06711e-13
1.12713e-13
2.82117e-13
1.3186e-13
2.54939e-13
1.47669e-13
2.26446e-13
1.5941e-13
1.98697e-13
1.66467e-13
1.7364e-13
1.69783e-13
4.4028e-14
3.05461e-13
2.91869e-14
4.98955e-13
-2.26471e-18
3.37142e-13
6.35239e-21
3.24069e-19
7.05337e-21
1.9387e-23
7.02793e-21
1.62748e-22
6.97954e-21
3.04247e-22
6.90887e-21
4.42387e-22
6.8169e-21
5.75356e-22
6.70476e-21
7.01759e-22
6.57407e-21
8.20201e-22
6.42663e-21
9.29906e-22
6.26398e-21
1.03005e-21
6.08795e-21
1.11995e-21
5.90038e-21
1.19946e-21
5.70336e-21
1.26879e-21
5.49837e-21
1.32778e-21
5.28729e-21
1.37715e-21
5.07113e-21
1.41717e-21
4.85147e-21
1.44839e-21
4.62973e-21
1.47181e-21
4.40686e-21
1.48794e-21
4.18372e-21
1.49746e-21
3.96101e-21
1.50138e-21
3.73963e-21
1.50014e-21
3.51986e-21
1.49466e-21
3.30211e-21
1.48546e-21
3.08709e-21
1.47336e-21
2.87456e-21
1.45878e-21
2.66492e-21
1.44234e-21
2.45838e-21
1.42466e-21
2.25458e-21
1.40595e-21
2.05379e-21
1.38687e-21
1.85593e-21
1.36774e-21
1.66077e-21
1.34892e-21
1.46819e-21
1.33062e-21
1.2781e-21
1.31341e-21
1.09028e-21
1.29748e-21
9.04522e-22
1.28301e-21
7.20371e-22
1.27034e-21
5.37667e-22
1.25985e-21
3.56256e-22
1.25147e-21
1.75259e-22
1.24548e-21
1.24206e-21
-3.35374e-13
2.33519e-12
-6.67153e-13
2.3133e-12
-9.91908e-13
2.27022e-12
-1.30636e-12
2.20677e-12
-1.60748e-12
2.12418e-12
-1.89255e-12
2.02411e-12
-2.15922e-12
1.90841e-12
-2.40548e-12
1.77913e-12
-2.62977e-12
1.63857e-12
-2.83092e-12
1.48894e-12
-3.00814e-12
1.33254e-12
-3.16096e-12
1.17148e-12
-3.28933e-12
1.00794e-12
-3.39341e-12
8.43834e-13
-3.47369e-12
6.80966e-13
-3.53082e-12
5.209e-13
-3.56391e-12
3.6268e-13
-3.58015e-12
2.14077e-13
-3.58143e-12
8.86022e-14
-3.54917e-12
-6.3557e-14
-3.50904e-12
-1.89549e-13
-3.45253e-12
-3.06176e-13
-3.38114e-12
-4.13487e-13
-3.29634e-12
-5.1523e-13
-3.20114e-12
-6.03735e-13
-3.09591e-12
-6.83331e-13
-2.98217e-12
-7.53455e-13
-2.86133e-12
-8.14241e-13
-2.73462e-12
-8.66032e-13
-2.60328e-12
-9.0912e-13
-2.46844e-12
-9.43936e-13
-2.33112e-12
-9.70901e-13
-2.19236e-12
-9.90489e-13
-2.053e-12
-1.00317e-12
-1.91389e-12
-1.00945e-12
-1.77586e-12
-1.00972e-12
-1.63932e-12
-1.0047e-12
-1.50505e-12
-9.94968e-13
-1.37357e-12
-9.80629e-13
-1.24528e-12
-9.62344e-13
-1.12062e-12
-9.4054e-13
-9.99878e-13
-9.15656e-13
-8.83368e-13
-8.88008e-13
-7.71303e-13
-8.58047e-13
-6.63909e-13
-8.26023e-13
-5.61319e-13
-7.92277e-13
-4.63673e-13
-7.57047e-13
-3.71061e-13
-7.20601e-13
-2.83574e-13
-6.83124e-13
-2.01261e-13
-6.44828e-13
-1.24165e-13
-6.05868e-13
-5.22925e-14
-5.66393e-13
1.42941e-14
-5.26525e-13
7.5618e-14
-4.86376e-13
1.31659e-13
-4.46032e-13
1.8243e-13
-4.05625e-13
2.27928e-13
-3.65212e-13
2.68158e-13
-3.24856e-13
3.03127e-13
-2.84655e-13
3.32878e-13
-2.44724e-13
3.57382e-13
-2.05088e-13
3.76692e-13
-1.6597e-13
3.9078e-13
-1.27356e-13
3.99714e-13
-8.95018e-14
4.03534e-13
-5.24418e-14
4.02443e-13
-1.66104e-14
3.96342e-13
1.79153e-14
3.85445e-13
5.08516e-14
3.69937e-13
8.19047e-14
3.49989e-13
1.10705e-13
3.25869e-13
1.36846e-13
2.97923e-13
1.59818e-13
2.66691e-13
1.78911e-13
2.3345e-13
1.92662e-13
2.02011e-13
1.97916e-13
1.86113e-13
1.85691e-13
2.11964e-14
4.70385e-13
3.11322e-14
4.89027e-13
-2.61412e-18
3.68285e-13
7.19972e-21
3.665e-19
7.19678e-21
2.17135e-23
7.16943e-21
1.90458e-22
7.11773e-21
3.5698e-22
7.04179e-21
5.19159e-22
6.9433e-21
6.75135e-22
6.82321e-21
8.22838e-22
6.68378e-21
9.61132e-22
6.52677e-21
1.08852e-21
6.35383e-21
1.20412e-21
6.16751e-21
1.30767e-21
5.96966e-21
1.39881e-21
5.7624e-21
1.47755e-21
5.5478e-21
1.54409e-21
5.32725e-21
1.59899e-21
5.10231e-21
1.64294e-21
4.87494e-21
1.67685e-21
4.64591e-21
1.70136e-21
4.41637e-21
1.71738e-21
4.1876e-21
1.72617e-21
3.95982e-21
1.72814e-21
3.7341e-21
1.72462e-21
3.51066e-21
1.71593e-21
3.29001e-21
1.70332e-21
3.07256e-21
1.68755e-21
2.85817e-21
1.66894e-21
2.64719e-21
1.64836e-21
2.43972e-21
1.62639e-21
2.23551e-21
1.60349e-21
2.03466e-21
1.58007e-21
1.83706e-21
1.55681e-21
1.64242e-21
1.5339e-21
1.45098e-21
1.51188e-21
1.26217e-21
1.49099e-21
1.0758e-21
1.47171e-21
8.91856e-22
1.45455e-21
7.09876e-22
1.4396e-21
5.29396e-22
1.42694e-21
3.50208e-22
1.41712e-21
1.71898e-22
1.41003e-21
1.406e-21
-3.57117e-13
2.69233e-12
-7.10178e-13
2.6664e-12
-1.05535e-12
2.61542e-12
-1.38892e-12
2.54038e-12
-1.70757e-12
2.44285e-12
-2.00826e-12
2.32483e-12
-2.28843e-12
2.18862e-12
-2.54603e-12
2.03677e-12
-2.77939e-12
1.87196e-12
-2.98733e-12
1.69692e-12
-3.16911e-12
1.51436e-12
-3.3244e-12
1.32681e-12
-3.45321e-12
1.13678e-12
-3.55591e-12
9.46574e-13
-3.63333e-12
7.5843e-13
-3.68515e-12
5.72759e-13
-3.71315e-12
3.90721e-13
-3.73001e-12
2.30984e-13
-3.71095e-12
6.95957e-14
-3.67684e-12
-9.7626e-14
-3.6271e-12
-2.39242e-13
-3.56153e-12
-3.71703e-13
-3.47939e-12
-4.9558e-13
-3.3859e-12
-6.08668e-13
-3.28086e-12
-7.0872e-13
-3.1661e-12
-7.98044e-13
-3.04305e-12
-8.76446e-13
-2.91316e-12
-9.44077e-13
-2.77777e-12
-1.00137e-12
-2.63813e-12
-1.04871e-12
-2.49542e-12
-1.08659e-12
-2.35073e-12
-1.11553e-12
-2.20505e-12
-1.13611e-12
-2.05931e-12
-1.14885e-12
-1.91433e-12
-1.15437e-12
-1.7709e-12
-1.15309e-12
-1.62938e-12
-1.14616e-12
-1.49075e-12
-1.13355e-12
-1.3553e-12
-1.11602e-12
-1.2235e-12
-1.09409e-12
-1.09571e-12
-1.06827e-12
-9.72253e-13
-1.03906e-12
-8.53367e-13
-1.00684e-12
-7.39278e-13
-9.72083e-13
-6.30135e-13
-9.35114e-13
-5.26097e-13
-8.96264e-13
-4.27218e-13
-8.55878e-13
-3.33598e-13
-8.14173e-13
-2.45284e-13
-7.71393e-13
-1.62305e-13
-7.2776e-13
-8.46821e-14
-6.83445e-13
-1.24338e-14
-6.38599e-13
5.44318e-14
-5.93348e-13
1.1594e-13
-5.47845e-13
1.72078e-13
-5.02133e-13
2.2286e-13
-4.56368e-13
2.68277e-13
-4.10595e-13
3.08358e-13
-3.64903e-13
3.43085e-13
-3.19352e-13
3.72488e-13
-2.74095e-13
3.96552e-13
-2.29125e-13
4.15254e-13
-1.84646e-13
4.28641e-13
-1.40717e-13
4.36677e-13
-9.7515e-14
4.39462e-13
-5.52075e-14
4.36969e-13
-1.40995e-14
4.29294e-13
2.56105e-14
4.16491e-13
6.36693e-14
3.9872e-13
9.96916e-14
3.76129e-13
1.33309e-13
3.48853e-13
1.64135e-13
3.1698e-13
1.91704e-13
2.80492e-13
2.15411e-13
2.38738e-13
2.34428e-13
1.89717e-13
2.46947e-13
1.26695e-13
2.48723e-13
6.49175e-14
5.32173e-13
3.42368e-14
5.19718e-13
-2.6631e-18
4.02532e-13
6.77684e-21
4.08913e-19
7.36558e-21
2.4195e-23
7.33596e-21
2.2034e-22
7.27991e-21
4.13901e-22
7.19776e-21
6.02188e-22
7.09101e-21
7.82771e-22
6.96145e-21
9.53584e-22
6.81111e-21
1.11266e-21
6.64242e-21
1.25861e-21
6.45739e-21
1.39049e-21
6.2586e-21
1.50764e-21
6.0484e-21
1.61016e-21
5.82894e-21
1.69789e-21
5.6027e-21
1.77146e-21
5.37119e-21
1.83133e-21
5.13622e-21
1.87853e-21
4.89939e-21
1.91404e-21
4.66199e-21
1.93876e-21
4.42516e-21
1.9539e-21
4.18957e-21
1.96057e-21
3.95625e-21
1.95985e-21
3.72542e-21
1.95277e-21
3.4981e-21
1.94041e-21
3.27419e-21
1.92351e-21
3.05395e-21
1.90293e-21
2.83764e-21
1.87956e-21
2.62521e-21
1.85407e-21
2.41676e-21
1.82709e-21
2.21214e-21
1.79927e-21
2.01134e-21
1.7711e-21
1.81421e-21
1.74308e-21
1.62045e-21
1.71568e-21
1.43009e-21
1.68952e-21
1.24294e-21
1.66486e-21
1.05864e-21
1.64216e-21
8.76863e-22
1.62184e-21
6.9721e-22
1.60396e-21
5.19573e-22
1.58932e-21
3.43125e-22
1.57785e-21
1.67814e-22
1.56973e-21
1.56534e-21
-3.82878e-13
3.07523e-12
-7.61111e-13
3.04467e-12
-1.13036e-12
2.98471e-12
-1.48643e-12
2.89648e-12
-1.82557e-12
2.78203e-12
-2.14447e-12
2.64376e-12
-2.44031e-12
2.4845e-12
-2.71084e-12
2.30733e-12
-2.95441e-12
2.11557e-12
-3.16987e-12
1.91242e-12
-3.35656e-12
1.70109e-12
-3.51423e-12
1.48452e-12
-3.6431e-12
1.26568e-12
-3.74379e-12
1.04731e-12
-3.81667e-12
8.31347e-13
-3.86143e-12
6.1756e-13
-3.89307e-12
4.22413e-13
-3.89326e-12
2.31213e-13
-3.86186e-12
3.82399e-14
-3.82169e-12
-1.3775e-13
-3.76164e-12
-2.99247e-13
-3.68427e-12
-4.4903e-13
-3.5911e-12
-5.887e-13
-3.48654e-12
-7.13176e-13
-3.37033e-12
-8.24885e-13
-3.24455e-12
-9.23772e-13
-3.11077e-12
-1.01017e-12
-2.97049e-12
-1.08431e-12
-2.82513e-12
-1.14667e-12
-2.67602e-12
-1.19777e-12
-2.52438e-12
-1.23818e-12
-2.3713e-12
-1.26856e-12
-2.21783e-12
-1.28953e-12
-2.06485e-12
-1.30177e-12
-1.91333e-12
-1.30583e-12
-1.76367e-12
-1.30269e-12
-1.61679e-12
-1.29299e-12
-1.4732e-12
-1.27708e-12
-1.33337e-12
-1.25579e-12
-1.1977e-12
-1.22971e-12
-1.06648e-12
-1.19943e-12
-9.40066e-13
-1.16543e-12
-8.18607e-13
-1.12825e-12
-7.0232e-13
-1.08832e-12
-5.91321e-13
-1.04606e-12
-4.85683e-13
-1.00185e-12
-3.85492e-13
-9.56022e-13
-2.90815e-13
-9.08803e-13
-2.01636e-13
-8.60528e-13
-1.17974e-13
-8.11378e-13
-3.9821e-14
-7.61554e-13
3.28143e-14
-7.11193e-13
9.99585e-14
-6.60455e-13
1.61642e-13
-6.0949e-13
2.17863e-13
-5.58313e-13
2.68632e-13
-5.07103e-13
3.13965e-13
-4.55893e-13
3.53868e-13
-4.04772e-13
3.88365e-13
-3.53816e-13
4.17414e-13
-3.03117e-13
4.41044e-13
-2.52726e-13
4.59168e-13
-2.02744e-13
4.71818e-13
-1.53343e-13
4.78967e-13
-1.04642e-13
4.80604e-13
-5.68206e-14
4.76722e-13
-1.01978e-14
4.67329e-13
3.50246e-14
4.52524e-13
7.84895e-14
4.32358e-13
1.19874e-13
4.06945e-13
1.58738e-13
3.76386e-13
1.94704e-13
3.40695e-13
2.27406e-13
2.99474e-13
2.56645e-13
2.51217e-13
2.82695e-13
1.9092e-13
3.07255e-13
1.01378e-13
3.38276e-13
7.62832e-14
5.57278e-13
3.74133e-14
5.58598e-13
-3.02869e-18
4.39957e-13
6.77655e-21
4.49634e-19
7.56172e-21
2.65732e-23
7.52952e-21
2.5291e-22
7.46815e-21
4.76198e-22
7.37835e-21
6.93022e-22
7.26177e-21
9.00438e-22
7.12058e-21
1.09581e-21
6.95716e-21
1.27712e-21
6.77425e-21
1.44255e-21
6.57464e-21
1.59124e-21
6.36102e-21
1.72245e-21
6.13618e-21
1.83619e-21
5.90245e-21
1.93255e-21
5.66257e-21
2.01222e-21
5.4184e-21
2.07622e-21
5.17174e-21
2.12539e-21
4.9241e-21
2.16122e-21
4.67709e-21
2.18495e-21
4.43188e-21
2.19813e-21
4.18884e-21
2.20159e-21
3.94912e-21
2.19699e-21
3.71311e-21
2.18531e-21
3.48114e-21
2.16789e-21
3.25361e-21
2.14571e-21
3.03058e-21
2.1196e-21
2.81216e-21
2.09065e-21
2.59823e-21
2.05937e-21
2.3889e-21
2.0267e-21
2.18391e-21
1.99325e-21
1.98332e-21
1.95964e-21
1.78676e-21
1.92645e-21
1.59429e-21
1.89419e-21
1.40543e-21
1.86333e-21
1.22019e-21
1.83443e-21
1.03832e-21
1.80801e-21