/*--------------------------------*- C++ -*----------------------------------*\
  =========                 |
  \\      /  F ield         | OpenFOAM: The Open Source CFD Toolbox
   \\    /   O peration     | Website:  https://openfoam.org
    \\  /    A nd           | Version:  6
     \\/     M anipulation  |
\*---------------------------------------------------------------------------*/
FoamFile
{
    version     2.0;
    format      ascii;
    class       volScalarField;
    location    "1000";
    object      Su;
}
// * * * * * * * * * * * * * * * * * * * * * * * * * * * * * * * * * * * * * //

dimensions      [0 0 -1 0 0 0 0];

internalField   nonuniform List<scalar> 
4800
(
0.218233
0.213532
0.208871
0.204278
0.199786
0.195425
0.191209
0.187147
0.183242
0.179496
0.175908
0.172474
0.169187
0.166036
0.163005
0.160079
0.157248
0.154503
0.15183
0.149207
0.146616
0.14404
0.141457
0.13884
0.13617
0.133426
0.130585
0.127634
0.124571
0.1214
0.118136
0.114804
0.111429
0.108033
0.104633
0.10125
0.0979172
0.0946644
0.0915197
0.088501
0.0856322
0.0829288
0.0803863
0.0779964
0.0757469
0.0736229
0.0716088
0.069688
0.0678447
0.0660647
0.0643412
0.0626635
0.0610175
0.0594007
0.0578038
0.056217
0.0546475
0.053085
0.0515197
0.0499436
0.0483478
0.0467299
0.0450696
0.0433475
0.0415575
0.0396888
0.0377255
0.0356524
0.0334576
0.031143
0.0287218
0.0262071
0.0236086
0.0209338
0.0181934
0.0153999
0.0125714
0.00973304
0.00689555
0.00405181
0.00118034
-0.00172273
-0.00463886
-0.0075574
-0.0104722
-0.0133797
-0.016278
-0.0191661
-0.0220438
-0.0249113
-0.027769
-0.0306175
-0.0334577
-0.0362901
-0.0391157
-0.0419351
-0.0447492
-0.0475586
-0.0503639
-0.0531656
-0.0559644
-0.0587605
-0.0615545
-0.0643466
-0.0671371
-0.0699262
-0.0727142
-0.0755012
-0.0782873
-0.0810728
-0.0838576
-0.0866418
-0.0894256
-0.092209
-0.0949921
-0.0977749
-0.100557
-0.10334
-0.106122
-0.108904
0.218232
0.213529
0.208877
0.20431
0.199843
0.195501
0.191302
0.18725
0.183353
0.17961
0.17602
0.172583
0.169289
0.166129
0.163091
0.160164
0.157336
0.154594
0.151918
0.149289
0.14669
0.144102
0.1415
0.138867
0.136183
0.133426
0.130576
0.127622
0.124559
0.121392
0.118134
0.11481
0.111445
0.108058
0.104668
0.101293
0.0979563
0.0947049
0.09158
0.0885979
0.0857666
0.0830921
0.0805696
0.0781922
0.0759499
0.0738272
0.0718098
0.0698839
0.0680365
0.0662562
0.0645321
0.062847
0.0611945
0.0595706
0.0579607
0.0563649
0.0547858
0.0532071
0.0516301
0.050043
0.0484379
0.0468059
0.0451287
0.0433976
0.0416023
0.0397302
0.0377718
0.0357186
0.0335619
0.0312948
0.0289152
0.0264287
0.0238449
0.0211756
0.0184323
0.0156255
0.0127707
0.00988916
0.00700284
0.00411595
0.00121152
-0.00171028
-0.0046373
-0.00756229
-0.0104809
-0.0133906
-0.0162901
-0.0191787
-0.0220565
-0.0249238
-0.0277811
-0.030629
-0.0334685
-0.0363002
-0.0391251
-0.0419438
-0.0447572
-0.0475658
-0.0503705
-0.0531716
-0.0559698
-0.0587654
-0.0615588
-0.0643505
-0.0671405
-0.0699293
-0.0727169
-0.0755036
-0.0782894
-0.0810746
-0.0838592
-0.0866432
-0.0894268
-0.09221
-0.0949929
-0.0977756
-0.100558
-0.10334
-0.106122
-0.108904
0.218246
0.213565
0.208931
0.204387
0.199953
0.195642
0.191466
0.187435
0.18355
0.179813
0.176226
0.172785
0.169485
0.166318
0.163275
0.160346
0.15752
0.154777
0.152098
0.149462
0.146849
0.144237
0.141606
0.13894
0.136222
0.133436
0.130568
0.127605
0.124541
0.121379
0.118133
0.11482
0.111465
0.108089
0.104712
0.101358
0.0980612
0.094862
0.0917841
0.088845
0.086059
0.0834215
0.0809274
0.0785728
0.0763425
0.0742255
0.0722112
0.0702852
0.0684352
0.0666507
0.0649168
0.063218
0.0615548
0.0599172
0.0582904
0.0566802
0.0550793
0.0534729
0.0518716
0.0502566
0.048628
0.0469687
0.0452644
0.0435134
0.0416998
0.0398146
0.0378544
0.035814
0.0336845
0.0314543
0.0291147
0.0266662
0.0241129
0.0214627
0.0187265
0.0159172
0.0130512
0.0101356
0.00718281
0.00421943
0.00125982
-0.00169314
-0.00463855
-0.00757462
-0.0104999
-0.0134135
-0.016315
-0.0192045
-0.0220823
-0.024949
-0.0278053
-0.0306521
-0.0334902
-0.0363205
-0.0391439
-0.0419611
-0.0447731
-0.0475803
-0.0503836
-0.0531835
-0.0559805
-0.058775
-0.0615675
-0.0643582
-0.0671474
-0.0699354
-0.0727223
-0.0755084
-0.0782937
-0.0810783
-0.0838624
-0.086646
-0.0894292
-0.092212
-0.0949946
-0.0977769
-0.100559
-0.103341
-0.106123
-0.108905
0.218259
0.213614
0.209022
0.204516
0.200118
0.19584
0.191691
0.187682
0.183811
0.180086
0.176506
0.173069
0.169769
0.166602
0.16356
0.160633
0.157806
0.15506
0.152371
0.14972
0.147087
0.144447
0.141779
0.13907
0.136307
0.133479
0.130577
0.127595
0.124526
0.121373
0.118142
0.114845
0.111503
0.108142
0.104791
0.101481
0.0982475
0.0951198
0.0921124
0.0892391
0.0865088
0.0839137
0.0814535
0.0791256
0.0769138
0.0748124
0.0728088
0.0708862
0.0690339
0.0672437
0.0655011
0.0637951
0.0621191
0.0604628
0.058814
0.0571772
0.0555425
0.0539021
0.0522622
0.0506044
0.0489309
0.0472227
0.0454776
0.0436903
0.0418435
0.0399354
0.0379634
0.0359207
0.033799
0.0315899
0.0292836
0.0268737
0.0243544
0.0217272
0.0190007
0.0161884
0.0132973
0.0103386
0.0073344
0.0043115
0.00130145
-0.00168385
-0.00464975
-0.00759867
-0.0105318
-0.0134499
-0.0163538
-0.019244
-0.0221215
-0.0249872
-0.027842
-0.0306869
-0.0335229
-0.036351
-0.0391721
-0.0419871
-0.0447968
-0.047602
-0.0504033
-0.0532013
-0.0559965
-0.0587894
-0.0615804
-0.0643697
-0.0671577
-0.0699445
-0.0727304
-0.0755155
-0.0783
-0.0810838
-0.0838672
-0.0866501
-0.0894327
-0.092215
-0.094997
-0.0977788
-0.10056
-0.103342
-0.106123
-0.108905
0.218279
0.213677
0.209132
0.204671
0.200314
0.196074
0.191957
0.187971
0.184122
0.180415
0.176847
0.173419
0.170127
0.166967
0.163931
0.161008
0.158181
0.155429
0.152727
0.150056
0.147393
0.144714
0.142
0.139241
0.136428
0.133554
0.130614
0.127608
0.124531
0.121384
0.118172
0.114902
0.11159
0.108265
0.10496
0.101715
0.0985583
0.0955078
0.092575
0.0897703
0.0870982
0.0845542
0.0821376
0.079841
0.0776524
0.0755716
0.0735819
0.0716687
0.0698242
0.0680369
0.0662909
0.0645746
0.0628794
0.0612039
0.0595274
0.0578545
0.0561766
0.0544913
0.052796
0.0510792
0.0493425
0.0475733
0.0457706
0.0439264
0.0420353
0.040094
0.0380955
0.0360342
0.0339031
0.0316952
0.0294014
0.027012
0.0245137
0.0219016
0.0191807
0.0163607
0.0134506
0.0104674
0.00743135
0.00436752
0.00131861
-0.00169403
-0.00467831
-0.00763917
-0.0105797
-0.013502
-0.0164077
-0.0192982
-0.0221748
-0.0250387
-0.0278912
-0.0307334
-0.0335665
-0.0363916
-0.0392097
-0.0420217
-0.0448285
-0.0476308
-0.0504294
-0.0532249
-0.0560178
-0.0588085
-0.0615975
-0.064385
-0.0671713
-0.0699566
-0.0727411
-0.075525
-0.0783083
-0.0810911
-0.0838735
-0.0866556
-0.0894374
-0.0922189
-0.0950003
-0.0977814
-0.100562
-0.103343
-0.106124
-0.108905
0.218303
0.213749
0.209254
0.204843
0.20053
0.196329
0.192248
0.188293
0.184472
0.180787
0.177238
0.173826
0.170548
0.167398
0.164369
0.161448
0.158618
0.155854
0.153136
0.150441
0.147741
0.145016
0.142253
0.139443
0.13658
0.13366
0.130687
0.12766
0.124579
0.121441
0.118252
0.115019
0.111754
0.108482
0.105241
0.102068
0.0989884
0.0960161
0.0931597
0.0904264
0.0878175
0.0853296
0.0829617
0.0807043
0.0785487
0.0764956
0.0745245
0.0726247
0.0707893
0.069003
0.0672522
0.0655248
0.0638125
0.0621116
0.0603967
0.0586806
0.0569534
0.0552122
0.053449
0.05166
0.049846
0.0480023
0.0461268
0.0442136
0.0422637
0.0402748
0.0382395
0.0361486
0.0339943
0.0317697
0.029466
0.0270705
0.0245716
0.0219635
0.0192457
0.0164239
0.0135108
0.0105208
0.00746812
0.00437728
0.00130001
-0.00173235
-0.00473039
-0.00770039
-0.0106465
-0.0135717
-0.0164782
-0.0193679
-0.0222427
-0.025104
-0.0279532
-0.0307919
-0.0336212
-0.0364424
-0.0392565
-0.0420647
-0.0448678
-0.0476666
-0.0504618
-0.0532542
-0.0560441
-0.0588322
-0.0616186
-0.0644039
-0.0671881
-0.0699715
-0.0727543
-0.0755366
-0.0783185
-0.0811
-0.0838813
-0.0866623
-0.0894431
-0.0922238
-0.0950043
-0.0977847
-0.100565
-0.103345
-0.106125
-0.108905
0.218332
0.213836
0.209396
0.205032
0.200763
0.196601
0.192556
0.188634
0.184844
0.181186
0.177662
0.174271
0.171009
0.167869
0.164844
0.161922
0.159085
0.156308
0.153566
0.150834
0.148091
0.145321
0.142514
0.139661
0.136756
0.133801
0.130801
0.12776
0.124678
0.121556
0.118398
0.11521
0.112003
0.108801
0.105636
0.102542
0.0995448
0.0966554
0.093877
0.0912146
0.0886696
0.0862381
0.0839193
0.0817037
0.079586
0.0775641
0.0756158
0.0737339
0.0719091
0.0701242
0.0683666
0.0666235
0.0648861
0.0631506
0.0613943
0.0596288
0.0578442
0.0560383
0.0542017
0.0523349
0.0504406
0.0485151
0.0465578
0.0445684
0.042547
0.0404897
0.038392
0.0362493
0.0340543
0.0317969
0.0294668
0.0270488
0.0245346
0.0219215
0.0192042
0.0163844
0.0134718
0.0104788
0.00741983
0.00432275
0.00123725
-0.00180449
-0.0048102
-0.0077855
-0.0107345
-0.0136606
-0.0165664
-0.0194541
-0.0223258
-0.0251832
-0.0280282
-0.0308623
-0.0336868
-0.0365031
-0.0393125
-0.042116
-0.0449146
-0.0477091
-0.0505003
-0.0532889
-0.0560754
-0.0588602
-0.0616437
-0.0644262
-0.067208
-0.0699892
-0.07277
-0.0755504
-0.0783306
-0.0811106
-0.0838905
-0.0866703
-0.0894499
-0.0922295
-0.095009
-0.0977884
-0.100568
-0.103347
-0.106127
-0.108906
0.218365
0.213932
0.209547
0.205231
0.201005
0.196883
0.192875
0.188988
0.185229
0.1816
0.178103
0.174734
0.171488
0.168357
0.165333
0.162405
0.159552
0.15675
0.153974
0.151204
0.148421
0.145612
0.142766
0.139877
0.136943
0.133966
0.130954
0.12791
0.124837
0.121737
0.118614
0.115474
0.11233
0.109204
0.106123
0.103117
0.100203
0.0973949
0.094697
0.0921115
0.0896351
0.0872652
0.0850013
0.0828336
0.0807603
0.0787722
0.0768497
0.0749875
0.0731724
0.0713875
0.0696204
0.0678557
0.0660857
0.064308
0.0625026
0.0606789
0.0588283
0.0569478
0.055031
0.0530831
0.0511045
0.0490917
0.0470457
0.044968
0.0428606
0.0407229
0.0385523
0.0363428
0.0340874
0.0317789
0.0294059
0.0269558
0.0244213
0.0217977
0.0190782
0.0162598
0.0133497
0.0103599
0.00730516
0.00421483
0.00113187
-0.00191168
-0.0049197
-0.00789636
-0.0108454
-0.0137701
-0.0166731
-0.0195571
-0.0224243
-0.0252767
-0.0281162
-0.0309445
-0.0337632
-0.0365738
-0.0393774
-0.0421754
-0.0449687
-0.0477582
-0.0505448
-0.0533289
-0.0561113
-0.0588924
-0.0616725
-0.0644519
-0.0672308
-0.0700094
-0.0727878
-0.0755662
-0.0783445
-0.0811227
-0.083901
-0.0866793
-0.0894577
-0.092236
-0.0950144
-0.0977928
-0.100571
-0.10335
-0.106128
-0.108906
0.218396
0.214025
0.209698
0.205434
0.201252
0.19717
0.193198
0.189345
0.185617
0.182016
0.178542
0.175193
0.171959
0.168833
0.165805
0.162863
0.159987
0.157152
0.15434
0.151532
0.148715
0.145874
0.142999
0.140086
0.137135
0.134152
0.131143
0.128109
0.125055
0.121985
0.118904
0.115819
0.112742
0.109695
0.106703
0.103789
0.10097
0.0982535
0.0956412
0.0931344
0.0907284
0.0884208
0.0862112
0.0840931
0.0820645
0.0801103
0.0782163
0.0763721
0.0745633
0.0727749
0.0709941
0.0692004
0.0673933
0.0655667
0.0637047
0.0618149
0.0598916
0.057932
0.0559334
0.0538979
0.0518267
0.0497204
0.0475787
0.0454026
0.0431971
0.0409679
0.0387132
0.0364261
0.0341004
0.0317296
0.0293045
0.0268146
0.0242516
0.021611
0.0188874
0.0160756
0.0131742
0.0101941
0.0071505
0.00406892
0.000988635
-0.00205294
-0.00505924
-0.00803376
-0.0109799
-0.0139006
-0.016799
-0.0196775
-0.0225385
-0.0253844
-0.0282171
-0.0310385
-0.0338503
-0.036654
-0.039451
-0.0422426
-0.0450298
-0.0478136
-0.0505948
-0.053374
-0.0561517
-0.0589286
-0.0617048
-0.0644806
-0.0672563
-0.070032
-0.0728078
-0.0755838
-0.0783599
-0.0811363
-0.0839128
-0.0866895
-0.0894663
-0.0922433
-0.0950204
-0.0977976
-0.100575
-0.103352
-0.106129
-0.108907
0.218426
0.214114
0.209844
0.205634
0.201501
0.19746
0.193525
0.189705
0.186007
0.182431
0.178976
0.175639
0.172411
0.169284
0.166248
0.163288
0.160381
0.157509
0.154656
0.151809
0.148962
0.146099
0.14321
0.14029
0.137341
0.134368
0.131375
0.128363
0.125336
0.122304
0.119271
0.116247
0.113242
0.110277
0.107378
0.104561
0.101838
0.0992155
0.0966904
0.0942622
0.0919269
0.089684
0.0875321
0.0854671
0.0834839
0.0815646
0.0796985
0.0778694
0.0760652
0.0742706
0.0724706
0.0706405
0.0687903
0.0669082
0.0649828
0.0630206
0.0610168
0.0589695
0.0568792
0.0547484
0.0525807
0.0503753
0.0481309
0.0458516
0.0435441
0.0412147
0.0388632
0.0364883
0.0340858
0.0316459
0.0291618
0.026629
0.0240372
0.0213808
0.0186509
0.0158426
0.0129521
0.00998405
0.00695289
0.00388302
0.000808813
-0.00222738
-0.00522858
-0.00819782
-0.0111382
-0.0140526
-0.016944
-0.019815
-0.0226683
-0.0255061
-0.0283306
-0.0311438
-0.0339476
-0.0367435
-0.0395329
-0.0423173
-0.0450976
-0.047875
-0.0506501
-0.0534237
-0.0561963
-0.0589684
-0.0617403
-0.0645122
-0.0672844
-0.0700569
-0.0728298
-0.0756031
-0.0783769
-0.0811511
-0.0839257
-0.0867006
-0.0894758
-0.0922513
-0.095027
-0.0978028
-0.100579
-0.103355
-0.106131
-0.108907
0.218456
0.214203
0.209991
0.205834
0.201747
0.197749
0.193854
0.190069
0.186399
0.182847
0.179409
0.176079
0.172852
0.169718
0.166671
0.163689
0.160751
0.157842
0.154952
0.152075
0.149201
0.146318
0.143421
0.140508
0.137577
0.134626
0.131658
0.128675
0.125684
0.122694
0.119715
0.116757
0.113832
0.110958
0.108152
0.105429
0.102802
0.100271
0.097835
0.0954889
0.093228
0.0910514
0.0889585
0.086947
0.0850052
0.0831173
0.0812733
0.0794557
0.0776523
0.0758467
0.0740195
0.0721532
0.0702579
0.0683183
0.066326
0.0642831
0.062188
0.0600447
0.057855
0.0556224
0.0533509
0.05104
0.0486885
0.0463004
0.0438837
0.041449
0.0389998
0.0365332
0.034046
0.031535
0.0289936
0.0264169
0.0237948
0.0211174
0.0183757
0.0155657
0.0126811
0.00972399
0.00670978
0.00365774
0.00059379
-0.00243394
-0.00542709
-0.00838818
-0.01132
-0.0142256
-0.0171078
-0.0199694
-0.0228131
-0.0256413
-0.0284563
-0.0312601
-0.0340546
-0.0368416
-0.0396226
-0.0423989
-0.0451716
-0.0479418
-0.0507103
-0.0534777
-0.0562447
-0.0590116
-0.0617788
-0.0645465
-0.0673147
-0.0700837
-0.0728535
-0.075624
-0.0783952
-0.081167
-0.0839395
-0.0867125
-0.089486
-0.0922599
-0.095034
-0.0978085
-0.100583
-0.103358
-0.106133
-0.108908
0.218486
0.214291
0.210133
0.206027
0.201991
0.19804
0.194187
0.19044
0.186801
0.183272
0.17985
0.176527
0.173297
0.170156
0.167093
0.164089
0.161122
0.158185
0.155269
0.152368
0.149475
0.146581
0.143685
0.140783
0.137869
0.134943
0.132004
0.129055
0.126101
0.123156
0.120233
0.117342
0.114496
0.111714
0.109009
0.10639
0.103864
0.101428
0.0990768
0.0968077
0.0946183
0.0925078
0.0904721
0.0885074
0.0866016
0.0847435
0.0829188
0.0811097
0.0793015
0.0774792
0.0756215
0.0737186
0.0717707
0.0697687
0.0677019
0.0655711
0.0633824
0.0611404
0.0588459
0.0565043
0.0541215
0.0516994
0.0492355
0.0467345
0.0442064
0.0416635
0.0391122
0.0365552
0.0339887
0.0314058
0.0288032
0.0261788
0.0235213
0.0208188
0.0180645
0.0152521
0.0123756
0.00943548
0.00643917
0.00340099
0.000346124
-0.00267135
-0.00565393
-0.00860416
-0.0115249
-0.0144191
-0.0172898
-0.02014
-0.0229723
-0.0257893
-0.0285933
-0.0313865
-0.0341708
-0.0369479
-0.0397195
-0.0424869
-0.0452513
-0.0480137
-0.0507749
-0.0535357
-0.0562966
-0.0590579
-0.06182
-0.064583
-0.0673471
-0.0701124
-0.0728787
-0.0756462
-0.0784146
-0.081184
-0.0839543
-0.0867252
-0.0894968
-0.092269
-0.0950416
-0.0978145
-0.100588
-0.103361
-0.106135
-0.108909
0.21852
0.214387
0.210285
0.206233
0.202249
0.198349
0.194541
0.190833
0.187226
0.18372
0.180311
0.176997
0.173769
0.17062
0.167544
0.164517
0.161525
0.158564
0.15563
0.152719
0.149821
0.146931
0.144041
0.141146
0.138245
0.135337
0.132425
0.129508
0.126592
0.123694
0.120827
0.118004
0.115241
0.112553
0.109948
0.10743
0.105003
0.102659
0.100395
0.0982038
0.0960833
0.0940327
0.0920496
0.0901263
0.0882534
0.0864208
0.0846107
0.0828031
0.0809834
0.0791389
0.0772495
0.0753066
0.0733048
0.0712337
0.069083
0.0668606
0.0645757
0.0622303
0.0598259
0.0573708
0.0548752
0.0523405
0.0497614
0.0471447
0.0445033
0.0418514
0.0391973
0.036545
0.0338955
0.0312444
0.0285845
0.0259123
0.0232163
0.0204849
0.0177162
0.0149019
0.0120324
0.00910343
0.00612371
0.00310608
6.55682e-05
-0.0029389
-0.00590831
-0.00884494
-0.0117518
-0.014632
-0.017489
-0.0203256
-0.0231447
-0.0259489
-0.0287407
-0.0315221
-0.0342951
-0.0370615
-0.0398229
-0.0425807
-0.0453361
-0.0480901
-0.0508435
-0.0535971
-0.0563514
-0.0591068
-0.0618634
-0.0646216
-0.0673813
-0.0701425
-0.0729053
-0.0756695
-0.0784351
-0.0812019
-0.0839697
-0.0867385
-0.0895082
-0.0922785
-0.0950494
-0.0978208
-0.100593
-0.103365
-0.106137
-0.108909
0.218554
0.214489
0.210452
0.206461
0.202534
0.198686
0.194926
0.191259
0.187684
0.184202
0.180809
0.177505
0.174282
0.171132
0.168048
0.165003
0.161993
0.159019
0.15608
0.15317
0.150277
0.14739
0.144501
0.141608
0.138715
0.135821
0.132928
0.130037
0.127157
0.124305
0.121495
0.118745
0.116068
0.113473
0.110965
0.108546
0.106214
0.103961
0.101779
0.099663
0.0976078
0.0956101
0.0936658
0.0917742
0.0899297
0.0881164
0.0863133
0.0845006
0.0826681
0.0808013
0.078883
0.0769034
0.0748454
0.0726982
0.0704622
0.0681482
0.0657621
0.0633067
0.0607875
0.0582173
0.0556075
0.0529576
0.0502617
0.0475286
0.0447749
0.0420163
0.0392622
0.0365188
0.0337877
0.0310654
0.0283443
0.0256197
0.0228843
0.0201258
0.0173411
0.0145211
0.0116587
0.00874572
0.00578335
0.00278206
-0.000245538
-0.00323568
-0.00618944
-0.00910953
-0.0119995
-0.014863
-0.0177036
-0.0205246
-0.0233289
-0.0261189
-0.0288971
-0.0316657
-0.0344265
-0.0371814
-0.0399318
-0.0426794
-0.0454252
-0.0481703
-0.0509155
-0.0536615
-0.0564089
-0.0591579
-0.0619088
-0.0646618
-0.0674168
-0.0701739
-0.0729329
-0.0756938
-0.0784563
-0.0812204
-0.0839858
-0.0867524
-0.0895199
-0.0922884
-0.0950576
-0.0978274
-0.100598
-0.103368
-0.106139
-0.10891
0.218587
0.214585
0.210611
0.206686
0.202825
0.199039
0.195334
0.191714
0.18818
0.18473
0.181361
0.178073
0.174859
0.171715
0.168626
0.165569
0.162551
0.159573
0.156636
0.153728
0.150836
0.147948
0.145057
0.142164
0.139272
0.136386
0.133507
0.130636
0.12779
0.124989
0.122244
0.11957
0.116976
0.114471
0.112056
0.109732
0.107491
0.105324
0.103218
0.101168
0.0991652
0.097213
0.0953101
0.0934508
0.091622
0.0898109
0.088003
0.08618
0.0843328
0.0824449
0.0804992
0.0784761
0.0763548
0.0741351
0.0718191
0.0694123
0.0669223
0.0643567
0.0617248
0.0590397
0.0563134
0.0535458
0.0507324
0.0478852
0.0450222
0.0421592
0.0393065
0.0364733
0.0336625
0.0308694
0.0280863
0.0253081
0.0225342
0.0197506
0.0169487
0.0141211
0.0112625
0.00836162
0.00541441
0.00242782
-0.000587579
-0.00356185
-0.00649698
-0.00939693
-0.0122664
-0.01511
-0.0179318
-0.0207351
-0.0235228
-0.0262974
-0.029061
-0.0318159
-0.0345637
-0.0373064
-0.0400454
-0.0427821
-0.0455179
-0.0482536
-0.0509902
-0.0537283
-0.0564684
-0.0592108
-0.0619558
-0.0647034
-0.0674536
-0.0702063
-0.0729614
-0.0757188
-0.0784782
-0.0812394
-0.0840023
-0.0867665
-0.089532
-0.0922986
-0.095066
-0.0978341
-0.100603
-0.103372
-0.106141
-0.108911
0.218621
0.214688
0.210782
0.206926
0.203134
0.199414
0.19577
0.192204
0.188717
0.185307
0.181972
0.178709
0.175514
0.172383
0.169295
0.166236
0.163216
0.160239
0.157304
0.154397
0.151502
0.148607
0.145703
0.142797
0.139898
0.137015
0.134144
0.131293
0.128485
0.125736
0.123057
0.120459
0.117948
0.115531
0.113206
0.110967
0.108807
0.106712
0.104671
0.102676
0.100724
0.0988136
0.0969377
0.0950944
0.0932729
0.0914616
0.0896489
0.087815
0.085949
0.0840352
0.0820548
0.0799899
0.0778219
0.0755397
0.0731413
0.070638
0.0680441
0.0653683
0.0626216
0.0598219
0.0569825
0.0541004
0.0511738
0.0482185
0.0452528
0.042291
0.0393437
0.0364193
0.0335228
0.0306549
0.0278093
0.0249799
0.0221678
0.0193588
0.016539
0.0137008
0.0108395
0.00794396
0.00500995
0.00203931
-0.000963149
-0.00391901
-0.00683119
-0.00970607
-0.0125506
-0.0153706
-0.0181707
-0.0209542
-0.0237239
-0.026482
-0.0292304
-0.0319709
-0.0347053
-0.0374353
-0.0401624
-0.0428879
-0.0456132
-0.0483393
-0.0510669
-0.0537968
-0.0565294
-0.059265
-0.0620038
-0.0647459
-0.0674911
-0.0702393
-0.0729904
-0.0757442
-0.0785004
-0.0812588
-0.084019
-0.086781
-0.0895443
-0.0923089
-0.0950744
-0.0978408
-0.100608
-0.103375
-0.106143
-0.108911
0.218659
0.214804
0.210976
0.207195
0.203475
0.199823
0.196242
0.192734
0.189301
0.18594
0.182649
0.179423
0.176256
0.173145
0.170067
0.167018
0.164002
0.161028
0.158092
0.155175
0.152261
0.149341
0.146411
0.143487
0.140581
0.137699
0.134835
0.132007
0.12924
0.126545
0.12393
0.121403
0.11897
0.116633
0.11439
0.112233
0.110148
0.108122
0.106142
0.104196
0.102278
0.100386
0.0985212
0.096686
0.094866
0.0930519
0.0912326
0.0893882
0.0875046
0.0855675
0.0835571
0.0814509
0.079226
0.0768722
0.07439
0.071791
0.0690938
0.0663117
0.0634623
0.0605626
0.0576203
0.0546316
0.0516007
0.048545
0.0454801
0.0424199
0.0393761
0.0363578
0.0333721
0.0304244
0.0275133
0.0246328
0.021781
0.0189451
0.0161074
0.0132565
0.0103893
0.00749774
0.0045754
0.00161637
-0.00137689
-0.00431082
-0.00719306
-0.0100355
-0.012849
-0.015641
-0.0184165
-0.0211786
-0.0239292
-0.0266702
-0.0294028
-0.0321288
-0.0348495
-0.0375666
-0.0402816
-0.0429957
-0.0457104
-0.0484265
-0.051145
-0.0538665
-0.0565914
-0.05932
-0.0620525
-0.0647889
-0.067529
-0.0702727
-0.0730198
-0.0757699
-0.0785228
-0.0812783
-0.0840359
-0.0867955
-0.0895567
-0.0923192
-0.095083
-0.0978477
-0.100613
-0.103379
-0.106146
-0.108912
0.218701
0.214931
0.211187
0.207487
0.203843
0.200263
0.19675
0.193309
0.189937
0.186634
0.183396
0.180219
0.177095
0.174013
0.170959
0.167927
0.164919
0.161945
0.158998
0.156054
0.153103
0.150145
0.147186
0.144244
0.141331
0.138446
0.13559
0.132788
0.130061
0.127416
0.12486
0.122395
0.12003
0.117765
0.115595
0.113509
0.111494
0.109528
0.107596
0.105682
0.103781
0.101898
0.100038
0.0982044
0.0963816
0.094563
0.0927364
0.0908839
0.0889876
0.0870302
0.0849875
0.0828324
0.0805432
0.0781135
0.0755431
0.072851
0.0700637
0.0671954
0.0642607
0.0612716
0.0582342
0.0551485
0.0520218
0.048869
0.0457034
0.0425403
0.039393
0.0362737
0.0331967
0.0301715
0.027197
0.024265
0.0213706
0.018505
0.0156489
0.0127853
0.00990929
0.00701413
0.00409578
0.00114439
-0.00184131
-0.00474478
-0.00758427
-0.0103829
-0.0131571
-0.0159162
-0.0186644
-0.0214037
-0.0241349
-0.0268587
-0.0295758
-0.0322873
-0.0349945
-0.0376988
-0.0404016
-0.0431043
-0.0458083
-0.0485144
-0.0512236
-0.0539366
-0.0566537
-0.0593753
-0.0621014
-0.0648321
-0.067567
-0.0703061
-0.0730491
-0.0757956
-0.0785453
-0.0812978
-0.0840528
-0.0868099
-0.089569
-0.0923296
-0.0950915
-0.0978545
-0.100618
-0.103383
-0.106148
-0.108913
0.218745
0.215061
0.211404
0.207791
0.204231
0.200732
0.197298
0.193932
0.190633
0.187397
0.184224
0.181104
0.178028
0.174985
0.17196
0.168953
0.165966
0.162996
0.160027
0.157043
0.154048
0.15105
0.148059
0.145096
0.14217
0.139281
0.136435
0.133659
0.130966
0.128361
0.12585
0.123434
0.121119
0.118909
0.116796
0.11477
0.11281
0.110893
0.108996
0.107101
0.105208
0.103325
0.101462
0.0996236
0.0977958
0.0959726
0.0941409
0.0922823
0.0903746
0.0883961
0.0863159
0.0841033
0.0817413
0.0792301
0.0765758
0.0738068
0.0709546
0.0680257
0.0650247
0.0619577
0.0588347
0.0556633
0.0524511
0.0492062
0.0459391
0.0426674
0.039409
0.0361826
0.0330079
0.0298988
0.0268575
0.0238742
0.0209384
0.0180409
0.0151647
0.0122874
0.00940047
0.00649526
0.00356897
0.00060966
-0.00237997
-0.00523351
-0.00800568
-0.0107426
-0.0134675
-0.0161888
-0.018908
-0.0216244
-0.0243367
-0.027044
-0.0297463
-0.0324441
-0.0351382
-0.0378301
-0.0405211
-0.0432126
-0.0459058
-0.048602
-0.051302
-0.0540065
-0.0567158
-0.0594303
-0.0621501
-0.0648749
-0.0676048
-0.0703393
-0.0730782
-0.075821
-0.0785674
-0.081317
-0.0840694
-0.0868242
-0.0895811
-0.0923398
-0.0950999
-0.0978612
-0.100623
-0.103386
-0.10615
-0.108914
0.218788
0.215194
0.211631
0.20811
0.20464
0.201229
0.197883
0.194602
0.191385
0.18823
0.18513
0.182077
0.179059
0.176064
0.173081
0.170107
0.167142
0.164167
0.161169
0.158144
0.155107
0.152069
0.149047
0.146061
0.143118
0.140221
0.137381
0.13462
0.131948
0.129369
0.126886
0.1245
0.12222
0.120048
0.117974
0.115989
0.114073
0.112192
0.110317
0.108431
0.106532
0.10464
0.102767
0.100921
0.0990877
0.0972603
0.0954235
0.0935539
0.0916231
0.089605
0.0874672
0.0851864
0.0827527
0.0801699
0.0774519
0.0746295
0.0717327
0.0687644
0.0657242
0.0626128
0.0594379
0.0562068
0.0529243
0.0495928
0.0462197
0.042827
0.0394423
0.0360934
0.0328081
0.0296044
0.0264865
0.0234483
0.020475
0.0175493
0.0146538
0.0117619
0.00886085
0.00593406
0.00297728
-2.37844e-05
-0.00304953
-0.00579604
-0.00845223
-0.0111022
-0.0137675
-0.0164483
-0.0191391
-0.0218343
-0.0245296
-0.0272224
-0.0299115
-0.0325967
-0.0352788
-0.0379589
-0.0406385
-0.0433191
-0.046002
-0.0486885
-0.0513793
-0.0540754
-0.056777
-0.0594845
-0.0621979
-0.0649171
-0.0676419
-0.0703719
-0.0731067
-0.0758459
-0.0785891
-0.0813359
-0.0840857
-0.0868382
-0.089593
-0.0923497
-0.0951081
-0.0978677
-0.100628
-0.10339
-0.106152
-0.108914
0.218835
0.215334
0.211865
0.208439
0.205064
0.20175
0.198503
0.195319
0.192195
0.189126
0.186107
0.183128
0.180178
0.177243
0.174311
0.171372
0.168419
0.165437
0.162419
0.15937
0.156295
0.153219
0.150163
0.147149
0.144185
0.141275
0.138432
0.135678
0.133016
0.130447
0.127973
0.125599
0.123333
0.121175
0.119114
0.117149
0.115261
0.113403
0.111539
0.109646
0.107729
0.105822
0.103939
0.102086
0.100249
0.0984195
0.0965757
0.0946841
0.0927102
0.0906282
0.0884129
0.0860541
0.0835519
0.0809151
0.0781625
0.0753238
0.0724232
0.0694553
0.0664106
0.0632881
0.0600958
0.056832
0.0534899
0.0500615
0.0465616
0.0430261
0.0394936
0.0360044
0.0325961
0.0292949
0.0261046
0.0230107
0.0199958
0.0170402
0.0141249
0.0112203
0.00830895
0.00535777
0.00233441
-0.000824238
-0.00400564
-0.00644556
-0.00889674
-0.0114342
-0.0140373
-0.0166813
-0.0193486
-0.0220271
-0.0247091
-0.0273903
-0.0300684
-0.0327429
-0.0354142
-0.0380836
-0.0407526
-0.0434229
-0.0460958
-0.0487728
-0.0514548
-0.0541426
-0.0568367
-0.0595374
-0.0622446
-0.0649582
-0.067678
-0.0704035
-0.0731344
-0.0758701
-0.0786102
-0.0813541
-0.0841014
-0.0868517
-0.0896045
-0.0923594
-0.095116
-0.0978741
-0.100633
-0.103393
-0.106154
-0.108915
0.218884
0.215481
0.212109
0.208782
0.20551
0.202302
0.199157
0.196075
0.19305
0.190076
0.187147
0.184251
0.181376
0.178506
0.175625
0.17272
0.169784
0.166808
0.163787
0.160723
0.157619
0.154511
0.151421
0.148374
0.145382
0.142453
0.139601
0.136842
0.134176
0.131602
0.129123
0.126744
0.124471
0.122305
0.120237
0.118267
0.116379
0.114514
0.112643
0.110726
0.10879
0.10687
0.104981
0.103131
0.101298
0.0994728
0.0976178
0.0956849
0.0936392
0.0914653
0.0891516
0.0867061
0.0841425
0.0814767
0.0787291
0.0759241
0.0730701
0.0701449
0.0671322
0.0640358
0.0608541
0.0575689
0.0541643
0.0506259
0.0469795
0.0432815
0.0395905
0.0359611
0.0324276
0.0290143
0.0257328
0.0225722
0.0195137
0.0165333
0.0136102
0.0107112
0.00780591
0.00484523
0.00174018
-0.00186876
-0.00456952
-0.00709358
-0.00924964
-0.0116891
-0.0142506
-0.0168732
-0.0195274
-0.0221967
-0.024871
-0.0275446
-0.0302147
-0.0328805
-0.0355427
-0.0382026
-0.040862
-0.0435226
-0.0461861
-0.0488541
-0.0515276
-0.0542075
-0.0568943
-0.0595883
-0.0622895
-0.0649977
-0.0677127
-0.0704339
-0.0731609
-0.0758933
-0.0786303
-0.0813716
-0.0841165
-0.0868646
-0.0896155
-0.0923686
-0.0951236
-0.0978801
-0.100638
-0.103397
-0.106156
-0.108916
0.218934
0.215633
0.212362
0.209137
0.205969
0.202867
0.199828
0.196851
0.19393
0.191059
0.188228
0.185424
0.182632
0.179832
0.177009
0.17415
0.171245
0.168289
0.165278
0.162213
0.159098
0.155966
0.152842
0.149758
0.146731
0.143773
0.140902
0.138126
0.135442
0.132851
0.130355
0.127961
0.12567
0.123479
0.121388
0.119391
0.117472
0.115569
0.113657
0.111698
0.10974
0.107809
0.105925
0.104095
0.102284
0.100481
0.0986113
0.0966164
0.094468
0.0921686
0.0897253
0.0871754
0.0845592
0.0818989
0.0792048
0.076491
0.073747
0.0709268
0.0679943
0.064941
0.0617605
0.058432
0.0549378
0.0512685
0.0474657
0.0436008
0.0397491
0.0359638
0.0322887
0.0287566
0.0253834
0.0221597
0.0190627
0.0160622
0.0131321
0.0102435
0.00736875
0.00446274
0.00148482
-0.0016489
-0.00476932
-0.00695274
-0.00931873
-0.011811
-0.0143867
-0.0170139
-0.01967
-0.0223395
-0.0250124
-0.027683
-0.0303484
-0.033008
-0.0356629
-0.0383147
-0.0409654
-0.0436171
-0.0462719
-0.0489314
-0.0515969
-0.0542692
-0.0569491
-0.0596367
-0.0623322
-0.0650353
-0.0677456
-0.0704627
-0.0731862
-0.0759153
-0.0786494
-0.0813882
-0.0841308
-0.0868769
-0.0896258
-0.0923773
-0.0951307
-0.0978858
-0.100642
-0.1034
-0.106158
-0.108916
0.218983
0.215781
0.212611
0.209487
0.206422
0.203423
0.200491
0.197621
0.194809
0.192045
0.189318
0.186611
0.183909
0.181189
0.178434
0.175631
0.17277
0.169844
0.166853
0.1638
0.160692
0.157558
0.154422
0.151313
0.148248
0.145251
0.142347
0.13954
0.136832
0.13422
0.131702
0.129286
0.126969
0.124752
0.122628
0.120587
0.118611
0.116648
0.114673
0.112655
0.110655
0.108705
0.106833
0.105048
0.103292
0.101538
0.0996531
0.0975871
0.0953344
0.0929073
0.0903219
0.0876361
0.084937
0.082292
0.0796972
0.0771254
0.074535
0.0718503
0.0690137
0.0660056
0.0628144
0.0594219
0.0558116
0.0519907
0.0480203
0.0439837
0.0399787
0.036064
0.0322695
0.0286295
0.0251599
0.0218668
0.0187335
0.0157193
0.0127874
0.00990932
0.00706533
0.00422532
0.00137708
-0.00149737
-0.00433182
-0.00674803
-0.00926772
-0.0118382
-0.0144544
-0.0171049
-0.0197757
-0.0224545
-0.0251324
-0.0278044
-0.0304684
-0.0331243
-0.0357736
-0.0384186
-0.0410618
-0.0437056
-0.0463524
-0.049004
-0.0516619
-0.0543272
-0.0570006
-0.0596822
-0.0623723
-0.0650705
-0.0677765
-0.0704897
-0.0732097
-0.0759358
-0.0786673
-0.0814036
-0.0841441
-0.0868883
-0.0896355
-0.0923854
-0.0951374
-0.0978911
-0.100646
-0.103402
-0.106159
-0.108917
0.21903
0.215919
0.212839
0.209809
0.206842
0.203944
0.201114
0.19835
0.195646
0.192993
0.190373
0.187769
0.185161
0.182524
0.179843
0.177105
0.174301
0.171427
0.168482
0.165469
0.162393
0.159284
0.156155
0.153028
0.149922
0.146882
0.143941
0.141108
0.138382
0.13575
0.133205
0.130762
0.128422
0.12618
0.124014
0.12191
0.119856
0.117817
0.115762
0.113671
0.111609
0.109637
0.107797
0.106102
0.104456
0.102776
0.100878
0.0987712
0.0964577
0.0939203
0.0911696
0.0883045
0.0855258
0.0829218
0.0804211
0.0779635
0.0755221
0.0729869
0.0702518
0.0672702
0.0640356
0.0605616
0.0568353
0.0528572
0.048682
0.0444355
0.0402992
0.0363123
0.0324314
0.0287047
0.0251487
0.0217844
0.0186187
0.0155944
0.0126378
0.00973259
0.00691669
0.00415887
0.00143606