/*--------------------------------*- C++ -*----------------------------------*\
  =========                 |
  \\      /  F ield         | OpenFOAM: The Open Source CFD Toolbox
   \\    /   O peration     | Website:  https://openfoam.org
    \\  /    A nd           | Version:  6
     \\/     M anipulation  |
\*---------------------------------------------------------------------------*/
FoamFile
{
    version     2.0;
    format      ascii;
    class       volScalarField;
    location    "1000";
    object      T;
}
// * * * * * * * * * * * * * * * * * * * * * * * * * * * * * * * * * * * * * //

dimensions      [0 0 0 1 0 0 0];

internalField   nonuniform List<scalar> 
4800
(
552.464
552.294
552.125
551.958
551.796
551.637
551.484
551.337
551.196
551.06
550.93
550.805
550.686
550.572
550.462
550.356
550.253
550.153
550.056
549.961
549.867
549.774
549.68
549.585
549.488
549.389
549.286
549.179
549.068
548.953
548.834
548.713
548.591
548.468
548.345
548.222
548.101
547.983
547.869
547.76
547.655
547.557
547.465
547.379
547.297
547.22
547.147
547.077
547.01
546.946
546.883
546.823
546.763
546.704
546.646
546.589
546.532
546.475
546.418
546.361
546.303
546.245
546.185
546.122
546.057
545.989
545.918
545.843
545.763
545.679
545.592
545.5
545.406
545.309
545.21
545.108
545.006
544.903
544.8
544.697
544.593
544.488
544.382
544.276
544.17
544.065
543.96
543.855
543.751
543.647
543.543
543.44
543.337
543.234
543.131
543.029
542.927
542.825
542.723
542.622
542.52
542.419
542.318
542.216
542.115
542.014
541.913
541.812
541.711
541.61
541.509
541.408
541.307
541.206
541.105
541.004
540.903
540.802
540.701
540.6
552.464
552.294
552.125
551.96
551.798
551.64
551.488
551.341
551.2
551.064
550.934
550.809
550.69
550.575
550.465
550.359
550.256
550.157
550.06
549.964
549.87
549.776
549.682
549.586
549.489
549.389
549.285
549.178
549.067
548.952
548.834
548.714
548.592
548.469
548.346
548.223
548.102
547.984
547.871
547.763
547.66
547.563
547.472
547.386
547.304
547.227
547.154
547.084
547.017
546.953
546.89
546.829
546.769
546.71
546.652
546.594
546.537
546.48
546.422
546.365
546.307
546.247
546.187
546.124
546.059
545.991
545.92
545.845
545.767
545.685
545.599
545.508
545.415
545.318
545.218
545.117
545.013
544.909
544.804
544.699
544.594
544.488
544.382
544.276
544.17
544.064
543.959
543.854
543.75
543.646
543.542
543.439
543.336
543.234
543.131
543.029
542.927
542.825
542.723
542.622
542.52
542.419
542.317
542.216
542.115
542.014
541.913
541.812
541.711
541.61
541.509
541.408
541.307
541.206
541.105
541.004
540.903
540.802
540.701
540.6
552.465
552.295
552.127
551.962
551.802
551.645
551.494
551.348
551.207
551.071
550.941
550.816
550.697
550.582
550.471
550.365
550.263
550.163
550.066
549.97
549.876
549.781
549.686
549.589
549.49
549.389
549.285
549.178
549.067
548.952
548.834
548.714
548.592
548.47
548.347
548.226
548.106
547.99
547.879
547.772
547.671
547.575
547.485
547.399
547.319
547.242
547.169
547.099
547.032
546.967
546.904
546.843
546.782
546.723
546.664
546.606
546.548
546.489
546.431
546.373
546.314
546.253
546.192
546.128
546.062
545.994
545.923
545.849
545.772
545.691
545.606
545.517
545.424
545.328
545.229
545.127
545.023
544.918
544.81
544.703
544.596
544.489
544.382
544.275
544.169
544.064
543.958
543.854
543.749
543.645
543.542
543.438
543.335
543.233
543.13
543.028
542.926
542.824
542.723
542.621
542.52
542.418
542.317
542.216
542.115
542.014
541.913
541.812
541.711
541.61
541.509
541.408
541.307
541.206
541.105
541.004
540.903
540.802
540.701
540.6
552.465
552.297
552.13
551.967
551.808
551.652
551.502
551.357
551.216
551.081
550.951
550.827
550.707
550.592
550.482
550.376
550.273
550.173
550.076
549.98
549.884
549.789
549.692
549.594
549.493
549.391
549.285
549.177
549.066
548.952
548.834
548.715
548.594
548.472
548.35
548.23
548.113
548
547.89
547.786
547.687
547.593
547.504
547.42
547.339
547.263
547.19
547.121
547.054
546.989
546.925
546.864
546.803
546.743
546.683
546.624
546.564
546.505
546.445
546.385
546.325
546.263
546.199
546.134
546.068
545.998
545.927
545.853
545.776
545.696
545.612
545.525
545.433
545.338
545.239
545.137
545.032
544.925
544.816
544.706
544.597
544.489
544.381
544.274
544.168
544.062
543.957
543.852
543.748
543.644
543.54
543.437
543.334
543.232
543.129
543.027
542.925
542.824
542.722
542.621
542.519
542.418
542.317
542.216
542.114
542.013
541.912
541.811
541.71
541.609
541.508
541.408
541.307
541.206
541.105
541.004
540.903
540.802
540.701
540.6
552.466
552.299
552.134
551.973
551.815
551.661
551.512
551.367
551.227
551.093
550.964
550.839
550.72
550.605
550.495
550.389
550.287
550.187
550.089
549.992
549.895
549.798
549.7
549.6
549.498
549.393
549.287
549.178
549.066
548.952
548.836
548.717
548.597
548.476
548.356
548.239
548.124
548.014
547.907
547.806
547.709
547.616
547.529
547.445
547.366
547.291
547.219
547.149
547.082
547.017
546.954
546.892
546.83
546.77
546.709
546.648
546.587
546.526
546.465
546.402
546.339
546.275
546.21
546.143
546.074
546.004
545.932
545.857
545.78
545.699
545.616
545.53
545.439
545.344
545.246
545.143
545.038
544.93
544.82
544.708
544.598
544.489
544.38
544.273
544.166
544.06
543.955
543.85
543.746
543.642
543.538
543.435
543.333
543.23
543.128
543.026
542.924
542.823
542.721
542.62
542.518
542.417
542.316
542.215
542.114
542.013
541.912
541.811
541.71
541.609
541.508
541.407
541.306
541.206
541.105
541.004
540.903
540.802
540.701
540.6
552.467
552.302
552.139
551.979
551.822
551.67
551.522
551.379
551.24
551.106
550.978
550.854
550.735
550.621
550.511
550.405
550.302
550.202
550.104
550.006
549.908
549.809
549.709
549.607
549.503
549.397
549.289
549.18
549.068
548.954
548.838
548.721
548.603
548.484
548.367
548.252
548.14
548.032
547.928
547.829
547.735
547.645
547.559
547.477
547.399
547.324
547.253
547.184
547.117
547.052
546.989
546.926
546.864
546.803
546.74
546.678
546.615
546.552
546.488
546.424
546.358
546.291
546.223
546.153
546.083
546.011
545.937
545.861
545.783
545.702
545.619
545.532
545.441
545.347
545.248
545.146
545.04
544.932
544.821
544.709
544.597
544.487
544.378
544.271
544.164
544.058
543.952
543.848
543.743
543.64
543.536
543.433
543.331
543.228
543.126
543.024
542.923
542.821
542.72
542.619
542.517
542.416
542.315
542.214
542.113
542.012
541.911
541.811
541.71
541.609
541.508
541.407
541.306
541.205
541.105
541.004
540.903
540.802
540.701
540.6
552.468
552.305
552.144
551.986
551.831
551.68
551.533
551.391
551.254
551.121
550.993
550.87
550.752
550.638
550.528
550.422
550.319
550.219
550.119
550.02
549.921
549.82
549.718
549.615
549.51
549.402
549.294
549.183
549.072
548.958
548.844
548.728
548.612
548.496
548.381
548.269
548.16
548.055
547.954
547.858
547.766
547.677
547.593
547.513
547.436
547.363
547.292
547.224
547.158
547.093
547.029
546.966
546.903
546.84
546.777
546.713
546.648
546.582
546.516
546.448
546.379
546.309
546.238
546.166
546.093
546.018
545.942
545.865
545.785
545.703
545.619
545.531
545.44
545.345
545.246
545.144
545.039
544.93
544.819
544.707
544.595
544.485
544.376
544.268
544.161
544.055
543.949
543.844
543.74
543.637
543.534
543.431
543.328
543.226
543.124
543.023
542.921
542.82
542.719
542.617
542.516
542.415
542.314
542.213
542.113
542.012
541.911
541.81
541.709
541.608
541.508
541.407
541.306
541.205
541.104
541.004
540.903
540.802
540.701
540.6
552.469
552.309
552.149
551.993
551.84
551.69
551.545
551.404
551.268
551.136
551.009
550.887
550.769
550.656
550.546
550.44
550.336
550.235
550.134
550.034
549.933
549.831
549.728
549.623
549.516
549.408
549.299
549.189
549.077
548.965
548.852
548.738
548.624
548.51
548.399
548.29
548.184
548.082
547.984
547.89
547.801
547.715
547.633
547.554
547.479
547.407
547.337
547.269
547.204
547.139
547.075
547.011
546.947
546.882
546.817
546.751
546.683
546.615
546.546
546.475
546.403
546.33
546.256
546.181
546.104
546.027
545.948
545.868
545.786
545.702
545.616
545.528
545.436
545.341
545.242
545.14
545.034
544.926
544.815
544.703
544.591
544.481
544.372
544.264
544.157
544.051
543.945
543.841
543.737
543.633
543.53
543.428
543.326
543.224
543.122
543.02
542.919
542.818
542.717
542.616
542.515
542.414
542.313
542.213
542.112
542.011
541.91
541.809
541.709
541.608
541.507
541.406
541.306
541.205
541.104
541.003
540.903
540.802
540.701
540.6
552.47
552.312
552.155
552
551.849
551.701
551.557
551.417
551.282
551.151
551.025
550.904
550.786
550.673
550.563
550.456
550.352
550.249
550.147
550.045
549.943
549.84
549.736
549.63
549.523
549.415
549.306
549.196
549.085
548.974
548.862
548.75
548.639
548.528
548.42
548.314
548.212
548.113
548.018
547.928
547.84
547.757
547.677
547.6
547.526
547.455
547.387
547.32
547.254
547.189
547.125
547.06
546.994
546.928
546.86
546.792
546.722
546.651
546.578
546.505
546.43
546.353
546.275
546.197
546.117
546.036
545.954
545.871
545.787
545.701
545.613
545.522
545.43
545.334
545.235
545.133
545.028
544.92
544.809
544.698
544.586
544.476
544.367
544.259
544.152
544.046
543.941
543.836
543.733
543.629
543.527
543.424
543.322
543.221
543.119
543.018
542.917
542.816
542.715
542.614
542.514
542.413
542.312
542.212
542.111
542.01
541.91
541.809
541.708
541.607
541.507
541.406
541.305
541.205
541.104
541.003
540.903
540.802
540.701
540.6
552.472
552.315
552.16
552.008
551.858
551.711
551.568
551.43
551.296
551.166
551.041
550.92
550.803
550.689
550.579
550.472
550.366
550.262
550.159
550.056
549.952
549.848
549.744
549.638
549.531
549.423
549.314
549.205
549.095
548.985
548.875
548.766
548.657
548.549
548.444
548.342
548.243
548.148
548.057
547.968
547.884
547.802
547.724
547.65
547.578
547.508
547.44
547.374
547.309
547.243
547.178
547.112
547.045
546.976
546.907
546.835
546.763
546.689
546.613
546.535
546.457
546.377
546.296
546.213
546.129
546.045
545.959
545.873
545.786
545.698
545.608
545.516
545.422
545.325
545.226
545.125
545.02
544.912
544.802
544.691
544.579
544.469
544.36
544.253
544.146
544.04
543.936
543.831
543.728
543.625
543.523
543.421
543.319
543.217
543.116
543.015
542.914
542.814
542.713
542.613
542.512
542.411
542.311
542.21
542.11
542.009
541.909
541.808
541.708
541.607
541.506
541.406
541.305
541.204
541.104
541.003
540.902
540.802
540.701
540.6
552.473
552.318
552.166
552.015
551.867
551.722
551.58
551.443
551.31
551.181
551.056
550.936
550.819
550.705
550.595
550.486
550.38
550.274
550.169
550.065
549.961
549.856
549.751
549.646
549.539
549.432
549.325
549.216
549.108
549
548.892
548.784
548.678
548.574
548.472
548.373
548.278
548.186
548.098
548.013
547.931
547.852
547.776
547.703
547.633
547.564
547.497
547.432
547.366
547.301
547.234
547.167
547.098
547.028
546.955
546.881
546.805
546.728
546.648
546.567
546.485
546.401
546.316
546.229
546.141
546.053
545.964
545.875
545.785
545.694
545.601
545.508
545.413
545.316
545.216
545.115
545.01
544.903
544.793
544.683
544.572
544.462
544.353
544.246
544.139
544.034
543.93
543.826
543.723
543.62
543.518
543.416
543.315
543.214
543.113
543.012
542.912
542.811
542.711
542.611
542.51
542.41
542.31
542.209
542.109
542.008
541.908
541.807
541.707
541.606
541.506
541.405
541.305
541.204
541.103
541.003
540.902
540.802
540.701
540.6
552.474
552.322
552.171
552.022
551.875
551.732
551.592
551.457
551.325
551.197
551.072
550.952
550.835
550.721
550.61
550.501
550.393
550.287
550.181
550.076
549.971
549.866
549.761
549.656
549.55
549.444
549.337
549.23
549.123
549.016
548.91
548.805
548.702
548.601
548.503
548.408
548.317
548.228
548.143
548.061
547.981
547.905
547.831
547.76
547.691
547.623
547.557
547.492
547.426
547.36
547.292
547.223
547.153
547.08
547.005
546.928
546.849
546.767
546.684
546.599
546.513
546.425
546.336
546.245
546.153
546.061
545.968
545.876
545.783
545.689
545.595
545.499
545.403
545.305
545.205
545.103
544.999
544.892
544.784
544.673
544.563
544.453
544.345
544.238
544.132
544.027
543.923
543.82
543.717
543.615
543.513
543.412
543.311
543.21
543.11
543.009
542.909
542.809
542.709
542.608
542.508
542.408
542.308
542.208
542.108
542.007
541.907
541.807
541.706
541.606
541.505
541.405
541.304
541.204
541.103
541.003
540.902
540.801
540.701
540.6
552.475
552.325
552.176
552.029
551.885
551.743
551.605
551.471
551.34
551.213
551.089
550.969
550.852
550.738
550.626
550.516
550.408
550.3
550.194
550.088
549.983
549.879
549.774
549.669
549.564
549.458
549.352
549.247
549.141
549.036
548.932
548.829
548.729
548.632
548.537
548.446
548.358
548.273
548.191
548.111
548.035
547.96
547.888
547.818
547.751
547.684
547.618
547.553
547.487
547.42
547.351
547.281
547.208
547.133
547.055
546.975
546.892
546.807
546.72
546.631
546.54
546.448
546.355
546.26
546.164
546.068
545.972
545.875
545.779
545.683
545.587
545.49
545.392
545.293
545.193
545.09
544.986
544.88
544.772
544.663
544.552
544.443
544.336
544.229
544.124
544.019
543.916
543.813
543.711
543.609
543.508
543.407
543.306
543.206
543.106
543.006
542.906
542.806
542.706
542.606
542.506
542.406
542.306
542.206
542.106
542.006
541.906
541.806
541.705
541.605
541.505
541.404
541.304
541.203
541.103
541.002
540.902
540.801
540.701
540.6
552.476
552.329
552.182
552.038
551.895
551.756
551.619
551.486
551.357
551.23
551.107
550.987
550.871
550.756
550.644
550.534
550.425
550.317
550.21
550.105
550
549.895
549.79
549.685
549.581
549.476
549.371
549.266
549.161
549.058
548.956
548.856
548.759
548.665
548.574
548.486
548.402
548.32
548.241
548.164
548.09
548.017
547.947
547.878
547.811
547.746
547.68
547.614
547.548
547.48
547.411
547.339
547.264
547.186
547.105
547.021
546.935
546.846
546.754
546.661
546.567
546.471
546.373
546.274
546.174
546.074
545.974
545.874
545.775
545.677
545.578
545.479
545.38
545.28
545.179
545.077
544.973
544.867
544.76
544.651
544.541
544.433
544.326
544.22
544.115
544.011
543.908
543.806
543.704
543.603
543.502
543.402
543.301
543.202
543.102
543.002
542.903
542.803
542.703
542.604
542.504
542.405
542.305
542.205
542.105
542.005
541.905
541.805
541.705
541.604
541.504
541.404
541.303
541.203
541.103
541.002
540.902
540.801
540.701
540.6
552.477
552.332
552.188
552.046
551.906
551.768
551.634
551.503
551.375
551.249
551.127
551.008
550.891
550.777
550.665
550.555
550.445
550.337
550.231
550.125
550.02
549.915
549.811
549.706
549.601
549.496
549.392
549.288
549.184
549.083
548.983
548.886
548.792
548.701
548.614
548.529
548.448
548.37
548.293
548.219
548.146
548.075
548.006
547.939
547.873
547.807
547.741
547.675
547.608
547.54
547.469
547.396
547.319
547.239
547.155
547.067
546.977
546.884
546.788
546.691
546.592
546.492
546.39
546.287
546.183
546.079
545.975
545.873
545.771
545.67
545.569
545.468
545.367
545.266
545.165
545.062
544.958
544.853
544.746
544.638
544.529
544.421
544.314
544.209
544.105
544.002
543.9
543.798
543.697
543.596
543.496
543.396
543.297
543.197
543.098
542.998
542.899
542.8
542.701
542.601
542.502
542.403
542.303
542.203
542.104
542.004
541.904
541.804
541.704
541.604
541.504
541.403
541.303
541.203
541.102
541.002
540.902
540.801
540.701
540.6
552.479
552.336
552.194
552.054
551.917
551.782
551.65
551.521
551.394
551.27
551.149
551.031
550.915
550.802
550.69
550.579
550.469
550.361
550.255
550.149
550.044
549.939
549.834
549.729
549.623
549.519
549.415
549.311
549.209
549.11
549.013
548.918
548.827
548.74
548.655
548.574
548.496
548.42
548.346
548.274
548.203
548.133
548.065
547.999
547.933
547.867
547.801
547.735
547.667
547.598
547.526
547.451
547.372
547.289
547.203
547.112
547.018
546.921
546.821
546.719
546.617
546.512
546.406
546.299
546.191
546.084
545.977
545.871
545.766
545.662
545.559
545.456
545.354
545.252
545.15
545.047
544.943
544.838
544.732
544.624
544.515
544.408
544.302
544.198
544.095
543.993
543.891
543.79
543.69
543.59
543.49
543.391
543.291
543.192
543.093
542.995
542.896
542.797
542.698
542.599
542.5
542.401
542.301
542.202
542.102
542.003
541.903
541.803
541.703
541.603
541.503
541.403
541.303
541.202
541.102
541.002
540.901
540.801
540.701
540.6
552.48
552.34
552.201
552.064
551.929
551.797
551.667
551.54
551.415
551.293
551.174
551.057
550.942
550.829
550.718
550.607
550.498
550.39
550.283
550.178
550.072
549.966
549.86
549.754
549.648
549.544
549.44
549.337
549.237
549.139
549.044
548.953
548.864
548.78
548.698
548.62
548.544
548.471
548.399
548.329
548.259
548.191
548.123
548.056
547.99
547.925
547.859
547.792
547.723
547.653
547.58
547.504
547.423
547.338
547.248
547.154
547.056
546.955
546.852
546.746
546.64
546.531
546.421
546.311
546.199
546.088
545.978
545.869
545.76
545.653
545.548
545.443
545.34
545.237
545.134
545.031
544.927
544.822
544.716
544.609
544.5
544.394
544.289
544.186
544.084
543.983
543.882
543.782
543.682
543.583
543.484
543.385
543.286
543.188
543.089
542.991
542.892
542.794
542.695
542.596
542.498
542.399
542.3
542.2
542.101
542.001
541.902
541.802
541.702
541.602
541.502
541.402
541.302
541.202
541.102
541.001
540.901
540.801
540.701
540.6
552.481
552.345
552.209
552.075
551.943
551.813
551.685
551.561
551.438
551.318
551.201
551.086
550.973
550.861
550.75
550.64
550.531
550.423
550.316
550.209
550.102
549.995
549.888
549.781
549.675
549.571
549.467
549.366
549.267
549.171
549.078
548.989
548.903
548.821
548.742
548.666
548.593
548.522
548.452
548.383
548.314
548.245
548.178
548.111
548.045
547.979
547.913
547.846
547.777
547.706
547.632
547.554
547.471
547.383
547.29
547.192
547.091
546.987
546.88
546.772
546.662
546.55
546.437
546.322
546.207
546.093
545.979
545.866
545.754
545.644
545.536
545.43
545.325
545.221
545.118
545.014
544.909
544.804
544.699
544.592
544.483
544.378
544.275
544.173
544.073
543.973
543.873
543.774
543.675
543.576
543.477
543.379
543.281
543.183
543.085
542.987
542.889
542.791
542.692
542.594
542.495
542.397
542.298
542.199
542.1
542
541.901
541.801
541.701
541.602
541.502
541.402
541.302
541.202
541.101
541.001
540.901
540.801
540.7
540.6
552.483
552.349
552.217
552.086
551.957
551.83
551.705
551.583
551.464
551.346
551.231
551.118
551.006
550.896
550.786
550.677
550.569
550.461
550.353
550.245
550.137
550.028
549.919
549.812
549.706
549.601
549.498
549.397
549.299
549.205
549.114
549.026
548.942
548.862
548.786
548.712
548.641
548.572
548.503
548.434
548.365
548.297
548.23
548.163
548.097
548.031
547.964
547.897
547.828
547.756
547.68
547.6
547.514
547.423
547.327
547.227
547.123
547.017
546.908
546.797
546.684
546.569
546.452
546.335
546.216
546.097
545.979
545.862
545.747
545.634
545.524
545.416
545.309
545.204
545.1
544.996
544.891
544.786
544.679
544.572
544.464
544.36
544.26
544.16
544.062
543.963
543.864
543.766
543.667
543.569
543.471
543.373
543.276
543.178
543.08
542.983
542.885
542.787
542.689
542.591
542.493
542.395
542.296
542.197
542.098
541.999
541.9
541.8
541.701
541.601
541.501
541.401
541.301
541.201
541.101
541.001
540.901
540.801
540.7
540.6
552.485
552.354
552.225
552.097
551.972
551.848
551.726
551.607
551.491
551.376
551.264
551.153
551.044
550.935
550.827
550.719
550.612
550.504
550.395
550.285
550.175
550.065
549.955
549.847
549.74
549.635
549.532
549.432
549.335
549.241
549.151
549.065
548.982
548.903
548.828
548.756
548.687
548.619
548.551
548.482
548.413
548.345
548.277
548.21
548.144
548.077
548.011
547.943
547.873
547.8
547.722
547.639
547.551
547.457
547.359
547.257
547.151
547.044
546.934
546.821
546.706
546.588
546.469
546.349
546.226
546.103
545.98
545.859
545.74
545.624
545.511
545.4
545.293
545.186
545.081
544.977
544.871
544.765
544.658
544.549
544.439
544.34
544.243
544.147
544.051
543.954
543.856
543.758
543.66
543.563
543.465
543.368
543.271
543.173
543.076
542.979
542.882
542.784
542.687
542.589
542.491
542.393
542.294
542.196
542.097
541.998
541.899
541.799
541.7
541.6
541.501
541.401
541.301
541.201
541.101
541.001
540.901
540.8
540.7
540.6
552.486
552.359
552.234
552.109
551.987
551.867
551.749
551.633
551.52
551.409
551.299
551.191
551.084
550.978
550.872
550.765
550.658
550.55
550.44
550.33
550.218
550.107
549.996
549.886
549.779
549.673
549.57
549.47
549.374
549.281
549.191
549.105
549.023
548.944
548.87
548.798
548.73
548.663
548.595
548.526
548.457
548.388
548.319
548.252
548.186
548.119
548.053
547.984
547.912
547.837
547.756
547.671
547.58
547.484
547.385
547.282
547.177
547.069
546.959
546.845
546.73
546.611
546.49
546.366
546.239
546.11
545.982
545.856
545.732
545.612
545.497
545.385
545.275
545.168
545.062
544.957
544.851
544.744
544.635
544.52
544.405
544.316
544.227
544.135
544.041
543.945
543.848
543.751
543.654
543.557
543.46
543.363
543.266
543.169
543.072
542.975
542.878
542.781
542.684
542.586
542.489
542.391
542.293
542.194
542.096
541.997
541.898
541.798
541.699
541.6
541.5
541.4
541.3
541.2
541.101
541
540.9
540.8
540.7
540.6
552.488
552.365
552.242
552.122
552.003
551.887
551.773
551.661
551.551
551.443
551.337
551.232
551.128
551.024
550.919
550.814
550.707
550.599
550.49
550.379
550.266
550.153
550.041
549.931
549.822
549.716
549.613
549.513
549.416
549.323
549.233
549.146
549.064
548.985
548.91
548.839
548.771
548.703
548.635
548.566
548.495
548.426
548.357
548.29
548.224
548.158
548.09
548.02
547.946
547.867
547.783
547.695
547.602
547.505
547.405
547.304
547.2
547.094
546.985
546.872
546.757
546.638
546.514
546.386
546.254
546.12
545.986
545.854
545.726
545.602
545.483
545.369
545.258
545.15
545.044
544.938
544.833
544.726
544.613
544.484
544.34
544.293
544.215
544.126
544.033
543.938
543.842
543.745
543.648
543.551
543.454
543.358
543.261
543.165
543.068
542.972
542.875
542.778
542.681
542.584
542.487
542.389
542.291
542.193
542.094
541.996
541.897
541.798
541.698
541.599
541.499
541.4
541.3
541.2
541.1
541
540.9
540.8
540.7
540.6
552.49
552.37
552.252
552.135
552.02
551.907
551.797
551.689
551.583
551.479
551.376
551.274
551.173
551.072
550.969
550.866
550.76
550.653
550.544
550.433
550.32
550.206
550.093
549.981
549.871
549.764
549.66
549.559
549.462
549.368
549.277
549.191
549.107
549.028
548.952
548.88
548.81
548.741
548.672
548.601
548.53
548.46
548.392
548.325
548.26
548.194
548.127
548.054
547.976
547.893
547.804
547.712
547.617
547.52
547.423
547.324
547.225
547.122
547.016
546.905
546.79
546.669
546.543
546.409
546.272
546.131
545.992
545.854
545.721
545.593
545.471
545.354
545.241
545.133
545.026
544.922
544.817
544.712
544.604
544.49
544.377
544.298
544.212
544.122
544.028
543.933
543.837
543.74
543.643
543.546
543.449
543.353
543.257
543.16
543.064
542.968
542.872
542.775
542.679
542.582
542.485
542.387
542.289
542.191
542.093
541.995
541.896
541.797
541.698
541.598
541.499
541.399
541.3
541.2
541.1
541
540.9
540.8
540.7
540.6
552.492
552.376
552.261
552.147
552.036
551.927
551.821
551.717
551.615
551.515
551.416
551.317
551.219
551.121
551.021
550.919
550.816
550.709
550.601
550.49
550.378
550.264
550.15
550.037
549.926
549.818
549.712
549.61
549.512
549.418
549.326
549.239
549.155
549.074
548.997
548.923
548.852
548.781
548.709
548.636
548.563
548.493
548.425
548.36
548.297
548.233
548.165
548.09
548.008
547.92
547.826
547.729
547.631
547.535
547.441
547.347
547.253
547.156
547.053
546.944
546.828
546.705
546.574
546.436
546.292
546.145
546
545.858
545.721
545.589
545.463
545.343
545.23
545.12
545.014
544.909
544.806
544.703
544.6
544.496
544.393
544.305
544.214
544.121
544.026
543.93
543.833
543.736
543.639
543.542
543.445
543.349
543.253
543.157
543.061
542.965
542.869
542.773
542.676
542.58
542.483
542.386
542.288
542.19
542.092
541.994
541.895
541.796
541.697
541.598
541.498
541.399
541.299
541.2
541.1
541
540.9
540.8
540.7
540.6
552.493
552.381
552.269
552.159
552.051
551.946
551.843
551.743
551.645
551.549
551.454
551.359
551.265
551.169
551.072
550.973
550.871
550.767
550.66
550.551
550.439
550.326
550.213
550.1
549.987
549.877
549.77
549.667
549.569
549.473
549.381
549.292
549.208
549.126
549.048
548.972
548.897
548.823
548.749
548.673
548.598
548.527
548.46
548.399
548.339
548.278
548.209
548.133
548.049
547.957
547.857
547.753
547.653
547.558
547.467
547.378
547.289
547.197
547.098
546.99
546.873
546.747
546.612
546.467
546.316
546.162
546.012
545.868
545.727
545.591
545.462
545.34
545.226
545.116
545.008
544.903
544.801
544.701
544.602
544.503
544.404
544.312
544.218
544.122
544.025
543.928
543.83
543.732
543.635
543.538
543.441
543.345
543.249
543.153
543.058
542.962
542.866
542.77
542.674
542.578
542.481
542.384
542.287
542.189
542.091
541.993
541.894
541.795
541.696
541.597
541.498
541.399
541.299
541.199
541.1
541
540.9
540.8
540.7
540.6
552.495
552.384
552.276
552.169
552.065
551.963
551.863
551.767
551.672
551.58
551.489
551.398
551.307
551.214
551.12
551.024
550.925
550.823
550.719
550.612
550.502
550.391
550.278
550.165
550.051
549.94
549.833
549.731
549.632
549.535
549.442
549.353
549.267
549.185
549.105
549.026
548.948
548.871
548.793
548.714
548.638
548.567
548.505
548.45
548.397
548.338
548.27
548.194
548.111
548.017
547.911
547.797
547.693
547.602
547.513
547.422
547.336
547.249
547.153
547.044
546.923
546.794
546.656
546.506
546.346
546.183
546.033
545.892
545.748
545.608
545.477
545.351
545.234
545.123
545.012
544.901
544.799
544.705
544.611
544.515
544.414
544.32
544.222
544.124
544.026
543.927
543.829
543.73
543.632
543.535
543.438
543.342
543.246
543.15
543.055
542.959
542.864
542.768
542.672
542.576
542.48
542.383
542.285
542.188
542.09
541.992
541.893
541.795
541.696
541.597
541.498
541.398
541.299
541.199
541.099
541
540.9
540.8
540.7
540.6
552.496
552.388
552.281
552.177
552.075
551.975
551.879
551.785
551.694
551.605
551.518
551.431
551.343
551.254
551.163
551.07
550.974
550.875
550.774
550.67
550.563
550.453
550.341
550.228
550.116
550.007
549.901
549.8
549.701
549.604
549.51
549.419
549.334
549.25
549.168
549.085
549.004
548.923
548.842
548.76
548.685
548.621
548.57
548.529
548.486
548.43
548.368
548.298
548.223
548.128
548.013
547.884
547.781
547.7
547.606
547.497
547.405
547.32
547.226
547.115
546.987
546.858
546.723
546.567
546.396
546.218
546.078
545.955
545.793
545.644
545.513
545.383
545.258
545.143
545.029
544.894
544.793
544.712
544.626
544.531
544.427
544.328
544.227
544.127
544.027
543.927
543.827
543.728
543.63
543.532
543.435
543.339
543.243
543.147
543.052
542.957
542.862
542.766
542.671
542.574
542.478
542.381
542.284
542.187
542.089
541.991
541.893
541.794
541.695
541.596
541.497
541.398
541.298
541.199
541.099
540.999
540.9
540.8
540.7
540.6
552.496
552.389
552.284
552.181
552.081
551.983
551.887
551.795
551.707
551.621
551.539
551.456
551.372
551.286
551.197
551.107
551.014
550.919
550.821
550.721
550.617
550.51
550.4
550.289
550.182
550.077
549.974
549.873
549.773
549.674
549.578
549.488
549.402
549.317
549.232
549.146
549.062
548.981
548.894
548.809
548.755
548.711
548.689
548.674
548.658
548.597
548.581
548.53
548.469
548.363
548.243
548.105
548.034
547.97
547.847
547.67
547.551
547.455
547.36
547.253
547.113
546.999
546.892
546.717
546.523
546.304
546.203
546.138
545.876
545.694
545.588
545.455
545.302
545.17
545.081
544.851
544.758
544.719
544.643
544.547
544.442
544.336
544.232
544.129
544.028
543.927
543.826
543.727
543.628
543.53
543.433
543.336
543.241
543.145
543.05
542.955
542.86
542.765
542.669
542.573
542.477
542.38
542.283
542.186
542.088
541.991
541.892
541.794
541.695
541.596
541.497
541.398
541.298
541.199
541.099
540.999
540.899
540.8
540.7
540.6
552.496
552.389
552.284
552.182
552.082
551.983
551.887
551.794
551.707
551.625
551.547
551.471
551.393
551.31
551.221
551.132
551.042
550.951
550.857
550.76
550.661
550.556
550.449
550.345
550.248
550.152
550.052
549.948
549.841
549.738
549.64
549.554
549.469
549.378
549.301
549.207
549.126
549.061
548.968
548.885
548.939
548.952
548.989
549.014
549.046
548.895
548.644
548.646
548.613
548.471
548.351
548.168
548.049
547.996
547.909
547.765
547.661
547.545
547.412
547.296
547.14
547.031
546.996
546.848
546.684
546.492
546.328
546.236
546.031
545.874
545.712
545.543
545.337
545.145
545.04
544.789
544.729
544.706
544.652
544.609
544.457
544.343
544.236
544.13
544.027
543.925
543.825
543.725
543.626
543.528
543.43
543.334
543.238
543.143
543.048
542.953
542.858
542.763
542.668
542.572
542.476
542.38
542.283
542.185
542.088
541.99
541.892
541.793
541.695
541.596
541.497
541.397
541.298
541.198
541.099
540.999
540.899
540.8
540.7
540.6
552.495
552.387
552.282
552.179
552.078
551.977
551.877
551.781
551.692
551.613
551.543
551.478
551.414
551.335
551.239
551.145
551.059
550.969
550.877
550.786
550.69
550.587
550.486
550.397
550.33
550.243
550.136
550.019
549.894
549.792
549.694
549.633
549.549
549.446
549.455
549.331
549.253
549.267
549.155
549.041
549.03
549.03
549.111
549.161
549.12
549.002
548.784
548.709
548.621
548.531
548.422
548.235
548.085
547.975
547.908
547.771
547.697
547.598
547.422
547.298
547.131
547.077
547.155
547.016
546.832
546.704
546.518
546.414
546.256
546.072
545.822
545.628
545.387
545.148
545.094
544.742
544.745
544.701
544.573
544.571
544.468
544.349
544.247
544.13
544.023
543.922
543.822
543.723
543.624
543.526
543.429
543.333
543.237
543.142
543.047
542.952
542.857
542.762
542.667
542.571
542.475
542.379
542.282
542.185
542.087
541.99
541.892
541.793
541.694
541.596
541.496
541.397
541.298
541.198
541.099
540.999
540.899
540.8
540.7
540.6
552.492
552.382
552.277
552.174
552.071
551.971
551.881
551.779
551.684
551.603
551.543
551.5
551.484
551.407
551.285
551.174
551.088
550.998
550.905
550.817
550.729
550.621
550.525
550.469
550.487
550.369
550.206
550.061
549.909
549.89
549.796
549.831
549.74
549.542
549.426
549.155
549.096
549.185
549.125
549.063
549.08
549.032
549.148
549.281
549.201
549.058
548.876
548.701
548.589
548.584
548.552
548.348
548.13
547.856
547.76
547.696
547.697
547.668
547.4
547.221
547.09
547.187
547.367
547.256
547.021
547.029
546.846
546.687
546.409
546.246
545.881
545.658
545.47
545.006
544.952
544.569
544.918
544.986
543.937
544.398
544.632
544.148
544.286
544.13
544.013
543.915
543.819
543.721
543.622
543.525
543.428
543.331
543.236
543.141
543.046
542.951
542.856
542.761
542.666
542.571
542.475
542.378
542.282
542.185
542.087
541.989
541.891
541.793
541.694
541.595
541.496
541.397
541.298
541.198
541.099
540.999
540.899
540.8
540.7
540.6
552.487
552.374
552.27
552.168
552.068
551.993
552.007
551.925
551.819
551.722
551.665
551.649
551.805
551.673
551.5
551.345