/*--------------------------------*- C++ -*----------------------------------*\
  =========                 |
  \\      /  F ield         | OpenFOAM: The Open Source CFD Toolbox
   \\    /   O peration     | Website:  https://openfoam.org
    \\  /    A nd           | Version:  6
     \\/     M anipulation  |
\*---------------------------------------------------------------------------*/
FoamFile
{
    version     2.0;
    format      ascii;
    class       volScalarField;
    location    "400";
    object      Su;
}
// * * * * * * * * * * * * * * * * * * * * * * * * * * * * * * * * * * * * * //

dimensions      [0 0 -1 0 0 0 0];

internalField   nonuniform List<scalar> 
4800
(
0.220065
0.219008
0.217944
0.216862
0.215739
0.214575
0.21336
0.212083
0.210739
0.209326
0.20784
0.206284
0.204661
0.20298
0.201248
0.19947
0.197655
0.195812
0.193945
0.192061
0.190164
0.188257
0.186342
0.18442
0.182491
0.180555
0.178611
0.176659
0.1747
0.172733
0.170759
0.168777
0.16679
0.164794
0.162786
0.160764
0.158722
0.156658
0.154566
0.152443
0.150283
0.148083
0.145839
0.143548
0.141207
0.138816
0.136372
0.133878
0.131335
0.128745
0.126112
0.123441
0.120739
0.118009
0.115256
0.112482
0.109687
0.106873
0.104041
0.101187
0.098313
0.095416
0.0924951
0.0895431
0.0865505
0.0835051
0.0803927
0.077186
0.0738514
0.070351
0.0666237
0.0625909
0.0581721
0.0532833
0.0478375
0.041768
0.0350241
0.0276539
0.0198599
0.0119025
0.00278433
0.00127947
-0.00134825
-0.00395102
-0.0065783
-0.00925576
-0.01199
-0.0147761
-0.0176044
-0.0204643
-0.023346
-0.0262422
-0.0291474
-0.0320577
-0.0349711
-0.0378863
-0.0408029
-0.0437209
-0.0466407
-0.0495628
-0.0524877
-0.0554158
-0.0583477
-0.0612837
-0.0642241
-0.067169
-0.0701186
-0.0730729
-0.0760317
-0.0789949
-0.0819623
-0.0849336
-0.0879085
-0.0908867
-0.0938677
-0.0968512
-0.0998367
-0.102824
-0.105812
-0.108801
0.220051
0.218969
0.217874
0.216759
0.215609
0.214422
0.213189
0.211895
0.210539
0.209116
0.207622
0.206058
0.204428
0.202737
0.200991
0.199201
0.197373
0.195517
0.193637
0.19174
0.189832
0.187916
0.185993
0.184067
0.182136
0.1802
0.178259
0.176312
0.174359
0.172399
0.170434
0.168461
0.166481
0.164491
0.162488
0.160468
0.158427
0.156363
0.15427
0.152144
0.149982
0.147779
0.145531
0.143234
0.140887
0.138489
0.13604
0.133539
0.130988
0.128391
0.125751
0.123072
0.120358
0.117616
0.11485
0.11206
0.109251
0.10642
0.103569
0.100695
0.097798
0.0948757
0.0919281
0.0889516
0.0859386
0.0828742
0.0797424
0.0765222
0.0731775
0.0696659
0.0659375
0.0619211
0.0575284
0.0526799
0.0472899
0.0412861
0.0346674
0.0274706
0.0197739
0.0117771
0.00271035
0.00112901
-0.00144318
-0.00399393
-0.00658608
-0.00924453
-0.0119709
-0.0147557
-0.0175859
-0.0204488
-0.0233338
-0.026233
-0.0291407
-0.0320531
-0.0349681
-0.0378845
-0.040802
-0.0437208
-0.0466411
-0.0495635
-0.0524887
-0.055417
-0.058349
-0.061285
-0.0642254
-0.0671704
-0.0701199
-0.0730741
-0.0760329
-0.078996
-0.0819633
-0.0849345
-0.0879093
-0.0908874
-0.0938683
-0.0968517
-0.0998371
-0.102824
-0.105812
-0.108801
0.220023
0.218884
0.217726
0.216552
0.215351
0.214119
0.21285
0.211532
0.210153
0.20871
0.207198
0.205618
0.203971
0.202262
0.200498
0.198687
0.196837
0.194959
0.193059
0.191143
0.189216
0.187284
0.185348
0.183413
0.181477
0.179542
0.177605
0.175666
0.173724
0.171777
0.169823
0.167862
0.165893
0.163912
0.161918
0.159907
0.157875
0.155816
0.153726
0.151602
0.149439
0.147233
0.14498
0.142677
0.140322
0.137913
0.135452
0.132938
0.130373
0.127762
0.125107
0.122412
0.119681
0.116919
0.114128
0.111312
0.108472
0.105607
0.102718
0.0998015
0.0968602
0.0938919
0.0908949
0.0878683
0.0848079
0.0817031
0.078538
0.0752893
0.0719251
0.0684045
0.0646778
0.0606859
0.0563424
0.0515645
0.0462626
0.0403651
0.0338316
0.026685
0.0190353
0.0111589
0.0024693
0.000773598
-0.00164486
-0.00407494
-0.0065941
-0.00921655
-0.0119299
-0.0147138
-0.0175488
-0.0204183
-0.0233101
-0.0262153
-0.0291279
-0.0320443
-0.0349624
-0.0378813
-0.0408006
-0.0437207
-0.0466421
-0.0495653
-0.0524909
-0.0554195
-0.0583517
-0.0612879
-0.0642283
-0.0671732
-0.0701227
-0.0730768
-0.0760354
-0.0789983
-0.0819654
-0.0849365
-0.0879111
-0.0908889
-0.0938696
-0.0968527
-0.0998379
-0.102825
-0.105813
-0.108801
0.219975
0.218743
0.217499
0.216248
0.21498
0.213692
0.212374
0.211017
0.209607
0.208137
0.2066
0.204994
0.203323
0.20159
0.199803
0.197969
0.196094
0.19419
0.192265
0.190324
0.188376
0.186424
0.184473
0.182526
0.180585
0.178649
0.176718
0.174789
0.17286
0.170929
0.168994
0.167051
0.165099
0.163136
0.161157
0.15916
0.157139
0.155091
0.153008
0.150888
0.148726
0.146518
0.14426
0.141949
0.139584
0.137162
0.134685
0.132153
0.12957
0.126938
0.124262
0.121543
0.118784
0.115991
0.113164
0.110307
0.107421
0.104505
0.10156
0.0985857
0.0955824
0.0925509
0.0894904
0.0864012
0.083278
0.0801132
0.0768984
0.0736138
0.0702285
0.0667058
0.0629921
0.059031
0.0547481
0.0500681
0.0449009
0.0391712
0.0328095
0.0258229
0.0182596
0.0102978
0.00213827
0.00012512
-0.00194821
-0.00416699
-0.00657914
-0.00915761
-0.0118599
-0.0146481
-0.0174931
-0.0203739
-0.0232762
-0.0261904
-0.0291103
-0.0320325
-0.0349551
-0.0378773
-0.0407993
-0.0437213
-0.046644
-0.0495682
-0.0524945
-0.0554236
-0.0583561
-0.0612923
-0.0642328
-0.0671776
-0.0701269
-0.0730808
-0.0760392
-0.0790019
-0.0819687
-0.0849394
-0.0879137
-0.0908912
-0.0938715
-0.0968543
-0.0998391
-0.102826
-0.105813
-0.108801
0.219919
0.218574
0.217225
0.215876
0.214517
0.213148
0.211766
0.21036
0.208912
0.207412
0.205846
0.204213
0.202515
0.200756
0.198943
0.197082
0.19518
0.193249
0.191298
0.189334
0.187364
0.185395
0.183431
0.181476
0.17953
0.177595
0.175669
0.17375
0.171837
0.169923
0.168008
0.166086
0.164154
0.162211
0.160251
0.158272
0.156267
0.154231
0.152159
0.150046
0.147888
0.145679
0.143417
0.141099
0.138723
0.136289
0.133795
0.131244
0.128636
0.125977
0.123272
0.120521
0.117726
0.11489
0.112015
0.109103
0.106157
0.103178
0.100167
0.0971247
0.0940528
0.090952
0.0878218
0.0846631
0.0814728
0.0782448
0.0749727
0.0716437
0.0682344
0.0647117
0.0610276
0.0571105
0.0528971
0.0483154
0.0432836
0.0377261
0.0315717
0.0247773
0.0172788
0.00910018
0.00107552
-0.000754815
-0.00226231
-0.00419422
-0.00649595
-0.00904545
-0.0117521
-0.0145563
-0.0174197
-0.0203177
-0.0232345
-0.0261604
-0.0290897
-0.0320191
-0.0349472
-0.0378736
-0.0407987
-0.043723
-0.0466474
-0.0495727
-0.0524998
-0.0554294
-0.0583622
-0.0612986
-0.064239
-0.0671836
-0.0701327
-0.0730863
-0.0760444
-0.0790067
-0.0819731
-0.0849434
-0.0879172
-0.0908943
-0.0938741
-0.0968565
-0.0998408
-0.102827
-0.105814
-0.108801
0.219851
0.218376
0.216907
0.215444
0.213986
0.21253
0.211074
0.209607
0.208112
0.206569
0.204966
0.203301
0.201574
0.199786
0.197944
0.196055
0.194126
0.192168
0.190193
0.188207
0.18622
0.184236
0.18226
0.180297
0.178348
0.176415
0.174493
0.172584
0.170684
0.168787
0.166892
0.164992
0.163082
0.161162
0.159225
0.157266
0.15528
0.153261
0.151204
0.149102
0.14695
0.144745
0.142482
0.14016
0.137775
0.135327
0.132816
0.130243
0.127608
0.124916
0.122174
0.119383
0.116542
0.113655
0.110723
0.10775
0.104739
0.101694
0.098615
0.0955037
0.0923631
0.0891938
0.0859961
0.0827696
0.079513
0.0762223
0.0728937
0.0695182
0.0660844
0.0625633
0.0589204
0.0550723
0.050959
0.04651
0.0416536
0.0362995
0.0303668
0.0237797
0.0163033
0.00716913
-0.0033413
-0.00221535
-0.00236024
-0.00400974
-0.00627989
-0.00885638
-0.0116002
-0.0144392
-0.0173317
-0.0202531
-0.0231883
-0.0261284
-0.0290685
-0.0320061
-0.0349404
-0.0378714
-0.0407999
-0.0437267
-0.0466528
-0.0495794
-0.0525073
-0.0554373
-0.0583703
-0.0613067
-0.064247
-0.0671914
-0.0701402
-0.0730934
-0.0760509
-0.0790127
-0.0819787
-0.0849484
-0.0879217
-0.0908981
-0.0938774
-0.0968591
-0.0998429
-0.102828
-0.105815
-0.108802
0.219783
0.21817
0.216569
0.214984
0.213417
0.211866
0.210322
0.208782
0.207231
0.205638
0.203992
0.202287
0.200524
0.198704
0.196831
0.194911
0.192953
0.190968
0.188967
0.186961
0.184956
0.182958
0.180972
0.179001
0.177049
0.175117
0.173199
0.1713
0.16941
0.167532
0.165658
0.16378
0.161893
0.159998
0.158087
0.156152
0.154189
0.152192
0.150152
0.148066
0.145926
0.143728
0.141468
0.139145
0.136753
0.134293
0.131764
0.129167
0.126502
0.123775
0.12099
0.118153
0.115264
0.112322
0.109331
0.106296
0.103221
0.10011
0.0969666
0.0937908
0.090586
0.0873537
0.0840946
0.0808083
0.0774934
0.0741474
0.0707677
0.067349
0.0638875
0.0603658
0.056759
0.0529879
0.0489817
0.0446695
0.0400015
0.0349163
0.0293415
0.0232318
0.0165546
0.00934974
0.00249272
0.000583314
-0.00119753
-0.00338041
-0.00588172
-0.00858512
-0.0114096
-0.0143038
-0.0172358
-0.0201859
-0.0231423
-0.026098
-0.0290497
-0.0319959
-0.0349365
-0.0378722
-0.040804
-0.0437332
-0.046661
-0.0495886
-0.0525172
-0.0554476
-0.0583806
-0.0613169
-0.0642569
-0.067201
-0.0701493
-0.0731019
-0.0760589
-0.0790201
-0.0819854
-0.0849544
-0.087927
-0.0909028
-0.0938814
-0.0968624
-0.0998454
-0.10283
-0.105816
-0.108802
0.219707
0.217947
0.216211
0.214501
0.212816
0.211159
0.209522
0.207898
0.206279
0.204631
0.202935
0.201186
0.199381
0.197522
0.195614
0.193662
0.191673
0.189659
0.187632
0.185604
0.183581
0.181567
0.179571
0.177592
0.175636
0.173704
0.171789
0.1699
0.168017
0.166159
0.164307
0.162452
0.160591
0.158722
0.156838
0.15493
0.152995
0.151022
0.149006
0.14694
0.144817
0.14263
0.140377
0.138055
0.13566
0.13319
0.130644
0.128024
0.12533
0.122566
0.119737
0.116853
0.113912
0.110917
0.10787
0.104776
0.101641
0.0984712
0.0952679
0.092034
0.0887723
0.0854849
0.0821728
0.0788356
0.075472
0.0720798
0.0686571
0.0652013
0.0617101
0.0581833
0.0546088
0.0509276
0.0470615
0.0429309
0.0384933
0.0337097
0.0285436
0.0230086
0.0172006
0.0114029
0.00634118
0.00294996
0.000134767
-0.00260359
-0.00540299
-0.00827626
-0.0112043
-0.0141653
-0.0171423
-0.0201236
-0.023102
-0.0260735
-0.0290366
-0.031991
-0.0349376
-0.0378775
-0.0408123
-0.0437435
-0.0466727
-0.0496011
-0.0525301
-0.0554606
-0.0583935
-0.0613295
-0.064269
-0.0672125
-0.0701602
-0.0731121
-0.0760684
-0.0790288
-0.0819933
-0.0849615
-0.0879333
-0.0909082
-0.0938859
-0.0968661
-0.0998483
-0.102832
-0.105817
-0.108803
0.219632
0.217724
0.215845
0.214003
0.212196
0.210423
0.208682
0.206964
0.205269
0.203554
0.201802
0.200003
0.198151
0.19625
0.194302
0.192312
0.19029
0.188246
0.186191
0.184139
0.182096
0.180065
0.178057
0.176068
0.174106
0.172174
0.17026
0.168382
0.166508
0.164669
0.162839
0.161008
0.159173
0.157333
0.155478
0.153601
0.151697
0.149753
0.147764
0.145723
0.143621
0.14145
0.139207
0.136891
0.134494
0.132016
0.129457
0.126816
0.124094
0.121294
0.118424
0.115492
0.112502
0.109458
0.106361
0.103215
0.100028
0.0968041
0.0935482
0.090264
0.0869549
0.0836226
0.0802683
0.0768916
0.0734914
0.0700663
0.0666143
0.0631357
0.0596305
0.0561039
0.0525513
0.0489437
0.0452186
0.0412831
0.0370872
0.0326114
0.0278476
0.0228396
0.0177126
0.0127119
0.008243
0.00449458
0.00119209
-0.00191604
-0.00495942
-0.00798844
-0.0110164
-0.0140428
-0.0170635
-0.0200745
-0.0230733
-0.0260592
-0.0290324
-0.0319939
-0.0349454
-0.0378888
-0.0408259
-0.0437586
-0.0466886
-0.0496174
-0.0525464
-0.0554767
-0.0584091
-0.0613445
-0.0642834
-0.0672261
-0.0701729
-0.073124
-0.0760793
-0.0790388
-0.0820023
-0.0849696
-0.0879404
-0.0909144
-0.0938912
-0.0968704
-0.0998516
-0.102834
-0.105818
-0.108803
0.219553
0.21749
0.215463
0.213479
0.211542
0.209648
0.207795
0.205977
0.204195
0.20241
0.200594
0.198738
0.196835
0.194887
0.192896
0.190867
0.188809
0.186731
0.184648
0.182569
0.180504
0.178453
0.17643
0.174431
0.172461
0.170527
0.168615
0.166743
0.164878
0.163056
0.161251
0.159445
0.157639
0.155829
0.154005
0.152161
0.150291
0.14838
0.14642
0.144407
0.142328
0.140177
0.13795
0.135642
0.13325
0.130767
0.128195
0.125534
0.122787
0.119956
0.117048
0.114073
0.11104
0.107952
0.104812
0.101624
0.0983937
0.0951252
0.091825
0.0884994
0.085152
0.0817851
0.0783995
0.0749938
0.071567
0.0681189
0.0646487
0.061158
0.0576483
0.0541286
0.0506022
0.0470561
0.0434512
0.0397036
0.0357411
0.0315575
0.0271565
0.022585
0.0179462
0.0134147
0.00921589
0.00540266
0.0018967
-0.00141659
-0.00462157
-0.00776618
-0.0108736
-0.0139538
-0.0170108
-0.0200465
-0.0230621
-0.0260594
-0.0290403
-0.0320071
-0.034962
-0.0379076
-0.0408459
-0.0437792
-0.0467094
-0.049638
-0.0525665
-0.0554961
-0.0584278
-0.0613622
-0.0643001
-0.0672418
-0.0701876
-0.0731376
-0.0760918
-0.0790502
-0.0820126
-0.0849787
-0.0879484
-0.0909213
-0.093897
-0.0968752
-0.0998553
-0.102837
-0.10582
-0.108804
0.219472
0.217249
0.215067
0.212936
0.210858
0.208836
0.206866
0.204942
0.203062
0.201197
0.199311
0.197392
0.195434
0.193435
0.191398
0.189327
0.187231
0.185118
0.183004
0.180897
0.178807
0.176735
0.174693
0.172682
0.170702
0.168766
0.166854
0.164984
0.163131
0.161322
0.159542
0.157759
0.155983
0.154205
0.152411
0.150601
0.148767
0.146889
0.144961
0.142978
0.140926
0.138796
0.136586
0.134291
0.131904
0.129423
0.126846
0.124172
0.121402
0.118542
0.115602
0.112593
0.109525
0.106402
0.103227
0.100004
0.0967401
0.0934387
0.0901051
0.0867468
0.0833704
0.0799796
0.0765743
0.0731514
0.0697091
0.0662479
0.0627678
0.0592714
0.0557638
0.0522548
0.0487538
0.0452597
0.0417501
0.0381667
0.0344175
0.0304977
0.0264082
0.0221851
0.0179001
0.013678
0.00964808
0.00585986
0.00228723
-0.00112191
-0.00441687
-0.0076333
-0.0107936
-0.013911
-0.0169934
-0.0200461
-0.023073
-0.0260776
-0.0290631
-0.0320326
-0.034989
-0.0379351
-0.0408735
-0.0438063
-0.0467357
-0.0496634
-0.0525908
-0.0555192
-0.0584496
-0.0613828
-0.0643194
-0.0672597
-0.0702042
-0.0731528
-0.0761057
-0.0790628
-0.082024
-0.0849889
-0.0879573
-0.090929
-0.0939035
-0.0968804
-0.0998594
-0.10284
-0.105822
-0.108804
0.219389
0.217002
0.21466
0.212375
0.210152
0.207992
0.205894
0.203856
0.201869
0.199915
0.197952
0.195966
0.19395
0.191899
0.189815
0.187701
0.185564
0.183414
0.181266
0.17913
0.177012
0.174916
0.172852
0.170828
0.168834
0.166894
0.164981
0.16311
0.161266
0.159466
0.157707
0.155949
0.154197
0.152448
0.150687
0.148907
0.147108
0.145265
0.14337
0.141416
0.139391
0.137283
0.135091
0.132809
0.130431
0.127953
0.125376
0.122696
0.119915
0.11704
0.114078
0.111045
0.107952
0.104808
0.101614
0.0983719
0.0950833
0.0917537
0.0883924
0.0850091
0.0816123
0.0782069
0.0747918
0.0713609
0.0679109
0.0644438
0.0609612
0.0574668
0.0539684
0.0504751
0.0470006
0.0435519
0.0401183
0.0366658
0.0330991
0.0294061
0.0255756
0.0216318
0.0176228
0.0136217
0.00972493
0.00599541
0.00242367
-0.00101436
-0.0043466
-0.00759728
-0.0107846
-0.0139215
-0.0170171
-0.020078
-0.0231097
-0.0261167
-0.029103
-0.0320722
-0.0350277
-0.0379725
-0.0409093
-0.0438405
-0.0467681
-0.0496939
-0.0526195
-0.0555462
-0.0584748
-0.0614063
-0.0643411
-0.0672799
-0.0702227
-0.0731698
-0.0761212
-0.0790768
-0.0820365
-0.085
-0.087967
-0.0909373
-0.0939105
-0.0968861
-0.0998638
-0.102843
-0.105824
-0.108805
0.219305
0.216751
0.214245
0.211801
0.209426
0.207125
0.204893
0.202731
0.200628
0.198574
0.196528
0.194471
0.192392
0.190286
0.188153
0.185994
0.183816
0.181626
0.179444
0.177275
0.175127
0.173005
0.170916
0.168873
0.166864
0.164913
0.163002
0.161127
0.159285
0.157492
0.155746
0.154008
0.152278
0.150553
0.148822
0.147073
0.145304
0.143495
0.141632
0.139708
0.13771
0.135624
0.133451
0.131187
0.128821
0.126352
0.12378
0.121104
0.118324
0.115446
0.112477
0.109433
0.106329
0.103172
0.0999637
0.0967089
0.0934088
0.0900666
0.0866906
0.0832909
0.0798797
0.0764644
0.0730445
0.0696119
0.0661608
0.0626939
0.0592144
0.0557283
0.0522448
0.0487735
0.0453292
0.0419217
0.0385521
0.0352034
0.0317869
0.0282808
0.024661
0.0209389
0.0171475
0.0133342
0.00955234
0.00589581
0.00235992
-0.00106674
-0.00439994
-0.00765575
-0.0108481
-0.013988
-0.0170845
-0.0201447
-0.0231743
-0.0261784
-0.0291613
-0.0321271
-0.0350791
-0.0380205
-0.040954
-0.0438821
-0.0468068
-0.0497299
-0.0526529
-0.0555771
-0.0585034
-0.0614327
-0.0643654
-0.0673022
-0.0702431
-0.0731884
-0.0761381
-0.079092
-0.08205
-0.085012
-0.0879775
-0.0909463
-0.0939181
-0.0968923
-0.0998686
-0.102847
-0.105826
-0.108805
0.219219
0.216494
0.21382
0.211212
0.208679
0.206228
0.203858
0.201568
0.19935
0.197192
0.195059
0.192926
0.190779
0.188612
0.186426
0.184219
0.181999
0.179769
0.17755
0.175346
0.173165
0.171012
0.168896
0.166827
0.164803
0.162831
0.160918
0.159039
0.157194
0.155406
0.153665
0.151942
0.150228
0.148522
0.146816
0.145096
0.143353
0.141576
0.139743
0.13785
0.13588
0.133819
0.131668
0.129422
0.127072
0.124616
0.122056
0.11939
0.116618
0.113749
0.110789
0.107753
0.104654
0.101498
0.098291
0.0950364
0.0917345
0.0883882
0.0850052
0.0815958
0.0781743
0.0747502
0.0713259
0.0678936
0.0644445
0.0609818
0.05751
0.0540375
0.0505739
0.0471295
0.0437189
0.0403535
0.0370413
0.0337764
0.0304833
0.0271294
0.0236834
0.0201438
0.0165288
0.0128693
0.00919596
0.00561953
0.00213845
-0.00125244
-0.00456218
-0.00780154
-0.010981
-0.0141099
-0.0171963
-0.0202469
-0.0232677
-0.0262636
-0.029239
-0.0321979
-0.0351437
-0.0380795
-0.041008
-0.0439314
-0.046852
-0.0497713
-0.0526909
-0.0556119
-0.0585354
-0.0614619
-0.0643922
-0.0673266
-0.0702654
-0.0732086
-0.0761563
-0.0791083
-0.0820646
-0.0850248
-0.0879887
-0.0909559
-0.0939261
-0.0968988
-0.0998736
-0.10285
-0.105828
-0.108806
0.219133
0.216235
0.213391
0.21062
0.207932
0.205333
0.20282
0.200399
0.198059
0.195788
0.193559
0.191345
0.189127
0.186898
0.184655
0.182398
0.180133
0.177861
0.175602
0.17336
0.171142
0.168955
0.166808
0.164707
0.162662
0.160666
0.158741
0.156856
0.155003
0.153217
0.151474
0.149759
0.148055
0.146364
0.144677
0.142979
0.14126
0.139512
0.137707
0.135843
0.133902
0.131867
0.129741
0.127517
0.125186
0.12275
0.120209
0.117559
0.114804
0.111949
0.109003
0.105984
0.102906
0.0997711
0.0965839
0.0933435
0.0900511
0.0867118
0.0833328
0.079922
0.0764937
0.0730606
0.0696293
0.0661959
0.0627495
0.059293
0.0558319
0.0523767
0.0489371
0.0455235
0.0421505
0.0388304
0.0355746
0.0323807
0.0291901
0.0259595
0.0226549
0.0192661
0.0157998
0.0122731
0.00870152
0.00520762
0.00179157
-0.00154865
-0.00481852
-0.0080257
-0.0111784
-0.0142844
-0.0173509
-0.0203842
-0.0233898
-0.0263723
-0.0293361
-0.0322847
-0.0352216
-0.0381495
-0.0410711
-0.0439885
-0.0469037
-0.0498182
-0.0527335
-0.0556507
-0.0585706
-0.061494
-0.0644214
-0.0673531
-0.0702893
-0.0732302
-0.0761757
-0.0791257
-0.08208
-0.0850383
-0.0880005
-0.090966
-0.0939345
-0.0969056
-0.0998789
-0.102854
-0.10583
-0.108807
0.219047
0.215978
0.212963
0.210028
0.207188
0.204446
0.201796
0.199241
0.196777
0.194388
0.192056
0.189753
0.18746
0.185164
0.182862
0.180552
0.178237
0.17592
0.173618
0.171336
0.169078
0.166853
0.16467
0.162536
0.160462
0.158441
0.156494
0.154598
0.152732
0.150934
0.149187
0.147475
0.145776
0.144094
0.14242
0.140737
0.139038
0.137311
0.135532
0.133696
0.131784
0.129777
0.127677
0.125477
0.12317
0.120757
0.118239
0.115613
0.112883
0.110055
0.107137
0.104146
0.101094
0.0979843
0.0948231
0.0916112
0.0883464
0.0850283
0.0816625
0.0782577
0.0748293
0.0713903
0.067952
0.0645153
0.0610706
0.0576194
0.0541688
0.0507314
0.0473186
0.0439398
0.0406079
0.0373359
0.0341357
0.0310043
0.0279015
0.0247771
0.0215937
0.0183331
0.0149915
0.0115786
0.00810169
0.00468978
0.00134396
-0.00193647
-0.00515537
-0.00831888
-0.0114339
-0.0145075
-0.0175458
-0.0205548
-0.0235393
-0.0265038
-0.0294519
-0.0323872
-0.0353124
-0.0382304
-0.0411432
-0.0440531
-0.0469616
-0.0498704
-0.0527805
-0.0556931
-0.0586089
-0.0615287
-0.0644527
-0.0673814
-0.0703148
-0.0732531
-0.0761962
-0.0791439
-0.0820961
-0.0850525
-0.0880127
-0.0909765
-0.0939432
-0.0969127
-0.0998843
-0.102858
-0.105832
-0.108808
0.21896
0.215718
0.212537
0.209441
0.206449
0.203565
0.200786
0.198106
0.19552
0.193015
0.190577
0.188182
0.185807
0.183438
0.181071
0.178703
0.176335
0.173969
0.171622
0.169296
0.166997
0.164731
0.162508
0.160337
0.158225
0.156178
0.154198
0.152281
0.150407
0.148588
0.146825
0.145105
0.143407
0.141727
0.140059
0.138386
0.136699
0.134986
0.133228
0.131416
0.129528
0.127552
0.12548
0.123306
0.121028
0.118647
0.11616
0.113568
0.110873
0.108081
0.105201
0.102248
0.0992347
0.0961664
0.0930433
0.0898639
0.0866264
0.0833314
0.079983
0.0765878
0.073162
0.0697179
0.0662721
0.0628299
0.0593864
0.0559427
0.0525055
0.0490891
0.0457062
0.0423666
0.0390809
0.0358603
0.032716
0.0296451
0.0266188
0.0235871
0.0205081
0.0173567
0.0141231
0.0108106
0.00742136
0.00408902
0.000815466
-0.00239971
-0.00556011
-0.00867156
-0.0117406
-0.0147738
-0.0177771
-0.0207558
-0.0237142
-0.0266563
-0.0295853
-0.0325041
-0.0354154
-0.0383212
-0.0412237
-0.0441246
-0.0470254
-0.0499273
-0.0528315
-0.0557388
-0.05865
-0.0615656
-0.0644859
-0.0674112
-0.0703416
-0.0732771
-0.0762176
-0.0791629
-0.0821129
-0.0850672
-0.0880254
-0.0909873
-0.0939523
-0.09692
-0.0998899
-0.102862
-0.105835
-0.108808
0.218869
0.215455
0.212111
0.208858
0.205718
0.202696
0.199789
0.19699
0.194292
0.19168
0.189137
0.186648
0.184188
0.181743
0.179308
0.176878
0.174453
0.172035
0.169639
0.167268
0.164924
0.162614
0.160346
0.158132
0.155979
0.153902
0.151891
0.149943
0.148045
0.146202
0.144415
0.142675
0.14097
0.139285
0.137615
0.135945
0.134261
0.132554
0.130811
0.129021
0.127155
0.125209
0.123168
0.121022
0.118773
0.116423
0.113974
0.111423
0.108773
0.106027
0.103195
0.10029
0.0973247
0.0943027
0.0912226
0.0880817
0.0848761
0.0816048
0.0782721
0.0748865
0.0714668
0.0680218
0.064571
0.0611223
0.0576783
0.0542447
0.050828
0.0474412
0.0440964
0.0408035
0.0375714
0.0344087
0.0313226
0.0283124
0.0253573
0.0224092
0.0194239
0.0163684
0.0132247
0.00999433
0.00668271
0.00342543
0.000223834
-0.00292322
-0.00602019
-0.00907356
-0.0120903
-0.0150771
-0.0180398
-0.0209832
-0.0239114
-0.0268275
-0.0297343
-0.0326342
-0.0355292
-0.0384212
-0.0413118
-0.0442024
-0.0470942
-0.0499885
-0.052886
-0.0557875
-0.0586935
-0.0616045
-0.0645207
-0.0674423
-0.0703694
-0.0733019
-0.0762397
-0.0791825
-0.0821301
-0.0850822
-0.0880384
-0.0909983
-0.0939614
-0.0969274
-0.0998956
-0.102866
-0.105837
-0.108809
0.218782
0.2152
0.211696
0.208289
0.205004
0.201852
0.198827
0.195915
0.193108
0.190393
0.187751
0.185169
0.182624
0.180103
0.177598
0.175103
0.17262
0.170147
0.167697
0.165275
0.162886
0.160533
0.158223
0.155965
0.153767
0.15164
0.149585
0.147599
0.145671
0.1438
0.141985
0.140215
0.138489
0.136787
0.135109
0.133433
0.13174
0.130025
0.128284
0.126503
0.124657
0.122737
0.120729
0.11862
0.116412
0.114103
0.111697
0.109195
0.106596
0.103903
0.101125
0.0982749
0.0953601
0.0923849
0.0893465
0.0862417
0.0830662
0.0798196
0.0765049
0.0731312
0.0697197
0.0662798
0.0628301
0.0593828
0.0559456
0.0525291
0.0491428
0.0457971
0.0425027
0.0392678
0.0360991
0.0330022
0.029981
0.0270342
0.0241436
0.0212643
0.0183523
0.0153731
0.0123068
0.00914922
0.00590666
0.00271865
-0.000413177
-0.00349128
-0.00652198
-0.00951334
-0.0124735
-0.0154096
-0.0183276
-0.0212321
-0.0241267
-0.0270141
-0.0298963
-0.0327751
-0.0356522
-0.0385287
-0.0414061
-0.0442853
-0.0471674
-0.0500532
-0.0529433
-0.0558384
-0.0587388
-0.0616448
-0.0645567
-0.0674744
-0.070398
-0.0733273
-0.0762621
-0.0792023
-0.0821475
-0.0850973
-0.0880514
-0.0910093
-0.0939706
-0.0969348
-0.0999013
-0.10287
-0.105839
-0.10881
0.218705
0.214965
0.211306
0.207751
0.204324
0.20104
0.197896
0.194876
0.191969
0.189159
0.186427
0.183758
0.181134
0.178538
0.175965
0.173408
0.170864
0.168335
0.165828
0.16335
0.160909
0.158509
0.156153
0.153849
0.151604
0.149429
0.147322
0.145284
0.143306
0.14139
0.139532
0.137722
0.135965
0.134239
0.132543
0.130857
0.129156
0.127431
0.125684
0.123904
0.122069
0.120169
0.11819
0.11612
0.113959
0.111702
0.109345
0.106894
0.104351
0.101718
0.0989995
0.0962049
0.0933409
0.0904104
0.0874102
0.0843373
0.0811883
0.0779632
0.0746645
0.0713042
0.0679028
0.0644759
0.0610407
0.0576097
0.0541957
0.0508122
0.047472
0.044184
0.0409569
0.0377964
0.034706
0.0316874
0.0287397
0.0258585
0.023028
0.0202062
0.0173517
0.0144285
0.0114129
0.00830449
0.00511681
0.00198935
-0.00107672
-0.00408666
-0.00705004
-0.00997743
-0.0128786
-0.0157616
-0.0186327
-0.0214962
-0.0243553
-0.0272121
-0.0300681
-0.0329244
-0.0357822
-0.0386422
-0.0415053
-0.0443723
-0.0472438
-0.0501205
-0.0530027
-0.0558909
-0.0587854
-0.0616861
-0.0645933
-0.0675069
-0.0704268
-0.0733529
-0.0762848
-0.0792222
-0.0821649
-0.0851125
-0.0880644
-0.0910203
-0.0939797
-0.0969421
-0.0999069
-0.102874
-0.105842
-0.108811
0.21863
0.214738
0.21093
0.207235
0.203675
0.200264
0.197005
0.193884
0.190885
0.18799
0.185178
0.182433
0.179736
0.177073
0.174436
0.17182
0.169219
0.166635
0.164072
0.161535
0.159033
0.156574
0.154161
0.1518
0.149497
0.147259
0.14509
0.142992
0.140957
0.138985
0.137074
0.135213
0.13341
0.131647
0.129918
0.128209
0.126491
0.124748
0.122994
0.121211
0.119386
0.117503
0.115552
0.113522
0.111409
0.109207
0.106912
0.104525
0.102047
0.0994792
0.0968243
0.094088
0.0912749
0.0883865
0.0854216
0.0823769
0.07925
0.0760426
0.072757
0.0694087
0.0660177
0.0626047
0.0591934
0.0558005
0.0524385
0.0491174
0.04585
0.0426454
0.0395097
0.036446
0.0334542
0.0305309
0.0276684
0.0248557
0.0220756
0.0192902
0.0164603
0.0135572
0.0105652
0.00748492
0.00433449
0.00125644
-0.00174839
-0.00469121
-0.00758714
-0.0104503
-0.0132923
-0.0161221
-0.018946
-0.0217681
-0.0245912
-0.0274168
-0.0302459
-0.033079
-0.0359167
-0.0387594
-0.0416077
-0.0444618
-0.0473223
-0.0501894
-0.0530633
-0.0559443
-0.0588325
-0.0617278
-0.0646302
-0.0675396
-0.0704557
-0.0733784
-0.0763072
-0.0792419
-0.0821821
-0.0851273
-0.0880772
-0.0910311
-0.0939887
-0.0969493
-0.0999124
-0.102878
-0.105844
-0.108812
0.218561
0.214531
0.210586
0.206761
0.203077
0.199549
0.196182
0.192966
0.189879
0.186906
0.184024
0.181212
0.178453
0.175732
0.17304
0.17037
0.167718
0.165083
0.162466
0.159868
0.157299
0.154765
0.152276
0.149842
0.147468
0.145154
0.142907
0.140729
0.138616
0.136567
0.134583
0.132654
0.130786
0.128973
0.127199
0.125454
0.123714
0.121952
0.120185
0.1184
0.116586
0.114724
0.112805
0.110819
0.108763
0.106625
0.104403
0.102091
0.0996933
0.0972005
0.0946172
0.0919438
0.0891851
0.0863405
0.0834093
0.0803882
0.077277
0.0740801
0.0708044
0.0674686
0.064097
0.0607144
0.0573466
0.0540131
0.0507269
0.0474969
0.0443323
0.041241
0.0382257
0.0352867
0.0324185
0.0296113
0.0268492
0.0241111
0.0213743
0.018605
0.0157686
0.0128426
0.00982044
0.00671826
0.00357082
0.000529235
-0.00241492
-0.0052883
-0.00811568
-0.0109153
-0.0137
-0.0164786
-0.0192573
-0.0220396
-0.0248279
-0.027623
-0.0304254
-0.0332354
-0.0360529
-0.0388782
-0.0417113
-0.0445523
-0.0474014
-0.0502587
-0.0531241
-0.0559978
-0.0588795
-0.0617692
-0.0646667
-0.0675718
-0.0704841
-0.0734034
-0.0763292
-0.0792611
-0.0821988
-0.0851418
-0.0880895
-0.0910415
-0.0939973
-0.0969562
-0.0999177
-0.102881
-0.105846
-0.108812
0.218513
0.214383
0.210327
0.206382
0.202577
0.198936
0.195463
0.192151
0.188981
0.185937
0.182993
0.180126
0.177315
0.174545
0.171804
0.169086
0.166384
0.163694
0.161013
0.158342
0.155692
0.153071
0.150492
0.147964
0.14549
0.143068
0.140716
0.138436
0.136224
0.13408
0.132005
0.129996
0.128051
0.126172
0.124339
0.122544
0.120771
0.11899
0.117208
0.115427
0.113629
0.111798
0.109927
0.108008
0.106036
0.10398
0.101849
0.0996293
0.0973286
0.094928
0.0924304
0.0898309
0.0871312
0.08433
0.0814285
0.0784263
0.0753258
0.0721349
0.0688684
0.0655504
0.0622097
0.0588749
0.0555701
0.052317
0.0491308
0.0460187
0.0429858
0.0400372
0.0371721
0.034386
0.0316681
0.0289997
0.0263538
0.0236967
0.0209938
0.0182105
0.0153189
0.0123091
0.00919056
0.00599805
0.00280046
-0.000207387
-0.00307539
-0.0058665
-0.0086199
-0.0113562
-0.0140867
-0.0168185
-0.0195561
-0.0223022
-0.0250583
-0.027825
-0.0306022
-0.03339
-0.0361879
-0.038996
-0.0418141
-0.044642
-0.0474797
-0.0503271
-0.053184
-0.0560503
-0.0589256
-0.0618097
-0.0647023
-0.0676031
-0.0705116
-0.0734275
-0.0763503
-0.0792796
-0.0822148
-0.0851556
-0.0881013
-0.0910514
-0.0940054
-0.0969627
-0.0999227
-0.102885
-0.105848
-0.108813
0.21851
0.21436
0.210252
0.206218
0.202294
0.198518
0.194918
0.191498
0.188243
0.185131
0.182131
0.179216
0.17636
0.173546
0.170756
0.167982
0.165216
0.162455
0.159694
0.156936
0.154188
0.151458
0.148763
0.146115
0.143519
0.140972
0.13849
0.136077
0.133736
0.131469
0.129276
0.127162
0.125124
0.123164
0.121265
0.119414
0.117602
0.115804
0.114015
0.112249
0.11049
0.108712
0.106913
0.105087
0.103236
0.101313
0.0993146
0.0972312
0.0950591
0.0927778
0.0903826
0.0878687
0.0852347
0.082479
0.0796028
0.0766103
0.0735093
0.070314
0.067049
0.0637478
0.0604413
0.0571589
0.0539275
0.050771
0.0477038
0.0447312
0.0418539
0.0390727
0.0363839
0.0337782
0.031237
0.0287301
0.0262153
0.0236426
0.0209628
0.0181365
0.01514
0.0119748
0.00866412
0.00526831
0.00192575
-0.00100529
-0.00374322
-0.00642058
-0.00908772
-0.0117595
-0.0144399
-0.0171306
-0.019833
-0.022548
-0.0252762
-0.0280175
-0.0307719
-0.0335391
-0.0363186
-0.0391103
-0.0419139
-0.0447291
-0.0475558
-0.0503935
-0.053242
-0.0561009
-0.0589699
-0.0618485
-0.0647364
-0.0676329
-0.0705378
-0.0734504
-0.0763703
-0.079297
-0.0822299
-0.0851685
-0.0881123
-0.0910606
-0.094013
-0.0969688
-0.0999273
-0.102888
-0.10585
-0.108814
0.218588
0.214547
0.210458
0.206367
0.202332
0.19842
0.194677
0.191128
0.187771
0.184581
0.18152
0.178548
0.175634
0.172757
0.169898
0.167043
0.164187
0.161328
0.158464
0.155591
0.152717
0.149852
0.147012
0.144211
0.141451
0.138736
0.136088
0.133511
0.131013
0.128598
0.126271
0.124036
0.121895
0.119852
0.11789
0.115991
0.114151
0.112348
0.110577
0.108855
0.107171
0.105497
0.103826
0.102156
0.100482
0.0987581
0.0969582
0.0950707
0.0930741
0.0909487
0.0886797
0.086264
0.0836992
0.0809846
0.0781219
0.0751182
0.0719882
0.0687568
0.0654584
0.0621415
0.0588461
0.0556021
0.0524351
0.0493734
0.046428
0.043602
0.0408907
0.0382926
0.0358026
0.0334059
0.0310709
0.0287505
0.0263826
0.0238981
0.0212257
0.0183153
0.0151538
0.0117596
0.00816344
0.00441519
0.000710872
-0.00193387
-0.00442614
-0.00694406
-0.00951042
-0.0121162
-0.0147507
-0.0174067
-0.0200805
-0.0227705
-0.0254757
-0.0281958
-0.0309304
-0.0336793
-0.0364421
-0.0392187
-0.0420087
-0.0448119
-0.0476279
-0.0504564
-0.0532969
-0.0561488
-0.0590117
-0.0618851
-0.0647683
-0.0676608
-0.0705621
-0.0734716
-0.0763888
-0.079313
-0.0822437
-0.0851803
-0.0881223