/*--------------------------------*- C++ -*----------------------------------*\
  =========                 |
  \\      /  F ield         | OpenFOAM: The Open Source CFD Toolbox
   \\    /   O peration     | Website:  https://openfoam.org
    \\  /    A nd           | Version:  6
     \\/     M anipulation  |
\*---------------------------------------------------------------------------*/
FoamFile
{
    version     2.0;
    format      ascii;
    class       volScalarField;
    location    "300";
    object      Su;
}
// * * * * * * * * * * * * * * * * * * * * * * * * * * * * * * * * * * * * * //

dimensions      [0 0 -1 0 0 0 0];

internalField   nonuniform List<scalar> 
4800
(
0.219375
0.216943
0.21451
0.212073
0.209631
0.207183
0.204728
0.202265
0.199793
0.19731
0.194815
0.192308
0.189787
0.187252
0.184702
0.182136
0.179554
0.176956
0.17434
0.171707
0.169056
0.166388
0.163701
0.160997
0.158275
0.155536
0.152779
0.150005
0.147215
0.144408
0.141586
0.138749
0.135897
0.133032
0.130153
0.127262
0.12436
0.121447
0.118524
0.115592
0.112652
0.109706
0.106753
0.103795
0.100832
0.0978672
0.0948996
0.0919308
0.0889618
0.0859933
0.0830264
0.0800619
0.0771006
0.0741434
0.0711909
0.0682438
0.0653028
0.0623686
0.0594414
0.0565219
0.0536105
0.0507073
0.0478127
0.0449267
0.0420496
0.0391813
0.0363217
0.0334708
0.0306282
0.0277939
0.0249673
0.0221481
0.0193359
0.0165301
0.0137302
0.0109355
0.00814524
0.00535882
0.00257545
-0.000147814
-0.00325422
-0.00629954
-0.00933963
-0.0123726
-0.0153968
-0.0184102
-0.0214113
-0.0243984
-0.0273701
-0.0303248
-0.0332614
-0.0361785
-0.0390751
-0.0419502
-0.0448029
-0.0476326
-0.0504385
-0.0532204
-0.0559777
-0.0587105
-0.0614186
-0.0641021
-0.0667612
-0.0693965
-0.0720083
-0.0745974
-0.0771644
-0.0797105
-0.0822365
-0.0847436
-0.087233
-0.0897063
-0.0921647
-0.0946098
-0.0970432
-0.0994666
-0.101882
-0.10429
-0.106694
-0.109095
0.219375
0.216944
0.21451
0.212074
0.209632
0.207185
0.20473
0.202267
0.199795
0.197312
0.194818
0.19231
0.18979
0.187255
0.184705
0.182139
0.179557
0.176959
0.174343
0.17171
0.16906
0.166391
0.163705
0.161
0.158279
0.155539
0.152782
0.150009
0.147218
0.144412
0.141589
0.138752
0.1359
0.133035
0.130156
0.127265
0.124362
0.121449
0.118526
0.115594
0.112654
0.109707
0.106754
0.103796
0.100833
0.0978679
0.0949001
0.0919311
0.0889618
0.0859931
0.0830259
0.0800611
0.0770996
0.0741421
0.0711894
0.0682421
0.0653009
0.0623664
0.0594392
0.0565195
0.0536079
0.0507047
0.04781
0.044924
0.0420469
0.0391786
0.036319
0.0334682
0.0306257
0.0277914
0.024965
0.022146
0.019334
0.0165284
0.0137287
0.0109342
0.00814418
0.00535801
0.00257488
-0.000148111
-0.0032549
-0.00630048
-0.00934082
-0.0123741
-0.0153984
-0.0184121
-0.0214134
-0.0244007
-0.0273725
-0.0303274
-0.0332641
-0.0361813
-0.039078
-0.0419532
-0.044806
-0.0476357
-0.0504417
-0.0532236
-0.055981
-0.0587137
-0.0614217
-0.0641052
-0.0667643
-0.0693995
-0.0720112
-0.0746001
-0.0771671
-0.079713
-0.0822388
-0.0847457
-0.087235
-0.089708
-0.0921662
-0.0946111
-0.0970443
-0.0994675
-0.101882
-0.104291
-0.106695
-0.109096
0.219376
0.216945
0.214511
0.212075
0.209634
0.207187
0.204733
0.20227
0.199798
0.197315
0.194821
0.192314
0.189793
0.187259
0.184709
0.182143
0.179562
0.176963
0.174347
0.171714
0.169064
0.166395
0.163709
0.161005
0.158283
0.155543
0.152786
0.150013
0.147222
0.144416
0.141593
0.138756
0.135904
0.133038
0.13016
0.127269
0.124366
0.121453
0.118529
0.115597
0.112657
0.10971
0.106756
0.103798
0.100835
0.0978692
0.0949011
0.0919316
0.0889619
0.0859928
0.0830252
0.0800601
0.0770981
0.0741403
0.0711871
0.0682395
0.065298
0.0623633
0.0594357
0.0565158
0.053604
0.0507006
0.0478058
0.0449198
0.0420426
0.0391743
0.0363148
0.033464
0.0306217
0.0277876
0.0249614
0.0221426
0.0193309
0.0165256
0.0137263
0.0109321
0.00814255
0.00535678
0.00257407
-0.000148462
-0.0032555
-0.00630128
-0.0093418
-0.0123752
-0.0153997
-0.0184135
-0.0214149
-0.0244024
-0.0273743
-0.0303293
-0.0332661
-0.0361834
-0.0390802
-0.0419554
-0.0448082
-0.047638
-0.050444
-0.0532259
-0.0559832
-0.058716
-0.061424
-0.0641074
-0.0667664
-0.0694015
-0.0720132
-0.074602
-0.0771689
-0.0797147
-0.0822404
-0.0847472
-0.0872364
-0.0897092
-0.0921673
-0.094612
-0.0970451
-0.0994681
-0.101883
-0.104291
-0.106695
-0.109096
0.219376
0.216945
0.214513
0.212077
0.209636
0.20719
0.204736
0.202274
0.199802
0.197319
0.194825
0.192319
0.189798
0.187264
0.184714
0.182149
0.179567
0.176968
0.174353
0.17172
0.169069
0.166401
0.163714
0.16101
0.158288
0.155549
0.152792
0.150018
0.147228
0.144421
0.141599
0.138761
0.135909
0.133044
0.130165
0.127274
0.124371
0.121457
0.118534
0.115601
0.112661
0.109713
0.10676
0.103801
0.100837
0.097871
0.0949024
0.0919324
0.0889622
0.0859925
0.0830243
0.0800586
0.0770961
0.0741376
0.071184
0.0682359
0.0652939
0.0623587
0.0594308
0.0565105
0.0535984
0.0506948
0.0477998
0.0449136
0.0420364
0.0391681
0.0363087
0.033458
0.0306159
0.0277821
0.0249562
0.0221378
0.0193265
0.0165217
0.0137228
0.0109292
0.00814021
0.00535504
0.00257295
-0.000148931
-0.0032562
-0.00630217
-0.00934287
-0.0123765
-0.0154011
-0.018415
-0.0214166
-0.0244041
-0.0273762
-0.0303313
-0.0332681
-0.0361855
-0.0390823
-0.0419576
-0.0448105
-0.0476402
-0.0504463
-0.0532281
-0.0559855
-0.0587182
-0.0614262
-0.0641095
-0.0667685
-0.0694036
-0.0720151
-0.0746039
-0.0771707
-0.0797163
-0.0822419
-0.0847486
-0.0872377
-0.0897104
-0.0921683
-0.0946129
-0.0970459
-0.0994688
-0.101883
-0.104292
-0.106695
-0.109096
0.219376
0.216946
0.214514
0.212079
0.209639
0.207193
0.20474
0.202278
0.199807
0.197325
0.194831
0.192325
0.189805
0.18727
0.184721
0.182155
0.179574
0.176975
0.17436
0.171727
0.169076
0.166407
0.163721
0.161017
0.158295
0.155555
0.152799
0.150025
0.147234
0.144428
0.141605
0.138768
0.135916
0.13305
0.130171
0.12728
0.124377
0.121463
0.11854
0.115607
0.112666
0.109718
0.106764
0.103804
0.10084
0.0978734
0.094904
0.0919334
0.0889624
0.085992
0.0830231
0.0800566
0.0770933
0.0741342
0.0711798
0.068231
0.0652885
0.0623527
0.0594242
0.0565036
0.0535911
0.0506871
0.0477919
0.0449056
0.0420283
0.03916
0.0363007
0.0334502
0.0306084
0.0277748
0.0249493
0.0221314
0.0193207
0.0165165
0.0137183
0.0109254
0.00813715
0.00535277
0.00257149
-0.000149518
-0.00325702
-0.00630318
-0.00934405
-0.0123778
-0.0154026
-0.0184167
-0.0214183
-0.024406
-0.0273781
-0.0303333
-0.0332702
-0.0361876
-0.0390845
-0.0419598
-0.0448127
-0.0476425
-0.0504485
-0.0532304
-0.0559877
-0.0587204
-0.0614283
-0.0641116
-0.0667706
-0.0694055
-0.072017
-0.0746057
-0.0771724
-0.079718
-0.0822435
-0.0847501
-0.087239
-0.0897116
-0.0921694
-0.0946138
-0.0970466
-0.0994694
-0.101884
-0.104292
-0.106695
-0.109096
0.219377
0.216948
0.214516
0.212082
0.209643
0.207197
0.204745
0.202284
0.199813
0.197331
0.194838
0.192332
0.189812
0.187278
0.184729
0.182163
0.179582
0.176984
0.174368
0.171735
0.169084
0.166416
0.163729
0.161025
0.158303
0.155564
0.152807
0.150033
0.147242
0.144436
0.141613
0.138776
0.135924
0.133058
0.130179
0.127288
0.124384
0.12147
0.118546
0.115613
0.112672
0.109723
0.106768
0.103808
0.100844
0.0978761
0.0949059
0.0919344
0.0889625
0.0859912
0.0830214
0.0800539
0.0770898
0.0741297
0.0711745
0.0682249
0.0652816
0.0623451
0.059416
0.0564948
0.0535819
0.0506775
0.047782
0.0448955
0.0420182
0.0391499
0.0362907
0.0334405
0.0305989
0.0277658
0.0249408
0.0221235
0.0193134
0.01651
0.0137126
0.0109207
0.00813335
0.00534996
0.0025697
-0.000150209
-0.00325797
-0.00630431
-0.00934535
-0.0123793
-0.0154042
-0.0184184
-0.0214201
-0.0244079
-0.0273801
-0.0303353
-0.0332723
-0.0361898
-0.0390867
-0.041962
-0.044815
-0.0476447
-0.0504508
-0.0532326
-0.0559899
-0.0587226
-0.0614305
-0.0641137
-0.0667726
-0.0694075
-0.0720189
-0.0746075
-0.0771741
-0.0797196
-0.082245
-0.0847514
-0.0872402
-0.0897127
-0.0921704
-0.0946147
-0.0970474
-0.09947
-0.101884
-0.104292
-0.106695
-0.109096
0.219377
0.216949
0.214519
0.212085
0.209647
0.207202
0.204751
0.20229
0.19982
0.197339
0.194846
0.192341
0.189821
0.187287
0.184738
0.182173
0.179592
0.176993
0.174378
0.171745
0.169094
0.166426
0.163739
0.161035
0.158313
0.155573
0.152816
0.150042
0.147252
0.144445
0.141623
0.138785
0.135933
0.133067
0.130188
0.127296
0.124393
0.121479
0.118554
0.115621
0.112679
0.10973
0.106774
0.103813
0.100848
0.097879
0.0949079
0.0919354
0.0889624
0.08599
0.0830191
0.0800506
0.0770854
0.0741242
0.071168
0.0682175
0.0652732
0.0623359
0.0594061
0.0564842
0.0535708
0.050666
0.0477701
0.0448834
0.042006
0.0391378
0.0362787
0.0334287
0.0305876
0.027755
0.0249306
0.0221141
0.0193048
0.0165023
0.0137059
0.010915
0.00812879
0.00534658
0.00256755
-0.000151011
-0.00325907
-0.00630558
-0.00934679
-0.0123808
-0.0154059
-0.0184202
-0.0214221
-0.0244099
-0.0273822
-0.0303375
-0.0332745
-0.036192
-0.039089
-0.0419643
-0.0448172
-0.047647
-0.050453
-0.0532349
-0.0559921
-0.0587247
-0.0614326
-0.0641158
-0.0667746
-0.0694094
-0.0720208
-0.0746093
-0.0771758
-0.0797211
-0.0822464
-0.0847528
-0.0872415
-0.0897139
-0.0921714
-0.0946156
-0.0970481
-0.0994706
-0.101885
-0.104293
-0.106696
-0.109096
0.219378
0.216951
0.214522
0.212089
0.209652
0.207208
0.204757
0.202298
0.199829
0.197348
0.194856
0.192351
0.189832
0.187298
0.18475
0.182185
0.179603
0.177005
0.17439
0.171757
0.169106
0.166437
0.16375
0.161046
0.158324
0.155584
0.152827
0.150053
0.147263
0.144456
0.141634
0.138796
0.135944
0.133078
0.130198
0.127306
0.124403
0.121488
0.118563
0.115629
0.112686
0.109736
0.10678
0.103818
0.100852
0.0978822
0.0949099
0.0919362
0.088962
0.0859884
0.0830162
0.0800464
0.0770799
0.0741176
0.0711602
0.0682085
0.0652632
0.062325
0.0593943
0.0564717
0.0535576
0.0506523
0.0477562
0.0448692
0.0419917
0.0391235
0.0362646
0.033415
0.0305743
0.0277423
0.0249187
0.0221029
0.0192946
0.0164932
0.013698
0.0109083
0.00812345
0.00534262
0.00256502
-0.000151933
-0.00326032
-0.00630701
-0.00934837
-0.0123826
-0.0154077
-0.0184222
-0.0214241
-0.024412
-0.0273844
-0.0303397
-0.0332768
-0.0361943
-0.0390913
-0.0419666
-0.0448195
-0.0476493
-0.0504553
-0.0532371
-0.0559943
-0.0587269
-0.0614347
-0.0641178
-0.0667766
-0.0694113
-0.0720226
-0.074611
-0.0771774
-0.0797227
-0.0822479
-0.0847541
-0.0872427
-0.089715
-0.0921724
-0.0946164
-0.0970488
-0.0994712
-0.101885
-0.104293
-0.106696
-0.109096
0.219378
0.216953
0.214525
0.212094
0.209657
0.207215
0.204765
0.202307
0.199838
0.197359
0.194867
0.192363
0.189844
0.187311
0.184763
0.182198
0.179617
0.177019
0.174403
0.17177
0.169119
0.16645
0.163763
0.161059
0.158337
0.155597
0.15284
0.150066
0.147275
0.144468
0.141646
0.138808
0.135956
0.133089
0.13021
0.127318
0.124413
0.121498
0.118573
0.115638
0.112695
0.109744
0.106787
0.103824
0.100856
0.0978854
0.0949118
0.0919368
0.0889612
0.0859861
0.0830125
0.0800413
0.0770734
0.0741096
0.0711509
0.068198
0.0652516
0.0623123
0.0593806
0.0564572
0.0535424
0.0506366
0.04774
0.0448528
0.0419752
0.0391071
0.0362485
0.0333992
0.0305591
0.0277278
0.024905
0.0220902
0.019283
0.0164828
0.0136889
0.0109007
0.00811732
0.00533808
0.00256211
-0.000152966
-0.00326175
-0.00630861
-0.00935012
-0.0123844
-0.0154097
-0.0184243
-0.0214263
-0.0244143
-0.0273867
-0.030342
-0.0332791
-0.0361967
-0.0390936
-0.041969
-0.0448219
-0.0476516
-0.0504576
-0.0532393
-0.0559965
-0.058729
-0.0614368
-0.0641198
-0.0667785
-0.0694132
-0.0720244
-0.0746127
-0.077179
-0.0797242
-0.0822493
-0.0847554
-0.0872439
-0.089716
-0.0921733
-0.0946173
-0.0970495
-0.0994718
-0.101886
-0.104293
-0.106696
-0.109096
0.219379
0.216955
0.214529
0.212099
0.209664
0.207223
0.204774
0.202317
0.199849
0.197371
0.19488
0.192376
0.189858
0.187326
0.184777
0.182213
0.179632
0.177034
0.174418
0.171785
0.169134
0.166465
0.163778
0.161074
0.158351
0.155611
0.152854
0.15008
0.147289
0.144482
0.141659
0.138821
0.135969
0.133102
0.130222
0.12733
0.124425
0.12151
0.118583
0.115648
0.112704
0.109752
0.106794
0.10383
0.100861
0.0978886
0.0949136
0.091937
0.0889599
0.0859832
0.0830079
0.0800351
0.0770656
0.0741004
0.0711402
0.0681859
0.0652382
0.0622977
0.059365
0.0564407
0.0535252
0.0506188
0.0477217
0.0448343
0.0419566
0.0390886
0.0362302
0.0333814
0.0305419
0.0277114
0.0248895
0.0220759
0.0192699
0.0164711
0.0136787
0.0108921
0.00811043
0.00533296
0.00255882
-0.000154095
-0.00326335
-0.00631038
-0.00935203
-0.0123865
-0.0154119
-0.0184265
-0.0214286
-0.0244166
-0.0273891
-0.0303445
-0.0332816
-0.0361991
-0.039096
-0.0419714
-0.0448242
-0.0476539
-0.0504599
-0.0532416
-0.0559987
-0.0587311
-0.0614388
-0.0641218
-0.0667804
-0.069415
-0.0720261
-0.0746144
-0.0771806
-0.0797257
-0.0822506
-0.0847567
-0.087245
-0.0897171
-0.0921742
-0.0946181
-0.0970502
-0.0994723
-0.101886
-0.104293
-0.106696
-0.109096
0.21938
0.216957
0.214532
0.212104
0.209671
0.207231
0.204784
0.202328
0.199861
0.197384
0.194894
0.192391
0.189874
0.187342
0.184794
0.18223
0.179649
0.177051
0.174436
0.171802
0.169151
0.166482
0.163795
0.16109
0.158367
0.155627
0.15287
0.150095
0.147304
0.144497
0.141674
0.138836
0.135983
0.133116
0.130236
0.127343
0.124438
0.121522
0.118595
0.115659
0.112714
0.109761
0.106801
0.103836
0.100866
0.0978918
0.0949152
0.0919369
0.088958
0.0859796
0.0830025
0.0800279
0.0770567
0.0740898
0.071128
0.0681722
0.0652231
0.0622813
0.0593475
0.0564222
0.0535059
0.0505989
0.0477014
0.0448137
0.0419359
0.0390681
0.03621
0.0333617
0.0305229
0.0276933
0.0248725
0.02206
0.0192554
0.0164581
0.0136674
0.0108826
0.00810279
0.00532727
0.00255515
-0.000155316
-0.00326515
-0.00631232
-0.00935412
-0.0123887
-0.0154142
-0.0184289
-0.0214311
-0.0244191
-0.0273916
-0.030347
-0.0332841
-0.0362016
-0.0390985
-0.0419738
-0.0448266
-0.0476563
-0.0504622
-0.0532438
-0.0560009
-0.0587333
-0.0614409
-0.0641238
-0.0667823
-0.0694168
-0.0720279
-0.074616
-0.0771821
-0.0797271
-0.082252
-0.0847579
-0.0872462
-0.0897181
-0.0921751
-0.0946189
-0.0970509
-0.0994729
-0.101887
-0.104294
-0.106696
-0.109096
0.219381
0.21696
0.214537
0.21211
0.209678
0.20724
0.204794
0.20234
0.199875
0.197398
0.19491
0.192407
0.189891
0.187359
0.184812
0.182249
0.179668
0.17707
0.174455
0.171821
0.16917
0.166501
0.163813
0.161108
0.158385
0.155645
0.152887
0.150112
0.147321
0.144513
0.14169
0.138852
0.135999
0.133132
0.130251
0.127358
0.124452
0.121535
0.118607
0.11567
0.112724
0.10977
0.106809
0.103842
0.100871
0.097895
0.0949166
0.0919364
0.0889556
0.0859753
0.0829963
0.0800198
0.0770467
0.0740779
0.0711144
0.068157
0.0652063
0.0622632
0.0593283
0.0564019
0.0534848
0.0505771
0.0476791
0.0447912
0.0419134
0.0390457
0.036188
0.0333403
0.0305022
0.0276736
0.0248539
0.0220428
0.0192397
0.016444
0.0136551
0.0108722
0.00809447
0.00532107
0.00255113
-0.000156634
-0.00326711
-0.00631445
-0.00935639
-0.0123911
-0.0154167
-0.0184314
-0.0214337
-0.0244218
-0.0273942
-0.0303496
-0.0332867
-0.0362042
-0.0391011
-0.0419763
-0.0448291
-0.0476587
-0.0504645
-0.0532461
-0.0560031
-0.0587354
-0.0614429
-0.0641258
-0.0667842
-0.0694186
-0.0720296
-0.0746176
-0.0771836
-0.0797285
-0.0822533
-0.0847591
-0.0872473
-0.0897191
-0.092176
-0.0946196
-0.0970515
-0.0994734
-0.101887
-0.104294
-0.106697
-0.109096
0.219382
0.216962
0.214541
0.212116
0.209686
0.20725
0.204805
0.202352
0.199889
0.197414
0.194926
0.192425
0.189909
0.187379
0.184832
0.182269
0.179689
0.177091
0.174475
0.171842
0.169191
0.166521
0.163834
0.161128
0.158405
0.155664
0.152906
0.150131
0.147339
0.144531
0.141708
0.138869
0.136016
0.133148
0.130267
0.127373
0.124467
0.121549
0.118621
0.115683
0.112735
0.10978
0.106818
0.103849
0.100876
0.0978983
0.0949179
0.0919358
0.0889529
0.0859704
0.0829894
0.0800108
0.0770357
0.074065
0.0710996
0.0681404
0.0651882
0.0622437
0.0593074
0.0563801
0.053462
0.0505536
0.0476553
0.0447671
0.0418892
0.0390217
0.0361645
0.0333173
0.0304801
0.0276525
0.0248341
0.0220244
0.0192229
0.016429
0.013642
0.0108611
0.00808557
0.00531443
0.00254681
-0.000158036
-0.00326924
-0.00631674
-0.00935882
-0.0123936
-0.0154193
-0.0184342
-0.0214364
-0.0244246
-0.027397
-0.0303524
-0.0332894
-0.0362069
-0.0391037
-0.0419789
-0.0448316
-0.0476611
-0.0504668
-0.0532483
-0.0560053
-0.0587375
-0.0614449
-0.0641277
-0.0667861
-0.0694204
-0.0720312
-0.0746192
-0.0771851
-0.0797299
-0.0822546
-0.0847603
-0.0872483
-0.08972
-0.0921769
-0.0946204
-0.0970522
-0.0994739
-0.101887
-0.104294
-0.106697
-0.109096
0.219383
0.216965
0.214546
0.212122
0.209694
0.207259
0.204817
0.202365
0.199903
0.197429
0.194943
0.192443
0.189929
0.187399
0.184853
0.18229
0.179711
0.177113
0.174498
0.171865
0.169213
0.166543
0.163856
0.16115
0.158426
0.155685
0.152926
0.150151
0.147359
0.144551
0.141727
0.138888
0.136034
0.133166
0.130285
0.12739
0.124483
0.121565
0.118635
0.115696
0.112748
0.109791
0.106827
0.103857
0.100881
0.0979019
0.0949194
0.0919351
0.08895
0.0859653
0.082982
0.0800012
0.077024
0.0740512
0.0710839
0.0681229
0.0651691
0.062223
0.0592855
0.056357
0.0534381
0.050529
0.0476302
0.0447418
0.0418639
0.0389966
0.0361398
0.0332934
0.030457
0.0276305
0.0248134
0.0220052
0.0192054
0.0164133
0.0136283
0.0108496
0.00807625
0.00530746
0.00254227
-0.000159502
-0.00327151
-0.00631919
-0.00936142
-0.0123963
-0.0154221
-0.018437
-0.0214394
-0.0244275
-0.0273999
-0.0303553
-0.0332923
-0.0362097
-0.0391064
-0.0419815
-0.0448342
-0.0476636
-0.0504692
-0.0532506
-0.0560075
-0.0587396
-0.0614469
-0.0641296
-0.0667879
-0.0694221
-0.0720329
-0.0746207
-0.0771866
-0.0797313
-0.0822558
-0.0847615
-0.0872494
-0.089721
-0.0921777
-0.0946211
-0.0970528
-0.0994744
-0.101888
-0.104295
-0.106697
-0.109096
0.219383
0.216968
0.21455
0.212128
0.209702
0.207269
0.204828
0.202378
0.199918
0.197445
0.194961
0.192462
0.189949
0.18742
0.184875
0.182313
0.179734
0.177137
0.174522
0.171889
0.169237
0.166567
0.163879
0.161173
0.158449
0.155707
0.152948
0.150173
0.14738
0.144572
0.141748
0.138908
0.136054
0.133186
0.130304
0.127409
0.124501
0.121582
0.118652
0.115711
0.112761
0.109803
0.106837
0.103865
0.100888
0.0979062
0.0949216
0.0919349
0.0889475
0.0859604
0.0829747
0.0799916
0.0770121
0.0740372
0.0710679
0.068105
0.0651494
0.0622019
0.059263
0.0563334
0.0534135
0.0505038
0.0476045
0.0447159
0.0418381
0.038971
0.0361147
0.0332689
0.0304335
0.0276081
0.0247923
0.0219856
0.0191875
0.0163973
0.0136143
0.0108377
0.00806671
0.00530031
0.00253759
-0.000161002
-0.00327389
-0.00632176
-0.00936416
-0.0123992
-0.0154251
-0.0184401
-0.0214424
-0.0244306
-0.027403
-0.0303583
-0.0332953
-0.0362126
-0.0391092
-0.0419842
-0.0448368
-0.0476661
-0.0504716
-0.0532529
-0.0560097
-0.0587417
-0.0614489
-0.0641315
-0.0667897
-0.0694238
-0.0720345
-0.0746223
-0.077188
-0.0797326
-0.082257
-0.0847626
-0.0872504
-0.0897219
-0.0921785
-0.0946218
-0.0970534
-0.0994749
-0.101888
-0.104295
-0.106697
-0.109096
0.219384
0.21697
0.214554
0.212134
0.209709
0.207278
0.204839
0.20239
0.199932
0.197461
0.194978
0.192481
0.189969
0.187441
0.184898
0.182337
0.179758
0.177162
0.174547
0.171914
0.169262
0.166593
0.163904
0.161198
0.158473
0.155731
0.152972
0.150196
0.147403
0.144595
0.14177
0.138931
0.136076
0.133207
0.130325
0.127429
0.124521
0.121601
0.11867
0.115728
0.112777
0.109817
0.106849
0.103875
0.100896
0.0979119
0.0949249
0.0919358
0.0889459
0.0859563
0.0829681
0.0799826
0.0770007
0.0740236
0.0710522
0.0680874
0.06513
0.0621809
0.0592407
0.05631
0.0533892
0.0504788
0.0475791
0.0446903
0.0418125
0.0389457
0.0360898
0.0332447
0.0304102
0.0275859
0.0247714
0.0219662
0.0191698
0.0163814
0.0136004
0.010826
0.00805723
0.0052932
0.00253291
-0.000162498
-0.00327633
-0.00632442
-0.00936701
-0.0124022
-0.0154282
-0.0184433
-0.0214457
-0.0244338
-0.0274062
-0.0303615
-0.0332983
-0.0362156
-0.0391121
-0.041987
-0.0448394
-0.0476686
-0.0504741
-0.0532552
-0.0560119
-0.0587438
-0.0614509
-0.0641334
-0.0667915
-0.0694255
-0.072036
-0.0746237
-0.0771894
-0.0797339
-0.0822582
-0.0847637
-0.0872514
-0.0897228
-0.0921793
-0.0946225
-0.097054
-0.0994754
-0.101889
-0.104295
-0.106697
-0.109096
0.219385
0.216972
0.214557
0.212139
0.209716
0.207286
0.204848
0.202402
0.199945
0.197476
0.194994
0.192499
0.189989
0.187463
0.18492
0.18236
0.179783
0.177187
0.174573
0.17194
0.169289
0.166619
0.16393
0.161224
0.158499
0.155757
0.152997
0.150221
0.147428
0.144619
0.141794
0.138955
0.1361
0.133231
0.130348
0.127452
0.124543
0.121622
0.11869
0.115747
0.112795
0.109833
0.106864
0.103888
0.100906
0.0979198
0.0949302
0.0919386
0.0889461
0.0859539
0.0829631
0.0799751
0.0769908
0.0740114
0.0710378
0.0680711
0.065112
0.0621613
0.0592197
0.0562879
0.0533662
0.0504552
0.047555
0.044666
0.0417882
0.0389216
0.0360662
0.0332218
0.0303881
0.0275649
0.0247516
0.0219478
0.0191529
0.0163663
0.0135872
0.0108148
0.00804817
0.00528636
0.00252839
-0.000163942
-0.00327878
-0.00632713
-0.00936994
-0.0124053
-0.0154315
-0.0184466
-0.021449
-0.0244372
-0.0274095
-0.0303647
-0.0333015
-0.0362186
-0.0391151
-0.0419898
-0.0448421
-0.0476712
-0.0504765
-0.0532576
-0.0560141
-0.0587459
-0.0614529
-0.0641353
-0.0667932
-0.0694272
-0.0720376
-0.0746252
-0.0771907
-0.0797351
-0.0822594
-0.0847647
-0.0872523
-0.0897236
-0.0921801
-0.0946231
-0.0970545
-0.0994759
-0.101889
-0.104295
-0.106697
-0.109096
0.219385
0.216974
0.21456
0.212143
0.209721
0.207292
0.204856
0.202411
0.199956
0.197489
0.195009
0.192516
0.190007
0.187483
0.184942
0.182383
0.179807
0.177212
0.174599
0.171967
0.169316
0.166646
0.163958
0.161251
0.158526
0.155784
0.153024
0.150247
0.147454
0.144645
0.141821
0.138981
0.136127
0.133258
0.130375
0.127478
0.124569
0.121647
0.118714
0.11577
0.112816
0.109853
0.106881
0.103903
0.100919
0.0979308
0.0949387
0.0919445
0.0889492
0.0859543
0.082961
0.0799703
0.0769836
0.0740019
0.0710261
0.0680574
0.0650965
0.0621443
0.0592014
0.0562684
0.0533459
0.0504342
0.0475336
0.0446443
0.0417665
0.0389001
0.0360451
0.0332013
0.0303683
0.027546
0.0247338
0.0219313
0.0191378
0.0163527
0.0135753
0.0108047
0.00803993
0.00528012
0.00252421
-0.000165277
-0.00328118
-0.00632984
-0.00937291
-0.0124085
-0.0154348
-0.01845
-0.0214525
-0.0244406
-0.027413
-0.0303681
-0.0333048
-0.0362218
-0.0391181
-0.0419927
-0.0448449
-0.0476738
-0.050479
-0.0532599
-0.0560163
-0.0587479
-0.0614548
-0.0641371
-0.0667949
-0.0694288
-0.0720391
-0.0746266
-0.077192
-0.0797363
-0.0822605
-0.0847657
-0.0872533
-0.0897245
-0.0921808
-0.0946238
-0.097055
-0.0994763
-0.101889
-0.104296
-0.106698
-0.109096
0.219386
0.216975
0.214562
0.212145
0.209724
0.207297
0.204862
0.202419
0.199965
0.1975
0.195022
0.192531
0.190024
0.187501
0.184962
0.182405
0.17983
0.177237
0.174625
0.171993
0.169343
0.166674
0.163985
0.161279
0.158554
0.155812
0.153052
0.150276
0.147483
0.144674
0.14185
0.13901
0.136156
0.133287
0.130404
0.127508
0.124598
0.121676
0.118742
0.115796
0.112841
0.109876
0.106903
0.103923
0.100937
0.0979461
0.0949516
0.0919547
0.0889568
0.0859592
0.0829631
0.0799699
0.0769807
0.0739966
0.0710188
0.0680481
0.0650854
0.0621316
0.0591874
0.0562533
0.0533298
0.0504174
0.0475164
0.0446268
0.0417489
0.0388826
0.0360279
0.0331845
0.0303522
0.0275305
0.0247192
0.0219177
0.0191253
0.0163415
0.0135654
0.0107962
0.00803302
0.00527483
0.00252061
-0.000166443
-0.00328345
-0.00633247
-0.00937585
-0.0124117
-0.0154382
-0.0184535
-0.0214561
-0.0244442
-0.0274165
-0.0303715
-0.0333081
-0.036225
-0.0391212
-0.0419956
-0.0448476
-0.0476764
-0.0504814
-0.0532622
-0.0560185
-0.05875
-0.0614568
-0.0641389
-0.0667966
-0.0694304
-0.0720406
-0.074628
-0.0771933
-0.0797375
-0.0822616
-0.0847667
-0.0872542
-0.0897253
-0.0921815
-0.0946244
-0.0970556
-0.0994767
-0.10189
-0.104296
-0.106698
-0.109097
0.219386
0.216975
0.214562
0.212146
0.209726
0.207299
0.204866
0.202424
0.199972
0.197508
0.195032
0.192543
0.190038
0.187518
0.184981
0.182426
0.179852
0.177261
0.17465
0.172019
0.16937
0.166701
0.164013
0.161307
0.158583
0.155841
0.153081
0.150305
0.147513
0.144705
0.141881
0.139043
0.136189
0.13332
0.130438
0.127541
0.124631
0.121708
0.118773
0.115827
0.112871
0.109905
0.10693
0.103948
0.10096
0.0979671
0.0949702
0.0919708
0.0889703
0.0859701
0.0829715
0.0799757
0.076984
0.0739977
0.0710177
0.068045
0.0650806
0.0621252
0.0591797
0.0562444
0.05332
0.0504069
0.0475052
0.0446153
0.0417372
0.0388708
0.0360161
0.033173
0.030341
0.0275198
0.0247091
0.0219082
0.0191165
0.0163335
0.0135583
0.0107901
0.00802796
0.00527088
0.00251783
-0.00016737
-0.0032855
-0.00633497
-0.00937873
-0.0124149
-0.0154416
-0.0184571
-0.0214597
-0.0244478
-0.0274201
-0.030375
-0.0333115
-0.0362282
-0.0391243
-0.0419986
-0.0448504
-0.047679
-0.0504839
-0.0532645
-0.0560206
-0.058752
-0.0614587
-0.0641407
-0.0667983
-0.0694319
-0.072042
-0.0746293
-0.0771945
-0.0797386
-0.0822626
-0.0847677
-0.087255
-0.089726
-0.0921822
-0.094625
-0.0970561
-0.0994771
-0.10189
-0.104296
-0.106698
-0.109097
0.219386
0.216974
0.214561
0.212145
0.209725
0.207299
0.204866
0.202425
0.199975
0.197513
0.195039
0.192552
0.19005
0.187532
0.184997
0.182444
0.179873
0.177283
0.174673
0.172044
0.169396
0.166728
0.164041
0.161336
0.158612
0.15587
0.153112
0.150337
0.147546
0.144738
0.141916
0.139078
0.136225
0.133357
0.130475
0.127578
0.124668
0.121745
0.11881
0.115863
0.112905
0.109938
0.106963
0.103979
0.10099
0.0979947
0.0949958
0.0919942
0.0889915
0.0859889
0.0829879
0.0799898
0.0769958
0.0740073
0.0710252
0.0680506
0.0650844
0.0621275
0.0591805
0.056244
0.0533185
0.0504045
0.0475021
0.0446115
0.041733
0.0388663
0.0360114
0.0331682
0.0303362
0.0275151
0.0247045
0.0219039
0.0191125
0.0163298
0.0135549
0.0107871
0.00802534
0.0052687
0.00251615
-0.000167986
-0.00328725
-0.00633727
-0.00938148
-0.012418
-0.0154449
-0.0184606
-0.0214633
-0.0244515
-0.0274237
-0.0303786
-0.0333149
-0.0362315
-0.0391274
-0.0420015
-0.0448532
-0.0476816
-0.0504863
-0.0532668
-0.0560228
-0.058754
-0.0614605
-0.0641424
-0.0667999
-0.0694334
-0.0720434
-0.0746306
-0.0771957
-0.0797397
-0.0822636
-0.0847686
-0.0872558
-0.0897268
-0.0921828
-0.0946255
-0.0970565
-0.0994775
-0.10189
-0.104296
-0.106698
-0.109097
0.219385
0.216973
0.214559
0.212142
0.209722
0.207296
0.204864
0.202424
0.199975
0.197515
0.195043
0.192558
0.190058
0.187542
0.18501
0.182459
0.179891
0.177303
0.174695
0.172068
0.169421
0.166754
0.164069
0.161364
0.158641
0.155901
0.153144
0.15037
0.14758
0.144774
0.141953
0.139117
0.136265
0.133397
0.130515
0.127619
0.124708
0.121785
0.118849
0.115901
0.112943
0.109976
0.107
0.104016
0.101025
0.0980293
0.0950292
0.0920262
0.0890219
0.0860175
0.0830146
0.0800145
0.0770185
0.0740279
0.0710439
0.0680674
0.0650995
0.0621409
0.0591923
0.0562544
0.0533277
0.0504124
0.0475089
0.0446175
0.041738
0.0388707
0.0360152
0.0331714
0.030339
0.0275177
0.0247068
0.0219059
0.0191143
0.0163313
0.0135561
0.0107878
0.00802571
0.0052687
0.0025158
-0.00016821
-0.00328864
-0.0063393
-0.00938405
-0.012421
-0.0154482
-0.0184641
-0.0214669
-0.0244551
-0.0274273
-0.0303821
-0.0333183
-0.0362348
-0.0391304
-0.0420044
-0.0448559
-0.0476842
-0.0504887
-0.053269
-0.0560248
-0.058756
-0.0614623
-0.0641441
-0.0668015
-0.0694349
-0.0720448
-0.0746318
-0.0771969
-0.0797408
-0.0822646
-0.0847694
-0.0872566
-0.0897274
-0.0921834
-0.094626
-0.097057
-0.0994779
-0.10189
-0.104297
-0.106698
-0.109097
0.219384
0.21697
0.214555
0.212137
0.209716
0.20729
0.204858
0.202419
0.199971
0.197513
0.195043
0.19256
0.190063
0.18755
0.18502
0.182472
0.179906
0.17732
0.174715
0.17209
0.169444
0.166779
0.164095
0.161392
0.158671
0.155932
0.153176
0.150404
0.147617
0.144813
0.141993
0.139158
0.136307
0.13344
0.130557
0.12766
0.124749
0.121825
0.118889
0.115941
0.112983
0.110015
0.10704
0.104056
0.101066
0.0980702
0.0950702
0.092067
0.0890622
0.0860571
0.0830531
0.0800517
0.0770543
0.0740621
0.0710763
0.0680981
0.0651283
0.0621679
0.0592176
0.056278
0.0533495
0.0504327
0.0475276
0.0446346
0.0417538
0.0388851
0.0360285
0.0331836
0.0303503
0.0275282
0.0247166
0.0219149
0.0191225
0.0163386
0.0135623
0.010793
0.00802956
0.00527123
0.00251702
-0.000167986
-0.00328959
-0.00634103
-0.00938642
-0.0124238
-0.0154514
-0.0184675
-0.0214704
-0.0244586
-0.0274308
-0.0303855
-0.0333216
-0.0362379
-0.0391335
-0.0420073
-0.0448586
-0.0476867
-0.0504911
-0.0532712
-0.0560269
-0.0587578
-0.0614641
-0.0641457
-0.066803
-0.0694363
-0.0720461
-0.074633
-0.077198
-0.0797418
-0.0822655
-0.0847703
-0.0872573
-0.0897281
-0.092184
-0.0946265
-0.0970574
-0.0994782
-0.101891
-0.104297
-0.106698
-0.109097
0.219383
0.216967
0.214549
0.21213
0.209707
0.207281
0.204849
0.20241
0.199963
0.197507
0.195039
0.192559
0.190064
0.187554
0.185027
0.182482
0.179918
0.177335
0.174732
0.172109
0.169466
0.166803
0.16412
0.161419
0.1587
0.155963
0.15321
0.150441
0.147655
0.144853
0.142035
0.139201
0.13635
0.133482
0.130598
0.1277
0.124787
0.121862
0.118925
0.115977
0.113019
0.110053
0.107079
0.104097
0.101109
0.0981153
0.0951172
0.0921157
0.0891122
0.086108
0.0831044
0.080103
0.077105
0.0741118
0.0711247
0.0681448
0.0651731
0.0622108
0.0592584
0.0563166
0.053386
0.0504668
0.0475594
0.0446641
0.041781
0.0389101
0.0360514
0.0332048
0.03037
0.0275466
0.0247338
0.0219311
0.0191375
0.0163521
0.0135742
0.0108028
0.00803718
0.00527651
0.00251992
-0.000167294
-0.00329011
-0.00634247
-0.00938858
-0.0124265
-0.0154545
-0.0184708
-0.0214738
-0.0244621
-0.0274342
-0.0303889
-0.0333249
-0.036241
-0.0391364
-0.0420101
-0.0448612
-0.0476892
-0.0504933
-0.0532733
-0.0560288
-0.0587597
-0.0614658
-0.0641473
-0.0668044
-0.0694376
-0.0720473
-0.0746342
-0.077199
-0.0797427
-0.0822664
-0.0847711
-0.0872581
-0.0897287
-0.0921845
-0.094627
-0.0970578
-0.0994785
-0.101891
-0.104297
-0.106698
-0.109097
0.219381
0.216962
0.214542
0.21212
0.209696
0.207269
0.204837
0.202399
0.199953
0.197498
0.195032
0.192554
0.190062
0.187555
0.185031
0.182489
0.179928
0.177348
0.174747
0.172127
0.169486
0.166825
0.164144
0.161446
0.158729
0.155995
0.153245
0.150478
0.147695
0.144895
0.142078
0.139243
0.136391
0.133521
0.130634
0.127732
0.124817
0.12189
0.118951
0.116003
0.113047
0.110083
0.107111
0.104133
0.101149
0.0981602
0.0951666
0.0921694
0.0891698
0.0861689
0.083168
0.0801684
0.0771713
0.0741781
0.0711901
0.0682088
0.0652352
0.0622707
0.0593158
0.0563714
0.0534378
0.0505155
0.0476047
0.0447059
0.0418192
0.0389449
0.0360831
0.0332338
0.0303968
0.0275716
0.0247575
0.0219535
0.0191586
0.0163715
0.0135913
0.0108172
0.0080485
0.00528448
0.00252445
-0.000166198
-0.00329027
-0.00634368
-0.00939057
-0.012429
-0.0154574
-0.0184739