/*--------------------------------*- C++ -*----------------------------------*\
  =========                 |
  \\      /  F ield         | OpenFOAM: The Open Source CFD Toolbox
   \\    /   O peration     | Website:  https://openfoam.org
    \\  /    A nd           | Version:  6
     \\/     M anipulation  |
\*---------------------------------------------------------------------------*/
FoamFile
{
    version     2.0;
    format      ascii;
    class       volScalarField;
    location    "300";
    object      T;
}
// * * * * * * * * * * * * * * * * * * * * * * * * * * * * * * * * * * * * * //

dimensions      [0 0 0 1 0 0 0];

internalField   nonuniform List<scalar> 
4800
(
552.506
552.418
552.329
552.241
552.153
552.064
551.975
551.885
551.796
551.706
551.615
551.524
551.433
551.341
551.248
551.155
551.062
550.968
550.873
550.777
550.681
550.584
550.487
550.389
550.29
550.191
550.091
549.99
549.889
549.787
549.685
549.582
549.478
549.375
549.27
549.165
549.06
548.954
548.848
548.742
548.635
548.529
548.422
548.314
548.207
548.099
547.992
547.884
547.776
547.669
547.561
547.454
547.346
547.239
547.132
547.025
546.918
546.812
546.706
546.6
546.494
546.389
546.284
546.179
546.075
545.971
545.867
545.764
545.661
545.558
545.455
545.353
545.251
545.149
545.048
544.947
544.845
544.744
544.643
544.543
544.432
544.322
544.211
544.101
543.992
543.882
543.773
543.665
543.557
543.45
543.344
543.238
543.133
543.029
542.925
542.823
542.721
542.62
542.52
542.421
542.323
542.225
542.129
542.033
541.939
541.845
541.752
541.659
541.568
541.477
541.386
541.297
541.208
541.119
541.031
540.943
540.855
540.768
540.681
540.594
552.506
552.418
552.329
552.241
552.153
552.064
551.975
551.885
551.796
551.706
551.615
551.524
551.433
551.341
551.249
551.156
551.062
550.968
550.873
550.777
550.681
550.584
550.487
550.389
550.29
550.191
550.091
549.99
549.889
549.787
549.685
549.582
549.479
549.375
549.27
549.165
549.06
548.955
548.848
548.742
548.636
548.529
548.422
548.314
548.207
548.099
547.992
547.884
547.776
547.669
547.561
547.454
547.346
547.239
547.132
547.025
546.918
546.812
546.706
546.6
546.494
546.389
546.284
546.179
546.075
545.971
545.867
545.764
545.661
545.558
545.455
545.353
545.251
545.149
545.048
544.947
544.845
544.744
544.643
544.543
544.432
544.322
544.211
544.101
543.992
543.882
543.773
543.665
543.557
543.45
543.344
543.238
543.133
543.029
542.925
542.822
542.721
542.62
542.52
542.421
542.322
542.225
542.129
542.033
541.938
541.845
541.751
541.659
541.568
541.477
541.386
541.297
541.207
541.119
541.031
540.943
540.855
540.768
540.681
540.594
552.506
552.418
552.33
552.241
552.153
552.064
551.975
551.886
551.796
551.706
551.615
551.524
551.433
551.341
551.249
551.156
551.062
550.968
550.873
550.777
550.681
550.585
550.487
550.389
550.29
550.191
550.091
549.99
549.889
549.787
549.685
549.582
549.479
549.375
549.27
549.166
549.06
548.955
548.849
548.742
548.636
548.529
548.422
548.314
548.207
548.099
547.992
547.884
547.776
547.669
547.561
547.453
547.346
547.239
547.132
547.025
546.918
546.812
546.706
546.6
546.494
546.389
546.284
546.179
546.075
545.971
545.867
545.764
545.661
545.558
545.455
545.353
545.251
545.149
545.048
544.946
544.845
544.744
544.643
544.543
544.432
544.321
544.211
544.101
543.992
543.882
543.773
543.665
543.557
543.45
543.344
543.238
543.133
543.028
542.925
542.822
542.721
542.62
542.52
542.421
542.322
542.225
542.129
542.033
541.938
541.844
541.751
541.659
541.567
541.477
541.386
541.297
541.207
541.119
541.031
540.943
540.855
540.768
540.681
540.594
552.506
552.418
552.33
552.241
552.153
552.064
551.975
551.886
551.796
551.706
551.616
551.525
551.433
551.341
551.249
551.156
551.062
550.968
550.873
550.778
550.681
550.585
550.487
550.389
550.291
550.191
550.091
549.991
549.889
549.788
549.685
549.582
549.479
549.375
549.271
549.166
549.06
548.955
548.849
548.742
548.636
548.529
548.422
548.314
548.207
548.099
547.992
547.884
547.776
547.669
547.561
547.453
547.346
547.239
547.132
547.025
546.918
546.812
546.705
546.599
546.494
546.389
546.284
546.179
546.075
545.97
545.867
545.763
545.66
545.558
545.455
545.353
545.251
545.149
545.048
544.946
544.845
544.744
544.643
544.542
544.432
544.321
544.211
544.101
543.991
543.882
543.773
543.665
543.557
543.45
543.343
543.238
543.133
543.028
542.925
542.822
542.721
542.62
542.52
542.421
542.322
542.225
542.129
542.033
541.938
541.844
541.751
541.659
541.567
541.476
541.386
541.297
541.207
541.119
541.031
540.943
540.855
540.768
540.681
540.594
552.506
552.418
552.33
552.241
552.153
552.064
551.975
551.886
551.796
551.706
551.616
551.525
551.433
551.342
551.249
551.156
551.062
550.968
550.873
550.778
550.682
550.585
550.488
550.389
550.291
550.191
550.091
549.991
549.89
549.788
549.685
549.583
549.479
549.375
549.271
549.166
549.061
548.955
548.849
548.743
548.636
548.529
548.422
548.315
548.207
548.099
547.992
547.884
547.776
547.669
547.561
547.453
547.346
547.239
547.131
547.024
546.918
546.811
546.705
546.599
546.494
546.388
546.283
546.179
546.074
545.97
545.866
545.763
545.66
545.557
545.455
545.353
545.251
545.149
545.048
544.946
544.845
544.744
544.643
544.542
544.432
544.321
544.211
544.101
543.991
543.882
543.773
543.665
543.557
543.45
543.343
543.238
543.133
543.028
542.925
542.822
542.72
542.62
542.52
542.42
542.322
542.225
542.128
542.033
541.938
541.844
541.751
541.659
541.567
541.476
541.386
541.296
541.207
541.119
541.03
540.943
540.855
540.768
540.681
540.594
552.506
552.418
552.33
552.241
552.153
552.064
551.975
551.886
551.796
551.706
551.616
551.525
551.434
551.342
551.249
551.156
551.063
550.969
550.874
550.778
550.682
550.585
550.488
550.39
550.291
550.192
550.092
549.991
549.89
549.788
549.686
549.583
549.479
549.376
549.271
549.166
549.061
548.955
548.849
548.743
548.636
548.529
548.422
548.315
548.207
548.1
547.992
547.884
547.776
547.669
547.561
547.453
547.346
547.238
547.131
547.024
546.918
546.811
546.705
546.599
546.493
546.388
546.283
546.178
546.074
545.97
545.866
545.763
545.66
545.557
545.455
545.352
545.25
545.149
545.047
544.946
544.845
544.744
544.643
544.542
544.432
544.321
544.211
544.101
543.991
543.882
543.773
543.665
543.557
543.45
543.343
543.238
543.132
543.028
542.925
542.822
542.72
542.619
542.519
542.42
542.322
542.225
542.128
542.033
541.938
541.844
541.751
541.659
541.567
541.476
541.386
541.296
541.207
541.119
541.03
540.943
540.855
540.768
540.681
540.594
552.506
552.418
552.33
552.242
552.153
552.064
551.976
551.886
551.797
551.707
551.616
551.525
551.434
551.342
551.25
551.157
551.063
550.969
550.874
550.779
550.682
550.586
550.488
550.39
550.291
550.192
550.092
549.991
549.89
549.788
549.686
549.583
549.48
549.376
549.271
549.167
549.061
548.956
548.85
548.743
548.636
548.529
548.422
548.315
548.207
548.1
547.992
547.884
547.776
547.669
547.561
547.453
547.346
547.238
547.131
547.024
546.917
546.811
546.704
546.598
546.493
546.387
546.282
546.178
546.073
545.969
545.866
545.762
545.659
545.557
545.454
545.352
545.25
545.148
545.047
544.946
544.845
544.744
544.643
544.542
544.432
544.321
544.211
544.101
543.991
543.882
543.773
543.665
543.557
543.45
543.343
543.237
543.132
543.028
542.925
542.822
542.72
542.619
542.519
542.42
542.322
542.225
542.128
542.033
541.938
541.844
541.751
541.659
541.567
541.476
541.386
541.296
541.207
541.119
541.03
540.943
540.855
540.768
540.681
540.594
552.506
552.418
552.33
552.242
552.153
552.065
551.976
551.887
551.797
551.707
551.617
551.526
551.434
551.343
551.25
551.157
551.064
550.969
550.874
550.779
550.683
550.586
550.489
550.391
550.292
550.192
550.092
549.992
549.891
549.789
549.687
549.584
549.48
549.376
549.272
549.167
549.062
548.956
548.85
548.743
548.637
548.53
548.423
548.315
548.208
548.1
547.992
547.884
547.776
547.668
547.561
547.453
547.345
547.238
547.131
547.024
546.917
546.81
546.704
546.598
546.492
546.387
546.282
546.177
546.073
545.969
545.865
545.762
545.659
545.556
545.454
545.352
545.25
545.148
545.047
544.946
544.845
544.744
544.643
544.542
544.432
544.321
544.211
544.101
543.991
543.882
543.773
543.665
543.557
543.45
543.343
543.237
543.132
543.028
542.925
542.822
542.72
542.619
542.519
542.42
542.322
542.225
542.128
542.033
541.938
541.844
541.751
541.659
541.567
541.476
541.386
541.296
541.207
541.119
541.03
540.943
540.855
540.768
540.681
540.594
552.506
552.418
552.33
552.242
552.153
552.065
551.976
551.887
551.797
551.707
551.617
551.526
551.435
551.343
551.251
551.158
551.064
550.97
550.875
550.779
550.683
550.587
550.489
550.391
550.292
550.193
550.093
549.992
549.891
549.789
549.687
549.584
549.481
549.377
549.272
549.167
549.062
548.956
548.85
548.744
548.637
548.53
548.423
548.315
548.208
548.1
547.992
547.884
547.776
547.668
547.561
547.453
547.345
547.238
547.13
547.023
546.916
546.81
546.704
546.597
546.492
546.386
546.281
546.177
546.072
545.968
545.865
545.761
545.658
545.556
545.453
545.351
545.249
545.148
545.046
544.945
544.844
544.744
544.643
544.542
544.432
544.321
544.211
544.101
543.991
543.882
543.773
543.665
543.557
543.45
543.343
543.237
543.132
543.028
542.924
542.822
542.72
542.619
542.519
542.42
542.322
542.225
542.128
542.033
541.938
541.844
541.751
541.659
541.567
541.476
541.386
541.296
541.207
541.119
541.03
540.943
540.855
540.768
540.681
540.594
552.506
552.418
552.33
552.242
552.154
552.065
551.976
551.887
551.798
551.708
551.618
551.527
551.435
551.344
551.251
551.158
551.065
550.97
550.875
550.78
550.684
550.587
550.49
550.392
550.293
550.193
550.093
549.993
549.892
549.79
549.687
549.585
549.481
549.377
549.273
549.168
549.062
548.957
548.851
548.744
548.637
548.53
548.423
548.316
548.208
548.1
547.992
547.884
547.776
547.668
547.56
547.453
547.345
547.237
547.13
547.023
546.916
546.809
546.703
546.597
546.491
546.386
546.281
546.176
546.072
545.968
545.864
545.761
545.658
545.555
545.453
545.351
545.249
545.147
545.046
544.945
544.844
544.743
544.643
544.542
544.432
544.321
544.211
544.101
543.991
543.882
543.773
543.665
543.557
543.45
543.343
543.237
543.132
543.028
542.924
542.822
542.72
542.619
542.519
542.42
542.322
542.225
542.128
542.033
541.938
541.844
541.751
541.659
541.567
541.476
541.386
541.296
541.207
541.119
541.03
540.943
540.855
540.768
540.681
540.593
552.506
552.418
552.33
552.242
552.154
552.065
551.977
551.888
551.798
551.708
551.618
551.527
551.436
551.344
551.252
551.159
551.065
550.971
550.876
550.781
550.684
550.588
550.49
550.392
550.293
550.194
550.094
549.993
549.892
549.79
549.688
549.585
549.482
549.378
549.273
549.168
549.063
548.957
548.851
548.745
548.638
548.531
548.423
548.316
548.208
548.1
547.992
547.884
547.776
547.668
547.56
547.452
547.345
547.237
547.13
547.022
546.915
546.809
546.702
546.596
546.49
546.385
546.28
546.175
546.071
545.967
545.863
545.76
545.657
545.554
545.452
545.35
545.248
545.147
545.046
544.945
544.844
544.743
544.643
544.542
544.432
544.321
544.211
544.101
543.991
543.882
543.773
543.664
543.557
543.449
543.343
543.237
543.132
543.028
542.924
542.822
542.72
542.619
542.519
542.42
542.322
542.224
542.128
542.033
541.938
541.844
541.751
541.659
541.567
541.476
541.386
541.296
541.207
541.119
541.03
540.942
540.855
540.768
540.681
540.593
552.506
552.418
552.33
552.242
552.154
552.066
551.977
551.888
551.799
551.709
551.619
551.528
551.437
551.345
551.252
551.159
551.066
550.972
550.877
550.781
550.685
550.588
550.491
550.393
550.294
550.195
550.095
549.994
549.893
549.791
549.689
549.586
549.482
549.378
549.274
549.169
549.063
548.958
548.851
548.745
548.638
548.531
548.424
548.316
548.208
548.1
547.992
547.884
547.776
547.668
547.56
547.452
547.344
547.237
547.129
547.022
546.915
546.808
546.702
546.595
546.49
546.384
546.279
546.174
546.07
545.966
545.862
545.759
545.656
545.554
545.451
545.349
545.248
545.146
545.045
544.944
544.844
544.743
544.643
544.542
544.432
544.321
544.211
544.101
543.991
543.882
543.773
543.664
543.557
543.449
543.343
543.237
543.132
543.028
542.924
542.822
542.72
542.619
542.519
542.42
542.322
542.224
542.128
542.032
541.938
541.844
541.751
541.659
541.567
541.476
541.386
541.296
541.207
541.119
541.03
540.942
540.855
540.768
540.681
540.593
552.506
552.418
552.331
552.243
552.155
552.066
551.978
551.889
551.799
551.709
551.619
551.529
551.437
551.346
551.253
551.16
551.067
550.972
550.878
550.782
550.686
550.589
550.492
550.394
550.295
550.195
550.095
549.995
549.893
549.792
549.689
549.586
549.483
549.379
549.274
549.169
549.064
548.958
548.852
548.745
548.638
548.531
548.424
548.316
548.208
548.1
547.992
547.884
547.776
547.668
547.56
547.452
547.344
547.236
547.129
547.021
546.914
546.807
546.701
546.595
546.489
546.383
546.278
546.174
546.069
545.965
545.862
545.758
545.655
545.553
545.451
545.349
545.247
545.146
545.045
544.944
544.843
544.743
544.642
544.542
544.431
544.321
544.211
544.101
543.991
543.881
543.773
543.664
543.556
543.449
543.343
543.237
543.132
543.028
542.924
542.822
542.72
542.619
542.519
542.42
542.322
542.224
542.128
542.032
541.938
541.844
541.751
541.658
541.567
541.476
541.386
541.296
541.207
541.118
541.03
540.942
540.855
540.768
540.681
540.593
552.506
552.419
552.331
552.243
552.155
552.067
551.978
551.889
551.8
551.71
551.62
551.529
551.438
551.346
551.254
551.161
551.067
550.973
550.878
550.783
550.687
550.59
550.492
550.394
550.296
550.196
550.096
549.995
549.894
549.792
549.69
549.587
549.483
549.379
549.275
549.17
549.065
548.959
548.852
548.746
548.639
548.532
548.424
548.316
548.209
548.101
547.992
547.884
547.776
547.668
547.559
547.451
547.343
547.236
547.128
547.021
546.913
546.807
546.7
546.594
546.488
546.382
546.277
546.173
546.068
545.964
545.861
545.757
545.655
545.552
545.45
545.348
545.247
545.145
545.044
544.943
544.843
544.742
544.642
544.542
544.431
544.321
544.21
544.1
543.991
543.881
543.772
543.664
543.556
543.449
543.343
543.237
543.132
543.027
542.924
542.821
542.72
542.619
542.519
542.42
542.322
542.224
542.128
542.032
541.938
541.844
541.751
541.658
541.567
541.476
541.386
541.296
541.207
541.118
541.03
540.942
540.855
540.768
540.681
540.593
552.506
552.419
552.331
552.243
552.155
552.067
551.978
551.889
551.8
551.711
551.62
551.53
551.439
551.347
551.255
551.162
551.068
550.974
550.879
550.784
550.688
550.591
550.493
550.395
550.296
550.197
550.097
549.996
549.895
549.793
549.691
549.588
549.484
549.38
549.276
549.171
549.065
548.959
548.853
548.746
548.639
548.532
548.425
548.317
548.209
548.101
547.992
547.884
547.776
547.667
547.559
547.451
547.343
547.235
547.127
547.02
546.913
546.806
546.699
546.593
546.487
546.382
546.276
546.172
546.067
545.963
545.86
545.757
545.654
545.551
545.449
545.347
545.246
545.145
545.044
544.943
544.843
544.742
544.642
544.542
544.431
544.321
544.21
544.1
543.991
543.881
543.772
543.664
543.556
543.449
543.343
543.237
543.132
543.027
542.924
542.821
542.72
542.619
542.519
542.42
542.321
542.224
542.128
542.032
541.938
541.844
541.751
541.658
541.567
541.476
541.386
541.296
541.207
541.118
541.03
540.942
540.855
540.768
540.681
540.593
552.506
552.419
552.331
552.243
552.155
552.067
551.979
551.89
551.801
551.711
551.621
551.531
551.439
551.348
551.256
551.163
551.069
550.975
550.88
550.785
550.689
550.592
550.494
550.396
550.297
550.198
550.098
549.997
549.896
549.794
549.691
549.588
549.485
549.381
549.276
549.171
549.066
548.96
548.854
548.747
548.64
548.533
548.425
548.317
548.209
548.101
547.993
547.884
547.776
547.667
547.559
547.451
547.343
547.235
547.127
547.019
546.912
546.805
546.698
546.592
546.486
546.381
546.276
546.171
546.066
545.962
545.859
545.756
545.653
545.55
545.448
545.347
545.245
545.144
545.043
544.943
544.842
544.742
544.642
544.542
544.431
544.321
544.21
544.1
543.99
543.881
543.772
543.664
543.556
543.449
543.342
543.237
543.132
543.027
542.924
542.821
542.719
542.619
542.519
542.42
542.321
542.224
542.128
542.032
541.938
541.844
541.751
541.658
541.567
541.476
541.386
541.296
541.207
541.118
541.03
540.942
540.855
540.768
540.68
540.593
552.506
552.419
552.331
552.243
552.156
552.067
551.979
551.89
551.801
551.712
551.622
551.531
551.44
551.349
551.256
551.164
551.07
550.976
550.881
550.786
550.689
550.593
550.495
550.397
550.298
550.199
550.099
549.998
549.897
549.795
549.692
549.589
549.486
549.382
549.277
549.172
549.067
548.961
548.854
548.748
548.641
548.533
548.426
548.318
548.209
548.101
547.993
547.884
547.776
547.667
547.559
547.45
547.342
547.234
547.126
547.019
546.911
546.804
546.698
546.591
546.485
546.38
546.275
546.17
546.065
545.962
545.858
545.755
545.652
545.55
545.448
545.346
545.245
545.144
545.043
544.942
544.842
544.742
544.642
544.542
544.431
544.321
544.21
544.1
543.99
543.881
543.772
543.664
543.556
543.449
543.342
543.236
543.131
543.027
542.924
542.821
542.719
542.619
542.519
542.42
542.321
542.224
542.128
542.032
541.937
541.844
541.751
541.658
541.567
541.476
541.386
541.296
541.207
541.118
541.03
540.942
540.855
540.768
540.68
540.593
552.506
552.419
552.331
552.244
552.156
552.068
551.979
551.891
551.802
551.712
551.622
551.532
551.441
551.349
551.257
551.164
551.071
550.977
550.882
550.787
550.69
550.594
550.496
550.398
550.299
550.2
550.1
549.999
549.898
549.796
549.693
549.59
549.487
549.383
549.278
549.173
549.068
548.962
548.855
548.749
548.641
548.534
548.426
548.318
548.21
548.102
547.993
547.884
547.776
547.667
547.559
547.45
547.342
547.234
547.126
547.018
546.911
546.804
546.697
546.591
546.485
546.379
546.274
546.169
546.065
545.961
545.857
545.754
545.651
545.549
545.447
545.345
545.244
545.143
545.042
544.942
544.842
544.741
544.642
544.542
544.431
544.32
544.21
544.1
543.99
543.881
543.772
543.664
543.556
543.449
543.342
543.236
543.131
543.027
542.924
542.821
542.719
542.618
542.519
542.419
542.321
542.224
542.128
542.032
541.937
541.844
541.751
541.658
541.567
541.476
541.386
541.296
541.207
541.118
541.03
540.942
540.855
540.768
540.68
540.593
552.506
552.419
552.331
552.244
552.156
552.068
551.98
551.891
551.802
551.713
551.623
551.532
551.441
551.35
551.258
551.165
551.072
550.978
550.883
550.788
550.691
550.595
550.497
550.399
550.3
550.201
550.101
550
549.899
549.797
549.694
549.591
549.488
549.384
549.279
549.174
549.069
548.963
548.856
548.749
548.642
548.535
548.427
548.319
548.211
548.102
547.994
547.885
547.776
547.667
547.559
547.45
547.342
547.234
547.126
547.018
546.91
546.803
546.697
546.59
546.484
546.378
546.273
546.168
546.064
545.96
545.857
545.753
545.651
545.548
545.446
545.345
545.244
545.143
545.042
544.942
544.841
544.741
544.641
544.542
544.431
544.32
544.21
544.1
543.99
543.881
543.772
543.664
543.556
543.449
543.342
543.236
543.131
543.027
542.924
542.821
542.719
542.618
542.518
542.419
542.321
542.224
542.128
542.032
541.937
541.844
541.75
541.658
541.567
541.476
541.386
541.296
541.207
541.118
541.03
540.942
540.855
540.768
540.68
540.593
552.506
552.419
552.331
552.244
552.156
552.068
551.98
551.891
551.802
551.713
551.623
551.533
551.442
551.351
551.259
551.166
551.073
550.979
550.884
550.788
550.692
550.596
550.498
550.4
550.301
550.202
550.102
550.001
549.9
549.798
549.696
549.593
549.489
549.385
549.28
549.175
549.07
548.964
548.857
548.751
548.643
548.536
548.428
548.32
548.211
548.103
547.994
547.885
547.777
547.668
547.559
547.45
547.342
547.234
547.126
547.018
546.91
546.803
546.696
546.59
546.484
546.378
546.273
546.168
546.064
545.96
545.856
545.753
545.65
545.548
545.446
545.345
545.243
545.142
545.042
544.941
544.841
544.741
544.641
544.542
544.431
544.32
544.21
544.1
543.99
543.881
543.772
543.663
543.556
543.448
543.342
543.236
543.131
543.027
542.923
542.821
542.719
542.618
542.518
542.419
542.321
542.224
542.127
542.032
541.937
541.843
541.75
541.658
541.567
541.476
541.386
541.296
541.207
541.118
541.03
540.942
540.855
540.768
540.68
540.593
552.506
552.419
552.331
552.244
552.156
552.068
551.98
551.891
551.802
551.713
551.623
551.533
551.442
551.351
551.259
551.167
551.073
550.979
550.885
550.789
550.693
550.597
550.499
550.401
550.302
550.203
550.103
550.002
549.901
549.799
549.697
549.594
549.49
549.386
549.282
549.177
549.071
548.965
548.859
548.752
548.645
548.537
548.429
548.321
548.213
548.104
547.995
547.886
547.777
547.668
547.56
547.451
547.342
547.234
547.126
547.018
546.91
546.803
546.696
546.59
546.484
546.378
546.273
546.168
546.063
545.96
545.856
545.753
545.65
545.548
545.446
545.344
545.243
545.142
545.042
544.941
544.841
544.741
544.641
544.542
544.431
544.32
544.21
544.1
543.99
543.881
543.772
543.663
543.555
543.448
543.342
543.236
543.131
543.027
542.923
542.821
542.719
542.618
542.518
542.419
542.321
542.224
542.127
542.032
541.937
541.843
541.75
541.658
541.567
541.476
541.386
541.296
541.207
541.118
541.03
540.942
540.855
540.768
540.68
540.593
552.506
552.419
552.331
552.244
552.156
552.068
551.98
551.891
551.802
551.713
551.623
551.533
551.443
551.351
551.26
551.167
551.074
550.98
550.886
550.79
550.694
550.598
550.5
550.402
550.303
550.204
550.104
550.003
549.902
549.8
549.698
549.595
549.492
549.388
549.283
549.178
549.073
548.967
548.86
548.753
548.646
548.538
548.43
548.322
548.214
548.105
547.996
547.887
547.778
547.67
547.561
547.452
547.343
547.235
547.126
547.019
546.911
546.804
546.697
546.59
546.484
546.378
546.273
546.168
546.064
545.96
545.856
545.753
545.65
545.548
545.446
545.344
545.243
545.142
545.042
544.941
544.841
544.741
544.641
544.542
544.431
544.32
544.21
544.1
543.99
543.88
543.771
543.663
543.555
543.448
543.342
543.236
543.131
543.027
542.923
542.821
542.719
542.618
542.518
542.419
542.321
542.224
542.127
542.032
541.937
541.843
541.75
541.658
541.567
541.476
541.386
541.296
541.207
541.118
541.03
540.942
540.855
540.768
540.68
540.593
552.506
552.419
552.331
552.243
552.156
552.068
551.979
551.891
551.802
551.713
551.623
551.533
551.443
551.352
551.26
551.168
551.075
550.981
550.886
550.791
550.695
550.598
550.501
550.403
550.304
550.205
550.105
550.005
549.903
549.802
549.7
549.597
549.493
549.389
549.285
549.18
549.074
548.968
548.862
548.755
548.647
548.54
548.432
548.324
548.215
548.107
547.998
547.889
547.78
547.671
547.562
547.453
547.344
547.236
547.128
547.02
546.912
546.805
546.698
546.591
546.485
546.379
546.274
546.169
546.064
545.96
545.857
545.753
545.651
545.548
545.446
545.345
545.244
545.143
545.042
544.941
544.841
544.741
544.641
544.542
544.431
544.32
544.21
544.099
543.99
543.88
543.771
543.663
543.555
543.448
543.342
543.236
543.131
543.027
542.923
542.821
542.719
542.618
542.518
542.419
542.321
542.224
542.127
542.032
541.937
541.843
541.75
541.658
541.567
541.476
541.386
541.296
541.207
541.118
541.03
540.942
540.855
540.768
540.68
540.593
552.506
552.419
552.331
552.243
552.155
552.067
551.979
551.891
551.802
551.713
551.623
551.533
551.443
551.352
551.26
551.168
551.075
550.981
550.887
550.792
550.696
550.599
550.502
550.404
550.305
550.206
550.106
550.006
549.905
549.803
549.701
549.598
549.495
549.391
549.286
549.181
549.076
548.969
548.863
548.756
548.649
548.541
548.433
548.325
548.217
548.108
548
547.891
547.782
547.673
547.564
547.455
547.346
547.238
547.129
547.021
546.914
546.806
546.699
546.592
546.486
546.38
546.275
546.17
546.065
545.961
545.857
545.754
545.651
545.549
545.447
545.345
545.244
545.143
545.042
544.942
544.841
544.741
544.641
544.542
544.431
544.32
544.21
544.099
543.99
543.88
543.771
543.663
543.555
543.448
543.341
543.236
543.131
543.026
542.923
542.82
542.719
542.618
542.518
542.419
542.321
542.224
542.127
542.032
541.937
541.843
541.75
541.658
541.567
541.476
541.385
541.296
541.207
541.118
541.03
540.942
540.855
540.768
540.68
540.593
552.506
552.418
552.331
552.243
552.155
552.067
551.979
551.89
551.802
551.713
551.623
551.533
551.443
551.352
551.26
551.168
551.075
550.982
550.887
550.792
550.697
550.6
550.503
550.405
550.307
550.207
550.108
550.007
549.906
549.805
549.703
549.6
549.496
549.392
549.288
549.182
549.077
548.97
548.864
548.757
548.65
548.542
548.435
548.327
548.218
548.11
548.001
547.893
547.784
547.675
547.566
547.457
547.349
547.24
547.132
547.024
546.916
546.808
546.701
546.594
546.488
546.382
546.276
546.171
546.067
545.962
545.859
545.755
545.652
545.55
545.448
545.346
545.245
545.144
545.043
544.942
544.842
544.742
544.642
544.542
544.431
544.32
544.209
544.099
543.989
543.88
543.771
543.663
543.555
543.448
543.341
543.236
543.131
543.026
542.923
542.82
542.719
542.618
542.518
542.419
542.321
542.224
542.127
542.032
541.937
541.843
541.75
541.658
541.566
541.476
541.385
541.296
541.207
541.118
541.03
540.942
540.855
540.768
540.68
540.593
552.506
552.418
552.33
552.242
552.154
552.066
551.978
551.89
551.801
551.712
551.623
551.533
551.443
551.352
551.26
551.168
551.076
550.982
550.888
550.793
550.697
550.601
550.504
550.406
550.308
550.209
550.109
550.009
549.908
549.806
549.704
549.601
549.498
549.393
549.289
549.183
549.077
548.971
548.864
548.757
548.65
548.543
548.435
548.327
548.219
548.111
548.003
547.895
547.786
547.677
547.569
547.46
547.352
547.243
547.135
547.027
546.919
546.811
546.704
546.597
546.49
546.384
546.279
546.173
546.068
545.964
545.86
545.756
545.653
545.551
545.449
545.347
545.246
545.145
545.044
544.943
544.842
544.742
544.642
544.542
544.431
544.32
544.209
544.099
543.989
543.88
543.771
543.663
543.555
543.448
543.341
543.235
543.13
543.026
542.923
542.82
542.719
542.618
542.518
542.419
542.321
542.224
542.127
542.032
541.937
541.843
541.75
541.658
541.566
541.476
541.385
541.296
541.207
541.118
541.03
540.942
540.855
540.768
540.68
540.593
552.506
552.418
552.33
552.242
552.154
552.066
551.978
551.889
551.801
551.712
551.622
551.533
551.442
551.352
551.26
551.168
551.076
550.982
550.888
550.793
550.698
550.601
550.505
550.407
550.309
550.21
550.11
550.01
549.909
549.808
549.705
549.602
549.499
549.394
549.289
549.183
549.077
548.971
548.864
548.757
548.65
548.543
548.435
548.328
548.22
548.112
548.004
547.896
547.788
547.68
547.572
547.463
547.355
547.247
547.138
547.03
546.922
546.814
546.707
546.6
546.493
546.387
546.281
546.175
546.07
545.966
545.861
545.758
545.655
545.552
545.45
545.348
545.247
545.146
545.045
544.944
544.843
544.742
544.642
544.542
544.431
544.32
544.209
544.099
543.989
543.88
543.771
543.663
543.555
543.448
543.341
543.235
543.13
543.026
542.923
542.82
542.719
542.618
542.518
542.419
542.321
542.223
542.127
542.032
541.937
541.843
541.75
541.658
541.566
541.476
541.385
541.296
541.207
541.118
541.03
540.942
540.855
540.768
540.68
540.593
552.506
552.418
552.33
552.242
552.153
552.065
551.977
551.889
551.8
551.711
551.622
551.532
551.442
551.352
551.26
551.168
551.076
550.983
550.889
550.794
550.698
550.602
550.505
550.408
550.31
550.212
550.112
550.012
549.911
549.809
549.706
549.603
549.499
549.394
549.288
549.182
549.076
548.969
548.863
548.756
548.649
548.542
548.434
548.327
548.22
548.113
548.005
547.898
547.79
547.683
547.575
547.467
547.359
547.25
547.142
547.034
546.926
546.818
546.71
546.603
546.496
546.39
546.283
546.178
546.072
545.967
545.863
545.759
545.655
545.553
545.451
545.349
545.247
545.146
545.045
544.944
544.843
544.743
544.642
544.542
544.431
544.32
544.209
544.099
543.989
543.88
543.771
543.662
543.555
543.448
543.341
543.235
543.13
543.026
542.923
542.82
542.719
542.618
542.518
542.419
542.321
542.223
542.127
542.032
541.937
541.843
541.75
541.658
541.566
541.476
541.385
541.296
541.207
541.118
541.03
540.942
540.855
540.768
540.68
540.593
552.506
552.417
552.329
552.241
552.153
552.065
551.977
551.888
551.8
551.711
551.622
551.532
551.442
551.351
551.26
551.168
551.076
550.983
550.889
550.794
550.699
550.603
550.506
550.409
550.312
550.215
550.115
550.014
549.912
549.809
549.707
549.603
549.498
549.393
549.287
549.18
549.074
548.967
548.861
548.754
548.647
548.54
548.433
548.326
548.22
548.113
548.006
547.899
547.792
547.685
547.578
547.47
547.362
547.254
547.146
547.038
546.929
546.821
546.714
546.606
546.499
546.392
546.286
546.18
546.074
545.968
545.863
545.759
545.656
545.553
545.451
545.349
545.248
545.147
545.046
544.945
544.844
544.743
544.642
544.542
544.43
544.32
544.209
544.099
543.989
543.88
543.771
543.662
543.555
543.447
543.341
543.235
543.13
543.026
542.923
542.82
542.718
542.618
542.518
542.419
542.321
542.223
542.127
542.032
541.937
541.843
541.75
541.658
541.566
541.476
541.385
541.296
541.207
541.118
541.03
540.942
540.855
540.768
540.68
540.593
552.506
552.417
552.329
552.241
552.152
552.064
551.976
551.888
551.799
551.71
551.621
551.532
551.442
551.351
551.26
551.168
551.076
550.983
550.889
550.794
550.699
550.603
550.507
550.411
550.316
550.221
550.119
550.017
549.911
549.808
549.704
549.601
549.496
549.39
549.284
549.178
549.071
548.964
548.858
548.752
548.645
548.538
548.432
548.325
548.219
548.113
548.007
547.901
547.794
547.687
547.58
547.473
547.365
547.258
547.149
547.041
546.933
546.825
546.717
546.609
546.502
546.395
546.288
546.181
546.074
545.969
545.863
545.759
545.655
545.553
545.45
545.348
545.247
545.146
545.046
544.945
544.844
544.743
544.642
544.541
544.43
544.319
544.209
544.099
543.989
543.88
543.771
543.662
543.555
543.447
543.341
543.235
543.13
543.026
542.923
542.82
542.718
542.618
542.518
542.419
542.321
542.223
542.127
542.032
541.937
541.843
541.75
541.658
541.566
541.476
541.385
541.296
541.207
541.118
541.03
540.942
540.855
540.768
540.68
540.593
552.506
552.417
552.329
552.24
552.152
552.064
551.976
551.887
551.799
551.71
551.621
551.532
551.442
551.351
551.26
551.168
551.076
550.983
550.889
550.794
550.699
550.604
550.508
550.414
550.324
550.239
550.121
550.017
549.906
549.803
549.699
549.596
549.491
549.386
549.279
549.174
549.068
548.961
548.856
548.752
548.645
548.538
548.431
548.326
548.22
548.115
548.01
547.903
547.796
547.689
547.583
547.475
547.368
547.26
547.153
547.046
546.937
546.829
546.721
546.612
546.503
546.396
546.29
546.182
546.074
545.968
545.863
545.758
545.655
545.552
545.45
545.347
545.245
545.145
545.044
544.944
544.843
544.742
544.64
544.54
544.429
544.319
544.209
544.099
543.989
543.88
543.771
543.662
543.554
543.447
543.341
543.235
543.13
543.026
542.923
542.82
542.718
542.618
542.518
542.419
542.321
542.223
542.127
542.032
541.937
541.843
541.75
541.658
541.566
541.476
541.385
541.296
541.207
541.118
541.03
540.942
540.855
540.768