/*--------------------------------*- C++ -*----------------------------------*\
  =========                 |
  \\      /  F ield         | OpenFOAM: The Open Source CFD Toolbox
   \\    /   O peration     | Website:  https://openfoam.org
    \\  /    A nd           | Version:  6
     \\/     M anipulation  |
\*---------------------------------------------------------------------------*/
FoamFile
{
    version     2.0;
    format      ascii;
    class       volVectorField;
    location    "300";
    object      U;
}
// * * * * * * * * * * * * * * * * * * * * * * * * * * * * * * * * * * * * * //

dimensions      [0 1 -1 0 0 0 0];

internalField   nonuniform List<vector> 
4800
(
(-6.23034e-08 0 6.27374e-08)
(-1.87217e-07 0 6.14554e-08)
(-3.10298e-07 0 6.01989e-08)
(-4.31065e-07 0 5.86979e-08)
(-5.48548e-07 0 5.68392e-08)
(-6.61887e-07 0 5.46112e-08)
(-7.70298e-07 0 5.20337e-08)
(-8.73069e-07 0 4.91277e-08)
(-9.69569e-07 0 4.59403e-08)
(-1.05926e-06 0 4.25015e-08)
(-1.14167e-06 0 3.88596e-08)
(-1.21646e-06 0 3.50571e-08)
(-1.28336e-06 0 3.11383e-08)
(-1.34219e-06 0 2.71436e-08)
(-1.39285e-06 0 2.3113e-08)
(-1.43533e-06 0 1.90891e-08)
(-1.46971e-06 0 1.51016e-08)
(-1.49611e-06 0 1.11916e-08)
(-1.51476e-06 0 7.3657e-09)
(-1.5258e-06 0 3.67287e-09)
(-1.52977e-06 0 4.82764e-10)
(-1.52713e-06 0 -3.16482e-09)
(-1.5176e-06 0 -6.24558e-09)
(-1.50216e-06 0 -9.10226e-09)
(-1.4812e-06 0 -1.18363e-08)
(-1.45493e-06 0 -1.43331e-08)
(-1.42399e-06 0 -1.65596e-08)
(-1.38881e-06 0 -1.85625e-08)
(-1.34984e-06 0 -2.03344e-08)
(-1.30754e-06 0 -2.18873e-08)
(-1.26235e-06 0 -2.32229e-08)
(-1.2147e-06 0 -2.43481e-08)
(-1.16499e-06 0 -2.52696e-08)
(-1.11362e-06 0 -2.59999e-08)
(-1.06097e-06 0 -2.65474e-08)
(-1.0074e-06 0 -2.69236e-08)
(-9.53226e-07 0 -2.71413e-08)
(-8.98775e-07 0 -2.72003e-08)
(-8.44331e-07 0 -2.71327e-08)
(-7.90151e-07 0 -2.69327e-08)
(-7.36491e-07 0 -2.66166e-08)
(-6.83572e-07 0 -2.61925e-08)
(-6.31598e-07 0 -2.56732e-08)
(-5.80755e-07 0 -2.50641e-08)
(-5.31211e-07 0 -2.43752e-08)
(-4.83115e-07 0 -2.36197e-08)
(-4.366e-07 0 -2.27981e-08)
(-3.91786e-07 0 -2.19239e-08)
(-3.48766e-07 0 -2.10062e-08)
(-3.07636e-07 0 -2.00407e-08)
(-2.6847e-07 0 -1.9046e-08)
(-2.31334e-07 0 -1.80173e-08)
(-1.96284e-07 0 -1.69671e-08)
(-1.63359e-07 0 -1.58981e-08)
(-1.32593e-07 0 -1.48145e-08)
(-1.04014e-07 0 -1.37208e-08)
(-7.76298e-08 0 -1.26233e-08)
(-5.34568e-08 0 -1.15203e-08)
(-3.14868e-08 0 -1.04262e-08)
(-1.17103e-08 0 -9.33758e-09)
(5.89393e-09 0 -8.25916e-09)
(2.13501e-08 0 -7.20209e-09)
(3.4706e-08 0 -6.1652e-09)
(4.60075e-08 0 -5.15766e-09)
(5.53136e-08 0 -4.17831e-09)
(6.26982e-08 0 -3.24498e-09)
(6.82525e-08 0 -2.35712e-09)
(7.2077e-08 0 -1.52555e-09)
(7.43005e-08 0 -7.63618e-10)
(7.50647e-08 0 -7.54009e-11)
(7.4547e-08 0 5.1025e-10)
(7.29763e-08 0 9.70821e-10)
(7.06818e-08 0 1.22983e-09)
(6.82622e-08 0 1.10059e-09)
(6.70473e-08 0 4.42577e-11)
(7.06452e-08 0 -3.65225e-09)
(9.01357e-08 0 -1.62581e-08)
(4.02414e-08 0 3.06289e-08)
(2.29776e-11 0 2.10297e-08)
(3.612e-14 0 -2.37597e-14)
(1.5228e-15 0 -1.16839e-18)
(3.04149e-15 0 3.70163e-18)
(3.02827e-15 0 8.05467e-18)
(3.00516e-15 0 1.22009e-17)
(2.97422e-15 0 1.62438e-17)
(2.93602e-15 0 2.01212e-17)
(2.89079e-15 0 2.38021e-17)
(2.83888e-15 0 2.72659e-17)
(2.7808e-15 0 3.04919e-17)
(2.71699e-15 0 3.34698e-17)
(2.64791e-15 0 3.61271e-17)
(2.57407e-15 0 3.85363e-17)
(2.49597e-15 0 4.06353e-17)
(2.41414e-15 0 4.24861e-17)
(2.32917e-15 0 4.40267e-17)
(2.24148e-15 0 4.52881e-17)
(2.15156e-15 0 4.63635e-17)
(2.05991e-15 0 4.71907e-17)
(1.96695e-15 0 4.78214e-17)
(1.87306e-15 0 4.82453e-17)
(1.77846e-15 0 4.85245e-17)
(1.68347e-15 0 4.86796e-17)
(1.58841e-15 0 4.86899e-17)
(1.49349e-15 0 4.86279e-17)
(1.39886e-15 0 4.84624e-17)
(1.30465e-15 0 4.82557e-17)
(1.21095e-15 0 4.79868e-17)
(1.11785e-15 0 4.76766e-17)
(1.02544e-15 0 4.73458e-17)
(9.3368e-16 0 4.70356e-17)
(8.42556e-16 0 4.67047e-17)
(7.52093e-16 0 4.63635e-17)
(6.6222e-16 0 4.60843e-17)
(5.72895e-16 0 4.58258e-17)
(4.84087e-16 0 4.55777e-17)
(3.95734e-16 0 4.53812e-17)
(3.07742e-16 0 4.52158e-17)
(2.19978e-16 0 4.51227e-17)
(1.32287e-16 0 4.51227e-17)
(4.42128e-17 0 4.54122e-17)
(-6.27567e-08 0 1.88305e-07)
(-1.88633e-07 0 1.87588e-07)
(-3.12713e-07 0 1.84919e-07)
(-4.34416e-07 0 1.80664e-07)
(-5.5277e-07 0 1.75007e-07)
(-6.66911e-07 0 1.68086e-07)
(-7.76041e-07 0 1.60019e-07)
(-8.79448e-07 0 1.50922e-07)
(-9.76494e-07 0 1.40942e-07)
(-1.06663e-06 0 1.30203e-07)
(-1.14941e-06 0 1.18858e-07)
(-1.22447e-06 0 1.07043e-07)
(-1.29154e-06 0 9.49045e-08)
(-1.35044e-06 0 8.25719e-08)
(-1.4011e-06 0 7.01766e-08)
(-1.4435e-06 0 5.78381e-08)
(-1.47773e-06 0 4.56562e-08)
(-1.50392e-06 0 3.37393e-08)
(-1.52229e-06 0 2.21145e-08)
(-1.53303e-06 0 1.09618e-08)
(-1.53668e-06 0 1.3081e-09)
(-1.53358e-06 0 -9.65594e-09)
(-1.52365e-06 0 -1.89472e-08)
(-1.5078e-06 0 -2.75196e-08)
(-1.48638e-06 0 -3.57786e-08)
(-1.45964e-06 0 -4.32609e-08)
(-1.42824e-06 0 -4.99554e-08)
(-1.3926e-06 0 -5.59778e-08)
(-1.35318e-06 0 -6.13102e-08)
(-1.31044e-06 0 -6.59739e-08)
(-1.26482e-06 0 -6.99852e-08)
(-1.21675e-06 0 -7.33634e-08)
(-1.16664e-06 0 -7.61274e-08)
(-1.1149e-06 0 -7.83165e-08)
(-1.0619e-06 0 -7.99571e-08)
(-1.00799e-06 0 -8.10822e-08)
(-9.53511e-07 0 -8.1723e-08)
(-8.98774e-07 0 -8.18915e-08)
(-8.44064e-07 0 -8.16817e-08)
(-7.89634e-07 0 -8.10715e-08)
(-7.35748e-07 0 -8.01054e-08)
(-6.82624e-07 0 -7.88218e-08)
(-6.30462e-07 0 -7.72459e-08)
(-5.79453e-07 0 -7.54053e-08)
(-5.29761e-07 0 -7.33209e-08)
(-4.81535e-07 0 -7.10368e-08)
(-4.34901e-07 0 -6.85607e-08)
(-3.89976e-07 0 -6.59238e-08)
(-3.46867e-07 0 -6.31461e-08)
(-3.05665e-07 0 -6.02371e-08)
(-2.66436e-07 0 -5.72362e-08)
(-2.29246e-07 0 -5.41368e-08)
(-1.94151e-07 0 -5.09692e-08)
(-1.61195e-07 0 -4.77441e-08)
(-1.30408e-07 0 -4.44804e-08)
(-1.01812e-07 0 -4.11874e-08)
(-7.5421e-08 0 -3.78766e-08)
(-5.12513e-08 0 -3.45582e-08)
(-2.92906e-08 0 -3.12595e-08)
(-9.536e-09 0 -2.79779e-08)
(8.04254e-09 0 -2.47358e-08)
(2.34626e-08 0 -2.15423e-08)
(3.67655e-08 0 -1.84177e-08)
(4.80022e-08 0 -1.53793e-08)
(5.72299e-08 0 -1.2426e-08)
(6.45229e-08 0 -9.61035e-09)
(6.99732e-08 0 -6.93186e-09)
(7.36783e-08 0 -4.41865e-09)
(7.57592e-08 0 -2.11122e-09)
(7.63487e-08 0 -2.12644e-11)
(7.56015e-08 0 1.77939e-09)
(7.36956e-08 0 3.23682e-09)
(7.08102e-08 0 4.20203e-09)
(6.70652e-08 0 4.35598e-09)
(6.22283e-08 0 2.89747e-09)
(5.46122e-08 0 -2.41376e-09)
(3.49074e-08 0 -1.77365e-08)
(2.27027e-08 0 6.40539e-08)
(1.57358e-11 0 5.14607e-08)
(3.02777e-14 0 -6.61512e-14)
(1.52768e-15 0 -3.26736e-18)
(3.0507e-15 0 1.04432e-17)
(3.03676e-15 0 2.35333e-17)
(3.01334e-15 0 3.62512e-17)
(2.98212e-15 0 4.86279e-17)
(2.94356e-15 0 6.04669e-17)
(2.89792e-15 0 7.17062e-17)
(2.84558e-15 0 8.22631e-17)
(2.78701e-15 0 9.20962e-17)
(2.72262e-15 0 1.01133e-16)
(2.65299e-15 0 1.0925e-16)
(2.57859e-15 0 1.16498e-16)
(2.49991e-15 0 1.22867e-16)
(2.41752e-15 0 1.28409e-16)
(2.33199e-15 0 1.33083e-16)
(2.24382e-15 0 1.36971e-16)
(2.15346e-15 0 1.40145e-16)
(2.06135e-15 0 1.42647e-16)
(1.968e-15 0 1.44529e-16)
(1.87376e-15 0 1.45842e-16)
(1.77888e-15 0 1.46659e-16)
(1.68362e-15 0 1.47093e-16)
(1.58835e-15 0 1.47176e-16)
(1.49325e-15 0 1.46959e-16)
(1.39848e-15 0 1.46483e-16)
(1.30418e-15 0 1.45811e-16)
(1.21037e-15 0 1.45025e-16)
(1.11721e-15 0 1.44105e-16)
(1.02478e-15 0 1.43133e-16)
(9.33029e-16 0 1.42141e-16)
(8.41884e-16 0 1.41148e-16)
(7.51473e-16 0 1.40176e-16)
(6.61683e-16 0 1.39246e-16)
(5.72388e-16 0 1.38418e-16)
(4.83632e-16 0 1.37674e-16)
(3.95372e-16 0 1.37054e-16)
(3.07484e-16 0 1.36526e-16)
(2.19875e-16 0 1.36164e-16)
(1.32576e-16 0 1.35978e-16)
(4.45023e-17 0 1.36175e-16)
(-6.38287e-08 0 3.15299e-07)
(-1.91707e-07 0 3.12766e-07)
(-3.17587e-07 0 3.0783e-07)
(-4.41029e-07 0 3.00569e-07)
(-5.61043e-07 0 2.91096e-07)
(-6.76738e-07 0 2.79557e-07)
(-7.87286e-07 0 2.6612e-07)
(-8.91948e-07 0 2.50989e-07)
(-9.9008e-07 0 2.34379e-07)
(-1.08113e-06 0 2.16512e-07)
(-1.16463e-06 0 1.97629e-07)
(-1.24023e-06 0 1.77956e-07)
(-1.30766e-06 0 1.57734e-07)
(-1.36675e-06 0 1.37182e-07)
(-1.41744e-06 0 1.16516e-07)
(-1.45972e-06 0 9.59337e-08)
(-1.49368e-06 0 7.56133e-08)
(-1.51946e-06 0 5.57094e-08)
(-1.53732e-06 0 3.6276e-08)
(-1.54746e-06 0 1.78878e-08)
(-1.55049e-06 0 1.34245e-09)
(-1.5465e-06 0 -1.67302e-08)
(-1.53579e-06 0 -3.22727e-08)
(-1.51908e-06 0 -4.65646e-08)
(-1.49673e-06 0 -6.04509e-08)
(-1.46905e-06 0 -7.2849e-08)
(-1.43673e-06 0 -8.40178e-08)
(-1.40017e-06 0 -9.40421e-08)
(-1.35985e-06 0 -1.02924e-07)
(-1.31622e-06 0 -1.10674e-07)
(-1.26974e-06 0 -1.17327e-07)
(-1.22084e-06 0 -1.22928e-07)
(-1.16994e-06 0 -1.27504e-07)
(-1.11745e-06 0 -1.31116e-07)
(-1.06374e-06 0 -1.33814e-07)
(-1.00916e-06 0 -1.35649e-07)
(-9.54061e-07 0 -1.36681e-07)
(-8.98743e-07 0 -1.36923e-07)
(-8.43494e-07 0 -1.36541e-07)
(-7.88577e-07 0 -1.35488e-07)
(-7.3424e-07 0 -1.33842e-07)
(-6.80705e-07 0 -1.31668e-07)
(-6.2818e-07 0 -1.29006e-07)
(-5.7684e-07 0 -1.2591e-07)
(-5.26848e-07 0 -1.22415e-07)
(-4.78354e-07 0 -1.18577e-07)
(-4.31488e-07 0 -1.1443e-07)
(-3.86364e-07 0 -1.10012e-07)
(-3.4308e-07 0 -1.05358e-07)
(-3.0172e-07 0 -1.00498e-07)
(-2.62364e-07 0 -9.54715e-08)
(-2.25073e-07 0 -9.0297e-08)
(-1.89895e-07 0 -8.50013e-08)
(-1.56871e-07 0 -7.96151e-08)
(-1.26034e-07 0 -7.41622e-08)
(-9.7412e-08 0 -6.86645e-08)
(-7.10091e-08 0 -6.31341e-08)
(-4.68427e-08 0 -5.75985e-08)
(-2.49051e-08 0 -5.20857e-08)
(-5.18816e-09 0 -4.66073e-08)
(1.233e-08 0 -4.11931e-08)
(2.76685e-08 0 -3.58571e-08)
(4.08735e-08 0 -3.06365e-08)
(5.19883e-08 0 -2.55549e-08)
(6.10662e-08 0 -2.06186e-08)
(6.81841e-08 0 -1.59071e-08)
(7.34231e-08 0 -1.14214e-08)
(7.68864e-08 0 -7.21364e-09)
(7.86861e-08 0 -3.32931e-09)
(7.89469e-08 0 1.94209e-10)
(7.78063e-08 0 3.28532e-09)
(7.53896e-08 0 5.86922e-09)
(7.17878e-08 0 7.85449e-09)
(6.69295e-08 0 9.08398e-09)
(6.02946e-08 0 9.36216e-09)
(5.02084e-08 0 8.70213e-09)
(3.17908e-08 0 8.6727e-09)
(1.72518e-08 0 6.8716e-08)
(1.29103e-11 0 6.66248e-08)
(2.98771e-14 0 -1.07865e-13)
(1.53652e-15 0 -5.33532e-18)
(3.06829e-15 0 1.69055e-17)
(3.05408e-15 0 3.88568e-17)
(3.03024e-15 0 6.04152e-17)
(2.99842e-15 0 8.13636e-17)
(2.95908e-15 0 1.01433e-16)
(2.9126e-15 0 1.20458e-16)
(2.85929e-15 0 1.38305e-16)
(2.79966e-15 0 1.54869e-16)
(2.73414e-15 0 1.70006e-16)
(2.66329e-15 0 1.83686e-16)
(2.58769e-15 0 1.95835e-16)
(2.50787e-15 0 2.06506e-16)
(2.42434e-15 0 2.15718e-16)
(2.33775e-15 0 2.23525e-16)
(2.24856e-15 0 2.30018e-16)
(2.15725e-15 0 2.3524e-16)
(2.0643e-15 0 2.39345e-16)
(1.97014e-15 0 2.42436e-16)
(1.87519e-15 0 2.44608e-16)
(1.77972e-15 0 2.45931e-16)
(1.68397e-15 0 2.46562e-16)
(1.58826e-15 0 2.46676e-16)
(1.49279e-15 0 2.46231e-16)
(1.39773e-15 0 2.45425e-16)
(1.3032e-15 0 2.44256e-16)
(1.20923e-15 0 2.42902e-16)
(1.11597e-15 0 2.4132e-16)
(1.02346e-15 0 2.39676e-16)
(9.31685e-16 0 2.3797e-16)
(8.40602e-16 0 2.36284e-16)
(7.50191e-16 0 2.3463e-16)
(6.60462e-16 0 2.33017e-16)
(5.71323e-16 0 2.3158e-16)
(4.82722e-16 0 2.30266e-16)
(3.94596e-16 0 2.2916e-16)
(3.06853e-16 0 2.28198e-16)
(2.1943e-16 0 2.27495e-16)
(1.32297e-16 0 2.26978e-16)
(4.43989e-17 0 2.26648e-16)
(-6.52707e-08 0 4.45154e-07)
(-1.96105e-07 0 4.41666e-07)
(-3.24894e-07 0 4.34718e-07)
(-4.51112e-07 0 4.24411e-07)
(-5.73731e-07 0 4.10942e-07)
(-6.91826e-07 0 3.94521e-07)
(-8.04545e-07 0 3.75395e-07)
(-9.11124e-07 0 3.53869e-07)
(-1.0109e-06 0 3.30253e-07)
(-1.10331e-06 0 3.04868e-07)
(-1.18789e-06 0 2.78058e-07)
(-1.26429e-06 0 2.50152e-07)
(-1.33224e-06 0 2.21484e-07)
(-1.3916e-06 0 1.92378e-07)
(-1.44229e-06 0 1.63126e-07)
(-1.48434e-06 0 1.3402e-07)
(-1.51785e-06 0 1.05311e-07)
(-1.543e-06 0 7.71978e-08)
(-1.56004e-06 0 4.97609e-08)
(-1.56928e-06 0 2.42228e-08)
(-1.57131e-06 0 2.63083e-10)
(-1.566e-06 0 -2.47889e-08)
(-1.55406e-06 0 -4.66405e-08)
(-1.53603e-06 0 -6.67086e-08)
(-1.51227e-06 0 -8.6343e-08)
(-1.48318e-06 0 -1.0359e-07)
(-1.44948e-06 0 -1.19243e-07)
(-1.41152e-06 0 -1.33261e-07)
(-1.36983e-06 0 -1.45669e-07)
(-1.32486e-06 0 -1.56475e-07)
(-1.27707e-06 0 -1.65739e-07)
(-1.22693e-06 0 -1.73513e-07)
(-1.17484e-06 0 -1.79856e-07)
(-1.12121e-06 0 -1.84841e-07)
(-1.06644e-06 0 -1.88541e-07)
(-1.01086e-06 0 -1.9103e-07)
(-9.54824e-07 0 -1.92399e-07)
(-8.98644e-07 0 -1.9266e-07)
(-8.42588e-07 0 -1.92053e-07)
(-7.86936e-07 0 -1.90495e-07)
(-7.31928e-07 0 -1.88129e-07)
(-6.77782e-07 0 -1.85007e-07)
(-6.24702e-07 0 -1.81215e-07)
(-5.72865e-07 0 -1.76815e-07)
(-5.22433e-07 0 -1.7187e-07)
(-4.73544e-07 0 -1.66435e-07)
(-4.26328e-07 0 -1.60578e-07)
(-3.80901e-07 0 -1.54338e-07)
(-3.37357e-07 0 -1.47778e-07)
(-2.95776e-07 0 -1.40936e-07)
(-2.5623e-07 0 -1.33852e-07)
(-2.18784e-07 0 -1.26571e-07)
(-1.83479e-07 0 -1.19128e-07)
(-1.50357e-07 0 -1.11554e-07)
(-1.19451e-07 0 -1.03886e-07)
(-9.07843e-08 0 -9.61571e-08)
(-6.43654e-08 0 -8.83853e-08)
(-4.02058e-08 0 -8.06086e-08)
(-1.83022e-08 0 -7.28568e-08)
(1.35715e-09 0 -6.51582e-08)
(1.87875e-08 0 -5.7542e-08)
(3.40181e-08 0 -5.0035e-08)
(4.70662e-08 0 -4.2687e-08)
(5.79989e-08 0 -3.55274e-08)
(6.68593e-08 0 -2.85777e-08)
(7.37204e-08 0 -2.19251e-08)
(7.86571e-08 0 -1.55886e-08)
(8.17697e-08 0 -9.64168e-09)
(8.31628e-08 0 -4.11866e-09)
(8.29529e-08 0 8.91758e-10)
(8.12805e-08 0 5.35196e-09)
(7.82689e-08 0 9.17381e-09)
(7.40218e-08 0 1.23301e-08)
(6.85807e-08 0 1.48297e-08)
(6.18657e-08 0 1.68832e-08)
(5.38817e-08 0 1.92703e-08)
(4.56314e-08 0 2.43244e-08)
(1.48837e-08 0 8.78973e-08)
(1.09224e-11 0 7.85377e-08)
(2.97059e-14 0 -1.53687e-13)
(1.54991e-15 0 -7.5687e-18)
(3.09491e-15 0 2.38642e-17)
(3.08028e-15 0 5.49765e-17)
(3.05584e-15 0 8.54995e-17)
(3.02315e-15 0 1.15123e-16)
(2.98267e-15 0 1.43568e-16)
(2.93481e-15 0 1.70503e-16)
(2.88001e-15 0 1.95701e-16)
(2.8187e-15 0 2.19017e-16)
(2.75144e-15 0 2.40286e-16)
(2.67881e-15 0 2.59476e-16)
(2.60141e-15 0 2.76547e-16)
(2.5198e-15 0 2.91436e-16)
(2.43454e-15 0 3.04278e-16)
(2.34629e-15 0 3.15125e-16)
(2.25554e-15 0 3.24069e-16)
(2.1628e-15 0 3.31286e-16)
(2.06856e-15 0 3.36869e-16)
(1.97325e-15 0 3.41036e-16)
(1.87726e-15 0 3.43921e-16)
(1.78086e-15 0 3.45637e-16)
(1.68436e-15 0 3.46403e-16)
(1.58801e-15 0 3.46341e-16)
(1.49202e-15 0 3.45565e-16)
(1.39652e-15 0 3.44293e-16)
(1.30165e-15 0 3.42567e-16)
(1.20744e-15 0 3.40509e-16)
(1.11401e-15 0 3.38234e-16)
(1.02143e-15 0 3.35784e-16)
(9.29637e-16 0 3.33312e-16)
(8.38554e-16 0 3.30841e-16)
(7.48206e-16 0 3.28422e-16)
(6.58632e-16 0 3.26126e-16)
(5.69648e-16 0 3.23986e-16)
(4.81233e-16 0 3.22073e-16)
(3.93314e-16 0 3.20398e-16)
(3.05819e-16 0 3.18961e-16)
(2.18665e-16 0 3.17875e-16)
(1.31718e-16 0 3.17058e-16)
(4.41508e-17 0 3.1651e-16)
(-6.7269e-08 0 5.78361e-07)
(-2.02128e-07 0 5.73754e-07)
(-3.34832e-07 0 5.64612e-07)
(-4.64807e-07 0 5.51075e-07)
(-5.90953e-07 0 5.33394e-07)
(-7.12293e-07 0 5.1185e-07)
(-8.2794e-07 0 4.86773e-07)
(-9.37101e-07 0 4.58566e-07)
(-1.03909e-06 0 4.27644e-07)
(-1.13332e-06 0 3.94437e-07)
(-1.21935e-06 0 3.59394e-07)
(-1.2968e-06 0 3.22955e-07)
(-1.36543e-06 0 2.85548e-07)
(-1.4251e-06 0 2.47608e-07)
(-1.47578e-06 0 2.09509e-07)
(-1.5175e-06 0 1.71637e-07)
(-1.55038e-06 0 1.34305e-07)
(-1.57463e-06 0 9.77762e-08)
(-1.59054e-06 0 6.21608e-08)
(-1.59861e-06 0 2.94481e-08)
(-1.59925e-06 0 -2.27328e-09)
(-1.5921e-06 0 -3.42683e-08)
(-1.5785e-06 0 -6.24458e-08)
(-1.55866e-06 0 -8.85349e-08)
(-1.53299e-06 0 -1.13896e-07)
(-1.50206e-06 0 -1.35972e-07)
(-1.46646e-06 0 -1.56112e-07)
(-1.42662e-06 0 -1.74114e-07)
(-1.38308e-06 0 -1.90003e-07)
(-1.3363e-06 0 -2.03826e-07)
(-1.28678e-06 0 -2.15645e-07)
(-1.23495e-06 0 -2.2553e-07)
(-1.18127e-06 0 -2.33568e-07)
(-1.12613e-06 0 -2.39848e-07)
(-1.06993e-06 0 -2.44474e-07)
(-1.01301e-06 0 -2.47546e-07)
(-9.55738e-07 0 -2.49149e-07)
(-8.98406e-07 0 -2.49381e-07)
(-8.41279e-07 0 -2.4846e-07)
(-7.84649e-07 0 -2.46323e-07)
(-7.28752e-07 0 -2.43154e-07)
(-6.73799e-07 0 -2.39024e-07)
(-6.19983e-07 0 -2.34034e-07)
(-5.67487e-07 0 -2.28263e-07)
(-5.16466e-07 0 -2.21806e-07)
(-4.67061e-07 0 -2.14724e-07)
(-4.19392e-07 0 -2.071e-07)
(-3.73564e-07 0 -1.98993e-07)
(-3.29669e-07 0 -1.90482e-07)
(-2.87794e-07 0 -1.81609e-07)
(-2.48001e-07 0 -1.72437e-07)
(-2.10345e-07 0 -1.63008e-07)
(-1.74877e-07 0 -1.53383e-07)
(-1.41628e-07 0 -1.43591e-07)
(-1.10631e-07 0 -1.33677e-07)
(-8.19059e-08 0 -1.23687e-07)
(-5.5465e-08 0 -1.1365e-07)
(-3.13042e-08 0 -1.03597e-07)
(-9.44984e-09 0 -9.358e-08)
(1.01311e-08 0 -8.36281e-08)
(2.74454e-08 0 -7.37821e-08)
(4.25212e-08 0 -6.40649e-08)
(5.5378e-08 0 -5.45534e-08)
(6.60748e-08 0 -4.52811e-08)
(7.46538e-08 0 -3.62677e-08)
(8.11688e-08 0 -2.76279e-08)
(8.57086e-08 0 -1.93884e-08)
(8.83594e-08 0 -1.16448e-08)
(8.92254e-08 0 -4.42176e-09)
(8.84233e-08 0 2.15304e-09)
(8.60841e-08 0 8.03051e-09)
(8.23679e-08 0 1.31407e-08)
(7.74434e-08 0 1.74459e-08)
(7.15024e-08 0 2.1003e-08)
(6.47694e-08 0 2.40671e-08)
(5.76579e-08 0 2.72092e-08)
(4.98597e-08 0 3.2175e-08)
(1.44823e-08 0 1.20816e-07)
(7.54356e-12 0 9.14543e-08)
(3.11162e-14 0 -2.01949e-13)
(1.56792e-15 0 -9.84345e-18)
(3.13083e-15 0 3.1133e-17)
(3.11571e-15 0 7.17786e-17)
(3.09039e-15 0 1.11597e-16)
(3.05649e-15 0 1.50247e-16)
(3.01447e-15 0 1.87284e-16)
(2.96473e-15 0 2.22315e-16)
(2.90781e-15 0 2.5503e-16)
(2.84424e-15 0 2.85212e-16)
(2.77459e-15 0 3.12747e-16)
(2.69954e-15 0 3.37469e-16)
(2.61965e-15 0 3.59379e-16)
(2.53559e-15 0 3.78456e-16)
(2.44802e-15 0 3.94824e-16)
(2.35754e-15 0 4.08617e-16)
(2.26471e-15 0 4.19908e-16)
(2.17005e-15 0 4.28955e-16)
(2.07404e-15 0 4.35893e-16)
(1.97718e-15 0 4.4097e-16)
(1.87979e-15 0 4.44372e-16)
(1.78218e-15 0 4.46326e-16)
(1.68465e-15 0 4.4705e-16)
(1.58742e-15 0 4.46698e-16)
(1.49076e-15 0 4.45447e-16)
(1.39471e-15 0 4.43534e-16)
(1.29941e-15 0 4.41084e-16)
(1.20491e-15 0 4.38189e-16)
(1.11124e-15 0 4.35087e-16)
(1.01854e-15 0 4.31778e-16)
(9.26732e-16 0 4.28366e-16)
(8.35701e-16 0 4.24985e-16)
(7.45466e-16 0 4.21728e-16)
(6.56027e-16 0 4.18605e-16)
(5.6727e-16 0 4.15669e-16)
(4.79124e-16 0 4.13063e-16)
(3.91484e-16 0 4.10768e-16)
(3.0432e-16 0 4.08824e-16)
(2.17518e-16 0 4.07273e-16)
(1.30943e-16 0 4.06125e-16)
(4.38613e-17 0 4.05422e-16)
(-6.98379e-08 0 7.16172e-07)
(-2.09864e-07 0 7.10365e-07)
(-3.47568e-07 0 6.98871e-07)
(-4.82331e-07 0 6.81879e-07)
(-6.12973e-07 0 6.59691e-07)
(-7.38449e-07 0 6.32677e-07)
(-8.57817e-07 0 6.01268e-07)
(-9.70247e-07 0 5.65968e-07)
(-1.07502e-06 0 5.27308e-07)
(-1.17156e-06 0 4.85837e-07)
(-1.25937e-06 0 4.42126e-07)
(-1.33812e-06 0 3.96708e-07)
(-1.40758e-06 0 3.50152e-07)
(-1.46762e-06 0 3.02979e-07)
(-1.51823e-06 0 2.55663e-07)
(-1.55948e-06 0 2.08677e-07)
(-1.59152e-06 0 1.62424e-07)
(-1.61456e-06 0 1.17137e-07)
(-1.62913e-06 0 7.30477e-08)
(-1.63569e-06 0 3.37818e-08)
(-1.63436e-06 0 -7.18386e-09)
(-1.62493e-06 0 -4.55885e-08)
(-1.60922e-06 0 -8.02304e-08)
(-1.58706e-06 0 -1.12652e-07)
(-1.55896e-06 0 -1.43403e-07)
(-1.52568e-06 0 -1.70516e-07)
(-1.48766e-06 0 -1.95126e-07)
(-1.44544e-06 0 -2.17077e-07)
(-1.39956e-06 0 -2.36407e-07)
(-1.35051e-06 0 -2.53185e-07)
(-1.29878e-06 0 -2.67487e-07)
(-1.24485e-06 0 -2.79389e-07)
(-1.18916e-06 0 -2.89033e-07)
(-1.13212e-06 0 -2.96515e-07)
(-1.07413e-06 0 -3.01961e-07)
(-1.01554e-06 0 -3.0551e-07)
(-9.56718e-07 0 -3.07232e-07)
(-8.97939e-07 0 -3.07368e-07)
(-8.3948e-07 0 -3.06006e-07)
(-7.81635e-07 0 -3.032e-07)
(-7.24628e-07 0 -2.99127e-07)
(-6.68668e-07 0 -2.93904e-07)
(-6.13948e-07 0 -2.87628e-07)
(-5.60639e-07 0 -2.80408e-07)
(-5.08893e-07 0 -2.72356e-07)
(-4.58846e-07 0 -2.63554e-07)
(-4.1061e-07 0 -2.54097e-07)
(-3.64289e-07 0 -2.44066e-07)
(-3.19973e-07 0 -2.33537e-07)
(-2.77737e-07 0 -2.2258e-07)
(-2.37639e-07 0 -2.1127e-07)
(-1.99733e-07 0 -1.99653e-07)
(-1.64058e-07 0 -1.87799e-07)
(-1.30652e-07 0 -1.7575e-07)
(-9.9541e-08 0 -1.6355e-07)
(-7.07452e-08 0 -1.51262e-07)
(-4.42777e-08 0 -1.3892e-07)
(-2.01345e-08 0 -1.26559e-07)
(1.67768e-09 0 -1.14236e-07)
(2.11625e-08 0 -1.0199e-07)
(3.83369e-08 0 -8.98726e-08)
(5.32273e-08 0 -7.79129e-08)
(6.58652e-08 0 -6.61786e-08)
(7.62604e-08 0 -5.47382e-08)
(8.4487e-08 0 -4.36205e-08)
(9.05968e-08 0 -3.2913e-08)
(9.46498e-08 0 -2.27188e-08)
(9.67395e-08 0 -1.30776e-08)
(9.69517e-08 0 -4.1161e-09)
(9.54155e-08 0 4.11414e-09)
(9.22671e-08 0 1.1487e-08)
(8.76817e-08 0 1.791e-08)
(8.18891e-08 0 2.33104e-08)
(7.52082e-08 0 2.76713e-08)
(6.80778e-08 0 3.11534e-08)
(6.11356e-08 0 3.41395e-08)
(5.06628e-08 0 4.33207e-08)
(1.19217e-08 0 1.57683e-07)
(4.7171e-12 0 1.00886e-07)
(3.23834e-14 0 -2.54582e-13)
(1.59088e-15 0 -1.22733e-17)
(3.17654e-15 0 3.87741e-17)
(3.16075e-15 0 8.94182e-17)
(3.1343e-15 0 1.39018e-16)
(3.09883e-15 0 1.87108e-16)
(3.05476e-15 0 2.33079e-16)
(3.00255e-15 0 2.76495e-16)
(2.94289e-15 0 3.16986e-16)
(2.87642e-15 0 3.54209e-16)
(2.80369e-15 0 3.88051e-16)
(2.72544e-15 0 4.18367e-16)
(2.64239e-15 0 4.45085e-16)
(2.55524e-15 0 4.68298e-16)
(2.46471e-15 0 4.88078e-16)
(2.37138e-15 0 5.04632e-16)
(2.27588e-15 0 5.18094e-16)
(2.17877e-15 0 5.28765e-16)
(2.08058e-15 0 5.36871e-16)
(1.98175e-15 0 5.42641e-16)
(1.88262e-15 0 5.46332e-16)
(1.78354e-15 0 5.48328e-16)
(1.68473e-15 0 5.48752e-16)
(1.5864e-15 0 5.47945e-16)
(1.48885e-15 0 5.46074e-16)
(1.39216e-15 0 5.43334e-16)
(1.2963e-15 0 5.39963e-16)
(1.20144e-15 0 5.36085e-16)
(1.10759e-15 0 5.31908e-16)
(1.01471e-15 0 5.27555e-16)
(9.22854e-16 0 5.23099e-16)
(8.31916e-16 0 5.18663e-16)
(7.41826e-16 0 5.14403e-16)
(6.52594e-16 0 5.10329e-16)
(5.64096e-16 0 5.06545e-16)
(4.76301e-16 0 5.03102e-16)
(3.89064e-16 0 5.00082e-16)
(3.02314e-16 0 4.9756e-16)
(2.15956e-16 0 4.95502e-16)
(1.29867e-16 0 4.94003e-16)
(4.34477e-17 0 4.93041e-16)
(-7.30142e-08 0 8.59784e-07)
(-2.19427e-07 0 8.5268e-07)
(-3.6331e-07 0 8.38636e-07)
(-5.03982e-07 0 8.17897e-07)
(-6.40159e-07 0 7.90825e-07)
(-7.70713e-07 0 7.57902e-07)
(-8.94641e-07 0 7.19663e-07)
(-1.01106e-06 0 6.76739e-07)
(-1.11922e-06 0 6.29788e-07)
(-1.21851e-06 0 5.79489e-07)
(-1.30847e-06 0 5.26543e-07)
(-1.38875e-06 0 4.71612e-07)
(-1.45914e-06 0 4.1538e-07)
(-1.51956e-06 0 3.58475e-07)
(-1.57002e-06 0 3.01487e-07)
(-1.61065e-06 0 2.44963e-07)
(-1.64158e-06 0 1.89366e-07)
(-1.66313e-06 0 1.34827e-07)
(-1.67614e-06 0 8.30386e-08)
(-1.68067e-06 0 3.60938e-08)
(-1.67653e-06 0 -1.50046e-08)
(-1.66474e-06 0 -5.92846e-08)
(-1.64634e-06 0 -1.00468e-07)
(-1.62128e-06 0 -1.39504e-07)
(-1.59019e-06 0 -1.75539e-07)
(-1.55402e-06 0 -2.07736e-07)
(-1.51307e-06 0 -2.36797e-07)
(-1.46795e-06 0 -2.62667e-07)
(-1.41921e-06 0 -2.85377e-07)
(-1.36738e-06 0 -3.05025e-07)
(-1.31299e-06 0 -3.21704e-07)
(-1.25651e-06 0 -3.35529e-07)
(-1.19839e-06 0 -3.46655e-07)
(-1.13906e-06 0 -3.55209e-07)
(-1.07892e-06 0 -3.61353e-07)
(-1.01833e-06 0 -3.65247e-07)
(-9.57636e-07 0 -3.66962e-07)
(-8.97125e-07 0 -3.66871e-07)
(-8.3708e-07 0 -3.64946e-07)
(-7.77786e-07 0 -3.61347e-07)
(-7.19451e-07 0 -3.56266e-07)
(-6.62289e-07 0 -3.49827e-07)
(-6.06492e-07 0 -3.42156e-07)
(-5.52219e-07 0 -3.33391e-07)
(-4.99612e-07 0 -3.23652e-07)
(-4.48804e-07 0 -3.13037e-07)
(-3.99903e-07 0 -3.01669e-07)
(-3.53006e-07 0 -2.8963e-07)
(-3.08192e-07 0 -2.77017e-07)
(-2.65528e-07 0 -2.63915e-07)
(-2.25071e-07 0 -2.50403e-07)
(-1.86873e-07 0 -2.36542e-07)
(-1.50968e-07 0 -2.22405e-07)
(-1.17386e-07 0 -2.08049e-07)
(-8.61476e-08 0 -1.93521e-07)
(-5.72677e-08 0 -1.7889e-07)
(-3.07622e-08 0 -1.64198e-07)
(-6.63522e-09 0 -1.49489e-07)
(1.51233e-08 0 -1.34815e-07)
(3.45022e-08 0 -1.20225e-07)
(5.15189e-08 0 -1.05788e-07)
(6.61935e-08 0 -9.15345e-08)
(7.8553e-08 0 -7.7532e-08)
(8.86231e-08 0 -6.38564e-08)
(9.64436e-08 0 -5.05462e-08)
(1.02068e-07 0 -3.77085e-08)
(1.05551e-07 0 -2.54801e-08)
(1.06978e-07 0 -1.38773e-08)
(1.06428e-07 0 -3.02976e-09)
(1.04014e-07 0 6.93459e-09)
(9.98766e-08 0 1.58918e-08)
(9.4194e-08 0 2.37021e-08)
(8.72159e-08 0 3.02092e-08)
(7.93557e-08 0 3.52273e-08)
(7.12821e-08 0 3.86707e-08)
(6.39081e-08 0 4.08619e-08)
(3.50476e-08 0 7.53124e-08)
(1.22453e-08 0 1.90118e-07)
(9.78111e-13 0 1.06785e-07)
(3.36618e-14 0 -3.10445e-13)
(1.619e-15 0 -1.48582e-17)
(3.23253e-15 0 4.69425e-17)
(3.21594e-15 0 1.08216e-16)
(3.18806e-15 0 1.68187e-16)
(3.15056e-15 0 2.26182e-16)
(3.10387e-15 0 2.81562e-16)
(3.04862e-15 0 3.33726e-16)
(2.98551e-15 0 3.82271e-16)
(2.91533e-15 0 4.26763e-16)
(2.83876e-15 0 4.67016e-16)
(2.75656e-15 0 5.02916e-16)
(2.66959e-15 0 5.34421e-16)
(2.5786e-15 0 5.61625e-16)
(2.48436e-15 0 5.84713e-16)
(2.38756e-15 0 6.03811e-16)
(2.28883e-15 0 6.19217e-16)
(2.18881e-15 0 6.31232e-16)
(2.08792e-15 0 6.40196e-16)
(1.98665e-15 0 6.4638e-16)
(1.88549e-15 0 6.50164e-16)
(1.78461e-15 0 6.51891e-16)
(1.68426e-15 0 6.51777e-16)
(1.58473e-15 0 6.50216e-16)
(1.48615e-15 0 6.47465e-16)
(1.38861e-15 0 6.4365e-16)
(1.29215e-15 0 6.39132e-16)
(1.19685e-15 0 6.34075e-16)
(1.1027e-15 0 6.28657e-16)
(1.00972e-15 0 6.23012e-16)
(9.1785e-16 0 6.17304e-16)
(8.27005e-16 0 6.11669e-16)
(7.37132e-16 0 6.0622e-16)
(6.48179e-16 0 6.01061e-16)
(5.60043e-16 0 5.96273e-16)
(4.72661e-16 0 5.9192e-16)
(3.85952e-16 0 5.88074e-16)
(2.9976e-16 0 5.84848e-16)
(2.13971e-16 0 5.82263e-16)
(1.28482e-16 0 5.80329e-16)
(4.28997e-17 0 5.79037e-16)
(-7.68569e-08 0 1.01048e-06)
(-2.31002e-07 0 1.00196e-06)
(-3.82348e-07 0 9.85107e-07)
(-5.30138e-07 0 9.60246e-07)
(-6.72967e-07 0 9.27822e-07)
(-8.09605e-07 0 8.88437e-07)
(-9.38972e-07 0 8.42757e-07)
(-1.06012e-06 0 7.91544e-07)
(-1.17227e-06 0 7.35612e-07)
(-1.2748e-06 0 6.75801e-07)
(-1.36723e-06 0 6.12932e-07)
(-1.44926e-06 0 5.47822e-07)
(-1.52068e-06 0 4.81277e-07)
(-1.58146e-06 0 4.14046e-07)
(-1.63167e-06 0 3.46827e-07)
(-1.67144e-06 0 2.80263e-07)
(-1.70091e-06 0 2.1486e-07)
(-1.72072e-06 0 1.50567e-07)
(-1.7319e-06 0 9.1359e-08)
(-1.73378e-06 0 3.3935e-08)
(-1.72611e-06 0 -2.39971e-08)
(-1.71164e-06 0 -7.57832e-08)
(-1.68986e-06 0 -1.23579e-07)
(-1.66133e-06 0 -1.69933e-07)
(-1.62681e-06 0 -2.1086e-07)
(-1.58711e-06 0 -2.4817e-07)
(-1.54265e-06 0 -2.81682e-07)
(-1.49406e-06 0 -3.1141e-07)
(-1.44194e-06 0 -3.37425e-07)
(-1.38684e-06 0 -3.5983e-07)
(-1.3293e-06 0 -3.78766e-07)
(-1.26981e-06 0 -3.94378e-07)
(-1.20884e-06 0 -4.06839e-07)
(-1.14682e-06 0 -4.16314e-07)
(-1.08416e-06 0 -4.23001e-07)
(-1.02123e-06 0 -4.27078e-07)
(-9.58363e-07 0 -4.28638e-07)
(-8.95822e-07 0 -4.28165e-07)
(-8.33945e-07 0 -4.25519e-07)
(-7.72965e-07 0 -4.20988e-07)
(-7.13103e-07 0 -4.14756e-07)
(-6.54563e-07 0 -4.06972e-07)
(-5.9752e-07 0 -3.9778e-07)
(-5.42131e-07 0 -3.87353e-07)
(-4.88539e-07 0 -3.7581e-07)
(-4.3686e-07 0 -3.63284e-07)
(-3.87198e-07 0 -3.49898e-07)
(-3.39639e-07 0 -3.35766e-07)
(-2.94259e-07 0 -3.20986e-07)
(-2.51116e-07 0 -3.05663e-07)
(-2.1026e-07 0 -2.89876e-07)
(-1.71729e-07 0 -2.73705e-07)
(-1.35556e-07 0 -2.57229e-07)
(-1.01771e-07 0 -2.40508e-07)
(-7.03863e-08 0 -2.23603e-07)
(-4.14165e-08 0 -2.06578e-07)
(-1.4872e-08 0 -1.89488e-07)
(9.24287e-09 0 -1.72376e-07)
(3.09275e-08 0 -1.55311e-07)
(5.01948e-08 0 -1.38331e-07)
(6.70483e-08 0 -1.21501e-07)
(8.14832e-08 0 -1.04897e-07)
(9.35397e-08 0 -8.85594e-08)
(1.03235e-07 0 -7.25606e-08)
(1.10588e-07 0 -5.70118e-08)
(1.1567e-07 0 -4.19756e-08)
(1.18512e-07 0 -2.75721e-08)
(1.19178e-07 0 -1.38971e-08)
(1.17755e-07 0 -1.074e-09)
(1.14339e-07 0 1.07592e-08)
(1.09038e-07 0 2.14455e-08)
(1.01997e-07 0 3.08051e-08)
(9.34157e-08 0 3.85921e-08)
(8.36801e-08 0 4.43698e-08)
(7.3838e-08 0 4.73784e-08)
(6.72852e-08 0 4.59797e-08)
(2.52734e-08 0 1.30452e-07)
(1.27009e-08 0 1.61633e-07)
(-3.01368e-12 0 1.1534e-07)
(3.53173e-14 0 -3.70808e-13)
(1.65269e-15 0 -1.76293e-17)
(3.29959e-15 0 5.58037e-17)
(3.28198e-15 0 1.28461e-16)
(3.25228e-15 0 1.99516e-16)
(3.21221e-15 0 2.68089e-16)
(3.16229e-15 0 3.33416e-16)
(3.10325e-15 0 3.94762e-16)
(3.03593e-15 0 4.51651e-16)
(2.96118e-15 0 5.03639e-16)
(2.87986e-15 0 5.50447e-16)
(2.79283e-15 0 5.91941e-16)
(2.7011e-15 0 6.28161e-16)
(2.60553e-15 0 6.59242e-16)
(2.50687e-15 0 6.8535e-16)
(2.40588e-15 0 7.06754e-16)
(2.30329e-15 0 7.23824e-16)
(2.19975e-15 0 7.36863e-16)
(2.09571e-15 0 7.46334e-16)
(1.99171e-15 0 7.52631e-16)
(1.88813e-15 0 7.56136e-16)
(1.78514e-15 0 7.57232e-16)
(1.68304e-15 0 7.56281e-16)
(1.58209e-15 0 7.53644e-16)
(1.4823e-15 0 7.49664e-16)
(1.38383e-15 0 7.44514e-16)
(1.28673e-15 0 7.3859e-16)
(1.19096e-15 0 7.32065e-16)
(1.09651e-15 0 7.25148e-16)
(1.00337e-15 0 7.18024e-16)
(9.11522e-16 0 7.10827e-16)
(8.20832e-16 0 7.03765e-16)
(7.31217e-16 0 6.96972e-16)
(6.42626e-16 0 6.9053e-16)
(5.54945e-16 0 6.84544e-16)
(4.68102e-16 0 6.79157e-16)
(3.82002e-16 0 6.7438e-16)
(2.96513e-16 0 6.70327e-16)
(2.11427e-16 0 6.67059e-16)
(1.26641e-16 0 6.6464e-16)
(4.21655e-17 0 6.63089e-16)
(-8.14356e-08 0 1.16969e-06)
(-2.44791e-07 0 1.15958e-06)
(-4.05015e-07 0 1.13961e-06)
(-5.61261e-07 0 1.11016e-06)
(-7.11964e-07 0 1.0718e-06)
(-8.55778e-07 0 1.02527e-06)
(-9.91518e-07 0 9.71386e-07)
(-1.11819e-06 0 9.11073e-07)
(-1.23495e-06 0 8.45339e-07)
(-1.34119e-06 0 7.75156e-07)
(-1.43642e-06 0 7.01557e-07)
(-1.52037e-06 0 6.25462e-07)
(-1.59287e-06 0 5.47862e-07)
(-1.65394e-06 0 4.69591e-07)
(-1.70371e-06 0 3.91486e-07)
(-1.7423e-06 0 3.14325e-07)
(-1.77007e-06 0 2.38176e-07)
(-1.78827e-06 0 1.6394e-07)
(-1.79635e-06 0 1.00191e-07)
(-1.79475e-06 0 2.62854e-08)
(-1.78385e-06 0 -3.64776e-08)
(-1.76577e-06 0 -9.57298e-08)
(-1.73996e-06 0 -1.51086e-07)
(-1.7073e-06 0 -2.03452e-07)
(-1.66881e-06 0 -2.50081e-07)
(-1.62493e-06 0 -2.92443e-07)
(-1.57636e-06 0 -3.30362e-07)
(-1.52372e-06 0 -3.63867e-07)
(-1.46765e-06 0 -3.93074e-07)
(-1.40875e-06 0 -4.18113e-07)
(-1.34755e-06 0 -4.39152e-07)
(-1.28459e-06 0 -4.56378e-07)
(-1.22033e-06 0 -4.69996e-07)
(-1.15523e-06 0 -4.80209e-07)
(-1.08969e-06 0 -4.87255e-07)
(-1.02409e-06 0 -4.91254e-07)
(-9.58713e-07 0 -4.92649e-07)
(-8.93886e-07 0 -4.91483e-07)
(-8.29921e-07 0 -4.87973e-07)
(-7.6703e-07 0 -4.82343e-07)
(-7.05432e-07 0 -4.74792e-07)
(-6.45325e-07 0 -4.65511e-07)
(-5.86877e-07 0 -4.54657e-07)
(-5.3024e-07 0 -4.42423e-07)
(-4.75542e-07 0 -4.28951e-07)
(-4.22893e-07 0 -4.14384e-07)
(-3.72385e-07 0 -3.98878e-07)
(-3.24097e-07 0 -3.82543e-07)
(-2.78089e-07 0 -3.65503e-07)
(-2.34417e-07 0 -3.47868e-07)
(-1.9312e-07 0 -3.29732e-07)
(-1.54228e-07 0 -3.1118e-07)
(-1.17772e-07 0 -2.92291e-07)
(-8.37653e-08 0 -2.73149e-07)
(-5.22206e-08 0 -2.53806e-07)
(-2.31501e-08 0 -2.34333e-07)
(3.43736e-09 0 -2.14791e-07)
(2.7544e-08 0 -1.95226e-07)