/*--------------------------------*- C++ -*----------------------------------*\
  =========                 |
  \\      /  F ield         | OpenFOAM: The Open Source CFD Toolbox
   \\    /   O peration     | Website:  https://openfoam.org
    \\  /    A nd           | Version:  6
     \\/     M anipulation  |
\*---------------------------------------------------------------------------*/
FoamFile
{
    version     2.0;
    format      ascii;
    class       volScalarField;
    location    "200";
    object      T;
}
// * * * * * * * * * * * * * * * * * * * * * * * * * * * * * * * * * * * * * //

dimensions      [0 0 0 1 0 0 0];

internalField   nonuniform List<scalar> 
4800
(
552.506
552.419
552.331
552.243
552.155
552.067
551.978
551.889
551.8
551.71
551.62
551.53
551.439
551.347
551.255
551.162
551.069
550.975
550.88
550.785
550.688
550.592
550.494
550.396
550.297
550.198
550.098
549.997
549.896
549.794
549.691
549.588
549.484
549.38
549.275
549.17
549.064
548.958
548.852
548.745
548.638
548.531
548.423
548.316
548.208
548.1
547.992
547.884
547.776
547.668
547.56
547.452
547.345
547.237
547.13
547.023
546.916
546.809
546.703
546.597
546.491
546.386
546.281
546.176
546.072
545.968
545.864
545.761
545.658
545.555
545.453
545.351
545.249
545.147
545.046
544.945
544.844
544.743
544.643
544.542
544.431
544.319
544.208
544.097
543.987
543.877
543.767
543.658
543.55
543.442
543.335
543.229
543.124
543.019
542.915
542.812
542.71
542.609
542.509
542.41
542.312
542.215
542.118
542.023
541.929
541.835
541.742
541.651
541.559
541.469
541.379
541.29
541.202
541.114
541.026
540.939
540.852
540.766
540.679
540.593
552.506
552.419
552.331
552.243
552.155
552.067
551.978
551.889
551.8
551.711
551.621
551.53
551.439
551.347
551.255
551.162
551.069
550.975
550.88
550.785
550.689
550.592
550.494
550.396
550.298
550.198
550.098
549.997
549.896
549.794
549.691
549.588
549.484
549.38
549.275
549.17
549.064
548.958
548.852
548.745
548.638
548.531
548.423
548.316
548.208
548.1
547.992
547.884
547.776
547.668
547.56
547.452
547.345
547.237
547.13
547.023
546.916
546.809
546.703
546.597
546.491
546.386
546.281
546.176
546.072
545.968
545.864
545.761
545.658
545.555
545.453
545.351
545.249
545.147
545.046
544.945
544.844
544.743
544.642
544.542
544.43
544.319
544.208
544.097
543.987
543.877
543.767
543.658
543.55
543.442
543.335
543.229
543.123
543.019
542.915
542.812
542.71
542.609
542.509
542.41
542.312
542.215
542.118
542.023
541.929
541.835
541.742
541.65
541.559
541.469
541.379
541.29
541.202
541.114
541.026
540.939
540.852
540.766
540.679
540.593
552.506
552.419
552.331
552.243
552.155
552.067
551.978
551.889
551.8
551.711
551.621
551.53
551.439
551.347
551.255
551.162
551.069
550.975
550.88
550.785
550.689
550.592
550.495
550.396
550.298
550.198
550.098
549.997
549.896
549.794
549.691
549.588
549.484
549.38
549.275
549.17
549.064
548.958
548.852
548.745
548.638
548.531
548.423
548.316
548.208
548.1
547.992
547.884
547.776
547.668
547.56
547.452
547.345
547.237
547.13
547.023
546.916
546.809
546.703
546.597
546.491
546.386
546.281
546.176
546.072
545.968
545.864
545.761
545.658
545.555
545.453
545.351
545.249
545.147
545.046
544.945
544.844
544.743
544.642
544.542
544.43
544.319
544.208
544.097
543.987
543.877
543.767
543.658
543.55
543.442
543.335
543.229
543.123
543.019
542.915
542.812
542.71
542.609
542.509
542.41
542.312
542.215
542.118
542.023
541.928
541.835
541.742
541.65
541.559
541.469
541.379
541.29
541.202
541.114
541.026
540.939
540.852
540.766
540.679
540.593
552.506
552.419
552.331
552.243
552.155
552.067
551.978
551.89
551.8
551.711
551.621
551.53
551.439
551.348
551.255
551.163
551.069
550.975
550.88
550.785
550.689
550.592
550.495
550.397
550.298
550.198
550.098
549.997
549.896
549.794
549.691
549.588
549.484
549.38
549.275
549.17
549.065
548.959
548.852
548.745
548.638
548.531
548.424
548.316
548.208
548.1
547.992
547.884
547.776
547.668
547.56
547.452
547.344
547.237
547.13
547.022
546.916
546.809
546.703
546.597
546.491
546.386
546.28
546.176
546.071
545.967
545.864
545.76
545.658
545.555
545.453
545.35
545.249
545.147
545.046
544.945
544.844
544.743
544.642
544.542
544.43
544.319
544.208
544.097
543.987
543.877
543.767
543.658
543.55
543.442
543.335
543.229
543.123
543.019
542.915
542.812
542.71
542.609
542.509
542.41
542.312
542.214
542.118
542.023
541.928
541.835
541.742
541.65
541.559
541.469
541.379
541.29
541.202
541.114
541.026
540.939
540.852
540.766
540.679
540.593
552.506
552.419
552.331
552.243
552.155
552.067
551.979
551.89
551.801
551.711
551.621
551.53
551.439
551.348
551.256
551.163
551.069
550.975
550.881
550.785
550.689
550.592
550.495
550.397
550.298
550.199
550.098
549.998
549.896
549.794
549.692
549.588
549.485
549.38
549.276
549.171
549.065
548.959
548.852
548.746
548.639
548.531
548.424
548.316
548.208
548.1
547.992
547.884
547.776
547.668
547.56
547.452
547.344
547.237
547.129
547.022
546.915
546.809
546.702
546.596
546.491
546.385
546.28
546.176
546.071
545.967
545.864
545.76
545.657
545.555
545.452
545.35
545.248
545.147
545.046
544.945
544.844
544.743
544.642
544.542
544.43
544.319
544.208
544.097
543.987
543.877
543.767
543.658
543.55
543.442
543.335
543.229
543.123
543.019
542.915
542.812
542.71
542.609
542.509
542.41
542.312
542.214
542.118
542.023
541.928
541.835
541.742
541.65
541.559
541.469
541.379
541.29
541.202
541.114
541.026
540.939
540.852
540.766
540.679
540.593
552.506
552.419
552.331
552.243
552.155
552.067
551.979
551.89
551.801
551.711
551.621
551.531
551.44
551.348
551.256
551.163
551.07
550.976
550.881
550.785
550.689
550.593
550.495
550.397
550.298
550.199
550.099
549.998
549.897
549.795
549.692
549.589
549.485
549.381
549.276
549.171
549.065
548.959
548.853
548.746
548.639
548.532
548.424
548.316
548.209
548.101
547.992
547.884
547.776
547.668
547.56
547.452
547.344
547.237
547.129
547.022
546.915
546.809
546.702
546.596
546.49
546.385
546.28
546.175
546.071
545.967
545.863
545.76
545.657
545.554
545.452
545.35
545.248
545.147
545.045
544.944
544.844
544.743
544.642
544.542
544.43
544.319
544.208
544.097
543.987
543.877
543.767
543.658
543.55
543.442
543.335
543.229
543.123
543.019
542.915
542.812
542.71
542.609
542.509
542.41
542.311
542.214
542.118
542.023
541.928
541.835
541.742
541.65
541.559
541.469
541.379
541.29
541.202
541.114
541.026
540.939
540.852
540.766
540.679
540.593
552.506
552.419
552.331
552.243
552.155
552.067
551.979
551.89
551.801
551.711
551.621
551.531
551.44
551.348
551.256
551.163
551.07
550.976
550.881
550.786
550.69
550.593
550.495
550.397
550.299
550.199
550.099
549.998
549.897
549.795
549.692
549.589
549.485
549.381
549.276
549.171
549.066
548.96
548.853
548.746
548.639
548.532
548.424
548.317
548.209
548.101
547.993
547.884
547.776
547.668
547.56
547.452
547.344
547.237
547.129
547.022
546.915
546.808
546.702
546.596
546.49
546.385
546.279
546.175
546.07
545.966
545.863
545.759
545.656
545.554
545.452
545.35
545.248
545.146
545.045
544.944
544.843
544.743
544.642
544.542
544.43
544.319
544.208
544.097
543.987
543.877
543.767
543.658
543.55
543.442
543.335
543.229
543.123
543.018
542.915
542.812
542.71
542.609
542.509
542.41
542.311
542.214
542.118
542.023
541.928
541.835
541.742
541.65
541.559
541.469
541.379
541.29
541.202
541.114
541.026
540.939
540.852
540.766
540.679
540.593
552.506
552.419
552.331
552.244
552.156
552.068
551.979
551.89
551.801
551.712
551.622
551.531
551.44
551.349
551.256
551.164
551.07
550.976
550.881
550.786
550.69
550.593
550.496
550.398
550.299
550.2
550.099
549.999
549.897
549.795
549.693
549.59
549.486
549.382
549.277
549.172
549.066
548.96
548.854
548.747
548.64
548.532
548.425
548.317
548.209
548.101
547.993
547.885
547.776
547.668
547.56
547.452
547.344
547.236
547.129
547.022
546.915
546.808
546.701
546.595
546.489
546.384
546.279
546.174
546.07
545.966
545.862
545.759
545.656
545.553
545.451
545.349
545.247
545.146
545.045
544.944
544.843
544.743
544.642
544.542
544.43
544.319
544.208
544.097
543.987
543.877
543.767
543.658
543.55
543.442
543.335
543.228
543.123
543.018
542.915
542.812
542.71
542.609
542.509
542.409
542.311
542.214
542.118
542.023
541.928
541.835
541.742
541.65
541.559
541.469
541.379
541.29
541.201
541.114
541.026
540.939
540.852
540.766
540.679
540.593
552.506
552.419
552.331
552.244
552.156
552.068
551.979
551.891
551.802
551.712
551.622
551.532
551.441
551.349
551.257
551.164
551.071
550.977
550.882
550.787
550.69
550.594
550.496
550.398
550.299
550.2
550.1
549.999
549.898
549.796
549.693
549.59
549.486
549.382
549.277
549.172
549.067
548.96
548.854
548.747
548.64
548.533
548.425
548.317
548.209
548.101
547.993
547.885
547.776
547.668
547.56
547.452
547.344
547.236
547.129
547.021
546.914
546.807
546.701
546.595
546.489
546.383
546.278
546.174
546.069
545.965
545.862
545.758
545.655
545.553
545.451
545.349
545.247
545.146
545.045
544.944
544.843
544.742
544.642
544.542
544.43
544.319
544.208
544.097
543.987
543.876
543.767
543.658
543.549
543.442
543.335
543.228
543.123
543.018
542.914
542.812
542.71
542.609
542.509
542.409
542.311
542.214
542.118
542.022
541.928
541.835
541.742
541.65
541.559
541.469
541.379
541.29
541.201
541.114
541.026
540.939
540.852
540.766
540.679
540.593
552.506
552.419
552.332
552.244
552.156
552.068
551.98
551.891
551.802
551.713
551.623
551.532
551.441
551.35
551.257
551.165
551.071
550.977
550.882
550.787
550.691
550.594
550.497
550.399
550.3
550.2
550.1
550
549.898
549.796
549.694
549.591
549.487
549.383
549.278
549.173
549.067
548.961
548.854
548.748
548.641
548.533
548.425
548.318
548.21
548.101
547.993
547.885
547.776
547.668
547.56
547.452
547.344
547.236
547.128
547.021
546.914
546.807
546.7
546.594
546.488
546.383
546.278
546.173
546.068
545.964
545.861
545.758
545.655
545.552
545.45
545.348
545.246
545.145
545.044
544.943
544.843
544.742
544.642
544.542
544.43
544.319
544.208
544.097
543.986
543.876
543.767
543.658
543.549
543.442
543.335
543.228
543.123
543.018
542.914
542.812
542.71
542.609
542.508
542.409
542.311
542.214
542.118
542.022
541.928
541.834
541.742
541.65
541.559
541.469
541.379
541.29
541.201
541.113
541.026
540.939
540.852
540.766
540.679
540.593
552.506
552.419
552.332
552.244
552.156
552.069
551.98
551.892
551.803
551.713
551.623
551.533
551.442
551.35
551.258
551.165
551.072
550.978
550.883
550.788
550.692
550.595
550.497
550.399
550.3
550.201
550.101
550
549.899
549.797
549.694
549.591
549.487
549.383
549.278
549.173
549.068
548.961
548.855
548.748
548.641
548.534
548.426
548.318
548.21
548.102
547.993
547.885
547.776
547.668
547.56
547.452
547.343
547.236
547.128
547.02
546.913
546.806
546.7
546.593
546.487
546.382
546.277
546.172
546.068
545.964
545.86
545.757
545.654
545.551
545.449
545.347
545.246
545.145
545.044
544.943
544.842
544.742
544.642
544.542
544.43
544.319
544.208
544.097
543.986
543.876
543.767
543.658
543.549
543.442
543.335
543.228
543.123
543.018
542.914
542.811
542.709
542.608
542.508
542.409
542.311
542.214
542.118
542.022
541.928
541.834
541.742
541.65
541.559
541.468
541.379
541.29
541.201
541.113
541.026
540.939
540.852
540.766
540.679
540.593
552.506
552.419
552.332
552.244
552.157
552.069
551.981
551.892
551.803
551.714
551.624
551.534
551.443
551.351
551.259
551.166
551.073
550.979
550.884
550.788
550.692
550.595
550.498
550.4
550.301
550.202
550.101
550.001
549.899
549.797
549.695
549.592
549.488
549.384
549.279
549.174
549.068
548.962
548.856
548.749
548.641
548.534
548.426
548.318
548.21
548.102
547.993
547.885
547.776
547.668
547.56
547.451
547.343
547.235
547.127
547.02
546.912
546.805
546.699
546.593
546.487
546.381
546.276
546.171
546.067
545.963
545.859
545.756
545.653
545.551
545.448
545.347
545.245
545.144
545.043
544.942
544.842
544.742
544.642
544.542
544.43
544.319
544.208
544.097
543.986
543.876
543.767
543.658
543.549
543.441
543.334
543.228
543.123
543.018
542.914
542.811
542.709
542.608
542.508
542.409
542.311
542.214
542.118
542.022
541.928
541.834
541.742
541.65
541.559
541.468
541.379
541.29
541.201
541.113
541.026
540.939
540.852
540.766
540.679
540.593
552.506
552.419
552.332
552.245
552.157
552.069
551.981
551.893
551.804
551.715
551.625
551.534
551.443
551.352
551.26
551.167
551.073
550.979
550.885
550.789
550.693
550.596
550.499
550.401
550.302
550.202
550.102
550.001
549.9
549.798
549.695
549.592
549.489
549.384
549.28
549.174
549.069
548.963
548.856
548.749
548.642
548.534
548.427
548.319
548.21
548.102
547.993
547.885
547.776
547.668
547.559
547.451
547.343
547.234
547.127
547.019
546.912
546.805
546.698
546.592
546.486
546.38
546.275
546.17
546.066
545.962
545.858
545.755
545.652
545.55
545.448
545.346
545.244
545.143
545.043
544.942
544.842
544.741
544.641
544.541
544.43
544.319
544.207
544.097
543.986
543.876
543.767
543.658
543.549
543.441
543.334
543.228
543.123
543.018
542.914
542.811
542.709
542.608
542.508
542.409
542.311
542.214
542.118
542.022
541.928
541.834
541.742
541.65
541.559
541.468
541.379
541.29
541.201
541.113
541.026
540.939
540.852
540.766
540.679
540.593
552.507
552.42
552.332
552.245
552.158
552.07
551.982
551.894
551.805
551.715
551.626
551.535
551.444
551.353
551.261
551.168
551.074
550.98
550.886
550.79
550.694
550.597
550.5
550.401
550.302
550.203
550.103
550.002
549.901
549.799
549.696
549.593
549.489
549.385
549.28
549.175
549.069
548.963
548.857
548.75
548.642
548.535
548.427
548.319
548.211
548.102
547.993
547.885
547.776
547.667
547.559
547.45
547.342
547.234
547.126
547.018
546.911
546.804
546.697
546.59
546.484
546.379
546.274
546.169
546.064
545.96
545.857
545.754
545.651
545.549
545.447
545.345
545.244
545.143
545.042
544.941
544.841
544.741
544.641
544.541
544.43
544.318
544.207
544.097
543.986
543.876
543.766
543.657
543.549
543.441
543.334
543.228
543.122
543.018
542.914
542.811
542.709
542.608
542.508
542.409
542.311
542.214
542.117
542.022
541.928
541.834
541.742
541.65
541.559
541.468
541.379
541.29
541.201
541.113
541.026
540.939
540.852
540.766
540.679
540.593
552.507
552.42
552.333
552.246
552.158
552.071
551.983
551.894
551.806
551.716
551.627
551.536
551.445
551.354
551.262
551.169
551.076
550.981
550.887
550.791
550.695
550.598
550.5
550.402
550.303
550.204
550.104
550.003
549.901
549.799
549.697
549.594
549.49
549.386
549.281
549.176
549.07
548.964
548.857
548.75
548.643
548.535
548.427
548.319
548.211
548.102
547.993
547.885
547.776
547.667
547.558
547.45
547.341
547.233
547.125
547.017
546.91
546.803
546.696
546.589
546.483
546.378
546.272
546.167
546.063
545.959
545.856
545.752
545.65
545.547
545.445
545.344
545.243
545.142
545.041
544.941
544.841
544.741
544.641
544.541
544.43
544.318
544.207
544.096
543.986
543.876
543.766
543.657
543.549
543.441
543.334
543.228
543.122
543.018
542.914
542.811
542.709
542.608
542.508
542.409
542.311
542.214
542.117
542.022
541.928
541.834
541.742
541.65
541.559
541.468
541.379
541.29
541.201
541.113
541.026
540.939
540.852
540.766
540.679
540.593
552.507
552.42
552.333
552.246
552.159
552.071
551.983
551.895
551.807
551.717
551.628
551.538
551.447
551.355
551.263
551.17
551.077
550.983
550.888
550.792
550.696
550.599
550.502
550.403
550.304
550.205
550.105
550.004
549.902
549.8
549.698
549.594
549.491
549.386
549.282
549.176
549.071
548.964
548.858
548.751
548.643
548.536
548.428
548.319
548.211
548.102
547.993
547.885
547.776
547.667
547.558
547.449
547.341
547.232
547.124
547.016
546.909
546.801
546.694
546.588
546.482
546.376
546.271
546.166
546.062
545.958
545.854
545.751
545.648
545.546
545.444
545.343
545.242
545.141
545.04
544.94
544.84
544.74
544.641
544.541
544.43
544.318
544.207
544.096
543.986
543.876
543.766
543.657
543.549
543.441
543.334
543.228
543.122
543.018
542.914
542.811
542.709
542.608
542.508
542.409
542.311
542.214
542.117
542.022
541.928
541.834
541.741
541.65
541.559
541.468
541.379
541.29
541.201
541.113
541.026
540.939
540.852
540.766
540.679
540.593
552.507
552.42
552.333
552.246
552.159
552.072
551.984
551.896
551.808
551.718
551.629
551.539
551.448
551.356
551.264
551.172
551.078
550.984
550.889
550.794
550.697
550.6
550.503
550.404
550.305
550.206
550.105
550.005
549.903
549.801
549.698
549.595
549.492
549.387
549.282
549.177
549.071
548.965
548.858
548.751
548.644
548.536
548.428
548.32
548.211
548.102
547.993
547.884
547.775
547.666
547.557
547.449
547.34
547.231
547.123
547.015
546.907
546.8
546.693
546.587
546.48
546.375
546.269
546.165
546.06
545.956
545.853
545.75
545.647
545.545
545.443
545.342
545.241
545.14
545.04
544.939
544.84
544.74
544.64
544.541
544.429
544.318
544.207
544.096
543.986
543.876
543.766
543.657
543.549
543.441
543.334
543.228
543.122
543.017
542.914
542.811
542.709
542.608
542.508
542.409
542.311
542.213
542.117
542.022
541.928
541.834
541.741
541.65
541.559
541.468
541.379
541.29
541.201
541.113
541.026
540.939
540.852
540.766
540.679
540.593
552.507
552.42
552.334
552.247
552.16
552.073
551.985
551.897
551.808
551.719
551.63
551.54
551.449
551.358
551.266
551.173
551.08
550.985
550.89
550.795
550.699
550.602
550.504
550.406
550.306
550.207
550.107
550.006
549.904
549.802
549.699
549.596
549.492
549.388
549.283
549.178
549.072
548.966
548.859
548.752
548.644
548.536
548.428
548.32
548.211
548.102
547.993
547.884
547.775
547.666
547.557
547.448
547.339
547.23
547.122
547.014
546.906
546.799
546.692
546.585
546.479
546.373
546.268
546.163
546.059
545.955
545.851
545.748
545.646
545.544
545.442
545.34
545.24
545.139
545.039
544.939
544.839
544.739
544.64
544.541
544.429
544.318
544.207
544.096
543.985
543.875
543.766
543.657
543.548
543.441
543.334
543.227
543.122
543.017
542.914
542.811
542.709
542.608
542.508
542.409
542.311
542.213
542.117
542.022
541.928
541.834
541.741
541.65
541.559
541.468
541.379
541.29
541.201
541.113
541.026
540.939
540.852
540.766
540.679
540.593
552.507
552.42
552.334
552.247
552.16
552.073
551.985
551.898
551.809
551.72
551.631
551.541
551.45
551.359
551.267
551.174
551.081
550.987
550.892
550.796
550.7
550.603
550.505
550.407
550.308
550.208
550.108
550.007
549.905
549.803
549.7
549.597
549.493
549.389
549.284
549.179
549.073
548.966
548.86
548.752
548.645
548.537
548.428
548.32
548.211
548.102
547.993
547.884
547.775
547.665
547.556
547.447
547.338
547.229
547.121
547.013
546.905
546.797
546.69
546.584
546.477
546.372
546.266
546.161
546.057
545.953
545.85
545.747
545.644
545.542
545.441
545.339
545.238
545.138
545.038
544.938
544.838
544.739
544.64
544.541
544.429
544.318
544.207
544.096
543.985
543.875
543.766
543.657
543.548
543.441
543.334
543.227
543.122
543.017
542.914
542.811
542.709
542.608
542.508
542.409
542.311
542.213
542.117
542.022
541.927
541.834
541.741
541.65
541.558
541.468
541.379
541.29
541.201
541.113
541.026
540.939
540.852
540.766
540.679
540.593
552.507
552.42
552.334
552.247
552.16
552.073
551.986
551.898
551.81
551.721
551.632
551.542
551.451
551.36
551.268
551.176
551.082
550.988
550.893
550.798
550.701
550.604
550.507
550.408
550.309
550.209
550.109
550.008
549.906
549.804
549.701
549.598
549.494
549.39
549.285
549.179
549.073
548.967
548.86
548.753
548.645
548.537
548.429
548.32
548.211
548.102
547.993
547.884
547.774
547.665
547.555
547.446
547.337
547.228
547.12
547.012
546.904
546.796
546.689
546.582
546.476
546.37
546.265
546.16
546.056
545.952
545.848
545.745
545.643
545.541
545.439
545.338
545.237
545.137
545.037
544.937
544.838
544.739
544.64
544.541
544.429
544.318
544.206
544.096
543.985
543.875
543.766
543.657
543.548
543.44
543.333
543.227
543.122
543.017
542.913
542.811
542.709
542.608
542.508
542.409
542.31
542.213
542.117
542.022
541.927
541.834
541.741
541.649
541.558
541.468
541.379
541.29
541.201
541.113
541.026
540.939
540.852
540.766
540.679
540.593
552.507
552.42
552.334
552.247
552.161
552.073
551.986
551.898
551.81
551.722
551.632
551.543
551.452
551.361
551.269
551.177
551.084
550.99
550.895
550.799
550.703
550.606
550.508
550.409
550.31
550.21
550.11
550.009
549.907
549.805
549.702
549.599
549.495
549.39
549.286
549.18
549.074
548.968
548.861
548.753
548.646
548.538
548.429
548.32
548.211
548.102
547.993
547.883
547.774
547.664
547.555
547.446
547.336
547.227
547.119
547.01
546.902
546.795
546.688
546.581
546.475
546.369
546.263
546.159
546.054
545.95
545.847
545.744
545.642
545.54
545.438
545.337
545.237
545.136
545.036
544.937
544.837
544.738
544.639
544.54
544.429
544.317
544.206
544.095
543.985
543.875
543.765
543.656
543.548
543.44
543.333
543.227
543.122
543.017
542.913
542.81
542.709
542.608
542.508
542.409
542.31
542.213
542.117
542.022
541.927
541.834
541.741
541.649
541.558
541.468
541.378
541.29
541.201
541.113
541.026
540.939
540.852
540.766
540.679
540.593
552.507
552.42
552.334
552.247
552.16
552.073
551.986
551.898
551.81
551.722
551.633
551.543
551.453
551.362
551.27
551.178
551.085
550.991
550.896
550.801
550.704
550.607
550.509
550.411
550.312
550.212
550.111
550.01
549.908
549.806
549.703
549.6
549.496
549.391
549.286
549.181
549.075
548.969
548.862
548.754
548.646
548.538
548.43
548.321
548.212
548.102
547.993
547.883
547.774
547.664
547.554
547.445
547.336
547.227
547.118
547.01
546.901
546.794
546.687
546.58
546.473
546.368
546.262
546.157
546.053
545.949
545.846
545.743
545.641
545.539
545.438
545.337
545.236
545.136
545.036
544.936
544.837
544.738
544.639
544.54
544.429
544.317
544.206
544.095
543.985
543.875
543.765
543.656
543.548
543.44
543.333
543.227
543.122
543.017
542.913
542.81
542.708
542.608
542.508
542.408
542.31
542.213
542.117
542.022
541.927
541.834
541.741
541.649
541.558
541.468
541.378
541.289
541.201
541.113
541.026
540.939
540.852
540.766
540.679
540.593
552.507
552.42
552.334
552.247
552.16
552.073
551.986
551.898
551.81
551.722
551.633
551.543
551.453
551.362
551.271
551.179
551.086
550.992
550.897
550.802
550.706
550.608
550.511
550.412
550.313
550.213
550.112
550.011
549.909
549.807
549.704
549.601
549.497
549.392
549.288
549.182
549.076
548.97
548.863
548.755
548.647
548.539
548.43
548.321
548.212
548.103
547.993
547.884
547.774
547.664
547.554
547.445
547.335
547.226
547.117
547.009
546.901
546.793
546.686
546.579
546.473
546.367
546.262
546.157
546.052
545.949
545.845
545.743
545.64
545.539
545.437
545.336
545.236
545.135
545.035
544.936
544.837
544.738
544.639
544.54
544.429
544.317
544.206
544.095
543.985
543.875
543.765
543.656
543.548
543.44
543.333
543.227
543.121
543.017
542.913
542.81
542.708
542.607
542.507
542.408
542.31
542.213
542.117
542.022
541.927
541.834
541.741
541.649
541.558
541.468
541.378
541.289
541.201
541.113
541.026
540.939
540.852
540.766
540.679
540.593
552.507
552.42
552.333
552.246
552.159
552.072
551.985
551.897
551.809
551.721
551.632
551.543
551.453
551.362
551.271
551.179
551.086
550.993
550.898
550.803
550.707
550.61
550.512
550.413
550.314
550.214
550.113
550.012
549.91
549.808
549.705
549.602
549.498
549.394
549.289
549.184
549.078
548.972
548.865
548.757
548.649
548.541
548.432
548.323
548.213
548.104
547.994
547.884
547.774
547.665
547.555
547.445
547.335
547.226
547.117
547.009
546.901
546.793
546.686
546.579
546.472
546.367
546.261
546.157
546.052
545.949
545.845
545.743
545.64
545.539
545.437
545.336
545.236
545.135
545.035
544.936
544.837
544.738
544.639
544.54
544.429
544.317
544.206
544.095
543.984
543.874
543.765
543.656
543.547
543.44
543.333
543.227
543.121
543.017
542.913
542.81
542.708
542.607
542.507
542.408
542.31
542.213
542.117
542.022
541.927
541.834
541.741
541.649
541.558
541.468
541.378
541.289
541.201
541.113
541.026
540.939
540.852
540.766
540.679
540.593
552.506
552.419
552.332
552.245
552.158
552.071
551.984
551.896
551.808
551.72
551.631
551.542
551.452
551.362
551.271
551.179
551.087
550.993
550.899
550.804
550.708
550.611
550.513
550.415
550.315
550.215
550.115
550.013
549.911
549.809
549.706
549.603
549.5
549.396
549.291
549.186
549.081
548.974
548.867
548.76
548.652
548.543
548.434
548.324
548.215
548.105
547.995
547.886
547.776
547.666
547.556
547.446
547.336
547.227
547.118
547.009
546.901
546.793
546.686
546.579
546.473
546.367
546.262
546.157
546.053
545.949
545.846
545.743
545.641
545.539
545.438
545.337
545.236
545.136
545.036
544.936
544.837
544.738
544.639
544.54
544.428
544.317
544.206
544.095
543.984
543.874
543.765
543.656
543.547
543.44
543.333
543.227
543.121
543.017
542.913
542.81
542.708
542.607
542.507
542.408
542.31
542.213
542.117
542.022
541.927
541.834
541.741
541.649
541.558
541.468
541.378
541.289
541.201
541.113
541.026
540.939
540.852
540.766
540.679
540.593
552.506
552.419
552.332
552.244
552.157
552.07
551.982
551.895
551.807
551.719
551.63
551.541
551.452
551.362
551.271
551.179
551.087
550.994
550.9
550.805
550.709
550.612
550.514
550.416
550.316
550.216
550.116
550.014
549.912
549.81
549.708
549.605
549.501
549.398
549.294
549.19
549.085
548.979
548.872
548.764
548.656
548.547
548.437
548.327
548.217
548.107
547.998
547.888
547.778
547.667
547.557
547.447
547.337
547.228
547.119
547.01
546.902
546.795
546.688
546.581
546.475
546.369
546.264
546.159
546.054
545.951
545.847
545.745
545.642
545.54
545.439
545.338
545.237
545.137
545.037
544.937
544.837
544.738
544.639
544.54
544.428
544.317
544.205
544.094
543.984
543.874
543.764
543.655
543.547
543.44
543.333
543.226
543.121
543.016
542.913
542.81
542.708
542.607
542.507
542.408
542.31
542.213
542.117
542.021
541.927
541.834
541.741
541.649
541.558
541.468
541.378
541.289
541.201
541.113
541.026
540.939
540.852
540.766
540.679
540.593
552.506
552.418
552.331
552.243
552.156
552.068
551.98
551.893
551.805
551.717
551.629
551.54
551.451
551.361
551.27
551.179
551.087
550.994
550.9
550.805
550.709
550.613
550.515
550.417
550.317
550.217
550.117
550.015
549.914
549.811
549.709
549.607
549.504
549.401
549.298
549.195
549.091
548.985
548.879
548.771
548.662
548.552
548.442
548.331
548.221
548.111
548.001
547.891
547.781
547.67
547.56
547.45
547.34
547.23
547.121
547.013
546.905
546.797
546.69
546.584
546.478
546.372
546.267
546.162
546.057
545.953
545.85
545.747
545.644
545.543
545.441
545.34
545.239
545.138
545.038
544.938
544.838
544.739
544.639
544.54
544.428
544.317
544.205
544.094
543.984
543.874
543.764
543.655
543.547
543.439
543.332
543.226
543.121
543.016
542.913
542.81
542.708
542.607
542.507
542.408
542.31
542.213
542.117
542.021
541.927
541.834
541.741
541.649
541.558
541.468
541.378
541.289
541.201
541.113
541.026
540.939
540.852
540.766
540.679
540.593
552.506
552.418
552.33
552.242
552.154
552.066
551.979
551.891
551.803
551.715
551.627
551.538
551.449
551.36
551.27
551.178
551.087
550.994
550.9
550.806
550.71
550.613
550.516
550.417
550.318
550.218
550.117
550.016
549.915
549.813
549.711
549.609
549.508
549.406
549.305
549.202
549.099
548.995
548.889
548.781
548.672
548.561
548.45
548.338
548.226
548.116
548.005
547.895
547.785
547.674
547.564
547.453
547.343
547.233
547.124
547.016
546.908
546.801
546.695
546.589
546.483
546.377
546.271
546.166
546.061
545.957
545.853
545.75
545.648
545.546
545.444
545.342
545.241
545.14
545.039
544.939
544.839
544.739
544.64
544.54
544.428
544.317
544.205
544.094
543.984
543.874
543.764
543.655
543.547
543.439
543.332
543.226
543.121
543.016
542.913
542.81
542.708
542.607
542.507
542.408
542.31
542.213
542.117
542.021
541.927
541.834
541.741
541.649
541.558
541.468
541.378
541.289
541.201
541.113
541.026
540.939
540.852
540.766
540.679
540.593
552.506
552.417
552.329
552.241
552.153
552.065
551.977
551.889
551.801
551.714
551.625
551.537
551.448
551.359
551.269
551.178
551.086
550.994
550.9
550.806
550.71
550.614
550.516
550.418
550.319
550.219
550.118
550.017
549.916
549.814
549.713
549.612
549.512
549.414
549.314
549.212
549.111
549.008
548.902
548.795
548.685
548.574
548.461
548.347
548.234
548.122
548.011
547.901
547.791
547.68
547.569
547.457
547.347
547.237
547.128
547.02
546.913
546.806
546.7
546.595
546.489
546.383
546.277
546.172
546.067
545.963
545.858
545.754
545.652
545.55
545.448
545.346
545.244
545.143
545.041
544.94
544.84
544.74
544.64
544.54
544.428
544.316
544.205
544.094
543.984
543.873
543.764
543.655
543.547
543.439
543.332
543.226
543.121
543.016
542.913
542.81
542.708
542.607
542.507
542.408
542.31
542.213
542.117
542.021
541.927
541.834
541.741
541.649
541.558
541.468
541.378
541.289
541.201
541.113
541.026
540.939
540.852
540.766
540.679
540.593
552.505
552.417
552.328
552.24
552.151
552.063
551.976
551.888
551.8
551.712
551.624
551.536
551.447
551.358
551.268
551.177
551.086
550.994
550.9
550.806
550.711
550.614
550.517
550.419
550.319
550.219
550.119
550.018
549.916
549.815
549.715
549.616
549.519
549.425
549.33
549.225
549.123
549.02
548.915
548.809
548.702
548.592
548.478
548.361
548.244
548.13
548.019
547.909
547.799
547.688
547.576
547.463
547.352
547.243
547.134
547.026
546.919
546.813
546.708
546.603
546.497
546.391
546.285
546.18
546.076
545.97
545.865
545.76
545.657
545.555
545.454
545.351
545.249
545.146
545.044
544.942
544.841
544.74
544.64
544.54
544.428
544.316
544.205
544.094
543.983
543.873
543.764
543.655
543.547
543.439
543.332
543.226
543.121
543.016
542.913
542.81
542.708
542.607
542.507
542.408
542.31
542.213
542.117
542.021
541.927
541.834
541.741
541.649
541.558
541.468
541.378
541.289
541.201
541.113
541.026
540.939
540.852
540.765
540.679
540.593
552.505
552.416
552.327
552.239
552.15
552.062
551.974
551.887
551.799
551.711
551.623
551.535
551.446
551.357
551.268
551.177
551.086
550.994
550.9
550.806
550.711
550.615
550.517
550.419
550.32
550.22
550.119
550.018
549.917
549.816
549.717
549.62
549.528
549.444
549.364
549.24
549.13
549.025
548.916
548.817
548.716
548.613
548.502
548.382
548.257
548.138
548.028
547.919
547.809
547.698
547.585
547.47
547.36
547.251
547.142
547.035
546.927
546.821
546.716
546.612
546.504
546.399
546.294
546.188
546.088
545.981
545.876
545.765
545.663
545.563
545.463
545.357
545.254
545.15
545.048
544.946
544.841
544.739
544.638
544.538
544.427
544.316
544.205
544.094
543.984
543.873
543.764
543.655
543.547
543.439
543.332
543.226
543.121
543.016
542.912
542.81
542.708
542.607
542.507
542.408
542.31
542.213
542.117
542.021
541.927
541.834
541.741
541.649
541.558
541.468
541.378
541.289
541.201
541.113
541.026
540.939
540.852
540.766