/*--------------------------------*- C++ -*----------------------------------*\
  =========                 |
  \\      /  F ield         | OpenFOAM: The Open Source CFD Toolbox
   \\    /   O peration     | Website:  https://openfoam.org
    \\  /    A nd           | Version:  6
     \\/     M anipulation  |
\*---------------------------------------------------------------------------*/
FoamFile
{
    version     2.0;
    format      ascii;
    class       surfaceScalarField;
    location    "3200";
    object      phi;
}
// * * * * * * * * * * * * * * * * * * * * * * * * * * * * * * * * * * * * * //

dimensions      [0 3 -1 0 0 0 0];

internalField   nonuniform List<scalar> 
9440
(
4.41242e-11
-4.41242e-11
6.68355e-11
-2.27134e-11
6.01545e-11
6.67943e-12
-2.23033e-11
8.24562e-11
-8.31714e-11
6.08665e-11
-1.5316e-10
6.99873e-11
-2.11577e-10
5.8415e-11
-2.18983e-10
7.40444e-12
-2.11343e-10
-7.64186e-12
-2.09829e-10
-1.51552e-12
-2.30065e-10
2.02342e-11
-2.24417e-10
-5.64997e-12
-1.88374e-10
-3.60453e-11
-1.63262e-10
-2.51132e-11
-8.36508e-11
-7.96136e-11
-1.62256e-12
-8.20302e-11
5.47572e-11
-5.63817e-11
1.5761e-10
-1.02855e-10
2.27514e-10
-6.99055e-11
3.99131e-10
-1.7162e-10
5.92322e-10
-1.93192e-10
8.44938e-10
-2.52618e-10
9.95243e-10
-1.50307e-10
1.23793e-09
-2.42684e-10
1.42347e-09
-1.85543e-10
1.85004e-09
-4.2658e-10
1.90228e-09
-5.22353e-11
1.96362e-09
-6.13449e-11
2.35674e-09
-3.93118e-10
2.87895e-09
-5.22215e-10
3.12771e-09
-2.48759e-10
3.30623e-09
-1.78521e-10
3.76209e-09
-4.55861e-10
3.71168e-09
5.04106e-11
3.74666e-09
-3.49861e-11
3.89602e-09
-1.49365e-10
4.10228e-09
-2.06254e-10
4.36743e-09
-2.65158e-10
4.55384e-09
-1.86407e-10
4.65676e-09
-1.02925e-10
4.68186e-09
-2.50987e-11
4.66127e-09
2.05877e-11
4.62638e-09
3.48913e-11
4.56996e-09
5.64182e-11
4.49764e-09
7.23205e-11
4.45619e-09
4.14503e-11
4.44125e-09
1.49371e-11
4.43222e-09
9.03215e-12
4.41402e-09
1.82006e-11
4.39269e-09
2.13272e-11
4.35292e-09
3.97731e-11
4.28452e-09
6.83977e-11
4.18483e-09
9.96875e-11
4.06533e-09
1.19505e-10
3.93488e-09
1.30446e-10
3.78211e-09
1.52773e-10
3.647e-09
1.35108e-10
3.53799e-09
1.09013e-10
3.43794e-09
1.00052e-10
3.334e-09
1.03935e-10
3.20399e-09
1.30009e-10
3.08696e-09
1.17027e-10
2.96488e-09
1.22078e-10
2.89869e-09
6.61904e-11
2.83829e-09
6.0407e-11
2.78644e-09
5.1844e-11
2.75711e-09
2.93328e-11
2.72215e-09
3.4951e-11
2.6982e-09
2.39553e-11
2.68627e-09
1.19254e-11
2.64332e-09
4.29522e-11
2.63692e-09
6.39122e-12
2.55039e-09
8.65371e-11
2.45994e-09
9.04413e-11
2.27052e-09
1.89421e-10
2.06246e-09
2.08053e-10
1.77503e-09
2.8743e-10
1.4392e-09
3.3583e-10
8.69503e-10
5.69693e-10
4.67592e-10
4.01909e-10
1.67006e-15
4.67588e-10
-1.40253e-18
-4.75834e-19
-1.67063e-18
2.68104e-19
-2.03823e-18
3.65962e-19
-2.30027e-18
2.60161e-19
-2.43446e-18
1.3226e-19
-2.45531e-18
1.89056e-20
-2.38231e-18
-7.49162e-20
-2.23336e-18
-1.50834e-19
-2.02378e-18
-2.11403e-19
-1.76681e-18
-2.58705e-19
-1.47487e-18
-2.9358e-19
-1.15876e-18
-3.17631e-19
-8.28267e-19
-3.31906e-19
-4.92293e-19
-3.37266e-19
-1.58951e-19
-3.34522e-19
1.64469e-19
-3.24495e-19
4.71528e-19
-3.08043e-19
7.56686e-19
-2.86067e-19
1.01533e-18
-2.59499e-19
1.24381e-18
-2.29282e-19
1.43938e-18
-1.96349e-19
1.60022e-18
-1.61596e-19
1.72533e-18
-1.2586e-19
1.8145e-18
-8.99041e-20
1.86817e-18
-5.44006e-20
1.88736e-18
-1.99273e-20
1.8736e-18
1.30355e-20
1.82878e-18
4.41026e-20
1.75509e-18
7.29775e-20
1.65494e-18
9.9443e-20
1.53089e-18
1.23351e-19
1.3856e-18
1.44609e-19
1.22175e-18
1.63169e-19
1.04206e-18
1.7902e-19
8.49227e-19
1.92167e-19
6.45939e-19
2.02631e-19
4.34854e-19
2.10433e-19
2.18633e-19
2.15574e-19
2.17988e-19
-7.69732e-11
3.2847e-11
-1.13107e-10
1.34171e-11
-1.34266e-10
2.78355e-11
-1.61362e-10
1.0955e-10
-2.11081e-10
1.10582e-10
-2.70879e-10
1.29783e-10
-3.67518e-10
1.55051e-10
-4.47594e-10
8.7477e-11
-4.92263e-10
3.70239e-11
-5.33505e-10
3.9724e-11
-5.21668e-10
8.39331e-12
-5.05007e-10
-2.23143e-11
-4.9328e-10
-4.77755e-11
-4.53884e-10
-6.45127e-11
-4.3286e-10
-1.00641e-10
-2.90153e-10
-2.24741e-10
-1.80332e-10
-1.66206e-10
-9.17766e-11
-1.91414e-10
8.1581e-12
-1.69844e-10
1.68243e-10
-3.31708e-10
3.03549e-10
-3.28501e-10
5.21395e-10
-4.70468e-10
7.57771e-10
-3.86686e-10
9.77934e-10
-4.6285e-10
1.25772e-09
-4.65335e-10
1.4984e-09
-6.67265e-10
1.92376e-09
-4.77591e-10
1.89376e-09
-3.13508e-11
2.20292e-09
-7.02277e-10
2.5597e-09
-8.78999e-10
2.81974e-09
-5.08804e-10
3.07068e-09
-4.29461e-10
3.23139e-09
-6.16574e-10
3.41977e-09
-1.37979e-10
3.58428e-09
-1.99495e-10
3.78233e-09
-3.47414e-10
4.04607e-09
-4.69996e-10
4.13304e-09
-3.52134e-10
4.15423e-09
-2.07593e-10
4.20223e-09
-1.50936e-10
4.23192e-09
-5.4789e-11
4.22123e-09
3.12794e-11
4.19841e-09
5.77073e-11
4.18342e-09
7.14106e-11
4.1832e-09
7.25379e-11
4.17786e-09
4.67936e-11
4.17187e-09
2.09305e-11
4.15291e-09
2.79878e-11
4.11212e-09
5.89933e-11
4.0763e-09
5.71412e-11
4.0266e-09
8.94736e-11
3.98705e-09
1.07951e-10
3.91373e-09
1.73005e-10
3.833e-09
2.00237e-10
3.72537e-09
2.3807e-10
3.60309e-09
2.75057e-10
3.49529e-09
2.42909e-10
3.38032e-09
2.23985e-10
3.30109e-09
1.79281e-10
3.17755e-09
2.27473e-10
3.08999e-09
2.17563e-10
2.99975e-09
2.0727e-10
2.89993e-09
2.21892e-10
2.82956e-09
1.36566e-10
2.72119e-09
1.68775e-10
2.69574e-09
7.72935e-11
2.64349e-09
8.1577e-11
2.57508e-09
1.03353e-10
2.57167e-09
2.73681e-11
2.47654e-09
1.07048e-10
2.43332e-09
8.61762e-11
2.42888e-09
1.0824e-11
2.37947e-09
1.35945e-10
2.26665e-09
2.03259e-10
2.1557e-09
3.00367e-10
1.96405e-09
3.9969e-10
1.67384e-09
5.77636e-10
1.41638e-09
5.93288e-10
1.23051e-09
7.55558e-10
7.24012e-10
9.08404e-10
1.30135e-15
1.19159e-09
-2.54318e-19
4.28272e-18
-1.58817e-18
1.60031e-18
-2.15672e-18
9.31262e-19
-2.43834e-18
5.38339e-19
-2.55562e-18
2.46091e-19
-2.55472e-18
1.45718e-20
-2.46172e-18
-1.71268e-19
-2.29543e-18
-3.2037e-19
-2.07104e-18
-4.38903e-19
-1.80168e-18
-5.30991e-19
-1.49892e-18
-5.9909e-19
-1.17304e-18
-6.46052e-19
-8.33627e-19
-6.73651e-19
-4.89549e-19
-6.83482e-19
-1.48924e-19
-6.77103e-19
1.80921e-19
-6.56132e-19
4.93504e-19
-6.22283e-19
7.83254e-19
-5.77366e-19
1.04555e-18
-5.23263e-19
1.27674e-18
-4.61883e-19
1.47414e-18
-3.95113e-19
1.63596e-18
-3.24763e-19
1.76129e-18
-2.52525e-19
1.85e-18
-1.79935e-19
1.90264e-18
-1.08345e-19
1.92033e-18
-3.8913e-20
1.90467e-18
2.74037e-20
1.85766e-18
8.98414e-20
1.78156e-18
1.47816e-19
1.67885e-18
2.00903e-19
1.55215e-18
2.48817e-19
1.40416e-18
2.91386e-19
1.2376e-18
3.28528e-19
1.0552e-18
3.60225e-19
8.59691e-19
3.86504e-19
6.5374e-19
4.07415e-19
4.39996e-19
4.23018e-19
2.21047e-19
4.33368e-19
4.38525e-19
-9.82934e-11
1.31139e-10
-1.58932e-10
7.40529e-11
-2.20708e-10
8.96086e-11
-2.90452e-10
1.79292e-10
-4.01441e-10
2.21568e-10
-5.13941e-10
2.42281e-10
-5.68624e-10
2.09732e-10
-6.47031e-10
1.6588e-10
-7.39311e-10
1.29301e-10
-8.16481e-10
1.16892e-10
-8.98039e-10
8.9948e-11
-9.52188e-10
3.18317e-11
-9.61792e-10
-3.81739e-11
-9.78495e-10
-4.7813e-11
-9.23779e-10
-1.5536e-10
-7.70814e-10
-3.7771e-10
-6.68799e-10
-2.68223e-10
-6.03452e-10
-2.56764e-10
-4.68581e-10
-3.04717e-10
-2.21197e-10
-5.79096e-10
8.2003e-13
-5.5052e-10
2.68297e-10
-7.37948e-10
6.24257e-10
-7.42648e-10
8.93045e-10
-7.31642e-10
1.19937e-09
-7.71666e-10
1.33197e-09
-7.99866e-10
1.75777e-09
-9.03395e-10
1.92922e-09
-2.02802e-10
2.29943e-09
-1.07249e-09
2.57617e-09
-1.15575e-09
2.76535e-09
-6.97984e-10
3.07543e-09
-7.39544e-10
3.15645e-09
-6.97599e-10
3.50857e-09
-4.90099e-10
3.73854e-09
-4.29468e-10
3.76005e-09
-3.68924e-10
3.73458e-09
-4.44529e-10
3.72805e-09
-3.45606e-10
3.71174e-09
-1.91281e-10
3.6969e-09
-1.36101e-10
3.67883e-09
-3.67203e-11
3.66883e-09
4.12789e-11
3.66471e-09
6.18327e-11
3.67546e-09
6.06553e-11
3.68579e-09
6.22052e-11
3.71108e-09
2.15103e-11
3.76709e-09
-3.50829e-11
3.80832e-09
-1.32387e-11
3.81932e-09
4.79855e-11
3.80225e-09
7.42167e-11
3.75979e-09
1.31927e-10
3.70256e-09
1.65183e-10
3.63645e-09
2.3912e-10
3.54948e-09
2.872e-10
3.4513e-09
3.36257e-10
3.33461e-09
3.91741e-10
3.22519e-09
3.52331e-10
3.09628e-09
3.52898e-10
2.97684e-09
2.98715e-10
2.86312e-09
3.41195e-10
2.80794e-09
2.72743e-10
2.74422e-09
2.70992e-10
2.70364e-09
2.62464e-10
2.6537e-09
1.86507e-10
2.60178e-09
2.20695e-10
2.55935e-09
1.19721e-10
2.498e-09
1.42925e-10
2.41919e-09
1.82158e-10
2.38078e-09
6.5775e-11
2.33424e-09
1.5359e-10
2.25734e-09
1.63078e-10
2.16222e-09
1.05936e-10
2.1459e-09
1.52267e-10
2.05906e-09
2.90093e-10
1.93517e-09
4.24248e-10
1.77738e-09
5.57479e-10
1.51786e-09
8.37158e-10
1.25573e-09
8.55411e-10
8.08146e-10
1.20314e-09
3.85106e-10
1.33144e-09
1.25226e-15
1.5767e-09
-2.13803e-18
2.66529e-18
-2.25581e-18
1.71673e-18
-2.54835e-18
1.22093e-18
-2.72938e-18
7.16305e-19
-2.78601e-18
2.99629e-19
-2.73948e-18
-3.50327e-20
-2.60979e-18
-3.03987e-19
-2.41298e-18
-5.20142e-19
-2.16237e-18
-6.92351e-19
-1.86978e-18
-8.26283e-19
-1.54588e-18
-9.25535e-19
-1.20064e-18
-9.9366e-19
-8.43457e-19
-1.03301e-18
-4.83171e-19
-1.04577e-18
-1.27953e-19
-1.03415e-18
2.1477e-19
-1.00053e-18
5.38421e-19
-9.47468e-19
8.37357e-19
-8.77725e-19
1.10693e-18
-7.94173e-19
1.34351e-18
-6.99739e-19
1.54449e-18
-5.97313e-19
1.70819e-18
-4.89669e-19
1.83388e-18
-3.7939e-19
1.92159e-18
-2.6881e-19
1.97207e-18
-1.59975e-19
1.98664e-18
-5.46262e-20
1.96711e-18
4.5809e-20
1.91563e-18
1.40201e-19
1.83464e-18
2.27697e-19
1.72676e-18
3.0769e-19
1.59472e-18
3.79781e-19
1.4413e-18
4.43744e-19
1.2693e-18
4.99483e-19
1.08148e-18
5.46999e-19
8.80603e-19
5.86357e-19
6.69343e-19
6.17656e-19
4.50345e-19
6.41005e-19
2.26204e-19
6.56503e-19
6.64233e-19
-9.62558e-11
2.27393e-10
-2.21301e-10
1.99096e-10
-3.56737e-10
2.25042e-10
-4.53536e-10
2.76088e-10
-5.09639e-10
2.7767e-10
-6.09325e-10
3.41964e-10
-7.20268e-10
3.20672e-10
-8.60452e-10
3.06062e-10
-9.80791e-10
2.49637e-10
-1.07956e-09
2.15656e-10
-1.1485e-09
1.58887e-10
-1.12103e-09
4.36187e-12
-1.07333e-09
-8.58776e-11
-1.02404e-09
-9.71044e-11
-9.43962e-10
-2.35445e-10
-8.12348e-10
-5.09326e-10
-7.285e-10
-3.52074e-10
-6.3583e-10
-3.49438e-10
-4.94991e-10
-4.45559e-10
-3.44441e-10
-7.29649e-10
-1.01026e-10
-7.93938e-10
1.28774e-10
-9.67752e-10
4.32723e-10
-1.0466e-09
7.29063e-10
-1.02798e-09
1.00914e-09
-1.05174e-09
1.26106e-09
-1.05179e-09
1.53217e-09
-1.17451e-09
2.21803e-09
-8.8866e-10
2.37776e-09
-1.23222e-09
2.65068e-09
-1.42867e-09
2.93583e-09
-9.83133e-10
3.17633e-09
-9.8005e-10
3.39388e-09
-9.15146e-10
3.50128e-09
-5.97507e-10
3.55019e-09
-4.78374e-10
3.51021e-09
-3.28952e-10
3.43524e-09
-3.69564e-10
3.3814e-09
-2.91765e-10
3.34151e-09
-1.51395e-10
3.27711e-09
-7.16953e-11
3.23274e-09
7.64796e-12
3.22938e-09
4.46317e-11
3.24236e-09
4.88567e-11
3.28205e-09
2.0959e-11
3.32605e-09
1.82092e-11
3.35355e-09
-5.99331e-12
3.35635e-09
-3.78765e-11
3.35741e-09
-1.43039e-11
3.34223e-09
6.31693e-11
3.32131e-09
9.51364e-11
3.29528e-09
1.57957e-10
3.25645e-09
2.04013e-10
3.19684e-09
2.98726e-10
3.14852e-09
3.35515e-10
3.02975e-09
4.55031e-10
2.97707e-09
4.44416e-10
2.83694e-09
4.9246e-10
2.72537e-09
4.64472e-10
2.61552e-09
4.08569e-10
2.54449e-09
4.12222e-10
2.51694e-09
3.00292e-10
2.45945e-09
3.2848e-10
2.46931e-09
2.52607e-10
2.40741e-09
2.48399e-10
2.37848e-09
2.49627e-10
2.31467e-09
1.83534e-10
2.24131e-09
2.1628e-10
2.26026e-09
1.63205e-10
2.10184e-09
2.24194e-10
2.07746e-09
1.77964e-10
1.99838e-09
2.42152e-10
1.92691e-09
1.77412e-10
1.88452e-09
1.94645e-10
1.75661e-09
4.18001e-10
1.62451e-09
5.56351e-10
1.49108e-09
6.90904e-10
1.34644e-09
9.81789e-10
1.10697e-09
1.09488e-09
9.00664e-10
1.40944e-09
5.9346e-10
1.63864e-09
1.2809e-15
2.17015e-09
-1.88219e-18
6.23181e-18
-2.75015e-18
2.58333e-18
-3.05164e-18
1.51952e-18
-3.14482e-18
8.06372e-19
-3.11952e-18
2.71162e-19
-3.00736e-18
-1.50364e-19
-2.82493e-18
-4.89553e-19
-2.58422e-18
-7.63937e-19
-2.29562e-18
-9.83939e-19
-1.96903e-18
-1.15573e-18
-1.614e-18
-1.28327e-18
-1.23999e-18
-1.37021e-18
-8.56214e-19
-1.41913e-18
-4.71551e-19
-1.43259e-18
-9.43296e-20
-1.41334e-18
2.67828e-19
-1.36448e-18
6.08163e-19
-1.28944e-18
9.20909e-19
-1.19198e-18
1.20137e-18
-1.07603e-18
1.44594e-18
-9.45632e-19
1.65213e-18
-8.04763e-19
1.81847e-18
-6.57232e-19
1.94446e-18
-5.06568e-19
2.03043e-18
-3.55944e-19
2.07742e-18
-2.0812e-19
2.08708e-18
-6.54223e-20
2.0615e-18
7.02626e-20
2.00313e-18
1.97463e-19
1.91464e-18
3.1509e-19
1.79886e-18
4.22388e-19
1.65868e-18
5.18885e-19
1.49704e-18
6.04336e-19
1.31681e-18
6.78671e-19
1.12084e-18
7.41943e-19
9.11902e-19
7.94283e-19
6.92692e-19
8.35862e-19
4.65843e-19
8.66855e-19
2.33934e-19
8.87419e-19
8.9767e-19
-1.26712e-10
3.54103e-10
-2.65194e-10
3.37575e-10
-3.77392e-10
3.37238e-10
-5.25152e-10
4.23846e-10
-6.8268e-10
4.35195e-10
-7.9291e-10
4.52191e-10
-9.47706e-10
4.75465e-10
-1.06562e-09
4.23977e-10
-1.17635e-09
3.60361e-10
-1.22394e-09
2.63248e-10
-1.18672e-09
1.21656e-10
-1.11523e-09
-6.71295e-11
-1.01634e-09
-1.84768e-10
-9.31612e-10
-1.81836e-10
-8.67878e-10
-2.99182e-10
-7.11715e-10
-6.65492e-10
-6.10751e-10
-4.5304e-10
-4.92576e-10
-4.67617e-10
-3.02891e-10
-6.35247e-10
-1.02768e-10
-9.29775e-10
1.63318e-10
-1.06003e-09
3.24205e-10
-1.12864e-09
5.17851e-10
-1.24025e-09
7.85113e-10
-1.29525e-09
1.09425e-09
-1.36088e-09
1.41541e-09
-1.37295e-09
1.55983e-09
-1.31894e-09
2.29332e-09
-1.62216e-09
2.61149e-09
-1.55039e-09
2.76942e-09
-1.5866e-09
3.04448e-09
-1.25819e-09
3.23985e-09
-1.17542e-09
3.30095e-09
-9.76254e-10
3.32306e-09
-6.19613e-10
3.33248e-09
-4.87799e-10
3.33376e-09
-3.30239e-10
3.2114e-09
-2.47199e-10
3.04895e-09
-1.29324e-10
2.91409e-09
-1.65355e-11
2.78937e-09
5.30226e-11
2.75523e-09
4.17904e-11
2.76696e-09
3.29047e-11
2.77361e-09
4.22059e-11
2.83165e-09
-3.7081e-11
2.86609e-09
-1.62356e-11
2.91883e-09
-5.87331e-11
2.90731e-09
-2.63521e-11
2.92258e-09
-2.95826e-11
2.89176e-09
9.39952e-11
2.8521e-09
1.34791e-10
2.83659e-09
1.73467e-10
2.83275e-09
2.07853e-10
2.76771e-09
3.63773e-10
2.72714e-09
3.7608e-10
2.63832e-09
5.43855e-10
2.57926e-09
5.03476e-10
2.50119e-09
5.70523e-10
2.4645e-09
5.01165e-10
2.36359e-09
5.09478e-10
2.35385e-09
4.21956e-10
2.26152e-09
3.92631e-10
2.25981e-09
3.30185e-10
2.21073e-09
3.01682e-10
2.16083e-09
2.98302e-10
2.12829e-09
2.82168e-10
2.04909e-09
2.62733e-10
1.97512e-09
2.9024e-10
1.91035e-09
2.27978e-10
1.76919e-09
3.65353e-10
1.79926e-09
1.47889e-10
1.69359e-09
3.47822e-10
1.65696e-09
2.14035e-10
1.56308e-09
2.88516e-10
1.52055e-09
4.60529e-10
1.44678e-09
6.30122e-10
1.32951e-09
8.08165e-10
1.16826e-09
1.14304e-09
7.93633e-10
1.4695e-09
5.18958e-10
1.68411e-09
4.40953e-10
1.71664e-09
1.31038e-15
2.6111e-09
-3.9564e-18
5.50032e-18
-3.81239e-18
2.43791e-18
-3.7634e-18
1.46754e-18
-3.67878e-18
7.18533e-19
-3.5399e-18
1.28971e-19
-3.34549e-18
-3.48112e-19
-3.09833e-18
-7.40043e-19
-2.8033e-18
-1.06226e-18
-2.46682e-18
-1.32364e-18
-2.09658e-18
-1.52908e-18
-1.70094e-18
-1.68188e-18
-1.28891e-18
-1.78504e-18
-8.6967e-19
-1.84098e-18
-4.52302e-19
-1.85236e-18
-4.54661e-20
-1.82237e-18
3.42864e-19
-1.7548e-18
7.05628e-19
-1.65402e-18
1.03685e-18
-1.52485e-18
1.33176e-18
-1.37245e-18
1.58681e-18
-1.20209e-18
1.79966e-18
-1.01894e-18
1.96914e-18
-8.27977e-19
2.09509e-18
-6.33744e-19
2.17825e-18
-4.40305e-19
2.22012e-18
-2.51161e-19
2.22276e-18
-6.92212e-20
2.1887e-18
1.03188e-19
2.12075e-18
2.6429e-19
2.02193e-18
4.12804e-19
1.89535e-18
5.47881e-19
1.74414e-18
6.6903e-19
1.57137e-18
7.76042e-19
1.38008e-18
8.6892e-19
1.17318e-18
9.47817e-19
9.5348e-19
1.01297e-18
7.23685e-19
1.06465e-18
4.86407e-19
1.10313e-18
2.44185e-19
1.12865e-18
1.14136e-18
-2.31712e-10
5.85813e-10
-3.58305e-10
4.64166e-10
-5.10664e-10
4.89595e-10
-6.57189e-10
5.70368e-10
-8.0155e-10
5.79554e-10
-9.6408e-10
6.14719e-10
-1.15143e-09
6.62811e-10
-1.27053e-09
5.43075e-10
-1.32121e-09
4.11039e-10
-1.2693e-09
2.11338e-10
-1.1249e-09
-2.2748e-11
-1.13453e-09
-5.75065e-11
-9.80835e-10
-3.38462e-10
-8.71278e-10
-2.91396e-10
-7.46004e-10
-4.24459e-10
-6.48704e-10
-7.62795e-10
-5.10022e-10
-5.91725e-10
-3.65477e-10
-6.12164e-10
-1.88188e-10
-8.12539e-10
-1.15424e-10
-1.00254e-09
-5.03555e-12
-1.17042e-09
1.71291e-10
-1.30497e-09
3.99436e-10
-1.4684e-09
7.03754e-10
-1.59957e-09
1.0353e-09
-1.69243e-09
1.46953e-09
-1.80719e-09
1.90821e-09
-1.75762e-09
2.20764e-09
-1.92159e-09
2.48781e-09
-1.83056e-09
2.70644e-09
-1.80523e-09
2.89408e-09
-1.44583e-09
3.05693e-09
-1.33828e-09
3.0313e-09
-9.50632e-10
3.02383e-09
-6.12141e-10
2.91646e-09
-3.80428e-10
2.79806e-09
-2.11843e-10
2.5831e-09
-3.22465e-11
2.39074e-09
6.30346e-11
2.30226e-09
7.19503e-11
2.27062e-09
8.46542e-11
2.28267e-09
2.97475e-11
2.30004e-09
1.55254e-11
2.3362e-09
6.0521e-12
2.37288e-09
-7.37689e-11
2.40711e-09
-5.04592e-11
2.43189e-09
-8.35148e-11
2.47946e-09
-7.39231e-11
2.482e-09
-3.21253e-11
2.45614e-09
1.19857e-10
2.41812e-09
1.72807e-10
2.38789e-09
2.03702e-10
2.34009e-09
2.55656e-10
2.28526e-09
4.18603e-10
2.2111e-09
4.50232e-10
2.22112e-09
5.33837e-10
2.17769e-09
5.46905e-10
2.20139e-09
5.46825e-10
2.18811e-09
5.14443e-10
2.18292e-09
5.14664e-10
2.1556e-09
4.4928e-10
2.11306e-09
4.35172e-10
2.06039e-09
3.82856e-10
2.00054e-09
3.61531e-10
1.91903e-09
3.79806e-10
1.87833e-09
3.22867e-10
1.76032e-09
3.80739e-10
1.71428e-09
3.36288e-10
1.59513e-09
3.47117e-10
1.53483e-09
4.25659e-10
1.44058e-09
2.42137e-10
1.38741e-09
4.0099e-10
1.32074e-09
2.80696e-10
1.2339e-09
3.75358e-10
1.14707e-09
5.47353e-10
1.09036e-09
6.86831e-10
9.55551e-10
9.42967e-10
9.32056e-10
1.16653e-09
8.3267e-10
1.56888e-09
6.23292e-10
1.89348e-09
3.21015e-10
2.01891e-09
1.37424e-15
2.93211e-09
-5.07644e-18
5.98368e-18
-4.78119e-18
2.1412e-18
-4.51101e-18
1.19424e-18
-4.2671e-18
4.71252e-19
-4.01585e-18
-1.25749e-19
-3.73639e-18
-6.31109e-19
-3.4196e-18
-1.06038e-18
-3.06378e-18
-1.42162e-18
-2.67177e-18
-1.71913e-18
-2.24937e-18
-1.95489e-18
-1.80411e-18
-2.13041e-18
-1.34485e-18
-2.24742e-18
-8.81051e-19
-2.3077e-18
-4.22313e-19
-2.31382e-18
2.21044e-20
-2.26929e-18
4.4365e-19
-2.17861e-18
8.34794e-19
-2.04721e-18
1.18925e-18
-1.88116e-18
1.50213e-18
-1.687e-18
1.76995e-18
-1.47144e-18
1.99063e-18
-1.24105e-18
2.16337e-18
-1.00206e-18
2.28852e-18
-7.60178e-19
2.36739e-18
-5.20411e-19
2.40206e-18
-2.87027e-19
2.39517e-18
-6.35116e-20
2.3498e-18
1.47403e-19
2.26927e-18
3.4369e-19
2.15701e-18
5.23944e-19
2.0165e-18
6.87295e-19
1.85115e-18
8.33304e-19
1.66425e-18
9.61873e-19
1.45898e-18
1.07315e-18
1.23833e-18
1.16743e-18
1.00516e-18
1.24512e-18
7.62167e-19
1.30664e-18
5.11921e-19
1.35238e-18
2.56898e-19
1.38268e-18
1.39776e-18
-4.8546e-11
6.34358e-10
-2.88583e-10
7.042e-10
-4.9502e-10
6.9603e-10
-6.81245e-10
7.56591e-10
-9.07909e-10
8.06216e-10
-1.10469e-09
8.11499e-10
-1.22957e-09
7.87684e-10
-1.323e-09
6.36507e-10
-1.30269e-09
3.90727e-10
-1.2632e-09
1.71846e-10
-1.18978e-09
-9.61685e-11
-1.07029e-09
-1.77004e-10
-1.01015e-09
-3.98603e-10
-7.90449e-10
-5.111e-10
-6.16513e-10
-5.98398e-10
-5.22666e-10
-8.56644e-10
-3.28475e-10
-7.85919e-10
-2.00906e-10
-7.39736e-10
-1.2166e-10
-8.91788e-10
-8.69507e-11
-1.03725e-09
-1.55449e-12
-1.25582e-09
8.72243e-11
-1.39375e-09
2.17564e-10
-1.59874e-09
4.70532e-10
-1.85254e-09
7.84359e-10
-2.00626e-09
1.21647e-09
-2.2393e-09
1.68099e-09
-2.22215e-09
2.02583e-09
-2.26643e-09
2.25474e-09
-2.05948e-09
2.27529e-09
-1.82578e-09
2.2117e-09
-1.38225e-09
2.13874e-09
-1.26532e-09
2.12903e-09
-9.40926e-10
2.19718e-09
-6.80294e-10
2.21517e-09
-3.98415e-10
2.06676e-09
-6.34363e-11
1.84591e-09
1.88597e-10
1.73472e-09
1.7422e-10
1.74361e-09
6.30623e-11
1.76207e-09
6.61938e-11
1.81594e-09
-2.41278e-11
1.86266e-09
-3.11923e-11
1.93321e-09
-6.44928e-11
1.95102e-09
-9.1587e-11
1.97017e-09
-6.96027e-11
1.91776e-09
-3.111e-11
2.01728e-09
-1.73447e-10
2.00215e-09
-1.69898e-11
2.00066e-09
1.21341e-10
1.98448e-09
1.88993e-10
1.94685e-09
2.41326e-10
1.8786e-09
3.23907e-10
1.86555e-09
4.31659e-10
1.85308e-09
4.62696e-10
1.87418e-09
5.12741e-10
1.91517e-09
5.05916e-10
1.94562e-09
5.16371e-10
1.95177e-09
5.08289e-10
1.96765e-09
4.98784e-10
1.93678e-09
4.80155e-10
1.92893e-09
4.43023e-10
1.84337e-09
4.68409e-10
1.79493e-09
4.0997e-10
1.69912e-09
4.75618e-10
1.59909e-09
4.22901e-10
1.50926e-09
4.70561e-10
1.4014e-09
4.44145e-10
1.29746e-09
4.51054e-10
1.30062e-09
4.22504e-10
1.14316e-09
3.99591e-10
1.1361e-09
4.08044e-10
1.0476e-09
3.69198e-10
1.00721e-09
4.15748e-10
9.86971e-10
5.67584e-10
9.87186e-10
6.86612e-10
9.06198e-10
1.02395e-09
8.42257e-10
1.23047e-09
6.94268e-10
1.71687e-09
6.43718e-10
1.94403e-09
3.53784e-10
2.30884e-09
1.41492e-15
3.28589e-09
-6.61775e-18
4.12905e-18
-5.72659e-18
1.24853e-18
-5.23263e-18
6.97009e-19
-4.86287e-18
9.79624e-20
-4.52011e-18
-4.72164e-19
-4.16466e-18
-9.90284e-19
-3.77993e-18
-1.44889e-18
-3.36047e-18
-1.84487e-18
-2.90714e-18
-2.17622e-18
-2.42488e-18
-2.44085e-18
-1.92112e-18
-2.63777e-18
-1.40513e-18
-2.76687e-18
-8.87166e-19
-2.82895e-18
-3.7778e-19
-2.82628e-18
1.12775e-19
-2.76268e-18
5.75058e-19
-2.64349e-18
1.00084e-18
-2.47533e-18
1.38341e-18
-2.26582e-18
1.7177e-18
-2.02317e-18
2.00034e-18
-1.75578e-18
2.22961e-18
-1.47187e-18
2.40525e-18
-1.17914e-18
2.52829e-18
-8.84564e-19
2.60078e-18
-5.94186e-19
2.62557e-18
-3.1306e-19
2.60609e-18
-4.52292e-20
2.54609e-18
2.06227e-19
2.44952e-18
4.39107e-19
2.32036e-18
6.51976e-19
2.16251e-18
8.44039e-19
1.97972e-18
1.01501e-18
1.77553e-18
1.165e-18
1.55327e-18
1.29436e-18
1.31603e-18
1.40364e-18
1.06668e-18
1.49345e-18
8.07907e-19
1.56441e-18
5.42215e-19
1.61707e-18
2.71984e-19
1.65191e-18
1.66925e-18
-1.87197e-10
8.21554e-10
-4.064e-10
9.23401e-10
-6.05883e-10
8.9551e-10
-8.00647e-10
9.51352e-10
-1.01655e-09
1.02212e-09
-1.2039e-09
9.98842e-10
-1.31771e-09
9.01489e-10
-1.33403e-09
6.52824e-10
-1.31501e-09
3.71706e-10
-1.32757e-09
1.84407e-10
-1.29372e-09
-1.30024e-10
-1.15985e-09
-3.10878e-10
-1.06896e-09
-4.89491e-10
-9.06027e-10
-6.74038e-10
-7.99675e-10
-7.04753e-10
-5.89566e-10
-1.06676e-09
-4.56655e-10
-9.18833e-10
-3.45121e-10
-8.51272e-10
-2.70714e-10
-9.66197e-10
-1.72248e-10
-1.13572e-09
-1.22109e-10
-1.30596e-09
4.14301e-12
-1.52001e-09
1.95719e-10
-1.79032e-09
4.34392e-10
-2.09121e-09
7.08092e-10
-2.27996e-09
1.07537e-09
-2.60658e-09
1.47071e-09
-2.61749e-09
1.57795e-09
-2.37368e-09
1.60851e-09
-2.09004e-09
1.58848e-09
-1.80576e-09
1.59046e-09
-1.38422e-09
1.44946e-09
-1.12432e-09
1.29616e-09
-7.87627e-10
1.20731e-09
-5.91443e-10
1.08813e-09
-2.79234e-10
1.0176e-09
7.08606e-12
1.0721e-09
1.34095e-10
1.16059e-09
8.57381e-11
1.23616e-09
-1.25092e-11
1.27971e-09
2.26401e-11
1.3429e-09
-8.73169e-11
1.39415e-09
-8.24458e-11
1.43103e-09
-1.01377e-10
1.39794e-09
-5.84988e-11
1.41704e-09
-8.86974e-11
1.44019e-09
-5.42626e-11
1.42675e-09
-1.60007e-10
1.48296e-09
-7.32049e-11
1.46609e-09
1.38212e-10
1.47426e-09
1.80822e-10
1.47584e-09
2.39752e-10
1.47202e-09
3.27727e-10
1.50986e-09
3.93817e-10
1.56624e-09
4.06313e-10
1.5998e-09
4.79184e-10
1.64942e-09
4.56297e-10
1.6521e-09
5.13686e-10
1.65351e-09
5.0688e-10
1.65738e-09
4.94916e-10
1.65338e-09
4.84149e-10
1.65253e-09
4.43878e-10
1.64294e-09
4.77996e-10
1.5818e-09
4.71107e-10
1.5384e-09
5.19021e-10
1.44769e-09
5.1361e-10
1.40414e-09
5.14109e-10
1.28594e-09
5.62344e-10
1.22498e-09
5.12009e-10
1.17171e-09
4.75779e-10
1.02621e-09
5.45084e-10
9.79231e-10
4.55021e-10
9.34222e-10
4.14204e-10
8.7635e-10
4.73617e-10
8.5978e-10
5.8415e-10
7.83564e-10
7.62824e-10
7.10967e-10
1.09654e-09
5.98278e-10
1.34315e-09
5.71991e-10
1.74315e-09
4.9676e-10
2.01925e-09
3.51946e-10
2.45365e-09
1.45235e-15
3.63783e-09
-6.85027e-18
3.64471e-18
-6.27663e-18
6.7333e-19
-5.83034e-18
2.47308e-19
-5.43181e-18
-3.04268e-19
-5.03717e-18
-8.70628e-19
-4.62231e-18
-1.40904e-18
-4.17505e-18
-1.90012e-18
-3.69104e-18
-2.33289e-18
-3.1715e-18
-2.69977e-18
-2.62181e-18
-2.99453e-18
-2.05022e-18
-3.21327e-18
-1.46721e-18
-3.35368e-18
-8.84495e-19
-3.41532e-18
-3.1418e-19
-3.40006e-18
2.3197e-19
-3.31206e-18
7.43215e-19
-3.1577e-18
1.21035e-18
-2.94515e-18
1.62606e-18
-2.68393e-18
1.98509e-18
-2.38434e-18
2.28426e-18
-2.05686e-18
2.52234e-18
-1.71166e-18
2.69983e-18
-1.35819e-18
2.81867e-18
-1.00484e-18
2.88191e-18
-6.58776e-19
2.8934e-18
-3.25845e-19
2.85754e-18
-1.06051e-20
2.77897e-18
2.83602e-19
2.66239e-18
5.54517e-19
2.51243e-18
8.008e-19
2.33348e-18
1.02186e-18
2.1297e-18
1.2177e-18
1.90489e-18
1.38873e-18
1.66254e-18
1.53565e-18
1.40584e-18
1.65931e-18
1.13764e-18
1.76062e-18
8.60576e-19
1.84046e-18
5.77055e-19
1.8996e-18
2.8932e-19
1.93866e-18
1.95808e-18
-1.53649e-10
9.75201e-10
-3.22067e-10
1.09182e-09
-5.49792e-10
1.12323e-09
-8.57002e-10
1.25856e-09
-1.08112e-09
1.24624e-09
-1.24957e-09
1.16728e-09
-1.32218e-09
9.74095e-10
-1.41813e-09
7.48775e-10
-1.47497e-09
4.2854e-10
-1.45897e-09
1.68405e-10
-1.53466e-09
-5.43308e-11
-1.50043e-09
-3.45111e-10
-1.33877e-09
-6.5116e-10
-1.34535e-09
-6.67456e-10
-1.09518e-09
-9.54924e-10
-8.76546e-10
-1.2854e-09
-8.34065e-10
-9.61317e-10
-6.78272e-10
-1.00707e-09
-5.00728e-10
-1.14374e-09
-3.18076e-10
-1.31838e-09
-2.01752e-10
-1.42228e-09
-1.99997e-11
-1.70176e-09
1.17863e-10
-1.92818e-09
2.11252e-10
-2.18461e-09
4.54735e-10
-2.52345e-09
7.23705e-10
-2.87555e-09
1.01234e-09
-2.90613e-09
1.20049e-09
-2.56183e-09
1.20941e-09
-2.09896e-09
1.09905e-09
-1.69539e-09
9.49101e-10
-1.23428e-09
7.61844e-10
-9.37066e-10
5.83583e-10
-6.09369e-10
4.25236e-10
-4.33099e-10
3.40148e-10
-1.94147e-10
4.37135e-10
-8.99033e-11
5.88059e-10
-1.683e-11
7.08325e-10
-3.453e-11
7.7885e-10
-8.30354e-11
7.93044e-10
8.44542e-12
8.38377e-10
-1.32651e-10
8.58834e-10
-1.02904e-10
9.90565e-10
-2.33109e-10
9.11302e-10
2.07641e-11
9.70451e-10
-1.47847e-10
1.08345e-09
-1.67261e-10
9.81834e-10
-5.83934e-11
1.06528e-09
-1.56651e-10
1.10517e-09
9.83188e-11
1.11765e-09
1.68341e-10
1.14065e-09
2.16755e-10
1.19862e-09
2.69755e-10
1.25173e-09
3.40715e-10
1.25596e-09
4.02081e-10
1.26225e-09
4.72892e-10
1.26475e-09
4.53799e-10
1.32871e-09
4.49721e-10
1.38554e-09
4.50053e-10
1.45251e-09
4.27947e-10
1.52055e-09
4.16107e-10
1.55324e-09
4.11184e-10
1.56189e-09
4.69352e-10
1.52704e-09
5.05959e-10
1.50301e-09
5.43051e-10
1.45012e-09
5.66499e-10
1.3868e-09
5.77424e-10
1.30982e-09
6.39322e-10
1.24e-09
5.81825e-10
1.14102e-09
5.74757e-10
1.02295e-09
6.63155e-10
9.42428e-10
5.3554e-10
8.57545e-10
4.99084e-10
7.11716e-10
6.19443e-10
6.24247e-10
6.71615e-10
5.25507e-10
8.61561e-10
4.98536e-10
1.12351e-09
3.94871e-10
1.44681e-09
2.8869e-10
1.84933e-09
1.71649e-10
2.13629e-09
1.6086e-10
2.46444e-09
1.49596e-15
3.79868e-09
-6.82872e-18
4.6207e-18
-6.70124e-18
5.44202e-19
-6.38063e-18
-7.68152e-20
-5.99702e-18
-6.91698e-19
-5.57456e-18
-1.29704e-18
-5.11248e-18
-1.87517e-18
-4.60702e-18
-2.4097e-18
-4.05721e-18
-2.88688e-18
-3.46609e-18
-3.29509e-18
-2.84055e-18
-3.62427e-18
-2.19063e-18
-3.86737e-18
-1.52886e-18
-4.01955e-18
-8.69226e-19
-4.07894e-18
-2.26185e-19
-4.04691e-18
3.86334e-19
-3.92818e-18
9.55764e-19
-3.73048e-18
1.47157e-18
-3.46401e-18
1.92565e-18
-3.14077e-18
2.31257e-18
-2.7737e-18
2.62945e-18
-2.3759e-18
2.87581e-18
-1.95993e-18
3.05318e-18
-1.53727e-18
3.16473e-18
-1.11795e-18
3.21484e-18
-7.1031e-19
3.20864e-18
-3.20997e-19
3.15175e-18
4.50109e-20
3.04988e-18
3.84242e-19
2.90867e-18
6.94539e-19
2.73349e-18
9.74831e-19
2.52932e-18
1.22491e-18
2.30073e-18
1.44519e-18
2.05181e-18
1.63657e-18
1.78621e-18
1.80019e-18
1.50715e-18
1.93733e-18
1.21748e-18
2.04927e-18
9.19713e-19
2.13721e-18
6.16115e-19
2.2022e-18
3.08738e-19
2.24504e-18
2.26632e-18
-2.75847e-10
1.25105e-09
-5.73961e-10
1.38993e-09
-8.39967e-10
1.38924e-09
-9.53738e-10
1.37233e-09
-1.09991e-09
1.39241e-09
-1.32269e-09
1.39006e-09
-1.43495e-09
1.08635e-09
-1.58353e-09
8.97352e-10
-1.72667e-09
5.71684e-10
-1.85167e-09
2.93402e-10
-1.9433e-09
3.72975e-11
-1.78729e-09
-5.01126e-10
-1.70143e-09
-7.37026e-10
-1.42903e-09
-9.39855e-10
-1.27365e-09
-1.11031e-09
-1.15507e-09
-1.40397e-09
-9.34472e-10
-1.18192e-09
-6.80202e-10
-1.26134e-09
-4.95958e-10
-1.32799e-09
-3.31798e-10
-1.48254e-09
-1.80769e-10
-1.57332e-09
-2.00344e-10
-1.68219e-09
-1.55139e-10
-1.97339e-09
-2.99556e-11
-2.30979e-09
1.81526e-10
-2.73493e-09
3.53368e-10
-3.04739e-09
5.27429e-10
-3.08019e-09
6.80332e-10
-2.71473e-09
6.77683e-10
-2.09632e-09
5.15371e-10
-1.53308e-09
3.85942e-10
-1.10485e-09
1.99272e-10
-7.50399e-10
8.58374e-11
-4.95936e-10
4.68442e-11
-3.94107e-10
8.95482e-11
-2.36853e-10
1.57587e-10
-1.57944e-10
2.23547e-10
-8.27918e-11
2.80924e-10
-9.19077e-11
3.4081e-10
-1.42923e-10
4.07373e-10
-5.81181e-11
4.61231e-10
-1.8651e-10
5.06696e-10
-1.48369e-10
5.73968e-10
-3.00382e-10
5.88017e-10
6.71533e-12
7.13607e-10
-2.73438e-10
7.48439e-10
-2.02093e-10
7.55886e-10
-6.58409e-11
7.68538e-10
-1.69303e-10
7.80174e-10
8.6683e-11
8.3733e-10
1.11185e-10
8.8008e-10
1.74005e-10
8.88661e-10
2.61174e-10
9.46162e-10
2.83214e-10
1.01001e-09
3.38236e-10
1.1012e-09
3.81701e-10
1.17988e-09
3.75115e-10
1.29964e-09
3.29962e-10
1.40578e-09
3.43913e-10
1.47733e-09
3.564e-10
1.51763e-09
3.75808e-10
1.53032e-09
3.9849e-10
1.54944e-09
4.50232e-10
1.53074e-09
5.24659e-10
1.50951e-09
5.64279e-10
1.46052e-09
6.15493e-10
1.40029e-09
6.37656e-10
1.36002e-09
6.7959e-10
1.24436e-09
6.97481e-10
1.11034e-09
7.08772e-10
1.05114e-09
7.22352e-10
8.78372e-10
7.0831e-10
7.20765e-10
6.56688e-10
6.04794e-10
7.35411e-10
5.10413e-10
7.65993e-10
4.13447e-10
9.58523e-10
3.62584e-10
1.17437e-09
2.60468e-10
1.54893e-09
1.76768e-10
1.93302e-09
1.08624e-10
2.20443e-09
1.5865e-10
2.41441e-09
1.51441e-15
3.95733e-09
-7.55126e-18
4.92284e-18
-7.32084e-18
3.12074e-19
-6.99425e-18
-4.0699e-19
-6.60124e-18
-1.08859e-18
-6.15172e-18
-1.75057e-18
-5.64617e-18
-2.38484e-18
-5.08347e-18
-2.97661e-18
-4.46478e-18
-3.50983e-18
-3.79518e-18
-3.969e-18
-3.08364e-18
-4.34015e-18
-2.34281e-18
-4.61254e-18
-1.58824e-18
-4.77843e-18
-8.37205e-19
-4.83421e-18
-1.07456e-19
-4.78078e-18
5.84043e-19
-4.62362e-18
1.22223e-18
-4.37238e-18
1.79481e-18
-4.04001e-18
2.29272e-18
-3.64179e-18
2.71037e-18
-3.19412e-18
3.04542e-18
-2.71339e-18
3.29846e-18
-2.21512e-18
3.47251e-18
-1.71321e-18
3.57237e-18
-1.2195e-18
3.60415e-18
-7.43619e-19
3.57465e-18
-2.92912e-19
3.49098e-18
1.27355e-19
3.36018e-18
5.13785e-19
3.18897e-18
8.64546e-19
2.98356e-18
1.17906e-18
2.74961e-18
1.45772e-18
2.49211e-18
1.70159e-18
2.21543e-18
1.91217e-18
1.92334e-18
2.09122e-18
1.61909e-18
2.24055e-18
1.30542e-18
2.36192e-18
9.84695e-19
2.45693e-18
6.58961e-19
2.52694e-18
3.30017e-19