/*--------------------------------*- C++ -*----------------------------------*\
  =========                 |
  \\      /  F ield         | OpenFOAM: The Open Source CFD Toolbox
   \\    /   O peration     | Website:  https://openfoam.org
    \\  /    A nd           | Version:  6
     \\/     M anipulation  |
\*---------------------------------------------------------------------------*/
FoamFile
{
    version     2.0;
    format      ascii;
    class       volScalarField;
    location    "3200";
    object      T;
}
// * * * * * * * * * * * * * * * * * * * * * * * * * * * * * * * * * * * * * //

dimensions      [0 0 0 1 0 0 0];

internalField   nonuniform List<scalar> 
4800
(
552.485
552.356
552.228
552.101
551.976
551.855
551.737
551.624
551.516
551.412
551.314
551.221
551.133
551.049
550.97
550.895
550.824
550.757
550.692
550.631
550.572
550.516
550.462
550.41
550.361
550.313
550.267
550.223
550.18
550.139
550.099
550.06
550.021
549.982
549.942
549.903
549.863
549.823
549.782
549.74
549.697
549.652
549.607
549.56
549.513
549.465
549.417
549.367
549.317
549.265
549.212
549.158
549.102
549.045
548.985
548.924
548.861
548.796
548.729
548.66
548.589
548.515
548.439
548.361
548.279
548.195
548.107
548.014
547.918
547.816
547.708
547.594
547.473
547.343
547.205
547.057
546.898
546.731
546.554
546.372
546.187
546.003
545.824
545.65
545.479
545.312
545.149
544.988
544.831
544.676
544.523
544.373
544.225
544.079
543.935
543.793
543.651
543.512
543.373
543.235
543.099
542.964
542.829
542.695
542.562
542.429
542.298
542.166
542.035
541.905
541.775
541.645
541.515
541.386
541.257
541.128
541
540.871
540.743
540.614
552.485
552.354
552.225
552.098
551.973
551.851
551.733
551.62
551.511
551.407
551.309
551.216
551.127
551.044
550.965
550.89
550.819
550.751
550.686
550.624
550.565
550.509
550.455
550.403
550.353
550.305
550.259
550.214
550.171
550.129
550.089
550.049
550.01
549.971
549.932
549.892
549.852
549.811
549.77
549.727
549.684
549.639
549.594
549.547
549.5
549.452
549.403
549.354
549.304
549.252
549.2
549.146
549.09
549.033
548.973
548.912
548.849
548.784
548.717
548.649
548.578
548.504
548.429
548.35
548.269
548.184
548.096
548.003
547.906
547.804
547.696
547.582
547.461
547.332
547.194
547.046
546.889
546.722
546.547
546.366
546.181
545.998
545.82
545.645
545.475
545.308
545.145
544.985
544.827
544.673
544.521
544.371
544.223
544.077
543.933
543.791
543.65
543.51
543.372
543.234
543.098
542.963
542.828
542.694
542.561
542.429
542.297
542.166
542.035
541.904
541.774
541.645
541.515
541.386
541.257
541.128
541
540.871
540.743
540.614
552.484
552.352
552.222
552.093
551.968
551.845
551.726
551.612
551.503
551.399
551.3
551.206
551.118
551.035
550.955
550.88
550.809
550.741
550.675
550.613
550.553
550.496
550.441
550.388
550.337
550.288
550.242
550.196
550.152
550.11
550.069
550.029
549.99
549.951
549.911
549.871
549.83
549.788
549.746
549.703
549.659
549.614
549.568
549.522
549.475
549.427
549.378
549.329
549.278
549.227
549.175
549.121
549.066
549.009
548.95
548.889
548.827
548.762
548.695
548.627
548.556
548.483
548.408
548.329
548.248
548.163
548.075
547.982
547.885
547.782
547.674
547.559
547.438
547.309
547.172
547.026
546.87
546.705
546.532
546.352
546.17
545.988
545.81
545.636
545.467
545.3
545.138
544.978
544.821
544.667
544.515
544.366
544.219
544.073
543.929
543.787
543.647
543.507
543.369
543.232
543.096
542.961
542.826
542.693
542.56
542.427
542.296
542.165
542.034
541.903
541.774
541.644
541.515
541.385
541.257
541.128
540.999
540.871
540.742
540.614
552.483
552.35
552.218
552.088
551.96
551.837
551.717
551.602
551.492
551.388
551.289
551.196
551.108
551.024
550.945
550.869
550.797
550.728
550.662
550.598
550.537
550.478
550.422
550.367
550.315
550.265
550.217
550.171
550.126
550.083
550.041
550.001
549.96
549.921
549.88
549.84
549.798
549.756
549.712
549.669
549.624
549.578
549.532
549.485
549.438
549.39
549.341
549.292
549.242
549.191
549.139
549.085
549.031
548.974
548.916
548.856
548.794
548.729
548.663
548.595
548.525
548.452
548.377
548.299
548.218
548.133
548.045
547.952
547.854
547.751
547.642
547.528
547.406
547.278
547.141
546.997
546.843
546.68
546.51
546.334
546.153
545.972
545.796
545.623
545.454
545.289
545.127
544.968
544.812
544.658
544.507
544.359
544.212
544.067
543.924
543.782
543.642
543.503
543.365
543.228
543.092
542.958
542.823
542.69
542.557
542.425
542.294
542.163
542.032
541.902
541.772
541.643
541.514
541.385
541.256
541.127
540.999
540.871
540.742
540.614
552.482
552.347
552.213
552.081
551.952
551.827
551.707
551.591
551.481
551.376
551.278
551.184
551.096
551.013
550.933
550.857
550.784
550.714
550.646
550.581
550.518
550.457
550.398
550.341
550.287
550.235
550.185
550.137
550.091
550.047
550.005
549.963
549.922
549.882
549.841
549.799
549.757
549.713
549.669
549.624
549.579
549.533
549.486
549.439
549.391
549.343
549.294
549.245
549.195
549.144
549.093
549.04
548.985
548.93
548.872
548.813
548.751
548.688
548.622
548.555
548.485
548.413
548.338
548.261
548.18
548.095
548.006
547.913
547.815
547.711
547.603
547.488
547.367
547.239
547.104
546.961
546.809
546.649
546.482
546.308
546.131
545.952
545.777
545.605
545.438
545.273
545.112
544.955
544.799
544.647
544.497
544.349
544.203
544.059
543.916
543.775
543.635
543.497
543.36
543.223
543.088
542.954
542.82
542.687
542.555
542.423
542.292
542.161
542.03
541.9
541.771
541.642
541.513
541.384
541.255
541.127
540.998
540.87
540.742
540.614
552.481
552.344
552.208
552.075
551.944
551.818
551.696
551.58
551.47
551.365
551.266
551.173
551.084
551
550.92
550.843
550.769
550.698
550.628
550.561
550.495
550.431
550.37
550.31
550.253
550.199
550.147
550.097
550.05
550.004
549.96
549.918
549.876
549.834
549.792
549.75
549.707
549.662
549.617
549.571
549.525
549.478
549.431
549.383
549.335
549.286
549.238
549.189
549.139
549.089
549.038
548.985
548.932
548.876
548.82
548.761
548.7
548.638
548.573
548.507
548.438
548.366
548.292
548.215
548.134
548.049
547.961
547.867
547.769
547.665
547.556
547.441
547.321
547.194
547.06
546.918
546.77
546.613
546.449
546.279
546.104
545.927
545.753
545.583
545.417
545.254
545.095
544.938
544.784
544.633
544.484
544.337
544.192
544.048
543.907
543.766
543.627
543.49
543.353
543.217
543.083
542.949
542.815
542.683
542.551
542.419
542.289
542.158
542.028
541.898
541.769
541.64
541.511
541.383
541.254
541.126
540.998
540.87
540.742
540.614
552.48
552.342
552.204
552.069
551.937
551.809
551.687
551.57
551.459
551.354
551.255
551.161
551.072
550.987
550.906
550.828
550.753
550.68
550.609
550.539
550.47
550.403
550.338
550.275
550.215
550.157
550.103
550.051
550.001
549.954
549.909
549.865
549.822
549.779
549.736
549.693
549.649
549.604
549.557
549.511
549.463
549.416
549.368
549.32
549.271
549.222
549.173
549.125
549.075
549.026
548.975
548.923
548.87
548.815
548.759
548.701
548.642
548.58
548.517
548.451
548.383
548.312
548.239
548.162
548.082
547.998
547.909
547.816
547.718
547.614
547.505
547.391
547.27
547.144
547.012
546.872
546.726
546.573
546.412
546.245
546.073
545.898
545.726
545.557
545.393
545.231
545.073
544.918
544.766
544.616
544.468
544.322
544.178
544.036
543.896
543.756
543.618
543.481
543.345
543.21
543.076
542.943
542.81
542.678
542.546
542.416
542.285
542.155
542.025
541.896
541.767
541.638
541.51
541.381
541.253
541.125
540.997
540.869
540.742
540.614
552.48
552.339
552.2
552.063
551.93
551.801
551.678
551.56
551.449
551.343
551.243
551.149
551.059
550.974
550.892
550.812
550.736
550.661
550.587
550.514
550.443
550.372
550.304
550.237
550.173
550.112
550.054
549.999
549.948
549.899
549.852
549.807
549.762
549.718
549.674
549.63
549.584
549.538
549.491
549.443
549.395
549.347
549.298
549.249
549.201
549.152
549.103
549.054
549.005
548.955
548.905
548.854
548.801
548.747
548.692
548.635
548.576
548.516
548.453
548.389
548.322
548.252
548.18
548.104
548.025
547.942
547.854
547.761
547.663
547.56
547.451
547.337
547.217
547.091
546.96
546.822
546.678
546.527
546.37
546.207
546.038
545.864
545.694
545.527
545.364
545.205
545.048
544.895
544.744
544.596
544.45
544.306
544.163
544.022
543.883
543.745
543.607
543.471
543.336
543.202
543.069
542.936
542.804
542.672
542.542
542.411
542.281
542.151
542.022
541.893
541.764
541.636
541.508
541.38
541.252
541.124
540.996
540.869
540.741
540.614
552.479
552.337
552.197
552.059
551.924
551.795
551.671
551.553
551.44
551.334
551.233
551.137
551.046
550.96
550.877
550.796
550.718
550.641
550.565
550.489
550.415
550.341
550.268
550.197
550.129
550.063
550.002
549.945
549.891
549.841
549.792
549.745
549.699
549.653
549.608
549.562
549.515
549.468
549.419
549.371
549.322
549.272
549.223
549.174
549.125
549.076
549.027
548.978
548.929
548.88
548.83
548.779
548.727
548.674
548.619
548.563
548.505
548.445
548.384
548.32
548.255
548.187
548.116
548.041
547.963
547.881
547.794
547.702
547.605
547.503
547.394
547.28
547.16
547.035
546.905
546.769
546.627
546.478
546.324
546.163
545.998
545.826
545.657
545.493
545.332
545.174
545.02
544.869
544.72
544.574
544.429
544.287
544.146
544.007
543.868
543.731
543.595
543.461
543.326
543.193
543.061
542.929
542.797
542.666
542.536
542.406
542.276
542.147
542.018
541.89
541.762
541.633
541.505
541.378
541.25
541.123
540.995
540.868
540.741
540.614
552.478
552.335
552.194
552.055
551.921
551.79
551.666
551.547
551.433
551.326
551.224
551.127
551.036
550.948
550.864
550.781
550.701
550.622
550.543
550.465
550.387
550.31
550.232
550.157
550.083
550.014
549.948
549.888
549.833
549.78
549.73
549.682
549.634
549.586
549.538
549.491
549.442
549.393
549.344
549.294
549.244
549.194
549.144
549.095
549.045
548.995
548.946
548.897
548.849
548.799
548.75
548.699
548.647
548.595
548.541
548.485
548.428
548.369
548.309
548.247
548.182
548.116
548.046
547.973
547.897
547.816
547.73
547.64
547.544
547.442
547.334
547.22
547.101
546.977
546.847
546.713
546.573
546.427
546.275
546.117
545.954
545.783
545.617
545.454
545.295
545.14
544.989
544.84
544.693
544.549
544.407
544.266
544.127
543.989
543.853
543.717
543.582
543.448
543.315
543.183
543.051
542.92
542.79
542.66
542.53
542.4
542.272
542.143
542.014
541.886
541.758
541.631
541.503
541.376
541.249
541.121
540.994
540.867
540.74
540.613
552.478
552.335
552.193
552.054
551.919
551.789
551.663
551.544
551.43
551.321
551.219
551.122
551.029
550.94
550.854
550.77
550.687
550.606
550.524
550.443
550.361
550.279
550.198
550.117
550.039
549.964
549.895
549.831
549.773
549.719
549.667
549.617
549.567
549.517
549.467
549.417
549.367
549.317
549.266
549.215
549.164
549.113
549.062
549.012
548.962
548.912
548.863
548.813
548.765
548.715
548.666
548.615
548.564
548.511
548.458
548.403
548.346
548.288
548.229
548.168
548.105
548.039
547.971
547.9
547.825
547.745
547.662
547.573
547.478
547.377
547.271
547.158
547.04
546.916
546.788
546.655
546.517
546.373
546.223
546.067
545.906
545.737
545.572
545.411
545.255
545.103
544.954
544.807
544.664
544.522
544.382
544.244
544.106
543.97
543.835
543.701
543.568
543.435
543.304
543.172
543.042
542.911
542.782
542.652
542.523
542.395
542.266
542.138
542.01
541.883
541.755
541.628
541.501
541.374
541.247
541.12
540.993
540.867
540.74
540.613
552.478
552.335
552.193
552.055
551.92
551.789
551.664
551.544
551.43
551.322
551.22
551.122
551.028
550.937
550.849
550.762
550.677
550.592
550.508
550.423
550.338
550.252
550.166
550.08
549.997
549.917
549.842
549.775
549.714
549.658
549.605
549.552
549.5
549.448
549.395
549.343
549.291
549.238
549.186
549.134
549.082
549.03
548.978
548.927
548.876
548.826
548.776
548.726
548.677
548.627
548.578
548.527
548.476
548.424
548.37
548.315
548.259
548.202
548.144
548.083
548.021
547.957
547.89
547.82
547.747
547.67
547.588
547.501
547.408
547.309
547.204
547.092
546.975
546.853
546.726
546.594
546.457
546.315
546.167
546.013
545.853
545.685
545.521
545.363
545.21
545.061
544.915
544.772
544.632
544.493
544.355
544.219
544.084
543.95
543.817
543.684
543.553
543.422
543.291
543.161
543.031
542.902
542.773
542.644
542.516
542.388
542.26
542.133
542.006
541.878
541.752
541.625
541.498
541.371
541.245
541.118
540.992
540.866
540.739
540.613
552.479
552.336
552.196
552.058
551.924
551.794
551.669
551.55
551.437
551.329
551.226
551.127
551.032
550.939
550.849
550.76
550.672
550.585
550.497
550.408
550.319
550.229
550.138
550.047
549.958
549.873
549.794
549.721
549.656
549.598
549.542
549.487
549.433
549.378
549.323
549.269
549.214
549.159
549.105
549.051
548.998
548.945
548.892
548.84
548.788
548.737
548.686
548.636
548.586
548.536
548.486
548.435
548.384
548.332
548.278
548.224
548.168
548.111
548.053
547.994
547.932
547.869
547.804
547.735
547.664
547.589
547.509
547.424
547.333
547.236
547.133
547.023
546.908
546.786
546.66
546.529
546.394
546.253
546.107
545.954
545.795
545.627
545.465
545.31
545.161
545.016
544.874
544.735
544.598
544.462
544.327
544.194
544.061
543.929
543.797
543.667
543.537
543.407
543.277
543.149
543.02
542.892
542.764
542.636
542.509
542.381
542.254
542.128
542.001
541.874
541.748
541.621
541.495
541.369
541.243
541.117
540.991
540.865
540.739
540.613
552.479
552.337
552.198
552.062
551.93
551.802
551.678
551.561
551.449
551.342
551.239
551.139
551.043
550.949
550.856
550.764
550.674
550.583
550.492
550.399
550.306
550.211
550.115
550.02
549.925
549.834
549.749
549.67
549.6
549.538
549.48
549.423
549.366
549.309
549.252
549.194
549.137
549.08
549.023
548.967
548.912
548.858
548.804
548.75
548.697
548.645
548.593
548.542
548.492
548.441
548.39
548.339
548.288
548.235
548.182
548.128
548.072
548.016
547.958
547.899
547.838
547.776
547.712
547.645
547.575
547.502
547.424
547.342
547.253
547.159
547.058
546.95
546.837
546.717
546.592
546.462
546.327
546.187
546.041
545.889
545.731
545.561
545.402
545.251
545.106
544.966
544.83
544.695
544.562
544.429
544.298
544.167
544.036
543.907
543.777
543.648
543.52
543.391
543.263
543.136
543.008
542.881
542.754
542.628
542.501
542.374
542.248
542.122
541.996
541.87
541.744
541.618
541.492
541.366
541.241
541.115
540.99
540.864
540.738
540.613
552.481
552.343
552.206
552.071
551.94
551.814
551.693
551.577
551.467
551.361
551.258
551.158
551.061
550.965
550.87
550.776
550.682
550.588
550.493
550.397
550.299
550.199
550.098
549.997
549.897
549.8
549.707
549.622
549.547
549.48
549.418
549.359
549.3
549.24
549.18
549.12
549.06
549
548.941
548.883
548.826
548.769
548.714
548.659
548.604
548.551
548.498
548.446
548.395
548.343
548.292
548.24
548.188
548.136
548.082
548.028
547.972
547.916
547.859
547.8
547.74
547.678
547.615
547.55
547.482
547.41
547.335
547.255
547.169
547.077
546.979
546.873
546.762
546.644
546.52
546.391
546.256
546.116
545.969
545.815
545.657
545.486
545.329
545.184
545.047
544.914
544.783
544.653
544.524
544.395
544.267
544.139
544.011
543.884
543.756
543.629
543.502
543.375
543.249
543.123
542.996
542.87
542.745
542.619
542.493
542.367
542.242
542.116
541.991
541.865
541.74
541.615
541.489
541.364
541.239
541.113
540.988
540.863
540.738
540.613
552.482
552.346
552.212
552.08
551.952
551.829
551.711
551.598
551.49
551.385
551.283
551.184
551.085
550.988
550.891
550.795
550.698
550.601
550.502
550.401
550.298
550.194
550.088
549.981
549.875
549.771
549.671
549.579
549.495
549.422
549.356
549.294
549.233
549.171
549.109
549.046
548.983
548.921
548.859
548.798
548.738
548.68
548.622
548.566
548.51
548.455
548.401
548.348
548.295
548.243
548.191
548.138
548.086
548.033
547.979
547.925
547.869
547.813
547.756
547.697
547.638
547.577
547.515
547.45
547.384
547.315
547.241
547.163
547.08
546.991
546.895
546.793
546.684
546.568
546.446
546.317
546.182
546.04
545.891
545.734
545.571
545.395
545.245
545.11
544.983
544.859
544.735
544.611
544.486
544.361
544.236
544.111
543.985
543.86
543.735
543.609
543.484
543.359
543.234
543.109
542.984
542.859
542.734
542.61
542.485
542.36
542.235
542.11
541.985
541.861
541.736
541.611
541.486
541.361
541.236
541.112
540.987
540.862
540.737
540.612
552.483
552.351
552.22
552.091
551.967
551.847
551.733
551.623
551.517
551.414
551.314
551.214
551.116
551.018
550.92
550.821
550.722
550.621
550.519
550.413
550.305
550.195
550.084
549.972
549.86
549.75
549.642
549.54
549.448
549.367
549.295
549.23
549.166
549.102
549.038
548.972
548.907
548.842
548.777
548.713
548.651
548.59
548.53
548.471
548.414
548.357
548.302
548.248
548.194
548.141
548.088
548.034
547.981
547.927
547.874
547.819
547.764
547.707
547.65
547.591
547.532
547.472
547.41
547.347
547.282
547.215
547.144
547.068
546.988
546.901
546.808
546.708
546.602
546.488
546.368
546.24
546.105
545.961
545.807
545.642
545.468
545.279
545.144
545.029
544.916
544.803
544.686
544.568
544.448
544.327
544.205
544.082
543.959
543.836
543.713
543.589
543.466
543.343
543.219
543.095
542.972
542.848
542.724
542.6
542.476
542.352
542.228
542.104
541.98
541.856
541.732
541.607
541.483
541.359
541.234
541.11
540.985
540.861
540.737
540.612
552.485
552.356
552.229
552.105
551.985
551.869
551.757
551.65
551.547
551.446
551.348
551.25
551.152
551.053
550.954
550.854
550.753
550.649
550.542
550.432
550.319
550.203
550.086
549.967
549.849
549.732
549.617
549.507
549.405
549.315
549.236
549.166
549.099
549.034
548.968
548.9
548.832
548.764
548.696
548.629
548.563
548.499
548.437
548.376
548.317
548.258
548.201
548.146
548.091
548.037
547.983
547.929
547.874
547.82
547.766
547.711
547.655
547.599
547.541
547.483
547.424
547.364
547.303
547.24
547.176
547.11
547.041
546.968
546.89
546.807
546.717
546.62
546.517
546.406
546.288
546.162
546.027
545.881
545.722
545.544
545.343
545.11
545.025
544.944
544.851
544.749
544.64
544.527
544.411
544.293
544.173
544.053
543.933
543.812
543.691
543.569
543.448
543.326
543.204
543.082
542.959
542.837
542.714
542.591
542.468
542.345
542.222
542.098
541.975
541.851
541.727
541.604
541.48
541.356
541.232
541.108
540.984
540.86
540.736
540.612
552.488
552.363
552.241
552.121
552.004
551.892
551.783
551.679
551.579
551.481
551.383
551.287
551.19
551.091
550.992
550.891
550.789
550.682
550.572
550.457
550.339
550.217
550.093
549.968
549.843
549.72
549.597
549.477
549.366
549.267
549.181
549.104
549.034
548.967
548.899
548.83
548.759
548.688
548.617
548.547
548.478
548.41
548.345
548.281
548.219
548.159
548.1
548.042
547.986
547.931
547.876
547.821
547.766
547.711
547.656
547.601
547.545
547.488
547.431
547.372
547.313
547.253
547.193
547.131
547.068
547.003
546.936
546.865
546.79
546.709
546.622
546.529
546.429
546.322
546.207
546.083
545.95
545.805
545.642
545.452
545.204
544.789
544.899
544.871
544.796
544.701
544.597
544.488
544.375
544.259
544.143
544.025
543.907
543.788
543.669
543.549
543.429
543.309
543.189
543.068
542.947
542.825
542.704
542.582
542.46
542.337
542.215
542.092
541.969
541.846
541.723
541.6
541.477
541.353
541.23
541.106
540.983
540.859
540.736
540.612
552.49
552.371
552.253
552.137
552.025
551.917
551.812
551.711
551.613
551.516
551.421
551.325
551.229
551.132
551.033
550.932
550.828
550.719
550.605
550.486
550.362
550.234
550.104
549.973
549.841
549.711
549.582
549.454
549.334
549.226
549.13
549.046
548.971
548.901
548.832
548.761
548.688
548.615
548.541
548.467
548.395
548.324
548.254
548.187
548.122
548.059
547.998
547.939
547.881
547.824
547.767
547.711
547.655
547.6
547.544
547.488
547.432
547.375
547.318
547.259
547.2
547.141
547.081
547.019
546.957
546.893
546.827
546.758
546.686
546.608
546.525
546.435
546.339
546.235
546.124
546.005
545.876
545.735
545.578
545.4
545.194
544.973
544.911
544.843
544.759
544.664
544.56
544.452
544.341
544.227
544.113
543.997
543.881
543.764
543.647
543.529
543.411
543.293
543.174
543.054
542.934
542.814
542.694
542.573
542.452
542.33
542.208
542.086
541.964
541.842
541.719
541.597
541.474
541.351
541.228
541.105
540.981
540.858
540.735
540.612
552.493
552.378
552.265
552.154
552.046
551.942
551.841
551.743
551.648
551.554
551.46
551.366
551.271
551.174
551.076
550.974
550.869
550.758
550.64
550.516
550.387
550.254
550.117
549.98
549.842
549.706
549.571
549.437
549.308
549.19
549.085
548.994
548.913
548.84
548.768
548.695
548.62
548.544
548.467
548.39
548.314
548.239
548.166
548.095
548.026
547.959
547.895
547.834
547.773
547.715
547.657
547.599
547.543
547.486
547.43
547.374
547.317
547.26
547.203
547.145
547.086
547.027
546.967
546.906
546.844
546.781
546.716
546.649
546.579
546.504
546.424
546.338
546.246
546.147
546.042
545.928
545.805
545.673
545.527
545.369
545.201
545.04
544.929
544.832
544.734
544.633
544.527
544.419
544.308
544.196
544.084
543.97
543.856
543.741
543.625
543.51
543.393
543.276
543.159
543.041
542.922
542.803
542.684
542.564
542.443
542.323
542.202
542.081
541.959
541.837
541.715
541.593
541.471
541.348
541.226
541.103
540.98
540.857
540.734
540.611
552.495
552.386
552.278
552.172
552.068
551.968
551.87
551.776
551.683
551.591
551.499
551.407
551.313
551.217
551.118
551.016
550.909
550.796
550.675
550.546
550.411
550.272
550.129
549.985
549.842
549.702
549.563
549.424
549.288
549.162
549.049
548.948
548.861
548.783
548.708
548.632
548.555
548.476
548.397
548.317
548.237
548.158
548.081
548.005
547.931
547.861
547.793
547.728
547.665
547.604
547.544
547.486
547.428
547.371
547.314
547.258
547.201
547.144
547.087
547.029
546.97
546.911
546.852
546.791
546.73
546.668
546.604
546.538
546.47
546.398
546.321
546.239
546.152
546.058
545.958
545.851
545.737
545.614
545.482
545.343
545.198
545.056
544.933
544.821
544.713
544.605
544.497
544.387
544.277
544.166
544.055
543.943
543.831
543.718
543.604
543.49
543.375
543.26
543.144
543.027
542.91
542.792
542.674
542.555
542.436
542.316
542.196
542.075
541.954
541.833
541.712
541.59
541.468
541.346
541.224
541.101
540.979
540.856
540.734
540.611
552.498
552.394
552.291
552.189
552.09
551.994
551.9
551.808
551.718
551.629
551.538
551.447
551.354
551.259
551.16
551.057
550.948
550.831
550.706
550.573
550.433
550.288
550.139
549.989
549.841
549.697
549.556
549.415
549.276
549.143
549.022
548.913
548.816
548.732
548.653
548.574
548.494
548.412
548.33
548.248
548.165
548.082
547.999
547.919
547.84
547.765
547.693
547.624
547.558
547.494
547.432
547.372
547.313
547.255
547.198
547.141
547.085
547.028
546.971
546.914
546.855
546.796
546.737
546.676
546.615
546.554
546.491
546.427
546.36
546.29
546.217
546.138
546.056
545.967
545.874
545.774
545.668
545.556
545.437
545.312
545.182
545.05
544.923
544.804
544.69
544.578
544.466
544.356
544.246
544.136
544.026
543.916
543.806
543.695
543.583
543.471
543.358
543.245
543.13
543.015
542.899
542.782
542.665
542.547
542.428
542.309
542.19
542.07
541.95
541.829
541.708
541.587
541.465
541.344
541.222
541.1
540.978
540.856
540.733
540.611
552.5
552.401
552.303
552.206
552.111
552.019
551.928
551.84
551.753
551.665
551.576
551.486
551.394
551.299
551.2
551.095
550.984
550.864
550.733
550.596
550.452
550.302
550.146
549.99
549.838
549.691
549.55
549.409
549.269
549.133
549.005
548.886
548.781
548.688
548.602
548.519
548.436
548.353
548.269
548.184
548.099
548.012
547.926
547.84
547.756
547.675
547.597
547.524
547.454
547.386
547.322
547.259
547.199
547.141
547.083
547.027
546.971
546.915
546.858
546.801
546.743
546.684
546.624
546.564
546.503
546.442
546.381
546.317
546.252
546.184
546.113
546.038
545.959
545.876
545.789
545.697
545.6
545.497
545.389
545.275
545.157
545.031
544.904
544.782
544.663
544.548
544.435
544.324
544.214
544.106
543.998
543.889
543.781
543.672
543.563
543.453
543.342
543.23
543.117
543.003
542.888
542.772
542.656
542.539
542.421
542.303
542.184
542.065
541.945
541.825
541.705
541.584
541.463
541.342
541.22
541.098
540.977
540.855
540.733
540.611
552.502
552.408
552.314
552.222
552.131
552.042
551.956
551.87
551.785
551.699
551.611
551.522
551.43
551.334
551.234
551.128
551.014
550.89
550.756
550.614
550.466
550.312
550.152
549.991
549.834
549.684
549.542
549.403
549.265
549.13
548.997
548.869
548.752
548.649
548.557
548.469
548.383
548.299
548.215
548.129
548.042
547.952
547.861
547.77
547.68
547.592
547.509
547.429
547.355
547.284
547.216
547.152
547.091
547.032
546.974
546.918
546.863
546.808
546.752
546.694
546.635
546.576
546.516
546.457
546.397
546.337
546.276
546.213
546.148
546.081
546.011
545.939
545.864
545.786
545.704
545.619
545.53
545.437
545.339
545.236
545.126
545.006
544.879
544.753
544.632
544.514
544.4
544.289
544.181
544.074
543.968
543.863
543.757
543.65
543.543
543.435
543.326
543.215
543.104
542.991
542.878
542.763
542.648
542.532
542.415
542.297
542.179
542.06
541.941
541.822
541.701
541.581
541.46
541.34
541.218
541.097
540.976
540.854
540.733
540.611
552.505
552.414
552.324
552.236
552.15
552.065
551.981
551.897
551.814
551.729
551.642
551.553
551.461
551.364
551.263
551.155
551.038
550.91
550.77
550.623
550.471
550.314
550.153
549.991
549.833
549.68
549.535
549.395
549.26
549.126
548.991
548.856
548.729
548.618
548.518
548.426
548.337
548.252
548.169
548.084
547.997
547.908
547.812
547.715
547.618
547.523
547.433
547.346
547.269
547.193
547.123
547.056
546.994
546.935
546.877
546.822
546.767
546.714
546.659
546.597
546.534
546.476
546.417
546.36
546.303
546.244
546.185
546.12
546.052
545.986
545.915
545.844
545.773
545.701
545.625
545.545
545.463
545.378
545.289
545.195
545.094
544.98
544.852
544.721
544.594
544.475
544.361
544.252
544.146
544.042
543.939
543.836
543.733
543.629
543.524
543.418
543.311
543.202
543.092
542.981
542.868
542.755
542.641
542.525
542.409
542.292
542.174
542.056
541.938
541.818
541.699
541.579
541.458
541.338
541.217
541.096
540.975
540.853
540.732
540.611
552.506
552.419
552.332
552.248
552.164
552.082
552.001
551.919
551.836
551.752
551.665
551.576
551.483
551.386
551.283
551.173
551.055
550.923
550.778
550.626
550.472
550.316
550.156
549.996
549.837
549.681
549.532
549.391
549.259
549.125
548.99
548.848
548.718
548.601
548.49
548.399
548.303
548.215
548.134
548.048
547.966
547.886
547.786
547.685
547.583
547.479
547.384
547.281
547.208
547.122
547.057
546.983
546.922
546.862
546.802
546.749
546.696
546.642
546.578
546.513
546.443
546.39
546.337
546.28
546.229
546.171
546.107
546.043
545.965
545.905
545.831
545.759
545.695
545.632
545.566
545.487
545.41
545.328
545.246
545.158
545.065
544.958
544.831
544.684
544.549
544.43
544.317
544.21
544.108
544.008
543.909
543.809
543.71
543.609
543.506
543.402
543.297
543.19
543.081
542.971
542.86
542.748
542.634
542.519
542.404
542.287
542.17
542.053
541.934
541.815
541.696
541.577
541.457
541.336
541.216
541.095
540.974
540.853
540.732
540.611
552.507
552.421
552.337
552.255
552.174
552.094
552.013
551.933
551.85
551.765
551.676
551.586
551.492
551.394
551.29
551.18
551.062
550.929
550.78
550.624
550.469
550.318
550.161
550.005
549.848
549.69
549.534
549.388
549.271
549.128
548.993
548.849
548.728
548.614
548.506
548.382
548.28
548.164
548.062
547.975
547.886
547.803
547.713
547.627
547.535
547.438
547.349
547.256
547.174
547.088
547.011
546.936
546.869
546.804
546.742
546.68
546.624
546.56
546.496
546.425
546.36
546.297
546.241
546.186
546.13
546.087
546.028
545.969
545.91
545.848
545.763
545.668
545.632
545.584
545.57
545.479
545.423
545.306
545.223
545.121
545.028
544.926
544.812
544.6
544.485
544.377
544.265
544.164
544.068
543.973
543.878
543.783
543.687
543.589
543.49
543.388
543.285
543.179
543.072
542.963
542.853
542.741
542.628
542.514
542.399
542.283
542.167
542.05
541.932
541.813
541.694
541.575
541.455
541.335
541.215
541.094
540.973
540.852
540.732
540.611
552.507
552.421
552.338
552.256
552.176
552.097
552.016
551.935
551.851
551.764
551.673
551.582
551.487
551.388
551.283
551.175
551.062
550.93
550.78
550.622
550.469
550.337
550.178
550.023
549.871
549.71
549.549
549.392
549.247
549.103
548.967
548.825
548.693
548.563
548.451
548.329
548.242
548.126
548.02
547.913
547.811
547.707
547.626
547.544
547.468
547.399
547.322
547.252
547.165
547.09
547.006
546.934
546.87
546.801
546.74
546.664
546.602
546.521
546.464
546.399
546.336
546.274
546.216
546.159
546.092
546.055
545.982
545.915
545.857
545.803
545.722
545.644
545.589
545.543
545.491
545.411
545.344
545.259
545.185
545.099
545.013
544.92
544.803
544.558
544.44
544.301
544.201
544.112
544.025
543.938
543.849
543.758
543.666
543.571
543.475
543.375
543.274
543.17
543.064
542.956
542.847
542.736
542.624
542.51
542.396
542.28
542.164
542.047
541.929
541.811
541.692
541.573
541.454
541.334
541.214
541.093
540.973
540.852
540.731
540.61
552.505
552.418
552.333
552.25
552.17
552.088
552.006
551.923
551.837
551.75
551.66
551.569
551.473
551.368
551.259
551.152
551.061
550.93
550.785
550.63
550.471
550.313
550.157
550.002
549.84
549.669
549.509
549.363
549.223
549.081
548.946
548.8
548.669
548.525
548.398
548.267
548.173
548.063
547.979
547.861
547.765
547.659
547.554
547.458
547.374
547.3
547.237
547.183
547.132
547.08
547.027
546.988
546.924
546.859
546.782
546.705
546.628
546.553
546.465
546.403
546.333
546.268
546.183
546.126
546.064
546.009
545.933
545.876
545.812
545.754
545.675
545.606
545.539
545.481
545.411
545.338
545.27
545.204
545.141
545.068
544.992
544.897
544.703
544.425
544.358
544.241
544.134
544.056
543.982
543.904
543.82
543.734
543.646
543.556
543.462
543.365
543.265
543.163
543.058
542.951
542.842
542.732
542.62
542.507
542.393
542.278
542.162
542.045
541.928
541.81
541.691
541.572
541.453
541.333
541.213
541.093
540.972
540.852
540.731
540.61
552.502
552.409
552.32
552.232
552.154
552.066
551.985
551.902
551.816
551.738
551.658
551.578
551.475
551.35
551.229
551.107
550.993
550.869
550.741
550.593
550.45
550.288
550.136
549.972
549.813
549.641
549.47
549.304
549.159
549.008
548.889
548.748
548.63
548.468
548.342
548.203
548.107
547.993
547.909
547.786
547.7
547.596
547.499
547.399
547.334
547.247
547.195
547.138
547.075
547.03
546.974
546.926
546.871
546.811
546.735
546.667
546.582
546.511
546.426
546.366
546.298
546.229
546.15
546.085
546.019
545.953
545.883
545.816
545.75
545.68
545.608
545.537
545.47
545.406
545.34
545.278
545.219
545.162
545.103
545.033
544.946
544.781
544.597
544.373
544.266
544.166
544.091
544.004
543.944
543.876
543.794
543.71
543.629
543.544
543.453
543.358
543.259
543.158
543.054
542.947
542.839
542.729
542.617
542.505
542.391
542.276
542.16
542.044
541.926
541.809
541.69
541.571
541.452
541.332