/*--------------------------------*- C++ -*----------------------------------*\
  =========                 |
  \\      /  F ield         | OpenFOAM: The Open Source CFD Toolbox
   \\    /   O peration     | Website:  https://openfoam.org
    \\  /    A nd           | Version:  6
     \\/     M anipulation  |
\*---------------------------------------------------------------------------*/
FoamFile
{
    version     2.0;
    format      ascii;
    class       surfaceScalarField;
    location    "2400";
    object      phi;
}
// * * * * * * * * * * * * * * * * * * * * * * * * * * * * * * * * * * * * * //

dimensions      [0 3 -1 0 0 0 0];

internalField   nonuniform List<scalar> 
9440
(
3.97129e-15
-3.96998e-15
1.0937e-14
-3.13396e-15
1.647e-14
-2.46773e-15
2.12663e-14
-1.85489e-15
2.53199e-14
-1.14166e-15
2.85438e-14
-3.29409e-16
3.08427e-14
5.73254e-16
3.21315e-14
1.55956e-15
3.23394e-14
2.60666e-15
3.15141e-14
3.60415e-15
2.96553e-14
4.60122e-15
2.68414e-14
5.50835e-15
2.32549e-14
6.23527e-15
1.86296e-14
7.22013e-15
1.30898e-14
8.07796e-15
6.30798e-15
9.2611e-15
-1.357e-15
1.00782e-14
-7.99497e-15
8.98175e-15
-1.50064e-14
9.28388e-15
-2.32016e-14
1.0391e-14
-3.26383e-14
1.155e-14
-3.90354e-14
8.43096e-15
-4.68891e-14
9.79993e-15
-5.45872e-14
9.55425e-15
-6.16837e-14
8.86352e-15
-6.84902e-14
8.47748e-15
-7.49702e-14
8.05285e-15
-8.10208e-14
7.52355e-15
-8.65582e-14
6.9078e-15
-9.14983e-14
6.20772e-15
-9.58196e-14
5.48011e-15
-9.94809e-14
4.714e-15
-1.02448e-13
3.90869e-15
-1.04657e-13
3.04094e-15
-1.06056e-13
2.11479e-15
-1.06705e-13
1.25225e-15
-1.06479e-13
2.62733e-16
-1.05443e-13
-6.62296e-16
-1.03516e-13
-1.67133e-15
-1.00734e-13
-2.64466e-15
-9.70665e-14
-3.64384e-15
-9.25603e-14
-4.6023e-15
-8.72106e-14
-5.56195e-15
-8.10431e-14
-6.49671e-15
-7.41564e-14
-7.33067e-15
-6.65198e-14
-8.19691e-15
-5.82065e-14
-8.98533e-15
-4.93676e-14
-9.62503e-15
-3.99982e-14
-1.02697e-14
-3.02408e-14
-1.07665e-14
-2.01782e-14
-1.11802e-14
-9.92727e-15
-1.14793e-14
3.92651e-16
-1.16497e-14
1.06319e-14
-1.16735e-14
2.06754e-14
-1.15799e-14
3.04413e-14
-1.1399e-14
3.97924e-14
-1.10814e-14
4.86244e-14
-1.06549e-14
5.68016e-14
-1.00892e-14
6.42929e-14
-9.49089e-15
7.10101e-14
-8.8023e-15
7.68944e-14
-8.04744e-15
8.19059e-14
-7.25181e-15
8.60336e-14
-6.44276e-15
8.92537e-14
-5.60785e-15
9.16536e-14
-4.85123e-15
9.32504e-14
-4.11464e-15
9.41208e-14
-3.44233e-15
9.44033e-14
-2.91215e-15
9.43011e-14
-2.57388e-15
9.4025e-14
-2.44965e-15
9.39334e-14
-2.67429e-15
9.46783e-14
-3.54883e-15
9.78603e-14
-6.01897e-15
1.07629e-13
-1.26356e-14
1.36679e-13
-3.19421e-14
2.25286e-13
-9.15168e-14
9.77321e-14
1.24628e-13
1.82127e-15
9.2973e-14
5.63822e-21
4.54236e-20
5.5206e-21
4.20311e-23
5.39399e-21
1.25266e-22
5.02466e-21
1.38915e-22
4.64664e-21
1.36278e-22
4.28764e-21
1.30591e-22
3.95165e-21
1.24594e-22
3.63856e-21
1.18856e-22
3.34781e-21
1.13531e-22
3.07871e-21
1.08567e-22
2.83015e-21
1.0407e-22
2.60097e-21
9.9727e-23
2.3905e-21
9.59013e-23
2.19735e-21
9.22823e-23
2.02065e-21
8.90253e-23
1.8593e-21
8.59751e-23
1.71195e-21
8.31834e-23
1.57764e-21
8.07535e-23
1.45522e-21
7.86339e-23
1.34319e-21
7.6721e-23
1.24067e-21
7.50149e-23
1.14647e-21
7.3464e-23
1.05972e-21
7.21198e-23
9.79175e-22
7.09824e-23
9.04108e-22
7.01036e-23
8.33746e-22
6.92247e-23
7.67365e-22
6.85526e-23
7.04189e-22
6.79839e-23
6.43702e-22
6.73118e-23
5.85541e-22
6.70016e-23
5.29189e-22
6.67431e-23
4.74388e-22
6.6588e-23
4.20725e-22
6.65363e-23
3.67992e-22
6.64329e-23
3.15725e-22
6.64329e-23
2.63974e-22
6.65363e-23
2.12741e-22
6.66397e-23
1.61714e-22
6.70016e-23
1.10015e-22
6.76737e-23
5.7334e-23
6.93798e-23
7.41878e-23
5.26019e-15
-5.39125e-15
1.14896e-14
-3.24765e-15
1.65881e-14
-2.24622e-15
2.11968e-14
-1.25595e-15
2.52348e-14
-1.32734e-17
2.84869e-14
1.54205e-15
3.08219e-14
3.31337e-15
3.21211e-14
5.28041e-15
3.24416e-14
7.24416e-15
3.16658e-14
9.26317e-15
2.98618e-14
1.12079e-14
2.71175e-14
1.29686e-14
2.35633e-14
1.44125e-14
1.89904e-14
1.63124e-14
1.34271e-14
1.80548e-14
6.20425e-15
2.0777e-14
-1.07324e-15
2.15272e-14
-7.68828e-15
1.96377e-14
-1.4907e-14
2.04042e-14
-2.35133e-14
2.27608e-14
-3.24488e-14
2.40978e-14
-3.93129e-14
1.87511e-14
-4.71901e-14
2.09791e-14
-5.50122e-14
2.05084e-14
-6.20824e-14
1.8898e-14
-6.90128e-14
1.81966e-14
-7.55609e-14
1.72119e-14
-8.16584e-14
1.60434e-14
-8.72082e-14
1.46987e-14
-9.22015e-14
1.32484e-14
-9.65736e-14
1.17077e-14
-1.0031e-13
1.01077e-14
-1.03265e-13
8.3231e-15
-1.05528e-13
6.56074e-15
-1.0701e-13
4.64848e-15
-1.07623e-13
2.71163e-15
-1.07433e-13
7.10193e-16
-1.06418e-13
-1.24615e-15
-1.04497e-13
-3.36727e-15
-1.01689e-13
-5.43475e-15
-9.80532e-14
-7.47562e-15
-9.34973e-14
-9.56185e-15
-8.81289e-14
-1.15433e-14
-8.19679e-14
-1.34747e-14
-7.4948e-14
-1.53719e-14
-6.72572e-14
-1.71165e-14
-5.8878e-14
-1.87967e-14
-4.99167e-14
-2.02171e-14
-4.04544e-14
-2.1557e-14
-3.05889e-14
-2.26527e-14
-2.04363e-14
-2.35449e-14
-1.00952e-14
-2.42209e-14
3.1908e-16
-2.46476e-14
1.07114e-14
-2.4829e-14
2.08754e-14
-2.46803e-14
3.0782e-14
-2.44133e-14
4.02549e-14
-2.38279e-14
4.91728e-14
-2.30101e-14
5.74305e-14
-2.19347e-14
6.50013e-14
-2.08027e-14
7.17693e-14
-1.94536e-14
7.77285e-14
-1.80281e-14
8.27474e-14
-1.64233e-14
8.68368e-14
-1.48086e-14
9.00672e-14
-1.32298e-14
9.24051e-14
-1.16981e-14
9.38886e-14
-1.02022e-14
9.46443e-14
-8.90349e-15
9.4812e-14
-7.8738e-15
9.45071e-14
-7.14211e-15
9.38309e-14
-6.72412e-15
9.3031e-14
-6.88898e-15
9.23667e-14
-7.96161e-15
9.17113e-14
-1.04863e-14
8.96375e-14
-1.57318e-14
7.82722e-14
-2.57782e-14
2.41382e-14
-4.26116e-14
2.80549e-14
1.15463e-13
1.40724e-15
1.1549e-13
5.77058e-21
9.1695e-20
5.60384e-21
8.46826e-23
5.40764e-21
1.04587e-22
5.02197e-21
1.11876e-22
4.641e-21
1.14254e-22
4.28169e-21
1.15392e-22
3.94591e-21
1.16477e-22
3.63318e-21
1.17873e-22
3.34284e-21
1.19579e-22
3.07427e-21
1.21492e-22
2.82586e-21
1.23405e-22
2.59709e-21
1.2568e-22
2.38688e-21
1.28006e-22
2.19405e-21
1.30178e-22
2.01755e-21
1.3209e-22
1.85656e-21
1.34158e-22
1.70947e-21
1.35864e-22
1.57557e-21
1.37415e-22
1.4533e-21
1.38708e-22
1.34148e-21
1.39845e-22
1.23912e-21
1.40828e-22
1.14523e-21
1.41655e-22
1.05853e-21
1.42223e-22
9.78245e-22
1.42637e-22
9.0323e-22
1.42999e-22
8.33126e-22
1.43309e-22
7.66796e-22
1.43412e-22
7.03569e-22
1.43568e-22
6.43443e-22
1.43774e-22
5.85282e-22
1.43878e-22
5.29034e-22
1.44136e-22
4.74336e-22
1.44291e-22
4.20725e-22
1.44602e-22
3.6794e-22
1.45067e-22
3.15828e-22
1.4548e-22
2.64077e-22
1.45894e-22
2.13154e-22
1.46669e-22
1.62283e-22
1.47342e-22
1.11721e-22
1.48169e-22
6.21419e-23
1.49306e-22
1.50185e-22
4.18608e-15
-6.51112e-15
1.15542e-14
-5.30601e-15
1.78269e-14
-3.91838e-15
2.32819e-14
-2.1956e-15
2.78422e-14
-9.34485e-17
3.1479e-14
2.35203e-15
3.40166e-14
5.18059e-15
3.54695e-14
8.19029e-15
3.57169e-14
1.12984e-14
3.48408e-14
1.4382e-14
3.2823e-14
1.74007e-14
2.98708e-14
2.0019e-14
2.59011e-14
2.24011e-14
2.10156e-14
2.51289e-14
1.49346e-14
2.79688e-14
6.80051e-15
3.26456e-14
-9.63069e-17
3.20519e-14
-6.88558e-15
2.99404e-14
-1.47258e-14
3.16428e-14
-2.42524e-14
3.55619e-14
-3.20692e-14
3.50596e-14
-3.97122e-14
2.94073e-14
-4.78025e-14
3.19426e-14
-5.58032e-14
3.12408e-14
-6.29205e-14
2.86004e-14
-7.0073e-14
2.77832e-14
-7.67686e-14
2.61843e-14
-8.29806e-14
2.43769e-14
-8.86609e-14
2.23364e-14
-9.37792e-14
2.01603e-14
-9.82676e-14
1.78182e-14
-1.02047e-13
1.53426e-14
-1.05101e-13
1.26586e-14
-1.07404e-13
9.97019e-15
-1.08923e-13
7.09768e-15
-1.0962e-13
4.16272e-15
-1.09475e-13
1.13817e-15
-1.0848e-13
-1.84713e-15
-1.06539e-13
-5.09685e-15
-1.0373e-13
-8.2123e-15
-1.0004e-13
-1.13156e-14
-9.55231e-14
-1.44073e-14
-9.0059e-14
-1.75207e-14
-8.3782e-14
-2.04416e-14
-7.66829e-14
-2.33416e-14
-6.88766e-14
-2.59696e-14
-6.03801e-14
-2.85154e-14
-5.12411e-14
-3.07508e-14
-4.16008e-14
-3.27633e-14
-3.15026e-14
-3.4487e-14
-2.11103e-14
-3.58384e-14
-1.05009e-14
-3.68962e-14
1.64131e-16
-3.75355e-14
1.07723e-14
-3.78179e-14
2.11884e-14
-3.76329e-14
3.1382e-14
-3.72863e-14
4.10748e-14
-3.63444e-14
5.01948e-14
-3.5095e-14
5.86643e-14
-3.35057e-14
6.63819e-14
-3.17527e-14
7.3276e-14
-2.97026e-14
7.9249e-14
-2.74732e-14
8.43018e-14
-2.50626e-14
8.84483e-14
-2.26535e-14
9.15803e-14
-2.0162e-14
9.37751e-14
-1.77869e-14
9.5129e-14
-1.55417e-14
9.56864e-14
-1.35318e-14
9.55632e-14
-1.18986e-14
9.4842e-14
-1.06433e-14
9.36117e-14
-9.77733e-15
9.20255e-14
-9.64455e-15
8.98386e-14
-1.01672e-14
8.63897e-14
-1.14752e-14
7.92918e-14
-1.31082e-14
6.20484e-14
-1.30422e-14
1.802e-14
-3.11906e-15
1.54168e-14
1.13518e-13
1.33995e-15
1.25917e-13
5.7706e-21
1.38178e-19
5.62369e-21
1.27696e-22
5.41493e-21
1.35968e-22
5.02435e-21
1.40517e-22
4.64209e-21
1.44033e-22
4.28278e-21
1.476e-22
3.94731e-21
1.51529e-22
3.63489e-21
1.56027e-22
3.34471e-21
1.60835e-22
3.07623e-21
1.66108e-22
2.82808e-21
1.71485e-22
2.59942e-21
1.7681e-22
2.38905e-21
1.81928e-22
2.19601e-21
1.86943e-22
2.01961e-21
1.91803e-22
1.85831e-21
1.96094e-22
1.71102e-21
1.99971e-22
1.57681e-21
2.03486e-22
1.45444e-21
2.06485e-22
1.34251e-21
2.08967e-22
1.23989e-21
2.11086e-22
1.1458e-21
2.12792e-22
1.05895e-21
2.14291e-22
9.78658e-22
2.15377e-22
9.0354e-22
2.16153e-22
8.33178e-22
2.16876e-22
7.67003e-22
2.17445e-22
7.03724e-22
2.17807e-22
6.43547e-22
2.18272e-22
5.85489e-22
2.18686e-22
5.29189e-22
2.19203e-22
4.74647e-22
2.19772e-22
4.21138e-22
2.20392e-22
3.68354e-22
2.20909e-22
3.16293e-22
2.21788e-22
2.64801e-22
2.22615e-22
2.13826e-22
2.23597e-22
1.6311e-22
2.24735e-22
1.1291e-22
2.25872e-22
6.30725e-23
2.26958e-22
2.2794e-22
5.20846e-15
-8.78307e-15
1.29025e-14
-7.81987e-15
1.9617e-14
-6.1306e-15
2.55519e-14
-3.71013e-15
3.05836e-14
-7.38448e-16
3.44856e-14
2.80262e-15
3.7265e-14
6.71789e-15
3.88193e-14
1.09025e-14
3.90941e-14
1.5238e-14
3.80852e-14
1.95451e-14
3.59482e-14
2.36247e-14
3.27943e-14
2.71861e-14
2.82588e-14
3.0871e-14
2.32459e-14
3.39863e-14
1.65564e-14
3.84131e-14
7.29312e-15
4.55663e-14
1.09051e-15
4.18079e-14
-5.91054e-15
4.03828e-14
-1.45429e-14
4.36025e-14
-2.57605e-14
4.99863e-14
-3.12898e-14
4.36729e-14
-4.05373e-14
4.16005e-14
-4.88236e-14
4.3047e-14
-5.69672e-14
4.20552e-14
-6.43036e-14
3.84688e-14
-7.17378e-14
3.76006e-14
-7.86162e-14
3.52928e-14
-8.50386e-14
3.28765e-14
-9.08803e-14
3.00972e-14
-9.61843e-14
2.72177e-14
-1.00781e-13
2.40077e-14
-1.04672e-13
2.06581e-14
-1.07863e-13
1.71041e-14
-1.10252e-13
1.34444e-14
-1.11863e-13
9.62376e-15
-1.1264e-13
5.67394e-15
-1.12569e-13
1.63101e-15
-1.11576e-13
-2.45408e-15
-1.097e-13
-6.76648e-15
-1.06912e-13
-1.09674e-14
-1.03156e-13
-1.52196e-14
-9.85223e-14
-1.93644e-14
-9.30276e-14
-2.35161e-14
-8.66168e-14
-2.75296e-14
-7.94093e-14
-3.13999e-14
-7.13734e-14
-3.5029e-14
-6.26365e-14
-3.84471e-14
-5.32625e-14
-4.14923e-14
-4.33268e-14
-4.42306e-14
-3.29189e-14
-4.65906e-14
-2.21608e-14
-4.84561e-14
-1.12189e-14
-4.98554e-14
-1.40634e-16
-5.07892e-14
1.08828e-14
-5.11704e-14
2.17304e-14
-5.09572e-14
3.22236e-14
-5.04047e-14
4.22353e-14
-4.91195e-14
5.17034e-14
-4.74643e-14
6.04852e-14
-4.53181e-14
6.84444e-14
-4.2872e-14
7.55135e-14
-4.00509e-14
8.16653e-14
-3.70252e-14
8.67919e-14
-3.36986e-14
9.08807e-14
-3.03587e-14
9.3966e-14
-2.69629e-14
9.60093e-14
-2.36412e-14
9.71409e-14
-2.05726e-14
9.73826e-14
-1.77546e-14
9.68251e-14
-1.53987e-14
9.55926e-14
-1.35373e-14
9.38035e-14
-1.21777e-14
9.14704e-14
-1.15612e-14
8.85486e-14
-1.15439e-14
8.46293e-14
-1.18971e-14
7.89753e-14
-1.18335e-14
7.13256e-14
-9.80237e-15
6.65208e-14
-2.74453e-15
1.27826e-14
1.62808e-13
1.31989e-15
1.33823e-13
5.71767e-21
1.84819e-19
5.63196e-21
1.71485e-22
5.41948e-21
1.74794e-22
5.02797e-21
1.77379e-22
4.64565e-21
1.81153e-22
4.28676e-21
1.86374e-22
3.9518e-21
1.92578e-22
3.6397e-21
1.99609e-22
3.34998e-21
2.07312e-22
3.08161e-21
2.15325e-22
2.8334e-21
2.23649e-22
2.60459e-21
2.31972e-22
2.39402e-21
2.39882e-22
2.20082e-21
2.47327e-22
2.0239e-21
2.54358e-22
1.86219e-21
2.60769e-22
1.71449e-21
2.66456e-22
1.57986e-21
2.71522e-22
1.45692e-21
2.75968e-22
1.34458e-21
2.79639e-22
1.2416e-21
2.82637e-22
1.14735e-21
2.85222e-22
1.06003e-21
2.87135e-22
9.79382e-22
2.88893e-22
9.04264e-22
2.9003e-22
8.33746e-22
2.91013e-22
7.67313e-22
2.91891e-22
7.04241e-22
2.92615e-22
6.4396e-22
2.93339e-22
5.86006e-22
2.94114e-22
5.29809e-22
2.94942e-22
4.75215e-22
2.95872e-22
4.21655e-22
2.96803e-22
3.69181e-22
2.97992e-22
3.17069e-22
2.99181e-22
2.65783e-22
3.0068e-22
2.14964e-22
3.02128e-22
1.64247e-22
3.03575e-22
1.14048e-22
3.05126e-22
6.39514e-23
3.06419e-22
3.07504e-22
6.29681e-15
-1.21807e-14
1.46903e-14
-1.10921e-14
2.19523e-14
-8.94e-15
2.84967e-14
-5.88219e-15
3.39753e-14
-1.8768e-15
3.83133e-14
2.77052e-15
4.13738e-14
7.92427e-15
4.30729e-14
1.34236e-14
4.33626e-14
1.91183e-14
4.23126e-14
2.47067e-14
4.00202e-14
2.99587e-14
3.64741e-14
3.47023e-14
3.13903e-14
3.98447e-14
2.61989e-14
4.29814e-14
1.80108e-14
5.03158e-14
9.07334e-15
5.81206e-14
2.72816e-15
5.16644e-14
-5.17377e-15
5.16909e-14
-1.49884e-14
5.67074e-14
-2.64119e-14
6.45794e-14
-3.14514e-14
5.17575e-14
-4.1548e-14
5.46172e-14
-5.02616e-14
5.45443e-14
-5.83568e-14
5.27957e-14
-6.6275e-14
4.88915e-14
-7.39512e-14
4.76351e-14
-8.11134e-14
4.46615e-14
-8.77588e-14
4.15757e-14
-9.38892e-14
3.81212e-14
-9.9356e-14
3.44221e-14
-1.04128e-13
3.03558e-14
-1.08234e-13
2.61725e-14
-1.11592e-13
2.1703e-14
-1.14116e-13
1.70418e-14
-1.15859e-13
1.22669e-14
-1.1669e-13
7.23287e-15
-1.16724e-13
2.22167e-15
-1.15766e-13
-3.03205e-15
-1.13876e-13
-8.44782e-15
-1.11107e-13
-1.37049e-14
-1.07359e-13
-1.91123e-14
-1.02662e-13
-2.43809e-14
-9.70491e-14
-2.96221e-14
-9.04742e-14
-3.4772e-14
-8.30238e-14
-3.9694e-14
-7.47429e-14
-4.43238e-14
-6.57133e-14
-4.86576e-14
-5.59631e-14
-5.25901e-14
-4.56383e-14
-5.60704e-14
-3.47985e-14
-5.91097e-14
-2.35394e-14
-6.15565e-14
-1.20981e-14
-6.32933e-14
-4.9485e-16
-6.45462e-14
1.10372e-14
-6.50062e-14
2.2373e-14
-6.47412e-14
3.34083e-14
-6.40335e-14
4.39275e-14
-6.23692e-14
5.3832e-14
-6.02361e-14
6.30188e-14
-5.75028e-14
7.12832e-14
-5.42616e-14
7.85891e-14
-5.0604e-14
8.49116e-14
-4.67088e-14
9.00943e-14
-4.23514e-14
9.42274e-14
-3.80664e-14
9.72174e-14
-3.36297e-14
9.90716e-14
-2.92643e-14
9.98837e-14
-2.52399e-14
9.97406e-14
-2.15521e-14
9.87285e-14
-1.83999e-14
9.6853e-14
-1.5744e-14
9.44351e-14
-1.39086e-14
9.14714e-14
-1.27956e-14
8.81963e-14
-1.25192e-14
8.47218e-14
-1.27148e-14
8.1365e-14
-1.28057e-14
7.90465e-14
-1.18413e-14
7.57291e-14
-3.8091e-15
1.24024e-14
2.21737e-13
1.30182e-15
1.41411e-13
5.74414e-21
2.31195e-19
5.63532e-21
2.1517e-22
5.42212e-21
2.15946e-22
5.03169e-21
2.17342e-22
4.65082e-21
2.21581e-22
4.29296e-21
2.27888e-22
3.95878e-21
2.36212e-22
3.64745e-21
2.45776e-22
3.35799e-21
2.56374e-22
3.08988e-21
2.67386e-22
2.84168e-21
2.78553e-22
2.6125e-21
2.8941e-22
2.40151e-21
3.0006e-22
2.2078e-21
3.09934e-22
2.03031e-21
3.19033e-22
1.86793e-21
3.27408e-22
1.71955e-21
3.34801e-22
1.58426e-21
3.41471e-22
1.46065e-21
3.46899e-22
1.34758e-21
3.51552e-22
1.24423e-21
3.55533e-22
1.14921e-21
3.58738e-22
1.06174e-21
3.61323e-22
9.80519e-22
3.63236e-22
9.05298e-22
3.65045e-22
8.34625e-22
3.66338e-22
7.67986e-22
3.6732e-22
7.04965e-22
3.68457e-22
6.44736e-22
3.69543e-22
5.86833e-22
3.7068e-22
5.30792e-22
3.71921e-22
4.76198e-22
3.73265e-22
4.22844e-22
3.74816e-22
3.70422e-22
3.76626e-22
3.18516e-22
3.78487e-22
2.67283e-22
3.80658e-22
2.16411e-22
3.82726e-22
1.6585e-22
3.84691e-22
1.1534e-22
3.86604e-22
6.50371e-23
3.88465e-22
3.90067e-22
7.42716e-15
-1.67366e-14
1.68783e-14
-1.5488e-14
2.51253e-14
-1.2787e-14
3.24199e-14
-8.85874e-15
3.86004e-14
-3.76999e-15
4.34901e-14
2.13902e-15
4.69249e-14
8.70528e-15
4.87603e-14
1.57596e-14
4.90708e-14
2.29266e-14
4.79362e-14
2.98982e-14
4.54704e-14
3.64205e-14
4.09298e-14
4.31665e-14
3.61241e-14
4.84937e-14
2.98004e-14
5.30653e-14
1.86829e-14
6.5101e-14
1.25571e-14
6.78213e-14
4.97815e-15
6.2713e-14
-4.2954e-15
6.43288e-14
-1.64106e-14
7.20755e-14
-2.49542e-14
7.62579e-14
-3.25112e-14
6.23244e-14
-4.26942e-14
6.76821e-14
-5.20617e-14
6.66635e-14
-6.01407e-14
6.34908e-14
-6.88588e-14
6.0082e-14
-7.67809e-14
5.78843e-14
-8.42998e-14
5.43611e-14
-9.12649e-14
5.05704e-14
-9.76565e-14
4.6385e-14
-1.03336e-13
4.1819e-14
-1.08393e-13
3.69656e-14
-1.12683e-13
3.18544e-14
-1.16201e-13
2.64485e-14
-1.18955e-13
2.08536e-14
-1.20782e-13
1.49825e-14
-1.21825e-13
8.99544e-15
-1.21982e-13
2.9255e-15
-1.21048e-13
-3.58657e-15
-1.19266e-13
-1.00265e-14
-1.16459e-13
-1.6483e-14
-1.12679e-13
-2.30337e-14
-1.07855e-13
-2.95205e-14
-1.0209e-13
-3.58768e-14
-9.53473e-14
-4.21752e-14
-8.76996e-14
-4.81739e-14
-7.90815e-14
-5.3942e-14
-6.97049e-14
-5.92003e-14
-5.95362e-14
-6.40922e-14
-4.86565e-14
-6.84471e-14
-3.72476e-14
-7.21771e-14
-2.5439e-14
-7.51824e-14
-1.32848e-14
-7.74223e-14
-9.87561e-16
-7.89686e-14
1.11896e-14
-7.94565e-14
2.3251e-14
-7.92235e-14
3.4933e-14
-7.82755e-14
4.60658e-14
-7.62016e-14
5.65589e-14
-7.35605e-14
6.62469e-14
-7.01516e-14
7.49771e-14
-6.6078e-14
8.25838e-14
-6.14163e-14
8.91644e-14
-5.66049e-14
9.45353e-14
-5.11513e-14
9.85965e-14
-4.56577e-14
1.01475e-13
-4.01366e-14
1.03097e-13
-3.46066e-14
1.036e-13
-2.95488e-14
1.03004e-13
-2.48428e-14
1.0132e-13
-2.0679e-14
9.88167e-14
-1.72696e-14
9.55472e-14
-1.47301e-14
9.18063e-14
-1.32027e-14
8.7962e-14
-1.28722e-14
8.46861e-14
-1.36759e-14
8.30045e-14
-1.53992e-14
8.39207e-14
-1.70606e-14
7.2982e-14
2.80485e-15
-1.03891e-16
2.90482e-13
1.28211e-15
1.36562e-13
5.74414e-21
2.76619e-19
5.6361e-21
2.58701e-22
5.42351e-21
2.57977e-22
5.03593e-21
2.58959e-22
4.65713e-21
2.63819e-22
4.30129e-21
2.71781e-22
3.96835e-21
2.82534e-22
3.658e-21
2.94838e-22
3.36906e-21
3.08176e-22
3.10105e-21
3.22135e-22
2.85258e-21
3.36146e-22
2.62309e-21
3.49897e-22
2.41144e-21
3.62874e-22
2.21695e-21
3.75178e-22
2.03869e-21
3.86345e-22
1.87527e-21
3.96478e-22
1.72622e-21
4.05525e-22
1.58979e-21
4.13125e-22
1.4653e-21
4.19846e-22
1.35161e-21
4.25378e-22
1.24739e-21
4.29927e-22
1.15185e-21
4.33649e-22
1.06365e-21
4.36545e-22
9.82277e-22
4.39026e-22
9.0659e-22
4.40887e-22
8.35659e-22
4.42593e-22
7.69123e-22
4.44144e-22
7.0605e-22
4.45592e-22
6.45873e-22
4.47039e-22
5.88074e-22
4.48694e-22
5.32084e-22
4.50555e-22
4.77749e-22
4.52726e-22
4.24654e-22
4.55104e-22
3.72283e-22
4.57689e-22
3.20688e-22
4.60481e-22
2.69299e-22
4.63325e-22
2.18427e-22
4.6622e-22
1.67763e-22
4.69011e-22
1.17201e-22
4.71441e-22
6.66914e-23
4.73768e-22
4.75681e-22
8.88272e-15
-2.27827e-14
1.96265e-14
-2.12503e-14
2.90979e-14
-1.79253e-14
3.748e-14
-1.29824e-14
4.45843e-14
-6.65197e-15
5.01199e-14
7.96487e-16
5.39607e-14
9.0193e-15
5.60482e-14
1.77839e-14
5.64009e-14
2.6633e-14
5.52276e-14
3.50679e-14
5.17938e-14
4.37881e-14
4.68364e-14
5.19886e-14
4.23251e-14
5.67918e-14
3.28969e-14
6.61997e-14
2.04169e-14
8.11942e-14
1.63012e-14
7.5459e-14
7.42287e-15
7.50115e-14
-3.22333e-15
7.82903e-14
-1.95983e-14
9.16552e-14
-2.17345e-14
8.14792e-14
-3.42605e-14
7.78164e-14
-4.43033e-14
8.05657e-14
-5.43011e-14
7.93699e-14
-6.24402e-14
7.42029e-14
-7.19395e-14
7.20182e-14
-8.02831e-14
6.85185e-14
-8.8219e-14
6.44425e-14
-9.55289e-14
5.98768e-14
-1.02208e-13
5.49087e-14
-1.08256e-13
4.95566e-14
-1.13546e-13
4.37881e-14
-1.18107e-13
3.77854e-14
-1.21869e-13
3.14143e-14
-1.24787e-13
2.48148e-14
-1.26862e-13
1.79338e-14
-1.28033e-13
1.08734e-14
-1.28292e-13
3.72546e-15
-1.27547e-13
-3.96505e-15
-1.25755e-13
-1.16221e-14
-1.22959e-13
-1.92469e-14
-1.1915e-13
-2.69881e-14
-1.1421e-13
-3.47735e-14
-1.08297e-13
-4.22737e-14
-1.01393e-13
-4.97321e-14
-9.33957e-14
-5.69883e-14
-8.44444e-14
-6.38768e-14
-7.45345e-14
-7.02638e-14
-6.38283e-14
-7.61141e-14
-5.23388e-14
-8.14085e-14
-4.02659e-14
-8.58847e-14
-2.76733e-14
-8.95636e-14
-1.4733e-14
-9.23045e-14
-1.64347e-15
-9.41521e-14
1.13801e-14
-9.47223e-14
2.43497e-14
-9.45772e-14
3.67995e-14
-9.32474e-14
4.88096e-14
-9.08686e-14
5.99905e-14
-8.75323e-14
7.03263e-14
-8.34044e-14
7.95601e-14
-7.83476e-14
8.77167e-14
-7.27272e-14
9.45485e-14
-6.67044e-14
9.99943e-14
-5.99708e-14
1.0416e-13
-5.33e-14
1.06876e-13
-4.64249e-14
1.08262e-13
-3.9655e-14
1.08335e-13
-3.33701e-14
1.07159e-13
-2.7498e-14
1.04795e-13
-2.22155e-14
1.0134e-13
-1.77827e-14
9.70037e-14
-1.44231e-14
9.21256e-14
-1.24057e-14
8.71078e-14
-1.19823e-14
8.3012e-14
-1.37542e-14
8.12434e-14
-1.78394e-14
8.37044e-14
-2.3755e-14
-1.43e-15
8.36788e-14
-4.14089e-15
2.8892e-13
1.25844e-15
1.27754e-13
5.79708e-21
3.20401e-19
5.63538e-21
3.01611e-22
5.42444e-21
3.00784e-22
5.04079e-21
3.02128e-22
4.6652e-21
3.08228e-22
4.31194e-21
3.1862e-22
3.98076e-21
3.31751e-22
3.67134e-21
3.46899e-22
3.38296e-21
3.63287e-22
3.11511e-21
3.80296e-22
2.86628e-21
3.97098e-22
2.63612e-21
4.13539e-22
2.42369e-21
4.291e-22
2.22817e-21
4.43576e-22
2.04877e-21
4.56862e-22
1.88437e-21
4.68443e-22
1.73382e-21
4.78731e-22
1.59646e-21
4.8752e-22
1.47083e-21
4.94861e-22
1.35616e-21
5.01168e-22
1.25111e-21
5.06286e-22
1.15474e-21
5.10422e-22
1.06613e-21
5.13576e-22
9.8419e-22
5.16212e-22
9.08296e-22
5.18539e-22
8.37262e-22
5.20452e-22
7.70571e-22
5.22313e-22
7.07498e-22
5.24277e-22
6.47527e-22
5.26345e-22
5.89935e-22
5.28672e-22
5.34204e-22
5.31412e-22
4.80127e-22
5.3441e-22
4.27239e-22
5.37823e-22
3.75075e-22
5.4139e-22
3.23531e-22
5.45112e-22
2.72194e-22
5.49093e-22
2.21167e-22
5.53022e-22
1.70244e-22
5.56744e-22
1.19476e-22
5.60208e-22
6.86043e-23
5.63155e-22
5.65378e-22
1.06474e-14
-3.06357e-14
2.3087e-14
-2.87964e-14
3.40922e-14
-2.46715e-14
4.38023e-14
-1.85102e-14
5.20201e-14
-1.07193e-14
5.84349e-14
-1.49517e-15
6.28014e-14
8.73185e-15
6.51328e-14
1.94906e-14
6.56402e-14
3.01117e-14
6.37261e-14
4.09152e-14
5.92799e-14
5.21026e-14
5.5116e-14
5.99479e-14
4.88806e-14
6.67478e-14
3.39337e-14
8.47847e-14
2.66274e-14
9.20537e-14
1.9623e-14
8.59245e-14
9.79503e-15
8.81999e-14
-4.49284e-15
9.58326e-14
-1.89316e-14
1.09241e-13
-2.0826e-14
8.64057e-14
-3.60602e-14
9.59673e-14
-4.64341e-14
9.37286e-14
-5.63458e-14
9.19461e-14
-6.57959e-14
8.61821e-14
-7.55692e-14
8.41828e-14
-8.44808e-14
7.96832e-14
-9.2791e-14
7.48582e-14
-1.0056e-13
6.96068e-14
-1.07652e-13
6.38123e-14
-1.1398e-13
5.75435e-14
-1.19658e-13
5.09676e-14
-1.24471e-13
4.3942e-14
-1.28506e-13
3.66378e-14
-1.31671e-13
2.90022e-14
-1.33949e-13
2.10723e-14
-1.35418e-13
1.30343e-14
-1.35748e-13
4.58277e-15
-1.3513e-13
-4.21928e-15
-1.3347e-13
-1.30859e-14
-1.30695e-13
-2.19956e-14
-1.269e-13
-3.0922e-14
-1.21929e-13
-4.00525e-14
-1.15768e-13
-4.89083e-14
-1.08542e-13
-5.7601e-14
-1.00295e-13
-6.60406e-14
-9.08795e-14
-7.42627e-14
-8.04077e-14
-8.1863e-14
-6.90369e-14
-8.87751e-14
-5.69125e-14
-9.49836e-14
-4.39589e-14
-1.00445e-13
-3.04476e-14
-1.04836e-13
-1.64807e-14
-1.08181e-13
-2.45361e-15
-1.10238e-13
1.16892e-14
-1.11067e-13
2.5683e-14
-1.10913e-13
3.91151e-14
-1.0916e-13
5.2025e-14
-1.06386e-13
6.41546e-14
-1.02401e-13
7.526e-14
-9.73712e-14
8.52049e-14
-9.12761e-14
9.39127e-14
-8.45337e-14
1.01142e-13
-7.71414e-14
1.06795e-13
-6.89377e-14
1.10938e-13
-6.08576e-14
1.13533e-13
-5.25264e-14
1.14687e-13
-4.44073e-14
1.14276e-13
-3.66348e-14
1.12379e-13
-2.93584e-14
1.09153e-13
-2.28175e-14
1.04692e-13
-1.72156e-14
9.90761e-14
-1.27653e-14
9.25148e-14
-9.85194e-15
8.53528e-14
-8.87604e-15
7.8624e-14
-1.11205e-14
7.58654e-14
-1.92127e-14
8.95782e-14
-4.16305e-14
-3.36278e-14
2.02705e-13
-9.79073e-16
2.52073e-13
1.23191e-15
1.22202e-13
5.77061e-21
3.62384e-19
5.6346e-21
3.43952e-22
5.42579e-21
3.44004e-22
5.04694e-21
3.46692e-22
4.67554e-21
3.55016e-22
4.32502e-21
3.67785e-22
3.99595e-21
3.84122e-22
3.68767e-21
4.0263e-22
3.39997e-21
4.22431e-22
3.13196e-21
4.42542e-22
2.88272e-21
4.62497e-22
2.65168e-21
4.81626e-22
2.43817e-21
4.99617e-22
2.24135e-21
5.16057e-22
2.0604e-21
5.30792e-22
1.89461e-21
5.4382e-22
1.74261e-21
5.55142e-22
1.6038e-21
5.64809e-22
1.47709e-21
5.72771e-22
1.36123e-21
5.79388e-22
1.25525e-21
5.84765e-22
1.1579e-21
5.89004e-22
1.06882e-21
5.9252e-22
9.86465e-22
5.9526e-22
9.10157e-22
5.9769e-22
8.39123e-22
5.99913e-22
7.72483e-22
6.02291e-22
7.09618e-22
6.04772e-22
6.49854e-22
6.07564e-22
5.92623e-22
6.1077e-22
5.37254e-22
6.1444e-22
4.83539e-22
6.18679e-22
4.30806e-22
6.23332e-22
3.789e-22
6.28399e-22
3.2746e-22
6.33569e-22
2.76123e-22
6.38842e-22
2.24993e-22
6.43857e-22
1.73656e-22
6.48613e-22
1.22371e-22
6.52904e-22
7.0879e-23
6.56368e-22
6.59005e-22
1.28168e-14
-4.07036e-14
2.72769e-14
-3.84623e-14
4.02217e-14
-3.34389e-14
5.16425e-14
-2.58327e-14
6.11996e-14
-1.62044e-14
6.8721e-14
-4.97901e-15
7.37489e-14
7.7055e-15
7.64364e-14
2.07573e-14
7.66155e-14
3.38398e-14
7.36041e-14
4.77757e-14
6.93336e-14
6.0161e-14
6.54078e-14
6.75974e-14
5.30232e-14
8.27793e-14
3.81088e-14
1.03264e-13
3.47828e-14
9.88596e-14
2.311e-14
1.00982e-13
1.09334e-14
1.03669e-13
-7.86208e-15
1.1782e-13
-1.03722e-14
1.14834e-13
-2.5167e-14
1.04169e-13
-3.71576e-14
1.10816e-13
-4.91309e-14
1.08434e-13
-5.86179e-14
1.04038e-13
-6.99902e-14
1.00032e-13
-7.99031e-14
9.64374e-14
-8.9363e-14
9.13479e-14
-9.82579e-14
8.58192e-14
-1.06449e-13
7.97189e-14
-1.13915e-13
7.30509e-14
-1.20677e-13
6.59287e-14
-1.26637e-13
5.83981e-14
-1.31855e-13
5.04756e-14
-1.36173e-13
4.21161e-14
-1.39651e-13
3.34823e-14
-1.4225e-13
2.45122e-14
-1.43893e-13
1.5358e-14
-1.44342e-13
5.55206e-15
-1.44002e-13
-4.20603e-15
-1.42463e-13
-1.44334e-14
-1.39726e-13
-2.47041e-14
-1.35822e-13
-3.49645e-14
-1.30862e-13
-4.53143e-14
-1.24556e-13
-5.56798e-14
-1.16987e-13
-6.57988e-14
-1.08281e-13
-7.55325e-14
-9.84441e-14
-8.50463e-14
-8.74098e-14
-9.40111e-14
-7.52371e-14
-1.02211e-13
-6.21774e-14
-1.09464e-13
-4.83358e-14
-1.15859e-13
-3.37252e-14
-1.21169e-13
-1.86963e-14
-1.25077e-13
-3.46763e-15
-1.2748e-13
1.20724e-14
-1.28764e-13
2.7209e-14
-1.2834e-13
4.19427e-14
-1.26321e-13
5.60274e-14
-1.2303e-13
6.9264e-14
-1.1832e-13
8.1301e-14
-1.12209e-13
9.21404e-14
-1.05038e-13
1.01434e-13
-9.68594e-14
1.09013e-13
-8.78612e-14
1.15045e-13
-7.82131e-14
1.19207e-13
-6.83613e-14
1.21698e-13
-5.84512e-14
1.22499e-13
-4.87271e-14
1.21517e-13
-3.92569e-14
1.18938e-13
-3.04603e-14
1.14743e-13
-2.23712e-14
1.09123e-13
-1.54126e-14
1.02039e-13
-9.55396e-15
9.34554e-14
-5.19209e-15
8.32415e-14
-2.63462e-15
7.06245e-14
-2.51372e-15
5.38497e-14
-6.48325e-15
2.66692e-14
-1.85223e-14
-1.11368e-14
2.3642e-13
-8.94613e-17
2.36919e-13
1.20203e-15
1.1764e-13
5.6912e-21
4.01825e-19
5.6346e-21
3.86035e-22
5.42848e-21
3.87482e-22
5.05526e-21
3.92446e-22
4.68836e-21
4.03768e-22
4.34141e-21
4.20259e-22
4.01441e-21
4.40164e-22
3.70748e-21
4.62497e-22
3.42008e-21
4.85865e-22
3.15187e-21
5.09543e-22
2.90185e-21
5.32498e-22
2.66962e-21
5.54366e-22
2.45466e-21
5.74477e-22
2.25603e-21
5.92727e-22
2.07348e-21
6.09063e-22
1.90593e-21
6.23177e-22
1.75233e-21
6.35171e-22
1.61176e-21
6.45201e-22
1.4837e-21
6.53628e-22
1.36655e-21
6.604e-22
1.25949e-21
6.6557e-22
1.16136e-21
6.69758e-22
1.07161e-21
6.73273e-22
9.88895e-22
6.76169e-22
9.12484e-22
6.78857e-22
8.4145e-22
6.8139e-22
7.74965e-22
6.84078e-22
7.12409e-22
6.8718e-22
6.53059e-22
6.90903e-22
5.96346e-22
6.95142e-22
5.41545e-22
7.00208e-22
4.8814e-22
7.05947e-22
4.35821e-22
7.11944e-22
3.8407e-22
7.18665e-22
3.32733e-22
7.25489e-22
2.81138e-22
7.32158e-22
2.29749e-22
7.38569e-22
1.77896e-22
7.44359e-22
1.25887e-22
7.49581e-22
7.34123e-23
7.53665e-22
7.5656e-22
1.55014e-14
-5.3514e-14
3.2531e-14
-5.08114e-14
4.78213e-14
-4.4649e-14
6.12821e-14
-3.52899e-14
7.25402e-14
-2.34867e-14
8.13615e-14
-9.85558e-15
8.69568e-14
6.01824e-15
9.059e-14
2.09904e-14
8.94952e-14
3.87504e-14
8.57599e-14
5.52744e-14
8.40897e-14
6.55299e-14
7.34075e-14
8.1913e-14
5.42463e-14
1.05505e-13
5.16396e-14
1.09352e-13
3.98626e-14
1.14038e-13
2.877e-14
1.15385e-13
5.34684e-15
1.30307e-13
-1.46778e-15
1.27748e-13
-8.55773e-15
1.24934e-13
-2.78105e-14
1.26327e-13
-3.96397e-14
1.25431e-13
-5.14033e-14
1.22867e-13
-6.24649e-14
1.17646e-13
-7.44246e-14
1.14413e-13
-8.50028e-14
1.09303e-13
-9.50998e-14
1.03601e-13
-1.04498e-13
9.72345e-14
-1.13149e-13
9.02452e-14
-1.21076e-13
8.27111e-14
-1.28228e-13
7.46669e-14
-1.34609e-13
6.6217e-14
-1.40118e-13
5.72734e-14
-1.44859e-13
4.7993e-14
-1.48665e-13
3.82673e-14
-1.51648e-13
2.83181e-14
-1.53401e-13
1.7777e-14
-1.54207e-13
6.86035e-15
-1.5392e-13
-4.14912e-15
-1.52663e-13
-1.55041e-14
-1.50129e-13
-2.72144e-14
-1.46259e-13
-3.897e-14
-1.41106e-13
-5.07607e-14
-1.34751e-13
-6.24899e-14
-1.26934e-13
-7.42306e-14
-1.17686e-13
-8.55505e-14
-1.0726e-13
-9.64031e-14
-9.55047e-14
-1.06848e-13
-8.26048e-14
-1.16346e-13
-6.85276e-14
-1.24926e-13
-5.34713e-14
-1.32449e-13
-3.76874e-14
-1.38634e-13
-2.13657e-14
-1.43225e-13
-4.47405e-15
-1.4634e-13
1.24581e-14
-1.47798e-13
2.90119e-14
-1.47134e-13
4.53396e-14
-1.45013e-13
6.083e-14
-1.41015e-13
7.53553e-14
-1.35462e-13
8.85538e-14
-1.28146e-13
1.00296e-13
-1.19628e-13
1.1038e-13
-1.09906e-13
1.18604e-13
-9.91499e-14
1.24911e-13
-8.76858e-14
1.29183e-13
-7.58956e-14
1.31512e-13
-6.41338e-14
1.31882e-13
-5.25338e-14
1.30327e-13
-4.12182e-14
1.26918e-13
-3.06428e-14
1.21785e-13
-2.08955e-14
1.14903e-13
-1.22501e-14
1.06386e-13
-4.8161e-15
9.60437e-14
1.32032e-15
8.32789e-14
6.2544e-15
6.64148e-14
1.04354e-14
4.07232e-14
1.5261e-14
-1.10772e-14
2.93006e-14
-3.9262e-15
2.25275e-13
-1.46304e-15
2.30449e-13
1.17021e-15
1.11818e-13
5.77061e-21
4.37613e-19
5.63615e-21
4.26257e-22
5.43339e-21
4.31375e-22
5.06659e-21
4.39905e-22
4.70485e-21
4.55363e-22
4.36131e-21
4.76249e-22
4.03675e-21
5.00703e-22
3.7309e-21
5.27328e-22
3.44371e-21
5.5478e-22
3.17482e-21
5.82077e-22
2.92367e-21
6.08288e-22
2.68978e-21
6.32638e-22
2.47291e-21
6.54972e-22
2.27237e-21
6.74824e-22
2.08755e-21
6.92195e-22
1.91792e-21
7.07033e-22
1.76236e-21
7.1944e-22
1.62019e-21
7.29625e-22
1.49048e-21
7.37742e-22
1.37178e-21
7.44049e-22
1.26367e-21
7.49116e-22
1.16493e-21
7.53096e-22
1.07451e-21
7.56302e-22
9.91531e-22
7.59093e-22
9.14965e-22
7.6173e-22
8.4419e-22
7.64522e-22
7.78119e-22
7.6783e-22
7.16132e-22
7.71811e-22
6.5735e-22
7.76412e-22
6.0136e-22
7.82048e-22
5.47232e-22
7.8851e-22
4.9424e-22
7.95696e-22
4.42542e-22
8.03916e-22
3.90895e-22
8.12188e-22
3.39454e-22
8.20667e-22
2.876e-22
8.2899e-22
2.35591e-22
8.37003e-22
1.83065e-22
8.44086e-22
1.29971e-22
8.49825e-22
7.63591e-23
8.54167e-22
8.56856e-22
1.88363e-14
-6.97218e-14
3.88756e-14
-6.62925e-14
5.70857e-14
-5.88885e-14
7.29604e-14
-4.72662e-14