/*--------------------------------*- C++ -*----------------------------------*\
  =========                 |
  \\      /  F ield         | OpenFOAM: The Open Source CFD Toolbox
   \\    /   O peration     | Website:  https://openfoam.org
    \\  /    A nd           | Version:  6
     \\/     M anipulation  |
\*---------------------------------------------------------------------------*/
FoamFile
{
    version     2.0;
    format      ascii;
    class       volVectorField;
    location    "2400";
    object      U;
}
// * * * * * * * * * * * * * * * * * * * * * * * * * * * * * * * * * * * * * //

dimensions      [0 1 -1 0 0 0 0];

internalField   nonuniform List<vector> 
4800
(
(1.53064e-09 0 -2.58802e-10)
(2.69581e-09 0 -2.70847e-09)
(5.33777e-09 0 -3.49856e-09)
(7.37313e-09 0 -3.54454e-09)
(9.11586e-09 0 -3.28262e-09)
(1.05481e-08 0 -2.86406e-09)
(1.16373e-08 0 -2.35712e-09)
(1.23461e-08 0 -1.80137e-09)
(1.26435e-08 0 -1.2302e-09)
(1.2523e-08 0 -6.83343e-10)
(1.19912e-08 0 -1.64809e-10)
(1.10574e-08 0 2.98011e-10)
(9.75367e-09 0 6.7973e-10)
(8.09077e-09 0 1.05294e-09)
(6.05472e-09 0 1.36137e-09)
(3.68162e-09 0 1.69046e-09)
(8.01168e-10 0 1.9386e-09)
(-1.9795e-09 0 1.76811e-09)
(-4.64774e-09 0 1.85471e-09)
(-7.7297e-09 0 2.10105e-09)
(-1.11444e-08 0 2.36269e-09)
(-1.41702e-08 0 1.72782e-09)
(-1.70403e-08 0 2.03098e-09)
(-2.0157e-08 0 1.98989e-09)
(-2.31158e-08 0 1.8782e-09)
(-2.58898e-08 0 1.80384e-09)
(-2.85719e-08 0 1.73338e-09)
(-3.10958e-08 0 1.63776e-09)
(-3.34293e-08 0 1.5234e-09)
(-3.55383e-08 0 1.39016e-09)
(-3.74033e-08 0 1.24979e-09)
(-3.90116e-08 0 1.09908e-09)
(-4.03468e-08 0 9.39004e-10)
(-4.13938e-08 0 7.64432e-10)
(-4.21239e-08 0 5.77262e-10)
(-4.25369e-08 0 4.01815e-10)
(-4.26284e-08 0 1.99841e-10)
(-4.23889e-08 0 8.94621e-12)
(-4.17866e-08 0 -1.97925e-10)
(-4.0854e-08 0 -3.99613e-10)
(-3.95694e-08 0 -6.06509e-10)
(-3.79305e-08 0 -8.05914e-10)
(-3.59654e-08 0 -1.00496e-09)
(-3.36633e-08 0 -1.19932e-09)
(-3.10551e-08 0 -1.37398e-09)
(-2.81465e-08 0 -1.55513e-09)
(-2.49609e-08 0 -1.72044e-09)
(-2.15299e-08 0 -1.85554e-09)
(-1.78873e-08 0 -1.9917e-09)
(-1.40627e-08 0 -2.09827e-09)
(-1.00978e-08 0 -2.18759e-09)
(-6.03554e-09 0 -2.25376e-09)
(-1.92147e-09 0 -2.29397e-09)
(2.19112e-09 0 -2.30464e-09)
(6.25011e-09 0 -2.29179e-09)
(1.02109e-08 0 -2.26016e-09)
(1.40424e-08 0 -2.20169e-09)
(1.76737e-08 0 -2.12118e-09)
(2.10871e-08 0 -2.01301e-09)
(2.42178e-08 0 -1.89788e-09)
(2.70659e-08 0 -1.76541e-09)
(2.9586e-08 0 -1.61947e-09)
(3.17653e-08 0 -1.46606e-09)
(3.35935e-08 0 -1.31043e-09)
(3.50628e-08 0 -1.15e-09)
(3.61866e-08 0 -1.00539e-09)
(3.69862e-08 0 -8.65293e-10)
(3.74815e-08 0 -7.38154e-10)
(3.77116e-08 0 -6.37531e-10)
(3.77499e-08 0 -5.76452e-10)
(3.76753e-08 0 -5.56264e-10)
(3.7605e-08 0 -5.99073e-10)
(3.77474e-08 0 -7.62088e-10)
(3.85445e-08 0 -1.21869e-09)
(4.12099e-08 0 -2.49555e-09)
(4.91276e-08 0 -6.29054e-09)
(7.01241e-08 0 -1.87136e-08)
(4.00069e-08 0 1.81539e-08)
(1.45147e-09 0 1.80966e-08)
(-9.29285e-15 0 9.10123e-15)
(1.10619e-15 0 8.40622e-18)
(2.18292e-15 0 2.50532e-17)
(2.08373e-15 0 2.77829e-17)
(1.93426e-15 0 2.72556e-17)
(1.78686e-15 0 2.61182e-17)
(1.64786e-15 0 2.49188e-17)
(1.51804e-15 0 2.37711e-17)
(1.39727e-15 0 2.27061e-17)
(1.2853e-15 0 2.17135e-17)
(1.18177e-15 0 2.08139e-17)
(1.08622e-15 0 1.99454e-17)
(9.98293e-16 0 1.91803e-17)
(9.17571e-16 0 1.84565e-17)
(8.436e-16 0 1.78051e-17)
(7.75989e-16 0 1.7195e-17)
(7.1425e-16 0 1.66367e-17)
(6.57919e-16 0 1.61507e-17)
(6.06572e-16 0 1.57268e-17)
(5.59681e-16 0 1.53442e-17)
(5.16771e-16 0 1.5003e-17)
(4.77428e-16 0 1.46928e-17)
(4.41239e-16 0 1.4424e-17)
(4.07779e-16 0 1.41965e-17)
(3.76657e-16 0 1.40207e-17)
(3.47571e-16 0 1.38449e-17)
(3.20222e-16 0 1.37105e-17)
(2.94311e-16 0 1.35968e-17)
(2.69578e-16 0 1.34624e-17)
(2.45848e-16 0 1.34003e-17)
(2.22946e-16 0 1.33486e-17)
(2.00715e-16 0 1.33176e-17)
(1.79023e-16 0 1.33073e-17)
(1.57743e-16 0 1.32866e-17)
(1.36743e-16 0 1.32866e-17)
(1.1594e-16 0 1.33073e-17)
(9.53429e-17 0 1.33279e-17)
(7.48909e-17 0 1.34003e-17)
(5.43458e-17 0 1.35347e-17)
(3.34698e-17 0 1.3876e-17)
(1.14668e-17 0 1.48376e-17)
(1.77668e-09 0 -1.43302e-09)
(3.09352e-09 0 9.48139e-10)
(5.44999e-09 0 1.88944e-09)
(7.36026e-09 0 2.2892e-09)
(9.06176e-09 0 2.55485e-09)
(1.04954e-08 0 2.80341e-09)
(1.15947e-08 0 3.05733e-09)
(1.23135e-08 0 3.34038e-09)
(1.26374e-08 0 3.63029e-09)
(1.25495e-08 0 3.93063e-09)
(1.20395e-08 0 4.23785e-09)
(1.11296e-08 0 4.52279e-09)
(9.85678e-09 0 4.73986e-09)
(8.21488e-09 0 5.14541e-09)
(6.17454e-09 0 5.5385e-09)
(3.73075e-09 0 6.16254e-09)
(8.38576e-10 0 6.56902e-09)
(-1.85443e-09 0 5.83527e-09)
(-4.59495e-09 0 5.99193e-09)
(-7.75455e-09 0 6.66062e-09)
(-1.11854e-08 0 7.2625e-09)
(-1.4177e-08 0 5.38999e-09)
(-1.71633e-08 0 6.17235e-09)
(-2.0295e-08 0 6.00975e-09)
(-2.32698e-08 0 5.57146e-09)
(-2.60728e-08 0 5.32193e-09)
(-2.87931e-08 0 5.04487e-09)
(-3.13381e-08 0 4.70075e-09)
(-3.36833e-08 0 4.30494e-09)
(-3.58071e-08 0 3.87047e-09)
(-3.76946e-08 0 3.41391e-09)
(-3.93276e-08 0 2.93968e-09)
(-4.06755e-08 0 2.42044e-09)
(-4.17324e-08 0 1.89391e-09)
(-4.24885e-08 0 1.32582e-09)
(-4.29117e-08 0 7.65361e-10)
(-4.30043e-08 0 1.67531e-10)
(-4.27768e-08 0 -4.0938e-10)
(-4.2178e-08 0 -1.0327e-09)
(-4.12437e-08 0 -1.64053e-09)
(-3.99591e-08 0 -2.24772e-09)
(-3.83159e-08 0 -2.85582e-09)
(-3.63393e-08 0 -3.44214e-09)
(-3.40332e-08 0 -4.01395e-09)
(-3.14003e-08 0 -4.55802e-09)
(-2.84537e-08 0 -5.07821e-09)
(-2.5244e-08 0 -5.5702e-09)
(-2.1776e-08 0 -5.98048e-09)
(-1.80901e-08 0 -6.37555e-09)
(-1.42248e-08 0 -6.69167e-09)
(-1.02206e-08 0 -6.95118e-09)
(-6.12183e-09 0 -7.1443e-09)
(-1.97092e-09 0 -7.26202e-09)
(2.19128e-09 0 -7.30067e-09)
(6.3046e-09 0 -7.25103e-09)
(1.0318e-08 0 -7.15828e-09)
(1.42021e-08 0 -6.97647e-09)
(1.78752e-08 0 -6.72559e-09)
(2.13229e-08 0 -6.39568e-09)
(2.44847e-08 0 -6.04664e-09)
(2.73586e-08 0 -5.63614e-09)
(2.99044e-08 0 -5.19654e-09)
(3.21007e-08 0 -4.71233e-09)
(3.39226e-08 0 -4.22307e-09)
(3.53859e-08 0 -3.7345e-09)
(3.65001e-08 0 -3.27121e-09)
(3.72648e-08 0 -2.81874e-09)
(3.77141e-08 0 -2.41958e-09)
(3.78983e-08 0 -2.09839e-09)
(3.78723e-08 0 -1.87951e-09)
(3.76755e-08 0 -1.76355e-09)
(3.73781e-08 0 -1.83421e-09)
(3.70792e-08 0 -2.21581e-09)
(3.68003e-08 0 -3.19199e-09)
(3.62009e-08 0 -5.52898e-09)
(3.39441e-08 0 -1.13621e-08)
(2.00602e-08 0 -2.74775e-08)
(1.38645e-08 0 4.95583e-08)
(1.12213e-09 0 4.00287e-08)
(-6.87387e-15 0 2.74285e-14)
(1.12289e-15 0 2.53427e-17)
(2.2023e-15 0 4.59706e-17)
(2.08592e-15 0 5.01582e-17)
(1.93259e-15 0 5.01065e-17)
(1.78454e-15 0 4.91966e-17)
(1.64552e-15 0 4.82143e-17)
(1.51582e-15 0 4.73458e-17)
(1.39521e-15 0 4.6622e-17)
(1.28342e-15 0 4.60119e-17)
(1.18002e-15 0 4.54949e-17)
(1.08459e-15 0 4.50813e-17)
(9.96794e-16 0 4.47815e-17)
(9.16185e-16 0 4.4492e-17)
(8.42318e-16 0 4.42231e-17)
(7.7482e-16 0 4.40267e-17)
(7.13206e-16 0 4.38096e-17)
(6.57009e-16 0 4.36338e-17)
(6.05775e-16 0 4.34683e-17)
(5.58957e-16 0 4.33132e-17)
(5.16119e-16 0 4.31685e-17)
(4.7687e-16 0 4.30237e-17)
(4.40753e-16 0 4.28686e-17)
(4.07355e-16 0 4.27239e-17)
(3.76295e-16 0 4.26205e-17)
(3.47271e-16 0 4.25067e-17)
(3.19985e-16 0 4.2393e-17)
(2.94073e-16 0 4.23103e-17)
(2.69402e-16 0 4.22172e-17)
(2.45745e-16 0 4.21759e-17)
(2.22863e-16 0 4.21759e-17)
(2.00674e-16 0 4.21759e-17)
(1.79012e-16 0 4.22276e-17)
(1.57733e-16 0 4.23e-17)
(1.36754e-16 0 4.23827e-17)
(1.15981e-16 0 4.24861e-17)
(9.54463e-17 0 4.26618e-17)
(7.50873e-17 0 4.28686e-17)
(5.48007e-17 0 4.31685e-17)
(3.47726e-17 0 4.37372e-17)
(1.24284e-17 0 4.48746e-17)
(1.59521e-09 0 -2.53815e-09)
(2.84804e-09 0 -2.2584e-09)
(5.69893e-09 0 -1.90266e-09)
(7.99667e-09 0 -1.36662e-09)
(9.95802e-09 0 -6.65209e-10)
(1.15665e-08 0 1.8538e-10)
(1.27814e-08 0 1.17047e-09)
(1.35687e-08 0 2.23881e-09)
(1.39074e-08 0 3.33017e-09)
(1.37883e-08 0 4.43005e-09)
(1.3219e-08 0 5.50209e-09)
(1.22222e-08 0 6.45836e-09)
(1.08404e-08 0 7.26492e-09)
(9.05616e-09 0 8.25828e-09)
(6.84024e-09 0 9.18684e-09)
(4.1527e-09 0 1.06619e-08)
(1.16228e-09 0 1.08221e-08)
(-1.49067e-09 0 1.00194e-08)
(-4.45733e-09 0 1.04673e-08)
(-7.83147e-09 0 1.16496e-08)
(-1.12613e-08 0 1.20169e-08)
(-1.41772e-08 0 9.60567e-09)
(-1.73786e-08 0 1.0623e-08)
(-2.05698e-08 0 1.03809e-08)
(-2.35797e-08 0 9.55143e-09)
(-2.64572e-08 0 9.21576e-09)
(-2.92448e-08 0 8.70584e-09)
(-3.1844e-08 0 8.10741e-09)
(-3.42383e-08 0 7.42844e-09)
(-3.6414e-08 0 6.70303e-09)
(-3.83485e-08 0 5.92589e-09)
(-4.00134e-08 0 5.10807e-09)
(-4.13905e-08 0 4.21298e-09)
(-4.2475e-08 0 3.32072e-09)
(-4.32469e-08 0 2.36224e-09)
(-4.36945e-08 0 1.38762e-09)
(-4.38124e-08 0 3.81222e-10)
(-4.35999e-08 0 -6.08754e-10)
(-4.29975e-08 0 -1.68413e-09)
(-4.20622e-08 0 -2.72229e-09)
(-4.07659e-08 0 -3.75084e-09)
(-3.91166e-08 0 -4.78833e-09)
(-3.71329e-08 0 -5.80652e-09)
(-3.47824e-08 0 -6.77769e-09)
(-3.21106e-08 0 -7.73793e-09)
(-2.91236e-08 0 -8.61323e-09)
(-2.58695e-08 0 -9.45818e-09)
(-2.2342e-08 0 -1.01896e-08)
(-1.85843e-08 0 -1.08606e-08)
(-1.46372e-08 0 -1.14252e-08)
(-1.05386e-08 0 -1.18739e-08)
(-6.33805e-09 0 -1.22212e-08)
(-2.08356e-09 0 -1.24342e-08)
(2.17217e-09 0 -1.25271e-08)
(6.37879e-09 0 -1.24625e-08)
(1.05004e-08 0 -1.2338e-08)
(1.44858e-08 0 -1.20351e-08)
(1.82423e-08 0 -1.16229e-08)
(2.17763e-08 0 -1.10887e-08)
(2.50071e-08 0 -1.05139e-08)
(2.79359e-08 0 -9.83373e-09)
(3.05112e-08 0 -9.1058e-09)
(3.27156e-08 0 -8.30305e-09)
(3.45564e-08 0 -7.50001e-09)
(3.60116e-08 0 -6.68739e-09)
(3.70778e-08 0 -5.90829e-09)
(3.77879e-08 0 -5.16215e-09)
(3.81717e-08 0 -4.5032e-09)
(3.82579e-08 0 -3.97234e-09)
(3.80897e-08 0 -3.57497e-09)
(3.76982e-08 0 -3.32e-09)
(3.71315e-08 0 -3.32454e-09)
(3.63692e-08 0 -3.63536e-09)
(3.5235e-08 0 -4.40668e-09)
(3.3116e-08 0 -5.7651e-09)
(2.85481e-08 0 -7.79152e-09)
(1.57543e-08 0 -9.1305e-09)
(7.80348e-09 0 4.73149e-08)
(1.06921e-09 0 4.6971e-08)
(-6.46759e-15 0 4.59856e-14)
(1.12687e-15 0 4.24757e-17)
(2.20772e-15 0 4.81109e-17)
(2.08786e-15 0 5.04787e-17)
(1.93329e-15 0 5.16574e-17)
(1.78497e-15 0 5.25984e-17)
(1.64602e-15 0 5.36013e-17)
(1.51644e-15 0 5.478e-17)
(1.39592e-15 0 5.60828e-17)
(1.28419e-15 0 5.75201e-17)
(1.18086e-15 0 5.8978e-17)
(1.0855e-15 0 6.04979e-17)
(9.97694e-16 0 6.19869e-17)
(9.17012e-16 0 6.34241e-17)
(8.43125e-16 0 6.47786e-17)
(7.75585e-16 0 6.60504e-17)
(7.13867e-16 0 6.71671e-17)
(6.57567e-16 0 6.81804e-17)
(6.06251e-16 0 6.90386e-17)
(5.59391e-16 0 6.97624e-17)
(5.16481e-16 0 7.03827e-17)
(4.77138e-16 0 7.08894e-17)
(4.40949e-16 0 7.1303e-17)
(4.07521e-16 0 7.16028e-17)
(3.7644e-16 0 7.18303e-17)
(3.47344e-16 0 7.20371e-17)
(3.20036e-16 0 7.21715e-17)
(2.94145e-16 0 7.22749e-17)
(2.69454e-16 0 7.24093e-17)
(2.45807e-16 0 7.25127e-17)
(2.22936e-16 0 7.26678e-17)
(2.00767e-16 0 7.28126e-17)
(1.79157e-16 0 7.29987e-17)
(1.57898e-16 0 7.31952e-17)
(1.36929e-16 0 7.34536e-17)
(1.16219e-16 0 7.37018e-17)
(9.57255e-17 0 7.40534e-17)
(7.53872e-17 0 7.44152e-17)
(5.5204e-17 0 7.48082e-17)
(3.51965e-17 0 7.52528e-17)
(1.26145e-17 0 7.5625e-17)
(1.82885e-09 0 -2.90083e-09)
(3.30014e-09 0 -2.5766e-09)
(6.32308e-09 0 -2.01151e-09)
(8.80752e-09 0 -1.1928e-09)
(1.09594e-08 0 -1.65496e-10)
(1.27133e-08 0 1.05555e-09)
(1.40262e-08 0 2.43074e-09)
(1.4883e-08 0 3.89544e-09)
(1.5247e-08 0 5.40737e-09)
(1.51049e-08 0 6.90545e-09)
(1.44826e-08 0 8.34385e-09)
(1.34039e-08 0 9.59759e-09)
(1.18964e-08 0 1.07443e-08)
(9.9608e-09 0 1.20121e-08)
(7.57032e-09 0 1.33849e-08)
(4.58774e-09 0 1.55427e-08)
(1.54697e-09 0 1.51121e-08)
(-1.02981e-09 0 1.42474e-08)
(-4.33849e-09 0 1.50282e-08)
(-8.0426e-09 0 1.68776e-08)
(-1.13639e-08 0 1.64688e-08)
(-1.42261e-08 0 1.40589e-08)
(-1.77459e-08 0 1.50756e-08)
(-2.10039e-08 0 1.47428e-08)
(-2.40646e-08 0 1.34486e-08)
(-2.70782e-08 0 1.31191e-08)
(-2.99449e-08 0 1.23379e-08)
(-3.26252e-08 0 1.14912e-08)
(-3.50939e-08 0 1.05242e-08)
(-3.73389e-08 0 9.51145e-09)
(-3.93313e-08 0 8.3965e-09)
(-4.1042e-08 0 7.22957e-09)
(-4.24691e-08 0 5.97966e-09)
(-4.35985e-08 0 4.70772e-09)
(-4.44044e-08 0 3.36782e-09)
(-4.48865e-08 0 1.98711e-09)
(-4.5037e-08 0 5.69599e-10)
(-4.48415e-08 0 -8.3814e-10)
(-4.42464e-08 0 -2.35707e-09)
(-4.33317e-08 0 -3.82193e-09)
(-4.20319e-08 0 -5.29472e-09)
(-4.03319e-08 0 -6.74237e-09)
(-3.8332e-08 0 -8.19718e-09)
(-3.59417e-08 0 -9.58415e-09)
(-3.32252e-08 0 -1.09389e-08)
(-3.01659e-08 0 -1.21903e-08)
(-2.68212e-08 0 -1.33855e-08)
(-2.31988e-08 0 -1.44411e-08)
(-1.93339e-08 0 -1.53907e-08)
(-1.52659e-08 0 -1.62085e-08)
(-1.10324e-08 0 -1.68521e-08)
(-6.69229e-09 0 -1.73436e-08)
(-2.2885e-09 0 -1.76585e-08)
(2.13265e-09 0 -1.77922e-08)
(6.50773e-09 0 -1.77114e-08)
(1.07775e-08 0 -1.75318e-08)
(1.48849e-08 0 -1.70882e-08)
(1.87778e-08 0 -1.65084e-08)
(2.24395e-08 0 -1.5757e-08)
(2.57877e-08 0 -1.49233e-08)
(2.87917e-08 0 -1.39452e-08)
(3.14443e-08 0 -1.28946e-08)
(3.36953e-08 0 -1.17484e-08)
(3.55416e-08 0 -1.05968e-08)
(3.69751e-08 0 -9.42088e-09)
(3.80014e-08 0 -8.2805e-09)
(3.86373e-08 0 -7.21682e-09)
(3.89132e-08 0 -6.25213e-09)
(3.88507e-08 0 -5.45489e-09)
(3.84933e-08 0 -4.83261e-09)
(3.78866e-08 0 -4.3868e-09)
(3.70608e-08 0 -4.24106e-09)
(3.60085e-08 0 -4.35019e-09)
(3.46446e-08 0 -4.69418e-09)
(3.27526e-08 0 -5.07613e-09)
(3.02997e-08 0 -4.79418e-09)
(2.71802e-08 0 -1.39364e-09)
(6.14297e-09 0 5.5039e-08)
(1.05294e-09 0 5.09733e-08)
(-6.27177e-15 0 6.46186e-14)
(1.12851e-15 0 5.98362e-17)
(2.21029e-15 0 6.21523e-17)
(2.08949e-15 0 6.35792e-17)
(1.93472e-15 0 6.50371e-17)
(1.78648e-15 0 6.67948e-17)
(1.64771e-15 0 6.88214e-17)
(1.5183e-15 0 7.11272e-17)
(1.39794e-15 0 7.36294e-17)
(1.28632e-15 0 7.62867e-17)
(1.183e-15 0 7.90268e-17)
(1.0876e-15 0 8.17565e-17)
(9.9972e-16 0 8.43621e-17)
(9.18967e-16 0 8.6854e-17)
(8.44944e-16 0 8.92321e-17)
(7.77219e-16 0 9.13724e-17)
(7.15336e-16 0 9.32853e-17)
(6.5887e-16 0 9.50017e-17)
(6.07357e-16 0 9.64906e-17)
(5.60301e-16 0 9.77211e-17)
(5.17236e-16 0 9.87447e-17)
(4.7779e-16 0 9.96029e-17)
(4.41477e-16 0 1.00285e-16)
(4.07883e-16 0 1.00854e-16)
(3.76729e-16 0 1.01237e-16)
(3.47602e-16 0 1.01578e-16)
(3.20212e-16 0 1.01867e-16)
(2.94311e-16 0 1.02084e-16)
(2.6964e-16 0 1.02322e-16)
(2.45993e-16 0 1.0256e-16)
(2.23163e-16 0 1.02829e-16)
(2.01005e-16 0 1.03129e-16)
(1.79374e-16 0 1.03439e-16)
(1.58167e-16 0 1.0378e-16)
(1.3725e-16 0 1.04194e-16)
(1.1657e-16 0 1.04659e-16)
(9.61494e-17 0 1.05145e-16)
(7.58421e-17 0 1.05662e-16)
(5.56589e-17 0 1.062e-16)
(3.55998e-17 0 1.06675e-16)
(1.27903e-17 0 1.07089e-16)
(2.10975e-09 0 -3.86708e-09)
(3.86255e-09 0 -3.41894e-09)
(7.13966e-09 0 -2.64123e-09)
(9.85604e-09 0 -1.55019e-09)
(1.222e-08 0 -1.68021e-10)
(1.41506e-08 0 1.45194e-09)
(1.5607e-08 0 3.24618e-09)
(1.65465e-08 0 5.16542e-09)
(1.69416e-08 0 7.15402e-09)
(1.67933e-08 0 9.11903e-09)
(1.61218e-08 0 1.0988e-08)
(1.49217e-08 0 1.25797e-08)
(1.32747e-08 0 1.43116e-08)
(1.11173e-08 0 1.57213e-08)
(8.43402e-09 0 1.78966e-08)
(5.29796e-09 0 2.12848e-08)
(2.29852e-09 0 1.86595e-08)
(-5.77148e-10 0 1.83862e-08)
(-4.24001e-09 0 2.0303e-08)
(-8.25492e-09 0 2.3342e-08)
(-1.12975e-08 0 1.87263e-08)
(-1.4547e-08 0 1.94485e-08)
(-1.81906e-08 0 1.95904e-08)
(-2.1577e-08 0 1.90883e-08)
(-2.47206e-08 0 1.74641e-08)
(-2.7924e-08 0 1.71248e-08)
(-3.08823e-08 0 1.60442e-08)
(-3.367e-08 0 1.49436e-08)
(-3.6241e-08 0 1.36937e-08)
(-3.85748e-08 0 1.23744e-08)
(-4.06359e-08 0 1.09167e-08)
(-4.24252e-08 0 9.40583e-09)
(-4.39279e-08 0 7.79912e-09)
(-4.51187e-08 0 6.13171e-09)
(-4.59793e-08 0 4.40956e-09)
(-4.64925e-08 0 2.60968e-09)
(-4.66823e-08 0 7.91482e-10)
(-4.65105e-08 0 -1.06834e-09)
(-4.59221e-08 0 -3.02223e-09)
(-4.50018e-08 0 -4.91695e-09)
(-4.3721e-08 0 -6.84805e-09)
(-4.19942e-08 0 -8.72889e-09)
(-3.99661e-08 0 -1.06174e-08)
(-3.75174e-08 0 -1.24463e-08)
(-3.47206e-08 0 -1.4206e-08)
(-3.15665e-08 0 -1.58588e-08)
(-2.81043e-08 0 -1.74102e-08)
(-2.43572e-08 0 -1.8806e-08)
(-2.03377e-08 0 -2.00504e-08)
(-1.61037e-08 0 -2.11302e-08)
(-1.16845e-08 0 -2.19933e-08)
(-7.14439e-09 0 -2.26209e-08)
(-2.53628e-09 0 -2.30572e-08)
(2.09341e-09 0 -2.32357e-08)
(6.66508e-09 0 -2.31233e-08)
(1.11446e-08 0 -2.28787e-08)
(1.54558e-08 0 -2.22932e-08)
(1.95474e-08 0 -2.1532e-08)
(2.33627e-08 0 -2.0561e-08)
(2.68717e-08 0 -1.94145e-08)
(2.99707e-08 0 -1.81318e-08)
(3.27078e-08 0 -1.67353e-08)
(3.50062e-08 0 -1.52074e-08)
(3.68694e-08 0 -1.36783e-08)
(3.82957e-08 0 -1.211e-08)
(3.92639e-08 0 -1.05764e-08)
(3.97987e-08 0 -9.16501e-09)
(3.99328e-08 0 -7.84738e-09)
(3.97033e-08 0 -6.74802e-09)
(3.91268e-08 0 -5.84915e-09)
(3.8267e-08 0 -5.21192e-09)
(3.71899e-08 0 -4.86742e-09)
(3.59436e-08 0 -4.81602e-09)
(3.45977e-08 0 -4.93942e-09)
(3.32276e-08 0 -4.9496e-09)
(3.21835e-08 0 -4.24781e-09)
(3.06933e-08 0 -1.04641e-09)
(5.54811e-09 0 7.61286e-08)
(1.03878e-09 0 5.61559e-08)
(-6.13046e-15 0 8.32476e-14)
(1.1292e-15 0 7.7331e-17)
(2.21149e-15 0 7.81479e-17)
(2.09076e-15 0 7.89441e-17)
(1.9365e-15 0 8.05467e-17)
(1.78876e-15 0 8.28525e-17)
(1.65035e-15 0 8.5758e-17)
(1.52125e-15 0 8.9077e-17)
(1.40109e-15 0 9.27373e-17)
(1.28957e-15 0 9.65423e-17)
(1.18631e-15 0 1.0044e-16)
(1.09083e-15 0 1.04276e-16)
(1.0028e-15 0 1.07988e-16)
(9.21862e-16 0 1.11452e-16)
(8.47622e-16 0 1.14678e-16)
(7.79649e-16 0 1.17635e-16)
(7.17497e-16 0 1.20251e-16)
(6.60762e-16 0 1.22599e-16)
(6.08981e-16 0 1.24573e-16)
(5.61645e-16 0 1.26238e-16)
(5.18363e-16 0 1.27634e-16)
(4.78689e-16 0 1.28792e-16)
(4.4219e-16 0 1.29692e-16)
(4.08451e-16 0 1.30426e-16)
(3.77163e-16 0 1.31015e-16)
(3.47985e-16 0 1.3147e-16)
(3.20522e-16 0 1.31842e-16)
(2.9459e-16 0 1.32214e-16)
(2.6994e-16 0 1.32576e-16)
(2.46314e-16 0 1.32959e-16)
(2.23525e-16 0 1.33373e-16)
(2.01398e-16 0 1.33827e-16)
(1.79808e-16 0 1.34324e-16)
(1.58653e-16 0 1.34924e-16)
(1.37788e-16 0 1.35534e-16)
(1.1716e-16 0 1.36268e-16)
(9.67388e-17 0 1.36971e-16)
(7.64522e-17 0 1.37653e-16)
(5.62379e-17 0 1.38346e-16)
(3.60754e-17 0 1.38977e-16)
(1.30074e-17 0 1.39514e-16)
(2.4157e-09 0 -5.38577e-09)
(4.50513e-09 0 -4.89142e-09)
(8.20357e-09 0 -3.91669e-09)
(1.12631e-08 0 -2.52471e-09)
(1.39189e-08 0 -7.17839e-10)
(1.60994e-08 0 1.38002e-09)
(1.77399e-08 0 3.70873e-09)
(1.87782e-08 0 6.2011e-09)
(1.9206e-08 0 8.75736e-09)
(1.9043e-08 0 1.12709e-08)
(1.82759e-08 0 1.36205e-08)
(1.69021e-08 0 1.56699e-08)
(1.51365e-08 0 1.82339e-08)
(1.26348e-08 0 1.93387e-08)
(9.29763e-09 0 2.27411e-08)
(6.12296e-09 0 2.59931e-08)
(3.44188e-09 0 2.3197e-08)
(-1.63855e-10 0 2.3451e-08)
(-4.25067e-09 0 2.55853e-08)
(-8.24689e-09 0 2.86808e-08)
(-1.12084e-08 0 2.29276e-08)
(-1.50266e-08 0 2.45435e-08)
(-1.87585e-08 0 2.43128e-08)
(-2.22818e-08 0 2.34199e-08)
(-2.56152e-08 0 2.18559e-08)
(-2.90006e-08 0 2.11833e-08)
(-3.20893e-08 0 1.98767e-08)
(-3.5009e-08 0 1.84979e-08)
(-3.76957e-08 0 1.69656e-08)
(-4.01254e-08 0 1.53066e-08)
(-4.2285e-08 0 1.35164e-08)
(-4.41698e-08 0 1.16564e-08)
(-4.57399e-08 0 9.67503e-09)
(-4.70077e-08 0 7.62149e-09)
(-4.79421e-08 0 5.48859e-09)
(-4.84936e-08 0 3.28371e-09)
(-4.87684e-08 0 1.0599e-09)
(-4.86147e-08 0 -1.29413e-09)
(-4.80651e-08 0 -3.66683e-09)
(-4.7144e-08 0 -6.01436e-09)
(-4.58538e-08 0 -8.40669e-09)
(-4.41173e-08 0 -1.07581e-08)
(-4.19905e-08 0 -1.30819e-08)
(-3.951e-08 0 -1.53741e-08)
(-3.66301e-08 0 -1.75587e-08)
(-3.33744e-08 0 -1.96371e-08)
(-2.97631e-08 0 -2.15561e-08)
(-2.58725e-08 0 -2.33264e-08)
(-2.16577e-08 0 -2.48913e-08)
(-1.71974e-08 0 -2.62446e-08)
(-1.25539e-08 0 -2.73361e-08)
(-7.76216e-09 0 -2.8131e-08)
(-2.87361e-09 0 -2.8692e-08)
(2.02676e-09 0 -2.88818e-08)
(6.87054e-09 0 -2.8782e-08)
(1.16243e-08 0 -2.84626e-08)
(1.61896e-08 0 -2.76954e-08)
(2.05186e-08 0 -2.67515e-08)
(2.45541e-08 0 -2.55219e-08)
(2.825e-08 0 -2.40592e-08)
(3.15193e-08 0 -2.23937e-08)
(3.43483e-08 0 -2.06674e-08)
(3.67468e-08 0 -1.86828e-08)
(3.86323e-08 0 -1.67369e-08)
(4.00198e-08 0 -1.47468e-08)
(4.09219e-08 0 -1.27841e-08)
(4.13495e-08 0 -1.09251e-08)
(4.13302e-08 0 -9.26718e-09)
(4.08758e-08 0 -7.81586e-09)
(4.00374e-08 0 -6.59601e-09)
(3.88829e-08 0 -5.71954e-09)
(3.74819e-08 0 -5.19183e-09)
(3.59666e-08 0 -5.07203e-09)
(3.45471e-08 0 -5.27636e-09)
(3.34919e-08 0 -5.64342e-09)
(3.34672e-08 0 -5.92192e-09)
(3.13089e-08 0 3.4194e-10)
(2.70162e-09 0 1.00745e-07)
(1.02253e-09 0 5.71206e-08)
(-5.92692e-15 0 1.01625e-13)
(1.12936e-15 0 9.47742e-17)
(2.21192e-15 0 9.47846e-17)
(2.09189e-15 0 9.52602e-17)
(1.93861e-15 0 9.708e-17)
(1.79168e-15 0 9.99338e-17)
(1.65393e-15 0 1.03749e-16)
(1.52527e-15 0 1.08123e-16)
(1.40541e-15 0 1.1291e-16)
(1.29402e-15 0 1.17904e-16)
(1.19073e-15 0 1.2294e-16)
(1.09514e-15 0 1.27861e-16)
(1.00691e-15 0 1.32587e-16)
(9.25677e-16 0 1.37022e-16)
(8.51128e-16 0 1.41076e-16)
(7.82792e-16 0 1.44777e-16)
(7.20299e-16 0 1.48065e-16)
(6.63202e-16 0 1.50919e-16)
(6.11018e-16 0 1.53349e-16)
(5.63382e-16 0 1.55386e-16)
(5.198e-16 0 1.57092e-16)
(4.79848e-16 0 1.58477e-16)
(4.431e-16 0 1.59573e-16)
(4.09186e-16 0 1.60452e-16)
(3.77773e-16 0 1.61186e-16)
(3.4845e-16 0 1.61786e-16)
(3.20956e-16 0 1.62293e-16)
(2.95035e-16 0 1.6281e-16)
(2.70385e-16 0 1.63316e-16)
(2.46789e-16 0 1.63875e-16)
(2.24032e-16 0 1.64495e-16)
(2.01967e-16 0 1.65198e-16)
(1.8048e-16 0 1.65984e-16)
(1.59387e-16 0 1.66863e-16)
(1.38594e-16 0 1.67794e-16)
(1.17997e-16 0 1.68797e-16)
(9.75453e-17 0 1.69789e-16)
(7.7238e-17 0 1.7074e-16)
(5.69927e-17 0 1.71609e-16)
(3.67785e-17 0 1.72446e-16)
(1.33383e-17 0 1.7315e-16)
(2.80669e-09 0 -7.39946e-09)
(5.31756e-09 0 -6.81449e-09)
(9.53376e-09 0 -5.60933e-09)
(1.30597e-08 0 -3.84458e-09)
(1.61126e-08 0 -1.57104e-09)
(1.86057e-08 0 1.08433e-09)
(2.04525e-08 0 4.02663e-09)
(2.16237e-08 0 7.16906e-09)
(2.21146e-08 0 1.03629e-08)
(2.1921e-08 0 1.34912e-08)
(2.08951e-08 0 1.61622e-08)
(1.94775e-08 0 1.95539e-08)
(1.7429e-08 0 2.15321e-08)
(1.42891e-08 0 2.37648e-08)
(1.04626e-08 0 2.96527e-08)
(7.30286e-09 0 2.9203e-08)
(4.67586e-09 0 2.78312e-08)
(2.18273e-10 0 2.8653e-08)
(-4.43192e-09 0 3.21713e-08)
(-8.18817e-09 0 3.35518e-08)
(-1.09617e-08 0 2.71838e-08)
(-1.57192e-08 0 3.00019e-08)
(-1.95025e-08 0 2.92856e-08)
(-2.31396e-08 0 2.77361e-08)
(-2.67374e-08 0 2.64964e-08)
(-3.03072e-08 0 2.5382e-08)
(-3.35765e-08 0 2.38554e-08)
(-3.66434e-08 0 2.21744e-08)
(-3.94604e-08 0 2.03378e-08)
(-4.20224e-08 0 1.83478e-08)
(-4.43021e-08 0 1.62205e-08)
(-4.62858e-08 0 1.39897e-08)
(-4.79596e-08 0 1.16301e-08)
(-4.93099e-08 0 9.18573e-09)
(-5.03305e-08 0 6.63301e-09)
(-5.09501e-08 0 4.01197e-09)
(-5.12726e-08 0 1.37625e-09)
(-5.1171e-08 0 -1.47715e-09)
(-5.06874e-08 0 -4.30076e-09)
(-4.97216e-08 0 -7.11025e-09)
(-4.84462e-08 0 -9.98082e-09)
(-4.67098e-08 0 -1.28388e-08)
(-4.44818e-08 0 -1.55942e-08)
(-4.19699e-08 0 -1.8371e-08)
(-3.89715e-08 0 -2.10145e-08)
(-3.55945e-08 0 -2.35481e-08)
(-3.18047e-08 0 -2.58737e-08)
(-2.76863e-08 0 -2.80285e-08)
(-2.3258e-08 0 -2.99562e-08)
(-1.85389e-08 0 -3.15981e-08)
(-1.36046e-08 0 -3.29348e-08)
(-8.49913e-09 0 -3.39321e-08)
(-3.29435e-09 0 -3.4609e-08)
(1.93321e-09 0 -3.4826e-08)
(7.12726e-09 0 -3.47456e-08)
(1.22189e-08 0 -3.42982e-08)
(1.71114e-08 0 -3.34052e-08)
(2.17502e-08 0 -3.22056e-08)
(2.60622e-08 0 -3.06978e-08)
(2.99724e-08 0 -2.88895e-08)
(3.34614e-08 0 -2.68032e-08)
(3.64623e-08 0 -2.46376e-08)
(3.89076e-08 0 -2.22314e-08)
(4.08343e-08 0 -1.97871e-08)
(4.22142e-08 0 -1.73185e-08)
(4.30427e-08 0 -1.47924e-08)
(4.33278e-08 0 -1.25902e-08)
(4.31079e-08 0 -1.04699e-08)
(4.24017e-08 0 -8.56661e-09)
(4.12371e-08 0 -6.99705e-09)
(3.96784e-08 0 -5.81566e-09)
(3.7837e-08 0 -5.10497e-09)
(3.58614e-08 0 -4.95226e-09)
(3.40431e-08 0 -5.46866e-09)
(3.2926e-08 0 -6.66193e-09)
(3.25705e-08 0 -8.07504e-09)
(1.67029e-08 0 1.87004e-08)
(-1.52633e-10 0 1.29454e-07)
(1.0037e-09 0 5.23959e-08)
(-5.70889e-15 0 1.19483e-13)
(1.12925e-15 0 1.12062e-16)
(2.21196e-15 0 1.11752e-16)
(2.09305e-15 0 1.12217e-16)
(1.9412e-15 0 1.14409e-16)
(1.79543e-15 0 1.1808e-16)
(1.65854e-15 0 1.22857e-16)
(1.53042e-15 0 1.28347e-16)
(1.41086e-15 0 1.34293e-16)
(1.29961e-15 0 1.40486e-16)
(1.19628e-15 0 1.46649e-16)
(1.10048e-15 0 1.52687e-16)
(1.01196e-15 0 1.58395e-16)
(9.30371e-16 0 1.63751e-16)
(8.55388e-16 0 1.68641e-16)
(7.86628e-16 0 1.72984e-16)
(7.23638e-16 0 1.76851e-16)
(6.66056e-16 0 1.80129e-16)
(6.13458e-16 0 1.82941e-16)
(5.65399e-16 0 1.85309e-16)
(5.21455e-16 0 1.87243e-16)
(4.81171e-16 0 1.88814e-16)
(4.44175e-16 0 1.90024e-16)
(4.10064e-16 0 1.91048e-16)
(3.78497e-16 0 1.91885e-16)
(3.49112e-16 0 1.92609e-16)
(3.21566e-16 0 1.93291e-16)
(2.95614e-16 0 1.93974e-16)
(2.71005e-16 0 1.94677e-16)
(2.47492e-16 0 1.95473e-16)
(2.24828e-16 0 1.96393e-16)
(2.02866e-16 0 1.97427e-16)
(1.81473e-16 0 1.98585e-16)
(1.60463e-16 0 1.99816e-16)
(1.39721e-16 0 2.01119e-16)
(1.19145e-16 0 2.02483e-16)
(9.86723e-17 0 2.03848e-16)
(7.82823e-17 0 2.05151e-16)
(5.7944e-17 0 2.0633e-16)
(3.7616e-17 0 2.07385e-16)
(1.37209e-17 0 2.08212e-16)
(3.28515e-09 0 -1.00345e-08)
(6.32747e-09 0 -9.32187e-09)
(1.12064e-08 0 -7.83104e-09)
(1.53088e-08 0 -5.62125e-09)
(1.88444e-08 0 -2.8127e-09)
(2.17357e-08 0 5.03396e-10)
(2.38528e-08 0 4.15768e-09)
(2.51895e-08 0 8.05035e-09)
(2.57654e-08 0 1.2015e-08)
(2.52693e-08 0 1.54424e-08)
(2.4201e-08 0 1.96611e-08)
(2.27022e-08 0 2.32783e-08)
(2.00401e-08 0 2.50768e-08)
(1.58484e-08 0 2.95999e-08)
(1.21493e-08 0 3.66134e-08)
(9.29731e-09 0 3.20762e-08)
(5.50878e-09 0 3.32286e-08)
(6.32538e-10 0 3.45543e-08)
(-4.62639e-09 0 4.14043e-08)
(-7.22273e-09 0 3.26594e-08)
(-1.17084e-08 0 3.55183e-08)
(-1.61989e-08 0 3.48866e-08)
(-2.04479e-08 0 3.46678e-08)
(-2.41058e-08 0 3.19323e-08)
(-2.82009e-08 0 3.14572e-08)
(-3.18487e-08 0 2.97448e-08)
(-3.53337e-08 0 2.79707e-08)
(-3.85685e-08 0 2.59979e-08)
(-4.15561e-08 0 2.38387e-08)
(-4.42577e-08 0 2.15073e-08)
(-4.66704e-08 0 1.90308e-08)
(-4.8785e-08 0 1.64179e-08)
(-5.05623e-08 0 1.36778e-08)
(-5.20151e-08 0 1.08269e-08)
(-5.3124e-08 0 7.85428e-09)
(-5.38653e-08 0 4.81885e-09)
(-5.42216e-08 0 1.73481e-09)
(-5.41886e-08 0 -1.60828e-09)
(-5.37411e-08 0 -4.9029e-09)
(-5.28328e-08 0 -8.2074e-09)
(-5.15288e-08 0 -1.15526e-08)
(-4.97975e-08 0 -1.49382e-08)
(-4.7562e-08 0 -1.82126e-08)
(-4.48544e-08 0 -2.14235e-08)
(-4.17969e-08 0 -2.45967e-08)
(-3.82539e-08 0 -2.76124e-08)
(-3.42859e-08 0 -3.04089e-08)
(-2.98827e-08 0 -3.29483e-08)
(-2.52214e-08 0 -3.52735e-08)
(-2.01932e-08 0 -3.72498e-08)
(-1.48993e-08 0 -3.88628e-08)
(-9.40398e-09 0 -4.00775e-08)
(-3.80686e-09 0 -4.08861e-08)
(1.83327e-09 0 -4.11201e-08)
(7.45308e-09 0 -4.10845e-08)
(1.2951e-08 0 -4.04721e-08)
(1.82161e-08 0 -3.94433e-08)
(2.32282e-08 0 -3.79705e-08)
(2.78788e-08 0 -3.6144e-08)
(3.20926e-08 0 -3.39043e-08)
(3.58241e-08 0 -3.14516e-08)
(3.90091e-08 0 -2.87676e-08)
(4.15933e-08 0 -2.57567e-08)
(4.35519e-08 0 -2.28234e-08)
(4.49066e-08 0 -1.97415e-08)
(4.56512e-08 0 -1.68334e-08)
(4.57997e-08 0 -1.39882e-08)
(4.5342e-08 0 -1.13557e-08)
(4.43153e-08 0 -8.99026e-09)
(4.27771e-08 0 -6.98281e-09)
(4.07619e-08 0 -5.41806e-09)
(3.83277e-08 0 -4.42621e-09)
(3.55854e-08 0 -4.13373e-09)
(3.28332e-08 0 -4.91422e-09)
(3.09458e-08 0 -7.31525e-09)
(3.302e-08 0 -1.32087e-08)
(3.94949e-09 0 5.34718e-08)
(-2.16996e-09 0 1.02677e-07)
(9.82514e-10 0 4.86356e-08)
(-5.50258e-15 0 1.36671e-13)
(1.1291e-15 0 1.29113e-16)
(2.21208e-15 0 1.28957e-16)
(2.09455e-15 0 1.29764e-16)
(1.94449e-15 0 1.32649e-16)
(1.80011e-15 0 1.37281e-16)
(1.66419e-15 0 1.43175e-16)
(1.53673e-15 0 1.49906e-16)
(1.41753e-15 0 1.57144e-16)
(1.30639e-15 0 1.64568e-16)
(1.20294e-15 0 1.71919e-16)
(1.10688e-15 0 1.79033e-16)
(1.01797e-15 0 1.85743e-16)
(9.35903e-16 0 1.91927e-16)
(8.60351e-16 0 1.97531e-16)
(7.91002e-16 0 2.02452e-16)
(7.27443e-16 0 2.06774e-16)
(6.69282e-16 0 2.10466e-16)
(6.16177e-16 0 2.13526e-16)
(5.67663e-16 0 2.16111e-16)
(5.23295e-16 0 2.1821e-16)
(4.82629e-16 0 2.19885e-16)
(4.45344e-16 0 2.21219e-16)
(4.11057e-16 0 2.22294e-16)
(3.79324e-16 0 2.23246e-16)
(3.49856e-16 0 2.24073e-16)
(3.22321e-16 0 2.24921e-16)
(2.9642e-16 0 2.2581e-16)
(2.71894e-16 0 2.26782e-16)
(2.48495e-16 0 2.27888e-16)
(2.25975e-16 0 2.2917e-16)
(2.04159e-16 0 2.30618e-16)
(1.82869e-16 0 2.32231e-16)
(1.61941e-16 0 2.33958e-16)
(1.41272e-16 0 2.35736e-16)
(1.20717e-16 0 2.37587e-16)
(1.00223e-16 0 2.39376e-16)
(7.97299e-17 0 2.41071e-16)
(5.92055e-17 0 2.42622e-16)
(3.865e-17 0 2.43905e-16)
(1.41758e-17 0 2.44877e-16)
(3.87282e-09 0 -1.34383e-08)
(7.55974e-09 0 -1.25725e-08)
(1.32432e-08 0 -1.07391e-08)
(1.80851e-08 0 -7.99829e-09)
(2.22247e-08 0 -4.54593e-09)
(2.55848e-08 0 -4.75322e-10)
(2.80824e-08 0 4.10095e-09)
(2.96373e-08 0 8.8131e-09)
(2.99794e-08 0 1.3253e-08)
(2.94631e-08 0 1.82905e-08)
(2.84211e-08 0 2.33312e-08)
(2.64658e-08 0 2.66649e-08)
(2.23612e-08 0 2.91448e-08)
(1.82223e-08 0 3.86766e-08)
(1.46877e-08 0 3.90262e-08)
(1.13179e-08 0 3.78031e-08)
(5.74895e-09 0 3.82265e-08)
(1.16664e-09 0 4.20464e-08)
(-3.89634e-09 0 4.87608e-08)
(-6.51143e-09 0 3.59443e-08)
(-1.27543e-08 0 4.21647e-08)
(-1.68814e-08 0 4.05496e-08)
(-2.13895e-08 0 3.95204e-08)
(-2.55063e-08 0 3.73587e-08)
(-2.98544e-08 0 3.62935e-08)
(-3.3704e-08 0 3.43501e-08)
(-3.74047e-08 0 3.22699e-08)
(-4.0842e-08 0 2.99914e-08)
(-4.39902e-08 0 2.74891e-08)
(-4.68521e-08 0 2.48011e-08)
(-4.94093e-08 0 2.19695e-08)
(-5.16595e-08 0 1.89744e-08)
(-5.35762e-08 0 1.58348e-08)
(-5.51512e-08 0 1.25713e-08)
(-5.6366e-08 0 9.16986e-09)
(-5.72592e-08 0 5.76241e-09)
(-5.76114e-08 0 2.07721e-09)
(-5.76825e-08 0 -1.63664e-09)
(-5.73075e-08 0 -5.46402e-09)
(-5.64873e-08 0 -9.31009e-09)
(-5.50818e-08 0 -1.31194e-08)
(-5.33694e-08 0 -1.70455e-08)
(-5.11207e-08 0 -2.08944e-08)
(-4.83256e-08 0 -2.46526e-08)
(-4.50544e-08 0 -2.82655e-08)
(-4.13706e-08 0 -3.18433e-08)
(-3.71952e-08 0 -3.51671e-08)
(-3.25566e-08 0 -3.81869e-08)
(-2.74756e-08 0 -4.08486e-08)
(-2.21371e-08 0 -4.32592e-08)
(-1.64305e-08 0 -4.5185e-08)
(-1.05056e-08 0 -4.66383e-08)
(-4.44619e-09 0 -4.7523e-08)
(1.70159e-09 0 -4.79376e-08)
(7.83598e-09 0 -4.78667e-08)
(1.38227e-08 0 -4.70655e-08)
(1.95807e-08 0 -4.58634e-08)
(2.50503e-08 0 -4.41278e-08)
(3.01097e-08 0 -4.19218e-08)
(3.46862e-08 0 -3.92298e-08)
(3.87115e-08 0 -3.62593e-08)
(4.20906e-08 0 -3.30027e-08)
(4.48153e-08 0 -2.94078e-08)
(4.68549e-08 0 -2.58117e-08)
(4.81908e-08 0 -2.22031e-08)
(4.88453e-08 0 -1.86017e-08)
(4.88118e-08 0 -1.51601e-08)
(4.80998e-08 0 -1.19448e-08)