/*--------------------------------*- C++ -*----------------------------------*\
  =========                 |
  \\      /  F ield         | OpenFOAM: The Open Source CFD Toolbox
   \\    /   O peration     | Website:  https://openfoam.org
    \\  /    A nd           | Version:  6
     \\/     M anipulation  |
\*---------------------------------------------------------------------------*/
FoamFile
{
    version     2.0;
    format      ascii;
    class       volScalarField;
    location    "3100";
    object      Su;
}
// * * * * * * * * * * * * * * * * * * * * * * * * * * * * * * * * * * * * * //

dimensions      [0 0 -1 0 0 0 0];

internalField   nonuniform List<scalar> 
4800
(
0.219038
0.215966
0.212983
0.210163
0.207553
0.205166
0.203004
0.201052
0.199296
0.197714
0.19628
0.194972
0.193759
0.192608
0.191493
0.190395
0.189292
0.18817
0.187029
0.185867
0.184683
0.18347
0.182222
0.180937
0.179609
0.178234
0.176815
0.175348
0.173827
0.172252
0.170628
0.168962
0.167258
0.165523
0.163763
0.161982
0.160185
0.158378
0.156566
0.154755
0.15295
0.151151
0.149361
0.147582
0.145813
0.144053
0.142301
0.140548
0.138789
0.137017
0.135221
0.133393
0.131522
0.129597
0.127612
0.125562
0.123425
0.121194
0.118877
0.116489
0.114047
0.111562
0.109034
0.106458
0.103824
0.101122
0.0983358
0.0954494
0.0924434
0.0892984
0.0859951
0.0825143
0.0788364
0.0749465
0.0708342
0.0665015
0.061963
0.0572352
0.0523577
0.0473844
0.0423726
0.0374066
0.0325719
0.0278435
0.0232133
0.0186744
0.0142206
0.00984639
0.00554658
0.00131636
-0.00284876
-0.00695284
-0.0109999
-0.0149936
-0.0189374
-0.0228348
-0.0266887
-0.0305022
-0.0342781
-0.0380189
-0.0417273
-0.0454056
-0.0490559
-0.0526806
-0.0562815
-0.0598607
-0.0634199
-0.0669609
-0.0704854
-0.0739949
-0.077491
-0.0809752
-0.0844488
-0.0879132
-0.0913698
-0.0948197
-0.0982643
-0.101705
-0.105142
-0.108578
0.219033
0.215962
0.213021
0.21025
0.207677
0.205324
0.203182
0.201243
0.199491
0.197904
0.196462
0.19514
0.193906
0.192732
0.191591
0.190461
0.189326
0.188178
0.187014
0.18583
0.184622
0.183387
0.18212
0.180814
0.179469
0.17808
0.176645
0.175163
0.173629
0.172042
0.170404
0.168721
0.166999
0.165243
0.163462
0.161663
0.15985
0.15803
0.156207
0.154384
0.152568
0.15076
0.148962
0.147174
0.145398
0.143634
0.141878
0.140127
0.138373
0.136607
0.134819
0.133
0.13114
0.129231
0.127262
0.125233
0.123129
0.120941
0.11867
0.116319
0.113898
0.111414
0.108875
0.106282
0.103633
0.100918
0.0981225
0.0952296
0.0922201
0.089073
0.0857683
0.0822877
0.0786146
0.0747311
0.0706285
0.0663042
0.0617724
0.0570624
0.052202
0.0472416
0.0422516
0.0373038
0.0324801
0.0277599
0.0231365
0.0186035
0.0141551
0.00978573
0.00549038
0.00126426
-0.00289706
-0.00699762
-0.0110414
-0.015032
-0.018973
-0.0228677
-0.0267191
-0.0305303
-0.034304
-0.0380428
-0.0417492
-0.0454257
-0.0490743
-0.0526974
-0.0562968
-0.0598746
-0.0634324
-0.0669722
-0.0704955
-0.074004
-0.077499
-0.0809822
-0.0844549
-0.0879184
-0.0913741
-0.0948232
-0.098267
-0.101707
-0.105143
-0.108578
0.219065
0.216054
0.213164
0.210445
0.207925
0.205613
0.2035
0.201581
0.199836
0.198243
0.196782
0.195431
0.194159
0.192942
0.191748
0.190559
0.189369
0.188174
0.186967
0.185743
0.184493
0.183217
0.181909
0.180564
0.179183
0.177761
0.176294
0.174783
0.173226
0.171615
0.169953
0.168242
0.166489
0.1647
0.162884
0.161051
0.159207
0.157359
0.15551
0.153665
0.151827
0.15
0.148187
0.146386
0.144599
0.142825
0.141064
0.139311
0.137559
0.135799
0.134021
0.132215
0.130374
0.12849
0.126548
0.124551
0.122489
0.120351
0.118132
0.11583
0.113448
0.110991
0.108464
0.105871
0.103211
0.100481
0.0976733
0.0947704
0.0917561
0.0886077
0.0853051
0.0818296
0.0781664
0.0742987
0.0702184
0.0659229
0.0614208
0.0567397
0.0519149
0.0469916
0.0420327
0.0371059
0.0322996
0.0275942
0.0229838
0.0184625
0.0140246
0.00966491
0.00537841
0.00116046
-0.00299331
-0.00708686
-0.0111241
-0.0151086
-0.019044
-0.0229333
-0.0267798
-0.0305863
-0.0343556
-0.0380903
-0.0417929
-0.0454657
-0.049111
-0.0527308
-0.0563273
-0.0599022
-0.0634575
-0.0669948
-0.0705157
-0.074022
-0.077515
-0.0809962
-0.084467
-0.0879287
-0.0913827
-0.0948301
-0.0982723
-0.10171
-0.105146
-0.108579
0.219109
0.216188
0.213377
0.210724
0.20826
0.205991
0.20391
0.202008
0.200266
0.198666
0.197185
0.195805
0.194489
0.193209
0.191945
0.190687
0.189429
0.188169
0.186903
0.185623
0.184319
0.182985
0.181618
0.180218
0.178782
0.177307
0.17579
0.174231
0.172631
0.170982
0.169283
0.167536
0.165744
0.163914
0.162055
0.160179
0.158294
0.156407
0.154521
0.152645
0.150779
0.148926
0.147087
0.145263
0.143456
0.141664
0.13989
0.13813
0.136377
0.134625
0.132862
0.131074
0.129257
0.127399
0.125493
0.123534
0.121517
0.119429
0.117261
0.115008
0.112669
0.110246
0.107745
0.105167
0.102512
0.0997769
0.0969612
0.0940522
0.0910354
0.0878885
0.0845953
0.0811353
0.077493
0.0736536
0.0696114
0.0653632
0.0609138
0.0562849
0.0515118
0.0466369
0.0417178
0.0368163
0.032033
0.0273484
0.0227568
0.0182526
0.0138303
0.00948483
0.00521145
0.00100561
-0.00313692
-0.00722005
-0.0112476
-0.0152231
-0.0191499
-0.0230314
-0.0268704
-0.0306699
-0.0344327
-0.0381612
-0.0418581
-0.0455255
-0.0491657
-0.0527808
-0.0563728
-0.0599435
-0.0634948
-0.0670284
-0.0705459
-0.0740488
-0.0775387
-0.081017
-0.084485
-0.0879441
-0.0913955
-0.0948405
-0.0982803
-0.101716
-0.105149
-0.10858
0.219163
0.216345
0.213628
0.211058
0.20866
0.206435
0.204381
0.20249
0.200747
0.199136
0.197634
0.196219
0.194854
0.193515
0.192184
0.190855
0.189526
0.188196
0.186859
0.185503
0.184124
0.182718
0.181281
0.179811
0.178304
0.176762
0.17518
0.173557
0.171895
0.17019
0.168439
0.166645
0.164807
0.162928
0.161021
0.159097
0.157162
0.155228
0.153294
0.151373
0.149466
0.147575
0.1457
0.143841
0.142006
0.140191
0.138397
0.136626
0.134868
0.133122
0.131371
0.129606
0.127814
0.125988
0.124122
0.122205
0.120232
0.118191
0.116071
0.113866
0.111572
0.10919
0.106723
0.104171
0.101532
0.0988043
0.0959869
0.0930764
0.0900618
0.0869192
0.0836394
0.0802071
0.0766037
0.0728129
0.068829
0.0646461
0.0602691
0.0557122
0.0510029
0.0461835
0.0413099
0.0364376
0.031683
0.0270249
0.0224576
0.0179755
0.0135735
0.00924675
0.00499059
0.000800686
-0.00332706
-0.00739643
-0.0114111
-0.0153746
-0.0192903
-0.0231612
-0.0269904
-0.0307807
-0.0345348
-0.0382552
-0.0419444
-0.0456047
-0.0492381
-0.0528469
-0.056433
-0.0599982
-0.0635442
-0.0670729
-0.0705858
-0.0740844
-0.0775702
-0.0810445
-0.0845089
-0.0879644
-0.0914125
-0.0948542
-0.0982908
-0.101724
-0.105153
-0.108582
0.219219
0.216509
0.21389
0.211402
0.20907
0.206896
0.204876
0.203001
0.20126
0.19964
0.198116
0.196667
0.195256
0.193862
0.192467
0.19107
0.189669
0.188264
0.186845
0.185405
0.183939
0.182446
0.180925
0.179375
0.177789
0.176167
0.174508
0.172812
0.171078
0.169302
0.167484
0.165629
0.163733
0.161796
0.159833
0.157852
0.155858
0.153867
0.151875
0.149897
0.147937
0.146
0.144081
0.142184
0.140317
0.138472
0.136651
0.134862
0.133092
0.131344
0.1296
0.127851
0.126082
0.124288
0.122464
0.120589
0.118659
0.116663
0.114588
0.112427
0.110179
0.10784
0.105413
0.102894
0.100283
0.0975741
0.0947657
0.0918593
0.0888528
0.0857262
0.0824694
0.0790727
0.0755138
0.0717816
0.0678701
0.0637679
0.0594747
0.0549992
0.050361
0.0456075
0.0407984
0.035971
0.0312524
0.0266265
0.0220885
0.0176334
0.0132562
0.00895228
0.00471726
0.000546936
-0.0035626
-0.00761502
-0.0116139
-0.0155626
-0.0194644
-0.0233223
-0.0271393
-0.0309182
-0.0346615
-0.0383718
-0.0420515
-0.0457028
-0.0493279
-0.0529289
-0.0565075
-0.0600658
-0.0636054
-0.067128
-0.0706352
-0.0741284
-0.077609
-0.0810786
-0.0845383
-0.0879895
-0.0914334
-0.0948711
-0.0983039
-0.101733
-0.105159
-0.108583
0.219281
0.216682
0.21416
0.21176
0.209499
0.207379
0.205393
0.203535
0.201796
0.200167
0.198623
0.197142
0.195691
0.194246
0.192795
0.191334
0.189862
0.188376
0.18687
0.185339
0.183781
0.182196
0.180582
0.178941
0.177267
0.17556
0.173816
0.172036
0.17022
0.168365
0.166469
0.164537
0.162572
0.160565
0.158535
0.156486
0.154425
0.152366
0.150311
0.148272
0.146255
0.144266
0.142299
0.140358
0.138453
0.136576
0.134724
0.13291
0.131121
0.129358
0.127611
0.125869
0.124115
0.122347
0.120556
0.118721
0.116831
0.114878
0.112847
0.110732
0.108528
0.106233
0.103847
0.101363
0.0987849
0.0961015
0.0933121
0.090421
0.0874321
0.0843295
0.0810992
0.0777445
0.0742466
0.0705887
0.0667599
0.0627511
0.0585531
0.0541718
0.0496327
0.0449671
0.0402173
0.0354257
0.0307456
0.0261564
0.0216524
0.0172287
0.0128805
0.00860336
0.00439314
0.000245849
-0.00384223
-0.00787463
-0.0118548
-0.015786
-0.0196713
-0.0235138
-0.0273163
-0.0310815
-0.034812
-0.0385103
-0.0421787
-0.0458194
-0.0494345
-0.0530261
-0.056596
-0.0601461
-0.063678
-0.0671933
-0.0706937
-0.0741804
-0.0776551
-0.0811189
-0.0845732
-0.0880193
-0.0914582
-0.0948912
-0.0983193
-0.101744
-0.105165
-0.108586
0.21933
0.216835
0.214421
0.212118
0.209933
0.207867
0.205918
0.204083
0.202353
0.200716
0.199157
0.197647
0.196158
0.194668
0.193165
0.191644
0.190102
0.188535
0.18694
0.185316
0.183661
0.181978
0.18027
0.178536
0.176767
0.174965
0.173129
0.171259
0.169353
0.167408
0.165426
0.163409
0.161363
0.159278
0.157169
0.155043
0.152909
0.150777
0.148654
0.14655
0.144472
0.142428
0.14041
0.138423
0.136475
0.134563
0.132676
0.130829
0.129015
0.127231
0.12547
0.123722
0.121974
0.12022
0.118451
0.116646
0.114793
0.11288
0.110892
0.10882
0.106661
0.10441
0.102066
0.0996214
0.0970801
0.0944299
0.0916701
0.0888042
0.0858401
0.082769
0.0795769
0.0762668
0.0728243
0.0692362
0.0654917
0.0615779
0.0574861
0.0532153
0.0487759
0.0442026
0.0395375
0.0347993
0.0301651
0.0256178
0.0211524
0.0167642
0.0124489
0.00820215
0.00402015
-0.000100874
-0.00416444
-0.00817392
-0.0121326
-0.0160436
-0.01991
-0.0237347
-0.0275205
-0.0312699
-0.0349856
-0.03867
-0.0423253
-0.0459537
-0.0495573
-0.0531381
-0.0566979
-0.0602385
-0.0637614
-0.0672684
-0.0707609
-0.0742403
-0.077708
-0.0811653
-0.0846133
-0.0880534
-0.0914866
-0.0949141
-0.098337
-0.101756
-0.105173
-0.108588
0.219387
0.217006
0.214697
0.212481
0.210369
0.20836
0.206454
0.204645
0.202928
0.20129
0.199719
0.198182
0.196661
0.19513
0.193581
0.192005
0.190398
0.188756
0.187074
0.185355
0.183606
0.181825
0.180012
0.178172
0.176304
0.174403
0.172469
0.1705
0.168499
0.166461
0.164387
0.162281
0.160144
0.157973
0.155778
0.153568
0.151355
0.149147
0.146953
0.144779
0.142635
0.140528
0.138455
0.13642
0.134426
0.132473
0.130552
0.12867
0.126827
0.125016
0.123233
0.121467
0.119713
0.117962
0.116204
0.114422
0.112599
0.11072
0.108769
0.106734
0.104616
0.102409
0.100111
0.0977113
0.0952138
0.0926075
0.0898925
0.0870662
0.0841372
0.0811018
0.0779467
0.0746781
0.0712845
0.0677601
0.0640975
0.060284
0.0563066
0.0521577
0.0478372
0.0433672
0.0387826
0.0340999
0.0295159
0.0250148
0.0205919
0.016243
0.011964
0.00775104
0.00360041
-0.000491362
-0.00452756
-0.00851138
-0.012446
-0.0163343
-0.0201794
-0.023984
-0.0277508
-0.0314825
-0.0351814
-0.03885
-0.0424905
-0.046105
-0.0496956
-0.0532642
-0.0568125
-0.0603423
-0.0638553
-0.0673528
-0.0708364
-0.0743075
-0.0777674
-0.0812172
-0.0846583
-0.0880917
-0.0915185
-0.0949399
-0.0983568
-0.10177
-0.105181
-0.108591
0.219445
0.217176
0.214967
0.212837
0.210795
0.208843
0.20698
0.205203
0.203507
0.201877
0.200302
0.198747
0.197202
0.195644
0.194057
0.192435
0.190769
0.189056
0.187292
0.185481
0.183632
0.181747
0.179827
0.17788
0.175904
0.173899
0.171863
0.169793
0.167691
0.165555
0.163386
0.161183
0.158951
0.156688
0.154402
0.152103
0.149804
0.147513
0.14524
0.14299
0.140774
0.138598
0.136463
0.134373
0.132331
0.130336
0.128378
0.126461
0.124585
0.122744
0.120935
0.119148
0.117381
0.115623
0.113864
0.11209
0.110286
0.108434
0.106518
0.104523
0.102448
0.100287
0.098037
0.0956894
0.0932427
0.0906866
0.0880249
0.0852481
0.0823627
0.0793698
0.0762538
0.0730265
0.0696799
0.0662146
0.0626274
0.0589103
0.0550459
0.0510245
0.0468276
0.0424641
0.0379602
0.033333
0.0288026
0.0243514
0.0199747
0.0156684
0.0114289
0.00725259
0.00313617
-0.000923621
-0.00492981
-0.00888542
-0.0127934
-0.0166568
-0.0204782
-0.0242605
-0.0280063
-0.0317182
-0.0353984
-0.0390495
-0.0426735
-0.0462725
-0.0498486
-0.0534036
-0.0569392
-0.0604571
-0.0639588
-0.0674459
-0.0709197
-0.0743816
-0.0778328
-0.0812745
-0.0847078
-0.0881338
-0.0915536
-0.0949682
-0.0983786
-0.101786
-0.105191
-0.108594
0.2195
0.217336
0.215222
0.213174
0.211202
0.209308
0.207493
0.205756
0.204089
0.202479
0.200913
0.199356
0.1978
0.196221
0.194605
0.192941
0.19122
0.18944
0.187597
0.185694
0.183739
0.181743
0.179714
0.177655
0.175571
0.17346
0.171321
0.169151
0.166949
0.164714
0.162446
0.160145
0.157811
0.155451
0.153066
0.150673
0.148281
0.145899
0.143538
0.141206
0.138908
0.136657
0.134456
0.132307
0.130209
0.128165
0.126166
0.12421
0.122297
0.120425
0.118589
0.116777
0.114991
0.113221
0.111455
0.109681
0.107887
0.106053
0.104166
0.102208
0.100175
0.0980597
0.0958584
0.0935637
0.091171
0.0886712
0.0860674
0.0833479
0.0805172
0.0775789
0.0745165
0.0713425
0.0680497
0.0646418
0.0611201
0.057485
0.0537216
0.0498119
0.0457223
0.041466
0.0370616
0.0325012
0.0280297
0.0236321
0.0193046
0.0150438
0.0108464
0.00670943
0.00262974
-0.00139558
-0.00536933
-0.00929435
-0.0131735
-0.0170095
-0.0208051
-0.024563
-0.0282857
-0.0319758
-0.0356356
-0.0392673
-0.0428732
-0.0464552
-0.0500154
-0.0535554
-0.057077
-0.0605819
-0.0640714
-0.0675471
-0.0710102
-0.074462
-0.0779037
-0.0813365
-0.0847614
-0.0881795
-0.0915916
-0.0949989
-0.0984022
-0.101802
-0.105201
-0.108597
0.219551
0.217488
0.215464
0.213497
0.211595
0.209763
0.208003
0.206312
0.204684
0.203103
0.201558
0.200011
0.198455
0.196866
0.195228
0.193529
0.191761
0.189917
0.187994
0.185995
0.183936
0.181831
0.179688
0.177513
0.175317
0.1731
0.17086
0.16859
0.166289
0.163954
0.161584
0.15918
0.156745
0.154286
0.151805
0.149316
0.146827
0.144349
0.141891
0.139467
0.137082
0.134745
0.132464
0.130242
0.128078
0.125976
0.123927
0.121928
0.119976
0.118068
0.116198
0.114357
0.112545
0.110757
0.10898
0.107202
0.105411
0.103587
0.101721
0.0997974
0.0978044
0.0957362
0.0935835
0.091343
0.0890061
0.0865654
0.0840223
0.0813662
0.0785999
0.0757257
0.0727295
0.06962
0.0663899
0.0630453
0.05959
0.0560261
0.0523451
0.0485346
0.0445576
0.0404112
0.036104
0.031613
0.0272031
0.0228616
0.0185858
0.0143728
0.0102198
0.00612426
0.00208349
-0.00190517
-0.00584426
-0.00973646
-0.0135845
-0.017391
-0.0211586
-0.0248901
-0.0285877
-0.0322541
-0.0358916
-0.0395024
-0.0430885
-0.0466521
-0.0501949
-0.0537187
-0.0572252
-0.0607159
-0.0641922
-0.0676556
-0.0711071
-0.0745481
-0.0779797
-0.0814029
-0.0848188
-0.0882283
-0.0916323
-0.0950317
-0.0984275
-0.10182
-0.105211
-0.108601
0.219599
0.217629
0.215693
0.213807
0.211978
0.210211
0.208511
0.206875
0.205293
0.203751
0.202235
0.200709
0.199164
0.197576
0.195926
0.194201
0.192392
0.190489
0.188487
0.186395
0.184231
0.182013
0.179753
0.177461
0.17515
0.172826
0.170484
0.168116
0.165716
0.163282
0.160812
0.158306
0.155767
0.153205
0.150621
0.148029
0.145438
0.142859
0.140302
0.137778
0.135296
0.132865
0.130497
0.128198
0.125963
0.123793
0.121684
0.119635
0.117639
0.115689
0.11378
0.111906
0.110063
0.108249
0.106452
0.104663
0.102867
0.101049
0.099198
0.0972997
0.0953419
0.0933176
0.091215
0.0890288
0.0867478
0.0843674
0.0818879
0.0792986
0.0766035
0.073799
0.0708753
0.0678391
0.0646855
0.0614171
0.0580359
0.0545444
0.0509415
0.0472226
0.0433528
0.0393141
0.0350998
0.0306763
0.0263289
0.0220451
0.0178225
0.0136589
0.009552
0.0054997
0.0014997
-0.00245034
-0.00635275
-0.0102101
-0.0140249
-0.0177998
-0.0215374
-0.0252403
-0.028911
-0.0325518
-0.0361652
-0.0397533
-0.0433182
-0.0468619
-0.050386
-0.0538925
-0.0573827
-0.0608583
-0.0643205
-0.0677706
-0.0712099
-0.0746394
-0.0780601
-0.0814732
-0.0848795
-0.0882799
-0.0916752
-0.0950664
-0.0984541
-0.101839
-0.105222
-0.108605
0.219646
0.217766
0.215918
0.214113
0.21236
0.210664
0.20903
0.207454
0.205923
0.204423
0.20294
0.201442
0.199916
0.198338
0.196686
0.194946
0.193104
0.191144
0.189064
0.186878
0.184609
0.182278
0.179902
0.177494
0.17507
0.172636
0.170191
0.167724
0.165226
0.162692
0.160122
0.157517
0.154877
0.152214
0.14953
0.146837
0.144145
0.141464
0.138803
0.136176
0.133593
0.131065
0.128601
0.12621
0.12389
0.121645
0.119466
0.117353
0.115302
0.113304
0.111352
0.109439
0.10756
0.105714
0.103892
0.102082
0.100275
0.0984564
0.096614
0.0947333
0.0928055
0.0908179
0.0887622
0.0866262
0.0844006
0.0820809
0.0796699
0.0771545
0.0745355
0.0718055
0.0689591
0.0659992
0.0629223
0.0597304
0.0564281
0.0530199
0.0495055
0.0458769
0.0421023
0.0381661
0.0340494
0.0296959
0.0254122
0.021187
0.0170187
0.0129055
0.00884591
0.00483822
0.000880533
-0.00302918
-0.00689307
-0.0107135
-0.0144931
-0.0182344
-0.0219399
-0.0256122
-0.029254
-0.0328675
-0.0364551
-0.0400189
-0.043561
-0.0470834
-0.0505876
-0.0540755
-0.0575485
-0.0610079
-0.0644551
-0.0678913
-0.0713176
-0.0747349
-0.0781443
-0.0815467
-0.0849429
-0.0883338
-0.0917201
-0.0951025
-0.0984819
-0.101859
-0.105234
-0.108609
0.219692
0.217902
0.21614
0.214417
0.212741
0.21112
0.209554
0.208039
0.206562
0.205109
0.203667
0.202204
0.200704
0.199144
0.197502
0.195759
0.19389
0.191873
0.189712
0.18743
0.185053
0.18261
0.180118
0.177595
0.175057
0.172515
0.169967
0.167404
0.164811
0.162182
0.159516
0.156815
0.15408
0.151318
0.148536
0.145743
0.142949
0.140164
0.137399
0.134666
0.131978
0.129348
0.126785
0.124298
0.121886
0.119549
0.117288
0.115102
0.112985
0.110929
0.108928
0.106973
0.105055
0.103171
0.101318
0.0994831
0.0976589
0.0958323
0.0939908
0.0921203
0.0902141
0.0882578
0.0862449
0.0841567
0.0819835
0.0797222
0.0773731
0.0749273
0.0723887
0.0697428
0.0669818
0.0641048
0.0611101
0.0579993
0.0547771
0.0514472
0.0480159
0.0444826
0.0408147
0.036983
0.0329619
0.028678
0.0244582
0.0202919
0.0161781
0.0121158
0.00810417
0.00414204
0.000227904
-0.00363997
-0.00746359
-0.0112453
-0.0149876
-0.0186932
-0.0223645
-0.0260044
-0.0296152
-0.0331995
-0.0367595
-0.0402975
-0.0438154
-0.0473152
-0.0507983
-0.0542666
-0.0577213
-0.0611638
-0.0645953
-0.0680168
-0.0714294
-0.0748341
-0.0782316
-0.0816229
-0.0850086
-0.0883896
-0.0917665
-0.09514
-0.0985107
-0.101879
-0.105246
-0.108613
0.219737
0.218037
0.216361
0.21472
0.213124
0.211579
0.210085
0.208635
0.207216
0.205814
0.204416
0.202992
0.201524
0.199989
0.198364
0.196626
0.194733
0.192663
0.190423
0.188042
0.185557
0.182997
0.180388
0.17775
0.175099
0.172448
0.169799
0.167141
0.164459
0.161742
0.158987
0.156197
0.153373
0.150518
0.14764
0.144751
0.141859
0.138973
0.136104
0.133264
0.130467
0.127728
0.125059
0.12247
0.119965
0.117543
0.115197
0.112927
0.110728
0.108596
0.10653
0.104521
0.10256
0.100637
0.0987487
0.0968853
0.0950388
0.0931967
0.091348
0.0894819
0.0875901
0.085661
0.0836841
0.0816414
0.0795191
0.0773151
0.0750257
0.0726432
0.0701755
0.0676104
0.0649378
0.0621518
0.059252
0.0562361
0.0531045
0.0498615
0.0465148
0.0430658
0.0394916
0.0357599
0.0318371
0.0276274
0.0234719
0.019364
0.0153042
0.0112926
0.00732904
0.00341301
-0.000456592
-0.00428126
-0.00806295
-0.011804
-0.015507
-0.0191747
-0.0228098
-0.026415
-0.029993
-0.0335462
-0.0370771
-0.0405876
-0.0440799
-0.0475557
-0.0510167
-0.0544643
-0.0578999
-0.0613247
-0.0647397
-0.068146
-0.0715445
-0.074936
-0.0783213
-0.081701
-0.085076
-0.0884468
-0.091814
-0.0951783
-0.0985401
-0.1019
-0.105259
-0.108617
0.219782
0.218172
0.216584
0.215028
0.213514
0.212048
0.210627
0.209243
0.207883
0.206536
0.205185
0.203803
0.20237
0.200864
0.199261
0.197529
0.195615
0.193491
0.191169
0.188685
0.186087
0.183412
0.180686
0.177936
0.175175
0.172417
0.169666
0.166917
0.164154
0.161358
0.158524
0.155655
0.15275
0.149812
0.146846
0.143867
0.14088
0.137895
0.134924
0.13198
0.129076
0.126229
0.123452
0.120754
0.118141
0.115616
0.113177
0.110819
0.108538
0.106331
0.104193
0.102118
0.100101
0.0981309
0.0961996
0.0943015
0.0924262
0.0905614
0.0886959
0.0868222
0.0849343
0.083025
0.0810802
0.0790776
0.0770004
0.074848
0.0726207
0.0703117
0.0679213
0.0654376
0.0628498
0.060152
0.0573461
0.0544289
0.0513964
0.04825
0.0449966
0.0416387
0.0381607
0.0345293
0.030697
0.026553
0.0224586
0.0184073
0.0144
0.0104381
0.00652222
0.00265249
-0.0011718
-0.00495197
-0.00869002
-0.0123884
-0.01605
-0.0196776
-0.0232741
-0.0268426
-0.0303857
-0.0339059
-0.0374058
-0.0408874
-0.0443527
-0.0478034
-0.0512411
-0.0546672
-0.0580829
-0.0614893
-0.0648873
-0.0682779
-0.0716618
-0.0750398
-0.0784125
-0.0817805
-0.0851445
-0.0885049
-0.0918623
-0.0952172
-0.09857
-0.101921
-0.105271
-0.108621
0.219827
0.218307
0.216808
0.21534
0.213911
0.212525
0.211178
0.209862
0.208564
0.207274
0.20597
0.20463
0.203234
0.201759
0.200185
0.198462
0.196525
0.194341
0.191926
0.189329
0.186616
0.183829
0.18099
0.178128
0.175258
0.172392
0.169541
0.166703
0.163864
0.161002
0.158105
0.15517
0.152197
0.149187
0.146144
0.143081
0.140007
0.136929
0.13386
0.130817
0.12781
0.124855
0.121966
0.119154
0.116428
0.113793
0.111252
0.108799
0.106429
0.104138
0.101925
0.0997826
0.0977056
0.0956868
0.0937103
0.0917693
0.0898545
0.0879601
0.0860758
0.0841867
0.0822915
0.0803843
0.0784552
0.0764844
0.0744518
0.0723475
0.070172
0.0679259
0.0656068
0.0632051
0.0607065
0.0581019
0.0553911
0.0525729
0.0496443
0.0466041
0.0434534
0.0401932
0.0368089
0.0332756
0.0295385
0.0254581
0.0214226
0.0174252
0.0134681
0.00955401
0.00568477
0.00186117
-0.00191715
-0.00565147
-0.00934401
-0.0129975
-0.0166152
-0.0202002
-0.0237558
-0.0272852
-0.0307912
-0.0342766
-0.0377438
-0.0411949
-0.0446319
-0.0480564
-0.0514699
-0.0548737
-0.0582688
-0.0616562
-0.0650368
-0.0684113
-0.0717803
-0.0751445
-0.0785044
-0.0818606
-0.0852134
-0.0885633
-0.0919108
-0.0952562
-0.0986
-0.101942
-0.105284
-0.108625
0.219873
0.218443
0.217035
0.215657
0.214316
0.213011
0.21174
0.210493
0.20926
0.208026
0.206768
0.205467
0.204102
0.202653
0.20109
0.199355
0.197381
0.195138
0.192642
0.189947
0.187129
0.184232
0.181285
0.178315
0.175339
0.17237
0.169419
0.16649
0.163573
0.160651
0.157705
0.154723
0.151698
0.14863
0.145521
0.142382
0.13923
0.136073
0.132919
0.129781
0.126674
0.123613
0.120615
0.117691
0.114851
0.112102
0.109449
0.106886
0.104414
0.10203
0.0997299
0.0975087
0.0953613
0.0932847
0.0912637
0.0892822
0.0873312
0.0854033
0.0834947
0.0815875
0.0796806
0.0777701
0.0758485
0.0738964
0.0718956
0.0698322
0.0677042
0.0655147
0.063263
0.0609379
0.0585247
0.0560146
0.0534043
0.0506921
0.0478718
0.0449402
0.0418922
0.0387272
0.0354316
0.0319903
0.028357
0.0243464
0.0203681
0.0164208
0.0125102
0.00864108
0.0048168
0.00103889
-0.00269277
-0.00637969
-0.0100245
-0.0136306
-0.0172015
-0.0207412
-0.0242532
-0.0277409
-0.0312076
-0.0346561
-0.0380889
-0.0415081
-0.0449155
-0.0483128
-0.0517012
-0.055082
-0.058456
-0.061824
-0.0651868
-0.0685449
-0.0718989
-0.0752492
-0.0785963
-0.0819404
-0.0852821
-0.0886216
-0.0919591
-0.0952951
-0.0986299
-0.101964
-0.105297
-0.108629
0.21992
0.218584
0.217269
0.215982
0.214728
0.213506
0.212311
0.211133
0.209965
0.208785
0.20757
0.206306
0.204968
0.203537
0.201981
0.200223
0.19819
0.195862
0.193268
0.190478
0.187579
0.184604
0.181573
0.178509
0.175433
0.172359
0.169301
0.166275
0.163279
0.160302
0.157315
0.154296
0.151233
0.148122
0.144963
0.141764
0.138543
0.135312
0.132083
0.128863
0.125666
0.122506
0.1194
0.116363
0.113406
0.110541
0.107774
0.105105
0.102531
0.100051
0.0976611
0.0953572
0.0931341
0.0909879
0.0889066
0.0868706
0.0848747
0.0829085
0.0809656
0.0790356
0.0771119
0.0751915
0.0732687
0.0713258
0.0693471
0.0673173
0.0652356
0.0631009
0.0609123
0.0586579
0.0563253
0.0539074
0.0513986
0.0487938
0.0460814
0.0432579
0.0403154
0.0372514
0.0340471
0.0306925
0.0271645
0.0232237
0.0193012
0.0153973
0.0115272
0.00769891
0.00391723
0.000184414
-0.00349971
-0.00713722
-0.0107316
-0.014287
-0.0178079
-0.0212989
-0.0247642
-0.0282076
-0.0316325
-0.035042
-0.0384386
-0.0418244
-0.0452012
-0.0485703
-0.051933
-0.0552902
-0.0586427
-0.0619911
-0.0653359
-0.0686775
-0.0720164
-0.0753529
-0.0786871
-0.0820194
-0.0853499
-0.088679
-0.0920068
-0.0953335
-0.0986593
-0.101984
-0.105309
-0.108633
0.219968
0.218728
0.217508
0.216315
0.21515
0.214011
0.212892
0.211782
0.210673
0.20954
0.208365
0.207131
0.205815
0.204398
0.20284
0.201045
0.198942
0.196519
0.193828
0.190967
0.188006
0.184969
0.181869
0.178723
0.17555
0.172366
0.169195
0.166061
0.162977
0.159937
0.156916
0.153872
0.150785
0.147645
0.144453
0.14121
0.137931
0.134636
0.13134
0.128051
0.124776
0.121528
0.118323
0.115179
0.112114
0.109137
0.106257
0.103476
0.100794
0.0982115
0.0957257
0.0933323
0.0910276
0.0888079
0.0866577
0.0845607
0.0825076
0.0804937
0.0785091
0.0765479
0.0746009
0.0726633
0.0707307
0.0687888
0.0668228
0.0648161
0.0627721
0.0606879
0.0585597
0.0563737
0.0541188
0.0517867
0.0493708
0.0468676
0.0442632
0.0415531
0.0387241
0.0357714
0.0326685
0.0294004
0.0259736
0.0215345
0.0182282
0.0143567
0.0105187
0.00672538
0.00298334
-0.000704924
-0.00434009
-0.00792537
-0.0114656
-0.0149663
-0.0184331
-0.0218716
-0.0252866
-0.0286826
-0.0320632
-0.0354316
-0.0387903
-0.0421414
-0.0454864
-0.0488266
-0.052163
-0.0554963
-0.0588271
-0.0621557
-0.0654825
-0.0688078
-0.0721317
-0.0754544
-0.0787759
-0.0820965
-0.0854162
-0.088735
-0.0920532
-0.0953708
-0.0986879
-0.102005
-0.105321
-0.108637
0.220018
0.218879
0.217758
0.216659
0.215584
0.214527
0.213484
0.212439
0.211384
0.210293
0.209152
0.207943
0.206643
0.205229
0.203652
0.201802
0.199623
0.19712
0.194362
0.191447
0.188433
0.185338
0.182175
0.17896
0.175704
0.172421
0.169136
0.165883
0.162689
0.15956
0.156485
0.153424
0.150328
0.147176
0.143967
0.140698
0.137378
0.134031
0.13068
0.127333
0.123996
0.120677
0.117387
0.11415
0.110983
0.107905
0.104924
0.102042
0.0992564
0.0965717
0.0939849
0.0914941
0.0890957
0.0867871
0.0845528
0.0823831
0.0802626
0.078189
0.0761544
0.0741515
0.0721717
0.0702083
0.0682567
0.0663076
0.0643471
0.062357
0.0603425
0.0582997
0.0562236
0.0540989
0.0519138
0.0496596
0.047331
0.0449259
0.0424327
0.0398368
0.0371246
0.0342937
0.0313149
0.0281539
0.024817
0.0210495
0.0171571
0.0132989
0.00948138
0.00571593
0.00201014
-0.00163362
-0.00521734
-0.00874627
-0.0122273
-0.0156681
-0.0190758
-0.0224571
-0.0258179
-0.029163
-0.0324965
-0.0358216
-0.0391408
-0.0424559
-0.0457683
-0.0490791
-0.0523889
-0.0556981
-0.0590072
-0.0623162
-0.0656252
-0.0689343
-0.0722435
-0.0755527
-0.0788619
-0.082171
-0.0854801
-0.0887891
-0.092098
-0.0954068
-0.0987155
-0.102024
-0.105333
-0.108641
0.22007
0.219033
0.218012
0.217009
0.216022
0.215047
0.214077
0.213093
0.212089
0.21104
0.209929
0.208737
0.207443
0.206021
0.204404
0.202478
0.200211
0.197638
0.194842
0.1919
0.188848
0.185703
0.182487
0.179224
0.175916
0.172563
0.169181
0.165807
0.162483
0.159226
0.156045
0.152927
0.149825
0.146682
0.143475
0.140202
0.136866
0.133491
0.130101
0.126709
0.123323
0.119948
0.116594
0.113284
0.110037
0.106872
0.103798
0.100823
0.0979431
0.0951614
0.0924733
0.0898788
0.0873766
0.0849658
0.0826341
0.0803779
0.0781784
0.0760342
0.0739402
0.0718858
0.0698613
0.0678633
0.0658838
0.0639142
0.0619455
0.0599647
0.0579737
0.0559646
0.0539305
0.0518573
0.0497352
0.0475554
0.0453113
0.0429955
0.0406005
0.0381095
0.0355088
0.0327935
0.0299347
0.0268889
0.0236425
0.0199576
0.0160713
0.0122179
0.00840875
0.00466259
0.0009896
-0.00260855
-0.00613651
-0.00960288
-0.0130179
-0.0163918
-0.019734
-0.0230527
-0.0263546
-0.0296452
-0.0329288
-0.0362084
-0.0394865
-0.0427646
-0.0460439
-0.0493249
-0.0526081
-0.0558934
-0.059181
-0.0624707
-0.0657623
-0.0690557
-0.0723505
-0.0756467
-0.078944
-0.0822422
-0.0855411
-0.0888407
-0.0921407
-0.0954411
-0.0987418
-0.102043
-0.105344
-0.108645
0.220123
0.219191
0.218269
0.217361
0.216463
0.215567
0.214667
0.213739
0.212783
0.21177
0.210683
0.209502
0.208205
0.206766
0.205103
0.203104
0.200766
0.198155
0.19535
0.192395
0.189312
0.186125
0.182862
0.179548
0.176197
0.172802
0.169352
0.165874
0.162419
0.159018
0.155689
0.152446
0.149273
0.146122
0.142944
0.139704
0.136391
0.133021
0.129617
0.126195
0.122766
0.119343
0.115935
0.112566
0.109258
0.106029
0.102889
0.0998384
0.0968754
0.0940067
0.0912212
0.0885189
0.0859033
0.0833777
0.0809335
0.0785752
0.0762859
0.0740663
0.071911
0.0698036
0.0677269
0.0656821
0.0636642
0.0616629
0.0596762
0.0576901
0.0557065
0.0537198
0.0517185
0.0496902
0.0476182
0.045497
0.0433205
0.041087
0.0387928
0.0364091
0.0339137
0.0312957
0.0285285
0.0255828
0.0224259
0.0188336
0.0149751
0.0111121
0.00729163
0.00355292
-9.05112e-05
-0.00363967
-0.00710437
-0.0104988
-0.0138382
-0.0171363
-0.0204053
-0.0236548
-0.0268927
-0.0301248
-0.0333554
-0.0365876
-0.0398234
-0.0430639
-0.0463097
-0.0495611
-0.0528178
-0.0560797
-0.0593464
-0.0626174
-0.0658922
-0.0691704
-0.0724516
-0.0757353
-0.0790213
-0.0823091
-0.0855984
-0.088889
-0.0921807
-0.0954733
-0.0987664
-0.10206
-0.105354
-0.108648
0.220176
0.219349
0.218529
0.217715
0.216903
0.216082
0.215247
0.214374
0.213461
0.21248
0.211414
0.210241
0.208943
0.207495
0.205794
0.203741
0.201363
0.198745
0.195952
0.193001
0.189898
0.186672
0.183348
0.179967
0.176563
0.173138
0.169657
0.166114
0.162553
0.159012
0.155519
0.152101
0.148776
0.145538
0.14236
0.139182
0.135938
0.132613
0.129224
0.125782
0.122309
0.11883
0.115367
0.111959
0.108615
0.105351
0.102169
0.0990617
0.0960264
0.0930823
0.0902066
0.0874001
0.0846658
0.0820155
0.0794492
0.0769839
0.0746
0.0723168
0.0701064
0.0679493
0.0658246
0.0637318
0.0616728
0.0596403
0.0576237
0.0556041
0.0536012
0.05162
0.0496388
0.0476511
0.0456234
0.0435406
0.041416
0.0392392
0.0370329
0.034752
0.032357
0.0298383
0.0271637
0.0243057
0.0212366
0.0177518
0.0139058
0.00998691
0.00611394
0.00236648
-0.00124875
-0.00474095
-0.00812955
-0.0114379
-0.0146884
-0.0178994
-0.0210856
-0.0242585
-0.0274266
-0.0305961
-0.0337711
-0.0369542
-0.0401468
-0.0433495
-0.0465621
-0.0497843
-0.0530153
-0.0562545
-0.0595011
-0.0627542
-0.0660131
-0.069277
-0.0725453
-0.0758175
-0.0790928
-0.0823709
-0.0856514
-0.0889337
-0.0922177
-0.0955029
-0.0987892
-0.102076
-0.105364
-0.108652
0.220229
0.219506
0.218784
0.218062
0.217334
0.216586
0.215815
0.214998
0.214125
0.213176
0.212132
0.210976
0.20969
0.208251
0.206531
0.204442
0.202041
0.199425
0.196653
0.193734
0.190644
0.187389
0.18399