/*--------------------------------*- C++ -*----------------------------------*\
  =========                 |
  \\      /  F ield         | OpenFOAM: The Open Source CFD Toolbox
   \\    /   O peration     | Website:  https://openfoam.org
    \\  /    A nd           | Version:  6
     \\/     M anipulation  |
\*---------------------------------------------------------------------------*/
FoamFile
{
    version     2.0;
    format      ascii;
    class       volScalarField;
    location    "3100";
    object      T;
}
// * * * * * * * * * * * * * * * * * * * * * * * * * * * * * * * * * * * * * //

dimensions      [0 0 0 1 0 0 0];

internalField   nonuniform List<scalar> 
4800
(
552.494
552.382
552.274
552.172
552.077
551.991
551.912
551.841
551.778
551.72
551.668
551.621
551.577
551.535
551.495
551.455
551.415
551.374
551.333
551.291
551.248
551.204
551.158
551.112
551.064
551.014
550.962
550.909
550.854
550.797
550.738
550.678
550.616
550.553
550.489
550.424
550.359
550.294
550.228
550.162
550.097
550.032
549.967
549.902
549.838
549.774
549.711
549.647
549.583
549.519
549.454
549.388
549.32
549.25
549.178
549.104
549.026
548.945
548.861
548.775
548.686
548.596
548.504
548.411
548.315
548.217
548.116
548.012
547.903
547.789
547.669
547.542
547.409
547.268
547.119
546.962
546.797
546.626
546.449
546.268
546.087
545.907
545.732
545.56
545.392
545.227
545.066
544.907
544.751
544.598
544.447
544.298
544.151
544.006
543.863
543.722
543.582
543.444
543.307
543.171
543.037
542.903
542.771
542.639
542.509
542.379
542.25
542.122
541.994
541.866
541.74
541.613
541.487
541.362
541.236
541.111
540.986
540.862
540.737
540.612
552.494
552.382
552.275
552.175
552.082
551.996
551.919
551.848
551.785
551.727
551.675
551.627
551.582
551.54
551.498
551.457
551.416
551.375
551.332
551.289
551.246
551.201
551.155
551.107
551.059
551.008
550.956
550.903
550.847
550.789
550.73
550.669
550.606
550.543
550.478
550.413
550.347
550.281
550.215
550.149
550.083
550.018
549.952
549.887
549.823
549.759
549.695
549.632
549.568
549.504
549.439
549.373
549.306
549.237
549.165
549.092
549.015
548.936
548.854
548.768
548.681
548.591
548.498
548.404
548.308
548.21
548.109
548.004
547.894
547.78
547.66
547.534
547.401
547.26
547.111
546.955
546.79
546.619
546.443
546.263
546.082
545.903
545.728
545.557
545.389
545.225
545.063
544.905
544.749
544.596
544.445
544.296
544.15
544.005
543.862
543.721
543.581
543.443
543.306
543.17
543.036
542.903
542.77
542.639
542.508
542.379
542.25
542.121
541.993
541.866
541.739
541.613
541.487
541.362
541.236
541.111
540.986
540.861
540.737
540.612
552.495
552.385
552.281
552.182
552.091
552.007
551.93
551.861
551.797
551.74
551.687
551.638
551.591
551.547
551.504
551.461
551.418
551.374
551.331
551.286
551.241
551.195
551.147
551.098
551.048
550.997
550.944
550.889
550.832
550.774
550.714
550.652
550.588
550.523
550.457
550.391
550.324
550.257
550.19
550.123
550.056
549.99
549.924
549.859
549.794
549.73
549.666
549.602
549.539
549.475
549.41
549.345
549.278
549.21
549.139
549.067
548.992
548.915
548.834
548.751
548.664
548.575
548.484
548.39
548.293
548.194
548.092
547.987
547.878
547.763
547.644
547.518
547.385
547.245
547.097
546.941
546.777
546.608
546.433
546.254
546.074
545.896
545.722
545.551
545.384
545.22
545.059
544.901
544.745
544.592
544.441
544.293
544.147
544.002
543.859
543.718
543.579
543.441
543.304
543.169
543.034
542.901
542.769
542.638
542.507
542.378
542.249
542.12
541.993
541.866
541.739
541.613
541.487
541.361
541.236
541.111
540.986
540.861
540.737
540.612
552.496
552.39
552.288
552.192
552.103
552.021
551.945
551.876
551.813
551.755
551.701
551.651
551.603
551.557
551.511
551.465
551.42
551.374
551.328
551.282
551.235
551.186
551.137
551.086
551.034
550.98
550.925
550.869
550.811
550.751
550.689
550.626
550.561
550.495
550.427
550.359
550.291
550.222
550.154
550.086
550.018
549.951
549.884
549.818
549.753
549.688
549.623
549.559
549.496
549.432
549.368
549.304
549.238
549.17
549.101
549.03
548.957
548.881
548.803
548.721
548.636
548.548
548.458
548.364
548.268
548.169
548.066
547.961
547.852
547.737
547.618
547.492
547.36
547.221
547.075
546.92
546.759
546.591
546.418
546.241
546.063
545.886
545.712
545.542
545.375
545.212
545.052
544.894
544.739
544.586
544.436
544.288
544.142
543.998
543.856
543.715
543.576
543.438
543.301
543.166
543.032
542.899
542.767
542.636
542.506
542.376
542.247
542.119
541.992
541.865
541.738
541.612
541.486
541.361
541.235
541.11
540.986
540.861
540.737
540.612
552.498
552.396
552.297
552.204
552.117
552.037
551.962
551.894
551.83
551.772
551.717
551.666
551.617
551.568
551.52
551.472
551.423
551.375
551.327
551.277
551.227
551.176
551.124
551.071
551.016
550.96
550.903
550.844
550.784
550.722
550.659
550.594
550.527
550.459
550.39
550.32
550.25
550.18
550.109
550.04
549.971
549.902
549.834
549.767
549.7
549.634
549.569
549.505
549.441
549.378
549.314
549.25
549.185
549.119
549.051
548.982
548.91
548.836
548.759
548.679
548.596
548.51
548.42
548.328
548.232
548.133
548.031
547.926
547.816
547.702
547.583
547.459
547.328
547.191
547.046
546.894
546.736
546.57
546.4
546.225
546.048
545.872
545.699
545.53
545.365
545.202
545.042
544.885
544.731
544.579
544.429
544.282
544.136
543.992
543.85
543.71
543.571
543.434
543.298
543.163
543.029
542.896
542.764
542.633
542.503
542.374
542.245
542.118
541.99
541.863
541.737
541.611
541.485
541.36
541.235
541.11
540.985
540.861
540.736
540.612
552.5
552.402
552.307
552.217
552.132
552.053
551.98
551.912
551.849
551.79
551.735
551.682
551.631
551.581
551.53
551.479
551.429
551.378
551.326
551.274
551.221
551.167
551.111
551.055
550.998
550.939
550.879
550.817
550.754
550.69
550.624
550.557
550.488
550.418
550.347
550.275
550.202
550.13
550.058
549.986
549.915
549.845
549.775
549.706
549.639
549.572
549.506
549.441
549.377
549.313
549.25
549.187
549.123
549.057
548.991
548.923
548.853
548.781
548.706
548.627
548.546
548.461
548.373
548.282
548.187
548.089
547.987
547.881
547.772
547.659
547.541
547.418
547.289
547.153
547.011
546.863
546.707
546.545
546.376
546.204
546.03
545.855
545.684
545.516
545.351
545.19
545.031
544.875
544.721
544.57
544.421
544.274
544.129
543.986
543.844
543.704
543.566
543.429
543.293
543.158
543.025
542.893
542.761
542.63
542.501
542.372
542.243
542.116
541.988
541.862
541.735
541.61
541.484
541.359
541.234
541.109
540.985
540.861
540.736
540.612
552.502
552.408
552.317
552.23
552.148
552.071
551.999
551.931
551.868
551.809
551.753
551.7
551.647
551.595
551.542
551.489
551.436
551.382
551.327
551.272
551.215
551.158
551.099
551.04
550.979
550.917
550.854
550.789
550.723
550.656
550.587
550.517
550.446
550.373
550.299
550.225
550.15
550.076
550.001
549.927
549.854
549.782
549.711
549.64
549.571
549.503
549.436
549.37
549.305
549.241
549.178
549.115
549.051
548.987
548.922
548.856
548.787
548.716
548.643
548.566
548.486
548.403
548.316
548.226
548.133
548.035
547.934
547.829
547.721
547.608
547.491
547.369
547.243
547.11
546.971
546.826
546.674
546.515
546.35
546.181
546.009
545.835
545.665
545.499
545.335
545.175
545.017
544.862
544.709
544.559
544.411
544.264
544.12
543.978
543.837
543.697
543.559
543.423
543.288
543.153
543.02
542.888
542.757
542.627
542.497
542.369
542.241
542.113
541.986
541.86
541.734
541.608
541.483
541.358
541.233
541.109
540.984
540.86
540.736
540.612
552.504
552.414
552.326
552.243
552.163
552.089
552.018
551.951
551.889
551.829
551.773
551.718
551.664
551.61
551.555
551.5
551.444
551.387
551.33
551.271
551.211
551.15
551.088
551.025
550.961
550.895
550.829
550.761
550.692
550.621
550.549
550.476
550.402
550.326
550.25
550.173
550.095
550.018
549.941
549.865
549.789
549.715
549.642
549.57
549.499
549.43
549.362
549.295
549.229
549.164
549.1
549.037
548.974
548.91
548.846
548.78
548.713
548.644
548.572
548.497
548.418
548.337
548.252
548.163
548.071
547.975
547.875
547.771
547.663
547.552
547.436
547.316
547.191
547.061
546.925
546.783
546.635
546.48
546.319
546.153
545.984
545.812
545.644
545.479
545.317
545.158
545.002
544.847
544.696
544.546
544.399
544.254
544.11
543.968
543.828
543.689
543.552
543.416
543.281
543.148
543.015
542.883
542.753
542.623
542.494
542.365
542.238
542.11
541.984
541.858
541.732
541.606
541.481
541.357
541.232
541.108
540.984
540.86
540.736
540.612
552.506
552.42
552.336
552.256
552.179
552.106
552.037
551.972
551.909
551.85
551.793
551.737
551.682
551.627
551.57
551.513
551.455
551.395
551.334
551.272
551.209
551.144
551.078
551.012
550.944
550.875
550.805
550.733
550.661
550.587
550.512
550.435
550.358
550.279
550.199
550.119
550.039
549.959
549.879
549.801
549.723
549.646
549.571
549.497
549.425
549.354
549.285
549.216
549.15
549.084
549.019
548.955
548.892
548.828
548.764
548.7
548.634
548.565
548.495
548.421
548.344
548.264
548.181
548.094
548.003
547.909
547.81
547.708
547.601
547.491
547.377
547.258
547.135
547.007
546.875
546.736
546.592
546.442
546.285
546.123
545.956
545.787
545.621
545.457
545.297
545.139
544.984
544.831
544.681
544.532
544.386
544.241
544.099
543.958
543.818
543.68
543.544
543.408
543.274
543.141
543.009
542.878
542.748
542.618
542.49
542.362
542.234
542.107
541.981
541.855
541.73
541.605
541.48
541.355
541.231
541.107
540.983
540.859
540.735
540.612
552.508
552.426
552.346
552.269
552.195
552.124
552.056
551.992
551.93
551.871
551.814
551.758
551.702
551.645
551.588
551.529
551.468
551.406
551.342
551.277
551.21
551.141
551.072
551.001
550.929
550.857
550.783
550.708
550.632
550.554
550.475
550.396
550.315
550.232
550.15
550.066
549.983
549.9
549.817
549.736
549.655
549.576
549.499
549.423
549.349
549.277
549.206
549.136
549.068
549.001
548.936
548.871
548.807
548.743
548.679
548.615
548.55
548.482
548.413
548.341
548.265
548.187
548.105
548.02
547.932
547.839
547.742
547.642
547.537
547.428
547.315
547.198
547.077
546.951
546.821
546.686
546.546
546.4
546.248
546.09
545.927
545.759
545.595
545.433
545.275
545.118
544.965
544.813
544.664
544.517
544.371
544.228
544.086
543.946
543.807
543.67
543.534
543.4
543.266
543.134
543.002
542.872
542.742
542.613
542.485
542.357
542.23
542.104
541.978
541.852
541.727
541.602
541.478
541.354
541.23
541.106
540.982
540.859
540.735
540.612
552.51
552.432
552.355
552.281
552.209
552.141
552.075
552.012
551.952
551.893
551.836
551.78
551.723
551.666
551.608
551.547
551.485
551.42
551.353
551.284
551.214
551.141
551.068
550.993
550.917
550.841
550.763
550.684
550.605
550.524
550.441
550.358
550.273
550.188
550.101
550.014
549.928
549.841
549.756
549.671
549.588
549.506
549.426
549.348
549.272
549.198
549.126
549.055
548.985
548.917
548.851
548.785
548.72
548.656
548.592
548.528
548.463
548.396
548.328
548.257
548.183
548.106
548.026
547.943
547.856
547.766
547.671
547.573
547.47
547.363
547.252
547.137
547.018
546.894
546.767
546.635
546.498
546.356
546.208
546.054
545.894
545.729
545.567
545.407
545.25
545.096
544.943
544.793
544.645
544.499
544.355
544.213
544.072
543.933
543.795
543.659
543.524
543.39
543.258
543.126
542.995
542.865
542.736
542.608
542.48
542.353
542.226
542.1
541.975
541.85
541.725
541.6
541.476
541.352
541.228
541.105
540.981
540.858
540.735
540.612
552.512
552.437
552.364
552.293
552.224
552.157
552.093
552.032
551.973
551.916
551.86
551.804
551.747
551.69
551.63
551.569
551.504
551.438
551.368
551.295
551.221
551.144
551.067
550.988
550.908
550.828
550.746
550.664
550.581
550.496
550.41
550.323
550.235
550.145
550.055
549.965
549.875
549.785
549.696
549.608
549.521
549.437
549.354
549.273
549.195
549.119
549.044
548.972
548.901
548.832
548.764
548.697
548.632
548.567
548.502
548.438
548.373
548.307
548.239
548.169
548.097
548.022
547.944
547.863
547.778
547.689
547.597
547.501
547.401
547.296
547.188
547.075
546.958
546.836
546.711
546.582
546.448
546.31
546.166
546.016
545.859
545.697
545.537
545.379
545.224
545.071
544.921
544.772
544.626
544.481
544.338
544.197
544.057
543.919
543.783
543.647
543.513
543.38
543.248
543.117
542.987
542.858
542.73
542.602
542.475
542.348
542.222
542.096
541.971
541.846
541.722
541.598
541.474
541.35
541.227
541.104
540.98
540.857
540.734
540.611
552.514
552.443
552.372
552.304
552.238
552.174
552.112
552.053
551.995
551.939
551.884
551.829
551.773
551.715
551.655
551.593
551.527
551.458
551.386
551.31
551.231
551.151
551.069
550.986
550.902
550.818
550.733
550.647
550.56
550.472
550.382
550.291
550.199
550.106
550.012
549.918
549.824
549.731
549.638
549.547
549.457
549.368
549.283
549.199
549.118
549.039
548.963
548.889
548.816
548.746
548.676
548.608
548.542
548.476
548.411
548.346
548.281
548.215
548.148
548.079
548.008
547.934
547.858
547.779
547.696
547.61
547.52
547.426
547.328
547.226
547.12
547.01
546.896
546.777
546.655
546.528
546.397
546.263
546.122
545.976
545.823
545.663
545.505
545.35
545.196
545.045
544.896
544.749
544.604
544.461
544.32
544.18
544.041
543.904
543.769
543.635
543.502
543.369
543.238
543.108
542.979
542.85
542.723
542.596
542.469
542.343
542.217
542.092
541.967
541.843
541.719
541.595
541.472
541.348
541.225
541.102
540.979
540.857
540.734
540.611
552.516
552.448
552.381
552.315
552.251
552.19
552.131
552.074
552.018
551.964
551.91
551.856
551.8
551.743
551.683
551.62
551.553
551.482
551.407
551.327
551.245
551.161
551.074
550.987
550.899
550.811
550.722
550.633
550.542
550.45
550.357
550.263
550.167
550.07
549.973
549.875
549.778
549.68
549.584
549.489
549.395
549.303
549.214
549.127
549.043
548.962
548.883
548.806
548.732
548.659
548.588
548.519
548.451
548.384
548.318
548.252
548.187
548.121
548.054
547.986
547.916
547.844
547.769
547.692
547.611
547.527
547.439
547.348
547.253
547.154
547.051
546.944
546.832
546.716
546.596
546.473
546.345
546.214
546.077
545.934
545.785
545.627
545.472
545.319
545.167
545.018
544.871
544.725
544.582
544.44
544.3
544.161
544.024
543.889
543.754
543.621
543.489
543.358
543.228
543.099
542.97
542.842
542.715
542.589
542.463
542.337
542.212
542.088
541.964
541.84
541.716
541.593
541.469
541.346
541.224
541.101
540.978
540.856
540.734
540.611
552.517
552.452
552.389
552.326
552.265
552.207
552.15
552.095
552.041
551.989
551.936
551.883
551.829
551.772
551.713
551.649
551.582
551.509
551.43
551.347
551.261
551.173
551.082
550.991
550.899
550.806
550.714
550.621
550.527
550.432
550.335
550.237
550.138
550.038
549.937
549.836
549.734
549.633
549.533
549.434
549.336
549.241
549.148
549.058
548.97
548.886
548.804
548.724
548.648
548.573
548.5
548.43
548.36
548.292
548.224
548.158
548.092
548.025
547.959
547.891
547.822
547.751
547.678
547.602
547.523
547.441
547.356
547.267
547.175
547.079
546.979
546.875
546.766
546.653
546.537
546.416
546.291
546.163
546.03
545.891
545.745
545.59
545.437
545.286
545.137
544.989
544.844
544.7
544.558
544.418
544.279
544.142
544.006
543.872
543.739
543.607
543.476
543.346
543.217
543.089
542.961
542.834
542.708
542.582
542.457
542.332
542.207
542.083
541.96
541.836
541.713
541.59
541.467
541.344
541.222
541.1
540.977
540.855
540.733
540.611
552.519
552.457
552.397
552.337
552.279
552.223
552.169
552.116
552.065
552.014
551.963
551.912
551.859
551.803
551.744
551.681
551.612
551.537
551.456
551.37
551.279
551.187
551.092
550.996
550.9
550.804
550.708
550.612
550.514
550.416
550.316
550.215
550.112
550.009
549.904
549.8
549.695
549.59
549.486
549.383
549.282
549.182
549.085
548.992
548.901
548.813
548.728
548.645
548.566
548.488
548.413
548.341
548.269
548.2
548.131
548.064
547.997
547.93
547.863
547.795
547.727
547.657
547.585
547.511
547.434
547.354
547.271
547.184
547.095
547.002
546.905
546.804
546.699
546.589
546.476
546.358
546.237
546.112
545.982
545.847
545.705
545.552
545.401
545.252
545.105
544.96
544.816
544.674
544.533
544.395
544.258
544.122
543.988
543.855
543.723
543.592
543.462
543.333
543.205
543.078
542.951
542.825
542.7
542.575
542.45
542.326
542.202
542.079
541.955
541.832
541.71
541.587
541.465
541.342
541.22
541.098
540.976
540.854
540.733
540.611
552.521
552.462
552.405
552.348
552.293
552.24
552.189
552.138
552.089
552.04
551.991
551.941
551.889
551.835
551.776
551.714
551.644
551.567
551.483
551.393
551.299
551.202
551.103
551.003
550.903
550.803
550.703
550.603
550.503
550.402
550.299
550.195
550.09
549.983
549.876
549.768
549.659
549.551
549.443
549.336
549.231
549.128
549.027
548.929
548.835
548.743
548.654
548.569
548.486
548.406
548.329
548.253
548.18
548.109
548.039
547.97
547.902
547.834
547.767
547.699
547.63
547.561
547.49
547.418
547.343
547.264
547.184
547.1
547.013
546.923
546.829
546.731
546.63
546.524
546.414
546.3
546.182
546.06
545.934
545.802
545.663
545.513
545.365
545.218
545.072
544.929
544.787
544.646
544.508
544.37
544.235
544.101
543.968
543.836
543.706
543.577
543.448
543.32
543.193
543.067
542.941
542.816
542.692
542.567
542.444
542.32
542.197
542.074
541.951
541.829
541.706
541.584
541.462
541.34
541.219
541.097
540.975
540.854
540.732
540.611
552.522
552.467
552.413
552.36
552.308
552.257
552.209
552.161
552.114
552.067
552.02
551.971
551.921
551.867
551.81
551.747
551.677
551.598
551.51
551.416
551.318
551.217
551.114
551.01
550.906
550.802
550.699
550.596
550.493
550.389
550.284
550.177
550.07
549.96
549.85
549.739
549.628
549.516
549.405
549.294
549.185
549.078
548.973
548.871
548.772
548.677
548.585
548.496
548.41
548.327
548.246
548.169
548.093
548.02
547.949
547.878
547.809
547.74
547.672
547.603
547.534
547.465
547.395
547.324
547.25
547.174
547.095
547.013
546.929
546.842
546.752
546.657
546.559
546.457
546.35
546.24
546.126
546.008
545.885
545.757
545.621
545.473
545.327
545.182
545.038
544.897
544.756
544.617
544.48
544.345
544.211
544.079
543.947
543.817
543.688
543.56
543.433
543.307
543.181
543.056
542.931
542.807
542.683
542.56
542.437
542.314
542.191
542.069
541.947
541.825
541.703
541.581
541.46
541.338
541.217
541.095
540.974
540.853
540.732
540.611
552.524
552.472
552.421
552.371
552.322
552.275
552.229
552.184
552.139
552.094
552.049
552.002
551.952
551.899
551.843
551.78
551.708
551.627
551.536
551.439
551.336
551.231
551.125
551.017
550.909
550.801
550.694
550.588
550.482
550.376
550.269
550.161
550.052
549.94
549.827
549.714
549.599
549.485
549.37
549.257
549.144
549.033
548.924
548.818
548.715
548.616
548.519
548.426
548.337
548.25
548.167
548.086
548.008
547.933
547.86
547.788
547.717
547.647
547.578
547.509
547.44
547.37
547.301
547.23
547.157
547.083
547.005
546.926
546.844
546.76
546.672
546.581
546.487
546.388
546.286
546.18
546.069
545.954
545.835
545.71
545.578
545.433
545.289
545.146
545.004
544.863
544.725
544.588
544.452
544.319
544.186
544.056
543.926
543.798
543.67
543.544
543.418
543.293
543.169
543.045
542.921
542.798
542.675
542.552
542.43
542.308
542.186
542.064
541.942
541.821
541.7
541.578
541.457
541.336
541.215
541.094
540.973
540.852
540.731
540.61
552.526
552.477
552.43
552.383
552.337
552.293
552.25
552.207
552.165
552.122
552.078
552.032
551.983
551.932
551.875
551.811
551.738
551.653
551.559
551.458
551.353
551.245
551.135
551.024
550.912
550.801
550.69
550.58
550.472
550.364
550.255
550.146
550.035
549.922
549.807
549.691
549.574
549.457
549.34
549.223
549.107
548.993
548.88
548.77
548.663
548.559
548.459
548.362
548.268
548.178
548.092
548.008
547.928
547.85
547.774
547.7
547.628
547.557
547.486
547.416
547.347
547.277
547.207
547.137
547.065
546.991
546.916
546.838
546.759
546.677
546.593
546.505
546.414
546.32
546.221
546.119
546.012
545.901
545.785
545.663
545.535
545.393
545.25
545.108
544.968
544.829
544.692
544.557
544.423
544.291
544.161
544.032
543.904
543.778
543.652
543.527
543.403
543.279
543.156
543.033
542.911
542.789
542.667
542.545
542.423
542.302
542.181
542.059
541.938
541.817
541.696
541.575
541.455
541.334
541.213
541.093
540.972
540.851
540.731
540.61
552.527
552.482
552.438
552.395
552.353
552.311
552.271
552.231
552.19
552.149
552.107
552.062
552.014
551.963
551.906
551.841
551.765
551.677
551.579
551.476
551.368
551.258
551.146
551.032
550.917
550.801
550.686
550.572
550.461
550.35
550.241
550.13
550.018
549.905
549.789
549.671
549.552
549.433
549.313
549.194
549.075
548.957
548.841
548.727
548.616
548.508
548.404
548.303
548.205
548.112
548.022
547.935
547.851
547.771
547.693
547.617
547.542
547.469
547.397
547.326
547.255
547.185
547.115
547.045
546.973
546.901
546.827
546.751
546.674
546.594
546.513
546.428
546.34
546.25
546.155
546.057
545.954
545.847
545.735
545.616
545.492
545.352
545.211
545.071
544.932
544.794
544.658
544.524
544.393
544.263
544.134
544.007
543.882
543.757
543.633
543.51
543.387
543.265
543.143
543.022
542.9
542.779
542.658
542.537
542.417
542.296
542.175
542.055
541.934
541.814
541.693
541.573
541.452
541.332
541.212
541.091
540.971
540.851
540.73
540.61
552.529
552.488
552.447
552.407
552.368
552.33
552.292
552.254
552.216
552.177
552.135
552.091
552.044
551.993
551.936
551.869
551.79
551.699
551.599
551.493
551.384
551.272
551.157
551.04
550.922
550.803
550.684
550.566
550.45
550.337
550.225
550.114
550.002
549.888
549.771
549.653
549.532
549.411
549.289
549.168
549.047
548.926
548.807
548.69
548.575
548.463
548.355
548.251
548.15
548.052
547.958
547.868
547.781
547.697
547.616
547.538
547.461
547.386
547.312
547.239
547.167
547.096
547.025
546.955
546.884
546.811
546.738
546.664
546.589
546.512
546.433
546.351
546.267
546.179
546.089
545.995
545.896
545.794
545.686
545.571
545.45
545.313
545.172
545.032
544.894
544.757
544.623
544.491
544.361
544.233
544.107
543.982
543.858
543.736
543.614
543.492
543.371
543.251
543.131
543.01
542.89
542.77
542.65
542.53
542.41
542.29
542.17
542.05
541.93
541.81
541.69
541.57
541.45
541.33
541.21
541.09
540.97
540.85
540.73
540.61
552.531
552.494
552.456
552.42
552.384
552.349
552.314
552.278
552.242
552.204
552.163
552.12
552.073
552.022
551.963
551.893
551.811
551.718
551.616
551.509
551.399
551.285
551.168
551.05
550.93
550.808
550.686
550.563
550.443
550.325
550.209
550.096
549.984
549.87
549.753
549.635
549.514
549.391
549.268
549.145
549.022
548.9
548.778
548.658
548.541
548.426
548.314
548.206
548.102
548.001
547.904
547.81
547.719
547.631
547.547
547.465
547.385
547.307
547.232
547.157
547.084
547.011
546.939
546.868
546.797
546.725
546.652
546.58
546.506
546.431
546.354
546.275
546.193
546.109
546.022
545.932
545.838
545.739
545.636
545.525
545.407
545.274
545.133
544.993
544.855
544.719
544.586
544.455
544.327
544.202
544.078
543.956
543.834
543.714
543.594
543.475
543.356
543.237
543.118
542.999
542.88
542.761
542.642
542.523
542.404
542.284
542.165
542.046
541.926
541.807
541.687
541.567
541.448
541.328
541.208
541.089
540.969
540.849
540.73
540.61
552.533
552.499
552.466
552.433
552.4
552.368
552.335
552.302
552.267
552.23
552.191
552.148
552.101
552.049
551.988
551.916
551.831
551.736
551.635
551.527
551.416
551.3
551.182
551.062
550.94
550.817
550.692
550.566
550.44
550.317
550.196
550.079
549.964
549.849
549.734
549.617
549.496
549.374
549.251
549.127
549.002
548.878
548.755
548.632
548.512
548.395
548.281
548.171
548.063
547.959
547.858
547.76
547.665
547.574
547.485
547.4
547.317
547.236
547.158
547.082
547.006
546.932
546.859
546.786
546.714
546.642
546.57
546.498
546.426
546.352
546.277
546.2
546.121
546.04
545.957
545.87
545.78
545.685
545.585
545.478
545.363
545.233
545.093
544.953
544.814
544.679
544.547
544.418
544.292
544.169
544.048
543.929
543.81
543.692
543.575
543.457
543.34
543.223
543.106
542.988
542.871
542.753
542.634
542.516
542.398
542.279
542.16
542.041
541.922
541.803
541.684
541.565
541.446
541.326
541.207
541.088
540.968
540.849
540.729
540.61
552.535
552.505
552.475
552.446
552.416
552.386
552.356
552.325
552.291
552.256
552.217
552.175
552.128
552.075
552.013
551.939
551.853
551.758
551.656
551.549
551.437
551.32
551.199
551.077
550.953
550.829
550.703
550.574
550.445
550.317
550.19
550.066
549.946
549.828
549.713
549.598
549.48
549.359
549.236
549.112
548.986
548.86
548.734
548.61
548.489
548.371
548.255
548.143
548.033
547.926
547.821
547.72
547.621
547.524
547.431
547.342
547.255
547.173
547.092
547.014
546.937
546.861
546.787
546.713
546.64
546.567
546.494
546.422
546.35
546.278
546.205
546.129
546.052
545.973
545.893
545.81
545.723
545.632
545.535
545.431
545.32
545.194
545.054
544.912
544.772
544.636
544.505
544.378
544.255
544.135
544.017
543.901
543.785
543.67
543.555
543.44
543.325
543.21
543.094
542.978
542.861
542.745
542.627
542.51
542.392
542.274
542.156
542.038
541.919
541.8
541.682
541.563
541.444
541.325
541.206
541.086
540.967
540.848
540.729
540.61
552.537
552.511
552.484
552.458
552.432
552.405
552.377
552.347
552.316
552.281
552.243
552.201
552.155
552.102
552.04
551.964
551.877
551.782
551.682
551.576
551.464
551.346
551.223
551.096
550.969
550.843
550.717
550.588
550.457
550.325
550.192
550.062
549.934
549.811
549.693
549.579
549.465
549.346
549.224
549.098
548.969
548.84
548.712
548.588
548.467
548.348
548.232
548.118
548.005
547.896
547.789
547.684
547.581
547.479
547.382
547.289
547.199
547.117
547.036
546.956
546.878
546.801
546.725
546.652
546.578
546.502
546.426
546.354
546.283
546.212
546.141
546.065
545.99
545.911
545.833
545.755
545.672
545.584
545.491
545.39
545.281
545.159
545.017
544.87
544.725
544.589
544.459
544.335
544.216
544.099
543.985
543.873
543.761
543.649
543.536
543.424
543.311
543.197
543.083
542.968
542.853
542.737
542.621
542.504
542.387
542.27
542.152
542.034
541.916
541.798
541.679
541.561
541.442
541.323
541.204
541.085
540.967
540.848
540.729
540.61
552.539
552.516
552.493
552.47
552.447
552.423
552.397
552.37
552.339
552.306
552.27
552.229
552.183
552.133
552.071
551.995
551.907
551.812
551.712
551.606
551.496
551.378
551.253
551.122
550.989
550.858
550.73
550.603
550.472
550.336
550.2
550.063
549.929
549.8
549.676
549.56
549.469
549.351
549.228
549.098
548.965
548.831
548.697
548.575
548.454
548.334
548.217
548.101
547.983
547.876
547.765
547.658
547.549
547.442
547.338
547.244
547.147
547.075
546.996
546.913
546.834
546.761
546.685
546.617
546.545
546.462
546.38
546.307
546.24
546.168
546.103
546.022
545.95
545.858
545.771
545.707
545.63
545.548
545.458
545.36
545.255
545.135
544.991
544.826
544.671
544.536
544.408
544.288
544.173
544.062
543.953
543.844
543.736
543.627
543.518
543.408
543.297
543.185
543.073
542.959
542.845
542.73
542.615
542.499
542.382
542.266
542.148
542.031
541.913
541.795
541.677
541.559
541.44
541.322
541.203
541.085
540.966
540.847
540.728
540.609
552.54
552.521
552.502
552.483
552.463
552.441
552.418
552.393
552.365
552.333
552.297
552.258
552.215
552.166
552.106
552.031
551.945
551.849
551.747
551.64
551.53
551.415
551.289
551.153
551.012
550.872
550.738
550.635
550.503
550.366
550.226
550.086
549.948
549.813
549.684
549.56
549.44
549.319
549.195
549.065
548.928
548.79
548.659
548.53
548.41
548.287
548.169
548.048
547.933
547.812
547.709
547.598
547.49
547.384
547.282
547.193
547.098
547.023
546.928
546.844
546.78
546.701
546.636
546.561
546.492
546.418
546.336
546.26
546.187
546.112
546.035
545.961
545.883
545.812
545.731
545.664
545.594
545.517
545.429
545.336
545.232
545.119
544.97
544.734
544.599
544.476
544.349
544.235
544.128
544.023
543.92
543.816
543.712
543.607
543.501
543.394
543.285
543.175
543.064
542.952
542.838
542.724
542.61
542.494
542.378
542.262
542.145
542.028
541.911
541.793
541.675
541.557
541.439
541.321
541.202
541.084
540.965
540.847
540.728
540.609
552.542
552.526
552.511
552.496
552.481
552.463
552.444
552.421
552.394
552.362
552.327
552.288
552.245
552.197
552.14
552.069
551.986
551.891
551.786
551.678
551.566
551.482
551.353
551.212
551.065
550.916
550.768
550.624
550.488
550.345
550.202
550.061
549.923
549.787
549.657
549.529
549.403
549.277
549.149
549.017
548.886
548.751
548.62
548.493
548.372
548.245
548.128
548.001
547.887
547.767
547.663
547.549
547.44
547.341
547.24
547.156
547.065
546.99
546.894
546.813
546.745
546.656
546.587
546.503
546.444
546.358
546.297
546.22
546.154
546.074
546.002
545.929
545.853
545.782
545.708
545.639
545.567
545.491
545.405
545.312
545.212
545.116
545.003
544.712
544.546
544.393
544.279
544.177
544.08
543.984
543.887
543.789
543.689
543.588
543.486
543.381
543.274
543.166
543.056
542.945
542.833
542.719
542.605
542.491
542.375
542.259
542.143
542.026
541.909
541.792
541.674
541.556
541.438
541.32
541.202
541.083
540.965
540.846
540.728
540.609
552.543
552.531
552.52
552.513
552.505
552.494
552.477
552.456
552.428
552.394
552.355
552.311
552.264
552.212
552.158
552.096
552.022
551.962
551.854
551.752
551.635
551.506
551.365
551.219
551.067
550.911
550.763
550.61
550.47
550.319
550.177
550.033
549.894
549.754
549.615
549.482
549.355
549.226
549.104
548.97
548.85
548.715
548.594
548.47
548.351
548.226
548.093
547.967
547.86
547.743
547.63
547.516
547.401
547.298
547.195
547.121
547.033
546.947
546.861
546.796
546.709
546.638
546.556
546.48
546.397
546.323
546.247
546.176
546.102
546.027
545.953
545.882
545.808
545.735
545.658
545.582
545.507
545.429
545.352
545.273
545.196
545.121
545.041
544.919
544.526
544.345
544.201
544.113
544.032
543.947
543.856
543.762
543.668
543.572
543.473
543.37
543.266
543.159
543.05
542.94
542.828
542.716
542.602
542.488
542.373
542.257
542.141
542.024
541.907
541.79
541.673
541.555
541.437
541.319
541.201
541.083
540.965
540.846
540.728
540.609
552.545
552.536
552.532
552.538
552.541
552.537
552.521
552.497
552.463
552.421
552.371
552.316
552.253
552.189
552.178
552.126
552.069
551.991
551.899
551.795
551.678
551.542
551.398
551.251
551.108
550.936
550.783
550.601
550.465
550.305
550.161
550.01
549.862
549.719
549.576
549.443
549.329
549.19
549.081
548.942
548.838
548.694
548.585
548.447
548.331
548.2
548.088
547.966
547.846
547.725
547.616
547.5
547.395
547.293
547.199
547.104
547.017
546.932
546.843
546.762
546.674
546.594
546.508
546.427
546.342
546.261
546.182
546.106
546.027
545.951
545.877
545.805
545.733
545.662
545.593
545.526
545.463
545.4
545.339
545.273
545.159
544.952
544.775
544.759
544.466
544.26
544.146
544.053
543.988
543.915
543.827
543.737
543.65
543.559
543.463
543.363
543.26
543.154
543.046
542.936
542.825
542.713
542.6
542.486
542.371
542.255
542.14
542.023
541.906
541.789
541.672
541.554
541.437
541.319
541.201
541.083
540.964