/*--------------------------------*- C++ -*----------------------------------*\
  =========                 |
  \\      /  F ield         | OpenFOAM: The Open Source CFD Toolbox
   \\    /   O peration     | Website:  https://openfoam.org
    \\  /    A nd           | Version:  6
     \\/     M anipulation  |
\*---------------------------------------------------------------------------*/
FoamFile
{
    version     2.0;
    format      ascii;
    class       surfaceScalarField;
    location    "4950";
    object      phi;
}
// * * * * * * * * * * * * * * * * * * * * * * * * * * * * * * * * * * * * * //

dimensions      [0 3 -1 0 0 0 0];

internalField   nonuniform List<scalar> 
9440
(
-6.6845e-11
6.6845e-11
-1.41285e-10
7.44409e-11
-2.36762e-10
9.54784e-11
-3.85054e-10
1.48292e-10
-5.79855e-10
1.94803e-10
-7.26465e-10
1.46611e-10
-9.32124e-10
2.0566e-10
-1.1141e-09
1.81981e-10
-1.25149e-09
1.37384e-10
-1.35362e-09
1.02136e-10
-1.19861e-09
-1.55015e-10
-8.69654e-10
-3.28952e-10
-7.10718e-10
-1.58935e-10
-3.99527e-10
-3.1119e-10
-1.77874e-10
-2.21652e-10
5.04924e-11
-2.28365e-10
2.40619e-10
-1.90126e-10
3.73951e-10
-1.33331e-10
5.70858e-10
-1.96906e-10
7.97104e-10
-2.26244e-10
7.0863e-10
8.8475e-11
9.34415e-10
-2.25784e-10
8.9568e-10
3.87354e-11
9.96224e-10
-1.00542e-10
1.10151e-09
-1.05281e-10
1.33936e-09
-2.37855e-10
1.43914e-09
-9.97763e-11
1.47403e-09
-3.48845e-11
1.6705e-09
-1.9647e-10
1.85986e-09
-1.89364e-10
1.91149e-09
-5.1624e-11
1.90385e-09
7.64176e-12
1.94707e-09
-4.32268e-11
2.13327e-09
-1.86198e-10
2.197e-09
-6.37234e-11
2.20217e-09
-5.1672e-12
2.22913e-09
-2.69669e-11
2.17364e-09
5.54989e-11
2.04678e-09
1.26858e-10
1.93153e-09
1.15247e-10
1.66376e-09
2.67776e-10
1.42833e-09
2.35426e-10
1.02765e-09
4.00684e-10
8.12358e-10
2.1529e-10
5.50417e-10
2.61942e-10
3.41589e-10
2.08827e-10
1.74386e-10
1.67202e-10
1.29282e-10
4.51032e-11
8.63939e-11
4.2887e-11
3.98207e-11
4.65718e-11
5.47415e-11
-1.49225e-11
9.92203e-11
-4.44808e-11
1.46634e-10
-4.74153e-11
1.7468e-10
-2.8049e-11
1.73226e-10
1.45217e-12
1.93842e-10
-2.0618e-11
2.15615e-10
-2.17758e-11
2.46521e-10
-3.09077e-11
3.03132e-10
-5.66131e-11
3.50953e-10
-4.78229e-11
4.03867e-10
-5.29152e-11
4.81272e-10
-7.74068e-11
5.57554e-10
-7.62838e-11
6.2487e-10
-6.73172e-11
6.71402e-10
-4.6533e-11
6.69589e-10
1.81174e-12
6.25117e-10
4.44715e-11
5.07323e-10
1.17793e-10
3.40958e-10
1.66365e-10
5.87087e-11
2.82249e-10
-2.96655e-10
3.55364e-10
-5.24312e-10
2.27657e-10
-6.95753e-10
1.71442e-10
-7.98296e-10
1.02544e-10
-8.40755e-10
4.24608e-11
-7.58705e-10
-8.20487e-11
-6.98494e-10
-6.02099e-11
-6.68057e-10
-3.04346e-11
-5.22773e-10
-1.45283e-10
-7.38261e-11
-4.48945e-10
-1.0693e-15
-7.38233e-11
-1.41188e-17
1.20387e-18
-1.40809e-17
-3.79207e-20
-1.37599e-17
-3.19334e-19
-1.33004e-17
-4.57592e-19
-1.27231e-17
-5.75349e-19
-1.20305e-17
-6.90417e-19
-1.12283e-17
-8.00104e-19
-1.03273e-17
-8.98676e-19
-9.34406e-18
-9.81028e-19
-8.29777e-18
-1.04402e-18
-7.2097e-18
-1.08582e-18
-6.1017e-18
-1.10583e-18
-4.99517e-18
-1.10453e-18
-3.91023e-18
-1.08321e-18
-2.86501e-18
-1.0438e-18
-1.87531e-18
-9.88651e-19
-9.54245e-19
-9.20381e-19
-1.12198e-19
-8.41694e-19
6.43123e-19
-7.55276e-19
1.30656e-18
-6.63685e-19
1.87527e-18
-5.69276e-19
2.34851e-18
-4.74155e-19
2.72732e-18
-3.80148e-19
3.01421e-18
-2.88789e-19
3.21292e-18
-2.01317e-19
3.32813e-18
-1.1869e-19
3.36525e-18
-4.16004e-20
3.33022e-18
2.94901e-20
3.22933e-18
9.43185e-20
3.0691e-18
1.52774e-19
2.85609e-18
2.04853e-19
2.59679e-18
2.50621e-19
2.29752e-18
2.90177e-19
1.96442e-18
3.23635e-19
1.6034e-18
3.5111e-19
1.22029e-18
3.72693e-19
8.20943e-19
3.8839e-19
4.11579e-19
3.97908e-19
3.99791e-19
-4.02959e-11
1.07142e-10
-1.68871e-10
2.03018e-10
-3.46556e-10
2.73164e-10
-4.3427e-10
2.36008e-10
-5.37487e-10
2.98021e-10
-6.43474e-10
2.52599e-10
-7.88759e-10
3.50947e-10
-9.39436e-10
3.3266e-10
-1.02982e-09
2.27773e-10
-1.11786e-09
1.90175e-10
-9.56141e-10
-3.16732e-10
-7.35289e-10
-5.49801e-10
-4.36776e-10
-4.57446e-10
-1.54298e-10
-5.93667e-10
1.32884e-10
-5.08832e-10
3.83178e-10
-4.78657e-10
5.74369e-10
-3.81315e-10
7.24163e-10
-2.83123e-10
8.50103e-10
-3.22844e-10
1.03727e-09
-4.13414e-10
1.18554e-09
-5.97849e-11
1.30946e-09
-3.49706e-10
1.42631e-09
-7.81108e-11
1.46142e-09
-1.35651e-10
1.55245e-09
-1.96315e-10
1.63709e-09
-3.22489e-10
1.73905e-09
-2.01731e-10
1.82615e-09
-1.21987e-10
1.89874e-09
-2.69057e-10
1.99894e-09
-2.8956e-10
2.07225e-09
-1.24933e-10
2.16692e-09
-8.70238e-11
2.12437e-09
-6.805e-13
2.41203e-09
-4.73857e-10
2.35882e-09
-1.05021e-11
2.34134e-09
1.23092e-11
2.34866e-09
-3.42828e-11
2.3023e-09
1.01861e-10
2.23849e-09
1.90672e-10
2.14632e-09
2.0741e-10
2.17334e-09
2.40764e-10
1.98201e-09
4.26755e-10
1.77257e-09
6.10125e-10
1.37774e-09
6.10111e-10
1.00515e-09
6.34535e-10
6.97178e-10
5.16799e-10
5.08868e-10
3.5551e-10
4.71268e-10
8.27006e-11
3.97941e-10
1.16212e-10
3.44592e-10
9.99172e-11
3.5355e-10
-2.38837e-11
3.72131e-10
-6.30651e-11
3.9369e-10
-6.89784e-11
3.65412e-10
2.24771e-13
3.33181e-10
3.36797e-11
3.19207e-10
-6.64764e-12
3.18666e-10
-2.12384e-11
3.19995e-10
-3.22406e-11
3.26842e-10
-6.34627e-11
3.38706e-10
-5.96903e-11
3.6937e-10
-8.35822e-11
4.16045e-10
-1.24084e-10
5.02542e-10
-1.62783e-10
5.79819e-10
-1.44596e-10
6.53376e-10
-1.20092e-10
7.02786e-10
-4.75998e-11
6.66176e-10
8.10807e-11
6.52771e-10
1.31198e-10
5.82287e-10
2.36849e-10
4.92965e-10
3.71573e-10
3.37894e-10
5.10436e-10
6.13285e-11
5.04224e-10
-1.91515e-10
4.24288e-10
-3.31593e-10
2.42623e-10
-3.09812e-10
2.06825e-11
-2.53319e-10
-1.38538e-10
-1.76731e-10
-1.36795e-10
1.40884e-10
-3.48046e-10
4.37974e-10
-4.4237e-10
2.30663e-10
-2.41631e-10
-6.69087e-16
1.56843e-10
-1.51851e-17
-1.54431e-18
-1.43681e-17
-8.53168e-19
-1.39026e-17
-7.81585e-19
-1.34214e-17
-9.3535e-19
-1.28401e-17
-1.15293e-18
-1.2141e-17
-1.38566e-18
-1.13268e-17
-1.61032e-18
-1.04097e-17
-1.8118e-18
-9.40705e-18
-1.97968e-18
-8.33957e-18
-2.10758e-18
-7.22972e-18
-2.19193e-18
-6.1004e-18
-2.23171e-18
-4.97385e-18
-2.22807e-18
-3.87081e-18
-2.18378e-18
-2.80987e-18
-2.10287e-18
-1.80704e-18
-1.99023e-18
-8.75558e-19
-1.85122e-18
-2.57798e-20
-1.69142e-18
7.34715e-19
-1.51631e-18
1.40096e-18
-1.33111e-18
1.97039e-18
-1.14062e-18
2.44252e-18
-9.49099e-19
2.81868e-18
-7.60224e-19
3.10168e-18
-5.77039e-19
3.29555e-18
-4.0196e-19
3.40522e-18
-2.36808e-19
3.43634e-18
-8.28659e-20
3.39504e-18
5.90326e-20
3.28779e-18
1.88407e-19
3.12118e-18
3.05031e-19
2.90186e-18
4.08861e-19
2.63635e-18
4.99981e-19
2.33098e-18
5.78573e-19
1.99189e-18
6.44898e-19
1.62499e-18
6.9927e-19
1.23599e-18
7.42028e-19
8.3046e-19
7.73493e-19
4.13462e-19
7.93971e-19
8.04068e-19
1.36068e-11
9.35361e-11
-3.02317e-11
2.46858e-10
-1.7204e-10
4.14974e-10
-3.71007e-10
4.34976e-10
-4.69198e-10
3.96213e-10
-5.30284e-10
3.13687e-10
-6.00411e-10
4.21075e-10
-7.14004e-10
4.46255e-10
-7.99346e-10
3.13117e-10
-8.39601e-10
2.30431e-10
-7.01378e-10
-4.54953e-10
-4.86221e-10
-7.64957e-10
-1.46188e-10
-7.97477e-10
6.16044e-11
-8.01458e-10
2.76769e-10
-7.23995e-10
3.97186e-10
-5.99072e-10
5.25036e-10
-5.09164e-10
7.21949e-10
-4.80034e-10
8.62169e-10
-4.63063e-10
9.64141e-10
-5.15383e-10
1.23891e-09
-3.3455e-10
1.27393e-09
-3.84724e-10
1.43569e-09
-2.39874e-10
1.54807e-09
-2.48032e-10
1.64291e-09
-2.91145e-10
1.65795e-09
-3.37528e-10
1.7346e-09
-2.7838e-10
1.84916e-09
-2.36546e-10
1.8737e-09
-2.93595e-10
1.86464e-09
-2.80495e-10
1.94299e-09
-2.03287e-10
2.01003e-09
-1.54065e-10
2.1031e-09
-9.37476e-11
2.17709e-09
-5.4784e-10
2.25399e-09
-8.74055e-11
2.27639e-09
-1.00824e-11
2.27467e-09
-3.25653e-11
2.26593e-09
1.10605e-10
2.23657e-09
2.20033e-10
2.17854e-09
2.65437e-10
2.13918e-09
2.80125e-10
2.04458e-09
5.21362e-10
1.94251e-09
7.12193e-10
1.76947e-09
7.83144e-10
1.56493e-09
8.39081e-10
1.20953e-09
8.72199e-10
9.85235e-10
5.79799e-10
6.94039e-10
3.73894e-10
4.67977e-10
3.42272e-10
4.03425e-10
1.64467e-10
4.22127e-10
-4.25894e-11
4.54738e-10
-9.56787e-11
4.76894e-10
-9.11383e-11
4.67122e-10
9.9938e-12
4.53168e-10
4.76304e-11
4.50585e-10
-4.06733e-12
4.46464e-10
-1.7121e-11
4.61619e-10
-4.73982e-11
4.53792e-10
-5.56383e-11
4.55079e-10
-6.09804e-11
4.67254e-10
-9.57595e-11
5.0486e-10
-1.61692e-10
5.57185e-10
-2.1511e-10
6.06383e-10
-1.93796e-10
6.72141e-10
-1.85851e-10
7.48691e-10
-1.2415e-10
7.52282e-10
7.74888e-11
7.31674e-10
1.51805e-10
6.78474e-10
2.90049e-10
6.28416e-10
4.21631e-10
5.31229e-10
6.07624e-10
3.85936e-10
6.49519e-10
2.40141e-10
5.70085e-10
1.31064e-10
3.51701e-10
7.16111e-11
8.0138e-11
9.00609e-11
-1.56986e-10
1.16242e-10
-1.62974e-10
-1.5907e-10
-7.27322e-11
-4.11995e-10
-1.89442e-10
-1.88566e-10
-4.65058e-10
-4.69052e-16
-3.17207e-11
-1.41593e-17
4.04458e-19
-1.42958e-17
-7.15272e-19
-1.40558e-17
-1.01914e-18
-1.36383e-17
-1.3499e-18
-1.30722e-17
-1.71593e-18
-1.23651e-17
-2.0895e-18
-1.1528e-17
-2.44406e-18
-1.05776e-17
-2.75876e-18
-9.53495e-18
-3.01887e-18
-8.42391e-18
-3.21524e-18
-7.26951e-18
-3.34307e-18
-6.09675e-18
-3.40142e-18
-4.92956e-18
-3.39252e-18
-3.78991e-18
-3.3211e-18
-2.69723e-18
-3.19372e-18
-1.66804e-18
-3.01814e-18
-7.15755e-19
-2.80284e-18
1.49331e-19
-2.55646e-18
9.19914e-19
-2.28751e-18
1.59146e-18
-2.004e-18
2.16191e-18
-1.71322e-18
2.63139e-18
-1.42163e-18
3.00186e-18
-1.13472e-18
3.27676e-18
-8.57019e-19
3.4607e-18
-5.92079e-19
3.55916e-18
-3.42575e-19
3.57824e-18
-1.10385e-19
3.52442e-18
1.03281e-19
3.40441e-18
2.97736e-19
3.22501e-18
4.72691e-19
2.99298e-18
6.28145e-19
2.71494e-18
7.64313e-19
2.39731e-18
8.81568e-19
2.04627e-18
9.80408e-19
1.66774e-18
1.06141e-18
1.26746e-18
1.12518e-18
8.50939e-19
1.17231e-18
4.23559e-19
1.20337e-18
1.21889e-18
-1.00875e-10
1.94412e-10
-2.57061e-10
4.03046e-10
-3.20104e-10
4.78018e-10
-3.39154e-10
4.54028e-10
-3.52219e-10
4.0928e-10
-4.27918e-10
3.89388e-10
-4.71014e-10
4.64172e-10
-4.56916e-10
4.32159e-10
-4.78298e-10
3.345e-10
-4.22524e-10
1.74658e-10
-4.04966e-10
-4.72509e-10
-2.65521e-10
-9.044e-10
-7.36605e-11
-9.89336e-10
5.11869e-11
-9.26304e-10
1.63453e-10
-8.36259e-10
3.13887e-10
-7.49505e-10
4.29686e-10
-6.24962e-10
5.89013e-10
-6.3936e-10
7.38233e-10
-6.12282e-10
8.36666e-10
-6.13815e-10
1.02071e-09
-5.18593e-10
1.04504e-09
-4.09051e-10
1.18171e-09
-3.76546e-10
1.27855e-09
-3.44867e-10
1.33948e-09
-3.52077e-10
1.36761e-09
-3.65651e-10
1.42713e-09
-3.37902e-10
1.45996e-09
-2.69378e-10
1.46142e-09
-2.95049e-10
1.52033e-09
-3.39405e-10
1.64229e-09
-3.25241e-10
1.69881e-09
-2.10589e-10
1.86544e-09
-2.60372e-10
1.69327e-09
-3.75674e-10
1.81235e-09
-2.06481e-10
1.89284e-09
-9.05715e-11
1.91795e-09
-5.76768e-11
1.98726e-09
4.12995e-11
2.0069e-09
2.004e-10
2.00763e-09
2.64702e-10
1.95032e-09
3.37438e-10
1.93725e-09
5.34429e-10
1.89479e-09
7.54656e-10
1.77773e-09
9.00203e-10
1.6795e-09
9.37312e-10
1.54908e-09
1.00262e-09
1.37374e-09
7.5514e-10
1.02268e-09
7.24945e-10
9.10732e-10
4.54221e-10
8.57029e-10
2.18168e-10
7.59435e-10
5.50018e-11
7.25093e-10
-6.13398e-11
6.46286e-10
-1.23343e-11
5.83404e-10
7.28726e-11
5.48762e-10
8.22686e-11
5.53321e-10
-8.62907e-12
5.62622e-10
-2.64249e-11
5.78065e-10
-6.28441e-11
5.91628e-10
-6.92031e-11
6.21341e-10
-9.06962e-11
6.86186e-10
-1.60607e-10
8.12648e-10
-2.88157e-10
8.98502e-10
-3.00965e-10
9.09734e-10
-2.05029e-10
8.83887e-10
-1.60005e-10
8.7201e-10
-1.12273e-10
8.66303e-10
8.31953e-11
8.23202e-10
1.94906e-10
7.81701e-10
3.3155e-10
7.24943e-10
4.78389e-10
6.11293e-10
7.21275e-10
5.1809e-10
7.42722e-10
4.16263e-10
6.71914e-10
3.34342e-10
4.33623e-10
2.618e-10
1.52682e-10
2.86493e-10
-1.81677e-10
3.40614e-10
-2.17093e-10
5.44942e-10
-2.77059e-10
4.84138e-10
-1.28637e-10
1.361e-10
-1.17018e-10
-3.53031e-16
1.0438e-10
-1.47315e-17
-1.04881e-19
-1.4599e-17
-8.46462e-19
-1.43859e-17
-1.23e-18
-1.40038e-17
-1.72933e-18
-1.34453e-17
-2.27151e-18
-1.27192e-17
-2.81248e-18
-1.18424e-17
-3.31759e-18
-1.08377e-17
-3.76025e-18
-9.73133e-18
-4.12201e-18
-8.55174e-18
-4.39165e-18
-7.32785e-18
-4.56385e-18
-6.08785e-18
-4.63846e-18
-4.85814e-18
-4.61953e-18
-3.66252e-18
-4.51439e-18
-2.52165e-18
-4.33274e-18
-1.45273e-18
-4.08581e-18
-4.6938e-19
-3.78562e-18
4.1828e-19
-3.44432e-18
1.20343e-18
-3.07368e-18
1.88223e-18
-2.68468e-18
2.4535e-18
-2.28725e-18
2.9183e-18
-1.89008e-18
3.27957e-18
-1.50049e-18
3.5417e-18
-1.12447e-18
3.7102e-18
-7.66688e-19
3.79135e-18
-4.30624e-19
3.7919e-18
-1.18689e-19
3.71887e-18
1.676e-19
3.57937e-18
4.27452e-19
3.38047e-18
6.60631e-19
3.12915e-18
8.67306e-19
2.83219e-18
1.04795e-18
2.49615e-18
1.20322e-18
2.12727e-18
1.33395e-18
1.73151e-18
1.44102e-18
1.31459e-18
1.52533e-18
8.81998e-19
1.58773e-18
4.39082e-19
1.62896e-18
1.64957e-18
1.45147e-11
1.79898e-10
-3.44184e-11
4.5198e-10
-1.25434e-10
5.69035e-10
-2.05961e-10
5.34557e-10
-2.53111e-10
4.56431e-10
-2.85851e-10
4.22129e-10
-2.63881e-10
4.42204e-10
-2.54038e-10
4.22317e-10
-2.50812e-10
3.31275e-10
-2.37249e-10
1.61097e-10
-2.65692e-10
-4.44065e-10
-1.45007e-10
-1.02508e-09
2.02477e-11
-1.15459e-09
1.49172e-10
-1.05523e-09
2.22936e-10
-9.10021e-10
2.93483e-10
-8.20051e-10
4.11765e-10
-7.43242e-10
5.0925e-10
-7.36843e-10
6.32947e-10
-7.35977e-10
7.14987e-10
-6.95854e-10
8.16625e-10
-6.20231e-10
9.26052e-10
-5.18476e-10
9.39918e-10
-3.90411e-10
9.76165e-10
-3.81113e-10
1.00242e-09
-3.78329e-10
1.00254e-09
-3.65775e-10
1.01641e-09
-3.51764e-10
1.08477e-09
-3.37738e-10
1.12575e-09
-3.36031e-10
1.19677e-09
-4.10422e-10
1.31447e-09
-4.42941e-10
1.38889e-09
-2.84999e-10
1.48056e-09
-3.52046e-10
1.48452e-09
-3.79634e-10
1.61904e-09
-3.40994e-10
1.68075e-09
-1.52286e-10
1.67034e-09
-4.72651e-11
1.63551e-09
7.61349e-11
1.61878e-09
2.17132e-10
1.63643e-09
2.47055e-10
1.71807e-09
2.55792e-10
1.74929e-09
5.03216e-10
1.78017e-09
7.23772e-10
1.71813e-09
9.62247e-10
1.63041e-09
1.02503e-09
1.55992e-09
1.0731e-09
1.36172e-09
9.53336e-10
1.30839e-09
7.78274e-10
1.21584e-09
5.46775e-10
1.01128e-09
4.2272e-10
7.66184e-10
3.00099e-10
7.00791e-10
4.05032e-12
6.58881e-10
2.9573e-11
6.46507e-10
8.52436e-11
6.40106e-10
8.86659e-11
6.07186e-10
2.42889e-11
6.1932e-10
-3.8562e-11
6.44159e-10
-8.76856e-11
6.924e-10
-1.17447e-10
7.69248e-10
-1.67547e-10
8.7712e-10
-2.68481e-10
9.95087e-10
-4.06125e-10
1.06549e-09
-3.7137e-10
1.12273e-09
-2.6227e-10
1.08054e-09
-1.1782e-10
1.00621e-09
-3.79389e-11
9.95795e-10
9.36082e-11
9.51959e-10
2.38742e-10
8.87567e-10
3.95942e-10
8.36563e-10
5.29394e-10
8.54419e-10
7.0342e-10
7.93618e-10
8.03524e-10
6.91444e-10
7.74089e-10
5.67364e-10
5.57705e-10
4.14351e-10
3.05695e-10
3.7506e-10
-1.42385e-10
4.12909e-10
-2.54941e-10
4.68842e-10
-3.3299e-10
5.63761e-10
-2.23554e-10
4.52371e-10
-5.62714e-12
-3.13549e-16
5.56753e-10
-1.47214e-17
1.47632e-18
-1.49819e-17
-5.84864e-19
-1.48846e-17
-1.32518e-18
-1.45454e-17
-2.06606e-18
-1.39857e-17
-2.82845e-18
-1.32238e-17
-3.57153e-18
-1.22849e-17
-4.25361e-18
-1.11994e-17
-4.84277e-18
-1.0001e-17
-5.31763e-18
-8.72394e-18
-5.66584e-18
-7.40246e-18
-5.88255e-18
-6.06892e-18
-5.96934e-18
-4.753e-18
-5.93301e-18
-3.48087e-18
-5.7844e-18
-2.27473e-18
-5.53722e-18
-1.15254e-18
-5.20692e-18
-1.28079e-19
-4.80973e-18
7.88925e-19
-4.36177e-18
1.59243e-18
-3.87849e-18
2.27966e-18
-3.37411e-18
2.85067e-18
-2.86134e-18
3.30789e-18
-2.35117e-18
3.65559e-18
-1.85279e-18
3.89948e-18
-1.3736e-18
4.04627e-18
-9.19308e-19
4.10328e-18
-4.94093e-19
4.07819e-18
-1.00773e-19
3.97873e-18
2.58983e-19
3.81255e-18
5.84433e-19
3.58714e-18
8.75549e-19
3.30979e-18
1.13283e-18
2.98747e-18
1.35712e-18
2.62688e-18
1.54952e-18
2.23433e-18
1.71124e-18
1.81582e-18
1.84356e-18
1.37699e-18
1.9477e-18
9.23226e-19
2.02479e-18
4.5969e-19
2.07575e-18
2.10123e-18
3.24504e-11
1.47449e-10
2.00568e-11
4.64375e-10
-3.97889e-11
6.28882e-10
-9.90204e-11
5.93789e-10
-1.15372e-10
4.72784e-10
-1.38838e-10
4.45596e-10
-1.19097e-10
4.22465e-10
-7.1756e-11
3.74977e-10
-5.83857e-13
2.60104e-10
3.83315e-11
1.22183e-10
1.44101e-10
-5.49833e-10
1.67726e-10
-1.04871e-09
1.62895e-10
-1.14976e-09
1.98399e-10
-1.09073e-09
2.49039e-10
-9.6066e-10
3.09957e-10
-8.80967e-10
4.07134e-10
-8.40418e-10
5.03368e-10
-8.33075e-10
5.73142e-10
-8.0575e-10
6.33375e-10
-7.56085e-10
6.51651e-10
-6.38505e-10
6.87147e-10
-5.53971e-10
6.97694e-10
-4.00957e-10
6.92073e-10
-3.75491e-10
6.67239e-10
-3.53493e-10
6.62771e-10
-3.61305e-10
7.05457e-10
-3.94449e-10
7.92277e-10
-4.24556e-10
8.83261e-10
-4.27014e-10
1.00059e-09
-5.2775e-10
1.12137e-09
-5.63723e-10
1.27909e-09
-4.42715e-10
1.41257e-09
-4.85519e-10
1.44424e-09
-4.11303e-10
1.44455e-09
-3.41305e-10
1.44636e-09
-1.54094e-10
1.51392e-09
-1.14822e-10
1.44292e-09
1.47137e-10
1.46002e-09
2.00026e-10
1.53057e-09
1.7651e-10
1.54278e-09
2.43581e-10
1.48581e-09
5.60189e-10
1.44837e-09
7.61214e-10
1.49986e-09
9.10753e-10
1.47717e-09
1.04772e-09
1.46009e-09
1.09018e-09
1.37408e-09
1.03935e-09
1.29793e-09
8.54424e-10
1.09545e-09
7.49248e-10
1.01766e-09
5.00509e-10
9.10466e-10
4.07289e-10
7.88981e-10
1.25533e-10
6.72616e-10
1.45935e-10
6.45939e-10
1.11918e-10
6.577e-10
7.69021e-11
6.46932e-10
3.50543e-11
6.67809e-10
-5.94419e-11
7.16142e-10
-1.36021e-10
7.88428e-10
-1.89735e-10
8.91531e-10
-2.70652e-10
1.00772e-09
-3.84677e-10
1.07238e-09
-4.7078e-10
1.11215e-09
-4.11149e-10
1.16028e-09
-3.10396e-10
1.13691e-09
-9.44534e-11
1.06624e-09
3.27373e-11
1.06699e-09
9.28518e-11
9.66438e-10
3.39296e-10
8.7185e-10
4.9053e-10
8.2077e-10
5.80475e-10
8.16198e-10
7.07993e-10
7.98982e-10
8.2074e-10
7.53327e-10
8.19745e-10
6.333e-10
6.77733e-10
4.89032e-10
4.49964e-10
3.90253e-10
-4.36055e-11
3.80024e-10
-2.44712e-10
3.91737e-10
-3.44702e-10
5.74263e-10
-4.06079e-10
4.45368e-10
1.23268e-10
-3.47125e-16
1.00212e-09
-1.58283e-17
6.49501e-19
-1.57215e-17
-6.90624e-19
-1.56249e-17
-1.41983e-18
-1.53072e-17
-2.38143e-18
-1.47284e-17
-3.40496e-18
-1.39055e-17
-4.39191e-18
-1.28739e-17
-5.28278e-18
-1.16743e-17
-6.03997e-18
-1.03492e-17
-6.64046e-18
-8.94066e-18
-7.0721e-18
-7.48925e-18
-7.33176e-18
-6.03259e-18
-7.42391e-18
-4.60439e-18
-7.3593e-18
-3.23369e-18
-7.15347e-18
-1.94443e-18
-6.82522e-18
-7.55346e-19
-6.39524e-18
3.19873e-19
-5.88477e-18
1.27221e-18
-5.31463e-18
2.09681e-18
-4.70439e-18
2.79243e-18
-4.07185e-18
3.36084e-18
-3.43268e-18
3.80627e-18
-2.80026e-18
4.13478e-18
-2.18562e-18
4.35377e-18
-1.59749e-18
4.47148e-18
-1.04248e-18
4.49661e-18
-5.25266e-19
4.43795e-18
-4.88731e-20
4.30418e-18
3.85087e-19
4.10366e-18
7.76129e-19
3.84442e-18
1.12463e-18
3.53408e-18
1.43159e-18
3.17987e-18
1.69839e-18
2.7886e-18
1.92668e-18
2.36665e-18
2.11818e-18
1.91997e-18
2.27462e-18
1.45409e-18
2.39762e-18
9.74184e-19
2.48862e-18
4.85166e-19
2.54875e-18
2.57881e-18
-2.83399e-11
1.7579e-10
-4.69233e-11
4.8296e-10
-5.36502e-11
6.35611e-10
-7.03988e-11
6.10539e-10
-8.12858e-11
4.83672e-10
-8.27667e-11
4.47078e-10
-4.61168e-11
3.85816e-10
-6.82824e-13
3.29544e-10
6.35566e-11
1.95865e-10
1.75729e-10
1.00122e-11
1.53714e-10
-5.27817e-10
1.32268e-10
-1.02726e-09
2.07046e-10
-1.22453e-09
2.47767e-10
-1.13145e-09
2.84187e-10
-9.97079e-10
3.43262e-10
-9.4004e-10
4.17855e-10
-9.15011e-10
4.64499e-10
-8.79717e-10
4.99731e-10
-8.40981e-10
5.2092e-10
-7.77273e-10
5.20965e-10
-6.38549e-10
4.55212e-10
-4.88216e-10
4.46975e-10
-3.92719e-10
4.0965e-10
-3.38164e-10
3.86278e-10
-3.3012e-10
4.15843e-10
-3.90869e-10
5.15132e-10
-4.93736e-10
6.71205e-10
-5.80627e-10
8.12739e-10
-5.68547e-10
9.74399e-10
-6.89407e-10
1.02676e-09
-6.16082e-10
1.22912e-09
-6.45069e-10
1.27793e-09
-5.34335e-10
1.31448e-09
-4.47849e-10
1.31329e-09
-3.40114e-10
1.34667e-09
-1.8747e-10
1.36925e-09
-1.374e-10
1.36438e-09
1.52005e-10
1.35569e-09
2.08717e-10
1.29927e-09
2.32934e-10
1.15921e-09
3.83644e-10
1.16854e-09
5.50858e-10
1.26834e-09
6.61414e-10
1.33134e-09
8.47749e-10
1.28459e-09
1.09447e-09
1.26163e-09
1.11314e-09
1.24266e-09
1.05832e-09
1.16625e-09
9.30833e-10
1.09486e-09
8.20628e-10
9.71837e-10
6.23534e-10
8.6882e-10
5.10303e-10
7.49815e-10
2.44535e-10
6.32193e-10
2.63555e-10
6.08703e-10
1.35406e-10
6.22571e-10
6.30314e-11
6.58951e-10
-1.32795e-12
6.9471e-10
-9.52032e-11
7.39115e-10
-1.80428e-10
8.26834e-10
-2.77456e-10
9.31371e-10
-3.75191e-10
1.00977e-09
-4.63083e-10
1.03124e-09
-4.92243e-10
1.06743e-09
-4.47341e-10
1.07085e-09
-3.13825e-10
1.07327e-09
-9.68704e-11
1.05548e-09
5.05239e-11
9.66171e-10
1.82166e-10
8.83155e-10
4.22313e-10
8.3987e-10
5.33816e-10
8.01741e-10
6.18604e-10
7.75821e-10
7.33914e-10
7.59133e-10
8.37429e-10
7.43422e-10
8.35457e-10
6.65926e-10
7.55229e-10
5.21122e-10
5.94769e-10
3.04213e-10
1.73304e-10
1.86397e-10
-1.26895e-10
6.24751e-11
-2.2078e-10
-8.39827e-11
-2.5962e-10
5.3312e-11
-1.40251e-11
-4.06828e-16
1.05544e-09
-1.60378e-17
6.32943e-19
-1.645e-17
-2.77615e-19
-1.65858e-17
-1.28213e-18
-1.63302e-17
-2.63507e-18
-1.57149e-17
-4.01834e-18
-1.47961e-17
-5.30877e-18
-1.3631e-17
-6.44597e-18
-1.22748e-17
-7.3944e-18
-1.07808e-17
-8.13279e-18
-9.20031e-18
-8.65106e-18
-7.58141e-18
-8.94915e-18
-5.96798e-18
-9.03591e-18
-4.39855e-18
-8.92749e-18
-2.90545e-18
-8.64559e-18
-1.51445e-18
-8.21553e-18
-2.44878e-19
-7.66442e-18
8.90012e-19
-7.01963e-18
1.88244e-18
-6.30748e-18
2.72935e-18
-5.55229e-18
3.4316e-18
-4.77577e-18
3.99326e-18
-3.99676e-18
4.42091e-18
-3.23106e-18
4.72291e-18
-2.49146e-18
4.90878e-18
-1.78785e-18
4.98869e-18
-1.1275e-18
4.973e-18
-5.15343e-19
4.87191e-18
4.56914e-20
4.69522e-18
5.54326e-19
4.45216e-18
1.01059e-18
4.15137e-18
1.4155e-18
3.80088e-18
1.77076e-18
3.40815e-18
2.07847e-18
2.9801e-18
2.34095e-18
2.52309e-18
2.56058e-18
2.04297e-18
2.73964e-18
1.54508e-18
2.8802e-18
1.03432e-18
2.98407e-18
5.15224e-19
3.05265e-18
3.08692e-18
-7.49525e-11
2.50743e-10
-9.58906e-11
5.039e-10
-7.96062e-11
6.19327e-10
-6.91608e-11
6.00095e-10
-6.14727e-11
4.75985e-10
-4.11301e-11
4.26736e-10
-1.3671e-11
3.58358e-10
6.29468e-11
2.52927e-10
1.2601e-10
1.32803e-10
2.93731e-10
-1.57707e-10
4.62647e-10
-6.96733e-10
5.36019e-10
-1.10063e-09
4.33885e-10
-1.1224e-09
4.03878e-10
-1.10144e-09
4.53413e-10
-1.04661e-09
5.06124e-10
-9.92751e-10
5.00653e-10
-9.09538e-10
5.04874e-10
-8.83937e-10
4.80425e-10
-8.16531e-10
4.23321e-10
-7.20167e-10
3.65391e-10
-5.80619e-10
2.92116e-10
-4.14939e-10
2.14518e-10
-3.15119e-10
1.74732e-10
-2.98378e-10
1.98241e-10
-3.53627e-10
2.91994e-10
-4.84621e-10
4.17498e-10
-6.1924e-10
5.53346e-10
-7.16473e-10
7.23286e-10
-7.38486e-10
8.38781e-10
-8.04901e-10
9.1459e-10
-6.9189e-10
9.93144e-10
-7.23622e-10
9.89592e-10
-5.30782e-10
1.02549e-09
-4.8375e-10
1.0551e-09
-3.69715e-10
1.10972e-09
-2.42093e-10
1.0971e-09
-1.2478e-10
1.10215e-09
1.46963e-10
1.07943e-09
2.3143e-10
9.85945e-10
3.26423e-10
9.51695e-10
4.17894e-10
9.68873e-10
5.3368e-10
9.68918e-10
6.61369e-10
9.56202e-10
8.60465e-10
1.05994e-09
9.90728e-10
1.09116e-09
1.08191e-09
1.06898e-09
1.0805e-09
9.99571e-10
1.00024e-09
9.7747e-10
8.42727e-10
8.56258e-10
7.44744e-10
8.0403e-10
5.62529e-10
7.10121e-10
3.38442e-10
5.88524e-10
3.8515e-10
5.68329e-10
1.55599e-10
5.97189e-10
3.41694e-11
6.35236e-10
-3.93776e-11
7.03429e-10
-1.63399e-10
7.24658e-10
-2.0166e-10
8.1557e-10
-3.68369e-10
8.39241e-10
-3.98864e-10
7.90789e-10
-4.14632e-10
7.31575e-10
-4.3303e-10
6.64562e-10
-3.80328e-10
6.65747e-10
-3.15011e-10
7.2697e-10
-1.58094e-10
7.67666e-10
9.82815e-12
7.25868e-10
2.23964e-10
7.27008e-10
4.21172e-10
7.08068e-10
5.52756e-10
6.94936e-10
6.31736e-10
7.15758e-10
7.13092e-10
7.22966e-10
8.3022e-10
7.08294e-10
8.5013e-10
6.25568e-10
8.37955e-10
5.21208e-10
6.99129e-10
2.58391e-10
4.36121e-10
-2.09806e-10
3.41303e-10
-5.89872e-10
1.59287e-10
-5.97329e-10
-2.52163e-10
6.26399e-11
-6.73992e-10
-4.57823e-16
1.11808e-09
-1.56636e-17
1.71419e-18
-1.74537e-17
1.51322e-18
-1.79381e-17
-7.9591e-19
-1.77129e-17
-2.85841e-18
-1.70049e-17
-4.7246e-18
-1.5933e-17
-6.37903e-18
-1.45793e-17
-7.79813e-18
-1.30132e-17
-8.95924e-18
-1.12991e-17
-9.84571e-18
-9.4984e-18
-1.04507e-17
-7.66816e-18
-1.07784e-17
-5.85956e-18
-1.08436e-17
-4.11666e-18
-1.06697e-17
-2.47538e-18
-1.02864e-17
-9.63337e-19
-9.72743e-18
3.99908e-19
-9.02773e-18
1.60216e-18
-8.22208e-18
2.63764e-18
-7.3433e-18
3.50587e-18
-6.42112e-18
4.21061e-18
-5.48161e-18
4.75896e-18
-4.54691e-18
5.16052e-18
-3.63519e-18
5.42652e-18
-2.76081e-18
5.56913e-18
-1.93457e-18
5.60085e-18
-1.16408e-18
5.53403e-18
-4.54146e-19
5.38054e-18
1.92756e-19
5.15148e-18
7.76035e-19
4.85708e-18
1.29656e-18
4.50663e-18
1.75627e-18
4.10859e-18
2.15779e-18
3.67064e-18
2.50416e-18
3.19973e-18
2.79856e-18
2.70215e-18
3.04414e-18
2.18354e-18
3.24383e-18
1.64895e-18
3.40027e-18
1.1029e-18
3.51569e-18
5.49493e-19
3.59181e-18
3.62982e-18
-7.41259e-11
3.24869e-10
-1.10309e-10
5.40084e-10
-8.58474e-11
5.94867e-10
-6.05413e-11
5.7479e-10
-4.57479e-11
4.61193e-10
-5.15388e-12
3.86143e-10
5.7551e-11
2.95654e-10
1.3745e-10
1.73029e-10
2.3497e-10
3.52841e-11
3.66386e-10
-2.89123e-10
4.22852e-10
-7.53198e-10
5.1186e-10
-1.18964e-09
6.10758e-10
-1.2213e-09
6.33467e-10
-1.12415e-09
6.432e-10
-1.05634e-09
6.56512e-10
-1.00606e-09
6.69076e-10
-9.22101e-10
6.46278e-10
-8.61137e-10
5.26401e-10
-6.96653e-10
3.92251e-10
-5.86015e-10
2.45968e-10
-4.34334e-10
1.32183e-10
-3.01153e-10
5.26904e-11
-2.35625e-10
-3.16859e-11
-2.14e-10
-2.9143e-11
-3.56168e-10
1.4271e-10
-6.56473e-10
3.41813e-10
-8.18341e-10
4.80883e-10
-8.55542e-10
6.57692e-10
-9.15295e-10
7.11883e-10
-8.59091e-10
8.32753e-10
-8.12758e-10
8.64499e-10
-7.55367e-10
8.41729e-10
-5.08011e-10
7.87478e-10
-4.29498e-10
7.97154e-10
-3.79391e-10
7.76277e-10
-2.21215e-10
7.50502e-10
-9.90037e-11
7.52822e-10
1.44644e-10
7.35394e-10
2.48859e-10
6.82951e-10
3.78867e-10
6.63779e-10
4.37066e-10
6.79465e-10
5.17994e-10
6.46273e-10
6.94561e-10
7.01644e-10
8.05094e-10
6.81334e-10
1.01104e-09
6.56741e-10
1.10651e-09
7.29138e-10
1.0081e-09
7.95431e-10
9.33944e-10
7.7604e-10
8.62116e-10
7.16017e-10
8.04766e-10
7.18839e-10
5.59705e-10
6.29407e-10
4.27873e-10
5.55824e-10
4.58732e-10
5.45842e-10
1.65579e-10
5.61799e-10
1.82099e-11
5.9273e-10
-7.03105e-11
6.56993e-10
-2.27663e-10
6.80176e-10
-2.24845e-10
6.26528e-10
-3.14723e-10
5.49489e-10
-3.21827e-10
4.87396e-10
-3.5254e-10
4.3127e-10
-3.76906e-10
3.98435e-10
-3.47494e-10
3.88668e-10
-3.05245e-10
4.1921e-10
-1.88636e-10
4.44521e-10
-1.54829e-11
4.67492e-10
2.00994e-10
5.12117e-10
3.76547e-10
5.73371e-10
4.91502e-10
6.52395e-10
5.52712e-10
6.61612e-10
7.03875e-10
6.4725e-10
8.44581e-10
6.30903e-10
8.66476e-10
6.09282e-10
8.59576e-10
5.30496e-10
7.77916e-10
4.35982e-10
5.30635e-10
4.48477e-10
3.28808e-10
5.88519e-10
1.92461e-11
5.89088e-10
-2.52731e-10
4.69638e-10
-5.5454e-10
8.27693e-11
1.50495e-09
-1.11677e-17
8.27698e-11
-1.97618e-17
1.01099e-17
-1.99998e-17
-5.55943e-19
-1.95786e-17
-3.27789e-18
-1.8659e-17
-5.64245e-18
-1.73519e-17
-7.68446e-18
-1.57403e-17
-9.40814e-18
-1.38997e-17
-1.07986e-17
-1.19041e-17
-1.18401e-17
-9.8261e-18
-1.25276e-17
-7.73333e-18
-1.28701e-17
-5.68567e-18
-1.28903e-17
-3.73343e-18
-1.26213e-17
-1.91637e-18
-1.21033e-17
-2.63638e-19
-1.13804e-17
1.20555e-18
-1.04975e-17
2.48095e-18
-9.49814e-18
3.55982e-18
-8.42273e-18
4.44537e-18
-7.30717e-18
5.14531e-18
-6.18228e-18
5.67069e-18
-5.07357e-18
6.0349e-18
-4.00147e-18
6.25275e-18
-2.98161e-18
6.33962e-18
-2.02528e-18
6.31078e-18
-1.13995e-18
6.18093e-18
-3.29837e-19
5.96382e-18
4.03495e-19
5.67201e-18
1.06058e-18
5.31678e-18
1.64351e-18
4.90815e-18
2.15549e-18
4.45496e-18
2.60037e-18
3.96504e-18
2.98233e-18
3.44531e-18
3.30562e-18
2.90184e-18
3.5743e-18
2.33998e-18
3.79209e-18
1.76436e-18
3.96227e-18
1.17902e-18
4.08756e-18
5.87497e-19
4.17008e-18
4.21123e-18
-5.50499e-11
3.7992e-10
-9.39776e-11
5.79013e-10
-8.58468e-11
5.86737e-10
-6.64344e-11
5.55378e-10
-5.02298e-11
4.44989e-10
-4.98426e-11
3.85757e-10
1.2164e-11
2.33649e-10
1.71685e-10
1.35092e-11
3.58615e-10
-1.51645e-10
5.45373e-10
-4.7588e-10
7.00451e-10
-9.08275e-10
7.03902e-10
-1.19309e-09
7.00858e-10
-1.21825e-09
7.52658e-10
-1.17595e-09
7.96007e-10
-1.09969e-09
8.01156e-10
-1.01121e-09
7.64359e-10
-8.85303e-10
7.12436e-10
-8.09213e-10
6.28456e-10
-6.12671e-10
4.1835e-10
-3.75908e-10
1.96008e-10
-2.11991e-10
4.02729e-11
-1.45416e-10
-1.08545e-10
-8.68062e-11
-1.75794e-10
-1.4675e-10
-1.53975e-11
-5.16564e-10
1.40676e-10
-8.12545e-10
2.5074e-10
-9.28404e-10
3.66459e-10
-9.71259e-10
4.66068e-10
-1.0149e-09
5.90817e-10
-9.83839e-10
6.46405e-10
-8.68345e-10
6.41414e-10
-7.50374e-10
6.37935e-10
-5.04531e-10
5.47085e-10
-3.38646e-10
4.70678e-10
-3.02983e-10
4.61472e-10
-2.12008e-10
4.72564e-10
-1.10094e-10
5.07745e-10
1.09463e-10
5.1069e-10
2.45915e-10
4.59752e-10
4.29805e-10
3.89715e-10
5.07104e-10
3.05714e-10
6.01995e-10
3.29811e-10
6.70463e-10
3.49233e-10
7.85671e-10
4.29397e-10
9.30874e-10
5.51558e-10
9.84344e-10
5.68886e-10
9.90775e-10
5.56049e-10
9.46779e-10
5.56324e-10
8.6184e-10
5.91513e-10
7.69576e-10
5.65692e-10
5.85524e-10
4.88048e-10
5.05516e-10
4.95789e-10
4.50988e-10
5.24991e-10
1.36376e-10
5.32304e-10
1.08951e-11
5.75973e-10
-1.13982e-10
5.37699e-10
-1.89391e-10
4.89953e-10
-1.77101e-10
3.76466e-10
-2.01237e-10
3.05906e-10
-2.5127e-10
2.64096e-10
-3.10731e-10
1.76691e-10
-2.89503e-10
7.62935e-11
-2.47097e-10
1.34345e-11
-2.42387e-10
7.23737e-13
-1.75926e-10
5.4255e-11
-6.90145e-11
1.89208e-10
6.60407e-11
3.24939e-10
2.40815e-10
4.25907e-10
3.90534e-10
4.60126e-10
5.18492e-10
5.06054e-10
6.57947e-10
5.80539e-10
7.70097e-10
5.85522e-10
8.61494e-10
5.96363e-10
8.48734e-10
6.02565e-10
7.71714e-10
5.91478e-10
5.41722e-10
5.83299e-10
3.36988e-10
4.41322e-10
1.61224e-10
2.66647e-10
-7.80552e-11
-5.23363e-11
-2.35556e-10
2.53261e-10
1.19935e-09
-5.66778e-16
3.36032e-10
-2.27654e-17
6.5866e-18
-2.27209e-17
-5.99646e-19
-2.19426e-17
-4.05443e-18
-2.07006e-17
-6.8824e-18
-1.90756e-17
-9.30755e-18
-1.71308e-17
-1.1351e-17
-1.49412e-17
-1.29862e-17
-1.25916e-17
-1.41878e-17
-1.01687e-17
-1.49488e-17
-7.7535e-18
-1.52838e-17
-5.41662e-18
-1.52258e-17
-3.21545e-18
-1.48213e-17
-1.19347e-18
-1.41247e-17
6.19259e-19
-1.31933e-17
2.2049e-18
-1.2084e-17
3.55636e-18
-1.08509e-17
4.67537e-18
-9.54295e-18
5.57027e-18
-8.20297e-18
6.25402e-18
-6.86684e-18
6.74279e-18
-5.56348e-18
7.05476e-18
-4.31526e-18
7.20908e-18
-3.13864e-18
7.22495e-18
-2.04481e-18
7.12089e-18
-1.04049e-18
6.91427e-18
-1.28681e-19
6.62091e-18
6.90555e-19
6.25495e-18
1.41941e-18
5.82876e-18
2.06167e-18
5.35302e-18
2.62218e-18
4.83693e-18
3.10636e-18
4.28833e-18
3.51982e-18
3.71398e-18
3.86803e-18
3.11963e-18