/*--------------------------------*- C++ -*----------------------------------*\
  =========                 |
  \\      /  F ield         | OpenFOAM: The Open Source CFD Toolbox
   \\    /   O peration     | Website:  https://openfoam.org
    \\  /    A nd           | Version:  6
     \\/     M anipulation  |
\*---------------------------------------------------------------------------*/
FoamFile
{
    version     2.0;
    format      ascii;
    class       volScalarField;
    location    "4950";
    object      Su;
}
// * * * * * * * * * * * * * * * * * * * * * * * * * * * * * * * * * * * * * //

dimensions      [0 0 -1 0 0 0 0];

internalField   nonuniform List<scalar> 
4800
(
0.220119
0.219176
0.218232
0.217292
0.216356
0.215431
0.214518
0.213621
0.212746
0.211895
0.211073
0.210277
0.2095
0.208732
0.207969
0.207203
0.20643
0.205645
0.204847
0.204033
0.203199
0.202343
0.201465
0.200563
0.199639
0.198693
0.197722
0.196724
0.195699
0.194645
0.193557
0.192429
0.191258
0.190041
0.188769
0.187426
0.186002
0.184484
0.182858
0.181109
0.179225
0.17719
0.174996
0.172644
0.170143
0.167507
0.164756
0.161913
0.15899
0.155996
0.152942
0.149835
0.146675
0.143461
0.140193
0.136877
0.133516
0.130112
0.126667
0.123178
0.11964
0.116049
0.112394
0.108659
0.104828
0.100882
0.0968038
0.0925828
0.088215
0.0837042
0.0790694
0.0743537
0.069606
0.0648671
0.0601683
0.0555263
0.0509388
0.0463973
0.0419003
0.0374434
0.0329982
0.0285454
0.0241298
0.0197549
0.0154294
0.0111588
0.0069464
0.00279402
-0.00129745
-0.00532779
-0.00929764
-0.0132082
-0.0170612
-0.0208587
-0.0246032
-0.0282974
-0.031944
-0.0355461
-0.0391066
-0.0426285
-0.0461149
-0.0495685
-0.0529922
-0.0563887
-0.0597604
-0.0631099
-0.0664393
-0.0697508
-0.0730463
-0.0763277
-0.0795968
-0.082855
-0.0861038
-0.0893447
-0.0925788
-0.0958073
-0.0990314
-0.102252
-0.10547
-0.108687
0.22012
0.219176
0.218233
0.217293
0.21636
0.215437
0.214527
0.213632
0.212757
0.211906
0.21108
0.210279
0.209495
0.208721
0.207951
0.207177
0.206396
0.205603
0.204797
0.203975
0.203135
0.202273
0.201388
0.200479
0.199545
0.198588
0.197607
0.1966
0.195565
0.194502
0.193406
0.192273
0.191097
0.189874
0.188599
0.187253
0.185828
0.184313
0.182693
0.180955
0.179089
0.177079
0.174911
0.172582
0.170096
0.16747
0.164725
0.161882
0.158957
0.155958
0.152899
0.149786
0.14662
0.143398
0.140123
0.1368
0.133434
0.130025
0.126574
0.12308
0.119538
0.115944
0.112288
0.108555
0.10473
0.100794
0.0967318
0.0925341
0.088199
0.0837304
0.079143
0.0744636
0.0697345
0.0650038
0.060308
0.0556616
0.0510625
0.0465095
0.0419924
0.0374863
0.0329847
0.0285
0.0240699
0.0196871
0.0153572
0.0110844
0.00687115
0.00271909
-0.00137123
-0.00539979
-0.00936736
-0.0132753
-0.0171253
-0.0209197
-0.024661
-0.0283517
-0.031995
-0.0355937
-0.0391509
-0.0426697
-0.0461529
-0.0496035
-0.0530244
-0.0564181
-0.0597873
-0.0631343
-0.0664614
-0.0697707
-0.0730642
-0.0763437
-0.0796109
-0.0828673
-0.0861145
-0.0893538
-0.0925864
-0.0958135
-0.0990361
-0.102255
-0.105472
-0.108688
0.22012
0.219179
0.218237
0.217298
0.216367
0.215447
0.21454
0.213648
0.212773
0.211919
0.211086
0.210275
0.209478
0.20869
0.207903
0.207112
0.206314
0.205505
0.204683
0.203844
0.202989
0.202111
0.201211
0.200286
0.199335
0.198359
0.19736
0.196336
0.195283
0.194203
0.193092
0.191948
0.190761
0.189525
0.188242
0.186893
0.185466
0.183953
0.182341
0.180616
0.178769
0.176787
0.174658
0.172371
0.169928
0.167335
0.164608
0.161769
0.158836
0.155829
0.152762
0.14964
0.146463
0.143232
0.13995
0.136621
0.13325
0.129837
0.126382
0.122884
0.11934
0.115745
0.11209
0.108359
0.104539
0.100615
0.096575
0.0924075
0.0881119
0.0836931
0.0791624
0.0745397
0.0698573
0.065154
0.0604622
0.0558016
0.0511748
0.0465686
0.0419777
0.0374182
0.0328952
0.0283934
0.023945
0.0195494
0.0152117
0.0109347
0.00672021
0.00256893
-0.00151901
-0.00554394
-0.00950691
-0.0134095
-0.0172536
-0.0210417
-0.0247764
-0.0284604
-0.0320969
-0.0356889
-0.0392395
-0.0427518
-0.0462289
-0.0496735
-0.0530887
-0.056477
-0.059841
-0.0631831
-0.0665056
-0.0698105
-0.0730999
-0.0763755
-0.079639
-0.082892
-0.0861358
-0.0893719
-0.0926015
-0.0958257
-0.0990456
-0.102262
-0.105476
-0.108689
0.22012
0.219177
0.218237
0.217301
0.216374
0.215457
0.214552
0.213662
0.212786
0.211928
0.211085
0.210257
0.209442
0.208632
0.207822
0.207008
0.206186
0.205354
0.204508
0.203646
0.202765
0.201862
0.200936
0.199985
0.199008
0.198006
0.19698
0.195931
0.194855
0.193753
0.192624
0.191462
0.190259
0.189007
0.187708
0.18635
0.184918
0.183404
0.181797
0.180083
0.178253
0.1763
0.17421
0.171969
0.169574
0.167029
0.16434
0.161524
0.158603
0.1556
0.152523
0.149384
0.146191
0.142946
0.139654
0.136318
0.132941
0.129524
0.126068
0.12257
0.11903
0.115441
0.111793
0.108069
0.104254
0.100339
0.0963178
0.0921818
0.0879286
0.0835621
0.0790901
0.0745267
0.0698956
0.065224
0.0605397
0.0558679
0.0512221
0.0466018
0.0419916
0.0373786
0.0327844
0.0282308
0.0237531
0.0193398
0.0149916
0.0107093
0.00649316
0.00234327
-0.00174095
-0.00576034
-0.00971632
-0.0136108
-0.017446
-0.0212245
-0.0249492
-0.0286232
-0.0322495
-0.0358314
-0.0393721
-0.0428747
-0.0463424
-0.0497781
-0.0531847
-0.0565649
-0.0599211
-0.0632559
-0.0665715
-0.0698699
-0.0731531
-0.0764229
-0.0796809
-0.0829287
-0.0861676
-0.089399
-0.0926241
-0.0958439
-0.0990596
-0.102272
-0.105482
-0.108691
0.220121
0.21918
0.218241
0.217306
0.216379
0.215463
0.214559
0.213667
0.212789
0.211923
0.211068
0.210222
0.209384
0.20855
0.207714
0.206872
0.206023
0.205161
0.204284
0.20339
0.202476
0.20154
0.20058
0.199593
0.198581
0.197546
0.196488
0.195408
0.194305
0.193176
0.192023
0.190839
0.189615
0.188345
0.187029
0.185656
0.184213
0.182691
0.181079
0.179367
0.177551
0.175621
0.173564
0.171365
0.169016
0.166518
0.163871
0.161093
0.158199
0.155204
0.15212
0.148969
0.145766
0.142515
0.139218
0.135875
0.132492
0.129071
0.125613
0.122116
0.118576
0.114989
0.111344
0.107628
0.103827
0.0999286
0.0959329
0.0918336
0.0876264
0.0833156
0.07891
0.0744137
0.0698355
0.0651945
0.0605149
0.0558263
0.0511528
0.0465006
0.0418655
0.0372323
0.0325976
0.0279959
0.0234886
0.019056
0.0146959
0.0104073
0.00618965
0.00204188
-0.00203721
-0.00604904
-0.00999557
-0.0138791
-0.0177023
-0.021468
-0.0251793
-0.0288397
-0.0324524
-0.0360207
-0.0395481
-0.0430379
-0.0464931
-0.0499169
-0.053312
-0.0566813
-0.0600273
-0.0633524
-0.0666588
-0.0699485
-0.0732236
-0.0764856
-0.0797364
-0.0829772
-0.0862096
-0.0894348
-0.0926539
-0.095868
-0.0990781
-0.102285
-0.10549
-0.108694
0.22012
0.219179
0.218239
0.217304
0.216377
0.21546
0.214554
0.213659
0.212776
0.211902
0.211033
0.210169
0.209307
0.208446
0.207581
0.20671
0.205828
0.204933
0.20402
0.203088
0.202135
0.201158
0.200156
0.199129
0.198076
0.197001
0.195906
0.194791
0.193657
0.192498
0.191315
0.190105
0.188856
0.187564
0.186223
0.184829
0.183369
0.181835
0.180213
0.178497
0.176682
0.174763
0.172725
0.170558
0.168252
0.165797
0.163196
0.160456
0.15759
0.154614
0.151546
0.148399
0.145192
0.141935
0.138634
0.135289
0.131902
0.128476
0.125012
0.121509
0.117963
0.114368
0.11072
0.107011
0.103227
0.0993563
0.0953954
0.091339
0.0871818
0.0829295
0.0785876
0.0741561
0.0696359
0.0650344
0.0603691
0.0556679
0.0509622
0.0462709
0.0416048
0.0369549
0.0323056
0.0276794
0.023149
0.0186977
0.0143247
0.0100291
0.0058097
0.00166476
-0.00240777
-0.00641
-0.0103445
-0.0142142
-0.0180221
-0.0217716
-0.0254662
-0.0291094
-0.0327049
-0.0362563
-0.039767
-0.0432406
-0.0466802
-0.0500891
-0.05347
-0.0568257
-0.0601589
-0.0634719
-0.0667668
-0.0700458
-0.0733107
-0.0765632
-0.0798049
-0.0830373
-0.0862616
-0.089479
-0.0926908
-0.0958978
-0.0991011
-0.102301
-0.1055
-0.108697
0.220117
0.219171
0.218229
0.217292
0.216362
0.215442
0.214532
0.213632
0.212741
0.211857
0.210974
0.210091
0.209206
0.208319
0.207426
0.206524
0.205608
0.204676
0.203724
0.20275
0.201752
0.200729
0.199681
0.198607
0.19751
0.196391
0.195254
0.194101
0.192929
0.191735
0.190517
0.189272
0.187992
0.18667
0.185301
0.183881
0.182398
0.180846
0.179209
0.177479
0.175656
0.173736
0.171711
0.169569
0.167295
0.164877
0.162317
0.159617
0.156788
0.153843
0.150797
0.147665
0.144466
0.141212
0.137912
0.134567
0.131177
0.127743
0.124267
0.12075
0.117189
0.11358
0.109926
0.106221
0.102458
0.0986232
0.0947053
0.0907005
0.0866055
0.0824205
0.0781459
0.0737795
0.0693186
0.0647637
0.060123
0.0554156
0.0506756
0.0459357
0.0412215
0.0365547
0.0319201
0.0272913
0.0227406
0.0182684
0.0138798
0.00957543
0.00535373
0.00121208
-0.00285251
-0.00684307
-0.010763
-0.0146158
-0.0184051
-0.0221349
-0.025809
-0.0294315
-0.0330063
-0.0365371
-0.0400279
-0.043482
-0.0469029
-0.0502938
-0.0536577
-0.0569973
-0.0603151
-0.0636136
-0.066895
-0.0701612
-0.073414
-0.0766552
-0.0798862
-0.0831084
-0.0863231
-0.0895314
-0.0927344
-0.095933
-0.0991282
-0.102321
-0.105511
-0.108701
0.220113
0.21916
0.218211
0.217269
0.216334
0.215408
0.214491
0.213584
0.212684
0.211788
0.210892
0.209992
0.209086
0.208173
0.207251
0.206317
0.205367
0.204396
0.203403
0.202383
0.201338
0.200266
0.199167
0.198043
0.196896
0.19573
0.194547
0.193348
0.192133
0.190896
0.189637
0.18835
0.187032
0.185673
0.18427
0.182817
0.181306
0.17973
0.178071
0.176325
0.174489
0.172563
0.170539
0.168407
0.166157
0.163774
0.161252
0.158594
0.155808
0.152902
0.14989
0.146787
0.14361
0.140367
0.137074
0.133731
0.130338
0.126895
0.123402
0.119864
0.116279
0.112653
0.10899
0.105291
0.101552
0.0977581
0.0938942
0.0899536
0.0859299
0.0818188
0.0776178
0.0733212
0.0689224
0.064419
0.0598152
0.0551218
0.050363
0.0455832
0.0408357
0.0361571
0.031517
0.0268624
0.0222768
0.0177739
0.0133637
0.00904733
0.0048221
0.000683984
-0.00337131
-0.00734802
-0.0112505
-0.0150832
-0.0188506
-0.022557
-0.0262071
-0.0298051
-0.0333555
-0.0368623
-0.0403296
-0.043761
-0.0471601
-0.0505301
-0.0538741
-0.0571949
-0.060495
-0.0637768
-0.0670424
-0.0702938
-0.0735327
-0.0767607
-0.0799794
-0.08319
-0.0863936
-0.0895914
-0.0927844
-0.0959734
-0.0991592
-0.102343
-0.105524
-0.108705
0.220108
0.219145
0.218187
0.217236
0.216292
0.215357
0.214431
0.213513
0.212602
0.211692
0.21078
0.209861
0.208934
0.207998
0.20705
0.206085
0.205101
0.204093
0.203058
0.201993
0.200898
0.199775
0.198623
0.197446
0.196245
0.195026
0.193792
0.192543
0.191276
0.18999
0.188685
0.187353
0.185994
0.184593
0.183148
0.181656
0.180109
0.178502
0.176817
0.175049
0.173196
0.171257
0.169227
0.167099
0.164864
0.162506
0.160022
0.15741
0.154673
0.151817
0.148852
0.145791
0.142649
0.139431
0.136152
0.132815
0.129419
0.125967
0.122455
0.118895
0.115295
0.111665
0.108009
0.104326
0.100611
0.0968551
0.0930445
0.0891689
0.0852184
0.0811839
0.0770569
0.0728285
0.0684928
0.0640476
0.0594938
0.0548424
0.0501217
0.0453657
0.0406008
0.0358492
0.0311299
0.0264054
0.0217651
0.0172166
0.0127768
0.00844446
0.0042143
8.00562e-05
-0.00396437
-0.00792478
-0.0118068
-0.015616
-0.0193576
-0.0230369
-0.0266591
-0.0302289
-0.0337512
-0.0372304
-0.0406707
-0.0440761
-0.0474503
-0.0507965
-0.054118
-0.0574174
-0.0606974
-0.0639602
-0.067208
-0.0704427
-0.0736659
-0.0768792
-0.080084
-0.0832814
-0.0864727
-0.0896587
-0.0928404
-0.0960186
-0.099194
-0.102367
-0.105539
-0.10871
0.220102
0.219126
0.218155
0.217191
0.216235
0.215286
0.214346
0.213415
0.21249
0.211566
0.210636
0.209697
0.208748
0.207787
0.206812
0.205818
0.204801
0.203757
0.202683
0.201575
0.200432
0.199258
0.198053
0.196821
0.195565
0.19429
0.192998
0.191689
0.190364
0.189022
0.187664
0.186285
0.184881
0.183438
0.18195
0.180415
0.178828
0.177184
0.175468
0.173674
0.171797
0.169839
0.167798
0.165669
0.163447
0.161118
0.158673
0.156108
0.153424
0.150626
0.147717
0.144711
0.141617
0.138438
0.135187
0.131864
0.12847
0.125009
0.121488
0.117919
0.114322
0.110706
0.107071
0.103414
0.09973
0.0960114
0.09225
0.0884337
0.0845477
0.0805784
0.0765172
0.0723561
0.0680846
0.0636963
0.0591916
0.0545762
0.0498675
0.0450869
0.040264
0.0354412
0.0306791
0.0254538
0.0211958
0.0165894
0.0121144
0.00776356
0.00352799
-0.000601307
-0.00463261
-0.00857365
-0.0124316
-0.0162134
-0.0199252
-0.0235734
-0.0271635
-0.0307012
-0.0341916
-0.0376396
-0.0410496
-0.0444258
-0.047772
-0.0510916
-0.0543878
-0.0576634
-0.0609209
-0.0641627
-0.0673907
-0.0706068
-0.0738126
-0.0770096
-0.080199
-0.083382
-0.0865596
-0.0897326
-0.092902
-0.0960683
-0.0992322
-0.102394
-0.105555
-0.108716
0.220094
0.219102
0.218114
0.217133
0.216159
0.215193
0.214236
0.213286
0.212342
0.211398
0.210448
0.209487
0.208515
0.20753
0.206527
0.205504
0.204456
0.203377
0.202266
0.201118
0.199932
0.19871
0.197455
0.196169
0.194855
0.193521
0.192166
0.190792
0.1894
0.187994
0.186576
0.185146
0.183698
0.182216
0.180688
0.17911
0.17748
0.175793
0.174037
0.17221
0.170309
0.168332
0.166279
0.164147
0.161933
0.15963
0.157229
0.154722
0.152101
0.149371
0.146532
0.143594
0.140563
0.137439
0.134226
0.130927
0.127546
0.124093
0.120577
0.117016
0.113435
0.109857
0.106274
0.10267
0.0990319
0.0953513
0.0916236
0.0878443
0.084003
0.0800855
0.0760791
0.0719716
0.0677521
0.0634099
0.0589381
0.0543358
0.0496134
0.0447946
0.0399138
0.0350259
0.030194
0.0253578
0.0205353
0.0158759
0.0113664
0.00699762
0.00275818
-0.00136348
-0.00537807
-0.00929556
-0.013125
-0.0168747
-0.0205523
-0.0241648
-0.0277188
-0.0312203
-0.034675
-0.0380881
-0.0414643
-0.0448081
-0.0481233
-0.0514134
-0.0546818
-0.0579312
-0.0611641
-0.0643827
-0.0675891
-0.070785
-0.0739718
-0.077151
-0.0803237
-0.083491
-0.0866537
-0.0898127
-0.0929686
-0.096122
-0.0992736
-0.102424
-0.105573
-0.108721
0.220083
0.219068
0.218058
0.217053
0.216056
0.215067
0.214086
0.213113
0.212144
0.211176
0.210201
0.209217
0.208221
0.207211
0.206182
0.205131
0.204052
0.202942
0.201797
0.200614
0.199388
0.198123
0.196821
0.195483
0.194111
0.192717
0.191298
0.189859
0.188403
0.186935
0.185455
0.183964
0.18246
0.180931
0.179364
0.177748
0.176081
0.174359
0.172569
0.170711
0.168786
0.16679
0.164729
0.162597
0.160393
0.158113
0.155755
0.15331
0.150765
0.148114
0.145358
0.142502
0.139547
0.136487
0.133327
0.130068
0.126715
0.123287
0.119809
0.116305
0.112798
0.109295
0.105781
0.102234
0.0986379
0.0949828
0.0912705
0.0875036
0.0836805
0.0797895
0.0758112
0.0717324
0.0675415
0.0632193
0.0587535
0.0541417
0.0493864
0.044505
0.0395303
0.034523
0.0295699
0.0246559
0.0197726
0.0150627
0.0105202
0.00613612
0.00189684
-0.00221206
-0.00620426
-0.0100923
-0.0138874
-0.0175995
-0.0212375
-0.0248095
-0.0283227
-0.0317837
-0.0351988
-0.0385733
-0.0419124
-0.0452206
-0.0485019
-0.05176
-0.0549981
-0.0582189
-0.0614251
-0.0646188
-0.0678018
-0.0709758
-0.0741422
-0.0773022
-0.080457
-0.0836074
-0.0867542
-0.0898981
-0.0930397
-0.0961794
-0.0993176
-0.102455
-0.105591
-0.108727
0.220067
0.219022
0.217982
0.216947
0.21592
0.214901
0.213889
0.212883
0.211883
0.210883
0.20988
0.208869
0.20785
0.206816
0.205761
0.204682
0.203574
0.202435
0.20126
0.200046
0.198788
0.197486
0.196142
0.194756
0.193331
0.191881
0.190406
0.188907
0.187391
0.185862
0.184322
0.182772
0.181213
0.179633
0.17802
0.176363
0.174659
0.172904
0.171081
0.169195
0.16725
0.165239
0.163176
0.161054
0.158873
0.156633
0.154332
0.151959
0.149497
0.146936
0.144275
0.141509
0.138634
0.135648
0.132551
0.129355
0.126073
0.122729
0.119343
0.115935
0.112526
0.109114
0.105676
0.102191
0.0986312
0.0949894
0.0912746
0.0874968
0.0836622
0.079767
0.075792
0.0717127
0.067506
0.0631539
0.0586478
0.0539855
0.049167
0.0441992
0.0391144
0.0339764
0.0288797
0.0238624
0.0188993
0.0141321
0.00955757
0.00516365
0.000932398
-0.00315507
-0.00711622
-0.0109666
-0.0147198
-0.0183874
-0.0219796
-0.0255055
-0.0289729
-0.032389
-0.0357603
-0.0390926
-0.0423912
-0.0456607
-0.0489054
-0.0521288
-0.0553343
-0.0585245
-0.0617021
-0.064869
-0.068027
-0.0711777
-0.0743223
-0.077462
-0.0805978
-0.0837303
-0.0868603
-0.0899882
-0.0931146
-0.0962398
-0.0993641
-0.102488
-0.105611
-0.108734
0.220048
0.218963
0.217883
0.216809
0.215742
0.214682
0.213629
0.212582
0.211542
0.210504
0.209467
0.208427
0.207382
0.206325
0.205247
0.204143
0.20301
0.201845
0.200646
0.199406
0.19812
0.196786
0.195404
0.193976
0.192506
0.191008
0.18948
0.187928
0.186357
0.184773
0.183177
0.181574
0.179963
0.178334
0.176678
0.174982
0.173241
0.171456
0.169606
0.167698
0.165739
0.163722
0.161664
0.159562
0.15742
0.155239
0.153014
0.150733
0.148371
0.145911
0.143348
0.140674
0.13789
0.134995
0.131998
0.12891
0.125747
0.12253
0.119277
0.116001
0.112709
0.109391
0.106029
0.102599
0.0990623
0.0954164
0.0916749
0.0878595
0.0839872
0.0800616
0.0760535
0.0719212
0.0676368
0.0631944
0.0585918
0.0538272
0.0489087
0.0438402
0.0386394
0.033364
0.0281121
0.0229598
0.0178842
0.0130516
0.00845068
0.00405906
-0.000150279
-0.0042027
-0.00812032
-0.011922
-0.0156234
-0.0192381
-0.0227772
-0.0262506
-0.0296667
-0.0330331
-0.0363565
-0.0396429
-0.0428977
-0.0461256
-0.0493309
-0.0525172
-0.0556879
-0.0588456
-0.0619928
-0.0651313
-0.0682629
-0.071389
-0.0745108
-0.0776291
-0.0807448
-0.0838586
-0.0869709
-0.0900822
-0.0931928
-0.0963028
-0.0994125
-0.102522
-0.105631
-0.108741
0.220022
0.218887
0.217756
0.216631
0.215512
0.2144
0.213294
0.212195
0.211105
0.210022
0.208946
0.207874
0.206802
0.205721
0.204624
0.203501
0.202348
0.201162
0.199941
0.198678
0.197367
0.196005
0.194591
0.193128
0.191618
0.190079
0.188508
0.18691
0.185296
0.183666
0.182024
0.180375
0.178718
0.177048
0.175354
0.173624
0.171856
0.170046
0.168178
0.166256
0.164293
0.162285
0.160247
0.158183
0.156096
0.153995
0.151874
0.149702
0.147451
0.145099
0.14264
0.140073
0.137403
0.134634
0.131775
0.128835
0.125828
0.122769
0.119675
0.116556
0.1134
0.110183
0.106886
0.103485
0.0999465
0.0962691
0.092473
0.0885934
0.0846564
0.0806611
0.0765603
0.0723064
0.0678754
0.063273
0.0585081
0.0535843
0.0485123
0.0433065
0.0379812
0.0325829
0.0271857
0.0218793
0.0166636
0.0117695
0.00716212
0.00279664
-0.00136827
-0.00536597
-0.00922326
-0.0129618
-0.0165995
-0.020151
-0.0236285
-0.0270423
-0.0304012
-0.0337128
-0.0369839
-0.0402207
-0.0434284
-0.0466118
-0.0497753
-0.0529224
-0.0560563
-0.0591797
-0.0622949
-0.0654037
-0.0685076
-0.071608
-0.0747059
-0.077802
-0.0808969
-0.0839912
-0.0870853
-0.0901793
-0.0932734
-0.0963678
-0.0994625
-0.102557
-0.105653
-0.108748
0.21999
0.218789
0.217593
0.216401
0.215215
0.214035
0.212862
0.211698
0.210548
0.209413
0.208294
0.207189
0.206091
0.20499
0.203877
0.20274
0.201571
0.200368
0.199127
0.197842
0.196508
0.195121
0.193681
0.192189
0.190648
0.189077
0.187472
0.185842
0.184196
0.182536
0.180862
0.179181
0.177491
0.175789
0.174067
0.172313
0.170528
0.168707
0.166838
0.164919
0.162968
0.160986
0.158991
0.156988
0.154983
0.152977
0.150978
0.148933
0.146803
0.144567
0.142227
0.13979
0.137262
0.134647
0.13195
0.129182
0.126354
0.12348
0.120573
0.11763
0.114625
0.111518
0.108273
0.104867
0.101291
0.0975433
0.0936648
0.0896991
0.0856689
0.0815475
0.0772712
0.0728085
0.0681525
0.0633125
0.0583075
0.0531549
0.0478693
0.042482
0.037012
0.0314818
0.0259493
0.0205021
0.0151384
0.0102163
0.00564901
0.00135097
-0.00273686
-0.00665424
-0.0104305
-0.014089
-0.0176487
-0.0211252
-0.0245314
-0.0278776
-0.0311727
-0.0344242
-0.0376386
-0.040822
-0.0439795
-0.0471158
-0.0502351
-0.0533409
-0.0564363
-0.0595239
-0.0626057
-0.0656836
-0.068759
-0.0718328
-0.0749059
-0.0779791
-0.0810526
-0.0841269
-0.0872022
-0.0902785
-0.0933559
-0.0964343
-0.0995135
-0.102594
-0.105674
-0.108755
0.219948
0.218664
0.217382
0.216104
0.214831
0.213564
0.212305
0.211063
0.209843
0.208649
0.207483
0.206343
0.205221
0.204104
0.20298
0.201834
0.200654
0.199436
0.198177
0.196873
0.195518
0.194109
0.192648
0.191134
0.189573
0.187979
0.186351
0.184703
0.183042
0.181369
0.179684
0.177991
0.176288
0.174572
0.172839
0.171076
0.169288
0.167472
0.165619
0.163731
0.161819
0.159891
0.157966
0.156052
0.154159
0.152285
0.150426
0.14852
0.146515
0.144404
0.1422
0.139913
0.137546
0.135101
0.132582
0.129997
0.127358
0.124678
0.121962
0.11919
0.116322
0.113305
0.110102
0.10668
0.103034
0.0991669
0.0951665
0.0910752
0.0868949
0.0825656
0.0780184
0.0732498
0.0682788
0.0631207
0.0578036
0.0523616
0.0468309
0.041249
0.0356348
0.0299836
0.0243286
0.0187291
0.0131681
0.00831124
0.00387565
-0.000293032
-0.00426326
-0.00807149
-0.0117442
-0.0153039
-0.01877
-0.0221586
-0.0254827
-0.0287527
-0.0319771
-0.0351629
-0.0383162
-0.0414425
-0.0445468
-0.0476335
-0.0507065
-0.0537693
-0.0568247
-0.0598752
-0.0629227
-0.0659688
-0.0690146
-0.0720612
-0.0751091
-0.0781588
-0.0812105
-0.0842645
-0.0873207
-0.090379
-0.0934394
-0.0965015
-0.0995652
-0.10263
-0.105696
-0.108762
0.219893
0.2185
0.217108
0.215718
0.214334
0.212956
0.211591
0.210256
0.208955
0.207697
0.206482
0.205307
0.204163
0.203032
0.201899
0.200749
0.199563
0.198337
0.197066
0.195744
0.19437
0.192944
0.191468
0.18994
0.18837
0.186765
0.185127
0.183477
0.181818
0.180153
0.178481
0.176802
0.175112
0.173411
0.171692
0.169946
0.168179
0.166391
0.164578
0.162746
0.160908
0.159071
0.157254
0.155473
0.153739
0.152046
0.150351
0.148586
0.1467
0.144711
0.142646
0.140522
0.138329
0.136062
0.133717
0.131307
0.128844
0.126335
0.12378
0.121141
0.118369
0.115398
0.112194
0.108718
0.104977
0.100975
0.0968221
0.0925528
0.0881414
0.0835008
0.0785724
0.0733912
0.0680013
0.0624375
0.0567512
0.0509983
0.0452369
0.0394999
0.0337869
0.028051
0.0222775
0.0164566
0.0104763
0.00598103
0.00184188
-0.00212409
-0.00593925
-0.00961294
-0.0131611
-0.0166037
-0.0199601
-0.0232472
-0.0264781
-0.029663
-0.0328095
-0.0359239
-0.0390116
-0.0420774
-0.0451258
-0.0481606
-0.0511856
-0.0542038
-0.0572181
-0.0602305
-0.0632428
-0.0662564
-0.0692723
-0.0722911
-0.0753134
-0.0783394
-0.0813691
-0.0844025
-0.0874395
-0.0904798
-0.093523
-0.0965688
-0.0996169
-0.102667
-0.105718
-0.108769
0.219822
0.218284
0.216747
0.215212
0.213685
0.212169
0.210672
0.209224
0.207833
0.20651
0.205252
0.204048
0.202884
0.201742
0.200604
0.199454
0.19827
0.197041
0.195761
0.194428
0.193039
0.191602
0.190117
0.188587
0.187019
0.18542
0.183792
0.182157
0.180523
0.17889
0.177256
0.17562
0.173975
0.172321
0.170649
0.168954
0.167242
0.165515
0.163779
0.162044
0.160324
0.158633
0.156987
0.155402
0.153887
0.152426
0.150917
0.149275
0.147468
0.145586
0.143662
0.141704
0.139686
0.137582
0.135386
0.133115
0.130784
0.128394
0.125934
0.123355
0.120607
0.11762
0.114361
0.110794
0.106931
0.102779
0.0984392
0.0939241
0.0891764
0.0840936
0.0786625
0.072947
0.0670402
0.0609989
0.054902
0.04884
0.0428896
0.0370728
0.0313656
0.0256601
0.0198288
0.0136724
0.00388371
0.00329334
-0.00035279
-0.00408766
-0.0077384
-0.0112647
-0.0146724
-0.0179812
-0.0212126
-0.0243848
-0.0275114
-0.0306022
-0.0336638
-0.0367015
-0.0397194
-0.0427215
-0.0457113
-0.0486924
-0.0516678
-0.0546404
-0.0576126
-0.0605863
-0.063563
-0.0665437
-0.0695294
-0.0725204
-0.075517
-0.0785192
-0.0815269
-0.0845398
-0.0875576
-0.0905798
-0.093606
-0.0966357
-0.0996682
-0.102703
-0.105739
-0.108777
0.219726
0.217996
0.216269
0.214545
0.212834
0.211144
0.209487
0.207903
0.206407
0.205017
0.203724
0.202508
0.201346
0.200204
0.199066
0.197916
0.196735
0.195508
0.194225
0.192886
0.191494
0.190055
0.188574
0.187056
0.18551
0.183941
0.182349
0.180756
0.179172
0.1776
0.176037
0.174478
0.172915
0.171347
0.169766
0.168167
0.166552
0.164934
0.163324
0.161743
0.160209
0.158735
0.15733
0.156008
0.154772
0.153588
0.152271
0.150718
0.148948
0.147146
0.145354
0.143557
0.1417
0.139717
0.137612
0.135419
0.133145
0.130786
0.128314
0.125696
0.122888
0.119817
0.11644
0.112736
0.108719
0.104403
0.0998431
0.0950002
0.089782
0.0841122
0.0780103
0.0715945
0.0650472
0.0584831
0.0520231
0.0457618
0.0397631
0.0340082
0.0284575
0.0229741
0.0173838
0.0114654
0.00253305
0.0012719
-0.00243557
-0.00610396
-0.00963116
-0.0130105
-0.0162654
-0.0194254
-0.0225174
-0.0255622
-0.0285742
-0.0315626
-0.0345329
-0.0374888
-0.0404332
-0.0433687
-0.046298
-0.0492238
-0.0521486
-0.0550749
-0.0580045
-0.0609391
-0.06388
-0.0668279
-0.0697834
-0.0727467
-0.0757177
-0.0786963
-0.0816822
-0.0846748
-0.0876737
-0.0906782
-0.0936877
-0.0967014
-0.0997186
-0.102739
-0.105761
-0.108784
0.219597
0.217612
0.21563
0.213659
0.211711
0.209802
0.20795
0.206206
0.204597
0.203141
0.201823
0.200609
0.199466
0.19834
0.197217
0.196079
0.194909
0.193694
0.192418
0.191086
0.189703
0.188279
0.186821
0.185339
0.183841
0.182337
0.180821
0.179309
0.177814
0.176345
0.174894
0.173456
0.172025
0.170595
0.169159
0.16771
0.166251
0.164802
0.16339
0.162039
0.160775
0.159603
0.158517
0.157511
0.156585
0.15569
0.154575
0.153083
0.151318
0.149544
0.147856
0.146183
0.14443
0.142486
0.140379
0.138162
0.135831
0.133377
0.130774
0.128011
0.125055
0.121813
0.118246
0.114346
0.110141
0.105647
0.100807
0.0955203
0.089656
0.0831726
0.0761818
0.0688863
0.0616362
0.0545934
0.0479437
0.0417252
0.0359432
0.0304407
0.025208
0.0200776
0.0149025
0.00960835
0.00422581
-0.000435582
-0.00453446
-0.00821944
-0.0116258
-0.0148419
-0.0179261
-0.0209214
-0.0238605
-0.026767
-0.0296555
-0.0325345
-0.035408
-0.0382781
-0.0411459
-0.0440127
-0.04688
-0.0497495
-0.0526231
-0.0555027
-0.0583897
-0.0612854
-0.0641906
-0.067106
-0.0700317
-0.0729676
-0.0759135
-0.078869
-0.0818335
-0.0848063
-0.0877867
-0.0907739
-0.093767
-0.0967652
-0.0997676
-0.102773
-0.105781
-0.108791
0.219422
0.21709
0.214769
0.212471
0.210221
0.208038
0.205948
0.204012
0.202273
0.20075
0.199422
0.198236
0.19714
0.196055
0.194969
0.193866
0.192726
0.191541
0.190294
0.18899
0.187639
0.186255
0.184851
0.183441
0.182033
0.180644
0.179263
0.177891
0.176545
0.175235
0.173956
0.172702
0.171471
0.170251
0.169031
0.167802
0.166568
0.16536
0.164225
0.163208
0.162334
0.161575
0.16087
0.160196
0.159575
0.158949
0.15803
0.156544
0.154737
0.152952
0.151315
0.149687
0.147895
0.145847
0.143604
0.141244
0.138738
0.136066
0.133218
0.13021
0.127019
0.123537
0.119717
0.115581
0.111172
0.106457
0.101166
0.095214
0.0884284
0.0808359
0.0726768
0.0642191
0.0562121
0.0488507
0.04252
0.0369422
0.0319943
0.0269262
0.0220749
0.0172024
0.0122232
0.00728742
0.00290734
-0.00274024
-0.00706413
-0.0105828
-0.0137567
-0.016752
-0.0196356
-0.0224489
-0.0252238
-0.0279833
-0.0307419
-0.0335064
-0.0362794
-0.0390607
-0.0418499
-0.0446465
-0.0474509
-0.0502637
-0.0530861
-0.0559191
-0.0587639
-0.0616212
-0.0644915
-0.067375
-0.0702715
-0.0731808
-0.0761023
-0.0790354
-0.0819791
-0.0849328
-0.0878953
-0.0908658
-0.0938432
-0.0968265
-0.0998146
-0.102806
-0.105801
-0.108797
0.219188
0.216389
0.213611
0.21088
0.208235
0.205708
0.203325
0.20116
0.199269
0.197688
0.196373
0.195246
0.194228
0.193224
0.192212
0.191178
0.190104
0.188982
0.1878
0.186562
0.185282
0.183981
0.18268
0.181399
0.180148
0.178941
0.177772
0.176627
0.175517
0.174449
0.173422
0.172436
0.171494
0.170582
0.169673
0.16875
0.167825
0.166942
0.166187
0.16562
0.165272
0.165046
0.164762
0.164388
0.164013
0.163608
0.162849
0.161296
0.159383
0.157519
0.155846
0.154131
0.152102
0.149792
0.147301
0.144689
0.141896
0.13891
0.135759
0.132436
0.128934
0.125157
0.121084
0.116732
0.111993
0.106965
0.100816
0.0938207
0.08563
0.0764834
0.0668296
0.0567663
0.0481031
0.0406663
0.0357832
0.0319145
0.0292228
0.0246141
0.0201353
0.0148528
0.00901202
0.00331944
-0.00149904
-0.00336912
-0.0105256
-0.0133174
-0.0160237
-0.0187123
-0.0213634
-0.0239811
-0.0265844
-0.0291925
-0.0318177
-0.0344653
-0.0371357
-0.039827
-0.0425366
-0.0452627
-0.0480041
-0.0507605
-0.0535322
-0.0563195
-0.059123
-0.0619429
-0.0647792
-0.0676318
-0.0705003
-0.073384
-0.0762821
-0.0791936
-0.0821176
-0.085053
-0.0879985
-0.0909531
-0.0939156
-0.0968847
-0.0998592
-0.102838
-0.10582
-0.108803
0.218867
0.215433
0.212045
0.208744
0.205589
0.202625
0.199882
0.197441
0.195378
0.193749
0.192475
0.191452
0.190553
0.189685
0.188803
0.187889
0.186931
0.185923
0.184861
0.183752
0.182613
0.181473
0.180358
0.179299
0.178303
0.177379
0.176519
0.175706
0.174937
0.174208
0.173527
0.172921
0.172391
0.171922
0.171459
0.170968
0.170462
0.16998
0.169704
0.169707
0.170011
0.170444
0.170556
0.170373
0.170135
0.169909
0.16922
0.167477
0.165327
0.163259
0.161467
0.159515
0.15711
0.154416
0.151575
0.148644
0.145515
0.142228
0.138851
0.135235
0.131433
0.127399
0.123111
0.118266
0.112817
0.107124
0.0994732
0.0899855
0.080244
0.0682024
0.0577799
0.0447521
0.0363226
0.0284774
0.0277529
0.0263981
0.0293656
0.0247706
0.0216872
0.0140553
0.00432274
-0.00361249
-0.00778605
-0.014291
-0.0153985
-0.0162787
-0.018304
-0.0206505
-0.0230639
-0.0254853
-0.0279172
-0.0303741
-0.0328662
-0.0353971
-0.0379651
-0.0405665
-0.0431971
-0.0458533
-0.0485326
-0.0512338
-0.053956
-0.056699
-0.0594626
-0.0622465
-0.0650504
-0.0678736
-0.0707154
-0.0735748
-0.0764507
-0.079342
-0.0822474
-0.0851655
-0.0880951
-0.0910348
-0.0939832
-0.0969391
-0.0999009
-0.102867
-0.105837
-0.108809
0.218443
0.214171
0.20997
0.205914
0.202093
0.198572
0.195385
0.192617
0.190359
0.188699
0.187503
0.186623
0.185907
0.18523
0.184542
0.18381
0.183033
0.182214
0.181356
0.180471
0.179581
0.178722
0.177925
0.177226
0.176619
0.176114
0.175692
0.175337
0.175027
0.174753
0.174528
0.17443
0.17446
0.174611
0.174795
0.174922
0.174986
0.174956
0.175238
0.175917
0.176966
0.178102
0.178494
0.178339
0.178105
0.178016
0.177256
0.175167
0.172591
0.170178
0.168139
0.165872
0.163126
0.160061
0.156773
0.153479
0.150027
0.146526
0.142972
0.13904
0.134656
0.13013
0.125333
0.119843
0.112703
0.105276
0.0962969
0.0843547
0.0712349
0.0562264
0.0449116
0.0319657
0.0226022
0.0143597
0.0203138
0.0238523
0.0340491
0.0204705
0.031393
0.0151522
0.00473782
-0.00155557
-0.00910898
-0
-0.0170108
-0.0183634
-0.0203078
-0.0224711
-0.0246914
-0.0269309
-0.029198
-0.0315081
-0.0338705
-0.0362873
-0.0387552
-0.0412687
-0.043822
-0.0464101
-0.0490293
-0.0516771
-0.054352
-0.0570527
-0.0597784
-0.0625284
-0.0653017
-0.0680974
-0.0709142
-0.073751
-0.0766064
-0.0794789
-0.082367
-0.0852692
-0.0881841
-0.09111
-0.0940455
-0.0969891
-0.0999392
-0.102895
-0.105853
-0.108815
0.217878
0.212496
0.20724
0.202215
0.197543
0.193311
0.189562
0.186385
0.183908
0.182243
0.181186
0.180483
0.180012
0.179582
0.179136
0.178649
0.178122
0.17758
0.177047
0.17653
0.176054
0.175662
0.175378
0.175231
0.175199
0.175282
0.175459
0.175721
0.176017
0.176326
0.176651
0.177183
0.177937
0.178906
0.179998
0.18104
0.181882
0.182326
0.183219
0.184611
0.186433
0.188118
0.188623