/*--------------------------------*- C++ -*----------------------------------*\
  =========                 |
  \\      /  F ield         | OpenFOAM: The Open Source CFD Toolbox
   \\    /   O peration     | Website:  https://openfoam.org
    \\  /    A nd           | Version:  6
     \\/     M anipulation  |
\*---------------------------------------------------------------------------*/
FoamFile
{
    version     2.0;
    format      ascii;
    class       volScalarField;
    location    "3150";
    object      dmdt;
}
// * * * * * * * * * * * * * * * * * * * * * * * * * * * * * * * * * * * * * //

dimensions      [0 0 0 0 0 0 0];

internalField   nonuniform List<scalar> 
4800
(
-0.21902
-0.215903
-0.212869
-0.209976
-0.207255
-0.204712
-0.202349
-0.200161
-0.198133
-0.196247
-0.194483
-0.192819
-0.191236
-0.189719
-0.188258
-0.186846
-0.185474
-0.184134
-0.182819
-0.181527
-0.180252
-0.178986
-0.177724
-0.17647
-0.17521
-0.173933
-0.172632
-0.171303
-0.169939
-0.168542
-0.167112
-0.165647
-0.164142
-0.162598
-0.161017
-0.159399
-0.157747
-0.15606
-0.154337
-0.152581
-0.150796
-0.148987
-0.147162
-0.145328
-0.143495
-0.141669
-0.139853
-0.138052
-0.136266
-0.134496
-0.13274
-0.130999
-0.129268
-0.127544
-0.125825
-0.124106
-0.122382
-0.12065
-0.118902
-0.11713
-0.115325
-0.113479
-0.11158
-0.10962
-0.107584
-0.105459
-0.10323
-0.100875
-0.0983677
-0.0956742
-0.0927567
-0.0895785
-0.0861042
-0.0823008
-0.0781498
-0.0736427
-0.0688071
-0.0637045
-0.058417
-0.0530807
-0.0478047
-0.0425727
-0.0374556
-0.0324382
-0.0275268
-0.0227211
-0.0180182
-0.0134133
-0.00890143
-0.00447687
-0.000133995
0.00413272
0.00832864
0.0124591
0.0165294
0.0205441
0.0245081
0.0284255
0.0323004
0.0361365
0.0399372
0.0437057
0.047445
0.0511578
0.0548465
0.0585135
0.0621609
0.0657907
0.0694046
0.0730043
0.0765915
0.0801676
0.083734
0.087292
0.0908428
0.0943876
0.0979276
0.101464
0.104998
0.10853
-0.219011
-0.215883
-0.212843
-0.209941
-0.207205
-0.204649
-0.202275
-0.200079
-0.198042
-0.196139
-0.194357
-0.192676
-0.19108
-0.189553
-0.188083
-0.186663
-0.185285
-0.183941
-0.182623
-0.181327
-0.180048
-0.178784
-0.177521
-0.176258
-0.17499
-0.173706
-0.172396
-0.171058
-0.169689
-0.168283
-0.166838
-0.165357
-0.163838
-0.162281
-0.160688
-0.159059
-0.157395
-0.155699
-0.153968
-0.152209
-0.150422
-0.148614
-0.14679
-0.144957
-0.143125
-0.141298
-0.139483
-0.137681
-0.135895
-0.134125
-0.13237
-0.130629
-0.128899
-0.127176
-0.125457
-0.123737
-0.122013
-0.12028
-0.11853
-0.116757
-0.114949
-0.1131
-0.111198
-0.109233
-0.107193
-0.105064
-0.10283
-0.10047
-0.0979618
-0.0952718
-0.0923638
-0.0892017
-0.0857513
-0.0819806
-0.0778768
-0.0734431
-0.0686953
-0.0636796
-0.058462
-0.0531322
-0.0477919
-0.0425006
-0.0373627
-0.0323395
-0.0274285
-0.0226261
-0.0179277
-0.013328
-0.00882139
-0.00440221
-6.46298e-05
0.00419693
0.0083879
0.0125137
0.0165794
0.02059
0.0245501
0.0284638
0.0323353
0.0361682
0.039966
0.0437318
0.0474686
0.0511791
0.0548657
0.0585308
0.0621764
0.0658045
0.0694168
0.0730152
0.0766011
0.0801759
0.0837411
0.087298
0.0908478
0.0943917
0.0979308
0.101466
0.104999
0.10853
-0.219003
-0.21586
-0.212808
-0.209888
-0.20713
-0.204553
-0.202159
-0.199937
-0.197869
-0.195933
-0.194116
-0.192401
-0.190776
-0.189226
-0.187742
-0.18631
-0.184921
-0.183568
-0.182244
-0.180942
-0.179656
-0.178388
-0.17712
-0.175847
-0.174568
-0.173272
-0.17195
-0.170596
-0.169208
-0.167782
-0.166315
-0.164809
-0.163265
-0.161682
-0.160062
-0.158408
-0.156723
-0.155009
-0.153265
-0.151495
-0.149702
-0.147891
-0.146066
-0.144233
-0.142401
-0.140573
-0.138758
-0.136956
-0.135172
-0.133404
-0.131652
-0.129915
-0.12819
-0.126469
-0.124752
-0.123033
-0.121309
-0.119574
-0.117823
-0.116047
-0.114236
-0.112383
-0.110475
-0.108504
-0.106456
-0.104319
-0.102077
-0.0997096
-0.0971958
-0.0945101
-0.0916161
-0.0884798
-0.0850718
-0.0813597
-0.0773303
-0.0729898
-0.068348
-0.0634441
-0.0583112
-0.0530166
-0.0476526
-0.0423176
-0.0371619
-0.0321358
-0.0272293
-0.0224349
-0.0177462
-0.013157
-0.0086613
-0.00425298
7.39293e-05
0.00432513
0.00850617
0.0126225
0.0166793
0.0206815
0.0246337
0.0285401
0.0324048
0.0362314
0.0400234
0.0437839
0.0475157
0.0512216
0.054904
0.0585652
0.0622072
0.065832
0.0694413
0.0730368
0.07662
0.0801924
0.0837554
0.0873101
0.0908578
0.0943997
0.0979369
0.101471
0.105002
0.108531
-0.218996
-0.215837
-0.212767
-0.209826
-0.207045
-0.204444
-0.20202
-0.199758
-0.197645
-0.195663
-0.193798
-0.192038
-0.190372
-0.188787
-0.187272
-0.185818
-0.184416
-0.18305
-0.181712
-0.1804
-0.179104
-0.177821
-0.176542
-0.175254
-0.17396
-0.17265
-0.171312
-0.169938
-0.168525
-0.167072
-0.165576
-0.164039
-0.16246
-0.160841
-0.159184
-0.157494
-0.155777
-0.154036
-0.152269
-0.150482
-0.148677
-0.146859
-0.145029
-0.143194
-0.14136
-0.139531
-0.137715
-0.135915
-0.134133
-0.132369
-0.130621
-0.128891
-0.127172
-0.125457
-0.123744
-0.122029
-0.120308
-0.118575
-0.116824
-0.115047
-0.113234
-0.111376
-0.109464
-0.107486
-0.105431
-0.103284
-0.101032
-0.0986583
-0.0961399
-0.0934588
-0.0905813
-0.0874743
-0.0841136
-0.0804724
-0.0765294
-0.0722856
-0.067746
-0.0629526
-0.0579438
-0.0527381
-0.0473707
-0.0419974
-0.0368381
-0.0318196
-0.0269253
-0.0221456
-0.0174727
-0.0129001
-0.00842102
-0.00402924
0.0002815
0.00451705
0.0086831
0.0127852
0.0168286
0.0208182
0.0247586
0.028654
0.0325085
0.0363257
0.040109
0.0438614
0.0475859
0.051285
0.0549611
0.0586164
0.0622531
0.065873
0.0694777
0.073069
0.0766483
0.0802171
0.0837766
0.0873281
0.0908727
0.0944118
0.0979462
0.101477
0.105005
0.108532
-0.218992
-0.215821
-0.212733
-0.20977
-0.206964
-0.204328
-0.201862
-0.199553
-0.197386
-0.195346
-0.193425
-0.191611
-0.189897
-0.188269
-0.186716
-0.185229
-0.183797
-0.182408
-0.18105
-0.179718
-0.178403
-0.177098
-0.175801
-0.174495
-0.173183
-0.171852
-0.170495
-0.169098
-0.167659
-0.166175
-0.164647
-0.163073
-0.161455
-0.159796
-0.158098
-0.156366
-0.154609
-0.152831
-0.151033
-0.149221
-0.147396
-0.145565
-0.143724
-0.141882
-0.140043
-0.138212
-0.136395
-0.134598
-0.132819
-0.131058
-0.129316
-0.127594
-0.125885
-0.12418
-0.122476
-0.120768
-0.119052
-0.117324
-0.115575
-0.113798
-0.111984
-0.110124
-0.108207
-0.106226
-0.104167
-0.102016
-0.099758
-0.097381
-0.0948634
-0.0921879
-0.0893291
-0.0862568
-0.0829472
-0.0793755
-0.0755186
-0.0713676
-0.0669171
-0.0621946
-0.0572248
-0.0520667
-0.0468024
-0.0415052
-0.0363803
-0.0313861
-0.0265141
-0.0217566
-0.0171065
-0.0125567
-0.00810045
-0.00373113
0.000557749
0.00477222
0.00891814
0.0130012
0.0170266
0.0209993
0.024924
0.0288049
0.0326459
0.0364506
0.0402223
0.043964
0.0476787
0.0513687
0.0550365
0.0586842
0.0623138
0.0659271
0.0695258
0.0731115
0.0766857
0.0802496
0.0838045
0.0873518
0.0908924
0.0944276
0.0979583
0.101486
0.105011
0.108534
-0.218988
-0.21581
-0.21271
-0.209728
-0.206891
-0.204215
-0.201699
-0.199336
-0.197111
-0.195012
-0.193031
-0.191162
-0.189396
-0.18772
-0.18612
-0.184585
-0.183107
-0.181676
-0.18028
-0.178914
-0.177569
-0.176236
-0.174912
-0.173582
-0.172247
-0.170894
-0.169513
-0.168092
-0.166625
-0.165112
-0.163551
-0.16194
-0.16028
-0.158576
-0.156832
-0.155055
-0.153255
-0.151437
-0.149603
-0.147758
-0.145905
-0.14405
-0.142192
-0.140338
-0.13849
-0.136653
-0.134835
-0.13304
-0.131267
-0.129511
-0.127777
-0.126065
-0.124369
-0.122674
-0.120981
-0.11928
-0.117568
-0.115846
-0.1141
-0.112324
-0.110511
-0.108652
-0.106736
-0.104753
-0.102694
-0.100547
-0.0982927
-0.0959193
-0.0934125
-0.0907482
-0.0879076
-0.0848659
-0.0815997
-0.07809
-0.0743181
-0.0702608
-0.0659051
-0.0612669
-0.0563713
-0.0512922
-0.0461181
-0.0408817
-0.0357979
-0.0308369
-0.0259953
-0.0212675
-0.0166469
-0.0121267
-0.00769967
-0.00335899
0.000902144
0.00508995
0.0092105
0.0132695
0.0172724
0.0212241
0.0251292
0.0289919
0.032816
0.0366051
0.0403625
0.044091
0.0477935
0.0514723
0.0551297
0.0587679
0.0623888
0.065994
0.0695853
0.0731641
0.0767318
0.0802897
0.0838391
0.0873811
0.0909168
0.0944472
0.0979734
0.101496
0.105017
0.108536
-0.218995
-0.215823
-0.212716
-0.209714
-0.206845
-0.204124
-0.201555
-0.199132
-0.196843
-0.194679
-0.192637
-0.190707
-0.188879
-0.187141
-0.185482
-0.183889
-0.182355
-0.18087
-0.179422
-0.178006
-0.176617
-0.175247
-0.173889
-0.17253
-0.17117
-0.16979
-0.168384
-0.166938
-0.165442
-0.163898
-0.162303
-0.160654
-0.158952
-0.157203
-0.155412
-0.153589
-0.151743
-0.149879
-0.148003
-0.146119
-0.144232
-0.142347
-0.140465
-0.138595
-0.136739
-0.134894
-0.133074
-0.131283
-0.129516
-0.127764
-0.126037
-0.124333
-0.122648
-0.12096
-0.119277
-0.117581
-0.115873
-0.114156
-0.112414
-0.110639
-0.108828
-0.106972
-0.105059
-0.103081
-0.101027
-0.0988893
-0.0966476
-0.0942876
-0.0918014
-0.0891603
-0.0863494
-0.0833476
-0.0801313
-0.0766813
-0.0729837
-0.0690134
-0.0647595
-0.0602321
-0.05545
-0.0504589
-0.0453441
-0.0401443
-0.0350985
-0.0301744
-0.0253692
-0.0206778
-0.0160938
-0.01161
-0.00721895
-0.00291336
0.0013139
0.00546929
0.00955909
0.0135892
0.0175649
0.0214914
0.0253729
0.0292139
0.0330179
0.0367884
0.0405287
0.0442415
0.0479294
0.0515949
0.0552401
0.0588671
0.0624775
0.0660732
0.0696556
0.0732262
0.0767863
0.0803372
0.0838799
0.0874157
0.0909455
0.0944703
0.0979911
0.101509
0.105024
0.108539
-0.219002
-0.215843
-0.212739
-0.209727
-0.206833
-0.204069
-0.201446
-0.198961
-0.196604
-0.194372
-0.19226
-0.19026
-0.188362
-0.186553
-0.184821
-0.183157
-0.18155
-0.179996
-0.178484
-0.177005
-0.175559
-0.174146
-0.172751
-0.171356
-0.169967
-0.168556
-0.167124
-0.165649
-0.164121
-0.162546
-0.160917
-0.15923
-0.157487
-0.155691
-0.153853
-0.151982
-0.150088
-0.148178
-0.146258
-0.144331
-0.142406
-0.140488
-0.13858
-0.13669
-0.134826
-0.132971
-0.131146
-0.129356
-0.127591
-0.12584
-0.124114
-0.122411
-0.120731
-0.119051
-0.117374
-0.115684
-0.113978
-0.112263
-0.110526
-0.108754
-0.106944
-0.105093
-0.103187
-0.101216
-0.0991736
-0.0970518
-0.0948313
-0.0924954
-0.0900387
-0.0874307
-0.0846566
-0.0816958
-0.078528
-0.0751368
-0.0715097
-0.0676245
-0.0634712
-0.0590559
-0.0543893
-0.0494965
-0.0444511
-0.0392892
-0.0342821
-0.0293986
-0.0246354
-0.0199872
-0.0154469
-0.0110068
-0.00665878
-0.00239507
0.00179191
0.00590893
0.00996251
0.0139586
0.0179026
0.0217996
0.0256538
0.0294694
0.0332501
0.0369992
0.0407197
0.0444143
0.0480856
0.0517357
0.0553668
0.0589808
0.0625793
0.066164
0.0697362
0.0732974
0.0768488
0.0803916
0.0839267
0.0874554
0.0909784
0.0944968
0.0980115
0.101523
0.105033
0.108541
-0.219009
-0.215864
-0.212774
-0.209769
-0.206864
-0.204069
-0.201393
-0.198844
-0.196422
-0.194123
-0.191942
-0.18987
-0.187893
-0.185999
-0.184181
-0.182432
-0.180741
-0.179105
-0.177511
-0.175957
-0.174441
-0.172964
-0.17152
-0.170083
-0.168656
-0.167206
-0.165746
-0.164238
-0.162674
-0.161069
-0.159404
-0.157679
-0.155895
-0.154056
-0.15217
-0.150252
-0.148312
-0.146355
-0.14439
-0.142422
-0.140459
-0.138506
-0.13657
-0.134652
-0.132775
-0.130906
-0.12907
-0.127276
-0.125507
-0.123755
-0.122026
-0.120318
-0.118633
-0.116958
-0.115285
-0.1136
-0.111897
-0.110182
-0.108449
-0.106679
-0.104871
-0.103026
-0.101128
-0.09917
-0.0971447
-0.0950451
-0.092853
-0.0905516
-0.0881334
-0.0855699
-0.0828434
-0.0799336
-0.0768206
-0.073489
-0.0699256
-0.0661193
-0.0620603
-0.057751
-0.0531974
-0.0484111
-0.04344
-0.0383137
-0.0333467
-0.0285078
-0.0237926
-0.0191947
-0.0147058
-0.0103172
-0.00601994
-0.00180533
0.00233467
0.00640718
0.0104189
0.014376
0.0182837
0.0221469
0.0259701
0.029757
0.0335113
0.0372361
0.0409343
0.0446084
0.0482608
0.0518937
0.0555089
0.0591083
0.0626934
0.0662657
0.0698265
0.0733772
0.0769188
0.0804524
0.0839791
0.0874997
0.0910152
0.0945265
0.0980342
0.101539
0.105043
0.108545
-0.219031
-0.215924
-0.212859
-0.209862
-0.20695
-0.20413
-0.201407
-0.1988
-0.196315
-0.193948
-0.191693
-0.18954
-0.187476
-0.185492
-0.183582
-0.181736
-0.179947
-0.178213
-0.176528
-0.17489
-0.173294
-0.171742
-0.170229
-0.168734
-0.167258
-0.165756
-0.164257
-0.162716
-0.161118
-0.15948
-0.157781
-0.156017
-0.154193
-0.15231
-0.150381
-0.14842
-0.146436
-0.144433
-0.142425
-0.140416
-0.138412
-0.136423
-0.134454
-0.132503
-0.1306
-0.128716
-0.126863
-0.125058
-0.123278
-0.121524
-0.119788
-0.118075
-0.116382
-0.114704
-0.113029
-0.111347
-0.109647
-0.107932
-0.1062
-0.104433
-0.102627
-0.100787
-0.0988995
-0.0969569
-0.0949535
-0.0928814
-0.0907232
-0.0884647
-0.0860936
-0.0835843
-0.0809156
-0.0780684
-0.07502
-0.0717548
-0.0682546
-0.0645185
-0.0605409
-0.0563269
-0.0518743
-0.0471921
-0.0423029
-0.0372123
-0.032288
-0.0274986
-0.0228384
-0.0182989
-0.0138702
-0.0095419
-0.00530363
-0.00114583
0.00294014
0.00696181
0.0109261
0.0148389
0.0187058
0.0225313
0.0263197
0.0300747
0.0337996
0.0374975
0.0411709
0.0448223
0.0484539
0.0520676
0.0556653
0.0592486
0.0628189
0.0663775
0.0699258
0.0734649
0.0769957
0.0805193
0.0840366
0.0875485
0.0910557
0.094559
0.0980592
0.101557
0.105053
0.108548
-0.219055
-0.215997
-0.212974
-0.209999
-0.20709
-0.204257
-0.201503
-0.198845
-0.196301
-0.193871
-0.191544
-0.189309
-0.187156
-0.185075
-0.183059
-0.181105
-0.179206
-0.177364
-0.17557
-0.173824
-0.17213
-0.170491
-0.168901
-0.167341
-0.165806
-0.164253
-0.162701
-0.161114
-0.159479
-0.157799
-0.156064
-0.154267
-0.152409
-0.150487
-0.148515
-0.146508
-0.144481
-0.142435
-0.140384
-0.138331
-0.136284
-0.134251
-0.132246
-0.130262
-0.12832
-0.126417
-0.124544
-0.122721
-0.120927
-0.119166
-0.117417
-0.115699
-0.113995
-0.112313
-0.110629
-0.108949
-0.107249
-0.105531
-0.103799
-0.102034
-0.100232
-0.0983978
-0.0965207
-0.0945944
-0.0926145
-0.0905732
-0.0884538
-0.0862437
-0.083926
-0.0814775
-0.078875
-0.0760993
-0.0731227
-0.0699306
-0.0665038
-0.0628434
-0.0589384
-0.054802
-0.0504304
-0.0458353
-0.0410302
-0.0359776
-0.0310994
-0.0263658
-0.0217691
-0.017298
-0.0129398
-0.00868165
-0.00451162
-0.000418959
0.00360561
0.00756995
0.011481
0.0153448
0.0191663
0.0229503
0.0267004
0.0304203
0.0341131
0.0377814
0.0414277
0.0450544
0.0486632
0.0522562
0.0558348
0.0594005
0.0629547
0.0664986
0.0700332
0.0735597
0.0770788
0.0805916
0.0840988
0.0876011
0.0910994
0.0945941
0.0980862
0.101576
0.105064
0.108552
-0.219082
-0.216077
-0.213099
-0.210158
-0.207266
-0.204435
-0.201669
-0.198982
-0.196392
-0.193904
-0.191508
-0.189192
-0.186942
-0.184756
-0.182628
-0.180557
-0.178539
-0.176576
-0.174665
-0.172804
-0.170997
-0.169251
-0.167562
-0.165921
-0.164311
-0.162705
-0.161098
-0.159457
-0.15778
-0.156057
-0.15428
-0.152443
-0.150546
-0.148592
-0.146586
-0.144541
-0.142471
-0.140383
-0.138286
-0.136186
-0.13409
-0.132007
-0.129956
-0.127939
-0.125959
-0.124026
-0.122131
-0.120287
-0.118477
-0.116704
-0.11494
-0.113216
-0.111498
-0.10981
-0.108116
-0.106433
-0.10473
-0.10301
-0.101273
-0.0995069
-0.0977085
-0.0958787
-0.0940117
-0.0921024
-0.0901471
-0.0881379
-0.0860601
-0.0839005
-0.0816402
-0.0792566
-0.0767234
-0.0740224
-0.071125
-0.0680153
-0.0646688
-0.0610836
-0.0572477
-0.0531793
-0.0488772
-0.0443497
-0.039618
-0.034601
-0.029772
-0.0251021
-0.0205799
-0.0161897
-0.0119144
-0.00773816
-0.00364668
0.000371945
0.00432747
0.00822798
0.0120803
0.0158901
0.0196622
0.0234008
0.0271094
0.0307913
0.0344493
0.0380857
0.041703
0.0453029
0.0488873
0.0524579
0.056016
0.0595629
0.0630999
0.0666279
0.0701479
0.0736609
0.0771676
0.0806687
0.0841651
0.0876573
0.0911459
0.0946316
0.0981149
0.101596
0.105077
0.108556
-0.219109
-0.216155
-0.213224
-0.210329
-0.207475
-0.204671
-0.201919
-0.199224
-0.196604
-0.194068
-0.191604
-0.1892
-0.186852
-0.184553
-0.182305
-0.180107
-0.17796
-0.175868
-0.173828
-0.171843
-0.169917
-0.168058
-0.166266
-0.164534
-0.162833
-0.161153
-0.159478
-0.157781
-0.156053
-0.154286
-0.152468
-0.150593
-0.148657
-0.146665
-0.144621
-0.142537
-0.140424
-0.138291
-0.136146
-0.133996
-0.131849
-0.129714
-0.12761
-0.125549
-0.123533
-0.121565
-0.119645
-0.117777
-0.115953
-0.114167
-0.11239
-0.110656
-0.108925
-0.107225
-0.105519
-0.103827
-0.102119
-0.100394
-0.0986504
-0.0968818
-0.0950848
-0.0932576
-0.0913979
-0.0895031
-0.0875699
-0.085591
-0.0835542
-0.0814437
-0.0792396
-0.0769215
-0.0744602
-0.0718348
-0.0690137
-0.0659766
-0.0627041
-0.0591933
-0.0554289
-0.0514202
-0.0471794
-0.042717
-0.0380541
-0.033068
-0.0282918
-0.0236968
-0.0192646
-0.0149719
-0.0107953
-0.00671445
-0.00271297
0.00122221
0.005101
0.00893133
0.0127196
0.0164709
0.0201897
0.0238796
0.0275437
0.031185
0.0348058
0.0384083
0.0419944
0.045566
0.0491244
0.0526712
0.0562075
0.0597345
0.0632531
0.0667643
0.0702689
0.0737676
0.0772611
0.08075
0.084235
0.0877164
0.091195
0.0946711
0.0981452
0.101618
0.105089
0.10856
-0.219142
-0.216248
-0.213373
-0.210525
-0.207717
-0.204954
-0.202234
-0.199559
-0.196934
-0.194367
-0.191842
-0.189347
-0.186888
-0.184471
-0.182097
-0.179768
-0.177488
-0.175262
-0.173091
-0.170978
-0.168927
-0.166945
-0.165035
-0.163193
-0.161394
-0.159629
-0.157874
-0.156113
-0.154327
-0.15251
-0.150644
-0.148727
-0.146752
-0.144722
-0.142639
-0.140514
-0.138356
-0.136176
-0.133982
-0.13178
-0.12958
-0.127391
-0.125234
-0.123128
-0.121074
-0.119073
-0.117123
-0.115226
-0.113382
-0.111578
-0.109793
-0.108042
-0.106302
-0.104587
-0.10287
-0.101166
-0.0994484
-0.0977149
-0.0959627
-0.0941881
-0.0923884
-0.0905606
-0.0887052
-0.0868213
-0.0849066
-0.0829549
-0.0809543
-0.0788872
-0.0767349
-0.0744796
-0.0720888
-0.0695371
-0.0667893
-0.0638244
-0.0606255
-0.0571868
-0.0534977
-0.0495584
-0.0453649
-0.04094
-0.0363236
-0.0313554
-0.0266374
-0.0221351
-0.017816
-0.0136435
-0.00958523
-0.00561583
-0.00171673
0.00212542
0.00592006
0.00967434
0.0133938
0.0170827
0.0207447
0.0243829
0.028
0.0315983
0.0351798
0.0387465
0.0422999
0.0458415
0.0493726
0.0528943
0.0564077
0.0599138
0.0634132
0.0669068
0.0703952
0.0738789
0.0773586
0.0808348
0.0843078
0.0877781
0.0912461
0.0947122
0.0981767
0.10164
0.105103
0.108565
-0.219167
-0.216327
-0.213509
-0.210723
-0.207976
-0.205269
-0.202599
-0.199964
-0.197355
-0.194764
-0.192181
-0.189604
-0.187041
-0.184504
-0.182003
-0.17954
-0.177125
-0.174761
-0.172454
-0.170208
-0.168024
-0.165911
-0.163875
-0.161915
-0.160012
-0.158152
-0.15631
-0.154472
-0.15262
-0.150745
-0.148828
-0.146865
-0.144848
-0.142777
-0.140652
-0.138482
-0.136278
-0.134049
-0.131803
-0.12955
-0.127298
-0.125057
-0.12285
-0.120697
-0.118604
-0.116569
-0.114591
-0.112667
-0.1108
-0.108975
-0.107178
-0.105412
-0.103662
-0.101931
-0.100202
-0.0984827
-0.0967528
-0.0950058
-0.0932417
-0.0914581
-0.089652
-0.0878202
-0.0859639
-0.084084
-0.0821803
-0.0802484
-0.078277
-0.0762464
-0.0741405
-0.0719414
-0.0696153
-0.0671328
-0.0644594
-0.0615715
-0.0584437
-0.0550659
-0.0514252
-0.0475281
-0.0433697
-0.0389733
-0.0343871
-0.0294214
-0.0247746
-0.0203968
-0.0162269
-0.0122065
-0.00829127
-0.00445119
-0.00066715
0.00307298
0.00677695
0.0104503
0.0140969
0.0177202
0.0213227
0.0249069
0.0284747
0.032028
0.0355685
0.0390977
0.0426169
0.0461272
0.0496298
0.0531255
0.0566151
0.0600993
0.0635788
0.0670541
0.0705256
0.0739939
0.0774593
0.0809222
0.0843829
0.0878416
0.0912988
0.0947545
0.0982092
0.101663
0.105116
0.108569
-0.2192
-0.216425
-0.213668
-0.210944
-0.20826
-0.205611
-0.202991
-0.200395
-0.197805
-0.195202
-0.192577
-0.189933
-0.187282
-0.184637
-0.182012
-0.179419
-0.176865
-0.174361
-0.171913
-0.169526
-0.167202
-0.164948
-0.162775
-0.16069
-0.158677
-0.156718
-0.154782
-0.152857
-0.15093
-0.148992
-0.147021
-0.14501
-0.142951
-0.140839
-0.138673
-0.136457
-0.134205
-0.131925
-0.129629
-0.127324
-0.125019
-0.122729
-0.120473
-0.118275
-0.116142
-0.114074
-0.112066
-0.110118
-0.108229
-0.106386
-0.104575
-0.102794
-0.101034
-0.0992849
-0.0975454
-0.0958087
-0.0940642
-0.0923011
-0.0905193
-0.0887186
-0.0868981
-0.0850565
-0.0831953
-0.0813167
-0.0794202
-0.0775015
-0.0755501
-0.0735479
-0.0714803
-0.0693297
-0.0670653
-0.0646488
-0.0620421
-0.0592224
-0.0561586
-0.0528357
-0.0492375
-0.0453647
-0.0412041
-0.0367917
-0.0321931
-0.0271949
-0.0226501
-0.0184571
-0.0144946
-0.0106701
-0.00692709
-0.00323478
0.000422821
0.00405374
0.0076623
0.0112512
0.0148225
0.0183778
0.0219188
0.025447
0.0289638
0.0324707
0.0359687
0.0394591
0.0429429
0.0464209
0.049894
0.0533627
0.0568277
0.0602895
0.0637484
0.0672048
0.0706591
0.0741115
0.0775623
0.0810116
0.0844596
0.0879065
0.0913525
0.0947978
0.0982424
0.101686
0.10513
0.108574
-0.219237
-0.216535
-0.213848
-0.211187
-0.208555
-0.205954
-0.20338
-0.200821
-0.198249
-0.195644
-0.192994
-0.190302
-0.187579
-0.184841
-0.182106
-0.179392
-0.17671
-0.174069
-0.171478
-0.168945
-0.166473
-0.16407
-0.161746
-0.159518
-0.15738
-0.155314
-0.153281
-0.151264
-0.149253
-0.147244
-0.145219
-0.143161
-0.141062
-0.138913
-0.136707
-0.134446
-0.132147
-0.129819
-0.127473
-0.125118
-0.122764
-0.120426
-0.118125
-0.115885
-0.113716
-0.111617
-0.109581
-0.107609
-0.105696
-0.103833
-0.102008
-0.100215
-0.0984409
-0.0966756
-0.0949208
-0.0931669
-0.0914068
-0.0896302
-0.0878329
-0.0860159
-0.0841781
-0.0823219
-0.0804484
-0.0785627
-0.0766647
-0.0747502
-0.072809
-0.0708247
-0.0687816
-0.0666647
-0.0644514
-0.062091
-0.0595409
-0.0567748
-0.0537619
-0.0504829
-0.0469158
-0.0430481
-0.0388501
-0.034355
-0.0296542
-0.0245385
-0.0201803
-0.0162934
-0.0126304
-0.00905776
-0.00551729
-0.00198795
0.00153587
0.00505405
0.00856533
0.0120686
0.0155634
0.0190496
0.0225279
0.025999
0.0294636
0.0329227
0.0363772
0.0398278
0.0432752
0.0467201
0.0501629
0.053604
0.0570438
0.0604826
0.0639205
0.0673578
0.0707945
0.0742307
0.0776665
0.0811021
0.0845373
0.0879722
0.091407
0.0948415
0.0982759
0.10171
0.105144
0.108578
-0.219273
-0.216643
-0.214026
-0.211432
-0.208862
-0.206313
-0.203777
-0.201238
-0.198676
-0.196071
-0.193409
-0.190687
-0.187912
-0.185099
-0.182271
-0.179452
-0.176653
-0.17388
-0.171147
-0.168464
-0.165836
-0.163272
-0.160786
-0.158398
-0.156115
-0.153926
-0.151788
-0.149674
-0.147574
-0.145489
-0.143407
-0.141307
-0.139174
-0.136995
-0.134757
-0.132457
-0.130115
-0.127743
-0.125352
-0.122953
-0.120555
-0.118179
-0.115843
-0.113564
-0.111357
-0.109227
-0.107163
-0.105165
-0.103226
-0.101339
-0.0994965
-0.0976888
-0.095905
-0.0941304
-0.0923625
-0.0905912
-0.0888125
-0.0870188
-0.0852028
-0.0833672
-0.0815087
-0.0796343
-0.0777433
-0.0758442
-0.0739383
-0.0720218
-0.0700845
-0.0681124
-0.0660821
-0.0639772
-0.0617921
-0.0594764
-0.056979
-0.0542659
-0.0513037
-0.0480632
-0.0445098
-0.040611
-0.0363132
-0.031621
-0.0266196
-0.0211438
-0.0172443
-0.0139113
-0.0106818
-0.00741896
-0.00410158
-0.000740015
0.00265082
0.00605851
0.00947454
0.0128935
0.0163124
0.0197297
0.023145
0.0265582
0.0299699
0.0333805
0.0367906
0.0402006
0.043611
0.0470221
0.0504341
0.0538472
0.0572615
0.060677
0.0640937
0.0675115
0.0709304
0.0743503
0.0777712
0.0811928
0.0846151
0.088038
0.0914615
0.0948853
0.0983095
0.101734
0.105158
0.108583
-0.219308
-0.216747
-0.214198
-0.211667
-0.209153
-0.206651
-0.204151
-0.201634
-0.199082
-0.196478
-0.193811
-0.191074
-0.18827
-0.185408
-0.182507
-0.179591
-0.176682
-0.17379
-0.170918
-0.168083
-0.165293
-0.162558
-0.159897
-0.157333
-0.154882
-0.152545
-0.150284
-0.148067
-0.145873
-0.143707
-0.141568
-0.13943
-0.137275
-0.135078
-0.132819
-0.130492
-0.128114
-0.125704
-0.123276
-0.12084
-0.118408
-0.116003
-0.113639
-0.111332
-0.109095
-0.106933
-0.104845
-0.102828
-0.100865
-0.0989527
-0.0970888
-0.0952597
-0.0934572
-0.0916686
-0.0898874
-0.0881006
-0.0863025
-0.0844889
-0.082651
-0.0807923
-0.0789089
-0.0770126
-0.0750999
-0.0731816
-0.0712609
-0.0693351
-0.0673939
-0.0654266
-0.0634069
-0.061313
-0.0591401
-0.0568537
-0.0543993
-0.0517362
-0.0488206
-0.0456159
-0.0420771
-0.0381426
-0.0337071
-0.0286767
-0.0229402
-0.0161847
-0.0137446
-0.0114301
-0.00877193
-0.00584039
-0.00273547
0.000473944
0.00374501
0.00705183
0.010379
0.0137178
0.0170631
0.0204125
0.0237651
0.0271205
0.0304788
0.0338405
0.0372056
0.0405746
0.0439476
0.0473245
0.0507054
0.0540902
0.0574788
0.0608708
0.0642662
0.0676645
0.0710657
0.0744693
0.0778751
0.0812829
0.0846924
0.0881033
0.0915155
0.0949287
0.0983427
0.101757
0.105172
0.108588
-0.219342
-0.216846
-0.214361
-0.211891
-0.209431
-0.206972
-0.204503
-0.202006
-0.199466
-0.196867
-0.1942
-0.191455
-0.188633
-0.185737
-0.18278
-0.179792
-0.176793
-0.173787
-0.170784
-0.167801
-0.164849
-0.16194
-0.159098
-0.15635
-0.153714
-0.151201
-0.148787
-0.146443
-0.144141
-0.141886
-0.139683
-0.137511
-0.135347
-0.133151
-0.130888
-0.128547
-0.126144
-0.123707
-0.121251
-0.118788
-0.116331
-0.113902
-0.111518
-0.109193
-0.106936
-0.104751
-0.102638
-0.100601
-0.0986215
-0.0966928
-0.0948092
-0.0929608
-0.0911364
-0.0893264
-0.0875239
-0.0857155
-0.0838937
-0.0820554
-0.0801924
-0.0783064
-0.0763943
-0.0744707
-0.0725316
-0.07059
-0.0686482
-0.0667063
-0.0647549
-0.0627825
-0.0607671
-0.0586877
-0.0565262
-0.0542602
-0.0518345
-0.0492156
-0.046354
-0.0431988
-0.0396948
-0.0357561
-0.0312277
-0.0258498
-0.0188114
-0.00345996
-0.0101169
-0.00929515
-0.00714029
-0.0044409
-0.00147946
0.00162115
0.00479931
0.00802183
0.0112703
0.0145347
0.0178098
0.0210932
0.0243838
0.0276815
0.0309865
0.0342989
0.0376189
0.0409466
0.0442818
0.0476245
0.0509742
0.0543307
0.0576936
0.0610623
0.0644364
0.0678154
0.0711989
0.0745864
0.0779774
0.0813715
0.0847684
0.0881675
0.0915687
0.0949714
0.0983754
0.10178
0.105186
0.108592
-0.219373
-0.216941
-0.214516
-0.2121
-0.209689
-0.207272
-0.204835
-0.202362
-0.199836
-0.197246
-0.194582
-0.191835
-0.189002
-0.186083
-0.183089
-0.180044
-0.176967
-0.173863
-0.17074
-0.167616
-0.164509
-0.161427
-0.158405
-0.155481
-0.152671
-0.149983
-0.147394
-0.14488
-0.142424
-0.14004
-0.137741
-0.13552
-0.133358
-0.131192
-0.128952
-0.126621
-0.12421
-0.121759
-0.119287
-0.116807
-0.114335
-0.111893
-0.109496
-0.107159
-0.104891
-0.102695
-0.100568
-0.0985151
-0.0965181
-0.0945725
-0.0926696
-0.0907997
-0.0889508
-0.0871142
-0.0852815
-0.0834427
-0.0815894
-0.0797188
-0.0778247
-0.0759073
-0.073965
-0.0720101
-0.0700417
-0.0680742
-0.0661094
-0.0641488
-0.0621845
-0.0602015
-0.0581832
-0.0561134
-0.0539682
-0.0517262
-0.0493347
-0.0467547
-0.0439552
-0.0408702
-0.0374526
-0.0336253
-0.0292766
-0.0242994
-0.0185885
-0.0123319
-0.0105126
-0.00849532
-0.00605804
-0.00330929
-0.000368501
0.00268537
0.00580488
0.00896273
0.0121439
0.0153404
0.0185489
0.0217679
0.0249973
0.0282376
0.0314891
0.0347522
0.0380269
0.0413132
0.0446108
0.0479193
0.051238
0.0545664
0.0579038
0.0612495
0.0646026
0.0679627
0.0713288
0.0747005
0.078077
0.0814578
0.0848423
0.0882299
0.0916203
0.0950129
0.0984072
0.101803
0.1052
0.108597
-0.219404
-0.217033
-0.214666
-0.212302
-0.209935
-0.207555
-0.205149
-0.202701
-0.200193
-0.197613
-0.194953
-0.192206
-0.189368
-0.186436
-0.183417
-0.180326
-0.177176
-0.17398
-0.170748
-0.167507
-0.164267
-0.161032
-0.157848
-0.154768
-0.151812
-0.148975
-0.146226
-0.143531
-0.140887
-0.138321
-0.135862
-0.133526
-0.131318
-0.129187
-0.127009
-0.124722
-0.122329
-0.11988
-0.117407
-0.114925
-0.112448
-0.11
-0.1076
-0.105259
-0.102985
-0.100785
-0.098649
-0.0965828
-0.0945711
-0.0926059
-0.0906791
-0.0887796
-0.0868955
-0.0850215
-0.0831461
-0.0812641
-0.0793689
-0.0774569
-0.0755248
-0.073571
-0.0715964
-0.06961
-0.0676147
-0.0656242
-0.0636416
-0.0616675
-0.0596939
-0.0577054
-0.0556886
-0.0536277
-0.0515021
-0.0492841
-0.0469421
-0.0444115
-0.0416854
-0.0386995
-0.0354202
-0.031786
-0.02775
-0.0233436
-0.0186868
-0.0141856
-0.0109516
-0.00812084
-0.00529266
-0.00237561
0.000623368
0.00367834
0.00676749
0.00987709
0.0130001
0.0161338
0.019278
0.0224337
0.0256023
0.0287851
0.031983
0.0351967
0.0384261
0.0416712
0.0449314
0.048206
0.0514942
0.054795
0.0581074
0.0614305
0.0647633
0.0681048
0.0714541
0.0748104
0.0781729
0.0815408
0.0849134
0.0882899
0.0916699
0.0950527
0.0984377
0.101824
0.105212
0.108601
-0.219434
-0.217121
-0.21481
-0.212495
-0.21017
-0.207826
-0.205447
-0.203018
-0.200524
-0.197954
-0.1953
-0.192551
-0.189704
-0.186758
-0.183718
-0.180595
-0.177401
-0.174143
-0.170833
-0.167501
-0.164158
-0.160801
-0.15748
-0.154272
-0.151206
-0.148261
-0.145387
-0.142534
-0.139708
-0.136952
-0.134299
-0.131786
-0.129436
-0.127244
-0.125104
-0.122884
-0.120527
-0.118091
-0.115624
-0.113144
-0.110668
-0.10822
-0.105817
-0.103475
-0.101198
-0.0990008
-0.0968622
-0.0947882
-0.092763
-0.0907769
-0.0888174
-0.0868756
-0.0849383
-0.0830066
-0.0810701
-0.0791285
-0.0771786
-0.0752169
-0.0732405
-0.0712471
-0.0692404
-0.0672287
-0.0652185
-0.0632208
-0.0612377
-0.0592659
-0.0572968
-0.0553159
-0.0533096
-0.0512648
-0.0491642
-0.0469725
-0.0446807
-0.0422222
-0.0395871
-0.0367212
-0.0336086
-0.0302178
-0.0265431
-0.0226187
-0.0185719
-0.0145625
-0.0109966
-0.00774816
-0.00462077
-0.00152912
0.00155349
0.00463157
0.00770497
0.0107747
0.0138437
0.0169161
0.0199963
0.0230884
0.0261956
0.0293204
0.0324645
0.0356286
0.038813
0.0420172
0.0452405
0.0484818
0.0517401
0.0550139
0.0583021
0.0616034
0.0649165
0.0682402
0.0715734
0.074915
0.0782641
0.0816197
0.0849809
0.0883469
0.091717
0.0950905
0.0984666
0.101845
0.105225
0.108605
-0.219461
-0.217202
-0.214939
-0.212666
-0.210373
-0.208054
-0.205696
-0.203282
-0.200799
-0.198235
-0.19558
-0.192828
-0.189976
-0.187026
-0.183985
-0.180865
-0.177659
-0.174368
-0.17101
-0.167622
-0.164209
-0.160759
-0.15733
-0.154024
-0.150879
-0.147873
-0.144929
-0.141967
-0.138992
-0.136064
-0.133222
-0.130507
-0.127956
-0.125599
-0.123388
-0.121193
-0.11887
-0.116445
-0.113979
-0.111501
-0.109033
-0.10659
-0.104188
-0.101846
-0.0995642
-0.0973637
-0.095216
-0.0931275
-0.0910774
-0.0890571
-0.0870459
-0.0850376
-0.0830202
-0.0810004
-0.078975
-0.0769521
-0.0749337
-0.0729139
-0.0708906
-0.0688586
-0.0668275
-0.0648068
-0.0628056
-0.0608308
-0.0588797
-0.0569392
-0.0550016
-0.0530554
-0.0510823
-0.0490688
-0.0470046
-0.0448619
-0.0426212
-0.0402329
-0.0376893
-0.0349478
-0.0320044
-0.0288313
-0.0254352
-0.0218563
-0.0181834
-0.0143943
-0.0107262
-0.00725356
-0.00391505
-0.000677404
0.00248316
0.00558427
0.00864153
0.0116696
0.0146821
0.0176904
0.0207039
0.02373
0.026774
0.0298398
0.0329294
0.036044
0.0391835
0.0423474
0.0455346
0.0487436
0.0519729
0.0552209
0.0584859
0.0617663
0.0650607
0.0683675
0.0716854
0.0750132
0.0783496
0.0816936
0.0850441
0.0884002
0.0917611
0.0951258
0.0984937
0.101864