/*--------------------------------*- C++ -*----------------------------------*\
  =========                 |
  \\      /  F ield         | OpenFOAM: The Open Source CFD Toolbox
   \\    /   O peration     | Website:  https://openfoam.org
    \\  /    A nd           | Version:  6
     \\/     M anipulation  |
\*---------------------------------------------------------------------------*/
FoamFile
{
    version     2.0;
    format      ascii;
    class       volScalarField;
    location    "3150";
    object      T;
}
// * * * * * * * * * * * * * * * * * * * * * * * * * * * * * * * * * * * * * //

dimensions      [0 0 0 1 0 0 0];

internalField   nonuniform List<scalar> 
4800
(
552.493
552.38
552.27
552.165
552.066
551.974
551.888
551.809
551.735
551.667
551.603
551.543
551.485
551.43
551.377
551.326
551.276
551.228
551.18
551.133
551.087
551.041
550.995
550.95
550.904
550.858
550.811
550.762
550.713
550.662
550.61
550.557
550.503
550.447
550.389
550.331
550.271
550.21
550.147
550.083
550.019
549.953
549.887
549.82
549.754
549.688
549.622
549.557
549.492
549.428
549.364
549.301
549.238
549.175
549.113
549.051
548.988
548.925
548.862
548.798
548.732
548.665
548.597
548.525
548.452
548.375
548.294
548.208
548.117
548.02
547.914
547.799
547.673
547.535
547.384
547.221
547.045
546.86
546.669
546.475
546.284
546.095
545.909
545.727
545.549
545.374
545.204
545.037
544.873
544.712
544.555
544.4
544.248
544.098
543.951
543.805
543.661
543.519
543.379
543.239
543.102
542.965
542.829
542.695
542.561
542.428
542.296
542.164
542.033
541.902
541.772
541.643
541.513
541.384
541.255
541.127
540.999
540.87
540.742
540.614
552.493
552.379
552.269
552.164
552.065
551.972
551.886
551.806
551.732
551.663
551.598
551.538
551.48
551.424
551.371
551.319
551.269
551.221
551.173
551.126
551.079
551.034
550.988
550.942
550.896
550.849
550.802
550.753
550.704
550.653
550.6
550.547
550.492
550.435
550.377
550.318
550.258
550.196
550.134
550.07
550.005
549.94
549.873
549.807
549.741
549.674
549.608
549.543
549.478
549.414
549.35
549.287
549.225
549.162
549.1
549.037
548.975
548.912
548.849
548.784
548.719
548.652
548.583
548.511
548.437
548.36
548.279
548.194
548.103
548.005
547.9
547.785
547.66
547.523
547.374
547.214
547.041
546.859
546.67
546.477
546.283
546.092
545.906
545.724
545.545
545.371
545.2
545.033
544.87
544.71
544.552
544.398
544.246
544.096
543.949
543.803
543.66
543.518
543.377
543.238
543.101
542.964
542.829
542.694
542.56
542.427
542.295
542.164
542.033
541.902
541.772
541.642
541.513
541.384
541.255
541.127
540.998
540.87
540.742
540.614
552.492
552.378
552.268
552.162
552.062
551.968
551.881
551.801
551.726
551.656
551.59
551.528
551.469
551.412
551.359
551.307
551.256
551.207
551.159
551.112
551.065
551.019
550.973
550.927
550.881
550.834
550.786
550.737
550.686
550.635
550.581
550.527
550.471
550.413
550.355
550.295
550.234
550.171
550.108
550.044
549.979
549.913
549.847
549.781
549.714
549.648
549.582
549.517
549.452
549.388
549.324
549.261
549.199
549.137
549.074
549.012
548.949
548.886
548.823
548.758
548.693
548.626
548.556
548.485
548.411
548.333
548.252
548.166
548.075
547.977
547.872
547.759
547.635
547.501
547.354
547.197
547.029
546.851
546.665
546.473
546.278
546.086
545.899
545.716
545.538
545.364
545.194
545.027
544.864
544.704
544.547
544.393
544.242
544.092
543.945
543.8
543.657
543.515
543.375
543.236
543.099
542.962
542.827
542.692
542.559
542.426
542.294
542.163
542.032
541.901
541.771
541.642
541.513
541.384
541.255
541.126
540.998
540.87
540.742
540.614
552.492
552.378
552.266
552.16
552.059
551.964
551.876
551.794
551.718
551.646
551.578
551.514
551.454
551.396
551.341
551.289
551.238
551.188
551.14
551.092
551.045
550.999
550.952
550.906
550.859
550.811
550.763
550.713
550.662
550.609
550.555
550.499
550.442
550.383
550.323
550.262
550.199
550.136
550.072
550.007
549.942
549.876
549.81
549.743
549.677
549.61
549.544
549.479
549.414
549.35
549.287
549.224
549.162
549.1
549.038
548.975
548.913
548.85
548.787
548.722
548.657
548.589
548.52
548.448
548.374
548.296
548.214
548.128
548.037
547.939
547.835
547.722
547.6
547.468
547.325
547.172
547.007
546.833
546.651
546.463
546.268
546.074
545.887
545.705
545.527
545.353
545.184
545.018
544.855
544.696
544.54
544.386
544.235
544.086
543.94
543.795
543.652
543.511
543.371
543.233
543.095
542.959
542.824
542.69
542.557
542.424
542.292
542.161
542.03
541.9
541.77
541.641
541.512
541.383
541.254
541.126
540.998
540.87
540.742
540.614
552.492
552.377
552.265
552.158
552.056
551.96
551.871
551.787
551.708
551.634
551.565
551.499
551.437
551.378
551.321
551.267
551.215
551.165
551.116
551.067
551.02
550.972
550.925
550.878
550.83
550.782
550.733
550.682
550.63
550.576
550.521
550.464
550.405
550.345
550.283
550.221
550.157
550.092
550.027
549.962
549.895
549.829
549.762
549.695
549.629
549.562
549.496
549.431
549.367
549.303
549.24
549.177
549.115
549.053
548.992
548.93
548.867
548.805
548.741
548.677
548.611
548.544
548.474
548.402
548.328
548.25
548.168
548.082
547.99
547.893
547.79
547.678
547.558
547.429
547.289
547.138
546.977
546.806
546.625
546.438
546.247
546.056
545.87
545.689
545.512
545.339
545.171
545.006
544.844
544.685
544.53
544.377
544.227
544.079
543.933
543.788
543.646
543.505
543.366
543.228
543.091
542.956
542.821
542.687
542.554
542.422
542.29
542.159
542.029
541.899
541.769
541.64
541.511
541.382
541.254
541.125
540.997
540.87
540.742
540.614
552.492
552.377
552.264
552.156
552.053
551.956
551.865
551.779
551.698
551.622
551.55
551.483
551.418
551.358
551.3
551.244
551.19
551.138
551.088
551.038
550.99
550.941
550.893
550.845
550.797
550.747
550.697
550.646
550.593
550.538
550.481
550.423
550.363
550.301
550.238
550.173
550.108
550.042
549.975
549.908
549.841
549.774
549.707
549.639
549.572
549.506
549.44
549.375
549.31
549.247
549.184
549.122
549.06
548.999
548.937
548.876
548.814
548.751
548.688
548.624
548.558
548.49
548.421
548.349
548.274
548.196
548.115
548.029
547.938
547.841
547.738
547.628
547.509
547.382
547.245
547.098
546.94
546.772
546.594
546.41
546.223
546.034
545.849
545.669
545.493
545.322
545.154
544.99
544.829
544.672
544.517
544.365
544.216
544.069
543.924
543.78
543.639
543.499
543.36
543.222
543.086
542.951
542.817
542.683
542.551
542.419
542.287
542.157
542.026
541.897
541.767
541.638
541.509
541.381
541.253
541.125
540.997
540.869
540.741
540.614
552.492
552.377
552.264
552.155
552.051
551.953
551.86
551.772
551.689
551.61
551.536
551.466
551.4
551.337
551.276
551.219
551.163
551.109
551.057
551.005
550.955
550.905
550.856
550.807
550.757
550.707
550.656
550.604
550.55
550.494
550.436
550.376
550.314
550.251
550.186
550.12
550.053
549.985
549.917
549.849
549.781
549.712
549.644
549.576
549.509
549.442
549.376
549.311
549.247
549.183
549.121
549.059
548.998
548.937
548.876
548.814
548.752
548.69
548.627
548.562
548.497
548.429
548.36
548.288
548.214
548.136
548.055
547.969
547.879
547.783
547.682
547.573
547.456
547.331
547.197
547.053
546.899
546.734
546.561
546.38
546.194
546.007
545.824
545.645
545.47
545.3
545.134
544.971
544.812
544.656
544.502
544.352
544.203
544.057
543.913
543.771
543.63
543.491
543.353
543.216
543.08
542.946
542.812
542.679
542.547
542.415
542.284
542.154
542.024
541.894
541.765
541.636
541.508
541.38
541.252
541.124
540.996
540.869
540.741
540.614
552.492
552.378
552.265
552.156
552.051
551.951
551.856
551.765
551.68
551.599
551.522
551.45
551.381
551.315
551.253
551.192
551.134
551.078
551.023
550.969
550.917
550.865
550.815
550.764
550.714
550.663
550.611
550.557
550.502
550.445
550.386
550.324
550.261
550.196
550.13
550.062
549.993
549.924
549.854
549.784
549.714
549.645
549.576
549.507
549.44
549.372
549.306
549.241
549.177
549.114
549.051
548.989
548.928
548.867
548.807
548.745
548.684
548.621
548.558
548.494
548.428
548.361
548.292
548.221
548.147
548.07
547.989
547.904
547.815
547.721
547.62
547.513
547.398
547.275
547.143
547.002
546.852
546.692
546.522
546.345
546.162
545.976
545.794
545.617
545.444
545.275
545.11
544.949
544.792
544.637
544.485
544.336
544.189
544.044
543.901
543.759
543.62
543.481
543.344
543.208
543.073
542.939
542.806
542.674
542.542
542.411
542.28
542.15
542.021
541.892
541.763
541.635
541.506
541.378
541.251
541.123
540.995
540.868
540.741
540.614
552.493
552.379
552.266
552.157
552.052
551.951
551.854
551.761
551.673
551.59
551.511
551.436
551.364
551.295
551.229
551.166
551.105
551.045
550.987
550.931
550.876
550.822
550.77
550.718
550.666
550.614
550.561
550.506
550.449
550.391
550.331
550.268
550.204
550.137
550.068
549.999
549.929
549.858
549.786
549.715
549.644
549.573
549.503
549.433
549.365
549.297
549.231
549.166
549.102
549.038
548.975
548.913
548.852
548.792
548.731
548.67
548.608
548.546
548.483
548.419
548.353
548.286
548.218
548.147
548.073
547.997
547.917
547.834
547.746
547.653
547.554
547.449
547.336
547.215
547.086
546.948
546.801
546.644
546.479
546.306
546.125
545.94
545.76
545.584
545.413
545.246
545.083
544.924
544.768
544.615
544.465
544.318
544.172
544.029
543.887
543.747
543.608
543.471
543.335
543.2
543.065
542.932
542.8
542.668
542.537
542.406
542.276
542.147
542.018
541.889
541.76
541.632
541.504
541.377
541.249
541.122
540.995
540.868
540.741
540.613
552.493
552.381
552.27
552.161
552.055
551.953
551.854
551.76
551.669
551.584
551.502
551.424
551.349
551.277
551.208
551.141
551.076
551.013
550.952
550.892
550.834
550.778
550.723
550.669
550.616
550.561
550.507
550.451
550.393
550.333
550.272
550.208
550.142
550.074
550.004
549.932
549.861
549.788
549.715
549.642
549.57
549.497
549.426
549.355
549.286
549.218
549.151
549.085
549.021
548.957
548.894
548.832
548.771
548.71
548.649
548.588
548.526
548.464
548.401
548.337
548.272
548.205
548.137
548.066
547.994
547.918
547.84
547.758
547.672
547.581
547.484
547.381
547.271
547.152
547.025
546.89
546.746
546.593
546.431
546.261
546.084
545.9
545.722
545.548
545.379
545.214
545.053
544.896
544.742
544.592
544.443
544.298
544.154
544.012
543.872
543.733
543.595
543.459
543.324
543.19
543.057
542.924
542.793
542.662
542.531
542.401
542.272
542.143
542.014
541.886
541.758
541.63
541.502
541.375
541.248
541.121
540.994
540.867
540.74
540.613
552.494
552.383
552.274
552.166
552.06
551.957
551.858
551.761
551.669
551.581
551.496
551.415
551.337
551.262
551.189
551.118
551.049
550.982
550.917
550.854
550.792
550.733
550.675
550.619
550.563
550.507
550.45
550.393
550.333
550.273
550.21
550.144
550.077
550.007
549.936
549.863
549.79
549.715
549.641
549.567
549.492
549.419
549.346
549.274
549.204
549.135
549.067
549.001
548.936
548.872
548.808
548.746
548.684
548.623
548.562
548.501
548.439
548.377
548.314
548.25
548.185
548.119
548.05
547.981
547.909
547.835
547.758
547.678
547.594
547.505
547.41
547.31
547.202
547.086
546.962
546.829
546.687
546.537
546.379
546.212
546.038
545.856
545.678
545.507
545.34
545.178
545.019
544.865
544.714
544.565
544.419
544.275
544.134
543.994
543.855
543.718
543.582
543.447
543.313
543.18
543.048
542.916
542.785
542.655
542.525
542.396
542.267
542.138
542.01
541.882
541.755
541.627
541.5
541.373
541.246
541.119
540.993
540.866
540.74
540.613
552.495
552.386
552.278
552.172
552.067
551.964
551.864
551.766
551.672
551.582
551.495
551.411
551.329
551.25
551.173
551.098
551.025
550.953
550.884
550.817
550.751
550.688
550.627
550.567
550.509
550.45
550.392
550.333
550.272
550.209
550.145
550.078
550.01
549.939
549.866
549.792
549.717
549.641
549.565
549.489
549.413
549.337
549.263
549.19
549.118
549.048
548.979
548.912
548.847
548.782
548.718
548.656
548.594
548.532
548.471
548.41
548.348
548.286
548.223
548.159
548.094
548.027
547.959
547.89
547.819
547.746
547.671
547.593
547.511
547.424
547.332
547.235
547.129
547.017
546.895
546.765
546.626
546.479
546.323
546.158
545.987
545.806
545.63
545.461
545.297
545.137
544.982
544.831
544.682
544.537
544.393
544.252
544.112
543.974
543.837
543.701
543.567
543.433
543.301
543.169
543.038
542.907
542.777
542.648
542.519
542.39
542.262
542.134
542.006
541.879
541.751
541.624
541.498
541.371
541.244
541.118
540.992
540.865
540.739
540.613
552.496
552.389
552.283
552.178
552.074
551.972
551.873
551.775
551.68
551.588
551.499
551.411
551.326
551.243
551.161
551.082
551.004
550.928
550.854
550.782
550.712
550.645
550.58
550.517
550.455
550.394
550.333
550.272
550.209
550.145
550.079
550.011
549.941
549.869
549.795
549.719
549.642
549.565
549.487
549.409
549.332
549.254
549.178
549.103
549.03
548.959
548.889
548.821
548.755
548.69
548.626
548.563
548.5
548.439
548.377
548.315
548.253
548.191
548.128
548.064
547.998
547.932
547.865
547.796
547.726
547.654
547.58
547.504
547.424
547.34
547.25
547.155
547.053
546.943
546.824
546.697
546.56
546.415
546.261
546.099
545.93
545.75
545.577
545.41
545.249
545.093
544.942
544.794
544.648
544.506
544.365
544.226
544.089
543.953
543.818
543.684
543.551
543.419
543.288
543.157
543.027
542.897
542.768
542.64
542.512
542.384
542.256
542.129
542.002
541.875
541.748
541.622
541.495
541.369
541.243
541.117
540.991
540.865
540.739
540.613
552.497
552.392
552.288
552.185
552.083
551.983
551.884
551.787
551.692
551.599
551.507
551.417
551.327
551.24
551.154
551.069
550.987
550.906
550.827
550.75
550.676
550.604
550.535
550.468
550.403
550.339
550.275
550.211
550.147
550.081
550.013
549.944
549.872
549.798
549.723
549.646
549.567
549.488
549.409
549.329
549.249
549.17
549.092
549.015
548.941
548.868
548.798
548.729
548.662
548.597
548.532
548.468
548.405
548.343
548.281
548.219
548.157
548.094
548.03
547.966
547.901
547.834
547.767
547.699
547.629
547.559
547.486
547.411
547.333
547.251
547.164
547.072
546.972
546.865
546.749
546.624
546.49
546.347
546.195
546.035
545.867
545.688
545.517
545.353
545.196
545.045
544.898
544.754
544.612
544.473
544.335
544.199
544.064
543.93
543.798
543.666
543.535
543.404
543.274
543.145
543.016
542.888
542.759
542.632
542.504
542.377
542.25
542.124
541.997
541.871
541.744
541.618
541.492
541.367
541.241
541.115
540.99
540.864
540.738
540.613
552.498
552.395
552.293
552.192
552.092
551.994
551.897
551.802
551.707
551.613
551.519
551.426
551.333
551.241
551.15
551.061
550.973
550.888
550.804
550.722
550.643
550.567
550.493
550.422
550.353
550.285
550.218
550.152
550.085
550.017
549.947
549.876
549.803
549.728
549.651
549.572
549.492
549.411
549.33
549.248
549.167
549.085
549.005
548.927
548.851
548.778
548.706
548.636
548.568
548.502
548.437
548.373
548.31
548.247
548.184
548.122
548.059
547.996
547.932
547.867
547.801
547.735
547.668
547.599
547.53
547.46
547.389
547.315
547.239
547.159
547.075
546.985
546.888
546.783
546.67
546.547
546.415
546.274
546.123
545.963
545.797
545.618
545.449
545.29
545.139
544.993
544.851
544.711
544.574
544.439
544.304
544.171
544.039
543.907
543.777
543.647
543.517
543.388
543.26
543.132
543.004
542.877
542.75
542.623
542.497
542.37
542.244
542.118
541.992
541.867
541.741
541.615
541.49
541.364
541.239
541.114
540.988
540.863
540.738
540.613
552.5
552.399
552.299
552.2
552.103
552.007
551.912
551.817
551.723
551.629
551.534
551.438
551.342
551.246
551.151
551.057
550.964
550.873
550.784
550.698
550.613
550.532
550.453
550.377
550.304
550.233
550.163
550.093
550.023
549.953
549.882
549.809
549.734
549.657
549.579
549.499
549.417
549.334
549.251
549.167
549.084
549.001
548.919
548.839
548.762
548.687
548.614
548.544
548.475
548.408
548.343
548.278
548.214
548.151
548.088
548.025
547.961
547.898
547.833
547.768
547.702
547.635
547.567
547.499
547.43
547.361
547.29
547.217
547.142
547.064
546.982
546.895
546.8
546.698
546.587
546.466
546.336
546.195
546.044
545.884
545.718
545.537
545.372
545.22
545.076
544.937
544.801
544.667
544.535
544.403
544.272
544.142
544.012
543.884
543.755
543.627
543.5
543.372
543.246
543.119
542.993
542.866
542.741
542.615
542.489
542.364
542.238
542.113
541.987
541.862
541.737
541.612
541.487
541.362
541.237
541.112
540.987
540.862
540.737
540.612
552.501
552.403
552.305
552.209
552.113
552.019
551.926
551.833
551.74
551.645
551.549
551.451
551.353
551.253
551.154
551.056
550.958
550.862
550.769
550.677
550.587
550.5
550.416
550.335
550.257
550.182
550.109
550.035
549.962
549.89
549.816
549.742
549.665
549.588
549.508
549.426
549.342
549.258
549.173
549.087
549.002
548.917
548.834
548.753
548.674
548.598
548.524
548.453
548.383
548.316
548.25
548.185
548.12
548.056
547.993
547.929
547.865
547.801
547.735
547.67
547.603
547.536
547.468
547.399
547.33
547.261
547.191
547.119
547.045
546.968
546.887
546.802
546.709
546.609
546.5
546.381
546.251
546.111
545.959
545.796
545.625
545.44
545.282
545.141
545.008
544.879
544.75
544.622
544.494
544.367
544.239
544.112
543.986
543.859
543.733
543.607
543.481
543.356
543.231
543.106
542.981
542.856
542.731
542.606
542.481
542.357
542.232
542.107
541.983
541.858
541.733
541.609
541.484
541.36
541.235
541.11
540.986
540.861
540.737
540.612
552.502
552.407
552.312
552.218
552.125
552.032
551.94
551.848
551.755
551.661
551.564
551.465
551.365
551.263
551.16
551.058
550.956
550.856
550.757
550.659
550.564
550.471
550.381
550.294
550.211
550.132
550.054
549.978
549.902
549.826
549.75
549.674
549.597
549.518
549.437
549.354
549.269
549.183
549.096
549.009
548.922
548.836
548.751
548.669
548.589
548.511
548.437
548.364
548.294
548.225
548.159
548.093
548.028
547.964
547.9
547.836
547.771
547.706
547.64
547.573
547.506
547.438
547.37
547.301
547.232
547.162
547.092
547.02
546.947
546.87
546.791
546.707
546.616
546.518
546.411
546.293
546.164
546.023
545.867
545.697
545.515
545.317
545.176
545.055
544.937
544.819
544.699
544.577
544.454
544.33
544.206
544.082
543.958
543.834
543.711
543.587
543.463
543.339
543.216
543.092
542.968
542.845
542.721
542.597
542.473
542.349
542.226
542.102
541.978
541.854
541.73
541.605
541.481
541.357
541.233
541.109
540.985
540.86
540.736
540.612
552.503
552.411
552.318
552.226
552.135
552.044
551.954
551.862
551.77
551.675
551.579
551.479
551.378
551.274
551.169
551.063
550.957
550.852
550.748
550.645
550.544
550.445
550.348
550.255
550.167
550.082
550
549.919
549.84
549.761
549.684
549.606
549.528
549.448
549.367
549.282
549.196
549.109
549.021
548.932
548.844
548.757
548.671
548.588
548.507
548.428
548.352
548.279
548.208
548.139
548.071
548.005
547.94
547.875
547.81
547.745
547.68
547.614
547.547
547.48
547.412
547.343
547.274
547.204
547.134
547.065
546.994
546.923
546.85
546.774
546.695
546.612
546.523
546.426
546.321
546.204
546.076
545.933
545.772
545.59
545.382
545.137
545.049
544.965
544.868
544.762
544.649
544.533
544.414
544.294
544.174
544.053
543.931
543.81
543.688
543.566
543.445
543.323
543.201
543.079
542.956
542.834
542.711
542.588
542.465
542.342
542.219
542.096
541.973
541.849
541.726
541.602
541.479
541.355
541.231
541.107
540.983
540.86
540.736
540.612
552.505
552.414
552.324
552.234
552.145
552.056
551.966
551.876
551.784
551.689
551.593
551.493
551.391
551.286
551.178
551.07
550.961
550.852
550.743
550.635
550.528
550.423
550.32
550.22
550.124
550.033
549.946
549.861
549.777
549.695
549.615
549.537
549.458
549.379
549.297
549.212
549.125
549.036
548.947
548.858
548.769
548.681
548.594
548.51
548.428
548.349
548.272
548.199
548.127
548.057
547.989
547.921
547.855
547.79
547.724
547.659
547.593
547.526
547.458
547.39
547.32
547.251
547.18
547.11
547.04
546.969
546.898
546.827
546.754
546.678
546.6
546.518
546.43
546.335
546.231
546.117
545.99
545.847
545.683
545.487
545.232
544.8
544.917
544.887
544.809
544.711
544.604
544.491
544.376
544.259
544.141
544.023
543.904
543.785
543.666
543.546
543.426
543.306
543.186
543.065
542.944
542.823
542.701
542.58
542.458
542.335
542.213
542.091
541.968
541.845
541.722
541.599
541.476
541.352
541.229
541.106
540.982
540.859
540.735
540.612
552.506
552.418
552.33
552.242
552.155
552.067
551.978
551.889
551.797
551.703
551.606
551.507
551.404
551.298
551.19
551.079
550.968
550.855
550.742
550.628
550.516
550.404
550.294
550.188
550.087
549.989
549.895
549.804
549.715
549.628
549.545
549.465
549.386
549.308
549.226
549.142
549.055
548.966
548.876
548.786
548.696
548.608
548.521
548.436
548.354
548.274
548.197
548.123
548.05
547.98
547.911
547.843
547.776
547.709
547.643
547.576
547.509
547.441
547.372
547.303
547.232
547.161
547.09
547.019
546.947
546.876
546.805
546.733
546.66
546.585
546.507
546.426
546.339
546.246
546.144
546.032
545.908
545.769
545.612
545.431
545.224
545.004
544.931
544.858
544.77
544.67
544.563
544.453
544.339
544.225
544.11
543.994
543.877
543.761
543.643
543.526
543.408
543.29
543.171
543.052
542.932
542.812
542.692
542.571
542.45
542.329
542.207
542.085
541.963
541.841
541.718
541.596
541.473
541.35
541.227
541.104
540.981
540.858
540.735
540.612
552.507
552.421
552.335
552.249
552.163
552.077
551.99
551.901
551.81
551.716
551.62
551.52
551.417
551.311
551.202
551.089
550.975
550.859
550.742
550.625
550.507
550.39
550.274
550.163
550.056
549.953
549.853
549.755
549.659
549.566
549.477
549.392
549.312
549.235
549.156
549.073
548.986
548.898
548.808
548.718
548.628
548.539
548.452
548.367
548.285
548.205
548.128
548.053
547.98
547.909
547.839
547.77
547.701
547.633
547.565
547.497
547.428
547.359
547.289
547.218
547.146
547.074
547.002
546.93
546.858
546.786
546.715
546.643
546.57
546.495
546.418
546.337
546.252
546.161
546.062
545.954
545.835
545.703
545.556
545.397
545.228
545.065
544.947
544.845
544.742
544.636
544.527
544.417
544.305
544.192
544.079
543.965
543.851
543.736
543.621
543.506
543.39
543.274
543.156
543.039
542.92
542.802
542.682
542.563
542.443
542.322
542.201
542.08
541.959
541.837
541.715
541.593
541.471
541.348
541.225
541.103
540.98
540.857
540.734
540.611
552.508
552.424
552.34
552.256
552.172
552.087
552.001
551.912
551.822
551.729
551.632
551.533
551.429
551.323
551.212
551.099
550.983
550.865
550.745
550.625
550.503
550.382
550.261
550.145
550.034
549.927
549.823
549.719
549.617
549.517
549.421
549.33
549.244
549.165
549.087
549.007
548.921
548.833
548.743
548.653
548.564
548.475
548.388
548.303
548.22
548.14
548.063
547.988
547.914
547.842
547.771
547.7
547.63
547.56
547.49
547.419
547.348
547.277
547.205
547.133
547.06
546.987
546.915
546.842
546.77
546.699
546.628
546.556
546.483
546.409
546.333
546.254
546.17
546.081
545.986
545.882
545.769
545.646
545.513
545.37
545.224
545.078
544.949
544.831
544.718
544.605
544.494
544.382
544.271
544.159
544.048
543.937
543.825
543.713
543.6
543.487
543.373
543.258
543.142
543.026
542.909
542.792
542.674
542.555
542.436
542.316
542.196
542.075
541.954
541.833
541.712
541.59
541.468
541.346
541.224
541.101
540.979
540.856
540.734
540.611
552.509
552.427
552.345
552.262
552.179
552.095
552.01
551.922
551.832
551.739
551.643
551.543
551.439
551.332
551.222
551.109
550.993
550.874
550.752
550.629
550.506
550.381
550.256
550.136
550.023
549.914
549.807
549.699
549.591
549.485
549.382
549.284
549.191
549.106
549.025
548.946
548.862
548.774
548.684
548.594
548.505
548.416
548.329
548.244
548.161
548.081
548.003
547.927
547.853
547.779
547.706
547.633
547.56
547.487
547.413
547.34
547.267
547.193
547.12
547.046
546.973
546.899
546.827
546.755
546.685
546.615
546.544
546.474
546.402
546.329
546.255
546.177
546.096
546.009
545.917
545.818
545.711
545.596
545.472
545.343
545.209
545.072
544.939
544.813
544.692
544.575
544.46
544.347
544.237
544.127
544.018
543.908
543.799
543.689
543.579
543.468
543.356
543.243
543.129
543.014
542.899
542.782
542.665
542.547
542.429
542.31
542.19
542.071
541.95
541.83
541.709
541.587
541.466
541.344
541.222
541.1
540.978
540.856
540.733
540.611
552.51
552.429
552.349
552.268
552.185
552.102
552.016
551.929
551.838
551.745
551.649
551.549
551.445
551.339
551.23
551.119
551.004
550.885
550.763
550.639
550.515
550.388
550.262
550.14
550.024
549.913
549.805
549.696
549.585
549.475
549.367
549.261
549.161
549.067
548.98
548.897
548.813
548.725
548.635
548.544
548.454
548.365
548.277
548.191
548.108
548.027
547.949
547.872
547.796
547.721
547.644
547.567
547.489
547.411
547.333
547.255
547.179
547.104
547.028
546.954
546.88
546.808
546.737
546.668
546.601
546.532
546.465
546.397
546.328
546.256
546.183
546.11
546.032
545.948
545.858
545.763
545.661
545.552
545.436
545.315
545.19
545.058
544.923
544.79
544.663
544.541
544.424
544.312
544.202
544.094
543.987
543.881
543.774
543.667
543.559
543.45
543.34
543.229
543.116
543.003
542.889
542.773
542.657
542.54
542.423
542.304
542.186
542.066
541.946
541.826
541.706
541.585
541.464
541.342
541.221
541.099
540.977
540.855
540.733
540.611
552.51
552.431
552.351
552.271
552.189
552.105
552.02
551.932
551.841
551.747
551.65
551.55
551.447
551.342
551.235
551.127
551.014
550.898
550.777
550.656
550.533
550.407
550.283
550.162
550.044
549.931
549.821
549.711
549.6
549.489
549.378
549.268
549.159
549.056
548.96
548.871
548.786
548.697
548.606
548.514
548.423
548.331
548.24
548.151
548.065
547.982
547.901
547.823
547.745
547.666
547.585
547.501
547.416
547.33
547.245
547.164
547.084
547.005
546.928
546.852
546.78
546.71
546.645
546.581
546.519
546.452
546.387
546.323
546.257
546.188
546.117
546.052
545.98
545.9
545.812
545.717
545.617
545.511
545.4
545.285
545.167
545.04
544.917
544.762
544.627
544.502
544.385
544.273
544.165
544.06
543.956
543.853
543.749
543.645
543.539
543.433
543.325
543.215
543.104
542.993
542.879
542.765
542.65
542.534
542.417
542.3
542.181
542.062
541.943
541.823
541.703
541.583
541.462
541.341
541.219
541.098
540.976
540.855
540.733
540.611
552.511
552.432
552.352
552.272
552.19
552.106
552.019
551.93
551.838
551.743
551.646
551.546
551.444
551.341
551.237
551.133
551.027
550.915
550.8
550.685
550.567
550.444
550.325
550.208
550.09
549.976
549.867
549.756
549.646
549.534
549.423
549.312
549.196
549.082
548.975
548.876
548.791
548.697
548.605
548.509
548.416
548.32
548.222
548.126
548.034
547.947
547.86
547.778
547.699
547.615
547.526
547.43
547.332
547.239
547.142
547.057
546.978
546.889
546.809
546.731
546.67
546.602
546.549
546.49
546.445
546.368
546.308
546.246
546.178
546.118
546.06
546.005
545.926
545.869
545.784
545.683
545.579
545.473
545.367
545.256
545.146
545.026
544.886
544.726
544.582
544.456
544.339
544.23
544.126
544.025
543.925
543.825
543.725
543.624
543.521
543.417
543.311
543.203
543.094
542.983
542.871
542.758
542.644
542.528
542.412
542.295
542.177
542.059
541.94
541.821
541.701
541.581
541.46
541.339
541.218
541.097
540.976
540.854
540.732
540.611
552.51
552.43
552.35
552.27
552.188
552.104
552.017
551.928
551.835
551.738
551.64
551.539
551.438
551.338
551.239
551.141
551.042
550.938
550.832
550.73
550.621
550.502
550.395
550.29
550.17
550.055
549.946
549.834
549.722
549.609
549.504
549.397
549.272
549.148
549.028
548.906
548.804
548.699
548.601
548.498
548.397
548.292
548.185
548.078
547.973
547.881
547.785
547.702
547.62
547.533
547.448
547.36
547.266
547.174
547.082
546.985
546.906
546.808
546.73
546.648
546.595
546.523
546.474
546.414
546.354
546.301
546.253
546.194
546.127
546.082
546.032
545.978
545.905
545.817
545.751
545.641
545.528
545.428
545.354
545.225
545.105
544.986
544.869
544.637
544.516
544.403
544.285
544.182
544.084
543.989
543.894
543.798
543.702
543.604
543.504
543.402
543.298
543.192
543.084
542.975
542.864
542.752
542.638
542.523
542.408
542.291
542.174
542.056
541.938
541.818
541.699
541.579
541.459
541.338
541.217
541.096
540.975
540.854
540.732
540.611
552.509
552.427
552.346
552.266
552.186
552.105
552.02
551.931
551.838
551.74
551.64
551.54
551.44
551.341
551.248
551.157
551.065
550.973
550.88
550.797
550.703
550.578
550.492
550.416
550.284
550.161
550.053
549.923
549.825
549.712
549.59
549.466
549.331
549.199
549.075
548.95
548.835
548.718
548.609
548.491
548.379
548.258
548.135
548.009
547.888
547.788
547.692
547.612
547.52
547.422
547.335
547.247
547.167
547.084
546.996
546.894
546.818
546.712
546.641
546.565
546.507
546.446
546.391
546.345
546.289
546.263
546.188
546.141
546.077
546.056
545.999
545.969
545.905
545.824
545.739
545.628
545.514
545.407
545.308
545.201
545.102
544.996
544.863
544.599
544.475
544.321
544.219
544.128
544.04
543.953
543.863
543.773
543.68
543.586
543.489
543.389
543.287
543.183
543.076
542.968
542.858
542.746
542.634
542.519
542.404
542.288
542.171
542.054
541.935
541.817
541.697
541.578
541.457
541.337
541.216
541.096
540.974
540.853
540.732
540.611
552.506
552.421
552.34
552.267
552.199
552.129
552.049
551.962
551.866
551.764
551.66
551.563
551.46
551.367
551.281
551.195
551.097
551.022
550.94
550.885
550.814
550.705
550.622
550.514
550.387
550.264
550.155
550.044
549.925
549.82
549.683
549.552
549.408
549.274
549.138
549.006
548.885
548.76
548.651
548.519
548.394
548.238
548.091
547.939
547.815
547.708
547.611
547.51
547.413
547.328
547.228
547.147
547.078
547.008
546.914
546.83
546.749
546.685
546.65
546.599
546.523
546.471
546.414
546.354
546.305
546.258
546.192
546.145
546.091
546.046
545.988
545.936
545.866
545.787
545.689
545.58
545.468
545.36
545.261
545.166
545.081
544.979
544.795
544.47
544.381
544.259
544.149
544.07
543.997
543.918
543.834
543.748
543.66
543.57
543.476
543.379
543.279
543.176
543.07
542.963
542.853
542.742
542.63
542.516
542.402
542.286
542.169
542.052
541.934
541.815
541.696
541.577
541.457
541.336
541.216
541.095
540.974
540.853
540.732
540.611
552.502
552.412
552.336
552.287
552.254
552.217
552.143
552.06
551.945
551.823
551.702
551.615
551.498
551.435
551.358
551.277
551.16
551.061
550.973
550.924
550.857
550.801
550.701
550.583
550.438
550.328
550.201
550.099
549.983
549.901
549.755
549.65
549.496
549.377
549.238
549.089
548.943
548.808
548.688
548.526
548.376
548.191
548.023
547.845
547.724
547.634
547.555
547.48
547.377
547.271
547.185
547.104
547.037
546.964
546.902
546.834
546.768
546.716
546.66
546.597
546.533
546.472
546.408
546.349
546.291
546.235
546.179
546.125
546.066
546.007
545.941
545.871
545.791
545.704
545.61
545.514
545.416
545.319
545.224
545.131
545.037
544.857
544.653
544.421
544.283
544.18
544.103
544.017
543.957
543.89
543.808
543.725
543.643
543.558
543.467
543.371
543.273
543.171
543.066
542.959
542.85
542.74
542.628
542.514
542.4
542.284
542.168
542.051
541.933
541.814
541.695
541.576
541.456
541.336