/*--------------------------------*- C++ -*----------------------------------*\
  =========                 |
  \\      /  F ield         | OpenFOAM: The Open Source CFD Toolbox
   \\    /   O peration     | Website:  https://openfoam.org
    \\  /    A nd           | Version:  6
     \\/     M anipulation  |
\*---------------------------------------------------------------------------*/
FoamFile
{
    version     2.0;
    format      ascii;
    class       surfaceScalarField;
    location    "1500";
    object      phi;
}
// * * * * * * * * * * * * * * * * * * * * * * * * * * * * * * * * * * * * * //

dimensions      [0 3 -1 0 0 0 0];

internalField   nonuniform List<scalar> 
9440
(
-9.13584e-14
9.13594e-14
-1.80267e-13
9.03538e-14
-2.66894e-13
8.77849e-14
-3.49569e-13
8.37862e-14
-4.27022e-13
7.85521e-14
-4.98165e-13
7.2237e-14
-5.6209e-13
6.50091e-14
-6.1808e-13
5.7063e-14
-6.65593e-13
4.85758e-14
-7.04236e-13
3.96929e-14
-7.3385e-13
3.06506e-14
-7.54408e-13
2.15756e-14
-7.66026e-13
1.26147e-14
-7.68983e-13
3.93885e-15
-7.64346e-13
-3.67755e-15
-7.52909e-13
-1.04986e-14
-7.35201e-13
-1.67962e-14
-7.10103e-13
-2.42113e-14
-6.79833e-13
-2.94116e-14
-6.46228e-13
-3.2773e-14
-6.10414e-13
-3.50129e-14
-5.68921e-13
-4.07231e-14
-5.26964e-13
-4.12205e-14
-4.8391e-13
-4.23503e-14
-4.4e-13
-4.32398e-14
-3.96191e-13
-4.31755e-14
-3.53038e-13
-4.25574e-14
-3.10895e-13
-4.15823e-14
-2.70158e-13
-4.02179e-14
-2.31025e-13
-3.86501e-14
-1.93782e-13
-3.68017e-14
-1.58556e-13
-3.48243e-14
-1.25469e-13
-3.27273e-14
-9.45381e-14
-3.06132e-14
-6.57624e-14
-2.84998e-14
-3.91764e-14
-2.63534e-14
-1.46502e-14
-2.43355e-14
7.8396e-15
-2.23406e-14
2.84731e-14
-2.05267e-14
4.73122e-14
-1.87773e-14
6.45208e-14
-1.7188e-14
8.01769e-14
-1.56801e-14
9.44722e-14
-1.43603e-14
1.07472e-13
-1.31098e-14
1.19281e-13
-1.1962e-14
1.30072e-13
-1.09839e-14
1.39914e-13
-1.008e-14
1.48845e-13
-9.20918e-15
1.57012e-13
-8.48668e-15
1.64416e-13
-7.76337e-15
1.71142e-13
-7.126e-15
1.77184e-13
-6.4832e-15
1.82561e-13
-5.85589e-15
1.87256e-13
-5.21214e-15
1.91224e-13
-4.52268e-15
1.94547e-13
-3.91469e-15
1.97119e-13
-3.19903e-15
1.98948e-13
-2.49214e-15
1.99981e-13
-1.72925e-15
2.00193e-13
-9.42467e-16
1.99568e-13
-1.33966e-16
1.98092e-13
6.85505e-16
1.95749e-13
1.5239e-15
1.92525e-13
2.37608e-15
1.88444e-13
3.20603e-15
1.83577e-13
3.96657e-15
1.77944e-13
4.71055e-15
1.71631e-13
5.36794e-15
1.64807e-13
5.85907e-15
1.57624e-13
6.19788e-15
1.5032e-13
6.30287e-15
1.43248e-13
6.05441e-15
1.37099e-13
5.11528e-15
1.33451e-13
2.60297e-15
1.36603e-13
-4.21004e-15
1.59483e-13
-2.39456e-14
2.4314e-13
-8.47309e-14
1.03029e-13
1.39034e-13
6.71058e-16
1.01276e-13
2.70435e-21
-7.48789e-20
2.38543e-21
-2.52807e-23
2.38388e-21
1.34417e-24
2.31011e-21
5.63517e-24
2.24978e-21
8.11671e-24
2.20687e-21
1.19424e-23
2.17714e-21
1.72157e-23
2.15501e-21
2.32645e-23
2.13676e-21
2.99853e-23
2.11913e-21
3.66544e-23
2.0999e-21
4.32202e-23
2.07777e-21
4.97342e-23
2.05136e-21
5.58347e-23
2.02013e-21
6.13665e-23
1.98373e-21
6.64846e-23
1.94186e-21
7.09824e-23
1.89481e-21
7.50666e-23
1.84244e-21
7.84271e-23
1.78537e-21
8.14256e-23
1.72364e-21
8.3752e-23
1.65788e-21
8.57683e-23
1.58829e-21
8.71642e-23
1.5154e-21
8.83015e-23
1.43955e-21
8.90253e-23
1.36128e-21
8.93872e-23
1.28094e-21
8.93355e-23
1.19895e-21
8.91804e-23
1.11561e-21
8.87151e-23
1.03113e-21
8.81464e-23
9.45829e-22
8.75778e-23
8.59958e-22
8.68023e-23
7.73724e-22
8.60268e-23
6.87284e-22
8.51479e-23
6.00688e-22
8.43207e-23
5.14144e-22
8.35452e-23
4.27652e-22
8.27698e-23
3.41315e-22
8.2046e-23
2.54978e-22
8.14773e-23
1.69055e-22
8.08052e-23
8.38037e-23
7.9978e-23
7.82203e-23
-9.20215e-14
1.84828e-13
-1.82952e-13
1.83591e-13
-2.71359e-13
1.78199e-13
-3.55502e-13
1.69895e-13
-4.34144e-13
1.59143e-13
-5.06264e-13
1.46292e-13
-5.70975e-13
1.31637e-13
-6.27533e-13
1.15515e-13
-6.75346e-13
9.82593e-14
-7.14104e-13
8.0297e-14
-7.43608e-13
6.197e-14
-7.63866e-13
4.36161e-14
-7.74972e-13
2.54702e-14
-7.77319e-13
7.99372e-15
-7.72004e-13
-7.3248e-15
-7.60213e-13
-2.06674e-14
-7.4125e-13
-3.41821e-14
-7.15197e-13
-4.87354e-14
-6.84174e-13
-5.89569e-14
-6.5005e-13
-6.5471e-14
-6.12839e-13
-7.08562e-14
-5.7089e-13
-8.1364e-14
-5.2819e-13
-8.26697e-14
-4.84531e-13
-8.48208e-14
-4.3996e-13
-8.66857e-14
-3.95692e-13
-8.63854e-14
-3.52097e-13
-8.51601e-14
-3.0961e-13
-8.31485e-14
-2.68523e-13
-8.04541e-14
-2.29191e-13
-7.7203e-14
-1.91785e-13
-7.34989e-14
-1.56481e-13
-6.94941e-14
-1.23307e-13
-6.53444e-14
-9.23973e-14
-6.10376e-14
-6.3697e-14
-5.67924e-14
-3.71268e-14
-5.25913e-14
-1.26899e-14
-4.85174e-14
9.70705e-15
-4.45585e-14
3.02213e-14
-4.09405e-14
4.89555e-14
-3.74849e-14
6.59924e-14
-3.42757e-14
8.15593e-14
-3.13744e-14
9.56953e-14
-2.87012e-14
1.08559e-13
-2.6253e-14
1.20318e-13
-2.40771e-14
1.30993e-13
-2.20907e-14
1.40757e-13
-2.03488e-14
1.49662e-13
-1.86945e-14
1.57773e-13
-1.72502e-14
1.65138e-13
-1.58494e-14
1.71813e-13
-1.45967e-14
1.77828e-13
-1.33617e-14
1.83171e-13
-1.21307e-14
1.87878e-13
-1.09206e-14
1.91916e-13
-9.62306e-15
1.95263e-13
-8.38813e-15
1.97895e-13
-7.02185e-15
1.99742e-13
-5.58914e-15
2.00769e-13
-4.06116e-15
2.01025e-13
-2.56227e-15
2.0042e-13
-9.51268e-16
1.98972e-13
6.62801e-16
1.96617e-13
2.36129e-15
1.93363e-13
4.06233e-15
1.89244e-13
5.71461e-15
1.8429e-13
7.26954e-15
1.78561e-13
8.7469e-15
1.72151e-13
1.00495e-14
1.65173e-13
1.10757e-14
1.57776e-13
1.18036e-14
1.50077e-13
1.21814e-14
1.42299e-13
1.19852e-14
1.34656e-13
1.08898e-14
1.27061e-13
8.30885e-15
1.1798e-13
2.9676e-15
9.93633e-14
-7.2473e-15
3.65508e-14
-2.38474e-14
3.60829e-14
1.37567e-13
5.18715e-16
1.35314e-13
2.75624e-21
-1.26352e-19
2.41201e-21
-4.27549e-23
2.38823e-21
-2.30577e-23
2.31259e-21
-5.37667e-24
2.25355e-21
1.20975e-23
2.21224e-21
2.99336e-23
2.18319e-21
4.75112e-23
2.16168e-21
6.46752e-23
2.14354e-21
8.11154e-23
2.1257e-21
9.65216e-23
2.10647e-21
1.10842e-22
2.08387e-21
1.23819e-22
2.05689e-21
1.35554e-22
2.0253e-21
1.45946e-22
1.98828e-21
1.54838e-22
1.94594e-21
1.62438e-22
1.89822e-21
1.68797e-22
1.84539e-21
1.73966e-22
1.78769e-21
1.78051e-22
1.72565e-21
1.81049e-22
1.65927e-21
1.83014e-22
1.58938e-21
1.84358e-22
1.51612e-21
1.84668e-22
1.43991e-21
1.84461e-22
1.36123e-21
1.83686e-22
1.28079e-21
1.82548e-22
1.19848e-21
1.80894e-22
1.11504e-21
1.78981e-22
1.03051e-21
1.76913e-22
9.45054e-22
1.74587e-22
8.59182e-22
1.72157e-22
7.72845e-22
1.69779e-22
6.86508e-22
1.67556e-22
5.99861e-22
1.65281e-22
5.13369e-22
1.63265e-22
4.26929e-22
1.61404e-22
3.40747e-22
1.59801e-22
2.54358e-22
1.58302e-22
1.6828e-22
1.57216e-22
8.19943e-23
1.56337e-22
1.55768e-22
-9.63084e-14
2.82295e-13
-1.89225e-13
2.7851e-13
-2.79449e-13
2.70162e-13
-3.65469e-13
2.57616e-13
-4.45977e-13
2.41342e-13
-5.19775e-13
2.21767e-13
-5.85871e-13
1.99394e-13
-6.4349e-13
1.74781e-13
-6.92095e-13
1.48488e-13
-7.31246e-13
1.21049e-13
-7.60817e-13
9.31152e-14
-7.80794e-13
6.51413e-14
-7.91299e-13
3.74922e-14
-7.92832e-13
1.10113e-14
-7.86573e-13
-1.21344e-14
-7.74051e-13
-3.17784e-14
-7.52979e-13
-5.38847e-14
-7.25136e-13
-7.52489e-14
-6.92801e-13
-9.00069e-14
-6.57749e-13
-9.92865e-14
-6.17614e-13
-1.09803e-13
-5.74706e-13
-1.23129e-13
-5.30563e-13
-1.25724e-13
-4.85631e-13
-1.28716e-13
-4.3976e-13
-1.31577e-13
-3.94556e-13
-1.30667e-13
-3.50092e-13
-1.2876e-13
-3.06891e-13
-1.25543e-13
-2.6527e-13
-1.21329e-13
-2.25519e-13
-1.16272e-13
-1.87836e-13
-1.10563e-13
-1.52313e-13
-1.04461e-13
-1.19068e-13
-9.80959e-14
-8.81183e-14
-9.1563e-14
-5.94801e-14
-8.50709e-14
-3.30577e-14
-7.87194e-14
-8.79602e-15
-7.25512e-14
1.33778e-14
-6.65714e-14
3.36721e-14
-6.11391e-14
5.21652e-14
-5.59504e-14
6.89943e-14
-5.11455e-14
8.42341e-14
-4.67209e-14
9.81338e-14
-4.27722e-14
1.1078e-13
-3.91368e-14
1.22319e-13
-3.59175e-14
1.32795e-13
-3.29363e-14
1.42366e-13
-3.03518e-14
1.51125e-13
-2.79506e-14
1.591e-13
-2.57854e-14
1.66422e-13
-2.37923e-14
1.73036e-13
-2.18959e-14
1.79039e-13
-2.01077e-14
1.84397e-13
-1.8292e-14
1.89134e-13
-1.65173e-14
1.93173e-13
-1.45801e-14
1.96625e-13
-1.28138e-14
1.99304e-13
-1.07277e-14
2.01228e-13
-8.59112e-15
2.02356e-13
-6.32201e-15
2.02644e-13
-4.02834e-15
2.02081e-13
-1.61435e-15
2.00622e-13
8.52294e-16
1.98257e-13
3.41217e-15
1.94991e-13
5.976e-15
1.90795e-13
8.51865e-15
1.85691e-13
1.09441e-14
1.79801e-13
1.3176e-14
1.7318e-13
1.51737e-14
1.6592e-13
1.68097e-14
1.58123e-13
1.80484e-14
1.49841e-13
1.88859e-14
1.41242e-13
1.89893e-14
1.32081e-13
1.84337e-14
1.21653e-13
1.71025e-14
1.07548e-13
1.54232e-14
8.3105e-14
1.55345e-14
3.17015e-14
2.58888e-14
2.20686e-14
1.45523e-13
4.94372e-16
1.55544e-13
2.70315e-21
-1.88945e-19
2.43165e-21
-6.39514e-23
2.40591e-21
-3.55688e-23
2.33012e-21
-7.34123e-24
2.27133e-21
2.09897e-23
2.22982e-21
4.92173e-23
2.20035e-21
7.68244e-23
2.17807e-21
1.03242e-22
2.15894e-21
1.28316e-22
2.13997e-21
1.51581e-22
2.11944e-21
1.73088e-22
2.09556e-21
1.92371e-22
2.06733e-21
2.09587e-22
2.03419e-21
2.24786e-22
1.99594e-21
2.37763e-22
1.95225e-21
2.48826e-22
1.90339e-21
2.57874e-22
1.84942e-21
2.65215e-22
1.79069e-21
2.70798e-22
1.72762e-21
2.74727e-22
1.66051e-21
2.77364e-22
1.58969e-21
2.78553e-22
1.51586e-21
2.78708e-22
1.43914e-21
2.77984e-22
1.36014e-21
2.76485e-22
1.27918e-21
2.74314e-22
1.19657e-21
2.71574e-22
1.11297e-21
2.68524e-22
1.02819e-21
2.64956e-22
9.42624e-22
2.61337e-22
8.56804e-22
2.57615e-22
7.70622e-22
2.53944e-22
6.84234e-22
2.50326e-22
5.97897e-22
2.46913e-22
5.1156e-22
2.43708e-22
4.25326e-22
2.40968e-22
3.39247e-22
2.38435e-22
2.53221e-22
2.36419e-22
1.67452e-22
2.34713e-22
8.14773e-23
2.33627e-22
2.33006e-22
-1.00251e-13
3.83654e-13
-1.97605e-13
3.77815e-13
-2.91914e-13
3.66169e-13
-3.81637e-13
3.49003e-13
-4.65361e-13
3.26721e-13
-5.41935e-13
2.99981e-13
-6.10304e-13
2.69391e-13
-6.69627e-13
2.35714e-13
-7.19307e-13
1.99757e-13
-7.58986e-13
1.62295e-13
-7.88497e-13
1.24169e-13
-8.07838e-13
8.59944e-14
-8.17163e-13
4.83017e-14
-8.17211e-13
1.25093e-14
-8.09323e-13
-1.86056e-14
-7.95421e-13
-4.42961e-14
-7.70871e-13
-7.70921e-14
-7.40304e-13
-1.04515e-13
-7.05796e-13
-1.23258e-13
-6.69644e-13
-1.34228e-13
-6.24456e-13
-1.53826e-13
-5.80383e-13
-1.66085e-13
-5.34064e-13
-1.70982e-13
-4.8701e-13
-1.74754e-13
-4.39347e-13
-1.7828e-13
-3.92684e-13
-1.76427e-13
-3.46954e-13
-1.73643e-13
-3.02713e-13
-1.68996e-13
-2.60245e-13
-1.63067e-13
-2.19892e-13
-1.55957e-13
-1.81739e-13
-1.48106e-13
-1.45942e-13
-1.39714e-13
-1.12595e-13
-1.30958e-13
-8.16453e-14
-1.22094e-13
-5.31109e-14
-1.13251e-13
-2.69016e-14
-1.04639e-13
-2.94176e-15
-9.62888e-14
1.89489e-14
-8.83017e-14
3.88559e-14
-8.09542e-14
5.69414e-14
-7.40066e-14
7.33784e-14
-6.76193e-14
8.82787e-14
-6.17226e-14
1.01768e-13
-5.64281e-14
1.14047e-13
-5.16492e-14
1.25214e-13
-4.73789e-14
1.35423e-13
-4.35055e-14
1.44748e-13
-4.00995e-14
1.53282e-13
-3.69683e-14
1.61102e-13
-3.41511e-14
1.68277e-13
-3.15768e-14
1.74837e-13
-2.91261e-14
1.80771e-13
-2.67715e-14
1.86168e-13
-2.44745e-14
1.9095e-13
-2.21394e-14
1.9511e-13
-1.96377e-14
1.9861e-13
-1.7264e-14
2.01374e-13
-1.4496e-14
2.03427e-13
-1.1699e-14
2.0468e-13
-8.68123e-15
2.05088e-13
-5.58957e-15
2.04589e-13
-2.31699e-15
2.03186e-13
1.01375e-15
2.00819e-13
4.49508e-15
1.97467e-13
8.00153e-15
1.93166e-13
1.14564e-14
1.87927e-13
1.47839e-14
1.81814e-13
1.78553e-14
1.7487e-13
2.0656e-14
1.67179e-13
2.30075e-14
1.58856e-13
2.4853e-14
1.50011e-13
2.61872e-14
1.40655e-13
2.67826e-14
1.30736e-13
2.67693e-14
1.19868e-13
2.6369e-14
1.07327e-13
2.63496e-14
9.29052e-14
2.83322e-14
8.19126e-14
3.52468e-14
1.83838e-14
2.07411e-13
4.86009e-16
1.72131e-13
2.809e-21
-2.53975e-19
2.46009e-21
-8.59751e-23
2.43413e-21
-4.67874e-23
2.35845e-21
-7.75482e-24
2.29961e-21
3.11227e-23
2.25743e-21
6.96383e-23
2.22682e-21
1.07068e-22
2.20309e-21
1.42895e-22
2.18221e-21
1.76603e-22
2.16147e-21
2.07829e-22
2.13878e-21
2.36419e-22
2.11283e-21
2.62061e-22
2.08248e-21
2.8486e-22
2.04717e-21
3.04764e-22
2.007e-21
3.21928e-22
1.96135e-21
3.36249e-22
1.91074e-21
3.47933e-22
1.855e-21
3.57135e-22
1.79467e-21
3.64166e-22
1.73026e-21
3.69078e-22
1.66175e-21
3.72025e-22
1.58994e-21
3.73369e-22
1.51508e-21
3.73265e-22
1.43764e-21
3.71869e-22
1.35797e-21
3.6944e-22
1.27639e-21
3.66131e-22
1.19347e-21
3.62253e-22
1.10951e-21
3.57807e-22
1.02457e-21
3.52999e-22
9.38953e-22
3.47985e-22
8.53133e-22
3.42866e-22
7.67003e-22
3.378e-22
6.80821e-22
3.32992e-22
5.94743e-22
3.28287e-22
5.08716e-22
3.23996e-22
4.22896e-22
3.20171e-22
3.37128e-22
3.1681e-22
2.51566e-22
3.13967e-22
1.66263e-22
3.11951e-22
8.08569e-23
3.10451e-22
3.09779e-22
-1.05975e-13
4.90723e-13
-2.09202e-13
4.82972e-13
-3.09138e-13
4.67782e-13
-4.03936e-13
4.45448e-13
-4.92218e-13
4.16635e-13
-5.72616e-13
3.82e-13
-6.44064e-13
3.42448e-13
-7.05646e-13
2.98887e-13
-7.56789e-13
2.52474e-13
-7.97096e-13
2.04151e-13
-8.26394e-13
1.54993e-13
-8.44778e-13
1.05876e-13
-8.52458e-13
5.74515e-14
-8.50433e-13
1.19193e-14
-8.40832e-13
-2.6807e-14
-8.23183e-13
-6.05801e-14
-7.9487e-13
-1.04078e-13
-7.61178e-13
-1.36924e-13
-7.23805e-13
-1.59388e-13
-6.84007e-13
-1.72827e-13
-6.34457e-13
-2.02224e-13
-5.87621e-13
-2.11819e-13
-5.38424e-13
-2.19126e-13
-4.88323e-13
-2.23855e-13
-4.38585e-13
-2.27072e-13
-3.8982e-13
-2.24298e-13
-3.42401e-13
-2.20224e-13
-2.9673e-13
-2.1389e-13
-2.53214e-13
-2.05862e-13
-2.12028e-13
-1.96482e-13
-1.73306e-13
-1.86228e-13
-1.3722e-13
-1.7526e-13
-1.03734e-13
-1.63969e-13
-7.28419e-14
-1.52572e-13
-4.44836e-14
-1.41259e-13
-1.85703e-14
-1.30266e-13
4.97854e-15
-1.19616e-13
2.6422e-14
-1.09588e-13
4.58529e-14
-1.00292e-13
6.3362e-14
-9.14872e-14
7.92304e-14
-8.35256e-14
9.35662e-14
-7.616e-14
1.0654e-13
-6.9568e-14
1.18348e-13
-6.36854e-14
1.29077e-13
-5.84022e-14
1.38889e-13
-5.36728e-14
1.47835e-13
-4.94638e-14
1.5611e-13
-4.57243e-14
1.63708e-13
-4.22913e-14
1.70719e-13
-3.91918e-14
1.77204e-13
-3.62739e-14
1.83116e-13
-3.34036e-14
1.88532e-13
-3.06677e-14
1.93356e-13
-2.77975e-14
1.9763e-13
-2.47993e-14
2.01266e-13
-2.18443e-14
2.04222e-13
-1.84449e-14
2.0643e-13
-1.49513e-14
2.07852e-13
-1.11953e-14
2.08371e-13
-7.25001e-15
2.07965e-13
-3.09762e-15
2.06626e-13
1.12392e-15
2.04252e-13
5.59922e-15
2.00891e-13
1.00517e-14
1.96461e-13
1.45398e-14
1.90995e-13
1.88687e-14
1.84548e-13
2.28855e-14
1.77212e-13
2.65445e-14
1.69061e-13
2.96827e-14
1.60106e-13
3.23076e-14
1.50616e-13
3.41547e-14
1.40623e-13
3.52299e-14
1.30348e-13
3.54797e-14
1.19913e-13
3.52227e-14
1.09615e-13
3.50535e-14
1.00434e-13
3.59083e-14
9.04017e-14
4.36664e-14
1.80902e-14
2.78104e-13
4.7934e-16
1.88449e-13
2.809e-21
-3.17628e-19
2.49933e-21
-1.07637e-22
2.47317e-21
-5.73857e-23
2.39732e-21
-7.44463e-24
2.33808e-21
4.25998e-23
2.29491e-21
9.1662e-23
2.2626e-21
1.39225e-22
2.2368e-21
1.84461e-22
2.21343e-21
2.26854e-22
2.19006e-21
2.66197e-22
2.16437e-21
3.01869e-22
2.13557e-21
3.34026e-22
2.10238e-21
3.62409e-22
2.06438e-21
3.87069e-22
2.02127e-21
4.07955e-22
1.97308e-21
4.25429e-22
1.91994e-21
4.39647e-22
1.86204e-21
4.50813e-22
1.79958e-21
4.5893e-22
1.73315e-21
4.64617e-22
1.66305e-21
4.67926e-22
1.58989e-21
4.69115e-22
1.51374e-21
4.68546e-22
1.43521e-21
4.66375e-22
1.35472e-21
4.63014e-22
1.27246e-21
4.58517e-22
1.18907e-21
4.53243e-22
1.1046e-21
4.4735e-22
1.0195e-21
4.41042e-22
9.33835e-22
4.34477e-22
8.48015e-22
4.27911e-22
7.62195e-22
4.215e-22
6.76169e-22
4.15193e-22
5.904e-22
4.09299e-22
5.0489e-22
4.03871e-22
4.19484e-22
3.9896e-22
3.34336e-22
3.9472e-22
2.49498e-22
3.91256e-22
1.64764e-22
3.8862e-22
8.02882e-23
3.86914e-22
3.85983e-22
-1.13621e-13
6.05424e-13
-2.24352e-13
5.95606e-13
-3.31386e-13
5.76471e-13
-4.32782e-13
5.48469e-13
-5.26858e-13
5.12326e-13
-6.1218e-13
4.68927e-13
-6.8753e-13
4.19386e-13
-7.52071e-13
3.64999e-13
-8.05036e-13
3.0699e-13
-8.46064e-13
2.46711e-13
-8.75011e-13
1.85444e-13
-8.92053e-13
1.24396e-13
-8.97498e-13
6.43454e-14
-8.92886e-13
8.72528e-15
-8.82135e-13
-3.61741e-14
-8.57138e-13
-8.42287e-14
-8.24847e-13
-1.35061e-13
-7.87343e-13
-1.73157e-13
-7.47197e-13
-1.98304e-13
-6.99493e-13
-2.1935e-13
-6.47381e-13
-2.532e-13
-5.9609e-13
-2.6202e-13
-5.43329e-13
-2.7085e-13
-4.89393e-13
-2.76803e-13
-4.37063e-13
-2.78467e-13
-3.85652e-13
-2.74826e-13
-3.36117e-13
-2.68932e-13
-2.88758e-13
-2.60478e-13
-2.4392e-13
-2.4999e-13
-2.01721e-13
-2.38028e-13
-1.62389e-13
-2.24967e-13
-1.25918e-13
-2.112e-13
-9.23155e-14
-1.97103e-13
-6.15491e-14
-1.82929e-13
-3.34715e-14
-1.68993e-13
-8.01508e-15
-1.55441e-13
1.49533e-14
-1.42365e-13
3.5838e-14
-1.30318e-13
5.45445e-14
-1.18906e-13
7.13957e-14
-1.08312e-13
8.65127e-14
-9.86809e-14
1.00208e-13
-8.99549e-14
1.12497e-13
-8.20209e-14
1.23644e-13
-7.50614e-14
1.33777e-13
-6.88252e-14
1.43079e-13
-6.33276e-14
1.51587e-13
-5.83868e-14
1.59448e-13
-5.40603e-14
1.66807e-13
-5.01851e-14
1.73631e-13
-4.66096e-14
1.79981e-13
-4.32766e-14
1.85908e-13
-4.00436e-14
1.91377e-13
-3.69058e-14
1.96279e-13
-3.35241e-14
2.00728e-13
-3.0125e-14
2.04572e-13
-2.66193e-14
2.07708e-13
-2.25641e-14
2.10157e-13
-1.84347e-14
2.11826e-13
-1.39454e-14
2.12573e-13
-9.12284e-15
2.12297e-13
-3.99633e-15
2.11074e-13
1.13205e-15
2.08794e-13
6.6227e-15
2.05312e-13
1.22413e-14
2.00743e-13
1.7779e-14
1.95014e-13
2.32323e-14
1.88242e-13
2.82593e-14
1.80441e-13
3.29188e-14
1.71636e-13
3.70297e-14
1.62034e-13
4.04289e-14
1.51693e-13
4.29902e-14
1.40908e-13
4.44901e-14
1.30046e-13
4.47987e-14
1.19742e-13
4.3965e-14
1.11024e-13
4.21972e-14
1.04781e-13
4.05639e-14
8.54097e-14
6.14452e-14
6.54904e-15
3.55367e-13
4.71781e-16
1.93251e-13
2.8619e-21
-3.80645e-19
2.54953e-21
-1.29092e-22
2.52316e-21
-6.72601e-23
2.44732e-21
-5.73857e-24
2.38719e-21
5.56279e-23
2.34242e-21
1.15702e-22
2.30789e-21
1.73605e-22
2.27919e-21
2.28612e-22
2.25277e-21
2.79949e-22
2.22568e-21
3.2746e-22
2.19663e-21
3.70577e-22
2.16396e-21
4.09093e-22
2.12704e-21
4.42852e-22
2.08527e-21
4.72062e-22
2.03874e-21
4.96929e-22
1.98725e-21
5.1735e-22
1.93111e-21
5.3379e-22
1.8701e-21
5.46405e-22
1.80527e-21
5.55659e-22
1.73646e-21
5.61811e-22
1.66429e-21
5.65171e-22
1.58922e-21
5.66102e-22
1.51157e-21
5.64706e-22
1.43185e-21
5.61552e-22
1.35017e-21
5.56951e-22
1.26719e-21
5.51264e-22
1.18318e-21
5.44492e-22
1.09834e-21
5.37047e-22
1.01293e-21
5.29189e-22
9.2727e-22
5.2102e-22
8.41656e-22
5.128e-22
7.55888e-22
5.04632e-22
6.70223e-22
4.96877e-22
5.8492e-22
4.89691e-22
5.00031e-22
4.8297e-22
4.15245e-22
4.76973e-22
3.30872e-22
4.71855e-22
2.4681e-22
4.67822e-22
1.63058e-22
4.64617e-22
7.93576e-23
4.62497e-22
4.61567e-22
-1.2326e-13
7.29752e-13
-2.43404e-13
7.17622e-13
-3.59382e-13
6.94078e-13
-4.68945e-13
6.59632e-13
-5.70218e-13
6.15189e-13
-6.61675e-13
5.61959e-13
-7.41939e-13
5.01214e-13
-8.09999e-13
4.34607e-13
-8.65149e-13
3.63668e-13
-9.06929e-13
2.89998e-13
-9.35323e-13
2.15321e-13
-9.50668e-13
1.41197e-13
-9.5287e-13
6.79743e-14
-9.46481e-13
3.7304e-15
-9.31972e-13
-4.93199e-14
-8.98962e-13
-1.15911e-13
-8.61531e-13
-1.71203e-13
-8.18793e-13
-2.14647e-13
-7.76586e-13
-2.39302e-13
-7.16129e-13
-2.78642e-13
-6.62702e-13
-3.05508e-13
-6.05721e-13
-3.1793e-13
-5.4838e-13
-3.27168e-13
-4.89868e-13
-3.34343e-13
-4.34253e-13
-3.3316e-13
-3.79808e-13
-3.28402e-13
-3.27744e-13
-3.20184e-13
-2.78375e-13
-3.09089e-13
-2.31948e-13
-2.95717e-13
-1.88711e-13
-2.80624e-13
-1.4866e-13
-2.64434e-13
-1.11855e-13
-2.47481e-13
-7.81871e-14
-2.30307e-13
-4.76239e-14
-2.13091e-13
-1.99735e-14
-1.96302e-13
4.91747e-15
-1.80054e-13
2.7212e-14
-1.64442e-13
4.72209e-14
-1.50174e-13
6.51223e-14
-1.36718e-13
8.1059e-14
-1.24222e-13
9.52993e-14
-1.1296e-13
1.08097e-13
-1.02852e-13
1.19572e-13
-9.36557e-14
1.29873e-13
-8.55845e-14
1.39296e-13
-7.85342e-14
1.47936e-13
-7.2315e-14
1.55963e-13
-6.68217e-14
1.63381e-13
-6.19478e-14
1.70383e-13
-5.77137e-14
1.76985e-13
-5.37995e-14
1.83222e-13
-5.016e-14
1.89083e-13
-4.6607e-14
1.94599e-13
-4.31787e-14
1.99631e-13
-3.93681e-14
2.04351e-13
-3.57107e-14
2.08398e-13
-3.15854e-14
2.1193e-13
-2.70641e-14
2.14667e-13
-2.21879e-14
2.16632e-13
-1.6976e-14
2.17634e-13
-1.12364e-14
2.17676e-13
-5.19321e-15
2.16584e-13
1.02981e-15
2.14296e-13
7.67393e-15
2.10849e-13
1.44143e-14
2.06089e-13
2.12262e-14
2.0012e-13
2.78558e-14
1.92945e-13
3.4059e-14
1.84567e-13
3.98907e-14
1.75063e-13
4.50994e-14
1.64528e-13
4.95058e-14
1.53173e-13
5.28641e-14
1.41257e-13
5.49038e-14
1.2918e-13
5.53562e-14
1.18017e-13
5.35923e-14
1.09257e-13
4.94096e-14
1.04685e-13
4.35791e-14
7.57053e-15
1.56994e-13
4.09654e-15
3.57268e-13
4.62795e-16
1.95631e-13
2.91478e-21
-4.4292e-19
2.61141e-21
-1.50495e-22
2.58463e-21
-7.62557e-23
2.50874e-21
-2.63664e-24
2.44721e-21
7.04655e-23
2.40032e-21
1.42223e-22
2.36289e-21
2.11086e-22
2.33058e-21
2.76175e-22
2.30018e-21
3.36869e-22
2.2689e-21
3.92497e-22
2.23515e-21
4.42904e-22
2.19772e-21
4.87778e-22
2.15625e-21
5.27069e-22
2.11009e-21
5.60725e-22
2.05916e-21
5.89108e-22
2.00369e-21
6.12372e-22
1.94377e-21
6.30829e-22
1.87941e-21
6.44684e-22
1.81142e-21
6.54662e-22
1.73982e-21
6.60917e-22
1.66517e-21
6.63968e-22
1.58788e-21
6.64123e-22
1.50847e-21
6.61951e-22
1.42725e-21
6.57712e-22
1.34448e-21
6.51612e-22
1.26047e-21
6.44219e-22
1.17573e-21
6.35895e-22
1.09043e-21
6.26693e-22
1.00477e-21
6.16922e-22
9.19049e-22
6.07047e-22
8.33436e-22
5.97173e-22
7.48133e-22
5.87557e-22
6.63037e-22
5.78251e-22
5.78251e-22
5.69617e-22
4.94034e-22
5.61604e-22
4.10127e-22
5.54573e-22
3.2684e-22
5.48576e-22
2.43656e-22
5.43509e-22
1.60938e-22
5.3989e-22
7.83754e-23
5.37409e-22
5.3622e-22
-1.35164e-13
8.65967e-13
-2.66894e-13
8.51187e-13
-3.93789e-13
8.22571e-13
-5.13361e-13
7.80771e-13
-6.23469e-13
7.26856e-13
-7.22339e-13
6.62378e-13
-8.08529e-13
5.88938e-13
-8.80835e-13
5.08428e-13
-9.38479e-13
4.22813e-13
-9.8101e-13
3.3401e-13
-1.00889e-12
2.44658e-13
-1.02117e-12
1.54907e-13
-1.02031e-12
6.85066e-14
-1.01372e-12
-1.48289e-15
-9.87655e-13
-7.4046e-14
-9.49544e-13
-1.52719e-13
-9.05309e-13
-2.14172e-13
-8.58121e-13
-2.60608e-13
-8.06415e-13
-2.8982e-13
-7.37539e-13
-3.46375e-13
-6.79501e-13
-3.62448e-13
-6.16122e-13
-3.80257e-13
-5.52516e-13
-3.89772e-13
-4.89763e-13
-3.9614e-13
-4.29656e-13
-3.92364e-13
-3.71697e-13
-3.85508e-13
-3.16702e-13
-3.7438e-13
-2.6506e-13
-3.59987e-13
-2.1697e-13
-3.4312e-13
-1.72502e-13
-3.24463e-13
-1.31768e-13
-3.04595e-13
-9.46336e-14
-2.84101e-13
-6.10724e-14
-2.63414e-13
-3.08074e-14
-2.42962e-13
-3.74264e-15
-2.23034e-13
2.02752e-14
-2.03799e-13
4.17497e-14
-1.85705e-13
6.07188e-14
-1.68993e-13
7.74814e-14
-1.53395e-13
9.23633e-14
-1.39077e-13
1.0544e-13
-1.26074e-13
1.17113e-13
-1.14623e-13
1.27627e-13
-1.04329e-13
1.37034e-13
-9.52148e-14
1.45511e-13
-8.72935e-14
1.53396e-13
-8.0541e-14
1.60788e-13
-7.46133e-14
1.67728e-13
-6.93475e-14
1.74256e-13
-6.47613e-14
1.80611e-13
-6.07335e-14
1.86716e-13
-5.69019e-14
1.92647e-13
-5.32306e-14
1.98172e-13
-4.94504e-14
2.03488e-13
-4.54825e-14
2.08475e-13
-4.15484e-14
2.12833e-13
-3.68473e-14
2.16719e-13
-3.1903e-14
2.19929e-13
-2.63991e-14
2.2229e-13
-2.03828e-14
2.23676e-13
-1.37122e-14
2.24062e-13
-6.71467e-15
2.23209e-13
7.05835e-16
2.21051e-13
8.61939e-15
2.17536e-13
1.66778e-14
2.12657e-13
2.48188e-14
2.06443e-13
3.2748e-14
1.9878e-13
4.03718e-14
1.89751e-13
4.75397e-14
1.79436e-13
5.40075e-14
1.67906e-13
5.96043e-14
1.5525e-13
6.40655e-14
1.41652e-13
6.70283e-14
1.27462e-13
6.80546e-14
1.13656e-13
6.58909e-14
1.03843e-13
5.77061e-14
1.10766e-13
3.51272e-14
-2.31043e-14
2.89327e-13
5.86929e-15
3.26749e-13
4.52872e-16
1.99819e-13
3.07355e-21
-5.01595e-19
2.68565e-21
-1.71278e-22
2.65825e-21
-8.41139e-23
2.58189e-21
2.32645e-24
2.51892e-21
8.81981e-23
2.46919e-21
1.71847e-22
2.42798e-21
2.52032e-22
2.39128e-21
3.2777e-22
2.35586e-21
3.98081e-22
2.31921e-21
4.62342e-22
2.27997e-21
5.20142e-22
2.23701e-21
5.71272e-22
2.18991e-21
6.15733e-22
2.13842e-21
6.53731e-22
2.08243e-21
6.85371e-22
2.02215e-21
7.11065e-22
1.95757e-21
7.31124e-22
1.88938e-21
7.46169e-22
1.81763e-21
7.56508e-22
1.74287e-21
7.62557e-22
1.66537e-21
7.64884e-22
1.58571e-21
7.64212e-22
1.50418e-21
7.60644e-22
1.42115e-21
7.54906e-22
1.33714e-21
7.47254e-22
1.25209e-21
7.38e-22
1.16653e-21
7.27609e-22
1.08071e-21
7.16545e-22
9.9484e-22
7.04965e-22
9.09227e-22
6.93177e-22
8.23872e-22
6.81338e-22
7.38879e-22
6.69913e-22
6.54352e-22
6.59056e-22
5.70238e-22
6.4882e-22
4.86951e-22
6.39617e-22
4.04078e-22
6.31449e-22
3.21773e-22
6.24315e-22
2.39986e-22
6.18731e-22
1.58509e-22
6.1444e-22
7.71863e-23
6.11597e-22
6.10253e-22
-1.49611e-13
1.01661e-12
-2.95404e-13
9.98776e-13
-4.35553e-13
9.64283e-13
-5.67212e-13
9.13967e-13
-6.87985e-13
8.49152e-13
-7.95757e-13
7.71663e-13
-8.88909e-13
6.83589e-13
-9.66188e-13
5.87191e-13
-1.02659e-12
4.84682e-13
-1.07027e-12
3.79135e-13
-1.09685e-12
2.72664e-13
-1.10474e-12
1.64195e-13
-1.104e-12
6.91389e-14
-1.09065e-12
-1.34888e-14
-1.05179e-12
-1.11595e-13
-1.009e-12
-1.94235e-13
-9.57419e-13
-2.64513e-13
-9.05604e-13
-3.11222e-13
-8.31948e-13
-3.62317e-13
-7.66281e-13
-4.10923e-13
-6.96567e-13
-4.31087e-13
-6.26638e-13
-4.49158e-13
-5.55344e-13
-4.60081e-13
-4.88111e-13
-4.62438e-13
-4.22679e-13
-4.56912e-13
-3.60673e-13
-4.4668e-13
-3.02446e-13
-4.31826e-13
-2.48278e-13
-4.13425e-13
-1.98341e-13
-3.92384e-13
-1.52704e-13
-3.69482e-13
-1.11283e-13
-3.45455e-13
-7.4003e-14
-3.20879e-13
-4.06157e-14
-2.96355e-13
-1.09537e-14
-2.72239e-13
1.52627e-14
-2.48922e-13
3.83085e-14
-2.26577e-13
5.87077e-14
-2.05898e-13
7.62803e-14
-1.8642e-13
9.17194e-14
-1.68748e-13
1.05248e-13
-1.5258e-13
1.17076e-13
-1.37937e-13
1.2737e-13
-1.25012e-13
1.36599e-13
-1.13716e-13
1.44948e-13
-1.03781e-13
1.52473e-13
-9.50963e-14
1.59379e-13
-8.7781e-14
1.6595e-13
-8.15783e-14
1.72324e-13
-7.61742e-14
1.78444e-13
-7.13941e-14
1.84413e-13
-6.72668e-14
1.90402e-13
-6.35138e-14
1.9628e-13
-5.97857e-14
2.01937e-13
-5.58384e-14
2.07683e-13
-5.2011e-14
2.12937e-13
-4.76361e-14
2.17849e-13
-4.26451e-14
2.22248e-13
-3.72371e-14
2.26026e-13
-3.11563e-14
2.28895e-13
-2.42762e-14
2.30878e-13
-1.67652e-14
2.31642e-13
-8.59083e-15
2.30991e-13
2.07182e-16
2.29098e-13
9.3231e-15
2.25622e-13
1.8927e-14
2.20637e-13
2.85449e-14
2.14076e-13
3.80163e-14
2.05923e-13
4.72018e-14
1.96238e-13
5.58723e-14
1.85003e-13
6.3866e-14
1.72358e-13
7.0847e-14
1.58259e-13
7.67427e-14
1.42653e-13
8.11921e-14
1.25372e-13
8.38782e-14
1.05603e-13
8.41862e-14
8.13579e-14
8.04665e-14
4.61479e-14
6.88435e-14
4.85376e-15
3.29117e-13
6.40471e-15
3.2369e-13
4.41437e-16
2.0458e-13
3.17934e-21
-5.58361e-19
2.77276e-21
-1.91906e-22
2.74469e-21
-9.04729e-23
2.66766e-21
9.82277e-24
2.60257e-21
1.09033e-22
2.54937e-21
2.05606e-22
2.50372e-21
2.97837e-22
2.46159e-21
3.84536e-22
2.42007e-21
4.64669e-22
2.37711e-21
5.37564e-22
2.3311e-21
6.0286e-22
2.28152e-21
6.60245e-22
2.22791e-21
7.09824e-22
2.17006e-21
7.51856e-22
2.10812e-21
7.86597e-22
2.04221e-21
8.14308e-22
1.97262e-21
8.35659e-22
1.89972e-21
8.51117e-22
1.82367e-21
8.61302e-22
1.74525e-21
8.66885e-22
1.66465e-21
8.68281e-22
1.58214e-21
8.66058e-22
1.49844e-21
8.60992e-22
1.4135e-21
8.53289e-22
1.32783e-21
8.43621e-22
1.2417e-21
8.32351e-22
1.15547e-21
8.19943e-22
1.06913e-21
8.06656e-22
9.83156e-22
7.92904e-22
8.97388e-22
7.79049e-22
8.12395e-22
7.65452e-22
7.27971e-22
7.52062e-22
6.44219e-22
7.39448e-22
5.61087e-22
7.27712e-22
4.78679e-22
7.17011e-22
3.97047e-22
7.0755e-22
3.1619e-22
6.99588e-22
2.35695e-22
6.93074e-22
1.55665e-22
6.88111e-22
7.58938e-23
6.84906e-22
6.83561e-22
-1.6705e-13
1.18467e-12
-3.29747e-13
1.16322e-12
-4.85839e-13
1.1219e-12
-6.32013e-13
1.06164e-12
-7.65435e-13
9.84059e-13
-8.83736e-13
8.91439e-13
-9.85233e-13
7.86548e-13
-1.068e-12
6.71411e-13
-1.13179e-12
5.49901e-13
-1.17713e-12
4.25885e-13
-1.19789e-12
2.94811e-13
-1.2075e-12
1.75177e-13
-1.2064e-12
6.93707e-14
-1.17189e-12
-4.66817e-14
-1.13007e-12
-1.52142e-13
-1.0758e-12
-2.47252e-13
-1.02401e-12
-3.15094e-13
-9.48836e-13
-3.85225e-13
-8.67297e-13
-4.42722e-13
-7.95119e-13
-4.8201e-13
-7.15091e-13
-5.10067e-13
-6.3554e-13
-5.27704e-13
-5.57315e-13
-5.37346e-13
-4.83462e-13
-5.3538e-13
-4.12485e-13
-5.27023e-13
-3.45959e-13
-5.12391e-13
-2.84137e-13
-4.92888e-13
-2.27294e-13
-4.69557e-13
-1.75486e-13
-4.43533e-13
-1.28683e-13
-4.15684e-13
-8.67483e-14
-3.8684e-13
-4.94365e-14
-3.57697e-13
-1.65315e-14
-3.28828e-13
1.23271e-14
-3.0072e-13
3.7358e-14
-2.73634e-13
5.92443e-14
-2.48201e-13
7.80889e-14
-2.24543e-13
9.42408e-14
-2.02429e-13
1.0791e-13
-1.82332e-13
1.19717e-13
-1.64366e-13
1.29971e-13
-1.48227e-13
1.38816e-13
-1.33951e-13
1.46462e-13
-1.21517e-13
1.5342e-13
-1.10952e-13
1.59853e-13
-1.01802e-13
1.65761e-13
-9.4018e-14
1.71455e-13
-8.76601e-14
1.77003e-13
-8.21661e-14
1.82644e-13
-7.75316e-14
1.88349e-13
-7.35274e-14
1.94119e-13
-6.98928e-14
1.9992e-13
-6.62505e-14
2.06017e-13
-6.26508e-14
2.12033e-13
-5.87941e-14
2.17696e-13
-5.41169e-14
2.2331e-13
-4.91235e-14
2.28407e-13
-4.32452e-14
2.32899e-13
-3.66052e-14
2.36472e-13
-2.88516e-14
2.39035e-13
-2.03738e-14
2.40364e-13
-1.10013e-14
2.40227e-13
-7.80896e-16
2.38554e-13
9.83599e-15
2.3525e-13
2.10352e-14
2.30164e-13
3.24006e-14
2.23283e-13
4.36364e-14
2.14599e-13
5.45953e-14
2.04171e-13
6.49849e-14
1.92025e-13
7.4667e-14
1.78188e-13
8.33177e-14
1.62698e-13
9.08447e-14
1.45369e-13
9.71131e-14
1.25598e-13
1.02226e-13
1.01681e-13
1.06665e-13
6.87011e-14
1.11995e-13
9.41613e-15
1.2667e-13
1.12667e-14
3.25802e-13
5.48719e-15
3.27996e-13
4.28842e-16
2.08468e-13
3.12628e-21
-6.10468e-19
2.87414e-21
-2.11551e-22
2.84504e-21
-9.52292e-23
2.76687e-21
2.00591e-23
2.69919e-21
1.33796e-22
2.64165e-21
2.43967e-22
2.59042e-21
3.48967e-22
2.54172e-21
4.47246e-22
2.49297e-21
5.37719e-22
2.4423e-21
6.19507e-22
2.38854e-21
6.92247e-22
2.33115e-21
7.55836e-22
2.26994e-21
8.10379e-22
2.20475e-21
8.56029e-22
2.13588e-21
8.93303e-22
2.06351e-21
9.22617e-22
1.98813e-21
9.44744e-22
1.90991e-21
9.60253e-22
1.82926e-21
9.69869e-22
1.74664e-21
9.74212e-22
1.66237e-21
9.7416e-22
1.57707e-21
9.70231e-22
1.49079e-21
9.63045e-22
1.40383e-21
9.53222e-22
1.31656e-21
9.41177e-22
1.22929e-21
9.2758e-22
1.14218e-21
9.12742e-22
1.05538e-21
8.97129e-22
9.69249e-22
8.81051e-22
8.83739e-22
8.65024e-22
7.99108e-22
8.49204e-22
7.15305e-22
8.34057e-22
6.32431e-22
8.19529e-22
5.50437e-22
8.06088e-22
4.6927e-22
7.93887e-22
3.89085e-22
7.83237e-22
3.09572e-22
7.74086e-22
2.30732e-22
7.66745e-22
1.5246e-22
7.61265e-22
7.4498e-23
7.57698e-22
7.5625e-22
-1.87911e-13