/*--------------------------------*- C++ -*----------------------------------*\
  =========                 |
  \\      /  F ield         | OpenFOAM: The Open Source CFD Toolbox
   \\    /   O peration     | Website:  https://openfoam.org
    \\  /    A nd           | Version:  6
     \\/     M anipulation  |
\*---------------------------------------------------------------------------*/
FoamFile
{
    version     2.0;
    format      ascii;
    class       volVectorField;
    location    "1500";
    object      U;
}
// * * * * * * * * * * * * * * * * * * * * * * * * * * * * * * * * * * * * * //

dimensions      [0 1 -1 0 0 0 0];

internalField   nonuniform List<vector> 
4800
(
(-1.75606e-08 0 1.87932e-08)
(-5.45967e-08 0 1.60851e-08)
(-8.9568e-08 0 1.46831e-08)
(-1.23456e-07 0 1.37126e-08)
(-1.55507e-07 0 1.27687e-08)
(-1.85249e-07 0 1.17393e-08)
(-2.12278e-07 0 1.05956e-08)
(-2.36271e-07 0 9.34133e-09)
(-2.56974e-07 0 7.98535e-09)
(-2.74204e-07 0 6.53979e-09)
(-2.87851e-07 0 5.03853e-09)
(-2.97879e-07 0 3.49702e-09)
(-3.04335e-07 0 1.93928e-09)
(-3.07306e-07 0 3.90323e-10)
(-3.06956e-07 0 -9.98417e-10)
(-3.0365e-07 0 -2.26921e-09)
(-2.97815e-07 0 -3.44358e-09)
(-2.89189e-07 0 -4.8752e-09)
(-2.78047e-07 0 -5.88835e-09)
(-2.65293e-07 0 -6.53643e-09)
(-2.51309e-07 0 -6.95434e-09)
(-2.35717e-07 0 -8.10786e-09)
(-2.19031e-07 0 -8.17824e-09)
(-2.02037e-07 0 -8.3961e-09)
(-1.84647e-07 0 -8.54767e-09)
(-1.67094e-07 0 -8.53144e-09)
(-1.49725e-07 0 -8.3932e-09)
(-1.32684e-07 0 -8.18757e-09)
(-1.16123e-07 0 -7.90565e-09)
(-1.00163e-07 0 -7.58503e-09)
(-8.49003e-08 0 -7.20985e-09)
(-7.04182e-08 0 -6.81143e-09)
(-5.67649e-08 0 -6.39066e-09)
(-4.39733e-08 0 -5.96847e-09)
(-3.20405e-08 0 -5.54741e-09)
(-2.09718e-08 0 -5.1209e-09)
(-1.07563e-08 0 -4.72121e-09)
(-1.3661e-09 0 -4.32799e-09)
(7.26805e-09 0 -3.97014e-09)
(1.51532e-08 0 -3.62718e-09)
(2.23573e-08 0 -3.31632e-09)
(2.89347e-08 0 -3.02245e-09)
(3.49186e-08 0 -2.7656e-09)
(4.03763e-08 0 -2.52284e-09)
(4.53353e-08 0 -2.30129e-09)
(4.98593e-08 0 -2.11352e-09)
(5.39815e-08 0 -1.94032e-09)
(5.77366e-08 0 -1.77336e-09)
(6.11574e-08 0 -1.63607e-09)
(6.42708e-08 0 -1.49863e-09)
(6.70977e-08 0 -1.37777e-09)
(6.96512e-08 0 -1.2556e-09)
(7.19349e-08 0 -1.13626e-09)
(7.39501e-08 0 -1.01333e-09)
(7.5685e-08 0 -8.8124e-10)
(7.71421e-08 0 -7.64131e-10)
(7.83298e-08 0 -6.25989e-10)
(7.92044e-08 0 -4.89317e-10)
(7.97886e-08 0 -3.4155e-10)
(8.00342e-08 0 -1.88702e-10)
(7.99584e-08 0 -3.22211e-11)
(7.95367e-08 0 1.26553e-10)
(7.87737e-08 0 2.88643e-10)
(7.76589e-08 0 4.52989e-10)
(7.61977e-08 0 6.12637e-10)
(7.44085e-08 0 7.58187e-10)
(7.23089e-08 0 9.00119e-10)
(6.99214e-08 0 1.02458e-09)
(6.72934e-08 0 1.11765e-09)
(6.44942e-08 0 1.17896e-09)
(6.15974e-08 0 1.19535e-09)
(5.87243e-08 0 1.14483e-09)
(5.609e-08 0 9.66852e-10)
(5.41475e-08 0 5.12175e-10)
(5.40849e-08 0 -8.14191e-10)
(5.93953e-08 0 -4.73426e-09)
(7.89908e-08 0 -1.71425e-08)
(4.09844e-08 0 2.33318e-08)
(4.81703e-10 0 1.97245e-08)
(2.23889e-14 0 -1.4992e-14)
(4.77452e-16 0 -5.05614e-18)
(9.53863e-16 0 2.68834e-19)
(9.38798e-16 0 1.12703e-18)
(9.11977e-16 0 1.62334e-18)
(8.91329e-16 0 2.38848e-18)
(8.76801e-16 0 3.44314e-18)
(8.6643e-16 0 4.65289e-18)
(8.58355e-16 0 5.99706e-18)
(8.51179e-16 0 7.33089e-18)
(8.43807e-16 0 8.64404e-18)
(8.35535e-16 0 9.94685e-18)
(8.25826e-16 0 1.11669e-17)
(8.14297e-16 0 1.22733e-17)
(8.00773e-16 0 1.32969e-17)
(7.85119e-16 0 1.41965e-17)
(7.67334e-16 0 1.50133e-17)
(7.47451e-16 0 1.56854e-17)
(7.25562e-16 0 1.62851e-17)
(7.01801e-16 0 1.67504e-17)
(6.76303e-16 0 1.71537e-17)
(6.49233e-16 0 1.74328e-17)
(6.20737e-16 0 1.76603e-17)
(5.9099e-16 0 1.78051e-17)
(5.60167e-16 0 1.78774e-17)
(5.28444e-16 0 1.78671e-17)
(4.95978e-16 0 1.78361e-17)
(4.62911e-16 0 1.7743e-17)
(4.29348e-16 0 1.76293e-17)
(3.95392e-16 0 1.75156e-17)
(3.61157e-16 0 1.73605e-17)
(3.26736e-16 0 1.72054e-17)
(2.92202e-16 0 1.70296e-17)
(2.57594e-16 0 1.68641e-17)
(2.22967e-16 0 1.6709e-17)
(1.88359e-16 0 1.6554e-17)
(1.53794e-16 0 1.64092e-17)
(1.19259e-16 0 1.62955e-17)
(8.48067e-17 0 1.6161e-17)
(5.05718e-17 0 1.59956e-17)
(1.67607e-17 0 1.56441e-17)
(-1.77002e-08 0 5.56567e-08)
(-5.52428e-08 0 5.69406e-08)
(-9.10178e-08 0 5.594e-08)
(-1.25557e-07 0 5.35621e-08)
(-1.58141e-07 0 5.02504e-08)
(-1.88317e-07 0 4.62066e-08)
(-2.15701e-07 0 4.15649e-08)
(-2.39964e-07 0 3.64592e-08)
(-2.60839e-07 0 3.10119e-08)
(-2.78151e-07 0 2.53513e-08)
(-2.91799e-07 0 1.96045e-08)
(-3.01743e-07 0 1.38747e-08)
(-3.08035e-07 0 8.24384e-09)
(-3.10769e-07 0 2.82997e-09)
(-3.10174e-07 0 -1.88177e-09)
(-3.06639e-07 0 -6.07619e-09)
(-3.00489e-07 0 -9.95145e-09)
(-2.9141e-07 0 -1.44713e-08)
(-2.7996e-07 0 -1.76169e-08)
(-2.6691e-07 0 -1.9623e-08)
(-2.52576e-07 0 -2.10411e-08)
(-2.36585e-07 0 -2.44587e-08)
(-2.19676e-07 0 -2.47628e-08)
(-2.024e-07 0 -2.54366e-08)
(-1.84753e-07 0 -2.59653e-08)
(-1.66984e-07 0 -2.59239e-08)
(-1.49436e-07 0 -2.55511e-08)
(-1.32235e-07 0 -2.49582e-08)
(-1.15536e-07 0 -2.415e-08)
(-9.94672e-08 0 -2.31904e-08)
(-8.41336e-08 0 -2.20829e-08)
(-6.96029e-08 0 -2.08875e-08)
(-5.59168e-08 0 -1.96395e-08)
(-4.31134e-08 0 -1.83559e-08)
(-3.11991e-08 0 -1.70848e-08)
(-2.01492e-08 0 -1.58159e-08)
(-9.9557e-09 0 -1.45972e-08)
(-6.02652e-10 0 -1.34071e-08)
(7.99095e-09 0 -1.2318e-08)
(1.58291e-08 0 -1.12767e-08)
(2.29791e-08 0 -1.03163e-08)
(2.95048e-08 0 -9.43353e-09)
(3.54369e-08 0 -8.63305e-09)
(4.08372e-08 0 -7.89194e-09)
(4.57583e-08 0 -7.22491e-09)
(5.02496e-08 0 -6.63015e-09)
(5.4333e-08 0 -6.09925e-09)
(5.80668e-08 0 -5.59257e-09)
(6.14712e-08 0 -5.15738e-09)
(6.45661e-08 0 -4.73021e-09)
(6.73748e-08 0 -4.3505e-09)
(6.9913e-08 0 -3.97298e-09)
(7.21844e-08 0 -3.59961e-09)
(7.41954e-08 0 -3.22646e-09)
(7.59467e-08 0 -2.82796e-09)
(7.7423e-08 0 -2.45632e-09)
(7.86272e-08 0 -2.03874e-09)
(7.95177e-08 0 -1.60876e-09)
(8.01053e-08 0 -1.14896e-09)
(8.03576e-08 0 -6.88861e-10)
(8.02944e-08 0 -2.02086e-10)
(7.98831e-08 0 2.88128e-10)
(7.91239e-08 0 7.9956e-10)
(7.80005e-08 0 1.31497e-09)
(7.65253e-08 0 1.81692e-09)
(7.47115e-08 0 2.28549e-09)
(7.25751e-08 0 2.7356e-09)
(7.01488e-08 0 3.13223e-09)
(6.74709e-08 0 3.44447e-09)
(6.45976e-08 0 3.66225e-09)
(6.15776e-08 0 3.76572e-09)
(5.84803e-08 0 3.68518e-09)
(5.53912e-08 0 3.28467e-09)
(5.23317e-08 0 2.2779e-09)
(4.89542e-08 0 -1.2007e-10)
(4.37368e-08 0 -6.07702e-09)
(2.68832e-08 0 -2.21648e-08)
(1.78531e-08 0 5.62233e-08)
(3.84672e-10 0 4.58054e-08)
(1.66385e-14 0 -4.02379e-14)
(4.82774e-16 0 -1.36071e-17)
(9.60047e-16 0 -4.3427e-18)
(9.40163e-16 0 5.16986e-20)
(9.13228e-16 0 4.04285e-18)
(8.93159e-16 0 8.3752e-18)
(8.79086e-16 0 1.29454e-17)
(8.68974e-16 0 1.75879e-17)
(8.61043e-16 0 2.22201e-17)
(8.53847e-16 0 2.66352e-17)
(8.46433e-16 0 3.08125e-17)
(8.38068e-16 0 3.47106e-17)
(8.28153e-16 0 3.82778e-17)
(8.16438e-16 0 4.14624e-17)
(8.02717e-16 0 4.42645e-17)
(7.86845e-16 0 4.6684e-17)
(7.68833e-16 0 4.87726e-17)
(7.48723e-16 0 5.04787e-17)
(7.26616e-16 0 5.18952e-17)
(7.02669e-16 0 5.29602e-17)
(6.76985e-16 0 5.37564e-17)
(6.4973e-16 0 5.43044e-17)
(6.21099e-16 0 5.45939e-17)
(5.91207e-16 0 5.46973e-17)
(5.60229e-16 0 5.46146e-17)
(5.28403e-16 0 5.43768e-17)
(4.95853e-16 0 5.40149e-17)
(4.62704e-16 0 5.35393e-17)
(4.2911e-16 0 5.30119e-17)
(3.95113e-16 0 5.24329e-17)
(3.60847e-16 0 5.17919e-17)
(3.26406e-16 0 5.11611e-17)
(2.91871e-16 0 5.05407e-17)
(2.57274e-16 0 4.99204e-17)
(2.22646e-16 0 4.9362e-17)
(1.8806e-16 0 4.88347e-17)
(1.53535e-16 0 4.83694e-17)
(1.19021e-16 0 4.79558e-17)
(8.45275e-17 0 4.76042e-17)
(5.00548e-17 0 4.7263e-17)
(1.63989e-17 0 4.67977e-17)
(-1.85273e-08 0 9.32607e-08)
(-5.73937e-08 0 9.18528e-08)
(-9.39029e-08 0 8.89774e-08)
(-1.29196e-07 0 8.47996e-08)
(-1.62541e-07 0 7.94287e-08)
(-1.93432e-07 0 7.29967e-08)
(-2.21432e-07 0 6.56588e-08)
(-2.46186e-07 0 5.75871e-08)
(-2.67434e-07 0 4.89563e-08)
(-2.8498e-07 0 3.99561e-08)
(-2.98716e-07 0 3.07831e-08)
(-3.08617e-07 0 2.15939e-08)
(-3.14728e-07 0 1.2505e-08)
(-3.17163e-07 0 3.7641e-09)
(-3.16229e-07 0 -3.92281e-09)
(-3.12316e-07 0 -1.05194e-08)
(-3.05602e-07 0 -1.75163e-08)
(-2.95734e-07 0 -2.46944e-08)
(-2.83727e-07 0 -2.97333e-08)
(-2.70143e-07 0 -3.29681e-08)
(-2.55078e-07 0 -3.59547e-08)
(-2.38298e-07 0 -4.09208e-08)
(-2.20926e-07 0 -4.16423e-08)
(-2.03088e-07 0 -4.26777e-08)
(-1.84918e-07 0 -4.36012e-08)
(-1.66721e-07 0 -4.33906e-08)
(-1.48806e-07 0 -4.27577e-08)
(-1.3129e-07 0 -4.17148e-08)
(-1.14341e-07 0 -4.03352e-08)
(-9.80828e-08 0 -3.86737e-08)
(-8.2609e-08 0 -3.67917e-08)
(-6.7979e-08 0 -3.4773e-08)
(-5.42359e-08 0 -3.26715e-08)
(-4.14103e-08 0 -3.05055e-08)
(-2.95003e-08 0 -2.83596e-08)
(-1.84929e-08 0 -2.62494e-08)
(-8.36338e-09 0 -2.42021e-08)
(9.08049e-10 0 -2.22161e-08)
(9.4166e-09 0 -2.04071e-08)
(1.71591e-08 0 -1.86798e-08)
(2.42203e-08 0 -1.70767e-08)
(3.06422e-08 0 -1.56136e-08)
(3.6457e-08 0 -1.42884e-08)
(4.17688e-08 0 -1.30724e-08)
(4.66021e-08 0 -1.19943e-08)
(5.10112e-08 0 -1.10015e-08)
(5.50141e-08 0 -1.01359e-08)
(5.86806e-08 0 -9.32505e-09)
(6.20292e-08 0 -8.6037e-09)
(6.50879e-08 0 -7.92569e-09)
(6.78758e-08 0 -7.29603e-09)
(7.03997e-08 0 -6.69193e-09)
(7.26714e-08 0 -6.08247e-09)
(7.46916e-08 0 -5.48558e-09)
(7.64485e-08 0 -4.84068e-09)
(7.79468e-08 0 -4.23871e-09)
(7.91812e-08 0 -3.55083e-09)
(8.00952e-08 0 -2.83825e-09)
(8.07224e-08 0 -2.07756e-09)
(8.09986e-08 0 -1.32141e-09)
(8.09505e-08 0 -5.15923e-10)
(8.05466e-08 0 2.96946e-10)
(7.97816e-08 0 1.14879e-09)
(7.86547e-08 0 1.99966e-09)
(7.71617e-08 0 2.83724e-09)
(7.53028e-08 0 3.6313e-09)
(7.31046e-08 0 4.37098e-09)
(7.0604e-08 0 5.02825e-09)
(6.78271e-08 0 5.55901e-09)
(6.48167e-08 0 5.95231e-09)
(6.15998e-08 0 6.19328e-09)
(5.82208e-08 0 6.17443e-09)
(5.4663e-08 0 5.85128e-09)
(5.074e-08 0 5.0692e-09)
(4.58274e-08 0 3.6832e-09)
(3.83625e-08 0 1.65524e-09)
(2.27411e-08 0 4.44316e-10)
(1.18766e-08 0 5.77108e-08)
(3.65968e-10 0 5.67832e-08)
(1.59228e-14 0 -6.30532e-14)
(4.86696e-16 0 -2.13413e-17)
(9.67512e-16 0 -1.17253e-17)
(9.47205e-16 0 -2.54358e-18)
(9.2029e-16 0 6.61745e-18)
(9.00231e-16 0 1.58302e-17)
(8.86035e-16 0 2.48671e-17)
(8.75684e-16 0 3.35835e-17)
(8.67402e-16 0 4.18864e-17)
(8.59782e-16 0 4.96205e-17)
(8.51882e-16 0 5.6786e-17)
(8.43001e-16 0 6.3238e-17)
(8.32578e-16 0 6.90282e-17)
(8.20305e-16 0 7.41464e-17)
(8.06026e-16 0 7.85201e-17)
(7.89637e-16 0 8.22528e-17)
(7.71129e-16 0 8.5334e-17)
(7.50563e-16 0 8.78362e-17)
(7.28022e-16 0 8.97698e-17)
(7.03662e-16 0 9.11553e-17)
(6.77626e-16 0 9.20756e-17)
(6.5004e-16 0 9.25822e-17)
(6.21109e-16 0 9.26753e-17)
(5.91e-16 0 9.24891e-17)
(5.59857e-16 0 9.20342e-17)
(5.27865e-16 0 9.13724e-17)
(4.9515e-16 0 9.04936e-17)
(4.61908e-16 0 8.9501e-17)
(4.28231e-16 0 8.83739e-17)
(3.94162e-16 0 8.71848e-17)
(3.59886e-16 0 8.59544e-17)
(3.25485e-16 0 8.47447e-17)
(2.90971e-16 0 8.35763e-17)
(2.56426e-16 0 8.24389e-17)
(2.21891e-16 0 8.13946e-17)
(1.87377e-16 0 8.04743e-17)
(1.52915e-16 0 7.96472e-17)
(1.18494e-16 0 7.89441e-17)
(8.41346e-17 0 7.83857e-17)
(4.97859e-17 0 7.79928e-17)
(1.62955e-17 0 7.7755e-17)
(-1.92863e-08 0 1.33347e-07)
(-5.98776e-08 0 1.31329e-07)
(-9.80754e-08 0 1.27287e-07)
(-1.34924e-07 0 1.21335e-07)
(-1.69653e-07 0 1.13632e-07)
(-2.01744e-07 0 1.04387e-07)
(-2.30756e-07 0 9.38154e-08)
(-2.56305e-07 0 8.21779e-08)
(-2.78109e-07 0 6.97471e-08)
(-2.95977e-07 0 5.67831e-08)
(-3.09809e-07 0 4.3585e-08)
(-3.19579e-07 0 3.03683e-08)
(-3.25326e-07 0 1.73096e-08)
(-3.27214e-07 0 4.83318e-09)
(-3.25693e-07 0 -6.0378e-09)
(-3.21126e-07 0 -1.53258e-08)
(-3.13421e-07 0 -2.58679e-08)
(-3.02312e-07 0 -3.57595e-08)
(-2.89464e-07 0 -4.26638e-08)
(-2.75071e-07 0 -4.69617e-08)
(-2.5879e-07 0 -5.2009e-08)
(-2.40834e-07 0 -5.79697e-08)
(-2.22762e-07 0 -5.92716e-08)
(-2.04061e-07 0 -6.06117e-08)
(-1.85088e-07 0 -6.19355e-08)
(-1.66274e-07 0 -6.13775e-08)
(-1.47802e-07 0 -6.04388e-08)
(-1.29827e-07 0 -5.88679e-08)
(-1.12501e-07 0 -5.68421e-08)
(-9.59521e-08 0 -5.44103e-08)
(-8.02633e-08 0 -5.17028e-08)
(-6.54863e-08 0 -4.88056e-08)
(-5.16682e-08 0 -4.57835e-08)
(-3.88224e-08 0 -4.27064e-08)
(-2.69317e-08 0 -3.96408e-08)
(-1.59876e-08 0 -3.66518e-08)
(-5.96307e-09 0 -3.37521e-08)
(3.18948e-09 0 -3.09525e-08)
(1.15703e-08 0 -2.84031e-08)
(1.91503e-08 0 -2.59773e-08)
(2.60454e-08 0 -2.37404e-08)
(3.23361e-08 0 -2.16767e-08)
(3.7987e-08 0 -1.98297e-08)
(4.31504e-08 0 -1.8147e-08)
(4.7832e-08 0 -1.66498e-08)
(5.21181e-08 0 -1.52788e-08)
(5.6015e-08 0 -1.40833e-08)
(5.9587e-08 0 -1.29762e-08)
(6.28609e-08 0 -1.19792e-08)
(6.58592e-08 0 -1.10668e-08)
(6.86065e-08 0 -1.01977e-08)
(7.11055e-08 0 -9.36921e-09)
(7.33716e-08 0 -8.54693e-09)
(7.54085e-08 0 -7.72607e-09)
(7.71975e-08 0 -6.83733e-09)
(7.87316e-08 0 -6.0096e-09)
(7.99904e-08 0 -5.04047e-09)
(8.09509e-08 0 -4.05486e-09)
(8.16242e-08 0 -2.99322e-09)
(8.19561e-08 0 -1.92257e-09)
(8.19364e-08 0 -7.81046e-10)
(8.15636e-08 0 3.77637e-10)
(8.08052e-08 0 1.58486e-09)
(7.96631e-08 0 2.8006e-09)
(7.81308e-08 0 3.99877e-09)
(7.62239e-08 0 5.15034e-09)
(7.39545e-08 0 6.21173e-09)
(7.13443e-08 0 7.17058e-09)
(6.84179e-08 0 7.96763e-09)
(6.52158e-08 0 8.58338e-09)
(6.17803e-08 0 9.01883e-09)
(5.81389e-08 0 9.15581e-09)
(5.42829e-08 0 9.03333e-09)
(5.01301e-08 0 8.67159e-09)
(4.54666e-08 0 8.27452e-09)
(4.0251e-08 0 8.57842e-09)
(3.45831e-08 0 1.20244e-08)
(9.8353e-09 0 7.04566e-08)
(3.57797e-10 0 6.45584e-08)
(1.58659e-14 0 -8.85821e-14)
(4.92398e-16 0 -2.99853e-17)
(9.78844e-16 0 -1.64712e-17)
(9.58516e-16 0 -3.01921e-18)
(9.31612e-16 0 1.04225e-17)
(9.11408e-16 0 2.37711e-17)
(8.9685e-16 0 3.67785e-17)
(8.85983e-16 0 4.92276e-17)
(8.7706e-16 0 6.09839e-17)
(8.68736e-16 0 7.1882e-17)
(8.60051e-16 0 8.19012e-17)
(8.50321e-16 0 9.08865e-17)
(8.39061e-16 0 9.88895e-17)
(8.2593e-16 0 1.0591e-16)
(8.10834e-16 0 1.11938e-16)
(7.9367e-16 0 1.17015e-16)
(7.74417e-16 0 1.21161e-16)
(7.53148e-16 0 1.2447e-16)
(7.29935e-16 0 1.26993e-16)
(7.04985e-16 0 1.28761e-16)
(6.78402e-16 0 1.29878e-16)
(6.5034e-16 0 1.30384e-16)
(6.21006e-16 0 1.30395e-16)
(5.90545e-16 0 1.29971e-16)
(5.59122e-16 0 1.29185e-16)
(5.26873e-16 0 1.28089e-16)
(4.93972e-16 0 1.26765e-16)
(4.60595e-16 0 1.25266e-16)
(4.26815e-16 0 1.23591e-16)
(3.92704e-16 0 1.21864e-16)
(3.58417e-16 0 1.20096e-16)
(3.24027e-16 0 1.18349e-16)
(2.89565e-16 0 1.16663e-16)
(2.55113e-16 0 1.1504e-16)
(2.20692e-16 0 1.13541e-16)
(1.86322e-16 0 1.12228e-16)
(1.52005e-16 0 1.11049e-16)
(1.17739e-16 0 1.10077e-16)
(8.35659e-17 0 1.09333e-16)
(4.9424e-17 0 1.08816e-16)
(1.61714e-17 0 1.08557e-16)
(-2.03711e-08 0 1.75179e-07)
(-6.33549e-08 0 1.72496e-07)
(-1.03847e-07 0 1.67138e-07)
(-1.42835e-07 0 1.59234e-07)
(-1.7949e-07 0 1.49003e-07)
(-2.13257e-07 0 1.36713e-07)
(-2.4365e-07 0 1.22667e-07)
(-2.70269e-07 0 1.07203e-07)
(-2.92817e-07 0 9.07129e-08)
(-3.11105e-07 0 7.3541e-08)
(-3.25026e-07 0 5.60748e-08)
(-3.34571e-07 0 3.86077e-08)
(-3.39783e-07 0 2.1357e-08)
(-3.40956e-07 0 5.13718e-09)
(-3.38665e-07 0 -8.94039e-09)
(-3.32922e-07 0 -2.04493e-08)
(-3.23708e-07 0 -3.62406e-08)
(-3.11301e-07 0 -4.83297e-08)
(-2.97209e-07 0 -5.63103e-08)
(-2.8152e-07 0 -6.09731e-08)
(-2.63463e-07 0 -7.15603e-08)
(-2.44348e-07 0 -7.53931e-08)
(-2.25043e-07 0 -7.79491e-08)
(-2.05202e-07 0 -7.96044e-08)
(-1.85182e-07 0 -8.10785e-08)
(-1.65557e-07 0 -8.00696e-08)
(-1.46314e-07 0 -7.87203e-08)
(-1.27721e-07 0 -7.65245e-08)
(-1.09899e-07 0 -7.3736e-08)
(-9.2973e-08 0 -7.04416e-08)
(-7.70047e-08 0 -6.68228e-08)
(-6.20564e-08 0 -6.29553e-08)
(-4.8152e-08 0 -5.8948e-08)
(-3.5291e-08 0 -5.48988e-08)
(-2.34482e-08 0 -5.08705e-08)
(-1.25924e-08 0 -4.69528e-08)
(-2.71675e-09 0 -4.31597e-08)
(6.26799e-09 0 -3.95488e-08)
(1.44626e-08 0 -3.62284e-08)
(2.18376e-08 0 -3.30812e-08)
(2.84898e-08 0 -3.02105e-08)
(3.45709e-08 0 -2.75561e-08)
(3.99969e-08 0 -2.51889e-08)
(4.49652e-08 0 -2.30529e-08)
(4.94639e-08 0 -2.11434e-08)
(5.35802e-08 0 -1.9424e-08)
(5.73317e-08 0 -1.7902e-08)
(6.07671e-08 0 -1.65282e-08)
(6.39464e-08 0 -1.5279e-08)
(6.68691e-08 0 -1.41442e-08)
(6.95681e-08 0 -1.30712e-08)
(7.20474e-08 0 -1.20267e-08)
(7.43123e-08 0 -1.10191e-08)
(7.63633e-08 0 -9.98809e-09)
(7.81805e-08 0 -8.87126e-09)
(7.9769e-08 0 -7.8133e-09)
(8.10867e-08 0 -6.58426e-09)
(8.21271e-08 0 -5.32253e-09)
(8.28499e-08 0 -3.97277e-09)
(8.32575e-08 0 -2.55634e-09)
(8.32637e-08 0 -1.08476e-09)
(8.29263e-08 0 4.3817e-10)
(8.21808e-08 0 2.02151e-09)
(8.10323e-08 0 3.6168e-09)
(7.94756e-08 0 5.20682e-09)
(7.74957e-08 0 6.73445e-09)
(7.51149e-08 0 8.14496e-09)
(7.23589e-08 0 9.45392e-09)
(6.92632e-08 0 1.05486e-08)
(6.58426e-08 0 1.14387e-08)
(6.21527e-08 0 1.2073e-08)
(5.82556e-08 0 1.24063e-08)
(5.42029e-08 0 1.24495e-08)
(5.00639e-08 0 1.23104e-08)
(4.59146e-08 0 1.22714e-08)
(4.21039e-08 0 1.29231e-08)
(3.79138e-08 0 1.60112e-08)
(9.03203e-09 0 9.6487e-08)
(3.51748e-10 0 7.32804e-08)
(1.57437e-14 0 -1.14348e-13)
(5.00245e-16 0 -3.87224e-17)
(9.94499e-16 0 -2.08346e-17)
(9.74098e-16 0 -3.03989e-18)
(9.47081e-16 0 1.47445e-17)
(9.26597e-16 0 3.226e-17)
(9.11501e-16 0 4.92586e-17)
(8.9988e-16 0 6.54714e-17)
(8.90046e-16 0 8.06915e-17)
(8.80699e-16 0 9.48052e-17)
(8.70887e-16 0 1.07658e-16)
(8.59989e-16 0 1.19217e-16)
(8.47591e-16 0 1.29454e-16)
(8.33354e-16 0 1.38367e-16)
(8.1713e-16 0 1.45977e-16)
(7.9887e-16 0 1.52336e-16)
(7.78605e-16 0 1.57516e-16)
(7.56395e-16 0 1.6159e-16)
(7.32324e-16 0 1.64619e-16)
(7.06547e-16 0 1.66739e-16)
(6.79239e-16 0 1.6799e-16)
(6.50588e-16 0 1.68497e-16)
(6.20727e-16 0 1.68362e-16)
(5.8979e-16 0 1.67649e-16)
(5.57985e-16 0 1.66491e-16)
(5.25436e-16 0 1.64929e-16)
(4.92307e-16 0 1.63099e-16)
(4.58734e-16 0 1.61031e-16)
(4.24819e-16 0 1.58808e-16)
(3.90667e-16 0 1.56492e-16)
(3.5637e-16 0 1.54155e-16)
(3.22042e-16 0 1.5186e-16)
(2.87673e-16 0 1.49637e-16)
(2.53314e-16 0 1.47517e-16)
(2.19058e-16 0 1.45573e-16)
(1.84875e-16 0 1.43826e-16)
(1.50764e-16 0 1.42306e-16)
(1.16767e-16 0 1.41045e-16)
(8.28525e-17 0 1.40114e-16)
(4.90105e-17 0 1.39473e-16)
(1.60576e-17 0 1.39152e-16)
(-2.18239e-08 0 2.196e-07)
(-6.79345e-08 0 2.16109e-07)
(-1.11334e-07 0 2.09248e-07)
(-1.53064e-07 0 1.99176e-07)
(-1.92197e-07 0 1.86175e-07)
(-2.28109e-07 0 1.70556e-07)
(-2.60267e-07 0 1.52724e-07)
(-2.88261e-07 0 1.33118e-07)
(-3.11765e-07 0 1.12219e-07)
(-3.30565e-07 0 9.04895e-08)
(-3.44576e-07 0 6.84003e-08)
(-3.53781e-07 0 4.63272e-08)
(-3.58223e-07 0 2.46606e-08)
(-3.58582e-07 0 4.36186e-09)
(-3.55407e-07 0 -1.29508e-08)
(-3.48017e-07 0 -2.82013e-08)
(-3.3648e-07 0 -4.74951e-08)
(-3.22724e-07 0 -6.17654e-08)
(-3.07041e-07 0 -7.17095e-08)
(-2.89288e-07 0 -7.79662e-08)
(-2.6914e-07 0 -9.09481e-08)
(-2.48659e-07 0 -9.46878e-08)
(-2.27698e-07 0 -9.79271e-08)
(-2.06387e-07 0 -9.99745e-08)
(-1.8511e-07 0 -1.01047e-07)
(-1.64413e-07 0 -9.97466e-08)
(-1.44227e-07 0 -9.776e-08)
(-1.2487e-07 0 -9.48056e-08)
(-1.06446e-07 0 -9.11069e-08)
(-8.90539e-08 0 -8.68439e-08)
(-7.276e-08 0 -8.21869e-08)
(-5.76147e-08 0 -7.72412e-08)
(-4.36084e-08 0 -7.21693e-08)
(-3.07478e-08 0 -6.70577e-08)
(-1.89981e-08 0 -6.20115e-08)
(-8.26835e-09 0 -5.7103e-08)
(1.38151e-09 0 -5.23656e-08)
(1.01502e-08 0 -4.79515e-08)
(1.80753e-08 0 -4.38115e-08)
(2.51894e-08 0 -3.99369e-08)
(3.15548e-08 0 -3.64185e-08)
(3.73343e-08 0 -3.32002e-08)
(4.254e-08 0 -3.02999e-08)
(4.72055e-08 0 -2.77336e-08)
(5.14634e-08 0 -2.54305e-08)
(5.53529e-08 0 -2.3384e-08)
(5.89275e-08 0 -2.15548e-08)
(6.21822e-08 0 -1.99467e-08)
(6.52322e-08 0 -1.8483e-08)
(6.80713e-08 0 -1.71476e-08)
(7.07059e-08 0 -1.58985e-08)
(7.31605e-08 0 -1.46776e-08)
(7.54387e-08 0 -1.35043e-08)
(7.75179e-08 0 -1.2254e-08)
(7.93842e-08 0 -1.09748e-08)
(8.10491e-08 0 -9.69391e-09)
(8.24456e-08 0 -8.18368e-09)
(8.35681e-08 0 -6.67015e-09)
(8.43906e-08 0 -5.01988e-09)
(8.48867e-08 0 -3.26629e-09)
(8.49817e-08 0 -1.40992e-09)
(8.46728e-08 0 4.4574e-10)
(8.39815e-08 0 2.46113e-09)
(8.28255e-08 0 4.46588e-09)
(8.12141e-08 0 6.46903e-09)
(7.91576e-08 0 8.4098e-09)
(7.66603e-08 0 1.02615e-08)
(7.37449e-08 0 1.19023e-08)
(7.04251e-08 0 1.33418e-08)
(6.67432e-08 0 1.45532e-08)
(6.27543e-08 0 1.54366e-08)
(5.85297e-08 0 1.59514e-08)
(5.42016e-08 0 1.60619e-08)
(4.99711e-08 0 1.58407e-08)
(4.61145e-08 0 1.54524e-08)
(4.32446e-08 0 1.51851e-08)
(3.79858e-08 0 2.14923e-08)
(5.90449e-09 0 1.26007e-07)
(3.45347e-10 0 7.78413e-08)
(1.55811e-14 0 -1.39699e-13)
(5.10293e-16 0 -4.73458e-17)
(1.01454e-15 0 -2.49292e-17)
(9.94095e-16 0 -2.63664e-18)
(9.66902e-16 0 1.96455e-17)
(9.45922e-16 0 4.14728e-17)
(9.30061e-16 0 6.25659e-17)
(9.17416e-16 0 8.26147e-17)
(9.06394e-16 0 1.01361e-16)
(8.95692e-16 0 1.18731e-16)
(8.84463e-16 0 1.34489e-16)
(8.72117e-16 0 1.48624e-16)
(8.582e-16 0 1.61052e-16)
(8.42463e-16 0 1.71826e-16)
(8.24803e-16 0 1.80977e-16)
(8.05198e-16 0 1.88556e-16)
(7.83671e-16 0 1.94687e-16)
(7.60241e-16 0 1.99444e-16)
(7.35074e-16 0 2.02918e-16)
(7.08346e-16 0 2.05286e-16)
(6.80149e-16 0 2.06619e-16)
(6.50702e-16 0 2.07043e-16)
(6.20158e-16 0 2.0665e-16)
(5.88684e-16 0 2.05585e-16)
(5.56403e-16 0 2.03993e-16)
(5.23471e-16 0 2.01956e-16)
(4.90074e-16 0 1.99547e-16)
(4.56304e-16 0 1.96879e-16)
(4.22255e-16 0 1.94046e-16)
(3.88041e-16 0 1.91099e-16)
(3.53785e-16 0 1.88142e-16)
(3.19509e-16 0 1.85226e-16)
(2.85222e-16 0 1.82414e-16)
(2.51029e-16 0 1.79798e-16)
(2.1699e-16 0 1.77368e-16)
(1.83055e-16 0 1.75187e-16)
(1.49223e-16 0 1.73315e-16)
(1.15536e-16 0 1.71816e-16)
(8.19736e-17 0 1.70647e-16)
(4.84831e-17 0 1.69882e-16)
(1.58715e-17 0 1.6951e-16)
(-2.36557e-08 0 2.67506e-07)
(-7.37007e-08 0 2.63143e-07)
(-1.20755e-07 0 2.54607e-07)
(-1.65905e-07 0 2.42108e-07)
(-2.08115e-07 0 2.25982e-07)
(-2.46694e-07 0 2.06642e-07)
(-2.81066e-07 0 1.84569e-07)
(-3.10745e-07 0 1.60353e-07)
(-3.3539e-07 0 1.34547e-07)
(-3.54789e-07 0 1.07762e-07)
(-3.68877e-07 0 8.05349e-08)
(-3.77536e-07 0 5.3405e-08)
(-3.81069e-07 0 2.69635e-08)
(-3.80594e-07 0 2.37807e-09)
(-3.7589e-07 0 -1.67626e-08)
(-3.66314e-07 0 -3.94552e-08)
(-3.52147e-07 0 -6.09797e-08)
(-3.36664e-07 0 -7.74136e-08)
(-3.1898e-07 0 -8.81572e-08)
(-2.98447e-07 0 -9.76013e-08)
(-2.75568e-07 0 -1.12555e-07)
(-2.5367e-07 0 -1.15668e-07)
(-2.30608e-07 0 -1.19529e-07)
(-2.07448e-07 0 -1.22025e-07)
(-1.84683e-07 0 -1.22252e-07)
(-1.62675e-07 0 -1.20547e-07)
(-1.41386e-07 0 -1.1773e-07)
(-1.21117e-07 0 -1.1383e-07)
(-1.01976e-07 0 -1.09063e-07)
(-8.40599e-08 0 -1.03658e-07)
(-6.74143e-08 0 -9.78107e-08)
(-5.20565e-08 0 -9.16745e-08)
(-3.79715e-08 0 -8.54246e-08)
(-2.5139e-08 0 -7.9152e-08)
(-1.35193e-08 0 -7.30093e-08)
(-2.98109e-09 0 -6.70602e-08)
(6.41924e-09 0 -6.13156e-08)
(1.48844e-08 0 -5.60648e-08)
(2.24413e-08 0 -5.10959e-08)
(2.92593e-08 0 -4.64709e-08)
(3.52466e-08 0 -4.23049e-08)
(4.06399e-08 0 -3.8541e-08)
(4.55561e-08 0 -3.50983e-08)
(4.98559e-08 0 -3.21194e-08)
(5.38204e-08 0 -2.94537e-08)
(5.74195e-08 0 -2.71128e-08)
(6.07713e-08 0 -2.50228e-08)
(6.38548e-08 0 -2.31892e-08)
(6.67284e-08 0 -2.1565e-08)
(6.94559e-08 0 -2.0068e-08)
(7.20249e-08 0 -1.86735e-08)
(7.44433e-08 0 -1.73174e-08)
(7.67183e-08 0 -1.60019e-08)
(7.8832e-08 0 -1.45694e-08)
(8.07787e-08 0 -1.31535e-08)
(8.25399e-08 0 -1.16353e-08)
(8.40555e-08 0 -9.91757e-09)
(8.5311e-08 0 -8.11266e-09)
(8.62597e-08 0 -6.17225e-09)
(8.68494e-08 0 -4.07713e-09)
(8.70698e-08 0 -1.81309e-09)
(8.68614e-08 0 4.52842e-10)
(8.6175e-08 0 2.85256e-09)
(8.50315e-08 0 5.33447e-09)
(8.33916e-08 0 7.79512e-09)
(8.12556e-08 0 1.02763e-08)
(7.8619e-08 0 1.24544e-08)
(7.55105e-08 0 1.45594e-08)
(7.19353e-08 0 1.64372e-08)
(6.79267e-08 0 1.7999e-08)
(6.35484e-08 0 1.9184e-08)
(5.88954e-08 0 1.98933e-08)
(5.4099e-08 0 2.00472e-08)
(4.94533e-08 0 1.9527e-08)
(4.55286e-08 0 1.83113e-08)
(4.24122e-08 0 1.68961e-08)
(2.25131e-08 0 4.47331e-08)
(3.6597e-09 0 1.56531e-07)
(3.38319e-10 0 7.72506e-08)
(1.5404e-14 0 -1.64775e-13)
(5.22677e-16 0 -5.59174e-17)
(1.03921e-15 0 -2.87032e-17)
(1.01867e-15 0 -1.67504e-18)
(9.9119e-16 0 2.52187e-17)
(9.69507e-16 0 5.15851e-17)
(9.52643e-16 0 7.69381e-17)
(9.38695e-16 0 1.00957e-16)
(9.26153e-16 0 1.23364e-16)
(9.13818e-16 0 1.43991e-16)
(9.0081e-16 0 1.62696e-16)
(8.86572e-16 0 1.79374e-16)
(8.70794e-16 0 1.93984e-16)
(8.53268e-16 0 2.06557e-16)
(8.3385e-16 0 2.17207e-16)
(8.12571e-16 0 2.25944e-16)
(7.89492e-16 0 2.32924e-16)
(7.64635e-16 0 2.38218e-16)
(7.38166e-16 0 2.42064e-16)
(7.10248e-16 0 2.44546e-16)
(6.80997e-16 0 2.45828e-16)
(6.50609e-16 0 2.46045e-16)
(6.19269e-16 0 2.45331e-16)
(5.87143e-16 0 2.43853e-16)
(5.54345e-16 0 2.41713e-16)
(5.20989e-16 0 2.39097e-16)
(4.8724e-16 0 2.36077e-16)
(4.53233e-16 0 2.32748e-16)
(4.19039e-16 0 2.29222e-16)
(3.84763e-16 0 2.25614e-16)
(3.50497e-16 0 2.21995e-16)
(3.16314e-16 0 2.18438e-16)
(2.82234e-16 0 2.15026e-16)
(2.48258e-16 0 2.11862e-16)
(2.14457e-16 0 2.08915e-16)
(1.80832e-16 0 2.06309e-16)
(1.47393e-16 0 2.04086e-16)
(1.14099e-16 0 2.02266e-16)
(8.0919e-17 0 2.00902e-16)
(4.78627e-17 0 1.99981e-16)
(1.56751e-17 0 1.99557e-16)
(-2.59145e-08 0 3.19747e-07)
(-8.0815e-08 0 3.144e-07)
(-1.3235e-07 0 3.03968e-07)
(-1.81683e-07 0 2.8871e-07)
(-2.27666e-07 0 2.69024e-07)
(-2.69496e-07 0 2.45462e-07)
(-3.06541e-07 0 2.18601e-07)
(-3.38251e-07 0 1.89159e-07)
(-3.64241e-07 0 1.57845e-07)
(-3.84353e-07 0 1.25343e-07)
(-3.98477e-07 0 9.23106e-08)
(-4.06209e-07 0 5.99746e-08)
(-4.08974e-07 0 2.76709e-08)
(-4.07519e-07 0 -1.63271e-10)
(-4.00278e-07 0 -2.27879e-08)
(-3.87466e-07 0 -5.38418e-08)
(-3.71278e-07 0 -7.65556e-08)
(-3.53167e-07 0 -9.53049e-08)
(-3.32781e-07 0 -1.04662e-07)
(-3.08186e-07 0 -1.25828e-07)
(-2.83666e-07 0 -1.32889e-07)
(-2.58856e-07 0 -1.39601e-07)
(-2.33607e-07 0 -1.4299e-07)
(-2.08151e-07 0 -1.46241e-07)
(-1.83801e-07 0 -1.44895e-07)
(-1.60112e-07 0 -1.42677e-07)
(-1.37558e-07 0 -1.38804e-07)
(-1.16249e-07 0 -1.33714e-07)
(-9.6318e-08 0 -1.27673e-07)
(-7.78239e-08 0 -1.2093e-07)
(-6.07951e-08 0 -1.13726e-07)
(-4.52379e-08 0 -1.06243e-07)
(-3.11064e-08 0 -9.86762e-08)
(-1.83538e-08 0 -9.1147e-08)
(-6.90907e-09 0 -8.38134e-08)
(3.31602e-09 0 -7.67335e-08)
(1.24173e-08 0 -6.9956e-08)
(2.04816e-08 0 -6.38041e-08)
(2.7619e-08 0 -5.79836e-08)
(3.397e-08 0 -5.26184e-08)
(3.95521e-08 0 -4.7777e-08)
(4.44777e-08 0 -4.34686e-08)
(4.89245e-08 0 -3.95724e-08)
(5.29417e-08 0 -3.61156e-08)
(5.64783e-08 0 -3.31571e-08)
(5.97627e-08 0 -3.05554e-08)
(6.28079e-08 0 -2.82699e-08)
(6.57102e-08 0 -2.62299e-08)
(6.83642e-08 0 -2.44907e-08)
(7.0955e-08 0 -2.28902e-08)
(7.34475e-08 0 -2.13956e-08)
(7.58547e-08 0 -1.99491e-08)
(7.81449e-08 0 -1.85342e-08)
(8.03174e-08 0 -1.69335e-08)
(8.23736e-08 0 -1.54393e-08)
(8.42529e-08 0 -1.36784e-08)
(8.58994e-08 0 -1.17869e-08)
(8.73232e-08 0 -9.70244e-09)
(8.84415e-08 0 -7.46152e-09)
(8.91936e-08 0 -4.9714e-09)
(8.95504e-08 0 -2.3831e-09)
(8.94529e-08 0 3.49109e-10)
(8.88581e-08 0 3.27943e-09)
(8.77212e-08 0 6.22778e-09)
(8.60476e-08 0 9.25534e-09)
(8.38246e-08 0 1.20974e-08)
(8.10504e-08 0 1.48972e-08)
(7.77153e-08 0 1.7501e-08)
(7.38448e-08 0 1.9836e-08)
(6.94757e-08 0 2.18369e-08)
(6.46386e-08 0 2.34031e-08)
(5.93883e-08 0 2.44082e-08)
(5.38315e-08 0 2.47136e-08)
(4.82482e-08 0 2.39462e-08)
(4.35509e-08 0 2.14984e-08)
(4.28143e-08 0 1.56231e-08)
(9.67263e-09 0 8.6295e-08)
(1.77034e-09 0 1.29377e-07)
(3.30999e-10 0 7.7708e-08)
(1.50839e-14 0 -1.89009e-13)
(5.37548e-16 0 -6.43547e-17)
(1.06878e-15 0 -3.20739e-17)
(1.04803e-15 0 -6.20388e-20)
(1.02016e-15 0 3.17327e-17)
(9.97621e-16 0 6.2814e-17)
(9.79434e-16 0 9.26236e-17)
(9.63852e-16 0 1.20789e-16)
(9.49428e-16 0 1.4699e-16)
(9.35014e-16 0 1.70968e-16)
(9.19835e-16 0 1.92609e-16)
(9.03395e-16 0 2.1181e-16)
(8.85383e-16 0 2.2856e-16)
(8.65665e-16 0 2.42891e-16)
(8.44169e-16 0 2.54896e-16)
(8.20915e-16 0 2.64687e-16)
(7.95944e-16 0 2.72391e-16)
(7.69392e-16 0 2.78171e-16)
(7.41402e-16 0 2.82234e-16)
(7.12099e-16 0 2.84695e-16)
(6.81649e-16 0 2.8577e-16)
(6.50216e-16 0 2.85667e-16)
(6.17976e-16 0 2.84519e-16)
(5.85065e-16 0 2.82524e-16)
(5.51657e-16 0 2.79773e-16)
(5.17846e-16 0 2.76444e-16)
(4.83725e-16 0 2.72701e-16)
(4.49449e-16 0 2.68648e-16)
(4.1511e-16 0 2.64377e-16)
(3.80813e-16 0 2.60045e-16)
(3.4662e-16 0 2.55702e-16)
(3.1255e-16 0 2.51494e-16)
(2.78646e-16 0 2.47461e-16)
(2.44918e-16 0 2.43687e-16)
(2.11438e-16 0 2.40244e-16)
(1.78206e-16 0 2.37204e-16)
(1.4517e-16 0 2.34578e-16)
(1.12352e-16 0 2.32448e-16)
(7.96989e-17 0 2.30866e-16)
(4.7139e-17 0 2.29801e-16)
(1.54373e-17 0 2.29294e-16)
(-2.86525e-08 0 3.77283e-07)
(-8.94493e-08 0 3.70806e-07)
(-1.46425e-07 0 3.58186e-07)
(-2.00824e-07 0 3.3975e-07)
(-2.51362e-07 0 3.1598e-07)
(-2.97109e-07 0 2.87563e-07)
(-3.37326e-07 0 2.55244e-07)
(-3.71418e-07 0 2.19831e-07)
(-3.98991e-07 0 1.82249e-07)
(-4.20013e-07 0 1.43046e-07)
(-4.33689e-07 0 1.0401e-07)
(-4.40714e-07 0 6.50595e-08)
(-4.43019e-07 0 2.68023e-08)
(-4.38962e-07 0 -2.05683e-09)
(-4.2851e-07 0 -3.61921e-08)
(-4.12342e-07 0 -6.90783e-08)
(-3.94301e-07 0 -9.57387e-08)
(-3.72209e-07 0 -1.15309e-07)
(-3.47591e-07 0 -1.26415e-07)
(-3.19206e-07 0 -1.53576e-07)
(-2.92781e-07 0 -1.57953e-07)
(-2.64293e-07 0 -1.65769e-07)
(-2.36234e-07 0 -1.69639e-07)
(-2.08479e-07 0 -1.71608e-07)
(-1.82031e-07 0 -1.69689e-07)
(-1.56521e-07 0 -1.66296e-07)
(-1.32503e-07 0 -1.61107e-07)
(-1.10044e-07 0 -1.54557e-07)
(-8.92391e-08 0 -1.46986e-07)
(-7.01405e-08 0 -1.38684e-07)
(-5.27419e-08 0 -1.29914e-07)
(-3.70164e-08 0 -1.20906e-07)
(-2.28923e-08 0 -1.1187e-07)
(-1.02991e-08 0 -1.02965e-07)
(8.78253e-10 0 -9.43374e-08)
(1.06845e-08 0 -8.59923e-08)
(1.94403e-08 0 -7.82689e-08)
(2.69845e-08 0 -7.10353e-08)
(3.35868e-08 0 -6.43883e-08)
(3.93433e-08 0 -5.83007e-08)
(4.44945e-08 0 -5.27442e-08)
(4.88575e-08 0 -4.78988e-08)
(5.27544e-08 0 -4.35869e-08)
(5.62928e-08 0 -3.97698e-08)
(5.94844e-08 0 -3.64281e-08)
(6.23443e-08 0 -3.36465e-08)
(6.50412e-08 0 -3.12313e-08)
(6.76272e-08 0 -2.90933e-08)
(7.01617e-08 0 -2.71901e-08)
(7.25361e-08 0 -2.55997e-08)
(7.49455e-08 0 -2.40676e-08)
(7.73158e-08 0 -2.25888e-08)
(7.96299e-08 0 -2.104e-08)
(8.19051e-08 0 -1.94714e-08)
(8.41063e-08 0 -1.78534e-08)
(8.61483e-08 0 -1.58691e-08)
(8.80082e-08 0 -1.38099e-08)
(8.96481e-08 0 -1.1497e-08)
(9.09828e-08 0 -8.93891e-09)
(9.19535e-08 0 -6.06438e-09)
(9.25038e-08 0 -3.0437e-09)
(9.25276e-08 0 1.77419e-10)
(9.20212e-08 0 3.60898e-09)
(9.09483e-08 0 7.15106e-09)
(8.92563e-08 0 1.06657e-08)
(8.69458e-08 0 1.41726e-08)