/*--------------------------------*- C++ -*----------------------------------*\
  =========                 |
  \\      /  F ield         | OpenFOAM: The Open Source CFD Toolbox
   \\    /   O peration     | Website:  https://openfoam.org
    \\  /    A nd           | Version:  6
     \\/     M anipulation  |
\*---------------------------------------------------------------------------*/
FoamFile
{
    version     2.0;
    format      ascii;
    class       surfaceScalarField;
    location    "1500";
    object      phi;
}
// * * * * * * * * * * * * * * * * * * * * * * * * * * * * * * * * * * * * * //

dimensions      [0 3 -1 0 0 0 0];

internalField   nonuniform List<scalar> 
9440
(
2.80912e-11
-2.80912e-11
1.09476e-10
-8.1386e-11
1.7746e-10
-6.79852e-11
2.78877e-10
-1.01418e-10
3.97964e-10
-1.19088e-10
5.19913e-10
-1.2195e-10
7.09228e-10
-1.89317e-10
8.48023e-10
-1.38797e-10
9.1442e-10
-6.63982e-11
1.07026e-09
-1.55843e-10
1.1758e-09
-1.05541e-10
1.32386e-09
-1.48063e-10
1.49089e-09
-1.67036e-10
1.51265e-09
-2.17608e-11
1.73741e-09
-2.24757e-10
1.86478e-09
-1.27373e-10
1.85546e-09
9.31101e-12
2.02904e-09
-1.7358e-10
2.19794e-09
-1.68904e-10
2.2524e-09
-5.44553e-11
2.28424e-09
-3.18442e-11
2.33688e-09
-5.26418e-11
2.38937e-09
-5.24946e-11
2.41188e-09
-2.25124e-11
2.48344e-09
-7.15612e-11
2.58764e-09
-1.04204e-10
2.69182e-09
-1.04178e-10
2.78852e-09
-9.67065e-11
2.90775e-09
-1.19226e-10
3.00282e-09
-9.50785e-11
3.02983e-09
-2.70128e-11
3.03928e-09
-9.45405e-12
3.04345e-09
-4.16652e-12
3.05064e-09
-7.18656e-12
3.06089e-09
-1.02595e-11
3.07667e-09
-1.57751e-11
3.09113e-09
-1.44629e-11
3.08531e-09
5.82041e-12
3.05134e-09
3.39781e-11
2.99604e-09
5.52936e-11
2.90779e-09
8.82558e-11
2.8154e-09
9.23944e-11
2.70305e-09
1.12358e-10
2.59762e-09
1.05432e-10
2.50129e-09
9.63291e-11
2.40387e-09
9.74272e-11
2.30295e-09
1.00926e-10
2.23302e-09
6.99316e-11
2.18282e-09
5.01947e-11
2.14817e-09
3.46589e-11
2.13056e-09
1.761e-11
2.12735e-09
3.20737e-12
2.1406e-09
-1.32509e-11
2.15722e-09
-1.66183e-11
2.16764e-09
-1.0427e-11
2.17081e-09
-3.1664e-12
2.19927e-09
-2.84636e-11
2.17559e-09
2.36756e-11
2.11825e-09
5.73393e-11
2.08443e-09
3.38269e-11
2.04883e-09
3.55921e-11
1.92203e-09
1.26801e-10
1.72107e-09
2.0096e-10
1.50279e-09
2.18283e-10
1.31288e-09
1.89912e-10
1.09655e-09
2.16332e-10
9.5087e-10
1.45677e-10
8.46398e-10
1.04474e-10
8.00283e-10
4.61167e-11
7.72056e-10
2.82291e-11
7.58435e-10
1.36226e-11
7.46626e-10
1.1811e-11
7.24139e-10
2.24886e-11
6.66493e-10
5.76464e-11
6.33087e-10
3.34075e-11
5.24751e-10
1.08337e-10
2.64358e-10
2.60394e-10
2.97957e-12
2.6138e-10
-9.03952e-11
9.33781e-11
-1.03586e-10
1.32014e-11
-4.24217e-14
-1.03511e-10
-6.96451e-19
-3.03272e-19
-5.432e-19
-1.53251e-19
-4.37998e-19
-9.32377e-20
-3.56092e-19
-7.82382e-20
-2.73565e-19
-7.96603e-20
-1.82922e-19
-8.65545e-20
-8.3795e-20
-9.4183e-20
2.17743e-20
-1.00363e-19
1.30891e-19
-1.04068e-19
2.40524e-19
-1.04915e-19
3.47851e-19
-1.02986e-19
4.50239e-19
-9.8622e-20
5.45305e-19
-9.21865e-20
6.3129e-19
-8.4056e-20
7.07065e-19
-7.46885e-20
7.71826e-19
-6.45579e-20
8.24968e-19
-5.4049e-20
8.66026e-19
-4.34145e-20
8.9474e-19
-3.27747e-20
9.11255e-19
-2.21497e-20
9.16241e-19
-1.15546e-20
9.10785e-19
-1.0971e-21
8.96147e-19
9.01074e-21
8.7355e-19
1.85277e-20
8.44038e-19
2.72573e-20
8.08384e-19
3.50645e-20
7.67047e-19
4.18622e-20
7.20263e-19
4.76234e-20
6.68267e-19
5.24164e-20
6.11502e-19
5.64096e-20
5.50689e-19
5.98195e-20
4.86712e-19
6.28268e-20
4.2043e-19
6.55218e-20
3.52531e-19
6.79096e-20
2.83508e-19
6.99609e-20
2.1369e-19
7.16687e-20
1.43268e-19
7.30789e-20
7.22262e-20
7.43337e-20
7.59051e-20
8.38995e-11
-1.11992e-10
9.87971e-11
-9.62857e-11
1.00817e-10
-7.00068e-11
1.70941e-10
-1.71545e-10
3.56801e-10
-3.04951e-10
4.79184e-10
-2.44335e-10
6.65437e-10
-3.75573e-10
7.84158e-10
-2.57521e-10
9.10202e-10
-1.92446e-10
1.02974e-09
-2.75387e-10
1.09575e-09
-1.71551e-10
1.28931e-09
-3.41629e-10
1.38849e-09
-2.66221e-10
1.44727e-09
-8.05477e-11
1.69643e-09
-4.73918e-10
1.66905e-09
-9.99956e-11
1.7571e-09
-7.87428e-11
1.85036e-09
-2.66848e-10
1.92568e-09
-2.44228e-10
2.02038e-09
-1.49156e-10
2.10187e-09
-1.13341e-10
2.18949e-09
-1.40265e-10
2.24968e-09
-1.12695e-10
2.32419e-09
-9.70198e-11
2.4146e-09
-1.61981e-10
2.53677e-09
-2.26376e-10
2.64909e-09
-2.16495e-10
2.77818e-09
-2.25804e-10
2.86198e-09
-2.03028e-10
2.86462e-09
-9.77266e-11
2.85349e-09
-1.58842e-11
2.84832e-09
-4.28365e-12
2.86769e-09
-2.35377e-11
2.90285e-09
-4.23475e-11
2.94479e-09
-5.2203e-11
2.9632e-09
-3.41846e-11
2.99689e-09
-4.81506e-11
3.03468e-09
-3.19631e-11
3.02095e-09
4.77083e-11
2.97956e-09
9.66889e-11
2.91882e-09
1.48997e-10
2.82701e-09
1.84219e-10
2.71455e-09
2.24818e-10
2.60025e-09
2.1974e-10
2.4737e-09
2.22884e-10
2.34459e-09
2.26544e-10
2.23725e-09
2.08263e-10
2.14945e-09
1.57741e-10
2.09718e-09
1.02459e-10
2.04325e-09
8.85968e-11
1.99116e-09
6.96989e-11
1.95251e-09
4.18564e-11
1.95122e-09
-1.19685e-11
1.95898e-09
-2.43797e-11
1.95261e-09
-4.05677e-12
1.94267e-09
6.77394e-12
1.9308e-09
-1.65927e-11
1.88637e-09
6.81055e-11
1.82823e-09
1.1547e-10
1.73601e-09
1.26047e-10
1.77367e-09
-2.06779e-12
1.71841e-09
1.82066e-10
1.64605e-09
2.7332e-10
1.44538e-09
4.18952e-10
1.21301e-09
4.22289e-10
1.00983e-09
4.19512e-10
9.04957e-10
2.50551e-10
8.68514e-10
1.4092e-10
8.49644e-10
6.49897e-11
8.40344e-10
3.7532e-11
8.20638e-10
3.33314e-11
8.14033e-10
1.84177e-11
8.01432e-10
3.5092e-11
7.31331e-10
1.27749e-10
7.44383e-10
2.0357e-11
6.21912e-10
2.30811e-10
5.62557e-10
3.19755e-10
5.18408e-10
3.05537e-10
3.5942e-10
2.52366e-10
1.8858e-10
1.84013e-10
1.74587e-15
8.49603e-11
-5.45615e-19
-3.36566e-19
-4.82374e-19
-2.28964e-19
-4.22598e-19
-1.51386e-19
-3.57514e-19
-1.3646e-19
-2.80459e-19
-1.49209e-19
-1.90551e-19
-1.69309e-19
-8.99751e-20
-1.87975e-19
1.80689e-20
-2.01878e-19
1.30044e-19
-2.0992e-19
2.42454e-19
-2.11977e-19
3.52215e-19
-2.0844e-19
4.56675e-19
-1.99975e-19
5.53435e-19
-1.87333e-19
6.40658e-19
-1.71367e-19
7.17195e-19
-1.5302e-19
7.82335e-19
-1.3319e-19
8.35603e-19
-1.12519e-19
8.76666e-19
-9.12944e-20
9.05365e-19
-6.95741e-20
9.2185e-19
-4.74238e-20
9.26698e-19
-2.508e-20
9.20892e-19
-2.98148e-21
9.05664e-19
1.82845e-20
8.82279e-19
3.80765e-20
8.51845e-19
5.58236e-20
8.15182e-19
7.11741e-20
7.72808e-19
8.41082e-20
7.25056e-19
9.494e-20
6.7226e-19
1.04184e-19
6.14912e-19
1.12351e-19
5.53696e-19
1.19786e-19
4.89408e-19
1.2661e-19
4.22818e-19
1.32779e-19
3.54583e-19
1.38191e-19
2.85216e-19
1.42772e-19
2.151e-19
1.46501e-19
1.44523e-19
1.49388e-19
7.37976e-20
1.51421e-19
1.52428e-19
2.97508e-11
-1.41744e-10
6.25973e-12
-7.27964e-11
1.84518e-11
-8.22006e-11
1.59824e-10
-3.12919e-10
3.4892e-10
-4.94049e-10
5.1996e-10
-4.15377e-10
6.40313e-10
-4.95928e-10
7.61518e-10
-3.78729e-10
8.89827e-10
-3.20759e-10
9.6757e-10
-3.53133e-10
1.08846e-09
-2.92446e-10
1.21395e-09
-4.67125e-10
1.29082e-09
-3.43092e-10
1.38112e-09
-1.70848e-10
1.47647e-09
-5.69275e-10
1.53817e-09
-1.61699e-10
1.60837e-09
-1.48949e-10
1.76268e-09
-4.21156e-10
1.87947e-09
-3.6102e-10
1.97089e-09
-2.40585e-10
1.987e-09
-1.29455e-10
2.06321e-09
-2.16482e-10
2.1234e-09
-1.72886e-10
2.17829e-09
-1.51906e-10
2.26013e-09
-2.43825e-10
2.38119e-09
-3.47442e-10
2.46175e-09
-2.97061e-10
2.52398e-09
-2.88038e-10
2.5594e-09
-2.38446e-10
2.59605e-09
-1.34383e-10
2.67071e-09
-9.05423e-11
2.75238e-09
-8.59592e-11
2.78688e-09
-5.80388e-11
2.81136e-09
-6.68234e-11
2.83586e-09
-7.67086e-11
2.85283e-09
-5.11525e-11
2.87262e-09
-6.79405e-11
2.90261e-09
-6.19513e-11
2.90847e-09
4.18583e-11
2.9082e-09
9.69642e-11
2.85478e-09
2.02418e-10
2.76173e-09
2.77268e-10
2.66769e-09
3.18867e-10
2.53271e-09
3.54729e-10
2.39548e-09
3.60111e-10
2.2821e-09
3.39927e-10
2.16865e-09
3.21721e-10
2.03446e-09
2.91927e-10
1.92401e-09
2.12911e-10
1.84337e-09
1.6924e-10
1.7973e-09
1.15772e-10
1.75808e-09
8.10769e-11
1.71225e-09
3.38548e-11
1.6673e-09
2.05689e-11
1.63568e-09
2.75676e-11
1.63915e-09
3.30116e-12
1.67683e-09
-5.42727e-11
1.6939e-09
5.10305e-11
1.67316e-09
1.36213e-10
1.63366e-09
1.6555e-10
1.62193e-09
9.65877e-12
1.53536e-09
2.68632e-10
1.39232e-09
4.1637e-10
1.28399e-09
5.27284e-10
1.09202e-09
6.14252e-10
9.7699e-10
5.34549e-10
8.649e-10
3.62642e-10
8.39828e-10
1.65992e-10
8.43338e-10
6.14812e-11
8.41778e-10
3.90923e-11
8.28244e-10
4.6865e-11
8.15468e-10
3.11937e-11
7.97095e-10
5.34648e-11
7.43298e-10
1.81545e-10
6.86138e-10
7.75168e-11
6.49185e-10
2.67763e-10
7.03247e-10
2.65695e-10
6.51839e-10
3.56955e-10
4.52243e-10
4.51989e-10
2.31507e-10
4.04803e-10
5.65133e-15
3.16485e-10
-4.37203e-19
-1.07987e-18
-4.03993e-19
-2.59506e-19
-4.07298e-19
-1.49875e-19
-3.70263e-19
-1.74078e-19
-3.00559e-19
-2.19195e-19
-2.09217e-19
-2.61126e-19
-1.03878e-19
-2.93959e-19
1.00268e-20
-3.16396e-19
1.27987e-19
-3.28513e-19
2.4599e-19
-3.30901e-19
3.6068e-19
-3.24511e-19
4.69317e-19
-3.10503e-19
5.69401e-19
-2.90019e-19
6.59005e-19
-2.64256e-19
7.37025e-19
-2.3455e-19
8.03006e-19
-2.02309e-19
8.56828e-19
-1.68764e-19
8.98386e-19
-1.34761e-19
9.27515e-19
-1.00739e-19
9.44194e-19
-6.69152e-20
9.48797e-19
-3.35283e-20
9.42158e-19
-1.02354e-21
9.25456e-19
2.99291e-20
9.00027e-19
5.85729e-20
8.67196e-19
8.4288e-20
8.28116e-19
1.06777e-19
7.83639e-19
1.26135e-19
7.343e-19
1.42778e-19
6.80428e-19
1.57264e-19
6.22347e-19
1.70109e-19
5.6052e-19
1.81653e-19
4.95576e-19
1.92041e-19
4.2823e-19
2.01273e-19
3.59164e-19
2.09294e-19
2.88945e-19
2.16047e-19
2.17987e-19
2.21498e-19
1.46556e-19
2.25615e-19
7.48043e-20
2.28345e-19
2.29607e-19
-3.98196e-11
-1.01925e-10
-6.33493e-11
-4.92685e-11
9.14262e-11
-2.36978e-10
2.97692e-10
-5.19187e-10
4.04435e-10
-6.00794e-10
5.54883e-10
-5.65827e-10
6.19095e-10
-5.60142e-10
7.52743e-10
-5.12379e-10
8.50506e-10
-4.18525e-10
9.07741e-10
-4.10371e-10
1.03659e-09
-4.21299e-10
1.03351e-09
-4.64044e-10
1.13322e-09
-4.42811e-10
1.23841e-09
-2.76044e-10
1.1693e-09
-5.00169e-10
1.41462e-09
-4.07014e-10
1.47149e-09
-2.05833e-10
1.58523e-09
-5.34896e-10
1.75123e-09
-5.27022e-10
1.78997e-09
-2.79328e-10
1.88135e-09
-2.20839e-10
1.98006e-09
-3.15197e-10
2.07507e-09
-2.67894e-10
2.11842e-09
-1.95265e-10
2.2033e-09
-3.28712e-10
2.26515e-09
-4.09293e-10
2.28562e-09
-3.17536e-10
2.35507e-09
-3.57492e-10
2.34635e-09
-2.29723e-10
2.38652e-09
-1.74555e-10
2.42129e-09
-1.2532e-10
2.47173e-09
-1.36402e-10
2.56101e-09
-1.47316e-10
2.62332e-09
-1.29137e-10
2.64717e-09
-1.00559e-10
2.67114e-09
-7.51169e-11
2.65647e-09
-5.32718e-11
2.61918e-09
-2.46535e-11
2.61754e-09
4.3501e-11
2.65636e-09
5.81411e-11
2.6477e-09
2.11086e-10
2.59209e-09
3.32884e-10
2.51302e-09
3.9794e-10
2.40411e-09
4.63645e-10
2.27777e-09
4.86447e-10
2.14975e-09
4.67954e-10
2.02224e-09
4.49233e-10
1.90004e-09
4.14126e-10
1.80219e-09
3.10762e-10
1.73563e-09
2.35803e-10
1.64949e-09
2.01917e-10
1.53531e-09
1.95254e-10
1.47076e-09
9.84e-11
1.45319e-09
3.81395e-11
1.44912e-09
3.16381e-11
1.46452e-09
-1.20942e-11
1.58702e-09
-1.76773e-10
1.61206e-09
2.59842e-11
1.61642e-09
1.31856e-10
1.58241e-09
1.99565e-10
1.44842e-09
1.43641e-10
1.42821e-09
2.88846e-10
1.33733e-09
5.07249e-10
1.22284e-09
6.41777e-10
1.06293e-09
7.74162e-10
9.0732e-10
6.90162e-10
8.12596e-10
4.57366e-10
8.16347e-10
1.62241e-10
8.06752e-10
7.10753e-11
7.98289e-10
4.75535e-11
7.86742e-10
5.84099e-11
7.58593e-10
5.93409e-11
7.36537e-10
7.5519e-11
7.24537e-10
1.93543e-10
6.31179e-10
1.70873e-10
5.69807e-10
3.29132e-10
5.33652e-10
3.01842e-10
4.74444e-10
4.16149e-10
4.8092e-10
4.45494e-10
3.67415e-10
5.18304e-10
4.06012e-15
6.8389e-10
3.83917e-19
1.9307e-18
-2.93562e-19
4.18495e-19
-4.3117e-19
-1.73279e-20
-4.1538e-19
-1.95492e-19
-3.4249e-19
-2.97697e-19
-2.4205e-19
-3.67185e-19
-1.26315e-19
-4.15254e-19
-2.0901e-21
-4.45797e-19
1.25599e-19
-4.60912e-19
2.5238e-19
-4.62185e-19
3.74688e-19
-4.51223e-19
4.89801e-19
-4.29775e-19
5.95164e-19
-3.99465e-19
6.88711e-19
-3.61881e-19
7.69267e-19
-3.18777e-19
8.3655e-19
-2.72154e-19
8.90831e-19
-2.23978e-19
9.32408e-19
-1.75794e-19
9.6134e-19
-1.28567e-19
9.77581e-19
-8.27839e-20
9.81301e-19
-3.87063e-20
9.73111e-19
3.395e-21
9.541e-19
4.31188e-20
9.25742e-19
7.99665e-20
8.89685e-19
1.13472e-19
8.47474e-19
1.43355e-19
8.00282e-19
1.69618e-19
7.48787e-19
1.92537e-19
6.93273e-19
2.12559e-19
6.33891e-19
2.30162e-19
5.70908e-19
2.45732e-19
5.04809e-19
2.59505e-19
4.3625e-19
2.71582e-19
3.65917e-19
2.81975e-19
2.94396e-19
2.90664e-19
2.22105e-19
2.97616e-19
1.49286e-19
3.02795e-19
7.60657e-20
3.06165e-19
3.07709e-19
-5.03325e-11
-5.15937e-11
-6.47221e-11
-3.48807e-11
1.68761e-10
-4.70463e-10
3.10359e-10
-6.60786e-10
3.87703e-10
-6.7814e-10
4.88742e-10
-6.66867e-10
5.37442e-10
-6.08844e-10
6.1194e-10
-5.86879e-10
6.85109e-10
-4.91696e-10
7.61316e-10
-4.86581e-10
8.45582e-10
-5.05568e-10
8.85757e-10
-5.04223e-10
9.49731e-10
-5.06788e-10
1.0649e-09
-3.91213e-10
1.02733e-09
-4.62606e-10
1.1112e-09
-4.90891e-10
1.33219e-09
-4.26826e-10
1.36188e-09
-5.6459e-10
1.47848e-09
-6.43626e-10
1.58298e-09
-3.83833e-10
1.68723e-09
-3.2509e-10
1.81493e-09
-4.42898e-10
1.97306e-09
-4.26033e-10
2.02959e-09
-2.51795e-10
2.04761e-09
-3.4673e-10
2.05481e-09
-4.16503e-10
2.10039e-09
-3.6312e-10
2.12684e-09
-3.83938e-10
2.14052e-09
-2.43408e-10
2.15285e-09
-1.86889e-10
2.18845e-09
-1.60922e-10
2.23226e-09
-1.80215e-10
2.27242e-09
-1.87481e-10
2.29812e-09
-1.54835e-10
2.30246e-09
-1.04895e-10
2.31254e-09
-8.5196e-11
2.32467e-09
-6.53997e-11
2.30305e-09
-3.0365e-12
2.32094e-09
2.56139e-11
2.31722e-09
6.18655e-11
2.31168e-09
2.16629e-10
2.30352e-09
3.41053e-10
2.23613e-09
4.65333e-10
2.16396e-09
5.35812e-10
2.07036e-09
5.80057e-10
1.95038e-09
5.87935e-10
1.84032e-09
5.59288e-10
1.7604e-09
4.94052e-10
1.70143e-09
3.69735e-10
1.57762e-09
3.59612e-10
1.4746e-09
3.04936e-10
1.39439e-09
2.75469e-10
1.3502e-09
1.42587e-10
1.36587e-09
2.24707e-11
1.40095e-09
-3.44282e-12
1.4544e-09
-6.5545e-11
1.49761e-09
-2.19977e-10
1.52414e-09
-5.45008e-13
1.53377e-09
1.22221e-10
1.49219e-09
2.41143e-10
1.40112e-09
2.34714e-10
1.34612e-09
3.43855e-10
1.18873e-09
6.64636e-10
1.01863e-09
8.1188e-10
9.20932e-10
8.71855e-10
8.11919e-10
7.99174e-10
7.52273e-10
5.17009e-10
7.54351e-10
1.6016e-10
7.45429e-10
7.99948e-11
7.25354e-10
6.7625e-11
7.2727e-10
5.64915e-11
6.54429e-10
1.32179e-10
6.14853e-10
1.15092e-10
6.15421e-10
1.92974e-10
5.76946e-10
2.09346e-10
5.72953e-10
3.33127e-10
5.11626e-10
3.63171e-10
3.84964e-10
5.42809e-10
2.12933e-10
6.17513e-10
-6.49106e-11
7.96136e-10
8.84701e-16
6.18969e-10
-1.1273e-18
-9.53262e-20
-7.28539e-19
1.62303e-20
-6.0906e-19
-1.42295e-19
-5.17585e-19
-2.93245e-19
-4.11977e-19
-4.09568e-19
-2.90119e-19
-4.95115e-19
-1.56858e-19
-5.54406e-19
-1.72055e-20
-5.90748e-19
1.24327e-19
-6.06851e-19
2.63342e-19
-6.04985e-19
3.96137e-19
-5.87404e-19
5.20111e-19
-5.56558e-19
6.32748e-19
-5.14711e-19
7.31815e-19
-4.63894e-19
8.15889e-19
-4.06187e-19
8.84726e-19
-3.44021e-19
9.39015e-19
-2.80024e-19
9.79635e-19
-2.16527e-19
1.00712e-18
-1.55166e-19
1.02166e-18
-9.67935e-20
1.0234e-18
-4.16765e-20
1.01283e-18
1.01809e-20
9.90947e-19
5.87596e-20
9.59247e-19
1.03894e-19
9.19568e-19
1.45295e-19
8.73737e-19
1.82687e-19
8.23201e-19
2.15946e-19
7.68809e-19
2.45183e-19
7.10876e-19
2.70725e-19
6.49461e-19
2.93011e-19
5.84681e-19
3.12473e-19
5.16885e-19
3.29442e-19
4.46644e-19
3.44127e-19
3.74606e-19
3.56629e-19
3.01348e-19
3.66988e-19
2.27284e-19
3.75208e-19
1.52657e-19
3.81287e-19
7.76092e-20
3.85221e-19
3.87028e-19
-2.881e-11
-2.27847e-11
3.03951e-11
-9.40878e-11
1.77183e-10
-6.17252e-10
2.59888e-10
-7.43494e-10
3.20885e-10
-7.39139e-10
3.88606e-10
-7.34591e-10
4.36801e-10
-6.57041e-10
4.55114e-10
-6.05195e-10
4.92557e-10
-5.29141e-10
5.49336e-10
-5.43363e-10
6.0292e-10
-5.59155e-10
6.86603e-10
-5.87909e-10
7.39337e-10
-5.59525e-10
8.56979e-10
-5.08859e-10
9.23805e-10
-5.29436e-10
9.86966e-10
-5.54055e-10
1.0677e-09
-5.07562e-10
1.12711e-09
-6.24008e-10
1.23103e-09
-7.47547e-10
1.35989e-09
-5.12701e-10
1.45989e-09
-4.25089e-10
1.539e-09
-5.22017e-10
1.68939e-09
-5.76428e-10
1.81756e-09
-3.79964e-10
1.84951e-09
-3.78684e-10
1.86697e-09
-4.33966e-10
1.93915e-09
-4.35304e-10
1.90515e-09
-3.49938e-10
1.93914e-09
-2.77399e-10
1.97392e-09
-2.21677e-10
1.99538e-09
-1.82381e-10
1.98707e-09
-1.71912e-10
1.9738e-09
-1.74211e-10
1.9651e-09
-1.46133e-10
1.97437e-09
-1.14161e-10
1.98496e-09
-9.57849e-11
2.00235e-09
-8.27869e-11
2.0078e-09
-8.4931e-12
2.00476e-09
2.8659e-11
1.97162e-09
9.50115e-11
1.96621e-09
2.22043e-10
1.98425e-09
3.23011e-10
1.95622e-09
4.9337e-10
1.91229e-09
5.79743e-10
1.84584e-09
6.46508e-10
1.77264e-09
6.61135e-10
1.68504e-09
6.4689e-10
1.66006e-09
5.19031e-10
1.49271e-09
5.37086e-10
1.39076e-09
4.61569e-10
1.36624e-09
3.29454e-10
1.34373e-09
2.97982e-10
1.33285e-09
1.53461e-10
1.3551e-09
2.22971e-13
1.40235e-09
-5.06924e-11
1.4617e-09
-1.24888e-10
1.41622e-09
-1.74502e-10
1.45759e-09
-4.19079e-11
1.45314e-09
1.26671e-10
1.43648e-09
2.57801e-10
1.36151e-09
3.09682e-10
1.17629e-09
5.29082e-10
1.04711e-09
7.93809e-10
9.40523e-10
9.1847e-10
8.56406e-10
9.55971e-10
7.78364e-10
8.77213e-10
7.36565e-10
5.58806e-10
7.26401e-10
1.7032e-10
7.02025e-10
1.04368e-10
6.69858e-10
9.97894e-11
6.36626e-10
8.97205e-11
5.71726e-10
1.97078e-10
5.15573e-10
1.71245e-10
4.67659e-10
2.40888e-10
4.02239e-10
2.74765e-10
3.82956e-10
3.52408e-10
3.07402e-10
4.38724e-10
2.80954e-10
5.69256e-10
2.44931e-10
6.5353e-10
1.94082e-10
8.46977e-10
-2.4188e-15
8.1305e-10
-1.01491e-18
1.12184e-20
-8.86251e-19
-1.16674e-19
-7.59813e-19
-2.7101e-19
-6.33908e-19
-4.21883e-19
-4.97524e-19
-5.48511e-19
-3.4941e-19
-6.45437e-19
-1.932e-19
-7.12748e-19
-3.3309e-20
-7.52372e-19
1.26193e-19
-7.67098e-19
2.80923e-19
-7.5971e-19
4.26982e-19
-7.33123e-19
5.61958e-19
-6.90653e-19
6.83565e-19
-6.35445e-19
7.89522e-19
-5.70122e-19
8.78055e-19
-4.97021e-19
9.48724e-19
-4.18744e-19
1.00251e-18
-3.38277e-19
1.041e-18
-2.58561e-19
1.0655e-18
-1.81909e-19
1.07678e-18
-1.09673e-19
1.07526e-18
-4.23097e-20
1.06141e-18
2.02903e-20
1.03608e-18
7.83982e-20
1.00065e-18
1.32163e-19
9.5696e-19
1.81525e-19
9.06996e-19
2.26298e-19
8.52438e-19
2.66327e-19
7.9435e-19
3.01634e-19
7.33162e-19
3.32455e-19
6.68922e-19
3.59193e-19
6.0165e-19
3.82305e-19
5.3157e-19
4.02207e-19
4.59146e-19
4.19213e-19
3.84964e-19
4.33533e-19
3.09569e-19
4.45293e-19
2.33362e-19
4.54567e-19
1.56591e-19
4.61396e-19
7.94164e-20
4.65819e-19
4.67871e-19
-3.39242e-12
-1.93934e-11
1.11813e-10
-2.09296e-10
1.61555e-10
-6.66996e-10
1.53091e-10
-7.35031e-10
1.36227e-10
-7.22277e-10
1.32834e-10
-7.312e-10
1.89553e-10
-7.13762e-10
2.91589e-10
-7.07233e-10
3.42634e-10
-5.80189e-10
3.3762e-10
-5.38351e-10
3.89546e-10
-6.11084e-10
4.82977e-10
-6.81343e-10
5.74718e-10
-6.51269e-10
6.78675e-10
-6.1282e-10
6.83518e-10
-5.34282e-10
7.98254e-10
-6.68795e-10
9.91884e-10
-7.01196e-10
1.01111e-09
-6.43238e-10
1.02199e-09
-7.58429e-10
1.15356e-09
-6.44276e-10
1.28284e-09
-5.54368e-10
1.35241e-09
-5.91593e-10
1.433e-09
-6.57027e-10
1.52073e-09
-4.67691e-10
1.57332e-09
-4.31278e-10
1.65026e-09
-5.10913e-10
1.64762e-09
-4.32667e-10
1.67505e-09
-3.77372e-10
1.70622e-09
-3.08569e-10
1.72819e-09
-2.43654e-10
1.74537e-09
-1.99557e-10
1.74457e-09
-1.71116e-10
1.73458e-09
-1.64219e-10
1.7249e-09
-1.36458e-10
1.71603e-09
-1.05291e-10
1.69437e-09
-7.41197e-11
1.66511e-09
-5.35275e-11
1.66343e-09
-6.81423e-12
1.65992e-09
3.2176e-11
1.65563e-09
9.92983e-11
1.65952e-09
2.18161e-10
1.66914e-09
3.13387e-10
1.67923e-09
4.83288e-10
1.64334e-09
6.1563e-10
1.60534e-09
6.84513e-10
1.54708e-09
7.19395e-10
1.50785e-09
6.86123e-10
1.43152e-09
5.95358e-10
1.33397e-09
6.34644e-10
1.26675e-09
5.28792e-10
1.25928e-09
3.36915e-10
1.24229e-09
3.14977e-10
1.24411e-09
1.51646e-10
1.29038e-09
-4.60483e-11
1.34195e-09
-1.02256e-10
1.35519e-09
-1.3813e-10
1.34116e-09
-1.6047e-10
1.37294e-09
-7.36908e-11
1.32332e-09
1.76297e-10
1.27235e-09
3.08768e-10
1.11557e-09
4.6646e-10
9.59102e-10
6.85553e-10
8.85814e-10
8.67094e-10
8.03586e-10
1.0007e-09
7.55459e-10
1.00409e-09
7.26974e-10
9.05695e-10
7.09341e-10
5.76436e-10
6.78788e-10
2.00869e-10
6.32359e-10
1.50795e-10
5.81458e-10
1.5069e-10
5.01695e-10
1.69484e-10
4.63608e-10
2.35167e-10
4.1978e-10
2.15076e-10
4.16787e-10
2.43884e-10
4.13228e-10
2.78325e-10
4.39949e-10
3.25687e-10
4.44489e-10
4.34182e-10
4.36159e-10
5.77586e-10
2.36644e-10
8.53043e-10
7.75853e-11
1.00604e-09
-3.65184e-15
8.90643e-10
-1.14197e-18
-1.49744e-19
-1.03979e-18
-2.20426e-19
-9.1058e-19
-3.98197e-19
-7.60536e-19
-5.70127e-19
-5.94451e-19
-7.12595e-19
-4.16722e-19
-8.20753e-19
-2.32823e-19
-8.94431e-19
-4.80355e-20
-9.35164e-19
1.33581e-19
-9.45982e-19
3.07511e-19
-9.30241e-19
4.69452e-19
-8.91572e-19
6.17166e-19
-8.34333e-19
7.48888e-19
-7.6293e-19
8.62623e-19
-6.80907e-19
9.56332e-19
-5.90971e-19
1.02919e-18
-4.95693e-19
1.08223e-18
-3.98028e-19
1.11765e-18
-3.01187e-19
1.13773e-18
-2.08031e-19
1.14414e-18
-1.20512e-19
1.13786e-18
-3.94874e-20
1.11952e-18
3.50391e-20
1.08985e-18
1.03478e-19
1.05001e-18
1.66252e-19
1.00173e-18
2.23577e-19
9.47026e-19
2.75467e-19
8.87745e-19
3.2186e-19
8.25172e-19
3.62783e-19
7.599e-19
3.98444e-19
6.92035e-19
4.29225e-19
6.21552e-19
4.55612e-19
5.48576e-19
4.78095e-19
4.73466e-19
4.97095e-19
3.96725e-19
5.12936e-19
3.18843e-19
5.25848e-19
2.40192e-19
5.35978e-19
1.61014e-19
5.43425e-19
8.14689e-20
5.48258e-19
5.50527e-19
-8.08417e-12
-1.13103e-11
1.2094e-10
-3.38322e-10
9.98149e-11
-6.45873e-10
4.48941e-11
-6.80112e-10
5.82007e-11
-7.35585e-10
7.19914e-11
-7.44993e-10
8.71642e-11
-7.28937e-10
1.13258e-10
-7.33328e-10
2.00756e-10
-6.6769e-10
2.48026e-10
-5.85624e-10
2.24332e-10
-5.87393e-10
2.63902e-10
-7.20916e-10
4.00627e-10
-7.87998e-10
5.00481e-10
-7.12678e-10
6.45498e-10
-6.79303e-10
5.98398e-10
-6.21699e-10
6.59841e-10
-7.62642e-10
8.20043e-10
-8.03445e-10
8.58304e-10
-7.96694e-10
9.26309e-10
-7.12285e-10
1.02614e-09
-6.54204e-10
1.12747e-09
-6.92923e-10
1.20742e-09
-7.3698e-10
1.30189e-09
-5.62163e-10
1.38155e-09
-5.10951e-10
1.45418e-09
-5.83544e-10
1.47856e-09
-4.57049e-10
1.49566e-09
-3.94477e-10
1.5163e-09
-3.29211e-10
1.514e-09
-2.4135e-10
1.52987e-09
-2.15431e-10
1.53475e-09
-1.75997e-10
1.52394e-09
-1.53412e-10
1.52213e-09
-1.34645e-10
1.49127e-09
-7.44373e-11
1.47501e-09
-5.78507e-11
1.45711e-09
-3.56282e-11
1.45077e-09
-4.72201e-13
1.43439e-09
4.85558e-11
1.40196e-09
1.31732e-10
1.38027e-09
2.39845e-10
1.3656e-09
3.28059e-10
1.38954e-09
4.59348e-10
1.3965e-09
6.08672e-10
1.38162e-09
6.99396e-10
1.36548e-09
7.35532e-10
1.33063e-09
7.20973e-10
1.24249e-09
6.83504e-10
1.21996e-09
6.5718e-10
1.20389e-09
5.44861e-10
1.17971e-09
3.61101e-10
1.16861e-09
3.26074e-10
1.13463e-09
1.85626e-10
1.13578e-09
-4.71944e-11
1.21306e-09
-1.79535e-10
1.23316e-09
-1.58227e-10
1.18565e-09
-1.12954e-10
1.10751e-09
4.44822e-12
1.01355e-09
2.70255e-10
9.28079e-10
3.94239e-10
8.43024e-10
5.51514e-10
7.7731e-10
7.51265e-10
7.01803e-10
9.42599e-10
6.79321e-10
1.02318e-09
6.78258e-10
1.00515e-09
7.05043e-10
8.78907e-10
7.03098e-10
5.78379e-10
6.66509e-10
2.37458e-10
5.95199e-10
2.22107e-10
5.24636e-10
2.21256e-10
4.63259e-10
2.30864e-10
4.1858e-10
2.7985e-10
4.2279e-10
2.10871e-10
4.00579e-10
2.661e-10
3.61615e-10
3.17292e-10
3.07096e-10
3.80206e-10
2.41131e-10
5.00146e-10
1.88491e-10
6.30226e-10
1.75651e-10
8.65885e-10
1.51458e-10
1.03024e-09
-1.59104e-15
1.04211e-09
-1.21184e-18
3.98079e-19
-1.21683e-18
-2.13497e-19
-1.08248e-18
-5.28861e-19
-9.03004e-19
-7.4615e-19
-7.02609e-19
-9.09536e-19
-4.904e-19
-1.02911e-18
-2.73557e-19
-1.10781e-18
-5.88537e-20
-1.14749e-18
1.49322e-19
-1.15154e-18
3.4618e-19
-1.12396e-18
5.26691e-19
-1.06916e-18
6.88569e-19
-9.9262e-19
8.30911e-19
-9.0041e-19
9.52559e-19
-7.97557e-19
1.05161e-18
-6.87569e-19
1.12686e-18
-5.73088e-19
1.17907e-18
-4.56786e-19
1.2108e-18
-3.41732e-19
1.22525e-18
-2.31023e-19
1.22516e-18
-1.27101e-19
1.21239e-18
-3.13117e-20
1.18796e-18
5.60714e-20
1.15262e-18
1.35461e-19
1.10734e-18
2.07489e-19
1.05362e-18
2.72671e-19
9.93419e-19
3.31298e-19
9.28668e-19
3.83507e-19
8.60832e-19
4.29431e-19
7.90681e-19
4.6932e-19
7.18422e-19
5.03585e-19
6.44034e-19
5.32754e-19
5.67576e-19
5.57394e-19
4.89308e-19
5.78029e-19
4.09636e-19
5.95094e-19
3.28973e-19
6.08913e-19
2.47639e-19
6.19712e-19
1.65846e-19
6.27637e-19
8.37376e-20
6.32786e-19
6.3522e-19
-4.39137e-11
3.26022e-11
-1.3938e-11
-3.683e-10
-8.51421e-11
-5.7467e-10
-1.37675e-10
-6.2758e-10
-2.00352e-10
-6.7291e-10
-2.28524e-10
-7.16823e-10
-2.31486e-10
-7.25977e-10
-2.5899e-10
-7.05825e-10
-2.30315e-10
-6.96367e-10
-1.2113e-10
-6.94811e-10
-2.26187e-12
-7.06264e-10
2.19928e-11
-7.45174e-10
6.77357e-11
-8.33744e-10
1.88662e-10
-8.33608e-10
3.62683e-10
-8.53328e-10
5.10675e-10
-7.69694e-10
5.43885e-10
-7.95856e-10
6.1637e-10
-8.75933e-10
6.96403e-10
-8.76731e-10
7.84914e-10
-8.00798e-10
8.8829e-10
-7.57585e-10
9.78068e-10
-7.82704e-10
9.87206e-10
-7.46122e-10
1.08146e-09
-6.56423e-10
1.16288e-09
-5.92372e-10
1.18762e-09
-6.08284e-10
1.21593e-09
-4.8536e-10
1.2581e-09
-4.36659e-10
1.28863e-09
-3.59744e-10
1.307e-09
-2.59722e-10
1.3327e-09
-2.41134e-10
1.33752e-09
-1.80815e-10
1.32615e-09
-1.42041e-10
1.34725e-09
-1.55749e-10
1.33496e-09
-6.21427e-11
1.30218e-09
-2.50686e-11
1.26654e-09
9.69223e-15
1.2326e-09
3.3476e-11
1.20046e-09
8.06864e-11
1.16852e-09
1.63678e-10
1.15536e-09
2.53006e-10
1.16215e-09
3.21269e-10
1.1798e-09
4.41699e-10
1.17159e-09
6.16884e-10
1.14646e-09
7.24518e-10
1.13501e-09
7.46987e-10
1.12166e-09
7.34325e-10
1.09996e-09
7.05203e-10
1.0994e-09
6.57742e-10
1.10323e-09
5.41035e-10
1.0554e-09
4.08933e-10
1.03282e-09
3.48661e-10
1.03326e-09
1.85185e-10
9.87457e-10
-1.38762e-12
9.84857e-10
-1.76932e-10
9.50007e-10
-1.23375e-10
9.18742e-10
-8.16883e-11
8.33834e-10
8.93562e-11
8.26836e-10
2.77253e-10
7.43025e-10
4.78049e-10
6.09698e-10
6.84838e-10
5.02663e-10
8.58298e-10
4.94738e-10
9.50522e-10
5.45415e-10
9.72496e-10
6.02846e-10
9.47721e-10
6.67991e-10
8.13762e-10
6.88726e-10
5.57645e-10
6.27579e-10
2.98607e-10
5.43718e-10
3.05972e-10
5.0501e-10
2.59968e-10
4.45507e-10
2.90372e-10
4.07778e-10
3.17583e-10
3.72456e-10
2.46196e-10
3.00856e-10
3.37701e-10
2.39808e-10
3.7834e-10
1.80885e-10
4.39127e-10
1.30518e-10
5.50511e-10
8.43677e-11
6.76376e-10
5.91048e-11
8.91151e-10
1.35138e-11
1.07583e-09
2.42973e-15
1.05563e-09
-1.82257e-18
-2.46318e-19
-1.53157e-18
-5.01228e-19
-1.29977e-18
-7.59453e-19
-1.06639e-18
-9.78578e-19
-8.22187e-19
-1.15309e-18
-5.69095e-19
-1.28126e-18
-3.13237e-19
-1.36288e-18
-6.29048e-20
-1.39884e-18
1.76903e-19
-1.39271e-18
4.00982e-19
-1.34908e-18
6.03231e-19
-1.2732e-18
7.80779e-19
-1.17167e-18
9.33765e-19
-1.05243e-18
1.06255e-18
-9.22598e-19
1.16609e-18
-7.87211e-19
1.24316e-18
-6.49467e-19
1.29412e-18
-5.1183e-19
1.32151e-18
-3.76925e-19
1.32917e-18
-2.47638e-19
1.32095e-18
-1.26561e-19
1.29977e-18
-1.53766e-20
1.26735e-18
8.53538e-20
1.22465e-18
1.75966e-19
1.17252e-18
2.57238e-19
1.11225e-18
3.29976e-19
1.04563e-18
3.94799e-19
9.74592e-19
4.52126e-19
9.00721e-19
5.02287e-19
8.24946e-19
5.45659e-19
7.47591e-19
5.82729e-19
6.68674e-19
6.14096e-19
5.88211e-19
6.40409e-19
5.06372e-19
6.62284e-19
4.23455e-19
6.8025e-19
3.39771e-19
6.94716e-19
2.55565e-19
7.05972e-19
1.70995e-19
7.14211e-19
8.61709e-20
7.19555e-19
7.22076e-19
-5.03632e-11
8.29642e-11
-9.78439e-11
-3.20821e-10
-2.27746e-10
-4.4477e-10
-3.11247e-10
-5.44081e-10
-3.62629e-10
-6.21529e-10
-4.19171e-10
-6.60284e-10
-4.69264e-10
-6.75885e-10
-4.36227e-10
-7.38864e-10
-3.75658e-10
-7.56939e-10
-3.27836e-10
-7.42635e-10
-2.76943e-10
-7.5716e-10
-2.41032e-10
-7.81087e-10
-1.81702e-10
-8.93077e-10
-3.11357e-11
-9.84178e-10
1.53455e-10
-1.03792e-09
3.00898e-10
-9.17141e-10
3.95079e-10
-8.9004e-10
4.44571e-10
-9.25429e-10
5.28402e-10
-9.60566e-10
6.42719e-10
-9.15119e-10
7.36862e-10
-8.51731e-10
8.13614e-10
-8.5946e-10
8.20546e-10
-7.53058e-10
8.7852e-10
-7.14401e-10
9.1716e-10
-6.31015e-10
9.70492e-10
-6.6162e-10
1.02366e-09
-5.38531e-10
1.09034e-09
-5.03345e-10
1.09339e-09
-3.62796e-10
1.10892e-09
-2.75255e-10
1.10713e-09
-2.39343e-10
1.12238e-09
-1.96065e-10
1.12126e-09
-1.40922e-10
1.09715e-09
-1.31641e-10
1.10006e-09
-6.50469e-11
1.08835e-09
-1.33634e-11
1.07527e-09
1.30947e-11
1.06085e-09
4.78919e-11
1.02802e-09
1.13519e-10
9.96513e-10
1.95182e-10
9.6604e-10
2.83479e-10
9.40506e-10
3.46802e-10
9.25944e-10
4.56261e-10
9.60814e-10
5.82014e-10
9.66707e-10
7.18626e-10
9.78352e-10
7.35344e-10
9.96146e-10
7.16533e-10
1.01881e-09
6.82545e-10
1.03654e-09
6.40012e-10
1.0303e-09
5.47281e-10
9.61959e-10
4.77272e-10
9.36805e-10
3.73818e-10
8.90683e-10
2.31309e-10
7.91611e-10
9.76869e-11
6.02936e-10
1.1744e-11
4.87439e-10
-7.87713e-12
4.23174e-10
-1.74233e-11
3.62107e-10
1.50423e-10
2.49246e-10
3.90113e-10
2.31752e-10
4.95542e-10
2.78975e-10
6.37613e-10
3.43321e-10
7.9395e-10
3.68432e-10
9.2541e-10
4.33001e-10
9.07927e-10
5.32021e-10
8.48703e-10
6.26349e-10
7.19437e-10
6.43706e-10
5.40292e-10
5.81018e-10
3.61299e-10
5.18276e-10
3.6872e-10
4.77e-10
3.01247e-10
4.24959e-10
3.42415e-10
3.9141e-10
3.51133e-10
3.08725e-10
3.2888e-10
2.33499e-10
4.12923e-10
1.66462e-10
4.45374e-10
1.01314e-10
5.04271e-10
2.4567e-11
6.27254e-10
-3.89061e-11
7.39847e-10
-4.96933e-11
9.01938e-10
-2.42179e-11
1.05036e-09
5.17644e-15
1.0314e-09
-2.07669e-18
-5.45972e-19
-1.78934e-18
-7.87406e-19
-1.5189e-18
-1.0331e-18
-1.2409e-18
-1.25974e-18
-9.50357e-19
-1.44713e-18
-6.5071e-19
-1.58425e-18
-3.49207e-19
-1.6672e-18
-5.67728e-20
-1.69613e-18
2.20538e-19
-1.67546e-18
4.76858e-19
-1.61071e-18
7.04763e-19
-1.50818e-18
9.00021e-19
-1.37558e-18
1.06359e-18
-1.22254e-18
1.19793e-18
-1.05859e-18
1.30384e-18
-8.91003e-19
1.38079e-18
-7.24303e-19
1.42903e-18
-5.61204e-19
1.4508e-18
-4.03893e-19
1.45025e-18
-2.54687e-19
1.43214e-18
-1.15856e-19
1.4005e-18
1.09428e-20
1.35796e-18
1.25043e-19
1.30592e-18
2.26734e-19
1.24526e-18
3.16915e-19
1.17707e-18
3.96664e-19
1.10295e-18
4.66954e-19
1.02475e-18
5.28545e-19
9.44092e-19
5.82049e-19
8.62016e-19
6.28036e-19
7.78959e-19
6.6713e-19
6.94986e-19
7.00026e-19
6.10086e-19
7.27453e-19
5.24338e-19
7.50109e-19
4.37921e-19
7.686e-19
3.51028e-19
7.83401e-19
2.63804e-19
7.94858e-19
1.76338e-19
8.03203e-19
8.86918e-20
8.08585e-19
8.11095e-19
-8.8425e-11
1.71388e-10
-2.01384e-10
-2.07864e-10
-2.85794e-10
-3.60361e-10
-3.74024e-10
-4.55852e-10
-4.58284e-10
-5.37271e-10
-4.76161e-10
-6.42408e-10