/*--------------------------------*- C++ -*----------------------------------*\
  =========                 |
  \\      /  F ield         | OpenFOAM: The Open Source CFD Toolbox
   \\    /   O peration     | Website:  https://openfoam.org
    \\  /    A nd           | Version:  6
     \\/     M anipulation  |
\*---------------------------------------------------------------------------*/
FoamFile
{
    version     2.0;
    format      ascii;
    class       volVectorField;
    location    "1500";
    object      U;
}
// * * * * * * * * * * * * * * * * * * * * * * * * * * * * * * * * * * * * * //

dimensions      [0 1 -1 0 0 0 0];

internalField   nonuniform List<vector> 
4800
(
(-8.75981e-05 0 5.30691e-05)
(5.78048e-05 0 -3.64849e-05)
(6.50908e-05 0 -4.54147e-05)
(8.4758e-05 0 -5.6426e-05)
(0.000133894 0 -5.19144e-05)
(0.000185659 0 -6.07634e-05)
(0.00024233 0 -7.42415e-05)
(0.000315848 0 -5.01991e-05)
(0.000369408 0 -4.80489e-05)
(0.000401544 0 -6.59221e-05)
(0.000449184 0 -5.79309e-05)
(0.000512856 0 -4.71695e-05)
(0.000585169 0 -6.58098e-05)
(0.000638151 0 -5.05088e-05)
(0.000659731 0 -8.8015e-05)
(0.000715207 0 -7.19514e-05)
(0.000782764 0 -5.1627e-05)
(0.000799042 0 -6.94698e-05)
(0.000828113 0 -5.86607e-05)
(0.00089336 0 -4.94687e-05)
(0.000930983 0 -2.72796e-05)
(0.000928094 0 -3.3346e-05)
(0.000940979 0 -4.96451e-05)
(0.000977805 0 -1.45624e-05)
(0.00100935 0 -1.51624e-05)
(0.0010263 0 -4.0424e-05)
(0.00105219 0 -6.21414e-05)
(0.00109269 0 -7.38952e-05)
(0.00113576 0 -0.000104003)
(0.00118861 0 -9.34539e-05)
(0.00121733 0 -2.95731e-05)
(0.0012153 0 -1.9385e-05)
(0.00121574 0 -1.55206e-05)
(0.00121804 0 -1.7689e-05)
(0.00122097 0 -1.95961e-05)
(0.00122472 0 -1.28412e-05)
(0.00123314 0 -3.65842e-06)
(0.00123666 0 -4.49043e-07)
(0.00123098 0 -2.79521e-06)
(0.00121233 0 9.15889e-06)
(0.00118327 0 1.89667e-05)
(0.00114559 0 -5.4192e-06)
(0.00110517 0 -6.94115e-06)
(0.00106575 0 1.83672e-05)
(0.00102404 0 4.90217e-06)
(0.000980192 0 1.60909e-06)
(0.000938104 0 1.50715e-05)
(0.000902902 0 1.79691e-05)
(0.000879028 0 3.1294e-06)
(0.000863352 0 -1.83724e-05)
(0.000853458 0 -3.26894e-05)
(0.000851342 0 -3.10087e-05)
(0.000852631 0 -3.07721e-05)
(0.000857706 0 -3.72182e-05)
(0.00086462 0 -3.90354e-05)
(0.000867409 0 -3.02247e-05)
(0.000872036 0 -2.36161e-05)
(0.000873924 0 -1.34634e-05)
(0.000864426 0 4.90868e-06)
(0.000827975 0 -3.86012e-05)
(0.000803148 0 -5.31898e-05)
(0.000792447 0 2.25382e-05)
(0.000752586 0 6.79744e-05)
(0.000633681 0 -0.000126739)
(0.000537671 0 -0.00012697)
(0.000476264 0 -5.12627e-05)
(0.000402716 0 4.24667e-06)
(0.00034266 0 1.24265e-05)
(0.000325076 0 -9.43733e-06)
(0.000316452 0 -2.02257e-05)
(0.000305219 0 -1.89075e-05)
(0.000298756 0 -9.55165e-06)
(0.000294385 0 -9.87673e-06)
(0.000283297 0 -6.30644e-06)
(0.000261876 0 2.40826e-05)
(0.000240535 0 -2.40512e-05)
(0.000193468 0 1.8326e-05)
(0.00013138 0 -1.79503e-05)
(-0.000104756 0 -0.000186035)
(-7.71051e-05 0 -0.000162265)
(-6.15987e-08 0 -7.82316e-05)
(-1.43442e-13 0 -6.06545e-14)
(-2.47928e-13 0 -3.06503e-14)
(-1.96236e-13 0 -1.86476e-14)
(-1.58815e-13 0 -1.56476e-14)
(-1.25931e-13 0 -1.59321e-14)
(-9.12974e-14 0 -1.73109e-14)
(-5.33435e-14 0 -1.88366e-14)
(-1.24041e-14 0 -2.00726e-14)
(3.05331e-14 0 -2.08137e-14)
(7.4283e-14 0 -2.09831e-14)
(1.17675e-13 0 -2.05971e-14)
(1.59618e-13 0 -1.97244e-14)
(1.99109e-13 0 -1.84373e-14)
(2.35319e-13 0 -1.68112e-14)
(2.67671e-13 0 -1.49377e-14)
(2.95778e-13 0 -1.29116e-14)
(3.19359e-13 0 -1.08098e-14)
(3.38199e-13 0 -8.6829e-15)
(3.52153e-13 0 -6.55495e-15)
(3.61199e-13 0 -4.42995e-15)
(3.65499e-13 0 -2.31092e-15)
(3.65405e-13 0 -2.19421e-16)
(3.61386e-13 0 1.80215e-15)
(3.53939e-13 0 3.70553e-15)
(3.43518e-13 0 5.45145e-15)
(3.30484e-13 0 7.01289e-15)
(3.15086e-13 0 8.37244e-15)
(2.97462e-13 0 9.52468e-15)
(2.77706e-13 0 1.04833e-14)
(2.55954e-13 0 1.12819e-14)
(2.32438e-13 0 1.19639e-14)
(2.0748e-13 0 1.25654e-14)
(1.81429e-13 0 1.31044e-14)
(1.54592e-13 0 1.35819e-14)
(1.27208e-13 0 1.39922e-14)
(9.94397e-14 0 1.43337e-14)
(7.13917e-14 0 1.46158e-14)
(4.30989e-14 0 1.48667e-14)
(1.44452e-14 0 1.5181e-14)
(-4.91977e-05 0 -6.02082e-05)
(5.75668e-05 0 -4.91145e-05)
(4.01044e-05 0 -3.65839e-05)
(5.14864e-05 0 -4.4195e-05)
(0.000103176 0 -4.9025e-05)
(0.000170413 0 -4.77187e-05)
(0.000223079 0 -8.69592e-05)
(0.000289671 0 -6.69933e-05)
(0.000349387 0 -1.77356e-05)
(0.000383604 0 -7.884e-05)
(0.000431984 0 -5.01243e-05)
(0.000481147 0 -6.76387e-05)
(0.000544125 0 -9.5495e-05)
(0.000606415 0 -1.18528e-05)
(0.000620174 0 -0.000124975)
(0.000681096 0 -8.89288e-05)
(0.000725777 0 5.88279e-05)
(0.000727764 0 -6.48214e-05)
(0.000755256 0 -7.18425e-05)
(0.000824254 0 1.58738e-05)
(0.00085425 0 5.49817e-06)
(0.000856189 0 -1.68412e-05)
(0.000876836 0 -1.22819e-05)
(0.000912332 0 -1.70152e-05)
(0.000941933 0 -5.87149e-05)
(0.000981151 0 -8.37388e-05)
(0.00104295 0 -7.16682e-05)
(0.0011071 0 -3.66046e-05)
(0.00113601 0 -8.6668e-06)
(0.00114979 0 2.60098e-06)
(0.00114901 0 5.09359e-06)
(0.00114131 0 1.45323e-05)
(0.00114022 0 1.5273e-05)
(0.0011478 0 1.02639e-05)
(0.00116514 0 1.49451e-06)
(0.00118261 0 -1.19676e-05)
(0.00119314 0 -1.02666e-05)
(0.00120673 0 8.05444e-06)
(0.00121228 0 2.87112e-05)
(0.00120499 0 3.63677e-05)
(0.00118292 0 5.68144e-05)
(0.0011528 0 7.51459e-05)
(0.00111201 0 9.56127e-05)
(0.00106316 0 7.56947e-05)
(0.00101297 0 7.9181e-05)
(0.000966103 0 7.25101e-05)
(0.000915355 0 7.69749e-05)
(0.000869233 0 6.1346e-05)
(0.000838891 0 6.02096e-05)
(0.000821995 0 5.41953e-05)
(0.000806108 0 4.70531e-05)
(0.000786629 0 3.32059e-05)
(0.000777879 0 1.67385e-05)
(0.000780699 0 1.47899e-05)
(0.00078303 0 1.86134e-05)
(0.000778493 0 2.10942e-05)
(0.000767166 0 -1.1419e-07)
(0.000760711 0 3.52845e-05)
(0.000750214 0 2.73463e-05)
(0.000713206 0 3.27976e-05)
(0.000691502 0 6.48308e-05)
(0.000697975 0 5.12078e-05)
(0.000689199 0 4.40269e-05)
(0.000623599 0 0.000166459)
(0.000534696 0 0.000159127)
(0.000412181 0 0.000160363)
(0.000368928 0 7.51698e-05)
(0.000346064 0 5.04565e-05)
(0.000334972 0 3.2671e-05)
(0.000333513 0 2.85075e-05)
(0.000330981 0 1.39215e-05)
(0.000326236 0 8.37569e-06)
(0.000322811 0 1.76496e-05)
(0.000311568 0 3.89456e-05)
(0.000295574 0 -2.34588e-06)
(0.000271896 0 8.02636e-05)
(0.000253421 0 0.000101008)
(0.000226426 0 0.000102925)
(0.00012178 0 0.000154233)
(0.000124364 0 0.000118327)
(-1.67211e-08 0 5.11743e-05)
(-1.40906e-13 0 -1.27968e-13)
(-2.05597e-13 0 -7.6443e-14)
(-1.80991e-13 0 -4.89248e-14)
(-1.5602e-13 0 -4.29397e-14)
(-1.27595e-13 0 -4.57739e-14)
(-9.4202e-14 0 -5.11727e-14)
(-5.61052e-14 0 -5.64316e-14)
(-1.43812e-14 0 -6.04482e-14)
(2.96226e-14 0 -6.27977e-14)
(7.44996e-14 0 -6.33785e-14)
(1.18934e-13 0 -6.22852e-14)
(1.61778e-13 0 -5.97193e-14)
(2.02022e-13 0 -5.59038e-14)
(2.38819e-13 0 -5.10846e-14)
(2.71571e-13 0 -4.55416e-14)
(2.99906e-13 0 -3.95495e-14)
(3.23588e-13 0 -3.33136e-14)
(3.42454e-13 0 -2.69418e-14)
(3.56406e-13 0 -2.04698e-14)
(3.65443e-13 0 -1.39147e-14)
(3.6971e-13 0 -7.32692e-15)
(3.69518e-13 0 -8.15716e-16)
(3.65311e-13 0 5.45904e-15)
(3.57589e-13 0 1.13208e-14)
(3.46825e-13 0 1.66162e-14)
(3.33405e-13 0 2.12477e-14)
(3.17598e-13 0 2.51941e-14)
(2.99573e-13 0 2.85127e-14)
(2.79463e-13 0 3.132e-14)
(2.57434e-13 0 3.37522e-14)
(2.33722e-13 0 3.59211e-14)
(2.08621e-13 0 3.78874e-14)
(1.82445e-13 0 3.96602e-14)
(1.5548e-13 0 4.12201e-14)
(1.2796e-13 0 4.25466e-14)
(1.00063e-13 0 4.3634e-14)
(7.19247e-14 0 4.44934e-14)
(4.36641e-14 0 4.5151e-14)
(1.47595e-14 0 4.56666e-14)
(-7.56138e-06 0 -6.16229e-05)
(1.13124e-05 0 -4.59548e-05)
(-7.64981e-06 0 -2.82247e-05)
(5.21649e-05 0 -7.39669e-05)
(8.14837e-05 0 -0.000175867)
(0.000202147 0 -0.000119264)
(0.000211381 0 -0.000193238)
(0.000289439 0 -0.000128596)
(0.000328531 0 -0.000127199)
(0.000364348 0 -0.000145405)
(0.000430152 0 -7.5209e-05)
(0.00044084 0 -0.000200882)
(0.000512634 0 -0.000108156)
(0.000572057 0 -2.68584e-05)
(0.000538381 0 -0.000257126)
(0.000625227 0 2.05034e-05)
(0.00065118 0 -0.0001064)
(0.000669748 0 -0.000142636)
(0.000710857 0 -0.000150346)
(0.000784065 0 -0.000145736)
(0.000811814 0 -9.40482e-05)
(0.000811031 0 -7.60098e-05)
(0.000829417 0 -5.75892e-05)
(0.000869837 0 -4.64733e-05)
(0.000916346 0 -7.43997e-05)
(0.000973531 0 -9.13371e-05)
(0.00101248 0 -7.78543e-05)
(0.00101064 0 -0.000112855)
(0.00101803 0 -0.000129785)
(0.00105252 0 -7.17015e-05)
(0.00109312 0 -2.92767e-05)
(0.00111205 0 -3.27418e-05)
(0.0011121 0 -3.06511e-05)
(0.00111625 0 -3.13927e-05)
(0.00112666 0 -3.02908e-05)
(0.00114196 0 -1.13817e-05)
(0.00114938 0 -3.04102e-05)
(0.00115443 0 -3.41959e-05)
(0.00116352 0 1.09224e-05)
(0.00116435 0 4.15825e-05)
(0.00115729 0 6.048e-05)
(0.00113146 0 9.13452e-05)
(0.0010894 0 0.000111132)
(0.00104399 0 0.000107329)
(0.000993229 0 0.000106813)
(0.000936505 0 0.00011653)
(0.000889104 0 8.93959e-05)
(0.000843073 0 7.85542e-05)
(0.000790299 0 6.58376e-05)
(0.000741851 0 6.65945e-05)
(0.000722742 0 3.59847e-05)
(0.000711955 0 8.1144e-06)
(0.000692146 0 -1.88442e-05)
(0.000671215 0 -1.98166e-05)
(0.000658287 0 -6.7667e-06)
(0.000653085 0 -7.56692e-06)
(0.000656882 0 -1.94119e-05)
(0.000677012 0 1.00249e-05)
(0.000677647 0 4.93338e-05)
(0.000662709 0 5.62786e-05)
(0.000635066 0 -5.24554e-05)
(0.000610953 0 0.000120382)
(0.000592561 0 0.000181565)
(0.000551572 0 0.000228201)
(0.000473482 0 0.000235597)
(0.000390927 0 0.000202856)
(0.00035987 0 0.000120379)
(0.000344638 0 5.78209e-05)
(0.000334507 0 1.32361e-05)
(0.000335109 0 1.11074e-06)
(0.000334357 0 1.41046e-05)
(0.000329749 0 1.11293e-05)
(0.000321946 0 1.88834e-05)
(0.000307029 0 6.34239e-05)
(0.000297178 0 -9.44258e-07)
(0.000263637 0 0.00010219)
(0.000260051 0 8.64293e-05)
(0.000252194 0 9.89527e-05)
(0.000228502 0 9.38048e-05)
(0.000173537 0 0.000112636)
(-1.61152e-08 0 8.84576e-05)
(-1.35548e-13 0 -2.83288e-13)
(-1.68239e-13 0 -9.76941e-14)
(-1.62256e-13 0 -6.02522e-14)
(-1.5551e-13 0 -6.21076e-14)
(-1.34164e-13 0 -7.36809e-14)
(-1.01955e-13 0 -8.6087e-14)
(-6.26189e-14 0 -9.63868e-14)
(-1.87702e-14 0 -1.03655e-13)
(2.76028e-14 0 -1.07687e-13)
(7.47955e-14 0 -1.08576e-13)
(1.21334e-13 0 -1.0659e-13)
(1.65999e-13 0 -1.02096e-13)
(2.07743e-13 0 -9.54702e-14)
(2.45681e-13 0 -8.71245e-14)
(2.79206e-13 0 -7.75139e-14)
(3.08006e-13 0 -6.70997e-14)
(3.31967e-13 0 -5.62567e-14)
(3.51043e-13 0 -4.52111e-14)
(3.6518e-13 0 -3.40627e-14)
(3.74342e-13 0 -2.28678e-14)
(3.78598e-13 0 -1.17217e-14)
(3.78191e-13 0 -8.01004e-16)
(3.73523e-13 0 9.64272e-15)
(3.65096e-13 0 1.93299e-14)
(3.53444e-13 0 2.80223e-14)
(3.39062e-13 0 3.55902e-14)
(3.22351e-13 0 4.20487e-14)
(3.03588e-13 0 4.75435e-14)
(2.82946e-13 0 5.22896e-14)
(2.60555e-13 0 5.6492e-14)
(2.36573e-13 0 6.02879e-14)
(2.11219e-13 0 6.37302e-14)
(1.84761e-13 0 6.68105e-14)
(1.57479e-13 0 6.94969e-14)
(1.29622e-13 0 7.17638e-14)
(1.01386e-13 0 7.35998e-14)
(7.29087e-14 0 7.50007e-14)
(4.42721e-14 0 7.59533e-14)
(1.49609e-14 0 7.64069e-14)
(-2.55643e-05 0 -5.61662e-05)
(-2.621e-05 0 -2.3632e-05)
(-5.15212e-06 0 -2.48528e-05)
(8.5171e-05 0 -0.000177818)
(0.000156265 0 -0.000228356)
(0.000199927 0 -0.00021613)
(0.000223943 0 -0.000218233)
(0.000272814 0 -0.000188419)
(0.000321835 0 -0.000149539)
(0.000361457 0 -0.000133112)
(0.000388743 0 -0.000168093)
(0.000410309 0 -0.000200712)
(0.000447086 0 -0.000152425)
(0.000490516 0 -0.000110519)
(0.000476203 0 -0.000203117)
(0.000520093 0 -0.000110689)
(0.000584241 0 -4.33737e-05)
(0.000600963 0 -0.000231094)
(0.000674706 0 -0.000147302)
(0.000726228 0 -7.01703e-05)
(0.000764927 0 -4.68288e-05)
(0.000775594 0 -0.000133517)
(0.0008039 0 -0.000110528)
(0.000839415 0 -8.86208e-05)
(0.000871118 0 -0.000128144)
(0.00090451 0 -0.000146967)
(0.000918273 0 -0.000123515)
(0.000924297 0 -0.000108123)
(0.0009366 0 -8.10315e-05)
(0.000949009 0 -3.9997e-05)
(0.000960581 0 -7.01034e-06)
(0.000982432 0 -2.04969e-05)
(0.0010154 0 -3.50578e-05)
(0.00103809 0 -4.61147e-05)
(0.00105006 0 -5.19754e-05)
(0.00106472 0 -3.88264e-05)
(0.00106766 0 -2.96375e-05)
(0.00105817 0 -1.75219e-05)
(0.00104316 0 2.69945e-05)
(0.00104988 0 4.03164e-05)
(0.00106497 0 9.2806e-05)
(0.0010562 0 0.000110342)
(0.00102579 0 0.000129716)
(0.000980569 0 0.000169736)
(0.00093545 0 0.000171842)
(0.000888465 0 0.000151355)
(0.00083217 0 0.000164494)
(0.000779208 0 0.000139015)
(0.000734099 0 6.97043e-05)
(0.000705189 0 4.20031e-05)
(0.000680585 0 4.17633e-05)
(0.000640035 0 5.47946e-05)
(0.000589745 0 4.68744e-05)
(0.000578441 0 2.66965e-05)
(0.000579206 0 1.92651e-05)
(0.00058041 0 8.36459e-06)
(0.000598993 0 -1.02276e-05)
(0.000645092 0 2.52372e-05)
(0.000653048 0 5.8389e-05)
(0.000644905 0 7.51279e-05)
(0.000619325 0 3.20923e-05)
(0.000566489 0 9.03098e-05)
(0.000550186 0 0.000154752)
(0.000534367 0 0.000175114)
(0.000455135 0 0.00024971)
(0.000384638 0 0.000226597)
(0.000329376 0 0.000185596)
(0.00031944 0 8.55448e-05)
(0.000323535 0 2.99012e-05)
(0.000320715 0 2.51635e-05)
(0.000317656 0 1.96459e-05)
(0.000311268 0 8.3252e-06)
(0.000299112 0 9.07318e-06)
(0.000281585 0 6.7765e-05)
(0.000276464 0 4.55641e-05)
(0.000248133 0 0.000113719)
(0.000219147 0 0.000158879)
(0.000199298 0 0.000190107)
(0.000159114 0 0.000212763)
(0.000253512 0 0.000143949)
(4.79067e-07 0 0.000171298)
(-1.89909e-13 0 1.70169e-13)
(1.80626e-14 0 3.17985e-14)
(-1.44945e-13 0 -3.34404e-14)
(-1.69308e-13 0 -7.3914e-14)
(-1.51574e-13 0 -1.03378e-13)
(-1.16908e-13 0 -1.25662e-13)
(-7.3673e-14 0 -1.41843e-13)
(-2.5681e-14 0 -1.52439e-13)
(2.47018e-14 0 -1.57885e-13)
(7.55959e-14 0 -1.58617e-13)
(1.25414e-13 0 -1.55147e-13)
(1.72898e-13 0 -1.48056e-13)
(2.16993e-13 0 -1.37897e-13)
(2.56775e-13 0 -1.25227e-13)
(2.91596e-13 0 -1.10665e-13)
(3.21163e-13 0 -9.48926e-14)
(3.45476e-13 0 -7.85485e-14)
(3.64648e-13 0 -6.2111e-14)
(3.7875e-13 0 -4.58612e-14)
(3.87784e-13 0 -2.99398e-14)
(3.91776e-13 0 -1.44469e-14)
(3.90883e-13 0 4.7429e-16)
(3.85442e-13 0 1.46096e-14)
(3.75968e-13 0 2.77079e-14)
(3.63085e-13 0 3.95519e-14)
(3.47432e-13 0 5.00264e-14)
(3.29551e-13 0 5.91507e-14)
(3.09814e-13 0 6.7063e-14)
(2.88412e-13 0 7.39647e-14)
(2.65433e-13 0 8.00543e-14)
(2.4096e-13 0 8.54771e-14)
(2.15143e-13 0 9.03092e-14)
(1.88212e-13 0 9.4571e-14)
(1.60433e-13 0 9.82538e-14)
(1.32063e-13 0 1.01342e-13)
(1.033e-13 0 1.03823e-13)
(7.42781e-14 0 1.05682e-13)
(4.50703e-14 0 1.06902e-13)
(1.52131e-14 0 1.07463e-13)
(-4.44099e-05 0 -2.88975e-05)
(-2.15627e-05 0 -1.59017e-05)
(1.42693e-05 0 -0.00015732)
(0.00010332 0 -0.000243893)
(0.000157534 0 -0.000261425)
(0.00017109 0 -0.000254811)
(0.00021176 0 -0.00023127)
(0.000217143 0 -0.000230894)
(0.000271248 0 -0.000178988)
(0.000284162 0 -0.000191638)
(0.000319729 0 -0.000187664)
(0.000362594 0 -0.000163652)
(0.000358005 0 -0.000206971)
(0.000415957 0 -0.000115153)
(0.000421175 0 -0.000173516)
(0.000420065 0 -0.000238508)
(0.000500872 0 -8.93004e-05)
(0.000540193 0 -0.000165931)
(0.000574344 0 -0.000262092)
(0.000632753 0 -0.000144517)
(0.000658025 0 -0.000106909)
(0.000688319 0 -0.00012571)
(0.000736653 0 -0.000134002)
(0.000801362 0 -7.0581e-05)
(0.0008213 0 -0.000144572)
(0.000819306 0 -0.000189705)
(0.000834761 0 -0.000143908)
(0.000839036 0 -0.000203407)
(0.000862725 0 -0.000100628)
(0.000859884 0 -8.4568e-05)
(0.000862819 0 -8.3265e-05)
(0.00087917 0 -9.34318e-05)
(0.000907353 0 -7.85109e-05)
(0.000918687 0 -5.67554e-05)
(0.000920847 0 -2.49662e-05)
(0.000922158 0 -1.63538e-05)
(0.000927812 0 -9.76743e-06)
(0.000927242 0 -6.25838e-06)
(0.000923606 0 -8.4877e-07)
(0.000927575 0 -2.63796e-06)
(0.000930189 0 8.03461e-05)
(0.000923043 0 0.000157921)
(0.000914426 0 0.000177692)
(0.000886382 0 0.000204675)
(0.000848605 0 0.000223504)
(0.000810738 0 0.000217717)
(0.000762079 0 0.000197656)
(0.000707821 0 0.000180886)
(0.000682485 0 0.000149752)
(0.000663155 0 0.000105777)
(0.000613768 0 9.85519e-05)
(0.000564575 0 8.80413e-05)
(0.000543495 0 1.90877e-05)
(0.000541276 0 4.35788e-06)
(0.000548125 0 7.86323e-06)
(0.000569026 0 -2.91456e-05)
(0.000589948 0 -0.000157554)
(0.000611168 0 3.44075e-06)
(0.000613534 0 5.97051e-05)
(0.000609144 0 9.2461e-05)
(0.000589033 0 8.30002e-05)
(0.000557311 0 0.00010744)
(0.000502571 0 0.000226491)
(0.00043714 0 0.000314824)
(0.000387857 0 0.00034166)
(0.00034331 0 0.000304389)
(0.00029973 0 0.000173133)
(0.000295744 0 4.15844e-05)
(0.000299045 0 2.81789e-05)
(0.00029661 0 1.71461e-05)
(0.000289279 0 3.25711e-05)
(0.000281811 0 3.71852e-05)
(0.000253984 0 5.79388e-05)
(0.000236555 0 8.24891e-05)
(0.000238788 0 7.67999e-05)
(0.000222221 0 0.000119944)
(0.000240513 0 6.68514e-05)
(0.00017607 0 0.000169671)
(0.000149219 0 0.000217822)
(8.76201e-06 0 0.000305925)
(-1.01217e-07 0 0.000260604)
(-2.07865e-13 0 3.67072e-13)
(-3.71163e-13 0 8.69446e-14)
(-2.67513e-13 0 -3.19247e-14)
(-2.25327e-13 0 -9.77474e-14)
(-1.85912e-13 0 -1.41453e-13)
(-1.40419e-13 0 -1.7246e-13)
(-8.93954e-14 0 -1.93932e-13)
(-3.48126e-14 0 -2.07309e-13)
(2.14242e-14 0 -2.13553e-13)
(7.75337e-14 0 -2.13434e-13)
(1.31896e-13 0 -2.07725e-13)
(1.83249e-13 0 -1.97267e-13)
(2.30572e-13 0 -1.82835e-13)
(2.72913e-13 0 -1.65155e-13)
(3.09541e-13 0 -1.44993e-13)
(3.40123e-13 0 -1.23235e-13)
(3.64748e-13 0 -1.008e-13)
(3.8373e-13 0 -7.84643e-14)
(3.97352e-13 0 -5.67466e-14)
(4.05756e-13 0 -3.59155e-14)
(4.09012e-13 0 -1.60766e-14)
(4.07248e-13 0 2.71517e-15)
(4.00756e-13 0 2.03757e-14)
(3.90039e-13 0 3.6772e-14)
(3.75763e-13 0 5.17534e-14)
(3.58661e-13 0 6.52085e-14)
(3.39388e-13 0 7.71129e-14)
(3.18402e-13 0 8.75441e-14)
(2.95937e-13 0 9.66568e-14)
(2.72067e-13 0 1.04635e-13)
(2.46828e-13 0 1.11641e-13)
(2.20313e-13 0 1.17789e-13)
(1.92706e-13 0 1.23142e-13)
(1.6425e-13 0 1.27721e-13)
(1.35191e-13 0 1.3153e-13)
(1.05726e-13 0 1.34565e-13)
(7.5988e-14 0 1.36816e-13)
(4.60532e-14 0 1.38277e-13)
(1.55218e-14 0 1.38947e-13)
(-4.10612e-05 0 -1.13234e-05)
(-2.01332e-07 0 -2.20572e-05)
(4.63011e-05 0 -0.000243327)
(9.11695e-05 0 -0.00029159)
(0.000119248 0 -0.000284393)
(0.000134836 0 -0.000278083)
(0.000174899 0 -0.000248324)
(0.000171127 0 -0.000230545)
(0.000192393 0 -0.00021418)
(0.000203732 0 -0.000210635)
(0.000234791 0 -0.000210637)
(0.000252247 0 -0.000232493)
(0.000293493 0 -0.000202615)
(0.00031765 0 -0.000196658)
(0.000345442 0 -0.000215136)
(0.000414026 0 -0.000142684)
(0.00039524 0 -0.000245355)
(0.000433241 0 -0.000286106)
(0.000494302 0 -0.000281341)
(0.000545977 0 -0.000180464)
(0.000569158 0 -0.000153398)
(0.000590216 0 -0.000216313)
(0.000654283 0 -0.000198374)
(0.000718953 0 -0.000115389)
(0.000736056 0 -0.000123168)
(0.000740382 0 -0.000139786)
(0.000751941 0 -0.000136956)
(0.000775451 0 -9.1238e-05)
(0.000781102 0 -7.50462e-05)
(0.000781679 0 -6.85843e-05)
(0.000790925 0 -5.99883e-05)
(0.000799495 0 -6.12977e-05)
(0.000794026 0 -6.82025e-05)
(0.000786221 0 -6.03608e-05)
(0.000786753 0 -5.64106e-05)
(0.000789409 0 -5.62996e-05)
(0.000796421 0 -4.5652e-05)
(0.000804515 0 5.57377e-06)
(0.000803368 0 2.22719e-05)
(0.000794894 0 5.45327e-05)
(0.000786035 0 9.39254e-05)
(0.000791561 0 0.000119214)
(0.000790133 0 0.000197392)
(0.00077883 0 0.000220812)
(0.000751979 0 0.000251224)
(0.000721419 0 0.000261534)
(0.000685753 0 0.000252889)
(0.000644397 0 0.00024492)
(0.00062491 0 0.000185603)
(0.00056739 0 0.000201139)
(0.000539311 0 0.000121567)
(0.000539846 0 9.58022e-05)
(0.000536004 0 8.01745e-05)
(0.000534639 0 2.71089e-06)
(0.000542474 0 -2.42354e-05)
(0.000574896 0 -2.73328e-05)
(0.000578528 0 -1.83199e-05)
(0.000572028 0 -6.32423e-06)
(0.000581532 0 2.95497e-05)
(0.000581912 0 8.80911e-05)
(0.000571052 0 8.59802e-05)
(0.000526044 0 0.000144588)
(0.0004287 0 0.000302436)
(0.000398814 0 0.000341598)
(0.000361042 0 0.000365289)
(0.000318059 0 0.000343361)
(0.000275941 0 0.000237284)
(0.000277096 0 7.87431e-05)
(0.000283751 0 2.84406e-05)
(0.000276043 0 2.98029e-05)
(0.000256445 0 6.65595e-06)
(0.000226559 0 7.52168e-05)
(0.000219404 0 3.1758e-05)
(0.000193858 0 8.12492e-05)
(0.000178497 0 0.000114466)
(0.000141966 0 0.000177751)
(0.000144199 0 0.000200936)
(9.73737e-05 0 0.00024442)
(0.000164295 0 0.000235218)
(3.60308e-05 0 0.000320396)
(1.37656e-07 0 0.000309939)
(-2.43151e-13 0 -1.68214e-14)
(-3.8023e-13 0 -2.0089e-14)
(-3.29204e-13 0 -8.26611e-14)
(-2.78742e-13 0 -1.43026e-13)
(-2.26286e-13 0 -1.91616e-13)
(-1.69387e-13 0 -2.2811e-13)
(-1.08522e-13 0 -2.53431e-13)
(-4.53017e-14 0 -2.68624e-13)
(1.85767e-14 0 -2.7479e-13)
(8.14232e-14 0 -2.72939e-13)
(1.41581e-13 0 -2.64105e-13)
(1.97788e-13 0 -2.49442e-13)
(2.49105e-13 0 -2.30031e-13)
(2.94617e-13 0 -2.06803e-13)
(3.33515e-13 0 -1.80642e-13)
(3.65356e-13 0 -1.52553e-13)
(3.90247e-13 0 -1.2366e-13)
(4.08702e-13 0 -9.50176e-14)
(4.21298e-13 0 -6.7415e-14)
(4.28454e-13 0 -4.12934e-14)
(4.30407e-13 0 -1.67972e-14)
(4.27335e-13 0 6.09424e-15)
(4.19499e-13 0 2.74316e-14)
(4.07346e-13 0 4.72113e-14)
(3.91522e-13 0 6.53641e-14)
(3.72791e-13 0 8.1797e-14)
(3.51887e-13 0 9.64547e-14)
(3.29358e-13 0 1.09363e-13)
(3.05503e-13 0 1.20636e-13)
(2.80417e-13 0 1.30441e-13)
(2.54114e-13 0 1.38956e-13)
(2.26644e-13 0 1.4633e-13)
(1.98143e-13 0 1.52668e-13)
(1.68822e-13 0 1.58032e-13)
(1.38907e-13 0 1.62456e-13)
(1.08586e-13 0 1.65955e-13)
(7.79906e-14 0 1.68537e-13)
(4.72015e-14 0 1.70208e-13)
(1.58833e-14 0 1.7098e-13)
(-3.96092e-05 0 -4.40606e-06)
(3.53711e-05 0 -5.11201e-05)
(5.4679e-05 0 -0.000256848)
(7.83476e-05 0 -0.000298888)
(4.91672e-05 0 -0.000297433)
(4.81596e-05 0 -0.000304205)
(5.57728e-05 0 -0.000291787)
(8.61683e-05 0 -0.000269884)
(0.000155161 0 -0.0002164)
(0.000132508 0 -0.000217378)
(0.000128701 0 -0.000243093)
(0.00017569 0 -0.000251246)
(0.000215477 0 -0.000247372)
(0.000251032 0 -0.00021856)
(0.000297825 0 -0.000195586)
(0.000250564 0 -0.000315811)
(0.00037305 0 -0.000208213)
(0.000415869 0 -0.000220435)
(0.000387822 0 -0.000316634)
(0.000446833 0 -0.000232355)
(0.00048592 0 -0.000183638)
(0.000530229 0 -0.000195023)
(0.000566915 0 -0.000256388)
(0.000612179 0 -0.000190783)
(0.000622748 0 -0.000174148)
(0.000631747 0 -0.000195513)
(0.000655984 0 -0.000215822)
(0.000675068 0 -0.000181804)
(0.000677955 0 -0.000150281)
(0.000685461 0 -0.000112526)
(0.000694828 0 -8.37704e-05)
(0.000700038 0 -7.07831e-05)
(0.000697184 0 -6.83862e-05)
(0.000691697 0 -5.64608e-05)
(0.000686833 0 -3.14298e-05)
(0.000682091 0 -1.29587e-05)
(0.000673005 0 -1.58099e-05)
(0.000663621 0 -8.65113e-06)
(0.00066297 0 9.41634e-07)
(0.000663517 0 2.22996e-05)
(0.0006627 0 8.0627e-05)
(0.000666496 0 0.000132378)
(0.000673756 0 0.00019781)
(0.000667585 0 0.0002418)
(0.000653304 0 0.000265005)
(0.000631656 0 0.000282262)
(0.0006059 0 0.000288539)
(0.000600287 0 0.000222166)
(0.000540348 0 0.000268225)
(0.000514539 0 0.000218838)
(0.000503369 0 0.000173251)
(0.000499875 0 0.000153462)
(0.000496024 0 4.80216e-05)
(0.000500375 0 -1.69417e-06)
(0.000522388 0 -2.08066e-05)
(0.000544677 0 -6.81455e-05)
(0.000538636 0 -0.00010315)
(0.000539733 0 -2.78239e-05)
(0.000541139 0 5.26398e-05)
(0.000527738 0 0.000103686)
(0.000495625 0 0.000153543)
(0.000403663 0 0.000273497)
(0.000375799 0 0.000325806)
(0.000330713 0 0.000389876)
(0.000314213 0 0.000397193)
(0.000287719 0 0.000368564)
(0.000280465 0 0.000222779)
(0.000263009 0 9.04498e-05)
(0.000247309 0 7.81444e-05)
(0.000240608 0 6.24285e-05)
(0.000222511 0 5.91484e-05)
(0.000189439 0 8.2923e-05)
(0.000168944 0 9.38231e-05)
(0.000164606 0 0.000101875)
(0.000167449 0 9.57131e-05)
(0.000169815 0 0.000106218)
(0.000174233 0 0.000156097)
(0.00017694 0 0.000205821)
(0.000169866 0 0.00028111)
(3.66167e-05 0 0.000355367)
(9.65345e-08 0 0.00033044)
(-2.54123e-13 0 -2.77057e-14)
(-4.36351e-13 0 -6.74203e-14)
(-3.90063e-13 0 -1.33841e-13)
(-3.34222e-13 0 -1.98402e-13)
(-2.70997e-13 0 -2.52221e-13)
(-2.02234e-13 0 -2.93238e-13)
(-1.29909e-13 0 -3.21436e-13)
(-5.61717e-14 0 -3.37507e-13)
(1.71091e-14 0 -3.42616e-13)
(8.82184e-14 0 -3.3799e-13)
(1.55393e-13 0 -3.24939e-13)
(2.17324e-13 0 -3.04997e-13)
(2.73211e-13 0 -2.79675e-13)
(3.22302e-13 0 -2.50206e-13)
(3.63791e-13 0 -2.17598e-13)
(3.97105e-13 0 -1.82887e-13)
(4.22284e-13 0 -1.47261e-13)
(4.39975e-13 0 -1.11949e-13)
(4.51076e-13 0 -7.79879e-14)
(4.56374e-13 0 -4.6037e-14)
(4.564e-13 0 -1.63594e-14)
(4.51476e-13 0 1.10659e-14)
(4.41874e-13 0 3.63753e-14)
(4.27971e-13 0 5.9683e-14)
(4.10349e-13 0 8.10206e-14)
(3.89752e-13 0 1.00353e-13)
(3.66954e-13 0 1.17637e-13)
(3.42583e-13 0 1.32883e-13)
(3.17014e-13 0 1.4618e-13)
(2.90387e-13 0 1.57684e-13)
(2.62717e-13 0 1.67583e-13)
(2.34025e-13 0 1.7606e-13)
(2.04408e-13 0 1.83261e-13)
(1.74038e-13 0 1.89294e-13)
(1.43113e-13 0 1.94228e-13)
(1.11807e-13 0 1.98109e-13)
(8.02411e-14 0 2.00964e-13)
(4.84965e-14 0 2.02815e-13)
(1.62938e-14 0 2.0368e-13)
(-3.83247e-05 0 -5.33407e-06)
(4.75341e-05 0 -0.000104568)
(5.64429e-05 0 -0.00026158)
(1.93009e-05 0 -0.000283921)
(1.4096e-05 0 -0.000295333)
(1.80609e-05 0 -0.000301014)
(4.11942e-05 0 -0.000286213)
(2.31607e-05 0 -0.000294768)
(7.02455e-05 0 -0.000252451)
(0.000105324 0 -0.000213793)
(0.000103453 0 -0.000228535)
(5.49018e-05 0 -0.00028864)
(0.000159153 0 -0.000274602)
(0.000174393 0 -0.000260115)
(0.000228828 0 -0.000232079)
(0.000280677 0 -0.000219585)
(0.00020333 0 -0.000335158)
(0.000305158 0 -0.000306821)
(0.000348866 0 -0.000290252)
(0.000360403 0 -0.000274122)
(0.000390905 0 -0.000251986)
(0.00042363 0 -0.0002777)
(0.000471817 0 -0.00029165)
(0.000526969 0 -0.000199656)
(0.000541117 0 -0.000174943)
(0.000541074 0 -0.000233598)
(0.000598513 0 -0.000144331)
(0.000602445 0 -0.000123699)
(0.000602265 0 -9.63772e-05)
(0.000604838 0 -8.34321e-05)
(0.000607938 0 -7.6599e-05)
(0.000613993 0 -6.53416e-05)
(0.000613747 0 -5.89957e-05)
(0.000610158 0 -4.47066e-05)
(0.000603391 0 -4.97564e-05)
(0.000594876 0 -4.10888e-05)
(0.000585137 0 -1.93891e-05)
(0.000579444 0 8.01959e-06)
(0.000575721 0 2.90301e-05)
(0.000567093 0 5.7282e-05)
(0.000555426 0 9.70158e-05)
(0.000551454 0 0.000129902)
(0.0005498 0 0.000204431)
(0.000559228 0 0.000260032)
(0.000558524 0 0.00027916)
(0.000550019 0 0.000287077)
(0.000544521 0 0.000272933)
(0.000519554 0 0.000272858)
(0.000486068 0 0.000275895)
(0.000480435 0 0.000231749)
(0.0004803 0 0.000153615)
(0.000464571 0 0.000137406)
(0.000450367 0 8.3802e-05)
(0.00045069 0 -2.92314e-05)
(0.000458858 0 -5.62041e-05)
(0.000489762 0 -5.98908e-05)
(0.000490621 0 -4.5722e-05)
(0.000474756 0 -2.54183e-05)
(0.000418314 0 0.000113375)
(0.000398092 0 0.000162517)
(0.000356206 0 0.000227511)
(0.000334675 0 0.000278906)
(0.000296486 0 0.000366738)
(0.000271089 0 0.000412487)
(0.00027049 0 0.000408736)
(0.000274202 0 0.00036186)
(0.000281405 0 0.000239346)
(0.000270683 0 7.98784e-05)
(0.000232391 0 5.53752e-05)
(0.000214186 0 7.40091e-05)
(0.00019797 0 9.21323e-05)
(0.00017467 0 0.000111392)
(0.000160003 0 9.52912e-05)
(0.000160265 0 9.52006e-05)
(0.000150116 0 0.000116509)
(0.000141654 0 0.000140929)
(0.000106848 0 0.000191472)
(9.55959e-05 0 0.000255716)
(3.38044e-05 0 0.000361834)
(0.000133487 0 0.000387323)
(8.97351e-09 0 0.000365529)
(-2.8627e-13 0 4.96684e-14)
(-4.85733e-13 0 -8.67846e-14)
(-4.59849e-13 0 -1.85411e-13)
(-3.97097e-13 0 -2.63255e-13)
(-3.21123e-13 0 -3.24426e-13)
(-2.38602e-13 0 -3.69974e-13)
(-1.52791e-13 0 -4.00448e-13)
(-6.64821e-14 0 -4.16531e-13)
(1.80936e-14 0 -4.19505e-13)
(9.91004e-14 0 -4.10841e-13)
(1.74574e-13 0 -3.92147e-13)
(2.43052e-13 0 -3.65391e-13)
(3.03896e-13 0 -3.32668e-13)
(3.56694e-13 0 -2.95693e-13)
(4.00834e-13 0 -2.55708e-13)
(4.35693e-13 0 -2.13756e-13)
(4.61185e-13 0 -1.70963e-13)
(4.77975e-13 0 -1.28584e-13)
(4.87211e-13 0 -8.78108e-14)
(4.90083e-13 0 -4.95226e-14)
(4.8751e-13 0 -1.41598e-14)
(4.80069e-13 0 1.82221e-14)
(4.68116e-13 0 4.7788e-14)
(4.51991e-13 0 7.47482e-14)
(4.32192e-13 0 9.92497e-14)
(4.09408e-13 0 1.21353e-13)
(3.84417e-13 0 1.41073e-13)
(3.579e-13 0 1.58443e-13)
(3.30303e-13 0 1.73553e-13)
(3.01821e-13 0 1.86562e-13)
(2.72491e-13 0 1.97673e-13)
(2.42322e-13 0 2.07098e-13)
(2.11377e-13 0 2.15025e-13)
(1.79789e-13 0 2.21606e-13)
(1.47722e-13 0 2.26952e-13)
(1.15322e-13 0 2.31138e-13)
(8.26971e-14 0 2.34213e-13)
(4.99168e-14 0 2.36209e-13)
(1.67475e-14 0 2.37149e-13)
(-3.69809e-05 0 7.95341e-06)
(3.01286e-05 0 -0.000145113)
(-4.15339e-05 0 -0.000251184)
(-4.14642e-05 0 -0.000260801)
(-6.90808e-05 0 -0.000284076)
(-0.000102655 0 -0.000287428)
(-8.44415e-05 0 -0.000292491)
(-9.79539e-05 0 -0.000280494)
(-0.000108728 0 -0.000269172)
(-6.12895e-05 0 -0.000261428)
(-3.0903e-05 0 -0.000262215)
(2.35929e-05 0 -0.000285017)
(2.97269e-06 0 -0.00034025)
(4.51853e-05 0 -0.000313824)
(0.000106121 0 -0.000322532)
(0.000192455 0 -0.000284585)
(0.000208974 0 -0.000292688)
(0.000227175 0 -0.000332957)
(0.00025976 0 -0.000341172)
(0.000302403 0 -0.00030295)
(0.000335074 0 -0.00028036)
(0.000365892 0 -0.00028536)
(0.00039487 0 -0.00029283)
(0.000429145 0 -0.000242006)
(0.00044118 0 -0.000233303)
(0.000461779 0 -0.00022724)
(0.000490868 0 -0.000200718)
(0.000496317 0 -0.000182156)
(0.000505625 0 -0.000163518)
(0.000525178 0 -0.000105952)
(0.000528259 0 -8.81962e-05)
(0.000533485 0 -7.53339e-05)
(0.00053615 0 -6.74004e-05)
(0.000531382 0 -6.36302e-05)
(0.000534438 0 -1.65495e-05)
(0.000531743 0 -1.13576e-05)
(0.000515898 0 -1.81768e-06)
(0.000495092 0 -6.20783e-07)
(0.000484697 0 1.75885e-05)
(0.000474157 0 5.63698e-05)
(0.000464318 0 9.71799e-05)
(0.000462359 0 0.000124348)
(0.000478422 0 0.000149313)
(0.000479845 0 0.000229618)
(0.000463641 0 0.000291057)
(0.000455499 0 0.00030864)
(0.000452712 0 0.000306764)
(0.000445435 0 0.000295116)
(0.000436698 0 0.000278757)
(0.000441255 0 0.000236963)
(0.000437847 0 0.000174477)
(0.000409261 0 0.000168836)
(0.000399771 0 0.000104958)
(0.000398709 0 1.39171e-05)
(0.00036684 0 -6.44528e-05)
(0.000368009 0 -5.10529e-05)
(0.00037535 0 -4.49879e-05)
(0.000358715 0 1.78379e-06)
(0.000329657 0 7.85725e-05)
(0.000318963 0 0.000134987)
(0.000289129 0 0.000219576)
(0.000214142 0 0.000333107)
(0.000192547 0 0.000398664)
(0.000209691 0 0.000410203)
(0.000225299 0 0.000398775)
(0.00025435 0 0.000342351)
(0.000277841 0 0.000226185)
(0.00026282 0 9.601e-05)
(0.000218345 0 0.00010486)
(0.000202711 0 0.000100423)
(0.000191772 0 9.80149e-05)
(0.000165572 0 0.000120792)
(0.000170674 0 8.50235e-05)
(0.000125243 0 0.000126962)