/*--------------------------------*- C++ -*----------------------------------*\
  =========                 |
  \\      /  F ield         | OpenFOAM: The Open Source CFD Toolbox
   \\    /   O peration     | Website:  https://openfoam.org
    \\  /    A nd           | Version:  6
     \\/     M anipulation  |
\*---------------------------------------------------------------------------*/
FoamFile
{
    version     2.0;
    format      ascii;
    class       volScalarField;
    location    "180";
    object      dmdt;
}
// * * * * * * * * * * * * * * * * * * * * * * * * * * * * * * * * * * * * * //

dimensions      [0 0 0 0 0 0 0];

internalField   nonuniform List<scalar> 
5964
(
-0.353325
-0.295835
-0.246104
-0.205704
-0.172737
-0.144503
-0.118583
-0.0933907
-0.067801
-0.0235914
-0.0161969
-0.0366489
-0.0398032
-0.0419244
-0.043172
-0.0437325
-0.0437762
-0.0434417
-0.0428352
-0.042035
-0.0410978
-0.0400641
-0.0389623
-0.0378126
-0.0366291
-0.0354218
-0.0341978
-0.0329621
-0.0317186
-0.0304699
-0.0292181
-0.0279651
-0.0267123
-0.0254609
-0.0242124
-0.0229677
-0.0217281
-0.0204948
-0.0192688
-0.0180515
-0.0168438
-0.0156469
-0.014462
-0.0132901
-0.0121325
-0.0109901
-0.00986395
-0.00875516
-0.00766468
-0.00659348
-0.00554252
-0.00451268
-0.00350487
-0.00251992
-0.00155867
-0.000621895
0.000289628
0.00117516
0.00203399
0.00286543
0.00366883
0.00444356
0.005189
0.00590459
0.00658977
0.007244
0.00786678
0.00845764
0.00901612
0.00954179
0.0100343
0.0104931
0.010918
0.0113087
0.0116648
0.0119861
0.0122722
0.0125231
0.0127384
0.0129181
0.013062
0.01317
0.013242
0.013278
-0.352856
-0.295983
-0.247906
-0.208462
-0.175789
-0.147619
-0.121564
-0.0960802
-0.0697655
-0.0244689
-0.0166912
-0.0376783
-0.0407979
-0.0427919
-0.0438841
-0.0442976
-0.044217
-0.0437834
-0.0431001
-0.0422414
-0.0412599
-0.0401926
-0.0390652
-0.0378959
-0.0366973
-0.0354782
-0.0342449
-0.0330018
-0.0317523
-0.0304986
-0.0292429
-0.0279865
-0.0267309
-0.0254772
-0.0242266
-0.0229802
-0.0217392
-0.0205046
-0.0192775
-0.0180592
-0.0168507
-0.0156531
-0.0144675
-0.0132952
-0.012137
-0.0109942
-0.00986765
-0.0087585
-0.0076677
-0.00659622
-0.005545
-0.00451493
-0.0035069
-0.00252175
-0.00156031
-0.000623361
0.000288323
0.001174
0.00203297
0.00286454
0.00366807
0.00444291
0.00518846
0.00590415
0.00658942
0.00724374
0.00786661
0.00845755
0.0090161
0.00954184
0.0100344
0.0104933
0.0109183
0.011309
0.0116651
0.0119864
0.0122726
0.0125235
0.0127389
0.0129186
0.0130625
0.0131705
0.0132425
0.0132785
-0.35394
-0.298879
-0.252162
-0.213552
-0.181267
-0.153069
-0.126635
-0.100463
-0.073009
-0.0265756
-0.0177522
-0.0398666
-0.0428688
-0.0445535
-0.0453034
-0.0454103
-0.0450788
-0.0444487
-0.0436152
-0.0426428
-0.0415755
-0.0404432
-0.0392664
-0.0380593
-0.0368313
-0.0355893
-0.0343378
-0.0330802
-0.0318189
-0.0305557
-0.029292
-0.028029
-0.0267679
-0.0255095
-0.0242549
-0.0230052
-0.0217612
-0.0205242
-0.019295
-0.0180748
-0.0168646
-0.0156656
-0.0144788
-0.0133053
-0.0121462
-0.0110025
-0.00987522
-0.00876538
-0.00767396
-0.00660192
-0.00555018
-0.00451964
-0.00351118
-0.00252564
-0.00156383
-0.000626547
0.000285451
0.00117143
0.00203067
0.0028625
0.00366626
0.00444132
0.00518709
0.00590298
0.00658843
0.00724292
0.00786595
0.00845704
0.00901573
0.0095416
0.0100342
0.0104933
0.0109184
0.0113092
0.0116654
0.0119867
0.012273
0.012524
0.0127394
0.0129191
0.0130631
0.0131711
0.0132431
0.0132791
-0.355491
-0.302905
-0.257597
-0.21982
-0.188165
-0.160102
-0.133395
-0.106492
-0.0778085
-0.0302888
-0.0198266
-0.043603
-0.0461841
-0.0472403
-0.0474008
-0.0470233
-0.0463147
-0.0453981
-0.0443491
-0.0432151
-0.0420263
-0.0408023
-0.0395558
-0.038295
-0.0370254
-0.0357507
-0.0344733
-0.0331948
-0.0319166
-0.0306395
-0.0293643
-0.0280918
-0.0268225
-0.0255574
-0.024297
-0.0230423
-0.0217941
-0.0205533
-0.0193209
-0.018098
-0.0168854
-0.0156843
-0.0144957
-0.0133205
-0.01216
-0.011015
-0.00988657
-0.00877571
-0.00768337
-0.00661049
-0.00555799
-0.00452676
-0.00351766
-0.00253154
-0.00156919
-0.000631403
0.000281062
0.00116747
0.00202712
0.00285933
0.00366345
0.00443885
0.00518492
0.0059011
0.00658683
0.00724159
0.00786486
0.00845617
0.00901507
0.00954113
0.010034
0.0104932
0.0109184
0.0113093
0.0116657
0.0119871
0.0122735
0.0125245
0.01274
0.0129199
0.0130639
0.0131719
0.0132439
0.0132799
-0.357026
-0.30701
-0.26339
-0.226617
-0.195502
-0.167575
-0.140954
-0.114068
-0.0848694
-0.0375982
-0.0246514
-0.0496457
-0.0509272
-0.0508215
-0.0500871
-0.0490449
-0.0478469
-0.04657
-0.0452549
-0.0439231
-0.0425864
-0.0412506
-0.0399188
-0.0385923
-0.0372715
-0.0359564
-0.0346467
-0.0333422
-0.0320427
-0.0307481
-0.0294583
-0.0281735
-0.0268939
-0.0256199
-0.024352
-0.0230909
-0.0218371
-0.0205916
-0.0193551
-0.0181285
-0.0169128
-0.015709
-0.0145179
-0.0133407
-0.0121782
-0.0110315
-0.00990162
-0.00878941
-0.00769586
-0.00662188
-0.00556838
-0.00453624
-0.0035263
-0.0025394
-0.00157634
-0.000637895
0.000275185
0.00116217
0.00202235
0.00285507
0.00365965
0.00443549
0.00518199
0.00589855
0.00658465
0.00723974
0.00786333
0.00845494
0.00901412
0.00954044
0.0100335
0.0104929
0.0109184
0.0113095
0.011666
0.0119876
0.0122741
0.0125252
0.0127408
0.0129207
0.0130648
0.0131729
0.0132449
0.0132809
-0.35837
-0.310651
-0.268607
-0.232751
-0.202195
-0.174717
-0.148737
-0.122791
-0.0952698
-0.0602394
-0.0606392
-0.0588259
-0.0569842
-0.0550675
-0.0531634
-0.051323
-0.0495631
-0.0478825
-0.0462728
-0.0447232
-0.0432235
-0.0417644
-0.040338
-0.0389382
-0.0375598
-0.0361989
-0.0348524
-0.0335179
-0.0321938
-0.0308787
-0.0295717
-0.0282724
-0.0269805
-0.0256961
-0.0244192
-0.0231503
-0.0218899
-0.0206386
-0.019397
-0.0181661
-0.0169465
-0.0157393
-0.0145453
-0.0133655
-0.0122007
-0.011052
-0.00992023
-0.00880637
-0.00771133
-0.006636
-0.00558127
-0.00454801
-0.00353704
-0.00254919
-0.00158524
-0.00064598
0.000267861
0.00115555
0.0020164
0.00284974
0.00365491
0.00443129
0.0051783
0.00589535
0.00658189
0.00723741
0.00786139
0.00845337
0.00901289
0.00953953
0.0100329
0.0104926
0.0109183
0.0113096
0.0116663
0.0119881
0.0122748
0.0125261
0.0127418
0.0129218
0.0130659
0.0131741
0.0132462
0.0132822
-0.3596
-0.314015
-0.273522
-0.238792
-0.209106
-0.182213
-0.156875
-0.132205
-0.107935
-0.0858359
-0.0751799
-0.0681256
-0.0632146
-0.0594202
-0.056306
-0.0536512
-0.0513245
-0.0492392
-0.0473346
-0.0455664
-0.0439022
-0.0423175
-0.0407941
-0.0393182
-0.0378794
-0.03647
-0.0350841
-0.0337172
-0.032366
-0.0310283
-0.0297023
-0.0283868
-0.027081
-0.0257847
-0.0244975
-0.0232198
-0.0219517
-0.0206936
-0.0194463
-0.0182102
-0.0169863
-0.0157751
-0.0145777
-0.0133948
-0.0122273
-0.0110762
-0.00994225
-0.00882645
-0.00772966
-0.00665275
-0.00559657
-0.00456198
-0.00354979
-0.00256082
-0.00159583
-0.000655603
0.000259139
0.00114767
0.00200931
0.00284338
0.00364924
0.00442628
0.00517389
0.00589151
0.0065786
0.00723461
0.00785907
0.00845149
0.00901142
0.00953844
0.0100322
0.0104922
0.0109182
0.0113098
0.0116667
0.0119888
0.0122756
0.0125271
0.0127429
0.0129231
0.0130673
0.0131755
0.0132477
0.0132837
-0.36086
-0.317451
-0.278462
-0.244586
-0.215262
-0.18856
-0.163668
-0.140041
-0.117856
-0.0985856
-0.0855624
-0.075641
-0.0685734
-0.0632935
-0.0591666
-0.0558106
-0.0529872
-0.0505422
-0.0483716
-0.0464034
-0.0445864
-0.0428834
-0.0412671
-0.0397173
-0.038219
-0.036761
-0.0353349
-0.0339346
-0.0325554
-0.0311938
-0.0298475
-0.0285145
-0.0271937
-0.0258843
-0.0245859
-0.0232983
-0.0220216
-0.0207561
-0.0195023
-0.0182605
-0.0170315
-0.015816
-0.0146146
-0.0134283
-0.0122578
-0.0111039
-0.00996752
-0.00884951
-0.00775072
-0.006672
-0.00561417
-0.00457806
-0.00356448
-0.00257422
-0.00160804
-0.000666702
0.000249075
0.00113858
0.00200112
0.00283604
0.0036427
0.00442048
0.0051688
0.00588708
0.00657479
0.00723139
0.00785639
0.00844932
0.00900973
0.00953719
0.0100313
0.0104917
0.010918
0.01131
0.0116672
0.0119895
0.0122766
0.0125282
0.0127443
0.0129245
0.0130689
0.0131772
0.0132494
0.0132854
-0.361914
-0.320294
-0.282534
-0.249285
-0.22006
-0.193327
-0.168561
-0.145451
-0.124226
-0.10582
-0.0920122
-0.0807322
-0.0724636
-0.066267
-0.0614673
-0.0576176
-0.0544273
-0.0517053
-0.0493227
-0.04719
-0.0452436
-0.0434377
-0.0417386
-0.0401214
-0.0385676
-0.0370634
-0.0355984
-0.0341651
-0.0327577
-0.0313719
-0.0300045
-0.0286533
-0.0273167
-0.0259935
-0.024683
-0.0233849
-0.022099
-0.0208254
-0.0195644
-0.0183164
-0.0170819
-0.0158615
-0.0146559
-0.0134657
-0.0122918
-0.0111349
-0.00999582
-0.00887537
-0.00777436
-0.00669361
-0.00563394
-0.00459614
-0.00358101
-0.0025893
-0.00162179
-0.000679203
0.000237736
0.00112832
0.00199189
0.00282776
0.00363532
0.00441395
0.00516307
0.0058821
0.0065705
0.00722776
0.00785338
0.00844689
0.00900784
0.0095358
0.0100304
0.0104912
0.0109179
0.0113102
0.0116678
0.0119904
0.0122777
0.0125296
0.0127458
0.0129263
0.0130707
0.0131791
0.0132514
0.0132874
-0.362698
-0.32255
-0.285825
-0.252967
-0.22356
-0.196421
-0.171299
-0.148145
-0.127176
-0.108996
-0.0949132
-0.0832391
-0.0746223
-0.0681168
-0.0630429
-0.0589542
-0.0555599
-0.0526666
-0.0501416
-0.0478909
-0.0458469
-0.0439597
-0.0421925
-0.0405179
-0.0389153
-0.0373693
-0.0358683
-0.0344037
-0.032969
-0.0315592
-0.0301709
-0.0288012
-0.0274483
-0.0261108
-0.0247877
-0.0234785
-0.0221828
-0.0209006
-0.0196321
-0.0183774
-0.017137
-0.0159114
-0.0147011
-0.0135068
-0.0123292
-0.011169
-0.010027
-0.00890384
-0.0078004
-0.00671745
-0.00565576
-0.00461611
-0.00359926
-0.00260597
-0.00163699
-0.000693028
0.000225194
0.00111698
0.00198167
0.00281861
0.00362717
0.00440674
0.00515673
0.0058766
0.00656578
0.00722378
0.00785009
0.00844424
0.00900579
0.00953432
0.0100294
0.0104907
0.0109179
0.0113106
0.0116685
0.0119914
0.0122791
0.0125312
0.0127477
0.0129283
0.0130729
0.0131814
0.0132537
0.0132898
-0.363263
-0.324255
-0.288317
-0.255639
-0.225742
-0.197892
-0.172199
-0.148678
-0.127442
-0.108877
-0.0943081
-0.0831036
-0.0750009
-0.0688013
-0.063853
-0.059781
-0.0563486
-0.0533939
-0.0508007
-0.0484833
-0.0463771
-0.0444337
-0.0426161
-0.0408965
-0.0392538
-0.037672
-0.036139
-0.0346458
-0.0331855
-0.0317528
-0.030344
-0.028956
-0.0275868
-0.0262348
-0.0248988
-0.0235781
-0.0222723
-0.0209811
-0.0197046
-0.0184429
-0.0171962
-0.0159651
-0.0147499
-0.0135512
-0.0123697
-0.0112059
-0.0100607
-0.00893472
-0.00782869
-0.00674336
-0.00567949
-0.00463783
-0.00361913
-0.00262413
-0.00165354
-0.000708092
0.000211526
0.00110463
0.00197055
0.00280864
0.00361829
0.00439889
0.00514985
0.00587063
0.00656067
0.00721948
0.00784655
0.00844141
0.00900363
0.00953278
0.0100285
0.0104903
0.010918
0.0113111
0.0116694
0.0119927
0.0122807
0.0125331
0.0127498
0.0129306
0.0130753
0.013184
0.0132564
0.0132925
-0.36367
-0.325319
-0.289732
-0.256963
-0.226428
-0.197924
-0.171604
-0.147521
-0.125566
-0.105716
-0.089334
-0.080277
-0.0737721
-0.0684684
-0.0639826
-0.0601366
-0.0568048
-0.0538848
-0.0512917
-0.0489565
-0.0468238
-0.0448499
-0.0430007
-0.0412497
-0.0395766
-0.037966
-0.036406
-0.0348876
-0.033404
-0.0319499
-0.0305215
-0.0291158
-0.0277305
-0.026364
-0.025015
-0.0236827
-0.0223665
-0.021066
-0.0197813
-0.0185123
-0.0172591
-0.0160222
-0.0148018
-0.0135985
-0.0124129
-0.0112454
-0.0100969
-0.00896782
-0.00785902
-0.00677116
-0.00570498
-0.00466118
-0.0036405
-0.00264365
-0.00167136
-0.000724304
0.000196816
0.00109133
0.00195857
0.00279792
0.00360875
0.00439046
0.00514248
0.00586424
0.00655523
0.00721491
0.00784281
0.00843845
0.00900139
0.00953121
0.0100275
0.0104899
0.0109181
0.0113118
0.0116706
0.0119942
0.0122825
0.0125353
0.0127522
0.0129332
0.0130782
0.013187
0.0132595
0.0132956
-0.363924
-0.325874
-0.29025
-0.257093
-0.225886
-0.196702
-0.169817
-0.145226
-0.122472
-0.100296
-0.0387078
-0.0752449
-0.0715488
-0.0674905
-0.0636299
-0.0601212
-0.056977
-0.0541608
-0.0516221
-0.0493111
-0.0471839
-0.0452039
-0.0433412
-0.0415725
-0.0398792
-0.0382472
-0.0366656
-0.0351259
-0.0336217
-0.0321482
-0.0307015
-0.0292788
-0.0278779
-0.0264971
-0.0251352
-0.0237912
-0.0224645
-0.0211547
-0.0198616
-0.018585
-0.0173252
-0.0160823
-0.0148566
-0.0136485
-0.0124585
-0.0112872
-0.0101352
-0.00900293
-0.00789122
-0.00680071
-0.00573207
-0.00468602
-0.00366324
-0.00266445
-0.00169033
-0.000741572
0.000181149
0.00107717
0.00194583
0.00278652
0.00359861
0.00438152
0.00513467
0.0058575
0.00654949
0.00721012
0.00783891
0.00843539
0.00899912
0.00952968
0.0100267
0.0104897
0.0109185
0.0113127
0.0116719
0.0119961
0.0122847
0.0125378
0.012755
0.0129363
0.0130814
0.0131904
0.013263
0.0132992
-0.364066
-0.326135
-0.290176
-0.256285
-0.224273
-0.194539
-0.167378
-0.142665
-0.119748
-0.0969738
-0.0367382
-0.0722301
-0.069706
-0.0664075
-0.0630395
-0.0598564
-0.0569291
-0.0542559
-0.0518095
-0.0495555
-0.0474607
-0.0454958
-0.0436364
-0.0418627
-0.040159
-0.038513
-0.0369152
-0.0353582
-0.0338365
-0.0323455
-0.030882
-0.0294434
-0.0280276
-0.026633
-0.0252583
-0.0239028
-0.0225657
-0.0212464
-0.0199448
-0.0186607
-0.017394
-0.016145
-0.0149138
-0.0137008
-0.0125064
-0.0113311
-0.0101754
-0.00903984
-0.00792511
-0.00683182
-0.00576063
-0.00471221
-0.00368724
-0.00268639
-0.00171036
-0.000759801
0.000164612
0.00106223
0.0019324
0.00277451
0.00358795
0.00437213
0.00512648
0.00585045
0.00654352
0.00720517
0.00783492
0.0084323
0.00899687
0.00952822
0.0100259
0.0104897
0.0109191
0.0113138
0.0116736
0.0119982
0.0122873
0.0125407
0.0127583
0.0129398
0.0130852
0.0131942
0.0132669
0.0133032
-0.364134
-0.326078
-0.289537
-0.254711
-0.221858
-0.191659
-0.164461
-0.140052
-0.117683
-0.0957992
-0.0366072
-0.0714366
-0.068609
-0.0654514
-0.0623514
-0.0594297
-0.0567164
-0.0542053
-0.0518759
-0.049703
-0.0476616
-0.0457296
-0.0438877
-0.0421204
-0.0404151
-0.038762
-0.0371532
-0.035583
-0.0340466
-0.0325404
-0.0310617
-0.0296082
-0.0281783
-0.0267704
-0.0253835
-0.0240166
-0.0226691
-0.0213405
-0.0200304
-0.0187386
-0.017465
-0.0162098
-0.0149731
-0.0137551
-0.0125561
-0.0113767
-0.0102173
-0.00907835
-0.0079605
-0.00686434
-0.0057905
-0.00473962
-0.00371236
-0.00270938
-0.00173134
-0.000778894
0.000147296
0.00104659
0.00191835
0.00276196
0.00357682
0.00436235
0.00511798
0.00584317
0.00653738
0.00720011
0.00783088
0.00842922
0.0089947
0.00952689
0.0100254
0.0104899
0.01092
0.0113153
0.0116757
0.0120008
0.0122903
0.0125441
0.012762
0.0129438
0.0130894
0.0131987
0.0132715
0.0133078
-0.36409
-0.325709
-0.288364
-0.25253
-0.218924
-0.188402
-0.16118
-0.137039
-0.115497
-0.095903
-0.0795613
-0.0722191
-0.0678717
-0.0645102
-0.0615677
-0.0588758
-0.0563762
-0.0540397
-0.051844
-0.0497692
-0.0477972
-0.0459116
-0.0440989
-0.0423474
-0.0406482
-0.0389939
-0.037379
-0.0357991
-0.0342508
-0.0327316
-0.0312393
-0.0297723
-0.028329
-0.0269085
-0.0255097
-0.0241318
-0.0227742
-0.0214363
-0.0201177
-0.0188183
-0.0175379
-0.0162765
-0.0150341
-0.013811
-0.0126075
-0.0114239
-0.0102607
-0.00911826
-0.00799722
-0.00689811
-0.00582154
-0.00476812
-0.00373849
-0.00273329
-0.00175316
-0.000798755
0.00012929
0.00103034
0.00190376
0.00274895
0.00356531
0.00435226
0.00510923
0.0058357
0.00653112
0.007195
0.00782685
0.00842622
0.00899265
0.00952575
0.0100251
0.0104904
0.0109212
0.0113172
0.0116781
0.0120038
0.0122938
0.0125481
0.0127663
0.0129484
0.0130942
0.0132037
0.0132766
0.013313
-0.363901
-0.324971
-0.286897
-0.250352
-0.216228
-0.185478
-0.158068
-0.133696
-0.112159
-0.0931485
-0.0775127
-0.070453
-0.0663483
-0.063272
-0.060625
-0.0582048
-0.0559365
-0.0537868
-0.0517365
-0.0497714
-0.0478794
-0.0460503
-0.0442752
-0.0425469
-0.0408598
-0.0392094
-0.0375924
-0.0360061
-0.0344486
-0.0329184
-0.031414
-0.0299345
-0.028479
-0.0270465
-0.0256363
-0.0242477
-0.0228802
-0.0215332
-0.0202064
-0.0188995
-0.0176122
-0.0163446
-0.0150966
-0.0138684
-0.0126603
-0.0114724
-0.0103053
-0.00915939
-0.00803509
-0.00693297
-0.0058536
-0.00479758
-0.00376551
-0.00275802
-0.00177573
-0.00081929
0.000110681
0.00101355
0.00188871
0.00273554
0.00355347
0.00434191
0.0051003
0.00582811
0.00652481
0.0071899
0.0078229
0.00842335
0.0089908
0.00952485
0.0100251
0.0104912
0.0109227
0.0113195
0.0116811
0.0120073
0.0122978
0.0125525
0.0127712
0.0129536
0.0130997
0.0132093
0.0132824
0.0133189
-0.363651
-0.324083
-0.28522
-0.248001
-0.213668
-0.183153
-0.155995
-0.131443
-0.109073
-0.0882776
-0.0362937
-0.0662048
-0.0640262
-0.0617424
-0.0595497
-0.0574517
-0.0554314
-0.0534761
-0.051577
-0.0497274
-0.0479216
-0.0461549
-0.0444231
-0.0427231
-0.0410526
-0.03941
-0.0377941
-0.0362042
-0.0346396
-0.0331001
-0.0315851
-0.0300943
-0.0286273
-0.0271836
-0.0257626
-0.0243638
-0.0229867
-0.0216309
-0.020296
-0.0189816
-0.0176876
-0.0164138
-0.0151602
-0.0139269
-0.0127142
-0.0115221
-0.0103511
-0.00920158
-0.00807397
-0.00696879
-0.00588657
-0.00482788
-0.0037933
-0.00278346
-0.00179895
-0.000840409
9.15559e-05
0.000996322
0.00187328
0.00272183
0.00354139
0.00433138
0.00509126
0.00582048
0.00651852
0.00718488
0.00781908
0.00842067
0.0089892
0.00952426
0.0100254
0.0104924
0.0109248
0.0113223
0.0116846
0.0120114
0.0123025
0.0125577
0.0127767
0.0129595
0.0131059
0.0132157
0.0132889
0.0133254
-0.36315
-0.322638
-0.283094
-0.245668
-0.211667
-0.181601
-0.154788
-0.130457
-0.107795
-0.0859444
-0.0341904
-0.063365
-0.0619454
-0.0602444
-0.05847
-0.056684
-0.0549053
-0.05314
-0.0513899
-0.0496556
-0.0479373
-0.0462351
-0.0445494
-0.0428806
-0.0412297
-0.0395975
-0.0379851
-0.0363935
-0.0348237
-0.0332764
-0.0317522
-0.0302512
-0.0287736
-0.0273193
-0.025888
-0.0244794
-0.0230932
-0.0217288
-0.020386
-0.0190643
-0.0177637
-0.0164838
-0.0152247
-0.0139864
-0.012769
-0.0115727
-0.0103978
-0.00924466
-0.00811371
-0.00700543
-0.00592031
-0.0048589
-0.00382177
-0.00280951
-0.00182273
-0.000862022
7.19986e-05
0.000978721
0.00185754
0.00270787
0.00352913
0.00432074
0.00508216
0.00581286
0.0065123
0.00718
0.00781547
0.00841825
0.00898791
0.00952404
0.0100262
0.0104941
0.0109274
0.0113256
0.0116887
0.0120161
0.0123078
0.0125635
0.012783
0.0129662
0.0131128
0.0132229
0.0132962
0.0133329
-0.362718
-0.321548
-0.281703
-0.24432
-0.210752
-0.18121
-0.154834
-0.130601
-0.107542
-0.0852231
-0.0656055
-0.0618158
-0.0603305
-0.0589581
-0.0574957
-0.0559687
-0.0544025
-0.0528099
-0.0511985
-0.0495735
-0.0479396
-0.0463008
-0.0446611
-0.0430244
-0.0413942
-0.0397738
-0.0381665
-0.0365748
-0.0350012
-0.0334474
-0.0319149
-0.0304047
-0.0289173
-0.0274531
-0.0260122
-0.0245943
-0.0231992
-0.0218266
-0.0204761
-0.0191474
-0.0178402
-0.0165544
-0.0152899
-0.0140466
-0.0128246
-0.011624
-0.0104452
-0.00928849
-0.00815419
-0.00704276
-0.00595471
-0.00489054
-0.00385081
-0.00283609
-0.00184697
-0.000884045
5.20891e-05
0.000960829
0.00184158
0.00269375
0.00351676
0.00431006
0.00507309
0.00580532
0.00650623
0.00717532
0.00781212
0.00841616
0.00898701
0.00952426
0.0100275
0.0104964
0.0109305
0.0113297
0.0116934
0.0120216
0.0123139
0.0125702
0.0127902
0.0129737
0.0131207
0.013231
0.0133045
0.0133412
-0.362374
-0.320631
-0.280631
-0.243849
-0.211464
-0.183211
-0.157727
-0.133486
-0.109273
-0.083883
-0.0288984
-0.0588048
-0.0589318
-0.0579393
-0.0566899
-0.0553524
-0.0539574
-0.0525123
-0.0510233
-0.049497
-0.0479404
-0.0463608
-0.0447648
-0.043159
-0.0415493
-0.0399412
-0.0383396
-0.0367487
-0.0351722
-0.0336129
-0.0320731
-0.0305545
-0.0290582
-0.0275848
-0.0261347
-0.024708
-0.0233045
-0.021924
-0.0205661
-0.0192306
-0.0179171
-0.0166255
-0.0153555
-0.0141073
-0.0128807
-0.011676
-0.0104933
-0.00933296
-0.00819528
-0.0070807
-0.00598967
-0.00492271
-0.00388033
-0.00286311
-0.0018716
-0.000906401
3.19035e-05
0.000942718
0.00182545
0.00267952
0.00350436
0.0042994
0.0050641
0.00579793
0.00650037
0.00717092
0.0078091
0.00841446
0.00898656
0.00952499
0.0100293
0.0104993
0.0109344
0.0113344
0.011699
0.0120279
0.0123209
0.0125777
0.0127982
0.0129821
0.0131294
0.01324
0.0133137
0.0133504
-0.362033
-0.320137
-0.280906
-0.245495
-0.214731
-0.187909
-0.163361
-0.139274
-0.114563
-0.0888999
-0.0640723
-0.0612862
-0.0589244
-0.057366
-0.0560854
-0.0548547
-0.0535899
-0.0522659
-0.0508804
-0.049439
-0.0479501
-0.0464228
-0.0448661
-0.0432885
-0.0416979
-0.0401015
-0.0385057
-0.036916
-0.0353372
-0.0337732
-0.0322268
-0.0307006
-0.0291959
-0.027714
-0.0262554
-0.0248203
-0.0234089
-0.0220208
-0.0206558
-0.0193136
-0.017994
-0.0166967
-0.0154215
-0.0141684
-0.0129374
-0.0117285
-0.0105419
-0.00937796
-0.0082369
-0.00711914
-0.00602512
-0.00495532
-0.00391026
-0.00289048
-0.00189654
-0.000929016
1.15133e-05
0.000924459
0.00180924
0.00266527
0.00349199
0.00428884
0.00505527
0.00579076
0.00649479
0.00716686
0.00780649
0.00841323
0.00898664
0.0095263
0.0100318
0.0105028
0.010939
0.0113399
0.0117054
0.0120351
0.0123287
0.0125862
0.0128072
0.0129916
0.0131393
0.0132501
0.0133239
0.0133608
-0.36208
-0.320729
-0.282762
-0.249262
-0.220458
-0.195237
-0.171572
-0.147889
-0.12333
-0.0985289
-0.0764849
-0.0628235
-0.0585534
-0.0567656
-0.0555634
-0.0544554
-0.0533067
-0.0520833
-0.0507821
-0.0494099
-0.0479767
-0.0464932
-0.0449698
-0.0434164
-0.0418425
-0.0402564
-0.0386658
-0.0370773
-0.0354966
-0.0339283
-0.032376
-0.0308428
-0.0293305
-0.0278406
-0.026374
-0.0249311
-0.023512
-0.0221167
-0.020745
-0.0193964
-0.0180709
-0.0167681
-0.0154878
-0.0142299
-0.0129944
-0.0117814
-0.010591
-0.00942342
-0.00827897
-0.00715801
-0.00606097
-0.00498831
-0.00394052
-0.00291815
-0.00192172
-0.000951823
-9.01509e-06
0.000906118
0.001793
0.00265105
0.00347972
0.00427843
0.00504666
0.00578387
0.00648955
0.00716321
0.00780436
0.00841254
0.00898732
0.00952828
0.010035
0.0105072
0.0109444
0.0113463
0.0117127
0.0120432
0.0123376
0.0125957
0.0128173
0.0130022
0.0131502
0.0132613
0.0133354
0.0133723
-0.362395
-0.322159
-0.286096
-0.254843
-0.228017
-0.20437
-0.181405
-0.157737
-0.132673
-0.106803
-0.0811936
-0.0405082
-0.056328
-0.0558609
-0.0550825
-0.0541592
-0.0531201
-0.051976
-0.0507379
-0.0494173
-0.0480262
-0.0465763
-0.045079
-0.0435451
-0.0419846
-0.0404071
-0.0388208
-0.0372332
-0.0356506
-0.0340784
-0.0325208
-0.0309811
-0.0294617
-0.0279645
-0.0264905
-0.0250402
-0.023614
-0.0222119
-0.0208336
-0.019479
-0.0181477
-0.0168395
-0.0155542
-0.0142917
-0.0130518
-0.0118347
-0.0106405
-0.00946928
-0.00832143
-0.00719726
-0.00609717
-0.00502161
-0.00397106
-0.00294604
-0.00194709
-0.00097476
-2.96204e-05
0.000887757
0.0017768
0.00263693
0.0034676
0.00426825
0.00503834
0.00577734
0.00648474
0.00716004
0.00780277
0.00841246
0.00898867
0.00953099
0.010039
0.0105124
0.0109507
0.0113537
0.011721
0.0120524
0.0123476
0.0126064
0.0128286
0.013014
0.0131624
0.0132738
0.0133481
0.0133852
-0.362956
-0.324491
-0.29056
-0.261276
-0.23613
-0.213806
-0.191383
-0.167531
-0.141646
-0.114052
-0.0851846
-0.0401987
-0.055569
-0.0554328
-0.0548507
-0.0540318
-0.0530554
-0.0519566
-0.0507552
-0.0494661
-0.048102
-0.0466748
-0.0451958
-0.0436759
-0.0421255
-0.0405542
-0.0389711
-0.0373838
-0.0357994
-0.0342236
-0.0326611
-0.0311156
-0.0295898
-0.0280858
-0.0266048
-0.0251477
-0.0237147
-0.0223061
-0.0209217
-0.0195612
-0.0182244
-0.016911
-0.0156208
-0.0143537
-0.0131095
-0.0118884
-0.0106903
-0.0095155
-0.00836424
-0.00723684
-0.00613367
-0.00505518
-0.00400182
-0.00297411
-0.00197258
-0.000997775
-5.0247e-05
0.000869432
0.00176069
0.00262297
0.0034557
0.00425835
0.00503036
0.00577122
0.0064804
0.00715742
0.00780179
0.00841306
0.00899078
0.00953453
0.0100439
0.0105185
0.0109581
0.0113622
0.0117305
0.0120628
0.0123589
0.0126184
0.0128412
0.0130271
0.013176
0.0132877
0.0133622
0.0133994
-0.364169
-0.327951
-0.295769
-0.268166
-0.24452
-0.22325
-0.201263
-0.177267
-0.150486
-0.120975
-0.089323
-0.0409517
-0.0559675
-0.0555958
-0.0549487
-0.0541097
-0.0531277
-0.0520307
-0.0508362
-0.0495571
-0.0482046
-0.0467889
-0.0453203
-0.0438091
-0.0422652
-0.0406981
-0.0391169
-0.0375296
-0.0359433
-0.0343642
-0.0327972
-0.0312464
-0.0297147
-0.0282044
-0.0267171
-0.0252535
-0.0238143
-0.0223996
-0.0210092
-0.0196431
-0.018301
-0.0169825
-0.0156876
-0.0144159
-0.0131675
-0.0119423
-0.0107405
-0.00956206
-0.00840738
-0.00727672
-0.00617044
-0.00508897
-0.00403277
-0.00300233
-0.00199816
-0.00102082
-7.08447e-05
0.000851195
0.00174474
0.00260922
0.00344409
0.00424879
0.0050228
0.00576558
0.00647662
0.00715542
0.00780151
0.00841442
0.00899371
0.00953896
0.0100498
0.0105257
0.0109665
0.0113718
0.0117412
0.0120745
0.0123714
0.0126317
0.0128552
0.0130417
0.0131911
0.0133031
0.0133778
0.0134151
-0.365599
-0.331524
-0.300971
-0.274961
-0.252743
-0.232218
-0.210431
-0.186055
-0.158213
-0.126991
-0.0932289
-0.0417584
-0.056989
-0.0561992
-0.0553375
-0.0543804
-0.0533299
-0.0521928
-0.0509762
-0.0496866
-0.048331
-0.0469165
-0.0454512
-0.0439438
-0.0424033
-0.0408385
-0.0392583
-0.0376705
-0.0360824
-0.0345002
-0.0329292
-0.0313736
-0.0298367
-0.0283207
-0.0268275
-0.025358
-0.0239129
-0.0224924
-0.0210964
-0.0197249
-0.0183776
-0.0170542
-0.0157546
-0.0144785
-0.0132259
-0.0119967
-0.010791
-0.00960898
-0.00845085
-0.00731689
-0.00620747
-0.00512298
-0.00406387
-0.00303064
-0.00202379
-0.00104385
-9.13685e-05
0.000833095
0.00172898
0.00259574
0.0034328
0.00423964
0.00501571
0.00576048
0.00647345
0.00715411
0.00780199
0.00841662
0.00899756
0.00954438
0.0100567
0.0105341
0.0109762
0.0113827
0.0117532
0.0120876
0.0123854
0.0126466
0.0128708
0.0130579
0.0132077
0.0133202
0.0133951
0.0134325
-0.3669
-0.335126
-0.306511
-0.281904
-0.260822
-0.240591
-0.218738
-0.193754
-0.164897
-0.132281
-0.0967819
-0.0428183
-0.0582657
-0.0570614
-0.0559306
-0.0547993
-0.0536356
-0.0524255
-0.051163
-0.049846
-0.0484751
-0.0470534
-0.0455857
-0.0440783
-0.0425387
-0.0409748
-0.0393948
-0.0378064
-0.0362167
-0.034632
-0.0330575
-0.0314977
-0.029956
-0.028435
-0.0269364
-0.0254614
-0.0240107
-0.0225847
-0.0211834
-0.0198067
-0.0184544
-0.0171262
-0.0158219
-0.0145414
-0.0132846
-0.0120514
-0.0108419
-0.00965628
-0.00849466
-0.00735736
-0.00624473
-0.00515717
-0.00409511
-0.00305903
-0.00204942
-0.00106683
-0.000111779
0.000815175
0.00171347
0.00258257
0.00342191
0.00423094
0.00500914
0.00575599
0.00647096
0.00715356
0.0078033
0.00841973
0.0090024
0.00955086
0.0100647
0.0105436
0.0109871
0.0113949
0.0117667
0.0121021
0.012401
0.012663
0.012888
0.0130757
0.0132261
0.0133389
0.0134141
0.0134517
-0.368251
-0.338686
-0.311723
-0.288294
-0.267674
-0.246981
-0.224468
-0.198821
-0.169315
-0.135955
-0.0995119
-0.0437307
-0.0596071
-0.0580469
-0.0566402
-0.0553097
-0.0540072
-0.0527029
-0.0513785
-0.0500225
-0.0486283
-0.0471937
-0.0457196
-0.0442098
-0.0426697
-0.0411062
-0.0395263
-0.0379374
-0.0363465
-0.0347597
-0.0331824
-0.031619
-0.0300732
-0.0285475
-0.027044
-0.025564
-0.0241081
-0.0226769
-0.0212705
-0.0198887
-0.0185315
-0.0171986
-0.0158898
-0.0146049
-0.0133439
-0.0121067
-0.0108933
-0.00970398
-0.00853883
-0.00739814
-0.00628225
-0.00519155
-0.00412647
-0.00308747
-0.00207505
-0.00108973
-0.000132041
0.000797472
0.00169826
0.00256976
0.00341144
0.00422276
0.00500317
0.00575216
0.00646921
0.00715383
0.00780552
0.00842383
0.0090083
0.0095585
0.010074
0.0105544
0.0109994
0.0114086
0.0117817
0.0121183
0.0124182
0.0126812
0.012907
0.0130954
0.0132463
0.0133596
0.0134351
0.0134728
-0.369235
-0.341496
-0.316022
-0.293457
-0.272647
-0.251231
-0.227956
-0.20161
-0.171457
-0.137496
-0.100914
-0.0447789
-0.0609616
-0.0590705
-0.0573903
-0.0558532
-0.0544017
-0.0529942
-0.0516009
-0.0502007
-0.0487797
-0.04733
-0.0458484
-0.0443355
-0.0427948
-0.0412316
-0.0396523
-0.0380636
-0.0364721
-0.0348839
-0.0333044
-0.0317381
-0.0301887
-0.028659
-0.027151
-0.0256662
-0.0242055
-0.0227694
-0.021358
-0.0199713
-0.0186093
-0.0172717
-0.0159583
-0.014669
-0.0134038
-0.0121625
-0.0109453
-0.00975216
-0.0085834
-0.00743925
-0.00632003
-0.00522612
-0.00415794
-0.00311596
-0.00210065
-0.00111253
-0.000152124
0.000780023
0.00168337
0.00255736
0.00340146
0.00421513
0.00499784
0.00574905
0.00646827
0.00715499
0.00780872
0.008429
0.00901536
0.00956738
0.0100846
0.0105667
0.0110133
0.0114239
0.0117983
0.0121362
0.0124373
0.0127012
0.0129279
0.0131171
0.0132686
0.0133823
0.0134581
0.013496
-0.369778
-0.34319
-0.318636
-0.296187
-0.274563
-0.252339
-0.228532
-0.201945
-0.17188
-0.13833
-0.102165
-0.036945
-0.0623858
-0.0600642
-0.05811
-0.0563713
-0.0547742
-0.053266
-0.051806
-0.0503639
-0.0489181
-0.0474549
-0.0459671
-0.0444524
-0.0429123
-0.0413505
-0.0397728
-0.0381851
-0.0365939
-0.0350051
-0.0334242
-0.0318556
-0.0303032
-0.0287699
-0.0272579
-0.0257688
-0.0243034
-0.0228625
-0.0214462
-0.0200548
-0.0186879
-0.0173456
-0.0160277
-0.014734
-0.0134645
-0.012219
-0.0109978
-0.00980088
-0.00862843
-0.00748073
-0.00635809
-0.00526089
-0.00418953
-0.00314448
-0.0021262
-0.0011352
-0.000172003
0.000762858
0.00166884
0.0025454
0.00339201
0.00420811
0.00499319
0.00574673
0.0064682
0.0071571
0.00781296
0.0084353
0.00902366
0.00957759
0.0100967
0.0105805
0.0110287
0.0114409
0.0118168
0.012156
0.0124582
0.0127233
0.0129509
0.0131409
0.013293
0.0134072
0.0134834
0.0135214
-0.370089
-0.34392
-0.319205
-0.296033
-0.273415
-0.250137
-0.225573
-0.198963
-0.169707
-0.137232
-0.102008
-0.0458214
-0.0631954
-0.060869
-0.0587215
-0.0568053
-0.0550789
-0.0534844
-0.0519702
-0.0504958
-0.0490325
-0.0475615
-0.0460717
-0.0445583
-0.043021
-0.0414627
-0.0398879
-0.0383026
-0.0367128
-0.0351244
-0.0335427
-0.0319725
-0.0304177
-0.0288812
-0.0273655
-0.0258722
-0.0244024
-0.0229568
-0.0215357
-0.0201394
-0.0187678
-0.0174208
-0.0160982
-0.0148
-0.013526
-0.0122764
-0.0110511
-0.00985021
-0.00867397
-0.00752262
-0.00639647
-0.00529587
-0.00422125
-0.00317303
-0.00215169
-0.00115773
-0.000191654
0.000746004
0.00165471
0.00253392
0.00338312
0.00420175
0.00498929
0.00574523
0.00646904
0.00716024
0.00781832
0.00844281
0.00903326
0.00958921
0.0101102
0.0105959
0.0110459
0.0114597
0.0118371
0.0121778
0.0124813
0.0127475
0.0129761
0.013167
0.0133198
0.0134345
0.013511
0.0135492
-0.370038
-0.343547
-0.317919
-0.293171
-0.269265
-0.245085
-0.220309
-0.194302
-0.166351
-0.135785
-0.102251
-0.0367396
-0.0644183
-0.0616274
-0.0591948
-0.0571023
-0.0552712
-0.0536172
-0.0520712
-0.0505819
-0.049114
-0.0476443
-0.046159
-0.0446517
-0.0431208
-0.0415683
-0.0399986
-0.0384171
-0.0368299
-0.0352427
-0.0336611
-0.0320899
-0.030533
-0.0289937
-0.0274745
-0.0259772
-0.024503
-0.0230528
-0.0216269
-0.0202257