/*--------------------------------*- C++ -*----------------------------------*\
  =========                 |
  \\      /  F ield         | OpenFOAM: The Open Source CFD Toolbox
   \\    /   O peration     | Website:  https://openfoam.org
    \\  /    A nd           | Version:  6
     \\/     M anipulation  |
\*---------------------------------------------------------------------------*/
FoamFile
{
    version     2.0;
    format      ascii;
    class       volScalarField;
    location    "180";
    object      S_d;
}
// * * * * * * * * * * * * * * * * * * * * * * * * * * * * * * * * * * * * * //

dimensions      [1 -3 -1 0 0 0 0];

internalField   nonuniform List<scalar> 
5964
(
-0
-0
-0
-0
-0
-0
-0
-0
-0
-2.20154e+08
-1.26387e+09
-7.99599e+11
-7.99565e+11
-7.99541e+11
-7.99528e+11
-7.99522e+11
-7.99521e+11
-7.99525e+11
-7.99531e+11
-7.9954e+11
-7.9955e+11
-7.99562e+11
-7.99574e+11
-7.99586e+11
-7.99599e+11
-7.99613e+11
-7.99626e+11
-7.99639e+11
-7.99653e+11
-7.99667e+11
-7.9968e+11
-7.99694e+11
-7.99708e+11
-7.99722e+11
-7.99735e+11
-7.99749e+11
-7.99762e+11
-7.99776e+11
-7.99789e+11
-7.99803e+11
-7.99816e+11
-7.99829e+11
-7.99842e+11
-7.99855e+11
-7.99867e+11
-7.9988e+11
-7.99892e+11
-7.99904e+11
-7.99916e+11
-7.99928e+11
-7.99939e+11
-7.99951e+11
-7.99962e+11
-7.99972e+11
-7.99983e+11
-7.99993e+11
-8e+11
-8e+11
-8e+11
-8e+11
-8e+11
-8e+11
-8e+11
-8e+11
-8e+11
-8e+11
-8e+11
-8e+11
-8e+11
-8e+11
-8e+11
-8e+11
-8e+11
-8e+11
-8e+11
-8e+11
-8e+11
-8e+11
-8e+11
-8e+11
-8e+11
-8e+11
-8e+11
-8e+11
-0
-0
-0
-0
-0
-0
-0
-0
-0
-2.04078e+08
-1.14608e+09
-7.99588e+11
-7.99554e+11
-7.99532e+11
-7.9952e+11
-7.99515e+11
-7.99516e+11
-7.99521e+11
-7.99528e+11
-7.99538e+11
-7.99549e+11
-7.9956e+11
-7.99573e+11
-7.99585e+11
-7.99599e+11
-7.99612e+11
-7.99625e+11
-7.99639e+11
-7.99653e+11
-7.99666e+11
-7.9968e+11
-7.99694e+11
-7.99708e+11
-7.99721e+11
-7.99735e+11
-7.99749e+11
-7.99762e+11
-7.99776e+11
-7.99789e+11
-7.99802e+11
-7.99816e+11
-7.99829e+11
-7.99842e+11
-7.99855e+11
-7.99867e+11
-7.9988e+11
-7.99892e+11
-7.99904e+11
-7.99916e+11
-7.99928e+11
-7.99939e+11
-7.99951e+11
-7.99962e+11
-7.99972e+11
-7.99983e+11
-7.99993e+11
-8e+11
-8e+11
-8e+11
-8e+11
-8e+11
-8e+11
-8e+11
-8e+11
-8e+11
-8e+11
-8e+11
-8e+11
-8e+11
-8e+11
-8e+11
-8e+11
-8e+11
-8e+11
-8e+11
-8e+11
-8e+11
-8e+11
-8e+11
-8e+11
-8e+11
-8e+11
-8e+11
-8e+11
-0
-0
-0
-0
-0
-0
-0
-0
-0
-1.49094e+08
-9.32107e+08
-7.99564e+11
-7.99531e+11
-7.99513e+11
-7.99504e+11
-7.99503e+11
-7.99507e+11
-7.99514e+11
-7.99523e+11
-7.99533e+11
-7.99545e+11
-7.99558e+11
-7.9957e+11
-7.99584e+11
-7.99597e+11
-7.99611e+11
-7.99624e+11
-7.99638e+11
-7.99652e+11
-7.99666e+11
-7.9968e+11
-7.99693e+11
-7.99707e+11
-7.99721e+11
-7.99735e+11
-7.99748e+11
-7.99762e+11
-7.99776e+11
-7.99789e+11
-7.99802e+11
-7.99816e+11
-7.99829e+11
-7.99842e+11
-7.99854e+11
-7.99867e+11
-7.9988e+11
-7.99892e+11
-7.99904e+11
-7.99916e+11
-7.99928e+11
-7.99939e+11
-7.99951e+11
-7.99962e+11
-7.99972e+11
-7.99983e+11
-7.99993e+11
-8e+11
-8e+11
-8e+11
-8e+11
-8e+11
-8e+11
-8e+11
-8e+11
-8e+11
-8e+11
-8e+11
-8e+11
-8e+11
-8e+11
-8e+11
-8e+11
-8e+11
-8e+11
-8e+11
-8e+11
-8e+11
-8e+11
-8e+11
-8e+11
-8e+11
-8e+11
-8e+11
-8e+11
-0
-0
-0
-0
-0
-0
-0
-0
-0
-8.64038e+07
-6.47528e+08
-7.99523e+11
-7.99495e+11
-7.99483e+11
-7.99481e+11
-7.99486e+11
-7.99493e+11
-7.99503e+11
-7.99515e+11
-7.99527e+11
-7.9954e+11
-7.99554e+11
-7.99567e+11
-7.99581e+11
-7.99595e+11
-7.99609e+11
-7.99623e+11
-7.99637e+11
-7.99651e+11
-7.99665e+11
-7.99679e+11
-7.99693e+11
-7.99707e+11
-7.9972e+11
-7.99734e+11
-7.99748e+11
-7.99762e+11
-7.99775e+11
-7.99789e+11
-7.99802e+11
-7.99815e+11
-7.99828e+11
-7.99841e+11
-7.99854e+11
-7.99867e+11
-7.9988e+11
-7.99892e+11
-7.99904e+11
-7.99916e+11
-7.99928e+11
-7.99939e+11
-7.9995e+11
-7.99962e+11
-7.99972e+11
-7.99983e+11
-7.99993e+11
-8e+11
-8e+11
-8e+11
-8e+11
-8e+11
-8e+11
-8e+11
-8e+11
-8e+11
-8e+11
-8e+11
-8e+11
-8e+11
-8e+11
-8e+11
-8e+11
-8e+11
-8e+11
-8e+11
-8e+11
-8e+11
-8e+11
-8e+11
-8e+11
-8e+11
-8e+11
-8e+11
-8e+11
-0
-0
-0
-0
-0
-0
-0
-0
-0
-2.89736e+07
-3.23926e+08
-7.99457e+11
-7.99443e+11
-7.99444e+11
-7.99452e+11
-7.99463e+11
-7.99476e+11
-7.9949e+11
-7.99505e+11
-7.99519e+11
-7.99534e+11
-7.99549e+11
-7.99563e+11
-7.99578e+11
-7.99592e+11
-7.99607e+11
-7.99621e+11
-7.99635e+11
-7.99649e+11
-7.99664e+11
-7.99678e+11
-7.99692e+11
-7.99706e+11
-7.9972e+11
-7.99734e+11
-7.99747e+11
-7.99761e+11
-7.99775e+11
-7.99788e+11
-7.99802e+11
-7.99815e+11
-7.99828e+11
-7.99841e+11
-7.99854e+11
-7.99867e+11
-7.99879e+11
-7.99892e+11
-7.99904e+11
-7.99916e+11
-7.99928e+11
-7.99939e+11
-7.9995e+11
-7.99961e+11
-7.99972e+11
-7.99983e+11
-7.99993e+11
-8e+11
-8e+11
-8e+11
-8e+11
-8e+11
-8e+11
-8e+11
-8e+11
-8e+11
-8e+11
-8e+11
-8e+11
-8e+11
-8e+11
-8e+11
-8e+11
-8e+11
-8e+11
-8e+11
-8e+11
-8e+11
-8e+11
-8e+11
-8e+11
-8e+11
-8e+11
-8e+11
-8e+11
-0
-0
-0
-0
-0
-0
-0
-0
-0
-601700
-7.99323e+11
-7.99356e+11
-7.99376e+11
-7.99397e+11
-7.99418e+11
-7.99438e+11
-7.99458e+11
-7.99476e+11
-7.99494e+11
-7.99511e+11
-7.99527e+11
-7.99543e+11
-7.99559e+11
-7.99574e+11
-7.99589e+11
-7.99604e+11
-7.99619e+11
-7.99633e+11
-7.99648e+11
-7.99662e+11
-7.99677e+11
-7.99691e+11
-7.99705e+11
-7.99719e+11
-7.99733e+11
-7.99747e+11
-7.99761e+11
-7.99774e+11
-7.99788e+11
-7.99801e+11
-7.99815e+11
-7.99828e+11
-7.99841e+11
-7.99854e+11
-7.99867e+11
-7.99879e+11
-7.99892e+11
-7.99904e+11
-7.99916e+11
-7.99927e+11
-7.99939e+11
-7.9995e+11
-7.99961e+11
-7.99972e+11
-7.99983e+11
-7.99993e+11
-8e+11
-8e+11
-8e+11
-8e+11
-8e+11
-8e+11
-8e+11
-8e+11
-8e+11
-8e+11
-8e+11
-8e+11
-8e+11
-8e+11
-8e+11
-8e+11
-8e+11
-8e+11
-8e+11
-8e+11
-8e+11
-8e+11
-8e+11
-8e+11
-8e+11
-8e+11
-8e+11
-8e+11
-0
-0
-0
-0
-0
-0
-0
-0
-0
-0
-7.99177e+11
-7.99254e+11
-7.99308e+11
-7.9935e+11
-7.99384e+11
-7.99413e+11
-7.99438e+11
-7.99461e+11
-7.99482e+11
-7.99501e+11
-7.9952e+11
-7.99537e+11
-7.99554e+11
-7.9957e+11
-7.99586e+11
-7.99601e+11
-7.99616e+11
-7.99631e+11
-7.99646e+11
-7.99661e+11
-7.99675e+11
-7.99689e+11
-7.99704e+11
-7.99718e+11
-7.99732e+11
-7.99746e+11
-7.9976e+11
-7.99774e+11
-7.99787e+11
-7.99801e+11
-7.99814e+11
-7.99827e+11
-7.99841e+11
-7.99854e+11
-7.99866e+11
-7.99879e+11
-7.99891e+11
-7.99903e+11
-7.99915e+11
-7.99927e+11
-7.99939e+11
-7.9995e+11
-7.99961e+11
-7.99972e+11
-7.99983e+11
-7.99993e+11
-8e+11
-8e+11
-8e+11
-8e+11
-8e+11
-8e+11
-8e+11
-8e+11
-8e+11
-8e+11
-8e+11
-8e+11
-8e+11
-8e+11
-8e+11
-8e+11
-8e+11
-8e+11
-8e+11
-8e+11
-8e+11
-8e+11
-8e+11
-8e+11
-8e+11
-8e+11
-8e+11
-8e+11
-0
-0
-0
-0
-0
-0
-0
-0
-0
-0
-7.99063e+11
-7.99172e+11
-7.9925e+11
-7.99307e+11
-7.99353e+11
-7.99389e+11
-7.9942e+11
-7.99447e+11
-7.99471e+11
-7.99492e+11
-7.99512e+11
-7.99531e+11
-7.99549e+11
-7.99565e+11
-7.99582e+11
-7.99598e+11
-7.99613e+11
-7.99629e+11
-7.99644e+11
-7.99659e+11
-7.99674e+11
-7.99688e+11
-7.99703e+11
-7.99717e+11
-7.99731e+11
-7.99745e+11
-7.99759e+11
-7.99773e+11
-7.99787e+11
-7.998e+11
-7.99814e+11
-7.99827e+11
-7.9984e+11
-7.99853e+11
-7.99866e+11
-7.99879e+11
-7.99891e+11
-7.99903e+11
-7.99915e+11
-7.99927e+11
-7.99939e+11
-7.9995e+11
-7.99961e+11
-7.99972e+11
-7.99982e+11
-7.99993e+11
-8e+11
-8e+11
-8e+11
-8e+11
-8e+11
-8e+11
-8e+11
-8e+11
-8e+11
-8e+11
-8e+11
-8e+11
-8e+11
-8e+11
-8e+11
-8e+11
-8e+11
-8e+11
-8e+11
-8e+11
-8e+11
-8e+11
-8e+11
-8e+11
-8e+11
-8e+11
-8e+11
-8e+11
-0
-0
-0
-0
-0
-0
-0
-0
-0
-0
-7.98993e+11
-7.99116e+11
-7.99207e+11
-7.99275e+11
-7.99327e+11
-7.9937e+11
-7.99404e+11
-7.99434e+11
-7.9946e+11
-7.99484e+11
-7.99505e+11
-7.99525e+11
-7.99543e+11
-7.99561e+11
-7.99578e+11
-7.99595e+11
-7.99611e+11
-7.99626e+11
-7.99642e+11
-7.99657e+11
-7.99672e+11
-7.99687e+11
-7.99701e+11
-7.99716e+11
-7.9973e+11
-7.99744e+11
-7.99758e+11
-7.99772e+11
-7.99786e+11
-7.998e+11
-7.99813e+11
-7.99827e+11
-7.9984e+11
-7.99853e+11
-7.99866e+11
-7.99878e+11
-7.99891e+11
-7.99903e+11
-7.99915e+11
-7.99927e+11
-7.99938e+11
-7.9995e+11
-7.99961e+11
-7.99972e+11
-7.99982e+11
-7.99993e+11
-8e+11
-8e+11
-8e+11
-8e+11
-8e+11
-8e+11
-8e+11
-8e+11
-8e+11
-8e+11
-8e+11
-8e+11
-8e+11
-8e+11
-8e+11
-8e+11
-8e+11
-8e+11
-8e+11
-8e+11
-8e+11
-8e+11
-8e+11
-8e+11
-8e+11
-8e+11
-8e+11
-8e+11
-0
-0
-0
-0
-0
-0
-0
-0
-0
-0
-7.98961e+11
-7.99089e+11
-7.99183e+11
-7.99255e+11
-7.9931e+11
-7.99355e+11
-7.99392e+11
-7.99424e+11
-7.99451e+11
-7.99476e+11
-7.99498e+11
-7.99519e+11
-7.99538e+11
-7.99557e+11
-7.99574e+11
-7.99591e+11
-7.99608e+11
-7.99624e+11
-7.99639e+11
-7.99655e+11
-7.9967e+11
-7.99685e+11
-7.997e+11
-7.99714e+11
-7.99729e+11
-7.99743e+11
-7.99757e+11
-7.99771e+11
-7.99785e+11
-7.99799e+11
-7.99813e+11
-7.99826e+11
-7.99839e+11
-7.99852e+11
-7.99865e+11
-7.99878e+11
-7.9989e+11
-7.99903e+11
-7.99915e+11
-7.99927e+11
-7.99938e+11
-7.9995e+11
-7.99961e+11
-7.99972e+11
-7.99982e+11
-7.99992e+11
-8e+11
-8e+11
-8e+11
-8e+11
-8e+11
-8e+11
-8e+11
-8e+11
-8e+11
-8e+11
-8e+11
-8e+11
-8e+11
-8e+11
-8e+11
-8e+11
-8e+11
-8e+11
-8e+11
-8e+11
-8e+11
-8e+11
-8e+11
-8e+11
-8e+11
-8e+11
-8e+11
-8e+11
-0
-0
-0
-0
-0
-0
-0
-0
-0
-0
-7.98967e+11
-7.9909e+11
-7.99179e+11
-7.99247e+11
-7.99301e+11
-7.99346e+11
-7.99383e+11
-7.99416e+11
-7.99444e+11
-7.9947e+11
-7.99493e+11
-7.99514e+11
-7.99534e+11
-7.99553e+11
-7.99571e+11
-7.99588e+11
-7.99605e+11
-7.99621e+11
-7.99637e+11
-7.99653e+11
-7.99668e+11
-7.99683e+11
-7.99698e+11
-7.99713e+11
-7.99728e+11
-7.99742e+11
-7.99756e+11
-7.99771e+11
-7.99784e+11
-7.99798e+11
-7.99812e+11
-7.99825e+11
-7.99839e+11
-7.99852e+11
-7.99865e+11
-7.99877e+11
-7.9989e+11
-7.99902e+11
-7.99914e+11
-7.99926e+11
-7.99938e+11
-7.99949e+11
-7.9996e+11
-7.99971e+11
-7.99982e+11
-7.99992e+11
-8e+11
-8e+11
-8e+11
-8e+11
-8e+11
-8e+11
-8e+11
-8e+11
-8e+11
-8e+11
-8e+11
-8e+11
-8e+11
-8e+11
-8e+11
-8e+11
-8e+11
-8e+11
-8e+11
-8e+11
-8e+11
-8e+11
-8e+11
-8e+11
-8e+11
-8e+11
-8e+11
-8e+11
-0
-0
-0
-0
-0
-0
-0
-0
-0
-0
-7.99022e+11
-7.99121e+11
-7.99193e+11
-7.99251e+11
-7.993e+11
-7.99342e+11
-7.99378e+11
-7.9941e+11
-7.99439e+11
-7.99464e+11
-7.99488e+11
-7.99509e+11
-7.9953e+11
-7.99549e+11
-7.99567e+11
-7.99585e+11
-7.99602e+11
-7.99618e+11
-7.99635e+11
-7.9965e+11
-7.99666e+11
-7.99682e+11
-7.99697e+11
-7.99712e+11
-7.99726e+11
-7.99741e+11
-7.99755e+11
-7.9977e+11
-7.99784e+11
-7.99798e+11
-7.99811e+11
-7.99825e+11
-7.99838e+11
-7.99851e+11
-7.99864e+11
-7.99877e+11
-7.9989e+11
-7.99902e+11
-7.99914e+11
-7.99926e+11
-7.99938e+11
-7.99949e+11
-7.9996e+11
-7.99971e+11
-7.99982e+11
-7.99992e+11
-8e+11
-8e+11
-8e+11
-8e+11
-8e+11
-8e+11
-8e+11
-8e+11
-8e+11
-8e+11
-8e+11
-8e+11
-8e+11
-8e+11
-8e+11
-8e+11
-8e+11
-8e+11
-8e+11
-8e+11
-8e+11
-8e+11
-8e+11
-8e+11
-8e+11
-8e+11
-8e+11
-8e+11
-0
-0
-0
-0
-0
-0
-0
-0
-0
-0
-2.93662e+09
-7.99176e+11
-7.99217e+11
-7.99261e+11
-7.99304e+11
-7.99342e+11
-7.99377e+11
-7.99407e+11
-7.99435e+11
-7.9946e+11
-7.99484e+11
-7.99505e+11
-7.99526e+11
-7.99545e+11
-7.99564e+11
-7.99582e+11
-7.99599e+11
-7.99616e+11
-7.99632e+11
-7.99648e+11
-7.99664e+11
-7.9968e+11
-7.99695e+11
-7.9971e+11
-7.99725e+11
-7.9974e+11
-7.99754e+11
-7.99769e+11
-7.99783e+11
-7.99797e+11
-7.99811e+11
-7.99824e+11
-7.99838e+11
-7.99851e+11
-7.99864e+11
-7.99877e+11
-7.99889e+11
-7.99902e+11
-7.99914e+11
-7.99926e+11
-7.99937e+11
-7.99949e+11
-7.9996e+11
-7.99971e+11
-7.99982e+11
-7.99992e+11
-8e+11
-8e+11
-8e+11
-8e+11
-8e+11
-8e+11
-8e+11
-8e+11
-8e+11
-8e+11
-8e+11
-8e+11
-8e+11
-8e+11
-8e+11
-8e+11
-8e+11
-8e+11
-8e+11
-8e+11
-8e+11
-8e+11
-8e+11
-8e+11
-8e+11
-8e+11
-8e+11
-8e+11
-0
-0
-0
-0
-0
-0
-0
-0
-0
-0
-3.35409e+09
-7.99209e+11
-7.99237e+11
-7.99273e+11
-7.9931e+11
-7.99345e+11
-7.99377e+11
-7.99406e+11
-7.99433e+11
-7.99458e+11
-7.99481e+11
-7.99502e+11
-7.99523e+11
-7.99542e+11
-7.99561e+11
-7.99579e+11
-7.99596e+11
-7.99613e+11
-7.9963e+11
-7.99646e+11
-7.99662e+11
-7.99678e+11
-7.99693e+11
-7.99709e+11
-7.99724e+11
-7.99739e+11
-7.99753e+11
-7.99768e+11
-7.99782e+11
-7.99796e+11
-7.9981e+11
-7.99823e+11
-7.99837e+11
-7.9985e+11
-7.99863e+11
-7.99876e+11
-7.99889e+11
-7.99901e+11
-7.99913e+11
-7.99925e+11
-7.99937e+11
-7.99948e+11
-7.9996e+11
-7.99971e+11
-7.99981e+11
-7.99992e+11
-8e+11
-8e+11
-8e+11
-8e+11
-8e+11
-8e+11
-8e+11
-8e+11
-8e+11
-8e+11
-8e+11
-8e+11
-8e+11
-8e+11
-8e+11
-8e+11
-8e+11
-8e+11
-8e+11
-8e+11
-8e+11
-8e+11
-8e+11
-8e+11
-8e+11
-8e+11
-8e+11
-8e+11
-0
-0
-0
-0
-0
-0
-0
-0
-0
-0
-2.92569e+09
-7.99218e+11
-7.99249e+11
-7.99284e+11
-7.99318e+11
-7.9935e+11
-7.99379e+11
-7.99407e+11
-7.99432e+11
-7.99456e+11
-7.99479e+11
-7.995e+11
-7.9952e+11
-7.99539e+11
-7.99558e+11
-7.99576e+11
-7.99594e+11
-7.99611e+11
-7.99628e+11
-7.99644e+11
-7.9966e+11
-7.99676e+11
-7.99692e+11
-7.99707e+11
-7.99722e+11
-7.99737e+11
-7.99752e+11
-7.99767e+11
-7.99781e+11
-7.99795e+11
-7.99809e+11
-7.99823e+11
-7.99836e+11
-7.9985e+11
-7.99863e+11
-7.99876e+11
-7.99888e+11
-7.99901e+11
-7.99913e+11
-7.99925e+11
-7.99937e+11
-7.99948e+11
-7.99959e+11
-7.9997e+11
-7.99981e+11
-7.99991e+11
-8e+11
-8e+11
-8e+11
-8e+11
-8e+11
-8e+11
-8e+11
-8e+11
-8e+11
-8e+11
-8e+11
-8e+11
-8e+11
-8e+11
-8e+11
-8e+11
-8e+11
-8e+11
-8e+11
-8e+11
-8e+11
-8e+11
-8e+11
-8e+11
-8e+11
-8e+11
-8e+11
-8e+11
-0
-0
-0
-0
-0
-0
-0
-0
-0
-0
-7.99128e+11
-7.9921e+11
-7.99257e+11
-7.99294e+11
-7.99326e+11
-7.99356e+11
-7.99383e+11
-7.99409e+11
-7.99433e+11
-7.99455e+11
-7.99477e+11
-7.99498e+11
-7.99518e+11
-7.99537e+11
-7.99555e+11
-7.99573e+11
-7.99591e+11
-7.99608e+11
-7.99625e+11
-7.99642e+11
-7.99658e+11
-7.99674e+11
-7.9969e+11
-7.99706e+11
-7.99721e+11
-7.99736e+11
-7.99751e+11
-7.99766e+11
-7.9978e+11
-7.99794e+11
-7.99808e+11
-7.99822e+11
-7.99836e+11
-7.99849e+11
-7.99862e+11
-7.99875e+11
-7.99888e+11
-7.999e+11
-7.99913e+11
-7.99925e+11
-7.99936e+11
-7.99948e+11
-7.99959e+11
-7.9997e+11
-7.99981e+11
-7.99991e+11
-8e+11
-8e+11
-8e+11
-8e+11
-8e+11
-8e+11
-8e+11
-8e+11
-8e+11
-8e+11
-8e+11
-8e+11
-8e+11
-8e+11
-8e+11
-8e+11
-8e+11
-8e+11
-8e+11
-8e+11
-8e+11
-8e+11
-8e+11
-8e+11
-8e+11
-8e+11
-8e+11
-8e+11
-0
-0
-0
-0
-0
-0
-0
-0
-0
-0
-7.99141e+11
-7.99229e+11
-7.99274e+11
-7.99308e+11
-7.99337e+11
-7.99363e+11
-7.99388e+11
-7.99411e+11
-7.99434e+11
-7.99455e+11
-7.99476e+11
-7.99496e+11
-7.99516e+11
-7.99535e+11
-7.99553e+11
-7.99571e+11
-7.99589e+11
-7.99606e+11
-7.99623e+11
-7.9964e+11
-7.99656e+11
-7.99673e+11
-7.99688e+11
-7.99704e+11
-7.9972e+11
-7.99735e+11
-7.9975e+11
-7.99764e+11
-7.99779e+11
-7.99793e+11
-7.99807e+11
-7.99821e+11
-7.99835e+11
-7.99848e+11
-7.99862e+11
-7.99875e+11
-7.99887e+11
-7.999e+11
-7.99912e+11
-7.99924e+11
-7.99936e+11
-7.99948e+11
-7.99959e+11
-7.9997e+11
-7.99981e+11
-7.99991e+11
-8e+11
-8e+11
-8e+11
-8e+11
-8e+11
-8e+11
-8e+11
-8e+11
-8e+11
-8e+11
-8e+11
-8e+11
-8e+11
-8e+11
-8e+11
-8e+11
-8e+11
-8e+11
-8e+11
-8e+11
-8e+11
-8e+11
-8e+11
-8e+11
-8e+11
-8e+11
-8e+11
-8e+11
-0
-0
-0
-0
-0
-0
-0
-0
-0
-0
-3.60314e+08
-7.99275e+11
-7.99299e+11
-7.99324e+11
-7.99348e+11
-7.99371e+11
-7.99393e+11
-7.99415e+11
-7.99436e+11
-7.99456e+11
-7.99476e+11
-7.99495e+11
-7.99514e+11
-7.99533e+11
-7.99551e+11
-7.99569e+11
-7.99587e+11
-7.99604e+11
-7.99621e+11
-7.99638e+11
-7.99654e+11
-7.99671e+11
-7.99687e+11
-7.99703e+11
-7.99718e+11
-7.99734e+11
-7.99749e+11
-7.99763e+11
-7.99778e+11
-7.99792e+11
-7.99807e+11
-7.9982e+11
-7.99834e+11
-7.99848e+11
-7.99861e+11
-7.99874e+11
-7.99887e+11
-7.99899e+11
-7.99912e+11
-7.99924e+11
-7.99936e+11
-7.99947e+11
-7.99959e+11
-7.9997e+11
-7.9998e+11
-7.99991e+11
-8e+11
-8e+11
-8e+11
-8e+11
-8e+11
-8e+11
-8e+11
-8e+11
-8e+11
-8e+11
-8e+11
-8e+11
-8e+11
-8e+11
-8e+11
-8e+11
-8e+11
-8e+11
-8e+11
-8e+11
-8e+11
-8e+11
-8e+11
-8e+11
-8e+11
-8e+11
-8e+11
-8e+11
-0
-0
-0
-0
-0
-0
-0
-0
-0
-0
-3.92836e+08
-7.99307e+11
-7.99322e+11
-7.99341e+11
-7.9936e+11
-7.9938e+11
-7.99399e+11
-7.99419e+11
-7.99438e+11
-7.99457e+11
-7.99476e+11
-7.99494e+11
-7.99513e+11
-7.99531e+11
-7.99549e+11
-7.99567e+11
-7.99584e+11
-7.99602e+11
-7.99619e+11
-7.99636e+11
-7.99653e+11
-7.99669e+11
-7.99685e+11
-7.99701e+11
-7.99717e+11
-7.99732e+11
-7.99747e+11
-7.99762e+11
-7.99777e+11
-7.99791e+11
-7.99806e+11
-7.9982e+11
-7.99833e+11
-7.99847e+11
-7.9986e+11
-7.99873e+11
-7.99886e+11
-7.99899e+11
-7.99911e+11
-7.99923e+11
-7.99935e+11
-7.99947e+11
-7.99958e+11
-7.99969e+11
-7.9998e+11
-7.99991e+11
-8e+11
-8e+11
-8e+11
-8e+11
-8e+11
-8e+11
-8e+11
-8e+11
-8e+11
-8e+11
-8e+11
-8e+11
-8e+11
-8e+11
-8e+11
-8e+11
-8e+11
-8e+11
-8e+11
-8e+11
-8e+11
-8e+11
-8e+11
-8e+11
-8e+11
-8e+11
-8e+11
-8e+11
-0
-0
-0
-0
-0
-0
-0
-0
-0
-0
-7.99271e+11
-7.99324e+11
-7.9934e+11
-7.99355e+11
-7.99371e+11
-7.99388e+11
-7.99405e+11
-7.99422e+11
-7.9944e+11
-7.99458e+11
-7.99475e+11
-7.99493e+11
-7.99511e+11
-7.99529e+11
-7.99547e+11
-7.99565e+11
-7.99582e+11
-7.996e+11
-7.99617e+11
-7.99634e+11
-7.99651e+11
-7.99667e+11
-7.99684e+11
-7.997e+11
-7.99715e+11
-7.99731e+11
-7.99746e+11
-7.99761e+11
-7.99776e+11
-7.99791e+11
-7.99805e+11
-7.99819e+11
-7.99833e+11
-7.99846e+11
-7.9986e+11
-7.99873e+11
-7.99886e+11
-7.99898e+11
-7.99911e+11
-7.99923e+11
-7.99935e+11
-7.99947e+11
-7.99958e+11
-7.99969e+11
-7.9998e+11
-7.9999e+11
-8e+11
-8e+11
-8e+11
-8e+11
-8e+11
-8e+11
-8e+11
-8e+11
-8e+11
-8e+11
-8e+11
-8e+11
-8e+11
-8e+11
-8e+11
-8e+11
-8e+11
-8e+11
-8e+11
-8e+11
-8e+11
-8e+11
-8e+11
-8e+11
-8e+11
-8e+11
-8e+11
-8e+11
-0
-0
-0
-0
-0
-0
-0
-0
-0
-0
-3.7845e+08
-7.99357e+11
-7.99355e+11
-7.99366e+11
-7.9938e+11
-7.99394e+11
-7.9941e+11
-7.99425e+11
-7.99442e+11
-7.99458e+11
-7.99475e+11
-7.99493e+11
-7.9951e+11
-7.99528e+11
-7.99545e+11
-7.99563e+11
-7.99581e+11
-7.99598e+11
-7.99615e+11
-7.99632e+11
-7.99649e+11
-7.99666e+11
-7.99682e+11
-7.99698e+11
-7.99714e+11
-7.9973e+11
-7.99745e+11
-7.9976e+11
-7.99775e+11
-7.9979e+11
-7.99804e+11
-7.99818e+11
-7.99832e+11
-7.99846e+11
-7.99859e+11
-7.99872e+11
-7.99885e+11
-7.99898e+11
-7.9991e+11
-7.99923e+11
-7.99934e+11
-7.99946e+11
-7.99958e+11
-7.99969e+11
-7.9998e+11
-7.9999e+11
-8e+11
-8e+11
-8e+11
-8e+11
-8e+11
-8e+11
-8e+11
-8e+11
-8e+11
-8e+11
-8e+11
-8e+11
-8e+11
-8e+11
-8e+11
-8e+11
-8e+11
-8e+11
-8e+11
-8e+11
-8e+11
-8e+11
-8e+11
-8e+11
-8e+11
-8e+11
-8e+11
-8e+11
-0
-0
-0
-0
-0
-0
-0
-0
-0
-0
-4323.39
-7.99329e+11
-7.99355e+11
-7.99372e+11
-7.99386e+11
-7.994e+11
-7.99414e+11
-7.99428e+11
-7.99443e+11
-7.99459e+11
-7.99475e+11
-7.99492e+11
-7.99509e+11
-7.99526e+11
-7.99544e+11
-7.99561e+11
-7.99579e+11
-7.99596e+11
-7.99613e+11
-7.99631e+11
-7.99647e+11
-7.99664e+11
-7.99681e+11
-7.99697e+11
-7.99713e+11
-7.99729e+11
-7.99744e+11
-7.99759e+11
-7.99774e+11
-7.99789e+11
-7.99803e+11
-7.99817e+11
-7.99831e+11
-7.99845e+11
-7.99859e+11
-7.99872e+11
-7.99885e+11
-7.99897e+11
-7.9991e+11
-7.99922e+11
-7.99934e+11
-7.99946e+11
-7.99957e+11
-7.99968e+11
-7.99979e+11
-7.9999e+11
-8e+11
-8e+11
-8e+11
-8e+11
-8e+11
-8e+11
-8e+11
-8e+11
-8e+11
-8e+11
-8e+11
-8e+11
-8e+11
-8e+11
-8e+11
-8e+11
-8e+11
-8e+11
-8e+11
-8e+11
-8e+11
-8e+11
-8e+11
-8e+11
-8e+11
-8e+11
-8e+11
-8e+11
-0
-0
-0
-0
-0
-0
-0
-0
-0
-0
-0
-7.99312e+11
-7.99359e+11
-7.99379e+11
-7.99392e+11
-7.99404e+11
-7.99417e+11
-7.9943e+11
-7.99444e+11
-7.99459e+11
-7.99475e+11
-7.99491e+11
-7.99508e+11
-7.99525e+11
-7.99542e+11
-7.9956e+11
-7.99577e+11
-7.99594e+11
-7.99612e+11
-7.99629e+11
-7.99646e+11
-7.99663e+11
-7.99679e+11
-7.99695e+11
-7.99712e+11
-7.99727e+11
-7.99743e+11
-7.99758e+11
-7.99773e+11
-7.99788e+11
-7.99802e+11
-7.99817e+11
-7.99831e+11
-7.99844e+11
-7.99858e+11
-7.99871e+11
-7.99884e+11
-7.99897e+11
-7.99909e+11
-7.99922e+11
-7.99934e+11
-7.99945e+11
-7.99957e+11
-7.99968e+11
-7.99979e+11
-7.9999e+11
-8e+11
-8e+11
-8e+11
-8e+11
-8e+11
-8e+11
-8e+11
-8e+11
-8e+11
-8e+11
-8e+11
-8e+11
-8e+11
-8e+11
-8e+11
-8e+11
-8e+11
-8e+11
-8e+11
-8e+11
-8e+11
-8e+11
-8e+11
-8e+11
-8e+11
-8e+11
-8e+11
-8e+11
-0
-0
-0
-0
-0
-0
-0
-0
-0
-0
-0
-1.12604e+11
-7.99384e+11
-7.99389e+11
-7.99397e+11
-7.99407e+11
-7.99419e+11
-7.99431e+11
-7.99445e+11
-7.99459e+11
-7.99475e+11
-7.9949e+11
-7.99507e+11
-7.99524e+11
-7.99541e+11
-7.99558e+11
-7.99575e+11
-7.99593e+11
-7.9961e+11
-7.99627e+11
-7.99644e+11
-7.99661e+11
-7.99678e+11
-7.99694e+11
-7.9971e+11
-7.99726e+11
-7.99742e+11
-7.99757e+11
-7.99772e+11
-7.99787e+11
-7.99802e+11
-7.99816e+11
-7.9983e+11
-7.99844e+11
-7.99857e+11
-7.99871e+11
-7.99884e+11
-7.99896e+11
-7.99909e+11
-7.99921e+11
-7.99933e+11
-7.99945e+11
-7.99957e+11
-7.99968e+11
-7.99979e+11
-7.99989e+11
-8e+11
-8e+11
-8e+11
-8e+11
-8e+11
-8e+11
-8e+11
-8e+11
-8e+11
-8e+11
-8e+11
-8e+11
-8e+11
-8e+11
-8e+11
-8e+11
-8e+11
-8e+11
-8e+11
-8e+11
-8e+11
-8e+11
-8e+11
-8e+11
-8e+11
-8e+11
-8e+11
-8e+11
-0
-0
-0
-0
-0
-0
-0
-0
-0
-0
-0
-1.19038e+11
-7.99392e+11
-7.99393e+11
-7.994e+11
-7.99409e+11
-7.99419e+11
-7.99432e+11
-7.99445e+11
-7.99459e+11
-7.99474e+11
-7.99489e+11
-7.99506e+11
-7.99522e+11
-7.99539e+11
-7.99556e+11
-7.99574e+11
-7.99591e+11
-7.99608e+11
-7.99626e+11
-7.99643e+11
-7.9966e+11
-7.99676e+11
-7.99693e+11
-7.99709e+11
-7.99725e+11
-7.99741e+11
-7.99756e+11
-7.99771e+11
-7.99786e+11
-7.99801e+11
-7.99815e+11
-7.99829e+11
-7.99843e+11
-7.99857e+11
-7.9987e+11
-7.99883e+11
-7.99896e+11
-7.99909e+11
-7.99921e+11
-7.99933e+11
-7.99945e+11
-7.99956e+11
-7.99967e+11
-7.99978e+11
-7.99989e+11
-7.99999e+11
-8e+11
-8e+11
-8e+11
-8e+11
-8e+11
-8e+11
-8e+11
-8e+11
-8e+11
-8e+11
-8e+11
-8e+11
-8e+11
-8e+11
-8e+11
-8e+11
-8e+11
-8e+11
-8e+11
-8e+11
-8e+11
-8e+11
-8e+11
-8e+11
-8e+11
-8e+11
-8e+11
-0
-0
-0
-0
-0
-0
-0
-0
-0
-0
-0
-1.14985e+11
-7.99388e+11
-7.99392e+11
-7.99399e+11
-7.99408e+11
-7.99419e+11
-7.99431e+11
-7.99444e+11
-7.99458e+11
-7.99473e+11
-7.99488e+11
-7.99504e+11
-7.99521e+11
-7.99538e+11
-7.99555e+11
-7.99572e+11
-7.99589e+11
-7.99607e+11
-7.99624e+11
-7.99641e+11
-7.99658e+11
-7.99675e+11
-7.99691e+11
-7.99708e+11
-7.99724e+11
-7.9974e+11
-7.99755e+11
-7.9977e+11
-7.99785e+11
-7.998e+11
-7.99814e+11
-7.99828e+11
-7.99842e+11
-7.99856e+11
-7.99869e+11
-7.99883e+11
-7.99895e+11
-7.99908e+11
-7.9992e+11
-7.99933e+11
-7.99944e+11
-7.99956e+11
-7.99967e+11
-7.99978e+11
-7.99989e+11
-7.99999e+11
-8e+11
-8e+11
-8e+11
-8e+11
-8e+11
-8e+11
-8e+11
-8e+11
-8e+11
-8e+11
-8e+11
-8e+11
-8e+11
-8e+11
-8e+11
-8e+11
-8e+11
-8e+11
-8e+11
-8e+11
-8e+11
-8e+11
-8e+11
-8e+11
-8e+11
-8e+11
-8e+11
-0
-0
-0
-0
-0
-0
-0
-0
-0
-0
-0
-1.01951e+11
-7.99376e+11
-7.99385e+11
-7.99394e+11
-7.99405e+11
-7.99416e+11
-7.99429e+11
-7.99442e+11
-7.99456e+11
-7.99471e+11
-7.99487e+11
-7.99503e+11
-7.99519e+11
-7.99536e+11
-7.99553e+11
-7.99571e+11
-7.99588e+11
-7.99605e+11
-7.99623e+11
-7.9964e+11
-7.99657e+11
-7.99674e+11
-7.9969e+11
-7.99707e+11
-7.99723e+11
-7.99738e+11
-7.99754e+11
-7.99769e+11
-7.99784e+11
-7.99799e+11
-7.99813e+11
-7.99828e+11
-7.99842e+11
-7.99855e+11
-7.99869e+11
-7.99882e+11
-7.99895e+11
-7.99908e+11
-7.9992e+11
-7.99932e+11
-7.99944e+11
-7.99956e+11
-7.99967e+11
-7.99978e+11
-7.99989e+11
-7.99999e+11
-8e+11
-8e+11
-8e+11
-8e+11
-8e+11
-8e+11
-8e+11
-8e+11
-8e+11
-8e+11
-8e+11
-8e+11
-8e+11
-8e+11
-8e+11
-8e+11
-8e+11
-8e+11
-8e+11
-8e+11
-8e+11
-8e+11
-8e+11
-8e+11
-8e+11
-8e+11
-8e+11
-0
-0
-0
-0
-0
-0
-0
-0
-0
-0
-0
-9.54691e+10
-7.99362e+11
-7.99376e+11
-7.99388e+11
-7.994e+11
-7.99413e+11
-7.99426e+11
-7.9944e+11
-7.99455e+11
-7.9947e+11
-7.99485e+11
-7.99501e+11
-7.99518e+11
-7.99535e+11
-7.99552e+11
-7.99569e+11
-7.99586e+11
-7.99604e+11
-7.99621e+11
-7.99638e+11
-7.99655e+11
-7.99672e+11
-7.99689e+11
-7.99705e+11
-7.99721e+11
-7.99737e+11
-7.99753e+11
-7.99768e+11
-7.99783e+11
-7.99798e+11
-7.99813e+11
-7.99827e+11
-7.99841e+11
-7.99855e+11
-7.99868e+11
-7.99881e+11
-7.99894e+11
-7.99907e+11
-7.9992e+11
-7.99932e+11
-7.99944e+11
-7.99955e+11
-7.99967e+11
-7.99978e+11
-7.99988e+11
-7.99999e+11
-8e+11
-8e+11
-8e+11
-8e+11
-8e+11
-8e+11
-8e+11
-8e+11
-8e+11
-8e+11
-8e+11
-8e+11
-8e+11
-8e+11
-8e+11
-8e+11
-8e+11
-8e+11
-8e+11
-8e+11
-8e+11
-8e+11
-8e+11
-8e+11
-8e+11
-8e+11
-8e+11
-0
-0
-0
-0
-0
-0
-0
-0
-0
-0
-0
-8.92071e+10
-7.99348e+11
-7.99365e+11
-7.9938e+11
-7.99395e+11
-7.99409e+11
-7.99423e+11
-7.99438e+11
-7.99453e+11
-7.99468e+11
-7.99484e+11
-7.995e+11
-7.99516e+11
-7.99533e+11
-7.9955e+11
-7.99568e+11
-7.99585e+11
-7.99602e+11
-7.9962e+11
-7.99637e+11
-7.99654e+11
-7.99671e+11
-7.99688e+11
-7.99704e+11
-7.9972e+11
-7.99736e+11
-7.99752e+11
-7.99767e+11
-7.99782e+11
-7.99797e+11
-7.99812e+11
-7.99826e+11
-7.9984e+11
-7.99854e+11
-7.99868e+11
-7.99881e+11
-7.99894e+11
-7.99907e+11
-7.99919e+11
-7.99931e+11
-7.99943e+11
-7.99955e+11
-7.99966e+11
-7.99977e+11
-7.99988e+11
-7.99999e+11
-8e+11
-8e+11
-8e+11
-8e+11
-8e+11
-8e+11
-8e+11
-8e+11
-8e+11
-8e+11
-8e+11
-8e+11
-8e+11
-8e+11
-8e+11
-8e+11
-8e+11
-8e+11
-8e+11
-8e+11
-8e+11
-8e+11
-8e+11
-8e+11
-8e+11
-8e+11
-8e+11
-0
-0
-0
-0
-0
-0
-0
-0
-0
-0
-0
-8.76716e+10
-7.99333e+11
-7.99354e+11
-7.99372e+11
-7.99389e+11
-7.99405e+11
-7.9942e+11
-7.99435e+11
-7.99451e+11
-7.99466e+11
-7.99482e+11
-7.99498e+11
-7.99515e+11
-7.99532e+11
-7.99549e+11
-7.99566e+11
-7.99584e+11
-7.99601e+11
-7.99618e+11
-7.99636e+11
-7.99653e+11
-7.9967e+11
-7.99687e+11
-7.99703e+11
-7.99719e+11
-7.99735e+11
-7.99751e+11
-7.99766e+11
-7.99782e+11
-7.99796e+11
-7.99811e+11
-7.99825e+11
-7.9984e+11
-7.99853e+11
-7.99867e+11
-7.9988e+11
-7.99893e+11
-7.99906e+11
-7.99919e+11
-7.99931e+11
-7.99943e+11
-7.99955e+11
-7.99966e+11
-7.99977e+11
-7.99988e+11
-7.99998e+11
-8e+11
-8e+11
-8e+11
-8e+11
-8e+11
-8e+11
-8e+11
-8e+11
-8e+11
-8e+11
-8e+11
-8e+11
-8e+11
-8e+11
-8e+11
-8e+11
-8e+11
-8e+11
-8e+11
-8e+11
-8e+11
-8e+11
-8e+11
-8e+11
-8e+11
-8e+11
-8e+11
-0
-0
-0
-0
-0
-0
-0
-0
-0
-0
-0
-1.12315e+10
-7.99317e+11
-7.99343e+11
-7.99364e+11
-7.99383e+11
-7.99401e+11
-7.99417e+11
-7.99433e+11
-7.99449e+11
-7.99465e+11
-7.99481e+11
-7.99497e+11
-7.99514e+11
-7.99531e+11
-7.99548e+11
-7.99565e+11
-7.99582e+11
-7.996e+11
-7.99617e+11
-7.99634e+11
-7.99652e+11
-7.99669e+11
-7.99685e+11
-7.99702e+11
-7.99718e+11
-7.99734e+11
-7.9975e+11
-7.99765e+11
-7.99781e+11
-7.99796e+11
-7.9981e+11
-7.99825e+11
-7.99839e+11
-7.99853e+11
-7.99866e+11
-7.9988e+11
-7.99893e+11
-7.99906e+11
-7.99918e+11
-7.9993e+11
-7.99942e+11
-7.99954e+11
-7.99966e+11
-7.99977e+11
-7.99988e+11
-7.99998e+11
-8e+11
-8e+11
-8e+11
-8e+11
-8e+11
-8e+11
-8e+11
-8e+11
-8e+11
-8e+11
-8e+11
-8e+11
-8e+11
-8e+11
-8e+11
-8e+11
-8e+11
-8e+11
-8e+11
-8e+11
-8e+11
-8e+11
-8e+11
-8e+11
-8e+11
-8e+11
-8e+11
-0
-0
-0
-0
-0
-0
-0
-0
-0
-0
-0
-7.89909e+10
-7.99308e+11
-7.99334e+11
-7.99357e+11
-7.99378e+11
-7.99397e+11
-7.99415e+11
-7.99431e+11
-7.99447e+11
-7.99464e+11
-7.9948e+11
-7.99496e+11
-7.99513e+11
-7.99529e+11
-7.99546e+11
-7.99564e+11
-7.99581e+11
-7.99598e+11
-7.99616e+11
-7.99633e+11
-7.9965e+11
-7.99667e+11
-7.99684e+11
-7.99701e+11
-7.99717e+11
-7.99733e+11
-7.99749e+11
-7.99764e+11
-7.9978e+11
-7.99795e+11
-7.99809e+11
-7.99824e+11
-7.99838e+11
-7.99852e+11
-7.99866e+11
-7.99879e+11
-7.99892e+11
-7.99905e+11
-7.99918e+11
-7.9993e+11
-7.99942e+11
-7.99954e+11
-7.99965e+11
-7.99976e+11
-7.99987e+11
-7.99998e+11
-8e+11
-8e+11
-8e+11
-8e+11
-8e+11
-8e+11
-8e+11
-8e+11
-8e+11
-8e+11
-8e+11
-8e+11
-8e+11
-8e+11
-8e+11
-8e+11
-8e+11
-8e+11
-8e+11
-8e+11
-8e+11
-8e+11
-8e+11
-8e+11
-8e+11
-8e+11
-8e+11
-0
-0
-0
-0
-0
-0
-0
-0
-0
-0
-0
-8.01245e+09
-7.99295e+11
-7.99326e+11
-7.99352e+11
-7.99375e+11
-7.99395e+11
-7.99413e+11
-7.9943e+11
-7.99447e+11
-7.99463e+11
-7.99479e+11
-7.99495e+11
-7.99511e+11
-7.99528e+11
-7.99545e+11
-7.99562e+11
-7.9958e+11
-7.99597e+11
-7.99614e+11
-7.99632e+11
-7.99649e+11
-7.99666e+11
-7.99683e+11
-7.99699e+11
-7.99716e+11
-7.99732e+11
-7.99748e+11
-7.99763e+11
-7.99779e+11
-7.99794e+11
-7.99809e+11
-7.99823e+11
-7.99837e+11
-7.99851e+11
-7.99865e+11
-7.99879e+11
-7.99892e+11
-7.99905e+11
-7.99917e+11
-7.9993e+11
-7.99942e+11
-7.99953e+11
-7.99965e+11
-7.99976e+11
-7.99987e+11
-7.99998e+11
-8e+11
-8e+11
-8e+11
-8e+11
-8e+11
-8e+11
-8e+11
-8e+11
-8e+11
-8e+11
-8e+11
-8e+11
-8e+11
-8e+11
-8e+11
-8e+11
-8e+11
-8e+11
-8e+11
-8e+11
-8e+11
-8e+11
-8e+11
-8e+11
-8e+11
-8e+11
-8e+11
-0
-0
-0
-0
-0
-0
-0
-0
-0
-0
-0
-6.79512e+10
-7.99284e+11
-7.9932e+11
-7.9935e+11
-7.99374e+11
-7.99395e+11
-7.99413e+11
-7.9943e+11
-7.99446e+11
-7.99462e+11
-7.99478e+11
-7.99494e+11
-7.99511e+11
-7.99527e+11
-7.99544e+11
-7.99561e+11
-7.99578e+11
-7.99596e+11
-7.99613e+11
-7.9963e+11
-7.99648e+11
-7.99665e+11
-7.99682e+11
-7.99698e+11
-7.99715e+11
-7.99731e+11
-7.99747e+11
-7.99762e+11
-7.99778e+11
-7.99793e+11
-7.99808e+11
-7.99822e+11
-7.99837e+11
-7.99851e+11
-7.99864e+11
-7.99878e+11
-7.99891e+11
-7.99904e+11
-7.99917e+11
-7.99929e+11
-7.99941e+11
-7.99953e+11
-7.99965e+11
-7.99976e+11
-7.99987e+11
-7.99997e+11
-8e+11
-8e+11
-8e+11
-8e+11
-8e+11
-8e+11
-8e+11
-8e+11
-8e+11
-8e+11
-8e+11
-8e+11
-8e+11
-8e+11
-8e+11
-8e+11
-8e+11
-8e+11
-8e+11
-8e+11
-8e+11
-8e+11
-8e+11
-8e+11
-8e+11
-8e+11
-8e+11
-0
-0
-0
-0
-0
-0
-0
-0
-0
-0
-0
-7.99157e+11
-7.99266e+11
-7.99319e+11
-7.99352e+11
-7.99376e+11
-7.99397e+11
-7.99414e+11
-7.99431e+11
-7.99447e+11
-7.99462e+11
-7.99478e+11
-7.99494e+11
-7.9951e+11
-7.99526e+11
-7.99543e+11
-7.9956e+11
-7.99577e+11
-7.99595e+11
-7.99612e+11
-7.99629e+11
-7.99646e+11
-7.99663e+11
-7.9968e+11
-7.99697e+11
-7.99713e+11
-7.9973e+11
-7.99746e+11
-7.99761e+11
-7.99777e+11
-7.99792e+11
-7.99807e+11
-7.99822e+11
-7.99836e+11
-7.9985e+11
-7.99864e+11
-7.99877e+11
-7.99891e+11
-7.99904e+11
-7.99916e+11
-7.99929e+11
-7.99941e+11
-7.99953e+11
-7.99964e+11
-7.99976e+11
-7.99987e+11
-7.99997e+11
-8e+11
-8e+11
-8e+11
-8e+11
-8e+11
-8e+11
-8e+11
-8e+11
-8e+11
-8e+11
-8e+11
-8e+11
-8e+11
-8e+11
-8e+11
-8e+11
-8e+11
-8e+11
-8e+11
-8e+11
-8e+11
-8e+11
-8e+11
-8e+11
-8e+11
-8e+11
-8e+11
-0
-0
-0
-0
-0
-0
-0
-0
-0
-0
-0
-7.9921e+11
-7.99295e+11
-7.99334e+11
-7.99361e+11
-7.99383e+11
-7.99401e+11
-7.99417e+11
-7.99433e+11
-7.99448e+11
-7.99463e+11
-7.99478e+11
-7.99493e+11
-7.99509e+11
-7.99525e+11
-7.99542e+11
-7.99559e+11
-7.99576e+11
-7.99593e+11
-7.9961e+11
-7.99628e+11
-7.99645e+11
-7.99662e+11
-7.99679e+11
-7.99696e+11
-7.99712e+11
-7.99728e+11
-7.99745e+11
-7.9976e+11
-7.99776e+11
-7.99791e+11
-7.99806e+11
-7.99821e+11
-7.99835e+11
-7.99849e+11
-7.99863e+11
-7.99877e+11
-7.9989e+11
-7.99903e+11
-7.99916e+11
-7.99928e+11
-7.99941e+11
-7.99952e+11
-7.99964e+11
-7.99975e+11
-7.99986e+11
-7.99997e+11
-8e+11
-8e+11
-8e+11
-8e+11