0 	-9.13288e-29 	0 	-1.18727e-27
0.010101 	-3.80071e-20 	1.35346e-22 	-3.31187e-20
0.020202 	2.54883e-20 	1.35857e-22 	-1.25408e-19
0.030303 	-9.24663e-20 	-6.74177e-23 	-8.45921e-22
0.040404 	8.12927e-20 	1.6914e-22 	-2.35781e-20
0.0505051 	-4.20245e-21 	1.69141e-22 	6.76101e-20
