0 	-13.5629
0.010101 	-8.35838
0.020202 	-8.32208
0.030303 	-5.85846
0.040404 	-8.35838
