0 	-9.99063e-14 	0 	3.34172e-14
0.010101 	-1.36651e-11 	0 	7.74288e-13
0.020202 	-2.47574e-10 	0 	5.44327e-12
0.030303 	1.91352e-10 	0 	-2.50649e-11
0.040404 	1.66763e-10 	0 	6.65395e-12
