0 	6.00722e-14 	-8.91647e-30 	-3.34085e-14
0.010101 	-2.81085e-12 	-3.29319e-29 	1.64562e-13
