/*--------------------------------*- C++ -*----------------------------------*\
  =========                 |
  \\      /  F ield         | OpenFOAM: The Open Source CFD Toolbox
   \\    /   O peration     | Website:  https://openfoam.org
    \\  /    A nd           | Version:  6
     \\/     M anipulation  |
\*---------------------------------------------------------------------------*/
FoamFile
{
    version     2.0;
    format      ascii;
    class       surfaceScalarField;
    location    "3350";
    object      phi;
}
// * * * * * * * * * * * * * * * * * * * * * * * * * * * * * * * * * * * * * //

dimensions      [0 3 -1 0 0 0 0];

internalField   nonuniform List<scalar> 
9440
(
-8.43485e-11
8.43485e-11
-2.30587e-10
1.46241e-10
-4.89444e-10
2.58859e-10
-8.90368e-10
4.00925e-10
-1.19231e-09
3.01946e-10
-1.4522e-09
2.59888e-10
-1.66942e-09
2.17222e-10
-1.76052e-09
9.11017e-11
-1.93157e-09
1.71049e-10
-2.02038e-09
8.88165e-11
-2.11719e-09
9.68123e-11
-2.18121e-09
6.40149e-11
-2.18207e-09
8.65438e-13
-2.13732e-09
-4.47523e-11
-2.08742e-09
-4.99019e-11
-2.04998e-09
-3.74318e-11
-2.03181e-09
-1.81757e-11
-2.00073e-09
-3.10744e-11
-2.00043e-09
-2.97428e-13
-1.77473e-09
-2.25701e-10
-8.59829e-10
-9.149e-10
-9.62719e-10
1.02891e-10
-6.2131e-10
-3.41408e-10
-4.54579e-10
-1.6673e-10
4.22477e-11
-4.96826e-10
4.29129e-10
-3.8688e-10
7.52831e-10
-3.23702e-10
1.07097e-09
-3.18142e-10
1.35407e-09
-2.83099e-10
1.7034e-09
-3.49329e-10
1.96127e-09
-2.57864e-10
2.25799e-09
-2.96725e-10
2.65153e-09
-3.93538e-10
2.75901e-09
-1.0748e-10
2.95994e-09
-2.00928e-10
3.11626e-09
-1.56313e-10
3.16099e-09
-4.473e-11
3.21177e-09
-5.07835e-11
3.28732e-09
-7.5548e-11
3.39654e-09
-1.0922e-10
3.56444e-09
-1.67894e-10
3.75065e-09
-1.86217e-10
3.895e-09
-1.44345e-10
3.97786e-09
-8.28623e-11
4.03589e-09
-5.80221e-11
4.15105e-09
-1.15161e-10
4.30313e-09
-1.52084e-10
4.43372e-09
-1.30582e-10
4.45394e-09
-2.02264e-11
4.46454e-09
-1.06013e-11
4.42131e-09
4.32392e-11
4.3358e-09
8.55063e-11
4.23486e-09
1.00943e-10
4.16546e-09
6.94029e-11
4.10286e-09
6.26021e-11
4.09363e-09
9.2308e-12
4.07627e-09
1.7365e-11
4.06351e-09
1.27525e-11
4.06662e-09
-3.10107e-12
4.07209e-09
-5.47571e-12
4.07978e-09
-7.68699e-12
4.11282e-09
-3.30367e-11
4.15967e-09
-4.6853e-11
4.17679e-09
-1.71143e-11
4.17147e-09
5.32395e-12
4.10892e-09
6.25453e-11
4.06703e-09
4.18974e-11
3.9092e-09
1.57828e-10
3.83175e-09
7.74538e-11
3.6006e-09
2.31153e-10
3.44879e-09
1.51811e-10
3.17672e-09
2.72069e-10
2.91066e-09
2.66059e-10
2.72394e-09
1.86719e-10
2.08595e-09
6.37994e-10
1.5257e-09
5.60251e-10
4.10657e-10
1.11504e-09
2.14934e-12
4.08508e-10
-2.51574e-10
2.53724e-10
-3.43221e-10
9.16472e-11
-4.07854e-16
-3.4322e-10
-2.82111e-18
-5.95788e-19
-2.47006e-18
-3.51052e-19
-2.35142e-18
-1.18384e-19
-2.31197e-18
-3.93454e-20
-2.27815e-18
-3.38319e-20
-2.21669e-18
-6.1597e-20
-2.11426e-18
-1.02683e-19
-1.96759e-18
-1.47013e-19
-1.77877e-18
-1.89273e-19
-1.55323e-18
-2.26079e-19
-1.29761e-18
-2.56235e-19
-1.01924e-18
-2.79051e-19
-7.25734e-19
-2.94247e-19
-4.24672e-19
-3.01853e-19
-1.23354e-19
-3.02137e-19
1.71378e-19
-2.95558e-19
4.53301e-19
-2.8273e-19
7.16921e-19
-2.64387e-19
9.57565e-19
-2.4135e-19
1.17142e-18
-2.14491e-19
1.35555e-18
-1.84699e-19
1.50788e-18
-1.52847e-19
1.62717e-18
-1.19766e-19
1.71294e-18
-8.62139e-20
1.76539e-18
-5.28701e-20
1.78531e-18
-2.03201e-20
1.77398e-18
1.09453e-20
1.7331e-18
4.05273e-20
1.66465e-18
6.8114e-20
1.57085e-18
9.34725e-20
1.45411e-18
1.16437e-19
1.31691e-18
1.36901e-19
1.16181e-18
1.548e-19
9.91396e-19
1.70109e-19
8.08262e-19
1.82823e-19
6.14988e-19
1.92955e-19
4.14141e-19
2.00519e-19
2.08282e-19
2.05524e-19
2.07942e-19
-7.47802e-11
1.59131e-10
-2.11593e-10
2.83057e-10
-5.15372e-10
5.6264e-10
-9.33755e-10
8.19311e-10
-1.21418e-09
5.82373e-10
-1.42049e-09
4.66201e-10
-1.52617e-09
3.22907e-10
-1.76519e-09
3.30121e-10
-1.88668e-09
2.9254e-10
-1.99785e-09
1.99988e-10
-2.12903e-09
2.28e-10
-2.22239e-09
1.57378e-10
-2.31147e-09
8.99422e-11
-2.33985e-09
-1.6373e-11
-2.30904e-09
-8.07056e-11
-2.26896e-09
-7.75142e-11
-2.18833e-09
-9.87957e-11
-2.11554e-09
-1.03871e-10
-2.08936e-09
-2.64717e-11
-1.65843e-09
-6.56629e-10
-1.37461e-09
-1.19872e-09
-1.06804e-09
-2.03683e-10
-7.70258e-10
-6.39188e-10
-4.52262e-10
-4.84725e-10
-1.82898e-10
-7.66189e-10
1.39173e-10
-7.08949e-10
5.1405e-10
-6.98578e-10
8.24965e-10
-6.29056e-10
1.11303e-09
-5.71159e-10
1.40177e-09
-6.38066e-10
1.78406e-09
-6.40161e-10
2.06371e-09
-5.76373e-10
2.23328e-09
-5.63108e-10
2.56866e-09
-4.42854e-10
2.77627e-09
-4.08535e-10
2.89132e-09
-2.71368e-10
2.93623e-09
-8.96343e-11
3.02174e-09
-1.36289e-10
3.13122e-09
-1.85026e-10
3.26992e-09
-2.47923e-10
3.42303e-09
-3.21e-10
3.51513e-09
-2.7832e-10
3.64028e-09
-2.6949e-10
3.78275e-09
-2.25333e-10
3.84576e-09
-1.21031e-10
3.95739e-09
-2.26788e-10
4.07321e-09
-2.67895e-10
4.10116e-09
-1.58531e-10
4.12817e-09
-4.72345e-11
4.13935e-09
-2.17858e-11
4.1423e-09
4.02968e-11
4.09996e-09
1.27846e-10
4.1008e-09
1.0011e-10
4.08773e-09
8.24733e-11
4.06421e-09
8.61245e-11
4.05539e-09
1.80515e-11
4.05183e-09
2.09257e-11
4.05417e-09
1.04142e-11
4.05568e-09
-4.60335e-12
4.05513e-09
-4.92809e-12
4.05688e-09
-9.4292e-12
4.05036e-09
-2.65157e-11
4.0513e-09
-4.77934e-11
4.03968e-09
-5.48795e-12
4.0016e-09
4.33994e-11
3.98735e-09
7.68033e-11
3.86905e-09
1.60203e-10
3.82929e-09
1.97587e-10
3.63025e-09
2.76492e-10
3.49874e-09
3.62662e-10
3.37777e-09
2.72789e-10
3.02578e-09
6.24063e-10
2.94192e-09
3.49917e-10
2.4929e-09
6.35743e-10
2.31249e-09
8.18397e-10
2.03281e-09
8.39939e-10
1.69447e-09
1.45338e-09
1.63644e-09
4.6654e-10
7.98004e-10
1.09216e-09
2.24297e-10
6.65355e-10
-2.42796e-16
-1.18923e-10
-2.31093e-18
-8.82699e-19
-2.24668e-18
-4.15314e-19
-2.27983e-18
-8.50588e-20
-2.31216e-18
-7.02149e-21
-2.30999e-18
-3.62183e-20
-2.26031e-18
-1.117e-19
-2.15966e-18
-2.03947e-19
-2.0098e-18
-2.97651e-19
-1.81557e-18
-3.84432e-19
-1.58338e-18
-4.59337e-19
-1.32042e-18
-5.20384e-19
-1.03443e-18
-5.6632e-19
-7.33341e-19
-5.96698e-19
-4.24956e-19
-6.11642e-19
-1.16775e-19
-6.11733e-19
1.84206e-19
-5.97927e-19
4.71644e-19
-5.7149e-19
7.39958e-19
-5.33934e-19
9.84424e-19
-4.86945e-19
1.20121e-18
-4.32307e-19
1.3874e-18
-3.71831e-19
1.54096e-18
-3.07288e-19
1.66072e-18
-2.40351e-19
1.74629e-18
-1.72555e-19
1.79794e-18
-1.05261e-19
1.81658e-18
-3.96483e-20
1.80357e-18
2.33018e-20
1.76069e-18
8.27948e-20
1.69001e-18
1.38214e-19
1.59382e-18
1.89101e-19
1.47457e-18
2.35139e-19
1.33481e-18
2.76124e-19
1.17712e-18
3.11944e-19
1.00411e-18
3.42557e-19
8.18393e-19
3.67967e-19
6.22552e-19
3.88209e-19
4.19147e-19
4.03326e-19
2.10699e-19
4.13365e-19
4.18372e-19
-3.67292e-10
5.26425e-10
-7.31533e-10
6.473e-10
-9.59986e-10
7.91096e-10
-1.03992e-09
8.99248e-10
-1.21403e-09
7.56484e-10
-1.33452e-09
5.86696e-10
-1.43304e-09
4.2143e-10
-1.75706e-09
6.54144e-10
-1.88578e-09
4.21263e-10
-2.07858e-09
3.92786e-10
-2.15826e-09
3.0768e-10
-2.26261e-09
2.61728e-10
-2.33981e-09
1.67147e-10
-2.38575e-09
2.9571e-11
-2.39745e-09
-6.90024e-11
-2.35992e-09
-1.1505e-10
-2.25639e-09
-2.02322e-10
-2.0956e-09
-2.64655e-10
-1.83102e-09
-2.91059e-10
-1.56257e-09
-9.25078e-10
-1.69509e-09
-1.06619e-09
-1.31435e-09
-5.84427e-10
-9.95316e-10
-9.58218e-10
-4.56675e-10
-1.02336e-09
-2.04512e-10
-1.01835e-09
-5.82916e-11
-8.55168e-10
1.52141e-10
-9.09009e-10
4.45207e-10
-9.2212e-10
8.02399e-10
-9.28349e-10
1.15743e-09
-9.93099e-10
1.46118e-09
-9.43908e-10
1.76153e-09
-8.76718e-10
2.02291e-09
-8.24494e-10
2.28179e-09
-7.01726e-10
2.34032e-09
-4.67062e-10
2.44685e-09
-3.77906e-10
2.6723e-09
-3.15079e-10
2.79305e-09
-2.57034e-10
2.90671e-09
-2.98684e-10
2.96987e-09
-3.11085e-10
2.99151e-09
-3.42638e-10
3.08008e-09
-3.66889e-10
3.15862e-09
-3.48034e-10
3.25713e-09
-3.23833e-10
3.33843e-09
-2.02332e-10
3.41436e-09
-3.02722e-10
3.47482e-09
-3.28348e-10
3.51508e-09
-1.98787e-10
3.575e-09
-1.07154e-10
3.58468e-09
-3.14642e-11
3.60063e-09
2.43505e-11
3.61881e-09
1.09663e-10
3.64749e-09
7.14336e-11
3.66236e-09
6.76016e-11
3.6927e-09
5.57927e-11
3.70094e-09
9.80541e-12
3.70433e-09
1.75432e-11
3.70716e-09
7.58656e-12
3.69979e-09
2.76473e-12
3.68813e-09
6.74095e-12
3.68856e-09
-9.85876e-12
3.66973e-09
-7.68525e-12
3.66939e-09
-4.74551e-11
3.626e-09
3.79063e-11
3.57955e-09
8.98558e-11
3.53118e-09
1.25168e-10
3.46934e-09
2.22044e-10
3.42295e-09
2.43987e-10
3.318e-09
3.81443e-10
3.21946e-09
4.61201e-10
2.95141e-09
5.40837e-10
2.8715e-09
7.03976e-10
2.66193e-09
5.5949e-10
2.34488e-09
9.52793e-10
2.25614e-09
9.0714e-10
1.94588e-09
1.1502e-09
1.97466e-09
1.4246e-09
1.19176e-09
1.24943e-09
1.0516e-09
1.23233e-09
6.90964e-10
1.02599e-09
-2.6299e-16
5.72042e-10
-1.29232e-18
1.24351e-18
-1.91559e-18
2.08035e-19
-2.20095e-18
2.00563e-19
-2.34053e-18
1.32658e-19
-2.38466e-18
7.84703e-21
-2.35177e-18
-1.44833e-19
-2.25261e-18
-3.0352e-19
-2.09601e-18
-4.54797e-19
-1.89048e-18
-5.90636e-19
-1.64443e-18
-7.06177e-19
-1.36636e-18
-7.99351e-19
-1.06481e-18
-8.68849e-19
-7.48285e-19
-9.14282e-19
-4.25047e-19
-9.35994e-19
-1.02969e-19
-9.34955e-19
2.10643e-19
-9.12685e-19
5.09199e-19
-8.7117e-19
7.86948e-19
-8.12767e-19
1.03906e-18
-7.40092e-19
1.26169e-18
-6.55905e-19
1.45194e-18
-5.63002e-19
1.6079e-18
-4.64105e-19
1.72852e-18
-3.61779e-19
1.81358e-18
-2.58366e-19
1.86355e-18
-1.55937e-19
1.87953e-18
-5.62685e-20
1.86306e-18
3.91679e-20
1.8161e-18
1.29194e-19
1.74089e-18
2.12905e-19
1.63986e-18
2.89642e-19
1.51556e-18
3.58958e-19
1.37063e-18
4.20577e-19
1.20773e-18
4.74363e-19
1.02952e-18
5.20278e-19
8.38635e-19
5.58354e-19
6.3767e-19
5.88663e-19
4.29186e-19
6.1129e-19
2.15705e-19
6.26318e-19
6.33817e-19
-1.18152e-10
6.44578e-10
-3.84175e-10
9.13326e-10
-7.00179e-10
1.1071e-09
-9.09193e-10
1.10826e-09
-1.14172e-09
9.8901e-10
-1.32184e-09
7.66818e-10
-1.54794e-09
6.47537e-10
-1.70446e-09
8.10661e-10
-1.86695e-09
5.83761e-10
-2.03374e-09
5.5957e-10
-2.14315e-09
4.17093e-10
-2.21972e-09
3.38298e-10
-2.23532e-09
1.82758e-10
-2.24909e-09
4.33345e-11
-2.29046e-09
-2.76243e-11
-2.28597e-09
-1.19538e-10
-2.26079e-09
-2.27502e-10
-2.11058e-09
-4.14862e-10
-1.81753e-09
-5.8411e-10
-1.61735e-09
-1.12526e-09
-1.61301e-09
-1.07053e-09
-1.20495e-09
-9.92478e-10
-8.44763e-10
-1.31841e-09
-7.26789e-10
-1.14134e-09
-5.95575e-10
-1.14956e-09
-2.99893e-10
-1.15085e-09
-5.98166e-11
-1.14908e-09
1.66936e-10
-1.14887e-09
3.85563e-10
-1.14698e-09
6.47228e-10
-1.25476e-09
9.94454e-10
-1.29113e-09
1.34098e-09
-1.22324e-09
1.6133e-09
-1.09681e-09
1.83248e-09
-9.20905e-10
2.03026e-09
-6.6484e-10
2.14511e-09
-4.92752e-10
2.18275e-09
-3.52722e-10
2.24298e-09
-3.17259e-10
2.3264e-09
-3.82103e-10
2.41984e-09
-4.04521e-10
2.49107e-09
-4.13865e-10
2.58349e-09
-4.5931e-10
2.58004e-09
-3.44584e-10
2.62407e-09
-3.67858e-10
2.76591e-09
-3.44172e-10
2.82691e-09
-3.6372e-10
2.83826e-09
-3.39703e-10
2.89657e-09
-2.57088e-10
2.96679e-09
-1.77372e-10
3.0543e-09
-1.18978e-10
3.09987e-09
-2.12165e-11
3.15995e-09
4.95846e-11
3.19726e-09
3.41245e-11
3.22679e-09
3.80715e-11
3.26848e-09
1.41071e-11
3.29364e-09
-1.53457e-11
3.29096e-09
2.02233e-11
3.27997e-09
1.85796e-11
3.26849e-09
1.42401e-11
3.26275e-09
1.24839e-11
3.24768e-09
5.2168e-12
3.22691e-09
1.3089e-11
3.20642e-09
-2.69694e-11
3.17489e-09
6.94378e-11
3.1438e-09
1.20955e-10
3.08046e-09
1.88504e-10
3.01663e-09
2.8588e-10
2.96043e-09
3.00186e-10
2.95544e-09
3.86429e-10
2.86477e-09
5.51876e-10
2.7014e-09
7.04214e-10
2.49355e-09
9.11827e-10
2.33554e-09
7.17502e-10
2.17637e-09
1.11196e-09
1.96553e-09
1.11798e-09
1.80079e-09
1.31494e-09
1.61043e-09
1.61496e-09
1.23377e-09
1.62609e-09
8.70163e-10
1.59594e-09
4.92269e-10
1.40388e-09
-3.00576e-16
1.06431e-09
-1.46028e-18
1.81234e-18
-1.92216e-18
6.70057e-19
-2.26798e-18
5.46745e-19
-2.46449e-18
3.29383e-19
-2.53653e-18
7.99422e-20
-2.50968e-18
-1.7178e-19
-2.40315e-18
-4.10314e-19
-2.23132e-18
-6.26999e-19
-2.00602e-18
-8.16437e-19
-1.7376e-18
-9.75207e-19
-1.43586e-18
-1.10182e-18
-1.11024e-18
-1.19527e-18
-7.69997e-19
-1.25542e-18
-4.24008e-19
-1.28294e-18
-8.06986e-20
-1.27928e-18
2.52158e-19
-1.2466e-18
5.67602e-19
-1.1877e-18
8.59623e-19
-1.10588e-18
1.12325e-18
-1.00479e-18
1.35459e-18
-8.88296e-19
1.55084e-18
-7.60257e-19
1.71022e-18
-6.24443e-19
1.83193e-18
-4.8438e-19
1.91601e-18
-3.43268e-19
1.96322e-18
-2.03914e-19
1.97496e-18
-6.87015e-20
1.95309e-18
6.04125e-20
1.89982e-18
1.81886e-19
1.81763e-18
2.94556e-19
1.70917e-18
3.97598e-19
1.57718e-18
4.9047e-19
1.42441e-18
5.72865e-19
1.25364e-18
6.44656e-19
1.0676e-18
7.05843e-19
8.68943e-19
7.56516e-19
6.60297e-19
7.96806e-19
4.44214e-19
8.2686e-19
2.23203e-19
8.46811e-19
8.56761e-19
-2.02652e-10
8.47232e-10
-2.65708e-10
9.76384e-10
-4.17388e-10
1.25879e-09
-7.20435e-10
1.41131e-09
-9.10271e-10
1.17885e-09
-1.19308e-09
1.04963e-09
-1.43795e-09
8.92412e-10
-1.63401e-09
1.00672e-09
-1.81693e-09
7.66685e-10
-1.92613e-09
6.68773e-10
-2.00247e-09
4.93431e-10
-2.04231e-09
3.78139e-10
-2.07958e-09
2.20033e-10
-2.15212e-09
1.15869e-10
-2.17745e-09
-2.29207e-12
-2.13519e-09
-1.61796e-10
-2.0796e-09
-2.83088e-10
-1.97228e-09
-5.22176e-10
-1.78778e-09
-7.68615e-10
-1.68417e-09
-1.22887e-09
-1.61658e-09
-1.13811e-09
-1.27107e-09
-1.33799e-09
-1.12035e-09
-1.46912e-09
-1.0461e-09
-1.21558e-09
-7.57416e-10
-1.43825e-09
-5.98784e-10
-1.30948e-09
-4.43596e-10
-1.30427e-09
-2.74872e-10
-1.31759e-09
4.56884e-11
-1.46754e-09
4.11332e-10
-1.6204e-09
7.1679e-10
-1.59659e-09
1.05315e-09
-1.55961e-09
1.38173e-09
-1.42539e-09
1.54063e-09
-1.07981e-09
1.62627e-09
-7.50476e-10
1.63882e-09
-5.05298e-10
1.70841e-09
-4.22314e-10
1.78396e-09
-3.92807e-10
1.849e-09
-4.4714e-10
1.87908e-09
-4.34602e-10
1.92971e-09
-4.6449e-10
2.02555e-09
-5.55148e-10
2.08287e-09
-4.01908e-10
2.09193e-09
-3.7691e-10
2.22815e-09
-4.80399e-10
2.27173e-09
-4.0729e-10
2.28772e-09
-3.55695e-10
2.33231e-09
-3.01678e-10
2.39502e-09
-2.40074e-10
2.44592e-09
-1.69876e-10
2.50877e-09
-8.40661e-11
2.61324e-09
-5.48828e-11
2.6961e-09
-4.87404e-11
2.77294e-09
-3.87656e-11
2.81936e-09
-3.23096e-11
2.82878e-09
-2.47622e-11
2.87513e-09
-2.61216e-11
2.89116e-09
2.54724e-12
2.89289e-09
1.25101e-11
2.90197e-09
3.41236e-12
2.90503e-09
2.16172e-12
2.90421e-09
1.3903e-11
2.89544e-09
-1.8192e-11
2.88241e-09
8.24715e-11
2.86985e-09
1.33513e-10
2.86085e-09
1.97506e-10
2.80999e-09
3.36739e-10
2.68846e-09
4.21716e-10
2.68729e-09
3.87605e-10
2.6262e-09
6.12966e-10
2.45612e-09
8.74297e-10
2.49758e-09
8.70365e-10
2.35748e-09
8.57605e-10
2.06284e-09
1.4066e-09
1.83662e-09
1.3442e-09
1.61462e-09
1.53694e-09
1.39861e-09
1.83097e-09
1.22381e-09
1.80089e-09
9.77811e-10
1.84195e-09
6.3909e-10
1.7426e-09
-3.30718e-16
1.7034e-09
-1.3603e-18
2.75931e-18
-2.04452e-18
1.35447e-18
-2.48442e-18
9.87119e-19
-2.71307e-18
5.58335e-19
-2.78743e-18
1.54469e-19
-2.74745e-18
-2.11757e-19
-2.6191e-18
-5.38794e-19
-2.42029e-18
-8.26047e-19
-2.16479e-18
-1.07228e-18
-1.86421e-18
-1.27623e-18
-1.52931e-18
-1.43727e-18
-1.1704e-18
-1.55481e-18
-7.97519e-19
-1.62902e-18
-4.20345e-19
-1.66093e-18
-4.80178e-20
-1.6525e-18
3.11059e-19
-1.60665e-18
6.49422e-19
-1.52711e-18
9.60706e-19
-1.41826e-18
1.23975e-18
-1.28496e-18
1.48263e-18
-1.1323e-18
1.68665e-18
-9.65383e-19
1.85029e-18
-7.89132e-19
1.97305e-18
-6.08133e-19
2.05536e-18
-4.26505e-19
2.09843e-18
-2.47828e-19
2.10408e-18
-7.5103e-20
2.07456e-18
8.92449e-20
2.01249e-18
2.4334e-19
1.92067e-18
3.85807e-19
1.80204e-18
5.15701e-19
1.65957e-18
6.32445e-19
1.4962e-18
7.35749e-19
1.31483e-18
8.25546e-19
1.11827e-18
9.01921e-19
9.09233e-19
9.65058e-19
6.90351e-19
1.01519e-18
4.64166e-19
1.05253e-18
2.33153e-19
1.07731e-18
1.08966e-18
-4.04446e-10
1.25168e-09
-8.49351e-10
1.42129e-09
-1.03368e-09
1.44312e-09
-1.07561e-09
1.45324e-09
-1.13345e-09
1.23669e-09
-1.2193e-09
1.13548e-09
-1.37912e-09
1.05224e-09
-1.49449e-09
1.12209e-09
-1.62478e-09
8.9698e-10
-1.74368e-09
7.87676e-10
-1.79192e-09
5.41667e-10
-1.78971e-09
3.75931e-10
-1.83837e-09
2.687e-10
-1.89125e-09
1.68749e-10
-1.89895e-09
5.40519e-12
-1.89774e-09
-1.63004e-10
-1.92433e-09
-2.56498e-10
-1.95703e-09
-4.89472e-10
-1.7335e-09
-9.9214e-10
-1.6243e-09
-1.33807e-09
-1.56781e-09
-1.19461e-09
-1.39183e-09
-1.51396e-09
-1.30683e-09
-1.55412e-09
-1.04145e-09
-1.48097e-09
-9.19409e-10
-1.56028e-09
-8.90577e-10
-1.33831e-09
-7.61248e-10
-1.4336e-09
-6.08047e-10
-1.47079e-09
-3.581e-10
-1.71748e-09
-1.28445e-10
-1.85006e-09
7.98825e-11
-1.80492e-09
4.3567e-10
-1.91539e-09
7.75288e-10
-1.765e-09
1.1144e-09
-1.41892e-09
1.31868e-09
-9.54759e-10
1.33004e-09
-5.16656e-10
1.33849e-09
-4.30763e-10
1.36682e-09
-4.21136e-10
1.41999e-09
-5.00313e-10
1.46777e-09
-4.82372e-10
1.50619e-09
-5.02914e-10
1.55355e-09
-6.02504e-10
1.65375e-09
-5.0211e-10
1.7698e-09
-4.92962e-10
1.78688e-09
-4.97472e-10
1.82203e-09
-4.42442e-10
1.85197e-09
-3.8563e-10
1.89121e-09
-3.40914e-10
1.92904e-09
-2.77905e-10
2.00149e-09
-2.42322e-10
2.07861e-09
-1.61185e-10
2.16113e-09
-1.37403e-10
2.24422e-09
-1.31826e-10
2.32591e-09
-1.2045e-10
2.40652e-09
-1.12924e-10
2.44017e-09
-5.84071e-11
2.48383e-09
-6.97809e-11
2.5343e-09
-4.79252e-11
2.56296e-09
-1.6144e-11
2.56149e-09
4.88346e-12
2.55968e-09
3.97656e-12
2.56517e-09
8.41736e-12
2.56715e-09
-2.01725e-11
2.56212e-09
8.75025e-11
2.55513e-09
1.40507e-10
2.55962e-09
1.93012e-10
2.55528e-09
3.41083e-10
2.49927e-09
4.77724e-10
2.46428e-09
4.22596e-10
2.36677e-09
7.10478e-10
2.25475e-09
9.86318e-10
2.13226e-09
9.92861e-10
1.86042e-09
1.12945e-09
1.84712e-09
1.4199e-09
1.69349e-09
1.49783e-09
1.48893e-09
1.7415e-09
1.39169e-09
1.92822e-09
1.26628e-09
1.9263e-09
1.00558e-09
2.10265e-09
6.04583e-10
2.1436e-09
-3.55554e-16
2.30799e-09
-1.13911e-18
7.38935e-18
-2.41083e-18
2.62642e-18
-2.91224e-18
1.48911e-18
-3.11604e-18
7.62541e-19
-3.15283e-18
1.9152e-19
-3.07371e-18
-2.90783e-19
-2.90564e-18
-7.06939e-19
-2.66613e-18
-1.06572e-18
-2.36874e-18
-1.36991e-18
-2.02524e-18
-1.62007e-18
-1.64685e-18
-1.81607e-18
-1.24461e-18
-1.95755e-18
-8.29425e-19
-2.04479e-18
-4.11922e-19
-2.07912e-18
-2.16871e-21
-2.06305e-18
3.90605e-19
-2.00033e-18
7.5827e-19
-1.89578e-18
1.094e-18
-1.75509e-18
1.39241e-18
-1.58452e-18
1.64955e-18
-1.39062e-18
1.8629e-18
-1.17991e-18
2.03129e-18
-9.58656e-19
2.15467e-18
-7.32606e-19
2.23404e-18
-5.06884e-19
2.27116e-18
-2.85878e-19
2.26842e-18
-7.32064e-20
2.22865e-18
1.28263e-19
2.15495e-18
3.16372e-19
2.05057e-18
4.89589e-19
1.91879e-18
6.46926e-19
1.76288e-18
7.87838e-19
1.586e-18
9.12126e-19
1.39121e-18
1.01985e-18
1.18141e-18
1.11123e-18
9.5936e-19
1.18661e-18
7.277e-19
1.24634e-18
4.8894e-19
1.29079e-18
2.45501e-19
1.32023e-18
1.3349e-18
-7.90157e-11
1.3307e-09
-1.39175e-10
1.48145e-09
-3.61689e-10
1.66563e-09
-5.32492e-10
1.62405e-09
-8.45044e-10
1.54924e-09
-1.05864e-09
1.34908e-09
-1.26651e-09
1.26011e-09
-1.39514e-09
1.25073e-09
-1.5395e-09
1.04134e-09
-1.59414e-09
8.4231e-10
-1.60378e-09
5.51308e-10
-1.56292e-09
3.35078e-10
-1.61942e-09
3.25204e-10
-1.67737e-09
2.26698e-10
-1.80661e-09
1.34645e-10
-1.78492e-09
-1.84689e-10
-1.7904e-09
-2.51013e-10
-1.79326e-09
-4.86616e-10
-1.64186e-09
-1.14353e-09
-1.7059e-09
-1.27403e-09
-1.60946e-09
-1.29104e-09
-1.5439e-09
-1.57953e-09
-1.47373e-09
-1.6243e-09
-1.28199e-09
-1.6727e-09
-1.22505e-09
-1.61723e-09
-9.54397e-10
-1.60896e-09
-7.62701e-10
-1.62529e-09
-5.59714e-10
-1.67378e-09
-4.30808e-10
-1.84639e-09
-2.77837e-10
-2.00303e-09
4.52613e-12
-2.08728e-09
3.16729e-10
-2.2276e-09
5.71584e-10
-2.01986e-09
8.0065e-10
-1.64798e-09
8.73492e-10
-1.0276e-09
9.1144e-10
-5.54603e-10
9.558e-10
-4.75121e-10
1.01503e-09
-4.80366e-10
1.04786e-09
-5.33143e-10
1.12779e-09
-5.623e-10
1.19681e-09
-5.71934e-10
1.24399e-09
-6.49675e-10
1.33075e-09
-5.88872e-10
1.36693e-09
-5.29143e-10
1.43011e-09
-5.60646e-10
1.45847e-09
-4.70803e-10
1.49555e-09
-4.22705e-10
1.55679e-09
-4.02155e-10
1.61173e-09
-3.32845e-10
1.69191e-09
-3.22501e-10
1.74137e-09
-2.1064e-10
1.81432e-09
-2.10355e-10
1.8774e-09
-1.94903e-10
1.92488e-09
-1.67925e-10
1.98031e-09
-1.6835e-10
2.00997e-09
-8.80694e-11
2.02522e-09
-8.50233e-11
2.04371e-09
-6.64125e-11
2.08884e-09
-6.12736e-11
2.11838e-09
-2.46586e-11
2.12191e-09
4.47087e-13
2.11721e-09
1.3119e-11
2.0856e-09
1.14368e-11
2.08526e-09
8.78528e-11
2.12084e-09
1.04925e-10
2.12539e-09
1.88463e-10
2.13126e-09
3.35216e-10
2.15578e-09
4.53204e-10
2.11617e-09
4.62211e-10
2.11846e-09
7.08186e-10
2.10923e-09
9.95549e-10
2.01515e-09
1.08694e-09
1.93937e-09
1.20522e-09
1.80018e-09
1.55909e-09
1.60015e-09
1.69786e-09
1.45714e-09
1.88451e-09
1.37776e-09
2.00761e-09
1.14502e-09
2.15904e-09
7.18545e-10
2.52912e-09
2.88435e-10
2.57371e-09
-3.39133e-16
2.59642e-09
-3.87889e-18
4.32481e-18
-3.54698e-18
2.29477e-18
-3.63779e-18
1.58049e-18
-3.68614e-18
8.1131e-19
-3.6343e-18
1.39978e-19
-3.48911e-18
-4.35826e-19
-3.26373e-18
-9.32368e-19
-2.97e-18
-1.35963e-18
-2.6189e-18
-1.72126e-18
-2.22125e-18
-2.01803e-18
-1.78833e-18
-2.24937e-18
-1.33185e-18
-2.41447e-18
-8.6375e-19
-2.51341e-18
-3.95857e-19
-2.54762e-18
6.05499e-20
-2.52018e-18
4.95154e-19
-2.43578e-18
8.98964e-19
-2.30056e-18
1.26457e-18
-2.12177e-18
1.58631e-18
-1.9074e-18
1.86025e-18
-1.66575e-18
2.08416e-18
-1.40503e-18
2.25734e-18
-1.13303e-18
2.3804e-18
-8.56827e-19
2.45505e-18
-5.82634e-19
2.48383e-18
-3.15679e-19
2.46989e-18
-6.01923e-20
2.41676e-18
1.80568e-19
2.32817e-18
4.0423e-19
2.2079e-18
6.092e-19
2.0597e-18
7.94537e-19
1.88716e-18
9.59827e-19
1.69372e-18
1.10505e-18
1.48259e-18
1.23048e-18
1.25678e-18
1.33655e-18
1.01909e-18
1.4238e-18
7.72142e-19
1.49279e-18
5.18388e-19
1.54403e-18
2.6017e-19
1.57794e-18
1.59482e-18
4.15006e-12
1.32655e-09
-8.66552e-11
1.57226e-09
-1.91406e-10
1.77039e-09
-3.6152e-10
1.79416e-09
-5.17398e-10
1.70512e-09
-8.07096e-10
1.63878e-09
-1.04353e-09
1.49654e-09
-1.10341e-09
1.31061e-09
-1.2639e-09
1.20183e-09
-1.33172e-09
9.10129e-10
-1.44639e-09
6.65984e-10
-1.48016e-09
3.68846e-10
-1.5171e-09
3.62146e-10
-1.60369e-09
3.13294e-10
-1.70597e-09
2.36928e-10
-1.74339e-09
-1.47274e-10
-1.75398e-09
-2.4042e-10
-1.6785e-09
-5.62096e-10
-1.71717e-09
-1.10486e-09
-1.784e-09
-1.20721e-09
-1.63969e-09
-1.43534e-09
-1.61363e-09
-1.60559e-09
-1.49961e-09
-1.73831e-09
-1.40997e-09
-1.76234e-09
-1.2148e-09
-1.8124e-09
-1.0142e-09
-1.80955e-09
-8.1918e-10
-1.82032e-09
-6.07381e-10
-1.88558e-09
-3.9626e-10
-2.05751e-09
-2.33191e-10
-2.1661e-09
-1.1919e-10
-2.20128e-09
-8.56144e-11
-2.26117e-09
5.12118e-11
-2.15668e-09
3.03255e-10
-1.90003e-09
5.09241e-10
-1.23358e-09
5.58794e-10
-6.04155e-10
6.19673e-10
-5.35999e-10
7.14959e-10
-5.75651e-10
7.88516e-10
-6.06699e-10
8.45156e-10
-6.18939e-10
9.5809e-10
-6.84867e-10
9.93884e-10
-6.85468e-10
1.03602e-09
-6.31005e-10
1.05955e-09
-5.52675e-10
1.0912e-09
-5.92292e-10
1.15136e-09
-5.3096e-10
1.20579e-09
-4.77139e-10
1.25076e-09
-4.47121e-10
1.31764e-09
-3.99721e-10
1.38219e-09
-3.87048e-10
1.4547e-09
-2.83152e-10
1.51959e-09
-2.75245e-10
1.5324e-09
-2.07709e-10
1.60472e-09
-2.40237e-10
1.61606e-09
-1.7969e-10
1.63806e-09
-1.10071e-10
1.6519e-09
-9.88569e-11
1.6566e-09
-7.1115e-11
1.66191e-09
-6.65814e-11
1.67581e-09
-3.85514e-11
1.68306e-09
-6.80286e-12
1.68441e-09
1.17677e-11
1.65333e-09
4.25188e-11
1.6605e-09
8.06829e-11
1.66773e-09
9.77009e-11
1.66818e-09
1.88013e-10
1.69614e-09
3.07254e-10
1.78609e-09
3.63257e-10
1.73677e-09
5.11536e-10
1.72156e-09
7.2339e-10
1.70612e-09
1.01099e-09
1.8464e-09
9.46665e-10
1.6289e-09
1.42272e-09
1.45307e-09
1.73493e-09
1.38209e-09
1.76883e-09
1.25085e-09
2.01576e-09
1.144e-09
2.11445e-09
1.03178e-09
2.27127e-09
1.33307e-09
2.22783e-09
1.10112e-09
2.80567e-09
-3.50496e-16
3.69754e-09
-3.43645e-18
8.6683e-18
-4.26009e-18
3.1187e-18
-4.40592e-18
1.7269e-18
-4.35654e-18
7.62272e-19
-4.20927e-18
-7.07279e-21
-3.9849e-18
-6.60064e-19
-3.69032e-18
-1.227e-18
-3.33139e-18
-1.71878e-18
-2.91567e-18
-2.1373e-18
-2.45259e-18
-2.4815e-18
-1.95344e-18
-2.74896e-18
-1.43078e-18
-2.9376e-18
-8.97963e-19
-3.04675e-18
-3.68417e-19
-3.07776e-18
1.44949e-19
-3.03424e-18
6.30378e-19
-2.92202e-18
1.07775e-18
-2.74886e-18
1.47894e-18
-2.52398e-18
1.82796e-18
-2.25752e-18
2.12097e-18
-1.95993e-18
2.35616e-18
-1.64144e-18
2.53354e-18
-1.31163e-18
2.65459e-18
-9.79087e-19
2.722e-18
-6.51211e-19
2.73932e-18
-3.34094e-19
2.71065e-18
-3.25353e-20
2.64042e-18
2.49891e-19
2.53314e-18
5.10709e-19
2.39324e-18
7.48384e-19
2.22499e-18
9.62151e-19
2.03239e-18
1.15185e-18
1.81915e-18
1.31775e-18
1.58867e-18
1.46045e-18
1.34404e-18
1.58067e-18
1.08808e-18
1.67926e-18
8.23381e-19
1.757e-18
5.52296e-19
1.81461e-18
2.77048e-19
1.85269e-18
1.87162e-18
-1.63011e-10
1.48956e-09
-3.36489e-10
1.74574e-09
-5.46782e-10
1.98068e-09
-7.76697e-10
2.02408e-09
-9.00212e-10
1.82864e-09
-9.84076e-10
1.72265e-09
-1.11964e-09
1.63211e-09
-1.1625e-09
1.35348e-09
-1.18624e-09
1.22557e-09
-1.25177e-09
9.75655e-10
-1.39346e-09
8.07676e-10
-1.47618e-09
4.51573e-10
-1.54523e-09
4.31191e-10
-1.63403e-09
4.02094e-10
-1.60573e-09
2.08634e-10
-1.72838e-09
-2.46204e-11
-1.73827e-09
-2.30535e-10
-1.54485e-09
-7.55511e-10
-1.80217e-09
-8.47537e-10
-1.70849e-09
-1.30088e-09
-1.64853e-09
-1.4953e-09
-1.64469e-09
-1.60943e-09
-1.52624e-09
-1.85676e-09
-1.39449e-09
-1.89409e-09
-1.24587e-09
-1.96102e-09
-1.06205e-09
-1.99337e-09
-8.92494e-10
-1.98988e-09
-7.45503e-10
-2.03257e-09
-6.36403e-10
-2.1666e-09
-5.42395e-10
-2.26011e-09
-4.31354e-10
-2.31232e-09
-3.65345e-10
-2.32718e-09
-3.2754e-10
-2.19449e-09
-2.0137e-10
-2.02619e-09
6.45837e-11
-1.49954e-09
3.4143e-10
-8.81e-10
4.32674e-10
-6.27242e-10
4.7953e-10
-6.22505e-10
5.59352e-10
-6.8652e-10
6.21949e-10
-6.81534e-10
6.44164e-10
-7.07081e-10
6.98293e-10
-7.39596e-10
7.98942e-10
-7.31652e-10
8.99355e-10
-6.53087e-10
9.11708e-10
-6.04644e-10
9.26894e-10
-5.46144e-10
9.72371e-10
-5.22614e-10
1.00373e-09
-4.78477e-10
1.05699e-09
-4.52976e-10
1.10938e-09
-4.39438e-10
1.17687e-09
-3.5064e-10
1.2596e-09
-3.57979e-10
1.26115e-09
-2.09251e-10
1.41896e-09
-3.98053e-10
1.40166e-09
-1.62381e-10
1.40915e-09
-1.17561e-10
1.42859e-09
-1.18299e-10
1.43208e-09
-7.46058e-11
1.42064e-09
-5.51359e-11
1.40609e-09
-2.40009e-11
1.37632e-09
2.29731e-11
1.35082e-09
3.72642e-11
1.33887e-09
5.44761e-11
1.34579e-09
7.37618e-11
1.30804e-09
1.35452e-10
1.30828e-09
1.87771e-10
1.37336e-09
2.42176e-10
1.43995e-09
2.96674e-10
1.44796e-09
5.03518e-10
1.49199e-09
6.79362e-10
1.60013e-09
9.02858e-10
1.56313e-09
9.83666e-10
1.47065e-09
1.5152e-09
1.48938e-09
1.7162e-09
1.27709e-09
1.98112e-09
1.11142e-09
2.18144e-09
9.57058e-10
2.26881e-09
5.79897e-10
2.64843e-09
3.61455e-11
2.77158e-09
8.49731e-11
2.75684e-09
-4.21254e-16
3.78252e-09
-6.10415e-18
8.00961e-18
-5.65062e-18
2.66544e-18
-5.36947e-18
1.44643e-18
-5.12494e-18
5.18124e-19
-4.86144e-18
-2.70473e-19
-4.55111e-18
-9.70395e-19
-4.18145e-18
-1.59675e-18
-3.74977e-18
-2.15072e-18
-3.25986e-18
-2.62762e-18
-2.72005e-18
-3.02181e-18
-2.14208e-18
-3.32751e-18
-1.53994e-18
-3.54034e-18
-9.28972e-19
-3.65833e-18
-3.24895e-19
-3.6825e-18
2.57172e-19
-3.61703e-18
8.0354e-19
-3.4692e-18
1.30263e-18
-3.24886e-18
1.7454e-18
-2.96776e-18
2.12555e-18
-2.63875e-18
2.43946e-18
-2.27497e-18
2.68597e-18
-1.88914e-18
2.86608e-18
-1.49295e-18
2.98247e-18
-1.0967e-18
3.03912e-18
-7.09073e-19
3.04088e-18
-3.37015e-19
2.99308e-18
1.41783e-20
2.90124e-18
3.40744e-19
2.77081e-18
6.40258e-19
2.60701e-18
9.11411e-19
2.41469e-18
1.15378e-18
2.19829e-18
1.36762e-18
1.96184e-18
1.55364e-18
1.70889e-18
1.71286e-18
1.44262e-18
1.84643e-18
1.16583e-18
1.95555e-18
8.80996e-19
2.04133e-18
5.90367e-19
2.10475e-18
2.9598e-19
2.14657e-18
2.16735e-18
-2.67066e-10
1.75663e-09
-5.13238e-10
1.99192e-09
-5.64689e-10
2.03214e-09
-5.20973e-10
1.98036e-09
-5.74634e-10
1.8823e-09
-6.00076e-10
1.74809e-09
-6.4823e-10
1.68026e-09
-9.15327e-10
1.62058e-09
-1.00281e-09
1.31306e-09
-1.07558e-09
1.04843e-09
-1.23686e-09
9.68965e-10
-1.40365e-09
6.18359e-10
-1.51267e-09
5.40217e-10
-1.597e-09
4.86428e-10
-1.59286e-09
2.04491e-10
-1.6623e-09
4.48256e-11
-1.62108e-09
-2.71759e-10
-1.50945e-09
-8.67137e-10
-1.76203e-09
-5.94953e-10
-1.65924e-09
-1.40368e-09
-1.68596e-09
-1.46858e-09
-1.61096e-09
-1.68443e-09
-1.51177e-09
-1.95595e-09
-1.35679e-09
-2.04906e-09
-1.19621e-09
-2.1216e-09
-9.88064e-10
-2.20151e-09
-8.11091e-10
-2.16685e-09
-6.73125e-10
-2.17053e-09
-5.84808e-10
-2.25492e-09
-5.35308e-10
-2.30961e-09
-5.02707e-10
-2.34492e-09
-4.67814e-10
-2.36207e-09
-4.34552e-10
-2.22775e-09
-4.71037e-10
-1.98971e-09
-3.68704e-10
-1.60187e-09
-1.56982e-11
-1.23401e-09
2.4844e-10
-8.91379e-10
3.72016e-10
-7.4608e-10
3.78638e-10
-6.93141e-10
4.18139e-10
-7.21034e-10
4.71344e-10
-7.60284e-10
5.25204e-10
-7.93456e-10
5.58431e-10
-7.64877e-10
5.97795e-10
-6.9245e-10
6.45429e-10
-6.52277e-10
7.1539e-10
-6.16103e-10
7.85058e-10
-5.9228e-10
8.52812e-10
-5.46229e-10
9.11222e-10
-5.11385e-10
9.83882e-10
-5.12097e-10
1.04343e-09
-4.10187e-10
1.08475e-09
-3.99292e-10
1.18257e-09
-3.07076e-10
1.22349e-09
-4.38969e-10
1.25724e-09
-1.96128e-10
1.29128e-09
-1.51598e-10
1.31594e-09
-1.42956e-10
1.31206e-09
-7.07238e-11
1.30147e-09
-4.45435e-11
1.27559e-09
1.8764e-12
1.26055e-09
3.80148e-11
1.19923e-09
9.85822e-11
1.16687e-09
8.68443e-11
1.14494e-09
9.5694e-11
1.11132e-09
1.69068e-10
1.10108e-09
1.98011e-10
1.09738e-09
2.45885e-10
1.06582e-09
3.28227e-10
1.1426e-09
4.26739e-10
1.26865e-09
5.53316e-10
1.36333e-09
8.0818e-10
1.2082e-09
1.1388e-09
1.10267e-09
1.62074e-09
1.02535e-09
1.79352e-09
9.65714e-10
2.04076e-09
9.97059e-10
2.1501e-09
7.71153e-10
2.49472e-09
7.04151e-10
2.71543e-09
6.48855e-10
2.82688e-09
3.52708e-10
3.05299e-09
-4.35281e-16
4.13523e-09
-8.05273e-18
5.44488e-18
-6.86837e-18
1.48129e-18
-6.29669e-18
8.75533e-19
-5.9126e-18
1.34667e-19
-5.56055e-18
-6.22275e-19
-5.17676e-18
-1.35421e-18
-4.73483e-18
-2.03888e-18
-4.2266e-18
-2.65928e-18
-3.65405e-18
-3.20065e-18
-3.02575e-18
-3.65074e-18
-2.35491e-18
-3.99906e-18
-1.65793e-18
-4.23806e-18
-9.53135e-19
-4.36388e-18
-2.5943e-19
-4.37697e-18
4.05004e-19
-4.28227e-18
1.02388e-18
-4.08895e-18
1.58373e-18
-3.80964e-18
2.07441e-18
-3.45944e-18
2.48933e-18
-3.05472e-18
2.82529e-18
-2.61204e-18
3.08217e-18
-2.14716e-18
3.26232e-18
-1.6743e-18
3.3701e-18
-1.2057e-18
3.41117e-18
-7.51386e-19
3.39207e-18
-3.19117e-19
3.31965e-18
8.54562e-20
3.20076e-18
4.58578e-19
3.04197e-18
7.98096e-19
2.84938e-18
1.10316e-18
2.62852e-18
1.37389e-18
2.38432e-18