/*--------------------------------*- C++ -*----------------------------------*\
  =========                 |
  \\      /  F ield         | OpenFOAM: The Open Source CFD Toolbox
   \\    /   O peration     | Website:  https://openfoam.org
    \\  /    A nd           | Version:  6
     \\/     M anipulation  |
\*---------------------------------------------------------------------------*/
FoamFile
{
    version     2.0;
    format      ascii;
    class       surfaceScalarField;
    location    "1400";
    object      phi;
}
// * * * * * * * * * * * * * * * * * * * * * * * * * * * * * * * * * * * * * //

dimensions      [0 3 -1 0 0 0 0];

internalField   nonuniform List<scalar> 
9440
(
-1.11296e-13
1.11296e-13
-2.2103e-13
1.10026e-13
-3.27933e-13
1.07137e-13
-4.30424e-13
1.02716e-13
-5.27143e-13
9.69414e-14
-6.16861e-13
8.99411e-14
-6.98541e-13
8.18978e-14
-7.71337e-13
7.30139e-14
-8.34561e-13
6.34395e-14
-8.87706e-13
5.33571e-14
-9.30496e-13
4.30023e-14
-9.62795e-13
3.25069e-14
-9.84662e-13
2.20731e-14
-9.96191e-13
1.17308e-14
-9.98337e-13
2.34515e-15
-9.92142e-13
-6.00068e-15
-9.77968e-13
-1.39841e-14
-9.54708e-13
-2.30758e-14
-9.24548e-13
-2.99799e-14
-8.89424e-13
-3.49509e-14
-8.50595e-13
-3.86616e-14
-8.04651e-13
-4.57792e-14
-7.56873e-13
-4.76217e-14
-7.0682e-13
-4.9904e-14
-6.54863e-13
-5.1813e-14
-6.02073e-13
-5.26538e-14
-5.49186e-13
-5.276e-14
-4.96692e-13
-5.23722e-14
-4.45136e-13
-5.14414e-14
-3.94863e-13
-5.01666e-14
-3.46286e-13
-4.84783e-14
-2.9967e-13
-4.65272e-14
-2.5524e-13
-4.43484e-14
-2.13119e-13
-4.20479e-14
-1.73389e-13
-3.96644e-14
-1.36166e-13
-3.71661e-14
-1.01399e-13
-3.47206e-14
-6.91099e-14
-3.22493e-14
-3.91613e-14
-2.99184e-14
-1.15214e-14
-2.76189e-14
1.39406e-14
-2.54497e-14
3.72921e-14
-2.33467e-14
5.87131e-14
-2.14273e-14
7.82853e-14
-1.95853e-14
9.61109e-14
-1.78487e-14
1.12367e-13
-1.62882e-14
1.27151e-13
-1.4825e-14
1.40511e-13
-1.34099e-14
1.52621e-13
-1.2168e-14
1.63504e-13
-1.09508e-14
1.73268e-13
-9.84122e-15
1.81947e-13
-8.76285e-15
1.89576e-13
-7.7199e-15
1.96175e-13
-6.69848e-15
2.01718e-13
-5.65279e-15
2.06323e-13
-4.72088e-15
2.09909e-13
-3.70665e-15
2.12491e-13
-2.71389e-15
2.14059e-13
-1.70702e-15
2.14602e-13
-6.87871e-16
2.14122e-13
3.27262e-16
2.12624e-13
1.33675e-15
2.10109e-13
2.34967e-15
2.06577e-13
3.36163e-15
2.02063e-13
4.33698e-15
1.96652e-13
5.22734e-15
1.90377e-13
6.08639e-15
1.83327e-13
6.85506e-15
1.75694e-13
7.43386e-15
1.67616e-13
7.8728e-15
1.59357e-13
8.05015e-15
1.51282e-13
7.86154e-15
1.44089e-13
6.97856e-15
1.39351e-13
4.5171e-15
1.41389e-13
-2.26035e-15
1.63178e-13
-2.20129e-14
2.45856e-13
-8.29024e-14
1.03815e-13
1.41813e-13
1.4118e-16
1.03445e-13
2.86086e-21
-2.70082e-20
2.73704e-21
-8.06501e-24
2.73466e-21
2.22305e-24
2.71434e-21
9.25408e-24
2.69315e-21
1.65953e-23
2.66983e-21
2.42984e-23
2.64274e-21
3.2105e-23
2.61038e-21
3.9653e-23
2.57243e-21
4.67874e-23
2.52848e-21
5.35599e-23
2.47896e-21
5.98672e-23
2.42395e-21
6.55541e-23
2.36367e-21
7.06206e-23
2.29848e-21
7.52217e-23
2.2291e-21
7.92543e-23
2.15584e-21
8.27181e-23
2.07907e-21
8.56132e-23
1.9994e-21
8.79913e-23
1.91725e-21
8.98525e-23
1.83293e-21
9.13001e-23
1.74711e-21
9.23857e-23
1.65984e-21
9.31095e-23
1.57164e-21
9.34714e-23
1.48282e-21
9.34714e-23
1.39349e-21
9.32129e-23
1.30395e-21
9.2851e-23
1.2143e-21
9.22306e-23
1.12471e-21
9.15069e-23
1.03548e-21
9.06797e-23
9.46657e-22
8.97491e-23
8.582e-22
8.88702e-23
7.70415e-22
8.78879e-23
6.82941e-22
8.69574e-23
5.95932e-22
8.59234e-23
5.09543e-22
8.50445e-23
4.23517e-22
8.41656e-23
3.37903e-22
8.34419e-23
2.52652e-22
8.28215e-23
1.67866e-22
8.22011e-23
8.34419e-23
8.15807e-23
8.0495e-23
-1.1226e-13
2.23852e-13
-2.24033e-13
2.22265e-13
-3.32803e-13
2.16316e-13
-4.36887e-13
2.07196e-13
-5.34912e-13
1.95362e-13
-6.25747e-13
1.81168e-13
-7.08354e-13
1.64894e-13
-7.81837e-13
1.4688e-13
-8.45494e-13
1.2748e-13
-8.98878e-13
1.07117e-13
-9.41662e-13
8.61582e-14
-9.7377e-13
6.49811e-14
-9.95209e-13
4.3872e-14
-1.00614e-12
2.30106e-14
-1.00769e-12
4.23742e-15
-1.00114e-12
-1.22074e-14
-9.85719e-13
-2.9081e-14
-9.61452e-13
-4.70229e-14
-9.30488e-13
-6.06331e-14
-8.94772e-13
-7.03663e-14
-8.5445e-13
-7.8696e-14
-8.07917e-13
-9.20364e-14
-7.59275e-13
-9.59997e-14
-7.08478e-13
-1.00449e-13
-6.55697e-13
-1.04356e-13
-6.02307e-13
-1.05817e-13
-5.48828e-13
-1.06028e-13
-4.95841e-13
-1.05158e-13
-4.43792e-13
-1.03304e-13
-3.93189e-13
-1.00597e-13
-3.44332e-13
-9.71769e-14
-2.9752e-13
-9.3196e-14
-2.52898e-13
-8.88401e-14
-2.10697e-13
-8.41369e-14
-1.7096e-13
-7.93014e-14
-1.337e-13
-7.43436e-14
-9.89597e-14
-6.93927e-14
-6.67216e-14
-6.44345e-14
-3.68598e-14
-5.97444e-14
-9.30286e-15
-5.51572e-14
1.6003e-14
-5.07542e-14
3.92672e-14
-4.66248e-14
6.05437e-14
-4.2731e-14
7.99638e-14
-3.90509e-14
9.77245e-14
-3.56676e-14
1.13856e-13
-3.24965e-14
1.28526e-13
-2.95866e-14
1.4184e-13
-2.68259e-14
1.5387e-13
-2.43178e-14
1.64691e-13
-2.19077e-14
1.74385e-13
-1.96863e-14
1.83005e-13
-1.75495e-14
1.90579e-13
-1.54712e-14
1.97153e-13
-1.34682e-14
2.02743e-13
-1.14507e-14
2.0734e-13
-9.54148e-15
2.10953e-13
-7.55503e-15
2.13541e-13
-5.55145e-15
2.15072e-13
-3.50005e-15
2.15637e-13
-1.52508e-15
2.15167e-13
5.11093e-16
2.13676e-13
2.53103e-15
2.11131e-13
4.58452e-15
2.07557e-13
6.61528e-15
2.02993e-13
8.57138e-15
1.97482e-13
1.03994e-14
1.91104e-13
1.21158e-14
1.83952e-13
1.3648e-14
1.76142e-13
1.488e-14
1.67848e-13
1.57923e-14
1.59192e-13
1.63265e-14
1.50395e-13
1.62696e-14
1.41678e-13
1.52999e-14
1.3297e-13
1.2828e-14
1.22736e-13
7.57129e-15
1.02899e-13
-2.57814e-15
3.86781e-14
-1.90899e-14
3.72804e-14
1.42803e-13
1.1022e-16
1.40291e-13
2.91339e-21
-4.87195e-20
2.74733e-21
-1.45791e-23
2.74169e-21
3.36042e-24
2.72168e-21
2.10414e-23
2.7009e-21
3.84122e-23
2.67764e-21
5.55762e-23
2.65029e-21
7.20681e-23
2.61746e-21
8.77846e-23
2.5792e-21
1.02519e-22
2.53479e-21
1.16064e-22
2.4847e-21
1.28523e-22
2.42902e-21
1.39742e-22
2.36822e-21
1.49771e-22
2.30251e-21
1.58457e-22
2.23256e-21
1.65953e-22
2.15868e-21
1.7226e-22
2.08145e-21
1.77534e-22
2.00126e-21
1.81773e-22
1.9187e-21
1.84978e-22
1.83401e-21
1.87253e-22
1.74778e-21
1.88804e-22
1.6602e-21
1.89528e-22
1.57164e-21
1.89786e-22
1.48262e-21
1.89373e-22
1.39313e-21
1.88442e-22
1.30333e-21
1.87098e-22
1.21358e-21
1.85547e-22
1.12388e-21
1.83582e-22
1.03454e-21
1.81463e-22
9.45778e-22
1.79291e-22
8.57269e-22
1.76965e-22
7.69433e-22
1.74742e-22
6.81959e-22
1.72364e-22
5.95001e-22
1.70141e-22
5.08664e-22
1.68124e-22
4.22793e-22
1.66108e-22
3.37283e-22
1.64402e-22
2.52135e-22
1.62955e-22
1.67142e-22
1.61766e-22
8.24596e-23
1.60835e-22
1.60215e-22
-1.16826e-13
3.40909e-13
-2.30852e-13
3.36698e-13
-3.41719e-13
3.27535e-13
-4.47953e-13
3.13774e-13
-5.48127e-13
2.95876e-13
-6.40906e-13
2.74285e-13
-7.25156e-13
2.49482e-13
-7.99979e-13
2.22037e-13
-8.64666e-13
1.92498e-13
-9.18676e-13
1.61455e-13
-9.61743e-13
1.29549e-13
-9.93746e-13
9.7299e-14
-1.01476e-12
6.51939e-14
-1.02487e-12
3.34331e-14
-1.02562e-12
5.28199e-15
-1.01838e-12
-1.9158e-14
-1.00084e-12
-4.63293e-14
-9.74696e-13
-7.289e-14
-9.42283e-13
-9.27759e-14
-9.05492e-13
-1.06898e-13
-8.62063e-13
-1.21874e-13
-8.14329e-13
-1.39531e-13
-7.63981e-13
-1.46115e-13
-7.11628e-13
-1.52582e-13
-6.57247e-13
-1.58523e-13
-6.02617e-13
-1.60249e-13
-5.4796e-13
-1.605e-13
-4.93962e-13
-1.5898e-13
-4.41098e-13
-1.56004e-13
-3.89805e-13
-1.51739e-13
-3.4041e-13
-1.46433e-13
-2.93141e-13
-1.4034e-13
-2.48241e-13
-1.33626e-13
-2.05824e-13
-1.26453e-13
-1.66e-13
-1.19038e-13
-1.28747e-13
-1.1152e-13
-9.40815e-14
-1.04001e-13
-6.19701e-14
-9.64977e-14
-3.22597e-14
-8.94225e-14
-4.9093e-15
-8.24868e-14
2.02118e-14
-7.58693e-14
4.31798e-14
-6.9602e-14
6.4202e-14
-6.37758e-14
8.34015e-14
-5.82854e-14
1.0091e-13
-5.32249e-14
1.1681e-13
-4.84599e-14
1.31262e-13
-4.41151e-14
1.44379e-13
-4.00334e-14
1.56218e-13
-3.62596e-14
1.66931e-13
-3.27369e-14
1.76509e-13
-2.93944e-14
1.8506e-13
-2.62411e-14
1.92587e-13
-2.31556e-14
1.99144e-13
-2.01933e-14
2.04677e-13
-1.71635e-14
2.09327e-13
-1.4384e-14
2.12927e-13
-1.13602e-14
2.1554e-13
-8.37814e-15
2.17138e-13
-5.32381e-15
2.1769e-13
-2.31546e-15
2.17225e-13
7.27773e-16
2.15689e-13
3.81249e-15
2.13104e-13
6.9031e-15
2.09478e-13
9.9642e-15
2.04813e-13
1.29503e-14
1.99139e-13
1.57792e-14
1.92565e-13
1.83887e-14
1.85179e-13
2.07232e-14
1.77076e-13
2.26623e-14
1.68367e-13
2.41788e-14
1.59106e-13
2.52575e-14
1.49461e-13
2.55799e-14
1.39206e-13
2.5215e-14
1.27651e-13
2.40391e-14
1.12372e-13
2.25002e-14
8.6706e-14
2.27359e-14
3.4045e-14
3.32173e-14
2.31653e-14
1.5333e-13
1.05696e-16
1.63067e-13
2.91336e-21
-7.24442e-20
2.76521e-21
-2.16618e-23
2.75937e-21
5.84196e-24
2.73911e-21
3.31389e-23
2.71812e-21
6.00223e-23
2.69418e-21
8.60268e-23
2.66595e-21
1.10997e-22
2.63219e-21
1.34675e-22
2.5928e-21
1.56802e-22
2.54715e-21
1.77223e-22
2.49591e-21
1.95938e-22
2.43905e-21
2.12689e-22
2.37696e-21
2.27526e-22
2.30995e-21
2.40503e-22
2.23887e-21
2.51566e-22
2.16401e-21
2.60976e-22
2.08568e-21
2.68575e-22
2.00447e-21
2.74676e-22
1.92092e-21
2.79225e-22
1.83557e-21
2.82482e-22
1.74856e-21
2.8455e-22
1.66041e-21
2.85532e-22
1.57128e-21
2.85532e-22
1.48169e-21
2.84757e-22
1.39173e-21
2.83154e-22
1.30172e-21
2.81035e-22
1.21161e-21
2.78295e-22
1.12181e-21
2.75193e-22
1.03232e-21
2.71884e-22
9.43451e-22
2.6842e-22
8.54995e-22
2.64853e-22
7.67055e-22
2.61182e-22
6.79787e-22
2.57563e-22
5.93037e-22
2.541e-22
5.067e-22
2.50739e-22
4.21035e-22
2.47792e-22
3.35784e-22
2.45207e-22
2.50894e-22
2.42933e-22
1.66263e-22
2.41071e-22
8.17875e-23
2.39676e-22
2.38952e-22
-1.21201e-13
4.62334e-13
-2.40053e-13
4.55944e-13
-3.55401e-13
4.43227e-13
-4.65743e-13
4.24452e-13
-5.69549e-13
4.00017e-13
-6.65519e-13
3.70584e-13
-7.52445e-13
3.36736e-13
-8.29352e-13
2.9927e-13
-8.9551e-13
2.58976e-13
-9.50398e-13
2.16662e-13
-9.93736e-13
1.73201e-13
-1.02541e-12
1.29282e-13
-1.04548e-12
8.55617e-14
-1.05415e-12
4.24009e-14
-1.05349e-12
4.91557e-15
-1.04493e-12
-2.74297e-14
-1.02388e-12
-6.70985e-14
-9.94884e-13
-1.0162e-13
-9.60095e-13
-1.27302e-13
-9.21987e-13
-1.44751e-13
-8.73202e-13
-1.70411e-13
-8.2391e-13
-1.88585e-13
-7.70991e-13
-1.98807e-13
-7.16085e-13
-2.07272e-13
-6.59466e-13
-2.14936e-13
-6.029e-13
-2.16618e-13
-5.4651e-13
-2.16705e-13
-4.91021e-13
-2.14297e-13
-4.36876e-13
-2.09987e-13
-3.84553e-13
-2.03913e-13
-3.34313e-13
-1.96537e-13
-2.86434e-13
-1.88094e-13
-2.41116e-13
-1.78834e-13
-1.98432e-13
-1.69038e-13
-1.5847e-13
-1.58916e-13
-1.21232e-13
-1.48685e-13
-8.6703e-14
-1.38472e-13
-5.47588e-14
-1.28397e-13
-2.53388e-14
-1.1881e-13
1.678e-15
-1.09482e-13
2.6462e-14
-1.00647e-13
4.90884e-14
-9.22369e-14
6.97033e-14
-8.44118e-14
8.85104e-14
-7.71268e-14
1.05612e-13
-7.03752e-14
1.21177e-13
-6.40854e-14
1.35325e-13
-5.83393e-14
1.48148e-13
-5.29435e-14
1.59754e-13
-4.79684e-14
1.70238e-13
-4.33382e-14
1.79668e-13
-3.8952e-14
1.88066e-13
-3.47787e-14
1.95541e-13
-3.07806e-14
2.02052e-13
-2.68688e-14
2.07619e-13
-2.29048e-14
2.12239e-13
-1.91916e-14
2.15856e-13
-1.51779e-14
2.18519e-13
-1.12522e-14
2.2017e-13
-7.19599e-15
2.20786e-13
-3.16377e-15
2.20314e-13
9.56339e-16
2.18791e-13
5.08114e-15
2.16153e-13
9.27896e-15
2.1241e-13
1.34334e-14
2.07598e-13
1.74833e-14
2.01743e-13
2.1342e-14
1.94918e-13
2.4917e-14
1.87179e-13
2.8157e-14
1.78608e-13
3.09193e-14
1.69339e-13
3.31294e-14
1.59481e-13
3.47891e-14
1.49056e-13
3.56734e-14
1.38026e-13
3.59115e-14
1.26003e-13
3.57223e-14
1.12278e-13
3.58821e-14
9.66627e-14
3.80065e-14
8.45127e-14
4.50186e-14
1.93814e-14
2.18109e-13
1.04275e-16
1.82066e-13
2.91336e-21
-9.59575e-20
2.79277e-21
-2.86411e-23
2.78662e-21
8.6337e-24
2.76594e-21
4.57017e-23
2.74407e-21
8.2046e-23
2.71915e-21
1.17253e-22
2.68963e-21
1.50909e-22
2.65442e-21
1.82755e-22
2.61322e-21
2.12482e-22
2.56586e-21
2.39779e-22
2.51272e-21
2.64698e-22
2.45388e-21
2.87032e-22
2.38988e-21
3.06781e-22
2.32107e-21
3.23945e-22
2.24828e-21
3.38575e-22
2.17166e-21
3.50828e-22
2.09168e-21
3.60806e-22
2.00902e-21
3.68612e-22
1.92423e-21
3.74454e-22
1.83763e-21
3.78487e-22
1.74954e-21
3.80865e-22
1.66041e-21
3.81847e-22
1.57045e-21
3.81589e-22
1.48003e-21
3.80193e-22
1.38966e-21
3.77815e-22
1.29904e-21
3.74609e-22
1.20851e-21
3.70784e-22
1.11845e-21
3.66544e-22
1.02886e-21
3.6184e-22
9.39832e-22
3.56928e-22
8.51272e-22
3.51862e-22
7.63539e-22
3.46899e-22
6.7622e-22
3.41884e-22
5.89676e-22
3.37024e-22
5.03753e-22
3.32578e-22
4.1845e-22
3.28546e-22
3.33509e-22
3.24824e-22
2.48981e-22
3.21722e-22
1.64867e-22
3.1924e-22
8.09603e-23
3.17431e-22
3.16242e-22
-1.27459e-13
5.90015e-13
-2.52721e-13
5.81598e-13
-3.74234e-13
5.65077e-13
-4.90195e-13
5.40747e-13
-5.99092e-13
5.09245e-13
-6.99429e-13
4.71251e-13
-7.90002e-13
4.27631e-13
-8.69712e-13
3.79302e-13
-9.37847e-13
3.27429e-13
-9.93863e-13
2.72988e-13
-1.03745e-12
2.17098e-13
-1.0686e-12
1.60734e-13
-1.08723e-12
1.04497e-13
-1.09403e-12
4.94906e-14
-1.09195e-12
3.11442e-15
-1.07971e-12
-3.93813e-14
-1.05484e-12
-9.16992e-14
-1.02254e-12
-1.33652e-13
-9.84648e-13
-1.6493e-13
-9.4259e-13
-1.86557e-13
-8.89001e-13
-2.23757e-13
-8.36425e-13
-2.40926e-13
-7.80091e-13
-2.54915e-13
-7.21537e-13
-2.65613e-13
-6.62209e-13
-2.74061e-13
-6.02915e-13
-2.7572e-13
-5.44206e-13
-2.75231e-13
-4.86666e-13
-2.71666e-13
-4.30871e-13
-2.65621e-13
-3.77168e-13
-2.57468e-13
-3.25841e-13
-2.4773e-13
-2.77202e-13
-2.3661e-13
-2.31331e-13
-2.24595e-13
-1.88325e-13
-2.11946e-13
-1.48241e-13
-1.98916e-13
-1.11037e-13
-1.85817e-13
-7.67058e-14
-1.72744e-13
-4.50273e-14
-1.60028e-13
-1.59762e-14
-1.4783e-13
1.05563e-14
-1.35996e-13
3.48059e-14
-1.24892e-13
5.68956e-14
-1.14333e-13
7.699e-14
-1.04526e-13
9.52811e-14
-9.54512e-14
1.11894e-13
-8.70369e-14
1.26998e-13
-7.92494e-14
1.40666e-13
-7.20816e-14
1.53124e-13
-6.54908e-14
1.64404e-13
-5.93474e-14
1.74617e-13
-5.36626e-14
1.83852e-13
-4.8313e-14
1.92108e-13
-4.3173e-14
1.99491e-13
-3.83138e-14
2.05927e-13
-3.34665e-14
2.11494e-13
-2.86483e-14
2.16134e-13
-2.40183e-14
2.19837e-13
-1.90788e-14
2.22556e-13
-1.41818e-14
2.24285e-13
-9.14489e-15
2.24927e-13
-4.03734e-15
2.24477e-13
1.16531e-15
2.22939e-13
6.36832e-15
2.20241e-13
1.17155e-14
2.16429e-13
1.69764e-14
2.11433e-13
2.22007e-14
2.05298e-13
2.71882e-14
1.98099e-13
3.18185e-14
1.89927e-13
3.60262e-14
1.80861e-13
3.96761e-14
1.70917e-13
4.27534e-14
1.60379e-13
4.50043e-14
1.49282e-13
4.64399e-14
1.37855e-13
4.7005e-14
1.26228e-13
4.70101e-14
1.14711e-13
4.70594e-14
1.04275e-13
4.80983e-14
9.29795e-14
5.59678e-14
1.91441e-14
2.91595e-13
1.03575e-16
2.00825e-13
3.01924e-21
-1.21059e-19
2.83004e-21
-3.61892e-23
2.82374e-21
1.14771e-23
2.80238e-21
5.87815e-23
2.77922e-21
1.05104e-22
2.75286e-21
1.49823e-22
2.72137e-21
1.92526e-22
2.6841e-21
2.328e-22
2.64057e-21
2.7023e-22
2.59078e-21
3.04609e-22
2.53505e-21
3.35784e-22
2.47358e-21
3.63701e-22
2.40704e-21
3.88258e-22
2.3357e-21
4.09506e-22
2.26048e-21
4.27704e-22
2.18164e-21
4.42697e-22
2.09954e-21
4.54743e-22
2.01491e-21
4.64152e-22
1.92821e-21
4.71079e-22
1.84001e-21
4.75784e-22
1.75057e-21
4.78317e-22
1.66015e-21
4.79144e-22
1.56906e-21
4.78214e-22
1.47771e-21
4.75991e-22
1.38641e-21
4.72682e-22
1.29526e-21
4.68339e-22
1.20422e-21
4.63118e-22
1.1138e-21
4.57431e-22
1.02395e-21
4.51279e-22
9.34766e-22
4.44713e-22
8.46361e-22
4.38147e-22
7.58473e-22
4.31478e-22
6.71361e-22
4.24912e-22
5.85282e-22
4.1876e-22
4.99721e-22
4.1297e-22
4.14728e-22
4.07593e-22
3.30407e-22
4.02889e-22
2.46552e-22
3.98856e-22
1.63058e-22
3.95651e-22
7.98229e-23
3.93324e-22
3.91929e-22
-1.35778e-13
7.26012e-13
-2.69202e-13
7.15407e-13
-3.98486e-13
6.94695e-13
-5.21723e-13
6.64313e-13
-6.37117e-13
6.24961e-13
-7.43074e-13
5.77533e-13
-8.38231e-13
5.23108e-13
-9.21589e-13
4.62978e-13
-9.92227e-13
3.98381e-13
-1.04961e-12
3.30684e-13
-1.09346e-12
2.61242e-13
-1.12381e-12
1.91388e-13
-1.14029e-12
1.21274e-13
-1.1452e-12
5.46807e-14
-1.14208e-12
2.86418e-16
-1.12267e-12
-5.85216e-14
-1.09365e-12
-1.20452e-13
-1.05736e-12
-1.69679e-13
-1.01641e-12
-2.0562e-13
-9.66032e-13
-2.36689e-13
-9.09267e-13
-2.80282e-13
-8.5162e-13
-2.9834e-13
-7.90998e-13
-3.15316e-13
-7.2783e-13
-3.28567e-13
-6.65094e-13
-3.36594e-13
-6.02332e-13
-3.38288e-13
-5.40691e-13
-3.36691e-13
-4.80666e-13
-3.31522e-13
-4.22798e-13
-3.23334e-13
-3.67378e-13
-3.12743e-13
-3.14785e-13
-3.00187e-13
-2.65163e-13
-2.86111e-13
-2.18659e-13
-2.7099e-13
-1.7533e-13
-2.55178e-13
-1.35123e-13
-2.39038e-13
-9.80459e-14
-2.22823e-13
-6.40354e-14
-2.06695e-13
-3.27294e-14
-1.91289e-13
-4.23464e-15
-1.76293e-13
2.17255e-14
-1.61935e-13
4.52884e-14
-1.4845e-13
6.6747e-14
-1.358e-13
8.61345e-14
-1.23937e-13
1.03717e-13
-1.13069e-13
1.19655e-13
-1.03022e-13
1.34148e-13
-9.38035e-14
1.47266e-13
-8.5272e-14
1.59188e-13
-7.75001e-14
1.70082e-13
-7.03388e-14
1.79963e-13
-6.36552e-14
1.88912e-13
-5.73883e-14
1.97026e-13
-5.14234e-14
2.04294e-13
-4.57316e-14
2.10662e-13
-3.99963e-14
2.16262e-13
-3.44194e-14
2.20971e-13
-2.89117e-14
2.24725e-13
-2.30283e-14
2.27564e-13
-1.72318e-14
2.29424e-13
-1.1224e-14
2.30187e-13
-5.03079e-15
2.29781e-13
1.33164e-15
2.28271e-13
7.62952e-15
2.25577e-13
1.41507e-14
2.21569e-13
2.07152e-14
2.16384e-13
2.71086e-14
2.0993e-13
3.33543e-14
2.02349e-13
3.91047e-14
1.93651e-13
4.44203e-14
1.83887e-13
4.91317e-14
1.73252e-13
5.30716e-14
1.61816e-13
5.61181e-14
1.4988e-13
5.805e-14
1.37821e-13
5.87305e-14
1.2627e-13
5.82245e-14
1.16267e-13
5.67223e-14
1.08715e-13
5.53054e-14
8.78117e-14
7.65267e-14
7.76823e-15
3.7129e-13
1.03729e-16
2.08213e-13
3.07217e-21
-1.47113e-19
2.87771e-21
-4.39957e-23
2.87099e-21
1.48893e-23
2.8486e-21
7.2947e-23
2.82399e-21
1.29661e-22
2.79551e-21
1.84358e-22
2.76165e-21
2.3647e-22
2.72153e-21
2.85274e-22
2.675e-21
3.30769e-22
2.62196e-21
3.72386e-22
2.56297e-21
4.09971e-22
2.49814e-21
4.43421e-22
2.42829e-21
4.72837e-22
2.35395e-21
4.9817e-22
2.27547e-21
5.19521e-22
2.19363e-21
5.37099e-22
2.1089e-21
5.51057e-22
2.02184e-21
5.61759e-22
1.93297e-21
5.69514e-22
1.8426e-21
5.74477e-22
1.75135e-21
5.76959e-22
1.65922e-21
5.77165e-22
1.56684e-21
5.75666e-22
1.47445e-21
5.72409e-22
1.38201e-21
5.67756e-22
1.29004e-21
5.61914e-22
1.19858e-21
5.55193e-22
1.10765e-21
5.47697e-22
1.01738e-21
5.39787e-22
9.28148e-22
5.31567e-22
8.39692e-22
5.23037e-22
7.51959e-22
5.14661e-22
6.65208e-22
5.06596e-22
5.7944e-22
4.9879e-22
4.94344e-22
4.91449e-22
4.10023e-22
4.84831e-22
3.26426e-22
4.78989e-22
2.43346e-22
4.74026e-22
1.60732e-22
4.70097e-22
7.83754e-23
4.67254e-22
4.65496e-22
-1.46217e-13
8.72444e-13
-2.89835e-13
8.59406e-13
-4.28856e-13
8.34049e-13
-5.6108e-13
7.96862e-13
-6.84514e-13
7.48718e-13
-7.97457e-13
6.90795e-13
-8.98387e-13
6.24352e-13
-9.86124e-13
5.51025e-13
-1.05978e-12
4.72345e-13
-1.11874e-12
3.89946e-13
-1.1628e-12
3.05599e-13
-1.19202e-12
2.20897e-13
-1.20555e-12
1.35097e-13
-1.20953e-12
5.89412e-14
-1.20287e-12
-6.09714e-15
-1.17552e-12
-8.56005e-14
-1.14125e-12
-1.54453e-13
-1.09948e-12
-2.11198e-13
-1.0561e-12
-2.48749e-13
-9.92476e-13
-3.00066e-13
-9.33599e-13
-3.38923e-13
-8.6949e-13
-3.62224e-13
-8.03367e-13
-3.81223e-13
-7.3465e-13
-3.97075e-13
-6.6761e-13
-4.03434e-13
-6.00791e-13
-4.04917e-13
-5.3561e-13
-4.01693e-13
-4.72589e-13
-3.94374e-13
-4.12198e-13
-3.83569e-13
-3.54861e-13
-3.69938e-13
-3.00762e-13
-3.54153e-13
-2.5009e-13
-3.36662e-13
-2.02871e-13
-3.18103e-13
-1.59198e-13
-2.98755e-13
-1.18955e-13
-2.79199e-13
-8.20679e-14
-2.59638e-13
-4.84282e-14
-2.40274e-13
-1.77535e-14
-2.21918e-13
1.00945e-14
-2.04109e-13
3.52554e-14
-1.87077e-13
5.79853e-14
-1.71173e-13
7.85523e-14
-1.56373e-13
9.70861e-14
-1.4249e-13
1.13761e-13
-1.29777e-13
1.28892e-13
-1.18199e-13
1.42596e-13
-1.07567e-13
1.55088e-13
-9.78339e-14
1.66401e-13
-8.89003e-14
1.76766e-13
-8.08016e-14
1.86238e-13
-7.32358e-14
1.94893e-13
-6.61662e-14
2.02758e-13
-5.94229e-14
2.09889e-13
-5.30102e-14
2.16195e-13
-4.64621e-14
2.21885e-13
-4.02806e-14
2.2663e-13
-3.38395e-14
2.3061e-13
-2.72033e-14
2.33595e-13
-2.04197e-14
2.35609e-13
-1.34542e-14
2.36501e-13
-6.14987e-15
2.36292e-13
1.30172e-15
2.34822e-13
8.85055e-15
2.32028e-13
1.66873e-14
2.27981e-13
2.44942e-14
2.22513e-13
3.23003e-14
2.15757e-13
3.98266e-14
2.07706e-13
4.68603e-14
1.98381e-13
5.34441e-14
1.87859e-13
5.93455e-14
1.76237e-13
6.43794e-14
1.63732e-13
6.83004e-14
1.50608e-13
7.08486e-14
1.3727e-13
7.17378e-14
1.24805e-13
7.03545e-14
1.14719e-13
6.64712e-14
1.08789e-13
6.08951e-14
9.64665e-15
1.75325e-13
5.56453e-15
3.75027e-13
1.02564e-16
2.13402e-13
3.07219e-21
-1.69567e-19
2.93665e-21
-5.08199e-23
2.9291e-21
1.92836e-23
2.90532e-21
8.85083e-23
2.87869e-21
1.5613e-22
2.84762e-21
2.21271e-22
2.8105e-21
2.83103e-22
2.76702e-21
3.41212e-22
2.71656e-21
3.94875e-22
2.65959e-21
4.43886e-22
2.59637e-21
4.87933e-22
2.5275e-21
5.26966e-22
2.45368e-21
5.61087e-22
2.3753e-21
5.90297e-22
2.29305e-21
6.1475e-22
2.20764e-21
6.34603e-22
2.1196e-21
6.50267e-22
2.02959e-21
6.62003e-22
1.93788e-21
6.70068e-22
1.84508e-21
6.75135e-22
1.75156e-21
6.77151e-22
1.65767e-21
6.76582e-22
1.56363e-21
6.73842e-22
1.4698e-21
6.69241e-22
1.37612e-21
6.62985e-22
1.28327e-21
6.55541e-22
1.19114e-21
6.46907e-22
1.09974e-21
6.3755e-22
1.00916e-21
6.2752e-22
9.19722e-22
6.1718e-22
8.31265e-22
6.06789e-22
7.43894e-22
5.96501e-22
6.57402e-22
5.86471e-22
5.72047e-22
5.76959e-22
4.87726e-22
5.68066e-22
4.04181e-22
5.5995e-22
3.21411e-22
5.52867e-22
2.39417e-22
5.46973e-22
1.57888e-22
5.42269e-22
7.66176e-23
5.38857e-22
5.36995e-22
-1.59031e-13
1.03169e-12
-3.1514e-13
1.01589e-12
-4.66017e-13
9.85252e-13
-6.09202e-13
9.40367e-13
-7.42442e-13
8.82274e-13
-8.63816e-13
8.12485e-13
-9.71713e-13
7.32559e-13
-1.06473e-12
6.44345e-13
-1.14191e-12
5.49832e-13
-1.20266e-12
4.50988e-13
-1.24706e-12
3.50299e-13
-1.2737e-12
2.47821e-13
-1.28521e-12
1.46882e-13
-1.28956e-12
6.35679e-14
-1.2718e-12
-2.35875e-14
-1.23925e-12
-1.17893e-13
-1.19817e-12
-1.95273e-13
-1.15165e-12
-2.57467e-13
-1.09842e-12
-3.01728e-13
-1.02556e-12
-3.72694e-13
-9.61205e-13
-4.03045e-13
-8.8971e-13
-4.33494e-13
-8.16212e-13
-4.54504e-13
-7.42035e-13
-4.71047e-13
-6.69276e-13
-4.75997e-13
-5.97682e-13
-4.76324e-13
-5.28326e-13
-4.70873e-13
-4.61851e-13
-4.60687e-13
-3.98669e-13
-4.46598e-13
-3.39071e-13
-4.29396e-13
-2.83328e-13
-4.09764e-13
-2.31482e-13
-3.8839e-13
-1.83631e-13
-3.65848e-13
-1.39615e-13
-3.42677e-13
-9.94181e-14
-3.19315e-13
-6.29608e-14
-2.96025e-13
-2.9795e-14
-2.73383e-13
9.59885e-17
-2.51764e-13
2.70002e-14
-2.3098e-13
5.12139e-14
-2.11271e-13
7.28247e-14
-1.92778e-13
9.22587e-14
-1.75814e-13
1.09769e-13
-1.6002e-13
1.25459e-13
-1.45498e-13
1.39512e-13
-1.32295e-13
1.523e-13
-1.20415e-13
1.63973e-13
-1.09576e-13
1.74612e-13
-9.96204e-14
1.84285e-13
-9.05714e-14
1.93291e-13
-8.23481e-14
2.01588e-13
-7.45845e-14
2.09283e-13
-6.7253e-14
2.16207e-13
-6.00799e-14
2.22573e-13
-5.29853e-14
2.28316e-13
-4.61899e-14
2.33168e-13
-3.88721e-14
2.37326e-13
-3.1555e-14
2.40598e-13
-2.38969e-14
2.42857e-13
-1.59277e-14
2.43982e-13
-7.50218e-15
2.4398e-13
1.068e-15
2.42638e-13
9.94547e-15
2.39876e-13
1.91945e-14
2.35654e-13
2.84513e-14
2.29988e-13
3.76916e-14
2.22906e-13
4.66246e-14
2.14294e-13
5.51841e-14
2.04256e-13
6.31834e-14
1.92853e-13
7.04432e-14
1.80176e-13
7.67457e-14
1.66307e-13
8.18518e-14
1.51447e-13
8.53861e-14
1.35935e-13
8.69198e-14
1.20767e-13
8.51918e-14
1.0955e-13
7.73517e-14
1.15067e-13
5.504e-14
-2.06742e-14
3.10725e-13
7.23835e-15
3.46772e-13
1.01923e-16
2.20264e-13
3.17807e-21
-1.94033e-19
3.0067e-21
-5.83162e-23
2.99837e-21
2.41433e-23
2.97289e-21
1.05569e-22
2.94383e-21
1.84875e-22
2.90945e-21
2.61182e-22
2.86861e-21
3.33457e-22
2.82074e-21
4.00924e-22
2.76558e-21
4.63273e-22
2.70364e-21
5.19831e-22
2.63545e-21
5.70548e-22
2.56162e-21
6.15267e-22
2.48289e-21
6.54041e-22
2.3997e-21
6.86767e-22
2.31295e-21
7.13909e-22
2.22331e-21
7.35881e-22
2.13133e-21
7.52786e-22
2.03766e-21
7.65194e-22
1.94289e-21
7.73414e-22
1.84709e-21
7.77808e-22
1.75104e-21
7.78946e-22
1.65493e-21
7.77188e-22
1.55898e-21
7.72949e-22
1.46349e-21
7.66538e-22
1.36867e-21
7.5837e-22
1.27469e-21
7.48754e-22
1.18173e-21
7.38e-22
1.08971e-21
7.26316e-22
9.98821e-22
7.14115e-22
9.0933e-22
7.01656e-22
8.20977e-22
6.8899e-22
7.33761e-22
6.7653e-22
6.47941e-22
6.64485e-22
5.63155e-22
6.53007e-22
4.7961e-22
6.42461e-22
3.9715e-22
6.32897e-22
3.15518e-22
6.2447e-22
2.34661e-22
6.17542e-22
1.54528e-22
6.12114e-22
7.47565e-23
6.08185e-22
6.0591e-22
-1.7449e-13
1.20639e-12
-3.45693e-13
1.18746e-12
-5.10865e-13
1.15075e-12
-6.67231e-13
1.09705e-12
-8.12279e-13
1.02763e-12
-9.43733e-13
9.44249e-13
-1.05979e-12
8.48927e-13
-1.15903e-12
7.43887e-13
-1.24028e-12
6.31375e-13
-1.30315e-12
5.14152e-13
-1.34751e-12
3.94947e-13
-1.37025e-12
2.70839e-13
-1.3836e-12
1.60508e-13
-1.38167e-12
6.19047e-14
-1.35141e-12
-5.35921e-14
-1.31428e-12
-1.54765e-13
-1.26586e-12
-2.43446e-13
-1.21449e-12
-3.08589e-13
-1.13873e-12
-3.77251e-13
-1.068e-12
-4.43195e-13
-9.91068e-13
-4.7975e-13
-9.11762e-13
-5.12582e-13
-8.29199e-13
-5.36855e-13
-7.49073e-13
-5.50972e-13
-6.69487e-13
-5.55391e-13
-5.92341e-13
-5.53287e-13
-5.18272e-13
-5.44772e-13
-4.47852e-13
-5.30945e-13
-3.8149e-13
-5.12808e-13
-3.19492e-13
-4.91257e-13
-2.61965e-13
-4.67162e-13
-2.08993e-13
-4.41244e-13
-1.60465e-13
-4.14271e-13
-1.16315e-13
-3.86733e-13
-7.63701e-14
-3.59181e-13
-4.0395e-14
-3.31933e-13
-7.90854e-15
-3.05811e-13
2.08705e-14
-2.80499e-13
4.6617e-14
-2.56693e-13
6.95907e-14
-2.34224e-13
8.99871e-14
-2.13168e-13
1.08008e-13
-1.93839e-13
1.24157e-13
-1.76186e-13
1.38651e-13
-1.60022e-13
1.51588e-13
-1.45276e-13
1.6321e-13
-1.32091e-13
1.73834e-13
-1.2027e-13
1.83664e-13
-1.09529e-13
1.92682e-13
-9.96823e-14
2.01034e-13
-9.08062e-14
2.08941e-13
-8.26091e-14
2.16312e-13
-7.4753e-14
2.23097e-13
-6.70059e-14
2.29635e-13
-5.96793e-14
2.35393e-13
-5.21148e-14
2.4056e-13
-4.42177e-14
2.45002e-13
-3.61859e-14
2.48637e-13
-2.77331e-14
2.51219e-13
-1.87216e-14
2.52775e-13
-9.27951e-15
2.5299e-13
6.20449e-16
2.51723e-13
1.09708e-14
2.49108e-13
2.15582e-14
2.44832e-13
3.24644e-14
2.38977e-13
4.32741e-14
2.31466e-13
5.38553e-14
2.22305e-13
6.40581e-14
2.11516e-13
7.3677e-14
1.99131e-13
8.25246e-14
1.85271e-13
9.02973e-14
1.69893e-13
9.69166e-14
1.52953e-13
1.0201e-13
1.34277e-13
1.05269e-13
1.1306e-13
1.0608e-13
8.72903e-14
1.02789e-13
5.04491e-14
9.15462e-14
8.09058e-15
3.52746e-13
7.80213e-15
3.46725e-13
1.00533e-16
2.27696e-13
3.23095e-21
-2.16698e-19
3.08921e-21
-6.55024e-23
3.07975e-21
3.04506e-23
3.0523e-21
1.24749e-22
3.02004e-21
2.16618e-22
2.98173e-21
3.04764e-22
2.93613e-21
3.88051e-22
2.88303e-21
4.65651e-22
2.82213e-21
5.36892e-22
2.75441e-21
6.01412e-22
2.68012e-21
6.58798e-22
2.6004e-21
7.08997e-22
2.51561e-21
7.52062e-22
2.42684e-21
7.88303e-22
2.33492e-21
8.17927e-22
2.24021e-21
8.41346e-22
2.14374e-21
8.59131e-22
2.04593e-21
8.7159e-22
1.94729e-21
8.79396e-22
1.84828e-21
8.82964e-22
1.74933e-21
8.82757e-22
1.65069e-21
8.79345e-22
1.55251e-21
8.73141e-22
1.45537e-21
8.64507e-22
1.35906e-21
8.54116e-22
1.26393e-21
8.4207e-22
1.17005e-21
8.28732e-22
1.07751e-21
8.14566e-22
9.8631e-22
7.9978e-22
8.96664e-22
7.84633e-22
8.08466e-22
7.69537e-22
7.21767e-22
7.54751e-22
6.36464e-22
7.40534e-22
5.5266e-22
7.2704e-22
4.70045e-22
7.14581e-22
3.88672e-22
7.03414e-22
3.0859e-22
6.93643e-22
2.29232e-22
6.85474e-22
1.50599e-22
6.79167e-22
7.24817e-23
6.74824e-22
6.7255e-22
-1.93047e-13
1.39964e-12
-3.82254e-13
1.37704e-12
-5.64542e-13
1.33335e-12
-7.36636e-13
1.26945e-12
-8.95621e-13
1.18693e-12
-1.03898e-12
1.08791e-12
-1.16479e-12
9.75039e-13
-1.27116e-12
8.50555e-13
-1.35691e-12
7.17422e-13
-1.4227e-12
5.80229e-13
-1.46285e-12
4.35381e-13
-1.48882e-12
2.97075e-13
-1.50297e-12
1.74929e-13
-1.48068e-12
3.98768e-14
-1.44753e-12
-8.64906e-14
-1.39952e-12
-2.02523e-13
-1.35071e-12
-2.92016e-13
-1.2759e-12
-3.83167e-13
-1.19117e-12
-4.61746e-13
-1.11294e-12
-5.21205e-13
-1.02448e-12
-5.67994e-13
-9.34054e-13
-6.02793e-13
-8.42861e-13
-6.27843e-13
-7.54365e-13
-6.39272e-13
-6.67425e-13
-6.42142e-13
-5.83949e-13
-6.36584e-13
-5.04538e-13
-6.24016e-13
-4.29776e-13
-6.05548e-13
-3.59997e-13
-5.8244e-13
-2.95412e-13
-5.55702e-13
-2.36098e-13
-5.26353e-13
-1.81969e-13
-4.95259e-13
-1.32951e-13
-4.63189e-13
-8.88059e-14
-4.30785e-13
-4.93716e-14
-3.98535e-13
-1.40269e-14
-3.67211e-13
1.73017e-14
-3.37084e-13
4.49463e-14
-3.08101e-13
6.91201e-14
-2.80832e-13
9.04576e-14
-2.55542e-13
1.09302e-13
-2.32005e-13
1.25811e-13
-2.10352e-13
1.40258e-13
-1.90649e-13
1.53192e-13
-1.72984e-13
1.6481e-13
-1.56935e-13
1.75202e-13
-1.42538e-13
1.84696e-13
-1.2983e-13
1.93403e-13
-1.18317e-13
2.01637e-13
-1.08008e-13
2.09411e-13
-9.86831e-14
2.16777e-13
-9.00902e-14
2.23762e-13
-8.18676e-14
2.3067e-13
-7.4054e-14
2.37171e-13
-6.63324e-14
2.4305e-13
-5.81554e-14
2.48648e-13
-4.99912e-14
2.53531e-13
-4.12536e-14
2.57655e-13
-3.20553e-14
2.60723e-13
-2.19951e-14
2.62678e-13
-1.14552e-14
2.63293e-13
-2.25475e-16
2.62385e-13
1.16409e-14
2.59881e-13
2.38114e-14
2.55669e-13
3.64177e-14
2.49607e-13
4.9068e-14
2.41691e-13
6.14958e-14
2.31909e-13
7.35563e-14
2.20325e-13
8.49683e-14
2.06947e-13
9.5604e-14
1.91812e-13
1.05124e-13
1.74968e-13
1.1345e-13
1.56234e-13
1.20431e-13
1.34993e-13
1.2619e-13
1.09566e-13
1.31184e-13
7.50095e-14
1.37019e-13
1.40862e-14
1.52142e-13
1.45581e-14
3.51941e-13
7.02551e-15
3.53926e-13
9.82538e-17
2.34358e-13
3.33684e-21
-2.36715e-19
3.18511e-21
-7.20681e-23
3.17405e-21
3.79986e-23
3.14417e-21
1.46463e-22
3.10818e-21
2.5198e-22
3.06507e-21
3.52948e-22
3.01368e-21
4.48073e-22
2.95428e-21
5.36427e-22
2.88665e-21
6.16922e-22
2.81179e-21
6.89507e-22
2.73037e-21
7.53613e-22
2.64346e-21
8.09345e-22
2.55185e-21
8.56597e-22
2.45647e-21
8.95785e-22
2.35829e-21
9.27425e-22
2.25794e-21
9.51982e-22
2.15625e-21
9.69869e-22
2.05368e-21
9.81915e-22
1.9508e-21
9.88688e-22
1.84808e-21
9.90807e-22
1.74587e-21
9.88739e-22
1.64444e-21
9.83156e-22
1.54398e-21
9.74471e-22
1.44493e-21
9.63304e-22
1.34706e-21
9.50017e-22
1.25059e-21
9.34973e-22
1.15593e-21
9.18791e-22
1.06272e-21
9.0173e-22
9.71265e-22
8.84101e-22
8.81568e-22
8.66213e-22
7.93732e-22
8.48481e-22
7.0755e-22
8.31006e-22
6.2297e-22
8.14463e-22
5.40201e-22
7.98901e-22
4.58827e-22
7.84426e-22
3.789e-22
7.71553e-22
3.00422e-22
7.60489e-22
2.22977e-22
7.51339e-22
1.46204e-22
7.44256e-22
7.01553e-23
7.39396e-22
7.36863e-22
-2.15088e-13
1.61494e-12