0 	-14.5065
0.010101 	-9.5265
0.020202 	-9.60016
0.030303 	-9.60393
0.040404 	-9.60415
0.0505051 	-9.60417
0.0606061 	-9.60417
0.0707071 	-9.60417
0.0808081 	-9.60417
0.0909091 	-9.60417
