/*--------------------------------*- C++ -*----------------------------------*\
  =========                 |
  \\      /  F ield         | OpenFOAM: The Open Source CFD Toolbox
   \\    /   O peration     | Website:  https://openfoam.org
    \\  /    A nd           | Version:  6
     \\/     M anipulation  |
\*---------------------------------------------------------------------------*/
FoamFile
{
    version     2.0;
    format      ascii;
    class       volScalarField;
    location    "4900";
    object      T;
}
// * * * * * * * * * * * * * * * * * * * * * * * * * * * * * * * * * * * * * //

dimensions      [0 0 0 1 0 0 0];

internalField   nonuniform List<scalar> 
4800
(
552.511
552.432
552.354
552.277
552.201
552.126
552.051
551.978
551.905
551.832
551.759
551.687
551.616
551.545
551.475
551.406
551.338
551.271
551.206
551.142
551.079
551.018
550.959
550.901
550.845
550.79
550.737
550.685
550.635
550.587
550.541
550.497
550.455
550.417
550.381
550.348
550.317
550.288
550.261
550.235
550.21
550.186
550.162
550.138
550.114
550.09
550.065
550.041
550.016
549.99
549.964
549.938
549.911
549.884
549.856
549.829
549.801
549.774
549.746
549.719
549.693
549.666
549.64
549.614
549.589
549.563
549.538
549.512
549.486
549.459
549.431
549.399
549.364
549.323
549.272
549.207
549.123
549.011
548.861
548.664
548.407
548.081
547.683
547.22
546.705
546.157
545.591
545.018
544.881
544.736
544.587
544.435
544.283
544.132
543.982
543.834
543.688
543.544
543.401
543.26
543.121
542.983
542.846
542.71
542.575
542.441
542.308
542.175
542.043
541.912
541.781
541.65
541.52
541.39
541.26
541.131
541.002
540.873
540.744
540.614
552.51
552.43
552.35
552.271
552.194
552.117
552.041
551.967
551.893
551.819
551.746
551.674
551.602
551.531
551.461
551.392
551.324
551.257
551.192
551.128
551.066
551.006
550.947
550.889
550.833
550.779
550.727
550.675
550.626
550.579
550.533
550.49
550.45
550.411
550.376
550.343
550.312
550.283
550.256
550.229
550.204
550.179
550.155
550.131
550.107
550.083
550.059
550.035
550.01
549.984
549.958
549.932
549.905
549.877
549.85
549.822
549.794
549.766
549.738
549.711
549.684
549.657
549.63
549.604
549.578
549.552
549.527
549.501
549.474
549.447
549.418
549.387
549.352
549.31
549.259
549.194
549.109
548.996
548.847
548.649
548.394
548.073
547.677
547.211
546.691
546.146
545.591
545.024
544.888
544.742
544.59
544.436
544.283
544.131
543.981
543.833
543.686
543.542
543.4
543.259
543.12
542.982
542.845
542.709
542.574
542.44
542.307
542.175
542.043
541.911
541.78
541.65
541.52
541.39
541.26
541.131
541.002
540.872
540.743
540.614
552.508
552.424
552.341
552.259
552.178
552.099
552.02
551.943
551.868
551.794
551.72
551.647
551.575
551.504
551.434
551.365
551.297
551.231
551.166
551.103
551.041
550.981
550.922
550.866
550.811
550.758
550.706
550.657
550.609
550.563
550.518
550.477
550.437
550.4
550.364
550.331
550.3
550.27
550.242
550.215
550.19
550.165
550.141
550.117
550.093
550.069
550.045
550.021
549.996
549.971
549.945
549.919
549.891
549.864
549.836
549.807
549.779
549.75
549.721
549.693
549.665
549.637
549.61
549.583
549.556
549.53
549.503
549.477
549.45
549.422
549.393
549.361
549.326
549.283
549.232
549.166
549.08
548.967
548.816
548.619
548.366
548.049
547.662
547.21
546.705
546.168
545.614
545.044
544.906
544.753
544.595
544.437
544.282
544.129
543.978
543.83
543.684
543.54
543.398
543.257
543.118
542.98
542.843
542.708
542.573
542.439
542.306
542.174
542.042
541.911
541.78
541.649
541.519
541.389
541.26
541.131
541.001
540.872
540.743
540.614
552.505
552.414
552.326
552.237
552.151
552.067
551.984
551.905
551.828
551.753
551.679
551.606
551.533
551.463
551.393
551.325
551.258
551.192
551.128
551.065
551.004
550.945
550.888
550.833
550.779
550.728
550.678
550.63
550.584
550.539
550.496
550.455
550.417
550.379
550.344
550.31
550.278
550.248
550.22
550.193
550.167
550.142
550.117
550.094
550.07
550.046
550.023
549.998
549.974
549.949
549.923
549.896
549.869
549.841
549.812
549.783
549.753
549.724
549.694
549.664
549.635
549.606
549.578
549.55
549.523
549.495
549.468
549.441
549.413
549.384
549.354
549.322
549.285
549.242
549.189
549.123
549.036
548.922
548.77
548.572
548.317
548.003
547.625
547.187
546.699
546.177
545.642
545.094
544.939
544.769
544.6
544.437
544.279
544.125
543.974
543.826
543.68
543.536
543.394
543.254
543.115
542.977
542.841
542.705
542.571
542.437
542.304
542.172
542.04
541.909
541.779
541.648
541.518
541.389
541.259
541.13
541.001
540.872
540.743
540.614
552.5
552.399
552.301
552.204
552.11
552.02
551.932
551.848
551.77
551.694
551.62
551.547
551.476
551.406
551.338
551.271
551.205
551.141
551.078
551.017
550.958
550.9
550.845
550.791
550.74
550.69
550.642
550.595
550.55
550.507
550.465
550.425
550.386
550.349
550.313
550.279
550.247
550.217
550.188
550.161
550.135
550.11
550.085
550.061
550.038
550.014
549.99
549.966
549.942
549.917
549.891
549.864
549.836
549.807
549.778
549.748
549.717
549.687
549.656
549.625
549.594
549.564
549.535
549.506
549.477
549.449
549.421
549.392
549.363
549.333
549.302
549.268
549.231
549.186
549.132
549.063
548.975
548.859
548.707
548.509
548.254
547.94
547.564
547.128
546.646
546.146
545.665
545.25
544.989
544.782
544.601
544.432
544.273
544.118
543.967
543.819
543.674
543.531
543.389
543.249
543.111
542.974
542.837
542.702
542.568
542.435
542.302
542.17
542.039
541.908
541.777
541.647
541.517
541.388
541.258
541.129
541
540.872
540.743
540.614
552.493
552.378
552.266
552.157
552.053
551.955
551.861
551.773
551.692
551.615
551.541
551.469
551.399
551.332
551.265
551.2
551.137
551.075
551.015
550.957
550.9
550.845
550.791
550.74
550.69
550.642
550.596
550.551
550.508
550.466
550.424
550.384
550.346
550.309
550.273
550.238
550.206
550.176
550.147
550.12
550.093
550.068
550.044
550.02
549.996
549.972
549.949
549.924
549.9
549.874
549.848
549.821
549.792
549.763
549.733
549.702
549.671
549.639
549.607
549.574
549.542
549.511
549.481
549.451
549.421
549.392
549.362
549.332
549.302
549.27
549.238
549.202
549.163
549.117
549.059
548.988
548.897
548.778
548.624
548.423
548.168
547.854
547.476
547.038
546.557
546.068
545.618
545.252
544.983
544.771
544.588
544.42
544.261
544.108
543.958
543.811
543.667
543.524
543.383
543.244
543.106
542.969
542.833
542.699
542.565
542.432
542.299
542.168
542.036
541.906
541.775
541.645
541.516
541.387
541.257
541.129
541
540.871
540.743
540.614
552.483
552.35
552.22
552.096
551.98
551.872
551.772
551.678
551.594
551.516
551.442
551.372
551.304
551.239
551.175
551.113
551.053
550.994
550.937
550.883
550.829
550.777
550.726
550.677
550.63
550.584
550.54
550.496
550.454
550.413
550.373
550.334
550.295
550.259
550.223
550.189
550.157
550.127
550.098
550.07
550.044
550.019
549.994
549.97
549.946
549.922
549.898
549.873
549.848
549.822
549.796
549.768
549.739
549.708
549.677
549.645
549.613
549.58
549.547
549.513
549.48
549.448
549.416
549.385
549.354
549.324
549.293
549.262
549.231
549.198
549.164
549.126
549.084
549.035
548.974
548.9
548.806
548.685
548.528
548.326
548.069
547.753
547.372
546.929
546.434
545.926
545.473
545.155
544.922
544.731
544.56
544.4
544.245
544.095
543.947
543.802
543.658
543.517
543.376
543.238
543.1
542.964
542.829
542.694
542.561
542.428
542.296
542.165
542.034
541.903
541.773
541.644
541.514
541.385
541.256
541.128
540.999
540.871
540.742
540.614
552.472
552.318
552.168
552.026
551.895
551.776
551.667
551.568
551.48
551.4
551.326
551.258
551.191
551.129
551.067
551.009
550.953
550.897
550.845
550.795
550.745
550.696
550.649
550.603
550.559
550.515
550.473
550.432
550.391
550.352
550.313
550.274
550.237
550.201
550.166
550.133
550.101
550.071
550.042
550.014
549.988
549.962
549.937
549.913
549.888
549.863
549.839
549.813
549.788
549.761
549.734
549.705
549.675
549.644
549.612
549.579
549.545
549.511
549.477
549.442
549.408
549.375
549.342
549.309
549.278
549.246
549.215
549.182
549.15
549.115
549.08
549.04
548.996
548.944
548.879
548.801
548.703
548.576
548.415
548.21
547.95
547.63
547.244
546.787
546.257
545.687
545.169
544.973
544.821
544.672
544.522
544.374
544.226
544.079
543.934
543.791
543.648
543.508
543.368
543.23
543.094
542.958
542.823
542.689
542.556
542.424
542.292
542.161
542.031
541.9
541.771
541.641
541.512
541.384
541.255
541.127
540.998
540.87
540.742
540.614
552.459
552.281
552.109
551.948
551.8
551.668
551.55
551.444
551.352
551.271
551.198
551.13
551.065
551.005
550.946
550.892
550.84
550.788
550.741
550.695
550.65
550.605
550.562
550.52
550.478
550.438
550.398
550.359
550.321
550.283
550.246
550.209
550.173
550.138
550.104
550.071
550.039
550.009
549.98
549.953
549.926
549.9
549.874
549.849
549.823
549.798
549.772
549.746
549.719
549.692
549.663
549.633
549.602
549.57
549.537
549.503
549.468
549.433
549.398
549.362
549.327
549.292
549.258
549.225
549.192
549.159
549.127
549.093
549.059
549.024
548.986
548.944
548.898
548.843
548.775
548.694
548.592
548.461
548.295
548.085
547.821
547.497
547.107
546.646
546.096
545.418
544.532
544.746
544.717
544.613
544.485
544.347
544.205
544.063
543.92
543.778
543.638
543.498
543.36
543.222
543.086
542.951
542.817
542.683
542.551
542.419
542.288
542.157
542.027
541.897
541.768
541.639
541.51
541.382
541.253
541.125
540.997
540.869
540.742
540.614
552.446
552.24
552.044
551.862
551.697
551.55
551.422
551.311
551.215
551.132
551.06
550.994
550.931
550.873
550.818
550.767
550.719
550.672
550.629
550.588
550.547
550.507
550.468
550.43
550.392
550.355
550.318
550.282
550.245
550.21
550.175
550.14
550.105
550.071
550.038
550.006
549.974
549.944
549.915
549.886
549.859
549.832
549.805
549.779
549.752
549.726
549.699
549.672
549.644
549.615
549.585
549.554
549.521
549.488
549.454
549.418
549.383
549.346
549.31
549.273
549.237
549.201
549.166
549.131
549.097
549.063
549.029
548.995
548.959
548.922
548.883
548.839
548.79
548.732
548.662
548.578
548.473
548.339
548.17
547.956
547.69
547.366
546.976
546.521
546
545.42
544.839
544.766
544.687
544.581
544.457
544.324
544.186
544.046
543.906
543.766
543.626
543.487
543.35
543.213
543.078
542.943
542.81
542.677
542.545
542.414
542.283
542.153
542.023
541.894
541.765
541.636
541.508
541.38
541.252
541.124
540.996
540.869
540.741
540.614
552.431
552.197
551.976
551.771
551.587
551.426
551.288
551.171
551.071
550.988
550.916
550.852
550.792
550.737
550.686
550.639
550.595
550.553
550.514
550.478
550.442
550.407
550.372
550.338
550.304
550.27
550.236
550.202
550.168
550.135
550.102
550.068
550.035
550.002
549.97
549.937
549.906
549.875
549.845
549.816
549.788
549.759
549.732
549.704
549.676
549.648
549.619
549.591
549.561
549.531
549.499
549.467
549.433
549.398
549.363
549.326
549.289
549.251
549.213
549.175
549.138
549.101
549.064
549.029
548.994
548.959
548.923
548.887
548.85
548.811
548.77
548.724
548.672
548.612
548.54
548.453
548.345
548.21
548.041
547.828
547.564
547.244
546.866
546.429
545.94
545.421
544.912
544.793
544.684
544.566
544.44
544.307
544.17
544.031
543.892
543.752
543.614
543.476
543.339
543.203
543.069
542.935
542.802
542.67
542.538
542.408
542.278
542.148
542.019
541.89
541.761
541.633
541.505
541.377
541.25
541.122
540.995
540.868
540.741
540.614
552.416
552.153
551.905
551.678
551.476
551.3
551.15
551.026
550.924
550.84
550.77
550.708
550.652
550.601
550.554
550.511
550.472
550.435
550.401
550.369
550.338
550.308
550.277
550.247
550.217
550.186
550.155
550.123
550.091
550.06
550.028
549.996
549.964
549.931
549.899
549.867
549.835
549.803
549.773
549.742
549.712
549.683
549.653
549.623
549.594
549.564
549.534
549.503
549.472
549.44
549.407
549.373
549.338
549.301
549.264
549.226
549.187
549.148
549.109
549.069
549.03
548.992
548.955
548.918
548.882
548.845
548.808
548.77
548.731
548.69
548.647
548.599
548.545
548.483
548.409
548.32
548.211
548.075
547.906
547.696
547.438
547.127
546.762
546.346
545.889
545.411
544.932
544.811
544.689
544.562
544.43
544.294
544.156
544.017
543.878
543.739
543.601
543.464
543.328
543.193
543.059
542.926
542.794
542.662
542.531
542.401
542.272
542.143
542.014
541.886
541.758
541.63
541.502
541.375
541.248
541.121
540.994
540.867
540.74
540.613
552.401
552.11
551.836
551.587
551.366
551.177
551.017
550.886
550.78
550.694
550.625
550.566
550.514
550.467
550.425
550.387
550.353
550.321
550.292
550.265
550.238
550.212
550.186
550.159
550.132
550.104
550.075
550.046
550.016
549.985
549.955
549.924
549.892
549.86
549.827
549.794
549.762
549.729
549.697
549.665
549.633
549.601
549.57
549.538
549.506
549.475
549.442
549.41
549.377
549.343
549.308
549.272
549.235
549.197
549.158
549.119
549.078
549.038
548.997
548.956
548.915
548.875
548.836
548.798
548.761
548.723
548.684
548.644
548.603
548.56
548.515
548.465
548.409
548.344
548.269
548.179
548.069
547.933
547.765
547.559
547.31
547.01
546.663
546.271
545.846
545.403
544.947
544.829
544.699
544.563
544.424
544.284
544.143
544.003
543.863
543.725
543.587
543.451
543.316
543.181
543.048
542.916
542.784
542.654
542.524
542.394
542.265
542.137
542.009
541.881
541.754
541.626
541.499
541.372
541.246
541.119
540.993
540.866
540.74
540.613
552.388
552.069
551.77
551.499
551.261
551.059
550.89
550.753
550.642
550.555
550.485
550.429
550.38
550.338
550.301
550.269
550.24
550.213
550.189
550.166
550.143
550.121
550.099
550.076
550.052
550.026
549.999
549.971
549.942
549.913
549.882
549.851
549.819
549.787
549.753
549.72
549.686
549.652
549.617
549.583
549.549
549.515
549.481
549.447
549.413
549.379
549.345
549.31
549.275
549.239
549.202
549.164
549.126
549.086
549.045
549.004
548.962
548.92
548.877
548.834
548.792
548.75
548.71
548.671
548.631
548.592
548.551
548.509
548.465
548.42
548.372
548.32
548.262
548.196
548.12
548.029
547.92
547.786
547.62
547.419
547.18
546.897
546.571
546.206
545.815
545.41
544.986
544.861
544.715
544.566
544.419
544.274
544.13
543.989
543.848
543.71
543.573
543.437
543.302
543.169
543.037
542.905
542.775
542.645
542.516
542.387
542.259
542.131
542.003
541.876
541.749
541.623
541.496
541.37
541.243
541.117
540.991
540.865
540.739
540.613
552.375
552.032
551.709
551.418
551.165
550.95
550.771
550.628
550.515
550.426
550.357
550.301
550.256
550.218
550.186
550.159
550.135
550.114
550.094
550.075
550.056
550.037
550.017
549.997
549.976
549.952
549.927
549.9
549.871
549.842
549.811
549.779
549.746
549.712
549.678
549.643
549.607
549.571
549.534
549.498
549.461
549.425
549.388
549.351
549.314
549.278
549.241
549.204
549.166
549.128
549.089
549.049
549.009
548.967
548.925
548.882
548.838
548.794
548.75
548.705
548.661
548.618
548.576
548.535
548.494
548.452
548.409
548.365
548.319
548.271
548.22
548.166
548.106
548.039
547.961
547.87
547.761
547.63
547.468
547.272
547.043
546.776
546.471
546.137
545.785
545.437
545.123
544.912
544.733
544.569
544.413
544.262
544.116
543.973
543.832
543.694
543.557
543.422
543.288
543.156
543.024
542.894
542.764
542.635
542.507
542.379
542.251
542.124
541.998
541.871
541.745
541.619
541.493
541.367
541.241
541.115
540.99
540.864
540.738
540.613
552.364
552
551.658
551.35
551.081
550.855
550.669
550.52
550.403
550.313
550.243
550.188
550.145
550.111
550.082
550.059
550.04
550.023
550.008
549.992
549.976
549.959
549.943
549.925
549.905
549.883
549.858
549.832
549.803
549.772
549.74
549.707
549.672
549.637
549.6
549.563
549.525
549.486
549.447
549.408
549.368
549.328
549.288
549.249
549.209
549.17
549.13
549.091
549.051
549.01
548.969
548.927
548.884
548.841
548.797
548.752
548.707
548.661
548.615
548.569
548.524
548.479
548.435
548.392
548.349
548.306
548.261
548.214
548.165
548.114
548.061
548.004
547.942
547.873
547.794
547.701
547.593
547.465
547.31
547.121
546.901
546.649
546.366
546.06
545.742
545.433
545.157
544.931
544.737
544.563
544.401
544.247
544.099
543.955
543.814
543.676
543.54
543.406
543.273
543.141
543.011
542.882
542.753
542.625
542.498
542.371
542.244
542.118
541.992
541.866
541.74
541.615
541.489
541.364
541.239
541.113
540.988
540.863
540.738
540.613
552.355
551.973
551.615
551.293
551.012
550.777
550.584
550.429
550.308
550.215
550.145
550.091
550.05
550.018
549.993
549.974
549.958
549.944
549.932
549.919
549.905
549.89
549.875
549.858
549.839
549.817
549.793
549.766
549.736
549.704
549.67
549.635
549.598
549.559
549.52
549.48
549.439
549.397
549.354
549.312
549.269
549.225
549.182
549.139
549.097
549.054
549.012
548.97
548.928
548.885
548.842
548.798
548.753
548.708
548.662
548.616
548.569
548.521
548.474
548.427
548.38
548.334
548.289
548.244
548.199
548.153
548.105
548.056
548.004
547.951
547.895
547.836
547.773
547.701
547.621
547.527
547.42
547.293
547.144
546.964
546.754
546.517
546.254
545.971
545.68
545.396
545.14
544.918
544.722
544.545
544.381
544.226
544.077
543.933
543.793
543.656
543.521
543.388
543.256
543.126
542.997
542.869
542.741
542.614
542.488
542.362
542.236
542.111
541.985
541.86
541.735
541.61
541.486
541.361
541.236
541.111
540.987
540.862
540.737
540.612
552.348
551.953
551.581
551.246
550.957
550.714
550.516
550.356
550.232
550.137
550.064
550.011
549.971
549.941
549.919
549.902
549.889
549.878
549.867
549.856
549.845
549.831
549.816
549.799
549.779
549.756
549.73
549.702
549.67
549.636
549.6
549.562
549.522
549.48
549.437
549.394
549.349
549.303
549.257
549.21
549.163
549.116
549.069
549.023
548.977
548.932
548.887
548.842
548.798
548.752
548.707
548.661
548.615
548.568
548.52
548.472
548.424
548.375
548.327
548.278
548.231
548.183
548.136
548.09
548.043
547.995
547.944
547.893
547.839
547.783
547.725
547.663
547.598
547.524
547.442
547.347
547.24
547.115
546.97
546.799
546.601
546.376
546.129
545.865
545.594
545.329
545.09
544.878
544.689
544.515
544.353
544.199
544.051
543.909
543.77
543.634
543.5
543.368
543.238
543.109
542.982
542.855
542.729
542.603
542.477
542.353
542.228
542.103
541.979
541.855
541.73
541.606
541.482
541.358
541.233
541.109
540.985
540.861
540.736
540.612
552.343
551.937
551.556
551.215
550.921
550.673
550.47
550.306
550.178
550.08
550.005
549.95
549.91
549.881
549.86
549.845
549.833
549.823
549.814
549.805
549.793
549.78
549.765
549.747
549.725
549.701
549.673
549.642
549.608
549.57
549.531
549.489
549.445
549.399
549.352
549.304
549.255
549.205
549.155
549.104
549.052
549.001
548.95
548.9
548.85
548.802
548.754
548.707
548.66
548.612
548.565
548.517
548.468
548.42
548.371
548.322
548.272
548.223
548.174
548.125
548.076
548.028
547.98
547.931
547.882
547.833
547.78
547.726
547.669
547.611
547.55
547.487
547.419
547.342
547.259
547.163
547.056
546.932
546.791
546.626
546.439
546.225
545.991
545.74
545.483
545.233
545.013
544.818
544.64
544.473
544.316
544.166
544.021
543.88
543.743
543.609
543.477
543.347
543.219
543.092
542.966
542.84
542.715
542.591
542.467
542.343
542.219
542.096
541.972
541.849
541.725
541.602
541.478
541.354
541.231
541.107
540.983
540.86
540.736
540.612
552.341
551.933
551.549
551.204
550.905
550.654
550.448
550.28
550.148
550.045
549.967
549.909
549.868
549.838
549.817
549.802
549.791
549.782
549.774
549.764
549.753
549.74
549.723
549.703
549.679
549.652
549.621
549.586
549.548
549.507
549.463
549.416
549.368
549.317
549.266
549.213
549.159
549.104
549.049
548.992
548.936
548.88
548.825
548.77
548.717
548.665
548.614
548.564
548.514
548.464
548.415
548.365
548.315
548.265
548.216
548.166
548.116
548.066
548.016
547.967
547.918
547.869
547.82
547.77
547.72
547.669
547.615
547.559
547.5
547.44
547.375
547.309
547.238
547.158
547.074
546.975
546.868
546.748
546.613
546.455
546.276
546.073
545.846
545.6
545.346
545.106
544.913
544.741
544.579
544.423
544.273
544.127
543.986
543.849
543.714
543.582
543.453
543.325
543.199
543.073
542.949
542.825
542.702
542.579
542.456
542.333
542.211
542.088
541.965
541.843
541.72
541.597
541.474
541.351
541.228
541.105
540.982
540.858
540.735
540.612
552.341
551.933
551.552
551.21
550.913
550.66
550.45
550.277
550.139
550.032
549.95
549.888
549.844
549.812
549.79
549.774
549.763
549.754
549.745
549.735
549.724
549.709
549.69
549.668
549.641
549.61
549.575
549.536
549.494
549.447
549.398
549.346
549.292
549.236
549.179
549.12
549.061
549.001
548.94
548.878
548.816
548.755
548.694
548.635
548.578
548.522
548.467
548.414
548.361
548.309
548.258
548.207
548.156
548.105
548.055
548.005
547.955
547.905
547.855
547.806
547.758
547.709
547.66
547.61
547.558
547.506
547.45
547.393
547.332
547.27
547.202
547.131
547.057
546.974
546.887
546.787
546.681
546.565
546.435
546.288
546.119
545.925
545.704
545.453
545.186
544.934
544.792
544.655
544.513
544.369
544.226
544.085
543.948
543.814
543.682
543.553
543.426
543.301
543.177
543.054
542.931
542.809
542.688
542.566
542.445
542.323
542.202
542.08
541.959
541.837
541.715
541.593
541.47
541.348
541.225
541.103
540.98
540.857
540.734
540.611
552.347
551.95
551.578
551.242
550.947
550.692
550.478
550.3
550.156
550.041
549.952
549.886
549.837
549.802
549.778
549.761
549.749
549.739
549.729
549.719
549.705
549.689
549.668
549.643
549.613
549.578
549.538
549.494
549.446
549.394
549.339
549.281
549.221
549.159
549.095
549.03
548.965
548.898
548.831
548.763
548.695
548.627
548.561
548.496
548.434
548.373
548.315
548.258
548.203
548.148
548.095
548.043
547.991
547.94
547.89
547.841
547.792
547.743
547.695
547.647
547.599
547.552
547.503
547.452
547.4
547.346
547.29
547.23
547.168
547.102
547.031
546.956
546.875
546.79
546.701
546.602
546.5
546.389
546.266
546.131
545.974
545.791
545.577
545.325
545.036
544.666
544.671
544.576
544.45
544.314
544.176
544.04
543.907
543.776
543.648
543.522
543.398
543.276
543.154
543.033
542.913
542.793
542.673
542.553
542.433
542.313
542.193
542.073
541.952
541.831
541.71
541.588
541.467
541.345
541.223
541.101
540.978
540.856
540.734
540.611
552.354
551.971
551.612
551.285
550.995
550.742
550.526
550.344
550.194
550.071
549.975
549.901
549.847
549.808
549.78
549.761
549.747
549.736
549.725
549.714
549.7
549.682
549.659
549.63
549.596
549.556
549.512
549.462
549.408
549.351
549.289
549.225
549.158
549.089
549.018
548.946
548.873
548.8
548.725
548.65
548.575
548.5
548.426
548.355
548.287
548.222
548.159
548.098
548.039
547.982
547.927
547.874
547.823
547.773
547.725
547.677
547.63
547.583
547.536
547.49
547.444
547.399
547.352
547.301
547.248
547.192
547.134
547.072
547.007
546.936
546.86
546.779
546.694
546.606
546.516
546.424
546.329
546.23
546.119
545.997
545.855
545.688
545.494
545.269
545.025
544.792
544.661
544.532
544.397
544.261
544.126
543.993
543.864
543.737
543.612
543.49
543.369
543.249
543.131
543.012
542.894
542.777
542.659
542.541
542.422
542.303
542.184
542.065
541.945
541.825
541.705
541.584
541.463
541.342
541.22
541.099
540.977
540.855
540.733
540.611
552.362
551.995
551.649
551.333
551.049
550.8
550.585
550.401
550.246
550.117
550.014
549.934
549.873
549.829
549.797
549.774
549.758
549.745
549.734
549.722
549.708
549.689
549.663
549.631
549.593
549.549
549.499
549.444
549.384
549.32
549.251
549.18
549.105
549.029
548.951
548.872
548.791
548.709
548.627
548.544
548.46
548.377
548.295
548.217
548.142
548.07
548.001
547.935
547.872
547.813
547.757
547.705
547.655
547.607
547.56
547.515
547.47
547.426
547.383
547.34
547.296
547.253
547.21
547.16
547.105
547.045
546.983
546.916
546.845
546.77
546.688
546.602
546.513
546.426
546.342
546.265
546.189
546.109
546.018
545.908
545.776
545.619
545.439
545.242
545.033
544.835
544.657
544.496
544.349
544.209
544.074
543.944
543.817
543.694
543.574
543.455
543.338
543.222
543.106
542.991
542.876
542.76
542.644
542.528
542.411
542.294
542.176
542.058
541.939
541.82
541.7
541.58
541.46
541.339
541.218
541.097
540.975
540.854
540.732
540.611
552.371
552.021
551.689
551.384
551.107
550.861
550.646
550.462
550.304
550.171
550.063
549.977
549.911
549.863
549.827
549.8
549.781
549.768
549.757
549.746
549.733
549.714
549.687
549.653
549.61
549.561
549.506
549.446
549.381
549.309
549.232
549.152
549.069
548.984
548.899
548.813
548.723
548.632
548.541
548.45
548.359
548.267
548.176
548.088
548.003
547.922
547.845
547.772
547.706
547.646
547.592
547.541
547.493
547.447
547.402
547.357
547.315
547.274
547.236
547.196
547.154
547.114
547.077
547.03
546.968
546.902
546.834
546.759
546.68
546.597
546.512
546.424
546.336
546.256
546.193
546.154
546.123
546.092
546.033
545.889
545.722
545.607
545.399
545.185
545.019
544.84
544.636
544.451
544.296
544.152
544.018
543.891
543.769
543.65
543.533
543.419
543.306
543.194
543.082
542.969
542.857
542.744
542.63
542.515
542.4
542.284
542.168
542.051
541.933
541.814
541.695
541.576
541.456
541.336
541.216
541.095
540.974
540.853
540.732
540.611
552.38
552.045
551.727
551.432
551.164
550.922
550.708
550.524
550.364
550.229
550.117
550.028
549.961
549.91
549.871
549.841
549.82
549.807
549.797
549.789
549.779
549.763
549.737
549.701
549.655
549.603
549.544
549.481
549.41
549.33
549.242
549.151
549.058
548.963
548.87
548.777
548.677
548.573
548.472
548.378
548.283
548.185
548.082
547.979
547.876
547.78
547.69
547.61
547.544
547.49
547.441
547.396
547.35
547.304
547.257
547.208
547.163
547.121
547.083
547.041
546.994
546.966
546.942
546.889
546.816
546.746
546.689
546.614
546.524
546.406
546.314
546.243
546.161
546.096
546.11
546.106
546.157
546.364
546.37
545.725
545.402
546.162
545.229
544.591
545.149
544.806
544.535
544.378
544.233
544.086
543.957
543.834
543.716
543.602
543.491
543.382
543.273
543.165
543.057
542.948
542.838
542.728
542.616
542.504
542.39
542.276
542.16
542.044
541.927
541.81
541.691
541.573
541.453
541.334
541.214
541.093
540.973
540.852
540.731
540.61
552.386
552.064
551.758
551.474
551.214
550.977
550.765
550.581
550.423
550.288
550.178
550.09
550.023
549.974
549.935
549.899
549.877
549.868
549.86
549.857
549.854
549.842
549.816
549.78
549.732
549.678
549.617
549.555
549.483
549.395
549.294
549.192
549.085
548.976
548.874
548.774
548.66
548.54
548.432
548.342
548.254
548.154
548.026
547.888
547.749
547.626
547.518
547.436
547.39
547.359
547.32
547.278
547.235
547.191
547.133
547.064
547.005
546.955
546.895
546.806
546.739
546.771
546.778
546.67
546.571
546.519
546.547
546.571
546.487
546.167
546.061
546.163
546.035
545.839
546.166
546.129
545.937
546.363
546.405
545.803
545.455
545.753
545.395
544.889
544.952
544.808
544.517
544.341
544.135
544.005
543.889
543.772
543.66
543.552
543.447
543.343
543.24
543.136
543.032
542.927
542.82
542.713
542.603
542.493
542.381
542.268
542.153
542.038
541.922
541.805
541.688
541.569
541.451
541.331
541.212
541.092
540.972
540.851
540.731
540.61
552.391
552.079
551.782
551.508
551.256
551.024
550.814
550.634
550.482
550.355
550.252
550.167
550.103
550.058
550.018
549.964
549.942
549.948
549.941
549.944
549.952
549.944
549.915
549.88
549.829
549.771
549.709
549.66
549.597
549.495
549.377
549.274
549.152
549.015
548.909
548.813
548.674
548.535
548.438
548.375
548.31
548.198
548.023
547.837
547.631
547.457
547.325
547.262
547.294
547.322
547.268
547.2
547.182
547.177
547.084
546.903
546.834
546.845
546.668
546.371
546.278
546.561
546.574
546.302
546.29
546.271
546.369
546.549
546.569
546.017
545.948
546.099
546.062
545.973
545.983
546.073
545.974
546.116
546.112
545.862
545.642
545.552
545.365
545.039
544.898
544.796
544.562
544.315
544.129
543.924
543.811
543.707
543.599
543.499
543.402
543.305
543.207
543.108
543.008
542.907
542.804
542.699
542.592
542.483
542.372
542.26
542.147
542.033
541.918
541.801
541.684
541.567
541.448
541.33
541.21
541.091
540.971
540.851
540.731
540.61
552.394
552.087
551.799
551.534
551.29
551.063
550.858
550.687
550.547
550.436
550.344
550.256
550.189
550.154
550.119
550.083
550.072
550.08
550.079
550.075
550.08
550.063
550.033
550.015
549.964
549.882
549.802
549.756
549.709
549.624
549.517
549.42
549.287
549.133
549.001
548.889
548.752
548.577
548.426
548.352
548.327
548.305
548.161
547.88
547.513
547.293
547.181
547.102
547.273
547.398
547.284
547.159
547.141
547.311
547.344
546.96
546.745
546.784
546.582
546.222
546.132
546.497
546.622
546.39
546.305
546.295
546.308
546.342
546.324
546.079
546.028
546.062
546.02
546.011
545.922
545.963
545.917
545.912
545.873
545.796
545.672
545.508
545.319
545.097
544.922
544.749
544.509
544.236
544.071
543.828
543.764
543.627
543.532
543.443
543.356
543.266
543.175
543.081
542.986
542.889
542.789
542.686
542.581
542.474
542.365
542.254
542.142
542.029
541.914
541.798
541.682
541.564
541.446
541.328
541.209
541.09
540.97
540.85
540.73
540.61
552.396
552.092
551.81
551.55
551.311
551.092
550.893
550.733
550.619
550.535
550.458
550.37
550.28
550.24
550.227
550.215
550.234
550.268
550.273
550.223
550.208
550.176
550.117
550.117
550.046
549.949
549.855
549.814
549.776
549.683
549.58
549.54
549.372
549.146
548.957
548.843
548.733
548.448
548.264
548.276
548.338
548.405
548.298
547.888
547.359
547.095
546.974
546.886
547.163
547.364
547.088
547.004
547.123
547.359
547.257
547.125
546.89
546.824
546.793
546.476
546.296
546.56
546.609
546.503
546.471
546.46
546.409
546.314
546.226
546.15
546.109
546.08
546.016
545.984
545.915
545.884
545.842
545.798
545.755
545.713
545.645
545.455
545.156
544.942
544.763
544.612
544.402
544.193
544.013
543.796
543.688
543.572
543.463
543.386
543.311
543.229
543.144
543.056
542.966
542.873
542.776
542.676
542.573
542.467
542.359
542.25
542.138
542.025
541.911
541.796
541.68
541.563
541.445
541.327
541.208
541.089
540.97
540.85
540.73
540.61
552.413
552.113
551.841
551.554
551.298
551.094
550.89
550.735
550.667
550.618
550.585
550.476
550.359
550.347
550.379
550.388
550.419
550.486
550.509
550.322
550.311
550.314
550.198
550.216
550.047
549.912
549.793
549.856
549.907
549.712
549.598
549.682
549.4
549.099
548.912
548.813
548.821
548.459
548.122
548.311
548.513
548.594
548.564
548.034
547.508
547.353
547.025
546.789
546.947
547.302
547.226
547.01
546.983
547.127
547.006
546.982
546.89
546.875
546.9
546.716
546.571
546.66
546.651
546.572
546.548
546.515
546.446
546.353
546.272
546.209
546.146
546.094
546.028
545.969
545.889
545.827
545.781
545.73
545.665
545.585
545.529
545.281
545.041
544.824
544.634
544.477
544.308
544.138
543.969
543.8
543.655
543.543
543.418
543.339
543.268
543.196
543.115
543.031
542.948
542.86
542.767
542.669
542.567
542.463
542.356
542.246
542.135
542.023
541.909
541.794
541.678
541.561
541.444
541.326
541.207
541.088
540.969
540.85
540.73
540.61
552.495