0 	0 	0 	0
0.010101 	-2.22276e-23 	-1.28821e-27 	-9.79974e-25
0.020202 	-4.48861e-25 	-2.26215e-28 	-2.13877e-26
