/*--------------------------------*- C++ -*----------------------------------*\
  =========                 |
  \\      /  F ield         | OpenFOAM: The Open Source CFD Toolbox
   \\    /   O peration     | Website:  https://openfoam.org
    \\  /    A nd           | Version:  6
     \\/     M anipulation  |
\*---------------------------------------------------------------------------*/
FoamFile
{
    version     2.0;
    format      ascii;
    class       surfaceScalarField;
    location    "4000";
    object      phi;
}
// * * * * * * * * * * * * * * * * * * * * * * * * * * * * * * * * * * * * * //

dimensions      [0 3 -1 0 0 0 0];

internalField   nonuniform List<scalar> 
9440
(
9.42822e-11
-9.42822e-11
1.53454e-10
-5.91745e-11
1.79865e-10
-2.64123e-11
2.27938e-10
-4.80752e-11
2.74221e-10
-4.62847e-11
3.13314e-10
-3.90937e-11
3.17751e-10
-4.43826e-12
3.16008e-10
1.74165e-12
2.37e-10
7.90073e-11
1.15002e-10
1.21997e-10
-3.20303e-11
1.47032e-10
-2.32073e-10
2.00042e-10
-5.11066e-10
2.78994e-10
-1.05946e-09
5.48394e-10
-1.57962e-09
5.20157e-10
-2.0211e-09
4.41486e-10
-2.38814e-09
3.67042e-10
-2.80607e-09
4.17927e-10
-3.18451e-09
3.78444e-10
-3.51039e-09
3.25881e-10
-3.86993e-09
3.59538e-10
-4.08243e-09
2.12502e-10
-4.27864e-09
1.96219e-10
-4.45705e-09
1.78409e-10
-4.53109e-09
7.40385e-11
-4.63645e-09
1.05364e-10
-4.68709e-09
5.06486e-11
-4.72987e-09
4.2781e-11
-4.78918e-09
5.93092e-11
-4.81563e-09
2.6452e-11
-4.83935e-09
2.37211e-11
-4.85886e-09
1.95062e-11
-4.86779e-09
8.93133e-12
-4.79857e-09
-6.92187e-11
-4.69558e-09
-1.02991e-10
-4.5988e-09
-9.6778e-11
-4.38487e-09
-2.13932e-10
-4.10826e-09
-2.76608e-10
-3.7257e-09
-3.8256e-10
-3.29919e-09
-4.26511e-10
-3.15394e-09
-1.45253e-10
-3.01007e-09
-1.43867e-10
-2.74066e-09
-2.6941e-10
-2.43977e-09
-3.0089e-10
-2.31078e-09
-1.28988e-10
-2.05168e-09
-2.59106e-10
-1.43272e-09
-6.18959e-10
-1.21048e-09
-2.22245e-10
-9.93284e-10
-2.17192e-10
-7.39784e-10
-2.535e-10
-3.95762e-10
-3.44022e-10
-6.85078e-12
-3.88911e-10
3.02086e-10
-3.08937e-10
4.77135e-10
-1.7505e-10
1.22191e-09
-7.44776e-10
9.09548e-10
3.12363e-10
1.43825e-09
-5.28699e-10
1.81865e-09
-3.80399e-10
1.90093e-09
-8.22804e-11
1.92249e-09
-2.15672e-11
1.82022e-09
1.0227e-10
1.67437e-09
1.45852e-10
1.57115e-09
1.03215e-10
1.47073e-09
1.00419e-10
1.36646e-09
1.04274e-10
1.25844e-09
1.08025e-10
1.14623e-09
1.12206e-10
1.02118e-09
1.2505e-10
8.7283e-10
1.48348e-10
7.95703e-10
7.71269e-11
7.36567e-10
5.9136e-11
6.6925e-10
6.73164e-11
6.13181e-10
5.60681e-11
6.15458e-10
-2.27657e-12
6.20355e-10
-4.89742e-12
6.21798e-10
-1.44282e-12
7.25238e-10
-1.03441e-10
8.07405e-10
-8.21671e-11
8.19398e-10
-1.19933e-11
7.34632e-10
8.47658e-11
5.91609e-10
1.43023e-10
4.03158e-10
1.88451e-10
3.5759e-17
4.03158e-10
-4.22607e-20
4.71909e-20
-1.0752e-19
6.5259e-20
-2.01049e-19
9.34779e-20
-2.56938e-19
5.58555e-20
-2.77468e-19
2.05336e-20
-2.71729e-19
-5.6949e-21
-2.47301e-19
-2.43535e-20
-2.08634e-19
-3.85769e-20
-1.58609e-19
-4.99313e-20
-9.94961e-20
-5.90214e-20
-3.34557e-20
-6.59602e-20
3.72849e-20
-7.06827e-20
1.10436e-19
-7.31198e-20
1.83722e-19
-7.328e-20
2.54978e-19
-7.12707e-20
3.22239e-19
-6.72897e-20
3.83805e-19
-6.16017e-20
4.38284e-19
-5.45113e-20
4.84602e-19
-4.634e-20
5.22006e-19
-3.74054e-20
5.50037e-19
-2.80063e-20
5.68505e-19
-1.84128e-20
5.77453e-19
-8.85916e-21
5.77119e-19
4.57948e-22
5.67897e-19
9.38049e-21
5.50304e-19
1.77862e-20
5.24947e-19
2.55845e-20
4.92497e-19
3.27131e-20
4.53661e-19
3.91325e-20
4.09168e-19
4.48216e-20
3.59755e-19
4.9773e-20
3.06154e-19
5.39892e-20
2.49088e-19
5.74791e-20
1.89266e-19
6.02557e-20
1.27381e-19
6.23366e-20
6.40951e-20
6.37498e-20
6.45664e-20
8.19903e-11
-1.76275e-10
1.15292e-10
-9.24802e-11
1.21353e-10
-3.24766e-11
1.26921e-10
-5.3646e-11
1.40871e-10
-6.02368e-11
1.27407e-10
-2.56321e-11
1.02752e-10
2.02145e-11
6.58407e-11
3.86511e-11
-4.74545e-11
1.92301e-10
-2.84058e-10
3.58599e-10
-5.12391e-10
3.75365e-10
-7.95066e-10
4.82718e-10
-1.14232e-09
6.26253e-10
-1.52547e-09
9.31536e-10
-1.98103e-09
9.75723e-10
-2.39054e-09
8.51003e-10
-2.68316e-09
6.59663e-10
-3.0219e-09
7.56667e-10
-3.37904e-09
7.35589e-10
-3.64112e-09
5.87956e-10
-3.79428e-09
5.12706e-10
-4.06006e-09
4.78286e-10
-4.19639e-09
3.32555e-10
-4.30125e-09
2.83267e-10
-4.42243e-09
1.95227e-10
-4.42271e-09
1.05644e-10
-4.48776e-09
1.15702e-10
-4.50519e-09
6.02099e-11
-4.53225e-09
8.63778e-11
-4.58942e-09
8.36276e-11
-4.61489e-09
4.91906e-11
-4.62177e-09
2.63872e-11
-4.6249e-09
1.20583e-11
-4.50908e-09
-1.85041e-10
-4.33551e-09
-2.7656e-10
-4.21161e-09
-2.20672e-10
-4.16163e-09
-2.63912e-10
-3.97956e-09
-4.58686e-10
-3.6624e-09
-6.99712e-10
-3.39578e-09
-6.93137e-10
-3.10347e-09
-4.37566e-10
-2.82655e-09
-4.20786e-10
-2.71804e-09
-3.77919e-10
-2.42323e-09
-5.95703e-10
-2.15756e-09
-3.94665e-10
-1.94193e-09
-4.74735e-10
-1.45314e-09
-1.10774e-09
-1.33991e-09
-3.35481e-10
-9.84688e-10
-5.7241e-10
-6.79876e-10
-5.58312e-10
-2.56996e-10
-7.66902e-10
1.22871e-10
-7.68779e-10
4.61849e-10
-6.47915e-10
7.77458e-10
-4.90658e-10
9.43267e-10
-9.10586e-10
1.53086e-09
-2.75225e-10
1.51095e-09
-5.08796e-10
1.82484e-09
-6.94284e-10
2.03754e-09
-2.94982e-10
2.14938e-09
-1.3341e-10
2.13068e-09
1.20967e-10
2.07385e-09
2.02684e-10
1.97911e-09
1.97955e-10
1.86146e-09
2.18062e-10
1.74264e-09
2.23093e-10
1.53808e-09
3.12593e-10
1.32615e-09
3.24134e-10
1.10468e-09
3.46515e-10
9.17745e-10
3.35283e-10
8.0487e-10
1.90001e-10
6.89211e-10
1.74795e-10
5.83124e-10
1.73403e-10
5.03737e-10
1.35454e-10
4.74101e-10
2.73589e-11
4.9537e-10
-2.61661e-11
5.50191e-10
-5.62641e-11
6.21424e-10
-1.74674e-10
6.94609e-10
-1.55353e-10
7.31011e-10
-4.83954e-11
6.81543e-10
1.34233e-10
5.57376e-10
2.6719e-10
3.60758e-10
3.85069e-10
8.78543e-17
7.63915e-10
4.39235e-19
2.6652e-18
-8.55527e-20
5.89987e-19
-2.42623e-19
2.50492e-19
-2.94118e-19
1.07369e-19
-3.03635e-19
3.01226e-20
-2.90394e-19
-1.88214e-20
-2.61524e-19
-5.30765e-20
-2.19989e-19
-7.9949e-20
-1.67699e-19
-1.02064e-19
-1.06435e-19
-1.2015e-19
-3.81782e-20
-1.34111e-19
3.48477e-20
-1.43638e-19
1.10276e-19
-1.48513e-19
1.85731e-19
-1.48733e-19
2.58959e-19
-1.44522e-19
3.27927e-19
-1.36294e-19
3.90896e-19
-1.24604e-19
4.46455e-19
-1.10086e-19
4.93537e-19
-9.34053e-20
5.31405e-19
-7.52128e-20
5.5963e-19
-5.61193e-20
5.78059e-19
-3.66715e-20
5.86771e-19
-1.73418e-20
5.86042e-19
1.4776e-21
5.76302e-19
1.94722e-20
5.58102e-19
3.64003e-20
5.32076e-19
5.2086e-20
4.98916e-19
6.64082e-20
4.5935e-19
7.92921e-20
4.14119e-19
9.06991e-20
3.63971e-19
1.00618e-19
3.09643e-19
1.09056e-19
2.51865e-19
1.16034e-19
1.91347e-19
1.21578e-19
1.28794e-19
1.25716e-19
6.49118e-20
1.28472e-19
1.2985e-19
5.86527e-11
-2.34929e-10
8.36635e-11
-1.17495e-10
7.38527e-11
-2.2669e-11
8.17881e-11
-6.15844e-11
1.02084e-10
-8.0535e-11
9.15107e-11
-1.50616e-11
-4.27776e-11
1.54501e-10
-1.60129e-10
1.56e-10
-3.13589e-10
3.4576e-10
-5.19468e-10
5.64477e-10
-7.42925e-10
5.98822e-10
-1.1505e-09
8.90295e-10
-1.65065e-09
1.1264e-09
-1.98021e-09
1.26109e-09
-2.29239e-09
1.2879e-09
-2.56579e-09
1.12441e-09
-2.80534e-09
8.99217e-10
-3.03513e-09
9.86457e-10
-3.26364e-09
9.64098e-10
-3.4116e-09
7.35928e-10
-3.65678e-09
7.57888e-10
-3.77698e-09
5.98489e-10
-3.886e-09
4.41579e-10
-3.98637e-09
3.83637e-10
-4.04149e-09
2.5035e-10
-4.08493e-09
1.4909e-10
-4.15445e-09
1.85216e-10
-4.16092e-09
6.66869e-11
-4.16001e-09
8.54655e-11
-4.18316e-09
1.06787e-10
-4.18094e-09
4.69731e-11
-4.15749e-09
2.93333e-12
-4.09255e-09
-5.28822e-11
-4.0592e-09
-2.18386e-10
-4.04897e-09
-2.86787e-10
-3.98242e-09
-2.87228e-10
-3.85524e-09
-3.91091e-10
-3.62063e-09
-6.93298e-10
-3.67075e-09
-6.49587e-10
-3.39007e-09
-9.73822e-10
-3.23945e-09
-5.88189e-10
-2.9226e-09
-7.37635e-10
-2.72218e-09
-5.78337e-10
-2.47429e-09
-8.43594e-10
-2.18989e-09
-6.79064e-10
-1.82858e-09
-8.3605e-10
-1.87238e-09
-1.06395e-09
-1.64516e-09
-5.62699e-10
-1.22462e-09
-9.92945e-10
-8.67996e-10
-9.14941e-10
-6.698e-10
-9.65099e-10
-4.49705e-10
-9.88875e-10
-6.27036e-11
-1.03492e-09
3.99761e-10
-9.53124e-10
5.18195e-10
-1.02902e-09
1.06216e-09
-8.19191e-10
1.25404e-09
-7.00675e-10
1.51187e-09
-9.52115e-10
1.73859e-09
-5.21698e-10
1.91687e-09
-3.11692e-10
1.96445e-09
7.33879e-11
2.06129e-09
1.05836e-10
2.00822e-09
2.51025e-10
1.9271e-09
2.99185e-10
1.83913e-09
3.11061e-10
1.7128e-09
4.38926e-10
1.53051e-09
5.06414e-10
1.33984e-09
5.37188e-10
1.11686e-09
5.58268e-10
8.86473e-10
4.20383e-10
7.39842e-10
3.21425e-10
6.31164e-10
2.82081e-10
5.55509e-10
2.11109e-10
4.91282e-10
9.15847e-11
4.70918e-10
-5.8023e-12
5.4676e-10
-1.32106e-10
6.00994e-10
-2.28908e-10
5.91998e-10
-1.46357e-10
6.05197e-10
-6.1595e-11
5.33137e-10
2.06294e-10
4.49171e-10
3.51155e-10
2.98528e-10
5.35712e-10
7.33027e-17
1.06244e-09
-6.73225e-19
1.7479e-18
-4.23865e-19
3.40603e-19
-3.84642e-19
2.11214e-19
-3.7031e-19
9.30344e-20
-3.51588e-19
1.14487e-20
-3.24649e-19
-4.56693e-20
-2.88397e-19
-8.92017e-20
-2.42104e-19
-1.26087e-19
-1.85786e-19
-1.58214e-19
-1.20396e-19
-1.85371e-19
-4.77048e-20
-2.06647e-19
2.99721e-20
-2.21184e-19
1.10056e-19
-2.28498e-19
1.89943e-19
-2.28555e-19
2.67187e-19
-2.21728e-19
3.39617e-19
-2.08707e-19
4.05413e-19
-1.9039e-19
4.63136e-19
-1.67794e-19
5.11729e-19
-1.41965e-19
5.50498e-19
-1.13919e-19
5.79078e-19
-8.45976e-20
5.97388e-19
-5.48361e-20
6.0559e-19
-2.53481e-20
6.04036e-19
3.27858e-21
5.93231e-19
3.05785e-20
5.73788e-19
5.61985e-20
5.46398e-19
7.98849e-20
5.118e-19
1.01469e-19
4.70757e-19
1.20849e-19
4.24038e-19
1.37978e-19
3.72409e-19
1.52851e-19
3.16622e-19
1.65486e-19
2.57408e-19
1.75922e-19
1.95485e-19
1.84202e-19
1.3155e-19
1.9037e-19
6.62896e-20
1.94463e-19
1.96501e-19
5.31909e-11
-2.88122e-10
9.07071e-11
-1.55015e-10
7.69494e-11
-8.91509e-12
3.48303e-11
-1.94687e-11
1.4384e-11
-6.00921e-11
-4.55182e-11
4.48376e-11
-1.65448e-10
2.74428e-10
-3.58973e-10
3.49523e-10
-4.6475e-10
4.51535e-10
-6.40733e-10
7.40459e-10
-1.01816e-09
9.76243e-10
-1.41106e-09
1.2832e-09
-1.84554e-09
1.56088e-09
-2.18767e-09
1.60323e-09
-2.46174e-09
1.56196e-09
-2.61828e-09
1.28096e-09
-2.74744e-09
1.02838e-09
-2.9852e-09
1.22421e-09
-3.16696e-09
1.14586e-09
-3.22172e-09
7.90693e-10
-3.38999e-09
9.26159e-10
-3.49727e-09
7.05773e-10
-3.58634e-09
5.30652e-10
-3.72919e-09
5.26493e-10
-3.77019e-09
2.91347e-10
-3.85907e-09
2.37978e-10
-3.93398e-09
2.60123e-10
-3.93829e-09
7.10056e-11
-3.93855e-09
8.57243e-11
-3.92e-09
8.8238e-11
-3.89473e-09
2.17031e-11
-3.84375e-09
-4.80402e-11
-3.79401e-09
-1.02627e-10
-3.8321e-09
-1.8029e-10
-3.77377e-09
-3.45123e-10
-3.71176e-09
-3.49229e-10
-3.66222e-09
-4.40636e-10
-3.69794e-09
-6.57578e-10
-3.56687e-09
-7.80656e-10
-3.42744e-09
-1.11326e-09
-3.24986e-09
-7.65764e-10
-3.02085e-09
-9.66653e-10
-2.8919e-09
-7.07285e-10
-2.62556e-09
-1.10993e-09
-2.43499e-09
-8.6964e-10
-2.27571e-09
-9.95333e-10
-2.35289e-09
-9.86769e-10
-1.86336e-09
-1.05222e-09
-1.68548e-09
-1.17083e-09
-1.49525e-09
-1.10517e-09
-1.30443e-09
-1.15592e-09
-1.0209e-09
-1.27241e-09
-7.67251e-10
-1.28857e-09
-4.20927e-10
-1.29945e-09
-1.5138e-11
-1.43481e-09
4.87484e-10
-1.32181e-09
7.98173e-10
-1.01137e-09
8.98398e-10
-1.05234e-09
1.18378e-09
-8.0708e-10
1.34387e-09
-4.71787e-10
1.53464e-09
-1.17383e-10
1.70103e-09
-6.05472e-11
1.74763e-09
2.04421e-10
1.73407e-09
3.12744e-10
1.70342e-09
3.41709e-10
1.65275e-09
4.89594e-10
1.55516e-09
6.0401e-10
1.47052e-09
6.21819e-10
1.36042e-09
6.68367e-10
1.18091e-09
5.99899e-10
1.01844e-09
4.83891e-10
8.5852e-10
4.42002e-10
7.73694e-10
2.95936e-10
7.1107e-10
1.54208e-10
6.4264e-10
6.26273e-11
5.99012e-10
-8.84782e-11
6.12145e-10
-2.42041e-10
6.49564e-10
-1.83776e-10
6.3613e-10
-4.81617e-11
6.05801e-10
2.36623e-10
4.96256e-10
4.607e-10
3.11186e-10
7.20783e-10
4.5579e-17
1.37363e-09
-5.52629e-19
2.7344e-18
-5.521e-19
3.40048e-19
-5.0173e-19
1.60796e-19
-4.50855e-19
4.21505e-20
-4.07781e-19
-3.1591e-20
-3.68182e-19
-8.5188e-20
-3.25282e-19
-1.31973e-19
-2.7423e-19
-1.76963e-19
-2.12943e-19
-2.19291e-19
-1.41672e-19
-2.56413e-19
-6.2242e-20
-2.85849e-19
2.26585e-20
-3.05872e-19
1.09999e-19
-3.15653e-19
1.9677e-19
-3.15172e-19
2.80208e-19
-3.05047e-19
3.57933e-19
-2.86341e-19
4.2801e-19
-2.60396e-19
4.88966e-19
-2.28687e-19
5.39775e-19
-1.92706e-19
5.79819e-19
-1.53879e-19
6.08839e-19
-1.13505e-19
6.26876e-19
-7.27239e-20
6.34217e-19
-3.24947e-20
6.31336e-19
6.40233e-21
6.18851e-19
4.33594e-20
5.97474e-19
7.79243e-20
5.67982e-19
1.09781e-19
5.3118e-19
1.38726e-19
4.87886e-19
1.64648e-19
4.38911e-19
1.87507e-19
3.85045e-19
2.07312e-19
3.27057e-19
2.24107e-19
2.65688e-19
2.37955e-19
2.01653e-19
2.48926e-19
1.35643e-19
2.57087e-19
6.83279e-20
2.62495e-19
2.65188e-19
-6.80863e-11
-2.20038e-10
-6.1438e-11
-1.61669e-10
-9.85084e-12
-6.05067e-11
-3.82085e-11
8.88474e-12
-1.01997e-10
3.69271e-12
-1.24471e-10
6.73076e-11
-1.17177e-10
2.67131e-10
-3.10724e-10
5.43068e-10
-5.77608e-10
7.18416e-10
-8.66201e-10
1.02905e-09
-1.34526e-09
1.4553e-09
-1.75433e-09
1.69227e-09
-2.03968e-09
1.84624e-09
-2.24195e-09
1.8055e-09
-2.38305e-09
1.70306e-09
-2.58864e-09
1.48655e-09
-2.72157e-09
1.16131e-09
-2.83826e-09
1.3409e-09
-2.98712e-09
1.29472e-09
-3.11771e-09
9.21288e-10
-3.20996e-09
1.01841e-09
-3.31503e-09
8.10843e-10
-3.43549e-09
6.51116e-10
-3.52473e-09
6.1573e-10
-3.55001e-09
3.1663e-10
-3.66278e-09
3.50751e-10
-3.71383e-09
3.11176e-10
-3.72955e-09
8.67342e-11
-3.7611e-09
1.17274e-10
-3.72378e-09
5.09228e-11
-3.69682e-09
-5.25772e-12
-3.64483e-09
-1.00032e-10
-3.58486e-09
-1.62588e-10
-3.53591e-09
-2.2924e-10
-3.55126e-09
-3.29777e-10
-3.5107e-09
-3.89784e-10
-3.46559e-09
-4.85743e-10
-3.46396e-09
-6.59209e-10
-3.37763e-09
-8.66985e-10
-3.5516e-09
-9.39295e-10
-3.30262e-09
-1.01475e-09
-3.19284e-09
-1.07643e-09
-2.96942e-09
-9.3071e-10
-2.86719e-09
-1.21217e-09
-2.68027e-09
-1.05656e-09
-2.50066e-09
-1.17494e-09
-2.32596e-09
-1.16147e-09
-2.1967e-09
-1.18149e-09
-2.09781e-09
-1.26972e-09
-1.85761e-09
-1.34537e-09
-1.53711e-09
-1.47642e-09
-1.30708e-09
-1.50243e-09
-1.11755e-09
-1.4781e-09
-8.29246e-10
-1.58775e-09
-6.30667e-10
-1.63339e-09
-3.6678e-10
-1.5857e-09
1.16208e-10
-1.49435e-09
4.27576e-10
-1.36371e-09
7.59497e-10
-1.139e-09
8.04131e-10
-5.16421e-10
9.97104e-10
-3.10356e-10
1.11113e-09
-1.74579e-10
1.2489e-09
6.66531e-11
1.34846e-09
2.13181e-10
1.43066e-09
2.59517e-10
1.46794e-09
4.52311e-10
1.46061e-09
6.11334e-10
1.43513e-09
6.47305e-10
1.39648e-09
7.07013e-10
1.32322e-09
6.73155e-10
1.21529e-09
5.91829e-10
1.14345e-09
5.1384e-10
1.09756e-09
3.4182e-10
1.03735e-09
2.14422e-10
9.59529e-10
1.40447e-10
8.61923e-10
9.12777e-12
7.50368e-10
-1.30487e-10
7.40124e-10
-1.73531e-10
7.04444e-10
-1.24815e-11
5.67387e-10
3.7368e-10
4.87192e-10
5.40895e-10
3.57313e-10
8.50662e-10
-3.40355e-18
1.73094e-09
-7.23228e-19
4.19489e-18
-7.30212e-19
3.46998e-19
-6.19308e-19
4.98655e-20
-5.23579e-19
-5.35823e-20
-4.60546e-19
-9.45998e-20
-4.14966e-19
-1.30697e-19
-3.70273e-19
-1.76541e-19
-3.16558e-19
-2.30492e-19
-2.50064e-19
-2.85541e-19
-1.71108e-19
-3.35078e-19
-8.2265e-20
-3.74378e-19
1.28771e-20
-4.00699e-19
1.1048e-19
-4.12958e-19
2.06895e-19
-4.11322e-19
2.98915e-19
-3.96836e-19
3.83878e-19
-3.71113e-19
4.59719e-19
-3.3608e-19
5.24947e-19
-2.93784e-19
5.78602e-19
-2.46244e-19
6.20193e-19
-1.95352e-19
6.49621e-19
-1.42801e-19
6.67105e-19
-9.0049e-20
6.73114e-19
-3.83051e-20
6.68293e-19
1.14668e-20
6.53416e-19
5.85316e-20
6.29331e-19
1.02357e-19
5.96927e-19
1.42587e-19
5.57103e-19
1.79005e-19
5.10745e-19
2.11511e-19
4.58716e-19
2.40089e-19
4.0184e-19
2.64782e-19
3.40905e-19
2.85672e-19
2.7666e-19
3.02862e-19
2.09815e-19
3.16457e-19
1.41051e-19
3.26556e-19
7.10206e-20
3.3324e-19
3.36566e-19
-1.01799e-10
-1.18242e-10
-1.78516e-10
-8.49585e-11
-1.47748e-10
-9.12803e-11
-9.50605e-11
-4.38072e-11
-6.79898e-11
-2.33826e-11
-1.49743e-10
1.49056e-10
-2.65355e-10
3.82739e-10
-5.45485e-10
8.23195e-10
-8.69683e-10
1.04261e-09
-1.19484e-09
1.35421e-09
-1.58887e-09
1.84932e-09
-1.8911e-09
1.9945e-09
-2.09868e-09
2.05382e-09
-2.29631e-09
2.00313e-09
-2.35615e-09
1.7629e-09
-2.5183e-09
1.6487e-09
-2.67043e-09
1.31345e-09
-2.7489e-09
1.41937e-09
-2.85996e-09
1.40579e-09
-2.9481e-09
1.00943e-09
-3.03607e-09
1.10639e-09
-3.14425e-09
9.19027e-10
-3.24474e-09
7.51605e-10
-3.28246e-09
6.53455e-10
-3.34294e-09
3.77115e-10
-3.4454e-09
4.53212e-10
-3.46715e-09
3.3293e-10
-3.50361e-09
1.23199e-10
-3.53118e-09
1.44846e-10
-3.47001e-09
-1.02493e-11
-3.4055e-09
-6.97605e-11
-3.43799e-09
-6.75406e-11
-3.34091e-09
-2.59671e-10
-3.30463e-09
-2.65518e-10
-3.32615e-09
-3.08254e-10
-3.3048e-09
-4.11139e-10
-3.33119e-09
-4.59343e-10
-3.31271e-09
-6.77693e-10
-3.31124e-09
-8.68454e-10
-3.33034e-09
-9.202e-10
-3.25543e-09
-1.08966e-09
-3.1675e-09
-1.16436e-09
-2.89091e-09
-1.20729e-09
-2.91266e-09
-1.19042e-09
-2.81059e-09
-1.15863e-09
-2.71574e-09
-1.26979e-09
-2.54109e-09
-1.33612e-09
-2.38914e-09
-1.33345e-09
-2.15998e-09
-1.49888e-09
-2.00839e-09
-1.49697e-09
-1.83893e-09
-1.64588e-09
-1.70903e-09
-1.63234e-09
-1.4632e-09
-1.72393e-09
-1.17657e-09
-1.87439e-09
-9.34927e-10
-1.87503e-09
-7.83145e-10
-1.73748e-09
-5.64541e-10
-1.71296e-09
-2.50136e-10
-1.67811e-09
1.36468e-10
-1.52561e-09
3.89888e-10
-7.69842e-10
4.89404e-10
-4.09873e-10
5.56797e-10
-2.41972e-10
7.39357e-10
-1.15908e-10
9.41188e-10
1.13497e-11
1.07901e-09
1.21698e-10
1.18172e-09
3.49596e-10
1.27931e-09
5.13749e-10
1.30325e-09
6.23363e-10
1.29124e-09
7.19016e-10
1.27488e-09
6.89514e-10
1.2312e-09
6.35516e-10
1.21884e-09
5.26194e-10
1.19407e-09
3.66589e-10
1.09496e-09
3.13532e-10
1.02335e-09
2.12056e-10
9.6091e-10
7.15718e-11
8.73643e-10
-4.32191e-11
7.85792e-10
-8.568e-11
6.71725e-10
1.01586e-10
5.61764e-10
4.8364e-10
5.4076e-10
5.61899e-10
3.82987e-10
1.00844e-09
-7.75727e-17
2.11393e-09
-1.39451e-18
5.85741e-18
-1.02623e-18
-2.1313e-20
-7.21729e-19
-2.54616e-19
-5.63616e-19
-2.11677e-19
-4.95931e-19
-1.62272e-19
-4.60811e-19
-1.65764e-19
-4.24224e-19
-2.1302e-19
-3.71607e-19
-2.82934e-19
-2.99602e-19
-3.57294e-19
-2.10408e-19
-4.23945e-19
-1.08586e-19
-4.75819e-19
6.18625e-22
-5.09493e-19
1.12116e-19
-5.24041e-19
2.21381e-19
-5.20191e-19
3.24637e-19
-4.99732e-19
4.18911e-19
-4.65073e-19
5.02015e-19
-4.18919e-19
5.72486e-19
-3.64033e-19
6.29494e-19
-3.03064e-19
6.72744e-19
-2.38434e-19
7.02373e-19
-1.72265e-19
7.18849e-19
-1.06348e-19
7.22886e-19
-4.21353e-20
7.15358e-19
1.9241e-20
6.97241e-19
7.69421e-20
6.6956e-19
1.30386e-19
6.33345e-19
1.79203e-19
5.89609e-19
2.23196e-19
5.39323e-19
2.62302e-19
4.83409e-19
2.96555e-19
4.2273e-19
3.26054e-19
3.58095e-19
3.50938e-19
2.90255e-19
3.71362e-19
2.19914e-19
3.87482e-19
1.47735e-19
3.99436e-19
7.43469e-20
4.07339e-19
4.11269e-19
-3.06223e-11
-8.76229e-11
-7.85568e-11
-3.70311e-11
-1.44152e-10
-2.56912e-11
-2.2078e-10
3.28155e-11
-2.91521e-10
4.73526e-11
-4.12272e-10
2.69803e-10
-6.07928e-10
5.7839e-10
-9.05557e-10
1.12082e-09
-1.24522e-09
1.38227e-09
-1.7207e-09
1.82968e-09
-2.0009e-09
2.12952e-09
-2.17695e-09
2.17055e-09
-2.23038e-09
2.10725e-09
-2.21193e-09
1.98468e-09
-2.28635e-09
1.83732e-09
-2.38784e-09
1.75019e-09
-2.56549e-09
1.4911e-09
-2.64061e-09
1.4945e-09
-2.68519e-09
1.45037e-09
-2.76351e-09
1.08775e-09
-2.83504e-09
1.17793e-09
-2.93332e-09
1.01731e-09
-2.99403e-09
8.12315e-10
-3.0301e-09
6.89528e-10
-3.12061e-09
4.67636e-10
-3.14328e-09
4.75878e-10
-3.15878e-09
3.48438e-10
-3.20992e-09
1.74339e-10
-3.20448e-09
1.39408e-10
-3.19691e-09
-1.78152e-11
-3.17731e-09
-8.93594e-11
-3.14842e-09
-9.64282e-11
-3.12109e-09
-2.87002e-10
-3.08564e-09
-3.00962e-10
-3.0519e-09
-3.41993e-10
-3.01938e-09
-4.43663e-10
-2.9978e-09
-4.80917e-10
-3.03532e-09
-6.40176e-10
-3.10284e-09
-8.00936e-10
-3.05291e-09
-9.70123e-10
-3.03503e-09
-1.10754e-09
-3.09179e-09
-1.1076e-09
-3.01773e-09
-1.28136e-09
-2.94008e-09
-1.26807e-09
-2.85446e-09
-1.24426e-09
-2.75243e-09
-1.37182e-09
-2.56479e-09
-1.52377e-09
-2.38495e-09
-1.51329e-09
-2.18049e-09
-1.70333e-09
-2.05403e-09
-1.62343e-09
-1.97628e-09
-1.72363e-09
-1.82644e-09
-1.78219e-09
-1.58134e-09
-1.96902e-09
-1.42979e-09
-2.02593e-09
-1.3258e-09
-1.97902e-09
-1.13191e-09
-1.93137e-09
-8.58512e-10
-1.98636e-09
-6.00647e-10
-1.93598e-09
-5.84162e-10
-1.54209e-09
-2.43098e-10
-1.11091e-09
1.02687e-10
-7.55659e-10
2.27614e-10
-3.66899e-10
3.62154e-10
-2.50449e-10
5.31489e-10
-1.57986e-10
6.5018e-10
3.00669e-12
7.78847e-10
2.20929e-10
9.1443e-10
3.78165e-10
9.89369e-10
5.48424e-10
1.07193e-09
6.36457e-10
1.0925e-09
6.68938e-10
1.11975e-09
6.08267e-10
1.15165e-09
4.94293e-10
1.12074e-09
3.97506e-10
1.05905e-09
3.75222e-10
1.03472e-09
2.36385e-10
9.97406e-10
1.08885e-10
9.38403e-10
1.57847e-11
7.8558e-10
6.71435e-11
6.0399e-10
2.83177e-10
4.66949e-10
6.20681e-10
3.34755e-10
6.94094e-10
3.98117e-10
9.45074e-10
-1.88537e-16
2.51204e-09
-2.59797e-18
7.02839e-18
-1.2585e-18
-1.36081e-18
-6.77841e-19
-8.35159e-19
-5.13287e-19
-3.76139e-19
-4.9885e-19
-1.76685e-19
-5.08067e-19
-1.56521e-19
-4.94138e-19
-2.26882e-19
-4.45966e-19
-3.30968e-19
-3.66253e-19
-4.36775e-19
-2.62282e-19
-5.27586e-19
-1.42261e-19
-5.9542e-19
-1.39292e-20
-6.3734e-19
1.15966e-19
-6.53416e-19
2.4184e-19
-6.45543e-19
3.59297e-19
-6.1669e-19
4.65065e-19
-5.70388e-19
5.56901e-19
-5.10358e-19
6.33455e-19
-4.40248e-19
6.94124e-19
-3.63451e-19
7.38913e-19
-2.82984e-19
7.6829e-19
-2.01429e-19
7.83062e-19
-1.20912e-19
7.84262e-19
-4.31135e-20
7.73059e-19
3.06956e-20
7.50685e-19
9.96113e-20
7.18377e-19
1.63039e-19
6.77339e-19
2.20639e-19
6.28715e-19
2.72271e-19
5.73576e-19
3.17944e-19
5.12907e-19
3.57772e-19
4.47614e-19
3.91938e-19
3.78519e-19
4.20659e-19
3.06374e-19
4.44163e-19
2.31868e-19
4.62668e-19
1.55637e-19
4.76365e-19
7.82768e-20
4.85406e-19
4.89898e-19
1.02552e-11
-9.7882e-11
-9.13117e-11
6.45281e-11
-1.79714e-10
6.27045e-11
-3.22577e-10
1.75673e-10
-6.0165e-10
3.26419e-10
-7.74291e-10
4.42438e-10
-1.05719e-09
8.6128e-10
-1.41209e-09
1.47572e-09
-1.60988e-09
1.58006e-09
-1.90743e-09
2.12723e-09
-2.04571e-09
2.2678e-09
-2.12591e-09
2.25074e-09
-2.15599e-09
2.13733e-09
-2.17521e-09
2.0039e-09
-2.22818e-09
1.89028e-09
-2.27734e-09
1.79935e-09
-2.41012e-09
1.62388e-09
-2.44105e-09
1.52543e-09
-2.49505e-09
1.50438e-09
-2.63201e-09
1.22471e-09
-2.66229e-09
1.20822e-09
-2.69376e-09
1.04878e-09
-2.69224e-09
8.10792e-10
-2.7224e-09
7.1969e-10
-2.79701e-09
5.42245e-10
-2.82538e-09
5.04256e-10
-2.83191e-09
3.54967e-10
-2.88247e-09
2.24902e-10
-2.88816e-09
1.45103e-10
-2.89419e-09
-1.17797e-11
-2.8972e-09
-8.63446e-11
-2.83544e-09
-1.58186e-10
-2.85263e-09
-2.69817e-10
-2.82744e-09
-3.26149e-10
-2.76182e-09
-4.0761e-10
-2.73866e-09
-4.66822e-10
-2.70592e-09
-5.13658e-10
-2.78778e-09
-5.58315e-10
-2.81624e-09
-7.72477e-10
-2.7856e-09
-1.00076e-09
-2.85847e-09
-1.03467e-09
-2.88065e-09
-1.08542e-09
-2.8455e-09
-1.31651e-09
-2.92382e-09
-1.18975e-09
-2.80018e-09
-1.3679e-09
-2.68298e-09
-1.48903e-09
-2.50372e-09
-1.70304e-09
-2.33336e-09
-1.68364e-09
-2.17971e-09
-1.85699e-09
-2.041e-09
-1.76214e-09
-1.93288e-09
-1.83175e-09
-1.83222e-09
-1.88285e-09
-1.75177e-09
-2.04948e-09
-1.65832e-09
-2.11938e-09
-1.45764e-09
-2.1797e-09
-1.15316e-09
-2.23586e-09
-1.01577e-09
-2.12374e-09
-1.041e-09
-1.91075e-09
-9.99638e-10
-1.58345e-09
-6.52947e-10
-1.4576e-09
-3.42716e-10
-1.06589e-09
-1.45044e-10
-5.64572e-10
2.10077e-11
-4.16501e-10
1.07352e-10
-2.44331e-10
2.16881e-10
-1.06523e-10
3.72221e-10
6.55883e-11
5.19925e-10
2.30461e-10
6.67353e-10
4.00995e-10
7.69748e-10
5.34062e-10
8.10971e-10
6.27714e-10
8.81137e-10
5.38101e-10
9.29337e-10
4.46092e-10
9.09086e-10
4.17757e-10
9.29051e-10
3.55257e-10
9.37276e-10
2.28161e-10
9.15226e-10
1.30936e-10
8.21991e-10
1.0902e-10
6.12801e-10
2.76335e-10
4.89769e-10
4.06209e-10
4.31802e-10
6.78649e-10
2.66293e-10
8.59604e-10
3.76335e-10
8.35033e-10
-3.14031e-16
2.88838e-09
-3.46448e-18
6.23203e-18
-7.32039e-19
-4.09323e-18
-2.18004e-19
-1.34893e-18
-3.12978e-19
-2.80932e-19
-4.78265e-19
-1.12966e-20
-5.78428e-19
-5.63158e-20
-5.98224e-19
-2.07052e-19
-5.51772e-19
-3.77343e-19
-4.57064e-19
-5.31316e-19
-3.30115e-19
-6.54249e-19
-1.84181e-19
-7.40945e-19
-3.00056e-20
-7.91e-19
1.23838e-19
-8.06671e-19
2.70693e-19
-7.91772e-19
4.05599e-19
-7.5097e-19
5.25095e-19
-6.89289e-19
6.27011e-19
-6.11733e-19
7.10252e-19
-5.23017e-19
7.74591e-19
-4.27391e-19
8.20468e-19
-3.28528e-19
8.48808e-19
-2.29486e-19
8.6086e-19
-1.32711e-19
8.58071e-19
-4.00771e-20
8.41975e-19
4.7056e-20
8.14113e-19
1.27771e-19
7.75977e-19
2.01519e-19
7.2897e-19
2.68041e-19
6.74388e-19
3.27301e-19
6.13404e-19
3.79426e-19
5.47073e-19
4.24648e-19
4.76335e-19
4.63263e-19
4.02023e-19
4.95593e-19
3.24879e-19
5.2196e-19
2.45565e-19
5.42658e-19
1.64678e-19
5.57944e-19
8.27691e-20
5.68017e-19
5.73017e-19
-1.79272e-10
8.13861e-11
-3.60031e-10
2.45278e-10
-4.68745e-10
1.71412e-10
-4.68668e-10
1.75589e-10
-7.25116e-10
5.82862e-10
-1.07067e-09
7.8799e-10
-1.31688e-09
1.10748e-09
-1.67621e-09
1.83505e-09
-1.95107e-09
1.85491e-09
-2.05399e-09
2.23015e-09
-2.10332e-09
2.31712e-09
-2.15101e-09
2.29843e-09
-2.17043e-09
2.15675e-09
-2.15803e-09
1.9915e-09
-2.15281e-09
1.88506e-09
-2.17159e-09
1.81813e-09
-2.24491e-09
1.69721e-09
-2.27375e-09
1.55427e-09
-2.23784e-09
1.46846e-09
-2.3238e-09
1.31067e-09
-2.36134e-09
1.24577e-09
-2.41783e-09
1.10527e-09
-2.49389e-09
8.86859e-10
-2.46808e-09
6.93874e-10
-2.51558e-09
5.89753e-10
-2.49813e-09
4.86808e-10
-2.48478e-09
3.41614e-10
-2.51961e-09
2.5974e-10
-2.5524e-09
1.77894e-10
-2.56577e-09
1.58818e-12
-2.58349e-09
-6.86165e-11
-2.58383e-09
-1.57848e-10
-2.54099e-09
-3.12653e-10
-2.51609e-09
-3.51054e-10
-2.52181e-09
-4.0188e-10
-2.52586e-09
-4.62772e-10
-2.491e-09
-5.48523e-10
-2.42484e-09
-6.24467e-10
-2.38893e-09
-8.08386e-10
-2.40815e-09
-9.81537e-10
-2.52311e-09
-9.19718e-10
-2.65808e-09
-9.50456e-10
-2.6921e-09
-1.28249e-09
-2.78793e-09
-1.09392e-09
-2.73098e-09
-1.42486e-09
-2.585e-09
-1.63501e-09
-2.42777e-09
-1.86027e-09
-2.27415e-09
-1.83727e-09
-2.16976e-09
-1.96137e-09
-2.01098e-09
-1.92093e-09
-1.91404e-09
-1.9287e-09
-1.82653e-09
-1.97037e-09
-1.78153e-09
-2.09448e-09
-1.71615e-09
-2.18476e-09
-1.60261e-09
-2.29324e-09
-1.47551e-09
-2.36296e-09
-1.37207e-09
-2.22719e-09
-1.28954e-09
-1.99327e-09
-1.05743e-09
-1.81557e-09
-9.54765e-10
-1.56026e-09
-8.60266e-10
-1.16039e-09
-6.22763e-10
-8.02075e-10
-3.98103e-10
-6.41162e-10
-2.45421e-10
-3.97014e-10
-1.27284e-10
-2.2466e-10
1.1449e-11
-7.31447e-11
1.18996e-10
1.22913e-10
2.11983e-10
3.08008e-10
3.05507e-10
4.40538e-10
4.85748e-10
4.47473e-10
6.13518e-10
4.1033e-10
6.59493e-10
4.00118e-10
6.81585e-10
3.95665e-10
7.20171e-10
3.16671e-10
7.43095e-10
2.05237e-10
7.24893e-10
1.49139e-10
6.28135e-10
2.05778e-10
5.26649e-10
3.77822e-10
4.79028e-10
4.53831e-10
4.20604e-10
7.37075e-10
2.62625e-10
1.01758e-09
1.2946e-10
9.68199e-10
-4.80672e-16
3.01784e-09
6.24924e-19
-2.2478e-17
2.01263e-18
-5.48085e-18
8.50656e-19
-1.86457e-19
-4.25428e-20
6.12701e-19
-5.23013e-19
4.6941e-19
-7.29165e-19
1.49944e-19
-7.68515e-19
-1.67667e-19
-7.05745e-19
-4.40094e-19
-5.79997e-19
-6.56991e-19
-4.16812e-19
-8.17243e-19
-2.34235e-19
-9.23188e-19
-4.56763e-20
-9.79077e-19
1.38737e-19
-9.90482e-19
3.11494e-19
-9.63845e-19
4.6728e-19
-9.06035e-19
6.02652e-19
-8.23943e-19
7.15726e-19
-7.24127e-19
8.05878e-19
-6.12554e-19
8.73454e-19
-4.94433e-19
9.19511e-19
-3.74134e-19
9.45582e-19
-2.55183e-19
9.53494e-19
-1.40304e-19
9.45204e-19
-3.14995e-20
9.2269e-19
6.98548e-20
8.8786e-19
1.62906e-19
8.42499e-19
2.47223e-19
7.88231e-19
3.22698e-19
7.26513e-19
3.8946e-19
6.58626e-19
4.47805e-19
5.85688e-19
4.98125e-19
5.08665e-19
5.40867e-19
4.2839e-19
5.76486e-19
3.45578e-19
6.05418e-19
2.6085e-19
6.28055e-19
1.74752e-19
6.44728e-19
8.77692e-20
6.55694e-19
6.61131e-19
-1.93153e-10
2.74534e-10
-4.03451e-10
4.55568e-10
-6.31403e-10
3.99357e-10
-6.67771e-10
2.11951e-10
-7.16974e-10
6.32058e-10
-1.20755e-09
1.27856e-09
-1.47468e-09
1.3746e-09
-1.69233e-09
2.0527e-09
-1.98997e-09
2.15255e-09
-2.00689e-09
2.24707e-09
-2.01368e-09
2.32391e-09
-1.98538e-09
2.27013e-09
-1.96419e-09
2.13556e-09
-1.98233e-09
2.00964e-09
-2.02449e-09
1.92723e-09
-2.02198e-09
1.81562e-09
-2.0557e-09
1.73092e-09
-2.09377e-09
1.59234e-09
-2.09875e-09
1.47344e-09
-2.1462e-09
1.35813e-09
-2.16223e-09
1.2618e-09
-2.16495e-09
1.10799e-09
-2.16078e-09
8.82691e-10
-2.12924e-09
6.62334e-10
-2.11134e-09
5.71858e-10
-2.13397e-09
5.09441e-10
-2.21886e-09
4.26503e-10
-2.20302e-09
2.43904e-10
-2.20281e-09
1.77681e-10
-2.22123e-09
2.00136e-11
-2.23041e-09
-5.94416e-11
-2.17486e-09
-2.13393e-10
-2.23548e-09
-2.52033e-10
-2.19196e-09
-3.94573e-10
-2.19935e-09
-3.94481e-10
-2.18931e-09
-4.72817e-10
-2.17067e-09
-5.67153e-10
-2.18463e-09
-6.10514e-10
-2.25528e-09
-7.37732e-10
-2.23815e-09
-9.98668e-10
-2.20905e-09
-9.48817e-10
-2.18402e-09
-9.75486e-10
-2.41392e-09
-1.05259e-09
-2.29954e-09
-1.2083e-09
-2.39474e-09
-1.32966e-09
-2.32754e-09
-1.70221e-09
-2.32802e-09
-1.85979e-09
-2.19355e-09
-1.97175e-09
-2.10924e-09
-2.04568e-09
-1.94682e-09
-2.08334e-09
-1.83723e-09
-2.0383e-09
-1.7583e-09
-2.0493e-09
-1.77223e-09
-2.08056e-09
-1.7444e-09
-2.21259e-09
-1.71016e-09
-2.32748e-09
-1.68425e-09
-2.38887e-09
-1.50379e-09
-2.40765e-09
-1.28172e-09
-2.21534e-09
-1.21625e-09
-1.88104e-09
-1.21618e-09
-1.56033e-09
-1.12206e-09
-1.25451e-09
-9.27919e-10
-9.96214e-10
-8.31914e-10
-7.37167e-10
-7.54694e-10
-4.74234e-10
-6.308e-10
-3.48555e-10
-5.00488e-10
-2.03456e-10
-3.2496e-10
-5.26154e-11
-1.0841e-10
9.14582e-11
9.2778e-11
2.39349e-10
2.1028e-10
3.29971e-10
2.27882e-10
3.92728e-10
2.76173e-10
3.51828e-10
3.8261e-10
2.89228e-10
4.84805e-10
2.14476e-10
5.52235e-10
1.37808e-10
5.36169e-10
1.65205e-10
4.87714e-10
2.54234e-10
4.69533e-10
3.96004e-10
4.41259e-10
4.82106e-10
3.34831e-10
8.43504e-10
2.59528e-10
1.09289e-09
3.54949e-10
8.7278e-10
6.47022e-11
3.30809e-09
2.94169e-17
6.47027e-11
7.19574e-18
1.67419e-17
1.65043e-18
5.35955e-18
-1.85018e-19
2.4487e-18
-8.42338e-19
1.12708e-18
-1.04678e-18
3.54578e-19
-1.04094e-18
-1.73433e-19
-9.22642e-19
-5.58411e-19
-7.40249e-19
-8.39406e-19
-5.22757e-19
-1.03468e-18
-2.90124e-19
-1.15561e-18
-5.7082e-20
-1.21174e-18
1.65375e-19
-1.21239e-18
3.69304e-19
-1.1671e-18
5.49373e-19
-1.08534e-18
7.02468e-19
-9.76237e-19
8.27299e-19
-8.48163e-19
9.23999e-19
-7.08504e-19
9.93753e-19
-5.63512e-19
1.03846e-18
-4.1826e-19
1.06046e-18
-2.76695e-19
1.0623e-18