/*--------------------------------*- C++ -*----------------------------------*\
  =========                 |
  \\      /  F ield         | OpenFOAM: The Open Source CFD Toolbox
   \\    /   O peration     | Website:  https://openfoam.org
    \\  /    A nd           | Version:  6
     \\/     M anipulation  |
\*---------------------------------------------------------------------------*/
FoamFile
{
    version     2.0;
    format      ascii;
    class       volScalarField;
    location    "4000";
    object      T;
}
// * * * * * * * * * * * * * * * * * * * * * * * * * * * * * * * * * * * * * //

dimensions      [0 0 0 1 0 0 0];

internalField   nonuniform List<scalar> 
4800
(
552.491
552.372
552.254
552.135
552.017
551.9
551.784
551.669
551.555
551.442
551.333
551.226
551.124
551.028
550.937
550.854
550.778
550.711
550.651
550.597
550.55
550.508
550.47
550.436
550.405
550.376
550.349
550.323
550.298
550.273
550.249
550.224
550.199
550.174
550.148
550.121
550.093
550.065
550.034
550.003
549.969
549.934
549.897
549.858
549.816
549.773
549.728
549.681
549.631
549.579
549.525
549.469
549.41
549.349
549.285
549.218
549.148
549.074
548.996
548.912
548.823
548.727
548.625
548.516
548.4
548.278
548.149
548.013
547.871
547.724
547.573
547.417
547.258
547.097
546.933
546.766
546.598
546.427
546.253
546.076
545.896
545.715
545.535
545.358
545.187
545.021
544.86
544.704
544.553
544.404
544.259
544.117
543.977
543.84
543.704
543.57
543.438
543.308
543.178
543.05
542.923
542.797
542.672
542.548
542.424
542.301
542.178
542.056
541.934
541.813
541.692
541.571
541.45
541.33
541.21
541.09
540.97
540.85
540.73
540.61
552.49
552.371
552.252
552.133
552.015
551.897
551.781
551.665
551.551
551.438
551.328
551.222
551.121
551.025
550.935
550.853
550.779
550.713
550.653
550.6
550.554
550.512
550.475
550.441
550.41
550.382
550.355
550.329
550.305
550.28
550.256
550.231
550.207
550.181
550.156
550.129
550.101
550.072
550.042
550.01
549.976
549.941
549.903
549.864
549.822
549.778
549.732
549.684
549.633
549.581
549.526
549.468
549.409
549.346
549.282
549.214
549.143
549.068
548.99
548.906
548.817
548.721
548.619
548.511
548.396
548.273
548.145
548.009
547.867
547.721
547.569
547.413
547.255
547.093
546.928
546.762
546.593
546.421
546.247
546.07
545.89
545.709
545.529
545.352
545.181
545.016
544.856
544.701
544.549
544.402
544.257
544.115
543.976
543.839
543.703
543.57
543.438
543.307
543.178
543.05
542.923
542.797
542.672
542.548
542.424
542.301
542.178
542.056
541.934
541.813
541.692
541.571
541.45
541.33
541.21
541.09
540.97
540.85
540.73
540.61
552.49
552.37
552.25
552.13
552.011
551.893
551.775
551.659
551.544
551.432
551.322
551.217
551.116
551.021
550.934
550.854
550.782
550.717
550.659
550.608
550.562
550.521
550.485
550.451
550.421
550.393
550.367
550.342
550.317
550.293
550.269
550.245
550.221
550.196
550.17
550.144
550.116
550.087
550.057
550.025
549.99
549.954
549.916
549.876
549.833
549.788
549.741
549.69
549.638
549.584
549.527
549.467
549.405
549.341
549.274
549.205
549.132
549.056
548.976
548.891
548.802
548.707
548.605
548.497
548.383
548.262
548.134
548
547.859
547.713
547.562
547.406
547.248
547.086
546.921
546.754
546.584
546.411
546.236
546.058
545.878
545.697
545.517
545.34
545.17
545.006
544.847
544.693
544.543
544.397
544.253
544.112
543.973
543.837
543.702
543.568
543.437
543.306
543.177
543.049
542.923
542.797
542.672
542.547
542.424
542.301
542.178
542.056
541.934
541.813
541.692
541.571
541.45
541.33
541.21
541.09
540.97
540.85
540.73
540.61
552.489
552.368
552.247
552.126
552.006
551.886
551.768
551.651
551.536
551.424
551.315
551.211
551.112
551.019
550.934
550.857
550.787
550.725
550.668
550.619
550.574
550.534
550.499
550.467
550.437
550.41
550.384
550.359
550.335
550.312
550.289
550.265
550.242
550.217
550.192
550.166
550.138
550.109
550.079
550.046
550.011
549.974
549.935
549.894
549.849
549.803
549.753
549.701
549.647
549.589
549.53
549.467
549.402
549.334
549.264
549.192
549.116
549.038
548.956
548.87
548.779
548.684
548.582
548.475
548.362
548.242
548.116
547.983
547.844
547.7
547.55
547.395
547.237
547.075
546.91
546.742
546.571
546.398
546.221
546.042
545.861
545.679
545.498
545.321
545.152
544.99
544.833
544.682
544.534
544.39
544.248
544.108
543.97
543.834
543.699
543.566
543.435
543.305
543.176
543.048
542.922
542.796
542.671
542.547
542.423
542.3
542.178
542.056
541.934
541.813
541.692
541.571
541.45
541.33
541.21
541.09
540.97
540.85
540.73
540.61
552.488
552.365
552.242
552.121
551.999
551.879
551.761
551.644
551.529
551.417
551.309
551.206
551.109
551.02
550.938
550.864
550.796
550.736
550.682
550.634
550.591
550.552
550.518
550.486
550.458
550.431
550.406
550.382
550.359
550.337
550.314
550.291
550.268
550.245
550.22
550.194
550.167
550.138
550.107
550.074
550.039
550.001
549.961
549.918
549.872
549.823
549.772
549.717
549.66
549.599
549.536
549.47
549.4
549.329
549.254
549.177
549.098
549.016
548.931
548.843
548.75
548.653
548.551
548.444
548.331
548.213
548.089
547.958
547.821
547.679
547.531
547.378
547.221
547.06
546.895
546.726
546.554
546.379
546.201
546.02
545.837
545.654
545.472
545.294
545.126
544.967
544.814
544.666
544.522
544.38
544.24
544.102
543.965
543.83
543.696
543.564
543.433
543.303
543.175
543.047
542.921
542.795
542.67
542.546
542.423
542.3
542.177
542.055
541.934
541.812
541.691
541.571
541.45
541.33
541.21
541.089
540.969
540.85
540.73
540.61
552.487
552.362
552.238
552.115
551.993
551.872
551.752
551.635
551.52
551.409
551.303
551.203
551.11
551.024
550.945
550.874
550.809
550.751
550.699
550.653
550.611
550.574
550.541
550.511
550.483
550.458
550.434
550.411
550.389
550.367
550.345
550.323
550.301
550.278
550.254
550.228
550.201
550.173
550.142
550.109
550.073
550.035
549.993
549.949
549.901
549.85
549.796
549.739
549.678
549.614
549.547
549.476
549.402
549.326
549.246
549.164
549.079
548.992
548.903
548.812
548.717
548.618
548.514
548.406
548.294
548.176
548.053
547.924
547.789
547.649
547.503
547.352
547.196
547.036
546.872
546.704
546.531
546.355
546.175
545.992
545.806
545.62
545.436
545.256
545.091
544.937
544.79
544.647
544.507
544.368
544.231
544.095
543.96
543.825
543.693
543.561
543.431
543.301
543.173
543.046
542.92
542.794
542.669
542.545
542.422
542.299
542.177
542.055
541.933
541.812
541.691
541.57
541.45
541.33
541.209
541.089
540.969
540.85
540.73
540.61
552.487
552.36
552.234
552.109
551.986
551.864
551.744
551.627
551.513
551.403
551.3
551.203
551.114
551.031
550.956
550.888
550.826
550.77
550.721
550.676
550.637
550.601
550.569
550.541
550.514
550.49
550.467
550.445
550.424
550.403
550.382
550.361
550.34
550.318
550.294
550.269
550.243
550.214
550.184
550.15
550.114
550.075
550.032
549.986
549.937
549.884
549.828
549.768
549.704
549.636
549.564
549.488
549.409
549.327
549.242
549.153
549.063
548.97
548.876
548.779
548.681
548.579
548.473
548.363
548.249
548.131
548.009
547.881
547.748
547.609
547.465
547.316
547.163
547.004
546.841
546.674
546.501
546.324
546.143
545.957
545.767
545.575
545.385
545.201
545.042
544.898
544.76
544.625
544.49
544.356
544.221
544.087
543.953
543.82
543.689
543.558
543.428
543.299
543.171
543.044
542.918
542.793
542.668
542.545
542.421
542.299
542.176
542.055
541.933
541.812
541.691
541.57
541.45
541.329
541.209
541.089
540.969
540.849
540.73
540.61
552.486
552.358
552.231
552.105
551.98
551.857
551.736
551.62
551.508
551.401
551.301
551.208
551.122
551.044
550.972
550.907
550.848
550.795
550.747
550.705
550.667
550.633
550.603
550.575
550.55
550.527
550.505
550.485
550.465
550.445
550.425
550.405
550.385
550.363
550.34
550.316
550.29
550.262
550.232
550.199
550.162
550.122
550.078
550.031
549.98
549.925
549.866
549.803
549.736
549.664
549.587
549.507
549.422
549.333
549.242
549.147
549.05
548.951
548.85
548.748
548.644
548.538
548.429
548.316
548.2
548.081
547.958
547.83
547.698
547.561
547.419
547.272
547.12
546.963
546.802
546.636
546.464
546.287
546.105
545.916
545.721
545.52
545.315
545.115
544.974
544.85
544.727
544.601
544.473
544.342
544.211
544.079
543.947
543.815
543.684
543.554
543.425
543.296
543.169
543.042
542.917
542.792
542.667
542.544
542.421
542.298
542.176
542.054
541.933
541.811
541.691
541.57
541.45
541.329
541.209
541.089
540.969
540.849
540.73
540.61
552.485
552.356
552.228
552.101
551.975
551.852
551.733
551.617
551.507
551.404
551.308
551.218
551.137
551.062
550.993
550.931
550.875
550.824
550.779
550.739
550.703
550.671
550.642
550.616
550.592
550.57
550.55
550.53
550.511
550.493
550.474
550.455
550.435
550.415
550.393
550.369
550.344
550.316
550.286
550.253
550.216
550.176
550.131
550.083
550.03
549.974
549.912
549.846
549.775
549.699
549.617
549.531
549.441
549.346
549.247
549.146
549.042
548.935
548.828
548.719
548.608
548.497
548.383
548.267
548.148
548.026
547.902
547.774
547.642
547.505
547.364
547.219
547.069
546.914
546.755
546.59
546.421
546.245
546.063
545.873
545.672
545.455
545.218
544.965
544.882
544.796
544.693
544.578
544.456
544.329
544.2
544.07
543.94
543.809
543.679
543.55
543.421
543.293
543.166
543.04
542.915
542.79
542.666
542.543
542.42
542.297
542.175
542.053
541.932
541.811
541.69
541.57
541.449
541.329
541.209
541.089
540.969
540.849
540.73
540.61
552.485
552.355
552.226
552.099
551.974
551.852
551.733
551.62
551.513
551.413
551.321
551.235
551.157
551.086
551.02
550.961
550.908
550.86
550.817
550.779
550.745
550.714
550.687
550.663
550.64
550.62
550.6
550.582
550.564
550.547
550.529
550.511
550.493
550.473
550.452
550.429
550.404
550.377
550.348
550.315
550.277
550.236
550.191
550.142
550.088
550.029
549.965
549.896
549.821
549.74
549.654
549.563
549.466
549.365
549.259
549.15
549.038
548.924
548.809
548.693
548.575
548.457
548.338
548.217
548.094
547.969
547.842
547.713
547.58
547.444
547.304
547.16
547.011
546.859
546.701
546.54
546.373
546.2
546.02
545.831
545.628
545.399
545.111
544.631
544.785
544.755
544.668
544.56
544.441
544.318
544.191
544.062
543.933
543.804
543.674
543.546
543.418
543.29
543.164
543.038
542.913
542.789
542.665
542.541
542.419
542.296
542.174
542.053
541.932
541.811
541.69
541.569
541.449
541.329
541.209
541.089
540.969
540.849
540.73
540.61
552.485
552.356
552.228
552.101
551.976
551.855
551.739
551.629
551.526
551.429
551.341
551.259
551.184
551.116
551.054
550.998
550.948
550.902
550.862
550.826
550.794
550.765
550.74
550.717
550.696
550.676
550.658
550.641
550.624
550.608
550.591
550.574
550.556
550.538
550.517
550.495
550.471
550.445
550.415
550.383
550.345
550.304
550.258
550.208
550.152
550.092
550.025
549.952
549.874
549.789
549.698
549.601
549.498
549.39
549.277
549.16
549.041
548.918
548.795
548.671
548.546
548.42
548.294
548.168
548.04
547.911
547.781
547.649
547.515
547.378
547.238
547.095
546.948
546.798
546.643
546.484
546.32
546.151
545.976
545.792
545.598
545.39
545.175
545.015
544.866
544.765
544.662
544.55
544.431
544.308
544.182
544.055
543.926
543.798
543.669
543.541
543.414
543.287
543.161
543.036
542.911
542.787
542.663
542.54
542.418
542.296
542.174
542.052
541.931
541.81
541.69
541.569
541.449
541.329
541.209
541.089
540.969
540.849
540.729
540.61
552.486
552.359
552.232
552.106
551.983
551.865
551.752
551.645
551.546
551.454
551.369
551.291
551.22
551.155
551.096
551.043
550.995
550.952
550.914
550.88
550.85
550.824
550.8
550.778
550.759
550.741
550.723
550.707
550.692
550.676
550.661
550.645
550.628
550.61
550.59
550.569
550.546
550.519
550.49
550.457
550.42
550.378
550.332
550.28
550.223
550.16
550.091
550.015
549.932
549.843
549.747
549.645
549.536
549.421
549.302
549.177
549.049
548.918
548.786
548.653
548.52
548.387
548.253
548.12
547.987
547.853
547.719
547.584
547.448
547.31
547.17
547.027
546.881
546.732
546.58
546.424
546.265
546.101
545.932
545.756
545.574
545.387
545.202
545.042
544.9
544.778
544.662
544.544
544.423
544.3
544.174
544.047
543.92
543.792
543.664
543.537
543.41
543.284
543.158
543.033
542.909
542.785
542.662
542.539
542.417
542.295
542.173
542.052
541.931
541.81
541.689
541.569
541.449
541.328
541.208
541.089
540.969
540.849
540.729
540.61
552.487
552.362
552.238
552.116
551.997
551.881
551.772
551.669
551.574
551.485
551.404
551.331
551.263
551.202
551.147
551.097
551.052
551.011
550.976
550.944
550.916
550.891
550.869
550.849
550.831
550.814
550.798
550.783
550.768
550.753
550.739
550.723
550.707
550.69
550.671
550.65
550.627
550.601
550.572
550.539
550.501
550.459
550.411
550.358
550.3
550.235
550.162
550.083
549.997
549.903
549.802
549.694
549.579
549.458
549.332
549.199
549.063
548.923
548.782
548.64
548.498
548.356
548.215
548.075
547.936
547.797
547.658
547.519
547.38
547.24
547.099
546.956
546.811
546.664
546.515
546.362
546.207
546.049
545.887
545.721
545.551
545.379
545.212
545.057
544.916
544.786
544.662
544.54
544.417
544.292
544.166
544.04
543.913
543.786
543.659
543.532
543.406
543.281
543.155
543.031
542.907
542.783
542.66
542.538
542.416
542.294
542.172
542.051
541.93
541.809
541.689
541.568
541.448
541.328
541.208
541.088
540.969
540.849
540.729
540.61
552.489
552.367
552.247
552.129
552.014
551.904
551.799
551.701
551.61
551.527
551.45
551.38
551.317
551.259
551.207
551.16
551.118
551.081
551.048
551.018
550.993
550.969
550.949
550.93
550.913
550.897
550.882
550.868
550.854
550.84
550.826
550.811
550.795
550.778
550.76
550.739
550.717
550.691
550.661
550.627
550.589
550.546
550.497
550.442
550.382
550.314
550.239
550.157
550.067
549.968
549.862
549.748
549.627
549.5
549.366
549.227
549.082
548.933
548.782
548.631
548.479
548.329
548.179
548.032
547.885
547.74
547.596
547.453
547.311
547.168
547.025
546.882
546.738
546.593
546.446
546.298
546.147
545.995
545.841
545.684
545.525
545.365
545.209
545.061
544.92
544.788
544.66
544.534
544.409
544.284
544.158
544.032
543.906
543.779
543.653
543.527
543.402
543.277
543.152
543.028
542.905
542.782
542.659
542.537
542.415
542.293
542.171
542.05
541.929
541.809
541.688
541.568
541.448
541.328
541.208
541.088
540.969
540.849
540.729
540.61
552.492
552.375
552.26
552.147
552.038
551.933
551.834
551.741
551.656
551.577
551.505
551.44
551.381
551.327
551.279
551.235
551.197
551.162
551.132
551.105
551.081
551.059
551.04
551.023
551.007
550.992
550.978
550.965
550.952
550.938
550.925
550.91
550.894
550.877
550.858
550.838
550.814
550.788
550.758
550.723
550.683
550.639
550.589
550.532
550.469
550.399
550.321
550.234
550.14
550.037
549.926
549.807
549.68
549.546
549.405
549.258
549.105
548.947
548.787
548.625
548.464
548.304
548.145
547.989
547.835
547.684
547.534
547.386
547.24
547.094
546.95
546.806
546.663
546.519
546.375
546.231
546.085
545.938
545.791
545.643
545.493
545.344
545.197
545.054
544.915
544.782
544.652
544.525
544.399
544.274
544.149
544.023
543.898
543.772
543.647
543.522
543.397
543.273
543.149
543.026
542.903
542.78
542.657
542.535
542.413
542.292
542.171
542.05
541.929
541.808
541.688
541.568
541.448
541.328
541.208
541.088
540.969
540.849
540.729
540.61
552.495
552.385
552.277
552.172
552.069
551.971
551.878
551.791
551.711
551.638
551.571
551.511
551.456
551.407
551.363
551.324
551.288
551.257
551.229
551.204
551.183
551.163
551.146
551.129
551.115
551.101
551.088
551.075
551.062
551.049
551.035
551.02
551.004
550.986
550.967
550.945
550.921
550.894
550.862
550.826
550.785
550.739
550.686
550.627
550.561
550.488
550.406
550.316
550.217
550.11
549.993
549.869
549.736
549.595
549.447
549.292
549.131
548.965
548.794
548.623
548.451
548.281
548.113
547.948
547.786
547.628
547.472
547.319
547.168
547.02
546.873
546.728
546.585
546.443
546.302
546.161
546.02
545.879
545.737
545.596
545.455
545.315
545.176
545.038
544.902
544.769
544.639
544.512
544.386
544.262
544.137
544.013
543.889
543.765
543.641
543.517
543.393
543.269
543.146
543.023
542.9
542.778
542.656
542.534
542.412
542.291
542.17
542.049
541.928
541.808
541.688
541.567
541.447
541.328
541.208
541.088
540.968
540.849
540.729
540.61
552.5
552.399
552.3
552.202
552.108
552.017
551.931
551.852
551.778
551.711
551.651
551.596
551.546
551.502
551.462
551.427
551.395
551.367
551.342
551.32
551.3
551.283
551.266
551.251
551.237
551.224
551.211
551.198
551.185
551.172
551.158
551.142
551.125
551.107
551.086
551.063
551.037
551.008
550.974
550.936
550.893
550.844
550.789
550.727
550.658
550.581
550.495
550.401
550.298
550.185
550.064
549.933
549.793
549.645
549.49
549.329
549.16
548.985
548.805
548.624
548.442
548.262
548.084
547.91
547.739
547.573
547.411
547.253
547.097
546.945
546.796
546.65
546.507
546.366
546.227
546.089
545.952
545.815
545.679
545.545
545.411
545.278
545.146
545.014
544.885
544.75
544.62
544.494
544.37
544.247
544.124
544.002
543.879
543.756
543.634
543.511
543.388
543.265
543.143
543.02
542.898
542.776
542.654
542.533
542.411
542.29
542.169
542.048
541.928
541.808
541.687
541.567
541.447
541.327
541.208
541.088
540.968
540.849
540.729
540.61
552.505
552.415
552.327
552.239
552.154
552.073
551.996
551.924
551.858
551.798
551.744
551.696
551.652
551.613
551.578
551.547
551.519
551.495
551.472
551.453
551.435
551.418
551.403
551.389
551.375
551.362
551.349
551.336
551.323
551.309
551.294
551.277
551.259
551.238
551.216
551.19
551.162
551.13
551.094
551.054
551.008
550.956
550.898
550.832
550.759
550.678
550.589
550.49
550.382
550.264
550.137
549.999
549.853
549.698
549.536
549.367
549.19
549.007
548.818
548.628
548.437
548.246
548.058
547.874
547.695
547.521
547.352
547.188
547.028
546.872
546.719
546.572
546.428
546.288
546.151
546.016
545.882
545.749
545.617
545.487
545.359
545.232
545.106
544.982
544.871
544.725
544.594
544.47
544.349
544.229
544.109
543.989
543.868
543.747
543.626
543.504
543.383
543.261
543.139
543.017
542.896
542.774
542.653
542.531
542.41
542.289
542.169
542.048
541.927
541.807
541.687
541.567
541.447
541.327
541.207
541.088
540.968
540.849
540.729
540.61
552.512
552.435
552.359
552.284
552.211
552.14
552.073
552.01
551.953
551.902
551.855
551.813
551.776
551.743
551.713
551.686
551.662
551.641
551.621
551.603
551.587
551.571
551.556
551.542
551.529
551.515
551.502
551.488
551.474
551.458
551.441
551.423
551.403
551.38
551.355
551.327
551.296
551.261
551.222
551.178
551.129
551.074
551.012
550.943
550.866
550.781
550.687
550.583
550.47
550.346
550.213
550.069
549.915
549.753
549.583
549.406
549.221
549.029
548.832
548.633
548.434
548.235
548.037
547.844
547.656
547.474
547.298
547.128
546.963
546.802
546.646
546.496
546.351
546.211
546.074
545.941
545.809
545.679
545.551
545.425
545.301
545.179
545.056
544.935
544.814
544.684
544.56
544.441
544.324
544.208
544.091
543.974
543.856
543.738
543.618
543.498
543.377
543.257
543.136
543.014
542.893
542.772
542.651
542.53
542.409
542.288
542.168
542.047
541.927
541.807
541.687
541.567
541.447
541.327
541.207
541.088
540.968
540.849
540.729
540.61
552.52
552.46
552.4
552.339
552.28
552.222
552.166
552.114
552.067
552.024
551.986
551.951
551.921
551.893
551.868
551.846
551.825
551.806
551.788
551.771
551.755
551.74
551.725
551.71
551.696
551.681
551.666
551.65
551.634
551.617
551.598
551.577
551.554
551.529
551.501
551.47
551.436
551.398
551.356
551.309
551.256
551.198
551.132
551.06
550.979
550.89
550.791
550.683
550.564
550.434
550.294
550.143
549.982
549.812
549.633
549.446
549.252
549.051
548.846
548.64
548.434
548.227
548.022
547.82
547.624
547.435
547.252
547.076
546.905
546.739
546.579
546.425
546.277
546.135
545.998
545.865
545.736
545.608
545.483
545.359
545.238
545.117
544.997
544.878
544.758
544.635
544.518
544.405
544.295
544.184
544.072
543.959
543.844
543.727
543.61
543.491
543.372
543.252
543.132
543.012
542.891
542.77
542.65
542.529
542.408
542.288
542.167
542.047
541.927
541.806
541.686
541.566
541.447
541.327
541.207
541.088
540.968
540.849
540.729
540.61
552.53
552.491
552.45
552.408
552.365
552.322
552.28
552.24
552.203
552.17
552.14
552.113
552.089
552.066
552.046
552.026
552.008
551.99
551.972
551.955
551.938
551.921
551.905
551.888
551.872
551.855
551.837
551.819
551.8
551.78
551.758
551.735
551.709
551.681
551.65
551.616
551.579
551.538
551.493
551.443
551.388
551.326
551.258
551.182
551.099
551.006
550.904
550.791
550.666
550.531
550.384
550.225
550.056
549.877
549.689
549.492
549.287
549.076
548.864
548.651
548.439
548.226
548.014
547.806
547.604
547.408
547.219
547.036
546.859
546.687
546.521
546.361
546.208
546.063
545.924
545.791
545.663
545.537
545.414
545.292
545.171
545.051
544.932
544.814
544.696
544.577
544.468
544.365
544.262
544.159
544.052
543.943
543.831
543.717
543.601
543.484
543.367
543.248
543.129
543.009
542.889
542.769
542.648
542.528
542.407
542.287
542.167
542.046
541.926
541.806
541.686
541.566
541.447
541.327
541.207
541.088
540.968
540.849
540.729
540.61
552.543
552.529
552.512
552.493
552.47
552.445
552.419
552.392
552.367
552.344
552.322
552.302
552.283
552.265
552.247
552.228
552.21
552.191
552.172
552.152
552.132
552.111
552.091
552.071
552.051
552.03
552.008
551.986
551.963
551.939
551.914
551.887
551.859
551.828
551.794
551.758
551.718
551.675
551.627
551.576
551.519
551.456
551.386
551.309
551.224
551.13
551.025
550.909
550.78
550.639
550.486
550.32
550.142
549.953
549.756
549.55
549.333
549.111
548.89
548.67
548.451
548.232
548.017
547.805
547.599
547.398
547.203
547.014
546.829
546.65
546.477
546.309
546.149
545.997
545.853
545.718
545.59
545.466
545.344
545.223
545.102
544.982
544.862
544.743
544.625
544.505
544.409
544.319
544.228
544.132
544.032
543.927
543.818
543.707
543.593
543.478
543.361
543.244
543.125
543.006
542.887
542.767
542.647
542.527
542.406
542.286
542.166
542.046
541.926
541.806
541.686
541.566
541.446
541.327
541.207
541.088
540.968
540.849
540.729
540.61
552.559
552.577
552.591
552.599
552.601
552.597
552.589
552.577
552.564
552.55
552.536
552.521
552.505
552.489
552.47
552.451
552.43
552.407
552.383
552.357
552.331
552.304
552.277
552.25
552.224
552.197
552.169
552.141
552.113
552.085
552.055
552.025
551.993
551.959
551.923
551.884
551.843
551.799
551.751
551.698
551.642
551.579
551.51
551.434
551.35
551.257
551.152
551.035
550.905
550.76
550.601
550.428
550.242
550.046
549.843
549.628
549.4
549.167
548.938
548.71
548.482
548.257
548.038
547.824
547.616
547.413
547.213
547.015
546.821
546.632
546.448
546.27
546.1
545.938
545.787
545.647
545.517
545.394
545.272
545.152
545.032
544.913
544.792
544.669
544.543
544.407
544.341
544.274
544.196
544.108
544.013
543.912
543.806
543.697
543.585
543.472
543.356
543.239
543.122
543.003
542.885
542.765
542.646
542.526
542.406
542.286
542.166
542.046
541.926
541.806
541.686
541.566
541.446
541.327
541.207
541.088
540.968
540.849
540.729
540.61
552.58
552.637
552.688
552.73
552.762
552.783
552.795
552.799
552.798
552.792
552.783
552.77
552.755
552.737
552.715
552.69
552.663
552.633
552.6
552.564
552.528
552.491
552.455
552.419
552.383
552.347
552.312
552.276
552.241
552.206
552.171
552.135
552.099
552.062
552.024
551.983
551.941
551.896
551.848
551.797
551.742
551.682
551.616
551.544
551.464
551.374
551.273
551.16
551.032
550.887
550.725
550.548
550.358
550.16
549.956
549.739
549.502
549.261
549.025
548.789
548.551
548.318
548.095
547.881
547.674
547.47
547.264
547.055
546.846
546.643
546.444
546.249
546.062
545.886
545.723
545.574
545.44
545.317
545.198
545.08
544.962
544.844
544.725
544.602
544.459
544.244
544.275
544.237
544.171
544.089
543.998
543.9
543.796
543.689
543.578
543.466
543.351
543.236
543.119
543.001
542.883
542.764
542.644
542.525
542.405
542.285
542.165
542.045
541.925
541.806
541.686
541.566
541.446
541.327
541.207
541.088
540.968
540.849
540.729
540.61
552.604
552.709
552.805
552.887
552.954
553.003
553.037
553.058
553.067
553.067
553.06
553.047
553.028
553.004
552.975
552.942
552.904
552.862
552.816
552.769
552.719
552.67
552.621
552.573
552.525
552.479
552.432
552.387
552.342
552.297
552.253
552.21
552.168
552.126
552.084
552.04
551.995
551.949
551.901
551.85
551.797
551.741
551.68
551.614
551.54
551.456
551.362
551.256
551.135
550.996
550.839
550.667
550.484
550.294
550.101
549.889
549.65
549.407
549.17
548.927
548.681
548.442
548.216
548.005
547.805
547.603
547.388
547.157
546.923
546.697
546.476
546.256
546.044
545.846
545.665
545.503
545.361
545.235
545.118
545.003
544.89
544.779
544.67
544.56
544.448
544.333
544.284
544.228
544.158
544.077
543.987
543.89
543.788
543.682
543.572
543.461
543.347
543.232
543.116
542.999
542.881
542.762
542.643
542.524
542.404
542.285
542.165
542.045
541.925
541.805
541.686
541.566
541.446
541.327
541.207
541.088
540.968
540.849
540.729
540.61
552.63
552.787
552.933
553.061
553.167
553.248
553.305
553.341
553.359
553.362
553.354
553.336
553.311
553.278
553.24
553.195
553.145
553.089
553.03
552.968
552.905
552.841
552.778
552.716
552.656
552.597
552.539
552.481
552.424
552.366
552.309
552.253
552.199
552.147
552.096
552.045
551.993
551.941
551.888
551.834
551.78
551.725
551.668
551.607
551.539
551.461
551.373
551.278
551.171
551.047
550.908
550.757
550.598
550.435
550.268
550.076
549.847
549.615
549.39
549.149
548.901
548.659
548.436
548.238
548.053
547.86
547.631
547.359
547.082
546.826
546.575
546.315
546.06
545.826
545.619
545.437
545.283
545.151
545.033
544.921
544.816
544.716
544.621
544.531
544.446
544.364
544.299
544.232
544.156
544.072
543.98
543.883
543.781
543.676
543.567
543.456
543.344
543.229
543.114
542.997
542.879
542.761
542.642
542.523
542.404
542.284
542.165
542.045
541.925
541.805
541.686
541.566
541.446
541.327
541.207
541.088
540.968
540.849
540.729
540.61
552.652
552.854
553.047
553.222
553.369
553.483
553.564
553.616
553.641
553.645
553.633
553.609
553.576
553.536
553.49
553.437
553.378
553.314
553.245
553.172
553.096
553.02
552.944
552.87
552.798
552.729
552.66
552.59
552.518
552.442
552.364
552.286
552.21
552.137
552.066
551.996
551.926
551.856
551.787
551.719
551.654
551.591
551.531
551.47
551.404
551.325
551.238
551.157
551.077
550.984
550.881
550.774
550.666
550.552
550.429
550.278
550.077
549.879
549.694
549.469
549.229
548.994
548.788
548.619
548.464
548.294
548.046
547.698
547.35
547.062
546.788
546.464
546.135
545.848
545.602
545.381
545.211
545.069
544.948
544.834
544.734
544.648
544.574
544.504
544.44
544.379
544.318
544.244
544.16
544.071
543.977
543.878
543.776
543.671
543.563
543.453
543.34
543.227
543.111
542.995
542.878
542.76
542.642
542.523
542.403
542.284
542.164
542.045
541.925
541.805
541.686
541.566
541.446
541.327
541.207
541.088
540.968
540.849
540.729
540.61
552.653
552.866
553.086
553.297
553.483
553.631
553.738
553.806
553.841
553.85
553.838
553.813
553.78
553.743
553.702
553.656
553.603
553.544
553.478
553.405
553.327
553.244
553.162
553.08
553.001
552.925
552.851
552.772
552.685
552.587
552.478
552.363
552.248
552.134
552.023
551.911
551.8
551.69
551.584
551.483
551.387
551.297
551.218
551.143
551.066
550.97
550.871
550.81
550.77
550.721
550.677
550.645
550.63
550.598
550.533
550.446
550.29
550.152
550.068
549.869
549.653
549.441
549.277
549.172
549.066
548.937
548.674
548.297
547.825
547.472
547.16
546.744
546.327
545.965
545.648
545.344
545.159
544.997
544.875
544.746
544.647
544.577
544.533
544.48
544.435
544.394
544.35
544.263
544.169
544.073
543.975
543.875
543.772
543.667
543.56
543.45
543.338
543.225
543.11
542.994
542.877
542.759
542.641
542.522
542.403
542.284
542.164
542.045
541.925
541.805
541.686
541.566
541.446
541.327
541.207
541.088
540.968
540.849
540.729
540.61
552.599
552.734
552.927
553.149
553.364
553.545
553.681
553.775
553.832
553.859
553.865
553.86
553.853
553.848
553.845
553.839
553.824
553.801
553.768
553.72
553.657
553.583
553.507
553.428
553.35
553.279
553.206
553.122
553.018
552.89
552.736
552.562
552.382
552.199
552.014
551.827
551.639
551.454
551.277
551.114
550.96
550.812
550.687
550.572
550.462
550.319
550.194
550.157
550.163
550.161
550.205
550.278
550.424
550.524
550.536
550.536
550.501
550.502
550.472
550.349
550.2
550.071
549.981
549.863
549.73
549.65
549.42
549.064
548.518
548.064
547.66
547.098
546.556
546.123
545.72
545.385
545.127
544.948
544.778
544.651
544.568
544.509
544.531
544.469
544.439
544.421
544.428
544.29
544.178
544.075
543.974
543.872
543.769
543.664
543.557
543.447
543.336
543.223
543.108
542.993
542.876
542.759
542.641
542.522
542.403
542.284
542.164
542.045
541.925
541.806
541.686
541.566
541.447
541.327
541.207
541.088
540.968
540.849
540.729
540.61
552.413
552.279
552.347
552.542
552.78
553.005
553.187
553.328
553.435
553.513
553.57
553.628
553.701
553.787
553.881
553.971
554.046
554.112
554.162
554.185
554.174
554.136
554.111
554.07
554.004
553.953
553.89
553.782
553.626
553.432
553.213
552.953
552.674
552.378
552.083
551.779
551.467
551.159
550.875
550.624
550.408
550.169
549.964
549.752
549.57
549.354
549.167
549.139
549.209
549.291
549.4
549.587
549.846
550.098
550.309
550.438
550.546
550.698
550.747
550.773
550.791
550.842
550.75
550.622
550.476
550.395
550.18
549.926
549.341
548.791
548.369
547.596
546.95
546.419
545.879
545.416
545.064
544.85
544.689
544.603
544.54
544.528
544.53
544.459
544.46
544.437
544.437
544.293
544.178
544.073
543.972
543.87
543.767
543.662
543.555
543.446
543.334
543.222
543.107
542.992
542.876
542.758
542.64
542.522
542.403
542.284
542.164
542.045
541.925
541.806
541.686
541.567
541.447
541.327
541.208
541.088
540.969
540.849
540.729
540.61
551.924
551.164
550.963
551.082
551.342
551.653
551.917
552.148
552.362
552.555
552.73
552.934
553.186
553.462
553.746
554.01
554.239
554.458
554.656
554.839
554.977
555.025
555.193
555.308
555.256
555.247
555.203
554.991
554.637
554.227
553.925
553.562
553.129
552.618
552.171
551.737
551.263
550.781
550.389
550.082
549.811
549.543
549.264
548.845
548.388
548.035
547.919
547.842
547.769
547.964
548.242
548.538
548.986
549.456
549.914
550.087
550.27
550.637
550.743
550.863
551.098
551.683
551.726
551.459
551.285
551.095
550.832
550.697
550.259
549.572
549.288
547.983
547.136
546.412
546.02
545.523
545.066
544.868
544.709
544.682
544.694
544.72
544.695
544.701
544.554
544.463
544.391
544.272
544.168
544.068
543.969
543.868
543.765
543.661
543.554
543.445
543.334
543.221
543.107
542.992
542.875
542.758
542.64
542.522
542.403
542.284
542.165
542.045
541.926
541.806
541.687
541.567
541.447
541.328
541.208
541.088
540.969
540.849
540.73
540.61
550.699