/*--------------------------------*- C++ -*----------------------------------*\
  =========                 |
  \\      /  F ield         | OpenFOAM: The Open Source CFD Toolbox
   \\    /   O peration     | Website:  https://openfoam.org
    \\  /    A nd           | Version:  6
     \\/     M anipulation  |
\*---------------------------------------------------------------------------*/
FoamFile
{
    version     2.0;
    format      ascii;
    class       volVectorField;
    location    "4000";
    object      U;
}
// * * * * * * * * * * * * * * * * * * * * * * * * * * * * * * * * * * * * * //

dimensions      [0 1 -1 0 0 0 0];

internalField   nonuniform List<vector> 
4800
(
(4.8724e-06 0 -3.92748e-05)
(4.96491e-05 0 -2.13742e-05)
(7.19524e-05 0 -1.14387e-05)
(7.94419e-05 0 -3.41037e-05)
(9.64102e-05 0 -4.05556e-05)
(0.000119515 0 -5.18523e-05)
(0.000141023 0 -2.05799e-05)
(0.00012368 0 -1.63492e-05)
(0.000105206 0 1.48534e-06)
(7.19816e-05 0 -5.11389e-05)
(2.21147e-05 0 -7.80539e-05)
(-3.44011e-05 0 -8.41216e-05)
(-0.000114323 0 -3.72392e-05)
(-0.000309704 0 0.000117025)
(-0.000496436 0 -7.90127e-06)
(-0.000679471 0 -0.000154931)
(-0.000872216 0 -6.11661e-05)
(-0.00106421 0 2.82835e-05)
(-0.00122357 0 -0.000113782)
(-0.00136356 0 -9.6053e-05)
(-0.00149458 0 6.43603e-05)
(-0.00159303 0 -9.53076e-05)
(-0.00168145 0 4.42037e-05)
(-0.00174732 0 1.79612e-05)
(-0.00179604 0 -7.16813e-05)
(-0.00183914 0 3.16513e-05)
(-0.00186629 0 -1.98777e-05)
(-0.00188485 0 -9.69784e-06)
(-0.00190116 0 2.30054e-05)
(-0.00191607 0 1.60029e-05)
(-0.00193255 0 3.26425e-05)
(-0.00194311 0 1.60098e-05)
(-0.00194328 0 9.90465e-07)
(-0.00193532 0 -1.87206e-05)
(-0.00193515 0 -1.94451e-05)
(-0.00188113 0 -5.9772e-05)
(-0.00178432 0 -5.8325e-05)
(-0.00170752 0 -9.10697e-05)
(-0.00161296 0 -0.000168859)
(-0.00149621 0 -0.000211499)
(-0.00139077 0 -0.000107936)
(-0.00126948 0 2.8968e-05)
(-0.00114815 0 -0.000154345)
(-0.00109573 0 -7.74401e-05)
(-0.00104602 0 -4.14215e-05)
(-0.000866539 0 -0.000108737)
(-0.000663085 0 -9.60896e-05)
(-0.000534609 0 -7.12116e-05)
(-0.000455447 0 -7.17249e-05)
(-0.000352832 0 -5.93143e-05)
(-0.000226729 0 -4.89042e-05)
(-0.000100899 0 -5.92773e-05)
(6.54162e-05 0 -6.76649e-05)
(0.000180877 0 -6.33485e-05)
(0.000273205 0 -0.000312469)
(0.000498963 0 -2.03471e-06)
(0.000393541 0 -0.000485825)
(0.000646766 0 -6.48854e-05)
(0.000740126 0 2.24466e-05)
(0.000785555 0 -5.30806e-05)
(0.000757817 0 -7.05413e-05)
(0.000695519 0 -1.81717e-05)
(0.000646921 0 -1.13347e-05)
(0.000615317 0 -3.50611e-05)
(0.000575505 0 -4.89259e-05)
(0.000523683 0 -9.61184e-05)
(0.000486033 0 -8.03802e-05)
(0.000439294 0 -0.000108734)
(0.000391802 0 -5.78503e-05)
(0.000338635 0 2.63691e-06)
(0.000311027 0 3.17608e-07)
(0.000294498 0 2.80958e-06)
(0.00026343 0 9.09858e-06)
(0.000237888 0 -1.92164e-06)
(0.000240784 0 -3.63773e-07)
(0.000246608 0 -2.04133e-05)
(0.000258008 0 -4.66472e-05)
(0.000298091 0 -4.22506e-05)
(0.000339972 0 -4.41231e-05)
(0.000329065 0 -7.27873e-06)
(0.000341294 0 1.76499e-05)
(-0.000246582 0 -2.53972e-06)
(9.61975e-06 0 7.40464e-05)
(-2.04479e-13 0 8.32038e-15)
(-1.4322e-12 0 1.30943e-14)
(-6.1737e-14 0 1.87242e-14)
(-9.16172e-14 0 1.11876e-14)
(-1.06897e-13 0 4.11367e-15)
(-1.1002e-13 0 -1.13889e-15)
(-1.03809e-13 0 -4.87069e-15)
(-9.1187e-14 0 -7.71538e-15)
(-7.34487e-14 0 -9.98627e-15)
(-5.16211e-14 0 -1.18043e-14)
(-2.65904e-14 0 -1.3192e-14)
(7.65834e-16 0 -1.41365e-14)
(2.95442e-14 0 -1.4624e-14)
(5.88316e-14 0 -1.4656e-14)
(8.77401e-14 0 -1.42541e-14)
(1.15444e-13 0 -1.34579e-14)
(1.41209e-13 0 -1.23203e-14)
(1.64418e-13 0 -1.09023e-14)
(1.84577e-13 0 -9.26801e-15)
(2.01322e-13 0 -7.48108e-15)
(2.14408e-13 0 -5.60126e-15)
(2.23708e-13 0 -3.68257e-15)
(2.29192e-13 0 -1.77183e-15)
(2.30915e-13 0 9.15896e-17)
(2.29003e-13 0 1.8761e-15)
(2.2364e-13 0 3.55723e-15)
(2.1505e-13 0 5.11689e-15)
(2.03489e-13 0 6.54262e-15)
(1.89231e-13 0 7.8265e-15)
(1.72566e-13 0 8.96432e-15)
(1.53784e-13 0 9.95461e-15)
(1.33182e-13 0 1.07978e-14)
(1.11048e-13 0 1.14958e-14)
(8.76709e-14 0 1.20511e-14)
(6.33295e-14 0 1.24673e-14)
(3.82953e-14 0 1.275e-14)
(1.2819e-14 0 1.29133e-14)
(1.59657e-05 0 -5.94008e-05)
(3.64691e-05 0 -3.64575e-05)
(6.21462e-05 0 -1.79364e-05)
(4.75365e-05 0 -2.24333e-05)
(4.37068e-05 0 -2.38344e-05)
(5.71694e-05 0 -1.43901e-05)
(6.57902e-05 0 3.13775e-07)
(3.02247e-05 0 6.62261e-06)
(2.27805e-05 0 5.97319e-05)
(-4.12501e-05 0 0.000134079)
(-0.000185304 0 0.000142552)
(-0.000243003 0 0.000151368)
(-0.000321403 0 0.000197239)
(-0.000532932 0 0.000304959)
(-0.000719831 0 0.00034495)
(-0.000840542 0 0.000325104)
(-0.000970976 0 0.000173479)
(-0.00112626 0 0.000159013)
(-0.00127881 0 0.000238643)
(-0.00139126 0 0.000207972)
(-0.00149377 0 0.000155084)
(-0.00157874 0 0.00018925)
(-0.00165568 0 8.72197e-05)
(-0.00170789 0 0.000109822)
(-0.00174491 0 9.4585e-05)
(-0.00176827 0 5.62583e-05)
(-0.00178753 0 5.6728e-05)
(-0.00179777 0 3.8935e-05)
(-0.00180309 0 2.38142e-05)
(-0.0018157 0 7.03127e-06)
(-0.00184271 0 -1.36904e-05)
(-0.00185712 0 -1.75532e-05)
(-0.00185571 0 -2.08935e-05)
(-0.00181194 0 -5.06648e-05)
(-0.00178577 0 -6.72535e-05)
(-0.00174547 0 -2.70367e-05)
(-0.00167874 0 -6.43169e-05)
(-0.00164978 0 -0.000108026)
(-0.00162467 0 -0.000233722)
(-0.00152003 0 -0.000230656)
(-0.00137469 0 -8.07529e-05)
(-0.00123992 0 -0.000162374)
(-0.00114246 0 -0.0001227)
(-0.00104032 0 -0.000191729)
(-0.000970741 0 -5.6904e-05)
(-0.000857406 0 -0.000106941)
(-0.000634061 0 -0.000421775)
(-0.000574935 0 -0.00014695)
(-0.000466193 0 -7.6769e-05)
(-0.000344111 0 -9.64796e-05)
(-0.000209666 0 -0.000177245)
(-2.17494e-05 0 -0.000217105)
(0.000120496 0 -0.00015226)
(0.000283087 0 -7.14775e-05)
(0.000275993 0 -0.000370418)
(0.000510988 0 0.000208246)
(0.000618866 0 -8.0417e-05)
(0.000638308 0 -0.000257263)
(0.00075265 0 -7.11404e-05)
(0.000842226 0 3.07087e-05)
(0.000870935 0 0.000124345)
(0.00085247 0 0.000108476)
(0.000808383 0 8.94272e-05)
(0.000766099 0 0.000106924)
(0.000731473 0 0.00011877)
(0.000670996 0 0.000161902)
(0.000587153 0 0.000152448)
(0.000479453 0 0.000172851)
(0.000394832 0 0.00014821)
(0.00032715 0 4.79045e-05)
(0.000286102 0 4.20129e-05)
(0.000262798 0 4.99131e-05)
(0.000220665 0 4.07743e-05)
(0.00018575 0 -6.19953e-06)
(0.000187624 0 -1.63214e-05)
(0.000207928 0 -1.25918e-05)
(0.000227185 0 -8.60552e-05)
(0.000265271 0 -6.49319e-05)
(0.000291504 0 1.51098e-05)
(0.000290529 0 4.77829e-05)
(0.000320162 0 6.03747e-05)
(-0.000207223 0 0.000110977)
(9.9018e-06 0 0.000226245)
(-2.44874e-13 0 5.38577e-13)
(-1.33094e-12 0 1.31036e-13)
(-6.56376e-14 0 6.87847e-14)
(-1.07349e-13 0 3.26394e-14)
(-1.19551e-13 0 1.01289e-14)
(-1.18801e-13 0 -4.90328e-15)
(-1.10384e-13 0 -1.5486e-14)
(-9.63026e-14 0 -2.37052e-14)
(-7.75376e-14 0 -3.03991e-14)
(-5.48269e-14 0 -3.58343e-14)
(-2.89226e-14 0 -4.00143e-14)
(-6.66099e-16 0 -4.28641e-14)
(2.90247e-14 0 -4.43266e-14)
(5.92015e-14 0 -4.44027e-14)
(8.89381e-14 0 -4.31585e-14)
(1.17377e-13 0 -4.07167e-14)
(1.43765e-13 0 -3.72412e-14)
(1.6747e-13 0 -3.29196e-14)
(1.87998e-13 0 -2.79491e-14)
(2.04988e-13 0 -2.25236e-14)
(2.18207e-13 0 -1.68251e-14)
(2.27538e-13 0 -1.10169e-14)
(2.32966e-13 0 -5.24019e-15)
(2.34562e-13 0 3.8711e-16)
(2.32469e-13 0 5.77053e-15)
(2.26881e-13 0 1.08373e-14)
(2.18036e-13 0 1.55341e-14)
(2.06198e-13 0 1.98243e-14)
(1.91653e-13 0 2.36849e-14)
(1.74694e-13 0 2.71041e-14)
(1.55618e-13 0 3.00782e-14)
(1.34723e-13 0 3.26091e-14)
(1.12302e-13 0 3.47027e-14)
(8.86424e-14 0 3.63668e-14)
(6.40284e-14 0 3.76106e-14)
(3.87412e-14 0 3.84444e-14)
(1.29824e-14 0 3.88833e-14)
(1.1738e-06 0 -9.27467e-05)
(2.36223e-05 0 -4.75033e-05)
(4.86272e-05 0 -1.36997e-05)
(3.01938e-05 0 -1.8488e-05)
(2.74667e-05 0 -1.14015e-05)
(4.33985e-05 0 1.19545e-05)
(3.3706e-05 0 2.51786e-05)
(-6.45102e-05 0 4.24309e-05)
(-9.4846e-05 0 0.000121027)
(-0.000148662 0 0.000171565)
(-0.00026897 0 0.000193439)
(-0.000329874 0 0.000299023)
(-0.000552515 0 0.000346264)
(-0.000742774 0 0.000423416)
(-0.000860772 0 0.000432201)
(-0.0009513 0 0.000354676)
(-0.0010654 0 0.000236405)
(-0.00117415 0 0.000246919)
(-0.00124854 0 0.000299944)
(-0.00133565 0 0.000272563)
(-0.00142679 0 0.000239382)
(-0.0014913 0 0.000215442)
(-0.0015392 0 0.000171025)
(-0.00157481 0 0.000104128)
(-0.00159591 0 6.92696e-05)
(-0.00162847 0 6.91782e-06)
(-0.00165359 0 2.61979e-05)
(-0.00165967 0 6.56003e-06)
(-0.00166313 0 4.29654e-05)
(-0.0016699 0 5.28405e-05)
(-0.00167155 0 5.33148e-05)
(-0.00167086 0 4.60325e-05)
(-0.00167472 0 2.70905e-05)
(-0.00165424 0 -0.000119874)
(-0.00162245 0 -0.000117608)
(-0.00160127 0 -0.000111223)
(-0.00158891 0 -0.000159963)
(-0.00156033 0 -0.000340016)
(-0.00151167 0 -0.000371245)
(-0.00145192 0 -0.00023567)
(-0.00135687 0 -0.000260265)
(-0.00127036 0 -0.000227655)
(-0.00115273 0 -0.000214917)
(-0.00102187 0 -0.000276308)
(-0.000964112 0 -0.000213716)
(-0.000919603 0 -0.000269924)
(-0.000716113 0 -0.000579059)
(-0.000769824 0 -0.000153508)
(-0.000547778 0 -0.000369906)
(-0.000456267 0 -0.000350913)
(-0.000292351 0 -0.000423483)
(-0.00026808 0 -0.000363576)
(-8.77441e-05 0 -0.000358975)
(4.70848e-05 0 -0.000320902)
(0.000197087 0 -0.000301651)
(0.000298972 0 -0.000311891)
(0.000471662 0 -0.000243563)
(0.000514993 0 -0.000308518)
(0.000638367 0 -0.000167871)
(0.000719229 0 -0.00013496)
(0.000813292 0 -2.92974e-05)
(0.000821197 0 8.25194e-05)
(0.00081566 0 9.2079e-05)
(0.000794867 0 0.00010109)
(0.000755761 0 9.88715e-05)
(0.000710744 0 0.000125099)
(0.000657457 0 0.000134438)
(0.00057682 0 0.000144124)
(0.000480509 0 0.000152605)
(0.000400254 0 0.000100454)
(0.000323586 0 8.6355e-05)
(0.000271677 0 7.41773e-05)
(0.000227955 0 3.79313e-05)
(0.000199741 0 4.03418e-06)
(0.000189983 0 -1.48383e-05)
(0.000198126 0 -3.1455e-05)
(0.000232135 0 -4.5042e-05)
(0.00024181 0 -4.84733e-05)
(0.000240918 0 -3.75384e-05)
(0.000231415 0 6.65871e-05)
(0.000264277 0 0.00014068)
(-0.000232778 0 0.000181969)
(9.62434e-06 0 0.000361126)
(-3.01278e-13 0 8.73724e-13)
(-1.6183e-12 0 1.86118e-13)
(-1.61701e-13 0 9.23414e-14)
(-1.5099e-13 0 4.00806e-14)
(-1.44379e-13 0 8.31426e-15)
(-1.35242e-13 0 -1.28981e-14)
(-1.22609e-13 0 -2.84556e-14)
(-1.061e-13 0 -4.12072e-14)
(-8.55778e-14 0 -5.20556e-14)
(-6.12363e-14 0 -6.11042e-14)
(-3.36201e-14 0 -6.81516e-14)
(-3.54653e-15 0 -7.29644e-14)
(2.80056e-14 0 -7.54023e-14)
(5.99998e-14 0 -7.54576e-14)
(9.1426e-14 0 -7.325e-14)
(1.21361e-13 0 -6.90001e-14)
(1.49006e-13 0 -6.29989e-14)
(1.7371e-13 0 -5.55761e-14)
(1.94973e-13 0 -4.7074e-14)
(2.12446e-13 0 -3.78263e-14)
(2.25915e-13 0 -2.81434e-14)
(2.35293e-13 0 -1.83015e-14)
(2.40596e-13 0 -8.53799e-15)
(2.41925e-13 0 9.51238e-16)
(2.39453e-13 0 1.00101e-14)
(2.33404e-13 0 1.85198e-14)
(2.24037e-13 0 2.63942e-14)
(2.1164e-13 0 3.35753e-14)
(1.96511e-13 0 4.00281e-14)
(1.78959e-13 0 4.57355e-14)
(1.59289e-13 0 5.06937e-14)
(1.37806e-13 0 5.49086e-14)
(1.14806e-13 0 5.83913e-14)
(9.05787e-14 0 6.1156e-14)
(6.54071e-14 0 6.32172e-14)
(3.9568e-14 0 6.45869e-14)
(1.32579e-14 0 6.52701e-14)
(-2.11624e-06 0 -0.000107356)
(7.33729e-06 0 -6.63911e-05)
(6.33993e-05 0 -1.33961e-05)
(2.98429e-05 0 -2.11397e-05)
(-6.59549e-06 0 -4.63842e-05)
(-8.71618e-06 0 -1.85459e-05)
(-7.80918e-06 0 0.000103312)
(-0.000140623 0 7.76904e-05)
(-0.000176682 0 0.000129295)
(-0.000159728 0 0.000274047)
(-0.000322186 0 0.00031925)
(-0.000464265 0 0.000443537)
(-0.000648144 0 0.000568319)
(-0.000835572 0 0.000582638)
(-0.000922602 0 0.000561666)
(-0.00098692 0 0.000514383)
(-0.00110518 0 0.00041468)
(-0.00114187 0 0.000479853)
(-0.0012072 0 0.000389713)
(-0.0012939 0 0.00020251)
(-0.00132592 0 0.000307929)
(-0.00137917 0 0.000222013)
(-0.00142283 0 0.000157362)
(-0.00145084 0 0.000177373)
(-0.00148411 0 0.000109424)
(-0.00153144 0 9.57182e-05)
(-0.00155804 0 0.000116386)
(-0.00156845 0 5.52379e-05)
(-0.00157455 0 3.79275e-05)
(-0.00157887 0 3.82708e-05)
(-0.00156485 0 -1.16942e-05)
(-0.0015372 0 -3.04528e-05)
(-0.00152971 0 -3.22409e-05)
(-0.00154117 0 -3.85991e-05)
(-0.00152277 0 -0.000129835)
(-0.00148428 0 -0.000126307)
(-0.00147571 0 -0.000131437)
(-0.00148767 0 -0.000191741)
(-0.00148976 0 -0.000226635)
(-0.00133731 0 -0.000637019)
(-0.0013823 0 -0.000229856)
(-0.00128436 0 -0.000347333)
(-0.00122007 0 -0.000289073)
(-0.00106376 0 -0.000445431)
(-0.00102013 0 -0.000368417)
(-0.000981445 0 -0.000394928)
(-0.000981685 0 -0.000248548)
(-0.000854046 0 -0.000299246)
(-0.000684947 0 -0.000499912)
(-0.000638659 0 -0.000440481)
(-0.000594924 0 -0.000418005)
(-0.000463811 0 -0.00047751)
(-0.0003375 0 -0.000505581)
(-0.000300859 0 -0.000480604)
(-0.000102901 0 -0.000551334)
(0.000103442 0 -0.000417671)
(0.000327888 0 -0.000294274)
(0.000248701 0 -0.000429725)
(0.00043164 0 -0.000275741)
(0.000518578 0 -0.000172406)
(0.000606202 0 5.65431e-05)
(0.000651875 0 -6.88472e-05)
(0.00070265 0 6.82311e-05)
(0.000702288 0 0.000102381)
(0.00069228 0 0.000115122)
(0.000667401 0 0.00019607)
(0.000644909 0 0.000233068)
(0.000612219 0 0.00024644)
(0.000563723 0 0.000245293)
(0.000512976 0 0.000190329)
(0.000441603 0 0.00013628)
(0.000355109 0 0.000113432)
(0.000305827 0 9.19033e-05)
(0.00030252 0 5.30371e-05)
(0.000282681 0 7.15388e-06)
(0.000243836 0 -7.62167e-05)
(0.000228725 0 -0.000133629)
(0.000257775 0 -7.05591e-05)
(0.000265558 0 -2.51523e-05)
(0.000222324 0 8.89126e-05)
(0.000354397 0 0.000160227)
(-0.000318225 0 0.000270669)
(1.05895e-05 0 0.000493478)
(-4.42313e-13 0 8.78805e-13)
(-1.61727e-12 0 1.3613e-13)
(-2.10765e-13 0 7.44021e-14)
(-1.90516e-13 0 2.70369e-14)
(-1.71726e-13 0 -4.02852e-15)
(-1.55187e-13 0 -2.61715e-14)
(-1.38693e-13 0 -4.42349e-14)
(-1.19902e-13 0 -6.06101e-14)
(-9.74346e-14 0 -7.5501e-14)
(-7.0923e-14 0 -8.83567e-14)
(-4.07828e-14 0 -9.84992e-14)
(-7.91671e-15 0 -1.05411e-13)
(2.65315e-14 0 -1.0883e-13)
(6.13538e-14 0 -1.08745e-13)
(9.53956e-14 0 -1.05355e-13)
(1.27628e-13 0 -9.90095e-14)
(1.57189e-13 0 -9.01573e-14)
(1.83395e-13 0 -7.92962e-14)
(2.05748e-13 0 -6.69341e-14)
(2.23919e-13 0 -5.35596e-14)
(2.37732e-13 0 -3.96206e-14)
(2.47143e-13 0 -2.5512e-14)
(2.52219e-13 0 -1.15686e-14)
(2.53111e-13 0 1.93618e-15)
(2.50037e-13 0 1.47876e-14)
(2.43265e-13 0 2.68246e-14)
(2.33091e-13 0 3.79331e-14)
(2.19832e-13 0 4.80389e-14)
(2.03813e-13 0 5.70994e-14)
(1.85359e-13 0 6.50971e-14)
(1.64791e-13 0 7.20326e-14)
(1.4242e-13 0 7.79186e-14)
(1.18549e-13 0 8.27753e-14)
(9.34684e-14 0 8.66255e-14)
(6.74593e-14 0 8.94915e-14)
(4.07941e-14 0 9.13916e-14)
(1.36656e-14 0 9.23377e-14)
(-3.84401e-05 0 -8.87168e-05)
(-6.36762e-05 0 -5.49173e-05)
(1.22266e-05 0 -3.48115e-06)
(2.00106e-05 0 2.46695e-06)
(-4.16788e-05 0 -1.34476e-05)
(-5.10147e-05 0 3.88081e-05)
(-4.26686e-05 0 0.000117534)
(-8.1726e-05 0 0.000201754)
(-0.000169115 0 0.000246617)
(-0.000279335 0 0.000335677)
(-0.000426461 0 0.000468514)
(-0.000634859 0 0.000578968)
(-0.000774755 0 0.000670585)
(-0.000879259 0 0.000682683)
(-0.000884765 0 0.000713695)
(-0.00100652 0 0.000546791)
(-0.00108837 0 0.000448313)
(-0.00110881 0 0.000532625)
(-0.00115443 0 0.000503195)
(-0.00123178 0 0.000365099)
(-0.00124866 0 0.000401393)
(-0.00130857 0 0.000306996)
(-0.00135331 0 0.000234889)
(-0.00136751 0 0.000241356)
(-0.00140703 0 0.000126566)
(-0.00144991 0 0.000101452)
(-0.00147057 0 0.000104412)
(-0.00148833 0 5.0276e-06)
(-0.00150002 0 2.04222e-05)
(-0.00150196 0 1.93257e-05)
(-0.00149389 0 4.37521e-06)
(-0.00146236 0 -2.86146e-05)
(-0.00144082 0 -6.30886e-05)
(-0.00143688 0 -8.46495e-05)
(-0.00143312 0 -0.000114903)
(-0.00141002 0 -0.000155137)
(-0.00139502 0 -0.000226733)
(-0.00137974 0 -0.000302449)
(-0.00137568 0 -0.000340372)
(-0.00140412 0 -0.000328296)
(-0.00135342 0 -0.000441851)
(-0.00126723 0 -0.000440602)
(-0.00127355 0 -0.00019616)
(-0.00113762 0 -0.000468339)
(-0.00111863 0 -0.00037479)
(-0.00103217 0 -0.00046786)
(-0.000940587 0 -0.000512811)
(-0.000894625 0 -0.000490534)
(-0.000888229 0 -0.000427907)
(-0.000796272 0 -0.000494873)
(-0.000676775 0 -0.000565623)
(-0.000540432 0 -0.000610053)
(-0.000494757 0 -0.000568614)
(-0.000434068 0 -0.000589324)
(-0.000313821 0 -0.000661228)
(-0.00019099 0 -0.000665967)
(-7.0628e-05 0 -0.000591858)
(7.51914e-05 0 -0.00046648)
(0.000269642 0 -0.000369516)
(0.000324894 0 -0.000209414)
(0.00036203 0 -0.000181184)
(0.000435868 0 -4.65973e-05)
(0.00048919 0 7.86914e-05)
(0.000518502 0 0.000136266)
(0.000552685 0 0.00014208)
(0.00059259 0 0.000183943)
(0.000592543 0 0.000255274)
(0.000585141 0 0.000257126)
(0.000562595 0 0.00027764)
(0.000543407 0 0.000270821)
(0.000519603 0 0.000234745)
(0.000451565 0 0.000233812)
(0.000423247 0 0.000158768)
(0.000426783 0 7.28889e-05)
(0.000408262 0 4.09041e-05)
(0.000362719 0 5.57673e-06)
(0.000311058 0 -6.79406e-05)
(0.000295979 0 -8.2782e-05)
(0.000300837 0 -1.58848e-05)
(0.000231777 0 0.000103261)
(0.000306321 0 0.000195077)
(-0.000191183 0 0.000305779)
(1.08108e-05 0 0.00061567)
(-5.51272e-13 0 1.35131e-12)
(-1.68423e-12 0 1.3741e-13)
(-2.69902e-13 0 4.21322e-14)
(-2.28576e-13 0 -2.28657e-15)
(-1.96823e-13 0 -2.52383e-14)
(-1.75097e-13 0 -4.3177e-14)
(-1.57048e-13 0 -6.17028e-14)
(-1.37366e-13 0 -8.14911e-14)
(-1.13324e-13 0 -1.00966e-13)
(-8.42344e-14 0 -1.18298e-13)
(-5.06746e-14 0 -1.32045e-13)
(-1.38776e-14 0 -1.41314e-13)
(2.46713e-14 0 -1.45722e-13)
(6.3475e-14 0 -1.45299e-13)
(1.01162e-13 0 -1.40377e-13)
(1.36559e-13 0 -1.31491e-13)
(1.68719e-13 0 -1.19295e-13)
(1.96933e-13 0 -1.04494e-13)
(2.2071e-13 0 -8.77901e-14)
(2.39759e-13 0 -6.98463e-14)
(2.53963e-13 0 -5.12613e-14)
(2.63345e-13 0 -3.25546e-14)
(2.68044e-13 0 -1.416e-14)
(2.68281e-13 0 3.57383e-15)
(2.64342e-13 0 2.03782e-14)
(2.56549e-13 0 3.60563e-14)
(2.45251e-13 0 5.04735e-14)
(2.30806e-13 0 6.35462e-14)
(2.1357e-13 0 7.5232e-14)
(1.93892e-13 0 8.55192e-14)
(1.72111e-13 0 9.44188e-14)
(1.48549e-13 0 1.01956e-13)
(1.23513e-13 0 1.08163e-13)
(9.72949e-14 0 1.13077e-13)
(7.01731e-14 0 1.16729e-13)
(4.24143e-14 0 1.19147e-13)
(1.42041e-14 0 1.20351e-13)
(-1.41796e-05 0 -6.50766e-05)
(-7.88691e-05 0 -4.97456e-05)
(-6.9595e-05 0 -4.06676e-05)
(-3.86919e-05 0 -1.64515e-05)
(-1.24401e-05 0 8.8383e-06)
(-4.22905e-05 0 2.88905e-05)
(-9.97697e-05 0 0.00010988)
(-0.000146953 0 0.0002569)
(-0.00026597 0 0.000333915)
(-0.000431761 0 0.000455526)
(-0.000533641 0 0.000669322)
(-0.000717452 0 0.000765551)
(-0.000807711 0 0.00080205)
(-0.000867167 0 0.000777851)
(-0.0009474 0 0.000655939)
(-0.000947525 0 0.000633334)
(-0.00107292 0 0.000482044)
(-0.00108176 0 0.000538318)
(-0.00109164 0 0.000559971)
(-0.00117389 0 0.000415586)
(-0.00119364 0 0.000431824)
(-0.00124538 0 0.00035304)
(-0.00127461 0 0.000295633)
(-0.00128123 0 0.000272284)
(-0.00133458 0 0.000111442)
(-0.00135863 0 0.000166275)
(-0.00137686 0 0.000131623)
(-0.00140109 0 4.55006e-05)
(-0.00141005 0 6.70436e-05)
(-0.00139397 0 3.51978e-05)
(-0.00138903 0 1.12932e-05)
(-0.00138585 0 -6.13051e-05)
(-0.00134185 0 -6.95401e-05)
(-0.00132784 0 -9.80163e-05)
(-0.0013293 0 -0.00014246)
(-0.00133229 0 -0.00016087)
(-0.00133228 0 -0.000188341)
(-0.00132902 0 -0.000248852)
(-0.00132342 0 -0.000365532)
(-0.00133493 0 -0.000355723)
(-0.00133446 0 -0.000355009)
(-0.00126484 0 -0.000475113)
(-0.001174 0 -0.000553418)
(-0.00117559 0 -0.000461797)
(-0.0011505 0 -0.000454793)
(-0.00110022 0 -0.000480953)
(-0.00104914 0 -0.000483953)
(-0.000984342 0 -0.00050427)
(-0.000893354 0 -0.00057113)
(-0.00085299 0 -0.000559241)
(-0.000742806 0 -0.000644825)
(-0.000697903 0 -0.000631592)
(-0.000648404 0 -0.000642856)
(-0.000533954 0 -0.000726538)
(-0.000459485 0 -0.000718693)
(-0.000332692 0 -0.000695026)
(-0.000302819 0 -0.00067134)
(-0.000246127 0 -0.000678505)
(6.37461e-06 0 -0.00061482)
(0.000150905 0 -0.000232599)
(0.000193955 0 -8.23043e-05)
(0.000200808 0 -7.38835e-05)
(0.000253226 0 -2.09314e-05)
(0.000332518 0 1.932e-05)
(0.000422978 0 3.70076e-05)
(0.000474217 0 0.000159872)
(0.000495226 0 0.00022642)
(0.000520387 0 0.000250712)
(0.000522051 0 0.00028215)
(0.000515639 0 0.000277752)
(0.000502802 0 0.000253245)
(0.000474258 0 0.00022125)
(0.000460333 0 0.000158859)
(0.000448545 0 0.000119397)
(0.000426584 0 7.87641e-05)
(0.000397443 0 -1.64512e-06)
(0.000369219 0 -3.57801e-05)
(0.000339014 0 -4.50129e-05)
(0.000311268 0 1.98918e-05)
(0.000171822 0 0.000184712)
(0.000393309 0 0.000225078)
(-0.000300223 0 0.000373068)
(1.13623e-05 0 0.000778348)
(-7.51329e-13 0 1.93492e-12)
(-1.87387e-12 0 6.51358e-14)
(-3.49587e-13 0 -4.09512e-14)
(-2.57066e-13 0 -5.30524e-14)
(-2.11906e-13 0 -5.13746e-14)
(-1.91344e-13 0 -5.92922e-14)
(-1.77007e-13 0 -7.79123e-14)
(-1.59166e-13 0 -1.02685e-13)
(-1.34242e-13 0 -1.28567e-13)
(-1.02002e-13 0 -1.51805e-13)
(-6.37989e-14 0 -1.70039e-13)
(-2.15935e-14 0 -1.82038e-13)
(2.25469e-14 0 -1.874e-13)
(6.66994e-14 0 -1.86303e-13)
(1.09204e-13 0 -1.79314e-13)
(1.4871e-13 0 -1.67237e-13)
(1.84185e-13 0 -1.51e-13)
(2.149e-13 0 -1.31563e-13)
(2.40396e-13 0 -1.09862e-13)
(2.60448e-13 0 -8.67573e-14)
(2.75023e-13 0 -6.30132e-14)
(2.84244e-13 0 -3.92793e-14)
(2.88347e-13 0 -1.60881e-14)
(2.87649e-13 0 6.14155e-15)
(2.8252e-13 0 2.70948e-14)
(2.7336e-13 0 4.65486e-14)
(2.60581e-13 0 6.43579e-14)
(2.44591e-13 0 8.04402e-14)
(2.25786e-13 0 9.47627e-14)
(2.04546e-13 0 1.07329e-13)
(1.81228e-13 0 1.18167e-13)
(1.56165e-13 0 1.27322e-13)
(1.2967e-13 0 1.34845e-13)
(1.02034e-13 0 1.40788e-13)
(7.35296e-14 0 1.45198e-13)
(4.44163e-14 0 1.48116e-13)
(1.48694e-14 0 1.49567e-13)
(-6.79772e-07 0 -4.5355e-05)
(-2.07606e-05 0 -2.17638e-05)
(-4.31585e-05 0 -1.50034e-05)
(-6.82086e-05 0 9.33334e-06)
(-7.50918e-05 0 -9.42433e-06)
(-0.000137181 0 0.000105738)
(-0.000258726 0 0.000177402)
(-0.000250724 0 0.000356134)
(-0.000405328 0 0.000477271)
(-0.000639397 0 0.000589418)
(-0.000724515 0 0.000788191)
(-0.000864238 0 0.000809561)
(-0.000885307 0 0.000823414)
(-0.000876247 0 0.000799954)
(-0.000901853 0 0.000729258)
(-0.000913968 0 0.000688286)
(-0.00102268 0 0.000557836)
(-0.00102022 0 0.000588246)
(-0.00103649 0 0.000565537)
(-0.00111678 0 0.000417499)
(-0.00111706 0 0.000463202)
(-0.0011556 0 0.000388154)
(-0.00117801 0 0.000317987)
(-0.00120365 0 0.00023479)
(-0.00124066 0 0.000181393)
(-0.00124767 0 0.000195022)
(-0.00125936 0 0.00013065)
(-0.00128069 0 5.37028e-05)
(-0.00128571 0 5.25979e-05)
(-0.00127809 0 -5.34413e-05)
(-0.0012689 0 -7.15028e-05)
(-0.00127089 0 3.06393e-05)
(-0.00125168 0 -0.000137501)
(-0.00124331 0 -0.000127285)
(-0.00123904 0 -0.000112186)
(-0.00121277 0 -0.000146452)
(-0.00120008 0 -0.000151228)
(-0.00120881 0 -0.00029358)
(-0.00123939 0 -0.000361543)
(-0.00123399 0 -0.000404408)
(-0.00120595 0 -0.000489168)
(-0.00123384 0 -0.000433705)
(-0.0012251 0 -0.000451414)
(-0.00117877 0 -0.000506974)
(-0.00117459 0 -0.000471091)
(-0.00112374 0 -0.000527823)
(-0.00105617 0 -0.000574024)
(-0.000999858 0 -0.000559988)
(-0.000888221 0 -0.000650243)
(-0.000851936 0 -0.000638901)
(-0.000801336 0 -0.000661909)
(-0.000761075 0 -0.000684669)
(-0.00068416 0 -0.000757095)
(-0.000600481 0 -0.000813167)
(-0.000554977 0 -0.000780811)
(-0.00058625 0 -0.000698586)
(-0.000455703 0 -0.000739306)
(-0.000350743 0 -0.000709897)
(-0.00020145 0 -0.00061723)
(-0.000171241 0 -0.0003623)
(1.55235e-05 0 -0.000210543)
(6.75238e-05 0 -0.000110393)
(0.000106499 0 -7.86488e-05)
(0.000176099 0 -2.48365e-05)
(0.000245488 0 4.49793e-05)
(0.000301894 0 0.000101673)
(0.00034822 0 0.00016712)
(0.000395463 0 0.000240681)
(0.000420708 0 0.000293295)
(0.000440586 0 0.000270833)
(0.000438894 0 0.000259605)
(0.000443974 0 0.000211212)
(0.000447476 0 0.000147833)
(0.000425084 0 0.00013906)
(0.000408992 0 8.99119e-05)
(0.000407384 0 4.59563e-05)
(0.000395294 0 -7.63727e-06)
(0.000355205 0 -3.24542e-05)
(0.000298022 0 5.80457e-05)
(0.000135815 0 0.000221367)
(0.000377714 0 0.000246058)
(-0.000492977 0 0.000383534)
(1.22123e-05 0 0.000986171)
(-1.14961e-12 0 2.38144e-12)
(-2.15521e-12 0 -2.76433e-13)
(-3.87259e-13 0 -2.17958e-13)
(-2.38223e-13 0 -1.17564e-13)
(-2.02424e-13 0 -6.77915e-14)
(-2.0138e-13 0 -6.4457e-14)
(-2.00441e-13 0 -8.79804e-14)
(-1.88021e-13 0 -1.22781e-13)
(-1.62444e-13 0 -1.58814e-13)
(-1.25707e-13 0 -1.90306e-13)
(-8.09084e-14 0 -2.14248e-13)
(-3.1238e-14 0 -2.29366e-13)
(2.04073e-14 0 -2.35491e-13)
(7.15611e-14 0 -2.33147e-13)
(1.20227e-13 0 -2.23284e-13)
(1.64872e-13 0 -2.07092e-13)
(2.04393e-13 0 -1.85855e-13)
(2.38071e-13 0 -1.60856e-13)
(2.65516e-13 0 -1.33303e-13)
(2.86607e-13 0 -1.04284e-13)
(3.01441e-13 0 -7.47388e-14)
(3.1027e-13 0 -4.54519e-14)
(3.13465e-13 0 -1.70498e-14)
(3.11464e-13 0 9.98731e-15)
(3.04749e-13 0 3.53107e-14)
(2.93812e-13 0 5.8685e-14)
(2.79143e-13 0 7.99684e-14)
(2.61211e-13 0 9.90934e-14)
(2.40458e-13 0 1.16049e-13)
(2.17297e-13 0 1.30865e-13)
(1.92104e-13 0 1.43598e-13)
(1.65227e-13 0 1.54319e-13)
(1.36979e-13 0 1.63105e-13)
(1.07649e-13 0 1.7003e-13)
(7.75011e-14 0 1.7516e-13)
(4.67828e-14 0 1.78549e-13)
(1.56554e-14 0 1.80233e-13)
(1.64442e-05 0 -2.63368e-05)
(4.87631e-06 0 1.25348e-05)
(-5.84359e-05 0 3.54816e-05)
(-0.000103367 0 5.13769e-05)
(-0.000114442 0 7.46997e-05)
(-0.000307457 0 0.000126044)
(-0.000443914 0 0.000254399)
(-0.000413645 0 0.000509663)
(-0.000650124 0 0.000577667)
(-0.000683916 0 0.000835179)
(-0.00080567 0 0.000894428)
(-0.000840413 0 0.000914813)
(-0.000850163 0 0.00088155)
(-0.000868896 0 0.000803238)
(-0.000880099 0 0.000748067)
(-0.000891963 0 0.000709769)
(-0.00095039 0 0.000631568)
(-0.000966524 0 0.000610938)
(-0.000967384 0 0.000587429)
(-0.00106182 0 0.000408129)
(-0.00105168 0 0.000458216)
(-0.00107124 0 0.000417728)
(-0.0010829 0 0.000325592)
(-0.00107215 0 0.000326987)
(-0.00111303 0 0.000213962)
(-0.00112591 0 0.000184579)
(-0.00112944 0 0.000141656)
(-0.00114288 0 8.44458e-05)
(-0.00115604 0 5.86326e-05)
(-0.00116138 0 3.51614e-05)
(-0.00115753 0 -2.31654e-05)
(-0.00114008 0 -0.000108928)
(-0.00113942 0 -9.53165e-05)
(-0.00113781 0 -0.000123668)
(-0.00112324 0 -0.000185742)
(-0.00109485 0 -0.000233528)
(-0.00107931 0 -0.000242211)
(-0.00110304 0 -0.000220846)
(-0.00113166 0 -0.000257019)
(-0.00112109 0 -0.000370489)
(-0.0011338 0 -0.00042925)
(-0.00114719 0 -0.000464479)
(-0.0011232 0 -0.000565462)
(-0.0011652 0 -0.000511692)
(-0.00115966 0 -0.000514701)
(-0.00110582 0 -0.000582895)
(-0.00103139 0 -0.00065644)
(-0.000974935 0 -0.000659668)
(-0.000877533 0 -0.000714358)
(-0.000856373 0 -0.000675488)
(-0.000786407 0 -0.0007237)
(-0.000758318 0 -0.000744082)
(-0.000701494 0 -0.000814572)
(-0.000703893 0 -0.0008213)
(-0.000637164 0 -0.000856662)
(-0.000567556 0 -0.000876221)
(-0.000482152 0 -0.000844229)
(-0.000437393 0 -0.000729643)
(-0.000459533 0 -0.00058085)
(-0.000296809 0 -0.000539578)
(-0.000180318 0 -0.000409454)
(-0.000111287 0 -0.000199844)
(-5.80685e-06 0 -0.000125542)
(2.35191e-05 0 -9.26293e-05)
(7.42567e-05 0 -3.39137e-05)
(0.000125149 0 5.57927e-05)
(0.000203908 0 9.79012e-05)
(0.000261348 0 0.000169961)
(0.000316097 0 0.000206619)
(0.000311879 0 0.000266097)
(0.000340538 0 0.00023451)
(0.000361899 0 0.000198348)
(0.000370877 0 0.00017541)
(0.00035432 0 0.000168278)
(0.000364972 0 0.000100191)
(0.000373413 0 4.95721e-05)
(0.00036483 0 3.03624e-05)
(0.000284864 0 8.50515e-05)
(0.000229078 0 0.000161452)
(0.000102282 0 0.000260305)
(0.000421693 0 0.000292201)
(-0.000568645 0 0.000359213)
(1.36373e-05 0 0.00114449)
(-1.76775e-12 0 2.03381e-12)
(-2.21399e-12 0 -1.09084e-12)
(-1.90002e-13 0 -4.36822e-13)
(-1.06198e-13 0 -1.31414e-13)
(-1.58247e-13 0 -3.75959e-14)
(-2.11336e-13 0 -4.25673e-14)
(-2.3533e-13 0 -8.67868e-14)
(-2.29999e-13 0 -1.41662e-13)
(-2.01767e-13 0 -1.93618e-13)
(-1.57436e-13 0 -2.36367e-13)
(-1.02859e-13 0 -2.67273e-13)
(-4.28372e-14 0 -2.85668e-13)
(1.87665e-14 0 -2.92017e-13)
(7.89062e-14 0 -2.87463e-13)
(1.35258e-13 0 -2.73532e-13)
(1.86139e-13 0 -2.51935e-13)
(2.30421e-13 0 -2.24418e-13)
(2.67452e-13 0 -1.92653e-13)
(2.96969e-13 0 -1.58168e-13)
(3.19012e-13 0 -1.22302e-13)
(3.33855e-13 0 -8.61829e-14)
(3.41934e-13 0 -5.07245e-14)
(3.43786e-13 0 -1.66381e-14)
(3.40009e-13 0 1.55503e-14)
(3.31218e-13 0 4.54765e-14)
(3.18018e-13 0 7.29116e-14)
(3.00989e-13 0 9.7736e-14)
(2.80672e-13 0 1.19914e-13)
(2.57558e-13 0 1.39474e-13)
(2.32095e-13 0 1.56484e-13)
(2.04682e-13 0 1.7104e-13)
(1.75672e-13 0 1.83251e-13)
(1.4538e-13 0 1.93225e-13)
(1.14089e-13 0 2.01065e-13)
(8.20486e-14 0 2.06862e-13)
(4.94895e-14 0 2.10685e-13)
(1.65538e-14 0 2.12583e-13)
(-7.1691e-05 0 -3.28648e-06)
(-9.26705e-05 0 4.85855e-05)
(-0.000194662 0 -4.10307e-06)
(-0.000191288 0 6.4549e-05)
(-0.000122597 0 0.000187402)
(-0.000427081 0 0.000218666)
(-0.000544332 0 0.000443702)
(-0.000521597 0 0.000696659)
(-0.000775989 0 0.000741167)
(-0.000806224 0 0.000889466)
(-0.000828062 0 0.000924092)
(-0.000848527 0 0.000904302)
(-0.000876654 0 0.000832368)
(-0.00086728 0 0.000783586)
(-0.000859347 0 0.000753341)
(-0.000860837 0 0.000721105)
(-0.000881169 0 0.000672628)
(-0.000916795 0 0.000603232)
(-0.000897465 0 0.000597863)
(-0.00091038 0 0.000571783)
(-0.00093718 0 0.000530641)
(-0.000964166 0 0.000440621)
(-0.000988374 0 0.000320077)
(-0.000992325 0 0.000242312)
(-0.00100377 0 0.000187801)
(-0.00100102 0 0.000204481)
(-0.000995151 0 0.000151841)
(-0.00100026 0 0.000101703)
(-0.00101424 0 5.7612e-05)
(-0.00102526 0 -3.5418e-05)
(-0.00103374 0 -3.91913e-05)
(-0.00103676 0 -4.09317e-05)
(-0.00102061 0 -0.000116222)
(-0.00100817 0 -0.000123111)
(-0.00100711 0 -0.000125101)
(-0.0010133 0 -0.000134785)
(-0.0010035 0 -0.000181714)
(-0.000990519 0 -0.000231068)
(-0.000957853 0 -0.000381601)
(-0.000948377 0 -0.000460248)
(-0.000995013 0 -0.000412224)
(-0.00102252 0 -0.000408164)
(-0.00104617 0 -0.000490323)
(-0.00113139 0 -0.000453762)
(-0.00109113 0 -0.000570527)
(-0.00109023 0 -0.000584847)
(-0.000993975 0 -0.000723608)
(-0.000962391 0 -0.000707791)
(-0.000853427 0 -0.000780791)
(-0.000843024 0 -0.000722273)
(-0.000785901 0 -0.00074602)
(-0.000751046 0 -0.000770247)
(-0.000707474 0 -0.000835365)
(-0.000702868 0 -0.000870609)
(-0.00068536 0 -0.000901908)
(-0.000611606 0 -0.000950433)
(-0.00059858 0 -0.000870941)
(-0.000550865 0 -0.000760377)
(-0.000499653 0 -0.000661562)
(-0.000367207 0 -0.000632738)
(-0.000365434 0 -0.000468175)
(-0.000330887 0 -0.000292538)
(-0.000188528 0 -0.000224442)
(-0.000123386 0 -0.000122898)