/*--------------------------------*- C++ -*----------------------------------*\
  =========                 |
  \\      /  F ield         | OpenFOAM: The Open Source CFD Toolbox
   \\    /   O peration     | Website:  https://openfoam.org
    \\  /    A nd           | Version:  6
     \\/     M anipulation  |
\*---------------------------------------------------------------------------*/
FoamFile
{
    version     2.0;
    format      ascii;
    class       volScalarField;
    location    "1400";
    object      Su;
}
// * * * * * * * * * * * * * * * * * * * * * * * * * * * * * * * * * * * * * //

dimensions      [0 0 -1 0 0 0 0];

internalField   nonuniform List<scalar> 
4800
(
0.218881
0.215464
0.212055
0.208661
0.205289
0.201948
0.198639
0.195356
0.192091
0.188841
0.18561
0.182421
0.1793
0.176272
0.173367
0.170602
0.167985
0.165521
0.163212
0.161057
0.159049
0.157182
0.155444
0.15382
0.152297
0.150858
0.149491
0.148181
0.146917
0.145688
0.144483
0.143294
0.142113
0.140932
0.139744
0.138543
0.137323
0.136077
0.134798
0.133479
0.132117
0.130706
0.129241
0.127719
0.126139
0.124502
0.122815
0.121081
0.119304
0.117487
0.115621
0.113694
0.111703
0.109636
0.107482
0.10523
0.102877
0.100419
0.0978497
0.0951647
0.0923585
0.0894266
0.0863634
0.0831607
0.0798072
0.0762911
0.0725987
0.0687168
0.0646356
0.0603557
0.0558873
0.0512456
0.0464395
0.0414679
0.036339
0.0310798
0.0257234
0.0203014
0.0148204
0.00926108
0.00183538
0.00117448
-0.00131687
-0.00388285
-0.00651723
-0.00921109
-0.0119548
-0.0147395
-0.0175574
-0.0204022
-0.0232689
-0.0261535
-0.0290527
-0.031964
-0.0348854
-0.0378151
-0.0407519
-0.0436946
-0.0466421
-0.0495936
-0.0525484
-0.0555059
-0.0584654
-0.0614265
-0.0643887
-0.0673517
-0.0703152
-0.0732789
-0.0762425
-0.0792059
-0.0821689
-0.0851315
-0.0880936
-0.0910552
-0.0940163
-0.0969769
-0.099937
-0.102897
-0.105856
-0.108816
0.218885
0.215473
0.212065
0.208676
0.205316
0.201987
0.198687
0.195409
0.192148
0.188904
0.185682
0.182501
0.17939
0.176379
0.173489
0.17073
0.168115
0.165655
0.163352
0.161201
0.159199
0.157336
0.155601
0.153982
0.152462
0.151026
0.149662
0.148354
0.147093
0.145867
0.144666
0.143481
0.142304
0.141126
0.139942
0.138743
0.137524
0.136276
0.134994
0.133671
0.132304
0.130888
0.129419
0.127895
0.126315
0.124683
0.123001
0.121271
0.119497
0.117681
0.115812
0.11388
0.11188
0.109802
0.107635
0.10537
0.103006
0.100538
0.0979633
0.0952759
0.0924706
0.0895422
0.0864844
0.0832881
0.0799431
0.07644
0.0727706
0.0689217
0.0648786
0.0606384
0.0562091
0.0516029
0.0468228
0.0418677
0.036756
0.0315144
0.0261569
0.0206887
0.0151172
0.0094442
0.00189
0.00124269
-0.00125013
-0.00382168
-0.00646437
-0.00916726
-0.0119194
-0.0147114
-0.0175353
-0.0203849
-0.0232554
-0.0261429
-0.0290444
-0.0319575
-0.0348802
-0.0378111
-0.0407487
-0.0436919
-0.0466399
-0.0495918
-0.0525469
-0.0555046
-0.0584643
-0.0614255
-0.0643879
-0.067351
-0.0703145
-0.0732782
-0.0762419
-0.0792054
-0.0821684
-0.0851311
-0.0880933
-0.0910549
-0.094016
-0.0969766
-0.0999369
-0.102897
-0.105856
-0.108816
0.218886
0.215482
0.212092
0.208724
0.205384
0.202072
0.198786
0.195521
0.192273
0.189043
0.185841
0.182686
0.179602
0.176615
0.173743
0.170999
0.168398
0.165949
0.163653
0.161511
0.159517
0.157662
0.155935
0.154322
0.152809
0.15138
0.150021
0.14872
0.147466
0.146248
0.145057
0.143882
0.142715
0.141546
0.140368
0.139174
0.137956
0.136708
0.135423
0.134096
0.132723
0.131299
0.129822
0.128289
0.126705
0.125072
0.123393
0.121666
0.119895
0.118077
0.116196
0.114248
0.112227
0.110125
0.107929
0.105639
0.103253
0.100765
0.0981759
0.0954799
0.0926719
0.0897464
0.0866975
0.0835165
0.0801951
0.0767266
0.0731055
0.0693146
0.0653314
0.0611481
0.0567717
0.0522111
0.0474726
0.042564
0.0374989
0.0322775
0.026896
0.0213473
0.0156304
0.00976486
0.00200131
0.00137912
-0.00111301
-0.003697
-0.00635822
-0.00908043
-0.01185
-0.0146566
-0.0174923
-0.0203514
-0.0232292
-0.0261224
-0.0290284
-0.0319449
-0.0348704
-0.0378032
-0.0407424
-0.0436869
-0.0466358
-0.0495885
-0.0525441
-0.0555022
-0.0584622
-0.0614237
-0.0643863
-0.0673495
-0.0703132
-0.073277
-0.0762408
-0.0792044
-0.0821675
-0.0851303
-0.0880925
-0.0910543
-0.0940155
-0.0969762
-0.0999365
-0.102896
-0.105856
-0.108816
0.218894
0.215509
0.212143
0.208802
0.205489
0.202203
0.19894
0.195697
0.19247
0.189261
0.186085
0.182966
0.179924
0.176976
0.174136
0.171417
0.168837
0.166406
0.164126
0.161997
0.160016
0.158173
0.156457
0.154854
0.15335
0.151929
0.15058
0.149291
0.14805
0.146847
0.145672
0.144513
0.143361
0.142206
0.141039
0.139854
0.138643
0.137398
0.136113
0.134781
0.1334
0.131967
0.130478
0.128935
0.127342
0.125704
0.124022
0.122294
0.120519
0.11869
0.116786
0.114808
0.11275
0.110605
0.108365
0.106037
0.103616
0.101102
0.098492
0.095781
0.0929651
0.0900397
0.0870022
0.0838459
0.0805634
0.0771472
0.0735944
0.0698781
0.065966
0.0618474
0.0575269
0.0530093
0.0483009
0.043415
0.0383591
0.0331173
0.0276777
0.0220352
0.016195
0.01016
0.00218352
0.00159696
-0.000893199
-0.00350331
-0.00619845
-0.0089528
-0.0117496
-0.0145781
-0.0174312
-0.0203037
-0.0231921
-0.0260935
-0.0290057
-0.0319272
-0.0348564
-0.0377922
-0.0407336
-0.0436798
-0.0466301
-0.0495837
-0.0525401
-0.0554988
-0.0584593
-0.0614211
-0.0643839
-0.0673474
-0.0703113
-0.0732753
-0.0762392
-0.0792029
-0.0821662
-0.0851291
-0.0880915
-0.0910533
-0.0940147
-0.0969755
-0.099936
-0.102896
-0.105856
-0.108816
0.218911
0.215557
0.212222
0.208913
0.205633
0.202381
0.199152
0.195944
0.192756
0.18959
0.18646
0.183383
0.180381
0.177473
0.174672
0.171987
0.169437
0.167031
0.164772
0.162664
0.160701
0.158873
0.157172
0.155582
0.154089
0.152678
0.151342
0.150071
0.148849
0.147667
0.146514
0.145377
0.144246
0.143109
0.141959
0.14079
0.13959
0.138351
0.137066
0.135731
0.134342
0.132901
0.131401
0.129848
0.128248
0.1266
0.12491
0.123169
0.121376
0.119519
0.117576
0.11555
0.113436
0.111232
0.108933
0.106553
0.104087
0.101538
0.0988979
0.0961654
0.0933363
0.0904091
0.0873854
0.0842595
0.0810244
0.077668
0.0741917
0.070558
0.0667279
0.062686
0.0584307
0.0539611
0.0492785
0.0443915
0.0393039
0.0340083
0.0285031
0.0227808
0.0168447
0.0106753
0.00251625
0.00194935
-0.000563922
-0.00323384
-0.00598754
-0.00878981
-0.0116238
-0.0144808
-0.0173557
-0.0202451
-0.0231465
-0.0260579
-0.028978
-0.0319054
-0.0348393
-0.0377787
-0.0407228
-0.0436711
-0.046623
-0.0495778
-0.0525352
-0.0554946
-0.0584556
-0.0614179
-0.064381
-0.0673448
-0.0703089
-0.0732731
-0.0762372
-0.079201
-0.0821645
-0.0851275
-0.0880901
-0.0910521
-0.0940136
-0.0969747
-0.0999353
-0.102896
-0.105856
-0.108816
0.218929
0.215614
0.21232
0.209053
0.205816
0.202608
0.199426
0.196265
0.193125
0.190011
0.186935
0.183912
0.180962
0.178104
0.175351
0.17271
0.170199
0.167826
0.165597
0.163515
0.161573
0.159764
0.158079
0.156504
0.155021
0.153625
0.15231
0.15106
0.149863
0.148708
0.147583
0.146476
0.145372
0.14426
0.143133
0.141981
0.140794
0.139561
0.138278
0.136939
0.135544
0.134093
0.132583
0.131021
0.129409
0.127748
0.126042
0.124278
0.122449
0.120544
0.118544
0.116454
0.114272
0.111995
0.109627
0.10718
0.104656
0.102055
0.0993708
0.0966048
0.0937538
0.0908192
0.0878031
0.0847022
0.0815092
0.0782072
0.074795
0.0712345
0.067485
0.0635226
0.0593407
0.0549274
0.0502774
0.0453933
0.0402725
0.0349222
0.0293601
0.0235979
0.0176473
0.0114631
0.00341276
0.00256965
-9.03157e-05
-0.00289125
-0.00573712
-0.00860286
-0.0114818
-0.0143717
-0.0172713
-0.0201796
-0.0230955
-0.0260182
-0.028947
-0.0318812
-0.0348202
-0.0377636
-0.0407108
-0.0436615
-0.0466151
-0.0495713
-0.0525296
-0.0554898
-0.0584514
-0.0614141
-0.0643776
-0.0673417
-0.070306
-0.0732704
-0.0762347
-0.0791988
-0.0821624
-0.0851257
-0.0880884
-0.0910506
-0.0940124
-0.0969736
-0.0999345
-0.102895
-0.105855
-0.108815
0.218953
0.215687
0.212443
0.20923
0.206047
0.202894
0.199767
0.196663
0.19358
0.190523
0.187509
0.184553
0.181671
0.178876
0.176179
0.173591
0.171126
0.168793
0.166599
0.164545
0.162626
0.160837
0.15917
0.15761
0.156144
0.154769
0.153478
0.152255
0.151088
0.149965
0.148873
0.147801
0.14673
0.145645
0.14454
0.143404
0.142228
0.141
0.139716
0.138374
0.136973
0.135513
0.133993
0.132418
0.130789
0.129108
0.127374
0.125571
0.123693
0.12173
0.119666
0.117505
0.115244
0.112888
0.110445
0.107926
0.105332
0.102662
0.0999145
0.0970907
0.0941928
0.091226
0.088194
0.0850949
0.0819204
0.0786517
0.0752702
0.0717459
0.0680551
0.0641693
0.0600665
0.0557212
0.0511196
0.0462567
0.0411301
0.0357507
0.0301444
0.0243543
0.0184697
0.0126848
0.00689857
0.0036859
0.000509465
-0.00251596
-0.00547699
-0.00841131
-0.0113361
-0.0142593
-0.017184
-0.0201116
-0.0230426
-0.0259771
-0.0289149
-0.0318562
-0.0348006
-0.0377481
-0.0406985
-0.0436516
-0.046607
-0.0495645
-0.0525239
-0.0554848
-0.058447
-0.0614101
-0.064374
-0.0673383
-0.0703029
-0.0732675
-0.076232
-0.0791962
-0.0821601
-0.0851235
-0.0880865
-0.0910489
-0.0940109
-0.0969724
-0.0999336
-0.102894
-0.105855
-0.108815
0.218987
0.215786
0.212606
0.209456
0.206337
0.203248
0.200185
0.197146
0.194128
0.191137
0.188191
0.185308
0.182502
0.179782
0.177155
0.174631
0.172221
0.169934
0.167776
0.165751
0.163856
0.162089
0.160441
0.158896
0.157449
0.1561
0.154835
0.153643
0.15251
0.151422
0.150366
0.149331
0.148296
0.147233
0.146147
0.145025
0.143855
0.142629
0.141342
0.139992
0.138582
0.13711
0.135576
0.133984
0.132332
0.130621
0.128848
0.126997
0.125064
0.123038
0.120906
0.118671
0.116329
0.113892
0.11137
0.108772
0.1061
0.103355
0.100534
0.0976402
0.0946777
0.091653
0.0885704
0.0854268
0.0822164
0.0789279
0.0755302
0.0719928
0.0683193
0.0644844
0.0604416
0.0561576
0.0516137
0.0467997
0.0417057
0.0363376
0.0307389
0.0249855
0.0191904
0.013538
0.00840876
0.00437694
0.000939891
-0.00221857
-0.00525472
-0.00823857
-0.0112001
-0.0141521
-0.0170999
-0.0200459
-0.0229914
-0.0259373
-0.0288841
-0.0318322
-0.0347819
-0.0377334
-0.0406868
-0.0436421
-0.0465992
-0.049558
-0.0525183
-0.0554799
-0.0584425
-0.0614061
-0.0643702
-0.0673348
-0.0702995
-0.0732643
-0.076229
-0.0791934
-0.0821575
-0.0851212
-0.0880844
-0.0910471
-0.0940093
-0.0969711
-0.0999325
-0.102894
-0.105854
-0.108815
0.219029
0.21591
0.212809
0.209734
0.206689
0.203674
0.200686
0.197721
0.194776
0.19186
0.188989
0.186185
0.18346
0.180824
0.178279
0.175829
0.17348
0.171244
0.169128
0.167135
0.165265
0.163518
0.16189
0.160364
0.158939
0.157615
0.15638
0.155219
0.154122
0.153069
0.15205
0.151052
0.15005
0.149009
0.147938
0.146823
0.145653
0.144423
0.143127
0.141763
0.140338
0.138848
0.137293
0.135676
0.133993
0.132242
0.130421
0.128517
0.126522
0.124428
0.122224
0.119912
0.117492
0.114976
0.112374
0.109694
0.106939
0.104111
0.101212
0.0982447
0.0952122
0.0921179
0.0889619
0.0857349
0.0824303
0.0790469
0.0755674
0.071968
0.0682553
0.0644135
0.0603909
0.056149
0.0516638
0.0469193
0.0418986
0.0366018
0.0310627
0.0253371
0.0194963
0.0136988
0.00842687
0.00444744
0.00107516
-0.0020569
-0.00509626
-0.00809799
-0.0110822
-0.0140564
-0.0170239
-0.0199864
-0.0229453
-0.0259017
-0.0288567
-0.0318111
-0.0347656
-0.0377207
-0.0406767
-0.043634
-0.0465925
-0.0495523
-0.0525133
-0.0554754
-0.0584384
-0.0614022
-0.0643665
-0.0673313
-0.0702962
-0.0732611
-0.0762259
-0.0791905
-0.0821548
-0.0851187
-0.0880821
-0.091045
-0.0940075
-0.0969696
-0.0999313
-0.102893
-0.105854
-0.108815
0.219075
0.21605
0.21304
0.210056
0.2071
0.204173
0.201271
0.198391
0.195529
0.192693
0.189906
0.187188
0.184552
0.182005
0.179547
0.17718
0.174905
0.17273
0.170663
0.168708
0.166863
0.165134
0.163521
0.162015
0.160614
0.159319
0.158113
0.156986
0.155925
0.154908
0.153927
0.152966
0.151993
0.150976
0.149909
0.148797
0.147619
0.146375
0.145061
0.143675
0.142226
0.140709
0.139125
0.137474
0.135751
0.133953
0.132076
0.13011
0.128046
0.125878
0.123596
0.121203
0.118702
0.116105
0.11342
0.110653
0.107808
0.104888
0.101901
0.0988505
0.0957383
0.092563
0.0893117
0.0859636
0.082521
0.0789894
0.0753686
0.0716555
0.0678543
0.0639615
0.0599286
0.0557138
0.0512914
0.0466317
0.041713
0.0365218
0.0310532
0.0253129
0.0193186
0.0131202
0.00711146
0.00388564
0.000954227
-0.00200078
-0.00498696
-0.00798516
-0.0109831
-0.0139753
-0.0169598
-0.0199368
-0.0229074
-0.025873
-0.028835
-0.0317947
-0.0347531
-0.0377111
-0.0406692
-0.0436279
-0.0465874
-0.0495478
-0.0525093
-0.0554716
-0.0584348
-0.0613987
-0.0643631
-0.0673279
-0.0702929
-0.0732579
-0.0762228
-0.0791876
-0.082152
-0.085116
-0.0880797
-0.0910429
-0.0940057
-0.0969681
-0.0999301
-0.102892
-0.105853
-0.108815
0.219129
0.21621
0.213307
0.210427
0.207575
0.204749
0.201948
0.199165
0.196395
0.193649
0.190954
0.188332
0.185792
0.183338
0.180972
0.178692
0.176494
0.174384
0.172367
0.170449
0.168633
0.166927
0.165336
0.163855
0.162484
0.161218
0.160045
0.158953
0.157927
0.156945
0.156004
0.155079
0.154135
0.153139
0.152074
0.150961
0.149765
0.148497
0.147152
0.145734
0.144251
0.142698
0.141075
0.13938
0.137608
0.135755
0.133814
0.131776
0.129633
0.12738
0.125011
0.12253
0.119941
0.117254
0.114474
0.111607
0.108658
0.105634
0.102547
0.0994027
0.0961935
0.0929029
0.0895068
0.0859979
0.0823815
0.0786714
0.0748819
0.0710219
0.0670981
0.0631258
0.0590773
0.0548937
0.0505411
0.0459828
0.0411887
0.0361331
0.0307804
0.0251033
0.0190195
0.0121307
0.00198093
0.00298362
0.000836276
-0.00192729
-0.00487761
-0.00788317
-0.0108992
-0.0139098
-0.0169102
-0.0199
-0.0228805
-0.0258536
-0.0288211
-0.0317847
-0.0347459
-0.0377057
-0.0406651
-0.0436245
-0.0465845
-0.0495451
-0.0525066
-0.055469
-0.0584321
-0.0613959
-0.0643602
-0.0673249
-0.0702898
-0.0732548
-0.0762198
-0.0791846
-0.0821491
-0.0851134
-0.0880772
-0.0910407
-0.0940038
-0.0969665
-0.0999288
-0.102891
-0.105853
-0.108815
0.219189
0.216391
0.213608
0.210848
0.208117
0.20541
0.202724
0.200053
0.197388
0.194745
0.192155
0.189636
0.187198
0.184845
0.182575
0.180383
0.178263
0.176215
0.174245
0.172362
0.170579
0.168904
0.167344
0.165899
0.164566
0.163332
0.16219
0.161132
0.16014
0.159196
0.158294
0.157406
0.156492
0.155514
0.154457
0.153331
0.15211
0.150807
0.149421
0.147962
0.146434
0.144836
0.143165
0.141417
0.139587
0.137668
0.135653
0.133532
0.131298
0.128947
0.126478
0.123895
0.121204
0.118411
0.115521
0.112538
0.10947
0.106331
0.103132
0.0998643
0.0965078
0.093045
0.0894651
0.0857641
0.0819515
0.0780488
0.0740818
0.0700721
0.0660324
0.0619798
0.0579067
0.0537533
0.049471
0.0450235
0.0403699
0.035481
0.0303223
0.0248733
0.0191247
0.0131212
0.00714436
0.00421778
0.00130654
-0.00168368
-0.0047263
-0.00778205
-0.0108302
-0.0138629
-0.0168789
-0.0198796
-0.0228676
-0.0258458
-0.0288167
-0.0317825
-0.034745
-0.0377055
-0.0406651
-0.0436245
-0.0465842
-0.0495446
-0.0525057
-0.0554676
-0.0584303
-0.0613938
-0.0643578
-0.0673223
-0.070287
-0.0732519
-0.0762169
-0.0791817
-0.0821463
-0.0851107
-0.0880747
-0.0910384
-0.0940018
-0.0969648
-0.0999275
-0.10289
-0.105852
-0.108814
0.219259
0.216599
0.213952
0.211329
0.208733
0.20616
0.203605
0.201061
0.198515
0.195991
0.193518
0.191114
0.188787
0.186539
0.18437
0.182269
0.180231
0.178252
0.176334
0.174493
0.172749
0.171114
0.169593
0.168186
0.166889
0.165687
0.164575
0.163545
0.162585
0.161681
0.160821
0.15997
0.159087
0.158129
0.157079
0.155933
0.154682
0.153334
0.151899
0.150389
0.148808
0.147157
0.14543
0.143622
0.141726
0.139733
0.137633
0.135417
0.133079
0.130617
0.128032
0.125329
0.122516
0.119597
0.116577
0.113462
0.110261
0.106985
0.103627
0.100172
0.0966122
0.09294
0.0891477
0.0852358
0.0812141
0.0771093
0.0729587
0.0687956
0.0646379
0.0605151
0.0564266
0.0523078
0.0481005
0.0437749
0.0392887
0.0346042
0.0296969
0.0245694
0.0192838
0.0140068
0.00912433
0.00525568
0.00184204
-0.00140474
-0.0045766
-0.00770065
-0.0107869
-0.0138417
-0.0168706
-0.019879
-0.0228714
-0.0258519
-0.0288237
-0.0317896
-0.0347516
-0.0377114
-0.04067
-0.0436284
-0.0465871
-0.0495465
-0.0525067
-0.0554678
-0.0584298
-0.0613926
-0.0643562
-0.0673202
-0.0702847
-0.0732494
-0.0762142
-0.0791789
-0.0821436
-0.0851081
-0.0880723
-0.0910362
-0.0939998
-0.0969631
-0.0999262
-0.102889
-0.105852
-0.108814
0.219334
0.216825
0.214333
0.211867
0.209425
0.207002
0.204592
0.20219
0.199782
0.197394
0.195052
0.192773
0.190565
0.188429
0.186366
0.184365
0.182418
0.180517
0.178662
0.17687
0.175171
0.173578
0.172097
0.170728
0.169465
0.168295
0.167211
0.166211
0.165286
0.164423
0.163606
0.162795
0.161947
0.16101
0.159964
0.158799
0.157511
0.156113
0.154619
0.153051
0.151413
0.149705
0.147919
0.146047
0.144082
0.142009
0.139817
0.137496
0.135043
0.132454
0.129734
0.126892
0.123934
0.120868
0.1177
0.114433
0.111068
0.1076
0.104023
0.100333
0.0965285
0.0926096
0.0885746
0.0844266
0.0801781
0.0758626
0.0715295
0.0672255
0.0629683
0.0587775
0.0546594
0.0505683
0.0464432
0.0422466
0.0379431
0.03349
0.0288674
0.0240846
0.019207
0.0143866
0.00984907
0.00582519
0.00218697
-0.00122164
-0.00449104
-0.00766983
-0.0107855
-0.0138554
-0.0168913
-0.0199021
-0.0228945
-0.0258735
-0.0288433
-0.0318068
-0.0347663
-0.0377237
-0.0406801
-0.0436365
-0.0465933
-0.0495511
-0.0525098
-0.0554697
-0.0584306
-0.0613926
-0.0643553
-0.0673188
-0.0702828
-0.0732471
-0.0762117
-0.0791764
-0.082141
-0.0851055
-0.0880699
-0.091034
-0.0939978
-0.0969615
-0.0999248
-0.102888
-0.105851
-0.108814
0.219418
0.217079
0.214756
0.212457
0.210181
0.207923
0.205676
0.203433
0.201182
0.198945
0.19675
0.194612
0.192535
0.190524
0.188577
0.186683
0.184832
0.183019
0.18124
0.179507
0.177856
0.176309
0.174869
0.173537
0.172307
0.17117
0.170118
0.169149
0.168263
0.167446
0.166674
0.165906
0.165097
0.164184
0.163142
0.161956
0.160628
0.159174
0.15762
0.155991
0.154298
0.152534
0.150692
0.148762
0.146729
0.144576
0.142289
0.139858
0.13728
0.134552
0.131682
0.128681
0.125559
0.122326
0.11898
0.115514
0.111923
0.108207
0.104368
0.100402
0.0963158
0.0921155
0.0878063
0.0833939
0.0788961
0.0743564
0.0698384
0.0653929
0.0610351
0.056775
0.0526218
0.0485509
0.04451
0.0404503
0.0363365
0.0321228
0.0277843
0.0233218
0.0187909
0.0142986
0.00998171
0.00597191
0.00227139
-0.00120057
-0.00451285
-0.00771502
-0.0108406
-0.0139124
-0.0169458
-0.0199519
-0.0229386
-0.0259119
-0.0288762
-0.0318346
-0.0347896
-0.0377429
-0.0406957
-0.0436489
-0.0466031
-0.0495584
-0.0525152
-0.0554733
-0.0584328
-0.0613936
-0.0643554
-0.067318
-0.0702814
-0.0732453
-0.0762095
-0.079174
-0.0821386
-0.0851031
-0.0880675
-0.0910318
-0.0939959
-0.0969598
-0.0999235
-0.102887
-0.10585
-0.108814
0.219506
0.217343
0.215197
0.213076
0.210976
0.208895
0.206824
0.204758
0.202685
0.200617
0.198585
0.196601
0.194671
0.192796
0.190976
0.1892
0.18746
0.185749
0.184062
0.182405
0.180814
0.179318
0.177923
0.176632
0.17544
0.174338
0.173322
0.172392
0.171549
0.170777
0.170049
0.169326
0.168555
0.167666
0.166626
0.165419
0.164051
0.162543
0.160929
0.159244
0.1575
0.155692
0.153808
0.151831
0.149741
0.147518
0.145143
0.142609
0.139907
0.137036
0.134006
0.130831
0.127522
0.124087
0.120514
0.116793
0.112929
0.108928
0.104788
0.10051
0.0961032
0.0915764
0.0869491
0.082237
0.0774658
0.0726863
0.0679705
0.063368
0.0588938
0.0545559
0.0503656
0.0463038
0.0423293
0.0383948
0.0344602
0.0304733
0.0264041
0.0222461
0.0180336
0.0138334
0.00970636
0.00576768
0.00209671
-0.00136058
-0.00466046
-0.0078491
-0.0109602
-0.0140172
-0.0170365
-0.0200295
-0.0230045
-0.0259674
-0.0289226
-0.0318731
-0.0348213
-0.0377688
-0.0407167
-0.0436657
-0.0466162
-0.0495686
-0.0525227
-0.0554788
-0.0584365
-0.0613957
-0.0643563
-0.067318
-0.0702806
-0.0732439
-0.0762077
-0.0791719
-0.0821363
-0.0851008
-0.0880653
-0.0910297
-0.093994
-0.0969582
-0.0999222
-0.102886
-0.10585
-0.108814
0.219595
0.217609
0.215641
0.213697
0.211779
0.209881
0.207996
0.206117
0.204238
0.202358
0.200505
0.19869
0.19692
0.195195
0.193518
0.191876
0.190263
0.18867
0.187096
0.18554
0.184028
0.182598
0.181258
0.180015
0.178867
0.177807
0.176835
0.175951
0.175154
0.174427
0.173738
0.173058
0.17232
0.171448
0.170408
0.169181
0.167777
0.166222
0.164557
0.162826
0.161047
0.159211
0.157305
0.155303
0.15318
0.15091
0.148474
0.145859
0.143052
0.140051
0.136869
0.133521
0.130017
0.126347
0.122489
0.118451
0.114263
0.109941
0.105472
0.100846
0.0960708
0.0911701
0.0861669
0.0811114
0.0760451
0.071017
0.0660849
0.0612973
0.0566783
0.0522381
0.0479875
0.043913
0.0399791
0.0361401
0.0323583
0.0285858
0.0247707
0.0208917
0.0169624
0.0130167
0.00908522
0.00525993
0.00168393
-0.00169489
-0.00493227
-0.0080717
-0.0111437
-0.0141692
-0.0171626
-0.0201342
-0.0230913
-0.0260392
-0.0289818
-0.0319218
-0.0348611
-0.0378011
-0.0407427
-0.0436865
-0.0466326
-0.0495813
-0.0525324
-0.0554858
-0.0584414
-0.0613989
-0.064358
-0.0673186
-0.0702803
-0.0732429
-0.0762062
-0.07917
-0.0821342
-0.0850986
-0.0880631
-0.0910277
-0.0939921
-0.0969566
-0.0999209
-0.102885
-0.105849
-0.108813
0.219678
0.217859
0.216059
0.214285
0.212541
0.210822
0.209124
0.207439
0.205761
0.204085
0.202426
0.200798
0.199204
0.197648
0.196128
0.194636
0.193166
0.191711
0.190269
0.188839
0.187437
0.186095
0.184829
0.183648
0.182556
0.18155
0.180629
0.179793
0.179042
0.178354
0.177703
0.177062
0.176346
0.175484
0.174442
0.173198
0.171765
0.170175
0.168477
0.166723
0.164932
0.163098
0.161201
0.159209
0.157091
0.154817
0.152363
0.14971
0.14684
0.143746
0.14044
0.136942
0.133233
0.129275
0.125073
0.120678
0.11615
0.111503
0.106691
0.101683
0.0964832
0.0911336
0.0857076
0.0802654
0.0748627
0.0695449
0.0643611
0.0593569
0.0545594
0.049983
0.0456378
0.0415146
0.0375845
0.0338046
0.0301346
0.0265369
0.0229443
0.0193159
0.0156414
0.011929
0.00818597
0.004482
0.00106228
-0.00217898
-0.0053101
-0.00837017
-0.0113826
-0.0143623
-0.0173199
-0.0202628
-0.0231966
-0.0261255
-0.0290523
-0.0319794
-0.034908
-0.0378391
-0.0407733
-0.0437109
-0.0466519
-0.0495963
-0.0525439
-0.0554944
-0.0584476
-0.0614031
-0.0643606
-0.0673198
-0.0702805
-0.0732423
-0.076205
-0.0791684
-0.0821323
-0.0850966
-0.0880611
-0.0910257
-0.0939904
-0.096955
-0.0999196
-0.102884
-0.105849
-0.108813
0.219749
0.218072
0.216416
0.214791
0.213202
0.211648
0.210125
0.208627
0.207147
0.20568
0.204226
0.202797
0.201395
0.200022
0.198676
0.197352
0.196043
0.194746
0.193457
0.192176
0.190913
0.18969
0.188524
0.187427
0.186408
0.18547
0.184608
0.183824
0.183117
0.182465
0.181848
0.181231
0.180525
0.179666
0.178617
0.177361
0.175914
0.174312
0.172611
0.170866
0.1691
0.167308
0.165465
0.163534
0.16148
0.159269
0.156866
0.154247
0.151386
0.148263
0.144887
0.141273
0.137321
0.133019
0.128445
0.123703
0.118882
0.113964
0.10883
0.103417
0.0977311
0.0918477
0.085904
0.0800095
0.0742248
0.068582
0.0631093
0.0578465
0.0528213
0.0480484
0.0435394
0.0392975
0.0353046
0.0315237
0.0279134
0.0244386
0.0210194
0.0176012
0.0141537
0.0106509
0.00706419
0.00342391
0.00027186
-0.00276761
-0.00575928
-0.00872084
-0.011661
-0.014586
-0.0175009
-0.02041
-0.0233166
-0.0262233
-0.0291321
-0.0320443
-0.0349606
-0.0378817
-0.0408076
-0.0437384
-0.0466737
-0.0496134
-0.052557
-0.0555043
-0.0584548
-0.0614081
-0.0643638
-0.0673216
-0.0702811
-0.073242
-0.0762041
-0.079167
-0.0821306
-0.0850947
-0.0880592
-0.0910238
-0.0939886
-0.0969535
-0.0999184
-0.102883
-0.105848
-0.108813
0.219797
0.21822
0.216668
0.215154
0.213687
0.212267
0.210895
0.209565
0.20827
0.207001
0.205753
0.204528
0.203326
0.202147
0.200988
0.199844
0.198713
0.19759
0.196471
0.195357
0.194255
0.193179
0.192142
0.191155
0.190232
0.189374
0.188583
0.187858
0.187196
0.186575
0.185976
0.185364
0.184655
0.183789
0.182732
0.181475
0.180036
0.178455
0.176792
0.175104
0.173414
0.171719
0.169992
0.168194
0.166285
0.164225
0.161972
0.159493
0.156746
0.153688
0.150314
0.146603
0.142375
0.137719
0.132814
0.127822
0.122835
0.117743
0.11232
0.106482
0.100245
0.0937538
0.0872402
0.0808362
0.0746084
0.0685765
0.0627504
0.0571527
0.0518107
0.0467471
0.0419834
0.0375263
0.0333692
0.0294888
0.0258492
0.0224116
0.0190977
0.0158432
0.0125903
0.00927583
0.00580553
0.00141789
-0.000596031
-0.00338058
-0.00622904
-0.00909241
-0.0119592
-0.0148272
-0.0176968
-0.0205694
-0.0234465
-0.0263291
-0.0292183
-0.0321144
-0.0350176
-0.0379278
-0.0408447
-0.0437681
-0.0466973
-0.0496319
-0.0525714
-0.0555152
-0.0584628
-0.0614138
-0.0643676
-0.0673238
-0.0702821
-0.0732421
-0.0762034
-0.0791658
-0.082129
-0.0850929
-0.0880573
-0.091022
-0.0939869
-0.096952
-0.0999172
-0.102882
-0.105848
-0.108813
0.219816
0.218277
0.21677
0.215311
0.213912
0.212581
0.21132
0.210123
0.208982
0.207887
0.206828
0.205798
0.204793
0.203806
0.202835
0.201876
0.200925
0.199978
0.199035
0.198097
0.197167
0.196254
0.195367
0.194516
0.193708
0.192948
0.192239
0.191578
0.190958
0.190359
0.189763
0.189135
0.188409
0.18753
0.186472
0.185233
0.183835
0.182322
0.180751
0.179178
0.177628
0.1761
0.174567
0.172991
0.171329
0.169535
0.167562
0.165358
0.162855
0.159977
0.156692
0.152913
0.148435
0.143509
0.138424
0.133387
0.1285
0.123483
0.117901
0.111647
0.104774
0.0975748
0.0904243
0.0834537
0.0767153
0.0701877
0.0638639
0.0577792
0.0519771
0.0465001
0.0413595
0.0365592
0.0321022
0.0279851
0.0241854
0.0206657
0.0173482
0.0141639
0.0110595
0.0079804
0.00485839
0.00166901
-0.00113087
-0.00389148
-0.00666521
-0.00945503
-0.0122582
-0.0150727
-0.017898
-0.0207341
-0.0235811
-0.0264391
-0.029308
-0.0321875
-0.0350769
-0.0379759
-0.0408835
-0.0437992
-0.046722
-0.0496514
-0.0525865
-0.0555267
-0.0584714
-0.0614199
-0.0643717
-0.0673264
-0.0702834
-0.0732423
-0.0762029
-0.0791647
-0.0821276
-0.0850912
-0.0880555
-0.0910202
-0.0939853
-0.0969505
-0.0999159
-0.102881
-0.105847
-0.108813
0.219795
0.218216
0.216677
0.215199
0.2138
0.212492
0.21128
0.210163
0.20913
0.208167
0.207258
0.206391
0.205554
0.204737
0.203933
0.203137
0.202346
0.20156
0.200778
0.200002
0.199236
0.198484
0.197752
0.197045
0.196365
0.195714
0.19509
0.194491
0.193907
0.193321
0.192718
0.192064
0.191311
0.19042
0.189376
0.188185
0.186872
0.185482
0.184068
0.182682
0.181351
0.180078
0.17884
0.177598
0.176309
0.17492
0.173376
0.171598
0.169481
0.166919
0.163846
0.160092
0.155513
0.150532
0.14553
0.140792
0.136411
0.131747
0.126141
0.11952
0.111995
0.104051
0.0962394
0.0886419
0.0812903
0.0741126
0.0671233
0.0603873
0.0539602
0.0478941
0.0421894
0.0368483
0.0319069
0.0273786
0.0232445
0.0194714
0.0160103
0.0127919
0.0097517
0.00683341
0.00397602
0.00111293
-0.00162842
-0.0043402
-0.0070599
-0.00979427
-0.0125447
-0.0153119
-0.0180961
-0.0208974
-0.0237154
-0.0265492
-0.0293981
-0.032261
-0.0351369
-0.0380245
-0.0409228
-0.0438307
-0.0467472
-0.0496713
-0.052602
-0.0555386
-0.0584802
-0.0614263
-0.0643761
-0.0673291
-0.0702848
-0.0732427
-0.0762024
-0.0791637
-0.0821262
-0.0850896
-0.0880537
-0.0910185
-0.0939836
-0.0969491
-0.0999147
-0.102881
-0.105846
-0.108812
0.219726
0.218014
0.216351
0.214765
0.213281
0.211918
0.210683
0.209574
0.208579
0.20768
0.206856
0.206087
0.205353
0.204641
0.203942
0.203251
0.202565
0.201885
0.201214
0.200556
0.199916
0.199295
0.198695
0.198117
0.197556
0.197008
0.196467
0.195924
0.195369
0.194791
0.194172
0.19349
0.192713
0.191824
0.190819
0.189713
0.188538
0.187335
0.186154
0.185041
0.184025
0.183115
0.182295
0.181522
0.180753
0.179928
0.178975
0.177786
0.176213
0.174136
0.171458
0.167915
0.163521
0.158831
0.154318
0.150334
0.146816
0.142692
0.137226
0.130396
0.122376
0.113766
0.105352
0.0971271
0.0890903
0.0811318
0.0733103
0.0657303
0.0584844
0.0516478
0.0451852
0.0390654
0.0333843
0.0281959
0.0234863
0.0192223
0.0153802
0.0119285
0.00880092
0.00591359
0.00319197
0.000538248
-0.00205822
-0.00472111
-0.0074069
-0.0101019
-0.0128099
-0.0155362
-0.0182837
-0.0210533
-0.0238443
-0.0266555
-0.0294856
-0.0323328
-0.0351955
-0.0380723
-0.0409615
-0.0438619
-0.0467721
-0.049691
-0.0526174
-0.0555504
-0.058489
-0.0614326
-0.0643804
-0.0673318
-0.0702862
-0.073243
-0.076202
-0.0791627
-0.0821247
-0.0850879
-0.088052
-0.0910167
-0.0939819
-0.0969476
-0.0999135
-0.10288
-0.105846
-0.108812
0.219598
0.217633
0.215733
0.213933
0.212264
0.210748
0.209398
0.208211
0.207169
0.206251
0.205428
0.204671
0.20395
0.203246
0.202547
0.201851
0.201159
0.200475
0.19981
0.199172
0.198571
0.198008
0.197481
0.196985
0.19651
0.196042
0.195563
0.195059
0.19452
0.193937
0.193299
0.192593
0.19181
0.190947
0.190013
0.189033
0.188045
0.187094
0.186228
0.18549
0.18491
0.184496
0.184234
0.18409
0.184004
0.183906
0.18371
0.183288
0.182445
0.181063
0.179033
0.176011
0.172203
0.168279
0.164783
0.161977
0.159506
0.155989
0.150853
0.144144
0.135998
0.127041
0.118238
0.10949
0.100795
0.0920126
0.0832517
0.0746474
0.0663717
0.0585902
0.0511795
0.044006
0.0373016
0.0311935
0.0256247
0.0205247
0.0159145
0.0118625
0.00835195
0.0052929
0.00257212
7.15936e-05
-0.00228892
-0.00499969
-0.00769926
-0.0103731
-0.0130472
-0.0157385
-0.0184542
-0.021196
-0.0239634
-0.0267545
-0.0295676
-0.0324004
-0.0352511
-0.0381177
-0.0409985
-0.0438918
-0.046796
-0.0497099
-0.0526322
-0.0555617
-0.0584975
-0.0614387
-0.0643846
-0.0673343
-0.0702874
-0.0732433
-0.0762015
-0.0791616
-0.0821233
-0.0850862
-0.0880501
-0.0910149
-0.0939802
-0.0969461
-0.0999123
-0.102879
-0.105845
-0.108812
0.21939
0.21702
0.21474
0.212597
0.210624
0.208846
0.207276
0.205905
0.204712
0.20367
0.202739
0.201877
0.201042
0.200205
0.199354
0.198493
0.19763
0.196777
0.195957
0.195191
0.194496
0.193878
0.19333
0.192847
0.192404
0.191971
0.191519
0.191019
0.190467
0.189857
0.189186
0.188455
0.187672
0.186848
0.186003
0.185178
0.184423
0.183791
0.183331
0.183086
0.183089
0.183342
0.183829
0.184493
0.185252
0.186019
0.186712
0.187238
0.187372
0.186961
0.185889
0.183804
0.181062
0.178437
0.176391
0.174986
0.173558
0.17044
0.1659
0.160099
0.152483
0.143821
0.135036
0.125987
0.116814
0.107363
0.0976993
0.0879259
0.0783851
0.0695497
0.0610739
0.0525531
0.0445323
0.0373305
0.0307084
0.0243644
0.0183816
0.0131482
0.00877369
0.00520865
0.00225875
-0.000199699
-0.0015397
-0.00518171
-0.00795376
-0.0106094
-0.0132509
-0.0159117
-0.0186012
-0.0213206
-0.0240686
-0.0268431
-0.0296417
-0.0324621
-0.0353022
-0.0381597
-0.0410328
-0.0439196
-0.0468183
-0.0497276
-0.052646
-0.0555723
-0.0585054
-0.0614444
-0.0643883
-0.0673366
-0.0702885
-0.0732434
-0.0762008
-0.0791604
-0.0821217
-0.0850844
-0.0880482
-0.091013
-0.0939784
-0.0969445
-0.099911
-0.102878
-0.105845
-0.108812
0.219058
0.216046
0.213181
0.210525
0.208104
0.205938
0.204032
0.202368
0.200912