/*--------------------------------*- C++ -*----------------------------------*\
  =========                 |
  \\      /  F ield         | OpenFOAM: The Open Source CFD Toolbox
   \\    /   O peration     | Website:  https://openfoam.org
    \\  /    A nd           | Version:  6
     \\/     M anipulation  |
\*---------------------------------------------------------------------------*/
FoamFile
{
    version     2.0;
    format      ascii;
    class       volScalarField;
    location    "1400";
    object      T;
}
// * * * * * * * * * * * * * * * * * * * * * * * * * * * * * * * * * * * * * //

dimensions      [0 0 0 1 0 0 0];

internalField   nonuniform List<scalar> 
4800
(
552.488
552.364
552.24
552.117
551.995
551.874
551.754
551.635
551.516
551.398
551.281
551.166
551.052
550.943
550.837
550.737
550.642
550.553
550.469
550.391
550.318
550.25
550.187
550.129
550.073
550.021
549.972
549.924
549.878
549.834
549.79
549.747
549.704
549.661
549.618
549.574
549.53
549.485
549.439
549.391
549.341
549.29
549.237
549.182
549.124
549.065
549.004
548.941
548.877
548.811
548.743
548.673
548.601
548.526
548.448
548.366
548.281
548.192
548.098
548.001
547.899
547.793
547.682
547.566
547.444
547.316
547.183
547.042
546.894
546.739
546.577
546.408
546.234
546.054
545.868
545.677
545.483
545.286
545.087
544.886
544.68
544.593
544.502
544.409
544.314
544.216
544.116
544.015
543.913
543.81
543.706
543.601
543.496
543.391
543.285
543.179
543.072
542.965
542.858
542.751
542.644
542.537
542.43
542.322
542.215
542.107
542
541.892
541.785
541.678
541.57
541.463
541.355
541.248
541.14
541.033
540.926
540.818
540.711
540.604
552.488
552.364
552.241
552.118
551.996
551.875
551.756
551.637
551.518
551.401
551.284
551.168
551.056
550.946
550.842
550.742
550.647
550.558
550.474
550.396
550.324
550.256
550.193
550.134
550.079
550.027
549.978
549.93
549.885
549.84
549.797
549.754
549.711
549.668
549.625
549.582
549.537
549.492
549.446
549.398
549.348
549.297
549.243
549.188
549.131
549.072
549.011
548.948
548.884
548.818
548.75
548.68
548.607
548.532
548.453
548.371
548.285
548.196
548.102
548.005
547.903
547.797
547.686
547.57
547.449
547.322
547.189
547.049
546.903
546.749
546.588
546.421
546.248
546.068
545.883
545.693
545.498
545.3
545.098
544.892
544.683
544.595
544.505
544.411
544.316
544.218
544.118
544.016
543.914
543.811
543.707
543.602
543.497
543.391
543.285
543.179
543.072
542.965
542.859
542.751
542.644
542.537
542.43
542.322
542.215
542.107
542
541.892
541.785
541.678
541.57
541.463
541.355
541.248
541.14
541.033
540.926
540.818
540.711
540.604
552.488
552.365
552.242
552.12
551.998
551.878
551.759
551.641
551.523
551.406
551.29
551.175
551.063
550.955
550.851
550.751
550.657
550.568
550.485
550.407
550.335
550.268
550.205
550.147
550.092
550.04
549.991
549.944
549.898
549.854
549.811
549.768
549.726
549.683
549.641
549.597
549.553
549.508
549.461
549.413
549.363
549.312
549.258
549.202
549.145
549.086
549.025
548.962
548.898
548.832
548.764
548.693
548.62
548.544
548.464
548.381
548.294
548.204
548.11
548.012
547.91
547.804
547.694
547.578
547.458
547.332
547.201
547.063
546.919
546.767
546.609
546.443
546.271
546.093
545.91
545.72
545.525
545.324
545.117
544.904
544.687
544.6
544.51
544.416
544.319
544.221
544.12
544.018
543.916
543.812
543.708
543.603
543.497
543.391
543.285
543.179
543.072
542.966
542.859
542.752
542.644
542.537
542.43
542.322
542.215
542.107
542
541.893
541.785
541.678
541.57
541.463
541.355
541.248
541.14
541.033
540.926
540.818
540.711
540.604
552.488
552.366
552.244
552.122
552.002
551.883
551.765
551.647
551.53
551.414
551.299
551.185
551.075
550.968
550.865
550.767
550.673
550.585
550.502
550.425
550.353
550.286
550.224
550.166
550.111
550.06
550.011
549.964
549.919
549.876
549.833
549.791
549.749
549.707
549.665
549.622
549.578
549.533
549.486
549.438
549.388
549.336
549.282
549.226
549.168
549.109
549.048
548.985
548.921
548.854
548.785
548.713
548.639
548.561
548.48
548.395
548.307
548.216
548.122
548.023
547.921
547.815
547.705
547.59
547.471
547.347
547.219
547.084
546.942
546.793
546.636
546.472
546.301
546.124
545.941
545.751
545.554
545.349
545.137
544.918
544.693
544.608
544.518
544.423
544.325
544.225
544.124
544.021
543.918
543.814
543.709
543.604
543.498
543.392
543.286
543.179
543.073
542.966
542.859
542.752
542.645
542.537
542.43
542.322
542.215
542.108
542
541.893
541.785
541.678
541.57
541.463
541.355
541.248
541.14
541.033
540.926
540.818
540.711
540.604
552.489
552.367
552.246
552.126
552.008
551.89
551.772
551.656
551.54
551.426
551.312
551.201
551.092
550.986
550.885
550.787
550.695
550.608
550.526
550.449
550.378
550.312
550.25
550.192
550.138
550.087
550.039
549.993
549.948
549.905
549.864
549.822
549.781
549.74
549.698
549.656
549.612
549.567
549.521
549.472
549.422
549.37
549.315
549.259
549.201
549.141
549.08
549.017
548.952
548.884
548.814
548.74
548.664
548.584
548.5
548.414
548.324
548.232
548.136
548.037
547.934
547.828
547.719
547.605
547.488
547.366
547.24
547.108
546.97
546.823
546.669
546.507
546.337
546.16
545.975
545.783
545.584
545.376
545.161
544.937
544.702
544.621
544.53
544.433
544.333
544.231
544.128
544.025
543.921
543.816
543.711
543.605
543.499
543.393
543.286
543.18
543.073
542.966
542.859
542.752
542.645
542.537
542.43
542.323
542.215
542.108
542
541.893
541.785
541.678
541.57
541.463
541.355
541.248
541.14
541.033
540.926
540.818
540.711
540.604
552.49
552.369
552.25
552.132
552.014
551.898
551.782
551.668
551.554
551.441
551.329
551.22
551.113
551.009
550.909
550.814
550.722
550.636
550.556
550.48
550.41
550.344
550.283
550.226
550.172
550.122
550.074
550.028
549.985
549.943
549.902
549.862
549.822
549.782
549.741
549.699
549.656
549.611
549.565
549.516
549.466
549.413
549.358
549.301
549.243
549.183
549.121
549.057
548.99
548.921
548.849
548.773
548.694
548.611
548.525
548.437
548.345
548.251
548.153
548.053
547.95
547.843
547.734
547.621
547.506
547.386
547.262
547.133
546.997
546.853
546.702
546.542
546.373
546.196
546.01
545.816
545.615
545.406
545.19
544.966
544.721
544.643
544.547
544.445
544.342
544.238
544.134
544.029
543.924
543.818
543.712
543.606
543.5
543.394
543.287
543.18
543.074
542.967
542.859
542.752
542.645
542.538
542.43
542.323
542.215
542.108
542
541.893
541.785
541.678
541.57
541.463
541.355
541.248
541.141
541.033
540.926
540.818
540.711
540.604
552.491
552.372
552.255
552.138
552.023
551.908
551.795
551.682
551.57
551.46
551.35
551.243
551.139
551.037
550.939
550.846
550.756
550.672
550.592
550.518
550.448
550.383
550.323
550.266
550.213
550.163
550.116
550.072
550.03
549.989
549.949
549.91
549.871
549.832
549.792
549.751
549.708
549.664
549.617
549.568
549.517
549.464
549.409
549.352
549.293
549.232
549.169
549.104
549.036
548.964
548.889
548.811
548.729
548.644
548.555
548.464
548.369
548.273
548.173
548.071
547.965
547.858
547.748
547.635
547.52
547.402
547.279
547.151
547.018
546.877
546.728
546.57
546.404
546.227
546.041
545.846
545.643
545.433
545.22
545.01
544.813
544.684
544.568
544.459
544.351
544.245
544.139
544.033
543.927
543.821
543.714
543.608
543.501
543.395
543.288
543.181
543.074
542.967
542.86
542.752
542.645
542.538
542.43
542.323
542.215
542.108
542
541.893
541.785
541.678
541.57
541.463
541.355
541.248
541.141
541.033
540.926
540.818
540.711
540.604
552.492
552.376
552.26
552.146
552.033
551.921
551.81
551.7
551.59
551.482
551.375
551.27
551.169
551.07
550.975
550.883
550.796
550.713
550.635
550.561
550.493
550.428
550.369
550.313
550.26
550.211
550.165
550.122
550.081
550.042
550.003
549.966
549.928
549.89
549.85
549.81
549.767
549.723
549.676
549.627
549.576
549.522
549.467
549.409
549.349
549.287
549.223
549.155
549.085
549.012
548.934
548.853
548.768
548.68
548.588
548.494
548.397
548.298
548.195
548.09
547.983
547.873
547.761
547.647
547.531
547.412
547.289
547.16
547.027
546.888
546.741
546.586
546.421
546.247
546.062
545.868
545.665
545.456
545.246
545.041
544.855
544.709
544.584
544.469
544.359
544.251
544.144
544.037
543.93
543.823
543.716
543.609
543.502
543.396
543.289
543.182
543.074
542.967
542.86
542.753
542.645
542.538
542.431
542.323
542.216
542.108
542.001
541.893
541.785
541.678
541.57
541.463
541.356
541.248
541.141
541.033
540.926
540.818
540.711
540.604
552.493
552.38
552.268
552.156
552.046
551.937
551.828
551.721
551.614
551.508
551.404
551.302
551.204
551.108
551.016
550.927
550.842
550.761
550.684
550.612
550.544
550.48
550.421
550.366
550.314
550.266
550.222
550.179
550.14
550.101
550.065
550.028
549.992
549.954
549.915
549.875
549.832
549.788
549.741
549.691
549.64
549.585
549.529
549.47
549.409
549.346
549.28
549.211
549.138
549.062
548.982
548.898
548.81
548.719
548.625
548.528
548.428
548.325
548.22
548.112
548.002
547.89
547.776
547.659
547.539
547.416
547.29
547.159
547.025
546.885
546.74
546.586
546.423
546.251
546.069
545.877
545.676
545.469
545.257
545.047
544.856
544.711
544.589
544.475
544.365
544.256
544.148
544.04
543.933
543.825
543.718
543.611
543.503
543.396
543.289
543.182
543.075
542.968
542.86
542.753
542.646
542.538
542.431
542.323
542.216
542.108
542.001
541.893
541.786
541.678
541.571
541.463
541.356
541.248
541.141
541.033
540.926
540.818
540.711
540.604
552.495
552.385
552.276
552.168
552.061
551.955
551.849
551.745
551.641
551.538
551.437
551.339
551.243
551.151
551.062
550.976
550.893
550.814
550.74
550.669
550.602
550.539
550.481
550.426
550.375
550.328
550.285
550.244
550.205
550.168
550.133
550.098
550.063
550.026
549.987
549.947
549.904
549.859
549.811
549.761
549.708
549.653
549.596
549.536
549.473
549.408
549.34
549.268
549.193
549.115
549.032
548.945
548.854
548.76
548.663
548.562
548.459
548.353
548.245
548.134
548.021
547.906
547.788
547.667
547.542
547.414
547.283
547.148
547.01
546.869
546.723
546.57
546.41
546.241
546.062
545.874
545.676
545.468
545.25
545.026
544.808
544.691
544.585
544.477
544.369
544.26
544.152
544.043
543.935
543.827
543.719
543.612
543.504
543.397
543.29
543.182
543.075
542.968
542.86
542.753
542.646
542.538
542.431
542.323
542.216
542.108
542.001
541.893
541.786
541.678
541.571
541.463
541.356
541.248
541.141
541.033
540.926
540.819
540.711
540.604
552.497
552.391
552.286
552.181
552.078
551.976
551.874
551.773
551.673
551.573
551.475
551.38
551.288
551.199
551.113
551.031
550.951
550.874
550.801
550.732
550.666
550.604
550.546
550.493
550.443
550.397
550.355
550.315
550.278
550.242
550.208
550.175
550.14
550.104
550.066
550.025
549.982
549.936
549.887
549.835
549.782
549.725
549.666
549.605
549.541
549.473
549.403
549.329
549.251
549.169
549.083
548.993
548.899
548.802
548.701
548.597
548.49
548.38
548.268
548.154
548.038
547.918
547.795
547.668
547.537
547.402
547.265
547.125
546.983
546.838
546.692
546.54
546.382
546.217
546.043
545.86
545.666
545.46
545.24
544.99
544.655
544.658
544.58
544.48
544.373
544.264
544.155
544.046
543.937
543.828
543.72
543.612
543.505
543.397
543.29
543.183
543.075
542.968
542.861
542.753
542.646
542.538
542.431
542.323
542.216
542.108
542.001
541.893
541.786
541.678
541.571
541.463
541.356
541.248
541.141
541.033
540.926
540.819
540.711
540.604
552.499
552.398
552.297
552.197
552.098
552
551.902
551.805
551.709
551.613
551.519
551.428
551.339
551.254
551.172
551.092
551.015
550.941
550.87
550.801
550.737
550.676
550.619
550.567
550.519
550.474
550.433
550.394
550.358
550.324
550.291
550.259
550.226
550.19
550.152
550.111
550.067
550.02
549.969
549.916
549.861
549.803
549.742
549.679
549.612
549.543
549.47
549.393
549.312
549.226
549.137
549.043
548.945
548.844
548.739
548.631
548.52
548.406
548.29
548.171
548.049
547.924
547.794
547.659
547.521
547.38
547.236
547.09
546.944
546.797
546.649
546.499
546.343
546.182
546.013
545.836
545.649
545.452
545.243
545.026
544.817
544.703
544.597
544.489
544.379
544.268
544.157
544.047
543.938
543.829
543.721
543.613
543.505
543.397
543.29
543.183
543.075
542.968
542.861
542.753
542.646
542.538
542.431
542.323
542.216
542.108
542.001
541.893
541.786
541.678
541.571
541.463
541.356
541.248
541.141
541.033
540.926
540.819
540.711
540.604
552.502
552.405
552.309
552.214
552.12
552.027
551.934
551.842
551.749
551.658
551.568
551.481
551.397
551.315
551.237
551.16
551.087
551.015
550.945
550.879
550.815
550.756
550.701
550.65
550.603
550.559
550.519
550.482
550.447
550.414
550.383
550.352
550.32
550.285
550.247
550.206
550.16
550.111
550.059
550.005
549.947
549.887
549.825
549.759
549.69
549.618
549.542
549.461
549.376
549.287
549.193
549.095
548.993
548.887
548.778
548.665
548.549
548.43
548.308
548.182
548.053
547.92
547.782
547.64
547.494
547.346
547.195
547.044
546.893
546.744
546.595
546.446
546.294
546.137
545.974
545.804
545.627
545.441
545.249
545.058
544.881
544.741
544.617
544.499
544.384
544.271
544.159
544.048
543.938
543.829
543.721
543.612
543.505
543.397
543.29
543.182
543.075
542.968
542.86
542.753
542.646
542.538
542.431
542.324
542.216
542.109
542.001
541.894
541.786
541.678
541.571
541.463
541.356
541.248
541.141
541.034
540.926
540.819
540.711
540.604
552.504
552.413
552.323
552.234
552.145
552.057
551.97
551.883
551.795
551.709
551.624
551.541
551.461
551.384
551.309
551.236
551.166
551.097
551.03
550.965
550.903
550.845
550.792
550.742
550.696
550.654
550.615
550.579
550.545
550.514
550.484
550.455
550.424
550.39
550.352
550.31
550.263
550.212
550.158
550.101
550.042
549.98
549.915
549.847
549.776
549.701
549.621
549.537
549.448
549.354
549.255
549.152
549.045
548.934
548.819
548.7
548.578
548.452
548.323
548.189
548.05
547.908
547.762
547.611
547.457
547.3
547.143
546.987
546.833
546.681
546.531
546.383
546.234
546.081
545.925
545.764
545.596
545.423
545.246
545.072
544.907
544.761
544.629
544.506
544.387
544.272
544.159
544.047
543.937
543.828
543.72
543.612
543.504
543.396
543.289
543.182
543.075
542.967
542.86
542.753
542.646
542.538
542.431
542.324
542.216
542.109
542.001
541.894
541.786
541.679
541.571
541.464
541.356
541.249
541.141
541.034
540.926
540.819
540.711
540.604
552.507
552.423
552.338
552.255
552.172
552.09
552.009
551.928
551.846
551.765
551.685
551.608
551.533
551.46
551.389
551.32
551.253
551.188
551.123
551.06
551.001
550.944
550.892
550.844
550.8
550.758
550.72
550.685
550.653
550.623
550.595
550.568
550.538
550.505
550.467
550.424
550.376
550.323
550.267
550.208
550.147
550.083
550.016
549.946
549.872
549.794
549.711
549.623
549.53
549.431
549.327
549.218
549.104
548.987
548.866
548.74
548.61
548.475
548.336
548.192
548.043
547.891
547.734
547.574
547.411
547.246
547.082
546.921
546.763
546.608
546.458
546.31
546.163
546.016
545.867
545.714
545.557
545.395
545.231
545.068
544.912
544.766
544.632
544.506
544.386
544.27
544.157
544.045
543.935
543.826
543.718
543.61
543.503
543.395
543.288
543.181
543.074
542.967
542.86
542.753
542.645
542.538
542.431
542.323
542.216
542.109
542.001
541.894
541.786
541.679
541.571
541.464
541.356
541.249
541.141
541.034
540.926
540.819
540.711
540.604
552.511
552.432
552.354
552.277
552.201
552.126
552.05
551.975
551.9
551.825
551.752
551.68
551.61
551.542
551.476
551.412
551.348
551.286
551.225
551.165
551.108
551.054
551.003
550.956
550.913
550.873
550.836
550.803
550.772
550.744
550.718
550.692
550.664
550.631
550.594
550.55
550.5
550.446
550.387
550.326
550.263
550.197
550.129
550.058
549.982
549.901
549.815
549.723
549.625
549.521
549.411
549.296
549.176
549.052
548.922
548.787
548.647
548.502
548.352
548.196
548.036
547.872
547.704
547.533
547.359
547.186
547.015
546.848
546.685
546.528
546.376
546.229
546.084
545.942
545.799
545.655
545.507
545.356
545.204
545.051
544.902
544.759
544.626
544.501
544.381
544.265
544.152
544.042
543.932
543.824
543.716
543.608
543.501
543.394
543.287
543.18
543.073
542.966
542.859
542.752
542.645
542.538
542.431
542.323
542.216
542.109
542.001
541.894
541.786
541.679
541.571
541.464
541.356
541.249
541.141
541.034
540.926
540.819
540.711
540.604
552.514
552.442
552.37
552.3
552.23
552.161
552.093
552.025
551.956
551.888
551.821
551.755
551.691
551.629
551.568
551.508
551.45
551.392
551.335
551.279
551.224
551.172
551.124
551.079
551.037
550.999
550.964
550.932
550.903
550.876
550.851
550.827
550.8
550.768
550.731
550.686
550.635
550.579
550.519
550.456
550.392
550.325
550.256
550.184
550.107
550.025
549.936
549.842
549.74
549.631
549.516
549.395
549.268
549.135
548.995
548.848
548.696
548.539
548.377
548.209
548.036
547.858
547.676
547.492
547.308
547.126
546.947
546.773
546.605
546.444
546.29
546.142
545.999
545.86
545.723
545.586
545.448
545.307
545.165
545.022
544.879
544.741
544.611
544.489
544.371
544.257
544.146
544.036
543.928
543.82
543.713
543.606
543.499
543.392
543.286
543.179
543.072
542.966
542.859
542.752
542.645
542.538
542.431
542.323
542.216
542.109
542.001
541.894
541.786
541.679
541.571
541.464
541.356
541.249
541.141
541.034
540.926
540.819
540.711
540.604
552.517
552.451
552.385
552.321
552.258
552.195
552.133
552.072
552.011
551.95
551.89
551.831
551.774
551.717
551.662
551.608
551.555
551.502
551.45
551.398
551.347
551.299
551.253
551.21
551.171
551.134
551.101
551.071
551.043
551.018
550.995
550.972
550.946
550.914
550.877
550.832
550.78
550.722
550.661
550.597
550.532
550.466
550.397
550.325
550.249
550.166
550.078
549.982
549.878
549.766
549.646
549.519
549.385
549.242
549.089
548.93
548.766
548.597
548.423
548.241
548.052
547.858
547.66
547.463
547.266
547.073
546.885
546.703
546.529
546.363
546.205
546.056
545.913
545.776
545.643
545.512
545.382
545.25
545.117
544.982
544.847
544.713
544.589
544.471
544.357
544.246
544.137
544.029
543.922
543.815
543.709
543.602
543.496
543.39
543.284
543.178
543.071
542.965
542.858
542.751
542.644
542.537
542.43
542.323
542.216
542.109
542.001
541.894
541.786
541.679
541.571
541.464
541.356
541.249
541.141
541.034
540.926
540.819
540.711
540.604
552.519
552.458
552.398
552.339
552.281
552.225
552.169
552.115
552.061
552.008
551.955
551.903
551.852
551.803
551.754
551.706
551.658
551.611
551.565
551.518
551.473
551.428
551.386
551.346
551.31
551.276
551.244
551.216
551.19
551.167
551.144
551.122
551.097
551.065
551.027
550.982
550.93
550.872
550.81
550.747
550.683
550.618
550.552
550.482
550.408
550.328
550.241
550.146
550.043
549.93
549.808
549.677
549.534
549.378
549.213
549.041
548.866
548.688
548.501
548.305
548.098
547.885
547.669
547.455
547.245
547.04
546.841
546.65
546.467
546.294
546.13
545.976
545.831
545.694
545.563
545.436
545.312
545.188
545.063
544.936
544.806
544.674
544.56
544.45
544.341
544.234
544.127
544.021
543.915
543.81
543.704
543.599
543.493
543.388
543.282
543.176
543.07
542.964
542.857
542.751
542.644
542.537
542.43
542.323
542.216
542.108
542.001
541.894
541.786
541.679
541.571
541.464
541.356
541.249
541.141
541.034
540.926
540.819
540.711
540.604
552.521
552.464
552.407
552.352
552.299
552.247
552.197
552.149
552.102
552.055
552.01
551.966
551.922
551.879
551.837
551.796
551.755
551.714
551.673
551.633
551.593
551.554
551.516
551.481
551.447
551.416
551.388
551.361
551.337
551.315
551.293
551.271
551.245
551.214
551.176
551.13
551.078
551.021
550.961
550.9
550.839
550.778
550.715
550.651
550.582
550.507
550.426
550.336
550.237
550.127
550.005
549.871
549.718
549.549
549.372
549.191
549.01
548.826
548.629
548.417
548.191
547.955
547.719
547.486
547.26
547.041
546.829
546.626
546.432
546.248
546.075
545.913
545.762
545.621
545.488
545.363
545.243
545.125
545.007
544.887
544.761
544.619
544.529
544.428
544.324
544.22
544.116
544.012
543.908
543.804
543.7
543.595
543.49
543.385
543.28
543.174
543.069
542.963
542.856
542.75
542.643
542.537
542.43
542.323
542.216
542.108
542.001
541.894
541.786
541.679
541.571
541.464
541.356
541.249
541.141
541.034
540.926
540.819
540.711
540.604
552.522
552.466
552.411
552.358
552.307
552.258
552.212
552.169
552.127
552.087
552.049
552.011
551.975
551.939
551.903
551.868
551.834
551.799
551.765
551.731
551.697
551.664
551.632
551.601
551.572
551.544
551.519
551.495
551.472
551.451
551.429
551.406
551.38
551.348
551.31
551.265
551.215
551.16
551.103
551.046
550.991
550.936
550.88
550.823
550.764
550.699
550.628
550.548
550.458
550.354
550.236
550.099
549.938
549.76
549.576
549.394
549.217
549.035
548.833
548.606
548.357
548.096
547.836
547.583
547.339
547.102
546.872
546.651
546.44
546.241
546.054
545.879
545.717
545.568
545.429
545.301
545.18
545.065
544.952
544.84
544.727
544.611
544.509
544.409
544.308
544.207
544.105
544.003
543.901
543.798
543.695
543.591
543.487
543.383
543.278
543.173
543.067
542.962
542.856
542.749
542.643
542.536
542.429
542.323
542.215
542.108
542.001
541.894
541.786
541.679
541.572
541.464
541.357
541.249
541.142
541.034
540.926
540.819
540.711
540.604
552.521
552.464
552.407
552.354
552.303
552.255
552.211
552.17
552.132
552.097
552.064
552.032
552.001
551.972
551.942
551.913
551.884
551.856
551.827
551.799
551.771
551.743
551.717
551.691
551.666
551.643
551.62
551.598
551.577
551.556
551.534
551.51
551.483
551.451
551.413
551.37
551.323
551.273
551.222
551.172
551.124
551.078
551.034
550.989
550.943
550.893
550.837
550.773
550.697
550.605
550.494
550.359
550.194
550.014
549.833
549.662
549.504
549.335
549.132
548.892
548.62
548.332
548.049
547.773
547.507
547.246
546.993
546.748
546.515
546.294
546.087
545.892
545.712
545.547
545.397
545.259
545.133
545.016
544.905
544.799
544.695
544.591
544.491
544.393
544.294
544.195
544.095
543.995
543.894
543.792
543.69
543.587
543.484
543.38
543.276
543.171
543.066
542.96
542.855
542.749
542.642
542.536
542.429
542.322
542.215
542.108
542.001
541.894
541.786
541.679
541.572
541.464
541.357
541.249
541.142
541.034
540.926
540.819
540.711
540.604
552.519
552.456
552.396
552.338
552.284
552.234
552.189
552.148
552.112
552.079
552.049
552.02
551.994
551.967
551.942
551.916
551.891
551.866
551.841
551.817
551.794
551.771
551.749
551.728
551.707
551.687
551.668
551.648
551.628
551.607
551.584
551.559
551.531
551.499
551.463
551.423
551.381
551.337
551.295
551.255
551.219
551.186
551.157
551.129
551.102
551.072
551.038
550.996
550.939
550.865
550.768
550.641
550.483
550.314
550.151
550.007
549.88
549.731
549.533
549.286
548.996
548.685
548.381
548.083
547.792
547.503
547.22
546.945
546.682
546.433
546.198
545.976
545.769
545.58
545.408
545.252
545.112
544.986
544.872
544.766
544.667
544.57
544.476
544.379
544.282
544.184
544.085
543.987
543.887
543.786
543.685
543.583
543.481
543.377
543.274
543.169
543.064
542.959
542.854
542.748
542.642
542.535
542.429
542.322
542.215
542.108
542.001
541.894
541.786
541.679
541.572
541.464
541.357
541.249
541.142
541.034
540.927
540.819
540.711
540.604
552.514
552.442
552.373
552.308
552.247
552.191
552.142
552.099
552.061
552.027
551.997
551.969
551.942
551.916
551.89
551.864
551.839
551.813
551.789
551.765
551.743
551.722
551.703
551.685
551.667
551.65
551.632
551.614
551.594
551.573
551.55
551.524
551.496
551.464
551.431
551.395
551.36
551.326
551.295
551.268
551.248
551.233
551.224
551.219
551.217
551.214
551.207
551.192
551.162
551.113
551.04
550.932
550.796
550.655
550.529
550.427
550.337
550.21
550.024
549.782
549.489
549.166
548.849
548.532
548.218
547.9
547.583
547.271
546.971
546.688
546.419
546.158
545.914
545.692
545.489
545.303
545.134
544.986
544.857
544.745
544.645
544.554
544.468
544.369
544.271
544.174
544.077
543.979
543.881
543.781
543.681
543.58
543.478
543.375
543.272
543.168
543.063
542.958
542.853
542.747
542.641
542.535
542.429
542.322
542.215
542.108
542.001
541.894
541.786
541.679
541.572
541.464
541.357
541.249
541.142
541.034
540.927
540.819
540.711
540.604
552.506
552.42
552.337
552.259
552.187
552.122
552.065
552.014
551.971
551.932
551.898
551.866
551.836
551.805
551.773
551.742
551.71
551.678
551.648
551.619
551.594
551.571
551.55
551.532
551.516
551.5
551.483
551.465
551.445
551.422
551.398
551.371
551.343
551.313
551.282
551.253
551.225
551.203
551.186
551.178
551.179
551.188
551.206
551.231
551.259
551.287
551.312
551.332
551.337
551.323
551.285
551.211
551.113
551.019
550.946
550.894
550.841
550.727
550.564
550.356
550.083
549.772
549.456
549.13
548.798
548.457
548.108
547.755
547.409
547.089
546.782
546.473
546.181
545.919
545.678
545.447
545.228
545.036
544.875
544.743
544.635
544.544
544.479
544.363
544.262
544.165
544.07
543.973
543.875
543.777
543.677
543.576
543.475
543.373
543.27
543.166
543.062
542.957
542.852
542.747
542.641
542.535
542.428
542.322
542.215
542.108
542.001
541.894
541.786
541.679
541.572
541.464
541.357
541.249
541.142
541.034
540.927
540.819
540.711
540.604
552.494
552.384
552.279
552.182
552.094
552.015
551.945
551.885
551.831
551.785
551.743
551.703
551.663
551.622
551.578
551.534
551.488
551.442
551.398
551.358
551.322
551.291
551.265
551.244
551.225
551.208
551.19
551.17
551.147
551.122
551.096
551.068
551.039
551.01
550.982
550.958
550.94
550.93
550.932
550.946
550.973
551.014
551.067
551.128
551.194
551.26
551.321
551.378
551.429
551.462
551.469
551.444
551.401
551.369
551.354
551.352
551.327
551.204
551.082
550.969
550.74
550.473
550.185
549.854
549.519
549.173
548.804
548.409
548.011
547.655
547.318
546.955
546.605
546.306
546.031
545.739
545.436
545.168
544.946
544.775
544.641
544.532
544.446
544.346
544.252
544.158
544.064
543.968
543.871
543.773
543.674
543.574
543.473
543.371
543.268
543.165
543.061
542.956
542.851
542.746
542.64
542.534
542.428
542.321
542.215
542.108
542.001
541.894
541.787
541.679
541.572
541.464
541.357
541.249
541.142
541.034
540.927
540.819
540.711
540.604
552.473
552.323
552.184
552.058
551.946
551.848
551.762
551.687
551.621
551.562
551.51
551.46
551.408
551.352
551.292
551.228
551.161
551.093
551.028
550.968
550.915
550.869
550.832
550.803
550.779
550.757
550.735
550.709
550.681
550.651
550.62
550.588
550.557
550.527
550.5
550.48
550.469
550.473
550.493
550.532
550.592
550.672
550.768
550.876
550.987
551.094
551.191
551.292
551.403
551.49
551.547
551.58
551.603
551.642
551.684
551.711
551.686
551.504
551.453
551.551
551.369
551.193
550.978
550.637
550.331
550.015
549.654
549.227
548.78
548.403
548.068
547.656
547.233
546.912
546.634
546.257
545.822
545.437
545.098
544.861
544.678
544.531
544.4
544.33
544.245
544.154
544.061
543.965
543.868
543.77
543.671
543.571
543.471
543.369
543.267
543.164
543.06
542.955
542.851
542.745
542.64
542.534
542.428
542.321
542.215
542.108
542.001
541.894
541.787
541.679
541.572
541.464
541.357
541.249
541.142
541.034
540.927
540.819
540.711
540.604
552.433
552.21
552.011
551.841
551.696
551.572
551.467
551.375
551.295
551.226
551.166
551.108
551.047
550.977
550.9
550.815
550.724
550.63
550.538
550.454
550.379
550.312
550.257
550.215
550.182
550.153
550.123
550.088
550.05
550.01
549.969
549.928
549.89
549.855
549.825
549.803
549.796
549.808
549.845
549.909
550.004
550.127
550.276
550.439
550.602
550.755
550.886
551.031
551.21
551.358
551.463
551.552
551.638
551.756
551.847
551.851
551.833
551.737
551.739
551.896
551.839
551.814
551.624
551.36
551.156
550.864
550.531
550.161
549.744
549.348
549.007
548.568
548.105
547.762
547.448
546.984
546.416
545.851
545.334
544.965
544.71
544.546
544.421
544.34
544.25
544.156
544.061
543.964
543.867
543.769
543.67
543.57
543.469
543.368
543.265
543.163
543.059
542.955
542.85
542.745
542.64
542.534
542.428
542.321
542.215
542.108
542.001
541.894
541.787
541.679
541.572
541.465
541.357
541.25
541.142
541.034
540.927
540.819
540.711
540.604
552.352
551.986
551.683
551.441
551.248
551.094
550.969
550.864
550.772
550.699
550.645
550.594
550.536
550.466
550.383
550.288
550.182
550.067
549.955
549.852
549.758
549.666
549.584
549.519
549.472
549.435
549.397
549.349
549.296
549.238
549.181
549.124
549.071
549.022
548.981
548.949
548.937
548.948
548.989
549.072
549.199
549.362
549.569
549.793
550.012
550.206
550.374
550.555
550.799
550.996
551.141
551.257
551.395
551.62
551.776
551.851
551.845
551.857
551.991
552.091
552.142
552.257
552.163
552.051
551.938
551.733
551.489
551.229
550.873
550.453
550.182
549.814
549.212
548.843
548.563
548.037
547.27
546.463
545.639
545.097
544.764
544.577
544.453
544.372
544.268
544.164
544.064
543.965
543.866
543.767
543.668
543.569
543.468
543.367
543.265
543.162
543.058
542.954
542.85
542.745
542.639
542.534
542.427
542.321
542.215
542.108
542.001
541.894
541.787
541.679
541.572
541.465
541.357
541.25
541.142
541.034
540.927
540.819
540.712
540.604
552.179
551.53
551.042
550.687
550.431
550.244
550.106
549.999
549.909
549.857
549.838
549.827
549.806
549.766
549.71
549.639
549.551
549.444
549.34
549.243
549.151
549.036
548.914
548.792
548.715
548.678
548.646
548.587
548.518
548.432
548.354
548.266
548.193
548.116
548.059
548.007
547.983
547.972
547.991
548.074
548.223
548.405
548.669
548.941
549.205
549.389
549.62
549.827
550.122
550.362
550.582
550.731
550.881
551.089
551.272
551.456
551.61
551.735
551.892
552.042
552.173
552.387
552.605
552.744
552.574
552.557
552.473
552.394
552.139
551.597
551.414
551.558
550.597
550.131
550.094
549.413
548.203
547.203
545.9
545.178
544.812
544.62
544.509
544.447
544.293
544.174
544.067
543.966
543.866
543.767
543.668
543.568
543.467
543.366
543.264
543.161
543.058
542.954
542.849
542.745
542.639
542.533
542.427
542.321
542.215
542.108
542.001
541.894
541.787
541.68
541.572
541.465
541.357
541.25
541.142
541.035
540.927
540.819
540.712
540.604
551.799
550.599
549.811
549.3
548.974
548.76
548.628
548.538
548.487
548.502
548.572
548.658
548.743
548.788
548.821
548.834
548.841
548.814
548.78
548.743
548.725
548.613
548.451
548.15
547.98
547.972
548.004
547.949
547.885
547.752
547.674
547.521
547.431
547.309
547.272
547.187
547.155
547.085
547.027
547.103
547.267
547.367
547.637
547.929
548.22
548.482
548.724
548.98
549.27
549.651
549.89
550.008
550.108
550.325
550.536
550.914
551.28
551.427
551.603
551.789
551.937
552.319
553.008
553.387
553.141
553.406
553.32
553.377
553.437
552.61
552.306
553.442
552.197
551.195
552.002
551.046
548.978
547.976
548.033
546.146
545.183
544.833
544.573
544.452
544.293
544.174
544.068
543.966
543.866
543.767
543.667
543.567
543.467
543.366
543.264
543.161
543.058
542.954
542.849
542.744
542.639
542.533
542.427
542.321
542.215
542.108
542.001
541.894
541.787
541.68
541.572