/*--------------------------------*- C++ -*----------------------------------*\
  =========                 |
  \\      /  F ield         | OpenFOAM: The Open Source CFD Toolbox
   \\    /   O peration     | Website:  https://openfoam.org
    \\  /    A nd           | Version:  6
     \\/     M anipulation  |
\*---------------------------------------------------------------------------*/
FoamFile
{
    version     2.0;
    format      ascii;
    class       volVectorField;
    location    "1400";
    object      U;
}
// * * * * * * * * * * * * * * * * * * * * * * * * * * * * * * * * * * * * * //

dimensions      [0 1 -1 0 0 0 0];

internalField   nonuniform List<vector> 
4800
(
(-4.9102e-05 0 -3.51098e-05)
(-5.90912e-05 0 -5.8452e-05)
(-6.1374e-05 0 -9.08443e-05)
(-7.59925e-05 0 -7.69572e-05)
(-0.0001625 0 1.16087e-06)
(-0.000193346 0 7.06411e-06)
(-0.000202903 0 -5.01287e-06)
(-0.000200863 0 -2.01942e-05)
(-0.000204564 0 -1.49523e-05)
(-0.000243012 0 -3.9548e-05)
(-0.000341601 0 -0.000110197)
(-0.000396627 0 -0.000198863)
(-0.000420184 0 -0.000245624)
(-0.000636834 0 2.74026e-05)
(-0.000721108 0 7.52952e-05)
(-0.000783728 0 -5.38533e-05)
(-0.00083259 0 -4.40229e-05)
(-0.000882617 0 4.45688e-05)
(-0.000933253 0 -7.26656e-05)
(-0.000983234 0 8.41925e-06)
(-0.00102535 0 5.25799e-05)
(-0.00106036 0 -4.72635e-05)
(-0.00108301 0 6.9238e-06)
(-0.00109464 0 2.60948e-06)
(-0.00109948 0 -2.25436e-05)
(-0.00110055 0 -2.25888e-05)
(-0.00109122 0 -3.23854e-05)
(-0.0010834 0 -2.19125e-05)
(-0.00108108 0 -2.87769e-05)
(-0.00108332 0 -4.47897e-05)
(-0.00108447 0 -3.72773e-05)
(-0.00107372 0 -2.00132e-05)
(-0.00106614 0 -2.26221e-05)
(-0.00106317 0 -1.44353e-05)
(-0.00105782 0 -1.18141e-05)
(-0.00102379 0 -2.03166e-05)
(-0.000981408 0 -4.13206e-05)
(-0.000941335 0 -4.00206e-05)
(-0.000902248 0 -1.09094e-05)
(-0.000851124 0 -8.47233e-06)
(-0.000798453 0 -6.47225e-05)
(-0.000743868 0 -4.14772e-05)
(-0.00069602 0 1.52955e-05)
(-0.000677881 0 2.26638e-05)
(-0.000687137 0 1.39458e-05)
(-0.000727116 0 -1.36708e-05)
(-0.000771378 0 -1.11317e-05)
(-0.000804544 0 -1.06545e-05)
(-0.000810236 0 -1.32454e-05)
(-0.000762794 0 -4.66494e-05)
(-0.000713527 0 -7.23177e-05)
(-0.000668675 0 -4.43838e-05)
(-0.000580438 0 -2.88071e-05)
(-0.000485199 0 -6.15969e-05)
(-0.000418222 0 -4.75014e-05)
(-0.000372038 0 -3.23457e-05)
(-0.000321912 0 -3.68156e-05)
(-0.000272841 0 -2.93396e-05)
(-0.000236059 0 -1.62212e-05)
(-0.000213736 0 -7.27372e-06)
(-0.000203801 0 -6.51965e-06)
(-0.000195246 0 -1.47821e-05)
(-0.00017477 0 -3.81474e-05)
(-0.000152342 0 -4.51443e-05)
(-0.000129335 0 -5.06372e-05)
(-0.000116983 0 -3.98658e-05)
(-0.000123186 0 4.83445e-05)
(-0.000155922 0 3.95404e-05)
(-0.000191475 0 5.88215e-05)
(-0.000257553 0 3.55822e-05)
(-0.000328852 0 9.82657e-06)
(-0.000374375 0 -1.84289e-05)
(-0.00039494 0 -1.68724e-05)
(-0.000402598 0 -1.05859e-05)
(-0.000406385 0 6.12717e-06)
(-0.00048283 0 -1.04004e-06)
(-0.000536701 0 -7.75036e-05)
(-0.000518285 0 -0.000219331)
(-0.000552137 0 -0.000215234)
(3.61322e-06 0 -0.000294697)
(1.66428e-10 0 2.84496e-10)
(-1.21722e-12 0 2.48427e-13)
(-7.03755e-13 0 1.05533e-13)
(-4.38838e-13 0 4.24589e-14)
(-4.93219e-13 0 1.22237e-14)
(-5.01899e-13 0 -3.77478e-15)
(-4.85705e-13 0 -1.28276e-14)
(-4.55144e-13 0 -1.82497e-14)
(-4.15849e-13 0 -2.16497e-14)
(-3.70992e-13 0 -2.38198e-14)
(-3.22548e-13 0 -2.51467e-14)
(-2.71957e-13 0 -2.58172e-14)
(-2.20411e-13 0 -2.59291e-14)
(-1.6898e-13 0 -2.55455e-14)
(-1.18672e-13 0 -2.47175e-14)
(-7.04348e-14 0 -2.34962e-14)
(-2.51166e-14 0 -2.19434e-14)
(1.65716e-14 0 -2.01307e-14)
(5.40737e-14 0 -1.81262e-14)
(8.70133e-14 0 -1.59821e-14)
(1.15226e-13 0 -1.37364e-14)
(1.3876e-13 0 -1.14254e-14)
(1.57817e-13 0 -9.09521e-15)
(1.72649e-13 0 -6.80135e-15)
(1.83477e-13 0 -4.59872e-15)
(1.90464e-13 0 -2.53005e-15)
(1.93736e-13 0 -6.19817e-16)
(1.93441e-13 0 1.12515e-15)
(1.89788e-13 0 2.7106e-15)
(1.83053e-13 0 4.14785e-15)
(1.73571e-13 0 5.44646e-15)
(1.6169e-13 0 6.60996e-15)
(1.47738e-13 0 7.63535e-15)
(1.31988e-13 0 8.51634e-15)
(1.14657e-13 0 9.24826e-15)
(9.5922e-14 0 9.83082e-15)
(7.59543e-14 0 1.02678e-14)
(5.4958e-14 0 1.05629e-14)
(3.32033e-14 0 1.07093e-14)
(1.10877e-14 0 1.06581e-14)
(-1.89066e-05 0 4.97481e-05)
(1.45825e-05 0 0.000101989)
(-0.000125916 0 8.2223e-05)
(-0.000152938 0 9.11125e-05)
(-0.000173638 0 7.60969e-05)
(-0.000191422 0 2.44698e-05)
(-0.000197737 0 1.62931e-05)
(-0.000212433 0 8.66512e-06)
(-0.000229041 0 1.67764e-05)
(-0.000262784 0 0.000102154)
(-0.00032125 0 0.000184785)
(-0.00048375 0 0.000230981)
(-0.000579572 0 0.000240818)
(-0.000640281 0 0.000120178)
(-0.00070443 0 7.76695e-06)
(-0.000805475 0 0.00012446)
(-0.000886242 0 9.44515e-05)
(-0.000950713 0 3.35516e-05)
(-0.00100623 0 0.000130919)
(-0.00105744 0 6.11723e-05)
(-0.00109403 0 3.31399e-05)
(-0.00112585 0 8.42324e-05)
(-0.00115078 0 2.82851e-05)
(-0.00116708 0 8.40684e-06)
(-0.00117786 0 1.96963e-05)
(-0.00118083 0 1.35493e-05)
(-0.00118097 0 1.00638e-05)
(-0.00119302 0 -1.6699e-05)
(-0.0012084 0 -8.99202e-06)
(-0.00121854 0 -1.20165e-05)
(-0.00122819 0 3.01898e-07)
(-0.0012395 0 7.1336e-06)
(-0.00124417 0 -1.36539e-05)
(-0.00123695 0 -2.59545e-05)
(-0.00121984 0 -4.0046e-05)
(-0.00120638 0 -3.63904e-05)
(-0.00118069 0 -0.000142609)
(-0.00113891 0 -9.35862e-05)
(-0.001096 0 -0.000109852)
(-0.00106681 0 -9.59442e-05)
(-0.00103494 0 -8.52452e-05)
(-0.000978296 0 -8.82253e-05)
(-0.000929535 0 -8.24949e-05)
(-0.000903617 0 -5.58013e-05)
(-0.000882707 0 2.4135e-05)
(-0.000855803 0 5.6975e-05)
(-0.000846603 0 5.49911e-05)
(-0.000858288 0 5.14424e-05)
(-0.000862247 0 1.79013e-05)
(-0.000795257 0 -0.000135903)
(-0.000726512 0 -4.54003e-05)
(-0.000669109 0 -4.09154e-05)
(-0.000575295 0 -0.000159039)
(-0.000483596 0 -9.61872e-05)
(-0.000406387 0 -0.000103267)
(-0.000365395 0 -4.0032e-05)
(-0.000311922 0 -7.06159e-05)
(-0.00027113 0 -5.53361e-05)
(-0.000228165 0 -5.63342e-05)
(-0.000194547 0 -4.37813e-05)
(-0.000169036 0 -3.30042e-05)
(-0.000147027 0 -2.51518e-05)
(-0.000124015 0 -1.76995e-05)
(-0.000108711 0 -1.12382e-05)
(-0.000116104 0 4.2993e-06)
(-0.000130727 0 7.86486e-06)
(-0.000138632 0 8.81801e-06)
(-0.000136512 0 3.82712e-05)
(-0.000138488 0 7.81234e-05)
(-0.000181116 0 8.46299e-05)
(-0.000205553 0 0.000101074)
(-0.000191991 0 7.50401e-05)
(-0.000179949 0 6.49715e-05)
(-0.000258221 0 9.04565e-05)
(-0.000326459 0 4.55324e-05)
(-0.000350944 0 -6.152e-05)
(-0.000338308 0 -0.000115505)
(-0.000276868 0 -0.000210696)
(-0.000484122 0 -0.000272606)
(3.78975e-06 0 -0.000309532)
(2.96357e-10 0 6.13489e-10)
(-1.37377e-12 0 4.39636e-13)
(-9.32605e-13 0 2.24707e-13)
(-5.32147e-13 0 9.40047e-14)
(-5.39453e-13 0 2.23282e-14)
(-5.2695e-13 0 -1.83464e-14)
(-5.0018e-13 0 -4.2221e-14)
(-4.63966e-13 0 -5.68522e-14)
(-4.21419e-13 0 -6.62028e-14)
(-3.74488e-13 0 -7.22761e-14)
(-3.24545e-13 0 -7.60396e-14)
(-2.72739e-13 0 -7.7951e-14)
(-2.20139e-13 0 -7.82533e-14)
(-1.67769e-13 0 -7.7116e-14)
(-1.16623e-13 0 -7.46855e-14)
(-6.76607e-14 0 -7.11098e-14)
(-2.17512e-14 0 -6.65502e-14)
(2.03888e-14 0 -6.11736e-14)
(5.82223e-14 0 -5.51338e-14)
(9.14031e-14 0 -4.85686e-14)
(1.19783e-13 0 -4.16186e-14)
(1.43401e-13 0 -3.44524e-14)
(1.62441e-13 0 -2.72682e-14)
(1.77145e-13 0 -2.0266e-14)
(1.87749e-13 0 -1.36089e-14)
(1.94443e-13 0 -7.39783e-15)
(1.97391e-13 0 -1.67069e-15)
(1.96772e-13 0 3.57869e-15)
(1.9281e-13 0 8.37484e-15)
(1.85789e-13 0 1.27379e-14)
(1.76033e-13 0 1.66705e-14)
(1.63879e-13 0 2.01578e-14)
(1.49644e-13 0 2.31782e-14)
(1.33601e-13 0 2.57189e-14)
(1.15972e-13 0 2.77863e-14)
(9.69415e-14 0 2.94072e-14)
(7.66864e-14 0 3.06194e-14)
(5.53995e-14 0 3.14578e-14)
(3.32985e-14 0 3.19411e-14)
(1.10364e-14 0 3.20614e-14)
(-9.49691e-05 0 2.58878e-05)
(-5.79376e-05 0 9.49851e-05)
(-0.000100069 0 0.000126602)
(-0.000141192 0 0.000102971)
(-0.00016133 0 8.13136e-05)
(-0.000176581 0 4.89784e-05)
(-0.000197959 0 2.88897e-06)
(-0.00021662 0 6.84684e-05)
(-0.000244229 0 6.76734e-05)
(-0.000280583 0 0.000143593)
(-0.000329877 0 0.00023894)
(-0.000418913 0 0.000292489)
(-0.000530061 0 0.000285518)
(-0.000618414 0 0.000240121)
(-0.000707715 0 0.000181964)
(-0.000794873 0 0.000190862)
(-0.000873491 0 0.000166986)
(-0.000945085 0 0.000109082)
(-0.00100536 0 9.10638e-05)
(-0.00106213 0 0.000135057)
(-0.00112303 0 7.83925e-05)
(-0.00116457 0 6.05826e-05)
(-0.00119416 0 5.07036e-05)
(-0.00120763 0 1.87366e-05)
(-0.00120984 0 8.41443e-06)
(-0.00121434 0 8.83398e-06)
(-0.00123342 0 2.10711e-06)
(-0.00125674 0 1.86713e-05)
(-0.00128004 0 4.1877e-05)
(-0.00129773 0 2.24816e-05)
(-0.00130871 0 7.42301e-06)
(-0.00131824 0 6.23056e-06)
(-0.00132229 0 9.38817e-07)
(-0.00131635 0 -3.0265e-05)
(-0.00130815 0 -4.48365e-05)
(-0.00130666 0 -5.3837e-05)
(-0.0013131 0 -6.46831e-05)
(-0.00130038 0 -0.000102246)
(-0.00124976 0 -0.000146409)
(-0.00121693 0 -0.000100088)
(-0.00118332 0 -0.000129165)
(-0.00115288 0 -0.000116541)
(-0.00112594 0 -0.000126101)
(-0.00109832 0 -6.96822e-05)
(-0.0010483 0 -8.18107e-06)
(-0.00101116 0 -2.90846e-06)
(-0.00100033 0 -1.25193e-05)
(-0.000997297 0 1.33863e-05)
(-0.000972164 0 -3.38783e-05)
(-0.000883982 0 -0.000209215)
(-0.000795636 0 -0.000181828)
(-0.000721594 0 -0.000157509)
(-0.000634016 0 -0.000185159)
(-0.000520781 0 -0.00023702)
(-0.000448593 0 -0.000179068)
(-0.000407245 0 -9.57048e-05)
(-0.000346424 0 -0.000147397)
(-0.000331341 0 -9.49988e-05)
(-0.000288024 0 -9.50432e-05)
(-0.000250517 0 -7.29036e-05)
(-0.00021234 0 -5.51702e-05)
(-0.000178945 0 -5.50338e-05)
(-0.000154547 0 -5.24014e-05)
(-0.000146783 0 -3.71793e-05)
(-0.000162505 0 -1.57946e-06)
(-0.000175637 0 8.81556e-06)
(-0.000154083 0 1.61065e-05)
(-0.000123306 0 3.79993e-05)
(-0.000101799 0 9.27364e-05)
(-0.000108928 0 0.000118114)
(-0.000115602 0 0.000121483)
(-0.000121352 0 1.94604e-05)
(-7.46357e-05 0 -1.97911e-05)
(-5.18251e-05 0 0.000111672)
(-1.49374e-05 0 0.000137879)
(1.87921e-05 0 9.11833e-05)
(2.93761e-05 0 -7.64445e-06)
(0.000257817 0 -1.35956e-05)
(-0.000301019 0 -0.000222645)
(3.8771e-06 0 -0.000311349)
(7.78438e-10 0 6.80225e-10)
(-1.47086e-12 0 3.24377e-13)
(-1.11998e-12 0 2.2076e-13)
(-6.41217e-13 0 8.62924e-14)
(-6.05571e-13 0 1.63651e-15)
(-5.66448e-13 0 -4.93749e-14)
(-5.24211e-13 0 -8.04964e-14)
(-4.79126e-13 0 -1.00376e-13)
(-4.31272e-13 0 -1.13701e-13)
(-3.80828e-13 0 -1.22764e-13)
(-3.28223e-13 0 -1.28581e-13)
(-2.7417e-13 0 -1.31586e-13)
(-2.19576e-13 0 -1.32014e-13)
(-1.65413e-13 0 -1.30074e-13)
(-1.12666e-13 0 -1.2598e-13)
(-6.22995e-14 0 -1.19958e-13)
(-1.51804e-14 0 -1.12253e-13)
(2.79879e-14 0 -1.0312e-13)
(6.66786e-14 0 -9.28087e-14)
(1.00529e-13 0 -8.15719e-14)
(1.29342e-13 0 -6.96866e-14)
(1.5311e-13 0 -5.74759e-14)
(1.72003e-13 0 -4.52937e-14)
(1.86308e-13 0 -3.34738e-14)
(1.96346e-13 0 -2.22712e-14)
(2.02402e-13 0 -1.18334e-14)
(2.04712e-13 0 -2.20999e-15)
(2.03487e-13 0 6.6103e-15)
(1.98947e-13 0 1.46573e-14)
(1.91349e-13 0 2.19476e-14)
(1.80991e-13 0 2.84728e-14)
(1.68198e-13 0 3.42057e-14)
(1.53299e-13 0 3.91214e-14)
(1.36596e-13 0 4.32185e-14)
(1.18346e-13 0 4.65304e-14)
(9.8755e-14 0 4.91214e-14)
(7.8005e-14 0 5.10701e-14)
(5.62797e-14 0 5.24515e-14)
(3.38069e-14 0 5.33301e-14)
(1.1208e-14 0 5.37849e-14)
(-7.14906e-05 0 0.000113554)
(-8.72731e-05 0 0.000114932)
(-0.000117777 0 0.00013115)
(-0.000132859 0 0.000119541)
(-0.000145102 0 9.58787e-05)
(-0.000166478 0 7.14323e-05)
(-0.000194898 0 4.1139e-05)
(-0.000213523 0 5.93043e-05)
(-0.000248042 0 9.55465e-05)
(-0.000340508 0 0.000193306)
(-0.000460312 0 0.000230448)
(-0.000517463 0 0.000234532)
(-0.000533979 0 0.000297353)
(-0.00058345 0 0.00030191)
(-0.000681026 0 0.000264255)
(-0.000764481 0 0.000281127)
(-0.000847536 0 0.000243873)
(-0.000920287 0 0.000214224)
(-0.000980986 0 0.000204722)
(-0.00103934 0 0.000162444)
(-0.00109617 0 0.000150397)
(-0.00115224 0 0.000116196)
(-0.0011888 0 6.21511e-05)
(-0.00120126 0 4.35515e-05)
(-0.00121077 0 3.33862e-05)
(-0.00123728 0 3.80623e-05)
(-0.00125517 0 2.8193e-05)
(-0.00126619 0 2.61573e-05)
(-0.00128874 0 2.86182e-05)
(-0.0013148 0 4.44988e-05)
(-0.00132691 0 2.46142e-05)
(-0.00132856 0 1.12763e-05)
(-0.00132562 0 4.57369e-06)
(-0.00133818 0 -1.54988e-05)
(-0.00135221 0 -2.86942e-05)
(-0.00135062 0 -5.21432e-05)
(-0.00134088 0 -7.89668e-05)
(-0.00133618 0 -9.54487e-05)
(-0.00131101 0 -0.000143855)
(-0.00127259 0 -0.000160652)
(-0.00124867 0 -0.000124684)
(-0.00122668 0 -0.00015334)
(-0.00121235 0 -0.000142168)
(-0.00119185 0 -6.93145e-05)
(-0.00116901 0 -2.55017e-05)
(-0.00115899 0 -1.7307e-05)
(-0.00114119 0 -7.64018e-05)
(-0.0010884 0 -1.32864e-07)
(-0.0010128 0 -0.000122164)
(-0.000899913 0 -0.000299672)
(-0.000821819 0 -0.00023589)
(-0.000743473 0 -0.000239661)
(-0.000656886 0 -0.000291603)
(-0.000544002 0 -0.000341849)
(-0.00051748 0 -0.000155841)
(-0.000432412 0 -0.000175113)
(-0.000400878 0 -0.000133856)
(-0.000359805 0 -0.000113485)
(-0.000305885 0 -0.000125209)
(-0.000270635 0 -9.2735e-05)
(-0.000233032 0 -8.29871e-05)
(-0.000213504 0 -6.23713e-05)
(-0.000188928 0 -6.2228e-05)
(-0.000177936 0 -2.96607e-05)
(-0.000168179 0 -1.45984e-06)
(-0.000172124 0 1.64387e-05)
(-0.000109486 0 -3.70303e-05)
(-4.09123e-05 0 -1.26235e-05)
(-1.33218e-05 0 8.76428e-05)
(-2.53017e-05 0 0.000127816)
(-4.62015e-05 0 7.28677e-05)
(-5.51139e-05 0 4.88742e-05)
(-4.88751e-05 0 -8.90007e-06)
(-1.95048e-05 0 1.43821e-05)
(4.09453e-05 0 -4.04058e-05)
(8.36945e-05 0 -3.14906e-05)
(0.000109241 0 -4.24297e-05)
(0.000208637 0 -0.000144426)
(-0.000246791 0 -0.000208032)
(3.78506e-06 0 -0.000305602)
(1.78522e-09 0 7.56159e-10)
(-1.54234e-12 0 1.73275e-13)
(-1.29923e-12 0 1.65274e-13)
(-7.51271e-13 0 2.94266e-14)
(-6.7512e-13 0 -5.20178e-14)
(-6.09083e-13 0 -9.94845e-14)
(-5.51181e-13 0 -1.29146e-13)
(-4.97171e-13 0 -1.49638e-13)
(-4.43807e-13 0 -1.648e-13)
(-3.89369e-13 0 -1.76033e-13)
(-3.33368e-13 0 -1.83686e-13)
(-2.76172e-13 0 -1.87755e-13)
(-2.18628e-13 0 -1.88257e-13)
(-1.61734e-13 0 -1.85343e-13)
(-1.06506e-13 0 -1.79276e-13)
(-5.39339e-14 0 -1.70382e-13)
(-4.91287e-15 0 -1.59035e-13)
(3.98331e-14 0 -1.45647e-13)
(7.97699e-14 0 -1.30649e-13)
(1.14525e-13 0 -1.14462e-13)
(1.43879e-13 0 -9.75022e-14)
(1.67794e-13 0 -8.01952e-14)
(1.86443e-13 0 -6.29795e-14)
(2.00168e-13 0 -4.62693e-14)
(2.09389e-13 0 -3.04003e-14)
(2.14504e-13 0 -1.55925e-14)
(2.15835e-13 0 -1.95214e-15)
(2.13639e-13 0 1.04975e-14)
(2.08148e-13 0 2.17741e-14)
(1.99605e-13 0 3.19036e-14)
(1.88291e-13 0 4.09016e-14)
(1.74528e-13 0 4.87725e-14)
(1.58657e-13 0 5.55216e-14)
(1.4101e-13 0 6.11716e-14)
(1.21875e-13 0 6.5773e-14)
(1.01481e-13 0 6.94041e-14)
(8.00165e-14 0 7.21584e-14)
(5.76595e-14 0 7.41309e-14)
(3.46318e-14 0 7.54098e-14)
(1.14912e-14 0 7.60744e-14)
(-4.16162e-05 0 0.000175172)
(-3.49749e-05 0 0.000177418)
(-9.33973e-05 0 0.000176652)
(-0.000130745 0 0.000140625)
(-0.00014275 0 0.000113064)
(-0.000155682 0 0.000101843)
(-0.000189009 0 7.71222e-05)
(-0.000213727 0 9.3758e-05)
(-0.000238306 0 0.000170987)
(-0.000269386 0 0.000290316)
(-0.000331687 0 0.000401427)
(-0.000431427 0 0.000415696)
(-0.000469913 0 0.00041035)
(-0.000525758 0 0.000384825)
(-0.000652992 0 0.000303349)
(-0.000695118 0 0.000383587)
(-0.000792813 0 0.000325314)
(-0.000879547 0 0.000249125)
(-0.000930266 0 0.000269813)
(-0.00100136 0 0.000186818)
(-0.00106096 0 0.00012932)
(-0.00110742 0 0.00011903)
(-0.00112684 0 9.60976e-05)
(-0.00112677 0 8.29648e-05)
(-0.00117786 0 -2.27545e-06)
(-0.00122283 0 2.11256e-05)
(-0.00123899 0 3.81157e-05)
(-0.00125308 0 5.58991e-05)
(-0.00127235 0 4.76355e-05)
(-0.0012892 0 5.44418e-05)
(-0.0013053 0 3.90544e-05)
(-0.00131437 0 1.91062e-05)
(-0.00132284 0 -1.34174e-05)
(-0.00134176 0 -2.70291e-05)
(-0.00135089 0 -2.12381e-05)
(-0.00133959 0 -6.79575e-05)
(-0.00131526 0 -0.000116065)
(-0.00130789 0 -0.000133486)
(-0.00130594 0 -0.000149999)
(-0.00127844 0 -0.000175593)
(-0.00125735 0 -0.000140792)
(-0.00123909 0 -0.000177248)
(-0.0012256 0 -0.000107001)
(-0.00119136 0 -7.11399e-05)
(-0.00117562 0 -5.32387e-05)
(-0.0011691 0 -8.17032e-06)
(-0.00109988 0 -9.47932e-05)
(-0.00103122 0 -7.90898e-05)
(-0.000986976 0 -0.000104734)
(-0.000874782 0 -0.000383571)
(-0.000799825 0 -0.000331298)
(-0.000730396 0 -0.000362793)
(-0.000686255 0 -0.000378591)
(-0.000596392 0 -0.000422586)
(-0.000575978 0 -0.000282635)
(-0.000489487 0 -0.000286248)
(-0.000487702 0 -0.000115787)
(-0.000370183 0 -0.000201893)
(-0.000325474 0 -0.000123557)
(-0.000259504 0 -0.000121302)
(-0.000239283 0 -8.53978e-05)
(-0.000215284 0 -7.33922e-05)
(-0.000174837 0 -7.96297e-05)
(-0.000132179 0 -4.13914e-05)
(-9.50123e-05 0 -2.08078e-05)
(-0.000101204 0 1.76841e-05)
(4.38928e-05 0 -0.0001179)
(0.000129678 0 -2.44254e-05)
(0.000193146 0 5.54863e-05)
(0.000198647 0 0.000133755)
(0.000204027 0 9.81276e-05)
(0.000181903 0 3.87742e-05)
(0.000161188 0 -5.07205e-06)
(0.000135358 0 -5.47011e-05)
(0.000128885 0 -5.51338e-05)
(0.000137671 0 -8.91363e-05)
(0.000132785 0 -0.00011341)
(0.000216485 0 -5.58913e-05)
(-0.000308751 0 -0.000156691)
(3.23559e-06 0 -0.000263222)
(5.01098e-09 0 1.93386e-09)
(-1.59538e-12 0 2.56466e-13)
(-1.48512e-12 0 7.55444e-14)
(-8.58509e-13 0 -8.12398e-14)
(-7.34482e-13 0 -1.3898e-13)
(-6.43575e-13 0 -1.66728e-13)
(-5.74365e-13 0 -1.86284e-13)
(-5.1478e-13 0 -2.03603e-13)
(-4.57667e-13 0 -2.19322e-13)
(-3.99714e-13 0 -2.32549e-13)
(-3.39945e-13 0 -2.42217e-13)
(-2.78741e-13 0 -2.47523e-13)
(-2.17164e-13 0 -2.48093e-13)
(-1.56432e-13 0 -2.43973e-13)
(-9.77048e-14 0 -2.35502e-13)
(-4.20577e-14 0 -2.23183e-13)
(9.55457e-15 0 -2.07599e-13)
(5.63733e-14 0 -1.89383e-13)
(9.78636e-14 0 -1.69182e-13)
(1.33676e-13 0 -1.47609e-13)
(1.63609e-13 0 -1.25225e-13)
(1.87633e-13 0 -1.02548e-13)
(2.05929e-13 0 -8.00821e-14)
(2.18887e-13 0 -5.8305e-14)
(2.27022e-13 0 -3.7627e-14)
(2.3085e-13 0 -1.83454e-14)
(2.30802e-13 0 -6.29487e-16)
(2.27213e-13 0 1.54608e-14)
(2.20353e-13 0 2.99384e-14)
(2.10476e-13 0 4.28526e-14)
(1.9786e-13 0 5.42607e-14)
(1.82818e-13 0 6.42137e-14)
(1.65698e-13 0 7.27564e-14)
(1.46848e-13 0 7.99373e-14)
(1.26578e-13 0 8.58202e-14)
(1.0514e-13 0 9.04896e-14)
(8.27317e-14 0 9.40475e-14)
(5.95311e-14 0 9.66032e-14)
(3.57504e-14 0 9.82638e-14)
(1.18726e-14 0 9.91181e-14)
(-4.25321e-05 0 0.000219677)
(-7.25519e-05 0 0.000198612)
(-0.000109662 0 0.000196039)
(-0.000118864 0 0.000174898)
(-0.000155279 0 0.00012031)
(-0.000169972 0 9.3579e-05)
(-0.000176588 0 0.000113868)
(-0.000205369 0 9.53625e-05)
(-0.0002256 0 0.000191226)
(-0.000257547 0 0.000312974)
(-0.000284408 0 0.000437605)
(-0.000347276 0 0.000496357)
(-0.000445308 0 0.000464583)
(-0.000519803 0 0.000410645)
(-0.00057833 0 0.000393492)
(-0.000636406 0 0.000423278)
(-0.000712241 0 0.00039706)
(-0.000799803 0 0.00031035)
(-0.000836689 0 0.00033843)
(-0.000916754 0 0.000287087)
(-0.000971535 0 0.000246235)
(-0.000992948 0 0.000231859)
(-0.00100348 0 0.000202699)
(-0.00105867 0 5.45365e-05)
(-0.00111858 0 9.25385e-05)
(-0.00115607 0 0.000124537)
(-0.00118182 0 6.2536e-05)
(-0.00120295 0 5.07046e-05)
(-0.00121861 0 6.71202e-05)
(-0.00122729 0 4.71026e-05)
(-0.00123138 0 4.10129e-05)
(-0.00122678 0 2.17965e-05)
(-0.00122246 0 1.7542e-05)
(-0.00122186 0 1.07075e-05)
(-0.00121007 0 -2.47297e-05)
(-0.00118474 0 -9.07593e-05)
(-0.0011586 0 -0.000141708)
(-0.00114419 0 -0.000156739)
(-0.00113598 0 -0.000177873)
(-0.00112695 0 -0.00019196)
(-0.00112172 0 -0.000189975)
(-0.00112171 0 -0.00018434)
(-0.00110812 0 -0.00014699)
(-0.00107309 0 -0.000117697)
(-0.00105408 0 -0.00012013)
(-0.00102538 0 -7.89929e-05)
(-0.000928917 0 -0.000145941)
(-0.000864587 0 -0.000216948)
(-0.000842157 0 -0.000245295)
(-0.000813314 0 -0.00034666)
(-0.000749252 0 -0.000440098)
(-0.000736578 0 -0.000391371)
(-0.000706623 0 -0.000407058)
(-0.000647372 0 -0.000439543)
(-0.000663905 0 -0.000311943)
(-0.000599977 0 -0.000309816)
(-0.000555774 0 -0.000263535)
(-0.000495824 0 -0.000240616)
(-0.000430995 0 -0.000198777)
(-0.000327708 0 -0.000203032)
(-0.000263162 0 -0.000102182)
(-0.000203755 0 -6.92106e-05)
(-0.000126967 0 -0.000123735)
(-6.29305e-05 0 -8.65641e-05)
(4.74723e-05 0 -0.000109534)
(6.50315e-05 0 -7.53046e-06)
(0.000159085 0 -0.000411016)
(0.000419398 0 -0.000235575)
(0.000465689 0 -5.20071e-05)
(0.000492338 0 4.47677e-05)
(0.000513667 0 9.48219e-05)
(0.000494552 0 9.45899e-05)
(0.000440691 0 0.000109606)
(0.000403654 0 3.22663e-05)
(0.000344846 0 -4.57866e-05)
(0.00025611 0 6.56062e-06)
(0.000217526 0 -4.19229e-05)
(0.000200698 0 -2.96573e-05)
(0.000113793 0 -1.98129e-05)
(-2.37328e-06 0 -0.000181026)
(3.492e-08 0 -2.57863e-09)
(-1.83865e-12 0 -6.94749e-13)
(-2.04932e-12 0 -3.33851e-13)
(-9.65795e-13 0 -2.9059e-13)
(-7.60608e-13 0 -2.55554e-13)
(-6.56386e-13 0 -2.41837e-13)
(-5.88056e-13 0 -2.45334e-13)
(-5.30209e-13 0 -2.58863e-13)
(-4.72752e-13 0 -2.76112e-13)
(-4.12263e-13 0 -2.92498e-13)
(-3.48343e-13 0 -3.05071e-13)
(-2.82048e-13 0 -3.12093e-13)
(-2.15077e-13 0 -3.12803e-13)
(-1.49144e-13 0 -3.07194e-13)
(-8.57169e-14 0 -2.95771e-13)
(-2.60306e-14 0 -2.7931e-13)
(2.8887e-14 0 -2.58704e-13)
(7.82499e-14 0 -2.34874e-13)
(1.21544e-13 0 -2.0873e-13)
(1.58483e-13 0 -1.81111e-13)
(1.8894e-13 0 -1.5275e-13)
(2.12937e-13 0 -1.24277e-13)
(2.30686e-13 0 -9.62561e-14)
(2.42623e-13 0 -6.921e-14)
(2.49349e-13 0 -4.3598e-14)
(2.51501e-13 0 -1.97717e-14)
(2.49641e-13 0 2.05308e-15)
(2.44207e-13 0 2.17906e-14)
(2.3554e-13 0 3.94557e-14)
(2.23927e-13 0 5.51248e-14)
(2.09652e-13 0 6.88999e-14)
(1.93024e-13 0 8.08823e-14)
(1.74381e-13 0 9.11611e-14)
(1.54074e-13 0 9.9816e-14)
(1.32427e-13 0 1.06928e-13)
(1.09709e-13 0 1.12592e-13)
(8.61302e-14 0 1.16919e-13)
(6.18758e-14 0 1.20032e-13)
(3.71467e-14 0 1.22055e-13)
(1.23455e-14 0 1.23085e-13)
(-5.33845e-05 0 0.00026523)
(-8.64059e-05 0 0.00023273)
(-0.000141518 0 0.000209527)
(-0.000141509 0 0.000186392)
(-0.000162733 0 0.000151085)
(-0.000176679 0 0.000121697)
(-0.000183755 0 0.000113435)
(-0.000196821 0 0.000132469)
(-0.000225925 0 0.000197676)
(-0.000249374 0 0.000343796)
(-0.000270996 0 0.000460806)
(-0.000317191 0 0.000528173)
(-0.000363394 0 0.000541549)
(-0.000411091 0 0.000512301)
(-0.000516937 0 0.000463945)
(-0.000549171 0 0.000497794)
(-0.000609049 0 0.000480918)
(-0.000705306 0 0.000386832)
(-0.000766712 0 0.000316034)
(-0.000809537 0 0.000317434)
(-0.000872411 0 0.000265294)
(-0.000910833 0 0.000189236)
(-0.000933623 0 0.000101125)
(-0.000972841 0 9.35441e-05)
(-0.00100884 0 0.00010456)
(-0.00102943 0 0.000128723)
(-0.00106751 0 0.000111706)
(-0.00109396 0 6.98041e-05)
(-0.0010956 0 7.86806e-05)
(-0.00109278 0 7.65978e-05)
(-0.00109371 0 6.65824e-05)
(-0.00106015 0 -1.47339e-06)
(-0.0010125 0 -8.21299e-06)
(-0.000984064 0 -1.31334e-05)
(-0.000963217 0 -6.34348e-05)
(-0.000949206 0 -0.000103549)
(-0.00093035 0 -0.000141167)
(-0.000912 0 -0.000159002)
(-0.000903994 0 -0.000166271)
(-0.000901741 0 -0.00016829)
(-0.000896619 0 -0.000199022)
(-0.000898484 0 -0.000198065)
(-0.000884763 0 -0.000185568)
(-0.000853425 0 -0.000179808)
(-0.000828988 0 -0.000166494)
(-0.000789715 0 -0.000132014)
(-0.000726836 0 -0.000186335)
(-0.00069989 0 -0.000222948)
(-0.000683245 0 -0.000283333)
(-0.000673453 0 -0.000379353)
(-0.000692076 0 -0.000379969)
(-0.000655551 0 -0.000468468)
(-0.000700011 0 -0.000419604)
(-0.000663369 0 -0.000428248)
(-0.000672408 0 -0.000341573)
(-0.000623221 0 -0.000335673)
(-0.000579012 0 -0.000336257)
(-0.000545661 0 -0.00032624)
(-0.000516284 0 -0.000307009)
(-0.000469623 0 -0.000279503)
(-0.000401244 0 -0.000242049)
(-0.000361183 0 -0.000184447)
(-0.000282083 0 -0.00023094)
(-0.000128027 0 -0.00022997)
(2.20846e-05 0 -0.000230699)
(0.00026458 0 -1.07077e-05)
(0.000195383 0 -0.000387337)
(0.000510961 0 -0.000369038)
(0.000637745 0 3.54358e-05)
(0.000647335 0 0.000258629)
(0.000769255 0 0.000229754)
(0.000780595 0 0.000187414)
(0.000747554 0 0.000126548)
(0.000677799 0 4.37744e-05)
(0.000579686 0 8.15177e-05)
(0.000471924 0 4.47145e-06)
(0.00035789 0 -1.53239e-05)
(0.000226369 0 0.000114716)
(-0.000123711 0 2.99201e-05)
(-3.07088e-05 0 -0.000267598)
(4.0096e-06 0 -1.05663e-05)
(-1.82803e-12 0 -3.1883e-12)
(-1.92805e-12 0 -8.1526e-13)
(-7.80201e-13 0 -4.91713e-13)
(-6.85729e-13 0 -3.50901e-13)
(-6.33355e-13 0 -2.99891e-13)
(-5.91391e-13 0 -2.94497e-13)
(-5.45558e-13 0 -3.10509e-13)
(-4.91302e-13 0 -3.33859e-13)
(-4.28673e-13 0 -3.5638e-13)
(-3.59539e-13 0 -3.73559e-13)
(-2.86474e-13 0 -3.83055e-13)
(-2.12266e-13 0 -3.83985e-13)
(-1.394e-13 0 -3.76477e-13)
(-6.98207e-14 0 -3.61346e-13)
(-4.99121e-15 0 -3.39781e-13)
(5.39904e-14 0 -3.13102e-13)
(1.06348e-13 0 -2.8261e-13)
(1.51627e-13 0 -2.49539e-13)
(1.89655e-13 0 -2.14996e-13)
(2.20443e-13 0 -1.79924e-13)
(2.44127e-13 0 -1.45085e-13)
(2.60996e-13 0 -1.11109e-13)
(2.71545e-13 0 -7.85434e-14)
(2.76461e-13 0 -4.78601e-14)
(2.76501e-13 0 -1.94279e-14)
(2.72365e-13 0 6.52046e-15)
(2.64616e-13 0 2.98932e-14)
(2.53687e-13 0 5.07159e-14)
(2.39921e-13 0 6.90947e-14)
(2.23617e-13 0 8.51755e-14)
(2.05079e-13 0 9.91106e-14)
(1.84632e-13 0 1.11037e-13)
(1.62615e-13 0 1.21073e-13)
(1.39354e-13 0 1.29327e-13)
(1.15131e-13 0 1.35911e-13)
(9.01719e-14 0 1.4095e-13)
(6.46669e-14 0 1.44582e-13)
(3.88035e-14 0 1.46942e-13)
(1.29032e-14 0 1.48135e-13)
(-6.64955e-05 0 0.000322065)
(-7.57399e-05 0 0.000289653)
(-0.000114681 0 0.000255787)
(-0.000142498 0 0.000204365)
(-0.000156546 0 0.000163652)
(-0.00017119 0 0.000134506)
(-0.000177992 0 0.000126106)
(-0.00018478 0 0.000155939)
(-0.000203437 0 0.000235008)
(-0.00023892 0 0.000374111)
(-0.000254987 0 0.000488733)
(-0.000293361 0 0.000553264)
(-0.000293239 0 0.000591504)
(-0.000325369 0 0.000578634)
(-0.000421727 0 0.000524555)
(-0.000460367 0 0.000548676)
(-0.000478211 0 0.000574261)
(-0.000552577 0 0.000522286)
(-0.000658528 0 0.000413445)
(-0.000719454 0 0.000334518)
(-0.000743281 0 0.000348362)
(-0.000789923 0 0.00028646)
(-0.000844633 0 0.000204804)
(-0.000890782 0 0.000167812)
(-0.000898383 0 0.000195312)
(-0.000922106 0 0.000114421)
(-0.000970315 0 8.51229e-05)
(-0.000988196 0 8.63849e-05)
(-0.000982969 0 5.29955e-05)
(-0.000975612 0 3.36216e-05)
(-0.000979019 0 1.31142e-05)
(-0.000933971 0 -2.25695e-05)
(-0.000859413 0 -6.2793e-05)
(-0.0008143 0 -5.77635e-05)
(-0.00078396 0 -7.50511e-05)
(-0.000769515 0 -9.40116e-05)
(-0.000755855 0 -0.000145586)
(-0.000733018 0 -0.000175565)
(-0.000718295 0 -0.000168467)
(-0.000714348 0 -0.000166343)
(-0.000712028 0 -0.00017372)
(-0.000708909 0 -0.000173322)
(-0.000699884 0 -0.000164234)
(-0.000673994 0 -0.0001829)
(-0.000645228 0 -0.000186049)
(-0.000605971 0 -0.000192925)
(-0.0005627 0 -0.000234331)
(-0.000554195 0 -0.000226723)
(-0.000543478 0 -0.000269412)
(-0.000538991 0 -0.000357016)
(-0.000555408 0 -0.000383307)
(-0.0005382 0 -0.000455617)
(-0.000607234 0 -0.000418954)
(-0.000621254 0 -0.000412267)
(-0.000632776 0 -0.000392945)
(-0.000615586 0 -0.000343778)
(-0.000572042 0 -0.000352865)
(-0.000544071 0 -0.000344002)
(-0.000528117 0 -0.000312977)
(-0.00049479 0 -0.000293829)
(-0.000479282 0 -0.000267562)
(-0.000483622 0 -0.000239243)
(-0.000400354 0 -0.000332408)
(-0.000277515 0 -0.000382096)
(-0.000159785 0 -0.000395986)
(0.000177467 0 -0.000301084)
(0.000251446 0 -0.000438246)
(0.000381252 0 -0.000534858)
(0.00060011 0 -0.000233)
(0.000698366 0 -7.11762e-05)
(0.000819626 0 2.39738e-06)
(0.00089479 0 0.000115663)
(0.000874672 0 0.000118305)
(0.000821095 0 0.000131875)
(0.000760974 0 8.12587e-05)
(0.000624073 0 0.00017202)
(0.000459425 0 0.000113328)
(0.000357384 0 0.000201669)
(-0.000155324 0 0.000280833)
(2.86148e-05 0 -0.000170181)
(1.67282e-12 0 -6.71877e-12)
(-7.77221e-13 0 -2.50103e-12)
(-3.82995e-13 0 -8.63523e-13)
(-5.01405e-13 0 -5.10416e-13)
(-5.68786e-13 0 -3.56919e-13)
(-5.99982e-13 0 -3.12791e-13)
(-5.98674e-13 0 -3.22691e-13)
(-5.69571e-13 0 -3.5516e-13)
(-5.18623e-13 0 -3.92714e-13)
(-4.51963e-13 0 -4.25867e-13)
(-3.75018e-13 0 -4.49878e-13)
(-2.92474e-13 0 -4.62624e-13)
(-2.08499e-13 0 -4.63633e-13)
(-1.26505e-13 0 -4.53508e-13)
(-4.90211e-14 0 -4.33584e-13)
(2.22135e-14 0 -4.0562e-13)
(8.60578e-14 0 -3.71496e-13)
(1.41813e-13 0 -3.33006e-13)
(1.89159e-13 0 -2.91775e-13)
(2.28098e-13 0 -2.49226e-13)
(2.58851e-13 0 -2.06537e-13)
(2.81751e-13 0 -1.64625e-13)
(2.97227e-13 0 -1.2419e-13)
(3.05872e-13 0 -8.57839e-14)
(3.08464e-13 0 -4.98591e-14)
(3.05882e-13 0 -1.67586e-14)
(2.98962e-13 0 1.33061e-14)
(2.88402e-13 0 4.02643e-14)
(2.74741e-13 0 6.41695e-14)
(2.58387e-13 0 8.51654e-14)
(2.39668e-13 0 1.03445e-13)
(2.18885e-13 0 1.19215e-13)
(1.96344e-13 0 1.32663e-13)
(1.72364e-13 0 1.43955e-13)
(1.47265e-13 0 1.53234e-13)
(1.21331e-13 0 1.60639e-13)
(9.48007e-14 0 1.66314e-13)
(6.78677e-14 0 1.70411e-13)
(4.06997e-14 0 1.73077e-13)
(1.35383e-14 0 1.74416e-13)
(-5.18111e-05 0 0.000382664)
(-1.78108e-05 0 0.000342726)
(-7.09088e-05 0 0.000296823)
(-0.000117909 0 0.000235183)
(-0.000137814 0 0.000184397)
(-0.000155467 0 0.000150231)
(-0.000165989 0 0.00013473)
(-0.000179664 0 0.000161441)
(-0.000181484 0 0.000266535)
(-0.000194629 0 0.000405148)
(-0.000222705 0 0.000519907)
(-0.000245036 0 0.00058223)
(-0.000271107 0 0.000599757)
(-0.000274299 0 0.000605336)
(-0.00027051 0 0.000603506)
(-0.000322037 0 0.000596095)
(-0.000365529 0 0.000614747)
(-0.000404984 0 0.000600227)
(-0.000511272 0 0.000513235)
(-0.000612552 0 0.000408857)
(-0.000646178 0 0.000357338)
(-0.000697518 0 0.000288234)
(-0.000722064 0 0.000238796)
(-0.000751744 0 0.000265181)
(-0.000810385 0 0.000220001)
(-0.000852256 0 0.000160289)
(-0.000874337 0 0.000142989)
(-0.000879084 0 0.000139405)
(-0.00089253 0 5.81774e-05)
(-0.000899621 0 4.40527e-05)
(-0.000897887 0 4.21007e-05)
(-0.00089742 0 -5.11119e-05)
(-0.000813036 0 -0.000294077)
(-0.000759047 0 -3.26346e-05)
(-0.000694363 0 -0.000129218)
(-0.000672955 0 -0.000143127)
(-0.00065753 0 -0.000175276)
(-0.000634021 0 -0.000185899)
(-0.000603979 0 -0.00020475)
(-0.00059943 0 -0.000182203)
(-0.0005861 0 -0.000192091)
(-0.000571523 0 -0.000201105)
(-0.000564101 0 -0.000192252)
(-0.000549671 0 -0.000193367)
(-0.000527614 0 -0.000198068)
(-0.000506817 0 -0.00020146)
(-0.00047361 0 -0.000241534)
(-0.000451582 0 -0.000261654)
(-0.000441577 0 -0.000281048)
(-0.000440517 0 -0.000330822)
(-0.000473393 0 -0.000333163)
(-0.000456817 0 -0.000399953)
(-0.000504408 0 -0.000390182)