/*--------------------------------*- C++ -*----------------------------------*\
  =========                 |
  \\      /  F ield         | OpenFOAM: The Open Source CFD Toolbox
   \\    /   O peration     | Website:  https://openfoam.org
    \\  /    A nd           | Version:  6
     \\/     M anipulation  |
\*---------------------------------------------------------------------------*/
FoamFile
{
    version     2.0;
    format      ascii;
    class       surfaceScalarField;
    location    "600";
    object      phi;
}
// * * * * * * * * * * * * * * * * * * * * * * * * * * * * * * * * * * * * * //

dimensions      [0 3 -1 0 0 0 0];

internalField   nonuniform List<scalar> 
11773
(
-7.25885e-09
7.25884e-09
-2.5965e-08
1.87085e-08
-5.73071e-08
3.13448e-08
-7.1213e-08
1.39088e-08
-7.98993e-08
8.69026e-09
-6.97724e-08
-1.01242e-08
-5.77382e-08
-1.20293e-08
-6.20071e-08
4.27325e-09
-5.97153e-08
-2.28777e-09
-3.67301e-08
-2.29816e-08
-4.263e-08
5.90343e-09
-3.8659e-08
-3.96756e-09
-3.88798e-08
2.24047e-10
-3.93142e-08
4.37619e-10
-3.70393e-08
-2.27177e-09
-3.09189e-08
-6.11733e-09
-1.92339e-08
-1.16819e-08
-1.61749e-12
-1.92294e-08
1.1848e-13
4.87983e-14
9.55656e-14
2.29141e-14
8.25472e-14
1.30223e-14
7.39834e-14
8.56745e-15
6.77114e-14
6.27527e-15
6.27589e-14
4.95517e-15
5.86465e-14
4.11463e-15
5.51174e-14
3.53081e-15
5.20226e-14
3.09611e-15
4.92679e-14
2.7555e-15
4.67893e-14
2.47903e-15
4.45401e-14
2.24922e-15
4.24848e-14
2.05514e-15
4.05948e-14
1.88942e-15
3.88471e-14
1.74681e-15
3.72227e-14
1.62335e-15
3.57055e-14
1.51595e-15
3.42819e-14
1.42213e-15
3.29405e-14
1.33986e-15
3.16713e-14
1.26744e-15
3.0466e-14
1.20346e-15
2.93173e-14
1.1467e-15
2.82191e-14
1.09614e-15
2.71661e-14
1.05091e-15
2.61537e-14
1.01025e-15
2.5178e-14
9.73519e-16
2.42356e-14
9.40178e-16
2.33236e-14
9.09752e-16
2.24396e-14
8.81841e-16
2.15812e-14
8.56104e-16
2.07468e-14
8.32251e-16
1.99345e-14
8.10033e-16
1.91431e-14
7.89243e-16
1.83712e-14
7.69704e-16
1.76178e-14
7.51267e-16
1.68819e-14
7.33807e-16
1.61626e-14
7.17219e-16
1.54592e-14
7.01417e-16
1.47709e-14
6.86329e-16
1.4097e-14
6.71896e-16
1.3437e-14
6.58069e-16
1.27904e-14
6.44809e-16
1.21564e-14
6.32086e-16
1.15348e-14
6.19876e-16
1.09248e-14
6.08161e-16
1.03262e-14
5.96926e-16
9.7383e-15
5.86163e-16
9.16076e-15
5.75867e-16
8.59308e-15
5.66033e-16
8.0348e-15
5.56661e-16
7.48545e-15
5.47753e-16
6.94457e-15
5.3931e-16
6.41168e-15
5.31336e-16
5.88631e-15
5.23833e-16
5.36798e-15
5.16804e-16
4.85623e-15
5.10251e-16
4.35056e-15
5.04174e-16
3.85051e-15
4.98572e-16
3.3556e-15
4.93447e-16
2.86533e-15
4.88804e-16
2.37922e-15
4.84655e-16
1.89679e-15
4.80987e-16
1.41768e-15
4.77669e-16
9.41948e-16
4.743e-16
4.70131e-16
4.70388e-16
4.68706e-16
-4.58501e-08
5.31106e-08
-6.36985e-08
3.65601e-08
-6.59255e-08
3.35763e-08
-8.08006e-08
2.87892e-08
-8.32552e-08
1.11539e-08
-7.93438e-08
-1.40287e-08
-6.07509e-08
-3.06147e-08
-6.05274e-08
4.05629e-09
-4.32926e-08
-1.95167e-08
-2.78354e-08
-3.84329e-08
-2.25423e-08
6.16268e-10
-1.98164e-08
-6.68767e-09
-2.45982e-08
5.01162e-09
-2.88442e-08
4.68912e-09
-3.00619e-08
-1.04858e-09
-2.60265e-08
-1.01474e-08
-1.5771e-08
-2.19322e-08
-1.2436e-12
-3.49951e-08
9.57697e-14
4.87741e-14
8.69051e-14
3.17821e-14
7.86603e-14
2.12734e-14
7.19936e-14
1.52398e-14
6.6573e-14
1.17006e-14
6.20397e-14
9.4923e-15
5.81509e-14
8.0063e-15
5.47513e-14
6.93259e-15
5.17378e-14
6.11107e-15
4.90383e-14
5.45574e-15
4.65996e-14
4.91776e-15
4.43809e-14
4.46743e-15
4.23496e-14
4.08544e-15
4.04792e-14
3.75836e-15
3.87477e-14
3.47638e-15
3.71368e-14
3.23196e-15
3.56311e-14
3.01915e-15
3.42172e-14
2.83313e-15
3.2884e-14
2.66993e-15
3.16219e-14
2.52623e-15
3.04227e-14
2.39921e-15
2.92792e-14
2.2865e-15
2.81855e-14
2.18608e-15
2.71364e-14
2.09621e-15
2.61273e-14
2.01541e-15
2.51545e-14
1.9424e-15
2.42146e-14
1.87611e-15
2.33047e-14
1.8156e-15
2.24225e-14
1.76007e-15
2.15658e-14
1.70885e-15
2.07328e-14
1.66137e-15
1.99218e-14
1.61713e-15
1.91314e-14
1.57572e-15
1.83605e-14
1.53679e-15
1.7608e-14
1.50005e-15
1.68729e-14
1.46525e-15
1.61543e-14
1.43217e-15
1.54515e-14
1.40066e-15
1.47638e-14
1.37056e-15
1.40905e-14
1.34177e-15
1.34311e-14
1.31417e-15
1.27849e-14
1.28771e-15
1.21515e-14
1.26231e-15
1.15302e-14
1.23793e-15
1.09208e-14
1.21453e-15
1.03226e-14
1.1921e-15
9.73514e-15
1.1706e-15
9.15804e-15
1.15003e-15
8.5908e-15
1.13038e-15
8.03296e-15
1.11165e-15
7.48405e-15
1.09385e-15
6.9436e-15
1.07697e-15
6.41116e-15
1.06104e-15
5.88623e-15
1.04604e-15
5.36836e-15
1.03199e-15
4.85704e-15
1.0189e-15
4.35181e-15
1.00676e-15
3.85217e-15
9.95587e-16
3.35763e-15
9.85372e-16
2.86771e-15
9.7613e-16
2.38191e-15
9.67873e-16
1.89974e-15
9.60578e-16
1.42079e-15
9.54059e-16
9.44757e-16
9.47766e-16
4.71552e-16
9.41029e-16
9.39138e-16
-3.36909e-08
8.68042e-08
-6.68203e-08
6.96947e-08
-8.08606e-08
4.76221e-08
-8.45532e-08
3.24861e-08
-8.25369e-08
9.14299e-09
-8.45014e-08
-1.20573e-08
-7.0498e-08
-4.46112e-08
-5.00316e-08
-1.64048e-08
-2.66631e-08
-4.28805e-08
-2.49694e-08
-4.01217e-08
-2.82159e-09
-2.15266e-08
-1.61796e-09
-7.88644e-09
1.48511e-09
1.91333e-09
-8.79922e-09
1.49781e-08
-1.70601e-08
7.21686e-09
-1.8242e-08
-8.96103e-09
-1.13284e-08
-2.88414e-08
-1.11541e-12
-4.6319e-08
8.08748e-14
4.86492e-14
7.77012e-14
3.49584e-14
7.33845e-14
2.55954e-14
6.89066e-14
1.97224e-14
6.4653e-14
1.59581e-14
6.07525e-14
1.33961e-14
5.72245e-14
1.15369e-14
5.4045e-14
1.01139e-14
5.11763e-14
8.98108e-15
4.85787e-14
8.05395e-15
4.62161e-14
7.28052e-15
4.40565e-14
6.62664e-15
4.20726e-14
6.0685e-15
4.02411e-14
5.58868e-15
3.8542e-14
5.17391e-15
3.69583e-14
4.81372e-15
3.54755e-14
4.49971e-15
3.40813e-14
4.22495e-15
3.27648e-14
3.98371e-15
3.15171e-14
3.77114e-15
3.03301e-14
3.58315e-15
2.91973e-14
3.41625e-15
2.81127e-14
3.26746e-15
2.70713e-14
3.13423e-15
2.6069e-14
3.01437e-15
2.5102e-14
2.90602e-15
2.4167e-14
2.80757e-15
2.32615e-14
2.71764e-15
2.23831e-14
2.63507e-15
2.15296e-14
2.55886e-15
2.06994e-14
2.48816e-15
1.98909e-14
2.42225e-15
1.91027e-14
2.36051e-15
1.83338e-14
2.30244e-15
1.75829e-14
2.2476e-15
1.68494e-14
2.19562e-15
1.61322e-14
2.1462e-15
1.54307e-14
2.09908e-15
1.47441e-14
2.05407e-15
1.40719e-14
2.01098e-15
1.34135e-14
1.96968e-15
1.27683e-14
1.93005e-15
1.21358e-14
1.89201e-15
1.15155e-14
1.85549e-15
1.09069e-14
1.82043e-15
1.03095e-14
1.7868e-15
9.72295e-15
1.75457e-15
9.14669e-15
1.72372e-15
8.58029e-15
1.69425e-15
8.0233e-15
1.66617e-15
7.47524e-15
1.63946e-15
6.93565e-15
1.61415e-15
6.40406e-15
1.59024e-15
5.88e-15
1.56774e-15
5.36298e-15
1.54667e-15
4.85253e-15
1.52703e-15
4.34815e-15
1.50884e-15
3.84935e-15
1.4921e-15
3.35563e-15
1.47682e-15
2.86649e-15
1.46302e-15
2.38142e-15
1.45069e-15
1.89993e-15
1.43983e-15
1.4215e-15
1.43026e-15
9.45626e-16
1.42142e-15
4.7202e-16
1.41241e-15
1.41007e-15
-3.70075e-08
1.23814e-07
-6.48398e-08
9.75339e-08
-8.50049e-08
6.77943e-08
-7.52142e-08
2.26982e-08
-8.43408e-08
1.82729e-08
-8.05391e-08
-1.58523e-08
-6.77064e-08
-5.74383e-08
-3.50978e-08
-4.90089e-08
-9.81641e-09
-6.81573e-08
-5.55203e-09
-4.43817e-08
5.61494e-09
-3.26891e-08
1.79297e-10
-2.4463e-09
3.30627e-09
-1.2092e-09
1.30401e-09
1.69847e-08
-2.72178e-09
1.12469e-08
-6.31976e-09
-5.35893e-09
-3.38134e-09
-3.17758e-08
-9.87843e-13
-4.96962e-08
6.88797e-14
4.8486e-14
6.95014e-14
3.43393e-14
6.82472e-14
2.68545e-14
6.56198e-14
2.23539e-14
6.24208e-14
1.91607e-14
5.91364e-14
1.66835e-14
5.59904e-14
1.46853e-14
5.30647e-14
1.30414e-14
5.03756e-14
1.16714e-14
4.79121e-14
1.05181e-14
4.56535e-14
9.53924e-15
4.35772e-14
8.70265e-15
4.16613e-14
7.98361e-15
3.98862e-14
7.36265e-15
3.82344e-14
6.82419e-15
3.66907e-14
6.35557e-15
3.5242e-14
5.94636e-15
3.38767e-14
5.58786e-15
3.25851e-14
5.27276e-15
3.13586e-14
4.99487e-15
3.019e-14
4.74891e-15
2.90728e-14
4.53039e-15
2.80016e-14
4.33543e-15
2.69719e-14
4.16072e-15
2.59796e-14
4.00342e-15
2.50211e-14
3.8611e-15
2.40936e-14
3.73167e-15
2.31945e-14
3.61334e-15
2.23216e-14
3.50459e-15
2.1473e-14
3.40411e-15
2.06469e-14
3.31081e-15
1.98421e-14
3.22375e-15
1.90572e-14
3.14213e-15
1.82911e-14
3.06529e-15
1.75428e-14
2.99265e-15
1.68115e-14
2.92376e-15
1.60963e-14
2.85821e-15
1.53967e-14
2.79568e-15
1.47119e-14
2.73589e-15
1.40413e-14
2.67863e-15
1.33844e-14
2.62372e-15
1.27406e-14
2.57101e-15
1.21094e-14
2.52039e-15
1.14904e-14
2.47176e-15
1.08831e-14
2.42507e-15
1.02871e-14
2.38027e-15
9.70173e-15
2.33732e-15
9.12672e-15
2.2962e-15
8.56157e-15
2.25692e-15
8.00582e-15
2.21947e-15
7.45901e-15
2.18385e-15
6.92068e-15
2.15009e-15
6.39037e-15
2.11819e-15
5.86759e-15
2.08819e-15
5.35187e-15
2.06009e-15
4.84271e-15
2.03391e-15
4.33961e-15
2.00967e-15
3.84209e-15
1.98738e-15
3.34962e-15
1.96706e-15
2.86171e-15
1.94871e-15
2.37783e-15
1.93236e-15
1.89749e-15
1.91797e-15
1.42013e-15
1.90543e-15
9.45065e-16
1.8943e-15
4.71339e-16
1.88394e-15
1.88033e-15
-2.27269e-08
1.46544e-07
-4.54716e-08
1.20286e-07
-8.15504e-08
1.03877e-07
-8.91728e-08
3.0326e-08
-9.4187e-08
2.32936e-08
-8.6862e-08
-2.31722e-08
-8.5495e-08
-5.8801e-08
-6.33784e-08
-7.11214e-08
-4.23484e-08
-8.91833e-08
-1.33046e-08
-7.34214e-08
-4.78325e-09
-4.12063e-08
4.3668e-09
-1.15922e-08
6.78147e-09
-3.61978e-09
7.31104e-09
1.64592e-08
4.39203e-09
1.41698e-08
-3.53954e-11
-9.27695e-10
-1.86049e-09
-2.9947e-08
-8.17912e-13
-5.1553e-08
5.64791e-14
4.79625e-14
6.29461e-14
2.78747e-14
6.43116e-14
2.54933e-14
6.28319e-14
2.38373e-14
6.02614e-14
2.17345e-14
5.73971e-14
1.95507e-14
5.45616e-14
1.7523e-14
5.18756e-14
1.57291e-14
4.93759e-14
1.41723e-14
4.70646e-14
1.28301e-14
4.49302e-14
1.16738e-14
4.29563e-14
1.06763e-14
4.11258e-14
9.81338e-15
3.94225e-14
9.0649e-15
3.78314e-14
8.41382e-15
3.63394e-14
7.84586e-15
3.49347e-14
7.34901e-15
3.36072e-14
6.91312e-15
3.23479e-14
6.52954e-15
3.11492e-14
6.1909e-15
3.00043e-14
5.89089e-15
2.89076e-14
5.62408e-15
2.78541e-14
5.38581e-15
2.68395e-14
5.17208e-15
2.58602e-14
4.97945e-15
2.4913e-14
4.80497e-15
2.39952e-14
4.6461e-15
2.31045e-14
4.50068e-15
2.22388e-14
4.36686e-15
2.13964e-14
4.24308e-15
2.05759e-14
4.12799e-15
1.97758e-14
4.02046e-15
1.89951e-14
3.91954e-15
1.82327e-14
3.82441e-15
1.74877e-14
3.73439e-15
1.67594e-14
3.64892e-15
1.60469e-14
3.56753e-15
1.53497e-14
3.48981e-15
1.46672e-14
3.41545e-15
1.39987e-14
3.34418e-15
1.33437e-14
3.27578e-15
1.27018e-14
3.21008e-15
1.20724e-14
3.14696e-15
1.14552e-14
3.08629e-15
1.08496e-14
3.02801e-15
1.02552e-14
2.97206e-15
9.67149e-15
2.91841e-15
9.09812e-15
2.86704e-15
8.53461e-15
2.81794e-15
7.98051e-15
2.77111e-15
7.43536e-15
2.72658e-15
6.89871e-15
2.68435e-15
6.37008e-15
2.64446e-15
5.84901e-15
2.60693e-15
5.335e-15
2.57179e-15
4.82757e-15
2.53906e-15
4.3262e-15
2.50877e-15
3.8304e-15
2.48094e-15
3.33964e-15
2.45558e-15
2.8534e-15
2.43273e-15
2.37117e-15
2.41238e-15
1.89243e-15
2.39452e-15
1.41662e-15
2.37905e-15
9.42972e-16
2.36578e-15
4.70022e-16
2.35472e-15
2.34927e-15
-3.23292e-08
1.78878e-07
-5.81575e-08
1.4612e-07
-6.20756e-08
1.07797e-07
-8.1403e-08
4.9661e-08
-8.35559e-08
2.54528e-08
-7.7621e-08
-2.91027e-08
-7.45442e-08
-6.18743e-08
-6.23988e-08
-8.32633e-08
-5.57783e-08
-9.58001e-08
-3.1475e-08
-9.7721e-08
-1.07585e-08
-6.19188e-08
8.19502e-09
-3.05418e-08
1.22733e-08
-7.69432e-09
8.96046e-09
1.97757e-08
5.75668e-09
1.73771e-08
5.11167e-09
-2.79251e-10
1.09354e-08
-3.57674e-08
4.25922e-10
-4.1041e-08
3.89071e-14
4.26725e-10
6.08648e-14
5.9195e-15
6.28697e-14
2.34917e-14
6.0999e-14
2.57113e-14
5.83581e-14
2.43785e-14
5.56309e-14
2.22805e-14
5.30002e-14
2.01558e-14
5.05219e-14
1.82089e-14
4.82099e-14
1.64853e-14
4.60612e-14
1.49794e-14
4.40652e-14
1.367e-14
4.22089e-14
1.25324e-14
4.04782e-14
1.15435e-14
3.88597e-14
1.06824e-14
3.7341e-14
9.93113e-15
3.59109e-14
9.27431e-15
3.45593e-14
8.69868e-15
3.32773e-14
8.19291e-15
3.20572e-14
7.74726e-15
3.08921e-14
7.35337e-15
2.97762e-14
7.004e-15
2.87043e-14
6.69295e-15
2.76722e-14
6.41485e-15
2.6676e-14
6.16508e-15
2.57125e-14
5.93967e-15
2.4779e-14
5.73521e-15
2.38729e-14
5.54878e-15
2.29924e-14
5.37787e-15
2.21355e-14
5.22035e-15
2.13007e-14
5.07442e-15
2.04868e-14
4.93852e-15
1.96925e-14
4.81136e-15
1.89169e-14
4.69183e-15
1.8159e-14
4.579e-15
1.74181e-14
4.4721e-15
1.66933e-14
4.37047e-15
1.59842e-14
4.27357e-15
1.52899e-14
4.18095e-15
1.46101e-14
4.09224e-15
1.39442e-14
4.00714e-15
1.32916e-14
3.92541e-15
1.2652e-14
3.84685e-15
1.20249e-14
3.7713e-15
1.14098e-14
3.69867e-15
1.08062e-14
3.62885e-15
1.02139e-14
3.56179e-15
9.63223e-15
3.49746e-15
9.06089e-15
3.43583e-15
8.49942e-15
3.37691e-15
7.94736e-15
3.3207e-15
7.40428e-15
3.26723e-15
6.86971e-15
3.21653e-15
6.34319e-15
3.16862e-15
5.82424e-15
3.12354e-15
5.31238e-15
3.08134e-15
4.80711e-15
3.04204e-15
4.30793e-15
3.00569e-15
3.8143e-15
2.97231e-15
3.32571e-15
2.94194e-15
2.84162e-15
2.9146e-15
2.36149e-15
2.8903e-15
1.88478e-15
2.86902e-15
1.41093e-15
2.85071e-15
9.39208e-16
2.83532e-15
4.68451e-16
2.82331e-15
2.81664e-15
-2.83876e-08
2.07269e-07
-5.71338e-08
1.74874e-07
-6.19224e-08
1.1259e-07
-8.1525e-08
6.92692e-08
-8.9389e-08
3.33216e-08
-8.5281e-08
-3.3207e-08
-7.58071e-08
-7.13449e-08
-5.76949e-08
-1.01372e-07
-4.73074e-08
-1.06184e-07
-3.78282e-08
-1.07197e-07
-1.92007e-08
-8.05429e-08
-3.05603e-09
-4.66829e-08
2.00003e-09
-1.27469e-08
-4.51545e-09
2.62945e-08
-8.51071e-09
2.13755e-08
-8.62589e-09
-1.61079e-10
-5.30902e-09
-3.90815e-08
9.85487e-09
-5.62028e-08
7.16122e-14
1.02825e-08
7.6303e-14
4.66342e-14
6.48278e-14
3.49687e-14
5.98404e-14
3.07016e-14
5.65289e-14
2.76927e-14
5.37788e-14
2.5033e-14
5.1304e-14
2.26325e-14
4.90213e-14
2.04932e-14
4.68998e-14
1.86079e-14
4.49228e-14
1.69571e-14
4.30771e-14
1.55159e-14
4.13505e-14
1.42589e-14
3.97313e-14
1.31621e-14
3.82087e-14
1.22041e-14
3.67724e-14
1.13662e-14
3.54131e-14
1.06321e-14
3.41224e-14
9.98755e-15
3.28928e-14
9.42039e-15
3.17178e-14
8.91997e-15
3.05915e-14
8.47709e-15
2.9509e-14
8.08378e-15
2.84659e-14
7.73314e-15
2.74585e-14
7.41921e-15
2.64836e-14
7.13685e-15
2.55384e-14
6.88162e-15
2.46206e-14
6.64972e-15
2.37282e-14
6.43788e-15
2.28593e-14
6.24333e-15
2.20126e-14
6.06369e-15
2.11866e-14
5.89694e-15
2.03804e-14
5.74137e-15
1.95929e-14
5.59553e-15
1.88231e-14
5.45819e-15
1.80705e-14
5.32835e-15
1.73342e-14
5.20512e-15
1.66136e-14
5.0878e-15
1.59083e-14
4.97579e-15
1.52175e-14
4.86859e-15
1.45409e-14
4.7658e-15
1.3878e-14
4.66708e-15
1.32282e-14
4.57219e-15
1.25913e-14
4.48089e-15
1.19668e-14
4.39304e-15
1.13542e-14
4.3085e-15
1.07531e-14
4.2272e-15
1.01632e-14
4.14906e-15
9.58396e-15
4.07407e-15
9.01504e-15
4.00219e-15
8.45598e-15
3.93344e-15
7.90637e-15
3.86784e-15
7.36575e-15
3.80541e-15
6.83367e-15
3.7462e-15
6.30967e-15
3.69024e-15
5.79328e-15
3.63759e-15
5.284e-15
3.5883e-15
4.78134e-15
3.54241e-15
4.28478e-15
3.49997e-15
3.7938e-15
3.46104e-15
3.30785e-15
3.42564e-15
2.8264e-15
3.39383e-15
2.34887e-15
3.36562e-15
1.8747e-15
3.34099e-15
1.40331e-15
3.3199e-15
9.34088e-16
3.30237e-15
4.66253e-16
3.28897e-15
3.28181e-15
-1.42281e-08
2.21499e-07
-3.64693e-08
1.97124e-07
-6.43532e-08
1.40479e-07
-7.77004e-08
8.26208e-08
-9.50894e-08
5.07146e-08
-8.214e-08
-4.61531e-08
-7.79363e-08
-7.55456e-08
-6.7835e-08
-1.11471e-07
-4.94598e-08
-1.24556e-07
-3.26436e-08
-1.24009e-07
-2.41536e-08
-8.90297e-08
-1.60151e-08
-5.48183e-08
-1.54261e-08
-1.33328e-08
-1.77966e-08
2.86679e-08
-1.94218e-08
2.30035e-08
-2.4668e-08
5.08767e-09
-3.42157e-08
-2.95314e-08
-4.04546e-08
-4.99623e-08
-5.23779e-13
-3.01705e-08
6.60464e-14
4.80967e-14
6.10857e-14
3.99307e-14
5.72089e-14
3.45811e-14
5.42062e-14
3.06978e-14
5.16843e-14
2.75571e-14
4.94387e-14
2.48798e-14
4.73784e-14
2.25549e-14
4.54622e-14
2.05252e-14
4.36685e-14
1.87515e-14
4.19837e-14
1.7201e-14
4.03971e-14
1.58454e-14
3.88992e-14
1.46595e-14
3.74814e-14
1.36211e-14
3.61357e-14
1.27109e-14
3.48546e-14
1.19118e-14
3.36313e-14
1.1209e-14
3.246e-14
1.05897e-14
3.13352e-14
1.00426e-14
3.02522e-14
9.55763e-15
2.92069e-14
9.12638e-15
2.81959e-14
8.74134e-15
2.72161e-14
8.39606e-15
2.62649e-14
8.08495e-15
2.53401e-14
7.8032e-15
2.44399e-14
7.54668e-15
2.35625e-14
7.31187e-15
2.27067e-14
7.09574e-15
2.18713e-14
6.89572e-15
2.10552e-14
6.70964e-15
2.02575e-14
6.53564e-15
1.94775e-14
6.37218e-15
1.87144e-14
6.21794e-15
1.79675e-14
6.07182e-15
1.72365e-14
5.93289e-15
1.65206e-14
5.8004e-15
1.58195e-14
5.67371e-15
1.51327e-14
5.55228e-15
1.44597e-14
5.4357e-15
1.38002e-14
5.3236e-15
1.31537e-14
5.21573e-15
1.25198e-14
5.11185e-15
1.18982e-14
5.01179e-15
1.12885e-14
4.91544e-15
1.06903e-14
4.8227e-15
1.01031e-14
4.73352e-15
9.52668e-15
4.64787e-15
8.96054e-15
4.56575e-15
8.40429e-15
4.48716e-15
7.8575e-15
4.41214e-15
7.31974e-15
4.34072e-15
6.79056e-15
4.27296e-15
6.2695e-15
4.20892e-15
5.75608e-15
4.14865e-15
5.24983e-15
4.09223e-15
4.75023e-15
4.03971e-15
4.25676e-15
3.99116e-15
3.7689e-15
3.94664e-15
3.28608e-15
3.90621e-15
2.80776e-15
3.86992e-15
2.33336e-15
3.8378e-15
1.86228e-15
3.80986e-15
1.39395e-15
3.78604e-15
9.27812e-16
3.76634e-15
4.63306e-16
3.75129e-15
3.74404e-15
-4.36623e-08
2.65164e-07
-5.66858e-08
2.10155e-07
-6.17227e-08
1.45522e-07
-7.37991e-08
9.47013e-08
-6.96461e-08
4.65649e-08
-7.08127e-08
-4.49834e-08
-6.65162e-08
-7.98392e-08
-5.64562e-08
-1.21528e-07
-5.05791e-08
-1.3043e-07
-4.07354e-08
-1.3385e-07
-2.32751e-08
-1.06487e-07
-2.11877e-08
-5.69029e-08
-2.06328e-08
-1.3885e-08
-1.5608e-08
2.36457e-08
-2.27806e-08
3.01785e-08
-3.34158e-08
1.57252e-08
-3.39579e-08
-2.89869e-08
-2.99105e-08
-5.40079e-08
-3.49257e-13
-6.00792e-08
5.88841e-14
4.92377e-14
5.63993e-14
4.24168e-14
5.38121e-14
3.71705e-14
5.14622e-14
3.30497e-14
4.93472e-14
2.9674e-14
4.74104e-14
2.68183e-14
4.56088e-14
2.43578e-14
4.39164e-14
2.22185e-14
4.23181e-14
2.03505e-14
4.08036e-14
1.87159e-14
3.93652e-14
1.72839e-14
3.79962e-14
1.60282e-14
3.66903e-14
1.49264e-14
3.54416e-14
1.39586e-14
3.42446e-14
1.31075e-14
3.30943e-14
1.23579e-14
3.19859e-14
1.16963e-14
3.09154e-14
1.11109e-14
2.98793e-14
1.05914e-14
2.88744e-14
1.01287e-14
2.78981e-14
9.71488e-15
2.69482e-14
9.34309e-15
2.60227e-14
9.00741e-15
2.512e-14
8.70273e-15
2.42388e-14
8.42467e-15
2.33778e-14
8.16949e-15
2.25362e-14
7.93401e-15
2.1713e-14
7.71551e-15
2.09075e-14
7.51169e-15
2.01191e-14
7.32063e-15
1.93472e-14
7.14069e-15
1.85912e-14
6.9705e-15
1.78508e-14
6.8089e-15
1.71254e-14
6.65495e-15
1.64147e-14
6.50784e-15
1.57182e-14
6.36692e-15
1.50357e-14
6.23164e-15
1.43667e-14
6.10157e-15
1.37109e-14
5.97634e-15
1.3068e-14
5.85568e-15
1.24375e-14
5.73936e-15
1.18192e-14
5.62721e-15
1.12127e-14
5.51912e-15
1.06177e-14
5.415e-15
1.00337e-14
5.31481e-15
9.46039e-15
5.21852e-15
8.8974e-15
5.12614e-15
8.34432e-15
5.03768e-15
7.80074e-15
4.95321e-15
7.26623e-15
4.87276e-15
6.74035e-15
4.79641e-15
6.22264e-15
4.72423e-15
5.71263e-15
4.65629e-15
5.20984e-15
4.59268e-15
4.71375e-15
4.53348e-15
4.22384e-15
4.47877e-15
3.73958e-15
4.42863e-15
3.2604e-15
4.38313e-15
2.78573e-15
4.34234e-15
2.31498e-15
4.30632e-15
1.84756e-15
4.27508e-15
1.38287e-15
4.24854e-15
9.20399e-16
4.22663e-15
4.59758e-16
4.20976e-15
4.20273e-15
7.74145e-09
2.57425e-07
1.13215e-10
2.17789e-07
-2.57153e-08
1.71355e-07
-4.48857e-08
1.13875e-07
-4.77873e-08
4.94699e-08
-6.27842e-08
-2.99832e-08
-5.5528e-08
-8.70924e-08
-5.21228e-08
-1.2493e-07
-3.71392e-08
-1.45411e-07
-2.50197e-08
-1.45967e-07
-1.83774e-08
-1.13126e-07
-1.80293e-08
-5.72486e-08
-2.63091e-08
-5.60305e-09
-3.11892e-08
2.85277e-08
-2.84293e-08
2.74203e-08
-2.73775e-08
1.46749e-08
-3.06864e-08
-2.56764e-08
-1.99689e-08
-6.4724e-08
-2.56407e-13
-8.00468e-08
5.29171e-14
4.8933e-14
5.1811e-14
4.35241e-14
5.02104e-14
3.87728e-14
4.85137e-14
3.47482e-14
4.68541e-14
3.13351e-14
4.52634e-14
2.84104e-14
4.37428e-14
2.58796e-14
4.22877e-14
2.36747e-14
4.08934e-14
2.17456e-14
3.95559e-14
2.00539e-14
3.82717e-14
1.85683e-14
3.70371e-14
1.72627e-14
3.58483e-14
1.61147e-14
3.47016e-14
1.51045e-14
3.35933e-14
1.42147e-14
3.25198e-14
1.34299e-14
3.1478e-14
1.27364e-14
3.04651e-14
1.21219e-14
2.94786e-14
1.15757e-14
2.85164e-14
1.10884e-14
2.75769e-14
1.06517e-14
2.66586e-14
1.02586e-14
2.57602e-14
9.90279e-15
2.48808e-14
9.57898e-15
2.40197e-14
9.28263e-15
2.3176e-14
9.00986e-15
2.23493e-14
8.75738e-15
2.1539e-14
8.52238e-15
2.07447e-14
8.30252e-15
1.99661e-14
8.09581e-15
1.92028e-14
7.90058e-15
1.84544e-14
7.71543e-15
1.77207e-14
7.5392e-15
1.70014e-14
7.37091e-15
1.62962e-14
7.20976e-15
1.56048e-14
7.05509e-15
1.49268e-14
6.90635e-15
1.42622e-14
6.7631e-15
1.36104e-14
6.62498e-15
1.29714e-14
6.49173e-15
1.23446e-14
6.36312e-15
1.173e-14
6.23899e-15
1.1127e-14
6.11924e-15
1.05354e-14
6.00378e-15
9.95491e-15
5.89259e-15
9.38509e-15
5.78566e-15
8.8256e-15
5.683e-15
8.27605e-15
5.58466e-15
7.73604e-15
5.49068e-15
7.20517e-15
5.40115e-15
6.68298e-15
5.31614e-15
6.16904e-15
5.23575e-15
5.66287e-15
5.16008e-15
5.16398e-15
5.08922e-15
4.67186e-15
5.02327e-15
4.18599e-15
4.96234e-15
3.70582e-15
4.90652e-15
3.23078e-15
4.85591e-15
2.76029e-15
4.81058e-15
2.29375e-15
4.77063e-15
1.83055e-15
4.73606e-15
1.37009e-15
4.70681e-15
9.11877e-16
4.68267e-15
4.55562e-16
4.66388e-15
4.65723e-15
-9.89679e-09
2.67325e-07
-2.26255e-08
2.30523e-07
-2.74154e-08
1.76149e-07
-2.84942e-08
1.14958e-07
-3.62208e-08
5.71997e-08
-3.01898e-08
-3.60112e-08
-1.69046e-08
-1.00375e-07
-4.51068e-09
-1.37321e-07
-3.89607e-09
-1.46023e-07
-7.15544e-09
-1.42705e-07
7.24522e-11
-1.20352e-07
4.57663e-09
-6.1751e-08
-6.8518e-09
5.82709e-09
-1.61797e-08
3.7857e-08
-2.12579e-08
3.24998e-08
-2.00373e-08
1.34553e-08
-2.30243e-08
-2.26882e-08
-1.49089e-08
-7.28384e-08
-1.87142e-13
-9.49548e-08
4.81981e-14
4.87447e-14
4.7663e-14
4.40601e-14
4.66965e-14
3.97407e-14
4.55341e-14
3.59119e-14
4.43014e-14
3.25692e-14
4.30549e-14
2.96582e-14
4.18191e-14
2.71165e-14
4.06051e-14
2.48897e-14
3.94182e-14
2.29334e-14
3.82609e-14
2.12118e-14
3.7134e-14
1.96955e-14
3.6037e-14
1.83597e-14
3.49687e-14
1.71827e-14
3.39273e-14
1.61453e-14
3.29107e-14
1.52304e-14
3.19169e-14
1.44224e-14
3.09442e-14
1.37075e-14
2.9991e-14
1.30732e-14
2.9056e-14
1.25086e-14
2.81382e-14
1.20039e-14
2.72367e-14
1.15507e-14
2.63511e-14
1.11415e-14
2.54807e-14
1.07702e-14
2.46254e-14
1.04312e-14
2.37849e-14
1.01199e-14
2.29591e-14
9.83245e-15
2.21477e-14
9.56538e-15
2.13508e-14
9.31595e-15
2.05681e-14
9.08177e-15
1.97996e-14
8.86086e-15
1.90452e-14
8.65155e-15
1.83047e-14
8.45246e-15
1.7578e-14
8.26244e-15
1.6865e-14
8.08051e-15
1.61656e-14
7.9059e-15
1.54794e-14
7.73795e-15
1.48064e-14
7.57613e-15
1.41463e-14
7.42001e-15
1.34989e-14
7.26926e-15
1.28639e-14
7.1236e-15
1.22412e-14
6.98284e-15
1.16304e-14
6.84684e-15
1.10313e-14
6.71549e-15
1.04435e-14
6.58874e-15
9.86677e-15
6.46656e-15
9.30075e-15
6.34897e-15
8.74509e-15
6.236e-15
8.19943e-15
6.12772e-15
7.66337e-15
6.02418e-15
7.13651e-15
5.9255e-15
6.61842e-15
5.83176e-15
6.10865e-15
5.74309e-15
5.60674e-15
5.65959e-15
5.1122e-15
5.58139e-15
4.62452e-15
5.50862e-15
4.14316e-15
5.44138e-15
3.66758e-15
5.37981e-15
3.1972e-15
5.32401e-15
2.73143e-15
5.2741e-15
2.26967e-15
5.23015e-15
1.8113e-15
5.19221e-15
1.3557e-15
5.1602e-15
9.0231e-16
5.1339e-15
4.50542e-16
5.11344e-15
5.1067e-15
-7.21439e-09
2.74543e-07
-1.018e-08
2.33494e-07
-1.21025e-08
1.78075e-07
-6.92362e-09
1.09783e-07
-1.02787e-08
6.0558e-08
-8.43554e-09
-3.78515e-08
-1.86456e-08
-9.01619e-08
4.76904e-09
-1.60733e-07
2.49008e-08
-1.66153e-07
2.63918e-08
-1.44194e-07
2.01374e-08
-1.14096e-07
1.66574e-08
-5.82697e-08
3.63752e-09
1.88487e-08
-4.10105e-09
4.55971e-08
-1.01055e-08
3.85055e-08
-8.48461e-09
1.18355e-08
-1.11925e-08
-1.99794e-08
-1.08546e-08
-7.31757e-08
-4.87226e-14
-1.05809e-07
4.41194e-14
4.84919e-14
4.38977e-14
4.42825e-14
4.33568e-14
4.02826e-14
4.26177e-14
3.6652e-14
4.17611e-14
3.34269e-14
4.08369e-14
3.05834e-14
3.9876e-14
2.80784e-14
3.88982e-14
2.58685e-14
3.79164e-14
2.39161e-14
3.69385e-14
2.21904e-14
3.59693e-14
2.06652e-14
3.50111e-14
1.93181e-14
3.40649e-14
1.81289e-14
3.31304e-14
1.70794e-14
3.22073e-14
1.61528e-14
3.1295e-14
1.53338e-14
3.03928e-14
1.46084e-14
2.95005e-14
1.39639e-14
2.86179e-14
1.33892e-14
2.77451e-14
1.28745e-14
2.68823e-14
1.24111e-14
2.60297e-14
1.19915e-14
2.51877e-14
1.16093e-14
2.43567e-14
1.12592e-14
2.35371e-14
1.09364e-14
2.27292e-14
1.06371e-14
2.19334e-14
1.03579e-14
2.11498e-14
1.00961e-14
2.03788e-14
9.8493e-15
1.96206e-14
9.61564e-15
1.88752e-14
9.39347e-15
1.81428e-14
9.18145e-15
1.74233e-14
8.97846e-15
1.67168e-14
8.78359e-15
1.60232e-14
8.59608e-15
1.53425e-14
8.41532e-15
1.46746e-14
8.24079e-15
1.40192e-14
8.07211e-15
1.33764e-14
7.90895e-15
1.27458e-14
7.75107e-15
1.21273e-14
7.59829e-15
1.15206e-14
7.4505e-15
1.09256e-14
7.30761e-15
1.03419e-14
7.16958e-15
9.76926e-15
7.03641e-15
9.20735e-15
6.90814e-15
8.65585e-15
6.78482e-15
8.11441e-15
6.66653e-15
7.58265e-15
6.55336e-15
7.06018e-15
6.44543e-15
6.54657e-15
6.34287e-15
6.0414e-15
6.24581e-15
5.54418e-15
6.15439e-15
5.05444e-15
6.06875e-15
4.57165e-15
5.98905e-15
4.0953e-15
5.91541e-15
3.62481e-15
5.848e-15
3.15961e-15
5.78693e-15
2.6991e-15
5.73233e-15
2.24269e-15
5.68431e-15
1.78975e-15
5.64293e-15
1.33962e-15
5.60813e-15
8.91604e-16
5.57974e-15
4.44775e-16
5.55807e-15
5.55041e-15
-2.0518e-09
2.76597e-07
-8.97514e-10
2.32344e-07
-1.89115e-09
1.79072e-07
-8.10213e-09
1.15997e-07
2.31093e-08
2.93498e-08
5.35517e-08
-6.82909e-08
6.59994e-08
-1.02607e-07
4.67542e-08
-1.41485e-07
3.66392e-08
-1.56036e-07
3.98571e-08
-1.47411e-07
3.68174e-08
-1.11055e-07
1.95641e-08
-4.10151e-08
7.44639e-09
3.09675e-08
2.23619e-09
5.08078e-08
-1.62672e-09
4.23691e-08
-2.21307e-10
1.04307e-08
1.8778e-09
-2.20778e-08
-2.04033e-09
-6.92572e-08
1.58623e-13
-1.07849e-07
4.04605e-14
4.83693e-14
4.0415e-14
4.43284e-14
4.01923e-14
4.05057e-14
3.98048e-14
3.704e-14
3.92801e-14
3.39524e-14
3.86507e-14
3.12137e-14
3.79471e-14
2.8783e-14
3.71942e-14
2.66224e-14
3.64102e-14
2.47011e-14
3.56076e-14
2.29939e-14
3.4794e-14
2.14794e-14
3.3974e-14
2.01385e-14
3.31499e-14
1.89531e-14
3.23229e-14
1.79062e-14
3.14939e-14
1.69814e-14
3.06634e-14
1.61635e-14
2.9832e-14
1.54385e-14
2.90008e-14
1.47937e-14
2.81707e-14
1.42176e-14
2.73428e-14
1.37003e-14
2.65184e-14
1.32332e-14
2.56986e-14
1.28087e-14
2.48847e-14
1.24205e-14
2.40777e-14
1.20632e-14
2.32787e-14
1.17324e-14
2.24885e-14
1.14241e-14
2.1708e-14
1.11351e-14
2.09377e-14
1.08629e-14
2.01783e-14
1.06053e-14
1.94302e-14
1.03602e-14
1.86938e-14
1.01264e-14
1.79694e-14
9.90239e-15
1.72571e-14
9.68725e-15
1.65571e-14
9.48009e-15
1.58696e-14
9.28023e-15
1.51944e-14
9.08709e-15
1.45317e-14
8.90021e-15
1.38812e-14
8.71923e-15
1.32431e-14
8.54388e-15
1.26171e-14
8.37394e-15
1.2003e-14
8.20926e-15
1.14007e-14
8.04975e-15
1.081e-14
7.89535e-15
1.02307e-14
7.74605e-15
9.66236e-15
7.60187e-15
9.10485e-15
7.46288e-15
8.55782e-15
7.32914e-15
8.02093e-15
7.20076e-15
7.49381e-15
7.07786e-15
6.9761e-15
6.96059e-15
6.46737e-15
6.84909e-15
5.96718e-15
6.74352e-15
5.47509e-15
6.64405e-15
4.99059e-15
6.55085e-15
4.51317e-15
6.46409e-15
4.0423e-15
6.38394e-15
3.57742e-15
6.31056e-15
3.11793e-15
6.24411e-15
2.66324e-15
6.18474e-15
2.21273e-15
6.13256e-15
1.76577e-15
6.08765e-15
1.32166e-15
6.05001e-15
8.79611e-16
6.01962e-15
4.38472e-16
5.99699e-15
5.9878e-15
1.8439e-09
2.74756e-07
4.84167e-09
2.29351e-07
1.69276e-08
1.6699e-07
1.30478e-08
1.1988e-07
4.65122e-08
-4.11141e-09
3.85016e-08
-6.02773e-08
4.59304e-08
-1.10033e-07
6.62341e-08
-1.61787e-07
6.83385e-08
-1.58139e-07
5.89963e-08
-1.38068e-07
4.55986e-08
-9.76554e-08
2.52248e-08
-2.06398e-08
2.10881e-08
3.51047e-08
1.77349e-08
5.41614e-08
9.71424e-09
5.03901e-08
1.25601e-09
1.8889e-08
5.21038e-09
-2.60322e-08
1.80953e-09
-6.58564e-08
2.57121e-13
-1.0604e-07
3.69507e-14
4.8339e-14
3.70883e-14
4.4191e-14
3.71726e-14
4.04213e-14
3.71122e-14
3.71006e-14
3.68903e-14
3.41748e-14
3.65288e-14
3.15761e-14
3.60606e-14
2.92521e-14
3.55165e-14
2.71677e-14
3.49195e-14
2.52992e-14
3.42853e-14
2.36291e-14
3.36235e-14
2.21421e-14
3.29395e-14
2.08231e-14
3.22365e-14
1.96565e-14
3.15165e-14
1.86264e-14
3.0781e-14
1.77167e-14
3.00317e-14
1.69123e-14
2.92705e-14
1.61988e-14
2.84995e-14
1.55635e-14
2.77209e-14
1.49947e-14
2.69369e-14
1.44824e-14
2.61499e-14
1.4018e-14
2.5362e-14
1.35942e-14
2.45752e-14
1.32046e-14
2.37914e-14
1.28442e-14
2.30122e-14
1.25085e-14
2.22391e-14
1.2194e-14
2.14733e-14
1.18977e-14
2.07159e-14
1.1617e-14
1.99677e-14
1.135e-14
1.92294e-14
1.1095e-14
1.85018e-14
1.08505e-14
1.77852e-14
1.06155e-14
1.708e-14
1.03889e-14
1.63866e-14
1.01701e-14
1.5705e-14
9.95835e-15
1.50354e-14
9.75323e-15
1.43779e-14
9.55431e-15
1.37325e-14
9.36129e-15
1.30992e-14
9.17394e-15
1.24779e-14
8.99207e-15
1.18684e-14
8.81557e-15
1.12707e-14
8.64439e-15
1.06845e-14
8.4785e-15
1.01097e-14
8.31791e-15
9.54604e-15
8.16268e-15
8.9932e-15
8.0129e-15
8.45093e-15
7.86865e-15
7.9189e-15
7.73009e-15
7.39677e-15
7.59735e-15
6.88417e-15
7.4706e-15
6.38069e-15
7.35002e-15
5.88591e-15
7.2358e-15
5.39936e-15
7.12814e-15
4.92055e-15
7.02723e-15
4.44898e-15
6.93327e-15
3.98409e-15
6.84646e-15
3.52532e-15
6.76699e-15
3.07207e-15
6.69504e-15
2.62373e-15
6.63078e-15
2.17966e-15
6.57435e-15
1.73923e-15
6.52584e-15
1.30169e-15
6.48531e-15
8.66252e-16
6.45288e-15
4.31755e-16
6.42928e-15
6.41848e-15
5.2347e-09
2.69524e-07
1.1707e-08
2.22883e-07
2.22601e-08
1.5644e-07
2.64477e-08
1.15696e-07
5.81986e-08
-3.58591e-08
7.77417e-08
-7.98177e-08
9.84635e-08
-1.30753e-07
9.32684e-08
-1.5659e-07
8.49649e-08
-1.49834e-07
7.08964e-08
-1.23998e-07
5.16631e-08
-7.84209e-08
2.34412e-08
7.58196e-09
1.8177e-08
4.03692e-08
1.14979e-08
6.08408e-08
7.6152e-09
5.42731e-08
4.12798e-09
2.2376e-08
8.44797e-09
-3.03526e-08
6.52375e-09
-6.39327e-08
3.77702e-13
-9.95175e-08
3.33472e-14
4.83596e-14
3.38074e-14
4.37309e-14
3.42787e-14
3.99494e-14
3.45601e-14
3.68191e-14
3.46218e-14
3.41134e-14
3.44991e-14
3.16994e-14
3.42396e-14
2.95125e-14
3.38839e-14
2.75246e-14
3.34603e-14
2.5724e-14
3.29862e-14
2.41044e-14
3.24714e-14
2.2658e-14
3.19208e-14
2.13746e-14
3.13372e-14
2.02408e-14
3.07227e-14
1.92413e-14
3.00793e-14
1.83601e-14
2.94097e-14
1.75816e-14
2.87169e-14
1.6891e-14
2.80042e-14
1.62752e-14
2.72751e-14
1.57224e-14
2.65331e-14
1.52227e-14
2.57816e-14
1.47675e-14
2.50238e-14
1.43496e-14
2.42627e-14
1.39632e-14
2.35006e-14
1.36034e-14
2.27401e-14
1.32661e-14
2.1983e-14
1.2948e-14
2.12311e-14
1.26464e-14
2.04857e-14
1.2359e-14
1.97481e-14
1.20842e-14