/*--------------------------------*- C++ -*----------------------------------*\
  =========                 |
  \\      /  F ield         | OpenFOAM: The Open Source CFD Toolbox
   \\    /   O peration     | Website:  https://openfoam.org
    \\  /    A nd           | Version:  6
     \\/     M anipulation  |
\*---------------------------------------------------------------------------*/
FoamFile
{
    version     2.0;
    format      ascii;
    class       volVectorField;
    location    "600";
    object      U;
}
// * * * * * * * * * * * * * * * * * * * * * * * * * * * * * * * * * * * * * //

dimensions      [0 1 -1 0 0 0 0];

internalField   nonuniform List<vector> 
5964
(
(0.000949645 0 -0.00332299)
(-0.000949068 0 -0.00223688)
(-0.00258601 0 -0.0008525)
(-0.0036511 0 -0.000571529)
(-0.00389505 0 -0.00060084)
(-0.00353143 0 -0.000299151)
(-0.00318503 0 -0.000669068)
(-0.00327553 0 -0.000804463)
(-0.00295449 0 -0.000881553)
(-0.00220139 0 -0.000713748)
(-0.00208715 0 -0.000268751)
(-0.00201403 0 -0.00029377)
(-0.00208823 0 -0.000346397)
(-0.00210149 0 -0.000199914)
(-0.00188271 0 -0.000423383)
(-0.00159936 0 -0.000497641)
(-0.00103367 0 -0.000388305)
(-1.03442e-05 0 -0.000433901)
(2.98924e-09 0 1.15272e-09)
(5.39324e-09 0 5.4128e-10)
(4.48787e-09 0 3.07615e-10)
(3.94407e-09 0 2.02381e-10)
(3.57026e-09 0 1.48235e-10)
(3.28744e-09 0 1.17051e-10)
(3.05903e-09 0 9.7196e-11)
(2.86649e-09 0 8.34049e-11)
(2.69959e-09 0 7.31365e-11)
(2.5522e-09 0 6.50907e-11)
(2.42034e-09 0 5.85597e-11)
(2.30121e-09 0 5.31312e-11)
(2.19275e-09 0 4.85466e-11)
(2.09334e-09 0 4.46321e-11)
(2.00169e-09 0 4.12633e-11)
(1.91672e-09 0 3.83469e-11)
(1.83756e-09 0 3.58098e-11)
(1.76346e-09 0 3.35937e-11)
(1.69379e-09 0 3.16502e-11)
(1.62801e-09 0 2.99396e-11)
(1.56566e-09 0 2.84282e-11)
(1.50635e-09 0 2.70874e-11)
(1.44974e-09 0 2.58931e-11)
(1.39553e-09 0 2.48246e-11)
(1.34349e-09 0 2.38641e-11)
(1.2934e-09 0 2.29965e-11)
(1.24507e-09 0 2.22089e-11)
(1.19834e-09 0 2.14902e-11)
(1.15309e-09 0 2.08309e-11)
(1.10919e-09 0 2.02229e-11)
(1.06653e-09 0 1.96595e-11)
(1.02504e-09 0 1.91346e-11)
(9.84632e-10 0 1.86435e-11)
(9.45242e-10 0 1.8182e-11)
(9.0681e-10 0 1.77465e-11)
(8.69284e-10 0 1.7334e-11)
(8.32618e-10 0 1.69422e-11)
(7.9677e-10 0 1.65689e-11)
(7.61702e-10 0 1.62125e-11)
(7.2738e-10 0 1.58715e-11)
(6.93772e-10 0 1.55449e-11)
(6.60848e-10 0 1.52317e-11)
(6.28581e-10 0 1.49312e-11)
(5.96943e-10 0 1.46427e-11)
(5.65911e-10 0 1.4366e-11)
(5.35458e-10 0 1.41006e-11)
(5.05561e-10 0 1.38464e-11)
(4.76197e-10 0 1.36031e-11)
(4.47341e-10 0 1.33709e-11)
(4.1897e-10 0 1.31495e-11)
(3.91061e-10 0 1.29391e-11)
(3.63591e-10 0 1.27396e-11)
(3.36535e-10 0 1.25512e-11)
(3.0987e-10 0 1.2374e-11)
(2.83573e-10 0 1.2208e-11)
(2.57618e-10 0 1.20532e-11)
(2.31982e-10 0 1.19096e-11)
(2.06641e-10 0 1.17773e-11)
(1.81571e-10 0 1.16562e-11)
(1.56748e-10 0 1.15466e-11)
(1.32146e-10 0 1.14485e-11)
(1.07742e-10 0 1.13619e-11)
(8.35143e-11 0 1.12835e-11)
(5.94552e-11 0 1.12039e-11)
(3.55799e-11 0 1.11115e-11)
(1.18458e-11 0 1.10718e-11)
(-0.00230143 0 0.00257533)
(-0.0030989 0 0.00186721)
(-0.00286355 0 0.00255996)
(-0.00414102 0 0.00159244)
(-0.00436578 0 0.000992189)
(-0.00391948 0 -0.00118252)
(-0.00338516 0 -0.000706222)
(-0.00319172 0 0.000791259)
(-0.00274554 0 -0.000195844)
(-0.0013589 0 -0.00188248)
(-0.00150295 0 0.000855774)
(-0.000888435 0 -3.40858e-05)
(-0.00123341 0 0.000407465)
(-0.00148381 0 3.93663e-05)
(-0.00151754 0 -0.000116037)
(-0.00142939 0 -0.000386086)
(-0.000974195 0 -0.000852571)
(-9.30235e-06 0 -0.00141521)
(2.41712e-09 0 2.30486e-09)
(4.60282e-09 0 1.29204e-09)
(4.17172e-09 0 8.10137e-10)
(3.796e-09 0 5.62376e-10)
(3.49144e-09 0 4.24627e-10)
(3.24063e-09 0 3.41279e-10)
(3.02842e-09 0 2.86321e-10)
(2.84478e-09 0 2.47167e-10)
(2.68319e-09 0 2.17493e-10)
(2.53924e-09 0 1.93967e-10)
(2.40977e-09 0 1.74727e-10)
(2.29242e-09 0 1.58661e-10)
(2.18534e-09 0 1.45053e-10)
(2.08702e-09 0 1.33412e-10)
(1.99627e-09 0 1.23382e-10)
(1.91205e-09 0 1.14692e-10)
(1.83352e-09 0 1.07128e-10)
(1.75996e-09 0 1.00518e-10)
(1.69074e-09 0 9.47196e-11)
(1.62535e-09 0 8.96143e-11)
(1.56333e-09 0 8.51024e-11)
(1.5043e-09 0 8.10993e-11)
(1.44793e-09 0 7.75329e-11)
(1.39394e-09 0 7.43414e-11)
(1.34208e-09 0 7.14722e-11)
(1.29214e-09 0 6.88801e-11)
(1.24394e-09 0 6.65265e-11)
(1.19734e-09 0 6.43783e-11)
(1.15218e-09 0 6.24073e-11)
(1.10837e-09 0 6.05895e-11)
(1.06579e-09 0 5.89044e-11)
(1.02437e-09 0 5.73345e-11)
(9.84017e-10 0 5.58653e-11)
(9.44679e-10 0 5.44842e-11)
(9.06294e-10 0 5.31807e-11)
(8.6881e-10 0 5.19461e-11)
(8.32181e-10 0 5.0773e-11)
(7.96367e-10 0 4.96554e-11)
(7.61331e-10 0 4.8588e-11)
(7.27038e-10 0 4.75668e-11)
(6.93458e-10 0 4.65884e-11)
(6.6056e-10 0 4.565e-11)
(6.28317e-10 0 4.47495e-11)
(5.96704e-10 0 4.38852e-11)
(5.65695e-10 0 4.30558e-11)
(5.35265e-10 0 4.22604e-11)
(5.05391e-10 0 4.14983e-11)
(4.76049e-10 0 4.07691e-11)
(4.47215e-10 0 4.00727e-11)
(4.18866e-10 0 3.9409e-11)
(3.9098e-10 0 3.8778e-11)
(3.63531e-10 0 3.818e-11)
(3.36498e-10 0 3.76151e-11)
(3.09856e-10 0 3.70836e-11)
(2.8358e-10 0 3.65858e-11)
(2.57648e-10 0 3.61217e-11)
(2.32034e-10 0 3.56914e-11)
(2.06714e-10 0 3.52951e-11)
(1.81664e-10 0 3.49327e-11)
(1.56859e-10 0 3.46047e-11)
(1.32274e-10 0 3.43117e-11)
(1.07884e-10 0 3.40527e-11)
(8.36668e-11 0 3.38203e-11)
(5.96042e-11 0 3.35921e-11)
(3.56864e-11 0 3.33406e-11)
(1.18816e-11 0 3.32562e-11)
(-0.00186929 0 0.00350584)
(-0.00255112 0 0.00302552)
(-0.00401764 0 0.00160034)
(-0.00414515 0 0.0015005)
(-0.00444228 0 0.000471666)
(-0.00454484 0 -0.000288191)
(-0.00336824 0 -0.00222443)
(-0.00295833 0 0.000445351)
(-0.00178366 0 -0.000522993)
(-0.00142023 0 -0.00132629)
(-0.000788184 0 -0.000453693)
(-5.87348e-05 0 -0.000542797)
(0.000144281 0 0.000320469)
(-0.000337126 0 0.000582649)
(-0.000725121 0 0.000131638)
(-0.000912655 0 -0.000635607)
(-0.000639683 0 -0.00139051)
(-7.09899e-06 0 -0.00206724)
(2.04087e-09 0 2.30134e-09)
(3.9956e-09 0 1.57655e-09)
(3.80688e-09 0 1.10714e-09)
(3.58528e-09 0 8.25878e-10)
(3.36528e-09 0 6.53357e-10)
(3.15982e-09 0 5.40671e-10)
(2.97264e-09 0 4.6165e-10)
(2.80364e-09 0 4.02674e-10)
(2.65124e-09 0 3.56508e-10)
(2.51351e-09 0 3.19127e-10)
(2.38853e-09 0 2.88149e-10)
(2.27458e-09 0 2.62065e-10)
(2.17018e-09 0 2.39857e-10)
(2.07404e-09 0 2.20796e-10)
(1.98508e-09 0 2.04337e-10)
(1.90237e-09 0 1.90055e-10)
(1.8251e-09 0 1.77611e-10)
(1.75261e-09 0 1.66727e-10)
(1.68431e-09 0 1.57173e-10)
(1.6197e-09 0 1.48757e-10)
(1.55835e-09 0 1.41316e-10)
(1.4999e-09 0 1.34711e-10)
(1.44403e-09 0 1.28824e-10)
(1.39046e-09 0 1.23554e-10)
(1.33897e-09 0 1.18814e-10)
(1.28935e-09 0 1.1453e-10)
(1.24142e-09 0 1.10638e-10)
(1.19505e-09 0 1.07084e-10)
(1.1501e-09 0 1.03822e-10)
(1.10646e-09 0 1.00812e-10)
(1.06404e-09 0 9.80204e-11)
(1.02275e-09 0 9.54184e-11)
(9.82515e-10 0 9.29819e-11)
(9.43281e-10 0 9.06905e-11)
(9.04988e-10 0 8.85271e-11)
(8.67586e-10 0 8.64771e-11)
(8.31031e-10 0 8.45284e-11)
(7.95284e-10 0 8.26711e-11)
(7.6031e-10 0 8.08968e-11)
(7.26074e-10 0 7.91988e-11)
(6.92546e-10 0 7.75714e-11)
(6.59699e-10 0 7.60101e-11)
(6.27504e-10 0 7.45116e-11)
(5.95937e-10 0 7.30729e-11)
(5.64972e-10 0 7.16921e-11)
(5.34586e-10 0 7.03676e-11)
(5.04755e-10 0 6.90983e-11)
(4.75455e-10 0 6.78838e-11)
(4.46664e-10 0 6.67236e-11)
(4.18358e-10 0 6.56177e-11)
(3.90514e-10 0 6.45663e-11)
(3.63109e-10 0 6.35698e-11)
(3.36118e-10 0 6.26285e-11)
(3.09519e-10 0 6.17428e-11)
(2.83288e-10 0 6.09133e-11)
(2.57399e-10 0 6.01402e-11)
(2.31828e-10 0 5.94238e-11)
(2.06551e-10 0 5.87644e-11)
(1.81543e-10 0 5.81621e-11)
(1.56778e-10 0 5.76176e-11)
(1.32231e-10 0 5.71314e-11)
(1.07877e-10 0 5.67026e-11)
(8.36896e-11 0 5.63226e-11)
(5.96441e-11 0 5.5965e-11)
(3.57201e-11 0 5.55931e-11)
(1.18934e-11 0 5.54932e-11)
(-0.00169613 0 0.0047253)
(-0.00276988 0 0.00364831)
(-0.00409122 0 0.00246602)
(-0.00385316 0 0.00183368)
(-0.00413193 0 0.000579261)
(-0.00446893 0 -0.000564525)
(-0.00359954 0 -0.0025271)
(-0.00268306 0 -0.00258967)
(-0.000313133 0 -0.00376888)
(-0.00139444 0 -0.00184516)
(0.000311946 0 -0.00153058)
(-0.000249793 0 -0.000119313)
(0.000258751 0 -0.000173002)
(-0.000136503 0 0.000774071)
(0.000110011 0 0.000536832)
(-0.000435277 0 -0.000302548)
(-7.43218e-06 0 -0.00148564)
(-4.90405e-06 0 -0.0023066)
(1.73768e-09 0 2.29454e-09)
(3.48676e-09 0 1.63696e-09)
(3.47082e-09 0 1.23897e-09)
(3.37302e-09 0 9.93929e-10)
(3.22622e-09 0 8.2958e-10)
(3.06286e-09 0 7.10543e-10)
(2.90083e-09 0 6.19422e-10)
(2.74784e-09 0 5.46976e-10)
(2.60637e-09 0 4.87854e-10)
(2.47654e-09 0 4.38711e-10)
(2.35756e-09 0 3.97317e-10)
(2.24833e-09 0 3.62109e-10)
(2.14774e-09 0 3.3194e-10)
(2.05474e-09 0 3.05937e-10)
(1.96839e-09 0 2.8342e-10)
(1.88788e-09 0 2.63842e-10)
(1.81248e-09 0 2.46757e-10)
(1.74157e-09 0 2.31799e-10)
(1.67463e-09 0 2.18657e-10)
(1.61118e-09 0 2.07071e-10)
(1.55083e-09 0 1.9682e-10)
(1.49323e-09 0 1.87716e-10)
(1.4381e-09 0 1.79596e-10)
(1.38516e-09 0 1.72322e-10)
(1.33421e-09 0 1.65775e-10)
(1.28506e-09 0 1.59853e-10)
(1.23754e-09 0 1.5447e-10)
(1.19151e-09 0 1.49551e-10)
(1.14686e-09 0 1.45031e-10)
(1.10349e-09 0 1.40858e-10)
(1.06129e-09 0 1.36984e-10)
(1.0202e-09 0 1.3337e-10)
(9.80139e-10 0 1.29984e-10)
(9.41057e-10 0 1.26797e-10)
(9.02899e-10 0 1.23785e-10)
(8.65619e-10 0 1.2093e-10)
(8.29173e-10 0 1.18214e-10)
(7.93525e-10 0 1.15624e-10)
(7.58641e-10 0 1.13149e-10)
(7.24489e-10 0 1.10778e-10)
(6.9104e-10 0 1.08506e-10)
(6.58266e-10 0 1.06324e-10)
(6.26142e-10 0 1.0423e-10)
(5.94643e-10 0 1.02219e-10)
(5.63744e-10 0 1.00287e-10)
(5.33422e-10 0 9.84346e-11)
(5.03654e-10 0 9.66586e-11)
(4.74418e-10 0 9.49588e-11)
(4.45689e-10 0 9.33348e-11)
(4.17446e-10 0 9.17865e-11)
(3.89665e-10 0 9.03144e-11)
(3.62323e-10 0 8.89189e-11)
(3.35397e-10 0 8.76007e-11)
(3.08862e-10 0 8.63605e-11)
(2.82695e-10 0 8.5199e-11)
(2.56871e-10 0 8.41168e-11)
(2.31366e-10 0 8.31145e-11)
(2.06153e-10 0 8.21926e-11)
(1.81208e-10 0 8.13516e-11)
(1.56506e-10 0 8.0592e-11)
(1.3202e-10 0 7.99145e-11)
(1.07724e-10 0 7.93182e-11)
(8.35934e-11 0 7.87959e-11)
(5.95953e-11 0 7.83241e-11)
(3.56888e-11 0 7.78665e-11)
(1.18763e-11 0 7.7726e-11)
(-0.00135053 0 0.00623559)
(-0.00182056 0 0.00528071)
(-0.00273428 0 0.00446572)
(-0.00522807 0 0.00029076)
(-0.00441915 0 0.000831882)
(-0.00458695 0 -0.000704378)
(-0.00404045 0 -0.00225519)
(-0.00419292 0 -0.00185603)
(-0.00108196 0 -0.00442736)
(-0.000827665 0 -0.00309733)
(-0.00109917 0 -0.00164013)
(-0.000202025 0 7.56925e-05)
(0.000325849 0 0.000136673)
(0.000248879 0 0.000843178)
(0.000310793 0 0.000664267)
(0.000132424 0 -5.55329e-05)
(-7.08152e-05 0 -0.00141295)
(-1.52326e-06 0 -0.00235307)
(1.42322e-09 0 2.27832e-09)
(3.00913e-09 0 1.46962e-09)
(3.20649e-09 0 1.23656e-09)
(3.20361e-09 0 1.09113e-09)
(3.10156e-09 0 9.66029e-10)
(2.96462e-09 0 8.55927e-10)
(2.821e-09 0 7.60827e-10)
(2.68188e-09 0 6.79617e-10)
(2.55122e-09 0 6.1048e-10)
(2.43e-09 0 5.51532e-10)
(2.31798e-09 0 5.01096e-10)
(2.21446e-09 0 4.5777e-10)
(2.1186e-09 0 4.20401e-10)
(2.02956e-09 0 3.88053e-10)
(1.94655e-09 0 3.59953e-10)
(1.86887e-09 0 3.35467e-10)
(1.79588e-09 0 3.14064e-10)
(1.72704e-09 0 2.95299e-10)
(1.66186e-09 0 2.78794e-10)
(1.59992e-09 0 2.64231e-10)
(1.54087e-09 0 2.51334e-10)
(1.4844e-09 0 2.39869e-10)
(1.43022e-09 0 2.29636e-10)
(1.37811e-09 0 2.2046e-10)
(1.32787e-09 0 2.12194e-10)
(1.27933e-09 0 2.0471e-10)
(1.23233e-09 0 1.979e-10)
(1.18676e-09 0 1.9167e-10)
(1.14251e-09 0 1.8594e-10)
(1.09947e-09 0 1.80642e-10)
(1.05757e-09 0 1.7572e-10)
(1.01674e-09 0 1.71123e-10)
(9.76905e-10 0 1.66811e-10)
(9.38023e-10 0 1.62749e-10)
(9.00042e-10 0 1.58907e-10)
(8.62919e-10 0 1.5526e-10)
(8.26615e-10 0 1.51789e-10)
(7.91097e-10 0 1.48476e-10)
(7.56331e-10 0 1.45307e-10)
(7.22288e-10 0 1.42271e-10)
(6.88941e-10 0 1.39358e-10)
(6.56265e-10 0 1.36561e-10)
(6.24233e-10 0 1.33874e-10)
(5.92822e-10 0 1.31293e-10)
(5.6201e-10 0 1.28813e-10)
(5.31773e-10 0 1.26433e-10)
(5.02089e-10 0 1.24151e-10)
(4.72935e-10 0 1.21966e-10)
(4.44289e-10 0 1.19878e-10)
(4.16129e-10 0 1.17888e-10)
(3.88431e-10 0 1.15994e-10)
(3.61173e-10 0 1.14199e-10)
(3.34332e-10 0 1.12504e-10)
(3.07883e-10 0 1.10908e-10)
(2.81802e-10 0 1.09414e-10)
(2.56065e-10 0 1.08023e-10)
(2.30646e-10 0 1.06735e-10)
(2.05521e-10 0 1.05551e-10)
(1.80662e-10 0 1.04472e-10)
(1.56045e-10 0 1.03499e-10)
(1.31643e-10 0 1.02632e-10)
(1.07429e-10 0 1.0187e-10)
(8.33774e-11 0 1.01208e-10)
(5.94542e-11 0 1.00632e-10)
(3.56029e-11 0 1.00126e-10)
(1.1843e-11 0 9.99117e-11)
(-0.00170153 0 0.00751683)
(-0.00234231 0 0.00616915)
(-0.00322438 0 0.00460037)
(-0.00418912 0 0.00204239)
(-0.00402379 0 0.00149868)
(-0.00412348 0 -0.0015513)
(-0.00340969 0 -0.00334114)
(-0.00331744 0 -0.00386948)
(-0.00378609 0 -0.00360923)
(-0.000952113 0 -0.00428569)
(-0.00135664 0 -0.00267569)
(-0.000628558 0 -0.00112878)
(0.000552423 0 -0.000383595)
(0.00036585 0 0.000772099)
(0.000490834 0 0.000719921)
(0.000261528 0 -2.74611e-05)
(0.000181556 0 -0.00140331)
(5.80765e-05 0 -0.00224601)
(9.67427e-10 0 1.82976e-09)
(2.51385e-09 0 7.98276e-10)
(3.11772e-09 0 1.15713e-09)
(3.1211e-09 0 1.17044e-09)
(3.00742e-09 0 1.08928e-09)
(2.87216e-09 0 9.88138e-10)
(2.73716e-09 0 8.90052e-10)
(2.60843e-09 0 8.01685e-10)
(2.48773e-09 0 7.24195e-10)
(2.37533e-09 0 6.56917e-10)
(2.2709e-09 0 5.98673e-10)
(2.17383e-09 0 5.48237e-10)
(2.08345e-09 0 5.04492e-10)
(1.99906e-09 0 4.66471e-10)
(1.92002e-09 0 4.33345e-10)
(1.84572e-09 0 4.04413e-10)
(1.77563e-09 0 3.79079e-10)
(1.70927e-09 0 3.56835e-10)
(1.64622e-09 0 3.37247e-10)
(1.58612e-09 0 3.19943e-10)
(1.52865e-09 0 3.04604e-10)
(1.47352e-09 0 2.90954e-10)
(1.42051e-09 0 2.78756e-10)
(1.3694e-09 0 2.67807e-10)
(1.32003e-09 0 2.57932e-10)
(1.27223e-09 0 2.48981e-10)
(1.22587e-09 0 2.40824e-10)
(1.18086e-09 0 2.33351e-10)
(1.13708e-09 0 2.2647e-10)
(1.09445e-09 0 2.20098e-10)
(1.05291e-09 0 2.1417e-10)
(1.01239e-09 0 2.08626e-10)
(9.72836e-10 0 2.03418e-10)
(9.34197e-10 0 1.98506e-10)
(8.96431e-10 0 1.93854e-10)
(8.595e-10 0 1.89434e-10)
(8.2337e-10 0 1.85223e-10)
(7.88008e-10 0 1.81199e-10)
(7.53387e-10 0 1.77347e-10)
(7.19478e-10 0 1.73653e-10)
(6.86257e-10 0 1.70107e-10)
(6.53698e-10 0 1.66699e-10)
(6.2178e-10 0 1.63423e-10)
(5.90479e-10 0 1.60275e-10)
(5.59773e-10 0 1.57249e-10)
(5.2964e-10 0 1.54343e-10)
(5.00059e-10 0 1.51556e-10)
(4.71008e-10 0 1.48887e-10)
(4.42464e-10 0 1.46335e-10)
(4.14407e-10 0 1.43901e-10)
(3.86813e-10 0 1.41586e-10)
(3.5966e-10 0 1.39391e-10)
(3.32923e-10 0 1.37317e-10)
(3.06581e-10 0 1.35366e-10)
(2.80608e-10 0 1.33539e-10)
(2.54979e-10 0 1.31837e-10)
(2.2967e-10 0 1.30263e-10)
(2.04654e-10 0 1.28817e-10)
(1.79906e-10 0 1.27501e-10)
(1.55397e-10 0 1.26315e-10)
(1.31102e-10 0 1.2526e-10)
(1.06993e-10 0 1.24336e-10)
(8.30414e-11 0 1.23538e-10)
(5.92159e-11 0 1.22861e-10)
(3.54685e-11 0 1.22316e-10)
(1.18035e-11 0 1.22029e-10)
(-0.000618012 0 0.00908237)
(-0.00271441 0 0.00709863)
(-0.00315698 0 0.00507945)
(-0.00379789 0 0.00285269)
(-0.00425012 0 0.00107382)
(-0.00459364 0 -0.00145406)
(-0.00385053 0 -0.00320752)
(-0.00307356 0 -0.00463092)
(-0.00269669 0 -0.0051953)
(-0.00214373 0 -0.0047529)
(-0.0013006 0 -0.00364774)
(-0.00103296 0 -0.00212233)
(0.000153228 0 -0.000599796)
(-1.00504e-05 0 0.00106236)
(-0.000302573 0 0.0010058)
(-0.000173717 0 0.000111596)
(-0.000341099 0 -0.00179142)
(0.000972699 0 -0.00257835)
(7.11823e-07 0 2.09009e-05)
(1.92066e-09 0 1.24141e-09)
(3.55608e-09 0 1.38095e-09)
(3.14125e-09 0 1.33259e-09)
(2.93214e-09 0 1.23003e-09)
(2.77941e-09 0 1.11764e-09)
(2.64775e-09 0 1.01075e-09)
(2.52788e-09 0 9.14224e-10)
(2.41691e-09 0 8.28974e-10)
(2.31364e-09 0 7.54407e-10)
(2.21732e-09 0 6.89431e-10)
(2.12731e-09 0 6.32865e-10)
(2.04301e-09 0 5.83595e-10)
(1.96384e-09 0 5.40625e-10)
(1.88929e-09 0 5.03087e-10)
(1.81885e-09 0 4.7023e-10)
(1.75208e-09 0 4.41407e-10)
(1.68857e-09 0 4.16062e-10)
(1.62798e-09 0 3.93714e-10)
(1.57e-09 0 3.73948e-10)
(1.51434e-09 0 3.56404e-10)
(1.46078e-09 0 3.40774e-10)
(1.40912e-09 0 3.26789e-10)
(1.35917e-09 0 3.14219e-10)
(1.31079e-09 0 3.02865e-10)
(1.26385e-09 0 2.92557e-10)
(1.21824e-09 0 2.8315e-10)
(1.17386e-09 0 2.74517e-10)
(1.13063e-09 0 2.66552e-10)
(1.08848e-09 0 2.59166e-10)
(1.04736e-09 0 2.52281e-10)
(1.0072e-09 0 2.45832e-10)
(9.67962e-10 0 2.39764e-10)
(9.29603e-10 0 2.34032e-10)
(8.92086e-10 0 2.28596e-10)
(8.55378e-10 0 2.23424e-10)
(8.19449e-10 0 2.18489e-10)
(7.84271e-10 0 2.13769e-10)
(7.49818e-10 0 2.09245e-10)
(7.16066e-10 0 2.04903e-10)
(6.82991e-10 0 2.00731e-10)
(6.50572e-10 0 1.96718e-10)
(6.18787e-10 0 1.92859e-10)
(5.87614e-10 0 1.89146e-10)
(5.57034e-10 0 1.85576e-10)
(5.27024e-10 0 1.82146e-10)
(4.97566e-10 0 1.78855e-10)
(4.68636e-10 0 1.75701e-10)
(4.40215e-10 0 1.72685e-10)
(4.1228e-10 0 1.69808e-10)
(3.84809e-10 0 1.6707e-10)
(3.57781e-10 0 1.64474e-10)
(3.31171e-10 0 1.6202e-10)
(3.04956e-10 0 1.59712e-10)
(2.79112e-10 0 1.57551e-10)
(2.53615e-10 0 1.55538e-10)
(2.28438e-10 0 1.53677e-10)
(2.03555e-10 0 1.51969e-10)
(1.78939e-10 0 1.50415e-10)
(1.54564e-10 0 1.49018e-10)
(1.304e-10 0 1.47778e-10)
(1.0642e-10 0 1.46693e-10)
(8.25955e-11 0 1.45762e-10)
(5.88951e-11 0 1.44985e-10)
(3.52841e-11 0 1.44384e-10)
(1.17481e-11 0 1.44058e-10)
(-0.00194515 0 0.0102345)
(-0.000175488 0 0.00875464)
(-0.00367872 0 0.00553312)
(-0.00352553 0 0.00362262)
(-0.00433785 0 0.00176835)
(-0.00471066 0 -0.0016783)
(-0.00366615 0 -0.0037024)
(-0.00344357 0 -0.00493244)
(-0.00350018 0 -0.00537388)
(-0.00119785 0 -0.00579526)
(-0.00193665 0 -0.00399993)
(-0.000997869 0 -0.00260976)
(-0.000807288 0 -0.000884329)
(-0.000685143 0 0.00122989)
(-0.000926322 0 0.000926985)
(-0.000681359 0 0.000226184)
(-0.00204759 0 -0.0014622)
(-0.0022774 0 -0.00159676)
(-3.22688e-05 0 0.000962943)
(1.67598e-09 0 2.23774e-09)
(3.20334e-09 0 1.76927e-09)
(2.98066e-09 0 1.54211e-09)
(2.80731e-09 0 1.3793e-09)
(2.66811e-09 0 1.24228e-09)
(2.54798e-09 0 1.12234e-09)
(2.43949e-09 0 1.01688e-09)
(2.33929e-09 0 9.24404e-10)
(2.24581e-09 0 8.43509e-10)
(2.15817e-09 0 7.72842e-10)
(2.07574e-09 0 7.11126e-10)
(1.99802e-09 0 6.57203e-10)
(1.92455e-09 0 6.10044e-10)
(1.85492e-09 0 5.68749e-10)
(1.78873e-09 0 5.32532e-10)
(1.72563e-09 0 5.00707e-10)
(1.66529e-09 0 4.7268e-10)
(1.60744e-09 0 4.47934e-10)
(1.55181e-09 0 4.26017e-10)
(1.49818e-09 0 4.06539e-10)
(1.44637e-09 0 3.89161e-10)
(1.39621e-09 0 3.73589e-10)
(1.34755e-09 0 3.5957e-10)
(1.30028e-09 0 3.46885e-10)
(1.2543e-09 0 3.35348e-10)
(1.20951e-09 0 3.24797e-10)
(1.16584e-09 0 3.15096e-10)
(1.12323e-09 0 3.06128e-10)
(1.08161e-09 0 2.97793e-10)
(1.04095e-09 0 2.90008e-10)
(1.0012e-09 0 2.82702e-10)
(9.62314e-10 0 2.75814e-10)
(9.24268e-10 0 2.69295e-10)
(8.87031e-10 0 2.63103e-10)
(8.50573e-10 0 2.57202e-10)
(8.1487e-10 0 2.51563e-10)
(7.79898e-10 0 2.46162e-10)
(7.45635e-10 0 2.4098e-10)
(7.12059e-10 0 2.36001e-10)
(6.79151e-10 0 2.31211e-10)
(6.4689e-10 0 2.266e-10)
(6.15257e-10 0 2.22161e-10)
(5.84231e-10 0 2.17888e-10)
(5.53795e-10 0 2.13777e-10)
(5.23927e-10 0 2.09825e-10)
(4.94609e-10 0 2.0603e-10)
(4.6582e-10 0 2.02392e-10)
(4.37539e-10 0 1.98912e-10)
(4.09746e-10 0 1.9559e-10)
(3.82419e-10 0 1.92428e-10)
(3.55535e-10 0 1.89429e-10)
(3.29072e-10 0 1.86594e-10)
(3.03007e-10 0 1.83927e-10)
(2.77314e-10 0 1.8143e-10)
(2.5197e-10 0 1.79105e-10)
(2.26948e-10 0 1.76956e-10)
(2.02221e-10 0 1.74984e-10)
(1.77763e-10 0 1.73193e-10)
(1.53546e-10 0 1.71585e-10)
(1.2954e-10 0 1.7016e-10)
(1.05717e-10 0 1.68918e-10)
(8.20468e-11 0 1.67857e-10)
(5.85011e-11 0 1.66977e-10)
(3.50517e-11 0 1.66305e-10)
(1.16738e-11 0 1.65965e-10)
(-0.0011482 0 0.0112198)
(-0.00395347 0 0.00874389)
(-0.00240557 0 0.0067975)
(-0.00422286 0 0.00370495)
(-0.00373821 0 0.00244565)
(-0.00289801 0 -0.00376266)
(-0.0037518 0 -0.0035691)
(-0.00246138 0 -0.00571637)
(-0.00278364 0 -0.00619528)
(-0.00235439 0 -0.00603864)
(-0.00147153 0 -0.00452424)
(-0.0013128 0 -0.00259514)
(-0.00117397 0 -0.000779146)
(-0.000708461 0 0.00142264)
(-0.000543017 0 0.00152744)
(-0.00175505 0 0.000492712)
(-0.00225183 0 -0.00111763)
(-0.00117563 0 -0.00255536)
(-1.24899e-05 0 -0.00218751)
(1.48523e-09 0 2.29924e-09)
(2.90478e-09 0 1.94522e-09)
(2.77698e-09 0 1.69492e-09)
(2.65258e-09 0 1.50585e-09)
(2.54008e-09 0 1.35192e-09)
(2.43798e-09 0 1.22122e-09)
(2.34379e-09 0 1.10817e-09)
(2.25575e-09 0 1.0097e-09)
(2.17284e-09 0 9.2367e-10)
(2.0944e-09 0 8.48433e-10)
(2.02e-09 0 7.82583e-10)
(1.94926e-09 0 7.24908e-10)
(1.88186e-09 0 6.7435e-10)
(1.8175e-09 0 6.29986e-10)
(1.75587e-09 0 5.91006e-10)
(1.69673e-09 0 5.56699e-10)
(1.63981e-09 0 5.26442e-10)
(1.58491e-09 0 4.99688e-10)
(1.53184e-09 0 4.75962e-10)
(1.48041e-09 0 4.54844e-10)
(1.43049e-09 0 4.35974e-10)
(1.38195e-09 0 4.19035e-10)
(1.3347e-09 0 4.03756e-10)
(1.28863e-09 0 3.89904e-10)
(1.24369e-09 0 3.77276e-10)
(1.19979e-09 0 3.65701e-10)
(1.15689e-09 0 3.55033e-10)
(1.11494e-09 0 3.45147e-10)
(1.0739e-09 0 3.35937e-10)
(1.03374e-09 0 3.27314e-10)
(9.94425e-10 0 3.19202e-10)
(9.55928e-10 0 3.11538e-10)
(9.18223e-10 0 3.04269e-10)
(8.81289e-10 0 2.97351e-10)
(8.45104e-10 0 2.90746e-10)
(8.09648e-10 0 2.84424e-10)
(7.74902e-10 0 2.7836e-10)
(7.40848e-10 0 2.72534e-10)
(7.07468e-10 0 2.66928e-10)
(6.74744e-10 0 2.61529e-10)
(6.42659e-10 0 2.56328e-10)
(6.11194e-10 0 2.51315e-10)
(5.80333e-10 0 2.46486e-10)
(5.50058e-10 0 2.41836e-10)
(5.20349e-10 0 2.37362e-10)
(4.91189e-10 0 2.33064e-10)
(4.62559e-10 0 2.28942e-10)
(4.34437e-10 0 2.24996e-10)
(4.06805e-10 0 2.21229e-10)
(3.7964e-10 0 2.17641e-10)
(3.52921e-10 0 2.14237e-10)
(3.26626e-10 0 2.11019e-10)
(3.00731e-10 0 2.07991e-10)
(2.75212e-10 0 2.05155e-10)
(2.50043e-10 0 2.02516e-10)
(2.25199e-10 0 2.00077e-10)
(2.00653e-10 0 1.97841e-10)
(1.76377e-10 0 1.95811e-10)
(1.52343e-10 0 1.9399e-10)
(1.28522e-10 0 1.92381e-10)
(1.04883e-10 0 1.90983e-10)
(8.13964e-11 0 1.89793e-10)
(5.8035e-11 0 1.8881e-10)
(3.47755e-11 0 1.88056e-10)
(1.15844e-11 0 1.87719e-10)
(-0.001527 0 0.0121447)
(0.000506717 0 0.0104976)
(-0.00173167 0 0.00768911)
(-0.00183732 0 0.00532328)
(-0.0028648 0 0.00221614)
(-0.00253406 0 -0.00131079)
(-0.00319071 0 -0.0041698)
(-0.00204942 0 -0.00595673)
(-0.00226562 0 -0.00651858)
(-0.00140331 0 -0.00665334)
(-0.000808084 0 -0.00512974)
(-0.00123011 0 -0.00240164)
(-0.00109932 0 -0.00026061)
(-0.0015345 0 0.000918611)
(-0.00142378 0 0.0010564)
(-0.00174642 0 0.000494318)
(-0.00157961 0 -0.00190168)
(-0.000877723 0 -0.00300939)
(-1.71913e-05 0 -0.00349403)
(1.34081e-09 0 2.319e-09)
(2.63881e-09 0 2.0301e-09)
(2.57062e-09 0 1.79394e-09)
(2.48753e-09 0 1.60153e-09)
(2.40297e-09 0 1.44116e-09)
(2.32107e-09 0 1.30462e-09)
(2.24267e-09 0 1.18671e-09)
(2.1677e-09 0 1.08409e-09)
(2.0959e-09 0 9.94398e-10)
(2.02707e-09 0 9.15823e-10)
(1.96101e-09 0 8.46902e-10)
(1.89754e-09 0 7.864e-10)
(1.83648e-09 0 7.33253e-10)
(1.77763e-09 0 6.86529e-10)
(1.72082e-09 0 6.45406e-10)
(1.66584e-09 0 6.0916e-10)
(1.61254e-09 0 5.77149e-10)
(1.56077e-09 0 5.48806e-10)
(1.51039e-09 0 5.23632e-10)
(1.46129e-09 0 5.01191e-10)
(1.41338e-09 0 4.81101e-10)
(1.36656e-09 0 4.63032e-10)
(1.32079e-09 0 4.46698e-10)
(1.27599e-09 0 4.31851e-10)
(1.23214e-09 0 4.18283e-10)
(1.18918e-09 0 4.05812e-10)
(1.14709e-09 0 3.94285e-10)
(1.10585e-09 0 3.83572e-10)
(1.06542e-09 0 3.73564e-10)
(1.02578e-09 0 3.64168e-10)
(9.86932e-10 0 3.55306e-10)
(9.48843e-10 0 3.46912e-10)
(9.115e-10 0 3.38932e-10)
(8.74889e-10 0 3.3132e-10)
(8.38995e-10 0 3.24038e-10)
(8.03803e-10 0 3.17055e-10)
(7.693e-10 0 3.10346e-10)
(7.35471e-10 0 3.0389e-10)
(7.02302e-10 0 2.97669e-10)
(6.69778e-10 0 2.91671e-10)
(6.37883e-10 0 2.85885e-10)
(6.06604e-10 0 2.80304e-10)
(5.75923e-10 0 2.74922e-10)
(5.45825e-10 0 2.69735e-10)
(5.16292e-10 0 2.64742e-10)
(4.87307e-10 0 2.59941e-10)
(4.58852e-10 0 2.55334e-10)
(4.30907e-10 0 2.50921e-10)
(4.03454e-10 0 2.46706e-10)
(3.76471e-10 0 2.42691e-10)
(3.49938e-10 0 2.38879e-10)
(3.23831e-10 0 2.35275e-10)
(2.98127e-10 0 2.31883e-10)
(2.72802e-10 0 2.28706e-10)
(2.47832e-10 0 2.2575e-10)
(2.2319e-10 0 2.23018e-10)
(1.98849e-10 0 2.20515e-10)
(1.7478e-10 0 2.18245e-10)
(1.50956e-10 0 2.16211e-10)
(1.27346e-10 0 2.14416e-10)
(1.03919e-10 0 2.12862e-10)
(8.0646e-11 0 2.11544e-10)
(5.74983e-11 0 2.10456e-10)
(3.44551e-11 0 2.09614e-10)
(1.14787e-11 0 2.0929e-10)
(-0.00112909 0 0.0128938)
(-0.00163488 0 0.0107731)
(-0.00174867 0 0.00793457)
(-0.00130738 0 0.00540019)
(-0.0020618 0 0.00229022)
(-0.00157392 0 -0.00116929)
(-0.00188189 0 -0.00455059)
(0.000858192 0 -0.00650064)
(0.000820548 0 -0.00703995)
(-0.000794544 0 -0.00671091)
(2.10033e-05 0 -0.00554841)
(8.42217e-06 0 -0.00284983)
(-0.00020182 0 -5.43546e-05)
(-0.000581745 0 0.00169506)
(-0.000972522 0 0.00139194)
(-0.00134093 0 0.000636105)
(-0.00132646 0 -0.00124102)
(-0.000531881 0 -0.0034766)
(-1.83636e-05 0 -0.00434318)
(1.22242e-09 0 2.30735e-09)
(2.41539e-09 0 2.06892e-09)
(2.37756e-09 0 1.85465e-09)
(2.32392e-09 0 1.66914e-09)
(2.26357e-09 0 1.50955e-09)
(2.2011e-09 0 1.3717e-09)
(2.13856e-09 0 1.25188e-09)
(2.07683e-09 0 1.14719e-09)
(2.01634e-09 0 1.05541e-09)
(1.95727e-09 0 9.7478e-10)
(1.89971e-09 0 9.0387e-10)
(1.84368e-09 0 8.41475e-10)
(1.78912e-09 0 7.86552e-10)
(1.73596e-09 0 7.38185e-10)
(1.68411e-09 0 6.95555e-10)
(1.63345e-09 0 6.5793e-10)
(1.5839e-09 0 6.24659e-10)
(1.53538e-09 0 5.9516e-10)
(1.4878e-09 0 5.6892e-10)
(1.44111e-09 0 5.45487e-10)
(1.39527e-09 0 5.24466e-10)
(1.35024e-09 0 5.05515e-10)
(1.306e-09 0 4.88339e-10)
(1.26252e-09 0 4.72682e-10)
(1.21979e-09 0 4.58329e-10)
(1.1778e-09 0 4.45094e-10)
(1.13655e-09 0 4.32821e-10)
(1.09602e-09 0 4.21378e-10)
(1.05622e-09 0 4.10653e-10)
(1.01714e-09 0 4.00551e-10)
(9.78765e-10 0 3.90995e-10)
(9.41098e-10 0 3.81919e-10)
(9.04131e-10 0 3.73267e-10)
(8.67857e-10 0 3.64994e-10)
(8.32267e-10 0 3.57063e-10)
(7.97353e-10 0 3.49442e-10)
(7.63106e-10 0 3.42106e-10)
(7.29515e-10 0 3.35034e-10)
(6.9657e-10 0 3.2821e-10)
(6.64259e-10 0 3.21622e-10)
(6.3257e-10 0 3.15259e-10)
(6.01489e-10 0 3.09114e-10)
(5.71003e-10 0 3.03183e-10)
(5.41096e-10 0 2.97461e-10)
(5.11755e-10 0 2.91949e-10)
(4.82961e-10 0 2.86645e-10)
(4.54698e-10 0 2.81551e-10)
(4.26948e-10 0 2.7667e-10)
(3.99692e-10 0 2.72005e-10)
(3.7291e-10 0 2.67559e-10)
(3.46581e-10 0 2.63336e-10)
(3.20682e-10 0 2.59343e-10)
(2.95191e-10 0 2.55583e-10)
(2.70084e-10 0 2.52062e-10)
(2.45335e-10 0 2.48785e-10)
(2.20918e-10 0 2.45757e-10)
(1.96806e-10 0 2.42984e-10)
(1.72971e-10 0 2.40471e-10)
(1.49383e-10 0 2.38221e-10)
(1.26012e-10 0 2.36239e-10)
(1.02827e-10 0 2.34526e-10)
(7.97985e-11 0 2.33079e-10)
(5.68948e-11 0 2.31887e-10)
(3.40875e-11 0 2.3096e-10)
(1.13522e-11 0 2.30644e-10)
(-0.000782365 0 0.0129048)
(-0.000503503 0 0.011057)
(-0.000465749 0 0.00845897)
(-0.000555672 0 0.00547904)
(-0.000739631 0 0.00294674)
(-0.00056966 0 -0.00177506)
(-0.00150887 0 -0.0046408)
(0.00163854 0 -0.00663181)
(0.00163176 0 -0.00719052)
(0.0019155 0 -0.00672658)
(0.00101036 0 -0.00554941)
(0.00070815 0 -0.00290422)
(0.000196088 0 0.000626704)
(-6.13768e-05 0 0.00200004)
(-0.000402618 0 0.00170393)
(-0.000747989 0 0.000643817)
(-0.000759779 0 -0.00110808)
(-0.000167303 0 -0.00358409)
(-1.54044e-05 0 -0.0048631)
(1.11837e-09 0 2.29693e-09)
(2.21775e-09 0 2.08684e-09)
(2.19853e-09 0 1.89032e-09)
(2.16628e-09 0 1.71411e-09)
(2.12608e-09 0 1.55897e-09)
(2.08121e-09 0 1.42303e-09)
(2.03371e-09 0 1.30382e-09)
(1.98486e-09 0 1.19901e-09)
(1.93548e-09 0 1.10668e-09)
(1.8861e-09 0 1.02525e-09)
(1.83704e-09 0 9.53403e-10)
(1.78848e-09 0 8.90026e-10)
(1.7405e-09 0 8.34132e-10)
(1.69311e-09 0 7.84837e-10)
(1.64631e-09 0 7.41337e-10)
(1.60006e-09 0 7.02904e-10)
(1.55434e-09 0 6.68879e-10)
(1.50912e-09 0 6.38673e-10)
(1.4644e-09 0 6.1176e-10)
(1.42017e-09 0 5.87678e-10)
(1.37644e-09 0 5.66025e-10)
(1.33322e-09 0 5.46449e-10)
(1.29052e-09 0 5.28651e-10)
(1.24836e-09 0 5.12372e-10)
(1.20677e-09 0 4.97395e-10)
(1.16577e-09 0 4.83533e-10)
(1.12536e-09 0 4.70629e-10)
(1.08556e-09 0 4.58552e-10)
(1.04639e-09 0 4.47191e-10)
(1.00786e-09 0 4.36453e-10)
(9.69973e-10 0 4.2626e-10)
(9.32736e-10 0 4.16549e-10)
(8.96152e-10 0 4.07265e-10)
(8.60222e-10 0 3.98365e-10)
(8.24945e-10 0 3.89811e-10)
(7.90317e-10 0 3.81573e-10)
(7.56335e-10 0 3.73628e-10)
(7.22993e-10 0 3.65956e-10)
(6.90282e-10 0 3.5854e-10)
(6.58196e-10 0 3.5137e-10)
(6.26723e-10 0 3.44436e-10)
(5.95853e-10 0 3.37732e-10)
(5.65575e-10 0 3.31254e-10)
(5.35874e-10 0 3.25e-10)
(5.06738e-10 0 3.18968e-10)
(4.78151e-10 0 3.1316e-10)
(4.50096e-10 0 3.07579e-10)
(4.22558e-10 0 3.02226e-10)
(3.95516e-10 0 2.97107e-10)
(3.68953e-10 0 2.92227e-10)
(3.42847e-10 0 2.8759e-10)
(3.17177e-10 0 2.83202e-10)
(2.9192e-10 0 2.7907e-10)
(2.67052e-10 0 2.752e-10)
(2.42547e-10 0 2.71598e-10)
(2.1838e-10 0 2.68271e-10)
(1.94522e-10 0 2.65224e-10)
(1.70946e-10 0 2.62463e-10)
(1.47621e-10 0 2.59994e-10)
(1.24518e-10 0 2.57822e-10)
(1.01605e-10 0 2.55948e-10)
(7.88502e-11 0 2.5437e-10)
(5.62198e-11 0 2.53078e-10)
(3.36724e-11 0 2.52083e-10)
(1.12069e-11 0 2.51743e-10)
(-0.000554687 0 0.0129539)
(-0.00015427 0 0.0110456)
(1.45168e-05 0 0.00846574)
(-7.71504e-05 0 0.00520033)
(-0.000705703 0 0.00348902)
(0.00177785 0 -0.0023246)
(0.00401903 0 -0.00320129)
(0.00363408 0 -0.00623555)
(0.00214646 0 -0.00758089)
(0.00193723 0 -0.00697034)
(0.00242552 0 -0.00520844)
(0.000981857 0 -0.00229452)
(0.000173562 0 0.00142238)
(0.000149997 0 0.0023808)
(-3.33875e-05 0 0.00192277)
(-0.000201728 0 0.000518721)
(-0.000342405 0 -0.00076354)
(0.000482131 0 -0.00324775)
(-9.10678e-06 0 -0.00506806)
(1.02339e-09 0 2.28807e-09)
(2.0378e-09 0 2.09318e-09)
(2.03104e-09 0 1.90839e-09)
(2.01567e-09 0 1.74076e-09)
(1.99269e-09 0 1.59164e-09)
(1.96361e-09 0 1.45978e-09)
(1.93002e-09 0 1.34318e-09)
(1.89332e-09 0 1.23994e-09)
(1.8546e-09 0 1.14844e-09)
(1.81462e-09 0 1.06735e-09)
(1.7739e-09 0 9.95543e-10)
(1.73274e-09 0 9.32045e-10)
(1.69131e-09 0 8.75954e-10)
(1.64971e-09 0 8.26431e-10)
(1.60798e-09 0 7.82699e-10)
(1.56617e-09 0 7.44032e-10)
(1.52429e-09 0 7.0977e-10)
(1.4824e-09 0 6.79313e-10)
(1.44054e-09 0 6.5213e-10)
(1.39876e-09 0 6.27752e-10)
(1.35713e-09 0 6.05769e-10)
(1.3157e-09 0 5.8583e-10)
(1.27454e-09 0 5.67634e-10)
(1.2337e-09 0 5.50924e-10)
(1.19323e-09 0 5.35484e-10)
(1.15319e-09 0 5.2113e-10)
(1.11361e-09 0 5.0771e-10)