/*--------------------------------*- C++ -*----------------------------------*\
  =========                 |
  \\      /  F ield         | OpenFOAM: The Open Source CFD Toolbox
   \\    /   O peration     | Website:  https://openfoam.org
    \\  /    A nd           | Version:  6
     \\/     M anipulation  |
\*---------------------------------------------------------------------------*/
FoamFile
{
    version     2.0;
    format      ascii;
    class       surfaceScalarField;
    location    "2250";
    object      phi;
}
// * * * * * * * * * * * * * * * * * * * * * * * * * * * * * * * * * * * * * //

dimensions      [0 3 -1 0 0 0 0];

internalField   nonuniform List<scalar> 
9440
(
2.63426e-10
-2.63426e-10
3.2014e-10
-5.6713e-11
-1.67293e-10
4.87433e-10
-5.60829e-10
3.93537e-10
-1.35048e-09
7.89652e-10
-2.13482e-09
7.84336e-10
-2.88021e-09
7.45398e-10
-3.19569e-09
3.15479e-10
-3.38923e-09
1.93538e-10
-3.46832e-09
7.90921e-11
-3.48621e-09
1.78852e-11
-3.34496e-09
-1.41244e-10
-3.22067e-09
-1.24297e-10
-3.17685e-09
-4.38139e-11
-3.12424e-09
-5.26112e-11
-2.92034e-09
-2.03901e-10
-2.81526e-09
-1.05081e-10
-2.57872e-09
-2.36541e-10
-2.41726e-09
-1.61453e-10
-2.20706e-09
-2.10203e-10
-1.76169e-09
-4.45366e-10
-1.29935e-09
-4.62345e-10
-9.83759e-10
-3.15589e-10
-4.29085e-10
-5.54674e-10
-1.45138e-10
-2.83948e-10
1.96705e-10
-3.41843e-10
4.26142e-10
-2.29438e-10
6.95784e-10
-2.69642e-10
9.99354e-10
-3.03571e-10
1.34454e-09
-3.4519e-10
1.7502e-09
-4.05654e-10
2.15502e-09
-4.04823e-10
2.54018e-09
-3.85165e-10
2.85461e-09
-3.14434e-10
3.0948e-09
-2.40188e-10
3.39425e-09
-2.99445e-10
3.62415e-09
-2.29906e-10
3.77854e-09
-1.54392e-10
3.85232e-09
-7.37777e-11
3.88476e-09
-3.24406e-11
3.87481e-09
9.94302e-12
3.83526e-09
3.95504e-11
3.76022e-09
7.50412e-11
3.66638e-09
9.38401e-11
3.56946e-09
9.69094e-11
3.48786e-09
8.16057e-11
3.41488e-09
7.29784e-11
3.39603e-09
1.88425e-11
3.41143e-09
-1.54005e-11
3.38636e-09
2.50706e-11
3.4543e-09
-6.79433e-11
3.48895e-09
-3.4651e-11
3.56162e-09
-7.26775e-11
3.63724e-09
-7.56165e-11
3.7141e-09
-7.6867e-11
3.81397e-09
-9.98672e-11
3.94866e-09
-1.34689e-10
4.05186e-09
-1.03203e-10
4.18205e-09
-1.30193e-10
4.25971e-09
-7.76582e-11
4.34311e-09
-8.3402e-11
4.41479e-09
-7.16877e-11
4.46044e-09
-4.5645e-11
4.46507e-09
-4.63364e-12
4.44143e-09
2.36374e-11
4.37309e-09
6.83388e-11
4.27491e-09
9.81806e-11
4.08316e-09
1.91756e-10
3.84883e-09
2.3433e-10
3.51336e-09
3.35466e-10
2.99939e-09
5.13967e-10
2.04541e-09
9.53983e-10
1.05061e-09
9.948e-10
-1.10671e-10
1.16128e-09
-7.59588e-10
6.48917e-10
-1.25823e-09
4.98639e-10
-1.46732e-09
2.09095e-10
-1.09804e-09
-3.69284e-10
-5.9756e-10
-5.00478e-10
5.75924e-17
-5.97561e-10
-5.15262e-18
3.60561e-19
-4.96415e-18
-1.88466e-19
-4.6806e-18
-2.83838e-19
-4.41457e-18
-2.66511e-19
-4.17045e-18
-2.44676e-19
-3.92813e-18
-2.42888e-19
-3.66904e-18
-2.59663e-19
-3.38238e-18
-2.87247e-19
-3.06388e-18
-3.1909e-19
-2.71427e-18
-3.50216e-19
-2.33762e-18
-3.7724e-19
-1.94018e-18
-3.98024e-19
-1.52942e-18
-4.11338e-19
-1.1134e-18
-4.16624e-19
-7.00187e-19
-4.13822e-19
-2.97553e-19
-4.03247e-19
8.73562e-20
-3.85492e-19
4.48198e-19
-3.61357e-19
7.79559e-19
-3.31787e-19
1.07703e-18
-2.97811e-19
1.33724e-18
-2.60488e-19
1.55784e-18
-2.20862e-19
1.73748e-18
-1.79922e-19
1.87571e-18
-1.38572e-19
1.97289e-18
-9.76115e-20
2.03008e-18
-5.77226e-20
2.04892e-18
-1.94697e-20
2.0315e-18
1.66997e-20
1.98025e-18
5.04455e-20
1.89787e-18
8.15241e-20
1.78719e-18
1.09775e-19
1.65115e-18
1.35108e-19
1.4927e-18
1.57485e-19
1.31482e-18
1.76911e-19
1.12042e-18
1.93416e-19
9.12385e-19
2.07047e-19
6.93538e-19
2.17857e-19
4.66661e-19
2.25887e-19
2.34524e-19
2.31146e-19
2.33534e-19
-3.85715e-10
1.2229e-10
-6.734e-10
2.30973e-10
-1.07803e-09
8.92062e-10
-1.97029e-09
1.2858e-09
-2.29956e-09
1.11893e-09
-2.82996e-09
1.31474e-09
-2.72463e-09
6.40067e-10
-3.04474e-09
6.35588e-10
-3.31919e-09
4.67994e-10
-3.399e-09
1.58895e-10
-3.3859e-09
4.79339e-12
-3.21979e-09
-3.07354e-10
-3.11596e-09
-2.28133e-10
-3.02767e-09
-1.32101e-10
-2.90383e-09
-1.76448e-10
-2.92505e-09
-1.82684e-10
-2.79741e-09
-2.32715e-10
-2.5508e-09
-4.83153e-10
-2.4073e-09
-3.0495e-10
-2.16587e-09
-4.51633e-10
-1.84795e-09
-7.63294e-10
-1.57268e-09
-7.37613e-10
-1.39481e-09
-4.93454e-10
-1.08445e-09
-8.65036e-10
-9.42783e-10
-4.25617e-10
-2.27393e-10
-1.05723e-09
1.78488e-10
-6.35319e-10
5.36969e-10
-6.28124e-10
8.56766e-10
-6.2337e-10
1.15714e-09
-6.45561e-10
1.50947e-09
-7.57988e-10
1.82837e-09
-7.23729e-10
2.17971e-09
-7.365e-10
2.50068e-09
-6.35407e-10
2.73658e-09
-4.7609e-10
3.10048e-09
-6.63351e-10
3.30612e-09
-4.35545e-10
3.45427e-09
-3.02547e-10
3.61044e-09
-2.29945e-10
3.66267e-09
-8.46805e-11
3.70257e-09
-2.99577e-11
3.74932e-09
-7.20506e-12
3.72378e-09
1.00585e-10
3.63593e-09
1.81685e-10
3.51495e-09
2.17885e-10
3.4345e-09
1.6205e-10
3.32929e-09
1.78186e-10
3.25894e-09
8.91874e-11
3.28812e-09
-4.45794e-11
3.25965e-09
5.35313e-11
3.3764e-09
-1.84691e-10
3.36188e-09
-2.01414e-11
3.42118e-09
-1.31973e-10
3.60235e-09
-2.56795e-10
3.75962e-09
-2.34142e-10
3.79452e-09
-1.34769e-10
3.79898e-09
-1.39153e-10
3.83657e-09
-1.40793e-10
3.87041e-09
-1.64036e-10
3.96047e-09
-1.67713e-10
4.09826e-09
-2.21203e-10
4.18209e-09
-1.55515e-10
4.20938e-09
-7.2934e-11
4.17338e-09
3.13664e-11
4.09985e-09
9.71651e-11
4.00371e-09
1.64471e-10
3.85468e-09
2.47217e-10
3.75285e-09
2.93583e-10
3.5265e-09
4.60675e-10
3.24413e-09
6.17836e-10
2.80644e-09
9.51657e-10
2.50484e-09
1.25559e-09
2.08629e-09
1.41335e-09
1.83574e-09
1.41183e-09
1.21029e-09
1.27437e-09
6.66368e-10
1.04256e-09
-1.33492e-10
1.00895e-09
-6.492e-10
1.46424e-10
-3.85813e-10
-7.63866e-10
1.68404e-16
-9.83374e-10
-5.69389e-18
-4.20114e-19
-5.06373e-18
-8.19078e-19
-4.66631e-18
-6.82111e-19
-4.39467e-18
-5.39114e-19
-4.16958e-18
-4.70822e-19
-3.94488e-18
-4.6868e-19
-3.69662e-18
-5.09046e-19
-3.41422e-18
-5.70781e-19
-3.09501e-18
-6.39433e-19
-2.74129e-18
-7.05059e-19
-2.3584e-18
-7.61252e-19
-1.95349e-18
-8.04061e-19
-1.53471e-18
-8.31267e-19
-1.11059e-18
-8.41906e-19
-6.89611e-19
-8.35964e-19
-2.79798e-19
-8.14158e-19
1.11491e-19
-7.77765e-19
4.77768e-19
-7.28474e-19
8.13535e-19
-6.68254e-19
1.11435e-18
-5.99226e-19
1.37686e-18
-5.23558e-19
1.59878e-18
-4.4337e-19
1.77883e-18
-3.60656e-19
1.91667e-18
-2.77233e-19
2.01277e-18
-1.94702e-19
2.06833e-18
-1.14424e-19
2.08509e-18
-3.75212e-20
2.06524e-18
3.5118e-20
2.01133e-18
1.02825e-19
1.92612e-18
1.65123e-19
1.81252e-18
2.21704e-19
1.67352e-18
2.72399e-19
1.51213e-18
3.17146e-19
1.33132e-18
3.55963e-19
1.13405e-18
3.88925e-19
9.23195e-19
4.16137e-19
7.01569e-19
4.37714e-19
4.7192e-19
4.53766e-19
2.36912e-19
4.64387e-19
4.69673e-19
-2.46565e-10
3.68855e-10
-9.78641e-10
9.6305e-10
-1.61073e-09
1.52415e-09
-1.89608e-09
1.57115e-09
-2.37143e-09
1.59427e-09
-2.57154e-09
1.51485e-09
-2.76104e-09
8.29568e-10
-2.99518e-09
8.69734e-10
-3.10655e-09
5.7936e-10
-3.13914e-09
1.91485e-10
-3.15553e-09
2.11889e-11
-3.25742e-09
-2.05471e-10
-3.27419e-09
-2.11355e-10
-3.14292e-09
-2.63369e-10
-3.03228e-09
-2.8709e-10
-2.9608e-09
-2.54167e-10
-2.8742e-09
-3.19314e-10
-2.83138e-09
-5.25971e-10
-2.67261e-09
-4.63718e-10
-2.48766e-09
-6.3659e-10
-2.22083e-09
-1.03012e-09
-2.16677e-09
-7.91678e-10
-2.01054e-09
-6.49686e-10
-1.63545e-09
-1.24012e-09
-1.08269e-09
-9.78376e-10
-7.79778e-10
-1.36015e-09
-4.67584e-10
-9.47514e-10
-8.43515e-11
-1.01136e-09
4.833e-10
-1.19102e-09
8.25881e-10
-9.88143e-10
1.1706e-09
-1.10271e-09
1.50855e-09
-1.06167e-09
1.77788e-09
-1.00583e-09
2.03569e-09
-8.93217e-10
2.44628e-09
-8.86681e-10
2.5784e-09
-7.95477e-10
2.84673e-09
-7.03879e-10
2.96957e-09
-4.25386e-10
3.01162e-09
-2.71995e-10
3.08367e-09
-1.56732e-10
3.183e-09
-1.29292e-10
3.33047e-09
-1.5468e-10
3.4052e-09
2.58583e-11
3.419e-09
1.67875e-10
3.3932e-09
2.43684e-10
3.31829e-09
2.36955e-10
3.29097e-09
2.05505e-10
3.27292e-09
1.07234e-10
3.25807e-09
-2.97358e-11
3.27664e-09
3.49604e-11
3.2739e-09
-1.81953e-10
3.34744e-09
-9.36867e-11
3.43844e-09
-2.22971e-10
3.56406e-09
-3.82414e-10
3.60384e-09
-2.73934e-10
3.62996e-09
-1.60885e-10
3.68889e-09
-1.98082e-10
3.73565e-09
-1.87557e-10
3.80284e-09
-2.31232e-10
3.83428e-09
-1.9915e-10
3.77748e-09
-1.64404e-10
3.72448e-09
-1.02522e-10
3.71303e-09
-6.14861e-11
3.69758e-09
4.68138e-11
3.67645e-09
1.18295e-10
3.62742e-09
2.13507e-10
3.49298e-09
3.81648e-10
3.39108e-09
3.95491e-10
3.1531e-09
6.98654e-10
2.84766e-09
9.23267e-10
2.6995e-09
1.09982e-09
2.59232e-09
1.36277e-09
2.45223e-09
1.55344e-09
2.21005e-09
1.65401e-09
1.71619e-09
1.76822e-09
1.32319e-09
1.43556e-09
1.00528e-09
1.32686e-09
5.23198e-10
6.28506e-10
-1.18176e-11
-2.2885e-10
2.30178e-16
-9.95192e-10
-6.02074e-18
-3.59605e-18
-4.92624e-18
-1.91393e-18
-4.52279e-18
-1.08648e-18
-4.32586e-18
-7.37065e-19
-4.16693e-18
-6.30873e-19
-3.98476e-18
-6.52024e-19
-3.75835e-18
-7.36667e-19
-3.48287e-18
-8.47482e-19
-3.16064e-18
-9.62903e-19
-2.79748e-18
-1.06945e-18
-2.40121e-18
-1.15878e-18
-1.9807e-18
-1.22586e-18
-1.54535e-18
-1.26794e-18
-1.10465e-18
-1.28394e-18
-6.67805e-19
-1.27413e-18
-2.43405e-19
-1.23981e-18
1.60781e-19
-1.18308e-18
5.37988e-19
-1.10666e-18
8.82563e-19
-1.01365e-18
1.19002e-18
-9.0738e-19
1.45705e-18
-7.91216e-19
1.68149e-18
-6.6843e-19
1.86225e-18
-5.42082e-19
1.9992e-18
-4.14942e-19
2.09305e-18
-2.89434e-19
2.14523e-18
-1.67609e-19
2.15772e-18
-5.11405e-20
2.13295e-18
5.86619e-20
2.07363e-18
1.60822e-19
1.9827e-18
2.54659e-19
1.86322e-18
3.39749e-19
1.71827e-18
4.15873e-19
1.55095e-18
4.82973e-19
1.36429e-18
5.41111e-19
1.16126e-18
5.90426e-19
9.44772e-19
6.31103e-19
7.17621e-19
6.63338e-19
4.82541e-19
6.8732e-19
2.42197e-19
7.03207e-19
7.11126e-19
-5.1279e-10
8.81646e-10
-8.52961e-10
1.30322e-09
-1.30342e-09
1.97461e-09
-1.84899e-09
2.11672e-09
-2.26647e-09
2.01175e-09
-2.50703e-09
1.75542e-09
-2.71356e-09
1.0361e-09
-2.79907e-09
9.55245e-10
-2.9748e-09
7.55085e-10
-2.90114e-09
1.17829e-10
-3.00136e-09
1.21412e-10
-3.15685e-09
-4.99814e-11
-3.23088e-09
-1.37326e-10
-3.26461e-09
-2.29638e-10
-3.26108e-09
-2.90616e-10
-3.17327e-09
-3.41985e-10
-3.0571e-09
-4.35477e-10
-2.97989e-09
-6.03183e-10
-2.86493e-09
-5.78675e-10
-2.74808e-09
-7.53448e-10
-2.52022e-09
-1.25797e-09
-2.35015e-09
-9.61755e-10
-2.03424e-09
-9.65594e-10
-1.68876e-09
-1.5856e-09
-1.41975e-09
-1.24738e-09
-1.25056e-09
-1.52934e-09
-7.3855e-10
-1.45952e-09
-3.51772e-10
-1.39814e-09
-1.69247e-11
-1.52587e-09
3.56879e-10
-1.36195e-09
7.30592e-10
-1.47643e-09
1.22378e-09
-1.55486e-09
1.54789e-09
-1.32994e-09
1.73328e-09
-1.07861e-09
2.11162e-09
-1.26502e-09
2.31773e-09
-1.00159e-09
2.35291e-09
-7.39068e-10
2.42549e-09
-4.97961e-10
2.42815e-09
-2.74663e-10
2.48846e-09
-2.17044e-10
2.57212e-09
-2.12957e-10
2.6087e-09
-1.91258e-10
2.80266e-09
-1.68103e-10
2.97356e-09
-3.02461e-12
3.0085e-09
2.08737e-10
3.07815e-09
1.67301e-10
3.09868e-09
1.84971e-10
3.1146e-09
9.13182e-11
3.13327e-09
-4.84143e-11
3.22295e-09
-5.47219e-11
3.16513e-09
-1.24138e-10
3.3192e-09
-2.47755e-10
3.3992e-09
-3.02978e-10
3.3456e-09
-3.28811e-10
3.32668e-09
-2.55016e-10
3.38085e-09
-2.15063e-10
3.4342e-09
-2.51433e-10
3.4689e-09
-2.22257e-10
3.46997e-09
-2.32309e-10
3.43943e-09
-1.68612e-10
3.38086e-09
-1.05828e-10
3.36433e-09
-8.59967e-11
3.3504e-09
-4.75609e-11
3.29127e-09
1.05939e-10
3.21153e-09
1.98039e-10
3.22148e-09
2.03551e-10
3.0957e-09
5.07435e-10
2.96125e-09
5.29935e-10
2.86859e-09
7.91317e-10
2.75606e-09
1.03579e-09
2.70881e-09
1.14707e-09
2.52714e-09
1.54444e-09
2.33587e-09
1.74471e-09
2.07122e-09
1.91867e-09
1.90288e-09
1.93656e-09
1.55321e-09
1.78522e-09
1.31822e-09
1.56185e-09
1.35862e-09
5.88109e-10
9.91354e-10
1.38415e-10
2.95261e-16
-3.83926e-12
-4.10624e-18
-3.43271e-18
-4.09833e-18
-1.92226e-18
-4.17287e-18
-1.01312e-18
-4.21916e-18
-6.92036e-19
-4.18759e-18
-6.63822e-19
-4.06893e-18
-7.72107e-19
-3.86916e-18
-9.37921e-19
-3.59829e-18
-1.11986e-18
-3.26718e-18
-1.29556e-18
-2.88682e-18
-1.4514e-18
-2.46829e-18
-1.57894e-18
-2.02277e-18
-1.67306e-18
-1.56135e-18
-1.73107e-18
-1.09484e-18
-1.75218e-18
-6.33481e-19
-1.7372e-18
-1.86676e-19
-1.68824e-18
2.37204e-19
-1.60844e-18
6.30996e-19
-1.50175e-18
9.88833e-19
-1.3726e-18
1.30618e-18
-1.22567e-18
1.57984e-18
-1.0657e-18
1.80784e-18
-8.97203e-19
1.98939e-18
-7.24407e-19
2.12471e-18
-5.51088e-19
2.21488e-18
-3.80522e-19
2.2617e-18
-2.15451e-19
2.26753e-18
-5.80869e-20
2.23511e-18
8.98672e-20
2.16747e-18
2.27168e-19
2.06779e-18
3.52977e-19
1.93934e-18
4.66798e-19
1.78537e-18
5.68409e-19
1.60908e-18
6.57802e-19
1.4136e-18
7.35121e-19
1.20194e-18
8.00607e-19
9.77007e-19
8.54552e-19
7.41602e-19
8.97258e-19
4.98429e-19
9.29009e-19
2.50116e-19
9.50037e-19
9.60513e-19
-1.20539e-09
2.08704e-09
-1.86111e-09
1.95894e-09
-1.75417e-09
1.86766e-09
-1.79564e-09
2.15819e-09
-1.78497e-09
2.00108e-09
-1.73006e-09
1.70052e-09
-2.2625e-09
1.56854e-09
-2.5291e-09
1.22184e-09
-2.80087e-09
1.02686e-09
-2.81906e-09
1.36012e-10
-2.99589e-09
2.98243e-10
-3.12858e-09
8.27065e-11
-3.1555e-09
-1.10405e-10
-3.15875e-09
-2.26379e-10
-3.18102e-09
-2.68351e-10
-3.19289e-09
-3.3011e-10
-3.11983e-09
-5.08544e-10
-2.95455e-09
-7.68456e-10
-2.8281e-09
-7.05126e-10
-2.67498e-09
-9.06569e-10
-2.62855e-09
-1.30441e-09
-2.34438e-09
-1.24593e-09
-2.01911e-09
-1.29086e-09
-1.74888e-09
-1.85584e-09
-1.21033e-09
-1.78593e-09
-9.33344e-10
-1.80632e-09
-6.55621e-10
-1.73725e-09
-2.13055e-10
-1.8407e-09
1.09115e-10
-1.84804e-09
4.63391e-10
-1.71623e-09
6.56916e-10
-1.66995e-09
7.26208e-10
-1.62416e-09
1.10672e-09
-1.71046e-09
1.58384e-09
-1.55573e-09
1.69481e-09
-1.37599e-09
1.83708e-09
-1.14386e-09
1.94353e-09
-8.45526e-10
1.94314e-09
-4.97568e-10
1.96203e-09
-2.93556e-10
2.03769e-09
-2.92704e-10
2.15337e-09
-3.28645e-10
2.19305e-09
-2.30936e-10
2.21081e-09
-1.85866e-10
2.33176e-09
-1.23982e-10
2.42539e-09
1.15101e-10
2.59758e-09
-4.88392e-12
2.65977e-09
1.2277e-10
2.73726e-09
1.38326e-11
2.79401e-09
-1.05172e-10
2.87377e-09
-1.34485e-10
2.96532e-09
-2.15685e-10
3.0231e-09
-3.05546e-10
3.0287e-09
-3.08577e-10
3.02819e-09
-3.28305e-10
3.04513e-09
-2.7196e-10
3.06563e-09
-2.35563e-10
3.05041e-09
-2.36212e-10
3.02576e-09
-1.97609e-10
2.99172e-09
-1.98275e-10
2.98791e-09
-1.648e-10
2.9616e-09
-7.95181e-11
2.93599e-09
-6.03905e-11
2.93094e-09
-4.25144e-11
2.90491e-09
1.31976e-10
2.83956e-09
2.63385e-10
2.75655e-09
2.86557e-10
2.7318e-09
5.32187e-10
2.59519e-09
6.6654e-10
2.5477e-09
8.38809e-10
2.49895e-09
1.08453e-09
2.30535e-09
1.34067e-09
2.25882e-09
1.59097e-09
2.1388e-09
1.86473e-09
2.01537e-09
2.04209e-09
1.9014e-09
2.05054e-09
1.76062e-09
1.926e-09
1.56046e-09
1.76201e-09
1.16126e-09
9.87305e-10
7.52492e-10
5.47186e-10
3.18566e-16
7.48652e-10
-2.12878e-18
-4.67364e-18
-3.18872e-18
-8.62846e-19
-3.85127e-18
-3.5201e-19
-4.19044e-18
-3.54364e-19
-4.29538e-18
-5.60495e-19
-4.2343e-18
-8.34871e-19
-4.0511e-18
-1.12287e-18
-3.77399e-18
-1.39879e-18
-3.42302e-18
-1.64841e-18
-3.01436e-18
-1.86201e-18
-2.56242e-18
-2.03291e-18
-2.08078e-18
-2.1568e-18
-1.58246e-18
-2.23154e-18
-1.07986e-18
-2.25697e-18
-5.84515e-19
-2.23471e-18
-1.06882e-19
-2.16794e-18
3.43897e-19
-2.06114e-18
7.60148e-19
-1.91972e-18
1.13575e-18
-1.7497e-18
1.46616e-18
-1.55736e-18
1.74833e-18
-1.34898e-18
1.98064e-18
-1.1305e-18
2.16271e-18
-9.07422e-19
2.29527e-18
-6.84597e-19
2.37995e-18
-4.66188e-19
2.41907e-18
-2.55629e-19
2.41548e-18
-5.56406e-20
2.37241e-18
1.31725e-19
2.29328e-18
3.05016e-19
2.18162e-18
4.63301e-19
2.04095e-18
6.06077e-19
1.87476e-18
7.33187e-19
1.6864e-18
8.44732e-19
1.47909e-18
9.40992e-19
1.25588e-18
1.02236e-18
1.01971e-18
1.08927e-18
7.73352e-19
1.14216e-18
5.19457e-19
1.18145e-18
2.60593e-19
1.20745e-18
1.22039e-18
5.68686e-10
1.51835e-09
-2.17787e-11
2.54941e-09
-9.7024e-10
2.81612e-09
-1.4728e-09
2.66076e-09
-1.94043e-09
2.46871e-09
-2.14436e-09
1.90445e-09
-2.21698e-09
1.64116e-09
-2.32231e-09
1.32717e-09
-2.51328e-09
1.21784e-09
-2.73139e-09
3.54115e-10
-2.90424e-09
4.71097e-10
-3.01582e-09
1.94292e-10
-3.04818e-09
-7.80473e-11
-3.10529e-09
-1.69268e-10
-3.06905e-09
-3.0459e-10
-3.01521e-09
-3.83954e-10
-2.99545e-09
-5.28305e-10
-2.8852e-09
-8.78708e-10
-2.72507e-09
-8.65257e-10
-2.51884e-09
-1.11279e-09
-2.49084e-09
-1.33241e-09
-2.04247e-09
-1.69429e-09
-1.69368e-09
-1.63965e-09
-1.66146e-09
-1.88806e-09
-1.37791e-09
-2.06948e-09
-1.04972e-09
-2.13452e-09
-6.17743e-10
-2.16922e-09
-2.4671e-10
-2.21174e-09
8.15167e-12
-2.1029e-09
1.43861e-10
-1.85194e-09
3.14197e-10
-1.84029e-09
5.26011e-10
-1.83597e-09
7.47762e-10
-1.93221e-09
1.06109e-09
-1.86906e-09
1.24896e-09
-1.56386e-09
1.39582e-09
-1.29073e-09
1.52032e-09
-9.70029e-10
1.51212e-09
-4.89366e-10
1.58056e-09
-3.62003e-10
1.70129e-09
-4.13438e-10
1.72554e-09
-3.52894e-10
1.77814e-09
-2.83536e-10
1.82426e-09
-2.31992e-10
1.90768e-09
-2.07399e-10
2.01284e-09
9.93437e-12
2.13905e-09
-1.31096e-10
2.24322e-09
1.85926e-11
2.44475e-09
-1.87697e-10
2.49918e-09
-1.59601e-10
2.55196e-09
-1.87275e-10
2.62261e-09
-2.86334e-10
2.64646e-09
-3.29399e-10
2.65272e-09
-3.14839e-10
2.63902e-09
-3.1461e-10
2.64092e-09
-2.73863e-10
2.64182e-09
-2.36468e-10
2.66633e-09
-2.60723e-10
2.655e-09
-1.8628e-10
2.59602e-09
-1.393e-10
2.59173e-09
-1.60512e-10
2.58472e-09
-7.25106e-11
2.51893e-09
5.40298e-12
2.45117e-09
2.52444e-11
2.49699e-09
8.61584e-11
2.47726e-09
2.83114e-10
2.42298e-09
3.40832e-10
2.41196e-09
5.43208e-10
2.34604e-09
7.32455e-10
2.23509e-09
9.49756e-10
2.0962e-09
1.22343e-09
1.95945e-09
1.47743e-09
1.85678e-09
1.69364e-09
1.79767e-09
1.92383e-09
1.77656e-09
2.0632e-09
1.7646e-09
2.06249e-09
1.69713e-09
1.99347e-09
1.64622e-09
1.81292e-09
1.52053e-09
1.113e-09
1.2178e-09
8.49909e-10
7.56097e-11
1.89084e-09
5.90418e-18
7.56093e-11
-2.67734e-18
7.71663e-18
-3.85307e-18
8.22043e-19
-4.39604e-18
1.86904e-19
-4.56926e-18
-3.89082e-19
-4.52189e-18
-8.84133e-19
-4.32701e-18
-1.31972e-18
-4.02361e-18
-1.70424e-18
-3.63663e-18
-2.03755e-18
-3.18525e-18
-2.31565e-18
-2.68631e-18
-2.53423e-18
-2.15552e-18
-2.69006e-18
-1.60789e-18
-2.78173e-18
-1.0576e-18
-2.80986e-18
-5.1775e-19
-2.77716e-18
-8.05268e-23
-2.68815e-18
4.85319e-19
-2.54894e-18
9.30171e-19
-2.36677e-18
1.32809e-18
-2.14956e-18
1.67455e-18
-1.90552e-18
1.96681e-18
-1.6427e-18
2.20372e-18
-1.36869e-18
2.38554e-18
-1.0904e-18
2.51368e-18
-8.13849e-19
2.59051e-18
-5.4411e-19
2.61905e-18
-2.853e-19
2.60285e-18
-4.0604e-20
2.5457e-18
1.87648e-19
2.45156e-18
3.97877e-19
2.32439e-18
5.89148e-19
2.16807e-18
7.61045e-19
1.98631e-18
9.13558e-19
1.78266e-18
1.04698e-18
1.56045e-18
1.16179e-18
1.3228e-18
1.25859e-18
1.07261e-18
1.33803e-18
8.12637e-19
1.40071e-18
5.45456e-19
1.4472e-18
2.73539e-19
1.47794e-18
1.49324e-18
-4.53841e-10
1.97219e-09
-5.03801e-10
2.59937e-09
-5.802e-10
2.89252e-09
-9.08953e-10
2.98951e-09
-1.22351e-09
2.78327e-09
-1.46417e-09
2.1451e-09
-1.68633e-09
1.86332e-09
-1.95377e-09
1.59461e-09
-2.14993e-09
1.41399e-09
-2.60385e-09
8.08042e-10
-2.62798e-09
4.9522e-10
-2.72138e-09
2.87697e-10
-2.85644e-09
5.70095e-11
-2.95193e-09
-7.37795e-11
-2.80188e-09
-4.54632e-10
-2.80454e-09
-3.81294e-10
-2.72113e-09
-6.1172e-10
-2.71193e-09
-8.87906e-10
-2.67893e-09
-8.98256e-10
-2.34815e-09
-1.44357e-09
-2.42269e-09
-1.25787e-09
-2.13075e-09
-1.98624e-09
-1.88029e-09
-1.89011e-09
-1.45945e-09
-2.30889e-09
-1.06596e-09
-2.46298e-09
-7.08965e-10
-2.49152e-09
-3.90195e-10
-2.48799e-09
-1.8422e-10
-2.41771e-09
-5.3345e-11
-2.23378e-09
1.59017e-10
-2.0643e-09
4.00238e-10
-2.08151e-09
6.06928e-10
-2.04266e-09
7.68161e-10
-2.09345e-09
8.65351e-10
-1.96625e-09
9.8847e-10
-1.68698e-09
1.06132e-09
-1.36357e-09
1.12456e-09
-1.03327e-09
1.19025e-09
-5.5506e-10
1.28441e-09
-4.56168e-10
1.37524e-09
-5.04272e-10
1.46636e-09
-4.44018e-10
1.51568e-09
-3.32852e-10
1.57509e-09
-2.91403e-10
1.64602e-09
-2.78336e-10
1.79491e-09
-1.38955e-10
1.91914e-09
-2.55331e-10
2.00924e-09
-7.15066e-11
2.07519e-09
-2.53652e-10
2.127e-09
-2.11414e-10
2.19934e-09
-2.59616e-10
2.24167e-09
-3.28669e-10
2.24941e-09
-3.37144e-10
2.26683e-09
-3.32256e-10
2.27376e-09
-3.21545e-10
2.29079e-09
-2.90902e-10
2.30108e-09
-2.4676e-10
2.32837e-09
-2.88009e-10
2.34688e-09
-2.04791e-10
2.31406e-09
-1.06487e-10
2.30837e-09
-1.54824e-10
2.27732e-09
-4.14537e-11
2.18433e-09
9.83832e-11
2.11635e-09
9.32271e-11
2.08535e-09
1.17161e-10
2.03805e-09
3.3041e-10
1.96288e-09
4.15999e-10
1.85964e-09
6.46443e-10
1.82459e-09
7.67507e-10
1.78366e-09
9.90688e-10
1.80179e-09
1.20529e-09
1.80719e-09
1.47202e-09
1.75878e-09
1.74206e-09
1.71751e-09
1.96511e-09
1.73024e-09
2.05047e-09
1.68887e-09
2.10386e-09
1.58626e-09
2.09607e-09
1.4268e-09
1.97238e-09
8.96799e-10
1.643e-09
1.7181e-10
1.5749e-09
1.34664e-10
1.92799e-09
3.3042e-16
2.10273e-10
-2.7744e-18
9.12688e-18
-4.48757e-18
2.53435e-18
-4.97146e-18
6.69204e-19
-5.06381e-18
-2.98503e-19
-4.95709e-18
-9.92746e-19
-4.71153e-18
-1.56728e-18
-4.35692e-18
-2.061e-18
-3.91473e-18
-2.48202e-18
-3.40383e-18
-2.829e-18
-2.84214e-18
-3.0985e-18
-2.24719e-18
-3.28772e-18
-1.63603e-18
-3.39571e-18
-1.02489e-18
-3.42392e-18
-4.28745e-19
-3.37627e-18
1.39128e-19
-3.25898e-18
6.67494e-19
-3.08017e-18
1.14738e-18
-2.84934e-18
1.57213e-18
-2.57676e-18
1.93737e-18
-2.27292e-18
2.24081e-18
-1.94801e-18
2.48201e-18
-1.61153e-18
2.66209e-18
-1.27193e-18
2.78342e-18
-9.36494e-19
2.84932e-18
-6.11249e-19
2.86375e-18
-3.00951e-19
2.8311e-18
-9.17392e-21
2.75593e-18
2.61571e-19
2.64283e-18
5.09698e-19
2.49629e-18
7.34384e-19
2.32058e-18
9.3542e-19
2.11973e-18
1.11305e-18
1.89747e-18
1.26786e-18
1.65725e-18
1.40063e-18
1.40223e-18
1.51223e-18
1.1353e-18
1.60357e-18
8.59127e-19
1.6755e-18
5.76195e-19
1.72875e-18
2.88837e-19
1.76392e-18
1.78141e-18
-7.5003e-10
2.72223e-09
-1.23272e-09
3.08206e-09
-1.5041e-09
3.16391e-09
-1.18502e-09
2.67043e-09
-1.13491e-09
2.73316e-09
-1.32384e-09
2.33404e-09
-1.47022e-09
2.0097e-09
-1.63794e-09
1.76233e-09
-1.59146e-09
1.36752e-09
-1.77075e-09
9.87331e-10
-2.18548e-09
9.09951e-10
-2.38928e-09
4.91496e-10
-2.4961e-09
1.63838e-10
-2.35058e-09
-2.19302e-10
-2.387e-09
-4.18211e-10
-2.51351e-09
-2.54789e-10
-2.45675e-09
-6.68478e-10
-2.43215e-09
-9.12501e-10
-2.53342e-09
-7.96988e-10
-2.20559e-09
-1.7714e-09
-2.22438e-09
-1.23908e-09
-1.88716e-09
-2.32346e-09
-1.6005e-09
-2.17677e-09
-1.23638e-09
-2.67301e-09
-9.55777e-10
-2.74358e-09
-5.39692e-10
-2.9076e-09
-2.73689e-10
-2.75399e-09
-3.36514e-11
-2.65775e-09
1.76358e-10
-2.44379e-09
1.99619e-10
-2.08756e-09
2.28712e-10
-2.11061e-09
3.55825e-10
-2.16978e-09
5.15044e-10
-2.25267e-09
7.26513e-10
-2.17772e-09
8.49373e-10
-1.80984e-09
7.80308e-10
-1.29451e-09
8.04141e-10
-1.05711e-09
9.32133e-10
-6.83054e-10
1.05453e-09
-5.78564e-10
1.14713e-09
-5.9688e-10
1.20268e-09
-4.99567e-10
1.25736e-09
-3.8754e-10
1.33325e-09
-3.67288e-10
1.36278e-09
-3.07875e-10
1.45156e-09
-2.27731e-10
1.48237e-09
-2.86143e-10
1.65194e-09
-2.41085e-10
1.63353e-09
-2.35243e-10
1.74403e-09
-3.21915e-10
1.81406e-09
-3.29649e-10
1.85013e-09
-3.64746e-10
1.88304e-09
-3.70049e-10
1.91742e-09
-3.66638e-10
1.94237e-09
-3.46501e-10
1.94613e-09
-2.94663e-10
1.96778e-09
-2.68415e-10
1.99723e-09
-3.17462e-10
2.00699e-09
-2.14547e-10
1.99633e-09
-9.58348e-11
1.96176e-09
-1.20257e-10
1.9248e-09
-4.49257e-12
1.86541e-09
1.5777e-10
1.80109e-09
1.57549e-10
1.70335e-09
2.14899e-10
1.66218e-09
3.71577e-10
1.62585e-09
4.5233e-10
1.61333e-09
6.58961e-10
1.51158e-09
8.69254e-10
1.4428e-09
1.05947e-09
1.32204e-09
1.32605e-09
1.2737e-09
1.52036e-09
1.37709e-09
1.63867e-09
1.50304e-09
1.83915e-09
1.61358e-09
1.93993e-09
1.48344e-09
2.234e-09
1.378e-09
2.20151e-09
1.23423e-09
2.11615e-09
7.50289e-10
2.12694e-09
5.55075e-10
1.77011e-09
6.75333e-10
1.80773e-09
2.97641e-16
8.85604e-10
-8.27557e-18
-3.88485e-19
-6.35199e-18
6.09912e-19
-5.93858e-18
2.54278e-19
-5.75755e-18
-4.81168e-19
-5.53127e-18
-1.22075e-18
-5.20525e-18
-1.89516e-18
-4.77794e-18
-2.49033e-18
-4.26171e-18
-3.00046e-18
-3.67333e-18
-3.4198e-18
-3.03136e-18
-3.74307e-18
-2.35518e-18
-3.96666e-18
-1.66424e-18
-4.08959e-18
-9.77239e-19
-4.11399e-18
-3.11456e-19
-4.04524e-18
3.17935e-19
-3.89162e-18
8.98328e-19
-3.66379e-18
1.41996e-18
-3.37409e-18
1.87597e-18
-3.03568e-18
2.26227e-18
-2.66186e-18
2.5773e-18
-2.26537e-18
2.82161e-18
-1.85787e-18
2.99752e-18
-1.44961e-18
3.10867e-18
-1.04921e-18
3.15962e-18
-6.63628e-19
3.15553e-18
-2.98203e-19
3.10184e-18
4.32131e-20
3.00406e-18
3.58077e-19
2.86752e-18
6.44949e-19
2.69732e-18
9.03282e-19
2.49821e-18
1.13322e-18
2.27454e-18
1.33541e-18
2.03024e-18
1.51083e-18
1.76886e-18
1.66067e-18
1.49357e-18
1.78617e-18
1.20723e-18
1.88857e-18
9.12379e-19
1.969e-18
6.1136e-19
2.02843e-18
3.06325e-19
2.06761e-18
2.08708e-18
-3.57643e-10
3.07987e-09
-5.01134e-10
3.22555e-09
-7.46139e-10
3.40892e-09
-1.0753e-09
2.99959e-09
-1.08827e-09
2.74613e-09
-1.12828e-09
2.37404e-09
-1.11852e-09
1.99994e-09
-1.1684e-09
1.8122e-09
-1.48541e-09
1.68453e-09
-1.51392e-09
1.01584e-09
-1.43184e-09
8.27867e-10
-1.58935e-09
6.49009e-10
-1.78762e-09
3.62108e-10
-1.85353e-09
-1.53396e-10
-2.09163e-09
-1.80104e-10
-2.21783e-09
-1.28596e-10
-2.1153e-09
-7.71e-10
-1.98881e-09
-1.039e-09
-2.14608e-09
-6.39711e-10
-1.91073e-09
-2.00675e-09
-1.93288e-09
-1.21693e-09
-1.74753e-09
-2.50881e-09
-1.55907e-09
-2.36523e-09
-1.27292e-09
-2.95915e-09
-8.05741e-10
-3.21077e-09
-3.78073e-10
-3.33527e-09
-2.21741e-11
-3.10989e-09
1.9533e-10
-2.87525e-09
2.11372e-10
-2.45983e-09
2.10096e-10
-2.08629e-09
2.35984e-10
-2.1365e-09
2.92539e-10
-2.22633e-09
2.84925e-10
-2.24505e-09
1.92779e-10
-2.08557e-09
2.55849e-10
-1.87291e-09
4.52743e-10
-1.49141e-09
5.55887e-10
-1.16025e-09
7.52031e-10
-8.792e-10
8.04327e-10
-6.30861e-10
8.82212e-10
-6.74767e-10
9.60742e-10
-5.78099e-10
1.06189e-09
-4.88687e-10
1.08298e-09
-3.88384e-10
1.10138e-09
-3.26282e-10
1.15104e-09
-2.77391e-10
1.19586e-09
-3.30967e-10
1.30549e-09
-3.50714e-10
1.37005e-09
-2.99811e-10
1.43788e-09
-3.89744e-10
1.48106e-09
-3.72828e-10
1.51116e-09
-3.94849e-10
1.52347e-09
-3.82368e-10
1.55464e-09
-3.97808e-10
1.57076e-09
-3.62622e-10
1.57355e-09
-2.9746e-10
1.58794e-09
-2.82806e-10
1.58383e-09
-3.13358e-10
1.57714e-09
-2.07854e-10
1.57991e-09
-9.86104e-11
1.52136e-09
-6.17093e-11
1.48935e-09
2.7517e-11
1.47128e-09
1.75844e-10
1.43138e-09
1.97443e-10
1.30571e-09
3.4057e-10
1.43689e-09
2.40393e-10
1.32398e-09
5.65243e-10
1.35691e-09
6.26025e-10
1.3661e-09
8.60064e-10
1.48755e-09
9.38022e-10
1.53885e-09
1.27475e-09
1.59677e-09
1.46244e-09
1.63295e-09
1.60248e-09
1.69388e-09
1.77822e-09
1.58279e-09
2.05102e-09
1.62953e-09
2.18726e-09
1.63313e-09
2.19792e-09
1.54425e-09
2.20502e-09
1.37351e-09
2.29768e-09
1.15531e-09
1.98831e-09
6.24472e-10
2.33857e-09
1.79162e-16
1.51008e-09
-6.27455e-18
3.04441e-18
-6.70698e-18
1.04162e-18
-6.67345e-18
2.19537e-19
-6.49663e-18
-6.59314e-19
-6.20536e-18
-1.51344e-18
-5.80042e-18
-2.30164e-18
-5.28807e-18
-3.0044e-18
-4.68105e-18
-3.60943e-18
-3.9966e-18
-4.10644e-18
-3.25495e-18
-4.48714e-18
-2.47811e-18
-4.74615e-18
-1.68864e-18
-4.88191e-18
-9.08486e-19
-4.8972e-18
-1.57834e-19
-4.79911e-18
5.4576e-19
-4.59857e-18
1.18804e-18
-4.3095e-18
1.75837e-18
-3.94783e-18
2.24979e-18
-3.53039e-18
2.65876e-18
-3.07391e-18
2.9848e-18
-2.59418e-18
3.22987e-18
-2.1054e-18
3.39792e-18
-1.6198e-18
3.49425e-18
-1.14741e-18
3.52504e-18
-6.96077e-19
3.49694e-18
-2.71606e-19
3.41671e-18
1.22052e-19
3.29093e-18
4.82522e-19
3.12585e-18
8.0872e-19
2.92726e-18
1.10058e-18
2.7004e-18
1.35879e-18
2.44996e-18
1.58456e-18
2.18007e-18
1.77942e-18
1.89436e-18
1.94508e-18
1.59597e-18
2.08326e-18
1.28766e-18
2.1956e-18
9.71805e-19
2.28356e-18
6.50545e-19
2.34839e-18
3.25794e-19
2.39107e-18
2.41225e-18
-4.7904e-10
3.55891e-09
-6.84813e-10
3.43132e-09
-5.41681e-10
3.26578e-09
-6.94285e-10
3.1522e-09
-7.31556e-10
2.78341e-09
-8.14827e-10
2.45731e-09
-9.32781e-10
2.1179e-09
-9.74686e-10
1.85411e-09
-8.08408e-10
1.51825e-09
-9.74452e-10
1.18189e-09
-1.15951e-09
1.01292e-09
-1.13604e-09
6.25546e-10
-1.27742e-09
5.0349e-10
-1.60997e-09
1.79146e-10
-1.79467e-09
4.59908e-12
-1.58747e-09
-3.35798e-10
-1.77928e-09
-5.79183e-10
-1.63592e-09
-1.18236e-09
-1.52412e-09
-7.51507e-10
-1.63663e-09
-1.89425e-09
-1.42882e-09
-1.42474e-09
-1.64973e-09
-2.28789e-09
-1.36023e-09
-2.65474e-09
-1.0607e-09
-3.25868e-09
-8.1598e-10
-3.45548e-09
-5.47484e-10
-3.60377e-09
-1.14941e-10
-3.54244e-09
1.30083e-10
-3.12028e-09
1.98572e-10
-2.52832e-09
1.96442e-10
-2.08416e-09
1.76875e-10
-2.11693e-09
1.77934e-10
-2.22739e-09
1.96262e-10
-2.26338e-09
3.47743e-10
-2.23706e-09
4.09096e-10
-1.93427e-09
4.0154e-10
-1.48385e-09
3.86331e-10
-1.14504e-09
5.68429e-10
-1.0613e-09
7.32129e-10
-7.94563e-10
7.63111e-10
-7.05752e-10
7.21531e-10
-5.36522e-10
7.65367e-10
-5.32524e-10
7.98395e-10
-4.21415e-10
8.40705e-10
-3.68594e-10
8.98107e-10
-3.34796e-10
9.55715e-10
-3.88578e-10
1.03959e-09
-4.34591e-10
1.14467e-09
-4.04899e-10
1.16431e-09
-4.09382e-10
1.17661e-09
-3.85129e-10
1.17843e-09
-3.96673e-10
1.16586e-09
-3.698e-10
1.17071e-09
-4.02662e-10
1.15616e-09
-3.48075e-10
1.16019e-09
-3.01494e-10
1.15183e-09
-2.74444e-10
1.09795e-09
-2.59484e-10
1.07236e-09
-1.82263e-10
1.09888e-09
-1.25133e-10
1.08479e-09
-4.76172e-11
1.06363e-09
4.86693e-11
1.08917e-09
1.50301e-10
1.09734e-09
1.89272e-10
1.13406e-09
3.03849e-10
1.14069e-09
2.3376e-10
9.49143e-10
7.56793e-10
9.96973e-10
5.78194e-10
9.37442e-10
9.19594e-10
9.24183e-10
9.5128e-10
1.02337e-09
1.17556e-09
1.21452e-09
1.27129e-09
1.3145e-09
1.5025e-09
1.44601e-09
1.64671e-09
1.43727e-09
2.05977e-09
1.53585e-09
2.08867e-09
1.44143e-09
2.29234e-09
1.33984e-09
2.30661e-09
1.16838e-09
2.46914e-09
7.52175e-10
2.40451e-09
4.63649e-10
2.62709e-09
6.28631e-17
1.97372e-09
-7.05936e-18
4.71722e-18
-7.52839e-18
1.51009e-18
-7.55172e-18
2.42099e-19
-7.35027e-18
-8.61623e-19
-6.99329e-18
-1.8714e-18
-6.50318e-18
-2.79289e-18
-5.89309e-18
-3.61581e-18
-5.17806e-18
-4.32603e-18
-4.3773e-18
-4.90904e-18
-3.51396e-18
-5.3526e-18
-2.61387e-18
-5.64862e-18
-1.70393e-18
-5.79448e-18
-8.104e-19
-5.7936e-18
4.27071e-20
-5.6553e-18
8.34826e-19
-5.39397e-18
1.54971e-18
-5.02784e-18
2.17581e-18
-4.57748e-18
2.70627e-18
-4.06438e-18
3.13849e-18
-3.50954e-18
3.47357e-18
-2.93242e-18
3.71548e-18
-2.35017e-18
3.87031e-18
-1.77716e-18
3.94558e-18
-1.22486e-18
3.94951e-18
-7.01923e-19
3.8906e-18
-2.14385e-19
3.77718e-18
2.33953e-19
3.61713e-18
6.41162e-19