/*--------------------------------*- C++ -*----------------------------------*\
  =========                 |
  \\      /  F ield         | OpenFOAM: The Open Source CFD Toolbox
   \\    /   O peration     | Website:  https://openfoam.org
    \\  /    A nd           | Version:  6
     \\/     M anipulation  |
\*---------------------------------------------------------------------------*/
FoamFile
{
    version     2.0;
    format      ascii;
    class       volScalarField;
    location    "2250";
    object      Su;
}
// * * * * * * * * * * * * * * * * * * * * * * * * * * * * * * * * * * * * * //

dimensions      [0 0 -1 0 0 0 0];

internalField   nonuniform List<scalar> 
4800
(
0.217387
0.210989
0.204631
0.198422
0.192505
0.187006
0.182033
0.177629
0.173766
0.170383
0.167408
0.164774
0.162414
0.16027
0.158302
0.156481
0.154779
0.153176
0.151651
0.150191
0.148786
0.147423
0.146087
0.144772
0.143472
0.14218
0.140893
0.139609
0.13833
0.137056
0.135789
0.134529
0.133274
0.132022
0.130769
0.129514
0.128255
0.126985
0.125698
0.124394
0.123071
0.121731
0.120373
0.118997
0.117607
0.116203
0.114793
0.113381
0.111973
0.110571
0.109176
0.107792
0.106415
0.105045
0.103678
0.102307
0.100927
0.0995304
0.0981098
0.0966554
0.095155
0.0935941
0.0919541
0.0902126
0.0883434
0.0863168
0.0840981
0.0816464
0.0789154
0.0758547
0.0724118
0.0685427
0.064248
0.0595887
0.0546812
0.049656
0.0446229
0.0396913
0.0349065
0.030247
0.0256518
0.0211269
0.0166996
0.0123855
0.0081885
0.00410572
0.000130719
-0.00374489
-0.00753031
-0.0112349
-0.0148678
-0.0184373
-0.021951
-0.025416
-0.0288381
-0.0322226
-0.0355742
-0.0388969
-0.042194
-0.0454686
-0.0487233
-0.0519603
-0.0551817
-0.0583893
-0.0615846
-0.064769
-0.0679438
-0.0711101
-0.0742689
-0.0774211
-0.0805676
-0.0837091
-0.0868463
-0.0899799
-0.0931103
-0.0962382
-0.0993641
-0.102488
-0.105612
-0.108734
0.217326
0.21083
0.204437
0.198238
0.192384
0.186993
0.182133
0.177807
0.173976
0.170605
0.167633
0.164994
0.162623
0.160468
0.15849
0.156656
0.15494
0.153323
0.151784
0.150308
0.148883
0.147495
0.146131
0.14479
0.143463
0.142151
0.140846
0.139541
0.138239
0.136939
0.135645
0.134357
0.133075
0.1318
0.130527
0.129255
0.127982
0.126699
0.125404
0.124093
0.122766
0.121425
0.120069
0.118697
0.117308
0.115906
0.114496
0.113081
0.11167
0.110265
0.108867
0.107479
0.106097
0.104723
0.103353
0.101978
0.10059
0.0991856
0.0977566
0.0962948
0.0947883
0.0932224
0.0915779
0.0898332
0.0879625
0.0859374
0.083724
0.081285
0.0785769
0.0755523
0.0721701
0.0684052
0.0642568
0.0597648
0.0549941
0.0500358
0.0449973
0.0399883
0.0350996
0.0303456
0.0256821
0.0211215
0.0166764
0.0123542
0.00815413
0.00407095
9.68624e-05
-0.00377719
-0.00756078
-0.0112635
-0.0148944
-0.0184621
-0.0219741
-0.0254374
-0.028858
-0.0322411
-0.0355914
-0.0389128
-0.0422087
-0.0454821
-0.0487358
-0.0519718
-0.0551923
-0.058399
-0.0615934
-0.064777
-0.0679511
-0.0711167
-0.0742748
-0.0774264
-0.0805723
-0.0837132
-0.0868499
-0.0899829
-0.0931128
-0.0962403
-0.0993657
-0.10249
-0.105612
-0.108735
0.217303
0.210758
0.20435
0.19822
0.192473
0.187195
0.182435
0.178174
0.17439
0.171046
0.168076
0.165419
0.163023
0.160846
0.158849
0.156995
0.155257
0.153615
0.152047
0.150541
0.149082
0.147653
0.146247
0.144865
0.143498
0.142138
0.140781
0.139426
0.138075
0.136725
0.135377
0.134036
0.132705
0.131383
0.130071
0.128763
0.127459
0.126152
0.124834
0.123505
0.122166
0.120818
0.119463
0.118095
0.116712
0.115313
0.113904
0.112489
0.111073
0.109664
0.108258
0.106862
0.105472
0.104088
0.102708
0.101324
0.0999277
0.0985137
0.0970745
0.0956017
0.0940821
0.0925033
0.0908496
0.0891015
0.0872328
0.0852159
0.0830187
0.0806039
0.0779364
0.0749732
0.0716871
0.0680594
0.0640796
0.0597613
0.0551503
0.0503179
0.0453604
0.0403611
0.0353814
0.0304849
0.0257119
0.0210945
0.016622
0.0122879
0.008084
0.00400108
2.93187e-05
-0.00384143
-0.00762132
-0.0113202
-0.0149474
-0.0185115
-0.0220201
-0.0254802
-0.0288977
-0.032278
-0.0356256
-0.0389444
-0.042238
-0.0455092
-0.0487607
-0.0519947
-0.0552133
-0.0584182
-0.061611
-0.064793
-0.0679656
-0.0711298
-0.0742866
-0.0774369
-0.0805816
-0.0837214
-0.0868569
-0.0899889
-0.0931179
-0.0962443
-0.0993688
-0.102492
-0.105614
-0.108735
0.217295
0.210772
0.204442
0.198409
0.192774
0.187611
0.182941
0.178746
0.175005
0.171683
0.168712
0.166039
0.163619
0.161416
0.159389
0.157506
0.155741
0.154069
0.152465
0.150919
0.149416
0.147937
0.146481
0.145045
0.143611
0.142179
0.140748
0.139317
0.137883
0.13645
0.13502
0.1336
0.132195
0.130807
0.129433
0.128075
0.126725
0.125379
0.124028
0.122671
0.121308
0.119941
0.118575
0.117205
0.115825
0.114429
0.113022
0.111605
0.110185
0.10877
0.107356
0.105949
0.104549
0.103152
0.101758
0.100362
0.0989541
0.0975288
0.0960772
0.0945921
0.0930616
0.0914732
0.0898127
0.0880625
0.0861967
0.0841909
0.082018
0.0796381
0.077027
0.0741477
0.0709709
0.0674768
0.0636501
0.0594999
0.0550577
0.0503774
0.0455285
0.0405854
0.0355877
0.0305799
0.0256903
0.0210188
0.0165228
0.0121803
0.00797526
0.003895
-7.225e-05
-0.0039376
-0.00771176
-0.0114049
-0.0150265
-0.0185852
-0.0220888
-0.0255441
-0.0289571
-0.0323331
-0.0356767
-0.0389918
-0.0422818
-0.0455496
-0.048798
-0.052029
-0.0552448
-0.058447
-0.0616373
-0.064817
-0.0679873
-0.0711493
-0.0743041
-0.0774526
-0.0805955
-0.0837336
-0.0868675
-0.0899979
-0.0931254
-0.0962504
-0.0993735
-0.102495
-0.105616
-0.108736
0.217313
0.210848
0.204631
0.198755
0.193278
0.18825
0.183667
0.179521
0.175811
0.172503
0.169526
0.16684
0.164405
0.16218
0.160126
0.158211
0.156411
0.154702
0.153057
0.151464
0.149907
0.148369
0.146851
0.145342
0.143829
0.14231
0.140782
0.139247
0.137705
0.13616
0.134616
0.133083
0.131574
0.130098
0.128646
0.127219
0.125813
0.124418
0.123025
0.12163
0.120235
0.118843
0.117452
0.116065
0.114676
0.113274
0.111865
0.110443
0.109017
0.107593
0.106171
0.104753
0.10334
0.101932
0.100527
0.0991177
0.0976968
0.0962592
0.0947957
0.0933
0.0917615
0.0901655
0.0884999
0.086751
0.0848933
0.0829016
0.0807575
0.0784219
0.0758716
0.0730762
0.0700035
0.0666379
0.0629663
0.0589873
0.05472
0.0501974
0.0454625
0.0405621
0.0355499
0.0304998
0.0255571
0.0208663
0.0163665
0.0120259
0.00782575
0.00375191
-0.000208004
-0.00406559
-0.00783191
-0.0115173
-0.0151315
-0.0186832
-0.02218
-0.025629
-0.029036
-0.0324064
-0.0357447
-0.0390548
-0.04234
-0.0456034
-0.0488475
-0.0520746
-0.0552866
-0.0584853
-0.0616722
-0.0648487
-0.068016
-0.0711753
-0.0743274
-0.0774734
-0.0806139
-0.0837497
-0.0868815
-0.0900099
-0.0931354
-0.0962585
-0.0993797
-0.1025
-0.105618
-0.108736
0.217467
0.211234
0.205129
0.199328
0.193938
0.189
0.184509
0.180447
0.176785
0.173498
0.170519
0.167828
0.165381
0.163135
0.161054
0.159108
0.157271
0.155519
0.153824
0.152177
0.150558
0.148955
0.147361
0.145762
0.144148
0.142521
0.140877
0.139217
0.137541
0.135857
0.134175
0.132511
0.130877
0.129285
0.127737
0.126228
0.124753
0.123301
0.121857
0.120415
0.118981
0.117555
0.116135
0.114721
0.113312
0.111892
0.110471
0.109038
0.107603
0.106168
0.104734
0.103303
0.101879
0.100459
0.0990419
0.097621
0.0961892
0.094743
0.093271
0.0917656
0.0902205
0.0886191
0.0869485
0.0852003
0.0833545
0.0813831
0.0792703
0.0769834
0.0744966
0.071783
0.0688156
0.0655757
0.0620515
0.0582367
0.0541366
0.049767
0.0451553
0.0403343
0.0353556
0.0302881
0.0252733
0.0206245
0.0161497
0.0118242
0.00763531
0.00357184
-0.000377838
-0.00422524
-0.00798155
-0.0116573
-0.0152622
-0.0188051
-0.0222936
-0.0257347
-0.0291343
-0.0324977
-0.0358294
-0.0391332
-0.0424126
-0.0456704
-0.0489092
-0.0521313
-0.0553386
-0.0585329
-0.0617156
-0.0648882
-0.0680518
-0.0712075
-0.0743563
-0.0774991
-0.0806367
-0.0837697
-0.0868988
-0.0900246
-0.0931477
-0.0962685
-0.0993874
-0.102505
-0.105622
-0.108738
0.217515
0.211438
0.205558
0.199967
0.194743
0.189933
0.185536
0.18154
0.177924
0.174659
0.171691
0.169001
0.166543
0.164276
0.162172
0.16019
0.158311
0.15651
0.154757
0.15305
0.151356
0.149676
0.147989
0.146293
0.144573
0.142824
0.141045
0.139236
0.137404
0.135562
0.133726
0.131912
0.130133
0.128408
0.126744
0.125136
0.123576
0.122056
0.120551
0.119056
0.117577
0.116111
0.114654
0.113206
0.111766
0.110321
0.108879
0.107427
0.105977
0.104527
0.103079
0.101637
0.100201
0.0987699
0.0973415
0.0959096
0.0944672
0.0930137
0.0915364
0.0900236
0.0884735
0.0868696
0.0851963
0.0834481
0.0816123
0.0796613
0.0775798
0.0753399
0.0729202
0.0702956
0.0674406
0.0643325
0.0609551
0.0572964
0.0533507
0.0491202
0.0446201
0.0398693
0.0349267
0.0298902
0.024141
0.0203025
0.0158841
0.0115801
0.00740567
0.00335526
-0.000581639
-0.00441649
-0.00816063
-0.0118247
-0.0154185
-0.0189508
-0.0224294
-0.0258611
-0.0292519
-0.0326069
-0.0359307
-0.039227
-0.0424993
-0.0457504
-0.0489829
-0.052199
-0.0554007
-0.0585896
-0.0617673
-0.0649352
-0.0680943
-0.0712459
-0.0743907
-0.0775298
-0.0806638
-0.0837935
-0.0869194
-0.0900422
-0.0931623
-0.0962803
-0.0993965
-0.102511
-0.105625
-0.108739
0.217583
0.211655
0.205953
0.200578
0.195563
0.190915
0.18664
0.182736
0.179192
0.175974
0.173028
0.170337
0.167871
0.165593
0.16346
0.161435
0.159514
0.15766
0.155845
0.154073
0.152295
0.150532
0.148743
0.146934
0.145086
0.143197
0.141266
0.139295
0.137294
0.135278
0.133263
0.131276
0.129338
0.127469
0.125678
0.123962
0.122306
0.120705
0.119132
0.117577
0.116045
0.114532
0.113032
0.111543
0.110065
0.108586
0.107116
0.105643
0.104172
0.102707
0.101244
0.0997893
0.0983413
0.0968991
0.0954593
0.0940155
0.092562
0.0911004
0.0896174
0.0880988
0.0865452
0.0849415
0.0832694
0.0815252
0.0797004
0.0777736
0.0757285
0.0735393
0.0711844
0.0686426
0.0658892
0.0629062
0.059675
0.0561717
0.0523792
0.048292
0.0439264
0.039303
0.0344921
0.0296023
0.0247027
0.0200581
0.0156028
0.0113006
0.00713783
0.00310191
-0.000819836
-0.0046397
-0.00836937
-0.0120197
-0.0156005
-0.0191205
-0.0225875
-0.0260082
-0.0293887
-0.0327339
-0.0360484
-0.039336
-0.0426
-0.0458433
-0.0490684
-0.0522775
-0.0554726
-0.0586553
-0.0618271
-0.0649895
-0.0681434
-0.0712901
-0.0744304
-0.0775651
-0.0806951
-0.0838209
-0.0869431
-0.0900624
-0.0931792
-0.0962939
-0.099407
-0.102519
-0.10563
-0.10874
0.21771
0.212026
0.206542
0.201339
0.196471
0.191966
0.187818
0.184014
0.180537
0.177369
0.174467
0.171802
0.169336
0.167041
0.164874
0.162813
0.160855
0.158953
0.157073
0.155234
0.153363
0.151502
0.149595
0.147656
0.145665
0.143621
0.141523
0.139377
0.137192
0.134988
0.132788
0.130619
0.128508
0.126478
0.124547
0.122714
0.120959
0.119269
0.11762
0.115998
0.114407
0.112841
0.111293
0.10976
0.108239
0.106723
0.105219
0.103723
0.10223
0.100746
0.0992684
0.0977985
0.0963357
0.0948803
0.0934279
0.091971
0.0905053
0.0890332
0.0875425
0.0860191
0.0844616
0.0828582
0.0811905
0.0794555
0.0776428
0.0757444
0.0737324
0.0715962
0.0693103
0.0668601
0.0642141
0.061352
0.0582539
0.0548936
0.0512537
0.0473281
0.043122
0.0386608
0.0339951
0.0292097
0.0243965
0.0197275
0.0152668
0.0109741
0.00682722
0.00280948
-0.0010938
-0.00489573
-0.00860837
-0.0122426
-0.0158083
-0.0193142
-0.0227678
-0.026176
-0.0295446
-0.0328786
-0.0361825
-0.03946
-0.0427145
-0.0459488
-0.0491654
-0.0523665
-0.055554
-0.0587297
-0.0618948
-0.0650509
-0.068199
-0.0713401
-0.0744752
-0.077605
-0.0807303
-0.0838517
-0.0869698
-0.0900851
-0.0931981
-0.0963092
-0.0994188
-0.102527
-0.105635
-0.108742
0.21784
0.212408
0.207159
0.202157
0.197452
0.193078
0.18904
0.185329
0.181936
0.178831
0.175965
0.173322
0.170865
0.168562
0.166378
0.164303
0.162309
0.160359
0.158416
0.156502
0.154537
0.152566
0.150534
0.148452
0.146298
0.144075
0.14179
0.139454
0.137078
0.134683
0.132291
0.129935
0.127648
0.12546
0.123387
0.121426
0.119558
0.117766
0.116036
0.114344
0.112687
0.11106
0.10946
0.107879
0.106314
0.104759
0.10322
0.101697
0.100183
0.09868
0.097185
0.095699
0.0942197
0.0927492
0.0912823
0.0898117
0.0883332
0.0868481
0.0853468
0.0838182
0.0822562
0.0806506
0.0789873
0.0772631
0.0754629
0.0735913
0.0716063
0.0695155
0.0672848
0.0649082
0.0623582
0.0596131
0.0566459
0.0534337
0.0499452
0.0461755
0.0421238
0.0378183
0.0332941
0.0286332
0.0239207
0.0192923
0.0148582
0.0105904
0.00646846
0.0024749
-0.0014054
-0.00518582
-0.00887844
-0.0124941
-0.0160425
-0.0195322
-0.0229707
-0.0263646
-0.0297197
-0.033041
-0.0363328
-0.039599
-0.0428426
-0.0460668
-0.0492738
-0.0524658
-0.0556448
-0.0588124
-0.0619701
-0.0651191
-0.0682606
-0.0713955
-0.0745247
-0.0776491
-0.0807692
-0.0838858
-0.0869993
-0.0901102
-0.093219
-0.0963261
-0.0994318
-0.102536
-0.10564
-0.108744
0.217999
0.212846
0.207813
0.202988
0.198437
0.194194
0.190269
0.186655
0.183337
0.180291
0.177479
0.17487
0.17243
0.170137
0.167958
0.165876
0.163838
0.161844
0.159836
0.157839
0.155786
0.153703
0.151545
0.149303
0.146972
0.144559
0.142072
0.139527
0.136947
0.134354
0.131766
0.129219
0.126751
0.124396
0.122174
0.120085
0.118106
0.116212
0.114392
0.112623
0.1109
0.109212
0.107557
0.105927
0.104316
0.102721
0.101146
0.0995935
0.0980574
0.0965359
0.0950247
0.0935231
0.0920281
0.0905416
0.0890596
0.0875754
0.0860844
0.0845855
0.0830713
0.0815335
0.0799636
0.0783513
0.0766874
0.0749675
0.0731816
0.0713335
0.0693812
0.0673339
0.0651621
0.0628487
0.0603805
0.0577385
0.0548907
0.0518173
0.0484739
0.044859
0.0409654
0.0368205
0.0324574
0.0279386
0.0233319
0.0187613
0.0143736
0.0101452
0.00605802
0.00209571
-0.00175637
-0.0055112
-0.00918051
-0.0127748
-0.0163035
-0.0197749
-0.0231963
-0.0265741
-0.029914
-0.033221
-0.0364993
-0.0397526
-0.0429842
-0.0461969
-0.0493931
-0.0525751
-0.0557446
-0.0589033
-0.0620526
-0.0651938
-0.068328
-0.071456
-0.0745789
-0.0776972
-0.0808117
-0.0839229
-0.0870314
-0.0901375
-0.0932418
-0.0963444
-0.0994459
-0.102546
-0.105646
-0.108746
0.218116
0.213196
0.208385
0.203761
0.199386
0.195294
0.191498
0.187994
0.184767
0.181788
0.179021
0.176445
0.174032
0.171759
0.169587
0.167491
0.16541
0.16337
0.161299
0.159218
0.157074
0.154866
0.152564
0.150161
0.147655
0.145048
0.142354
0.139596
0.136805
0.134009
0.131228
0.128492
0.125841
0.123311
0.12093
0.1187
0.116606
0.114616
0.112707
0.110858
0.109063
0.107312
0.105601
0.10392
0.102263
0.10063
0.0990213
0.0974402
0.0958817
0.0943427
0.0928172
0.0913019
0.0897936
0.0882919
0.0867957
0.0852987
0.0837952
0.0822824
0.0807554
0.0792077
0.0776303
0.0760117
0.074344
0.07262
0.0708357
0.0689856
0.0670479
0.0650222
0.0629006
0.0606461
0.0582445
0.0556934
0.0529627
0.0500298
0.0468419
0.0433943
0.0396743
0.0357003
0.0315023
0.0271269
0.0226361
0.0181405
0.0138143
0.00963754
0.00559457
0.0016706
-0.00214785
-0.00587285
-0.00951541
-0.0130854
-0.0165919
-0.0200426
-0.0234448
-0.0268046
-0.0301276
-0.0334185
-0.0366817
-0.0399207
-0.0431388
-0.0463388
-0.0495231
-0.0526939
-0.0558529
-0.0590018
-0.062142
-0.0652746
-0.0684008
-0.0715214
-0.0746372
-0.077749
-0.0808574
-0.0839629
-0.0870659
-0.0901669
-0.0932662
-0.0963641
-0.099461
-0.102557
-0.105653
-0.108748
0.218229
0.213532
0.208937
0.204517
0.200322
0.196388
0.192725
0.189329
0.186184
0.183273
0.180566
0.178037
0.175657
0.173396
0.171219
0.169101
0.166989
0.164908
0.162783
0.16062
0.158375
0.156037
0.153594
0.151031
0.148341
0.145533
0.142626
0.139652
0.136652
0.13366
0.130694
0.127773
0.124938
0.122229
0.119683
0.117308
0.11509
0.113001
0.110999
0.109065
0.107191
0.105374
0.103607
0.101877
0.100178
0.0985075
0.0968672
0.0952591
0.0936792
0.0921235
0.0905847
0.0890581
0.0875399
0.0860266
0.0845182
0.0830094
0.0814952
0.0799709
0.078431
0.0768691
0.075279
0.0736521
0.0719819
0.0702612
0.068486
0.0666463
0.0647272
0.0627148
0.0606128
0.0583964
0.0560504
0.053571
0.0509329
0.0481211
0.0450869
0.0418093
0.038265
0.0344608
0.0304311
0.0262132
0.0218501
0.0174378
0.0131842
0.00906933
0.00507874
0.0011995
-0.00258026
-0.00627133
-0.00988372
-0.0134265
-0.0169081
-0.0203358
-0.0237166
-0.0270563
-0.0303603
-0.0336335
-0.0368798
-0.040103
-0.0433062
-0.0464922
-0.0496634
-0.0528218
-0.0559694
-0.0591075
-0.0622377
-0.065361
-0.0684785
-0.0715911
-0.0746994
-0.0778042
-0.080906
-0.0840053
-0.0871025
-0.090198
-0.0932921
-0.096385
-0.0994771
-0.102569
-0.105659
-0.10875
0.218344
0.213875
0.209492
0.205262
0.201244
0.197466
0.193937
0.190653
0.187603
0.184769
0.182124
0.17964
0.177289
0.175039
0.172858
0.170723
0.168586
0.166457
0.164275
0.162025
0.159675
0.157217
0.154633
0.151904
0.149027
0.146015
0.142893
0.139706
0.136505
0.133325
0.130179
0.127075
0.124053
0.121166
0.118448
0.115913
0.113558
0.111362
0.10927
0.107255
0.105304
0.103417
0.101591
0.0998122
0.0980733
0.0963702
0.0947015
0.0930684
0.091468
0.0898961
0.0883435
0.0868055
0.0852779
0.0837567
0.0822394
0.0807208
0.0791969
0.0776644
0.0761158
0.0745438
0.0729427
0.0713068
0.0696299
0.0679045
0.0661243
0.0642824
0.0623707
0.0603769
0.058305
0.0561259
0.0538229
0.0513987
0.0488357
0.0461171
0.043207
0.0400754
0.0366958
0.0330693
0.0292232
0.0251834
0.0209705
0.0166585
0.0124889
0.00844426
0.00451266
0.000683456
-0.00305327
-0.00670676
-0.0102858
-0.0137985
-0.0172525
-0.0206548
-0.0240117
-0.0273292
-0.0306123
-0.0338656
-0.0370934
-0.0402991
-0.0434858
-0.0466565
-0.0498133
-0.0529583
-0.0560933
-0.0592199
-0.0623393
-0.0654526
-0.0685608
-0.0716647
-0.0747651
-0.0778624
-0.0809572
-0.0840499
-0.087141
-0.0902307
-0.0933193
-0.0964069
-0.0994939
-0.10258
-0.105667
-0.108753
0.218451
0.214194
0.210018
0.205982
0.202139
0.198516
0.195123
0.191956
0.189004
0.186249
0.183665
0.181226
0.178905
0.176671
0.174492
0.172343
0.170183
0.168004
0.16576
0.163425
0.160976
0.158401
0.155673
0.152779
0.149716
0.146502
0.143166
0.139771
0.136381
0.133028
0.129706
0.126422
0.123212
0.120131
0.117224
0.114515
0.112006
0.109692
0.107512
0.105423
0.103401
0.101447
0.0995614
0.0977341
0.0959592
0.0942281
0.0925359
0.0908818
0.0892629
0.0876751
0.0861093
0.084559
0.0830199
0.0814886
0.0799614
0.0784325
0.0768993
0.0753592
0.0738043
0.0722257
0.0706166
0.068973
0.0672914
0.065564
0.0637835
0.0619435
0.0600383
0.0580573
0.0560018
0.0538558
0.051601
0.0492313
0.0467367
0.0441025
0.0413049
0.0383119
0.0350895
0.0316276
0.0279455
0.0240713
0.0200134
0.0158139
0.0117364
0.00776775
0.00389974
0.000124386
-0.00356597
-0.00717883
-0.0107216
-0.0142015
-0.0176253
-0.0209996
-0.0243304
-0.0276232
-0.0308831
-0.0341147
-0.0373219
-0.0405084
-0.0436772
-0.046831
-0.0499722
-0.0531027
-0.0562242
-0.0593383
-0.0624461
-0.0655487
-0.068647
-0.0717418
-0.0748336
-0.0779231
-0.0810105
-0.0840964
-0.0871811
-0.0902647
-0.0933475
-0.0964297
-0.0995114
-0.102593
-0.105674
-0.108755
0.218552
0.214499
0.210523
0.206677
0.203008
0.199542
0.196284
0.193233
0.190378
0.187704
0.18519
0.182808
0.180521
0.178301
0.176121
0.173957
0.17177
0.169542
0.167235
0.164819
0.162278
0.159591
0.156727
0.153674
0.150432
0.147026
0.143496
0.139909
0.136335
0.132806
0.129313
0.125844
0.122431
0.119143
0.116037
0.113145
0.11048
0.108035
0.105756
0.103583
0.101492
0.0994774
0.0975377
0.0956628
0.0938485
0.0920878
0.0903749
0.0887031
0.0870677
0.0854649
0.0838871
0.0823261
0.080777
0.0792359
0.0776986
0.0761588
0.0746156
0.0730664
0.0715045
0.0699212
0.0683068
0.0666582
0.0649728
0.0632459
0.0614681
0.0596337
0.0577364
0.055772
0.0537359
0.0516199
0.0494104
0.0470942
0.0446592
0.0420958
0.0393898
0.0365141
0.0334385
0.0301378
0.0266159
0.0229033
0.0190002
0.0149188
0.0109366
0.00704653
0.00324421
-0.000475235
-0.00411707
-0.00768703
-0.0111912
-0.0146357
-0.0180268
-0.0213704
-0.0246724
-0.0279382
-0.0311726
-0.0343802
-0.037565
-0.0407304
-0.0438796
-0.0470151
-0.0501393
-0.0532542
-0.0563612
-0.059462
-0.0625575
-0.0656487
-0.0687366
-0.0718217
-0.0749046
-0.0779858
-0.0810656
-0.0841444
-0.0872223
-0.0902997
-0.0933766
-0.0964531
-0.0995294
-0.102606
-0.105682
-0.108758
0.218652
0.214798
0.21102
0.207364
0.203869
0.200555
0.197432
0.194499
0.191746
0.189159
0.186712
0.184374
0.182117
0.179914
0.177738
0.175559
0.173343
0.171067
0.168699
0.166212
0.163585
0.160791
0.157803
0.154607
0.151202
0.147622
0.143912
0.140141
0.13638
0.132664
0.128987
0.125328
0.121709
0.118201
0.114883
0.111796
0.108958
0.106366
0.103981
0.101731
0.0995757
0.0975041
0.0955145
0.0935991
0.0917531
0.0899666
0.0882336
0.0865464
0.0848989
0.083283
0.081693
0.0801204
0.0785608
0.0770088
0.0754608
0.0739102
0.0723575
0.0707991
0.0692295
0.067642
0.0660232
0.064372
0.0626831
0.0609575
0.0591846
0.0573592
0.0554726
0.0535259
0.0515113
0.0494233
0.0472556
0.0449956
0.0426264
0.040139
0.0375261
0.0347624
0.0318131
0.028653
0.0252806
0.0217157
0.0179551
0.0139897
0.010101
0.00628792
0.0025506
-0.00111279
-0.00470526
-0.00823085
-0.0116944
-0.0151012
-0.0184569
-0.0217672
-0.0250378
-0.0282738
-0.0314802
-0.0346615
-0.0378217
-0.0409642
-0.044092
-0.0472078
-0.0503138
-0.0534119
-0.0565035
-0.05959
-0.0626725
-0.0657519
-0.0688288
-0.0719038
-0.0749775
-0.0780501
-0.081122
-0.0841934
-0.0872645
-0.0903354
-0.0934062
-0.0964769
-0.0995477
-0.102618
-0.105689
-0.10876
0.218751
0.215094
0.21151
0.20804
0.204715
0.201555
0.198568
0.195754
0.193103
0.190597
0.188215
0.185926
0.183705
0.181519
0.179345
0.17715
0.174906
0.172586
0.170165
0.167614
0.164907
0.162015
0.158912
0.155585
0.152035
0.148293
0.144408
0.140452
0.136499
0.132584
0.128711
0.12486
0.121031
0.117305
0.113774
0.110486
0.107466
0.10472
0.102215
0.0998822
0.0976672
0.0955482
0.0935164
0.0915628
0.0896839
0.087873
0.0861213
0.0844188
0.0827584
0.0811307
0.0795288
0.0779455
0.0763753
0.0748124
0.0732531
0.0716929
0.0701313
0.0685646
0.0669877
0.0653958
0.0637746
0.062123
0.0604324
0.0587082
0.056942
0.0551284
0.0532568
0.0513283
0.0493378
0.0472802
0.0451507
0.0429428
0.0406393
0.0382245
0.0356878
0.033018
0.0301927
0.0271753
0.0239506
0.0205297
0.0169021
0.0130439
0.0092412
0.00549934
0.00182326
-0.001786
-0.00532953
-0.00881002
-0.0122313
-0.0155981
-0.0189158
-0.0221899
-0.0254261
-0.0286295
-0.0318052
-0.0349578
-0.038091
-0.0412086
-0.0443134
-0.047408
-0.0504945
-0.0535747
-0.05665
-0.0597216
-0.0627904
-0.0658573
-0.0689228
-0.0719874
-0.0750515
-0.0781154
-0.0811792
-0.0842431
-0.0873071
-0.0903715
-0.0934361
-0.096501
-0.0995662
-0.102632
-0.105697
-0.108763
0.218849
0.215391
0.212001
0.208715
0.20556
0.202551
0.199698
0.197001
0.194448
0.192022
0.189704
0.187464
0.18528
0.183109
0.180937
0.17873
0.176463
0.17411
0.171645
0.169034
0.166247
0.163259
0.160049
0.156602
0.15292
0.149029
0.144979
0.140842
0.136694
0.132571
0.128488
0.124432
0.120408
0.116486
0.112755
0.109273
0.106069
0.103155
0.100508
0.0980681
0.0957775
0.0936051
0.0915337
0.0895491
0.0876445
0.0858121
0.0840415
0.0823242
0.0806502
0.0790104
0.0773971
0.0758033
0.074222
0.0726483
0.0710781
0.0695092
0.0679403
0.0663672
0.064785
0.0631889
0.0615679
0.0599184
0.0582302
0.0565088
0.0547507
0.0529499
0.051098
0.0491905
0.0472243
0.0451981
0.0431083
0.0409483
0.038708
0.0363691
0.0339177
0.0313405
0.0286159
0.0257196
0.0226343
0.0193562
0.0158584
0.0120976
0.00836924
0.00468773
0.00106568
-0.00249341
-0.00598963
-0.00942488
-0.0128025
-0.016127
-0.0194037
-0.0226384
-0.0258368
-0.0290046
-0.0321466
-0.0352677
-0.0383718
-0.0414624
-0.0445424
-0.0476143
-0.0506801
-0.0537413
-0.0567994
-0.0598554
-0.0629101
-0.0659641
-0.0690179
-0.0720718
-0.0751261
-0.078181
-0.0812365
-0.0842928
-0.0873499
-0.0904076
-0.0934661
-0.0965251
-0.0995846
-0.102645
-0.105705
-0.108765
0.21895
0.215692
0.212494
0.209387
0.206396
0.203534
0.200812
0.198228
0.195771
0.193429
0.19118
0.18899
0.186845
0.184692
0.182523
0.180307
0.178018
0.175629
0.173114
0.17044
0.167585
0.164518
0.161214
0.157659
0.153855
0.149821
0.145612
0.141304
0.136965
0.132635
0.12836
0.124137
0.119942
0.11582
0.111868
0.108168
0.104761
0.101665
0.0988656
0.0963079
0.0939333
0.0917038
0.0895912
0.0875721
0.0856411
0.0837861
0.081997
0.0802637
0.0785758
0.0769233
0.075298
0.073693
0.0721004
0.0705159
0.0689364
0.0673605
0.0657868
0.0642108
0.0626269
0.0610299
0.0594123
0.0577678
0.0560874
0.0543723
0.0526245
0.0508374
0.0490058
0.0471224
0.0451823
0.0431855
0.0411343
0.0390179
0.0368338
0.0345618
0.0321837
0.0296924
0.0270675
0.0242829
0.0213163
0.0181679
0.0148115
0.0111578
0.00749334
0.00385738
0.000279363
-0.00323519
-0.00668659
-0.0100768
-0.0134091
-0.0166885
-0.0199209
-0.0231124
-0.0262695
-0.0293979
-0.0325031
-0.0355899
-0.0386624
-0.0417239
-0.0447773
-0.0478251
-0.0508689
-0.0539104
-0.0569506
-0.0599904
-0.0630304
-0.0660712
-0.069113
-0.072156
-0.0752004
-0.0782463
-0.0812936
-0.0843423
-0.0873922
-0.0904434
-0.0934957
-0.0965489
-0.0996029
-0.102657
-0.105712
-0.108768
0.219049
0.215984
0.212974
0.210045
0.207217
0.204503
0.201912
0.199446
0.197092
0.194831
0.19265
0.190507
0.188401
0.186269
0.184107
0.181886
0.179577
0.177157
0.174597
0.171868
0.16895
0.165804
0.162408
0.158747
0.154816
0.150639
0.146266
0.14176
0.137212
0.132691
0.128248
0.123873
0.11952
0.115228
0.111106
0.107226
0.103628
0.100343
0.0973636
0.0946544
0.0921629
0.0898544
0.0876897
0.0856317
0.0836748
0.0817976
0.0799911
0.0782417
0.0765381
0.0748711
0.0732322
0.0716142
0.0700095
0.0684146
0.0668274
0.0652473
0.0636729
0.0620987
0.0605183
0.058927
0.0573177
0.0556829
0.0540158
0.0523128
0.0505775
0.0488058
0.046994
0.0451348
0.0432221
0.0412548
0.0392404
0.0371639
0.0350282
0.0328165
0.0305113
0.0280989
0.0255609
0.0228782
0.0200286
0.0170045
0.0137762
0.00981527
0.00660432
0.00300406
-0.000538438
-0.00401416
-0.00742338
-0.0107683
-0.0140532
-0.017284
-0.0204676
-0.0236116
-0.0267229
-0.0298081
-0.032873
-0.0359224
-0.0389606
-0.041991
-0.0450162
-0.0480385
-0.0510594
-0.0540802
-0.0571019
-0.0601251
-0.0631502
-0.0661775
-0.0692072
-0.0722393
-0.0752738
-0.0783106
-0.0813497
-0.0843908
-0.0874338
-0.0904785
-0.0935247
-0.0965722
-0.0996207
-0.10267
-0.10572
-0.10877
0.219146
0.216272
0.213446
0.21069
0.208024
0.205458
0.203001
0.200649
0.198396
0.196223
0.194123
0.192029
0.189963
0.187854
0.185698
0.18347
0.181137
0.178681
0.176066
0.173278
0.17029
0.167062
0.163573
0.159803
0.15574
0.15141
0.146861
0.142168
0.137431
0.132738
0.128153
0.123673
0.11923
0.114817
0.110535
0.106478
0.102696
0.0992199
0.0960499
0.0931643
0.0905201
0.0880956
0.0858508
0.0837379
0.0817492
0.0798491
0.0780257
0.0762603
0.0745421
0.0728609
0.0712073
0.0695739
0.0679551
0.0663496
0.0647556
0.0631734
0.0616018
0.0600349
0.058465
0.0568877
0.0552949
0.0536778
0.0520294
0.0503443
0.0486253
0.0468716
0.0450796
0.0432431
0.0413564
0.0394173
0.0374348
0.0353965
0.0333031
0.031142
0.0289038
0.026562
0.0241088
0.0215179
0.0187636
0.0158507
0.0127383
0.00927349
0.00568208
0.00211598
-0.00139447
-0.00483619
-0.00820549
-0.0115042
-0.014738
-0.0179151
-0.0210445
-0.0241353
-0.0271958
-0.0302332
-0.0332538
-0.0362627
-0.0392641
-0.0422612
-0.0452566
-0.0482522
-0.0512493
-0.0542489
-0.0572517
-0.0602579
-0.0632679
-0.0662818
-0.0692993
-0.0723206
-0.0753453
-0.0783732
-0.0814042
-0.0844379
-0.0874741
-0.0905125
-0.0935528
-0.0965947
-0.099638
-0.102682
-0.105727
-0.108773
0.219238
0.216547
0.213898
0.211314
0.208807
0.206392
0.204074
0.201848
0.199717
0.19763
0.195604
0.193552
0.191524
0.189438
0.187291
0.185058
0.182709
0.180226
0.177555
0.174706
0.171633
0.168298
0.164684
0.160773
0.156565
0.152094
0.147408
0.142566
0.137649
0.132771
0.128044
0.123472
0.118965
0.114491
0.110124
0.105938
0.101989
0.0983228
0.0949585
0.0918836
0.0890663
0.0864883
0.0841222
0.0819219
0.0798786
0.0779452
0.0761054
0.0743271
0.0725975
0.0709049
0.0692378
0.067588
0.0659537
0.0643363
0.0627358
0.061153
0.0595873
0.058033
0.0564809
0.0549245
0.053356
0.0517663
0.0501454
0.0484866
0.0467892
0.0450564
0.0432834
0.0414647
0.0395985
0.0376853
0.0357307
0.0337267
0.0316674
0.0295372
0.0273502
0.025074
0.0227004
0.0202091
0.0175665
0.014742
0.0116928
0.00830095
0.00474761
0.00120348
-0.00229151
-0.00570951
-0.00904157
-0.0122911
-0.0154678
-0.0185839
-0.0216516
-0.0246824
-0.0276859
-0.0306704
-0.0336425
-0.0366076
-0.0395696
-0.0425316
-0.0454958
-0.0484638
-0.0514364
-0.0544144
-0.057398
-0.0603873
-0.0633823
-0.0663828
-0.0693884
-0.072399
-0.0754141
-0.0784334
-0.0814565
-0.0844831
-0.0875127
-0.090545
-0.0935797
-0.0966163
-0.0996545
-0.102694
-0.105734
-0.108775
0.219327
0.216811
0.214332
0.211911
0.209561
0.207294
0.205119
0.203021
0.201007
0.199005
0.197062
0.195071
0.193091
0.191035
0.188905
0.186669
0.184295
0.181769
0.179034
0.176123
0.172963
0.169519
0.165757
0.161669
0.157291
0.152684
0.147878
0.142894
0.137813
0.132779
0.127938
0.123304
0.118767
0.114272
0.109858
0.105577
0.101495
0.0976586
0.0941085
0.0908389
0.0878324
0.085075
0.082552
0.0802292
0.0780957
0.0761055
0.0742368
0.0724468
0.0707141
0.069022
0.0673509
0.0656911
0.0640439
0.0624151
0.0608069
0.0592221
0.0576612
0.0561212
0.0545918
0.053062
0.0515262
0.0499768
0.0483957
0.0467733
0.0451048
0.0433994
0.041645
0.0398262
0.0379598
0.036061
0.0341251
0.032143
0.0301015
0.0279904
0.0258237
0.0235957
0.021294
0.0188852
0.0163331
0.0136193
0.0106806
0.00737243
0.00383046
0.000273516
-0.00323895
-0.00664927
-0.00994543
-0.0131389
-0.0162482
-0.0192925
-0.0222886
-0.0252507
-0.0281901
-0.031116
-0.0340353
-0.0369532
-0.0398734
-0.0427986
-0.0457306
-0.0486702
-0.0516181
-0.0545744
-0.0575389
-0.0605115
-0.0634917
-0.0664791
-0.0694732
-0.0724734
-0.0754793
-0.0784903
-0.081506
-0.0845257
-0.0875491
-0.0905757
-0.093605
-0.0966365
-0.09967
-0.102705
-0.105741
-0.108777
0.219409
0.217056
0.214734
0.212468
0.210272
0.208154
0.206122
0.204149
0.202254
0.20035
0.19849
0.196575
0.194655
0.19265
0.190546
0.188305
0.1859
0.18332
0.180525
0.177524
0.174232
0.170628
0.166696
0.162444
0.157921
0.153199
0.14829
0.143191
0.13797
0.132791
0.127813
0.123096
0.118544
0.114053
0.109635
0.105306
0.101135
0.0971744
0.0934668
0.0900131
0.0868106
0.0838617
0.0811616
0.0786941
0.076443
0.0743707
0.0724518
0.0706446
0.0689156
0.0672416
0.0655876
0.0639362
0.0622857
0.0606502
0.0590355
0.0574474
0.0558873
0.0543611
0.0528568
0.0513589
0.0498627
0.0483696
0.0468437
0.0452727
0.0436421
0.041982
0.0402465
0.0383739
0.0364471
0.034533
0.0326001
0.0306235
0.0285612
0.026458
0.0242748
0.0220701
0.0198242
0.0175096
0.0150695
0.0124608
0.00963758
0.0064476
0.00289905
-0.000693953
-0.00426583
-0.00768437
-0.0109384
-0.0140602
-0.0170849
-0.0200419
-0.0229534
-0.0258365
-0.0287038
-0.0315649
-0.0344268
-0.0372944
-0.0401709
-0.0430581
-0.0459571
-0.0488683
-0.0517915
-0.0547263
-0.0576723
-0.0606286