/*--------------------------------*- C++ -*----------------------------------*\
  =========                 |
  \\      /  F ield         | OpenFOAM: The Open Source CFD Toolbox
   \\    /   O peration     | Website:  https://openfoam.org
    \\  /    A nd           | Version:  6
     \\/     M anipulation  |
\*---------------------------------------------------------------------------*/
FoamFile
{
    version     2.0;
    format      ascii;
    class       volVectorField;
    location    "2250";
    object      U;
}
// * * * * * * * * * * * * * * * * * * * * * * * * * * * * * * * * * * * * * //

dimensions      [0 1 -1 0 0 0 0];

internalField   nonuniform List<vector> 
4800
(
(-9.12722e-05 0 -8.64923e-05)
(0.000146325 0 -0.000101214)
(9.37203e-06 0 -0.00013009)
(7.85038e-05 0 -0.000624723)
(-0.00035767 0 -1.16804e-05)
(-0.00080446 0 -0.000344653)
(-0.0011161 0 0.000163716)
(-0.00125155 0 2.1183e-05)
(-0.00133756 0 -9.37398e-05)
(-0.0013928 0 -3.54666e-05)
(-0.00140764 0 -8.73158e-05)
(-0.00134228 0 -0.000111383)
(-0.00130065 0 -9.76271e-05)
(-0.00130246 0 -6.88592e-05)
(-0.00130057 0 1.66619e-05)
(-0.00120496 0 -0.00017947)
(-0.00113232 0 -0.000120757)
(-0.0010794 0 -8.98698e-05)
(-0.00103934 0 -0.000137708)
(-0.000946119 0 -0.000117783)
(-0.00076428 0 -0.00012806)
(-0.000606431 0 -0.000161914)
(-0.000498448 0 -0.000190035)
(-0.000356338 0 -0.00025799)
(5.03125e-05 0 -0.000281688)
(-6.70802e-05 0 6.0072e-07)
(9.79609e-05 0 5.68609e-05)
(0.000231963 0 -1.71821e-05)
(0.000344615 0 -9.76988e-05)
(0.000463137 0 -0.000118844)
(0.000594252 0 -0.000152025)
(0.000751092 0 -0.00015896)
(0.000924901 0 -0.000135275)
(0.00109447 0 -0.000132065)
(0.00121785 0 -0.00011157)
(0.00129114 0 -8.91468e-05)
(0.00137226 0 -7.76895e-05)
(0.0014869 0 -5.15841e-05)
(0.00155958 0 -1.43072e-05)
(0.00155129 0 -3.0189e-05)
(0.00154071 0 -2.88791e-07)
(0.00153961 0 1.57705e-05)
(0.00152894 0 1.79022e-05)
(0.00149883 0 1.45869e-05)
(0.00145614 0 1.86203e-05)
(0.00141377 0 2.87022e-05)
(0.00137635 0 8.31146e-06)
(0.00135919 0 -7.49378e-06)
(0.00136085 0 -1.03447e-05)
(0.00137074 0 -2.83011e-05)
(0.0013779 0 -4.91115e-05)
(0.00138647 0 -7.10878e-05)
(0.00140627 0 -4.10143e-05)
(0.00144213 0 -3.18378e-05)
(0.00150027 0 -0.000104798)
(0.00157568 0 -6.18761e-05)
(0.00158274 0 -1.00781e-05)
(0.00158923 0 -1.64283e-05)
(0.00162573 0 -5.2234e-05)
(0.00169619 0 2.03668e-05)
(0.00174334 0 1.55633e-05)
(0.00175019 0 -8.37887e-05)
(0.00176481 0 -0.000121676)
(0.0017888 0 -6.88431e-05)
(0.00178595 0 -5.4096e-05)
(0.00176801 0 -1.20781e-05)
(0.00173221 0 -2.32214e-05)
(0.00167676 0 3.03159e-05)
(0.00159548 0 6.55165e-05)
(0.00148823 0 3.6488e-05)
(0.0013501 0 0.000102134)
(0.00114649 0 0.000223102)
(0.000819299 0 8.46302e-05)
(0.000227449 0 0.000206112)
(-0.000526904 0 -0.000436428)
(-0.000366798 0 -0.000327953)
(-0.000499612 0 -0.000201245)
(-0.000584576 0 -0.000249986)
(-0.000699904 0 -0.000274872)
(4.2944e-06 0 -0.000315228)
(-1.28077e-12 0 6.75869e-14)
(-3.35504e-12 0 -3.76922e-14)
(-1.92896e-12 0 -5.67643e-14)
(-1.81904e-12 0 -5.32989e-14)
(-1.71701e-12 0 -4.89329e-14)
(-1.61972e-12 0 -4.85765e-14)
(-1.51949e-12 0 -5.19326e-14)
(-1.41029e-12 0 -5.74495e-14)
(-1.28925e-12 0 -6.3818e-14)
(-1.15563e-12 0 -7.00431e-14)
(-1.01038e-12 0 -7.54481e-14)
(-8.55558e-13 0 -7.96048e-14)
(-6.9392e-13 0 -8.22675e-14)
(-5.28564e-13 0 -8.33248e-14)
(-3.62716e-13 0 -8.27645e-14)
(-1.99548e-13 0 -8.06494e-14)
(-4.20394e-14 0 -7.70983e-14)
(1.07111e-13 0 -7.22714e-14)
(2.45551e-13 0 -6.63575e-14)
(3.71318e-13 0 -5.95622e-14)
(4.82854e-13 0 -5.20976e-14)
(5.79016e-13 0 -4.41724e-14)
(6.59064e-13 0 -3.59844e-14)
(7.22637e-13 0 -2.77145e-14)
(7.69719e-13 0 -1.95223e-14)
(8.00593e-13 0 -1.15445e-14)
(8.15799e-13 0 -3.89394e-15)
(8.16082e-13 0 3.33994e-15)
(8.0235e-13 0 1.00891e-14)
(7.75625e-13 0 1.63048e-14)
(7.37013e-13 0 2.19551e-14)
(6.87668e-13 0 2.70216e-14)
(6.2877e-13 0 3.14971e-14)
(5.61504e-13 0 3.53822e-14)
(4.87048e-13 0 3.86831e-14)
(4.06561e-13 0 4.14094e-14)
(3.21185e-13 0 4.35713e-14)
(2.3204e-13 0 4.51774e-14)
(1.40237e-13 0 4.62293e-14)
(4.69048e-14 0 4.67069e-14)
(-0.000178536 0 -1.40927e-05)
(-0.000291325 0 3.30514e-05)
(-0.000195172 0 0.000406771)
(-0.000544592 0 0.000567443)
(-0.000915104 0 0.00021101)
(-0.00100187 0 0.000484807)
(-0.00113288 0 0.00022377)
(-0.00121335 0 0.000174994)
(-0.00130228 0 0.000201605)
(-0.00135512 0 7.25806e-05)
(-0.00136582 0 6.66148e-05)
(-0.00133886 0 -0.000105829)
(-0.00126881 0 -0.000105872)
(-0.00122255 0 -2.87772e-07)
(-0.00120335 0 -2.64457e-05)
(-0.0012051 0 -8.82666e-06)
(-0.00113734 0 -1.03237e-05)
(-0.00105354 0 -0.000156113)
(-0.00100689 0 -3.89905e-05)
(-0.000920691 0 -2.23004e-05)
(-0.000780182 0 -0.000208433)
(-0.000665636 0 -0.000226619)
(-0.000614966 0 -0.000105848)
(-0.000492781 0 -0.000240314)
(-0.000447212 0 -6.9964e-05)
(-0.000186195 0 -0.000351561)
(-1.88958e-05 0 -0.000191212)
(0.000122088 0 -0.000157909)
(0.000302165 0 -0.000132083)
(0.000398347 0 -0.00020322)
(0.000512834 0 -0.000232254)
(0.000654687 0 -0.000240875)
(0.000789709 0 -0.00025072)
(0.000934904 0 -0.000196902)
(0.00105716 0 -0.00014471)
(0.00114416 0 -0.000173237)
(0.00126536 0 -0.000144478)
(0.00140128 0 -0.000110727)
(0.00145797 0 -5.19845e-05)
(0.00145926 0 8.13686e-06)
(0.00146693 0 1.52979e-05)
(0.00148838 0 2.08381e-05)
(0.0014976 0 3.65347e-05)
(0.00148414 0 4.91617e-05)
(0.00144366 0 5.23792e-05)
(0.00139174 0 3.23258e-05)
(0.00135511 0 3.70507e-05)
(0.00131788 0 1.59334e-05)
(0.00130537 0 -4.43837e-07)
(0.00131305 0 2.19506e-05)
(0.00132495 0 -2.87736e-05)
(0.00134794 0 -4.26352e-06)
(0.00136419 0 -3.98762e-05)
(0.00138826 0 -7.10879e-05)
(0.00146156 0 -7.239e-05)
(0.00154419 0 -0.000101344)
(0.00153404 0 -0.000117121)
(0.00152115 0 -7.10888e-05)
(0.00153172 0 -5.58297e-05)
(0.00155794 0 -8.74537e-05)
(0.00160513 0 -0.000123763)
(0.00166741 0 -3.46257e-05)
(0.00168433 0 4.57453e-05)
(0.00167959 0 4.67456e-05)
(0.00165917 0 5.67562e-05)
(0.00162222 0 4.7756e-05)
(0.00157234 0 7.63694e-05)
(0.00151755 0 9.91151e-05)
(0.00146549 0 8.23354e-05)
(0.00138376 0 0.000192668)
(0.00128355 0 0.000212859)
(0.00118193 0 0.000139533)
(0.00105702 0 0.000303731)
(0.000674121 0 0.000456446)
(0.000613647 0 0.000548296)
(0.000443107 0 0.000510139)
(0.000140446 0 0.000272812)
(-0.000320778 0 -0.000149157)
(-0.000611073 0 -0.000298858)
(4.52146e-06 0 -0.000389532)
(-1.46705e-12 0 -2.3869e-14)
(-3.49907e-12 0 -2.01509e-13)
(-1.946e-12 0 -1.93191e-13)
(-1.81219e-12 0 -1.61126e-13)
(-1.71285e-12 0 -1.43101e-13)
(-1.62289e-12 0 -1.42314e-13)
(-1.52827e-12 0 -1.53742e-13)
(-1.42217e-12 0 -1.71606e-13)
(-1.30185e-12 0 -1.91705e-13)
(-1.16726e-12 0 -2.11055e-13)
(-1.01994e-12 0 -2.27698e-13)
(-8.62378e-13 0 -2.40417e-13)
(-6.9764e-13 0 -2.48521e-13)
(-5.29061e-13 0 -2.51706e-13)
(-3.60041e-13 0 -2.49957e-13)
(-1.93882e-13 0 -2.43481e-13)
(-3.36614e-14 0 -2.32651e-13)
(1.17852e-13 0 -2.17966e-13)
(2.58261e-13 0 -2.00008e-13)
(3.85578e-13 0 -1.79407e-13)
(4.98243e-13 0 -1.56809e-13)
(5.95129e-13 0 -1.32846e-13)
(6.75522e-13 0 -1.08116e-13)
(7.39099e-13 0 -8.31612e-14)
(7.85888e-13 0 -5.84626e-14)
(8.16221e-13 0 -3.44293e-14)
(8.30683e-13 0 -1.13982e-14)
(8.30065e-13 0 1.03635e-14)
(8.15315e-13 0 3.0654e-14)
(7.87491e-13 0 4.93294e-14)
(7.4773e-13 0 6.6296e-14)
(6.9721e-13 0 8.15015e-14)
(6.37131e-13 0 9.49262e-14)
(5.6869e-13 0 1.06575e-13)
(4.93075e-13 0 1.16468e-13)
(4.11449e-13 0 1.24637e-13)
(3.24953e-13 0 1.31114e-13)
(2.34698e-13 0 1.35931e-13)
(1.41767e-13 0 1.39107e-13)
(4.73824e-14 0 1.40641e-13)
(-5.44773e-05 0 0.000132171)
(-0.000222336 0 0.000310903)
(-0.000470903 0 0.000492067)
(-0.000766792 0 0.000607672)
(-0.000860274 0 0.000710758)
(-0.000914388 0 0.000705444)
(-0.00115056 0 0.000241389)
(-0.00118153 0 0.00020783)
(-0.00123116 0 0.000157549)
(-0.00124386 0 5.28238e-05)
(-0.0012489 0 -2.30014e-05)
(-0.00129556 0 -8.45676e-05)
(-0.00132015 0 -5.15987e-05)
(-0.0012798 0 -0.000148906)
(-0.00122321 0 -0.000174339)
(-0.00120174 0 -0.000121157)
(-0.00117238 0 -0.000178797)
(-0.00113214 0 -0.000250448)
(-0.00109962 0 -0.000205259)
(-0.00102232 0 -0.000344354)
(-0.000931443 0 -0.000415128)
(-0.000868772 0 -0.000384988)
(-0.000859437 0 -0.000271457)
(-0.000718058 0 -0.000411445)
(-0.000677097 0 -0.000223722)
(-0.000209435 0 -0.000610308)
(-0.000285763 0 -0.000374244)
(-0.000179704 0 -0.000398474)
(0.000128608 0 -0.000378754)
(0.00027341 0 -0.000299948)
(0.000359089 0 -0.000367101)
(0.000557959 0 -0.000333471)
(0.000659606 0 -0.00036813)
(0.00077202 0 -0.000337513)
(0.000913452 0 -0.000232074)
(0.000961635 0 -0.000471684)
(0.00114405 0 -0.000325866)
(0.00120067 0 -0.00014817)
(0.00119712 0 -0.0001178)
(0.00121256 0 -7.78415e-05)
(0.00124716 0 -4.55868e-05)
(0.00129265 0 -1.37625e-05)
(0.0013588 0 5.56743e-05)
(0.00137954 0 8.2524e-05)
(0.00137212 0 7.57312e-05)
(0.00135156 0 6.44124e-05)
(0.00132312 0 0.000110371)
(0.00130666 0 5.63242e-05)
(0.0013042 0 -4.58703e-05)
(0.00131087 0 2.79784e-05)
(0.00130867 0 -0.000153794)
(0.00133054 0 -2.09717e-05)
(0.00135574 0 -8.71903e-05)
(0.00139516 0 -0.000171291)
(0.00143796 0 -7.91637e-05)
(0.00145729 0 3.65806e-05)
(0.00147172 0 -7.66381e-06)
(0.00148389 0 -6.86796e-05)
(0.00150043 0 -9.97442e-05)
(0.00152885 0 -7.93796e-05)
(0.0015286 0 -7.02778e-05)
(0.0015033 0 -5.87297e-05)
(0.00147925 0 -7.15519e-05)
(0.00148106 0 -7.00623e-06)
(0.00147694 0 2.53071e-05)
(0.00146263 0 6.7978e-05)
(0.00143035 0 9.90037e-05)
(0.00138046 0 0.000114784)
(0.00131982 0 0.000246188)
(0.00127171 0 0.000215541)
(0.00116273 0 0.000351382)
(0.001059 0 0.000540003)
(0.00101448 0 0.000642639)
(0.000957301 0 0.000631198)
(0.000748478 0 0.000662365)
(0.000708973 0 0.000452117)
(0.000217004 0 0.000466791)
(0.000414704 0 0.000264116)
(-0.00037506 0 -0.000192001)
(4.25406e-06 0 -0.000317558)
(-1.30038e-12 0 -8.19455e-13)
(-3.56123e-12 0 -5.46602e-13)
(-1.8898e-12 0 -3.53719e-13)
(-1.76973e-12 0 -2.55236e-13)
(-1.69856e-12 0 -2.20339e-13)
(-1.63034e-12 0 -2.24141e-13)
(-1.54859e-12 0 -2.49143e-13)
(-1.44824e-12 0 -2.83653e-13)
(-1.3287e-12 0 -3.20467e-13)
(-1.19162e-12 0 -3.54902e-13)
(-1.03974e-12 0 -3.84007e-13)
(-8.76381e-13 0 -4.05985e-13)
(-7.05209e-13 0 -4.19841e-13)
(-5.3e-13 0 -4.2517e-13)
(-3.54491e-13 0 -4.22019e-13)
(-1.82242e-13 0 -4.10793e-13)
(-1.65248e-14 0 -3.92169e-13)
(1.39754e-13 0 -3.67026e-13)
(2.8411e-13 0 -3.36381e-13)
(4.14517e-13 0 -3.01321e-13)
(5.29415e-13 0 -2.62955e-13)
(6.27709e-13 0 -2.2236e-13)
(7.08749e-13 0 -1.80548e-13)
(7.7229e-13 0 -1.38435e-13)
(8.1845e-13 0 -9.68272e-14)
(8.47657e-13 0 -5.64066e-14)
(8.60591e-13 0 -1.77323e-14)
(8.58135e-13 0 1.8756e-14)
(8.41316e-13 0 5.27292e-14)
(8.11267e-13 0 8.39564e-14)
(7.69185e-13 0 1.12291e-13)
(7.16298e-13 0 1.37654e-13)
(6.53844e-13 0 1.60024e-13)
(5.83046e-13 0 1.79415e-13)
(5.0511e-13 0 1.9587e-13)
(4.21207e-13 0 2.09448e-13)
(3.32479e-13 0 2.20211e-13)
(2.40032e-13 0 2.28217e-13)
(1.44948e-13 0 2.33519e-13)
(4.84395e-14 0 2.3616e-13)
(-0.000185357 0 0.000230315)
(-0.000275842 0 0.000487083)
(-0.000367464 0 0.000772784)
(-0.000648716 0 0.000805571)
(-0.000832395 0 0.000700305)
(-0.000984702 0 0.000523689)
(-0.00109541 0 0.000290512)
(-0.00109536 0 0.000398555)
(-0.0011522 0 0.00027404)
(-0.00117024 0 0.000118529)
(-0.00117789 0 3.26045e-05)
(-0.00124322 0 -6.85883e-05)
(-0.00128019 0 -8.44324e-05)
(-0.00130533 0 -6.19557e-05)
(-0.00131057 0 -8.60796e-05)
(-0.00127919 0 -0.000169085)
(-0.00124976 0 -0.000136395)
(-0.00120086 0 -0.000199899)
(-0.00117202 0 -0.000212584)
(-0.00114369 0 -0.000243931)
(-0.00102203 0 -0.000481911)
(-0.00099933 0 -0.000335825)
(-0.00091501 0 -0.000368802)
(-0.000668895 0 -0.000650558)
(-0.000662327 0 -0.000497009)
(-0.000558647 0 -0.000466456)
(-0.000354577 0 -0.000485091)
(-0.00024911 0 -0.000476369)
(-4.25838e-05 0 -0.000581281)
(2.41499e-05 0 -0.000528145)
(0.0001967 0 -0.000569286)
(0.000401592 0 -0.000544885)
(0.000580487 0 -0.000444294)
(0.000687579 0 -0.000369072)
(0.000659934 0 -0.000572236)
(0.000921646 0 -0.000302409)
(0.000972005 0 -0.000210745)
(0.000960884 0 -0.000163625)
(0.000968938 0 -0.000111598)
(0.000980633 0 -6.78662e-05)
(0.00101267 0 -7.99415e-05)
(0.00107382 0 -0.000174799)
(0.00114151 0 -6.7877e-05)
(0.00116178 0 6.24777e-05)
(0.00118916 0 0.000135711)
(0.00122673 0 0.000140367)
(0.00124281 0 5.03387e-05)
(0.00124383 0 3.45035e-05)
(0.00124684 0 2.93603e-05)
(0.00126033 0 -1.30919e-05)
(0.00128945 0 6.08323e-06)
(0.00131231 0 -4.80749e-05)
(0.00134031 0 -8.25554e-05)
(0.00135301 0 -9.61848e-05)
(0.00133594 0 -0.000111359)
(0.00133155 0 -0.000134544)
(0.00135674 0 -0.000145185)
(0.00139257 0 -8.46145e-05)
(0.00138741 0 -8.62655e-05)
(0.00137696 0 -7.03345e-05)
(0.00136531 0 -5.31698e-05)
(0.00134807 0 -4.06459e-05)
(0.00133601 0 -9.38959e-06)
(0.00132749 0 2.4639e-05)
(0.0013069 0 5.80519e-05)
(0.0012824 0 9.59739e-05)
(0.00126332 0 0.000166634)
(0.00123571 0 0.000133726)
(0.00117361 0 0.000230976)
(0.00112366 0 0.000352341)
(0.00113887 0 0.000277873)
(0.00102776 0 0.000544081)
(0.00097612 0 0.000663227)
(0.000889982 0 0.00076342)
(0.000777046 0 0.000775527)
(0.000721814 0 0.000657775)
(0.000391546 0 0.000655901)
(0.000467987 0 0.000383203)
(0.000253636 0 0.000133284)
(4.60262e-06 0 -0.000188023)
(-1.08319e-12 0 -1.4194e-12)
(-3.03772e-12 0 -7.67238e-13)
(-1.65424e-12 0 -4.19922e-13)
(-1.6784e-12 0 -2.8582e-13)
(-1.68135e-12 0 -2.58939e-13)
(-1.6513e-12 0 -2.84826e-13)
(-1.58759e-12 0 -3.34918e-13)
(-1.49349e-12 0 -3.93469e-13)
(-1.3731e-12 0 -4.51692e-13)
(-1.2308e-12 0 -5.04169e-13)
(-1.07102e-12 0 -5.47544e-13)
(-8.98212e-13 0 -5.79785e-13)
(-7.16824e-13 0 -5.99802e-13)
(-5.31239e-13 0 -6.07225e-13)
(-3.45665e-13 0 -6.02267e-13)
(-1.64031e-13 0 -5.85609e-13)
(1.01055e-14 0 -5.58304e-13)
(1.7364e-13 0 -5.21681e-13)
(3.23966e-13 0 -4.77249e-13)
(4.59004e-13 0 -4.26611e-13)
(5.77205e-13 0 -3.71383e-13)
(6.77536e-13 0 -3.13127e-13)
(7.59447e-13 0 -2.53298e-13)
(8.2282e-13 0 -1.93206e-13)
(8.67917e-13 0 -1.33991e-13)
(8.95316e-13 0 -7.66122e-14)
(9.05846e-13 0 -2.18455e-14)
(9.00527e-13 0 2.97058e-14)
(8.80515e-13 0 7.75979e-14)
(8.47052e-13 0 1.21527e-13)
(8.01428e-13 0 1.61309e-13)
(7.44943e-13 0 1.96856e-13)
(6.78891e-13 0 2.28155e-13)
(6.04537e-13 0 2.55246e-13)
(5.23108e-13 0 2.78207e-13)
(4.35789e-13 0 2.97131e-13)
(3.43722e-13 0 3.12119e-13)
(2.48006e-13 0 3.23266e-13)
(1.49709e-13 0 3.30649e-13)
(5.00233e-14 0 3.34328e-13)
(-0.000225987 0 0.000541464)
(-0.000794232 0 0.000567933)
(-0.000669655 0 0.000733846)
(-0.000723982 0 0.000818596)
(-0.000745615 0 0.000805373)
(-0.000629934 0 0.000881974)
(-0.000821013 0 0.000644458)
(-0.000997986 0 0.000438611)
(-0.00103881 0 0.00037196)
(-0.00111537 0 2.08148e-06)
(-0.0011677 0 4.0978e-05)
(-0.0012418 0 -7.33464e-06)
(-0.00125373 0 -4.39387e-05)
(-0.00125322 0 -8.1696e-05)
(-0.00127616 0 -9.67651e-05)
(-0.00129471 0 -9.20181e-05)
(-0.00126242 0 -0.000216272)
(-0.00118999 0 -0.000270217)
(-0.00116662 0 -0.000243424)
(-0.00112611 0 -0.000349827)
(-0.00102215 0 -0.000507849)
(-0.000994813 0 -0.00037431)
(-0.000938607 0 -0.000362278)
(-0.000696796 0 -0.00068982)
(-0.000640341 0 -0.000623201)
(-0.000336088 0 -0.000764913)
(-0.000360582 0 -0.000650984)
(-0.000210006 0 -0.000680549)
(2.82267e-05 0 -0.000697889)
(5.76524e-05 0 -0.000608042)
(0.000279436 0 -0.00055194)
(0.000210724 0 -0.000651242)
(0.000373351 0 -0.000632682)
(0.000548397 0 -0.000520435)
(0.000637941 0 -0.00047453)
(0.000727311 0 -0.000412921)
(0.00076842 0 -0.00034266)
(0.000784002 0 -0.000256963)
(0.000790782 0 -0.000115436)
(0.000795506 0 -0.000105147)
(0.000829229 0 -0.000126683)
(0.000897096 0 -2.67294e-05)
(0.000899039 0 -6.7202e-05)
(0.000905909 0 -6.98198e-05)
(0.000952936 0 5.07142e-05)
(0.00100071 0 2.77297e-05)
(0.00104025 0 0.000110296)
(0.00107168 0 2.90761e-05)
(0.00109219 0 -6.77195e-05)
(0.00112856 0 -1.98003e-06)
(0.00117331 0 -3.00895e-05)
(0.00120538 0 -0.000113914)
(0.00121332 0 -0.000143569)
(0.00121075 0 -0.000155932)
(0.00121303 0 -0.000111626)
(0.00121974 0 -7.60053e-05)
(0.00122545 0 -7.04544e-05)
(0.00122069 0 -8.04799e-05)
(0.0012035 0 -8.34949e-05)
(0.00118777 0 -6.76202e-05)
(0.00118822 0 -3.80647e-05)
(0.00118134 0 -3.10943e-05)
(0.00116995 0 -3.32086e-05)
(0.00116485 0 4.69864e-05)
(0.00115227 0 9.17535e-05)
(0.00113629 0 6.12363e-05)
(0.00109171 0 0.00025918)
(0.00107621 0 0.000277742)
(0.00104318 0 0.000340682)
(0.00101025 0 0.000440293)
(0.000950875 0 0.000565653)
(0.000915086 0 0.000642422)
(0.000890012 0 0.00071459)
(0.000830409 0 0.000788591)
(0.000776792 0 0.000803594)
(0.000708313 0 0.000795235)
(0.000610319 0 0.000700713)
(0.000641622 0 0.000344768)
(0.000105657 0 0.000136009)
(5.98746e-06 0 0.0002286)
(-1.20649e-12 0 -1.7251e-12)
(-2.4709e-12 0 -5.57021e-13)
(-1.408e-12 0 -2.73027e-13)
(-1.60834e-12 0 -2.0928e-13)
(-1.69716e-12 0 -2.44863e-13)
(-1.70593e-12 0 -3.21396e-13)
(-1.65705e-12 0 -4.12159e-13)
(-1.56502e-12 0 -5.03729e-13)
(-1.4394e-12 0 -5.88793e-13)
(-1.28748e-12 0 -6.62682e-13)
(-1.11535e-12 0 -7.22369e-13)
(-9.28639e-13 0 -7.65973e-13)
(-7.32648e-13 0 -7.92523e-13)
(-5.32465e-13 0 -8.01831e-13)
(-3.32875e-13 0 -7.94382e-13)
(-1.38279e-13 0 -7.71235e-13)
(4.7403e-14 0 -7.33916e-13)
(2.20809e-13 0 -6.84293e-13)
(3.7918e-13 0 -6.24458e-13)
(5.20383e-13 0 -5.56607e-13)
(6.42899e-13 0 -4.82934e-13)
(7.45794e-13 0 -4.05541e-13)
(8.2867e-13 0 -3.26366e-13)
(8.91597e-13 0 -2.47137e-13)
(9.35044e-13 0 -1.69342e-13)
(9.59803e-13 0 -9.42161e-14)
(9.66909e-13 0 -2.27455e-14)
(9.57578e-13 0 4.43184e-14)
(9.33137e-13 0 1.06437e-13)
(8.94978e-13 0 1.63256e-13)
(8.44514e-13 0 2.14575e-13)
(7.83144e-13 0 2.60319e-13)
(7.12233e-13 0 3.00507e-13)
(6.33098e-13 0 3.35223e-13)
(5.46994e-13 0 3.64593e-13)
(4.5512e-13 0 3.88764e-13)
(3.58613e-13 0 4.07884e-13)
(2.58562e-13 0 4.22091e-13)
(1.5601e-13 0 4.31497e-13)
(5.21185e-14 0 4.36181e-13)
(-7.97892e-05 0 0.000774249)
(0.000522298 0 0.000924695)
(-0.000390166 0 0.000955351)
(-0.00050576 0 0.000982142)
(-0.000635612 0 0.000889268)
(-0.000925975 0 0.000521846)
(-0.000852498 0 0.000558251)
(-0.000901381 0 0.000502507)
(-0.000927101 0 0.000440639)
(-0.0010695 0 2.72504e-05)
(-0.00113806 0 0.000139105)
(-0.00119196 0 6.80428e-05)
(-0.00121321 0 -3.35534e-05)
(-0.0012286 0 -0.000117704)
(-0.00123064 0 -0.000135463)
(-0.00122472 0 -0.000155901)
(-0.00122447 0 -0.000198064)
(-0.00114782 0 -0.000334863)
(-0.00112317 0 -0.000302053)
(-0.00108906 0 -0.000391854)
(-0.000992277 0 -0.000539658)
(-0.00087799 0 -0.000612459)
(-0.00081538 0 -0.000642867)
(-0.000663073 0 -0.000760985)
(-0.000562609 0 -0.000773559)
(-0.000516358 0 -0.000741969)
(-0.000321365 0 -0.000822491)
(-0.000209003 0 -0.000835877)
(4.73107e-06 0 -0.000788784)
(5.52886e-05 0 -0.000718489)
(3.64587e-05 0 -0.000720576)
(0.000162057 0 -0.000710066)
(0.000264613 0 -0.000744046)
(0.000309606 0 -0.000727403)
(0.000475322 0 -0.000603826)
(0.000533899 0 -0.000523787)
(0.000594767 0 -0.000374429)
(0.000638969 0 -0.000165254)
(0.000625489 0 -0.000117094)
(0.00063984 0 -0.000120754)
(0.000690811 0 -0.000102816)
(0.000716769 0 -0.000118362)
(0.000723924 0 -8.15281e-05)
(0.00074117 0 -5.12578e-05)
(0.000785846 0 -2.09991e-06)
(0.00082403 0 -6.41112e-05)
(0.00087838 0 -3.97707e-05)
(0.000937574 0 -3.88521e-05)
(0.00100084 0 -3.29587e-05)
(0.00102235 0 -8.54969e-05)
(0.00102529 0 -0.000138625)
(0.0010468 0 -0.000143838)
(0.00106586 0 -0.000119419)
(0.00106125 0 -0.000120114)
(0.00105472 0 -0.000103791)
(0.00105476 0 -9.85389e-05)
(0.0010579 0 -0.000103338)
(0.00106722 0 -7.92596e-05)
(0.00106075 0 -7.43931e-05)
(0.00103184 0 -4.86852e-05)
(0.0010291 0 -2.58335e-05)
(0.00102692 0 -2.3935e-05)
(0.000997421 0 1.14845e-06)
(0.000982129 0 7.09764e-05)
(0.000992335 0 0.00010167)
(0.000985167 0 0.000122673)
(0.000971438 0 0.000146383)
(0.00094251 0 0.000249085)
(0.000921865 0 0.000328753)
(0.000877983 0 0.000453087)
(0.000808491 0 0.000589989)
(0.000757598 0 0.00070789)
(0.000715374 0 0.000820123)
(0.000717163 0 0.000841924)
(0.000707268 0 0.000840655)
(0.00070359 0 0.000790942)
(0.000618313 0 0.000749149)
(0.000742996 0 0.000370034)
(0.000320827 0 0.000232164)
(6.8977e-05 0 0.000422963)
(8.12234e-13 0 7.14745e-12)
(-1.34461e-12 0 1.28895e-12)
(-1.30609e-12 0 9.40072e-14)
(-1.64982e-12 0 -3.34917e-14)
(-1.79306e-12 0 -1.89915e-13)
(-1.81823e-12 0 -3.43801e-13)
(-1.76975e-12 0 -4.88519e-13)
(-1.67012e-12 0 -6.20605e-13)
(-1.53205e-12 0 -7.37191e-13)
(-1.36438e-12 0 -8.35533e-13)
(-1.17431e-12 0 -9.13427e-13)
(-9.68366e-13 0 -9.69372e-13)
(-7.52682e-13 0 -1.00265e-12)
(-5.33097e-13 0 -1.01337e-12)
(-3.15069e-13 0 -1.00237e-12)
(-1.03566e-13 0 -9.71219e-13)
(9.70476e-14 0 -9.22017e-13)
(2.83098e-13 0 -8.57297e-13)
(4.51651e-13 0 -7.79852e-13)
(6.00527e-13 0 -6.92576e-13)
(7.28271e-13 0 -5.98334e-13)
(8.34105e-13 0 -4.99839e-13)
(9.17851e-13 0 -3.99565e-13)
(9.79843e-13 0 -2.99689e-13)
(1.02084e-12 0 -2.0206e-13)
(1.04191e-12 0 -1.08186e-13)
(1.04438e-12 0 -1.92489e-14)
(1.02971e-12 0 6.38745e-14)
(9.99452e-13 0 1.40579e-13)
(9.55191e-13 0 2.1049e-13)
(8.98491e-13 0 2.73424e-13)
(8.30875e-13 0 3.29349e-13)
(7.53794e-13 0 3.78342e-13)
(6.68623e-13 0 4.20556e-13)
(5.76649e-13 0 4.56189e-13)
(4.79081e-13 0 4.85458e-13)
(3.7705e-13 0 5.08575e-13)
(2.71619e-13 0 5.2573e-13)
(1.63799e-13 0 5.37078e-13)
(5.47079e-14 0 5.42727e-13)
(-0.000343887 0 0.000740677)
(-0.000194358 0 0.00103347)
(-0.00014391 0 0.00115475)
(-0.000295594 0 0.00114507)
(-0.00047862 0 0.00103359)
(-0.000557774 0 0.000880627)
(-0.000613677 0 0.000764166)
(-0.000766076 0 0.000569742)
(-0.000774945 0 0.000512033)
(-0.00100878 0 0.000137967)
(-0.00103254 0 0.000195203)
(-0.0010713 0 7.47791e-05)
(-0.00113966 0 -7.75404e-05)
(-0.00117115 0 -6.79624e-05)
(-0.00114059 0 -9.92109e-05)
(-0.00112349 0 -0.000146476)
(-0.0011237 0 -0.00019596)
(-0.00107353 0 -0.000375787)
(-0.00106315 0 -0.000383767)
(-0.00102765 0 -0.000463165)
(-0.000996131 0 -0.00052938)
(-0.000809972 0 -0.000749668)
(-0.000875291 0 -0.000641851)
(-0.000732786 0 -0.000777934)
(-0.000437309 0 -0.00093872)
(-0.000300553 0 -0.000936244)
(-0.000277075 0 -0.000918007)
(-0.000106482 0 -0.000950454)
(-1.30953e-05 0 -0.000881268)
(-3.14148e-05 0 -0.000800267)
(0.000151688 0 -0.000792231)
(0.000183569 0 -0.000789381)
(0.000270406 0 -0.000804892)
(0.000293433 0 -0.000769764)
(0.000368252 0 -0.000664164)
(0.000430432 0 -0.00052415)
(0.000432591 0 -0.000383707)
(0.000487523 0 -0.000194717)
(0.000499738 0 -0.000162147)
(0.000512775 0 -0.00022163)
(0.000584969 0 -0.000169263)
(0.000611649 0 -0.000102471)
(0.000616598 0 -9.46646e-05)
(0.000633126 0 -0.000112272)
(0.000687188 0 -5.39417e-06)
(0.000731731 0 -5.7188e-05)
(0.000797133 0 5.21321e-05)
(0.000816846 0 -9.19571e-05)
(0.00084404 0 -7.95794e-05)
(0.000866946 0 -8.58315e-05)
(0.000877949 0 -0.000116008)
(0.00089473 0 -0.000130263)
(0.000908779 0 -0.000129492)
(0.000908751 0 -0.000125182)
(0.000912073 0 -0.000111306)
(0.000917791 0 -9.45995e-05)
(0.000919452 0 -0.000115999)
(0.000936073 0 -7.20549e-05)
(0.000937309 0 -4.16835e-05)
(0.000912414 0 -8.05565e-05)
(0.00089533 0 -1.20178e-05)
(0.000892315 0 3.17295e-05)
(0.000869342 0 1.46944e-05)
(0.000836787 0 5.45147e-06)
(0.000817878 0 0.000153153)
(0.000804163 0 0.00018069)
(0.000764025 0 0.000293075)
(0.000740524 0 0.000355196)
(0.000705785 0 0.000436934)
(0.000701114 0 0.000487015)
(0.000743749 0 0.000512133)
(0.000729114 0 0.00061691)
(0.000690871 0 0.00074346)
(0.00066474 0 0.000827556)
(0.000697368 0 0.000809115)
(0.000660818 0 0.000806858)
(0.000612633 0 0.000745067)
(0.000556186 0 0.000631129)
(0.00021103 0 0.000494157)
(8.05541e-06 0 0.000732231)
(9.09813e-06 0 5.0034e-05)
(-3.60315e-12 0 3.44825e-12)
(-2.72986e-12 0 6.71279e-13)
(-1.89181e-12 0 1.71222e-13)
(-2.00705e-12 0 -1.37517e-13)
(-2.00417e-12 0 -3.75376e-13)
(-1.93369e-12 0 -5.77401e-13)
(-1.81369e-12 0 -7.53048e-13)
(-1.65433e-12 0 -9.03913e-13)
(-1.46371e-12 0 -1.02893e-12)
(-1.24919e-12 0 -1.12655e-12)
(-1.01787e-12 0 -1.19555e-12)
(-7.76643e-13 0 -1.23549e-12)
(-5.32184e-13 0 -1.24676e-12)
(-2.90727e-13 0 -1.23069e-12)
(-5.79235e-14 0 -1.18943e-12)
(1.61324e-13 0 -1.12582e-12)
(3.62974e-13 0 -1.04322e-12)
(5.43902e-13 0 -9.45264e-13)
(7.019e-13 0 -8.35687e-13)
(8.35636e-13 0 -7.18142e-13)
(9.44564e-13 0 -5.96044e-13)
(1.02882e-12 0 -4.72466e-13)
(1.0891e-12 0 -3.50069e-13)
(1.12655e-12 0 -2.31072e-13)
(1.14261e-12 0 -1.1725e-13)
(1.13897e-12 0 -9.95559e-15)
(1.11741e-12 0 8.98438e-14)
(1.07975e-12 0 1.81515e-13)
(1.02782e-12 0 2.64706e-13)
(9.63373e-13 0 3.39293e-13)
(8.88061e-13 0 4.05323e-13)
(8.0344e-13 0 4.62968e-13)
(7.10945e-13 0 5.12483e-13)
(6.11897e-13 0 5.54164e-13)
(5.07506e-13 0 5.8832e-13)
(3.98885e-13 0 6.15243e-13)
(2.87064e-13 0 6.35191e-13)
(1.73006e-13 0 6.48372e-13)
(5.77673e-14 0 6.54929e-13)
(-0.000313841 0 0.000865301)
(-0.000387079 0 0.00111134)
(-0.000583236 0 0.00117823)
(-0.000636324 0 0.00109005)
(-0.000381007 0 0.00112597)
(-0.000500149 0 0.000908858)
(-0.00061329 0 0.000720778)
(-0.000641479 0 0.00064412)
(-0.000644499 0 0.000573744)
(-0.000580903 0 0.000610042)
(-0.000845353 0 0.000267816)
(-0.000947158 0 0.000133556)
(-0.000980976 0 0.000116047)
(-0.000967743 0 6.88155e-05)
(-0.000947654 0 -0.000282682)
(-0.00100337 0 -0.000189152)
(-0.00097134 0 -0.000343574)
(-0.000989013 0 -0.00036234)
(-0.00101474 0 -0.000383145)
(-0.000864636 0 -0.000671601)
(-0.00101448 0 -0.000498434)
(-0.000721043 0 -0.000877588)
(-0.000740098 0 -0.000871901)
(-0.000555843 0 -0.00101677)
(-0.000493813 0 -0.00103057)
(-0.000212765 0 -0.00108719)
(-0.000133527 0 -0.00102875)
(-0.000185302 0 -0.000982129)
(0.000117839 0 -0.000940068)
(5.78122e-05 0 -0.000834515)
(9.2486e-05 0 -0.000841955)
(0.000104783 0 -0.000852784)
(0.000156146 0 -0.000876092)
(0.00020988 0 -0.000823655)
(0.000342825 0 -0.000668218)
(0.000342696 0 -0.000528153)
(0.000291897 0 -0.000416887)
(0.000367276 0 -0.000247917)
(0.000392517 0 -0.000213378)
(0.000436448 0 -0.000189956)
(0.000473496 0 -0.000200307)
(0.000500038 0 -0.000193769)
(0.000524981 0 -0.000184366)
(0.000551221 0 -0.000133949)
(0.00057088 0 -8.97128e-05)
(0.000574997 0 -0.000123071)
(0.000623146 0 -7.62794e-05)
(0.000666242 0 -0.000134066)
(0.000693399 0 -8.85386e-05)
(0.000703787 0 -0.000112073)
(0.000724998 0 -0.000141241)
(0.000757195 0 -0.000136834)
(0.000764746 0 -0.000132228)
(0.000768316 0 -0.000131166)
(0.000779353 0 -0.000124924)
(0.000787962 0 -9.93586e-05)
(0.000787133 0 -0.000105776)
(0.000798674 0 -9.24233e-05)
(0.00080544 0 -4.96393e-05)
(0.000790684 0 -5.01904e-05)
(0.000763913 0 -7.86495e-06)
(0.000746938 0 6.76306e-05)
(0.00073619 0 5.86553e-05)
(0.000708451 0 7.23518e-05)
(0.000671417 0 0.000107285)
(0.000649629 0 0.000173129)
(0.00063597 0 0.000232727)
(0.000649487 0 0.00025568)
(0.000601182 0 0.000408296)
(0.000537764 0 0.000574863)
(0.000507305 0 0.000702066)
(0.000526168 0 0.000759327)
(0.000576492 0 0.000789618)
(0.000644537 0 0.000808531)
(0.000605178 0 0.000871757)
(0.000585077 0 0.000873078)
(0.000524324 0 0.00083381)
(0.000519091 0 0.000719511)
(9.43236e-05 0 0.000707861)
(-5.80175e-05 0 0.000848081)
(6.22216e-06 0 0.000219987)
(-2.39549e-12 0 1.72203e-12)
(-4.25511e-12 0 6.28851e-13)
(-2.45811e-12 0 1.84696e-13)
(-2.33922e-12 0 -1.55934e-13)
(-2.25775e-12 0 -4.42699e-13)
(-2.14727e-12 0 -6.92488e-13)
(-1.99664e-12 0 -9.10266e-13)
(-1.80793e-12 0 -1.0965e-12)
(-1.58701e-12 0 -1.24976e-12)
(-1.34094e-12 0 -1.36831e-12)
(-1.07731e-12 0 -1.45088e-12)
(-8.03884e-13 0 -1.49706e-12)
(-5.28295e-13 0 -1.50758e-12)
(-2.57739e-13 0 -1.4843e-12)
(1.29589e-15 0 -1.43012e-12)
(2.43253e-13 0 -1.34879e-12)
(4.63658e-13 0 -1.24468e-12)
(6.59186e-13 0 -1.12249e-12)
(8.27649e-13 0 -9.86956e-13)
(9.67914e-13 0 -8.42677e-13)
(1.07978e-12 0 -6.9388e-13)
(1.16383e-12 0 -5.44307e-13)
(1.22124e-12 0 -3.97141e-13)
(1.25366e-12 0 -2.54976e-13)
(1.26303e-12 0 -1.19831e-13)
(1.25147e-12 0 6.80784e-15)
(1.22118e-12 0 1.2393e-13)
(1.17431e-12 0 2.30929e-13)
(1.11297e-12 0 3.27533e-13)
(1.03911e-12 0 4.13728e-13)
(9.5455e-13 0 4.89692e-13)
(8.60955e-13 0 5.55739e-13)
(7.59819e-13 0 6.12259e-13)
(6.52486e-13 0 6.5968e-13)
(5.4016e-13 0 6.98429e-13)
(4.23921e-13 0 7.289e-13)
(3.04748e-13 0 7.51436e-13)
(1.83537e-13 0 7.66306e-13)
(6.12649e-14 0 7.73697e-13)
(-0.000150618 0 0.00111919)
(-0.000220945 0 0.00127454)
(-0.000171755 0 0.00137088)
(-0.000441708 0 0.00121612)
(-0.000427564 0 0.00109551)
(-0.000454179 0 0.00092687)
(-0.000502023 0 0.000783104)
(-0.000376839 0 0.000781456)
(-0.000467057 0 0.000637591)
(-0.000735733 0 0.00017279)
(-0.000523726 0 0.000427635)
(-0.000610188 0 0.000305418)
(-0.000698425 0 7.92242e-05)
(-0.00069728 0 -0.000208329)
(-0.000824795 0 -9.34934e-05)
(-0.000889632 0 -9.52362e-05)
(-0.000835748 0 -0.000318248)
(-0.000817668 0 -0.000440987)
(-0.000916003 0 -0.000337429)
(-0.000597242 0 -0.000827381)
(-0.000999351 0 -0.000498758)
(-0.000566851 0 -0.000996165)
(-0.000764247 0 -0.000911455)
(-0.000504944 0 -0.00115423)
(-0.000502533 0 -0.00118948)
(-0.000160179 0 -0.00128196)
(-4.9946e-05 0 -0.00119865)
(5.06365e-06 0 -0.0010801)
(6.80818e-05 0 -0.000948559)
(9.05572e-05 0 -0.00084091)
(8.03981e-05 0 -0.000854566)
(0.000109363 0 -0.000885222)
(0.000127668 0 -0.00089521)
(9.89502e-05 0 -0.000846836)
(-5.13577e-05 0 -0.00075594)
(0.00024226 0 -0.000564105)
(0.000174478 0 -0.000456005)
(0.000277425 0 -0.000303642)
(0.000333084 0 -0.000245005)
(0.000302704 0 -0.000295572)
(0.000369064 0 -0.000239923)
(0.000417537 0 -0.00016065)
(0.000438646 0 -0.000117018)
(0.000443991 0 -0.00010367)
(0.000452505 0 -9.40321e-05)
(0.000462949 0 -0.00010969)
(0.000490807 0 -0.000136355)
(0.000560182 0 -4.56353e-05)
(0.000551641 0 -0.000177993)
(0.000571752 0 -0.00017055)
(0.000601957 0 -0.000153059)
(0.000614453 0 -0.00015462)
(0.000613894 0 -0.000156472)
(0.000619524 0 -0.000156755)
(0.00063471 0 -0.000127154)
(0.000633333 0 -0.000126967)
(0.000621504 0 -0.000160175)
(0.000631757 0 -8.35206e-05)
(0.000629976 0 -2.63367e-05)
(0.000613073 0 -5.90867e-05)
(0.000600871 0 -2.60488e-05)
(0.000591762 0 5.3847e-05)
(0.000581016 0 8.287e-05)
(0.000555474 0 0.000123685)
(0.000524788 0 0.000208961)
(0.000573513 0 0.000153316)
(0.000538155 0 0.000276871)
(0.000514471 0 0.000366847)