0.010101 	-7.20422e-09 	-1.51078e-13 	-2.12396e-11
0.020202 	-8.57695e-10 	1.93559e-13 	-1.2382e-11
