/*--------------------------------*- C++ -*----------------------------------*\
  =========                 |
  \\      /  F ield         | OpenFOAM: The Open Source CFD Toolbox
   \\    /   O peration     | Website:  https://openfoam.org
    \\  /    A nd           | Version:  6
     \\/     M anipulation  |
\*---------------------------------------------------------------------------*/
FoamFile
{
    version     2.0;
    format      ascii;
    class       volVectorField;
    location    "600";
    object      U;
}
// * * * * * * * * * * * * * * * * * * * * * * * * * * * * * * * * * * * * * //

dimensions      [0 1 -1 0 0 0 0];

internalField   nonuniform List<vector> 
4800
(
(-3.96268e-08 0 4.04698e-08)
(-1.20118e-07 0 3.84449e-08)
(-1.98676e-07 0 3.70387e-08)
(-2.75305e-07 0 3.56819e-08)
(-3.4912e-07 0 3.41201e-08)
(-4.19393e-07 0 3.23008e-08)
(-4.85475e-07 0 3.02202e-08)
(-5.46786e-07 0 2.78929e-08)
(-6.0283e-07 0 2.5353e-08)
(-6.53196e-07 0 2.26239e-08)
(-6.97558e-07 0 1.97534e-08)
(-7.35692e-07 0 1.67759e-08)
(-7.67451e-07 0 1.37271e-08)
(-7.92777e-07 0 1.06446e-08)
(-8.11705e-07 0 7.55389e-09)
(-8.24243e-07 0 4.56066e-09)
(-8.30807e-07 0 1.69524e-09)
(-8.31462e-07 0 -1.25735e-09)
(-8.26316e-07 0 -3.97387e-09)
(-8.1587e-07 0 -6.41922e-09)
(-8.00946e-07 0 -8.39948e-09)
(-7.81317e-07 0 -1.11554e-08)
(-7.57124e-07 0 -1.29291e-08)
(-7.29531e-07 0 -1.46114e-08)
(-6.98693e-07 0 -1.61681e-08)
(-6.64919e-07 0 -1.74817e-08)
(-6.28797e-07 0 -1.85478e-08)
(-5.90714e-07 0 -1.94189e-08)
(-5.51069e-07 0 -2.00906e-08)
(-5.1025e-07 0 -2.0576e-08)
(-4.68625e-07 0 -2.08816e-08)
(-4.26541e-07 0 -2.10238e-08)
(-3.84325e-07 0 -2.10035e-08)
(-3.42278e-07 0 -2.08465e-08)
(-3.00675e-07 0 -2.05546e-08)
(-2.59767e-07 0 -2.01481e-08)
(-2.19774e-07 0 -1.9634e-08)
(-1.80918e-07 0 -1.90258e-08)
(-1.43326e-07 0 -1.83479e-08)
(-1.07188e-07 0 -1.75941e-08)
(-7.26136e-08 0 -1.6787e-08)
(-3.97081e-08 0 -1.59301e-08)
(-8.56007e-09 0 -1.50392e-08)
(2.07631e-08 0 -1.41153e-08)
(4.82147e-08 0 -1.31744e-08)
(7.37625e-08 0 -1.22229e-08)
(9.73863e-08 0 -1.1262e-08)
(1.19077e-07 0 -1.02997e-08)
(1.38843e-07 0 -9.34914e-09)
(1.56697e-07 0 -8.39975e-09)
(1.72662e-07 0 -7.46904e-09)
(1.86763e-07 0 -6.54852e-09)
(1.9903e-07 0 -5.64548e-09)
(2.09497e-07 0 -4.76007e-09)
(2.18208e-07 0 -3.89837e-09)
(2.25201e-07 0 -3.05401e-09)
(2.30524e-07 0 -2.22899e-09)
(2.34195e-07 0 -1.42499e-09)
(2.36299e-07 0 -6.51801e-10)
(2.36852e-07 0 9.83736e-11)
(2.35926e-07 0 8.3002e-10)
(2.33549e-07 0 1.53063e-09)
(2.29791e-07 0 2.20837e-09)
(2.24696e-07 0 2.85634e-09)
(2.18327e-07 0 3.47261e-09)
(2.10752e-07 0 4.05346e-09)
(2.02045e-07 0 4.59554e-09)
(1.92288e-07 0 5.09369e-09)
(1.81581e-07 0 5.53533e-09)
(1.7004e-07 0 5.92272e-09)
(1.57794e-07 0 6.22799e-09)
(1.45032e-07 0 6.4334e-09)
(1.32029e-07 0 6.4686e-09)
(1.19323e-07 0 6.16014e-09)
(1.08159e-07 0 4.98414e-09)
(1.02117e-07 0 1.11488e-09)
(1.11633e-07 0 -1.14028e-08)
(5.52771e-08 0 3.35811e-08)
(-2.61503e-11 0 2.57125e-08)
(1.02287e-14 0 -9.49832e-15)
(1.09888e-15 0 -8.6854e-19)
(2.19495e-15 0 2.42984e-18)
(2.18677e-15 0 5.59381e-18)
(2.17216e-15 0 8.72676e-18)
(2.15149e-15 0 1.17149e-17)
(2.12502e-15 0 1.45894e-17)
(2.09306e-15 0 1.73294e-17)
(2.05596e-15 0 1.9873e-17)
(2.01407e-15 0 2.22201e-17)
(1.96774e-15 0 2.43812e-17)
(1.9174e-15 0 2.63147e-17)
(1.86348e-15 0 2.80414e-17)
(1.80642e-15 0 2.95717e-17)
(1.74663e-15 0 3.08538e-17)
(1.6845e-15 0 3.19602e-17)
(1.62044e-15 0 3.28908e-17)
(1.55482e-15 0 3.36249e-17)
(1.48796e-15 0 3.42039e-17)
(1.42017e-15 0 3.46382e-17)
(1.35174e-15 0 3.4938e-17)
(1.28292e-15 0 3.50931e-17)
(1.2139e-15 0 3.51655e-17)
(1.14486e-15 0 3.51448e-17)
(1.07592e-15 0 3.50518e-17)
(1.00729e-15 0 3.4938e-17)
(9.39036e-16 0 3.47209e-17)
(8.71197e-16 0 3.44831e-17)
(8.03854e-16 0 3.42453e-17)
(7.37028e-16 0 3.39661e-17)
(6.7075e-16 0 3.36973e-17)
(6.05041e-16 0 3.34284e-17)
(5.39828e-16 0 3.31596e-17)
(4.75102e-16 0 3.29011e-17)
(4.1085e-16 0 3.26426e-17)
(3.47013e-16 0 3.24255e-17)
(2.83527e-16 0 3.226e-17)
(2.2032e-16 0 3.21153e-17)
(1.5735e-16 0 3.20016e-17)
(9.45054e-17 0 3.19499e-17)
(3.15466e-17 0 3.20429e-17)
(-3.99842e-08 0 1.20958e-07)
(-1.21302e-07 0 1.21125e-07)
(-2.00789e-07 0 1.19078e-07)
(-2.7826e-07 0 1.15454e-07)
(-3.52834e-07 0 1.10561e-07)
(-4.23785e-07 0 1.04578e-07)
(-4.90462e-07 0 9.76369e-08)
(-5.52283e-07 0 8.98586e-08)
(-6.0874e-07 0 8.13878e-08)
(-6.59423e-07 0 7.23599e-08)
(-7.04012e-07 0 6.29268e-08)
(-7.42274e-07 0 5.32257e-08)
(-7.74064e-07 0 4.33872e-08)
(-7.99335e-07 0 3.35338e-08)
(-8.18128e-07 0 2.37446e-08)
(-8.3048e-07 0 1.44016e-08)
(-8.36808e-07 0 5.45818e-09)
(-8.37123e-07 0 -3.65965e-09)
(-8.31636e-07 0 -1.19565e-08)
(-8.20858e-07 0 -1.93436e-08)
(-8.05553e-07 0 -2.54389e-08)
(-7.85401e-07 0 -3.36684e-08)
(-7.60826e-07 0 -3.90628e-08)
(-7.32802e-07 0 -4.41122e-08)
(-7.01521e-07 0 -4.88518e-08)
(-6.6731e-07 0 -5.27889e-08)
(-6.30778e-07 0 -5.60191e-08)
(-5.92288e-07 0 -5.86522e-08)
(-5.52251e-07 0 -6.06913e-08)
(-5.11055e-07 0 -6.21597e-08)
(-4.69078e-07 0 -6.30868e-08)
(-4.26671e-07 0 -6.35123e-08)
(-3.84158e-07 0 -6.34587e-08)
(-3.41837e-07 0 -6.2982e-08)
(-2.99986e-07 0 -6.21023e-08)
(-2.58852e-07 0 -6.08758e-08)
(-2.18657e-07 0 -5.93216e-08)
(-1.79627e-07 0 -5.7477e-08)
(-1.41888e-07 0 -5.54273e-08)
(-1.05621e-07 0 -5.31534e-08)
(-7.09392e-08 0 -5.07017e-08)
(-3.79494e-08 0 -4.81141e-08)
(-6.73585e-09 0 -4.5415e-08)
(2.26349e-08 0 -4.26231e-08)
(5.01191e-08 0 -3.97758e-08)
(7.56846e-08 0 -3.68941e-08)
(9.93156e-08 0 -3.39929e-08)
(1.2101e-07 0 -3.10868e-08)
(1.40768e-07 0 -2.8206e-08)
(1.58603e-07 0 -2.53382e-08)
(1.7454e-07 0 -2.25226e-08)
(1.88606e-07 0 -1.97408e-08)
(2.00836e-07 0 -1.70155e-08)
(2.11266e-07 0 -1.4339e-08)
(2.19934e-07 0 -1.17353e-08)
(2.26883e-07 0 -9.18839e-09)
(2.32159e-07 0 -6.69507e-09)
(2.35787e-07 0 -4.27509e-09)
(2.37847e-07 0 -1.93358e-09)
(2.38346e-07 0 3.30182e-10)
(2.37376e-07 0 2.5352e-09)
(2.34949e-07 0 4.66311e-09)
(2.31128e-07 0 6.7138e-09)
(2.25971e-07 0 8.6719e-09)
(2.19534e-07 0 1.05466e-08)
(2.11879e-07 0 1.23083e-08)
(2.03088e-07 0 1.39524e-08)
(1.9324e-07 0 1.54719e-08)
(1.82422e-07 0 1.68254e-08)
(1.70747e-07 0 1.80152e-08)
(1.58322e-07 0 1.89803e-08)
(1.45275e-07 0 1.96803e-08)
(1.31739e-07 0 1.99698e-08)
(1.17786e-07 0 1.9546e-08)
(1.03137e-07 0 1.75838e-08)
(8.61137e-08 0 1.19212e-08)
(5.72086e-08 0 -3.77327e-09)
(3.60144e-08 0 7.68255e-08)
(-2.63683e-11 0 6.49538e-08)
(9.8624e-15 0 -2.81326e-14)
(1.10217e-15 0 -2.56426e-18)
(2.20141e-15 0 7.23783e-18)
(2.19305e-15 0 1.68331e-17)
(2.17827e-15 0 2.62526e-17)
(2.15736e-15 0 3.52999e-17)
(2.13063e-15 0 4.3975e-17)
(2.09834e-15 0 5.22365e-17)
(2.06086e-15 0 5.99396e-17)
(2.01857e-15 0 6.70533e-17)
(1.97183e-15 0 7.35881e-17)
(1.92108e-15 0 7.943e-17)
(1.86673e-15 0 8.46619e-17)
(1.80923e-15 0 8.92425e-17)
(1.74902e-15 0 9.31612e-17)
(1.68653e-15 0 9.64906e-17)
(1.62211e-15 0 9.9272e-17)
(1.55614e-15 0 1.01485e-16)
(1.48898e-15 0 1.03232e-16)
(1.4209e-15 0 1.04525e-16)
(1.35219e-15 0 1.05414e-16)
(1.28314e-15 0 1.0592e-16)
(1.21396e-15 0 1.06138e-16)
(1.14475e-15 0 1.06055e-16)
(1.0757e-15 0 1.05796e-16)
(1.00696e-15 0 1.05362e-16)
(9.38602e-16 0 1.04752e-16)
(8.70732e-16 0 1.04049e-16)
(8.03337e-16 0 1.03294e-16)
(7.3648e-16 0 1.02457e-16)
(6.70202e-16 0 1.01588e-16)
(6.04493e-16 0 1.00751e-16)
(5.39301e-16 0 9.99027e-17)
(4.74595e-16 0 9.91066e-17)
(4.10375e-16 0 9.83518e-17)
(3.4662e-16 0 9.76797e-17)
(2.83216e-16 0 9.71214e-17)
(2.20061e-16 0 9.66354e-17)
(1.57195e-16 0 9.62735e-17)
(9.45468e-17 0 9.60667e-17)
(3.16293e-17 0 9.60874e-17)
(-4.10113e-08 0 2.02533e-07)
(-1.24128e-07 0 2.00324e-07)
(-2.05029e-07 0 1.96039e-07)
(-2.83884e-07 0 1.89784e-07)
(-3.59799e-07 0 1.81663e-07)
(-4.32011e-07 0 1.71828e-07)
(-4.99818e-07 0 1.60439e-07)
(-5.62616e-07 0 1.47697e-07)
(-6.19894e-07 0 1.33802e-07)
(-6.7123e-07 0 1.18986e-07)
(-7.16295e-07 0 1.03475e-07)
(-7.54859e-07 0 8.74958e-08)
(-7.86786e-07 0 7.12633e-08)
(-8.12031e-07 0 5.49754e-08)
(-8.30641e-07 0 3.87522e-08)
(-8.42697e-07 0 2.33507e-08)
(-8.48607e-07 0 8.35986e-09)
(-8.48312e-07 0 -6.81098e-09)
(-8.42211e-07 0 -2.0575e-08)
(-8.30817e-07 0 -3.26412e-08)
(-8.14753e-07 0 -4.35011e-08)
(-7.93555e-07 0 -5.66987e-08)
(-7.68222e-07 0 -6.5816e-08)
(-7.39335e-07 0 -7.42063e-08)
(-7.07156e-07 0 -8.21982e-08)
(-6.72072e-07 0 -8.86558e-08)
(-6.34702e-07 0 -9.40369e-08)
(-5.95397e-07 0 -9.83948e-08)
(-5.54579e-07 0 -1.01765e-07)
(-5.12648e-07 0 -1.0417e-07)
(-4.69979e-07 0 -1.05672e-07)
(-4.26919e-07 0 -1.06338e-07)
(-3.83799e-07 0 -1.0621e-07)
(-3.40924e-07 0 -1.05368e-07)
(-2.98571e-07 0 -1.03861e-07)
(-2.56993e-07 0 -1.01767e-07)
(-2.16405e-07 0 -9.91419e-08)
(-1.77026e-07 0 -9.60229e-08)
(-1.38976e-07 0 -9.25716e-08)
(-1.02462e-07 0 -8.87452e-08)
(-6.75695e-08 0 -8.46226e-08)
(-3.44087e-08 0 -8.02777e-08)
(-3.07304e-09 0 -7.57452e-08)
(2.6392e-08 0 -7.10736e-08)
(5.39453e-08 0 -6.631e-08)
(7.9551e-08 0 -6.14818e-08)
(1.03189e-07 0 -5.66296e-08)
(1.24867e-07 0 -5.17794e-08)
(1.44595e-07 0 -4.69588e-08)
(1.62388e-07 0 -4.21798e-08)
(1.78269e-07 0 -3.74692e-08)
(1.92269e-07 0 -3.28364e-08)
(2.04427e-07 0 -2.82894e-08)
(2.1478e-07 0 -2.38336e-08)
(2.23368e-07 0 -1.94867e-08)
(2.30231e-07 0 -1.52494e-08)
(2.3542e-07 0 -1.10897e-08)
(2.38957e-07 0 -7.07024e-09)
(2.40933e-07 0 -3.15745e-09)
(2.41333e-07 0 6.12755e-10)
(2.4026e-07 0 4.2807e-09)
(2.37724e-07 0 7.83704e-09)
(2.33789e-07 0 1.12515e-08)
(2.28509e-07 0 1.45165e-08)
(2.21935e-07 0 1.76465e-08)
(2.14137e-07 0 2.05858e-08)
(2.0518e-07 0 2.3334e-08)
(1.95145e-07 0 2.58756e-08)
(1.84117e-07 0 2.81529e-08)
(1.72194e-07 0 3.01647e-08)
(1.5946e-07 0 3.18533e-08)
(1.46001e-07 0 3.31602e-08)
(1.31863e-07 0 3.3994e-08)
(1.16922e-07 0 3.42085e-08)
(1.00597e-07 0 3.36463e-08)
(8.12405e-08 0 3.2296e-08)
(5.36498e-08 0 3.17104e-08)
(3.03811e-08 0 9.06916e-08)
(-2.64058e-11 0 8.89582e-08)
(9.69659e-15 0 -4.62693e-14)
(1.10867e-15 0 -4.19794e-18)
(2.21435e-15 0 1.21285e-17)
(2.20578e-15 0 2.82689e-17)
(2.19062e-15 0 4.40474e-17)
(2.16922e-15 0 5.93192e-17)
(2.14193e-15 0 7.39189e-17)
(2.10901e-15 0 8.77639e-17)
(2.0708e-15 0 1.00699e-16)
(2.02772e-15 0 1.12652e-16)
(1.98012e-15 0 1.23581e-16)
(1.92848e-15 0 1.33404e-16)
(1.87326e-15 0 1.4213e-16)
(1.81492e-15 0 1.49771e-16)
(1.75389e-15 0 1.56347e-16)
(1.69058e-15 0 1.6191e-16)
(1.62542e-15 0 1.66511e-16)
(1.55879e-15 0 1.70192e-16)
(1.491e-15 0 1.73046e-16)
(1.42236e-15 0 1.75176e-16)
(1.35315e-15 0 1.76603e-16)
(1.28365e-15 0 1.77441e-16)
(1.21404e-15 0 1.77761e-16)
(1.14452e-15 0 1.77596e-16)
(1.07523e-15 0 1.7713e-16)
(1.00627e-15 0 1.76314e-16)
(9.37733e-16 0 1.7528e-16)
(8.69739e-16 0 1.7407e-16)
(8.02262e-16 0 1.72715e-16)
(7.35333e-16 0 1.71288e-16)
(6.69034e-16 0 1.698e-16)
(6.03325e-16 0 1.68331e-16)
(5.38174e-16 0 1.66873e-16)
(4.73561e-16 0 1.65509e-16)
(4.09434e-16 0 1.64216e-16)
(3.45772e-16 0 1.63079e-16)
(2.82462e-16 0 1.62034e-16)
(2.19461e-16 0 1.61197e-16)
(1.56771e-16 0 1.60556e-16)
(9.42986e-17 0 1.60122e-16)
(3.15569e-17 0 1.59884e-16)
(-4.22168e-08 0 2.87033e-07)
(-1.27888e-07 0 2.84035e-07)
(-2.11308e-07 0 2.78036e-07)
(-2.92541e-07 0 2.69158e-07)
(-3.70655e-07 0 2.57584e-07)
(-4.44857e-07 0 2.43535e-07)
(-5.14431e-07 0 2.27253e-07)
(-5.78746e-07 0 2.09045e-07)
(-6.37269e-07 0 1.89205e-07)
(-6.89572e-07 0 1.68064e-07)
(-7.35328e-07 0 1.45951e-07)
(-7.74313e-07 0 1.2319e-07)
(-8.06397e-07 0 1.00094e-07)
(-8.3154e-07 0 7.69392e-08)
(-8.49809e-07 0 5.38975e-08)
(-8.61369e-07 0 3.22404e-08)
(-8.66569e-07 0 1.07048e-08)
(-8.65271e-07 0 -1.05947e-08)
(-8.58218e-07 0 -3.00878e-08)
(-8.4595e-07 0 -4.66653e-08)
(-8.28645e-07 0 -6.2807e-08)
(-8.05809e-07 0 -8.06346e-08)
(-7.79341e-07 0 -9.36215e-08)
(-7.49127e-07 0 -1.05384e-07)
(-7.15577e-07 0 -1.16712e-07)
(-6.79201e-07 0 -1.25579e-07)
(-6.40568e-07 0 -1.33103e-07)
(-6.00032e-07 0 -1.3915e-07)
(-5.58035e-07 0 -1.43803e-07)
(-5.14984e-07 0 -1.47094e-07)
(-4.71256e-07 0 -1.49125e-07)
(-4.27214e-07 0 -1.49967e-07)
(-3.83192e-07 0 -1.49702e-07)
(-3.39492e-07 0 -1.4843e-07)
(-2.9639e-07 0 -1.46233e-07)
(-2.54135e-07 0 -1.43208e-07)
(-2.12951e-07 0 -1.39447e-07)
(-1.73056e-07 0 -1.34996e-07)
(-1.34554e-07 0 -1.30079e-07)
(-9.76716e-08 0 -1.24635e-07)
(-6.24703e-08 0 -1.18804e-07)
(-2.90574e-08 0 -1.12638e-07)
(2.46947e-09 0 -1.06231e-07)
(3.20752e-08 0 -9.96371e-08)
(5.97134e-08 0 -9.29172e-08)
(8.53672e-08 0 -8.61093e-08)
(1.09025e-07 0 -7.92771e-08)
(1.30685e-07 0 -7.24498e-08)
(1.50362e-07 0 -6.56708e-08)
(1.68084e-07 0 -5.89632e-08)
(1.83881e-07 0 -5.23416e-08)
(1.97779e-07 0 -4.58415e-08)
(2.09823e-07 0 -3.9467e-08)
(2.20058e-07 0 -3.32255e-08)
(2.28523e-07 0 -2.71289e-08)
(2.35261e-07 0 -2.11936e-08)
(2.40309e-07 0 -1.53577e-08)
(2.43713e-07 0 -9.73984e-09)
(2.45548e-07 0 -4.25025e-09)
(2.45818e-07 0 1.03362e-09)
(2.44589e-07 0 6.17999e-09)
(2.41908e-07 0 1.11739e-08)
(2.37805e-07 0 1.59651e-08)
(2.32348e-07 0 2.05617e-08)
(2.25577e-07 0 2.49615e-08)
(2.1756e-07 0 2.91062e-08)
(2.08363e-07 0 3.29909e-08)
(1.98058e-07 0 3.65857e-08)
(1.86723e-07 0 3.98311e-08)
(1.74447e-07 0 4.27113e-08)
(1.61316e-07 0 4.5195e-08)
(1.47414e-07 0 4.72025e-08)
(1.32799e-07 0 4.87259e-08)
(1.17444e-07 0 4.97945e-08)
(1.01206e-07 0 5.06177e-08)
(8.40632e-08 0 5.19662e-08)
(6.66483e-08 0 5.62307e-08)
(2.80033e-08 0 1.17972e-07)
(-2.65728e-11 0 1.09659e-07)
(9.99949e-15 0 -6.45815e-14)
(1.11851e-15 0 -5.84196e-18)
(2.23388e-15 0 1.72571e-17)
(2.22498e-15 0 4.00976e-17)
(2.20932e-15 0 6.24004e-17)
(2.18722e-15 0 8.40416e-17)
(2.15907e-15 0 1.04721e-16)
(2.12512e-15 0 1.24222e-16)
(2.08576e-15 0 1.42472e-16)
(2.04145e-15 0 1.59305e-16)
(1.99257e-15 0 1.74608e-16)
(1.93961e-15 0 1.88421e-16)
(1.8831e-15 0 2.00622e-16)
(1.82346e-15 0 2.11303e-16)
(1.76117e-15 0 2.20433e-16)
(1.69667e-15 0 2.28157e-16)
(1.63038e-15 0 2.34526e-16)
(1.56269e-15 0 2.39593e-16)
(1.49395e-15 0 2.43501e-16)
(1.42446e-15 0 2.46334e-16)
(1.35448e-15 0 2.48227e-16)
(1.28431e-15 0 2.49281e-16)
(1.21413e-15 0 2.49612e-16)
(1.14411e-15 0 2.49323e-16)
(1.07443e-15 0 2.48547e-16)
(1.00513e-15 0 2.47317e-16)
(9.36348e-16 0 2.45745e-16)
(8.68157e-16 0 2.43936e-16)
(8.00556e-16 0 2.41919e-16)
(7.33575e-16 0 2.39841e-16)
(6.67266e-16 0 2.37732e-16)
(6.01577e-16 0 2.35581e-16)
(5.36468e-16 0 2.33461e-16)
(4.71938e-16 0 2.31476e-16)
(4.07955e-16 0 2.29615e-16)
(3.44448e-16 0 2.27961e-16)
(2.81334e-16 0 2.26451e-16)
(2.18582e-16 0 2.25252e-16)
(1.5611e-16 0 2.24269e-16)
(9.3854e-17 0 2.23608e-16)
(3.13915e-17 0 2.23163e-16)
(-4.39072e-08 0 3.74302e-07)
(-1.33074e-07 0 3.7032e-07)
(-2.1988e-07 0 3.62409e-07)
(-3.04339e-07 0 3.50711e-07)
(-3.85442e-07 0 3.35476e-07)
(-4.62355e-07 0 3.16976e-07)
(-5.34319e-07 0 2.95555e-07)
(-6.00675e-07 0 2.71608e-07)
(-6.60875e-07 0 2.45544e-07)
(-7.14477e-07 0 2.17792e-07)
(-7.61152e-07 0 1.88799e-07)
(-8.0068e-07 0 1.58986e-07)
(-8.32938e-07 0 1.28757e-07)
(-8.57904e-07 0 9.84781e-08)
(-8.75705e-07 0 6.84262e-08)
(-8.86585e-07 0 4.0394e-08)
(-8.90768e-07 0 1.19036e-08)
(-8.88156e-07 0 -1.55557e-08)
(-8.79823e-07 0 -4.06383e-08)
(-8.66154e-07 0 -6.05424e-08)
(-8.47028e-07 0 -8.56742e-08)
(-8.22356e-07 0 -1.05768e-07)
(-7.94189e-07 0 -1.22899e-07)
(-7.6216e-07 0 -1.38226e-07)
(-7.26778e-07 0 -1.52783e-07)
(-6.88688e-07 0 -1.64012e-07)
(-6.48322e-07 0 -1.73643e-07)
(-6.06126e-07 0 -1.8133e-07)
(-5.62544e-07 0 -1.87187e-07)
(-5.1799e-07 0 -1.91295e-07)
(-4.72851e-07 0 -1.93771e-07)
(-4.27498e-07 0 -1.94698e-07)
(-3.82265e-07 0 -1.94208e-07)
(-3.37458e-07 0 -1.92414e-07)
(-2.93355e-07 0 -1.89433e-07)
(-2.50208e-07 0 -1.85393e-07)
(-2.08242e-07 0 -1.80387e-07)
(-1.67657e-07 0 -1.74545e-07)
(-1.28554e-07 0 -1.68064e-07)
(-9.11708e-08 0 -1.60922e-07)
(-5.55805e-08 0 -1.533e-07)
(-2.18385e-08 0 -1.45256e-07)
(9.93643e-09 0 -1.36906e-07)
(3.97204e-08 0 -1.2833e-07)
(6.74708e-08 0 -1.19599e-07)
(9.31822e-08 0 -1.1077e-07)
(1.16844e-07 0 -1.01917e-07)
(1.38473e-07 0 -9.30792e-08)
(1.58088e-07 0 -8.43157e-08)
(1.75713e-07 0 -7.56511e-08)
(1.91389e-07 0 -6.71099e-08)
(2.05151e-07 0 -5.87198e-08)
(2.17045e-07 0 -5.05116e-08)
(2.27116e-07 0 -4.24734e-08)
(2.35409e-07 0 -3.46282e-08)
(2.41975e-07 0 -2.69835e-08)
(2.46846e-07 0 -1.9477e-08)
(2.50084e-07 0 -1.22488e-08)
(2.5172e-07 0 -5.19838e-09)
(2.51826e-07 0 1.62686e-09)
(2.50374e-07 0 8.24883e-09)
(2.47491e-07 0 1.46873e-08)
(2.43171e-07 0 2.08697e-08)
(2.37482e-07 0 2.68051e-08)
(2.30466e-07 0 3.25056e-08)
(2.22163e-07 0 3.78774e-08)
(2.12648e-07 0 4.29184e-08)
(2.0199e-07 0 4.76168e-08)
(1.90268e-07 0 5.18649e-08)
(1.77552e-07 0 5.56704e-08)
(1.63939e-07 0 5.8972e-08)
(1.49541e-07 0 6.17151e-08)
(1.34469e-07 0 6.38926e-08)
(1.18856e-07 0 6.55957e-08)
(1.0286e-07 0 6.70882e-08)
(8.68547e-08 0 6.89576e-08)
(7.03412e-08 0 7.29492e-08)
(2.73182e-08 0 1.58715e-07)
(-2.69889e-11 0 1.31243e-07)
(1.00375e-14 0 -8.31723e-14)
(1.13178e-15 0 -7.49633e-18)
(2.2603e-15 0 2.26751e-17)
(2.25093e-15 0 5.24536e-17)
(2.23457e-15 0 8.15704e-17)
(2.21153e-15 0 1.09726e-16)
(2.1821e-15 0 1.3665e-16)
(2.14676e-15 0 1.62014e-16)
(2.10588e-15 0 1.85702e-16)
(2.05984e-15 0 2.07488e-16)
(2.00922e-15 0 2.27258e-16)
(1.9545e-15 0 2.45001e-16)
(1.89617e-15 0 2.60676e-16)
(1.83474e-15 0 2.74334e-16)
(1.77075e-15 0 2.86018e-16)
(1.70467e-15 0 2.95779e-16)
(1.63687e-15 0 3.03782e-16)
(1.56777e-15 0 3.10141e-16)
(1.49772e-15 0 3.1499e-16)
(1.42708e-15 0 3.18392e-16)
(1.3561e-15 0 3.20615e-16)
(1.28503e-15 0 3.21784e-16)
(1.21408e-15 0 3.22011e-16)
(1.14344e-15 0 3.21463e-16)
(1.07322e-15 0 3.20253e-16)
(1.00347e-15 0 3.18506e-16)
(9.34373e-16 0 3.16304e-16)
(8.65924e-16 0 3.13812e-16)
(7.98167e-16 0 3.11092e-16)
(7.31145e-16 0 3.08249e-16)
(6.64784e-16 0 3.05354e-16)
(5.99086e-16 0 3.0249e-16)
(5.3408e-16 0 2.99667e-16)
(4.69715e-16 0 2.96999e-16)
(4.05908e-16 0 2.94518e-16)
(3.42608e-16 0 2.92253e-16)
(2.79763e-16 0 2.90278e-16)
(2.1728e-16 0 2.88624e-16)
(1.55138e-16 0 2.87311e-16)
(9.31922e-17 0 2.8637e-16)
(3.11123e-17 0 2.8577e-16)
(-4.61102e-08 0 4.65524e-07)
(-1.39793e-07 0 4.60458e-07)
(-2.30908e-07 0 4.50465e-07)
(-3.19483e-07 0 4.3572e-07)
(-4.04412e-07 0 4.16526e-07)
(-4.84785e-07 0 3.93245e-07)
(-5.59798e-07 0 3.66311e-07)
(-6.28755e-07 0 3.36226e-07)
(-6.91074e-07 0 3.03518e-07)
(-7.46308e-07 0 2.68731e-07)
(-7.94117e-07 0 2.32435e-07)
(-8.3429e-07 0 1.95141e-07)
(-8.66716e-07 0 1.57385e-07)
(-8.91392e-07 0 1.19556e-07)
(-9.08667e-07 0 8.21906e-08)
(-9.18643e-07 0 4.77697e-08)
(-9.21321e-07 0 1.16348e-08)
(-9.17126e-07 0 -2.20469e-08)
(-9.07275e-07 0 -5.25769e-08)
(-8.91584e-07 0 -7.76905e-08)
(-8.69922e-07 0 -1.09169e-07)
(-8.43241e-07 0 -1.33019e-07)
(-8.12806e-07 0 -1.54196e-07)
(-7.78439e-07 0 -1.73308e-07)
(-7.40744e-07 0 -1.90664e-07)
(-7.00456e-07 0 -2.04463e-07)
(-6.57902e-07 0 -2.16095e-07)
(-6.13614e-07 0 -2.25344e-07)
(-5.6803e-07 0 -2.32319e-07)
(-5.21577e-07 0 -2.37149e-07)
(-4.74661e-07 0 -2.39955e-07)
(-4.2766e-07 0 -2.40851e-07)
(-3.80905e-07 0 -2.40019e-07)
(-3.34713e-07 0 -2.37585e-07)
(-2.89364e-07 0 -2.33697e-07)
(-2.45105e-07 0 -2.28515e-07)
(-2.02169e-07 0 -2.2214e-07)
(-1.60719e-07 0 -2.1483e-07)
(-1.20896e-07 0 -2.06649e-07)
(-8.28908e-08 0 -1.97708e-07)
(-4.68093e-08 0 -1.88195e-07)
(-1.26705e-08 0 -1.78189e-07)
(1.93994e-08 0 -1.67812e-07)
(4.93932e-08 0 -1.57177e-07)
(7.72686e-08 0 -1.46367e-07)
(1.03042e-07 0 -1.3546e-07)
(1.26704e-07 0 -1.24532e-07)
(1.48276e-07 0 -1.13647e-07)
(1.67792e-07 0 -1.02858e-07)
(1.85284e-07 0 -9.22073e-08)
(2.00798e-07 0 -8.17237e-08)
(2.14381e-07 0 -7.1435e-08)
(2.26083e-07 0 -6.13765e-08)
(2.3595e-07 0 -5.15336e-08)
(2.44031e-07 0 -4.19298e-08)
(2.50372e-07 0 -3.25821e-08)
(2.55016e-07 0 -2.33841e-08)
(2.58028e-07 0 -1.45585e-08)
(2.59445e-07 0 -5.94429e-09)
(2.59322e-07 0 2.4278e-09)
(2.57653e-07 0 1.05587e-08)
(2.54493e-07 0 1.84158e-08)
(2.49935e-07 0 2.60289e-08)
(2.43951e-07 0 3.33232e-08)
(2.36623e-07 0 4.03303e-08)
(2.27982e-07 0 4.69751e-08)
(2.18086e-07 0 5.32561e-08)
(2.07008e-07 0 5.90403e-08)
(1.94803e-07 0 6.43469e-08)
(1.81548e-07 0 6.91394e-08)
(1.67352e-07 0 7.33054e-08)
(1.52339e-07 0 7.67887e-08)
(1.36685e-07 0 7.95423e-08)
(1.20648e-07 0 8.15967e-08)
(1.04586e-07 0 8.31138e-08)
(8.91036e-08 0 8.44715e-08)
(7.05907e-08 0 9.22174e-08)
(2.43794e-08 0 2.03152e-07)
(-2.74696e-11 0 1.49015e-07)
(9.78921e-15 0 -1.01496e-13)
(1.14866e-15 0 -9.09899e-18)
(2.29382e-15 0 2.8455e-17)
(2.28388e-15 0 6.55127e-17)
(2.26659e-15 0 1.01764e-16)
(2.24229e-15 0 1.36712e-16)
(2.21133e-15 0 1.7011e-16)
(2.17417e-15 0 2.01543e-16)
(2.13123e-15 0 2.30763e-16)
(2.08299e-15 0 2.57605e-16)
(2.03009e-15 0 2.81965e-16)
(1.97305e-15 0 3.03658e-16)
(1.91243e-15 0 3.22797e-16)
(1.84879e-15 0 3.39382e-16)
(1.78261e-15 0 3.53485e-16)
(1.71445e-15 0 3.65221e-16)
(1.64476e-15 0 3.74734e-16)
(1.57389e-15 0 3.82188e-16)
(1.5022e-15 0 3.87772e-16)
(1.4301e-15 0 3.9167e-16)
(1.35787e-15 0 3.94059e-16)
(1.2857e-15 0 3.95175e-16)
(1.21378e-15 0 3.95134e-16)
(1.14235e-15 0 3.94152e-16)
(1.07148e-15 0 3.92352e-16)
(1.00119e-15 0 3.89933e-16)
(9.31674e-16 0 3.86996e-16)
(8.62946e-16 0 3.83708e-16)
(7.94983e-16 0 3.80141e-16)
(7.27836e-16 0 3.76429e-16)
(6.61496e-16 0 3.72655e-16)
(5.9588e-16 0 3.68923e-16)
(5.30988e-16 0 3.65335e-16)
(4.66799e-16 0 3.61881e-16)
(4.0322e-16 0 3.58686e-16)
(3.40209e-16 0 3.55781e-16)
(2.77695e-16 0 3.53258e-16)
(2.15615e-16 0 3.51138e-16)
(1.53856e-16 0 3.49474e-16)
(9.23134e-17 0 3.48181e-16)
(3.07918e-17 0 3.47395e-16)
(-4.88415e-08 0 5.61807e-07)
(-1.48131e-07 0 5.5557e-07)
(-2.44605e-07 0 5.43299e-07)
(-3.38268e-07 0 5.25222e-07)
(-4.2792e-07 0 5.01692e-07)
(-5.12563e-07 0 4.73186e-07)
(-5.91327e-07 0 4.40243e-07)
(-6.63465e-07 0 4.03491e-07)
(-7.28365e-07 0 3.63581e-07)
(-7.85554e-07 0 3.212e-07)
(-8.34701e-07 0 2.77036e-07)
(-8.7561e-07 0 2.31727e-07)
(-9.08165e-07 0 1.85926e-07)
(-9.32502e-07 0 1.39951e-07)
(-9.49037e-07 0 9.58752e-08)
(-9.57781e-07 0 5.31591e-08)
(-9.58378e-07 0 9.59031e-09)
(-9.52487e-07 0 -3.07489e-08)
(-9.40837e-07 0 -6.57754e-08)
(-9.22466e-07 0 -9.73022e-08)
(-8.97328e-07 0 -1.35557e-07)
(-8.68463e-07 0 -1.62719e-07)
(-8.35193e-07 0 -1.87975e-07)
(-7.97945e-07 0 -2.11077e-07)
(-7.57434e-07 0 -2.31015e-07)
(-7.1445e-07 0 -2.47367e-07)
(-6.6925e-07 0 -2.60918e-07)
(-6.22403e-07 0 -2.71635e-07)
(-5.7438e-07 0 -2.79615e-07)
(-5.25634e-07 0 -2.85029e-07)
(-4.76576e-07 0 -2.88023e-07)
(-4.2758e-07 0 -2.88758e-07)
(-3.78991e-07 0 -2.87432e-07)
(-3.31135e-07 0 -2.84197e-07)
(-2.84294e-07 0 -2.79257e-07)
(-2.38699e-07 0 -2.72787e-07)
(-1.94592e-07 0 -2.64897e-07)
(-1.52116e-07 0 -2.55971e-07)
(-1.11467e-07 0 -2.45978e-07)
(-7.26775e-08 0 -2.35088e-07)
(-3.6045e-08 0 -2.23575e-07)
(-1.45977e-09 0 -2.11491e-07)
(3.09688e-08 0 -1.98979e-07)
(6.11717e-08 0 -1.86195e-07)
(8.91888e-08 0 -1.73228e-07)
(1.15008e-07 0 -1.60171e-07)
(1.38655e-07 0 -1.4711e-07)
(1.60147e-07 0 -1.34118e-07)
(1.79527e-07 0 -1.21265e-07)
(1.96845e-07 0 -1.08594e-07)
(2.12153e-07 0 -9.61412e-08)
(2.25503e-07 0 -8.39373e-08)
(2.36952e-07 0 -7.20108e-08)
(2.46557e-07 0 -6.03573e-08)
(2.54376e-07 0 -4.89939e-08)
(2.60447e-07 0 -3.79062e-08)
(2.64827e-07 0 -2.70736e-08)
(2.67578e-07 0 -1.66219e-08)
(2.68731e-07 0 -6.4414e-09)
(2.6832e-07 0 3.46788e-09)
(2.66396e-07 0 1.31284e-08)
(2.62963e-07 0 2.2455e-08)
(2.58067e-07 0 3.14512e-08)
(2.51773e-07 0 4.01508e-08)
(2.44081e-07 0 4.85059e-08)
(2.35056e-07 0 5.65375e-08)
(2.24718e-07 0 6.39366e-08)
(2.1315e-07 0 7.09484e-08)
(2.00376e-07 0 7.74125e-08)
(1.86484e-07 0 8.32306e-08)
(1.71577e-07 0 8.83191e-08)
(1.55779e-07 0 9.25856e-08)
(1.39281e-07 0 9.58982e-08)
(1.22437e-07 0 9.81266e-08)
(1.05859e-07 0 9.92101e-08)
(9.00841e-08 0 9.95569e-08)
(5.47069e-08 0 1.311e-07)
(2.36361e-08 0 2.4474e-07)
(-2.82387e-11 0 1.62643e-07)
(9.63564e-15 0 -1.19734e-13)
(1.16933e-15 0 -1.0681e-17)
(2.33491e-15 0 3.46485e-17)
(2.32424e-15 0 7.94507e-17)
(2.30576e-15 0 1.23209e-16)
(2.27988e-15 0 1.65374e-16)
(2.24695e-15 0 2.05534e-16)
(2.20744e-15 0 2.43264e-16)
(2.16195e-15 0 2.78233e-16)
(2.11105e-15 0 3.10275e-16)
(2.05528e-15 0 3.39227e-16)
(1.99533e-15 0 3.64973e-16)
(1.93187e-15 0 3.87534e-16)
(1.86542e-15 0 4.06952e-16)
(1.79658e-15 0 4.2333e-16)
(1.72591e-15 0 4.36855e-16)
(1.65383e-15 0 4.47722e-16)
(1.58081e-15 0 4.56097e-16)
(1.50721e-15 0 4.62239e-16)
(1.43338e-15 0 4.66406e-16)
(1.35961e-15 0 4.68794e-16)
(1.2861e-15 0 4.69621e-16)
(1.21305e-15 0 4.69094e-16)
(1.14064e-15 0 4.6746e-16)
(1.06899e-15 0 4.64896e-16)
(9.98118e-16 0 4.61629e-16)
(9.28138e-16 0 4.57793e-16)
(8.59048e-16 0 4.53533e-16)
(7.90888e-16 0 4.48983e-16)
(7.23649e-16 0 4.44279e-16)
(6.57278e-16 0 4.39512e-16)
(5.91755e-16 0 4.34766e-16)
(5.27028e-16 0 4.30248e-16)
(4.63066e-16 0 4.25936e-16)
(3.99807e-16 0 4.21955e-16)
(3.3719e-16 0 4.18347e-16)
(2.7512e-16 0 4.15183e-16)
(2.13485e-16 0 4.12525e-16)
(1.52181e-16 0 4.10385e-16)
(9.11346e-17 0 4.08772e-16)
(3.03369e-17 0 4.07759e-16)
(-5.21629e-08 0 6.64294e-07)
(-1.58277e-07 0 6.56766e-07)
(-2.61251e-07 0 6.41966e-07)
(-3.61084e-07 0 6.20183e-07)
(-4.56437e-07 0 5.91854e-07)
(-5.46217e-07 0 5.57571e-07)
(-6.29479e-07 0 5.18007e-07)
(-7.05406e-07 0 4.73922e-07)
(-7.73351e-07 0 4.26124e-07)
(-8.32825e-07 0 3.75458e-07)
(-8.83511e-07 0 3.2274e-07)
(-9.252e-07 0 2.68775e-07)
(-9.57785e-07 0 2.1426e-07)
(-9.81839e-07 0 1.59543e-07)
(-9.97307e-07 0 1.08689e-07)
(-1.0042e-06 0 5.6162e-08)
(-1.00255e-06 0 5.96454e-09)
(-9.94731e-07 0 -4.14565e-08)
(-9.80359e-07 0 -7.86447e-08)
(-9.58373e-07 0 -1.25401e-07)
(-9.29955e-07 0 -1.62478e-07)
(-8.98025e-07 0 -1.9562e-07)
(-8.61335e-07 0 -2.2467e-07)
(-8.20622e-07 0 -2.5234e-07)
(-7.76881e-07 0 -2.74319e-07)
(-7.3059e-07 0 -2.93219e-07)
(-6.82229e-07 0 -3.08607e-07)
(-6.32351e-07 0 -3.2065e-07)
(-5.81454e-07 0 -3.29498e-07)
(-5.29997e-07 0 -3.35329e-07)
(-4.78407e-07 0 -3.38346e-07)
(-4.27077e-07 0 -3.38741e-07)
(-3.76354e-07 0 -3.36738e-07)
(-3.26552e-07 0 -3.32526e-07)
(-2.7796e-07 0 -3.26349e-07)
(-2.30828e-07 0 -3.18405e-07)
(-1.85365e-07 0 -3.08837e-07)
(-1.41698e-07 0 -2.98116e-07)
(-1.00065e-07 0 -2.86144e-07)
(-6.04817e-08 0 -2.73176e-07)
(-2.31556e-08 0 -2.59485e-07)
(1.18951e-08 0 -2.45209e-07)
(4.47064e-08 0 -2.30435e-07)
(7.51547e-08 0 -2.15394e-07)
(1.03305e-07 0 -2.00164e-07)
(1.29141e-07 0 -1.84885e-07)
(1.52741e-07 0 -1.69613e-07)
(1.74116e-07 0 -1.5446e-07)
(1.93319e-07 0 -1.39488e-07)
(2.10412e-07 0 -1.2476e-07)
(2.25459e-07 0 -1.1031e-07)
(2.38526e-07 0 -9.61678e-08)
(2.49675e-07 0 -8.23634e-08)
(2.58968e-07 0 -6.88906e-08)
(2.66468e-07 0 -5.57664e-08)
(2.72213e-07 0 -4.29298e-08)
(2.76275e-07 0 -3.04951e-08)
(2.7873e-07 0 -1.83829e-08)
(2.79574e-07 0 -6.65973e-09)
(2.78858e-07 0 4.81226e-09)
(2.76616e-07 0 1.59661e-08)
(2.72867e-07 0 2.67649e-08)
(2.67658e-07 0 3.7256e-08)
(2.6098e-07 0 4.73577e-08)
(2.52895e-07 0 5.71408e-08)
(2.43425e-07 0 6.63651e-08)
(2.32613e-07 0 7.51877e-08)
(2.20469e-07 0 8.34523e-08)
(2.07062e-07 0 9.11018e-08)
(1.9245e-07 0 9.80425e-08)
(1.76703e-07 0 1.04162e-07)
(1.59914e-07 0 1.09331e-07)
(1.42227e-07 0 1.13342e-07)
(1.23967e-07 0 1.15814e-07)
(1.06119e-07 0 1.16036e-07)
(9.19238e-08 0 1.12354e-07)
(4.33781e-08 0 1.91418e-07)
(2.29871e-08 0 2.26338e-07)
(-2.82595e-11 0 1.78139e-07)
(9.8422e-15 0 -1.38507e-13)
(1.19401e-15 0 -1.2325e-17)
(2.38397e-15 0 4.14314e-17)
(2.37244e-15 0 9.45261e-17)
(2.35252e-15 0 1.46287e-16)
(2.32463e-15 0 1.96094e-16)
(2.28923e-15 0 2.43388e-16)
(2.24688e-15 0 2.87755e-16)
(2.19824e-15 0 3.28753e-16)
(2.144e-15 0 3.66131e-16)
(2.0848e-15 0 3.99725e-16)
(2.02135e-15 0 4.29493e-16)
(1.95441e-15 0 4.55415e-16)
(1.8846e-15 0 4.77542e-16)
(1.81253e-15 0 4.96091e-16)
(1.73884e-15 0 5.11218e-16)
(1.66399e-15 0 5.23192e-16)
(1.5884e-15 0 5.3227e-16)
(1.5125e-15 0 5.38722e-16)
(1.43665e-15 0 5.42858e-16)
(1.36107e-15 0 5.44926e-16)
(1.286e-15 0 5.45236e-16)
(1.21164e-15 0 5.43995e-16)
(1.13815e-15 0 5.41504e-16)
(1.06562e-15 0 5.37957e-16)
(9.94075e-16 0 5.33625e-16)
(9.23578e-16 0 5.28662e-16)
(8.54136e-16 0 5.23254e-16)
(7.85739e-16 0 5.17546e-16)
(7.18375e-16 0 5.11663e-16)
(6.51994e-16 0 5.05718e-16)
(5.86606e-16 0 4.99917e-16)
(5.22137e-16 0 4.94292e-16)
(4.58506e-16 0 4.88988e-16)
(3.9563e-16 0 4.84097e-16)
(3.33437e-16 0 4.79672e-16)
(2.71874e-16 0 4.75732e-16)
(2.10797e-16 0 4.72424e-16)
(1.50113e-16 0 4.69725e-16)
(8.97077e-17 0 4.6775e-16)
(2.97785e-17 0 4.6652e-16)
(-5.61434e-08 0 7.74271e-07)
(-1.70439e-07 0 7.65292e-07)
(-2.81184e-07 0 7.4765e-07)
(-3.88378e-07 0 7.21697e-07)
(-4.90525e-07 0 6.8799e-07)
(-5.864e-07 0 6.47247e-07)
(-6.74951e-07 0 6.00306e-07)
(-7.55318e-07 0 5.48073e-07)
(-8.26792e-07 0 4.91557e-07)
(-8.88885e-07 0 4.31744e-07)
(-9.41267e-07 0 3.69663e-07)
(-9.83699e-07 0 3.06257e-07)
(-1.01638e-06 0 2.41943e-07)
(-1.03994e-06 0 1.79027e-07)
(-1.05391e-06 0 1.19453e-07)
(-1.05806e-06 0 5.71925e-08)
(-1.05476e-06 0 -1.33555e-09)
(-1.04441e-06 0 -5.39194e-08)
(-1.02564e-06 0 -9.66246e-08)
(-9.99212e-07 0 -1.54459e-07)
(-9.68136e-07 0 -1.93885e-07)
(-9.31991e-07 0 -2.32007e-07)
(-8.91194e-07 0 -2.65785e-07)
(-8.46501e-07 0 -2.96446e-07)
(-7.98947e-07 0 -3.21398e-07)
(-7.48791e-07 0 -3.42557e-07)
(-6.96743e-07 0 -3.59653e-07)
(-6.43337e-07 0 -3.72859e-07)
(-5.89097e-07 0 -3.82391e-07)
(-5.34505e-07 0 -3.88455e-07)
(-4.79997e-07 0 -3.91289e-07)
(-4.25972e-07 0 -3.91127e-07)
(-3.72788e-07 0 -3.88229e-07)
(-3.2077e-07 0 -3.82829e-07)
(-2.70186e-07 0 -3.75205e-07)
(-2.21309e-07 0 -3.655e-07)
(-1.74274e-07 0 -3.54214e-07)
(-1.29302e-07 0 -3.41376e-07)
(-8.65528e-08 0 -3.27255e-07)
(-4.61344e-08 0 -3.12071e-07)
(-7.96499e-09 0 -2.95977e-07)
(2.75831e-08 0 -2.79358e-07)
(6.07364e-08 0 -2.62226e-07)
(9.14929e-08 0 -2.44755e-07)
(1.19722e-07 0 -2.27177e-07)
(1.45575e-07 0 -2.09543e-07)
(1.69053e-07 0 -1.92013e-07)
(1.90258e-07 0 -1.74618e-07)
(2.09222e-07 0 -1.57477e-07)
(2.26025e-07 0 -1.40649e-07)
(2.40744e-07 0 -1.24171e-07)
(2.5346e-07 0 -1.08074e-07)
(2.6424e-07 0 -9.23702e-08)
(2.73162e-07 0 -7.70824e-08)
(2.80277e-07 0 -6.22024e-08)
(2.8566e-07 0 -4.75979e-08)
(2.89378e-07 0 -3.3565e-08)
(2.91483e-07 0 -1.98483e-08)
(2.91992e-07 0 -6.5459e-09)
(2.90928e-07 0 6.48345e-09)
(2.88341e-07 0 1.91464e-08)
(2.84242e-07 0 3.14337e-08)
(2.78661e-07 0 4.33886e-08)
(2.7161e-07 0 5.49707e-08)
(2.63098e-07 0 6.60962e-08)
(2.53158e-07 0 7.68042e-08)