0 	0 	0 	0
0.010101 	-3.60802e-28 	-5.04009e-28 	-1.35325e-27
0.020202 	-1.8353e-27 	-4.21178e-28 	-1.09447e-27
