/*--------------------------------*- C++ -*----------------------------------*\
  =========                 |
  \\      /  F ield         | OpenFOAM: The Open Source CFD Toolbox
   \\    /   O peration     | Website:  https://openfoam.org
    \\  /    A nd           | Version:  6
     \\/     M anipulation  |
\*---------------------------------------------------------------------------*/
FoamFile
{
    version     2.0;
    format      ascii;
    class       surfaceScalarField;
    location    "6600";
    object      phi;
}
// * * * * * * * * * * * * * * * * * * * * * * * * * * * * * * * * * * * * * //

dimensions      [0 3 -1 0 0 0 0];

internalField   nonuniform List<scalar> 
9440
(
5.67532e-14
-5.67534e-14
1.12619e-13
-5.52098e-14
1.66239e-13
-5.30966e-14
2.16412e-13
-4.96745e-14
2.62364e-13
-4.54648e-14
3.03503e-13
-4.06661e-14
3.39312e-13
-3.53484e-14
3.6952e-13
-2.97644e-14
3.9408e-13
-2.41359e-14
4.13202e-13
-1.87207e-14
4.27166e-13
-1.35873e-14
4.36572e-13
-9.05434e-15
4.42171e-13
-5.27543e-15
4.44391e-13
-1.9304e-15
4.43929e-13
7.21177e-16
4.41348e-13
2.80579e-15
4.3776e-13
3.77861e-15
4.35796e-13
2.11598e-15
4.34341e-13
1.56979e-15
4.33455e-13
9.63868e-16
4.33961e-13
-4.65189e-16
4.39993e-13
-6.03102e-15
4.47344e-13
-7.3879e-15
4.57949e-13
-1.06794e-14
4.72469e-13
-1.46305e-14
4.90399e-13
-1.80789e-14
5.11732e-13
-2.15154e-14
5.36399e-13
-2.48864e-14
5.64035e-13
-2.78862e-14
5.94477e-13
-3.07239e-14
6.27303e-13
-3.31352e-14
6.62077e-13
-3.51101e-14
6.98387e-13
-3.66714e-14
7.35648e-13
-3.76429e-14
7.73483e-13
-3.82364e-14
8.11288e-13
-3.82241e-14
8.48659e-13
-3.78047e-14
8.84981e-13
-3.67666e-14
9.19927e-13
-3.53978e-14
9.53001e-13
-3.35288e-14
9.83886e-13
-3.13447e-14
1.01209e-12
-2.8656e-14
1.03741e-12
-2.57753e-14
1.05965e-12
-2.2686e-14
1.07831e-12
-1.9092e-14
1.09333e-12
-1.54448e-14
1.10448e-12
-1.15489e-14
1.11219e-12
-8.09831e-15
1.11589e-12
-4.06384e-15
1.11578e-12
-2.28446e-16
1.11188e-12
3.59368e-15
1.10408e-12
7.5161e-15
1.09267e-12
1.11532e-14
1.07768e-12
1.47661e-14
1.05924e-12
1.82467e-14
1.03769e-12
2.14001e-14
1.01298e-12
2.45957e-14
9.8549e-13
2.74097e-14
9.55109e-13
3.03368e-14
9.22382e-13
3.27205e-14
8.87435e-13
3.49782e-14
8.50431e-13
3.70746e-14
8.11528e-13
3.90139e-14
7.70945e-13
4.07266e-14
7.2885e-13
4.22765e-14
6.85524e-13
4.3542e-14
6.4103e-13
4.47432e-14
5.95569e-13
4.57425e-14
5.4933e-13
4.65528e-14
5.02651e-13
4.70221e-14
4.55683e-13
4.73376e-14
4.08795e-13
4.72822e-14
3.62579e-13
4.66334e-14
3.18521e-13
4.44952e-14
2.80235e-13
3.87428e-14
2.59447e-13
2.12605e-14
2.95297e-13
-3.53694e-14
1.4773e-13
1.48058e-13
-3.10241e-16
1.48539e-13
2.07458e-21
-9.59533e-23
2.07591e-21
-7.75482e-25
2.08429e-21
-5.48007e-24
2.11893e-21
3.61892e-25
2.14286e-21
7.65142e-24
2.15398e-21
1.46308e-23
2.15341e-21
2.0938e-23
2.14255e-21
2.65732e-23
2.12311e-21
3.18465e-23
2.09597e-21
3.6551e-23
2.06247e-21
4.07386e-23
2.02334e-21
4.4461e-23
1.97898e-21
4.78214e-23
1.93059e-21
5.07682e-23
1.87858e-21
5.34566e-23
1.82331e-21
5.5783e-23
1.76526e-21
5.78509e-23
1.70461e-21
5.96604e-23
1.64211e-21
6.12631e-23
1.57764e-21
6.27106e-23
1.51152e-21
6.41065e-23
1.44395e-21
6.52439e-23
1.37508e-21
6.62779e-23
1.30498e-21
6.72601e-23
1.23374e-21
6.81907e-23
1.16157e-21
6.91213e-23
1.08831e-21
6.98968e-23
1.01423e-21
7.07239e-23
9.39315e-22
7.13443e-23
8.63577e-22
7.18613e-23
7.87166e-22
7.25334e-23
7.0998e-22
7.31538e-23
6.3238e-22
7.36191e-23
5.54056e-22
7.3981e-23
4.75319e-22
7.43946e-23
3.96168e-22
7.47048e-23
3.16707e-22
7.48599e-23
2.37194e-22
7.49633e-23
1.57526e-22
7.50149e-23
7.81169e-23
7.46531e-23
7.33089e-23
5.8901e-14
-1.15e-13
1.15318e-13
-1.10586e-13
1.69085e-13
-1.05968e-13
2.19675e-13
-9.93977e-14
2.66153e-13
-9.10984e-14
3.07666e-13
-8.13575e-14
3.43719e-13
-7.06144e-14
3.74008e-13
-5.93021e-14
3.98521e-13
-4.79355e-14
4.17304e-13
-3.68348e-14
4.30904e-13
-2.65693e-14
4.39834e-13
-1.7416e-14
4.44782e-13
-9.71054e-15
4.46265e-13
-2.9567e-15
4.4513e-13
2.24998e-15
4.4138e-13
6.88747e-15
4.37481e-13
7.94307e-15
4.34856e-13
4.94044e-15
4.32577e-13
3.98049e-15
4.30922e-13
2.68421e-15
4.31515e-13
-1.06042e-15
4.36732e-13
-1.13219e-14
4.43929e-13
-1.47267e-14
4.54325e-13
-2.12842e-14
4.68936e-13
-2.95119e-14
4.8694e-13
-3.64189e-14
5.08374e-13
-4.33448e-14
5.33314e-13
-5.02807e-14
5.61264e-13
-5.6339e-14
5.92079e-13
-6.20991e-14
6.2535e-13
-6.70102e-14
6.60602e-13
-7.10093e-14
6.9739e-13
-7.41446e-14
7.35185e-13
-7.61572e-14
7.73428e-13
-7.72282e-14
8.11786e-13
-7.73542e-14
8.4958e-13
-7.63901e-14
8.86386e-13
-7.43779e-14
9.21755e-13
-7.15782e-14
9.5525e-13
-6.78386e-14
9.86392e-13
-6.33003e-14
1.01503e-12
-5.80941e-14
1.04062e-12
-5.21601e-14
1.06304e-12
-4.58756e-14
1.08194e-12
-3.87371e-14
1.09711e-12
-3.13281e-14
1.10839e-12
-2.35124e-14
1.11606e-12
-1.64056e-14
1.11989e-12
-8.49461e-15
1.11973e-12
-6.28352e-16
1.11579e-12
7.03633e-15
1.10787e-12
1.49902e-14
1.0963e-12
2.23347e-14
1.08122e-12
2.95166e-14
1.06265e-12
3.65452e-14
1.04088e-12
4.2969e-14
1.01603e-12
4.93107e-14
9.88235e-13
5.51347e-14
9.57701e-13
6.08712e-14
9.24791e-13
6.56967e-14
8.89638e-13
7.02655e-14
8.52484e-13
7.4427e-14
8.13402e-13
7.8361e-14
7.72628e-13
8.18299e-14
7.30418e-13
8.48783e-14
6.86859e-13
8.75535e-14
6.42107e-13
9.00058e-14
5.96458e-13
9.19563e-14
5.50111e-13
9.35183e-14
5.03144e-13
9.46481e-14
4.5578e-13
9.54086e-14
4.08284e-13
9.55278e-14
3.609e-13
9.48014e-14
3.13547e-13
9.26616e-14
2.65245e-13
8.78847e-14
2.08876e-13
7.84925e-14
1.13833e-13
6.0551e-14
6.41886e-14
1.98593e-13
-2.40139e-16
2.13672e-13
2.06631e-21
-2.68008e-22
2.07116e-21
-2.84343e-24
2.09018e-21
7.03104e-24
2.12627e-21
1.83014e-23
2.14979e-21
2.95717e-23
2.16023e-21
4.03768e-23
2.15905e-21
5.05097e-23
2.14783e-21
5.99706e-23
2.12772e-21
6.86043e-23
2.10021e-21
7.66693e-23
2.06619e-21
8.40105e-23
2.02664e-21
9.06797e-23
1.98203e-21
9.64699e-23
1.93333e-21
1.01743e-22
1.88091e-21
1.065e-22
1.82533e-21
1.10791e-22
1.76701e-21
1.14565e-22
1.70622e-21
1.17925e-22
1.64356e-21
1.20923e-22
1.57898e-21
1.2356e-22
1.51271e-21
1.25938e-22
1.44503e-21
1.28213e-22
1.37607e-21
1.30229e-22
1.30591e-21
1.3209e-22
1.23462e-21
1.33848e-22
1.16234e-21
1.35503e-22
1.08909e-21
1.3695e-22
1.01485e-21
1.38294e-22
9.39832e-22
1.39587e-22
8.64197e-22
1.40828e-22
7.87735e-22
1.41965e-22
7.10548e-22
1.42895e-22
6.3269e-22
1.43774e-22
5.5447e-22
1.4455e-22
4.75629e-22
1.4517e-22
3.96375e-22
1.45739e-22
3.1681e-22
1.46152e-22
2.37246e-22
1.46411e-22
1.57216e-22
1.46463e-22
7.68244e-23
1.46463e-22
1.46411e-22
5.9365e-14
-1.73842e-13
1.18985e-13
-1.69302e-13
1.75884e-13
-1.62087e-13
2.2885e-13
-1.51612e-13
2.77049e-13
-1.38564e-13
3.19792e-13
-1.23389e-13
3.5646e-13
-1.06599e-13
3.86886e-13
-8.90729e-14
4.10967e-13
-7.13941e-14
4.29051e-13
-5.4334e-14
4.41401e-13
-3.83768e-14
4.48899e-13
-2.44153e-14
4.52106e-13
-1.24688e-14
4.51833e-13
-2.28254e-15
4.48619e-13
5.8138e-15
4.42491e-13
1.33086e-14
4.37612e-13
1.30596e-14
4.3335e-13
9.37905e-15
4.29222e-13
8.22807e-15
4.25864e-13
6.10135e-15
4.26761e-13
-1.95594e-15
4.30581e-13
-1.52014e-14
4.37154e-13
-2.14143e-14
4.47276e-13
-3.15804e-14
4.61889e-13
-4.43565e-14
4.79846e-13
-5.46594e-14
5.01611e-13
-6.54452e-14
5.26989e-13
-7.60488e-14
5.55612e-13
-8.53971e-14
5.87176e-13
-9.41438e-14
6.21257e-13
-1.0161e-13
6.57472e-13
-1.07783e-13
6.95255e-13
-1.12523e-13
7.34115e-13
-1.1564e-13
7.73395e-13
-1.17157e-13
8.12722e-13
-1.17351e-13
8.51542e-13
-1.15897e-13
8.89246e-13
-1.12779e-13
9.25547e-13
-1.08584e-13
9.5984e-13
-1.02838e-13
9.91728e-13
-9.58909e-14
1.02088e-12
-8.79443e-14
1.04705e-12
-7.90221e-14
1.06994e-12
-6.94306e-14
1.08928e-12
-5.87271e-14
1.10479e-12
-4.74645e-14
1.11611e-12
-3.54222e-14
1.12383e-12
-2.46918e-14
1.12765e-12
-1.28357e-14
1.12745e-12
-9.15934e-16
1.12342e-12
1.06329e-14
1.11532e-12
2.27015e-14
1.10349e-12
3.38187e-14
1.08806e-12
4.46572e-14
1.06905e-12
5.5319e-14
1.04699e-12
6.48447e-14
1.02176e-12
7.44202e-14
9.93614e-13
8.32111e-14
9.62682e-13
9.17937e-14
9.29365e-13
9.90658e-14
8.93813e-13
1.05927e-13
8.5616e-13
1.12249e-13
8.16652e-13
1.18096e-13
7.75514e-13
1.23251e-13
7.32902e-13
1.27825e-13
6.88918e-13
1.31927e-13
6.43889e-13
1.35473e-13
5.97874e-13
1.38457e-13
5.51068e-13
1.40854e-13
5.03692e-13
1.42595e-13
4.55799e-13
1.43914e-13
4.07509e-13
1.44462e-13
3.58661e-13
1.44326e-13
3.08695e-13
1.43331e-13
2.55491e-13
1.41816e-13
1.9347e-13
1.41259e-13
1.06423e-13
1.48359e-13
5.92145e-14
2.46572e-13
-2.2901e-16
2.73735e-13
2.07789e-21
-4.10284e-22
2.08108e-21
-4.54949e-24
2.10135e-21
1.26662e-23
2.13759e-21
2.99853e-23
2.16065e-21
4.6684e-23
2.17037e-21
6.24521e-23
2.16851e-21
7.73931e-23
2.15646e-21
9.13518e-23
2.13583e-21
1.04276e-22
2.1075e-21
1.16115e-22
2.07286e-21
1.26921e-22
2.03243e-21
1.3664e-22
1.98725e-21
1.45325e-22
1.93803e-21
1.53184e-22
1.8852e-21
1.60111e-22
1.82916e-21
1.66418e-22
1.77037e-21
1.71898e-22
1.70932e-21
1.76862e-22
1.64614e-21
1.81204e-22
1.58141e-21
1.85133e-22
1.51493e-21
1.88649e-22
1.447e-21
1.91906e-22
1.37793e-21
1.94853e-22
1.30767e-21
1.97644e-22
1.23622e-21
2.00074e-22
1.16379e-21
2.02504e-22
1.09048e-21
2.04727e-22
1.01614e-21
2.06795e-22
9.41073e-22
2.0876e-22
8.65283e-22
2.10466e-22
7.88768e-22
2.12068e-22
7.11375e-22
2.13516e-22
6.33465e-22
2.14912e-22
5.55142e-22
2.16101e-22
4.76094e-22
2.17032e-22
3.96788e-22
2.17859e-22
3.1712e-22
2.18479e-22
2.37297e-22
2.18944e-22
1.57164e-22
2.19255e-22
7.67727e-23
2.1941e-22
2.19461e-22
6.34302e-14
-2.3677e-13
1.26333e-13
-2.31321e-13
1.86378e-13
-2.2137e-13
2.42193e-13
-2.06689e-13
2.92604e-13
-1.88254e-13
3.3683e-13
-1.66917e-13
3.74348e-13
-1.43444e-13
4.04872e-13
-1.18955e-13
4.2845e-13
-9.43644e-14
4.45249e-13
-7.05601e-14
4.56019e-13
-4.86164e-14
4.61417e-13
-2.93239e-14
4.6195e-13
-1.25626e-14
4.59294e-13
7.62858e-16
4.53026e-13
1.24207e-14
4.43578e-13
2.30414e-14
4.37196e-13
1.96717e-14
4.30418e-13
1.63309e-14
4.23986e-13
1.47762e-14
4.17481e-13
1.26655e-14
4.19512e-13
-3.98777e-15
4.20706e-13
-1.64528e-14
4.26624e-13
-2.74471e-14
4.36438e-13
-4.15668e-14
4.50871e-13
-5.90161e-14
4.68957e-13
-7.30264e-14
4.91223e-13
-8.80438e-14
5.17297e-13
-1.02506e-13
5.47028e-13
-1.15556e-13
5.79642e-13
-1.2723e-13
6.15108e-13
-1.37588e-13
6.52783e-13
-1.46004e-13
6.9206e-13
-1.52379e-13
7.32482e-13
-1.56673e-13
7.7334e-13
-1.58652e-13
8.14216e-13
-1.58882e-13
8.5446e-13
-1.56815e-13
8.93632e-13
-1.52633e-13
9.31156e-13
-1.46801e-13
9.66636e-13
-1.39012e-13
9.99716e-13
-1.29662e-13
1.02988e-12
-1.18788e-13
1.0568e-12
-1.06622e-13
1.08031e-12
-9.35909e-14
1.10016e-12
-7.92173e-14
1.11637e-12
-6.42809e-14
1.12798e-12
-4.76185e-14
1.13563e-12
-3.28965e-14
1.13955e-12
-1.72718e-14
1.13921e-12
-1.05323e-15
1.13495e-12
1.44671e-14
1.12656e-12
3.07e-14
1.11431e-12
4.57407e-14
1.09846e-12
6.02148e-14
1.07904e-12
7.45042e-14
1.05637e-12
8.7346e-14
1.03049e-12
1.00178e-13
1.00173e-12
1.11907e-13
9.70247e-13
1.23264e-13
9.36295e-13
1.33068e-13
9.00094e-13
1.42234e-13
8.61875e-13
1.50634e-13
8.21826e-13
1.58363e-13
7.8014e-13
1.65211e-13
7.36965e-13
1.71328e-13
6.92422e-13
1.76848e-13
6.46787e-13
1.81537e-13
6.00192e-13
1.85525e-13
5.52889e-13
1.88678e-13
5.04856e-13
1.91189e-13
4.56297e-13
1.93069e-13
4.07295e-13
1.94096e-13
3.57719e-13
1.94564e-13
3.07012e-13
1.94728e-13
2.5446e-13
1.9508e-13
1.99673e-13
1.96775e-13
1.45043e-13
2.03733e-13
6.16795e-14
3.30689e-13
-2.24916e-16
3.36244e-13
2.09278e-21
-5.42634e-22
2.09835e-21
-5.99706e-24
2.11862e-21
1.77327e-23
2.15424e-21
4.12039e-23
2.17647e-21
6.34861e-23
2.18531e-21
8.47343e-23
2.18241e-21
1.04793e-22
2.16938e-21
1.23405e-22
2.14772e-21
1.40621e-22
2.11836e-21
1.56234e-22
2.08253e-21
1.70503e-22
2.04122e-21
1.83427e-22
1.99516e-21
1.9506e-22
1.94496e-21
2.05399e-22
1.8914e-21
2.14498e-22
1.83464e-21
2.22615e-22
1.77534e-21
2.29853e-22
1.71366e-21
2.36108e-22
1.65012e-21
2.41847e-22
1.58493e-21
2.46913e-22
1.51824e-21
2.51463e-22
1.44994e-21
2.55651e-22
1.38072e-21
2.59476e-22
1.3102e-21
2.63095e-22
1.23865e-21
2.66352e-22
1.16601e-21
2.69402e-22
1.09255e-21
2.72349e-22
1.01805e-21
2.75089e-22
9.42779e-22
2.77623e-22
8.66885e-22
2.80052e-22
7.90164e-22
2.82275e-22
7.1272e-22
2.8424e-22
6.34654e-22
2.85946e-22
5.56021e-22
2.87445e-22
4.76973e-22
2.88789e-22
3.97409e-22
2.89979e-22
3.17534e-22
2.90909e-22
2.37608e-22
2.91685e-22
1.57268e-22
2.92202e-22
7.68761e-23
2.9246e-22
2.92563e-22
6.89661e-14
-3.05242e-13
1.36671e-13
-2.98151e-13
2.00964e-13
-2.84907e-13
2.6052e-13
-2.65515e-13
3.13879e-13
-2.40898e-13
3.6014e-13
-2.12486e-13
3.98748e-13
-1.81387e-13
4.29401e-13
-1.48971e-13
4.52138e-13
-1.16496e-13
4.67389e-13
-8.52467e-14
4.75795e-13
-5.6496e-14
4.78197e-13
-3.12431e-14
4.753e-13
-9.22878e-15
4.69187e-13
7.2628e-15
4.58311e-13
2.36321e-14
4.45725e-13
3.59101e-14
4.36246e-13
2.9379e-14
4.25987e-13
2.67641e-14
4.16017e-13
2.48576e-14
4.07154e-13
2.15835e-14
4.0807e-13
-4.9044e-15
4.07148e-13
-1.55915e-14
4.11915e-13
-3.23285e-14
4.21498e-13
-5.13213e-14
4.35524e-13
-7.3267e-14
4.53962e-13
-9.17425e-14
4.76984e-13
-1.11392e-13
5.04081e-13
-1.29982e-13
5.35116e-13
-1.47012e-13
5.69507e-13
-1.62088e-13
6.06748e-13
-1.75334e-13
6.46335e-13
-1.86134e-13
6.87676e-13
-1.94295e-13
7.30222e-13
-1.99823e-13
7.73218e-13
-2.02278e-13
8.16271e-13
-2.02584e-13
8.58522e-13
-1.99732e-13
8.99662e-13
-1.94451e-13
9.38998e-13
-1.8682e-13
9.76102e-13
-1.76804e-13
1.01054e-12
-1.64783e-13
1.04199e-12
-1.50922e-13
1.07004e-12
-1.35331e-13
1.09446e-12
-1.18668e-13
1.11509e-12
-1.00475e-13
1.13182e-12
-8.16166e-14
1.14418e-12
-6.05544e-14
1.15147e-12
-4.0729e-14
1.15544e-12
-2.17502e-14
1.15506e-12
-1.14297e-15
1.15051e-12
1.85923e-14
1.14176e-12
3.90701e-14
1.12902e-12
5.81509e-14
1.11258e-12
7.63729e-14
1.09238e-12
9.44728e-14
1.06898e-12
1.10571e-13
1.04229e-12
1.26741e-13
1.0127e-12
1.41433e-13
9.80313e-13
1.55644e-13
9.45619e-13
1.67813e-13
9.08558e-13
1.79399e-13
8.69571e-13
1.89784e-13
8.28692e-13
1.9946e-13
7.86226e-13
2.07948e-13
7.4233e-13
2.15545e-13
6.9705e-13
2.22502e-13
6.50697e-13
2.28317e-13
6.03477e-13
2.33215e-13
5.55371e-13
2.37295e-13
5.06587e-13
2.40526e-13
4.57368e-13
2.4288e-13
4.07671e-13
2.44414e-13
3.57737e-13
2.45151e-13
3.0765e-13
2.455e-13
2.57111e-13
2.46324e-13
2.07686e-13
2.46921e-13
1.5678e-13
2.55374e-13
6.37538e-14
4.24459e-13
-2.21589e-16
4.00817e-13
2.11925e-21
-6.68366e-22
2.12208e-21
-7.49632e-24
2.14209e-21
2.31094e-23
2.17657e-21
5.28362e-23
2.19772e-21
8.11671e-23
2.20532e-21
1.07999e-22
2.20113e-21
1.33124e-22
2.1866e-21
1.56544e-22
2.16328e-21
1.77999e-22
2.13263e-21
1.97593e-22
2.09546e-21
2.15429e-22
2.0528e-21
2.31404e-22
2.0055e-21
2.45621e-22
1.95406e-21
2.58287e-22
1.89957e-21
2.69558e-22
1.84182e-21
2.79432e-22
1.78159e-21
2.88066e-22
1.7194e-21
2.95872e-22
1.65519e-21
3.02696e-22
1.58948e-21
3.089e-22
1.52237e-21
3.14432e-22
1.45382e-21
3.19395e-22
1.38424e-21
3.241e-22
1.31346e-21
3.28391e-22
1.24175e-21
3.32475e-22
1.16896e-21
3.36352e-22
1.09534e-21
3.3992e-22
1.02064e-21
3.4328e-22
9.45209e-22
3.46589e-22
8.69108e-22
3.49587e-22
7.92129e-22
3.52327e-22
7.14529e-22
3.54861e-22
6.36154e-22
3.57084e-22
5.57416e-22
3.591e-22
4.78162e-22
3.60806e-22
3.98339e-22
3.62253e-22
3.18361e-22
3.63494e-22
2.38073e-22
3.64425e-22
1.57526e-22
3.65149e-22
7.70312e-23
3.65666e-22
3.65872e-22
7.59155e-14
-3.80664e-13
1.50176e-13
-3.71549e-13
2.20451e-13
-3.54437e-13
2.84961e-13
-3.29306e-13
3.42271e-13
-2.97504e-13
3.91219e-13
-2.60748e-13
4.31232e-13
-2.20743e-13
4.61849e-13
-1.78958e-13
4.83435e-13
-1.37486e-13
4.96575e-13
-9.78264e-14
5.0181e-13
-6.12152e-14
4.99683e-13
-2.86395e-14
4.93175e-13
-2.29237e-15
4.81224e-13
1.95945e-14
4.63586e-13
4.16001e-14
4.49676e-13
5.00968e-14
4.34956e-13
4.43238e-14
4.19708e-13
4.21806e-14
4.04349e-13
4.03302e-14
3.95951e-13
3.00377e-14
3.91857e-13
-8.10851e-16
3.89548e-13
-1.33394e-14
3.92677e-13
-3.55718e-14
4.02147e-13
-6.09622e-14
4.15593e-13
-8.69359e-14
4.3461e-13
-1.11036e-13
4.58456e-13
-1.35565e-13
4.86983e-13
-1.58886e-13
5.19743e-13
-1.80193e-13
5.56399e-13
-1.99207e-13
5.95987e-13
-2.15424e-13
6.38144e-13
-2.28832e-13
6.82224e-13
-2.38945e-13
7.27532e-13
-2.45729e-13
7.73325e-13
-2.48694e-13
8.18983e-13
-2.48884e-13
8.6381e-13
-2.45219e-13
9.07413e-13
-2.38724e-13
9.49021e-13
-2.29106e-13
9.88136e-13
-2.16597e-13
1.02446e-12
-2.01779e-13
1.05752e-12
-1.84658e-13
1.08702e-12
-1.65486e-13
1.11256e-12
-1.44854e-13
1.13411e-12
-1.2265e-13
1.15123e-12
-9.93313e-14
1.16479e-12
-7.46908e-14
1.17173e-12
-4.82072e-14
1.17558e-12
-2.61029e-14
1.17517e-12
-1.19507e-15
1.17006e-12
2.32782e-14
1.161e-12
4.77517e-14
1.14746e-12
7.1368e-14
1.13016e-12
9.33884e-14
1.10908e-12
1.15324e-13
1.08475e-12
1.3473e-13
1.05708e-12
1.54289e-13
1.02641e-12
1.72039e-13
9.93011e-13
1.89031e-13
9.57137e-13
2.03736e-13
9.19098e-13
2.17541e-13
8.79148e-13
2.29894e-13
8.37361e-13
2.41462e-13
7.93893e-13
2.51684e-13
7.49065e-13
2.60693e-13
7.02901e-13
2.69037e-13
6.55718e-13
2.75914e-13
6.07571e-13
2.81824e-13
5.58598e-13
2.86775e-13
5.08959e-13
2.90712e-13
4.58853e-13
2.93568e-13
4.08487e-13
2.95399e-13
3.58193e-13
2.96091e-13
3.08406e-13
2.95959e-13
2.5938e-13
2.96045e-13
2.14948e-13
2.92066e-13
1.66177e-13
3.04871e-13
5.15003e-14
5.39871e-13
-2.18682e-16
4.53124e-13
2.14572e-21
-7.64319e-22
2.15269e-21
-8.11671e-24
2.17181e-21
2.88996e-23
2.20495e-21
6.51922e-23
2.2245e-21
9.97787e-23
2.23044e-21
1.32401e-22
2.2245e-21
1.62955e-22
2.20806e-21
1.9113e-22
2.18288e-21
2.16928e-22
2.15041e-21
2.40606e-22
2.11138e-21
2.61751e-22
2.06712e-21
2.80828e-22
2.01817e-21
2.97682e-22
1.96533e-21
3.12571e-22
1.90944e-21
3.25754e-22
1.85045e-21
3.3718e-22
1.78945e-21
3.47312e-22
1.72622e-21
3.56205e-22
1.66139e-21
3.64011e-22
1.59506e-21
3.70991e-22
1.52734e-21
3.77505e-22
1.45853e-21
3.83295e-22
1.38853e-21
3.88723e-22
1.31754e-21
3.93635e-22
1.24558e-21
3.98391e-22
1.17253e-21
4.02992e-22
1.09865e-21
4.07231e-22
1.02395e-21
4.11316e-22
9.48208e-22
4.15193e-22
8.71848e-22
4.18915e-22
7.94662e-22
4.22276e-22
7.16752e-22
4.25326e-22
6.38222e-22
4.28169e-22
5.59122e-22
4.30651e-22
4.7961e-22
4.32822e-22
3.9958e-22
4.34632e-22
3.19292e-22
4.36234e-22
2.38797e-22
4.37475e-22
1.58043e-22
4.38509e-22
7.71346e-23
4.3913e-22
4.39388e-22
8.49361e-14
-4.65116e-13
1.67757e-13
-4.53519e-13
2.45786e-13
-4.31733e-13
3.16751e-13
-3.99556e-13
3.79038e-13
-3.59098e-13
4.31319e-13
-3.12356e-13
4.72907e-13
-2.61682e-13
5.03552e-13
-2.08985e-13
5.23575e-13
-1.56921e-13
5.33597e-13
-1.07298e-13
5.34033e-13
-6.1138e-14
5.27124e-13
-2.12585e-14
5.15088e-13
1.01659e-14
4.94987e-13
4.0074e-14
4.70632e-13
6.62794e-14
4.53791e-13
6.72148e-14
4.32378e-13
6.59575e-14
4.11134e-13
6.3589e-14
3.8811e-13
6.34631e-14
3.83019e-13
3.51824e-14
3.70427e-13
1.17791e-14
3.67206e-13
-1.01779e-14
3.6826e-13
-3.674e-14
3.77452e-13
-7.03212e-14
3.90473e-13
-1.00181e-13
4.10093e-13
-1.30927e-13
4.35206e-13
-1.61001e-13
4.65562e-13
-1.89611e-13
5.00641e-13
-2.15689e-13
5.40011e-13
-2.39032e-13
5.82657e-13
-2.58565e-13
6.28049e-13
-2.74754e-13
6.75513e-13
-2.8697e-13
7.24236e-13
-2.9504e-13
7.73398e-13
-2.98472e-13
8.22429e-13
-2.98548e-13
8.70455e-13
-2.93891e-13
9.16975e-13
-2.85906e-13
9.61337e-13
-2.74135e-13
1.00313e-12
-2.59057e-13
1.04167e-12
-2.40993e-13
1.07668e-12
-2.20319e-13
1.10783e-12
-1.97285e-13
1.13467e-12
-1.72333e-13
1.15738e-12
-1.45975e-13
1.17507e-12
-1.17608e-13
1.18947e-12
-8.96602e-14
1.19705e-12
-5.63133e-14
1.20028e-12
-2.98275e-14
1.19974e-12
-1.11173e-15
1.19405e-12
2.85523e-14
1.18446e-12
5.6965e-14
1.16989e-12
8.56151e-14
1.15156e-12
1.11445e-13
1.12936e-12
1.37299e-13
1.10371e-12
1.60208e-13
1.07487e-12
1.83004e-13
1.04285e-12
2.03999e-13
1.00823e-12
2.23647e-13
9.70944e-13
2.41064e-13
9.31767e-13
2.56819e-13
8.90504e-13
2.71313e-13
8.47506e-13
2.8467e-13
8.03054e-13
2.964e-13
7.57089e-13
3.06971e-13
7.09854e-13
3.16637e-13
6.61704e-13
3.24477e-13
6.12586e-13
3.31396e-13
5.62552e-13
3.37308e-13
5.11823e-13
3.41979e-13
4.60611e-13
3.45353e-13
4.09157e-13
3.47462e-13
3.57993e-13
3.47892e-13
3.08166e-13
3.46447e-13
2.6175e-13
3.43145e-13
2.16227e-13
3.38289e-13
1.14605e-13
4.07208e-13
3.84346e-14
6.16764e-13
-2.14743e-16
4.92352e-13
2.18708e-21
-8.80125e-22
2.18965e-21
-9.35748e-24
2.20816e-21
3.52069e-23
2.23949e-21
7.85305e-23
2.25712e-21
1.19683e-22
2.26094e-21
1.58457e-22
2.25262e-21
1.94387e-22
2.23396e-21
2.27681e-22
2.20656e-21
2.58029e-22
2.17156e-21
2.85481e-22
2.1304e-21
3.10193e-22
2.08403e-21
3.3201e-22
2.03306e-21
3.51397e-22
1.97846e-21
3.68406e-22
1.92087e-21
3.83191e-22
1.86059e-21
3.96116e-22
1.79829e-21
4.07438e-22
1.73403e-21
4.17261e-22
1.66842e-21
4.25946e-22
1.60147e-21
4.33701e-22
1.53318e-21
4.40732e-22
1.4639e-21
4.47143e-22
1.39349e-21
4.5314e-22
1.3223e-21
4.58775e-22
1.25018e-21
4.64203e-22
1.17677e-21
4.69218e-22
1.10268e-21
4.74336e-22
1.02788e-21
4.79196e-22
9.51878e-22
4.83746e-22
8.75261e-22
4.8814e-22
7.97764e-22
4.92173e-22
7.19544e-22
4.95895e-22
6.40703e-22
4.99359e-22
5.61242e-22
5.02461e-22
4.81471e-22
5.05201e-22
4.01131e-22
5.07579e-22
3.20533e-22
5.0944e-22
2.39831e-22
5.11043e-22
1.58664e-22
5.1218e-22
7.74448e-23
5.12955e-22
5.13472e-22
9.64813e-14
-5.61117e-13
1.90232e-13
-5.46434e-13
2.77998e-13
-5.18778e-13
3.57164e-13
-4.78024e-13
4.25748e-13
-4.27002e-13
4.82203e-13
-3.6815e-13
5.2561e-13
-3.04453e-13
5.56074e-13
-2.38843e-13
5.73806e-13
-1.74079e-13
5.79212e-13
-1.12164e-13
5.73802e-13
-5.52251e-14
5.61417e-13
-8.41265e-15
5.4066e-13
3.13369e-14
5.09317e-13
7.1787e-14
4.82814e-13
9.31022e-14
4.56257e-13
9.40435e-14
4.27651e-13
9.47812e-14
3.97644e-13
9.37607e-14
3.72321e-13
8.88965e-14
3.6214e-13
4.54168e-14
3.44559e-13
2.93579e-14
3.38708e-13
-4.3846e-15
3.38733e-13
-3.68787e-14
3.46167e-13
-7.79231e-14
3.59592e-13
-1.13825e-13
3.79987e-13
-1.51591e-13
4.06854e-13
-1.88185e-13
4.39351e-13
-2.22474e-13
4.77284e-13
-2.54029e-13
5.19976e-13
-2.82176e-13
5.66467e-13
-3.05546e-13
6.15876e-13
-3.24684e-13
6.67479e-13
-3.39128e-13
7.20412e-13
-3.48552e-13
7.73793e-13
-3.52458e-13
8.26672e-13
-3.52052e-13
8.7874e-13
-3.46598e-13
9.28819e-13
-3.36638e-13
9.76482e-13
-3.22455e-13
1.02119e-12
-3.04424e-13
1.06237e-12
-2.82831e-13
1.09968e-12
-2.58271e-13
1.13276e-12
-2.31011e-13
1.16133e-12
-2.01528e-13
1.18512e-12
-1.70366e-13
1.20402e-12
-1.37086e-13
1.21796e-12
-1.0416e-13
1.22784e-12
-6.67088e-14
1.22954e-12
-3.20173e-14
1.2287e-12
-7.25924e-16
1.22249e-12
3.43558e-14
1.21207e-12
6.70161e-14
1.19653e-12
1.00833e-13
1.17677e-12
1.30933e-13
1.15333e-12
1.6052e-13
1.12594e-12
1.87424e-13
1.09563e-12
2.132e-13
1.06197e-12
2.376e-13
1.02602e-12
2.59582e-13
9.87042e-13
2.80087e-13
9.46342e-13
2.97619e-13
9.03804e-13
3.14002e-13
8.5944e-13
3.2924e-13
8.13563e-13
3.42534e-13
7.663e-13
3.54542e-13
7.1804e-13
3.65253e-13
6.68699e-13
3.7422e-13
6.18353e-13
3.82189e-13
5.67201e-13
3.88947e-13
5.15223e-13
3.94489e-13
4.62634e-13
3.98505e-13
4.09651e-13
4.01039e-13
3.56478e-13
4.01691e-13
3.0411e-13
3.99465e-13
2.55587e-13
3.92337e-13
2.20133e-13
3.74432e-13
8.72193e-14
5.40823e-13
4.27151e-14
6.6198e-13
-2.10551e-16
5.35844e-13
2.2334e-21
-9.52917e-22
2.23422e-21
-9.92617e-24
2.25143e-21
4.22379e-23
2.28069e-21
9.29544e-23
2.29594e-21
1.41241e-22
2.29687e-21
1.86374e-22
2.28591e-21
2.28302e-22
2.26425e-21
2.66714e-22
2.23396e-21
3.01559e-22
2.19632e-21
3.32992e-22
2.15227e-21
3.60961e-22
2.10342e-21
3.85673e-22
2.05006e-21
4.07283e-22
1.99325e-21
4.26101e-22
1.93379e-21
4.42387e-22
1.87191e-21
4.56449e-22
1.80817e-21
4.68598e-22
1.74271e-21
4.79093e-22
1.67618e-21
4.88398e-22
1.60845e-21
4.96619e-22
1.53959e-21
5.04063e-22
1.4699e-21
5.10991e-22
1.39912e-21
5.17505e-22
1.32773e-21
5.23657e-22
1.2552e-21
5.29654e-22
1.18189e-21
5.35548e-22
1.10749e-21
5.41235e-22
1.03242e-21
5.4687e-22
9.56273e-22
5.52195e-22
8.79293e-22
5.57365e-22
8.01486e-22
5.62276e-22
7.23008e-22
5.66826e-22
6.43702e-22
5.7091e-22
5.64034e-22
5.74684e-22
4.83797e-22
5.78044e-22
4.03095e-22
5.80836e-22
3.22135e-22
5.83317e-22
2.4102e-22
5.85282e-22
1.59387e-22
5.86678e-22
7.79618e-23
5.87815e-22
5.88487e-22
1.11074e-13
-6.7172e-13
2.18547e-13
-6.53088e-13
3.18674e-13
-6.18198e-13
4.08195e-13
-5.66861e-13
4.84498e-13
-5.02638e-13
5.45997e-13
-4.29002e-13
5.91493e-13
-3.49327e-13
6.21396e-13
-2.6815e-13
6.35533e-13
-1.87651e-13
6.34831e-13
-1.1093e-13
6.22885e-13
-4.27871e-14
6.0302e-13
1.19044e-14
5.68362e-13
6.64e-14
5.28233e-13
1.12276e-13
4.96885e-13
1.24766e-13
4.57788e-13
1.33403e-13
4.1896e-13
1.33821e-13
3.79764e-13
1.33117e-13
3.5831e-13
1.10456e-13
3.30786e-13
7.29931e-14
3.14106e-13
4.60326e-14
3.0317e-13
6.49517e-15
3.02733e-13
-3.65545e-14
3.0769e-13
-8.30412e-14
3.21864e-13
-1.28214e-13
3.43482e-13
-1.73475e-13
3.72308e-13
-2.17325e-13
4.07765e-13
-2.58291e-13
4.49371e-13
-2.96037e-13
4.96069e-13
-3.29317e-13
5.47308e-13
-3.57265e-13
6.01547e-13
-3.79436e-13
6.58126e-13
-3.9625e-13
7.16133e-13
-4.07131e-13
7.74425e-13
-4.11341e-13
8.32165e-13
-4.10405e-13
8.88775e-13
-4.03835e-13
9.43046e-13
-3.91546e-13
9.94557e-13
-3.7461e-13
1.0427e-12
-3.53216e-13
1.08701e-12
-3.27788e-13
1.12697e-12
-2.98861e-13
1.1622e-12
-2.66875e-13
1.19262e-12
-2.32553e-13
1.21788e-12
-1.96216e-13
1.23804e-12
-1.57813e-13
1.25198e-12
-1.18652e-13
1.26324e-12
-7.84738e-14
1.26451e-12
-3.37652e-14
1.26256e-12
7.77437e-16
1.25598e-12
4.05317e-14
1.24392e-12
7.87239e-14
1.22742e-12
1.1702e-13
1.20598e-12
1.521e-13
1.18088e-12
1.85398e-13
1.15153e-12
2.16609e-13
1.11947e-12
2.45147e-13
1.08392e-12
2.73084e-13
1.04624e-12
2.97251e-13
1.00537e-12
3.21004e-13
9.62948e-13
3.40135e-13
9.18694e-13
3.58405e-13
8.72828e-13
3.75307e-13
8.25492e-13
3.90121e-13
7.76821e-13
4.03517e-13
7.27326e-13
4.15097e-13
6.7665e-13
4.25289e-13
6.25074e-13
4.34203e-13
5.72556e-13
4.41943e-13
5.19313e-13
4.4825e-13
4.65223e-13
4.53146e-13
4.10341e-13
4.56505e-13
3.54637e-13
4.58005e-13
2.9768e-13
4.57061e-13
2.39126e-13
4.51547e-13
1.7276e-13
4.41472e-13
7.93873e-14
6.34882e-13
4.51499e-14
6.96911e-13
-2.04871e-16
5.81755e-13
2.28468e-21
-1.03233e-21
2.28638e-21
-1.04432e-23
2.3022e-21
5.03029e-23
2.32893e-21
1.09136e-22
2.34108e-21
1.64867e-22
2.3388e-21
2.16876e-22
2.32433e-21
2.64956e-22
2.2991e-21
3.0859e-22
2.26544e-21
3.48243e-22
2.22424e-21
3.8345e-22
2.17698e-21
4.14676e-22
2.12498e-21
4.41921e-22
2.06888e-21
4.65548e-22
2.00958e-21
4.85917e-22
1.94786e-21
5.03391e-22
1.88406e-21
5.18177e-22
1.81866e-21
5.30947e-22
1.75207e-21
5.41958e-22
1.6844e-21
5.51471e-22
1.6159e-21
5.60001e-22
1.54652e-21
5.67653e-22
1.47641e-21
5.74839e-22
1.40533e-21
5.81611e-22
1.33367e-21
5.88384e-22
1.26109e-21
5.95001e-22
1.18757e-21
6.01515e-22
1.11313e-21
6.0803e-22
1.03775e-21
6.14492e-22
9.61442e-22
6.20799e-22
8.84153e-22
6.269e-22
8.06036e-22
6.3269e-22
7.27092e-22
6.38118e-22
6.47527e-22
6.43081e-22
5.67394e-22
6.47734e-22
4.86589e-22
6.51663e-22
4.05525e-22
6.55127e-22
3.241e-22
6.58074e-22
2.42364e-22
6.604e-22
1.60576e-22
6.62365e-22
7.86856e-23
6.63709e-22
6.64588e-22
1.29503e-13
-8.00765e-13
2.54503e-13
-7.77294e-13
3.70163e-13
-7.3317e-13
4.72322e-13
-6.68354e-13
5.58223e-13
-5.87891e-13
6.25683e-13
-4.95834e-13
6.73164e-13
-3.96203e-13
7.0258e-13
-2.9699e-13
7.10505e-13
-1.95028e-13
7.02651e-13
-1.02561e-13
6.85383e-13
-2.50425e-14
6.47998e-13
4.97295e-14
5.98572e-13
1.16222e-13
5.57687e-13
1.53512e-13
5.07923e-13
1.74833e-13
4.58816e-13
1.82766e-13
4.02906e-13
1.89938e-13
3.64823e-13
1.71358e-13
3.31346e-13
1.44035e-13
2.9598e-13
1.0841e-13
2.74396e-13
6.7611e-14
2.61108e-13
1.97268e-14
2.57481e-13
-3.30366e-14
2.61837e-13
-8.7557e-14
2.76301e-13
-1.42889e-13
2.99588e-13
-1.9702e-13
3.30965e-13
-2.4901e-13
3.70197e-13
-2.97873e-13
4.16174e-13
-3.42411e-13
4.67972e-13
-3.81545e-13
5.24648e-13
-4.1441e-13
5.84931e-13
-4.4022e-13
6.47467e-13
-4.59317e-13
7.11414e-13
-4.71635e-13
7.75538e-13
-4.7605e-13
8.39134e-13
-4.74599e-13
9.00899e-13
-4.66213e-13
9.60228e-13
-4.51499e-13
1.0161e-12
-4.3111e-13
1.06816e-12
-4.05915e-13
1.11585e-12
-3.76099e-13
1.15886e-12
-3.42501e-13
1.19668e-12
-3.05306e-13
1.22908e-12
-2.65546e-13
1.25591e-12
-2.23625e-13
1.2773e-12
-1.79769e-13
1.29241e-12
-1.34292e-13
1.30238e-12
-8.89434e-14
1.30557e-12
-3.74248e-14
1.30184e-12
4.07819e-15
1.29439e-12
4.7586e-14
1.28047e-12
9.2299e-14
1.2631e-12
1.34075e-13
1.23957e-12
1.75377e-13
1.2122e-12
2.12547e-13
1.18057e-12
2.48082e-13
1.14636e-12
2.7924e-13
1.10864e-12
3.10745e-13
1.0687e-12
3.37186e-13
1.02596e-12
3.63783e-13
9.81196e-13
3.84989e-13
9.35261e-13
4.04487e-13
8.87613e-13
4.2315e-13
8.38774e-13
4.39205e-13
7.88594e-13
4.53989e-13
7.37583e-13
4.66449e-13
6.85594e-13
4.77663e-13
6.32653e-13
4.8757e-13
5.78822e-13
4.96241e-13
5.24174e-13
5.03401e-13
4.6853e-13
5.09326e-13
4.11811e-13
5.13797e-13
3.53328e-13
5.17084e-13
2.91691e-13
5.19317e-13
2.23532e-13
5.20348e-13
1.33143e-13
5.3252e-13
7.71304e-14
6.91563e-13
4.26022e-14
7.32117e-13
-1.99505e-16
6.25099e-13
2.34424e-21
-1.07203e-21
2.34707e-21
-1.00296e-23
2.36108e-21
5.96604e-23
2.38461e-21
1.27386e-22
2.39309e-21
1.91182e-22
2.38688e-21
2.50481e-22
2.36796e-21
3.04971e-22
2.33875e-21
3.54395e-22
2.30065e-21
3.98649e-22
2.25546e-21
4.37682e-22
2.20418e-21
4.71803e-22
2.14865e-21
5.01427e-22
2.08925e-21
5.26707e-22
2.02706e-21
5.48266e-22
1.96259e-21
5.66464e-22
1.89683e-21
5.81818e-22
1.82962e-21
5.94743e-22
1.76158e-21
6.05703e-22
1.69293e-21
6.15319e-22
1.6235e-21
6.23643e-22
1.5537e-21
6.31346e-22
1.48319e-21
6.38532e-22
1.41205e-21
6.45666e-22
1.34034e-21
6.52801e-22
1.2676e-21
6.59987e-22
1.19409e-21
6.67276e-22
1.11964e-21
6.74669e-22
1.04411e-21
6.82062e-22
9.67543e-22
6.89507e-22
8.89943e-22
6.96745e-22
8.11413e-22
7.03621e-22
7.32107e-22
7.10135e-22
6.52077e-22
7.16235e-22
5.71323e-22
7.21715e-22
4.90053e-22
7.26471e-22
4.0842e-22
7.30711e-22
3.26478e-22
7.34175e-22
2.44277e-22
7.37173e-22
1.61972e-22
7.39396e-22
7.95127e-23
7.41102e-22
7.42188e-22
1.52849e-13
-9.53165e-13
2.99862e-13
-9.23536e-13
4.34942e-13
-8.67584e-13
5.52618e-13
-7.85381e-13
6.50242e-13
-6.84887e-13
7.25537e-13
-5.70517e-13
7.74927e-13
-4.45005e-13
8.00299e-13
-3.218e-13
8.01608e-13
-1.95807e-13
7.90166e-13
-9.06213e-14
7.53107e-13
1.24771e-14
6.97319e-13
1.05941e-13
6.44628e-13
1.69296e-13
5.84084e-13
2.14398e-13
5.21441e-13
2.37771e-13
4.5046e-13
2.53995e-13
3.91818e-13
2.48777e-13
3.42136e-13
2.2119e-13