/*--------------------------------*- C++ -*----------------------------------*\
  =========                 |
  \\      /  F ield         | OpenFOAM: The Open Source CFD Toolbox
   \\    /   O peration     | Website:  https://openfoam.org
    \\  /    A nd           | Version:  6
     \\/     M anipulation  |
\*---------------------------------------------------------------------------*/
FoamFile
{
    version     2.0;
    format      ascii;
    class       volVectorField;
    location    "6600";
    object      U;
}
// * * * * * * * * * * * * * * * * * * * * * * * * * * * * * * * * * * * * * //

dimensions      [0 1 -1 0 0 0 0];

internalField   nonuniform List<vector> 
4800
(
(1.23094e-08 0 -1.05748e-08)
(3.3577e-08 0 -1.33707e-08)
(5.55284e-08 0 -1.40714e-08)
(7.63098e-08 0 -1.3624e-08)
(9.54942e-08 0 -1.2667e-08)
(1.12881e-07 0 -1.14248e-08)
(1.28251e-07 0 -9.99371e-09)
(1.41443e-07 0 -8.47159e-09)
(1.52397e-07 0 -6.93662e-09)
(1.61138e-07 0 -5.45829e-09)
(1.67764e-07 0 -4.05886e-09)
(1.72445e-07 0 -2.83036e-09)
(1.75427e-07 0 -1.80215e-09)
(1.76973e-07 0 -9.3075e-10)
(1.77332e-07 0 -2.38924e-10)
(1.76763e-07 0 2.8731e-10)
(1.75613e-07 0 5.84794e-10)
(1.74605e-07 0 3.3288e-10)
(1.73936e-07 0 2.50159e-10)
(1.73408e-07 0 1.77003e-10)
(1.73547e-07 0 -8.13482e-11)
(1.7494e-07 0 -1.17829e-09)
(1.77567e-07 0 -1.41835e-09)
(1.81231e-07 0 -2.059e-09)
(1.8623e-07 0 -2.81456e-09)
(1.92717e-07 0 -3.49428e-09)
(2.00561e-07 0 -4.16203e-09)
(2.09734e-07 0 -4.81872e-09)
(2.20176e-07 0 -5.40614e-09)
(2.31784e-07 0 -5.95943e-09)
(2.44425e-07 0 -6.43122e-09)
(2.57927e-07 0 -6.81773e-09)
(2.72133e-07 0 -7.12477e-09)
(2.86835e-07 0 -7.31586e-09)
(3.01844e-07 0 -7.43173e-09)
(3.16965e-07 0 -7.42757e-09)
(3.31989e-07 0 -7.34536e-09)
(3.46716e-07 0 -7.14097e-09)
(3.60968e-07 0 -6.86974e-09)
(3.74562e-07 0 -6.50053e-09)
(3.87341e-07 0 -6.07297e-09)
(3.99155e-07 0 -5.54316e-09)
(4.09851e-07 0 -4.97196e-09)
(4.19349e-07 0 -4.36565e-09)
(4.27551e-07 0 -3.64763e-09)
(4.34299e-07 0 -2.93872e-09)
(4.39545e-07 0 -2.17189e-09)
(4.43341e-07 0 -1.49246e-09)
(4.45628e-07 0 -6.98019e-10)
(4.46335e-07 0 5.65254e-11)
(4.45534e-07 0 8.05999e-10)
(4.43197e-07 0 1.57152e-09)
(4.39361e-07 0 2.27735e-09)
(4.34093e-07 0 2.97886e-09)
(4.27408e-07 0 3.65175e-09)
(4.19411e-07 0 4.25801e-09)
(4.10164e-07 0 4.8673e-09)
(3.99724e-07 0 5.39895e-09)
(3.88166e-07 0 5.94608e-09)
(3.75561e-07 0 6.39102e-09)
(3.62021e-07 0 6.80232e-09)
(3.47631e-07 0 7.18043e-09)
(3.32451e-07 0 7.52526e-09)
(3.16553e-07 0 7.81959e-09)
(3.00016e-07 0 8.07931e-09)
(2.82929e-07 0 8.28191e-09)
(2.65363e-07 0 8.46588e-09)
(2.47376e-07 0 8.60872e-09)
(2.29035e-07 0 8.72164e-09)
(2.10447e-07 0 8.76903e-09)
(1.91719e-07 0 8.78748e-09)
(1.72958e-07 0 8.75214e-09)
(1.54365e-07 0 8.62256e-09)
(1.36368e-07 0 8.24671e-09)
(1.20151e-07 0 7.30746e-09)
(1.08207e-07 0 5.27766e-09)
(1.04976e-07 0 -9.0164e-09)
(7.8113e-08 0 1.23707e-08)
(-2.7508e-10 0 2.94044e-08)
(8.3377e-16 0 -1.93132e-17)
(4.25599e-16 0 -1.55096e-19)
(8.3204e-16 0 -1.09601e-18)
(8.40643e-16 0 7.23783e-20)
(8.52358e-16 0 1.53028e-18)
(8.59368e-16 0 2.92615e-18)
(8.61478e-16 0 4.1876e-18)
(8.59193e-16 0 5.31464e-18)
(8.53133e-16 0 6.36929e-18)
(8.43817e-16 0 7.31021e-18)
(8.31689e-16 0 8.14773e-18)
(8.17161e-16 0 8.89219e-18)
(8.00463e-16 0 9.56428e-18)
(7.81913e-16 0 1.01536e-17)
(7.61833e-16 0 1.06913e-17)
(7.40378e-16 0 1.11566e-17)
(7.17714e-16 0 1.15702e-17)
(6.93974e-16 0 1.19321e-17)
(6.69344e-16 0 1.22526e-17)
(6.4395e-16 0 1.25421e-17)
(6.17832e-16 0 1.28213e-17)
(5.91093e-16 0 1.30488e-17)
(5.63806e-16 0 1.32556e-17)
(5.36013e-16 0 1.3452e-17)
(5.07744e-16 0 1.36381e-17)
(4.79062e-16 0 1.38243e-17)
(4.49976e-16 0 1.39794e-17)
(4.20508e-16 0 1.41448e-17)
(3.90708e-16 0 1.42689e-17)
(3.60578e-16 0 1.43723e-17)
(3.30148e-16 0 1.45067e-17)
(2.99429e-16 0 1.46308e-17)
(2.68472e-16 0 1.47238e-17)
(2.37287e-16 0 1.47962e-17)
(2.05875e-16 0 1.48789e-17)
(1.74297e-16 0 1.4941e-17)
(1.42575e-16 0 1.4972e-17)
(1.1078e-16 0 1.49927e-17)
(7.89441e-17 0 1.5003e-17)
(4.71286e-17 0 1.49306e-17)
(1.56234e-17 0 1.46618e-17)
(1.22875e-08 0 -3.38874e-08)
(3.49204e-08 0 -3.06116e-08)
(5.64942e-08 0 -2.85564e-08)
(7.75011e-08 0 -2.6445e-08)
(9.688e-08 0 -2.40738e-08)
(1.14441e-07 0 -2.14139e-08)
(1.29932e-07 0 -1.85153e-08)
(1.43191e-07 0 -1.54787e-08)
(1.54152e-07 0 -1.24262e-08)
(1.62817e-07 0 -9.4615e-09)
(1.69304e-07 0 -6.7016e-09)
(1.73817e-07 0 -4.24385e-09)
(1.76584e-07 0 -2.19086e-09)
(1.77864e-07 0 -3.62199e-10)
(1.77911e-07 0 1.06011e-09)
(1.77008e-07 0 2.24072e-09)
(1.75586e-07 0 2.70662e-09)
(1.74344e-07 0 1.6359e-09)
(1.73373e-07 0 1.22613e-09)
(1.72569e-07 0 8.54993e-10)
(1.72551e-07 0 -1.23519e-10)
(1.73779e-07 0 -3.47353e-09)
(1.76249e-07 0 -4.36669e-09)
(1.79822e-07 0 -6.36036e-09)
(1.84811e-07 0 -8.78215e-09)
(1.9132e-07 0 -1.089e-08)
(1.992e-07 0 -1.29657e-08)
(2.08451e-07 0 -1.50293e-08)
(2.19008e-07 0 -1.68542e-08)
(2.30752e-07 0 -1.85803e-08)
(2.43554e-07 0 -2.005e-08)
(2.57242e-07 0 -2.12481e-08)
(2.71642e-07 0 -2.21921e-08)
(2.8654e-07 0 -2.27916e-08)
(3.01742e-07 0 -2.31259e-08)
(3.17055e-07 0 -2.31511e-08)
(3.32269e-07 0 -2.28749e-08)
(3.47181e-07 0 -2.22677e-08)
(3.61613e-07 0 -2.14325e-08)
(3.75374e-07 0 -2.03089e-08)
(3.88294e-07 0 -1.89644e-08)
(4.00242e-07 0 -1.73863e-08)
(4.11073e-07 0 -1.56195e-08)
(4.20669e-07 0 -1.37428e-08)
(4.28951e-07 0 -1.15844e-08)
(4.35774e-07 0 -9.37161e-09)
(4.41079e-07 0 -7.03722e-09)
(4.44896e-07 0 -4.91792e-09)
(4.47198e-07 0 -2.52131e-09)
(4.4792e-07 0 -1.74855e-10)
(4.47108e-07 0 2.13637e-09)
(4.44735e-07 0 4.51474e-09)
(4.40849e-07 0 6.72381e-09)
(4.35524e-07 0 8.90097e-09)
(4.2879e-07 0 1.10156e-08)
(4.20734e-07 0 1.295e-08)
(4.11411e-07 0 1.48832e-08)
(4.00886e-07 0 1.66361e-08)
(3.89236e-07 0 1.83965e-08)
(3.76559e-07 0 1.98717e-08)
(3.62947e-07 0 2.12698e-08)
(3.48485e-07 0 2.25562e-08)
(3.33238e-07 0 2.37662e-08)
(3.1727e-07 0 2.48429e-08)
(3.00668e-07 0 2.58102e-08)
(2.83513e-07 0 2.66426e-08)
(2.65853e-07 0 2.74209e-08)
(2.47773e-07 0 2.80633e-08)
(2.29366e-07 0 2.85889e-08)
(2.10702e-07 0 2.8952e-08)
(1.91834e-07 0 2.92165e-08)
(1.72855e-07 0 2.92762e-08)
(1.53856e-07 0 2.90662e-08)
(1.3487e-07 0 2.83413e-08)
(1.15577e-07 0 2.65473e-08)
(9.59979e-08 0 2.10313e-08)
(6.31698e-08 0 5.2592e-09)
(3.94587e-08 0 7.37603e-08)
(-2.22385e-10 0 6.99843e-08)
(8.45002e-16 0 -7.28611e-17)
(4.24737e-16 0 -7.23783e-19)
(8.32268e-16 0 3.10193e-19)
(8.4329e-16 0 3.73265e-18)
(8.55212e-16 0 7.44463e-18)
(8.62005e-16 0 1.10015e-17)
(8.63856e-16 0 1.42895e-17)
(8.61374e-16 0 1.73088e-17)
(8.55108e-16 0 2.00902e-17)
(8.45585e-16 0 2.26441e-17)
(8.33281e-16 0 2.49498e-17)
(8.18568e-16 0 2.70281e-17)
(8.01735e-16 0 2.88583e-17)
(7.83071e-16 0 3.05023e-17)
(7.62847e-16 0 3.19912e-17)
(7.41247e-16 0 3.33147e-17)
(7.18468e-16 0 3.44831e-17)
(6.94646e-16 0 3.55171e-17)
(6.69954e-16 0 3.64373e-17)
(6.44508e-16 0 3.72542e-17)
(6.18338e-16 0 3.8009e-17)
(5.91548e-16 0 3.86914e-17)
(5.6422e-16 0 3.93014e-17)
(5.36396e-16 0 3.98701e-17)
(5.08106e-16 0 4.04078e-17)
(4.79393e-16 0 4.09248e-17)
(4.50286e-16 0 4.13694e-17)
(4.20787e-16 0 4.18036e-17)
(3.90936e-16 0 4.21862e-17)
(3.60806e-16 0 4.25378e-17)
(3.30386e-16 0 4.28997e-17)
(2.99657e-16 0 4.32099e-17)
(2.68648e-16 0 4.34787e-17)
(2.37432e-16 0 4.37062e-17)
(2.0602e-16 0 4.3913e-17)
(1.74401e-16 0 4.40887e-17)
(1.42637e-16 0 4.42025e-17)
(1.10811e-16 0 4.42748e-17)
(7.88924e-17 0 4.42955e-17)
(4.68081e-17 0 4.42231e-17)
(1.53649e-17 0 4.3944e-17)
(1.22909e-08 0 -5.79063e-08)
(3.57895e-08 0 -5.65168e-08)
(5.85516e-08 0 -5.42637e-08)
(8.06657e-08 0 -5.08575e-08)
(1.00852e-07 0 -4.65555e-08)
(1.18996e-07 0 -4.15239e-08)
(1.34855e-07 0 -3.59537e-08)
(1.48259e-07 0 -3.01187e-08)
(1.59161e-07 0 -2.42394e-08)
(1.67601e-07 0 -1.8532e-08)
(1.73699e-07 0 -1.32114e-08)
(1.77679e-07 0 -8.51452e-09)
(1.79825e-07 0 -4.54618e-09)
(1.8041e-07 0 -1.09054e-09)
(1.7965e-07 0 1.58133e-09)
(1.77946e-07 0 3.99255e-09)
(1.75866e-07 0 4.30328e-09)
(1.74037e-07 0 2.90652e-09)
(1.72327e-07 0 2.52334e-09)
(1.70954e-07 0 1.70317e-09)
(1.70594e-07 0 -4.20738e-10)
(1.71547e-07 0 -5.33671e-09)
(1.73693e-07 0 -7.202e-09)
(1.77055e-07 0 -1.05509e-08)
(1.81991e-07 0 -1.47284e-08)
(1.88496e-07 0 -1.82079e-08)
(1.96431e-07 0 -2.17389e-08)
(2.05831e-07 0 -2.52459e-08)
(2.16612e-07 0 -2.83328e-08)
(2.28634e-07 0 -3.12337e-08)
(2.41756e-07 0 -3.37073e-08)
(2.55797e-07 0 -3.57415e-08)
(2.70586e-07 0 -3.73166e-08)
(2.85899e-07 0 -3.83422e-08)
(3.0152e-07 0 -3.88611e-08)
(3.17235e-07 0 -3.89242e-08)
(3.32848e-07 0 -3.84417e-08)
(3.48144e-07 0 -3.74125e-08)
(3.62942e-07 0 -3.60158e-08)
(3.77047e-07 0 -3.41222e-08)
(3.90277e-07 0 -3.18203e-08)
(4.02483e-07 0 -2.91923e-08)
(4.13531e-07 0 -2.62222e-08)
(4.23329e-07 0 -2.30483e-08)
(4.3179e-07 0 -1.9477e-08)
(4.38776e-07 0 -1.57281e-08)
(4.44161e-07 0 -1.17785e-08)
(4.47993e-07 0 -8.19922e-09)
(4.50308e-07 0 -4.23598e-09)
(4.5102e-07 0 -2.9281e-10)
(4.50177e-07 0 3.55623e-09)
(4.47751e-07 0 7.55152e-09)
(4.43776e-07 0 1.12367e-08)
(4.38335e-07 0 1.48488e-08)
(4.31448e-07 0 1.83625e-08)
(4.23237e-07 0 2.15587e-08)
(4.13779e-07 0 2.47308e-08)
(4.03116e-07 0 2.76379e-08)
(3.91313e-07 0 3.04943e-08)
(3.78478e-07 0 3.29026e-08)
(3.64701e-07 0 3.51779e-08)
(3.50065e-07 0 3.72589e-08)
(3.34634e-07 0 3.92052e-08)
(3.185e-07 0 4.09201e-08)
(3.01747e-07 0 4.24322e-08)
(2.84435e-07 0 4.37706e-08)
(2.66627e-07 0 4.49523e-08)
(2.48416e-07 0 4.59197e-08)
(2.29852e-07 0 4.66974e-08)
(2.1101e-07 0 4.72646e-08)
(1.91947e-07 0 4.76691e-08)
(1.72697e-07 0 4.78018e-08)
(1.53246e-07 0 4.76339e-08)
(1.33458e-07 0 4.69885e-08)
(1.12799e-07 0 4.55543e-08)
(9.08711e-08 0 4.33628e-08)
(5.86918e-08 0 4.11065e-08)
(3.46924e-08 0 9.15697e-08)
(-2.13146e-10 0 9.6692e-08)
(8.49934e-16 0 -1.35764e-16)
(4.26856e-16 0 -1.47859e-18)
(8.36486e-16 0 3.93945e-18)
(8.47788e-16 0 9.65733e-18)
(8.59648e-16 0 1.52511e-17)
(8.66203e-16 0 2.05658e-17)
(8.67775e-16 0 2.55806e-17)
(8.64993e-16 0 3.02645e-17)
(8.58458e-16 0 3.45762e-17)
(8.48667e-16 0 3.8557e-17)
(8.36073e-16 0 4.21862e-17)
(8.2106e-16 0 4.54639e-17)
(8.03937e-16 0 4.83591e-17)
(7.85057e-16 0 5.09853e-17)
(7.64646e-16 0 5.33221e-17)
(7.4287e-16 0 5.54418e-17)
(7.19906e-16 0 5.72926e-17)
(6.95938e-16 0 5.89573e-17)
(6.71092e-16 0 6.04255e-17)
(6.45511e-16 0 6.17387e-17)
(6.19269e-16 0 6.29174e-17)
(5.92385e-16 0 6.40238e-17)
(5.64985e-16 0 6.50164e-17)
(5.37119e-16 0 6.5947e-17)
(5.08778e-16 0 6.67845e-17)
(4.80003e-16 0 6.76013e-17)
(4.50855e-16 0 6.83355e-17)
(4.21324e-16 0 6.90179e-17)
(3.91443e-16 0 6.96693e-17)
(3.61271e-16 0 7.02587e-17)
(3.3081e-16 0 7.08067e-17)
(3.00029e-16 0 7.12823e-17)
(2.68968e-16 0 7.17372e-17)
(2.37721e-16 0 7.21302e-17)
(2.06247e-16 0 7.24403e-17)
(1.74576e-16 0 7.27195e-17)
(1.42782e-16 0 7.29263e-17)
(1.10884e-16 0 7.30711e-17)
(7.88924e-17 0 7.31435e-17)
(4.67874e-17 0 7.31745e-17)
(1.53545e-17 0 7.31745e-17)
(1.30487e-08 0 -8.19395e-08)
(3.81137e-08 0 -8.00991e-08)
(6.20942e-08 0 -7.6734e-08)
(8.54305e-08 0 -7.17222e-08)
(1.0663e-07 0 -6.54117e-08)
(1.2551e-07 0 -5.80795e-08)
(1.41833e-07 0 -4.9994e-08)
(1.55428e-07 0 -4.15528e-08)
(1.66245e-07 0 -3.30669e-08)
(1.74327e-07 0 -2.4862e-08)
(1.79852e-07 0 -1.72557e-08)
(1.83071e-07 0 -1.05787e-08)
(1.84302e-07 0 -4.89353e-09)
(1.83858e-07 0 -7.86261e-11)
(1.81932e-07 0 3.75848e-09)
(1.79106e-07 0 7.22186e-09)
(1.76078e-07 0 6.89387e-09)
(1.73349e-07 0 5.35171e-09)
(1.70579e-07 0 4.5854e-09)
(1.68374e-07 0 3.57529e-09)
(1.67484e-07 0 -4.39985e-10)
(1.68035e-07 0 -6.50474e-09)
(1.69673e-07 0 -9.68823e-09)
(1.72764e-07 0 -1.45244e-08)
(1.77626e-07 0 -2.06371e-08)
(1.84123e-07 0 -2.54845e-08)
(1.92176e-07 0 -3.06402e-08)
(2.0181e-07 0 -3.56997e-08)
(2.12956e-07 0 -4.01187e-08)
(2.25406e-07 0 -4.42364e-08)
(2.39021e-07 0 -4.78034e-08)
(2.53624e-07 0 -5.07227e-08)
(2.69007e-07 0 -5.29448e-08)
(2.84933e-07 0 -5.44306e-08)
(3.01181e-07 0 -5.51287e-08)
(3.1752e-07 0 -5.52146e-08)
(3.33731e-07 0 -5.45149e-08)
(3.496e-07 0 -5.30532e-08)
(3.6494e-07 0 -5.10492e-08)
(3.79534e-07 0 -4.83434e-08)
(3.93227e-07 0 -4.50875e-08)
(4.05876e-07 0 -4.13192e-08)
(4.17285e-07 0 -3.71021e-08)
(4.27356e-07 0 -3.25849e-08)
(4.36034e-07 0 -2.75595e-08)
(4.43268e-07 0 -2.22721e-08)
(4.48846e-07 0 -1.65919e-08)
(4.52724e-07 0 -1.15174e-08)
(4.55055e-07 0 -5.97216e-09)
(4.55755e-07 0 -3.52553e-10)
(4.54838e-07 0 5.03995e-09)
(4.52303e-07 0 1.07299e-08)
(4.4819e-07 0 1.59455e-08)
(4.4258e-07 0 2.10058e-08)
(4.35517e-07 0 2.60039e-08)
(4.27117e-07 0 3.04716e-08)
(4.17406e-07 0 3.49502e-08)
(4.06485e-07 0 3.90521e-08)
(3.94442e-07 0 4.30486e-08)
(3.8138e-07 0 4.64518e-08)
(3.67349e-07 0 4.96605e-08)
(3.52465e-07 0 5.26049e-08)
(3.36808e-07 0 5.53116e-08)
(3.20462e-07 0 5.7711e-08)
(3.03488e-07 0 5.98434e-08)
(2.85946e-07 0 6.17623e-08)
(2.67909e-07 0 6.34161e-08)
(2.49461e-07 0 6.48087e-08)
(2.30678e-07 0 6.59191e-08)
(2.11608e-07 0 6.67614e-08)
(1.92281e-07 0 6.73983e-08)
(1.72764e-07 0 6.7705e-08)
(1.53038e-07 0 6.77507e-08)
(1.33e-07 0 6.75338e-08)
(1.12395e-07 0 6.71747e-08)
(9.17984e-08 0 6.70436e-08)
(6.72566e-08 0 6.9806e-08)
(3.48997e-08 0 1.15613e-07)
(-2.09751e-10 0 1.21103e-07)
(8.5616e-16 0 -1.90762e-16)
(4.30463e-16 0 -2.10931e-18)
(8.43393e-16 0 6.07978e-18)
(8.54571e-16 0 1.42378e-17)
(8.66141e-16 0 2.2034e-17)
(8.72355e-16 0 2.94373e-17)
(8.73544e-16 0 3.64373e-17)
(8.7036e-16 0 4.29514e-17)
(8.63422e-16 0 4.89794e-17)
(8.53216e-16 0 5.44698e-17)
(8.40178e-16 0 5.94846e-17)
(8.24751e-16 0 6.40134e-17)
(8.07277e-16 0 6.8077e-17)
(7.88024e-16 0 7.17166e-17)
(7.67272e-16 0 7.49219e-17)
(7.45207e-16 0 7.78067e-17)
(7.21994e-16 0 8.03503e-17)
(6.97799e-16 0 8.2594e-17)
(6.72756e-16 0 8.46102e-17)
(6.4701e-16 0 8.64094e-17)
(6.20634e-16 0 8.80224e-17)
(5.93637e-16 0 8.95113e-17)
(5.66133e-16 0 9.08658e-17)
(5.38184e-16 0 9.21479e-17)
(5.09771e-16 0 9.32853e-17)
(4.80933e-16 0 9.43813e-17)
(4.51713e-16 0 9.54153e-17)
(4.22121e-16 0 9.63769e-17)
(3.92166e-16 0 9.72764e-17)
(3.61933e-16 0 9.81036e-17)
(3.3141e-16 0 9.88688e-17)
(3.00577e-16 0 9.95512e-17)
(2.69475e-16 0 1.00172e-16)
(2.38135e-16 0 1.00709e-16)
(2.06599e-16 0 1.01164e-16)
(1.74876e-16 0 1.01567e-16)
(1.42989e-16 0 1.01878e-16)
(1.11028e-16 0 1.02126e-16)
(7.89751e-17 0 1.02291e-16)
(4.68288e-17 0 1.02374e-16)
(1.53752e-17 0 1.02405e-16)
(1.41489e-08 0 -1.07993e-07)
(4.13406e-08 0 -1.05443e-07)
(6.70447e-08 0 -1.0079e-07)
(9.19987e-08 0 -9.3982e-08)
(1.14542e-07 0 -8.53878e-08)
(1.34416e-07 0 -7.54588e-08)
(1.51365e-07 0 -6.45661e-08)
(1.65199e-07 0 -5.32078e-08)
(1.75873e-07 0 -4.18114e-08)
(1.8348e-07 0 -3.08157e-08)
(1.88209e-07 0 -2.06822e-08)
(1.90343e-07 0 -1.18585e-08)
(1.9036e-07 0 -4.10906e-09)
(1.88405e-07 0 2.00474e-09)
(1.84913e-07 0 7.41757e-09)
(1.80785e-07 0 1.22373e-08)
(1.76304e-07 0 9.91682e-09)
(1.72247e-07 0 8.66374e-09)
(1.68127e-07 0 8.15302e-09)
(1.64882e-07 0 7.21126e-09)
(1.63147e-07 0 -2.07292e-09)
(1.63076e-07 0 -6.18668e-09)
(1.64035e-07 0 -1.18704e-08)
(1.66836e-07 0 -1.84466e-08)
(1.71568e-07 0 -2.64496e-08)
(1.78069e-07 0 -3.28647e-08)
(1.86325e-07 0 -3.98227e-08)
(1.96322e-07 0 -4.64185e-08)
(2.07942e-07 0 -5.24799e-08)
(2.20992e-07 0 -5.78087e-08)
(2.35312e-07 0 -6.25376e-08)
(2.50663e-07 0 -6.63796e-08)
(2.66839e-07 0 -6.9289e-08)
(2.836e-07 0 -7.12531e-08)
(3.00705e-07 0 -7.21415e-08)
(3.17904e-07 0 -7.22518e-08)
(3.34952e-07 0 -7.1275e-08)
(3.51619e-07 0 -6.93669e-08)
(3.67711e-07 0 -6.6685e-08)
(3.82993e-07 0 -6.31284e-08)
(3.97284e-07 0 -5.88507e-08)
(4.10467e-07 0 -5.3901e-08)
(4.22352e-07 0 -4.83615e-08)
(4.32832e-07 0 -4.24175e-08)
(4.41839e-07 0 -3.59053e-08)
(4.49334e-07 0 -2.91618e-08)
(4.55176e-07 0 -2.14685e-08)
(4.59117e-07 0 -1.47777e-08)
(4.61417e-07 0 -7.75453e-09)
(4.62102e-07 0 -3.91218e-10)
(4.61122e-07 0 6.65592e-09)
(4.5846e-07 0 1.40082e-08)
(4.5417e-07 0 2.08256e-08)
(4.48347e-07 0 2.73547e-08)
(4.41011e-07 0 3.38411e-08)
(4.32311e-07 0 3.96357e-08)
(4.22287e-07 0 4.54239e-08)
(4.11045e-07 0 5.07104e-08)
(3.98652e-07 0 5.58161e-08)
(3.8526e-07 0 6.02258e-08)
(3.70907e-07 0 6.43576e-08)
(3.55699e-07 0 6.81264e-08)
(3.39722e-07 0 7.16027e-08)
(3.23055e-07 0 7.4678e-08)
(3.0578e-07 0 7.74181e-08)
(2.87945e-07 0 7.99145e-08)
(2.69622e-07 0 8.20101e-08)
(2.50896e-07 0 8.37983e-08)
(2.31832e-07 0 8.52445e-08)
(2.12457e-07 0 8.63901e-08)
(1.92846e-07 0 8.72357e-08)
(1.73061e-07 0 8.77389e-08)
(1.53139e-07 0 8.7958e-08)
(1.33144e-07 0 8.80158e-08)
(1.13018e-07 0 8.81957e-08)
(9.36618e-08 0 8.88711e-08)
(7.13237e-08 0 9.27263e-08)
(3.60719e-08 0 1.49874e-07)
(-2.06715e-10 0 1.47875e-07)
(8.66256e-16 0 -2.42573e-16)
(4.3544e-16 0 -2.69868e-18)
(8.52834e-16 0 8.16841e-18)
(8.63732e-16 0 1.8808e-17)
(8.74857e-16 0 2.89306e-17)
(8.80606e-16 0 3.85466e-17)
(8.81289e-16 0 4.75836e-17)
(8.77546e-16 0 5.59898e-17)
(8.69977e-16 0 6.37239e-17)
(8.59182e-16 0 7.07653e-17)
(8.45616e-16 0 7.71863e-17)
(8.29652e-16 0 8.29662e-17)
(8.11661e-16 0 8.81361e-17)
(7.91912e-16 0 9.27373e-17)
(7.70726e-16 0 9.68112e-17)
(7.48278e-16 0 1.00409e-16)
(7.24683e-16 0 1.03584e-16)
(7.00198e-16 0 1.06396e-16)
(6.74917e-16 0 1.08909e-16)
(6.48934e-16 0 1.11163e-16)
(6.22371e-16 0 1.13179e-16)
(5.95239e-16 0 1.15009e-16)
(5.67611e-16 0 1.16715e-16)
(5.39539e-16 0 1.18297e-16)
(5.11043e-16 0 1.19765e-16)
(4.82143e-16 0 1.21151e-16)
(4.52861e-16 0 1.22454e-16)
(4.23196e-16 0 1.23674e-16)
(3.93169e-16 0 1.24842e-16)
(3.62863e-16 0 1.25928e-16)
(3.32247e-16 0 1.26921e-16)
(3.01332e-16 0 1.2782e-16)
(2.70137e-16 0 1.28606e-16)
(2.38714e-16 0 1.29309e-16)
(2.07116e-16 0 1.29919e-16)
(1.753e-16 0 1.30446e-16)
(1.4334e-16 0 1.30881e-16)
(1.11287e-16 0 1.31222e-16)
(7.91198e-17 0 1.3147e-16)
(4.69115e-17 0 1.31625e-16)
(1.54062e-17 0 1.31687e-16)
(1.55471e-08 0 -1.3667e-07)
(4.54796e-08 0 -1.33392e-07)
(7.36079e-08 0 -1.2731e-07)
(1.00763e-07 0 -1.18411e-07)
(1.25098e-07 0 -1.07143e-07)
(1.46298e-07 0 -9.41262e-08)
(1.64056e-07 0 -7.99249e-08)
(1.78165e-07 0 -6.51105e-08)
(1.88607e-07 0 -5.03459e-08)
(1.95553e-07 0 -3.6153e-08)
(1.99169e-07 0 -2.31267e-08)
(1.99859e-07 0 -1.17861e-08)
(1.98294e-07 0 -1.60616e-09)
(1.9408e-07 0 5.39081e-09)
(1.88485e-07 0 1.28356e-08)
(1.82751e-07 0 1.8232e-08)
(1.76655e-07 0 1.50107e-08)
(1.70605e-07 0 1.39976e-08)
(1.64654e-07 0 1.28911e-08)
(1.60349e-07 0 1.09904e-08)
(1.57539e-07 0 -1.15085e-09)
(1.56407e-07 0 -5.65517e-09)
(1.56655e-07 0 -1.35064e-08)
(1.59118e-07 0 -2.22515e-08)
(1.63703e-07 0 -3.19776e-08)
(1.70226e-07 0 -4.04573e-08)
(1.78735e-07 0 -4.92995e-08)
(1.89202e-07 0 -5.76876e-08)
(2.01439e-07 0 -6.54034e-08)
(2.15294e-07 0 -7.21637e-08)
(2.30528e-07 0 -7.80923e-08)
(2.4687e-07 0 -8.29327e-08)
(2.64106e-07 0 -8.65911e-08)
(2.8197e-07 0 -8.90527e-08)
(3.0018e-07 0 -9.01407e-08)
(3.18468e-07 0 -9.0236e-08)
(3.36556e-07 0 -8.89383e-08)
(3.5422e-07 0 -8.65901e-08)
(3.7126e-07 0 -8.31306e-08)
(3.8741e-07 0 -7.86314e-08)
(4.02473e-07 0 -7.32652e-08)
(4.16344e-07 0 -6.70725e-08)
(4.28861e-07 0 -6.01144e-08)
(4.39847e-07 0 -5.26644e-08)
(4.49257e-07 0 -4.4571e-08)
(4.56999e-07 0 -3.62077e-08)
(4.63185e-07 0 -2.68805e-08)
(4.67253e-07 0 -1.77766e-08)
(4.69516e-07 0 -9.53388e-09)
(4.70146e-07 0 -3.71229e-10)
(4.69063e-07 0 8.42125e-09)
(4.66223e-07 0 1.74391e-08)
(4.61699e-07 0 2.59506e-08)
(4.55565e-07 0 3.40167e-08)
(4.47868e-07 0 4.20164e-08)
(4.38805e-07 0 4.91105e-08)
(4.28402e-07 0 5.62683e-08)
(4.16751e-07 0 6.27519e-08)
(4.03929e-07 0 6.89895e-08)
(3.9011e-07 0 7.43543e-08)
(3.75325e-07 0 7.94482e-08)
(3.59724e-07 0 8.3968e-08)
(3.43363e-07 0 8.82433e-08)
(3.26328e-07 0 9.19694e-08)
(3.08668e-07 0 9.52965e-08)
(2.90462e-07 0 9.83298e-08)
(2.71792e-07 0 1.00912e-07)
(2.52726e-07 0 1.03065e-07)
(2.33303e-07 0 1.0486e-07)
(2.13574e-07 0 1.06297e-07)
(1.93624e-07 0 1.07337e-07)
(1.73528e-07 0 1.08004e-07)
(1.53401e-07 0 1.08277e-07)
(1.33412e-07 0 1.08303e-07)
(1.13465e-07 0 1.08474e-07)
(9.54056e-08 0 1.08129e-07)
(7.5016e-08 0 1.13023e-07)
(3.64178e-08 0 1.88237e-07)
(-2.03845e-10 0 1.72006e-07)
(8.73707e-16 0 -2.87066e-16)
(4.4184e-16 0 -3.12261e-18)
(8.649e-16 0 1.04018e-17)
(8.75354e-16 0 2.36057e-17)
(8.8589e-16 0 3.61892e-17)
(8.90987e-16 0 4.80799e-17)
(8.90987e-16 0 5.92158e-17)
(8.8651e-16 0 6.95349e-17)
(8.78187e-16 0 7.89854e-17)
(8.66658e-16 0 8.76398e-17)
(8.52358e-16 0 9.5436e-17)
(8.35701e-16 0 1.02446e-16)
(8.17058e-16 0 1.08661e-16)
(7.96699e-16 0 1.14172e-16)
(7.74955e-16 0 1.19062e-16)
(7.5198e-16 0 1.23322e-16)
(7.27981e-16 0 1.27076e-16)
(7.03135e-16 0 1.30415e-16)
(6.77523e-16 0 1.33342e-16)
(6.51291e-16 0 1.35978e-16)
(6.2448e-16 0 1.38387e-16)
(5.97173e-16 0 1.40538e-16)
(5.69411e-16 0 1.42565e-16)
(5.41214e-16 0 1.44405e-16)
(5.12625e-16 0 1.46173e-16)
(4.83622e-16 0 1.47869e-16)
(4.54236e-16 0 1.4943e-16)
(4.24519e-16 0 1.50919e-16)
(3.94431e-16 0 1.52356e-16)
(3.64011e-16 0 1.53701e-16)
(3.33302e-16 0 1.54921e-16)
(3.02283e-16 0 1.56037e-16)
(2.70995e-16 0 1.57051e-16)
(2.39469e-16 0 1.5795e-16)
(2.07746e-16 0 1.58726e-16)
(1.75838e-16 0 1.59377e-16)
(1.43774e-16 0 1.59946e-16)
(1.11618e-16 0 1.6038e-16)
(7.9368e-17 0 1.60732e-16)
(4.70356e-17 0 1.60959e-16)
(1.54269e-17 0 1.61052e-16)
(1.73626e-08 0 -1.68514e-07)
(5.08604e-08 0 -1.64337e-07)
(8.21374e-08 0 -1.56551e-07)
(1.12173e-07 0 -1.45099e-07)
(1.38791e-07 0 -1.3066e-07)
(1.61652e-07 0 -1.13982e-07)
(1.80379e-07 0 -9.58672e-08)
(1.9482e-07 0 -7.69958e-08)
(2.04961e-07 0 -5.82756e-08)
(2.1091e-07 0 -4.04493e-08)
(2.12891e-07 0 -2.42448e-08)
(2.1204e-07 0 -9.28698e-09)
(2.07902e-07 0 1.93887e-09)
(2.00956e-07 0 1.21739e-08)
(1.93105e-07 0 2.19738e-08)
(1.84971e-07 0 2.40566e-08)
(1.76889e-07 0 2.23256e-08)
(1.6806e-07 0 2.12589e-08)
(1.60087e-07 0 2.02951e-08)
(1.54489e-07 0 1.51895e-08)
(1.5044e-07 0 1.25635e-09)
(1.47845e-07 0 -4.24588e-09)
(1.4726e-07 0 -1.44072e-08)
(1.49329e-07 0 -2.60358e-08)
(1.53729e-07 0 -3.73345e-08)
(1.60303e-07 0 -4.82757e-08)
(1.69179e-07 0 -5.91924e-08)
(1.80275e-07 0 -6.96086e-08)
(1.93328e-07 0 -7.90622e-08)
(2.08197e-07 0 -8.75858e-08)
(2.2458e-07 0 -9.47139e-08)
(2.42173e-07 0 -1.00644e-07)
(2.6074e-07 0 -1.05111e-07)
(2.79965e-07 0 -1.08082e-07)
(2.99533e-07 0 -1.09365e-07)
(3.19168e-07 0 -1.09427e-07)
(3.38572e-07 0 -1.07751e-07)
(3.5746e-07 0 -1.04863e-07)
(3.7563e-07 0 -1.00602e-07)
(3.9287e-07 0 -9.50627e-08)
(4.08914e-07 0 -8.85016e-08)
(4.23611e-07 0 -8.09438e-08)
(4.3685e-07 0 -7.24885e-08)
(4.48437e-07 0 -6.33819e-08)
(4.5833e-07 0 -5.36776e-08)
(4.66407e-07 0 -4.33204e-08)
(4.72889e-07 0 -3.28524e-08)
(4.77226e-07 0 -2.07556e-08)
(4.79523e-07 0 -1.11868e-08)
(4.80024e-07 0 -3.52282e-10)
(4.78771e-07 0 1.04288e-08)
(4.75714e-07 0 2.10603e-08)
(4.7088e-07 0 3.14486e-08)
(4.64348e-07 0 4.103e-08)
(4.56199e-07 0 5.06016e-08)
(4.46658e-07 0 5.90512e-08)
(4.35759e-07 0 6.75354e-08)
(4.236e-07 0 7.52607e-08)
(4.10262e-07 0 8.2611e-08)
(3.95918e-07 0 8.8995e-08)
(3.8062e-07 0 9.495e-08)
(3.64532e-07 0 1.00323e-07)
(3.4768e-07 0 1.05276e-07)
(3.30178e-07 0 1.09676e-07)
(3.1211e-07 0 1.13568e-07)
(2.93458e-07 0 1.17236e-07)
(2.74395e-07 0 1.20135e-07)
(2.54921e-07 0 1.22692e-07)
(2.35092e-07 0 1.24875e-07)
(2.14941e-07 0 1.26605e-07)
(1.94551e-07 0 1.27858e-07)
(1.74014e-07 0 1.28655e-07)
(1.53498e-07 0 1.28888e-07)
(1.3335e-07 0 1.2857e-07)
(1.13377e-07 0 1.27915e-07)
(9.66545e-08 0 1.25159e-07)
(6.50754e-08 0 1.46372e-07)
(3.22557e-08 0 2.38352e-07)
(-2.0078e-10 0 1.89612e-07)
(8.89959e-16 0 -3.29699e-16)
(4.49657e-16 0 -3.49484e-18)
(8.79562e-16 0 1.28213e-17)
(8.89529e-16 0 2.87445e-17)
(8.99321e-16 0 4.38923e-17)
(9.03612e-16 0 5.81715e-17)
(9.02713e-16 0 7.14684e-17)
(8.97315e-16 0 8.37624e-17)
(8.88103e-16 0 9.49914e-17)
(8.75622e-16 0 1.05217e-16)
(8.60392e-16 0 1.14389e-16)
(8.42887e-16 0 1.22567e-16)
(8.23417e-16 0 1.29816e-16)
(8.02303e-16 0 1.36195e-16)
(7.79866e-16 0 1.41789e-16)
(7.56291e-16 0 1.46659e-16)
(7.31776e-16 0 1.5095e-16)
(7.06464e-16 0 1.54693e-16)
(6.80491e-16 0 1.57992e-16)
(6.53979e-16 0 1.60938e-16)
(6.26931e-16 0 1.63647e-16)
(5.99416e-16 0 1.66088e-16)
(5.71478e-16 0 1.68373e-16)
(5.43158e-16 0 1.70482e-16)
(5.14496e-16 0 1.72519e-16)
(4.8539e-16 0 1.74442e-16)
(4.5589e-16 0 1.76314e-16)
(4.26112e-16 0 1.78102e-16)
(3.95951e-16 0 1.79788e-16)
(3.65428e-16 0 1.81411e-16)
(3.34605e-16 0 1.8289e-16)
(3.03462e-16 0 1.84244e-16)
(2.72049e-16 0 1.85506e-16)
(2.40389e-16 0 1.86622e-16)
(2.08543e-16 0 1.87605e-16)
(1.7652e-16 0 1.88442e-16)
(1.44333e-16 0 1.89135e-16)
(1.12073e-16 0 1.89704e-16)
(7.96989e-17 0 1.90138e-16)
(4.72217e-17 0 1.90417e-16)
(1.5489e-17 0 1.90572e-16)
(1.96841e-08 0 -2.04419e-07)
(5.77431e-08 0 -1.99115e-07)
(9.30029e-08 0 -1.89218e-07)
(1.26681e-07 0 -1.74646e-07)
(1.56189e-07 0 -1.56367e-07)
(1.81143e-07 0 -1.35268e-07)
(2.01052e-07 0 -1.1244e-07)
(2.15858e-07 0 -8.87741e-08)
(2.25465e-07 0 -6.54097e-08)
(2.29807e-07 0 -4.35056e-08)
(2.30213e-07 0 -2.2668e-08)
(2.26942e-07 0 -4.99435e-09)
(2.19326e-07 0 9.02861e-09)
(2.09118e-07 0 2.18079e-08)
(1.98926e-07 0 3.3844e-08)
(1.87584e-07 0 3.21002e-08)
(1.76347e-07 0 3.27554e-08)
(1.64361e-07 0 3.12044e-08)
(1.54806e-07 0 3.20625e-08)
(1.46908e-07 0 1.46606e-08)
(1.41247e-07 0 9.14944e-09)
(1.36925e-07 0 -2.89678e-09)
(1.3569e-07 0 -1.4234e-08)
(1.3718e-07 0 -2.97972e-08)
(1.4133e-07 0 -4.25392e-08)
(1.48082e-07 0 -5.63733e-08)
(1.575e-07 0 -6.97049e-08)
(1.69361e-07 0 -8.23034e-08)
(1.83417e-07 0 -9.38316e-08)
(1.99508e-07 0 -1.0416e-07)
(2.17331e-07 0 -1.12699e-07)
(2.36486e-07 0 -1.19806e-07)
(2.56691e-07 0 -1.25134e-07)
(2.77592e-07 0 -1.28638e-07)
(2.98835e-07 0 -1.30101e-07)
(3.20089e-07 0 -1.3006e-07)
(3.41086e-07 0 -1.27992e-07)
(3.61476e-07 0 -1.24451e-07)
(3.81028e-07 0 -1.19244e-07)
(3.99499e-07 0 -1.12621e-07)
(4.16671e-07 0 -1.04692e-07)
(4.3235e-07 0 -9.56491e-08)
(4.4642e-07 0 -8.56015e-08)
(4.58758e-07 0 -7.46897e-08)
(4.69212e-07 0 -6.32044e-08)
(4.77747e-07 0 -5.08243e-08)
(4.84336e-07 0 -3.89069e-08)
(4.89132e-07 0 -2.40068e-08)
(4.91478e-07 0 -1.26144e-08)
(4.91733e-07 0 -3.10532e-10)
(4.90235e-07 0 1.2713e-08)
(4.86932e-07 0 2.48509e-08)
(4.81716e-07 0 3.74074e-08)
(4.74735e-07 0 4.85503e-08)
(4.66038e-07 0 5.97003e-08)
(4.55911e-07 0 6.95669e-08)
(4.4436e-07 0 7.93382e-08)
(4.31583e-07 0 8.83771e-08)
(4.17648e-07 0 9.67868e-08)
(4.02686e-07 0 1.04278e-07)
(3.86783e-07 0 1.10927e-07)
(3.70093e-07 0 1.17147e-07)
(3.52716e-07 0 1.22857e-07)
(3.34694e-07 0 1.27842e-07)
(3.16056e-07 0 1.32402e-07)
(2.96937e-07 0 1.36439e-07)
(2.77419e-07 0 1.39803e-07)
(2.5748e-07 0 1.42791e-07)
(2.37177e-07 0 1.45332e-07)
(2.16542e-07 0 1.47377e-07)
(1.95632e-07 0 1.48867e-07)
(1.74508e-07 0 1.49815e-07)
(1.53288e-07 0 1.50076e-07)
(1.32268e-07 0 1.49425e-07)
(1.12397e-07 0 1.47408e-07)
(9.36866e-08 0 1.42861e-07)
(5.9459e-08 0 1.83884e-07)
(2.78724e-08 0 2.58768e-07)
(-1.96935e-10 0 2.0465e-07)
(9.05497e-16 0 -3.67678e-16)
(4.59116e-16 0 -3.85673e-18)
(8.97129e-16 0 1.5489e-17)
(9.06425e-16 0 3.4297e-17)
(9.15327e-16 0 5.21848e-17)
(9.18563e-16 0 6.89662e-17)
(9.16558e-16 0 8.45379e-17)
(9.10033e-16 0 9.88791e-17)
(8.99642e-16 0 1.11918e-16)
(8.86055e-16 0 1.23695e-16)
(8.69718e-16 0 1.34231e-16)
(8.51138e-16 0 1.43537e-16)
(8.30696e-16 0 1.51736e-16)
(8.08662e-16 0 1.58901e-16)
(7.85408e-16 0 1.65116e-16)
(7.61141e-16 0 1.70513e-16)
(7.36015e-16 0 1.75207e-16)
(7.10176e-16 0 1.79271e-16)
(6.83779e-16 0 1.82869e-16)
(6.56926e-16 0 1.86064e-16)
(6.29609e-16 0 1.88959e-16)
(6.01898e-16 0 1.91627e-16)
(5.73805e-16 0 1.94129e-16)
(5.45371e-16 0 1.96486e-16)
(5.16585e-16 0 1.98772e-16)
(4.87416e-16 0 2.00953e-16)
(4.57876e-16 0 2.03114e-16)
(4.27983e-16 0 2.05213e-16)
(3.97739e-16 0 2.07188e-16)
(3.67113e-16 0 2.09101e-16)
(3.36156e-16 0 2.1089e-16)
(3.04899e-16 0 2.12544e-16)
(2.73342e-16 0 2.14054e-16)
(2.41547e-16 0 2.15429e-16)
(2.09566e-16 0 2.16649e-16)
(1.77379e-16 0 2.17683e-16)
(1.45046e-16 0 2.18551e-16)
(1.12631e-16 0 2.19265e-16)
(8.00814e-17 0 2.19772e-16)
(4.74698e-17 0 2.20154e-16)
(1.55924e-17 0 2.20392e-16)
(2.26082e-08 0 -2.45504e-07)
(6.64323e-08 0 -2.38782e-07)
(1.06709e-07 0 -2.2626e-07)
(1.44996e-07 0 -2.0785e-07)
(1.78113e-07 0 -1.84833e-07)
(2.05584e-07 0 -1.5838e-07)
(2.26995e-07 0 -1.29726e-07)
(2.42061e-07 0 -1.00395e-07)
(2.50556e-07 0 -7.16368e-08)
(2.53356e-07 0 -4.40104e-08)
(2.51596e-07 0 -1.85669e-08)
(2.44601e-07 0 2.38528e-09)
(2.32505e-07 0 1.85994e-08)
(2.19744e-07 0 3.79212e-08)
(2.05164e-07 0 4.45006e-08)
(1.90353e-07 0 4.59531e-08)
(1.74465e-07 0 4.54511e-08)
(1.59925e-07 0 4.55308e-08)
(1.48042e-07 0 4.26327e-08)
(1.37528e-07 0 2.20316e-08)
(1.29335e-07 0 1.61515e-08)
(1.2358e-07 0 4.10868e-10)
(1.2145e-07 0 -1.42515e-08)
(1.22226e-07 0 -3.21068e-08)
(1.26143e-07 0 -4.82062e-08)
(1.33213e-07 0 -6.48195e-08)
(1.43292e-07 0 -8.0946e-08)
(1.56142e-07 0 -9.59843e-08)
(1.71512e-07 0 -1.09873e-07)
(1.89146e-07 0 -1.2218e-07)
(2.08719e-07 0 -1.32452e-07)
(2.29772e-07 0 -1.40711e-07)
(2.51946e-07 0 -1.46973e-07)
(2.74857e-07 0 -1.51035e-07)
(2.98104e-07 0 -1.52685e-07)
(3.21299e-07 0 -1.52364e-07)
(3.44182e-07 0 -1.5e-07)
(3.66349e-07 0 -1.45542e-07)
(3.87477e-07 0 -1.39332e-07)
(4.07394e-07 0 -1.31467e-07)
(4.25906e-07 0 -1.22025e-07)
(4.4274e-07 0 -1.11337e-07)
(4.5776e-07 0 -9.95008e-08)
(4.70888e-07 0 -8.67453e-08)
(4.82019e-07 0 -7.3235e-08)
(4.91099e-07 0 -5.8865e-08)
(4.97913e-07 0 -4.44174e-08)
(5.03048e-07 0 -2.91097e-08)
(5.05426e-07 0 -1.2863e-08)
(5.05559e-07 0 -3.20097e-11)
(5.03715e-07 0 1.51534e-08)
(5.00008e-07 0 2.91872e-08)
(4.94283e-07 0 4.37395e-08)
(4.86731e-07 0 5.67111e-08)
(4.77411e-07 0 6.92545e-08)
(4.66539e-07 0 8.09197e-08)
(4.54264e-07 0 9.17751e-08)
(4.40716e-07 0 1.02274e-07)
(4.26125e-07 0 1.11407e-07)
(4.10363e-07 0 1.20297e-07)
(3.9378e-07 0 1.27694e-07)
(3.76412e-07 0 1.34517e-07)
(3.58369e-07 0 1.40999e-07)
(3.3975e-07 0 1.4665e-07)
(3.20562e-07 0 1.51652e-07)
(3.00887e-07 0 1.56179e-07)
(2.8087e-07 0 1.59989e-07)
(2.60418e-07 0 1.63369e-07)
(2.39592e-07 0 1.6627e-07)
(2.18429e-07 0 1.68647e-07)
(1.96956e-07 0 1.70434e-07)
(1.75147e-07 0 1.71632e-07)
(1.53001e-07 0 1.72109e-07)
(1.30477e-07 0 1.71606e-07)
(1.07895e-07 0 1.6954e-07)
(8.15705e-08 0 1.64303e-07)
(5.6949e-08 0 2.29844e-07)
(2.14694e-08 0 2.692e-07)
(-1.92311e-10 0 2.21591e-07)
(9.2678e-16 0 -3.986e-16)