/*--------------------------------*- C++ -*----------------------------------*\
  =========                 |
  \\      /  F ield         | OpenFOAM: The Open Source CFD Toolbox
   \\    /   O peration     | Website:  https://openfoam.org
    \\  /    A nd           | Version:  6
     \\/     M anipulation  |
\*---------------------------------------------------------------------------*/
FoamFile
{
    version     2.0;
    format      ascii;
    class       volVectorField;
    location    "5500";
    object      U;
}
// * * * * * * * * * * * * * * * * * * * * * * * * * * * * * * * * * * * * * //

dimensions      [0 1 -1 0 0 0 0];

internalField   nonuniform List<vector> 
4800
(
(-2.30562e-08 0 2.45436e-08)
(-7.18676e-08 0 2.11366e-08)
(-1.18505e-07 0 1.94933e-08)
(-1.64029e-07 0 1.84918e-08)
(-2.07702e-07 0 1.75918e-08)
(-2.49028e-07 0 1.66051e-08)
(-2.87559e-07 0 1.5513e-08)
(-3.22932e-07 0 1.42804e-08)
(-3.54826e-07 0 1.29036e-08)
(-3.82966e-07 0 1.13763e-08)
(-4.07153e-07 0 9.74003e-09)
(-4.27239e-07 0 7.97965e-09)
(-4.43129e-07 0 6.1214e-09)
(-4.54816e-07 0 4.2541e-09)
(-4.62388e-07 0 2.38414e-09)
(-4.65962e-07 0 5.43328e-10)
(-4.65555e-07 0 -1.33821e-09)
(-4.60894e-07 0 -3.44416e-09)
(-4.52526e-07 0 -5.10624e-09)
(-4.41037e-07 0 -6.5986e-09)
(-4.26126e-07 0 -8.11873e-09)
(-4.07703e-07 0 -1.01318e-08)
(-3.86557e-07 0 -1.10404e-08)
(-3.63019e-07 0 -1.23475e-08)
(-3.36971e-07 0 -1.35188e-08)
(-3.08771e-07 0 -1.4473e-08)
(-2.78749e-07 0 -1.53293e-08)
(-2.47074e-07 0 -1.60841e-08)
(-2.13984e-07 0 -1.67059e-08)
(-1.79708e-07 0 -1.72457e-08)
(-1.44437e-07 0 -1.7674e-08)
(-1.08413e-07 0 -1.79952e-08)
(-7.18023e-08 0 -1.82296e-08)
(-3.48299e-08 0 -1.83613e-08)
(2.35439e-09 0 -1.84267e-08)
(3.95775e-08 0 -1.83906e-08)
(7.66543e-08 0 -1.829e-08)
(1.13426e-07 0 -1.809e-08)
(1.49762e-07 0 -1.78448e-08)
(1.85495e-07 0 -1.75102e-08)
(2.20496e-07 0 -1.7118e-08)
(2.54616e-07 0 -1.66383e-08)
(2.87709e-07 0 -1.61092e-08)
(3.19674e-07 0 -1.55184e-08)
(3.50343e-07 0 -1.48261e-08)
(3.79608e-07 0 -1.4134e-08)
(4.07364e-07 0 -1.33386e-08)
(4.33456e-07 0 -1.24911e-08)
(4.57761e-07 0 -1.15676e-08)
(4.80168e-07 0 -1.06132e-08)
(5.00568e-07 0 -9.57951e-09)
(5.18837e-07 0 -8.50235e-09)
(5.34867e-07 0 -7.36283e-09)
(5.48543e-07 0 -6.16487e-09)
(5.59758e-07 0 -4.92309e-09)
(5.6846e-07 0 -3.66109e-09)
(5.74542e-07 0 -2.31685e-09)
(5.77907e-07 0 -9.7447e-10)
(5.78518e-07 0 4.44335e-10)
(5.7629e-07 0 1.82876e-09)
(5.71234e-07 0 3.25495e-09)
(5.63288e-07 0 4.68995e-09)
(5.52434e-07 0 6.13744e-09)
(5.38671e-07 0 7.56956e-09)
(5.22025e-07 0 8.9845e-09)
(5.02553e-07 0 1.03605e-08)
(4.80309e-07 0 1.17117e-08)
(4.5538e-07 0 1.3005e-08)
(4.27884e-07 0 1.42275e-08)
(3.98001e-07 0 1.5349e-08)
(3.65927e-07 0 1.6378e-08)
(3.31908e-07 0 1.72708e-08)
(2.96301e-07 0 1.79739e-08)
(2.59712e-07 0 1.82879e-08)
(2.23554e-07 0 1.77826e-08)
(1.91128e-07 0 1.50752e-08)
(1.67254e-07 0 2.72764e-09)
(1.10281e-07 0 2.91721e-08)
(-7.68321e-11 0 4.03748e-08)
(1.83724e-15 0 -5.90436e-17)
(9.59704e-16 0 -8.16841e-19)
(1.82509e-15 0 3.20533e-19)
(1.82359e-15 0 1.8198e-18)
(1.81959e-15 0 3.39144e-18)
(1.81253e-15 0 4.96308e-18)
(1.80246e-15 0 6.46235e-18)
(1.78951e-15 0 7.93059e-18)
(1.77378e-15 0 9.34714e-18)
(1.75531e-15 0 1.0681e-17)
(1.73429e-15 0 1.19734e-17)
(1.71079e-15 0 1.32142e-17)
(1.68491e-15 0 1.44033e-17)
(1.65673e-15 0 1.552e-17)
(1.62626e-15 0 1.66367e-17)
(1.59362e-15 0 1.7743e-17)
(1.55881e-15 0 1.88287e-17)
(1.52182e-15 0 1.98937e-17)
(1.48265e-15 0 2.09794e-17)
(1.44129e-15 0 2.21167e-17)
(1.39768e-15 0 2.32334e-17)
(1.35171e-15 0 2.43812e-17)
(1.30335e-15 0 2.55702e-17)
(1.25256e-15 0 2.67903e-17)
(1.19923e-15 0 2.80104e-17)
(1.14342e-15 0 2.92925e-17)
(1.0851e-15 0 3.0523e-17)
(1.02415e-15 0 3.17741e-17)
(9.60657e-16 0 3.30045e-17)
(8.94637e-16 0 3.42039e-17)
(8.26198e-16 0 3.53827e-17)
(7.55443e-16 0 3.64787e-17)
(6.82424e-16 0 3.75126e-17)
(6.07357e-16 0 3.84639e-17)
(5.3045e-16 0 3.93118e-17)
(4.51827e-16 0 4.00355e-17)
(3.71787e-16 0 4.06663e-17)
(2.90516e-16 0 4.11833e-17)
(2.08253e-16 0 4.15968e-17)
(1.25318e-16 0 4.1876e-17)
(4.18553e-17 0 4.20415e-17)
(-2.31879e-08 0 7.24121e-08)
(-7.24232e-08 0 7.40627e-08)
(-1.19987e-07 0 7.31706e-08)
(-1.66246e-07 0 7.07882e-08)
(-2.10496e-07 0 6.74183e-08)
(-2.52292e-07 0 6.3242e-08)
(-2.91233e-07 0 5.8413e-08)
(-3.26926e-07 0 5.3028e-08)
(-3.59052e-07 0 4.72017e-08)
(-3.87368e-07 0 4.10262e-08)
(-4.11656e-07 0 3.46148e-08)
(-4.31757e-07 0 2.80399e-08)
(-4.47608e-07 0 2.13918e-08)
(-4.59226e-07 0 1.49784e-08)
(-4.66722e-07 0 8.71505e-09)
(-4.70182e-07 0 2.77618e-09)
(-4.69551e-07 0 -3.28703e-09)
(-4.64663e-07 0 -9.90246e-09)
(-4.56146e-07 0 -1.5031e-08)
(-4.44429e-07 0 -1.9624e-08)
(-4.29232e-07 0 -2.43826e-08)
(-4.10585e-07 0 -3.04471e-08)
(-3.89238e-07 0 -3.33293e-08)
(-3.65419e-07 0 -3.72842e-08)
(-3.39107e-07 0 -4.09261e-08)
(-3.10653e-07 0 -4.38251e-08)
(-2.80397e-07 0 -4.64443e-08)
(-2.48491e-07 0 -4.87769e-08)
(-2.1517e-07 0 -5.06898e-08)
(-1.80673e-07 0 -5.23506e-08)
(-1.45197e-07 0 -5.36563e-08)
(-1.08975e-07 0 -5.46465e-08)
(-7.21688e-08 0 -5.53668e-08)
(-3.50128e-08 0 -5.57711e-08)
(2.3348e-09 0 -5.59505e-08)
(3.97204e-08 0 -5.5879e-08)
(7.69551e-08 0 -5.55405e-08)
(1.13878e-07 0 -5.49516e-08)
(1.50366e-07 0 -5.41918e-08)
(1.86234e-07 0 -5.31743e-08)
(2.21361e-07 0 -5.19637e-08)
(2.55617e-07 0 -5.05312e-08)
(2.88851e-07 0 -4.89072e-08)
(3.20944e-07 0 -4.71003e-08)
(3.51746e-07 0 -4.50128e-08)
(3.81143e-07 0 -4.2894e-08)
(4.09032e-07 0 -4.04879e-08)
(4.35248e-07 0 -3.78945e-08)
(4.59682e-07 0 -3.51192e-08)
(4.82217e-07 0 -3.21964e-08)
(5.02725e-07 0 -2.90686e-08)
(5.21095e-07 0 -2.57922e-08)
(5.37214e-07 0 -2.23352e-08)
(5.50993e-07 0 -1.8731e-08)
(5.6232e-07 0 -1.49643e-08)
(5.71099e-07 0 -1.11258e-08)
(5.77246e-07 0 -7.07601e-09)
(5.80667e-07 0 -2.9904e-09)
(5.81326e-07 0 1.27712e-09)
(5.79149e-07 0 5.47862e-09)
(5.74127e-07 0 9.80113e-09)
(5.66202e-07 0 1.41518e-08)
(5.55358e-07 0 1.85566e-08)
(5.41581e-07 0 2.29268e-08)
(5.24901e-07 0 2.72468e-08)
(5.05366e-07 0 3.14778e-08)
(4.83014e-07 0 3.56376e-08)
(4.57954e-07 0 3.96111e-08)
(4.3032e-07 0 4.3372e-08)
(4.00256e-07 0 4.68658e-08)
(3.67917e-07 0 5.00763e-08)
(3.33524e-07 0 5.2861e-08)
(2.97334e-07 0 5.51159e-08)
(2.59543e-07 0 5.65159e-08)
(2.20094e-07 0 5.63812e-08)
(1.78233e-07 0 5.25294e-08)
(1.24097e-07 0 3.75403e-08)
(7.61562e-08 0 1.11681e-07)
(-7.27916e-11 0 1.05084e-07)
(1.83363e-15 0 -1.75589e-16)
(9.61578e-16 0 -3.20533e-18)
(1.82773e-15 0 1.22009e-18)
(1.82667e-15 0 5.97638e-18)
(1.82273e-15 0 1.0774e-17)
(1.8156e-15 0 1.55096e-17)
(1.80544e-15 0 2.00798e-17)
(1.79239e-15 0 2.45259e-17)
(1.7765e-15 0 2.87445e-17)
(1.75793e-15 0 3.2777e-17)
(1.73682e-15 0 3.66441e-17)
(1.71322e-15 0 4.03457e-17)
(1.6872e-15 0 4.38923e-17)
(1.65894e-15 0 4.72837e-17)
(1.62847e-15 0 5.06131e-17)
(1.59581e-15 0 5.38701e-17)
(1.56095e-15 0 5.71168e-17)
(1.52398e-15 0 6.03325e-17)
(1.48489e-15 0 6.35999e-17)
(1.44354e-15 0 6.69086e-17)
(1.39995e-15 0 7.0269e-17)
(1.35405e-15 0 7.37225e-17)
(1.30576e-15 0 7.72794e-17)
(1.25499e-15 0 8.08983e-17)
(1.20172e-15 0 8.45896e-17)
(1.14593e-15 0 8.83532e-17)
(1.08758e-15 0 9.20756e-17)
(1.02663e-15 0 9.57979e-17)
(9.63097e-16 0 9.94892e-17)
(8.97015e-16 0 1.03067e-16)
(8.28463e-16 0 1.06541e-16)
(7.57573e-16 0 1.09829e-16)
(6.84399e-16 0 1.12869e-16)
(6.09146e-16 0 1.15712e-16)
(5.32043e-16 0 1.18225e-16)
(4.53212e-16 0 1.20438e-16)
(3.72934e-16 0 1.2234e-16)
(2.91436e-16 0 1.2386e-16)
(2.08967e-16 0 1.25028e-16)
(1.25773e-16 0 1.25804e-16)
(4.20104e-17 0 1.26228e-16)
(-2.41036e-08 0 1.20738e-07)
(-7.47368e-08 0 1.19483e-07)
(-1.22911e-07 0 1.16645e-07)
(-1.69876e-07 0 1.12477e-07)
(-2.14904e-07 0 1.07051e-07)
(-2.57461e-07 0 1.00512e-07)
(-2.97096e-07 0 9.29889e-08)
(-3.33415e-07 0 8.45661e-08)
(-3.66082e-07 0 7.54242e-08)
(-3.94825e-07 0 6.56824e-08)
(-4.19439e-07 0 5.54974e-08)
(-4.39773e-07 0 4.49648e-08)
(-4.55735e-07 0 3.42712e-08)
(-4.67381e-07 0 2.38676e-08)
(-4.74901e-07 0 1.36649e-08)
(-4.78241e-07 0 4.0437e-09)
(-4.77251e-07 0 -6.49387e-09)
(-4.71988e-07 0 -1.70164e-08)
(-4.6327e-07 0 -2.54562e-08)
(-4.51142e-07 0 -3.32254e-08)
(-4.3533e-07 0 -4.15202e-08)
(-4.16198e-07 0 -5.08765e-08)
(-3.94473e-07 0 -5.60991e-08)
(-3.70131e-07 0 -6.25706e-08)
(-3.43306e-07 0 -6.86987e-08)
(-3.144e-07 0 -7.3414e-08)
(-2.83683e-07 0 -7.77887e-08)
(-2.51318e-07 0 -8.16566e-08)
(-2.17556e-07 0 -8.48304e-08)
(-1.82633e-07 0 -8.75568e-08)
(-1.46748e-07 0 -8.97072e-08)
(-1.10126e-07 0 -9.13491e-08)
(-7.29366e-08 0 -9.25268e-08)
(-3.54059e-08 0 -9.31937e-08)
(2.29588e-09 0 -9.34413e-08)
(4.00044e-08 0 -9.33359e-08)
(7.75496e-08 0 -9.27406e-08)
(1.14778e-07 0 -9.17673e-08)
(1.5157e-07 0 -9.04938e-08)
(1.87729e-07 0 -8.87816e-08)
(2.2313e-07 0 -8.67436e-08)
(2.57651e-07 0 -8.43803e-08)
(2.91149e-07 0 -8.16727e-08)
(3.23513e-07 0 -7.86457e-08)
(3.54584e-07 0 -7.51898e-08)
(3.84225e-07 0 -7.16329e-08)
(4.12337e-07 0 -6.76341e-08)
(4.38791e-07 0 -6.33077e-08)
(4.63469e-07 0 -5.87094e-08)
(4.86243e-07 0 -5.38154e-08)
(5.06984e-07 0 -4.8602e-08)
(5.25577e-07 0 -4.31383e-08)
(5.41915e-07 0 -3.73689e-08)
(5.55875e-07 0 -3.13608e-08)
(5.67362e-07 0 -2.50866e-08)
(5.76329e-07 0 -1.86792e-08)
(5.82651e-07 0 -1.19318e-08)
(5.86214e-07 0 -5.09069e-09)
(5.86999e-07 0 2.00158e-09)
(5.8491e-07 0 9.02761e-09)
(5.79945e-07 0 1.62384e-08)
(5.7203e-07 0 2.35124e-08)
(5.61148e-07 0 3.08544e-08)
(5.47323e-07 0 3.81268e-08)
(5.30564e-07 0 4.5335e-08)
(5.10881e-07 0 5.24191e-08)
(4.88347e-07 0 5.9331e-08)
(4.63072e-07 0 6.59531e-08)
(4.35132e-07 0 7.22293e-08)
(4.04679e-07 0 7.80956e-08)
(3.71874e-07 0 8.34989e-08)
(3.36893e-07 0 8.82663e-08)
(2.9988e-07 0 9.22999e-08)
(2.60868e-07 0 9.53909e-08)
(2.1951e-07 0 9.73577e-08)
(1.74805e-07 0 9.7948e-08)
(1.20893e-07 0 9.81685e-08)
(7.12048e-08 0 1.53621e-07)
(-7.29593e-11 0 1.55957e-07)
(1.83947e-15 0 -2.89017e-16)
(9.65642e-16 0 -6.14182e-18)
(1.83429e-15 0 2.24373e-18)
(1.83317e-15 0 1.05259e-17)
(1.82913e-15 0 1.86839e-17)
(1.82184e-15 0 2.66145e-17)
(1.81147e-15 0 3.43383e-17)
(1.79817e-15 0 4.17416e-17)
(1.78203e-15 0 4.88037e-17)
(1.76322e-15 0 5.55452e-17)
(1.74186e-15 0 6.19765e-17)
(1.71801e-15 0 6.8108e-17)
(1.69183e-15 0 7.3981e-17)
(1.66346e-15 0 7.96472e-17)
(1.63284e-15 0 8.51169e-17)
(1.6001e-15 0 9.05039e-17)
(1.56525e-15 0 9.58496e-17)
(1.5283e-15 0 1.01195e-16)
(1.48923e-15 0 1.06613e-16)
(1.44796e-15 0 1.12052e-16)
(1.4045e-15 0 1.17666e-16)
(1.35872e-15 0 1.23395e-16)
(1.31051e-15 0 1.29299e-16)
(1.25986e-15 0 1.35296e-16)
(1.20667e-15 0 1.41448e-16)
(1.15092e-15 0 1.47683e-16)
(1.09255e-15 0 1.53949e-16)
(1.03157e-15 0 1.60163e-16)
(9.67936e-16 0 1.66294e-16)
(9.01689e-16 0 1.72281e-16)
(8.3295e-16 0 1.7804e-16)
(7.61771e-16 0 1.8352e-16)
(6.88307e-16 0 1.88608e-16)
(6.12703e-16 0 1.93343e-16)
(5.35176e-16 0 1.97562e-16)
(4.55942e-16 0 2.01243e-16)
(3.75188e-16 0 2.04386e-16)
(2.93194e-16 0 2.0694e-16)
(2.10207e-16 0 2.08842e-16)
(1.26528e-16 0 2.10104e-16)
(4.22793e-17 0 2.10714e-16)
(-2.48691e-08 0 1.71811e-07)
(-7.72348e-08 0 1.69798e-07)
(-1.27079e-07 0 1.65758e-07)
(-1.75582e-07 0 1.59841e-07)
(-2.22022e-07 0 1.52129e-07)
(-2.65874e-07 0 1.42799e-07)
(-3.06648e-07 0 1.32055e-07)
(-3.43943e-07 0 1.20024e-07)
(-3.77405e-07 0 1.06971e-07)
(-4.06774e-07 0 9.30649e-08)
(-4.31827e-07 0 7.85308e-08)
(-4.52427e-07 0 6.35006e-08)
(-4.68492e-07 0 4.83341e-08)
(-4.80115e-07 0 3.35151e-08)
(-4.87571e-07 0 1.91238e-08)
(-4.90615e-07 0 5.5303e-09)
(-4.88996e-07 0 -9.87813e-09)
(-4.83165e-07 0 -2.43998e-08)
(-4.74159e-07 0 -3.61656e-08)
(-4.61327e-07 0 -4.70428e-08)
(-4.44524e-07 0 -5.94473e-08)
(-4.24699e-07 0 -7.15692e-08)
(-4.02379e-07 0 -7.94323e-08)
(-3.77212e-07 0 -8.84354e-08)
(-3.49641e-07 0 -9.70873e-08)
(-3.20047e-07 0 -1.0352e-07)
(-2.88604e-07 0 -1.09727e-07)
(-2.5554e-07 0 -1.15075e-07)
(-2.21113e-07 0 -1.19521e-07)
(-1.85549e-07 0 -1.23283e-07)
(-1.49039e-07 0 -1.26292e-07)
(-1.11811e-07 0 -1.28574e-07)
(-7.40489e-08 0 -1.30172e-07)
(-3.5978e-08 0 -1.31098e-07)
(2.24074e-09 0 -1.3139e-07)
(4.04481e-08 0 -1.31221e-07)
(7.84643e-08 0 -1.30367e-07)
(1.16144e-07 0 -1.28988e-07)
(1.53362e-07 0 -1.27181e-07)
(1.89935e-07 0 -1.24777e-07)
(2.2578e-07 0 -1.21927e-07)
(2.60726e-07 0 -1.18581e-07)
(2.94594e-07 0 -1.14797e-07)
(3.27335e-07 0 -1.10555e-07)
(3.58798e-07 0 -1.05718e-07)
(3.88823e-07 0 -1.00698e-07)
(4.17323e-07 0 -9.51162e-08)
(4.4416e-07 0 -8.90541e-08)
(4.69196e-07 0 -8.26038e-08)
(4.9231e-07 0 -7.57355e-08)
(5.13382e-07 0 -6.8425e-08)
(5.32297e-07 0 -6.07534e-08)
(5.48945e-07 0 -5.26667e-08)
(5.63221e-07 0 -4.42265e-08)
(5.7501e-07 0 -3.5427e-08)
(5.84229e-07 0 -2.64325e-08)
(5.90747e-07 0 -1.69352e-08)
(5.94506e-07 0 -7.32856e-09)
(5.9548e-07 0 2.61626e-09)
(5.93537e-07 0 1.25369e-08)
(5.88648e-07 0 2.26816e-08)
(5.80792e-07 0 3.29417e-08)
(5.69932e-07 0 4.32635e-08)
(5.56061e-07 0 5.35191e-08)
(5.39176e-07 0 6.36997e-08)
(5.19298e-07 0 7.3742e-08)
(4.96485e-07 0 8.3493e-08)
(4.70841e-07 0 9.28781e-08)
(4.4246e-07 0 1.01795e-07)
(4.11473e-07 0 1.1015e-07)
(3.78026e-07 0 1.1788e-07)
(3.42305e-07 0 1.2477e-07)
(3.04465e-07 0 1.30815e-07)
(2.64591e-07 0 1.35929e-07)
(2.22704e-07 0 1.40212e-07)
(1.79017e-07 0 1.44184e-07)
(1.32889e-07 0 1.50254e-07)
(7.16753e-08 0 2.0313e-07)
(-7.35602e-11 0 2.05063e-07)
(1.84802e-15 0 -3.96101e-16)
(9.71679e-16 0 -8.77846e-18)
(1.84441e-15 0 3.24668e-18)
(1.84311e-15 0 1.50443e-17)
(1.83881e-15 0 2.66249e-17)
(1.83124e-15 0 3.78435e-17)
(1.82056e-15 0 4.86796e-17)
(1.80686e-15 0 5.904e-17)
(1.79032e-15 0 6.89765e-17)
(1.77113e-15 0 7.84064e-17)
(1.74937e-15 0 8.7371e-17)
(1.72519e-15 0 9.59219e-17)
(1.69874e-15 0 1.0409e-16)
(1.6701e-15 0 1.11949e-16)
(1.63934e-15 0 1.19517e-16)
(1.60652e-15 0 1.26993e-16)
(1.57164e-15 0 1.34365e-16)
(1.53473e-15 0 1.41779e-16)
(1.49574e-15 0 1.49244e-16)
(1.45461e-15 0 1.56864e-16)
(1.41128e-15 0 1.64681e-16)
(1.36566e-15 0 1.72674e-16)
(1.31764e-15 0 1.80894e-16)
(1.26715e-15 0 1.89321e-16)
(1.21412e-15 0 1.97944e-16)
(1.15844e-15 0 2.06702e-16)
(1.10007e-15 0 2.15522e-16)
(1.03899e-15 0 2.24321e-16)
(9.75215e-16 0 2.32955e-16)
(9.08772e-16 0 2.41413e-16)
(8.39712e-16 0 2.49571e-16)
(7.68151e-16 0 2.57305e-16)
(6.94232e-16 0 2.64512e-16)
(6.181e-16 0 2.71171e-16)
(5.39932e-16 0 2.77147e-16)
(4.60016e-16 0 2.82358e-16)
(3.78632e-16 0 2.86784e-16)
(2.95903e-16 0 2.90371e-16)
(2.1212e-16 0 2.9307e-16)
(1.27634e-16 0 2.9488e-16)
(4.26205e-17 0 2.95738e-16)
(-2.5904e-08 0 2.24687e-07)
(-8.06202e-08 0 2.22083e-07)
(-1.32783e-07 0 2.16802e-07)
(-1.83472e-07 0 2.08994e-07)
(-2.31899e-07 0 1.98834e-07)
(-2.77541e-07 0 1.86507e-07)
(-3.19876e-07 0 1.72293e-07)
(-3.5848e-07 0 1.56419e-07)
(-3.93004e-07 0 1.39203e-07)
(-4.23167e-07 0 1.20914e-07)
(-4.4877e-07 0 1.01795e-07)
(-4.69707e-07 0 8.20525e-08)
(-4.85841e-07 0 6.23967e-08)
(-4.97458e-07 0 4.28836e-08)
(-5.04679e-07 0 2.45194e-08)
(-5.0704e-07 0 6.9876e-09)
(-5.04794e-07 0 -1.48884e-08)
(-4.98342e-07 0 -3.23326e-08)
(-4.88689e-07 0 -4.69693e-08)
(-4.74776e-07 0 -6.12304e-08)
(-4.5688e-07 0 -8.04923e-08)
(-4.36193e-07 0 -9.18754e-08)
(-4.12877e-07 0 -1.03935e-07)
(-3.86664e-07 0 -1.15268e-07)
(-3.58097e-07 0 -1.26304e-07)
(-3.27559e-07 0 -1.34483e-07)
(-2.95127e-07 0 -1.42519e-07)
(-2.61134e-07 0 -1.49307e-07)
(-2.25814e-07 0 -1.54981e-07)
(-1.8937e-07 0 -1.59778e-07)
(-1.52021e-07 0 -1.63595e-07)
(-1.14029e-07 0 -1.66466e-07)
(-7.55223e-08 0 -1.68469e-07)
(-3.67247e-08 0 -1.69622e-07)
(2.18235e-09 0 -1.69928e-07)
(4.10608e-08 0 -1.69687e-07)
(7.97099e-08 0 -1.6853e-07)
(1.18012e-07 0 -1.66748e-07)
(1.55827e-07 0 -1.6436e-07)
(1.92955e-07 0 -1.61269e-07)
(2.29313e-07 0 -1.57577e-07)
(2.64796e-07 0 -1.53257e-07)
(2.99201e-07 0 -1.48373e-07)
(3.32469e-07 0 -1.42914e-07)
(3.64459e-07 0 -1.3674e-07)
(3.94985e-07 0 -1.30176e-07)
(4.23974e-07 0 -1.2304e-07)
(4.51294e-07 0 -1.15238e-07)
(4.76814e-07 0 -1.06913e-07)
(5.00405e-07 0 -9.80644e-08)
(5.21953e-07 0 -8.86601e-08)
(5.4132e-07 0 -7.87401e-08)
(5.58397e-07 0 -6.83468e-08)
(5.73078e-07 0 -5.74466e-08)
(5.85231e-07 0 -4.60949e-08)
(5.94807e-07 0 -3.44568e-08)
(6.01634e-07 0 -2.21949e-08)
(6.05666e-07 0 -9.79579e-09)
(6.06859e-07 0 3.01251e-09)
(6.05123e-07 0 1.59016e-08)
(6.00373e-07 0 2.90249e-08)
(5.92589e-07 0 4.22976e-08)
(5.81731e-07 0 5.56795e-08)
(5.67777e-07 0 6.8984e-08)
(5.50745e-07 0 8.22103e-08)
(5.30619e-07 0 9.52972e-08)
(5.07456e-07 0 1.07955e-07)
(4.81368e-07 0 1.202e-07)
(4.52421e-07 0 1.31864e-07)
(4.20719e-07 0 1.4283e-07)
(3.86454e-07 0 1.5296e-07)
(3.49822e-07 0 1.62095e-07)
(3.11042e-07 0 1.7015e-07)
(2.70388e-07 0 1.77153e-07)
(2.28112e-07 0 1.83288e-07)
(1.84833e-07 0 1.8904e-07)
(1.39403e-07 0 1.96682e-07)
(7.37345e-08 0 2.65865e-07)
(-7.43958e-11 0 2.56978e-07)
(1.86095e-15 0 -5.01122e-16)
(9.79825e-16 0 -1.126e-17)
(1.85813e-15 0 4.40474e-18)
(1.85653e-15 0 1.98213e-17)
(1.8519e-15 0 3.48553e-17)
(1.8439e-15 0 4.94447e-17)
(1.83269e-15 0 6.34448e-17)
(1.81847e-15 0 7.68451e-17)
(1.8014e-15 0 8.9594e-17)
(1.78162e-15 0 1.01702e-16)
(1.75935e-15 0 1.13169e-16)
(1.73472e-15 0 1.24056e-16)
(1.70786e-15 0 1.34469e-16)
(1.6789e-15 0 1.44426e-16)
(1.64791e-15 0 1.54073e-16)
(1.61496e-15 0 1.63523e-16)
(1.58006e-15 0 1.7286e-16)
(1.54319e-15 0 1.82249e-16)
(1.50432e-15 0 1.91709e-16)
(1.46339e-15 0 2.01418e-16)
(1.42031e-15 0 2.11396e-16)
(1.37494e-15 0 2.21622e-16)
(1.32716e-15 0 2.3219e-16)
(1.27692e-15 0 2.43057e-16)
(1.22405e-15 0 2.54203e-16)
(1.16849e-15 0 2.65535e-16)
(1.11017e-15 0 2.76971e-16)
(1.04901e-15 0 2.88386e-16)
(9.85017e-16 0 2.99657e-16)
(9.18305e-16 0 3.10668e-16)
(8.48853e-16 0 3.21287e-16)
(7.76733e-16 0 3.31379e-16)
(7.02183e-16 0 3.40798e-16)
(6.25328e-16 0 3.49442e-16)
(5.46374e-16 0 3.57218e-16)
(4.6561e-16 0 3.64063e-16)
(3.83222e-16 0 3.69822e-16)
(2.99481e-16 0 3.74475e-16)
(2.14715e-16 0 3.78001e-16)
(1.29175e-16 0 3.80338e-16)
(4.31168e-17 0 3.81475e-16)
(-2.73236e-08 0 2.80029e-07)
(-8.51219e-08 0 2.76659e-07)
(-1.40157e-07 0 2.69956e-07)
(-1.93601e-07 0 2.60061e-07)
(-2.44561e-07 0 2.47263e-07)
(-2.92468e-07 0 2.31748e-07)
(-3.36774e-07 0 2.13843e-07)
(-3.77047e-07 0 1.93909e-07)
(-4.12907e-07 0 1.72289e-07)
(-4.44052e-07 0 1.49352e-07)
(-4.70355e-07 0 1.25398e-07)
(-4.91671e-07 0 1.00782e-07)
(-5.07792e-07 0 7.65779e-08)
(-5.19662e-07 0 5.16152e-08)
(-5.2653e-07 0 2.93403e-08)
(-5.27759e-07 0 7.07727e-09)
(-5.24633e-07 0 -1.98637e-08)
(-5.17706e-07 0 -4.0702e-08)
(-5.06927e-07 0 -5.93088e-08)
(-4.91478e-07 0 -7.72016e-08)
(-4.72426e-07 0 -1.00883e-07)
(-4.50667e-07 0 -1.1411e-07)
(-4.25963e-07 0 -1.29428e-07)
(-3.98441e-07 0 -1.43391e-07)
(-3.68635e-07 0 -1.56381e-07)
(-3.3688e-07 0 -1.6666e-07)
(-3.0323e-07 0 -1.76348e-07)
(-2.68076e-07 0 -1.84573e-07)
(-2.31622e-07 0 -1.91431e-07)
(-1.94084e-07 0 -1.97249e-07)
(-1.55695e-07 0 -2.01803e-07)
(-1.16706e-07 0 -2.05218e-07)
(-7.72504e-08 0 -2.07603e-07)
(-3.75511e-08 0 -2.08944e-07)
(2.22164e-09 0 -2.09242e-07)
(4.19239e-08 0 -2.08858e-07)
(8.13204e-08 0 -2.07377e-07)
(1.20376e-07 0 -2.05199e-07)
(1.58906e-07 0 -2.02172e-07)
(1.96736e-07 0 -1.98357e-07)
(2.33766e-07 0 -1.93834e-07)
(2.69918e-07 0 -1.88545e-07)
(3.05003e-07 0 -1.82528e-07)
(3.38894e-07 0 -1.75861e-07)
(3.71523e-07 0 -1.68323e-07)
(4.02677e-07 0 -1.60215e-07)
(4.32283e-07 0 -1.51502e-07)
(4.60206e-07 0 -1.41971e-07)
(4.86341e-07 0 -1.31773e-07)
(5.10549e-07 0 -1.20927e-07)
(5.32677e-07 0 -1.09409e-07)
(5.52609e-07 0 -9.72279e-08)
(5.70229e-07 0 -8.44914e-08)
(5.85413e-07 0 -7.1082e-08)
(5.98049e-07 0 -5.71985e-08)
(6.08062e-07 0 -4.2879e-08)
(6.15329e-07 0 -2.77839e-08)
(6.19691e-07 0 -1.25364e-08)
(6.21199e-07 0 3.17524e-09)
(6.19693e-07 0 1.90555e-08)
(6.15123e-07 0 3.52648e-08)
(6.07451e-07 0 5.15614e-08)
(5.96645e-07 0 6.81394e-08)
(5.82632e-07 0 8.4566e-08)
(5.65406e-07 0 1.00932e-07)
(5.4499e-07 0 1.1715e-07)
(5.2143e-07 0 1.32888e-07)
(4.94784e-07 0 1.48088e-07)
(4.65106e-07 0 1.62638e-07)
(4.32549e-07 0 1.7635e-07)
(3.97284e-07 0 1.89011e-07)
(3.59526e-07 0 2.00481e-07)
(3.19574e-07 0 2.10563e-07)
(2.77822e-07 0 2.1925e-07)
(2.34696e-07 0 2.26645e-07)
(1.9147e-07 0 2.32559e-07)
(1.45078e-07 0 2.43736e-07)
(7.44652e-08 0 3.3376e-07)
(-7.587e-11 0 3.06162e-07)
(1.87681e-15 0 -6.02383e-16)
(9.90163e-16 0 -1.36071e-17)
(1.8755e-15 0 5.83162e-18)
(1.87354e-15 0 2.49395e-17)
(1.86842e-15 0 4.35407e-17)
(1.85984e-15 0 6.15422e-17)
(1.84797e-15 0 7.88096e-17)
(1.83301e-15 0 9.52809e-17)
(1.81518e-15 0 1.10863e-16)
(1.79471e-15 0 1.25628e-16)
(1.77174e-15 0 1.39566e-16)
(1.74648e-15 0 1.52739e-16)
(1.7191e-15 0 1.6525e-16)
(1.6897e-15 0 1.77192e-16)
(1.65845e-15 0 1.88794e-16)
(1.62532e-15 0 2.00095e-16)
(1.59037e-15 0 2.11303e-16)
(1.55359e-15 0 2.22532e-16)
(1.51491e-15 0 2.33947e-16)
(1.47428e-15 0 2.45652e-16)
(1.43151e-15 0 2.57708e-16)
(1.38647e-15 0 2.70157e-16)
(1.33907e-15 0 2.83092e-16)
(1.28916e-15 0 2.9642e-16)
(1.23659e-15 0 3.1012e-16)
(1.18121e-15 0 3.2411e-16)
(1.12292e-15 0 3.38265e-16)
(1.06168e-15 0 3.52389e-16)
(9.97487e-16 0 3.6641e-16)
(9.30392e-16 0 3.80121e-16)
(8.60413e-16 0 3.93304e-16)
(7.87652e-16 0 4.05867e-16)
(7.12306e-16 0 4.17613e-16)
(6.3452e-16 0 4.28356e-16)
(5.54542e-16 0 4.38044e-16)
(4.7263e-16 0 4.46543e-16)
(3.89044e-16 0 4.53709e-16)
(3.04072e-16 0 4.5952e-16)
(2.17983e-16 0 4.63914e-16)
(1.31108e-16 0 4.66788e-16)
(4.37579e-17 0 4.68184e-16)
(-2.9095e-08 0 3.38773e-07)
(-9.07266e-08 0 3.34563e-07)
(-1.49321e-07 0 3.26286e-07)
(-2.06153e-07 0 3.14121e-07)
(-2.60245e-07 0 2.98392e-07)
(-3.10946e-07 0 2.79373e-07)
(-3.57693e-07 0 2.57429e-07)
(-3.99978e-07 0 2.33073e-07)
(-4.37417e-07 0 2.06676e-07)
(-4.69781e-07 0 1.78702e-07)
(-4.97031e-07 0 1.49382e-07)
(-5.18415e-07 0 1.20279e-07)
(-5.34908e-07 0 8.99199e-08)
(-5.46949e-07 0 6.08364e-08)
(-5.52939e-07 0 3.46552e-08)
(-5.53082e-07 0 4.34989e-09)
(-5.48788e-07 0 -2.55691e-08)
(-5.41443e-07 0 -5.01622e-08)
(-5.28999e-07 0 -7.21166e-08)
(-5.11421e-07 0 -9.52388e-08)
(-4.91075e-07 0 -1.22647e-07)
(-4.68201e-07 0 -1.37574e-07)
(-4.41661e-07 0 -1.56323e-07)
(-4.12564e-07 0 -1.73169e-07)
(-3.81266e-07 0 -1.87684e-07)
(-3.48031e-07 0 -2.00233e-07)
(-3.12914e-07 0 -2.11475e-07)
(-2.76322e-07 0 -2.2112e-07)
(-2.38495e-07 0 -2.29124e-07)
(-1.99653e-07 0 -2.35872e-07)
(-1.60026e-07 0 -2.41128e-07)
(-1.19841e-07 0 -2.45042e-07)
(-7.92409e-08 0 -2.47745e-07)
(-3.84682e-08 0 -2.49224e-07)
(2.31054e-09 0 -2.49471e-07)
(4.29961e-08 0 -2.48902e-07)
(8.33214e-08 0 -2.47042e-07)
(1.23249e-07 0 -2.44435e-07)
(1.62626e-07 0 -2.40782e-07)
(2.01333e-07 0 -2.36201e-07)
(2.3916e-07 0 -2.30831e-07)
(2.76085e-07 0 -2.24549e-07)
(3.11967e-07 0 -2.17396e-07)
(3.46601e-07 0 -2.09492e-07)
(3.8e-07 0 -2.00632e-07)
(4.11921e-07 0 -1.90939e-07)
(4.42299e-07 0 -1.80671e-07)
(4.71006e-07 0 -1.69379e-07)
(4.97872e-07 0 -1.57319e-07)
(5.22799e-07 0 -1.44447e-07)
(5.45631e-07 0 -1.30783e-07)
(5.6624e-07 0 -1.16337e-07)
(5.84498e-07 0 -1.012e-07)
(6.00295e-07 0 -8.52782e-08)
(6.1352e-07 0 -6.88072e-08)
(6.24058e-07 0 -5.17449e-08)
(6.31843e-07 0 -3.38495e-08)
(6.36632e-07 0 -1.56355e-08)
(6.38529e-07 0 3.01063e-09)
(6.37316e-07 0 2.19997e-08)
(6.32999e-07 0 4.12925e-08)
(6.25495e-07 0 6.0808e-08)
(6.14699e-07 0 8.0552e-08)
(6.00637e-07 0 1.00251e-07)
(5.83255e-07 0 1.19903e-07)
(5.62517e-07 0 1.39456e-07)
(5.38484e-07 0 1.58258e-07)
(5.11195e-07 0 1.7665e-07)
(4.80692e-07 0 1.94297e-07)
(4.47091e-07 0 2.10914e-07)
(4.10579e-07 0 2.26295e-07)
(3.71381e-07 0 2.40231e-07)
(3.29836e-07 0 2.52413e-07)
(2.86476e-07 0 2.6265e-07)
(2.41891e-07 0 2.70764e-07)
(1.97056e-07 0 2.76687e-07)
(1.37436e-07 0 3.07327e-07)
(7.27498e-08 0 4.13511e-07)
(-7.82768e-11 0 3.50184e-07)
(1.89556e-15 0 -6.95383e-16)
(1.00295e-15 0 -1.58095e-17)
(1.89667e-15 0 7.58938e-18)
(1.89423e-15 0 3.0523e-17)
(1.88849e-15 0 5.28568e-17)
(1.87916e-15 0 7.43635e-17)
(1.86642e-15 0 9.49707e-17)
(1.85053e-15 0 1.14513e-16)
(1.83173e-15 0 1.32959e-16)
(1.81034e-15 0 1.5035e-16)
(1.78648e-15 0 1.66656e-16)
(1.76039e-15 0 1.82062e-16)
(1.73231e-15 0 1.96548e-16)
(1.70243e-15 0 2.10373e-16)
(1.67081e-15 0 2.23711e-16)
(1.63748e-15 0 2.36698e-16)
(1.60249e-15 0 2.49622e-16)
(1.56583e-15 0 2.62599e-16)
(1.52744e-15 0 2.75823e-16)
(1.48716e-15 0 2.8941e-16)
(1.44483e-15 0 3.03513e-16)
(1.40031e-15 0 3.18185e-16)
(1.35341e-15 0 3.33437e-16)
(1.30395e-15 0 3.49277e-16)
(1.25176e-15 0 3.65593e-16)
(1.19663e-15 0 3.82323e-16)
(1.13844e-15 0 3.9929e-16)
(1.07717e-15 0 4.1631e-16)
(1.01274e-15 0 4.33205e-16)
(9.45199e-16 0 4.49748e-16)
(8.74609e-16 0 4.65692e-16)
(8.01031e-16 0 4.80881e-16)
(7.24672e-16 0 4.95057e-16)
(6.4577e-16 0 5.08075e-16)
(5.64551e-16 0 5.1979e-16)
(4.81264e-16 0 5.30026e-16)
(3.96199e-16 0 5.38722e-16)
(3.09676e-16 0 5.45722e-16)
(2.21974e-16 0 5.51016e-16)
(1.33455e-16 0 5.54532e-16)
(4.4523e-17 0 5.56227e-16)
(-3.1252e-08 0 4.01727e-07)
(-9.75657e-08 0 3.96598e-07)
(-1.60522e-07 0 3.86572e-07)
(-2.21464e-07 0 3.71883e-07)
(-2.79332e-07 0 3.52859e-07)
(-3.33377e-07 0 3.29935e-07)
(-3.83047e-07 0 3.03506e-07)
(-4.27681e-07 0 2.74273e-07)
(-4.66979e-07 0 2.42633e-07)
(-5.01056e-07 0 2.08803e-07)
(-5.28785e-07 0 1.74743e-07)
(-5.50489e-07 0 1.39639e-07)
(-5.6782e-07 0 1.0313e-07)
(-5.7959e-07 0 7.04184e-08)
(-5.83777e-07 0 3.92127e-08)
(-5.83176e-07 0 -3.81951e-10)
(-5.78006e-07 0 -3.177e-08)
(-5.69349e-07 0 -6.05468e-08)
(-5.54284e-07 0 -8.5251e-08)
(-5.35071e-07 0 -1.2117e-07)
(-5.13395e-07 0 -1.41036e-07)
(-4.88435e-07 0 -1.64509e-07)
(-4.59962e-07 0 -1.84417e-07)
(-4.29016e-07 0 -2.05102e-07)
(-3.96005e-07 0 -2.20407e-07)
(-3.60877e-07 0 -2.35474e-07)
(-3.24058e-07 0 -2.48222e-07)
(-2.8582e-07 0 -2.59153e-07)
(-2.46414e-07 0 -2.68267e-07)
(-2.06032e-07 0 -2.75872e-07)
(-1.64949e-07 0 -2.81767e-07)
(-1.23372e-07 0 -2.86154e-07)
(-8.14379e-08 0 -2.89083e-07)
(-3.94013e-08 0 -2.90638e-07)
(2.54152e-09 0 -2.90762e-07)
(4.43335e-08 0 -2.89962e-07)
(8.57723e-08 0 -2.87714e-07)
(1.2673e-07 0 -2.84603e-07)
(1.67077e-07 0 -2.80277e-07)
(2.06715e-07 0 -2.74952e-07)
(2.4548e-07 0 -2.68647e-07)
(2.83283e-07 0 -2.61389e-07)
(3.20056e-07 0 -2.53127e-07)
(3.55639e-07 0 -2.43915e-07)
(3.89886e-07 0 -2.33768e-07)
(4.22715e-07 0 -2.22472e-07)
(4.53972e-07 0 -2.10697e-07)
(4.83581e-07 0 -1.97601e-07)
(5.11303e-07 0 -1.83652e-07)
(5.37088e-07 0 -1.68748e-07)
(5.60765e-07 0 -1.52921e-07)
(5.82207e-07 0 -1.36182e-07)
(6.01245e-07 0 -1.18616e-07)
(6.17774e-07 0 -1.0011e-07)
(6.31682e-07 0 -8.10407e-08)
(6.42851e-07 0 -6.11511e-08)
(6.51178e-07 0 -4.04288e-08)
(6.56571e-07 0 -1.91824e-08)
(6.5889e-07 0 2.44616e-09)
(6.58087e-07 0 2.46851e-08)
(6.54061e-07 0 4.70191e-08)
(6.46787e-07 0 6.98786e-08)
(6.36121e-07 0 9.30088e-08)
(6.22008e-07 0 1.1606e-07)
(6.0441e-07 0 1.3919e-07)
(5.83348e-07 0 1.61996e-07)
(5.58814e-07 0 1.84272e-07)
(5.30789e-07 0 2.06035e-07)
(4.99331e-07 0 2.26944e-07)
(4.64545e-07 0 2.46716e-07)
(4.26566e-07 0 2.65048e-07)
(3.85605e-07 0 2.81702e-07)
(3.41947e-07 0 2.96257e-07)
(2.96144e-07 0 3.08218e-07)
(2.49214e-07 0 3.16896e-07)
(2.0359e-07 0 3.20428e-07)
(1.32179e-07 0 3.82703e-07)
(7.31121e-08 0 4.51965e-07)
(-7.98687e-11 0 3.95654e-07)
(1.91764e-15 0 -7.78963e-16)
(1.01831e-15 0 -1.77947e-17)
(1.92185e-15 0 9.78141e-18)
(1.91882e-15 0 3.67889e-17)
(1.91225e-15 0 6.29898e-17)
(1.90195e-15 0 8.81464e-17)
(1.8881e-15 0 1.12155e-16)
(1.871e-15 0 1.3481e-16)
(1.85103e-15 0 1.56161e-16)
(1.82842e-15 0 1.76086e-16)
(1.80345e-15 0 1.94698e-16)
(1.77637e-15 0 2.1213e-16)
(1.74743e-15 0 2.28519e-16)
(1.71688e-15 0 2.44029e-16)
(1.68478e-15 0 2.58908e-16)
(1.65123e-15 0 2.73414e-16)
(1.61626e-15 0 2.87828e-16)
(1.57979e-15 0 3.02345e-16)
(1.54172e-15 0 3.17224e-16)
(1.50197e-15 0 3.32599e-16)
(1.46027e-15 0 3.48636e-16)
(1.41638e-15 0 3.65459e-16)
(1.37016e-15 0 3.83078e-16)
(1.32133e-15 0 4.01451e-16)
(1.26965e-15 0 4.20508e-16)
(1.2149e-15 0 4.40091e-16)
(1.15689e-15 0 4.60037e-16)
(1.09559e-15 0 4.80106e-16)
(1.03093e-15 0 5.00072e-16)
(9.6289e-16 0 5.19645e-16)
(8.91556e-16 0 5.38546e-16)
(8.17027e-16 0 5.56548e-16)
(7.395e-16 0 5.7335e-16)
(6.59253e-16 0 5.88829e-16)
(5.76504e-16 0 6.02715e-16)
(4.91552e-16 0 6.14843e-16)
(4.0474e-16 0 6.25131e-16)
(3.16366e-16 0 6.33434e-16)
(2.26782e-16 0 6.397e-16)
(1.3633e-16 0 6.43888e-16)
(4.54639e-17 0 6.45945e-16)
(-3.38561e-08 0 4.69768e-07)
(-1.05833e-07 0 4.63611e-07)
(-1.7404e-07 0 4.51594e-07)
(-2.39867e-07 0 4.34024e-07)
(-3.02238e-07 0 4.11273e-07)
(-3.60273e-07 0 3.83928e-07)
(-4.13224e-07 0 3.52583e-07)
(-4.60695e-07 0 3.17714e-07)
(-5.02512e-07 0 2.7997e-07)
(-5.37807e-07 0 2.40878e-07)
(-5.66177e-07 0 2.00578e-07)
(-5.888e-07 0 1.58574e-07)
(-6.06981e-07 0 1.16727e-07)
(-6.16838e-07 0 8.07511e-08)
(-6.20195e-07 0 3.84279e-08)
(-6.18433e-07 0 -3.80739e-09)
(-6.12661e-07 0 -4.03129e-08)
(-6.0086e-07 0 -7.21457e-08)
(-5.83255e-07 0 -1.02222e-07)
(-5.62631e-07 0 -1.44142e-07)
(-5.39183e-07 0 -1.64239e-07)
(-5.114e-07 0 -1.92841e-07)
(-4.80893e-07 0 -2.1528e-07)
(-4.47891e-07 0 -2.37925e-07)
(-4.12735e-07 0 -2.55694e-07)
(-3.75472e-07 0 -2.72452e-07)
(-3.36669e-07 0 -2.86788e-07)
(-2.9652e-07 0 -2.98888e-07)
(-2.55246e-07 0 -3.09142e-07)
(-2.13099e-07 0 -3.1747e-07)
(-1.70344e-07 0 -3.23928e-07)
(-1.27189e-07 0 -3.28697e-07)
(-8.37622e-08 0 -3.31797e-07)
(-4.0303e-08 0 -3.3335e-07)
(2.9843e-09 0 -3.33294e-07)
(4.60304e-08 0 -3.32112e-07)
(8.87323e-08 0 -3.29589e-07)
(1.30803e-07 0 -3.25756e-07)
(1.72221e-07 0 -3.2081e-07)
(2.12919e-07 0 -3.14699e-07)
(2.52773e-07 0 -3.07428e-07)
(2.91571e-07 0 -2.99169e-07)
(3.29315e-07 0 -2.89799e-07)
(3.65928e-07 0 -2.79372e-07)
(4.01247e-07 0 -2.67817e-07)
(4.35126e-07 0 -2.55024e-07)
(4.67378e-07 0 -2.41593e-07)
(4.9798e-07 0 -2.26832e-07)
(5.26782e-07 0 -2.10894e-07)
(5.53534e-07 0 -1.93971e-07)
(5.78188e-07 0 -1.75968e-07)
(6.00539e-07 0 -1.56905e-07)
(6.20464e-07 0 -1.36738e-07)
(6.37846e-07 0 -1.15798e-07)
(6.5258e-07 0 -9.40016e-08)
(6.64484e-07 0 -7.11663e-08)
(6.73492e-07 0 -4.76659e-08)
(6.79552e-07 0 -2.32433e-08)
(6.82421e-07 0 1.36312e-09)
(6.82077e-07 0 2.69585e-08)
(6.78444e-07 0 5.25539e-08)
(6.71429e-07 0 7.87006e-08)
(6.60911e-07 0 1.05386e-07)
(6.46821e-07 0 1.32001e-07)
(6.29079e-07 0 1.58612e-07)
(6.07687e-07 0 1.85051e-07)
(5.82623e-07 0 2.1094e-07)
(5.53802e-07 0 2.36285e-07)
(5.21289e-07 0 2.60715e-07)
(4.85174e-07 0 2.839e-07)