0 	1.45182e-20 	0 	-5.44434e-20
0.010101 	-7.43962e-20 	3.72586e-22 	-4.57592e-20
0.020202 	-2.5197e-20 	-6.72474e-23 	-8.0522e-20
0.030303 	-3.16983e-20 	-1.01552e-22 	-3.97964e-20
0.040404 	2.02393e-20 	3.3794e-23 	-3.91409e-21
0.0505051 	1.68849e-22 	6.74177e-23 	7.19283e-20
