/*--------------------------------*- C++ -*----------------------------------*\
  =========                 |
  \\      /  F ield         | OpenFOAM: The Open Source CFD Toolbox
   \\    /   O peration     | Website:  https://openfoam.org
    \\  /    A nd           | Version:  6
     \\/     M anipulation  |
\*---------------------------------------------------------------------------*/
FoamFile
{
    version     2.0;
    format      ascii;
    class       surfaceScalarField;
    location    "3300";
    object      phi;
}
// * * * * * * * * * * * * * * * * * * * * * * * * * * * * * * * * * * * * * //

dimensions      [0 3 -1 0 0 0 0];

internalField   nonuniform List<scalar> 
9440
(
1.02565e-10
-1.02565e-10
1.39985e-10
-3.74164e-11
1.43197e-10
-3.21015e-12
1.1453e-10
2.86698e-11
1.68594e-11
9.76723e-11
-7.53887e-11
9.22502e-11
-1.79658e-10
1.04272e-10
-2.51608e-10
7.19516e-11
-3.17608e-10
6.60025e-11
-4.15496e-10
9.78896e-11
-5.38174e-10
1.22679e-10
-6.50343e-10
1.12171e-10
-7.75237e-10
1.24895e-10
-9.50928e-10
1.75693e-10
-1.05604e-09
1.05114e-10
-1.17738e-09
1.21341e-10
-1.19336e-09
1.59796e-11
-1.15038e-09
-4.29793e-11
-1.09696e-09
-5.342e-11
-9.6813e-10
-1.28827e-10
-7.38831e-10
-2.29298e-10
-4.826e-10
-2.5623e-10
-2.58795e-10
-2.23805e-10
1.10523e-10
-3.69317e-10
4.72662e-10
-3.62138e-10
9.37686e-10
-4.65024e-10
1.41347e-09
-4.75786e-10
1.22107e-09
1.92404e-10
1.5703e-09
-3.49234e-10
1.96094e-09
-3.90639e-10
2.27264e-09
-3.11694e-10
2.62731e-09
-3.54677e-10
3.05427e-09
-4.26953e-10
3.32318e-09
-2.68916e-10
3.50087e-09
-1.77689e-10
3.64845e-09
-1.47581e-10
3.75716e-09
-1.08708e-10
3.80087e-09
-4.37099e-11
3.73764e-09
6.32268e-11
3.7799e-09
-4.22602e-11
3.88741e-09
-1.0751e-10
4.03008e-09
-1.42672e-10
4.13588e-09
-1.05804e-10
4.2204e-09
-8.45147e-11
4.33293e-09
-1.12538e-10
4.37266e-09
-3.97257e-11
4.36172e-09
1.0933e-11
4.32141e-09
4.03141e-11
4.27002e-09
5.13843e-11
4.17717e-09
9.28522e-11
4.07698e-09
1.00185e-10
3.96444e-09
1.12542e-10
3.8714e-09
9.30404e-11
3.80454e-09
6.68508e-11
3.77156e-09
3.29827e-11
3.75882e-09
1.27446e-11
3.73753e-09
2.12805e-11
3.72982e-09
7.71862e-12
3.72766e-09
2.15572e-12
3.72313e-09
4.53286e-12
3.71083e-09
1.22965e-11
3.65902e-09
5.18195e-11
3.61222e-09
4.67948e-11
3.53452e-09
7.77079e-11
3.36083e-09
1.73683e-10
3.23631e-09
1.24522e-10
3.0212e-09
2.15113e-10
2.63323e-09
3.87967e-10
2.37437e-09
2.58863e-10
1.79504e-09
5.79331e-10
1.08953e-09
7.05514e-10
7.23754e-10
3.65771e-10
3.83391e-10
3.40362e-10
2.26258e-10
1.57132e-10
1.04645e-10
1.21611e-10
3.13183e-11
7.33252e-11
-5.77246e-12
3.70891e-11
-9.69601e-11
9.11859e-11
-5.73905e-11
-3.95714e-11
8.34663e-11
-1.40858e-10
7.95588e-16
8.34639e-11
-3.49274e-18
1.20193e-18
-3.73203e-18
2.39299e-19
-3.73602e-18
2.61464e-21
-3.64482e-18
-9.31766e-20
-3.49915e-18
-1.48024e-19
-3.31171e-18
-1.90122e-19
-3.08768e-18
-2.27014e-19
-2.83065e-18
-2.60253e-19
-2.5443e-18
-2.8978e-19
-2.23352e-18
-3.14344e-19
-1.90387e-18
-3.33311e-19
-1.56125e-18
-3.46339e-19
-1.21185e-18
-3.53127e-19
-8.61973e-19
-3.53558e-19
-5.17832e-19
-3.47721e-19
-1.85337e-19
-3.35905e-19
1.30068e-19
-3.18577e-19
4.23554e-19
-2.96347e-19
6.9101e-19
-2.69938e-19
9.29105e-19
-2.40141e-19
1.13531e-18
-2.07784e-19
1.3079e-18
-1.73685e-19
1.44591e-18
-1.38629e-19
1.54906e-18
-1.03339e-19
1.61772e-18
-6.84618e-20
1.65282e-18
-3.45607e-20
1.65573e-18
-2.11045e-21
1.62819e-18
2.85031e-20
1.57226e-18
5.69779e-20
1.49019e-18
8.30915e-20
1.38442e-18
1.06691e-19
1.2575e-18
1.27682e-19
1.11206e-18
1.46015e-19
9.50765e-19
1.61676e-19
7.76299e-19
1.74671e-19
5.91338e-19
1.85019e-19
3.98539e-19
1.92744e-19
2.00545e-19
1.97863e-19
2.00369e-19
6.13613e-11
-1.63924e-10
7.19112e-11
-4.79618e-11
1.95312e-11
4.91739e-11
-5.34186e-11
1.01623e-10
-7.76048e-11
1.21862e-10
-1.04147e-10
1.18796e-10
-1.81929e-10
1.82057e-10
-2.85769e-10
1.75795e-10
-4.28676e-10
2.08913e-10
-5.92733e-10
2.6195e-10
-7.34902e-10
2.64852e-10
-8.89044e-10
2.66316e-10
-1.05635e-09
2.92202e-10
-1.19333e-09
3.12681e-10
-1.31761e-09
2.29389e-10
-1.39161e-09
1.95346e-10
-1.27518e-09
-1.0045e-10
-1.22965e-09
-8.85062e-11
-1.19073e-09
-9.23359e-11
-9.89167e-10
-3.30389e-10
-9.05673e-10
-3.12791e-10
-7.86202e-10
-3.757e-10
-5.38809e-10
-4.71197e-10
-1.59177e-10
-7.48948e-10
2.90101e-10
-8.11415e-10
8.34004e-10
-1.00893e-09
1.27766e-09
-9.19445e-10
1.48737e-09
-1.72999e-11
1.66397e-09
-5.25836e-10
1.87895e-09
-6.05621e-10
2.14947e-09
-5.82215e-10
2.45975e-09
-6.64948e-10
2.77147e-09
-7.38674e-10
3.0876e-09
-5.85053e-10
3.26941e-09
-3.59497e-10
3.35883e-09
-2.37002e-10
3.47872e-09
-2.286e-10
3.58482e-09
-1.49804e-10
3.7159e-09
-6.78565e-11
3.82328e-09
-1.49645e-10
3.9191e-09
-2.03326e-10
4.06778e-09
-2.91363e-10
4.15354e-09
-1.91565e-10
4.20737e-09
-1.38342e-10
4.21088e-09
-1.16048e-10
4.23145e-09
-6.03072e-11
4.19733e-09
4.50542e-11
4.15483e-09
8.2807e-11
4.10158e-09
1.04637e-10
4.06839e-09
1.26033e-10
4.0049e-09
1.63678e-10
3.98794e-09
1.29495e-10
3.98764e-09
9.33408e-11
3.97471e-09
7.97843e-11
3.96556e-09
4.21324e-11
3.9385e-09
3.98048e-11
3.91442e-09
4.53572e-11
3.88698e-09
3.5163e-11
3.81929e-09
6.98427e-11
3.79968e-09
2.41432e-11
3.75902e-09
5.29603e-11
3.72443e-09
8.64114e-11
3.67484e-09
9.63895e-11
3.54319e-09
2.09366e-10
3.43803e-09
2.78842e-10
3.28383e-09
2.78716e-10
2.98791e-09
5.11036e-10
2.81222e-09
5.63664e-10
2.50612e-09
5.64963e-10
2.17114e-09
9.14302e-10
1.87308e-09
1.00357e-09
1.28996e-09
9.48894e-10
7.14893e-10
9.15423e-10
4.34242e-10
4.37781e-10
2.90865e-10
2.64985e-10
1.34967e-10
2.2922e-10
1.99431e-10
-2.7378e-11
3.42952e-10
-5.23385e-11
4.37591e-10
-1.34214e-10
2.46185e-10
5.05441e-11
7.65949e-16
3.29645e-10
-4.23733e-18
6.35398e-19
-3.98017e-18
-1.97984e-20
-3.84129e-18
-1.39738e-19
-3.70722e-18
-2.31449e-19
-3.54692e-18
-3.13083e-19
-3.35247e-18
-3.89826e-19
-3.12304e-18
-4.62123e-19
-2.86061e-18
-5.28714e-19
-2.56884e-18
-5.87859e-19
-2.25248e-18
-6.37168e-19
-1.9169e-18
-6.75428e-19
-1.56804e-18
-7.01695e-19
-1.21228e-18
-7.15254e-19
-8.56137e-19
-7.15846e-19
-5.06016e-19
-7.03657e-19
-1.68008e-19
-6.79285e-19
1.52298e-19
-6.43702e-19
4.49963e-19
-5.98178e-19
7.20806e-19
-5.4421e-19
9.61462e-19
-4.83439e-19
1.16941e-18
-4.17564e-19
1.34296e-18
-3.48268e-19
1.4812e-18
-2.77156e-19
1.58393e-18
-2.05702e-19
1.65162e-18
-1.35225e-19
1.68527e-18
-6.68646e-20
1.68634e-18
-1.57138e-21
1.65667e-18
5.98942e-20
1.59837e-18
1.16953e-19
1.51379e-18
1.69191e-19
1.40541e-18
2.16335e-19
1.27583e-18
2.58224e-19
1.12772e-18
2.94785e-19
9.6376e-19
3.26004e-19
7.86647e-19
3.51906e-19
5.99062e-19
3.72537e-19
4.03658e-19
3.87947e-19
2.03051e-19
3.98186e-19
4.03298e-19
3.0757e-11
-1.94678e-10
-3.37914e-12
-1.38217e-11
-4.23526e-11
8.81508e-11
-9.98519e-11
1.59126e-10
-1.45184e-10
1.67197e-10
-1.96724e-10
1.70339e-10
-2.88376e-10
2.73713e-10
-3.76045e-10
2.63467e-10
-5.55246e-10
3.88116e-10
-7.06061e-10
4.12767e-10
-9.01375e-10
4.60169e-10
-1.13528e-09
5.00223e-10
-1.2914e-09
4.48323e-10
-1.35454e-09
3.75824e-10
-1.39916e-09
2.74007e-10
-1.41899e-09
2.15181e-10
-1.38248e-09
-1.36956e-10
-1.25182e-09
-2.19163e-10
-1.18944e-09
-1.54715e-10
-1.05927e-09
-4.60561e-10
-1.02465e-09
-3.47413e-10
-9.12475e-10
-4.87871e-10
-7.24139e-10
-6.59531e-10
-4.09463e-10
-1.06362e-09
2.97082e-11
-1.25059e-09
6.07812e-10
-1.58703e-09
1.06085e-09
-1.37248e-09
1.52539e-09
-4.81839e-10
1.62587e-09
-6.26321e-10
1.82831e-09
-8.08059e-10
2.10154e-09
-8.55448e-10
2.39842e-09
-9.61826e-10
2.64394e-09
-9.84187e-10
2.80772e-09
-7.48836e-10
2.95035e-09
-5.02133e-10
3.07796e-09
-3.64608e-10
3.26359e-09
-4.14229e-10
3.36452e-09
-2.50734e-10
3.49372e-09
-1.97059e-10
3.6587e-09
-3.14629e-10
3.75315e-09
-2.97775e-10
3.78594e-09
-3.24153e-10
3.8086e-09
-2.14229e-10
3.82869e-09
-1.58435e-10
3.84322e-09
-1.30576e-10
3.86413e-09
-8.12279e-11
3.86748e-09
4.17062e-11
3.8625e-09
8.77802e-11
3.8603e-09
1.06836e-10
3.86271e-09
1.23622e-10
3.86831e-09
1.58074e-10
3.87684e-09
1.20968e-10
3.87675e-09
9.34314e-11
3.87408e-09
8.24475e-11
3.86941e-09
4.6807e-11
3.85459e-09
5.4621e-11
3.82314e-09
7.68105e-11
3.77777e-09
8.05383e-11
3.72352e-09
1.24093e-10
3.6698e-09
7.78617e-11
3.62007e-09
1.02696e-10
3.57313e-09
1.33356e-10
3.52852e-09
1.40998e-10
3.46698e-09
2.70909e-10
3.34824e-09
3.9758e-10
3.16206e-09
4.64903e-10
3.05922e-09
6.13869e-10
2.85983e-09
7.63061e-10
2.59256e-09
8.32234e-10
2.49286e-09
1.014e-09
2.23275e-09
1.26368e-09
1.87512e-09
1.30653e-09
1.45884e-09
1.3317e-09
1.00796e-09
8.88663e-10
7.02815e-10
5.70125e-10
4.03038e-10
5.28994e-10
3.36014e-10
3.96442e-11
3.14796e-10
-3.1123e-11
4.34987e-10
-2.54407e-10
2.89716e-10
1.95813e-10
6.26682e-16
6.19358e-10
-4.44086e-18
-1.76149e-19
-4.09908e-18
-3.63007e-19
-3.932e-18
-3.09593e-19
-3.78788e-18
-3.79e-19
-3.62272e-18
-4.82197e-19
-3.42384e-18
-5.93089e-19
-3.18872e-18
-7.01976e-19
-2.91887e-18
-8.03576e-19
-2.6179e-18
-8.94041e-19
-2.29074e-18
-9.69636e-19
-1.94316e-18
-1.02832e-18
-1.5816e-18
-1.06849e-18
-1.21287e-18
-1.08905e-18
-8.43947e-19
-1.08962e-18
-4.81644e-19
-1.07052e-18
-1.32424e-19
-1.03273e-18
1.97822e-19
-9.77755e-19
5.03931e-19
-9.07611e-19
7.81577e-19
-8.24633e-19
1.02734e-18
-7.31375e-19
1.23871e-18
-6.30475e-19
1.41407e-18
-5.24539e-19
1.55265e-18
-4.16039e-19
1.65441e-18
-3.07239e-19
1.71998e-18
-2.00141e-19
1.75056e-18
-9.64614e-20
1.74781e-18
2.38497e-21
1.71373e-18
9.52773e-20
1.65061e-18
1.81373e-19
1.56093e-18
2.60079e-19
1.4473e-18
3.31012e-19
1.3124e-18
3.9396e-19
1.15894e-18
4.48837e-19
9.89662e-19
4.95647e-19
8.07278e-19
5.34449e-19
6.14473e-19
5.65333e-19
4.13897e-19
5.88392e-19
2.08163e-19
6.03713e-19
6.11365e-19
-8.71704e-11
-1.07506e-10
-1.38778e-10
3.77893e-11
-1.3481e-10
8.41866e-11
-1.89857e-10
2.14176e-10
-2.54509e-10
2.31853e-10
-2.45732e-10
1.61566e-10
-3.97782e-10
4.25765e-10
-5.56869e-10
4.22558e-10
-7.67862e-10
5.99111e-10
-9.55467e-10
6.00375e-10
-1.1411e-09
6.45799e-10
-1.30265e-09
6.61781e-10
-1.36903e-09
5.14708e-10
-1.42359e-09
4.3038e-10
-1.44353e-09
2.9395e-10
-1.41e-09
1.8165e-10
-1.51349e-09
-3.34618e-11
-1.26523e-09
-4.67417e-10
-1.22823e-09
-1.91713e-10
-1.23191e-09
-4.56878e-10
-1.06296e-09
-5.16367e-10
-9.17392e-10
-6.33437e-10
-5.92945e-10
-9.83977e-10
-3.24991e-10
-1.33158e-09
1.22578e-10
-1.69815e-09
5.57565e-10
-2.02202e-09
8.74058e-10
-1.68897e-09
1.30968e-09
-9.1746e-10
1.49825e-09
-8.1489e-10
1.6916e-09
-1.00141e-09
1.98956e-09
-1.1534e-09
2.26222e-09
-1.23449e-09
2.46722e-09
-1.18919e-09
2.57359e-09
-8.55205e-10
2.7093e-09
-6.37846e-10
2.82599e-09
-4.81297e-10
2.99945e-09
-5.87689e-10
3.17737e-09
-4.28651e-10
3.30812e-09
-3.27816e-10
3.37809e-09
-3.84598e-10
3.45899e-09
-3.78673e-10
3.45403e-09
-3.19201e-10
3.48729e-09
-2.47491e-10
3.49227e-09
-1.63419e-10
3.55742e-09
-1.95728e-10
3.51325e-09
-3.70582e-11
3.57125e-09
-1.62938e-11
3.6012e-09
5.78322e-11
3.61613e-09
9.18991e-11
3.60284e-09
1.36914e-10
3.61309e-09
1.47823e-10
3.60036e-09
1.33691e-10
3.57381e-09
1.19983e-10
3.54883e-09
1.07431e-10
3.49947e-09
9.61674e-11
3.44026e-09
1.13828e-10
3.42238e-09
9.46914e-11
3.38948e-09
1.13442e-10
3.39879e-09
1.14786e-10
3.35018e-09
1.2648e-10
3.36309e-09
8.97822e-11
3.31326e-09
1.83193e-10
3.25421e-09
2.00041e-10
3.2226e-09
3.02529e-10
3.15345e-09
4.66725e-10
3.06247e-09
5.55885e-10
3.07146e-09
6.04876e-10
2.85117e-09
9.83358e-10
2.70399e-09
9.79406e-10
2.63612e-09
1.08187e-09
2.33049e-09
1.56931e-09
2.04022e-09
1.5968e-09
1.73405e-09
1.63787e-09
1.3518e-09
1.27091e-09
7.67887e-10
1.15403e-09
6.68636e-10
6.28243e-10
5.8423e-10
1.24048e-10
6.21228e-10
-6.81233e-11
4.00563e-10
-3.37446e-11
1.44512e-10
4.51862e-10
4.88349e-16
7.63868e-10
-3.93113e-18
7.6963e-19
-4.04466e-18
-2.50797e-19
-4.00042e-18
-3.56298e-19
-3.89011e-18
-4.92375e-19
-3.73268e-18
-6.43211e-19
-3.53182e-18
-7.97962e-19
-3.28945e-18
-9.4871e-19
-3.00849e-18
-1.08914e-18
-2.69329e-18
-1.214e-18
-2.34943e-18
-1.31831e-18
-1.98333e-18
-1.39917e-18
-1.60215e-18
-1.45427e-18
-1.21345e-18
-1.48214e-18
-8.24852e-19
-1.48233e-18
-4.43845e-19
-1.45537e-18
-7.74541e-20
-1.40264e-18
2.67966e-19
-1.32637e-18
5.86909e-19
-1.22937e-18
8.74835e-19
-1.11496e-18
1.12824e-18
-9.86706e-19
1.34464e-18
-8.48304e-19
1.52257e-18
-7.03372e-19
1.66145e-18
-5.55321e-19
1.76151e-18
-4.0725e-19
1.82366e-18
-2.61874e-19
1.84941e-18
-1.21492e-19
1.8407e-18
1.20215e-20
1.79982e-18
1.37204e-19
1.72932e-18
2.52974e-19
1.63187e-18
3.58588e-19
1.51025e-18
4.53585e-19
1.36727e-18
5.37732e-19
1.20575e-18
6.10963e-19
1.02846e-18
6.73333e-19
8.38161e-19
7.24962e-19
6.37532e-19
7.66008e-19
4.29218e-19
7.96628e-19
2.15815e-19
8.16962e-19
8.27113e-19
-4.02666e-11
-6.72371e-11
-1.62109e-10
1.59635e-10
-3.06596e-10
2.28677e-10
-2.78533e-10
1.86115e-10
-4.17772e-10
3.71095e-10
-5.28395e-10
2.72192e-10
-5.91144e-10
4.88517e-10
-7.94918e-10
6.26334e-10
-9.9453e-10
7.98726e-10
-1.20395e-09
8.098e-10
-1.34739e-09
7.89238e-10
-1.43827e-09
7.52659e-10
-1.47922e-09
5.55661e-10
-1.4622e-09
4.13366e-10
-1.49649e-09
3.28238e-10
-1.47577e-09
1.60938e-10
-1.45086e-09
-5.83748e-11
-1.25682e-09
-6.61453e-10
-1.16947e-09
-2.79063e-10
-1.16764e-09
-4.58707e-10
-9.4092e-10
-7.43087e-10
-6.15323e-10
-9.59033e-10
-3.47459e-10
-1.25184e-09
-1.00547e-10
-1.57849e-09
1.97736e-10
-1.99644e-09
4.5348e-10
-2.27776e-09
7.18406e-10
-1.9539e-09
1.13065e-09
-1.3297e-09
1.54753e-09
-1.23177e-09
1.74717e-09
-1.20105e-09
1.89831e-09
-1.30454e-09
2.04873e-09
-1.38491e-09
2.23888e-09
-1.37934e-09
2.36e-09
-9.76325e-10
2.45326e-09
-7.31109e-10
2.58986e-09
-6.17899e-10
2.74091e-09
-7.38736e-10
2.81239e-09
-5.00132e-10
2.9643e-09
-4.79732e-10
3.09384e-09
-5.14144e-10
3.11775e-09
-4.02582e-10
3.14405e-09
-3.45497e-10
3.18577e-09
-2.89217e-10
3.19176e-09
-1.69415e-10
3.21907e-09
-2.23036e-10
3.24188e-09
-5.98683e-11
3.22915e-09
-3.56693e-12
3.24317e-09
4.38084e-11
3.26036e-09
7.4709e-11
3.26312e-09
1.3415e-10
3.26143e-09
1.4952e-10
3.23831e-09
1.56802e-10
3.2028e-09
1.55498e-10
3.16548e-09
1.44756e-10
3.11329e-09
1.48358e-10
3.07802e-09
1.49098e-10
3.04295e-09
1.29761e-10
3.01378e-09
1.4261e-10
2.99454e-09
1.34033e-10
2.96208e-09
1.58938e-10
2.95678e-09
9.50833e-11
2.9456e-09
1.94381e-10
2.91078e-09
2.34858e-10
2.90324e-09
3.10076e-10
2.89367e-09
4.7629e-10
2.87166e-09
5.77898e-10
2.80126e-09
6.75274e-10
2.7664e-09
1.01822e-09
2.62437e-09
1.12144e-09
2.38635e-09
1.31988e-09
2.39629e-09
1.55937e-09
2.32684e-09
1.66624e-09
2.18148e-09
1.78324e-09
1.64169e-09
1.81069e-09
9.68715e-10
1.82701e-09
7.85803e-10
8.11154e-10
4.71423e-10
4.38427e-10
2.4119e-10
1.62108e-10
4.28224e-11
1.64621e-10
1.10498e-10
3.84184e-10
4.52637e-16
8.74365e-10
-3.98737e-18
1.75998e-18
-4.14914e-18
-9.02376e-20
-4.13551e-18
-3.72174e-19
-4.03999e-18
-5.90637e-19
-3.88651e-18
-7.99875e-19
-3.68169e-18
-1.00637e-18
-3.42903e-18
-1.2053e-18
-3.13254e-18
-1.38982e-18
-2.79746e-18
-1.5534e-18
-2.43029e-18
-1.68985e-18
-2.03843e-18
-1.79532e-18
-1.63003e-18
-1.86675e-18
-1.21364e-18
-1.90233e-18
-7.97884e-19
-1.90157e-18
-3.91124e-19
-1.86529e-18
-1.17721e-21
-1.79545e-18
3.64963e-19
-1.69509e-18
7.01324e-19
-1.56804e-18
1.00309e-18
-1.41874e-18
1.26664e-18
-1.25197e-18
1.48957e-18
-1.0726e-18
1.67062e-18
-8.8539e-19
1.80952e-18
-6.94792e-19
1.90688e-18
-5.04803e-19
1.96405e-18
-3.1889e-19
1.98292e-18
-1.39947e-19
1.96588e-18
2.97071e-20
1.91559e-18
1.88294e-19
1.83493e-18
3.34532e-19
1.72686e-18
4.67574e-19
1.5944e-18
5.8693e-19
1.4405e-18
6.92394e-19
1.26812e-18
7.83971e-19
1.08009e-18
8.61804e-19
8.79207e-19
9.26119e-19
6.68152e-19
9.77172e-19
4.49552e-19
1.01521e-18
2.25965e-19
1.04045e-18
1.05305e-18
-1.74551e-10
1.07316e-10
-1.5273e-10
1.37817e-10
-2.50638e-10
3.26589e-10
-3.74827e-10
3.10307e-10
-4.90322e-10
4.86594e-10
-7.2436e-10
5.06233e-10
-8.81725e-10
6.45884e-10
-1.08932e-09
8.33936e-10
-1.24413e-09
9.53533e-10
-1.37985e-09
9.45524e-10
-1.45366e-09
8.63047e-10
-1.50604e-09
8.05042e-10
-1.57669e-09
6.26311e-10
-1.4814e-09
3.1808e-10
-1.47145e-09
3.18288e-10
-1.39779e-09
8.72875e-11
-1.29132e-09
-1.64846e-10
-1.22967e-09
-7.23108e-10
-1.0135e-09
-4.95227e-10
-8.90854e-10
-5.81353e-10
-5.39179e-10
-1.09476e-09
-1.89127e-10
-1.30908e-09
-7.30317e-11
-1.36794e-09
9.91123e-11
-1.75063e-09
2.68547e-10
-2.16587e-09
4.21821e-10
-2.43103e-09
5.68469e-10
-2.10055e-09
8.34009e-10
-1.59524e-09
1.16745e-09
-1.56521e-09
1.54854e-09
-1.58214e-09
1.80248e-09
-1.55848e-09
1.92211e-09
-1.50454e-09
1.96911e-09
-1.42633e-09
2.06707e-09
-1.07429e-09
2.19839e-09
-8.62427e-10
2.27897e-09
-6.98482e-10
2.54865e-09
-1.00842e-09
2.60308e-09
-5.54559e-10
2.67385e-09
-5.50505e-10
2.73089e-09
-5.71188e-10
2.76673e-09
-4.38424e-10
2.79518e-09
-3.73945e-10
2.81349e-09
-3.07524e-10
2.84933e-09
-2.05265e-10
2.79366e-09
-1.67362e-10
2.7862e-09
-5.24158e-11
2.77896e-09
3.67633e-12
2.78804e-09
3.47292e-11
2.79406e-09
6.86885e-11
2.80724e-09
1.20964e-10
2.8152e-09
1.41559e-10
2.81356e-09
1.58446e-10
2.8044e-09
1.64658e-10
2.79031e-09
1.58851e-10
2.75904e-09
1.79633e-10
2.72847e-09
1.79672e-10
2.68898e-09
1.69255e-10
2.66837e-09
1.63213e-10
2.63966e-09
1.62747e-10
2.6353e-09
1.63305e-10
2.59168e-09
1.38699e-10
2.60025e-09
1.85821e-10
2.58808e-09
2.47023e-10
2.59243e-09
3.0573e-10
2.57862e-09
4.901e-10
2.55666e-09
5.99856e-10
2.60579e-09
6.26148e-10
2.61316e-09
1.01084e-09
2.52462e-09
1.20999e-09
2.39882e-09
1.44568e-09
2.33548e-09
1.6227e-09
2.19807e-09
1.80365e-09
1.99355e-09
1.98775e-09
1.75189e-09
2.05235e-09
1.92252e-09
1.65638e-09
1.37999e-09
1.35368e-09
8.70393e-10
9.4802e-10
5.76276e-10
4.56223e-10
4.36065e-10
3.0483e-10
3.21493e-10
4.98755e-10
3.82339e-16
1.19586e-09
-4.57609e-18
1.45903e-18
-4.43002e-18
-2.37326e-19
-4.35297e-18
-4.51181e-19
-4.24828e-18
-6.97721e-19
-4.0921e-18
-9.58796e-19
-3.87976e-18
-1.22178e-18
-3.61274e-18
-1.47572e-18
-3.29535e-18
-1.71088e-18
-2.93382e-18
-1.9188e-18
-2.53576e-18
-2.09187e-18
-2.10986e-18
-2.22514e-18
-1.66561e-18
-2.31474e-18
-1.21288e-18
-2.35848e-18
-7.61597e-19
-2.35591e-18
-3.21292e-19
-2.30825e-18
9.91857e-20
-2.21825e-18
4.92013e-19
-2.08997e-18
8.50625e-19
-1.9285e-18
1.16986e-18
-1.73965e-18
1.44601e-18
-1.52962e-18
1.67678e-18
-1.30468e-18
1.86122e-18
-1.07089e-18
1.99951e-18
-8.33851e-19
2.0928e-18
-5.98547e-19
2.14299e-18
-3.69236e-19
2.15258e-18
-1.49414e-19
2.12447e-18
5.81751e-20
2.06183e-18
2.51484e-19
1.96797e-18
4.2909e-19
1.84622e-18
5.90108e-19
1.69986e-18
7.34087e-19
1.53208e-18
8.6092e-19
1.34595e-18
9.7074e-19
1.14441e-18
1.06384e-18
9.30259e-19
1.1406e-18
7.06192e-19
1.20142e-18
4.74792e-19
1.24667e-18
2.38559e-19
1.27666e-18
1.29161e-18
-1.1845e-10
2.25769e-10
-3.56749e-10
3.76119e-10
-4.37156e-10
4.06998e-10
-5.41127e-10
4.14281e-10
-6.87133e-10
6.32602e-10
-9.81359e-10
8.00462e-10
-1.19439e-09
8.58919e-10
-1.39822e-09
1.03777e-09
-1.49429e-09
1.0496e-09
-1.56083e-09
1.01206e-09
-1.53082e-09
8.33045e-10
-1.54442e-09
8.18647e-10
-1.64155e-09
7.23435e-10
-1.55612e-09
2.32653e-10
-1.42449e-09
1.86665e-10
-1.28243e-09
-5.47765e-11
-1.15312e-09
-2.94149e-10
-1.17607e-09
-7.00161e-10
-8.47719e-10
-8.23576e-10
-4.99082e-10
-9.29989e-10
-1.73641e-10
-1.4202e-09
2.75123e-11
-1.51024e-09
1.85942e-10
-1.52637e-09
2.43293e-10
-1.80798e-09
3.92656e-10
-2.31523e-09
5.05945e-10
-2.54432e-09
6.6995e-10
-2.26455e-09
9.74351e-10
-1.89964e-09
1.192e-09
-1.78286e-09
1.33939e-09
-1.72954e-09
1.44086e-09
-1.65995e-09
1.52243e-09
-1.58612e-09
1.58594e-09
-1.48984e-09
1.77205e-09
-1.26041e-09
1.98729e-09
-1.07766e-09
2.11544e-09
-8.26629e-10
2.08546e-09
-9.78443e-10
2.29976e-09
-7.68859e-10
2.41189e-09
-6.62639e-10
2.42821e-09
-5.87505e-10
2.40554e-09
-4.15759e-10
2.39463e-09
-3.6304e-10
2.37233e-09
-2.85219e-10
2.34024e-09
-1.73176e-10
2.287e-09
-1.14128e-10
2.27621e-09
-4.16295e-11
2.28772e-09
-7.82629e-12
2.30613e-09
1.63123e-11
2.31457e-09
6.02513e-11
2.32296e-09
1.12572e-10
2.33631e-09
1.28209e-10
2.35301e-09
1.41751e-10
2.35117e-09
1.66495e-10
2.33227e-09
1.77755e-10
2.31417e-09
1.9774e-10
2.31751e-09
1.76326e-10
2.31399e-09
1.72786e-10
2.29681e-09
1.80396e-10
2.29649e-09
1.63062e-10
2.22455e-09
2.35254e-10
2.23368e-09
1.29563e-10
2.30332e-09
1.16188e-10
2.28108e-09
2.69258e-10
2.26274e-09
3.2407e-10
2.21046e-09
5.42379e-10
2.3858e-09
4.24518e-10
2.36503e-09
6.4692e-10
2.25405e-09
1.12182e-09
2.18396e-09
1.28008e-09
2.15293e-09
1.47671e-09
2.16219e-09
1.61343e-09
2.08852e-09
1.87732e-09
1.95313e-09
2.12314e-09
1.8611e-09
2.14438e-09
1.46462e-09
2.05286e-09
9.55785e-10
1.86252e-09
8.0391e-10
1.09989e-09
6.42766e-10
6.17365e-10
4.29073e-10
5.18522e-10
2.21664e-10
7.06163e-10
3.09567e-16
1.41752e-09
-4.70244e-18
1.57439e-18
-4.64282e-18
-2.97794e-19
-4.59851e-18
-4.97028e-19
-4.50841e-18
-7.8969e-19
-4.3542e-18
-1.11514e-18
-4.13286e-18
-1.44552e-18
-3.84712e-18
-1.76413e-18
-3.50257e-18
-2.0584e-18
-3.10685e-18
-2.31779e-18
-2.66904e-18
-2.53317e-18
-2.19946e-18
-2.69831e-18
-1.70934e-18
-2.80839e-18
-1.21031e-18
-2.8608e-18
-7.13939e-19
-2.8552e-18
-2.31296e-19
-2.79337e-18
2.27466e-19
-2.67908e-18
6.53485e-19
-2.51774e-18
1.03948e-18
-2.31603e-18
1.37989e-18
-2.08147e-18
1.67095e-18
-1.82201e-18
1.91057e-18
-1.54557e-18
2.09826e-18
-1.25972e-18
2.23481e-18
-9.7136e-19
2.32211e-18
-6.86551e-19
2.36281e-18
-4.1038e-19
2.36017e-18
-1.46936e-19
2.31778e-18
1.00653e-19
2.23944e-18
3.3014e-19
2.12899e-18
5.40048e-19
1.9902e-18
7.29544e-19
1.82669e-18
8.98313e-19
1.6419e-18
1.04643e-18
1.43905e-18
1.17424e-18
1.22117e-18
1.28227e-18
9.91077e-19
1.37109e-18
7.51441e-19
1.44131e-18
5.04782e-19
1.49346e-18
2.53512e-19
1.52797e-18
1.54517e-18
-8.3887e-11
3.09657e-10
-1.95039e-10
4.87274e-10
-4.05307e-10
6.17269e-10
-7.10198e-10
7.19175e-10
-7.74694e-10
6.971e-10
-1.08859e-09
1.11436e-09
-1.34203e-09
1.11237e-09
-1.47863e-09
1.17437e-09
-1.58605e-09
1.15702e-09
-1.65428e-09
1.08029e-09
-1.54241e-09
7.21176e-10
-1.5325e-09
8.0874e-10
-1.56465e-09
7.55583e-10
-1.57901e-09
2.47019e-10
-1.42732e-09
3.49728e-11
-1.27298e-09
-2.09116e-10
-1.07391e-09
-4.93216e-10
-9.81611e-10
-7.92458e-10
-6.24262e-10
-1.18092e-09
-2.53754e-10
-1.3005e-09
-6.98882e-11
-1.60407e-09
8.09442e-11
-1.66107e-09
2.28599e-10
-1.67402e-09
2.65864e-10
-1.84525e-09
4.23329e-10
-2.4727e-09
4.88456e-10
-2.60945e-09
6.37584e-10
-2.41368e-09
8.9317e-10
-2.15523e-09
1.0496e-09
-1.93929e-09
1.14066e-09
-1.82061e-09
1.15304e-09
-1.67232e-09
1.21325e-09
-1.64633e-09
1.3269e-09
-1.60349e-09
1.51225e-09
-1.44575e-09
1.64399e-09
-1.2094e-09
2.05943e-09
-1.24207e-09
2.03958e-09
-9.58598e-10
2.07287e-09
-8.02146e-10
2.00272e-09
-5.92494e-10
2.04369e-09
-6.28476e-10
1.99554e-09
-3.6761e-10
1.9127e-09
-2.80208e-10
1.83729e-09
-2.09808e-10
1.78364e-09
-1.1953e-10
1.75908e-09
-8.95606e-11
1.7801e-09
-6.26586e-11
1.80499e-09
-3.27166e-11
1.8318e-09
-1.04963e-11
1.8495e-09
4.2555e-11
1.86509e-09
9.69804e-11
1.87901e-09
1.14295e-10
1.9329e-09
8.78574e-11
1.93127e-09
1.68136e-10
1.93141e-09
1.77609e-10
1.89558e-09
2.33576e-10
1.85978e-09
2.12134e-10
1.89457e-09
1.37995e-10
1.82617e-09
2.488e-10
1.83667e-09
1.52566e-10
1.89026e-09
1.8166e-10
1.95049e-09
6.93379e-11
1.98247e-09
8.4206e-11
2.05746e-09
1.94268e-10
2.12545e-09
2.56085e-10
2.15304e-09
5.14783e-10
2.23503e-09
3.4253e-10
2.07007e-09
8.1188e-10
2.11125e-09
1.08064e-09
2.15102e-09
1.2403e-09
2.09905e-09
1.52868e-09
1.95865e-09
1.75383e-09
1.86708e-09
1.9689e-09
1.80594e-09
2.18428e-09
1.70435e-09
2.24596e-09
1.44671e-09
2.31049e-09
1.3161e-09
1.99313e-09
9.76567e-10
1.43943e-09
7.73175e-10
8.20755e-10
4.8564e-10
8.06056e-10
2.93529e-10
8.98272e-10
4.24382e-16
1.71105e-09
-4.6568e-18
2.30117e-18
-4.84099e-18
-1.14285e-19
-4.89016e-18
-4.49069e-19
-4.83291e-18
-8.48249e-19
-4.6837e-18
-1.26574e-18
-4.45067e-18
-1.68006e-18
-4.14065e-18
-2.07584e-18
-3.76136e-18
-2.43966e-18
-3.32224e-18
-2.75926e-18
-2.83417e-18
-3.024e-18
-2.30954e-18
-3.22602e-18
-1.76176e-18
-3.35945e-18
-1.2047e-18
-3.42113e-18
-6.5211e-19
-3.41082e-18
-1.17008e-19
-3.33109e-18
3.88805e-19
-3.18704e-18
8.55196e-19
-2.98587e-18
1.27403e-18
-2.73632e-18
1.63935e-18
-2.4481e-18
1.94738e-18
-2.13129e-18
2.19643e-18
-1.79585e-18
2.38662e-18
-1.45111e-18
2.51962e-18
-1.10547e-18
2.59828e-18
-7.6613e-19
2.62626e-18
-4.39045e-19
2.60775e-18
-1.28861e-19
2.54726e-18
1.60989e-19
2.44934e-18
4.28161e-19
2.31848e-18
6.71241e-19
2.15897e-18
8.89577e-19
1.97481e-18
1.08311e-18
1.76972e-18
1.25221e-18
1.54708e-18
1.39755e-18
1.30999e-18
1.51993e-18
1.06129e-18
1.62025e-18
8.03589e-19
1.69934e-18
5.39299e-19
1.75795e-18
2.7071e-19
1.79669e-18
1.81597e-18
-4.77847e-10
7.87506e-10
-6.8143e-10
6.9086e-10
-5.82404e-10
5.18245e-10
-7.72204e-10
9.08978e-10
-1.10841e-09
1.03331e-09
-1.18001e-09
1.18596e-09
-1.33938e-09
1.27174e-09
-1.46647e-09
1.30146e-09
-1.55697e-09
1.24752e-09
-1.65722e-09
1.18055e-09
-1.70867e-09
7.72619e-10
-1.48609e-09
5.86162e-10
-1.44278e-09
7.12279e-10
-1.56357e-09
3.67814e-10
-1.49014e-09
-3.84585e-11
-1.31893e-09
-3.80325e-10
-1.06816e-09
-7.43983e-10
-8.71326e-10
-9.89294e-10
-6.07025e-10
-1.44522e-09
-3.61728e-10
-1.54579e-09
-2.87175e-10
-1.67862e-09
-1.76828e-10
-1.77142e-09
-7.89871e-12
-1.84295e-09
1.2202e-10
-1.97516e-09
2.19528e-10
-2.57021e-09
3.3368e-10
-2.7236e-09
4.73744e-10
-2.55374e-09
6.91481e-10
-2.37296e-09
8.02016e-10
-2.04982e-09
7.95848e-10
-1.81444e-09
9.15047e-10
-1.79152e-09
1.0513e-09
-1.78259e-09
1.15432e-09
-1.70651e-09
1.36686e-09
-1.6583e-09
1.63102e-09
-1.47356e-09
1.64255e-09
-1.2536e-09
1.60169e-09
-9.17743e-10
1.627e-09
-8.27459e-10
1.55917e-09
-5.24662e-10
1.53805e-09
-6.07361e-10
1.51243e-09
-3.4199e-10
1.44387e-09
-2.1165e-10
1.39813e-09
-1.64065e-10
1.39025e-09
-1.11654e-10
1.39785e-09
-9.7165e-11
1.40501e-09
-6.98187e-11
1.42791e-09
-5.56105e-11
1.44402e-09
-2.66063e-11
1.44484e-09
4.17353e-11
1.46113e-09
8.06944e-11
1.43073e-09
1.44693e-10
1.42751e-09
9.10813e-11
1.38748e-09
2.08169e-10
1.3946e-09
1.70489e-10
1.48389e-09
1.4429e-10
1.38746e-09
3.08563e-10
1.58288e-09
-5.74154e-11
1.42524e-09
4.06441e-10
1.54543e-09
3.23748e-11
1.7319e-09
-4.80728e-12
1.79717e-09
4.07166e-12
1.86301e-09
1.83598e-11
2.00421e-09
5.30708e-11
2.0927e-09
1.67596e-10
2.12726e-09
4.8022e-10
1.98351e-09
4.8628e-10
1.90023e-09
8.95158e-10
1.88732e-09
1.09354e-09
1.80337e-09
1.32425e-09
1.76364e-09
1.5684e-09
1.78476e-09
1.73272e-09
1.8077e-09
1.94595e-09
1.69056e-09
2.30141e-09
1.53906e-09
2.39747e-09
1.49851e-09
2.35104e-09
1.41092e-09
2.08071e-09
1.22675e-09
1.62359e-09
8.30385e-10
1.21712e-09
5.31207e-10
1.10523e-09
3.1138e-10
1.1181e-09
4.79964e-16
2.02242e-09
-4.7811e-18
3.80708e-18
-5.17466e-18
2.78836e-19
-5.28831e-18
-3.36296e-19
-5.24945e-18
-8.87869e-19
-5.09716e-18
-1.41866e-18
-4.84567e-18
-1.93207e-18
-4.50375e-18
-2.41826e-18
-4.0805e-18
-2.86356e-18
-3.58698e-18
-3.25379e-18
-3.03619e-18
-3.57635e-18
-2.44297e-18
-3.8214e-18
-1.82345e-18
-3.98165e-18
-1.19439e-18
-4.05322e-18
-5.72378e-19
-4.03597e-18
2.70385e-20
-3.93344e-18
5.89975e-19
-3.7525e-18
1.10475e-18
-3.5027e-18
1.56225e-18
-3.19548e-18
1.95615e-18
-2.84339e-18
2.28282e-18
-2.45925e-18
2.54117e-18
-2.05546e-18
2.73227e-18
-1.64347e-18
2.85896e-18
-1.23337e-18
2.92536e-18
-8.33616e-19
2.93644e-18
-4.51005e-19
2.8976e-18
-9.06633e-20
2.81444e-18
2.43795e-19
2.69242e-18
5.50084e-19
2.53682e-18
8.27019e-19
2.3525e-18
1.07429e-18
2.14391e-18
1.29226e-18
1.91505e-18
1.48173e-18
1.66946e-18
1.6438e-18
1.41031e-18
1.7797e-18
1.14039e-18
1.89068e-18
8.62203e-19
1.97791e-18
5.78037e-19
2.0424e-18
2.89991e-19
2.08495e-18
2.1061e-18
2.75983e-10
5.11525e-10
8.82102e-11
8.78636e-10
-4.44729e-10
1.05119e-09
-5.44225e-10
1.00848e-09
-8.8362e-10
1.37271e-09
-1.1518e-09
1.45414e-09
-1.29847e-09
1.41842e-09
-1.41254e-09
1.41553e-09
-1.49185e-09
1.32684e-09
-1.52508e-09
1.21378e-09
-1.6991e-09
9.46643e-10
-1.70297e-09
5.90031e-10
-1.48427e-09
4.93578e-10
-1.51763e-09
4.01174e-10
-1.58921e-09
3.31204e-11
-1.4465e-09
-5.23028e-10
-1.22649e-09
-9.63998e-10
-9.33344e-10
-1.28244e-09
-8.8135e-10
-1.49722e-09
-7.01774e-10
-1.72537e-09
-5.75784e-10
-1.80461e-09
-4.3561e-10
-1.91159e-09
-2.79558e-10
-1.999e-09
-5.06936e-11
-2.20403e-09
7.90085e-11
-2.69991e-09
1.63741e-10
-2.80833e-09
2.87386e-10
-2.67739e-09
3.92893e-10
-2.47847e-09
5.47854e-10
-2.20478e-09
6.35105e-10
-1.90169e-09
6.82582e-10
-1.83899e-09
7.71514e-10
-1.87152e-09
9.12956e-10
-1.84795e-09
9.94756e-10
-1.7401e-09
1.03378e-09
-1.51259e-09
1.19203e-09
-1.41185e-09
1.28175e-09
-1.00747e-09
1.27089e-09
-8.166e-10
1.18937e-09
-4.43141e-10
1.06042e-09
-4.78409e-10
1.08711e-09
-3.68685e-10
1.08816e-09
-2.12701e-10
1.06084e-09
-1.36742e-10
1.04594e-09
-9.67542e-11
1.02402e-09
-7.52487e-11
9.87078e-10
-3.28759e-11
9.43011e-10
-1.15432e-11
8.87276e-10
2.91301e-11
8.75927e-10
5.30863e-11
8.72256e-10
8.4367e-11
8.90133e-10
1.26819e-10
8.81878e-10
9.93391e-11
9.61687e-10
1.28364e-10
1.02862e-09
1.03559e-10
1.14585e-09
2.70675e-11
1.24437e-09
2.10045e-10
1.35052e-09
-1.6357e-10
1.43812e-09
3.18848e-10
1.53795e-09
-6.7458e-11
1.58807e-09
-5.49238e-11
1.67178e-09
-7.96406e-11
1.7709e-09
-8.07567e-11
1.86236e-09
-3.83925e-11
1.89768e-09
1.32273e-10
1.95106e-09
4.26835e-10
1.73071e-09
7.0663e-10
1.69056e-09
9.35307e-10
1.65197e-09
1.13213e-09
1.69656e-09
1.27967e-09
1.74146e-09
1.5235e-09
1.6279e-09
1.84628e-09
1.42665e-09
2.1472e-09
1.33227e-09
2.39579e-09
1.27716e-09
2.45258e-09
1.24476e-09
2.38344e-09
1.02831e-09
2.29716e-09
8.39499e-10
1.81241e-09
6.1332e-10
1.4433e-09
4.71308e-10
1.24724e-09
3.15988e-10
1.27341e-09
5.4952e-16
2.33841e-09
-5.61262e-18
4.71576e-18
-5.78861e-18
4.54581e-19
-5.83881e-18
-2.86731e-19
-5.77928e-18
-9.47805e-19
-5.6097e-18
-1.58837e-18
-5.33111e-18
-2.21046e-18
-4.94838e-18
-2.80046e-18
-4.47037e-18
-3.34089e-18
-3.90955e-18
-3.8141e-18
-3.28123e-18
-4.20467e-18
-2.60322e-18
-4.50012e-18
-1.89502e-18
-4.69132e-18
-1.17714e-18
-4.77337e-18
-4.69846e-19
-4.74613e-18
2.07982e-19
-4.61436e-18
8.39779e-19
-4.38723e-18
1.41196e-18
-4.07741e-18
1.91435e-18
-3.69994e-18
2.3403e-18
-3.27105e-18
2.68661e-18
-2.80703e-18
2.95315e-18
-2.32337e-18
3.14237e-18
-1.83403e-18
3.25871e-18
-1.35101e-18
3.30797e-18
-8.84084e-19
3.29678e-18
-4.4084e-19
3.23206e-18
-2.67453e-20
3.12072e-18
3.54605e-19
2.96936e-18
7.01201e-19
2.78409e-18
1.01232e-18
2.57047e-18
1.28821e-18
2.33338e-18
1.52983e-18
2.07712e-18
1.7386e-18
1.80537e-18
1.91621e-18
1.52129e-18
2.06441e-18
1.22762e-18
2.18492e-18
9.2669e-19