/*--------------------------------*- C++ -*----------------------------------*\
  =========                 |
  \\      /  F ield         | OpenFOAM: The Open Source CFD Toolbox
   \\    /   O peration     | Website:  https://openfoam.org
    \\  /    A nd           | Version:  6
     \\/     M anipulation  |
\*---------------------------------------------------------------------------*/
FoamFile
{
    version     2.0;
    format      ascii;
    class       volVectorField;
    location    "3300";
    object      U;
}
// * * * * * * * * * * * * * * * * * * * * * * * * * * * * * * * * * * * * * //

dimensions      [0 1 -1 0 0 0 0];

internalField   nonuniform List<vector> 
4800
(
(2.76265e-05 0 -4.14969e-05)
(3.98346e-05 0 -4.94443e-05)
(5.71705e-05 0 -6.45939e-05)
(6.382e-05 0 -5.34979e-05)
(4.88603e-05 0 2.50989e-06)
(-3.1768e-05 0 2.05587e-05)
(-5.43985e-05 0 4.6068e-05)
(-8.71922e-05 0 3.30111e-05)
(-0.000123676 0 -3.79427e-06)
(-0.000163073 0 2.8454e-05)
(-0.000187123 0 6.79419e-05)
(-0.000223728 0 5.61007e-05)
(-0.000286186 0 1.42642e-05)
(-0.000340953 0 3.26166e-05)
(-0.000408404 0 2.19029e-05)
(-0.000455472 0 4.84199e-05)
(-0.000477971 0 1.15047e-05)
(-0.000478517 0 5.5549e-06)
(-0.000448103 0 -2.62818e-05)
(-0.000400572 0 -5.31185e-06)
(-0.000323887 0 -6.67131e-05)
(-0.000233272 0 -8.65475e-05)
(-0.000155836 0 -2.40542e-05)
(-1.88861e-05 0 -3.55297e-05)
(0.000126188 0 -3.98945e-05)
(0.000273324 0 -8.28245e-05)
(0.000443347 0 -0.000128275)
(0.000571308 0 -3.08568e-05)
(0.000587616 0 -0.000134505)
(0.000664054 0 -0.000168306)
(0.000847733 0 -8.92731e-05)
(0.00102183 0 -5.99197e-05)
(0.0011518 0 -0.000105852)
(0.00128108 0 -9.25108e-05)
(0.00140404 0 -0.000163407)
(0.0014823 0 -8.31961e-05)
(0.00149997 0 -1.6331e-05)
(0.00151865 0 -2.45997e-05)
(0.00154767 0 -1.00726e-05)
(0.0015453 0 -4.24072e-05)
(0.00154189 0 -5.45536e-05)
(0.00156305 0 -5.42667e-05)
(0.00161718 0 -5.2253e-05)
(0.0016871 0 -6.2993e-05)
(0.00173853 0 -6.29429e-05)
(0.00174717 0 -2.75765e-05)
(0.00174702 0 -1.89929e-05)
(0.00174135 0 -1.31411e-05)
(0.00172018 0 -1.29582e-05)
(0.00168818 0 3.85885e-06)
(0.00165338 0 1.99485e-05)
(0.00161267 0 4.28464e-05)
(0.00156751 0 3.64568e-05)
(0.00152946 0 1.06161e-05)
(0.00151076 0 -9.20609e-06)
(0.00150485 0 -2.12133e-05)
(0.00150046 0 -2.38739e-05)
(0.00149353 0 -2.33581e-05)
(0.00148979 0 -1.77877e-05)
(0.00148943 0 -2.78373e-05)
(0.00148746 0 -3.70849e-05)
(0.00147778 0 -3.16576e-05)
(0.00145419 0 -4.59859e-05)
(0.00142594 0 -5.02521e-05)
(0.00138873 0 3.2218e-05)
(0.00132947 0 -4.85404e-05)
(0.00126661 0 9.29346e-06)
(0.00116788 0 0.000149026)
(0.00100558 0 -9.60784e-05)
(0.000815468 0 -1.8071e-05)
(0.000511049 0 0.000194118)
(0.00032309 0 -2.56637e-05)
(0.000242382 0 -7.84321e-05)
(0.000119742 0 1.90056e-05)
(5.14591e-05 0 -1.93106e-06)
(2.86934e-05 0 1.67887e-05)
(1.20246e-05 0 -8.4167e-06)
(-9.6969e-05 0 -1.39e-05)
(0.00025068 0 -6.86152e-05)
(-0.000699401 0 -9.30775e-05)
(1.10446e-05 0 -1.96757e-06)
(-1.26015e-12 0 2.3861e-13)
(-2.72767e-12 0 4.78948e-14)
(-1.49362e-12 0 5.54686e-16)
(-1.47617e-12 0 -1.86083e-14)
(-1.4288e-12 0 -2.95832e-14)
(-1.36217e-12 0 -3.80083e-14)
(-1.27988e-12 0 -4.53921e-14)
(-1.18367e-12 0 -5.20449e-14)
(-1.07508e-12 0 -5.79548e-14)
(-9.55603e-13 0 -6.28689e-14)
(-8.27477e-13 0 -6.66622e-14)
(-6.93024e-13 0 -6.92678e-14)
(-5.5462e-13 0 -7.06254e-14)
(-4.14765e-13 0 -7.07116e-14)
(-2.75961e-13 0 -6.95443e-14)
(-1.40634e-13 0 -6.71811e-14)
(-1.10538e-14 0 -6.37153e-14)
(1.10724e-13 0 -5.92693e-14)
(2.22913e-13 0 -5.39875e-14)
(3.24023e-13 0 -4.80283e-14)
(4.12883e-13 0 -4.15568e-14)
(4.88643e-13 0 -3.4737e-14)
(5.50762e-13 0 -2.77257e-14)
(5.98993e-13 0 -2.06677e-14)
(6.33356e-13 0 -1.36924e-14)
(6.54108e-13 0 -6.91213e-15)
(6.61709e-13 0 -4.2209e-16)
(6.56784e-13 0 5.70061e-15)
(6.4009e-13 0 1.13956e-14)
(6.1249e-13 0 1.66183e-14)
(5.74922e-13 0 2.13382e-14)
(5.28384e-13 0 2.55364e-14)
(4.73912e-13 0 2.92031e-14)
(4.12565e-13 0 3.23352e-14)
(3.45413e-13 0 3.49342e-14)
(2.73527e-13 0 3.70039e-14)
(1.97975e-13 0 3.85488e-14)
(1.19817e-13 0 3.95725e-14)
(4.0109e-14 0 4.00739e-14)
(-8.36679e-07 0 -5.32254e-05)
(2.6241e-05 0 -9.57954e-06)
(1.8421e-05 0 2.72474e-05)
(4.53926e-06 0 4.49789e-05)
(-2.60702e-05 0 5.42563e-05)
(-4.41048e-05 0 4.70899e-05)
(-5.36885e-05 0 5.28948e-05)
(-9.82777e-05 0 3.80978e-05)
(-0.000148251 0 6.76006e-05)
(-0.000202278 0 5.93198e-05)
(-0.00026203 0 4.45169e-05)
(-0.000328534 0 4.60991e-05)
(-0.000386835 0 8.54468e-05)
(-0.000450412 0 0.000100424)
(-0.000519003 0 3.91522e-05)
(-0.000542409 0 3.83133e-05)
(-0.000541688 0 1.7124e-05)
(-0.000504881 0 -4.1334e-05)
(-0.00047318 0 -1.35462e-05)
(-0.000422458 0 -6.10208e-05)
(-0.00036605 0 -0.000115491)
(-0.00032312 0 -0.000117989)
(-0.000279284 0 -0.000134678)
(-0.00014106 0 -0.000240228)
(7.09097e-05 0 -0.000189343)
(0.000199886 0 -0.000225359)
(0.000394227 0 -0.00023978)
(0.000623922 0 0.000194752)
(0.000623229 0 -0.000194689)
(0.000685632 0 -0.000224297)
(0.000814475 0 -0.000195611)
(0.00093466 0 -0.000217209)
(0.00105358 0 -0.000261774)
(0.00119621 0 -0.000194156)
(0.00131037 0 -6.65033e-05)
(0.00135349 0 -5.7729e-05)
(0.00138282 0 -5.64148e-05)
(0.00143467 0 -3.42617e-05)
(0.00149139 0 1.07211e-05)
(0.00152273 0 -2.8011e-05)
(0.00154513 0 -7.23535e-05)
(0.00157965 0 -0.000103109)
(0.00163837 0 -9.57145e-05)
(0.00169014 0 -4.76555e-05)
(0.00168727 0 -4.52514e-05)
(0.00168641 0 -7.88507e-06)
(0.00168692 0 1.75146e-05)
(0.00167744 0 3.55202e-05)
(0.00165214 0 4.06608e-05)
(0.00162327 0 5.35886e-05)
(0.00161123 0 4.5415e-05)
(0.00160156 0 4.6471e-05)
(0.00159331 0 3.97342e-05)
(0.00159191 0 3.64363e-05)
(0.00158868 0 3.12693e-05)
(0.00158062 0 3.01185e-05)
(0.0015699 0 3.28052e-05)
(0.00155772 0 2.72681e-05)
(0.00154093 0 1.97999e-05)
(0.00151802 0 4.09616e-05)
(0.00150454 0 5.10302e-05)
(0.00149526 0 6.73929e-05)
(0.00148109 0 6.55716e-05)
(0.00144968 0 9.39507e-05)
(0.00139423 0 9.98766e-05)
(0.00133227 0 9.69049e-05)
(0.00125545 0 0.000108038)
(0.00113711 0 0.000127258)
(0.0010464 0 0.000112435)
(0.000931778 0 0.000289584)
(0.000801318 0 0.000312591)
(0.000659204 0 0.000297099)
(0.000353665 0 0.000341758)
(0.000217506 0 7.2236e-05)
(0.000123375 0 7.38856e-05)
(8.36995e-05 0 1.53538e-06)
(7.78175e-05 0 1.07806e-05)
(-3.41411e-05 0 2.99166e-05)
(0.000530406 0 1.34201e-05)
(-0.000561525 0 -2.68058e-06)
(1.05208e-05 0 9.05891e-05)
(-1.16241e-12 0 3.64432e-13)
(-2.93233e-12 0 4.38883e-14)
(-1.56429e-12 0 -2.74353e-14)
(-1.5097e-12 0 -6.49342e-14)
(-1.45083e-12 0 -9.22289e-14)
(-1.37988e-12 0 -1.15995e-13)
(-1.2951e-12 0 -1.37831e-13)
(-1.19673e-12 0 -1.57796e-13)
(-1.08586e-12 0 -1.75529e-13)
(-9.64254e-13 0 -1.90302e-13)
(-8.33876e-13 0 -2.01748e-13)
(-6.96987e-13 0 -2.09607e-13)
(-5.56063e-13 0 -2.13676e-13)
(-4.13683e-13 0 -2.13881e-13)
(-2.7243e-13 0 -2.10276e-13)
(-1.34805e-13 0 -2.03038e-13)
(-3.14211e-15 0 -1.92456e-13)
(1.20452e-13 0 -1.78905e-13)
(2.34154e-13 0 -1.6283e-13)
(3.36454e-13 0 -1.44716e-13)
(4.26175e-13 0 -1.2507e-13)
(5.02474e-13 0 -1.04391e-13)
(5.64831e-13 0 -8.31569e-14)
(6.13026e-13 0 -6.18081e-14)
(6.47111e-13 0 -4.07374e-14)
(6.67379e-13 0 -2.02851e-14)
(6.74322e-13 0 -7.36367e-16)
(6.68601e-13 0 1.76795e-14)
(6.51008e-13 0 3.47862e-14)
(6.22432e-13 0 5.04566e-14)
(5.8384e-13 0 6.46052e-14)
(5.36249e-13 0 7.71813e-14)
(4.80711e-13 0 8.81601e-14)
(4.18296e-13 0 9.75361e-14)
(3.50081e-13 0 1.05315e-13)
(2.77142e-13 0 1.11511e-13)
(2.00544e-13 0 1.16138e-13)
(1.21342e-13 0 1.1921e-13)
(4.06103e-14 0 1.20733e-13)
(-1.08871e-05 0 -7.13983e-05)
(9.58216e-06 0 -1.24234e-05)
(-1.75523e-05 0 3.96102e-05)
(-1.63871e-05 0 6.12332e-05)
(-4.68065e-05 0 6.34207e-05)
(-8.04768e-05 0 5.2341e-05)
(-9.44483e-05 0 7.97033e-05)
(-0.000126724 0 0.000106354)
(-0.000195554 0 0.000106997)
(-0.000241863 0 0.000150437)
(-0.000324969 0 0.000145995)
(-0.000414822 0 0.000139141)
(-0.000489046 0 0.000120813)
(-0.000534535 0 0.000124431)
(-0.000555773 0 0.000142079)
(-0.000567973 0 0.000127002)
(-0.000566239 0 -9.18556e-05)
(-0.000520188 0 -3.18018e-05)
(-0.000487947 0 -5.91398e-05)
(-0.000431455 0 -0.00019643)
(-0.000422947 0 -0.000126955)
(-0.000382328 0 -0.000164012)
(-0.000319661 0 -0.000218517)
(-0.000229547 0 -0.000301641)
(-3.31028e-05 0 -0.000411752)
(8.5921e-05 0 -0.000568032)
(0.000338105 0 -0.000442936)
(0.000562292 0 -0.000130989)
(0.000609016 0 -0.000231745)
(0.000693523 0 -0.000248179)
(0.000797921 0 -0.000246464)
(0.000888988 0 -0.000338335)
(0.00100419 0 -0.000365338)
(0.00111261 0 -0.000254631)
(0.00116569 0 -0.000161747)
(0.001209 0 -0.000116044)
(0.00126642 0 -0.000116625)
(0.00135316 0 -1.50469e-05)
(0.00144393 0 -1.3971e-05)
(0.00147064 0 -0.000100484)
(0.00148572 0 -8.98299e-05)
(0.00151109 0 -0.000139831)
(0.00153704 0 -4.96307e-05)
(0.00153136 0 -3.98519e-05)
(0.0015321 0 -3.37284e-05)
(0.00154252 0 -4.00088e-05)
(0.00155446 0 2.78193e-05)
(0.00155028 0 4.20816e-05)
(0.00154296 0 5.45423e-05)
(0.00154347 0 5.54568e-05)
(0.00154497 0 9.45584e-05)
(0.00155056 0 5.91401e-05)
(0.00155134 0 3.40477e-05)
(0.00155058 0 3.07901e-05)
(0.00154869 0 6.45851e-06)
(0.00154501 0 6.02281e-06)
(0.00153721 0 1.01199e-05)
(0.00152322 0 5.28451e-06)
(0.00150262 0 3.7216e-05)
(0.00147451 0 -1.60486e-05)
(0.00145198 0 -3.12955e-06)
(0.00143616 0 1.01691e-05)
(0.0014196 0 2.60465e-05)
(0.00139872 0 8.39309e-05)
(0.00136733 0 9.72444e-05)
(0.00131109 0 0.000127117)
(0.00122523 0 0.000260433)
(0.0011871 0 0.000151619)
(0.00110054 0 0.000234601)
(0.000972926 0 0.000381194)
(0.000933008 0 0.000392626)
(0.000842022 0 0.000444252)
(0.000648897 0 0.00041829)
(0.000453994 0 0.000270239)
(0.00033213 0 0.00010819)
(0.000182132 0 0.000135724)
(0.000144527 0 -3.15659e-05)
(-2.5047e-05 0 -4.84903e-05)
(0.000506482 0 -0.000108719)
(-0.000496707 0 4.9035e-05)
(9.99673e-06 0 0.000178773)
(-1.12226e-12 0 9.00539e-14)
(-3.00175e-12 0 -7.65615e-14)
(-1.60621e-12 0 -8.98664e-14)
(-1.54397e-12 0 -1.2209e-13)
(-1.48212e-12 0 -1.59056e-13)
(-1.40931e-12 0 -1.96583e-13)
(-1.32251e-12 0 -2.3282e-13)
(-1.22152e-12 0 -2.66458e-13)
(-1.10732e-12 0 -2.9638e-13)
(-9.8172e-13 0 -3.21361e-13)
(-8.46782e-13 0 -3.4075e-13)
(-7.04952e-13 0 -3.54037e-13)
(-5.58894e-13 0 -3.6086e-13)
(-4.11364e-13 0 -3.61093e-13)
(-2.65118e-13 0 -3.54836e-13)
(-1.22814e-13 0 -3.42402e-13)
(1.30795e-14 0 -3.24291e-13)
(1.40351e-13 0 -3.01158e-13)
(2.57102e-13 0 -2.73769e-13)
(3.61783e-13 0 -2.42963e-13)
(4.53209e-13 0 -2.09608e-13)
(5.30556e-13 0 -1.74561e-13)
(5.93345e-13 0 -1.38639e-13)
(6.41412e-13 0 -1.02588e-13)
(6.74879e-13 0 -6.70733e-14)
(6.94109e-13 0 -3.26652e-14)
(6.99674e-13 0 1.62717e-16)
(6.92306e-13 0 3.10343e-14)
(6.72867e-13 0 5.96653e-14)
(6.42309e-13 0 8.5854e-14)
(6.01647e-13 0 1.09469e-13)
(5.51939e-13 0 1.30437e-13)
(4.94267e-13 0 1.48724e-13)
(4.2972e-13 0 1.6433e-13)
(3.59388e-13 0 1.77271e-13)
(2.8435e-13 0 1.87574e-13)
(2.05674e-13 0 1.95268e-13)
(1.24412e-13 0 2.0038e-13)
(4.16326e-14 0 2.02933e-13)
(-3.66048e-05 0 -4.96473e-05)
(-6.67225e-05 0 2.10366e-05)
(-5.59461e-05 0 4.96458e-05)
(-4.47819e-05 0 8.15859e-05)
(-8.95832e-05 0 8.61588e-05)
(-0.000106936 0 0.000118065)
(-0.000101916 0 0.00016573)
(-0.000227953 0 0.000121124)
(-0.000239927 0 0.000217485)
(-0.000349881 0 0.000203531)
(-0.00043126 0 0.000225896)
(-0.000496436 0 0.000246749)
(-0.000535276 0 0.00023411)
(-0.000558345 0 0.000189077)
(-0.000583105 0 9.23131e-05)
(-0.000588202 0 5.4305e-05)
(-0.000578601 0 -1.08254e-05)
(-0.000533728 0 -0.000111666)
(-0.000518307 0 -7.77567e-05)
(-0.000481701 0 -0.000204775)
(-0.000463203 0 -0.00015073)
(-0.000392555 0 -0.000227412)
(-0.000320145 0 -0.000302874)
(-9.25511e-05 0 -0.000505343)
(-7.9889e-05 0 -0.000621463)
(0.000213307 0 -0.000742237)
(0.000193306 0 -0.000667486)
(0.000488992 0 -0.00034243)
(0.000577279 0 -0.000271408)
(0.000620407 0 -0.000388911)
(0.000724257 0 -0.000456556)
(0.000849917 0 -0.000445947)
(0.000950015 0 -0.000393766)
(0.00101602 0 -0.000311959)
(0.0010661 0 -0.000237288)
(0.0011223 0 -0.000170826)
(0.00117701 0 -0.000188396)
(0.00126044 0 -0.000148408)
(0.00132215 0 -0.000129592)
(0.00133895 0 -0.00014232)
(0.00135961 0 -0.000157562)
(0.00139307 0 -0.000111982)
(0.00139376 0 -0.000102392)
(0.00139478 0 -8.74572e-05)
(0.00140364 0 -6.67872e-05)
(0.0014249 0 -3.51848e-05)
(0.00143874 0 -2.22452e-05)
(0.00143863 0 1.09221e-05)
(0.00144194 0 2.13405e-05)
(0.00144501 0 3.79932e-05)
(0.00144379 0 3.64776e-05)
(0.00144173 0 3.73085e-05)
(0.00143728 0 3.6606e-05)
(0.00142697 0 2.87247e-05)
(0.00141197 0 2.97425e-05)
(0.00139313 0 4.21119e-05)
(0.00136941 0 4.89636e-05)
(0.0013573 0 5.29606e-05)
(0.00135737 0 5.63982e-05)
(0.00135329 0 5.72372e-05)
(0.00134151 0 7.37684e-05)
(0.00132878 0 7.64088e-05)
(0.00131427 0 6.39046e-05)
(0.00129606 0 0.000111251)
(0.00127577 0 0.000195817)
(0.00125174 0 0.000173764)
(0.0012259 0 0.000153358)
(0.00115713 0 0.000398712)
(0.00112191 0 0.000404051)
(0.00107155 0 0.00036894)
(0.000933908 0 0.000609534)
(0.000914901 0 0.00059882)
(0.00073201 0 0.00065952)
(0.000623124 0 0.000484203)
(0.000431054 0 0.000351587)
(0.000229515 0 0.000255566)
(0.000249158 0 -6.8279e-06)
(6.96806e-05 0 -3.34534e-05)
(0.000639817 0 -8.82885e-05)
(-0.000644402 0 0.000141737)
(1.10281e-05 0 0.000277262)
(-1.27728e-12 0 1.17387e-13)
(-2.89304e-12 0 -1.22761e-13)
(-1.60902e-12 0 -1.33178e-13)
(-1.5781e-12 0 -1.74275e-13)
(-1.52455e-12 0 -2.25082e-13)
(-1.4529e-12 0 -2.78211e-13)
(-1.36425e-12 0 -3.30138e-13)
(-1.25958e-12 0 -3.78543e-13)
(-1.14032e-12 0 -4.21608e-13)
(-1.00854e-12 0 -4.57589e-13)
(-8.66552e-13 0 -4.85498e-13)
(-7.17097e-13 0 -5.04551e-13)
(-5.6312e-13 0 -5.14237e-13)
(-4.07659e-13 0 -5.14391e-13)
(-2.53739e-13 0 -5.05178e-13)
(-1.0426e-13 0 -4.87074e-13)
(3.81023e-14 0 -4.60825e-13)
(1.70975e-13 0 -4.27396e-13)
(2.92349e-13 0 -3.87918e-13)
(4.00614e-13 0 -3.43616e-13)
(4.94576e-13 0 -2.95756e-13)
(5.73443e-13 0 -2.45582e-13)
(6.36805e-13 0 -1.94272e-13)
(6.84592e-13 0 -1.42898e-13)
(7.17034e-13 0 -9.2403e-14)
(7.34615e-13 0 -4.35907e-14)
(7.38021e-13 0 2.88129e-15)
(7.28104e-13 0 4.64963e-14)
(7.05827e-13 0 8.68695e-14)
(6.72236e-13 0 1.23733e-13)
(6.28423e-13 0 1.56919e-13)
(5.75504e-13 0 1.86338e-13)
(5.14605e-13 0 2.1196e-13)
(4.46843e-13 0 2.33796e-13)
(3.73325e-13 0 2.51882e-13)
(2.95139e-13 0 2.66268e-13)
(2.1335e-13 0 2.77004e-13)
(1.29007e-13 0 2.84135e-13)
(4.31629e-14 0 2.87695e-13)
(1.5996e-05 0 -1.51161e-05)
(-4.7059e-05 0 6.89682e-05)
(-0.000124736 0 2.23733e-05)
(-9.27101e-05 0 9.40545e-05)
(-0.000112045 0 0.000132385)
(-0.000229747 0 3.81365e-05)
(-0.000205163 0 0.000188852)
(-0.000286453 0 0.000229292)
(-0.000340863 0 0.0002994)
(-0.00045372 0 0.000295485)
(-0.000525849 0 0.000294376)
(-0.000551873 0 0.000294187)
(-0.000589258 0 0.000197431)
(-0.000583768 0 0.000153806)
(-0.000593276 0 0.000122709)
(-0.000612433 0 6.17526e-05)
(-0.000595475 0 -3.86363e-05)
(-0.000494771 0 -0.000262159)
(-0.000522775 0 -6.9739e-05)
(-0.000478652 0 -0.000175853)
(-0.000398972 0 -0.000253811)
(-0.000352444 0 -0.000268332)
(-0.000143653 0 -0.00050192)
(-7.86633e-05 0 -0.00061346)
(8.73938e-05 0 -0.000786842)
(0.000106718 0 -0.000897441)
(0.000136578 0 -0.000764078)
(0.000446583 0 -0.000410761)
(0.000536286 0 -0.000349692)
(0.000658946 0 -0.000352811)
(0.000744942 0 -0.000483517)
(0.000814939 0 -0.000531823)
(0.0008475 0 -0.000540262)
(0.000927272 0 -0.000377762)
(0.000975472 0 -0.000277001)
(0.00102275 0 -0.000196802)
(0.00104417 0 -0.000298814)
(0.00112679 0 -0.000235659)
(0.00117349 0 -0.000153154)
(0.0011996 0 -0.000167695)
(0.00124814 0 -0.000139658)
(0.00126521 0 -0.00012282)
(0.00126667 0 -9.71881e-05)
(0.00127745 0 -5.46974e-05)
(0.00128811 0 -0.000125039)
(0.00130184 0 5.2002e-06)
(0.00129705 0 1.97245e-05)
(0.00129275 0 4.73469e-05)
(0.00129812 0 5.71979e-05)
(0.00130702 0 7.19193e-05)
(0.0013067 0 7.55752e-05)
(0.00130276 0 6.90184e-05)
(0.0012896 0 6.61993e-05)
(0.00126811 0 5.85363e-05)
(0.00125166 0 4.0032e-05)
(0.0012385 0 3.86059e-05)
(0.00122359 0 2.96078e-05)
(0.00121154 0 4.47736e-05)
(0.00120264 0 3.88413e-05)
(0.00119199 0 5.62286e-05)
(0.00117966 0 -9.34562e-06)
(0.00117528 0 6.73803e-05)
(0.00116891 0 0.000100121)
(0.00116174 0 0.000128924)
(0.00116354 0 0.000175557)
(0.00115111 0 0.000257604)
(0.00114181 0 0.00028738)
(0.00110837 0 0.000412464)
(0.00109755 0 0.000427692)
(0.00100758 0 0.000534683)
(0.000927269 0 0.000660681)
(0.000953259 0 0.000642771)
(0.000923221 0 0.000624646)
(0.00083615 0 0.000557002)
(0.000425026 0 0.000633727)
(0.000372057 0 0.000339585)
(0.000266031 0 0.000170658)
(4.91923e-05 0 6.29045e-05)
(0.000303598 0 7.17443e-05)
(-0.000603546 0 0.000164632)
(1.07426e-05 0 0.000347203)
(-1.28492e-12 0 5.02877e-13)
(-2.92987e-12 0 -6.82068e-14)
(-1.65693e-12 0 -1.45694e-13)
(-1.6351e-12 0 -2.16603e-13)
(-1.5853e-12 0 -2.88618e-13)
(-1.51364e-12 0 -3.60867e-13)
(-1.42214e-12 0 -4.30802e-13)
(-1.31231e-12 0 -4.95791e-13)
(-1.18596e-12 0 -5.5348e-13)
(-1.04554e-12 0 -6.01631e-13)
(-8.93743e-13 0 -6.38898e-13)
(-7.33691e-13 0 -6.64204e-13)
(-5.68734e-13 0 -6.76894e-13)
(-4.02305e-13 0 -6.76781e-13)
(-2.37802e-13 0 -6.6413e-13)
(-7.84603e-14 0 -6.3962e-13)
(7.27571e-14 0 -6.04292e-13)
(2.13257e-13 0 -5.59482e-13)
(3.40882e-13 0 -5.06739e-13)
(4.53945e-13 0 -4.47734e-13)
(5.51243e-13 0 -3.8418e-13)
(6.3204e-13 0 -3.17752e-13)
(6.96029e-13 0 -2.50023e-13)
(7.43281e-13 0 -1.82411e-13)
(7.74186e-13 0 -1.16153e-13)
(7.89394e-13 0 -5.22877e-14)
(7.89761e-13 0 8.34571e-15)
(7.76294e-13 0 6.50996e-14)
(7.50104e-13 0 1.17501e-13)
(7.12358e-13 0 1.65232e-13)
(6.64252e-13 0 2.08103e-13)
(6.0698e-13 0 2.46025e-13)
(5.41725e-13 0 2.78987e-13)
(4.69643e-13 0 3.07027e-13)
(3.9186e-13 0 3.30216e-13)
(3.09472e-13 0 3.48636e-13)
(2.23541e-13 0 3.62368e-13)
(1.35103e-13 0 3.71483e-13)
(4.51931e-14 0 3.76032e-13)
(-9.13546e-05 0 -7.90214e-06)
(-0.000119891 0 1.79655e-05)
(1.4354e-05 0 0.000174236)
(-0.000167962 0 0.000114346)
(-0.000157589 0 0.000188723)
(-0.000248085 0 0.000204388)
(-0.000316021 0 0.000244923)
(-0.00040198 0 0.000310899)
(-0.000468831 0 0.000363151)
(-0.000530235 0 0.000365347)
(-0.000566323 0 0.000348642)
(-0.000595425 0 0.000308263)
(-0.000636494 0 0.000208216)
(-0.000606211 0 0.000161298)
(-0.000585198 0 0.000151516)
(-0.000588686 0 7.73708e-05)
(-0.000566444 0 -2.06961e-05)
(-0.00047158 0 -0.00031517)
(-0.000453571 0 -0.000158828)
(-0.000411176 0 -0.000195325)
(-0.000282409 0 -0.000374954)
(-7.41624e-05 0 -0.000522347)
(-8.69901e-05 0 -0.000535511)
(3.0903e-05 0 -0.000693796)
(0.00010692 0 -0.000864261)
(0.000101921 0 -0.000960199)
(0.000142317 0 -0.000808533)
(0.000362453 0 -0.000586538)
(0.000380825 0 -0.000610859)
(0.000498232 0 -0.000636684)
(0.000711358 0 -0.000568177)
(0.000774842 0 -0.000559634)
(0.000747869 0 -0.000575892)
(0.000815832 0 -0.000417165)
(0.00086198 0 -0.000317429)
(0.000890888 0 -0.000321275)
(0.000951441 0 -0.00027873)
(0.00103139 0 -0.000194618)
(0.00104829 0 -0.000264983)
(0.00108382 0 -0.000258314)
(0.00111326 0 -0.000167951)
(0.00111363 0 -0.000152317)
(0.00111738 0 -0.000147033)
(0.00113402 0 -8.81746e-05)
(0.00113338 0 -5.80291e-05)
(0.00112052 0 -4.60505e-05)
(0.00110902 0 -1.91302e-05)
(0.00111166 0 -1.75773e-05)
(0.00111986 0 -1.04716e-06)
(0.00112256 0 3.84115e-05)
(0.00112439 0 4.85826e-05)
(0.00112629 0 6.04144e-05)
(0.00112476 0 6.05684e-05)
(0.00111853 0 5.62844e-05)
(0.00110784 0 7.2279e-05)
(0.00109266 0 6.83068e-05)
(0.00107698 0 5.50749e-05)
(0.00106851 0 6.10648e-05)
(0.00106202 0 6.24713e-05)
(0.00105728 0 6.71436e-05)
(0.0010464 0 6.76828e-05)
(0.00103629 0 8.5579e-05)
(0.00103701 0 8.19583e-05)
(0.0010375 0 0.000111028)
(0.00103134 0 0.000196498)
(0.0010333 0 0.000205971)
(0.00102909 0 0.000285145)
(0.00104439 0 0.0003868)
(0.00104236 0 0.000439213)
(0.00098633 0 0.000520084)
(0.00095076 0 0.000595424)
(0.000903046 0 0.000711563)
(0.000842256 0 0.000786819)
(0.000758113 0 0.000825405)
(0.000636025 0 0.000748069)
(0.0007996 0 0.000293283)
(0.00041749 0 0.000282209)
(0.000194645 0 7.58235e-05)
(0.000360951 0 5.41773e-05)
(-0.000291802 0 0.000161709)
(9.55975e-06 0 0.000405699)
(-1.14428e-12 0 6.40233e-13)
(-3.11063e-12 0 -6.55131e-14)
(-1.7566e-12 0 -1.64671e-13)
(-1.72025e-12 0 -2.57672e-13)
(-1.66807e-12 0 -3.51735e-13)
(-1.59437e-12 0 -4.45631e-13)
(-1.4985e-12 0 -5.36203e-13)
(-1.38161e-12 0 -6.20139e-13)
(-1.24579e-12 0 -6.9444e-13)
(-1.09391e-12 0 -7.56343e-13)
(-9.29124e-13 0 -8.04092e-13)
(-7.55093e-13 0 -8.36299e-13)
(-5.75698e-13 0 -8.52162e-13)
(-3.94896e-13 0 -8.51496e-13)
(-2.16578e-13 0 -8.34707e-13)
(-4.44212e-14 0 -8.02742e-13)
(1.1824e-13 0 -7.57013e-13)
(2.68527e-13 0 -6.99308e-13)
(4.04097e-13 0 -6.31678e-13)
(5.23173e-13 0 -5.56317e-13)
(6.24558e-13 0 -4.75456e-13)
(7.07601e-13 0 -3.91256e-13)
(7.72146e-13 0 -3.05728e-13)
(8.18462e-13 0 -2.2067e-13)
(8.47157e-13 0 -1.37625e-13)
(8.59113e-13 0 -5.7872e-14)
(8.55409e-13 0 1.75764e-14)
(8.37259e-13 0 8.79555e-14)
(8.0596e-13 0 1.52725e-13)
(7.62838e-13 0 2.11536e-13)
(7.09216e-13 0 2.64203e-13)
(6.46388e-13 0 3.10663e-13)
(5.75607e-13 0 3.50942e-13)
(4.98072e-13 0 3.85129e-13)
(4.14934e-13 0 4.13344e-13)
(3.2729e-13 0 4.35718e-13)
(2.36197e-13 0 4.52376e-13)
(1.4267e-13 0 4.63422e-13)
(4.77117e-14 0 4.68931e-13)
(-4.58167e-05 0 7.76064e-05)
(-9.00565e-05 0 0.000132754)
(-0.000156393 0 0.000138907)
(-0.000224982 0 0.000150021)
(-0.000217191 0 0.000249383)
(-0.000339677 0 0.00027008)
(-0.000445075 0 0.000323337)
(-0.000537673 0 0.00036971)
(-0.000591502 0 0.000386473)
(-0.000609085 0 0.000377086)
(-0.000612226 0 0.0003351)
(-0.00061618 0 0.000328355)
(-0.000643245 0 0.000290881)
(-0.00065432 0 0.000104304)
(-0.000573904 0 0.000107309)
(-0.000542304 0 3.23517e-07)
(-0.000512555 0 -9.91316e-05)
(-0.000455426 0 -0.000258767)
(-0.000392237 0 -0.000233806)
(-0.000329464 0 -0.000276607)
(-0.00010123 0 -0.000536897)
(1.45261e-05 0 -0.000590508)
(4.23276e-05 0 -0.000599923)
(6.7199e-05 0 -0.000711813)
(0.000161492 0 -0.000897741)
(0.000153696 0 -0.000990917)
(0.000206244 0 -0.00088126)
(0.000367574 0 -0.000707581)
(0.000419741 0 -0.000685525)
(0.000508952 0 -0.00066316)
(0.000576033 0 -0.000656908)
(0.000572046 0 -0.000647422)
(0.000606007 0 -0.000597448)
(0.000688258 0 -0.000454824)
(0.000737541 0 -0.000373979)
(0.000855771 0 -0.000223348)
(0.000716397 0 -0.000632122)
(0.000921886 0 -0.000328707)
(0.000961702 0 -0.000191059)
(0.000965404 0 -0.000192581)
(0.000966823 0 -0.000187002)
(0.000963546 0 -0.000156873)
(0.000958054 0 -0.000101413)
(0.000947243 0 -7.16275e-05)
(0.000926466 0 -6.13919e-05)
(0.000911224 0 -1.80874e-06)
(0.000912153 0 1.42425e-05)
(0.000919628 0 3.75704e-05)
(0.000926528 0 4.246e-05)
(0.000929015 0 4.42502e-05)
(0.000931126 0 5.51181e-05)
(0.000936787 0 5.75261e-05)
(0.000941939 0 6.86588e-05)
(0.0009401 0 7.58048e-05)
(0.000931244 0 8.87113e-05)
(0.000921612 0 7.84622e-05)
(0.000924283 0 6.97082e-05)
(0.000924301 0 6.81198e-05)
(0.000919693 0 6.73849e-05)
(0.000911093 0 5.6707e-05)
(0.000886707 0 7.00734e-05)
(0.000892812 0 7.70234e-05)
(0.000923011 0 0.000119199)
(0.00091893 0 0.000143946)
(0.000893584 0 0.000221052)
(0.000888279 0 0.000298231)
(0.000985468 0 0.000186883)
(0.000947782 0 0.000433247)
(0.000887532 0 0.000564046)
(0.00085207 0 0.000646047)
(0.000865842 0 0.000676278)
(0.000879908 0 0.000722216)
(0.000803355 0 0.000823663)
(0.000729672 0 0.000872734)
(0.000805337 0 0.00071497)
(0.000289999 0 0.000845075)
(0.000446463 0 0.000350948)
(0.000193934 0 0.000243289)
(0.000434354 0 0.000194257)
(-0.000379024 0 0.000248679)
(9.1978e-06 0 0.000524617)
(-1.12427e-12 0 6.03673e-13)
(-3.18311e-12 0 -1.07024e-13)
(-1.84826e-12 0 -1.89642e-13)
(-1.82138e-12 0 -2.97483e-13)
(-1.77252e-12 0 -4.14787e-13)
(-1.69741e-12 0 -5.33461e-13)
(-1.59599e-12 0 -6.47971e-13)
(-1.46993e-12 0 -7.53857e-13)
(-1.32184e-12 0 -8.47316e-13)
(-1.15518e-12 0 -9.25008e-13)
(-9.737e-13 0 -9.84689e-13)
(-7.81761e-13 0 -1.02463e-12)
(-5.83931e-13 0 -1.04386e-12)
(-3.8485e-13 0 -1.04222e-12)
(-1.89047e-13 0 -1.02032e-12)
(-7.65971e-16 0 -9.79466e-13)
(1.7619e-13 0 -9.21542e-13)
(3.38592e-13 0 -8.48906e-13)
(4.83873e-13 0 -7.64225e-13)
(6.10167e-13 0 -6.70326e-13)
(7.16304e-13 0 -5.70051e-13)
(8.01767e-13 0 -4.66122e-13)
(8.66615e-13 0 -3.61042e-13)
(9.11385e-13 0 -2.5702e-13)
(9.36984e-13 0 -1.55923e-13)
(9.44595e-13 0 -5.927e-14)
(9.35588e-13 0 3.17656e-14)
(9.11443e-13 0 1.16325e-13)
(8.73685e-13 0 1.93828e-13)
(8.23837e-13 0 2.6393e-13)
(7.63378e-13 0 3.2648e-13)
(6.93719e-13 0 3.8147e-13)
(6.16191e-13 0 4.28997e-13)
(5.32045e-13 0 4.69222e-13)
(4.42449e-13 0 5.02338e-13)
(3.48504e-13 0 5.28545e-13)
(2.51244e-13 0 5.48025e-13)
(1.51659e-13 0 5.60926e-13)
(5.07025e-14 0 5.67356e-13)
(-4.32123e-05 0 0.000120461)
(-3.54546e-05 0 0.000202678)
(-0.000103051 0 0.000239399)
(-0.00026117 0 0.000217065)
(-0.000302892 0 0.000304685)
(-0.000342101 0 0.000409589)
(-0.000534729 0 0.000380516)
(-0.000566569 0 0.000470742)
(-0.000629427 0 0.00045255)
(-0.000652606 0 0.00042207)
(-0.000631532 0 0.000345214)
(-0.000605822 0 0.000336397)
(-0.00062584 0 0.000300757)
(-0.00066215 0 9.30622e-05)
(-0.000583099 0 5.6704e-05)
(-0.00053082 0 -4.31415e-05)
(-0.000495544 0 -0.000135917)
(-0.000419108 0 -0.000294784)
(-0.000265512 0 -0.000414539)
(-0.000218042 0 -0.000430316)
(-6.72402e-05 0 -0.000605222)
(3.0501e-05 0 -0.000648361)
(8.95095e-05 0 -0.000648541)
(7.86808e-05 0 -0.000713288)
(0.000159167 0 -0.000919835)
(0.000170515 0 -0.00102014)
(0.000202924 0 -0.000952689)
(0.000313791 0 -0.00081855)
(0.00039991 0 -0.000749536)
(0.000448063 0 -0.000704767)
(0.00045787 0 -0.000674171)
(0.000438089 0 -0.000654193)
(0.000517029 0 -0.000605985)
(0.000575604 0 -0.000536697)
(0.000630702 0 -0.000488867)
(0.000670152 0 -0.000527221)
(0.000869469 0 -0.000234133)
(0.000849598 0 -0.000229796)
(0.000803848 0 -0.000275147)
(0.000788761 0 -0.000267186)
(0.000816479 0 -0.000160537)
(0.000799304 0 -0.000138596)
(0.000755785 0 -0.000111691)
(0.000718295 0 -5.71437e-05)
(0.000705929 0 -3.28667e-05)
(0.00070731 0 -2.93556e-05)
(0.00071647 0 -1.64568e-05)
(0.000727889 0 -1.1386e-05)
(0.000739879 0 1.86849e-05)
(0.000746745 0 5.48234e-05)
(0.000749896 0 5.61015e-05)
(0.000756414 0 6.20793e-05)
(0.000773736 0 5.6441e-05)
(0.00077533 0 5.58908e-05)
(0.000772894 0 5.08427e-05)
(0.000749747 0 6.96815e-05)
(0.000738755 0 7.79371e-05)
(0.000746141 0 7.72929e-05)
(0.000737818 0 7.85573e-05)
(0.000735998 0 0.000151427)
(0.000761892 0 1.13972e-05)
(0.000798457 0 8.81216e-06)
(0.000822802 0 0.000127065)
(0.000838031 0 0.000134521)
(0.000840331 0 0.000198689)
(0.000909373 0 2.07506e-05)
(0.000870795 0 0.000333209)
(0.000823193 0 0.000462249)
(0.000862131 0 0.000437522)
(0.000854774 0 0.000536583)
(0.000832147 0 0.000647253)
(0.000766186 0 0.000792926)
(0.000726198 0 0.000875707)
(0.000723774 0 0.000867189)
(0.00062357 0 0.000902662)
(0.000565836 0 0.000741235)
(0.000397262 0 0.00059978)
(0.000341183 0 0.000253239)
(0.000389135 0 0.000247296)
(-0.000226263 0 0.000318095)
(9.3431e-06 0 0.000630593)
(-1.16866e-12 0 7.71802e-13)
(-3.21736e-12 0 -8.24155e-14)
(-1.94623e-12 0 -1.8922e-13)
(-1.94461e-12 0 -3.27588e-13)
(-1.90332e-12 0 -4.76176e-13)
(-1.82687e-12 0 -6.25115e-13)
(-1.71826e-12 0 -7.67996e-13)
(-1.58039e-12 0 -8.99614e-13)
(-1.41668e-12 0 -1.01541e-12)
(-1.23128e-12 0 -1.11143e-12)
(-1.02874e-12 0 -1.18487e-12)
(-8.14261e-13 0 -1.23357e-12)
(-5.93293e-13 0 -1.25639e-12)
(-3.71362e-13 0 -1.2532e-12)
(-1.53824e-13 0 -1.22489e-12)
(5.43595e-14 0 -1.17322e-12)
(2.488e-13 0 -1.10072e-12)
(4.25845e-13 0 -1.01047e-12)
(5.82676e-13 0 -9.05914e-13)
(7.17347e-13 0 -7.90661e-13)
(8.28763e-13 0 -6.68285e-13)
(9.16609e-13 0 -5.42166e-13)
(9.81249e-13 0 -4.15365e-13)
(1.02358e-12 0 -2.90536e-13)
(1.04491e-12 0 -1.69885e-13)
(1.0468e-12 0 -5.51596e-14)
(1.031e-12 0 5.23284e-14)
(9.99322e-13 0 1.5166e-13)
(9.53566e-13 0 2.42258e-13)
(8.9549e-13 0 3.23824e-13)
(8.26755e-13 0 3.96285e-13)
(7.48905e-13 0 4.59728e-13)
(6.63359e-13 0 5.14358e-13)
(5.71414e-13 0 5.60439e-13)
(4.74257e-13 0 5.98267e-13)
(3.72977e-13 0 6.28129e-13)
(2.68578e-13 0 6.50281e-13)
(1.62002e-13 0 6.64933e-13)
(5.4142e-14 0 6.72228e-13)
(-0.000118404 0 0.000204006)
(-0.000289815 0 0.000202735)
(-0.00026149 0 0.000194477)
(-0.00016738 0 0.00037849)
(-0.000488596 0 0.000268128)
(-0.000435057 0 0.000453081)
(-0.000506363 0 0.000496967)
(-0.000574755 0 0.000489839)
(-0.000608233 0 0.000484248)
(-0.00063542 0 0.000458672)
(-0.000725992 0 0.000207672)
(-0.00060333 0 0.000325861)
(-0.00057184 0 0.000332292)
(-0.000633638 0 0.000137028)
(-0.000610871 0 -2.58266e-05)
(-0.000546412 0 -0.00012639)
(-0.000477368 0 -0.000235767)
(-0.000409235 0 -0.000320799)
(-0.00025987 0 -0.000536204)
(-0.000172014 0 -0.000607748)
(-0.000174827 0 -0.000643915)
(-9.67418e-05 0 -0.00069364)
(-6.86556e-06 0 -0.000709624)
(5.47617e-05 0 -0.000730993)
(4.25546e-05 0 -0.000995379)
(8.52354e-05 0 -0.00107765)
(0.000200697 0 -0.000995616)
(0.000186845 0 -0.000913202)
(0.000388059 0 -0.000771569)
(0.000253575 0 -0.000749346)
(0.000340853 0 -0.000696287)
(0.000404644 0 -0.000652894)
(0.000449112 0 -0.000650759)
(0.000474401 0 -0.00062625)
(0.000621247 0 -0.000482089)
(0.000662634 0 -0.000410435)
(0.000651097 0 -0.000429579)
(0.000638705 0 -0.000413691)
(0.000673064 0 -0.000263628)
(0.00060923 0 -0.000242996)
(0.00062079 0 -0.000107178)
(0.000608478 0 -7.09255e-05)
(0.00057186 0 -5.08102e-05)
(0.000552087 0 -3.73504e-05)
(0.000555218 0 -4.00321e-05)
(0.000563079 0 -2.71162e-05)
(0.000566674 0 -1.72874e-05)
(0.000572343 0 -1.72145e-05)
(0.000581705 0 -5.38487e-06)
(0.00058265 0 1.44345e-05)
(0.000583273 0 2.72073e-05)
(0.000571831 0 1.18969e-05)
(0.0005612 0 9.32369e-05)
(0.000559072 0 8.95575e-05)
(0.000567512 0 0.000136865)
(0.000577678 0 5.8405e-05)
(0.000581917 0 3.78032e-05)
(0.000615974 0 8.59109e-05)
(0.000625622 0 1.97518e-05)
(0.000642781 0 -1.1817e-06)
(0.000686496 0 5.80945e-05)
(0.000730661 0 5.65598e-05)
(0.000758177 0 2.16549e-05)
(0.000812904 0 4.94115e-05)
(0.000854831 0 0.000203128)
(0.000839433 0 0.000254751)
(0.000773783 0 0.00035335)
(0.000761611 0 0.000401677)
(0.000744769 0 0.000519086)
(0.000718962 0 0.000640685)
(0.000710186 0 0.000716796)
(0.000750977 0 0.000750455)