/*--------------------------------*- C++ -*----------------------------------*\
  =========                 |
  \\      /  F ield         | OpenFOAM: The Open Source CFD Toolbox
   \\    /   O peration     | Website:  https://openfoam.org
    \\  /    A nd           | Version:  6
     \\/     M anipulation  |
\*---------------------------------------------------------------------------*/
FoamFile
{
    version     2.0;
    format      ascii;
    class       volScalarField;
    location    "700";
    object      T;
}
// * * * * * * * * * * * * * * * * * * * * * * * * * * * * * * * * * * * * * //

dimensions      [0 0 0 1 0 0 0];

internalField   nonuniform List<scalar> 
4800
(
552.43
552.193
551.962
551.741
551.534
551.341
551.164
551.001
550.853
550.717
550.592
550.478
550.372
550.273
550.181
550.095
550.013
549.934
549.859
549.785
549.714
549.643
549.572
549.502
549.431
549.361
549.29
549.218
549.147
549.076
549.005
548.935
548.865
548.796
548.728
548.66
548.593
548.527
548.461
548.397
548.333
548.269
548.204
548.138
548.069
547.997
547.921
547.842
547.76
547.674
547.585
547.495
547.402
547.308
547.214
547.12
547.025
546.93
546.835
546.74
546.645
546.549
546.454
546.361
546.268
546.178
546.089
546
545.913
545.825
545.738
545.65
545.562
545.474
545.385
545.296
545.206
545.117
545.027
544.936
544.842
544.743
544.642
544.538
544.432
544.325
544.217
544.108
543.999
543.889
543.779
543.669
543.559
543.449
543.338
543.228
543.118
543.008
542.898
542.788
542.678
542.569
542.459
542.349
542.24
542.131
542.021
541.912
541.803
541.694
541.585
541.476
541.367
541.258
541.149
541.04
540.931
540.822
540.713
540.604
552.431
552.195
551.966
551.747
551.542
551.35
551.173
551.011
550.863
550.727
550.603
550.488
550.381
550.282
550.19
550.103
550.021
549.942
549.867
549.793
549.721
549.65
549.58
549.51
549.439
549.368
549.297
549.226
549.154
549.083
549.012
548.942
548.872
548.803
548.734
548.666
548.599
548.532
548.467
548.403
548.338
548.274
548.209
548.142
548.073
548.001
547.926
547.847
547.765
547.679
547.591
547.501
547.409
547.316
547.222
547.128
547.034
546.94
546.845
546.75
546.655
546.561
546.467
546.374
546.283
546.192
546.104
546.016
545.928
545.841
545.753
545.665
545.577
545.489
545.399
545.31
545.219
545.128
545.037
544.944
544.848
544.748
544.645
544.541
544.435
544.327
544.219
544.11
544
543.89
543.78
543.67
543.56
543.449
543.339
543.229
543.119
543.008
542.898
542.788
542.679
542.569
542.459
542.35
542.24
542.131
542.021
541.912
541.803
541.694
541.585
541.476
541.367
541.258
541.149
541.04
540.931
540.822
540.713
540.604
552.432
552.199
551.973
551.758
551.555
551.365
551.191
551.03
550.882
550.746
550.621
550.506
550.399
550.3
550.207
550.119
550.036
549.957
549.881
549.808
549.736
549.665
549.594
549.524
549.453
549.382
549.311
549.239
549.168
549.096
549.025
548.954
548.884
548.815
548.746
548.677
548.61
548.543
548.478
548.413
548.348
548.284
548.218
548.151
548.082
548.009
547.934
547.855
547.773
547.689
547.601
547.512
547.421
547.329
547.237
547.143
547.05
546.956
546.862
546.768
546.674
546.581
546.489
546.397
546.307
546.218
546.129
546.041
545.953
545.865
545.777
545.69
545.601
545.512
545.423
545.332
545.241
545.149
545.055
544.958
544.859
544.757
544.653
544.547
544.44
544.332
544.223
544.113
544.003
543.893
543.783
543.672
543.561
543.451
543.34
543.23
543.12
543.009
542.899
542.789
542.679
542.569
542.46
542.35
542.24
542.131
542.022
541.912
541.803
541.694
541.585
541.476
541.367
541.258
541.149
541.04
540.931
540.822
540.713
540.604
552.435
552.206
551.985
551.773
551.574
551.387
551.214
551.054
550.906
550.771
550.646
550.53
550.423
550.323
550.23
550.142
550.058
549.979
549.902
549.828
549.756
549.685
549.614
549.544
549.473
549.401
549.33
549.258
549.186
549.114
549.043
548.971
548.901
548.831
548.762
548.693
548.626
548.559
548.493
548.428
548.362
548.297
548.23
548.162
548.092
548.019
547.944
547.866
547.785
547.701
547.615
547.527
547.438
547.348
547.257
547.165
547.072
546.979
546.886
546.793
546.7
546.608
546.517
546.427
546.338
546.249
546.16
546.072
545.984
545.896
545.808
545.72
545.631
545.542
545.452
545.36
545.268
545.173
545.076
544.977
544.874
544.77
544.663
544.556
544.448
544.338
544.228
544.118
544.008
543.897
543.786
543.675
543.564
543.453
543.342
543.232
543.121
543.011
542.9
542.79
542.68
542.57
542.46
542.351
542.241
542.131
542.022
541.913
541.803
541.694
541.585
541.476
541.367
541.258
541.149
541.04
540.931
540.822
540.713
540.604
552.437
552.214
551.998
551.791
551.595
551.411
551.24
551.082
550.937
550.802
550.677
550.561
550.454
550.354
550.26
550.171
550.087
550.006
549.929
549.855
549.782
549.71
549.639
549.568
549.497
549.425
549.353
549.281
549.208
549.136
549.064
548.992
548.921
548.851
548.782
548.713
548.645
548.578
548.511
548.445
548.379
548.312
548.244
548.175
548.103
548.03
547.955
547.878
547.798
547.715
547.63
547.544
547.457
547.369
547.279
547.189
547.098
547.006
546.914
546.822
546.73
546.639
546.549
546.46
546.372
546.284
546.196
546.108
546.02
545.932
545.844
545.755
545.666
545.576
545.485
545.393
545.298
545.201
545.101
544.999
544.893
544.785
544.677
544.568
544.458
544.347
544.236
544.125
544.013
543.902
543.79
543.679
543.567
543.456
543.345
543.234
543.123
543.012
542.902
542.791
542.681
542.571
542.461
542.351
542.242
542.132
542.022
541.913
541.804
541.695
541.585
541.476
541.367
541.258
541.149
541.04
540.931
540.822
540.713
540.604
552.441
552.224
552.013
551.811
551.619
551.439
551.271
551.115
550.971
550.838
550.714
550.599
550.492
550.391
550.297
550.207
550.122
550.041
549.963
549.887
549.813
549.74
549.668
549.596
549.525
549.453
549.38
549.307
549.234
549.161
549.088
549.016
548.945
548.874
548.804
548.735
548.667
548.599
548.532
548.464
548.396
548.328
548.258
548.188
548.116
548.042
547.967
547.89
547.811
547.729
547.646
547.562
547.476
547.39
547.302
547.214
547.125
547.035
546.944
546.854
546.763
546.674
546.585
546.497
546.409
546.322
546.235
546.147
546.06
545.972
545.884
545.796
545.707
545.616
545.523
545.429
545.331
545.231
545.128
545.023
544.914
544.804
544.693
544.581
544.469
544.357
544.245
544.132
544.02
543.908
543.795
543.683
543.571
543.459
543.348
543.236
543.125
543.014
542.903
542.793
542.682
542.572
542.462
542.352
542.242
542.133
542.023
541.914
541.804
541.695
541.586
541.476
541.367
541.258
541.149
541.04
540.931
540.822
540.713
540.604
552.445
552.235
552.03
551.833
551.646
551.469
551.304
551.152
551.01
550.878
550.756
550.642
550.535
550.435
550.34
550.25
550.165
550.083
550.003
549.926
549.851
549.776
549.702
549.629
549.556
549.483
549.41
549.336
549.263
549.189
549.116
549.043
548.971
548.9
548.829
548.759
548.69
548.621
548.552
548.484
548.414
548.344
548.273
548.201
548.128
548.053
547.978
547.901
547.823
547.743
547.662
547.579
547.496
547.411
547.326
547.24
547.152
547.064
546.976
546.887
546.799
546.711
546.623
546.536
546.45
546.364
546.278
546.191
546.105
546.018
545.93
545.841
545.751
545.659
545.565
545.468
545.367
545.264
545.158
545.05
544.937
544.824
544.71
544.597
544.483
544.369
544.255
544.141
544.028
543.914
543.801
543.688
543.576
543.463
543.351
543.239
543.128
543.017
542.906
542.795
542.684
542.574
542.463
542.353
542.243
542.133
542.024
541.914
541.805
541.695
541.586
541.477
541.368
541.258
541.149
541.04
540.931
540.822
540.713
540.604
552.448
552.246
552.048
551.857
551.674
551.502
551.341
551.191
551.052
550.922
550.801
550.689
550.583
550.483
550.389
550.299
550.212
550.13
550.049
549.97
549.893
549.816
549.741
549.666
549.591
549.517
549.442
549.368
549.294
549.22
549.146
549.072
548.999
548.927
548.855
548.784
548.714
548.643
548.573
548.503
548.432
548.36
548.287
548.213
548.139
548.064
547.988
547.912
547.834
547.756
547.676
547.596
547.515
547.432
547.349
547.265
547.18
547.094
547.008
546.921
546.835
546.749
546.664
546.579
546.494
546.409
546.325
546.239
546.154
546.067
545.98
545.891
545.8
545.707
545.61
545.51
545.406
545.299
545.189
545.078
544.962
544.846
544.73
544.614
544.498
544.382
544.266
544.151
544.036
543.922
543.808
543.694
543.581
543.468
543.355
543.243
543.131
543.019
542.908
542.797
542.686
542.575
542.465
542.354
542.244
542.134
542.024
541.915
541.805
541.696
541.586
541.477
541.368
541.259
541.15
541.041
540.931
540.822
540.713
540.604
552.452
552.256
552.065
551.88
551.703
551.536
551.38
551.234
551.097
550.969
550.85
550.739
550.634
550.535
550.44
550.35
550.263
550.18
550.098
550.018
549.939
549.861
549.783
549.706
549.63
549.554
549.478
549.403
549.328
549.252
549.178
549.103
549.029
548.955
548.882
548.81
548.738
548.666
548.593
548.521
548.448
548.375
548.3
548.225
548.149
548.074
547.997
547.921
547.844
547.767
547.69
547.611
547.532
547.452
547.371
547.289
547.207
547.124
547.04
546.956
546.872
546.789
546.706
546.623
546.541
546.458
546.375
546.291
546.207
546.121
546.034
545.945
545.852
545.757
545.657
545.554
545.446
545.336
545.223
545.108
544.988
544.869
544.75
544.631
544.513
544.396
544.278
544.162
544.046
543.93
543.815
543.701
543.586
543.473
543.36
543.247
543.134
543.022
542.91
542.799
542.688
542.577
542.466
542.356
542.245
542.135
542.025
541.916
541.806
541.696
541.587
541.478
541.368
541.259
541.15
541.041
540.932
540.823
540.714
540.605
552.455
552.267
552.083
551.904
551.734
551.572
551.42
551.277
551.143
551.018
550.901
550.791
550.687
550.588
550.494
550.404
550.316
550.232
550.149
550.068
549.987
549.908
549.829
549.75
549.672
549.594
549.517
549.44
549.364
549.287
549.212
549.136
549.06
548.985
548.911
548.836
548.762
548.688
548.613
548.539
548.464
548.389
548.312
548.236
548.159
548.082
548.006
547.93
547.853
547.777
547.701
547.625
547.548
547.47
547.392
547.313
547.233
547.153
547.072
546.991
546.91
546.829
546.749
546.669
546.589
546.509
546.428
546.346
546.263
546.178
546.091
546.001
545.907
545.808
545.706
545.599
545.488
545.373
545.256
545.138
545.015
544.893
544.771
544.65
544.53
544.41
544.291
544.173
544.055
543.939
543.823
543.707
543.592
543.478
543.364
543.251
543.138
543.025
542.913
542.802
542.69
542.579
542.468
542.357
542.247
542.136
542.026
541.916
541.807
541.697
541.587
541.478
541.369
541.259
541.15
541.041
540.932
540.823
540.714
540.605
552.459
552.278
552.101
551.929
551.765
551.608
551.461
551.321
551.191
551.068
550.953
550.844
550.741
550.643
550.549
550.459
550.371
550.286
550.202
550.12
550.038
549.957
549.877
549.797
549.718
549.638
549.559
549.48
549.402
549.325
549.247
549.17
549.093
549.016
548.94
548.863
548.786
548.71
548.633
548.556
548.479
548.402
548.324
548.245
548.167
548.09
548.013
547.936
547.861
547.786
547.711
547.636
547.562
547.486
547.411
547.335
547.258
547.181
547.103
547.026
546.948
546.871
546.794
546.717
546.64
546.563
546.484
546.404
546.322
546.238
546.15
546.058
545.962
545.861
545.755
545.645
545.53
545.412
545.291
545.169
545.043
544.917
544.792
544.669
544.546
544.424
544.304
544.184
544.065
543.948
543.831
543.714
543.599
543.484
543.369
543.255
543.142
543.029
542.916
542.804
542.692
542.581
542.47
542.359
542.248
542.138
542.027
541.917
541.807
541.698
541.588
541.478
541.369
541.26
541.15
541.041
540.932
540.823
540.714
540.605
552.463
552.29
552.12
551.955
551.796
551.645
551.501
551.366
551.239
551.119
551.005
550.898
550.797
550.699
550.606
550.515
550.427
550.341
550.256
550.173
550.091
550.009
549.928
549.847
549.766
549.685
549.604
549.524
549.444
549.365
549.286
549.207
549.128
549.049
548.969
548.89
548.811
548.732
548.653
548.573
548.494
548.414
548.333
548.253
548.174
548.096
548.018
547.942
547.867
547.793
547.719
547.647
547.574
547.501
547.428
547.355
547.281
547.207
547.133
547.059
546.986
546.912
546.839
546.766
546.692
546.617
546.541
546.463
546.383
546.299
546.211
546.118
546.019
545.915
545.806
545.691
545.573
545.451
545.326
545.2
545.07
544.941
544.813
544.687
544.562
544.438
544.316
544.195
544.075
543.956
543.838
543.721
543.605
543.489
543.374
543.26
543.146
543.033
542.92
542.807
542.695
542.583
542.472
542.36
542.25
542.139
542.028
541.918
541.808
541.698
541.589
541.479
541.369
541.26
541.151
541.041
540.932
540.823
540.714
540.605
552.467
552.301
552.138
551.98
551.827
551.682
551.543
551.412
551.288
551.17
551.059
550.954
550.853
550.756
550.663
550.573
550.484
550.398
550.313
550.229
550.146
550.063
549.981
549.898
549.816
549.734
549.652
549.57
549.489
549.407
549.326
549.245
549.163
549.082
549
548.918
548.837
548.755
548.672
548.59
548.508
548.425
548.342
548.261
548.18
548.1
548.022
547.946
547.871
547.798
547.727
547.655
547.585
547.515
547.444
547.374
547.303
547.233
547.162
547.092
547.023
546.953
546.884
546.815
546.745
546.674
546.6
546.524
546.445
546.361
546.272
546.177
546.076
545.969
545.856
545.738
545.616
545.489
545.36
545.229
545.095
544.963
544.832
544.703
544.576
544.451
544.327
544.205
544.084
543.965
543.846
543.728
543.611
543.495
543.379
543.265
543.15
543.036
542.923
542.81
542.697
542.585
542.474
542.362
542.251
542.14
542.03
541.919
541.809
541.699
541.589
541.479
541.37
541.26
541.151
541.042
540.932
540.823
540.714
540.605
552.47
552.312
552.157
552.005
551.859
551.719
551.585
551.458
551.337
551.222
551.113
551.009
550.91
550.814
550.721
550.631
550.543
550.456
550.37
550.286
550.202
550.119
550.035
549.952
549.869
549.786
549.703
549.62
549.536
549.452
549.368
549.285
549.201
549.116
549.032
548.947
548.863
548.777
548.692
548.606
548.521
548.435
548.351
548.267
548.184
548.104
548.025
547.949
547.875
547.803
547.732
547.662
547.594
547.526
547.458
547.39
547.323
547.257
547.19
547.124
547.059
546.994
546.929
546.864
546.798
546.73
546.659
546.585
546.507
546.423
546.333
546.237
546.133
546.023
545.906
545.784
545.657
545.526
545.391
545.256
545.118
544.982
544.849
544.718
544.589
544.463
544.338
544.215
544.093
543.973
543.853
543.735
543.617
543.501
543.385
543.269
543.154
543.04
542.926
542.813
542.7
542.588
542.476
542.364
542.253
542.142
542.031
541.92
541.81
541.7
541.59
541.48
541.37
541.261
541.151
541.042
540.932
540.823
540.714
540.605
552.474
552.323
552.175
552.03
551.89
551.755
551.626
551.503
551.385
551.274
551.167
551.065
550.967
550.872
550.78
550.69
550.602
550.515
550.429
550.345
550.26
550.176
550.093
550.009
549.925
549.841
549.756
549.671
549.586
549.5
549.413
549.327
549.24
549.153
549.066
548.978
548.889
548.801
548.712
548.623
548.534
548.445
548.358
548.272
548.188
548.106
548.027
547.951
547.877
547.805
547.736
547.667
547.6
547.535
547.469
547.405
547.341
547.279
547.217
547.155
547.095
547.034
546.974
546.913
546.851
546.786
546.718
546.645
546.568
546.484
546.393
546.295
546.189
546.075
545.954
545.828
545.696
545.559
545.419
545.278
545.137
544.998
544.862
544.729
544.599
544.472
544.346
544.223
544.101
543.98
543.86
543.741
543.623
543.506
543.39
543.274
543.159
543.044
542.93
542.816
542.703
542.59
542.478
542.366
542.254
542.143
542.032
541.921
541.811
541.701
541.591
541.481
541.371
541.261
541.152
541.042
540.933
540.823
540.714
540.605
552.478
552.333
552.192
552.053
551.919
551.79
551.665
551.546
551.433
551.324
551.22
551.12
551.024
550.93
550.839
550.75
550.662
550.575
550.49
550.405
550.32
550.236
550.152
550.067
549.982
549.897
549.812
549.725
549.638
549.55
549.461
549.372
549.282
549.192
549.101
549.01
548.918
548.826
548.733
548.64
548.548
548.457
548.367
548.279
548.193
548.11
548.03
547.953
547.879
547.807
547.738
547.671
547.606
547.542
547.48
547.418
547.358
547.299
547.241
547.185
547.129
547.073
547.017
546.96
546.902
546.84
546.774
546.704
546.627
546.543
546.451
546.351
546.242
546.124
546
545.868
545.731
545.588
545.442
545.296
545.15
545.008
544.87
544.736
544.606
544.478
544.353
544.229
544.107
543.986
543.866
543.747
543.629
543.511
543.394
543.278
543.163
543.048
542.933
542.819
542.706
542.593
542.48
542.368
542.256
542.145
542.033
541.923
541.812
541.701
541.591
541.481
541.371
541.262
541.152
541.042
540.933
540.823
540.714
540.605
552.481
552.343
552.208
552.076
551.947
551.823
551.703
551.589
551.479
551.373
551.272
551.174
551.08
550.988
550.898
550.81
550.723
550.637
550.552
550.467
550.382
550.298
550.213
550.128
550.042
549.956
549.869
549.781
549.692
549.602
549.511
549.419
549.326
549.233
549.139
549.044
548.949
548.853
548.756
548.66
548.565
548.47
548.377
548.287
548.199
548.114
548.033
547.955
547.88
547.809
547.74
547.674
547.611
547.549
547.488
547.43
547.373
547.318
547.264
547.212
547.16
547.109
547.058
547.005
546.95
546.891
546.828
546.758
546.682
546.598
546.504
546.402
546.29
546.169
546.04
545.903
545.759
545.61
545.458
545.305
545.155
545.01
544.871
544.738
544.608
544.481
544.356
544.233
544.111
543.991
543.871
543.752
543.634
543.516
543.399
543.282
543.167
543.051
542.936
542.822
542.708
542.595
542.482
542.37
542.258
542.146
542.035
541.924
541.813
541.702
541.592
541.482
541.372
541.262
541.152
541.043
540.933
540.824
540.714
540.605
552.484
552.353
552.224
552.097
551.975
551.855
551.741
551.63
551.524
551.422
551.323
551.228
551.136
551.046
550.957
550.87
550.785
550.7
550.615
550.531
550.446
550.361
550.276
550.19
550.104
550.016
549.928
549.839
549.748
549.657
549.564
549.47
549.374
549.278
549.18
549.082
548.983
548.884
548.784
548.684
548.585
548.487
548.391
548.298
548.208
548.121
548.038
547.959
547.883
547.811
547.743
547.677
547.614
547.554
547.496
547.44
547.386
547.334
547.285
547.237
547.189
547.142
547.094
547.045
546.993
546.937
546.875
546.807
546.732
546.647
546.552
546.447
546.332
546.208
546.074
545.931
545.781
545.624
545.464
545.304
545.149
545.003
544.865
544.732
544.605
544.48
544.357
544.235
544.114
543.994
543.875
543.756
543.638
543.52
543.403
543.287
543.17
543.055
542.94
542.825
542.711
542.598
542.484
542.372
542.259
542.148
542.036
541.925
541.814
541.703
541.593
541.482
541.372
541.262
541.153
541.043
540.933
540.824
540.714
540.605
552.487
552.362
552.239
552.118
552.001
551.886
551.776
551.67
551.567
551.468
551.373
551.281
551.191
551.103
551.016
550.931
550.847
550.763
550.679
550.596
550.511
550.426
550.34
550.254
550.166
550.078
549.988
549.898
549.806
549.713
549.618
549.523
549.425
549.326
549.225
549.124
549.022
548.919
548.815
548.712
548.609
548.508
548.409
548.313
548.22
548.13
548.045
547.964
547.887
547.814
547.745
547.68
547.617
547.558
547.502
547.448
547.397
547.348
547.302
547.258
547.214
547.171
547.126
547.08
547.031
546.977
546.917
546.85
546.774
546.689
546.592
546.485
546.368
546.239
546.1
545.951
545.792
545.627
545.458
545.29
545.13
544.983
544.848
544.72
544.596
544.474
544.354
544.234
544.115
543.996
543.878
543.759
543.642
543.524
543.407
543.29
543.174
543.058
542.943
542.828
542.714
542.6
542.487
542.374
542.261
542.149
542.037
541.926
541.815
541.704
541.593
541.483
541.373
541.263
541.153
541.043
540.934
540.824
540.714
540.605
552.49
552.371
552.253
552.138
552.025
551.916
551.81
551.708
551.609
551.514
551.422
551.332
551.245
551.159
551.075
550.991
550.909
550.827
550.744
550.661
550.577
550.492
550.405
550.318
550.229
550.139
550.048
549.957
549.864
549.77
549.675
549.577
549.478
549.376
549.273
549.17
549.065
548.958
548.852
548.745
548.639
548.535
548.433
548.333
548.237
548.144
548.056
547.972
547.893
547.819
547.749
547.683
547.621
547.562
547.507
547.455
547.406
547.36
547.317
547.275
547.235
547.194
547.152
547.109
547.061
547.009
546.95
546.884
546.808
546.722
546.624
546.515
546.394
546.262
546.117
545.961
545.794
545.618
545.438
545.259
545.09
544.947
544.819
544.699
544.582
544.465
544.348
544.231
544.114
543.997
543.879
543.762
543.644
543.527
543.41
543.294
543.177
543.061
542.946
542.831
542.716
542.602
542.489
542.376
542.263
542.151
542.039
541.927
541.816
541.705
541.594
541.484
541.373
541.263
541.153
541.043
540.934
540.824
540.714
540.605
552.493
552.379
552.267
552.157
552.049
551.945
551.843
551.745
551.651
551.559
551.47
551.383
551.299
551.215
551.133
551.052
550.971
550.891
550.81
550.728
550.644
550.558
550.47
550.381
550.29
550.199
550.107
550.015
549.921
549.827
549.73
549.632
549.531
549.428
549.324
549.218
549.111
549.002
548.893
548.784
548.675
548.568
548.462
548.359
548.259
548.163
548.071
547.984
547.902
547.826
547.754
547.687
547.624
547.566
547.512
547.461
547.414
547.371
547.33
547.291
547.252
547.214
547.174
547.132
547.086
547.035
546.976
546.91
546.834
546.747
546.648
546.537
546.413
546.276
546.126
545.962
545.786
545.599
545.404
545.206
545.02
544.889
544.779
544.672
544.563
544.453
544.34
544.226
544.112
543.996
543.88
543.763
543.647
543.53
543.413
543.296
543.18
543.064
542.949
542.833
542.719
542.604
542.491
542.377
542.264
542.152
542.04
541.928
541.817
541.706
541.595
541.484
541.374
541.264
541.154
541.044
540.934
540.824
540.714
540.605
552.496
552.387
552.28
552.175
552.072
551.972
551.876
551.782
551.691
551.603
551.517
551.434
551.352
551.272
551.192
551.113
551.034
550.955
550.875
550.793
550.709
550.622
550.532
550.441
550.349
550.256
550.163
550.069
549.976
549.881
549.784
549.685
549.583
549.48
549.374
549.268
549.159
549.049
548.938
548.827
548.716
548.606
548.497
548.391
548.287
548.187
548.091
548
547.914
547.835
547.761
547.693
547.63
547.571
547.518
547.469
547.423
547.382
547.343
547.306
547.269
547.232
547.194
547.153
547.107
547.055
546.996
546.929
546.851
546.763
546.664
546.551
546.425
546.285
546.129
545.959
545.773
545.574
545.359
545.129
544.888
544.807
544.731
544.642
544.543
544.439
544.331
544.22
544.108
543.994
543.879
543.764
543.648
543.532
543.415
543.299
543.183
543.067
542.951
542.836
542.721
542.607
542.493
542.379
542.266
542.153
542.041
541.929
541.818
541.707
541.596
541.485
541.374
541.264
541.154
541.044
540.934
540.824
540.715
540.605
552.498
552.395
552.292
552.192
552.094
551.999
551.907
551.818
551.731
551.647
551.565
551.485
551.406
551.328
551.251
551.174
551.097
551.019
550.94
550.858
550.772
550.683
550.592
550.498
550.403
550.309
550.214
550.12
550.026
549.932
549.835
549.735
549.633
549.528
549.423
549.315
549.206
549.096
548.984
548.872
548.76
548.648
548.537
548.427
548.319
548.215
548.114
548.018
547.928
547.846
547.77
547.701
547.637
547.58
547.527
547.479
547.436
547.397
547.36
547.324
547.289
547.253
547.215
547.173
547.127
547.073
547.012
546.942
546.863
546.774
546.674
546.56
546.433
546.291
546.133
545.958
545.766
545.557
545.327
545.053
544.594
544.717
544.691
544.618
544.526
544.426
544.321
544.213
544.103
543.991
543.878
543.764
543.649
543.533
543.417
543.301
543.185
543.069
542.953
542.838
542.723
542.608
542.494
542.381
542.267
542.155
542.042
541.93
541.819
541.707
541.596
541.486
541.375
541.265
541.154
541.044
540.934
540.824
540.715
540.605
552.5
552.401
552.304
552.208
552.115
552.025
551.938
551.853
551.771
551.692
551.614
551.537
551.461
551.386
551.31
551.235
551.159
551.081
551.002
550.918
550.831
550.739
550.645
550.549
550.452
550.356
550.261
550.167
550.073
549.977
549.88
549.78
549.677
549.572
549.466
549.358
549.249
549.139
549.027
548.915
548.802
548.688
548.575
548.462
548.35
548.241
548.135
548.034
547.94
547.854
547.777
547.708
547.647
547.592
547.542
547.497
547.456
547.42
547.385
547.351
547.317
547.281
547.242
547.199
547.15
547.093
547.028
546.955
546.873
546.783
546.682
546.569
546.443
546.301
546.144
545.969
545.777
545.569
545.346
545.105
544.862
544.776
544.697
544.61
544.515
544.415
544.312
544.206
544.098
543.988
543.876
543.763
543.649
543.534
543.419
543.303
543.187
543.071
542.955
542.84
542.725
542.61
542.496
542.382
542.269
542.156
542.043
541.931
541.82
541.708
541.597
541.486
541.375
541.265
541.155
541.045
540.935
540.825
540.715
540.605
552.502
552.408
552.315
552.224
552.136
552.051
551.969
551.889
551.813
551.738
551.664
551.591
551.518
551.445
551.371
551.296
551.219
551.141
551.06
550.974
550.883
550.788
550.691
550.592
550.494
550.397
550.301
550.207
550.112
550.016
549.917
549.816
549.712
549.606
549.499
549.391
549.282
549.172
549.062
548.95
548.836
548.722
548.606
548.489
548.373
548.259
548.147
548.041
547.943
547.854
547.778
547.713
547.657
547.608
547.563
547.523
547.487
547.455
547.425
547.393
547.36
547.324
547.283
547.236
547.183
547.121
547.051
546.973
546.889
546.797
546.696
546.586
546.462
546.325
546.171
546
545.813
545.611
545.396
545.178
544.976
544.829
544.712
544.607
544.506
544.405
544.302
544.198
544.092
543.984
543.873
543.762
543.649
543.535
543.42
543.304
543.189
543.073
542.957
542.842
542.727
542.612
542.498
542.384
542.27
542.157
542.044
541.932
541.82
541.709
541.598
541.487
541.376
541.265
541.155
541.045
540.935
540.825
540.715
540.605
552.504
552.413
552.324
552.238
552.155
552.075
551.999
551.925
551.855
551.785
551.717
551.648
551.578
551.507
551.433
551.357
551.279
551.198
551.113
551.021
550.925
550.826
550.726
550.626
550.526
550.428
550.331
550.234
550.138
550.039
549.938
549.835
549.73
549.622
549.514
549.405
549.297
549.189
549.08
548.968
548.855
548.738
548.62
548.499
548.377
548.257
548.139
548.028
547.926
547.838
547.765
547.708
547.663
547.625
547.589
547.557
547.532
547.509
547.487
547.459
547.427
547.393
547.347
547.292
547.232
547.165
547.09
547.006
546.92
546.828
546.729
546.624
546.506
546.373
546.222
546.052
545.87
545.674
545.464
545.247
545.035
544.854
544.716
544.601
544.496
544.394
544.293
544.19
544.086
543.979
543.87
543.76
543.648
543.535
543.42
543.305
543.19
543.074
542.959
542.843
542.728
542.613
542.499
542.385
542.271
542.158
542.045
541.933
541.821
541.709
541.598
541.487
541.376
541.266
541.155
541.045
540.935
540.825
540.715
540.605
552.506
552.418
552.333
552.251
552.172
552.098
552.028
551.961
551.897
551.835
551.773
551.709
551.642
551.572
551.497
551.419
551.337
551.251
551.159
551.06
550.957
550.852
550.748
550.645
550.544
550.445
550.345
550.246
550.146
550.043
549.938
549.831
549.723
549.614
549.504
549.394
549.287
549.18
549.073
548.962
548.847
548.728
548.604
548.477
548.348
548.219
548.094
547.978
547.878
547.799
547.733
547.689
547.657
547.635
547.609
547.589
547.588
547.586
547.581
547.56
547.532
547.505
547.443
547.365
547.298
547.23
547.154
547.066
546.987
546.898
546.798
546.704
546.597
546.47
546.314
546.138
545.957
545.773
545.553
545.313
545.067
544.843
544.701
544.587
544.483
544.382
544.283
544.182
544.079
543.974
543.867
543.758
543.647
543.534
543.421
543.306
543.191
543.076
542.96
542.845
542.729
542.615
542.5
542.386
542.272
542.159
542.046
541.934
541.822
541.71
541.599
541.488
541.377
541.266
541.156
541.045
540.935
540.825
540.715
540.605
552.507
552.422
552.339
552.261
552.186
552.118
552.054
551.995
551.94
551.886
551.83
551.772
551.709
551.64
551.565
551.484
551.397
551.303
551.2
551.089
550.975
550.863
550.753
550.647
550.543
550.441
550.339
550.236
550.131
550.022
549.91
549.797
549.686
549.575
549.463
549.353
549.246
549.142
549.037
548.922
548.803
548.676
548.545
548.406
548.265
548.127
547.997
547.875
547.784
547.736
547.674
547.646
547.617
547.611
547.592
547.583
547.648
547.691
547.725
547.716
547.691
547.686
547.576
547.441
547.367
547.319
547.259
547.163
547.119
547.039
546.918
546.849
546.771
546.661
546.469
546.274
546.093
545.956
545.692
545.4
545.09
544.761
544.663
544.563
544.466
544.369
544.272
544.174
544.073
543.97
543.864
543.756
543.646
543.534
543.421
543.307
543.192
543.076
542.961
542.846
542.731
542.616
542.501
542.387
542.273
542.16
542.047
541.934
541.822
541.711
541.599
541.488
541.377
541.266
541.156
541.045
540.935
540.825
540.715
540.605
552.507
552.424
552.343
552.266
552.195
552.131
552.074
552.025
551.979
551.934
551.886
551.834
551.776
551.709
551.635
551.552
551.458
551.352
551.233
551.105
550.976
550.852
550.733
550.621
550.513
550.408
550.302
550.2
550.094
549.978
549.854
549.732
549.619
549.508
549.396
549.286
549.178
549.077
548.974
548.84
548.71
548.563
548.418
548.257
548.1
547.962
547.837
547.706
547.625
547.674
547.576
547.583
547.54
547.511
547.534
547.512
547.575
547.556
547.619
547.752
547.719
547.707
547.621
547.41
547.389
547.431
547.406
547.351
547.353
547.293
547.16
547.119
546.995
546.906
546.681
546.482
546.292
546.14
545.845
545.58
545.178
544.744
544.634
544.54
544.449
544.357
544.263
544.166
544.067
543.965
543.861
543.754
543.644
543.533
543.421
543.307
543.192
543.077
542.962
542.847
542.731
542.617
542.502
542.388
542.274
542.161
542.048
541.935
541.823
541.711
541.6
541.488
541.377
541.267
541.156
541.046
540.935
540.825
540.715
540.605
552.507
552.423
552.342
552.266
552.196
552.135
552.083
552.044
552.009
551.973
551.931
551.884
551.829
551.766
551.698
551.619
551.519
551.396
551.255
551.103
550.951
550.808
550.674
550.549
550.434
550.328
550.225
550.148
550.051
549.919
549.773
549.637
549.529
549.421
549.309
549.205
549.092
548.991
548.901
548.729
548.594
548.455
548.321
548.131
547.967
547.861
547.742
547.623
547.557
547.527
547.453
547.404
547.348
547.31
547.29
547.309
547.354
547.34
547.44
547.634
547.595
547.599
547.6
547.339
547.346
547.554
547.643
547.613
547.589
547.698
547.506
547.458
547.287
547.207
546.977
546.667
546.547
546.375
545.868
545.878
545.462
544.72
544.606
544.519
544.434
544.346
544.254
544.16
544.062
543.962
543.858
543.752
543.643
543.533
543.421
543.307
543.193
543.078
542.963
542.847
542.732
542.617
542.503
542.388
542.274
542.161
542.048
541.935
541.823
541.711
541.6
541.489
541.378
541.267
541.156
541.046
540.936
540.825
540.715
540.605
552.505
552.419
552.337
552.259
552.182
552.12
552.068
552.037
552.012
551.985
551.947
551.897
551.839
551.784
551.731
551.667
551.557
551.411
551.245
551.065
550.883
550.714
550.554
550.402
550.275
550.179
550.099
550.133
550.048
549.856
549.667
549.507
549.433
549.343
549.229
549.077
548.89
548.8
548.734
548.582
548.507
548.39
548.206
548.033
547.907
547.744
547.673
547.677
547.608
547.353
547.236
547.144
547.091
547.035
546.999
546.967
547.042
547.191
547.338
547.446
547.523
547.549
547.61
547.485
547.339
547.531
547.912
547.859
547.847
547.828
547.734
547.686
547.378
547.324
547.255
546.646
547.155
546.861
545.498
545.89
545.427
544.789
544.586
544.504
544.423
544.337
544.248
544.155
544.059
543.959
543.856
543.751
543.643
543.532
543.42
543.307
543.193
543.078
542.963
542.848
542.733
542.618
542.503
542.389
542.275
542.161
542.048
541.936
541.824
541.712
541.6
541.489
541.378
541.267