/*--------------------------------*- C++ -*----------------------------------*\
  =========                 |
  \\      /  F ield         | OpenFOAM: The Open Source CFD Toolbox
   \\    /   O peration     | Website:  https://openfoam.org
    \\  /    A nd           | Version:  6
     \\/     M anipulation  |
\*---------------------------------------------------------------------------*/
FoamFile
{
    version     2.0;
    format      ascii;
    class       volScalarField;
    location    "2900";
    object      T;
}
// * * * * * * * * * * * * * * * * * * * * * * * * * * * * * * * * * * * * * //

dimensions      [0 0 0 1 0 0 0];

internalField   nonuniform List<scalar> 
4800
(
552.436
552.211
551.99
551.779
551.583
551.402
551.239
551.092
550.961
550.846
550.743
550.653
550.572
550.499
550.433
550.373
550.317
550.263
550.211
550.16
550.11
550.059
550.008
549.956
549.902
549.846
549.789
549.73
549.67
549.61
549.55
549.489
549.429
549.369
549.31
549.25
549.191
549.132
549.073
549.015
548.957
548.9
548.843
548.786
548.73
548.674
548.618
548.562
548.506
548.45
548.393
548.336
548.278
548.219
548.157
548.094
548.029
547.962
547.894
547.826
547.757
547.687
547.618
547.546
547.474
547.398
547.318
547.233
547.142
547.042
546.931
546.807
546.667
546.509
546.331
546.132
545.91
545.663
545.388
545.072
544.688
544.731
544.693
544.621
544.531
544.432
544.326
544.218
544.107
543.994
543.88
543.766
543.652
543.537
543.422
543.308
543.194
543.079
542.965
542.852
542.738
542.625
542.512
542.399
542.286
542.173
542.061
541.948
541.836
541.724
541.612
541.5
541.388
541.276
541.164
541.053
540.941
540.829
540.717
540.606
552.436
552.21
551.991
551.782
551.587
551.408
551.245
551.099
550.969
550.854
550.752
550.662
550.581
550.509
550.442
550.381
550.324
550.27
550.217
550.165
550.114
550.062
550.01
549.956
549.901
549.844
549.786
549.726
549.665
549.604
549.543
549.482
549.421
549.36
549.3
549.239
549.179
549.12
549.061
549.002
548.944
548.886
548.829
548.772
548.715
548.659
548.602
548.546
548.49
548.434
548.377
548.32
548.262
548.203
548.142
548.079
548.015
547.949
547.882
547.814
547.746
547.676
547.606
547.535
547.462
547.387
547.307
547.223
547.132
547.032
546.922
546.799
546.661
546.505
546.33
546.132
545.913
545.672
545.416
545.157
544.93
544.824
544.735
544.642
544.543
544.439
544.331
544.221
544.109
543.995
543.881
543.767
543.652
543.537
543.422
543.308
543.193
543.079
542.965
542.851
542.738
542.624
542.511
542.398
542.286
542.173
542.06
541.948
541.836
541.724
541.612
541.5
541.388
541.276
541.164
541.053
540.941
540.829
540.717
540.606
552.435
552.21
551.993
551.787
551.595
551.418
551.257
551.113
550.984
550.87
550.769
550.679
550.599
550.526
550.46
550.398
550.34
550.284
550.23
550.177
550.124
550.07
550.015
549.959
549.901
549.841
549.781
549.719
549.656
549.593
549.53
549.467
549.405
549.343
549.281
549.22
549.158
549.098
549.037
548.978
548.918
548.86
548.802
548.745
548.687
548.63
548.573
548.516
548.46
548.403
548.346
548.289
548.231
548.172
548.113
548.051
547.988
547.923
547.857
547.791
547.723
547.654
547.584
547.514
547.441
547.365
547.286
547.202
547.112
547.013
546.904
546.783
546.647
546.494
546.324
546.135
545.927
545.703
545.471
545.246
545.054
544.907
544.786
544.673
544.563
544.451
544.339
544.226
544.112
543.997
543.882
543.767
543.652
543.537
543.422
543.307
543.193
543.079
542.965
542.851
542.737
542.624
542.511
542.398
542.285
542.172
542.06
541.948
541.836
541.723
541.611
541.499
541.388
541.276
541.164
541.052
540.941
540.829
540.717
540.606
552.438
552.216
552.002
551.798
551.609
551.435
551.276
551.134
551.007
550.895
550.795
550.706
550.626
550.553
550.486
550.423
550.363
550.306
550.25
550.195
550.139
550.081
550.023
549.963
549.901
549.838
549.774
549.709
549.643
549.577
549.512
549.446
549.382
549.318
549.255
549.192
549.129
549.066
549.005
548.944
548.883
548.823
548.765
548.706
548.648
548.591
548.533
548.475
548.418
548.36
548.303
548.246
548.188
548.13
548.071
548.011
547.949
547.886
547.821
547.755
547.688
547.62
547.551
547.481
547.409
547.334
547.255
547.171
547.082
546.984
546.877
546.758
546.625
546.477
546.312
546.13
545.932
545.723
545.512
545.31
545.129
544.97
544.832
544.705
544.584
544.466
544.349
544.233
544.116
544
543.884
543.768
543.653
543.537
543.422
543.307
543.192
543.078
542.964
542.85
542.736
542.623
542.51
542.397
542.284
542.172
542.059
541.947
541.835
541.723
541.611
541.499
541.387
541.276
541.164
541.052
540.941
540.829
540.717
540.606
552.44
552.224
552.015
551.816
551.629
551.458
551.302
551.163
551.038
550.927
550.829
550.74
550.66
550.587
550.519
550.455
550.394
550.334
550.276
550.218
550.158
550.097
550.034
549.969
549.903
549.836
549.767
549.698
549.628
549.559
549.489
549.421
549.354
549.288
549.222
549.157
549.092
549.028
548.964
548.901
548.839
548.778
548.718
548.658
548.599
548.541
548.482
548.424
548.366
548.308
548.25
548.193
548.136
548.078
548.02
547.961
547.9
547.838
547.775
547.71
547.644
547.577
547.508
547.438
547.367
547.292
547.214
547.131
547.042
546.946
546.841
546.725
546.596
546.453
546.296
546.123
545.937
545.743
545.547
545.357
545.18
545.016
544.869
544.733
544.605
544.481
544.36
544.24
544.121
544.003
543.886
543.769
543.653
543.537
543.421
543.306
543.191
543.077
542.963
542.849
542.735
542.622
542.509
542.396
542.283
542.171
542.059
541.946
541.834
541.722
541.61
541.499
541.387
541.275
541.164
541.052
540.94
540.829
540.717
540.606
552.444
552.234
552.03
551.836
551.654
551.486
551.334
551.198
551.076
550.967
550.869
550.781
550.701
550.627
550.558
550.493
550.43
550.368
550.306
550.244
550.18
550.115
550.047
549.978
549.907
549.834
549.761
549.687
549.612
549.538
549.464
549.392
549.321
549.252
549.184
549.117
549.049
548.982
548.916
548.851
548.787
548.724
548.662
548.602
548.542
548.482
548.423
548.364
548.305
548.247
548.189
548.132
548.075
548.017
547.96
547.901
547.842
547.781
547.718
547.654
547.589
547.523
547.455
547.386
547.315
547.242
547.164
547.083
546.995
546.901
546.798
546.685
546.561
546.424
546.273
546.11
545.937
545.755
545.571
545.388
545.213
545.048
544.897
544.756
544.622
544.494
544.369
544.246
544.125
544.006
543.887
543.77
543.653
543.536
543.42
543.305
543.19
543.075
542.961
542.847
542.734
542.621
542.508
542.395
542.282
542.17
542.058
541.945
541.833
541.721
541.61
541.498
541.386
541.275
541.163
541.052
540.94
540.829
540.717
540.606
552.448
552.247
552.049
551.86
551.683
551.52
551.372
551.238
551.119
551.012
550.915
550.827
550.747
550.672
550.602
550.534
550.468
550.404
550.339
550.273
550.205
550.135
550.062
549.987
549.911
549.833
549.755
549.676
549.596
549.516
549.437
549.36
549.285
549.212
549.141
549.071
549.001
548.931
548.862
548.794
548.727
548.663
548.6
548.538
548.477
548.416
548.356
548.296
548.237
548.179
548.121
548.063
548.006
547.949
547.892
547.834
547.775
547.715
547.653
547.59
547.526
547.461
547.394
547.326
547.256
547.184
547.108
547.028
546.943
546.851
546.75
546.641
546.521
546.39
546.247
546.093
545.928
545.757
545.581
545.404
545.232
545.069
544.916
544.772
544.635
544.504
544.376
544.251
544.128
544.008
543.888
543.769
543.652
543.535
543.419
543.303
543.188
543.074
542.959
542.846
542.732
542.619
542.506
542.393
542.281
542.168
542.056
541.944
541.832
541.721
541.609
541.497
541.386
541.274
541.163
541.051
540.94
540.828
540.717
540.606
552.452
552.258
552.069
551.886
551.715
551.556
551.412
551.282
551.165
551.059
550.964
550.876
550.796
550.72
550.647
550.578
550.51
550.442
550.374
550.303
550.231
550.155
550.077
549.997
549.915
549.833
549.749
549.665
549.579
549.494
549.409
549.326
549.246
549.169
549.095
549.021
548.947
548.874
548.802
548.731
548.662
548.596
548.531
548.467
548.405
548.344
548.283
548.223
548.163
548.104
548.046
547.989
547.932
547.875
547.817
547.76
547.701
547.642
547.581
547.519
547.455
547.391
547.326
547.259
547.191
547.12
547.046
546.968
546.885
546.796
546.699
546.593
546.477
546.351
546.214
546.068
545.911
545.747
545.578
545.408
545.24
545.079
544.927
544.782
544.644
544.51
544.381
544.254
544.13
544.008
543.888
543.769
543.65
543.533
543.417
543.301
543.186
543.071
542.957
542.843
542.73
542.617
542.504
542.391
542.279
542.167
542.055
541.943
541.831
541.719
541.608
541.496
541.385
541.273
541.162
541.051
540.939
540.828
540.717
540.606
552.456
552.268
552.085
551.91
551.745
551.593
551.454
551.328
551.213
551.109
551.015
550.927
550.846
550.77
550.696
550.624
550.553
550.482
550.409
550.334
550.256
550.175
550.091
550.006
549.92
549.832
549.744
549.654
549.564
549.473
549.382
549.293
549.207
549.125
549.045
548.967
548.889
548.813
548.737
548.664
548.592
548.523
548.456
548.391
548.328
548.266
548.204
548.144
548.084
548.025
547.967
547.909
547.852
547.795
547.737
547.68
547.622
547.563
547.503
547.441
547.379
547.316
547.252
547.187
547.12
547.051
546.98
546.904
546.824
546.737
546.643
546.541
546.429
546.308
546.177
546.036
545.887
545.729
545.567
545.402
545.24
545.082
544.931
544.787
544.648
544.513
544.382
544.255
544.13
544.007
543.886
543.767
543.648
543.531
543.414
543.298
543.183
543.069
542.954
542.841
542.727
542.614
542.502
542.389
542.277
542.165
542.053
541.941
541.83
541.718
541.607
541.495
541.384
541.273
541.161
541.05
540.939
540.828
540.717
540.606
552.459
552.28
552.105
551.937
551.779
551.633
551.498
551.376
551.264
551.161
551.067
550.98
550.898
550.82
550.745
550.67
550.597
550.521
550.444
550.364
550.281
550.195
550.106
550.015
549.924
549.831
549.738
549.644
549.548
549.452
549.355
549.26
549.168
549.079
548.994
548.911
548.829
548.748
548.669
548.592
548.517
548.446
548.377
548.31
548.246
548.183
548.121
548.06
548
547.941
547.882
547.825
547.767
547.71
547.653
547.596
547.538
547.479
547.42
547.359
547.298
547.236
547.174
547.11
547.046
546.979
546.909
546.836
546.759
546.675
546.585
546.486
546.379
546.262
546.136
546.001
545.858
545.707
545.552
545.393
545.235
545.08
544.93
544.786
544.647
544.513
544.381
544.254
544.128
544.005
543.883
543.764
543.645
543.527
543.411
543.295
543.18
543.065
542.951
542.838
542.725
542.612
542.499
542.387
542.275
542.163
542.051
541.94
541.828
541.717
541.605
541.494
541.383
541.272
541.161
541.05
540.939
540.828
540.717
540.606
552.464
552.293
552.126
551.965
551.814
551.673
551.543
551.423
551.314
551.214
551.12
551.033
550.951
550.871
550.793
550.717
550.639
550.56
550.479
550.394
550.305
550.213
550.119
550.023
549.926
549.829
549.732
549.633
549.532
549.43
549.328
549.227
549.128
549.033
548.941
548.853
548.765
548.68
548.597
548.516
548.439
548.365
548.294
548.225
548.16
548.096
548.033
547.972
547.912
547.853
547.795
547.737
547.68
547.622
547.565
547.508
547.451
547.392
547.333
547.274
547.213
547.152
547.091
547.03
546.967
546.902
546.836
546.765
546.691
546.61
546.523
546.428
546.325
546.212
546.091
545.962
545.825
545.681
545.532
545.379
545.224
545.072
544.924
544.781
544.643
544.509
544.378
544.25
544.124
544.001
543.879
543.759
543.641
543.523
543.406
543.291
543.176
543.061
542.948
542.834
542.721
542.609
542.496
542.384
542.272
542.161
542.049
541.938
541.826
541.715
541.604
541.493
541.382
541.271
541.16
541.049
540.938
540.827
540.716
540.605
552.468
552.306
552.146
551.993
551.848
551.713
551.587
551.472
551.365
551.266
551.173
551.086
551.002
550.921
550.841
550.762
550.681
550.599
550.513
550.423
550.329
550.232
550.132
550.03
549.928
549.825
549.722
549.619
549.513
549.407
549.299
549.192
549.087
548.986
548.888
548.793
548.7
548.61
548.523
548.438
548.358
548.281
548.208
548.138
548.07
548.006
547.942
547.881
547.821
547.762
547.704
547.646
547.589
547.532
547.475
547.417
547.36
547.302
547.243
547.185
547.126
547.066
547.006
546.946
546.885
546.822
546.758
546.691
546.619
546.542
546.459
546.367
546.268
546.16
546.044
545.92
545.788
545.65
545.506
545.358
545.209
545.059
544.913
544.772
544.635
544.502
544.371
544.243
544.118
543.995
543.874
543.754
543.635
543.518
543.401
543.286
543.171
543.057
542.943
542.83
542.718
542.605
542.493
542.381
542.27
542.158
542.047
541.936
541.824
541.713
541.603
541.492
541.381
541.27
541.159
541.048
540.938
540.827
540.716
540.605
552.473
552.319
552.168
552.022
551.883
551.753
551.631
551.519
551.414
551.316
551.224
551.136
551.052
550.97
550.888
550.806
550.722
550.636
550.545
550.451
550.352
550.25
550.144
550.036
549.928
549.819
549.71
549.601
549.49
549.379
549.266
549.155
549.045
548.937
548.833
548.732
548.633
548.538
548.447
548.359
548.274
548.195
548.119
548.047
547.979
547.913
547.849
547.788
547.727
547.668
547.61
547.553
547.496
547.439
547.382
547.324
547.267
547.21
547.151
547.093
547.035
546.976
546.918
546.859
546.8
546.74
546.678
546.614
546.545
546.471
546.391
546.304
546.209
546.105
545.993
545.874
545.748
545.615
545.476
545.334
545.189
545.042
544.899
544.76
544.624
544.492
544.362
544.235
544.11
543.987
543.866
543.747
543.628
543.511
543.395
543.28
543.166
543.052
542.939
542.826
542.713
542.601
542.489
542.378
542.267
542.155
542.044
541.933
541.822
541.712
541.601
541.49
541.38
541.269
541.158
541.048
540.937
540.826
540.716
540.605
552.477
552.332
552.189
552.05
551.917
551.791
551.674
551.564
551.461
551.365
551.273
551.185
551.101
551.017
550.933
550.848
550.761
550.671
550.577
550.478
550.374
550.266
550.154
550.04
549.925
549.809
549.694
549.578
549.462
549.345
549.228
549.112
548.998
548.886
548.776
548.669
548.565
548.465
548.369
548.277
548.19
548.107
548.029
547.956
547.886
547.819
547.755
547.693
547.632
547.573
547.515
547.458
547.401
547.344
547.287
547.23
547.172
547.115
547.057
547
546.942
546.884
546.827
546.77
546.712
546.655
546.595
546.533
546.468
546.397
546.32
546.237
546.146
546.047
545.94
545.826
545.705
545.577
545.444
545.307
545.165
545.022
544.881
544.744
544.61
544.479
544.351
544.224
544.1
543.978
543.857
543.738
543.621
543.504
543.388
543.274
543.16
543.046
542.933
542.821
542.709
542.597
542.486
542.374
542.263
542.152
542.042
541.931
541.82
541.71
541.599
541.489
541.378
541.268
541.157
541.047
540.936
540.826
540.716
540.605
552.481
552.344
552.208
552.076
551.949
551.829
551.715
551.608
551.507
551.412
551.32
551.233
551.147
551.062
550.977
550.889
550.799
550.706
550.608
550.504
550.395
550.281
550.162
550.041
549.918
549.795
549.673
549.551
549.429
549.306
549.184
549.064
548.946
548.83
548.717
548.606
548.497
548.393
548.292
548.197
548.106
548.02
547.94
547.864
547.792
547.724
547.659
547.597
547.536
547.477
547.419
547.362
547.305
547.248
547.191
547.134
547.077
547.019
546.962
546.905
546.848
546.791
546.735
546.679
546.623
546.567
546.51
546.45
546.388
546.32
546.247
546.167
546.08
545.985
545.883
545.775
545.659
545.537
545.409
545.276
545.139
544.999
544.861
544.726
544.594
544.464
544.337
544.212
544.088
543.967
543.847
543.729
543.612
543.496
543.381
543.266
543.153
543.04
542.927
542.816
542.704
542.593
542.481
542.371
542.26
542.149
542.039
541.928
541.818
541.708
541.597
541.487
541.377
541.267
541.156
541.046
540.936
540.826
540.715
540.605
552.485
552.355
552.227
552.101
551.98
551.864
551.754
551.65
551.551
551.457
551.366
551.279
551.193
551.106
551.019
550.929
550.836
550.738
550.636
550.527
550.413
550.292
550.167
550.038
549.908
549.777
549.647
549.518
549.39
549.262
549.136
549.012
548.89
548.772
548.656
548.542
548.43
548.322
548.217
548.118
548.024
547.935
547.851
547.774
547.7
547.631
547.565
547.502
547.44
547.381
547.323
547.265
547.209
547.152
547.095
547.038
546.981
546.923
546.866
546.809
546.753
546.697
546.643
546.588
546.534
546.479
546.423
546.366
546.305
546.241
546.171
546.094
546.011
545.922
545.825
545.721
545.611
545.494
545.371
545.243
545.11
544.973
544.838
544.705
544.575
544.447
544.321
544.197
544.075
543.954
543.835
543.718
543.602
543.486
543.372
543.258
543.145
543.033
542.921
542.81
542.699
542.588
542.477
542.367
542.256
542.146
542.036
541.926
541.816
541.706
541.595
541.485
541.375
541.265
541.155
541.045
540.935
540.825
540.715
540.605
552.488
552.365
552.244
552.125
552.009
551.898
551.792
551.69
551.594
551.501
551.411
551.323
551.236
551.148
551.058
550.966
550.87
550.769
550.662
550.548
550.427
550.299
550.167
550.031
549.894
549.755
549.617
549.481
549.347
549.214
549.084
548.957
548.834
548.714
548.596
548.479
548.364
548.253
548.145
548.042
547.944
547.852
547.765
547.685
547.609
547.538
547.471
547.408
547.346
547.286
547.228
547.17
547.113
547.057
547
546.943
546.886
546.829
546.771
546.715
546.659
546.604
546.551
546.497
546.444
546.391
546.337
546.28
546.222
546.16
546.093
546.02
545.941
545.856
545.764
545.665
545.56
545.449
545.331
545.208
545.08
544.945
544.813
544.683
544.554
544.428
544.303
544.181
544.06
543.94
543.822
543.706
543.59
543.476
543.362
543.249
543.137
543.026
542.914
542.803
542.693
542.583
542.472
542.362
542.252
542.142
542.033
541.923
541.813
541.703
541.594
541.484
541.374
541.264
541.154
541.044
540.935
540.825
540.715
540.605
552.492
552.375
552.26
552.147
552.037
551.93
551.827
551.729
551.634
551.543
551.453
551.365
551.277
551.188
551.097
551.002
550.902
550.797
550.684
550.565
550.437
550.303
550.163
550.02
549.874
549.728
549.583
549.44
549.3
549.162
549.029
548.9
548.775
548.655
548.537
548.418
548.302
548.187
548.077
547.97
547.869
547.773
547.683
547.6
547.522
547.449
547.381
547.316
547.254
547.194
547.135
547.078
547.021
546.964
546.907
546.85
546.793
546.736
546.679
546.623
546.568
546.513
546.46
546.408
546.356
546.304
546.251
546.196
546.139
546.079
546.015
545.945
545.87
545.789
545.701
545.607
545.508
545.402
545.29
545.171
545.047
544.916
544.786
544.658
544.532
544.407
544.284
544.162
544.043
543.925
543.808
543.692
543.578
543.464
543.352
543.24
543.128
543.018
542.907
542.797
542.687
542.577
542.467
542.358
542.248
542.139
542.029
541.92
541.811
541.701
541.592
541.482
541.372
541.263
541.153
541.044
540.934
540.824
540.715
540.605
552.495
552.385
552.275
552.168
552.063
551.96
551.861
551.766
551.673
551.583
551.494
551.406
551.317
551.226
551.133
551.035
550.932
550.822
550.705
550.579
550.445
550.303
550.155
550.004
549.852
549.699
549.547
549.397
549.25
549.107
548.97
548.84
548.716
548.597
548.48
548.361
548.243
548.127
548.013
547.903
547.799
547.7
547.606
547.519
547.438
547.362
547.293
547.227
547.164
547.104
547.045
546.988
546.931
546.874
546.818
546.761
546.705
546.648
546.591
546.535
546.48
546.427
546.374
546.323
546.272
546.22
546.168
546.114
546.058
546
545.938
545.871
545.799
545.721
545.638
545.549
545.454
545.353
545.246
545.133
545.013
544.885
544.758
544.632
544.507
544.384
544.263
544.143
544.024
543.907
543.792
543.678
543.564
543.452
543.34
543.23
543.119
543.009
542.899
542.79
542.681
542.571
542.462
542.353
542.244
542.135
542.026
541.917
541.808
541.699
541.59
541.48
541.371
541.262
541.152
541.043
540.933
540.824
540.714
540.605
552.498
552.393
552.29
552.187
552.087
551.989
551.894
551.801
551.71
551.621
551.533
551.445
551.355
551.264
551.168
551.068
550.961
550.847
550.724
550.592
550.45
550.301
550.145
549.987
549.828
549.67
549.512
549.356
549.202
549.053
548.913
548.782
548.659
548.542
548.426
548.308
548.189
548.07
547.954
547.842
547.734
547.631
547.534
547.443
547.358
547.28
547.209
547.142
547.079
547.018
546.959
546.902
546.845
546.789
546.734
546.678
546.621
546.565
546.509
546.454
546.399
546.346
546.294
546.242
546.192
546.14
546.088
546.036
545.98
545.923
545.862
545.798
545.729
545.654
545.575
545.49
545.4
545.303
545.201
545.092
544.978
544.854
544.729
544.604
544.481
544.36
544.24
544.121
544.004
543.889
543.775
543.662
543.55
543.439
543.328
543.219
543.109
543
542.891
542.783
542.674
542.566
542.457
542.349
542.24
542.131
542.023
541.914
541.805
541.696
541.588
541.479
541.369
541.26
541.151
541.042
540.933
540.823
540.714
540.605
552.5
552.401
552.303
552.205
552.109
552.015
551.923
551.833
551.744
551.657
551.569
551.481
551.391
551.299
551.201
551.098
550.988
550.869
550.741
550.602
550.453
550.296
550.134
549.969
549.806
549.644
549.482
549.321
549.161
549.007
548.862
548.728
548.604
548.487
548.374
548.257
548.137
548.017
547.899
547.784
547.673
547.567
547.466
547.372
547.283
547.203
547.129
547.061
546.997
546.936
546.877
546.821
546.765
546.71
546.655
546.6
546.545
546.49
546.434
546.38
546.326
546.273
546.221
546.169
546.118
546.066
546.015
545.962
545.906
545.85
545.79
545.727
545.66
545.589
545.513
545.432
545.345
545.253
545.156
545.052
544.942
544.824
544.699
544.576
544.454
544.333
544.215
544.098
543.982
543.869
543.756
543.645
543.534
543.425
543.316
543.207
543.099
542.991
542.883
542.775
542.668
542.56
542.452
542.344
542.236
542.128
542.02
541.911
541.803
541.694
541.586
541.477
541.368
541.259
541.15
541.041
540.932
540.823
540.714
540.605
552.503
552.408
552.314
552.221
552.129
552.039
551.95
551.862
551.775
551.689
551.602
551.515
551.425
551.331
551.232
551.127
551.014
550.891
550.757
550.612
550.455
550.291
550.121
549.951
549.784
549.62
549.457
549.293
549.13
548.971
548.82
548.679
548.551
548.433
548.322
548.206
548.087
547.966
547.846
547.728
547.615
547.506
547.402
547.304
547.212
547.129
547.053
546.984
546.92
546.859
546.801
546.745
546.691
546.638
546.585
546.532
546.478
546.424
546.37
546.316
546.263
546.21
546.157
546.105
546.054
546.001
545.948
545.895
545.839
545.782
545.722
545.66
545.594
545.525
545.452
545.375
545.292
545.204
545.111
545.012
544.906
544.789
544.667
544.545
544.425
544.306
544.188
544.073
543.959
543.847
543.736
543.626
543.518
543.41
543.302
543.195
543.088
542.981
542.875
542.768
542.661
542.554
542.447
542.339
542.232
542.124
542.016
541.908
541.8
541.692
541.584
541.475
541.367
541.258
541.149
541.04
540.931
540.822
540.713
540.604
552.505
552.414
552.324
552.235
552.147
552.06
551.974
551.889
551.804
551.72
551.634
551.547
551.456
551.362
551.261
551.154
551.038
550.911
550.772
550.621
550.46
550.29
550.114
549.939
549.768
549.602
549.44
549.275
549.11
548.946
548.789
548.64
548.504
548.381
548.269
548.155
548.035
547.913
547.792
547.672
547.556
547.444
547.338
547.238
547.144
547.058
546.981
546.911
546.847
546.788
546.732
546.678
546.626
546.575
546.525
546.474
546.422
546.37
546.317
546.264
546.21
546.157
546.104
546.052
545.999
545.945
545.891
545.835
545.778
545.72
545.659
545.597
545.532
545.464
545.393
545.319
545.24
545.156
545.067
544.971
544.868
544.754
544.634
544.514
544.394
544.276
544.16
544.046
543.934
543.824
543.715
543.607
543.5
543.394
543.288
543.183
543.077
542.972
542.866
542.76
542.654
542.548
542.441
542.335
542.228
542.12
542.013
541.905
541.798
541.69
541.582
541.473
541.365
541.257
541.148
541.039
540.931
540.822
540.713
540.604
552.506
552.42
552.333
552.248
552.163
552.079
551.997
551.914
551.831
551.748
551.664
551.577
551.486
551.391
551.29
551.181
551.062
550.931
550.787
550.631
550.464
550.289
550.109
549.929
549.755
549.589
549.429
549.267
549.102
548.936
548.773
548.616
548.47
548.337
548.218
548.103
547.982
547.859
547.736
547.614
547.496
547.382
547.274
547.172
547.077
546.99
546.912
546.844
546.782
546.725
546.672
546.622
546.573
546.526
546.478
546.43
546.38
546.329
546.276
546.223
546.169
546.115
546.062
546.007
545.953
545.898
545.842
545.785
545.726
545.665
545.602
545.538
545.473
545.405
545.336
545.264
545.188
545.108
545.023
544.931
544.832
544.721
544.601
544.481
544.362
544.244
544.129
544.016
543.906
543.798
543.692
543.587
543.482
543.378
543.274
543.17
543.066
542.962
542.858
542.753
542.648
542.542
542.436
542.33
542.224
542.117
542.01
541.903
541.795
541.688
541.58
541.472
541.364
541.256
541.147
541.039
540.93
540.822
540.713
540.604
552.508
552.425
552.342
552.26
552.178
552.098
552.018
551.938
551.857
551.775
551.692
551.607
551.517
551.421
551.319
551.209
551.087
550.953
550.804
550.643
550.472
550.293
550.108
549.925
549.75
549.584
549.425
549.266
549.104
548.94
548.774
548.609
548.452
548.306
548.175
548.053
547.929
547.803
547.677
547.553
547.432
547.317
547.21
547.108
547.013
546.926
546.85
546.783
546.725
546.674
546.626
546.581
546.536
546.492
546.447
546.401
546.352
546.301
546.247
546.192
546.137
546.082
546.027
545.971
545.915
545.858
545.801
545.74
545.679
545.614
545.548
545.482
545.416
545.347
545.278
545.209
545.137
545.06
544.979
544.891
544.795
544.688
544.57
544.448
544.327
544.209
544.095
543.984
543.877
543.772
543.668
543.565
543.463
543.362
543.26
543.158
543.055
542.953
542.849
542.745
542.641
542.537
542.431
542.326
542.22
542.114
542.007
541.9
541.793
541.686
541.578
541.47
541.363
541.255
541.146
541.038
540.93
540.821
540.713
540.604
552.51
552.43
552.351
552.272
552.194
552.116
552.039
551.961
551.883
551.803
551.722
551.638
551.549
551.454
551.351
551.24
551.116
550.976
550.822
550.657
550.486
550.305
550.12
549.935
549.757
549.588
549.428
549.271
549.112
548.953
548.788
548.619
548.452
548.292
548.143
548.009
547.876
547.743
547.612
547.484
547.362
547.249
547.146
547.049
546.958
546.872
546.797
546.735
546.684
546.641
546.601
546.561
546.518
546.479
546.435
546.391
546.339
546.286
546.229
546.171
546.115
546.055
545.998
545.937
545.88
545.821
545.763
545.698
545.634
545.563
545.492
545.422
545.362
545.284
545.215
545.147
545.081
545.009
544.934
544.851
544.761
544.658
544.541
544.413
544.288
544.17
544.057
543.949
543.845
543.743
543.642
543.543
543.444
543.345
543.245
543.145
543.045
542.943
542.841
542.739
542.635
542.531
542.427
542.322
542.216
542.111
542.004
541.898
541.791
541.684
541.577
541.469
541.361
541.254
541.146
541.037
540.929
540.821
540.713
540.604
552.512
552.436
552.361
552.286
552.212
552.137
552.063
551.988
551.912
551.834
551.754
551.672
551.583
551.488
551.385
551.273
551.145
551.001
550.841
550.674
550.5
550.319
550.135
549.952
549.774
549.605
549.443
549.284
549.126
548.973
548.81
548.641
548.47
548.291
548.118
547.976
547.829
547.683
547.547
547.414
547.294
547.188
547.095
547.011
546.928
546.845
546.772
546.717
546.677
546.647
546.614
546.58
546.529
546.497
546.445
546.408
546.344
546.291
546.23
546.167
546.119
546.038
545.979
545.908
545.86
545.786
545.737
545.652
545.592
545.501
545.436
545.346
545.319
545.203
545.135
545.069
545.012
544.948
544.884
544.811
544.732
544.634
544.514
544.375
544.242
544.125
544.015
543.91
543.81
543.712
543.616
543.52
543.424
543.328
543.231
543.133
543.034
542.935
542.834
542.732
542.63
542.527
542.423
542.318
542.213
542.108
542.002
541.896
541.789
541.682
541.575
541.468
541.36
541.253
541.145
541.037
540.929
540.821
540.712
540.604
552.514
552.443
552.373
552.303
552.234
552.163
552.093
552.02
551.947
551.871
551.794
551.712
551.622
551.524
551.417
551.3
551.169
551.02
550.858
550.688
550.513
550.333
550.152
549.975
549.797
549.629
549.462
549.321
549.148
549.007
548.842
548.676
548.528
548.313
548.109
547.928
547.764
547.615
547.478
547.356
547.248
547.147
547.057
546.969
546.886
546.814
546.745
546.696
546.657
546.626
546.597
546.566
546.523
546.479
546.417
546.359
546.283
546.221
546.145
546.084
546.016
545.958
545.899
545.829
545.769
545.686
545.621
545.529
545.446
545.341
545.271
545.164
545.098
545.027
545.008
544.922
544.896
544.828
544.794
544.734
544.688
544.606
544.494
544.296
544.181
544.074
543.965
543.866
543.772
543.68
543.589
543.497
543.405
543.312
543.218
543.122
543.025
542.927
542.827
542.726
542.625
542.522
542.419
542.315
542.211
542.106
542
541.894
541.788
541.681
541.574
541.467
541.36
541.252
541.144
541.036
540.928
540.82
540.712
540.604
552.517
552.452
552.389
552.325
552.261
552.195
552.129
552.061
551.992
551.92
551.845
551.762
551.668
551.561
551.443
551.314
551.178
551.026
550.864
550.691
550.513
550.358
550.181
550.007
549.832
549.674
549.499
549.335
549.184
549.012
548.826
548.638
548.454
548.255
548.078
547.907
547.741
547.594
547.463
547.336
547.227
547.117
547.028
546.935
546.851
546.785
546.718
546.664
546.615
546.561
546.515
546.467
546.411
546.36
546.291
546.242
546.158
546.114
546.037
545.992
545.914
545.857
545.771
545.708
545.626
545.561
545.46
545.394
545.31
545.244
545.175
545.115
545.063
545.017
544.977
544.924
544.886
544.83
544.786
544.729
544.674
544.606
544.518
544.275
544.133
544.004
543.906
543.816
543.731
543.647
543.561
543.474
543.386
543.297
543.205
543.112
543.017
542.92
542.821
542.722
542.621
542.519
542.416
542.313
542.208
542.104
541.998
541.893
541.786
541.68
541.573
541.466
541.359
541.251
541.144
541.036
540.928
540.82
540.712
540.604
552.521
552.463
552.407
552.349
552.287
552.225
552.163
552.104
552.045
551.982
551.914
551.831
551.728
551.604
551.461
551.307
551.201
551.032
550.876
550.695
550.514
550.336
550.165
549.957
549.811
549.671
549.519
549.378
549.222
549.032
548.853
548.655
548.468
548.261
548.092
547.908
547.747
547.61
547.498
547.369
547.284
547.155
547.089
546.961
546.901
546.793
546.738
546.651
546.601
546.526
546.487
546.419
546.379
546.333
546.285
546.234
546.182
546.133
546.066
546.012
545.934
545.877
545.792
545.732
545.637
545.571
545.488
545.418
545.342
545.274
545.207
545.144
545.086
545.03
544.978
544.924
544.872
544.817
544.766
544.715
544.665
544.609
544.544
544.446
544.112
543.961
543.838
543.761
543.69
543.615
543.534
543.452
543.369
543.283
543.195
543.104
543.01
542.914
542.817
542.718
542.617
542.516
542.414
542.311
542.207
542.102
541.997
541.891
541.785
541.679
541.572
541.466
541.358
541.251
541.143
541.036
540.928
540.82
540.712
540.604
552.524
552.474
552.424
552.364
552.296
552.236
552.176
552.13
552.09
552.043
551.995
551.946
551.845
551.709
551.533
551.328
551.135
550.95
550.784
550.612
550.466
550.273
550.116
549.949
549.823
549.688
549.576
549.417
549.271
549.069
548.908
548.685
548.519
548.294
548.149
547.958
547.823
547.66
547.544
547.409
547.324
547.19
547.106
546.969
546.89
546.757
546.703
546.612
546.568
546.484
546.442
546.373
546.34
546.279
546.243
546.188
546.148
546.097
546.037
545.982
545.91
545.847
545.772
545.707
545.631
545.562
545.485
545.415
545.342
545.273
545.202
545.138
545.078
545.021
544.969
544.917
544.867
544.817
544.77
544.723
544.637
544.461
544.312
544.297
544.049
543.89
543.794
543.709
543.652
543.588
543.51
543.431
543.354
543.272
543.187
543.098
543.005
542.91
542.814
542.715
542.615
542.514
542.412
542.309
542.205
542.101
541.996
541.891
541.785
541.679
541.572
541.465
541.358