/*--------------------------------*- C++ -*----------------------------------*\
  =========                 |
  \\      /  F ield         | OpenFOAM: The Open Source CFD Toolbox
   \\    /   O peration     | Website:  https://openfoam.org
    \\  /    A nd           | Version:  6
     \\/     M anipulation  |
\*---------------------------------------------------------------------------*/
FoamFile
{
    version     2.0;
    format      ascii;
    class       volScalarField;
    location    "1500";
    object      Su;
}
// * * * * * * * * * * * * * * * * * * * * * * * * * * * * * * * * * * * * * //

dimensions      [0 0 -1 0 0 0 0];

internalField   nonuniform List<scalar> 
4800
(
0.218804
0.215233
0.211672
0.208124
0.204595
0.201095
0.197644
0.194268
0.190997
0.187871
0.18492
0.182151
0.179567
0.177176
0.17497
0.172943
0.17108
0.169364
0.167778
0.166305
0.164927
0.163626
0.162387
0.161193
0.160032
0.158892
0.157763
0.156638
0.15551
0.154374
0.153225
0.15206
0.150875
0.14966
0.148406
0.147111
0.145773
0.144388
0.142954
0.141476
0.139954
0.138389
0.136785
0.135141
0.133458
0.131735
0.129969
0.128158
0.126292
0.124361
0.122354
0.12026
0.118068
0.115767
0.113347
0.110798
0.108102
0.10525
0.102232
0.0990435
0.0956765
0.0921258
0.0883854
0.0844485
0.0803054
0.0759427
0.0713514
0.0665382
0.0615289
0.0563659
0.0510954
0.045761
0.0404026
0.0350489
0.0297228
0.0244389
0.0191944
0.0139817
0.00883711
0.00394328
-0.000133807
-0.003343
-0.00577442
-0.00797513
-0.0101434
-0.0123548
-0.0146355
-0.0169932
-0.0194278
-0.0219359
-0.0245121
-0.0271501
-0.0298428
-0.0325831
-0.0353643
-0.0381799
-0.0410244
-0.0438926
-0.0467802
-0.0496837
-0.0525999
-0.0555266
-0.0584616
-0.0614033
-0.0643505
-0.067302
-0.0702571
-0.0732151
-0.0761755
-0.0791378
-0.0821016
-0.0850666
-0.0880328
-0.0909997
-0.0939673
-0.0969354
-0.0999039
-0.102873
-0.105842
-0.108811
0.218802
0.215226
0.211658
0.208102
0.204564
0.201056
0.197602
0.19423
0.190977
0.187872
0.184934
0.182177
0.179603
0.177222
0.175033
0.173022
0.171178
0.16948
0.167912
0.166453
0.165088
0.163799
0.162568
0.161381
0.160226
0.15909
0.157964
0.15684
0.155711
0.154573
0.15342
0.152248
0.151054
0.149827
0.148563
0.147258
0.14591
0.144514
0.143074
0.14159
0.14006
0.138489
0.136879
0.135229
0.133541
0.131811
0.130036
0.128212
0.12633
0.124382
0.12236
0.120253
0.118049
0.115739
0.113312
0.110757
0.108059
0.105205
0.102187
0.0989978
0.095632
0.0920836
0.0883464
0.0844153
0.0802829
0.0759398
0.0713788
0.0665991
0.061621
0.0564819
0.051227
0.0459043
0.04055
0.0351925
0.0298521
0.0245336
0.019224
0.0139087
0.00857837
0.00327702
-0.00086659
-0.00393997
-0.00592352
-0.00794133
-0.0100533
-0.0122567
-0.0145457
-0.0169155
-0.0193621
-0.0218809
-0.0244662
-0.0271118
-0.0298108
-0.0325564
-0.0353419
-0.0381611
-0.0410084
-0.0438791
-0.0467687
-0.0496738
-0.0525915
-0.0555194
-0.0584553
-0.0613979
-0.0643458
-0.067298
-0.0702537
-0.0732121
-0.0761729
-0.0791355
-0.0820996
-0.085065
-0.0880314
-0.0909985
-0.0939663
-0.0969346
-0.0999033
-0.102872
-0.105842
-0.108811
0.218799
0.215217
0.211641
0.208075
0.204528
0.201016
0.197566
0.194209
0.190983
0.18791
0.185
0.182267
0.179724
0.177374
0.175214
0.173233
0.171414
0.16974
0.168193
0.166755
0.165407
0.164132
0.162913
0.161738
0.160591
0.159463
0.158341
0.157219
0.15609
0.154948
0.153789
0.152608
0.151399
0.150152
0.148868
0.147543
0.146174
0.144761
0.143307
0.141808
0.140267
0.138685
0.137065
0.135404
0.133702
0.131955
0.130159
0.128308
0.126398
0.124424
0.122378
0.12025
0.118028
0.115702
0.11326
0.110694
0.10799
0.105137
0.102123
0.0989392
0.0955784
0.092035
0.0883051
0.0843851
0.0802696
0.0759534
0.0714307
0.0667014
0.0617796
0.0566936
0.0514851
0.0461978
0.0408707
0.0355338
0.0302008
0.0248697
0.0195264
0.0141212
0.00850624
0.00220081
-0.00498846
-0.00492428
-0.00595198
-0.00774676
-0.00982553
-0.0120461
-0.0143632
-0.0167612
-0.0192328
-0.0217729
-0.0243762
-0.0270366
-0.029748
-0.0325038
-0.0352978
-0.0381239
-0.0409771
-0.0438524
-0.046746
-0.0496545
-0.0525749
-0.055505
-0.058443
-0.0613872
-0.0643366
-0.06729
-0.0702467
-0.0732061
-0.0761677
-0.079131
-0.0820958
-0.0850617
-0.0880286
-0.0909962
-0.0939644
-0.0969331
-0.0999022
-0.102872
-0.105841
-0.108811
0.218798
0.215212
0.211631
0.20806
0.204512
0.201008
0.197577
0.194251
0.191057
0.188016
0.185143
0.18245
0.179951
0.177646
0.175524
0.173578
0.17179
0.170143
0.16862
0.167202
0.165871
0.164611
0.163406
0.162243
0.161107
0.159987
0.158872
0.157753
0.156624
0.155479
0.154312
0.153121
0.151894
0.150627
0.149318
0.147967
0.146571
0.145133
0.143658
0.14214
0.140584
0.138989
0.137355
0.135679
0.133957
0.132187
0.130366
0.128487
0.126546
0.12454
0.12246
0.120297
0.118045
0.115693
0.113233
0.110653
0.107941
0.105087
0.102079
0.098905
0.0955544
0.0920216
0.0883033
0.0843955
0.080297
0.0760071
0.071527
0.0668564
0.0619999
0.056986
0.0518518
0.0466309
0.0413611
0.0360766
0.0307949
0.0255141
0.0202249
0.0149018
0.0095082
0.00402059
-0.00127204
-0.00321984
-0.00512561
-0.00720535
-0.00941446
-0.0117153
-0.014091
-0.0165352
-0.0190446
-0.0216159
-0.024245
-0.0269271
-0.0296563
-0.0324269
-0.0352331
-0.0380694
-0.0409309
-0.0438132
-0.0467126
-0.0496259
-0.0525503
-0.0554839
-0.0584247
-0.0613714
-0.0643229
-0.0672781
-0.0702364
-0.0731972
-0.07616
-0.0791243
-0.0820901
-0.0850568
-0.0880244
-0.0909927
-0.0939616
-0.0969309
-0.0999005
-0.10287
-0.10584
-0.10881
0.2188
0.215217
0.211635
0.208066
0.204526
0.201041
0.197642
0.19436
0.191217
0.188227
0.185402
0.182756
0.180302
0.178041
0.175962
0.174053
0.172298
0.170679
0.169178
0.167779
0.166467
0.165223
0.164034
0.162886
0.161762
0.160651
0.159544
0.158429
0.157299
0.156151
0.154978
0.153776
0.152533
0.151245
0.149912
0.148535
0.147114
0.145653
0.144156
0.142618
0.141043
0.139432
0.13778
0.136085
0.134343
0.13255
0.130701
0.12879
0.126814
0.124769
0.122647
0.120438
0.118141
0.115753
0.113265
0.110665
0.107942
0.105086
0.102082
0.0989159
0.0955757
0.0920565
0.0883511
0.0844551
0.0803737
0.0761125
0.0716757
0.067068
0.0622954
0.0573692
0.0523141
0.0471706
0.0419804
0.0367761
0.0315771
0.0263928
0.021227
0.0160808
0.0109832
0.00606437
0.00168274
-0.00145509
-0.00405382
-0.00648296
-0.00887847
-0.011292
-0.0137455
-0.0162486
-0.0188053
-0.0214157
-0.0240774
-0.0267865
-0.0295384
-0.0323279
-0.0351497
-0.0379989
-0.0408711
-0.0437624
-0.0466692
-0.0495886
-0.0525183
-0.0554563
-0.0584008
-0.0613507
-0.0643049
-0.0672625
-0.0702229
-0.0731854
-0.0761498
-0.0791156
-0.0820825
-0.0850504
-0.088019
-0.0909882
-0.0939579
-0.0969279
-0.0998982
-0.102869
-0.105839
-0.10881
0.218807
0.215238
0.211667
0.208105
0.204578
0.201122
0.197769
0.194543
0.191458
0.188526
0.185758
0.183169
0.180769
0.178556
0.176519
0.174647
0.172925
0.171334
0.169855
0.168478
0.167186
0.165959
0.164788
0.163655
0.162545
0.161445
0.160345
0.159234
0.158106
0.156955
0.155777
0.154565
0.153309
0.152005
0.150654
0.149257
0.147818
0.146338
0.14482
0.14326
0.141666
0.140034
0.138361
0.136643
0.134875
0.133053
0.13117
0.12922
0.127201
0.125109
0.122932
0.120667
0.118321
0.115891
0.113368
0.110739
0.107996
0.105127
0.102119
0.0989554
0.0956247
0.0921225
0.0884376
0.0845619
0.0805022
0.0762686
0.0718692
0.0673114
0.0626036
0.057756
0.0527891
0.0477351
0.0426329
0.0375168
0.0324078
0.0273141
0.0222407
0.0172008
0.0122549
0.00755842
0.00332598
-0.000165397
-0.0031
-0.00575734
-0.00830186
-0.0108188
-0.0133502
-0.0159161
-0.0185251
-0.0211795
-0.0238786
-0.0266192
-0.0293976
-0.0322091
-0.0350494
-0.037914
-0.040799
-0.0437009
-0.0466165
-0.0495434
-0.0524794
-0.0554227
-0.0583717
-0.0613255
-0.064283
-0.0672435
-0.0702063
-0.0731711
-0.0761374
-0.0791048
-0.0820733
-0.0850425
-0.0880123
-0.0909826
-0.0939533
-0.0969242
-0.0998954
-0.102867
-0.105838
-0.10881
0.218821
0.21528
0.211736
0.208206
0.204721
0.201315
0.198017
0.194844
0.191813
0.188936
0.186226
0.183694
0.181348
0.179184
0.177191
0.175356
0.173666
0.172102
0.170649
0.169295
0.168023
0.166816
0.165662
0.164546
0.163449
0.162359
0.161267
0.160161
0.159035
0.157885
0.156705
0.155485
0.154219
0.152904
0.15154
0.150131
0.148678
0.147183
0.145647
0.144071
0.142457
0.140804
0.139106
0.137359
0.135557
0.133697
0.131769
0.129766
0.127688
0.125531
0.123289
0.120968
0.11857
0.116087
0.113511
0.110838
0.108062
0.10517
0.102148
0.0989827
0.0956627
0.0921786
0.0885172
0.0846714
0.0806438
0.0764429
0.0720802
0.0675695
0.0629243
0.0581502
0.053262
0.04829
0.0432666
0.0382215
0.0331789
0.028144
0.0231113
0.0180851
0.0131246
0.00839659
0.00394336
0.000614217
-0.00238871
-0.00512175
-0.00774085
-0.0103286
-0.0129256
-0.0155513
-0.0182135
-0.0209148
-0.0236544
-0.0264298
-0.0292375
-0.0320738
-0.0349348
-0.0378167
-0.0407161
-0.04363
-0.0465558
-0.0494912
-0.0524343
-0.0553836
-0.0583379
-0.0612961
-0.0642574
-0.0672212
-0.070187
-0.0731543
-0.0761228
-0.0790922
-0.0820624
-0.0850332
-0.0880044
-0.090976
-0.0939479
-0.0969199
-0.0998921
-0.102864
-0.105837
-0.108809
0.218842
0.215343
0.211843
0.208361
0.204929
0.20158
0.19834
0.195229
0.192262
0.189449
0.186801
0.184329
0.182038
0.179924
0.177975
0.176178
0.174521
0.172985
0.171558
0.170227
0.168976
0.167788
0.166652
0.16555
0.164465
0.163386
0.162302
0.161203
0.160082
0.158935
0.157755
0.156533
0.155263
0.153943
0.152574
0.151158
0.149698
0.148193
0.146644
0.145052
0.143419
0.141742
0.140015
0.138232
0.136389
0.13448
0.132493
0.130426
0.128275
0.126039
0.123716
0.121315
0.118837
0.11628
0.113641
0.110914
0.108094
0.10517
0.102128
0.0989558
0.095641
0.0921696
0.0885313
0.0847211
0.0807377
0.0765837
0.0722679
0.0678079
0.0632214
0.0585166
0.0537042
0.0488058
0.0438476
0.0388542
0.0338481
0.0288302
0.0237871
0.0187119
0.0136436
0.00869496
0.00423939
0.000909117
-0.0019254
-0.00458862
-0.00720822
-0.00983295
-0.0124821
-0.0151631
-0.0178786
-0.0206284
-0.0234106
-0.0262229
-0.0290621
-0.031925
-0.0348084
-0.037709
-0.0406242
-0.0435513
-0.0464881
-0.0494328
-0.0523838
-0.0553398
-0.0582999
-0.061263
-0.0642286
-0.0671961
-0.0701651
-0.0731352
-0.0761062
-0.0790779
-0.0820501
-0.0850227
-0.0879955
-0.0909685
-0.0939417
-0.096915
-0.0998884
-0.102862
-0.105835
-0.108809
0.218865
0.215413
0.211966
0.208546
0.205182
0.201903
0.198734
0.195696
0.192801
0.19006
0.187481
0.185071
0.182836
0.180773
0.17887
0.177113
0.175489
0.173983
0.172581
0.171273
0.170042
0.168872
0.167752
0.166664
0.165593
0.164525
0.163451
0.16236
0.161246
0.160106
0.15893
0.157712
0.156444
0.155126
0.153759
0.152344
0.150881
0.14937
0.14781
0.146203
0.14455
0.142845
0.141083
0.139258
0.137365
0.135397
0.133341
0.131196
0.128961
0.126635
0.124217
0.121721
0.119153
0.116507
0.113785
0.110984
0.108099
0.105122
0.102045
0.0988541
0.0955332
0.0920657
0.0884465
0.0846708
0.0807325
0.0766328
0.0723778
0.0679791
0.0634543
0.0588197
0.0540847
0.0492586
0.0443571
0.0393987
0.0343993
0.0293591
0.0242673
0.0191026
0.0138234
0.00839277
0.00322792
0.000721015
-0.00162482
-0.0040968
-0.00667441
-0.00932223
-0.0120197
-0.0147563
-0.0175263
-0.0203261
-0.0231527
-0.0260034
-0.0288754
-0.0317662
-0.034673
-0.0375934
-0.0405251
-0.0434661
-0.0464147
-0.0493693
-0.0523288
-0.055292
-0.0582582
-0.0612267
-0.0641969
-0.0671684
-0.0701409
-0.0731142
-0.0760879
-0.079062
-0.0820364
-0.0850109
-0.0879856
-0.0909602
-0.0939349
-0.0969096
-0.0998842
-0.102859
-0.105834
-0.108808
0.218894
0.215499
0.212112
0.208761
0.205479
0.202288
0.199208
0.196253
0.193438
0.190773
0.188267
0.185924
0.183748
0.181738
0.17988
0.178163
0.176574
0.175098
0.173722
0.172435
0.171223
0.170071
0.168965
0.167893
0.166836
0.16578
0.164718
0.163638
0.162536
0.161406
0.160241
0.159031
0.157772
0.156463
0.155103
0.153692
0.152231
0.150716
0.149147
0.147525
0.145849
0.144112
0.142308
0.140433
0.138483
0.136446
0.134312
0.13208
0.129752
0.127326
0.124809
0.122213
0.119541
0.11679
0.113966
0.11107
0.108101
0.105053
0.101919
0.0986867
0.0953421
0.0918668
0.0882553
0.0845052
0.0806087
0.0765612
0.0723649
0.0680309
0.0635771
0.0590191
0.0543635
0.0496131
0.0447742
0.0398544
0.0348568
0.0297873
0.0246458
0.0194089
0.0139354
0.00741796
-0.000306078
0.00036352
-0.00120089
-0.00350429
-0.00607981
-0.00877538
-0.0115345
-0.0143336
-0.0171619
-0.0200139
-0.0228861
-0.0257761
-0.0286817
-0.0316008
-0.0345316
-0.0374721
-0.0404209
-0.0433762
-0.0463369
-0.0493019
-0.0522701
-0.0552409
-0.0582135
-0.0611876
-0.0641627
-0.0671385
-0.0701148
-0.0730914
-0.0760681
-0.0790448
-0.0820215
-0.0849982
-0.0879747
-0.0909511
-0.0939274
-0.0969036
-0.0998797
-0.102856
-0.105832
-0.108808
0.218934
0.215619
0.212316
0.209052
0.205854
0.202751
0.199763
0.196902
0.194177
0.191593
0.189162
0.186888
0.184777
0.182824
0.181014
0.179338
0.177783
0.176337
0.174987
0.173722
0.17253
0.171395
0.170304
0.169251
0.168209
0.167168
0.166123
0.165055
0.163968
0.162855
0.161704
0.160509
0.159263
0.157966
0.156617
0.155212
0.153753
0.152234
0.150654
0.149015
0.147312
0.145538
0.143688
0.14176
0.139744
0.137629
0.135407
0.133081
0.130653
0.128125
0.125505
0.1228
0.120013
0.117144
0.114203
0.111196
0.108124
0.104986
0.101771
0.0984706
0.0950768
0.0915773
0.0879616
0.0842244
0.0803596
0.0763607
0.0722265
0.0679635
0.0635865
0.0591105
0.0545392
0.0498722
0.0451071
0.0402401
0.0352768
0.0302443
0.0251785
0.0200957
0.0149479
0.00970219
0.00483705
0.00236797
-5.17346e-05
-0.00265183
-0.00538014
-0.00818272
-0.0110284
-0.013901
-0.0167925
-0.0196986
-0.0226171
-0.0255464
-0.0284853
-0.0314325
-0.0343871
-0.0373478
-0.0403135
-0.0432832
-0.0462562
-0.0492316
-0.0522088
-0.0551872
-0.0581665
-0.0611464
-0.0641266
-0.0671069
-0.0700871
-0.0730671
-0.0760469
-0.0790264
-0.0820056
-0.0849845
-0.0879631
-0.0909414
-0.0939194
-0.0968972
-0.0998748
-0.102852
-0.10583
-0.108807
0.218977
0.215754
0.212548
0.209385
0.206292
0.203293
0.200405
0.197641
0.195009
0.192517
0.190169
0.187968
0.185918
0.18402
0.182262
0.180633
0.17912
0.177709
0.176388
0.175148
0.173978
0.172862
0.171792
0.170758
0.169734
0.168714
0.167688
0.166636
0.165572
0.16448
0.163348
0.162171
0.160942
0.15966
0.15832
0.15692
0.155462
0.153937
0.152344
0.150684
0.148949
0.147131
0.14523
0.143241
0.141149
0.13895
0.136639
0.134218
0.131688
0.129056
0.126328
0.123505
0.120592
0.117593
0.114519
0.111382
0.108185
0.104927
0.101606
0.098215
0.0947509
0.0912055
0.0875693
0.0838325
0.0799868
0.0760254
0.0719488
0.0677612
0.0634684
0.0590794
0.0546005
0.0500312
0.0453705
0.0406212
0.0357995
0.0309351
0.0260644
0.0212182
0.0164184
0.0117936
0.00767244
0.00428955
0.00125474
-0.00169198
-0.00462792
-0.00756963
-0.0105179
-0.0134712
-0.0164283
-0.0193887
-0.0223526
-0.02532
-0.0282909
-0.0312653
-0.0342427
-0.0372228
-0.040205
-0.0431889
-0.0461738
-0.0491596
-0.0521457
-0.0551318
-0.0581179
-0.0611036
-0.064089
-0.0670738
-0.070058
-0.0730416
-0.0760246
-0.079007
-0.0819888
-0.0849701
-0.0879508
-0.0909311
-0.0939109
-0.0968904
-0.0998696
-0.102849
-0.105827
-0.108806
0.219028
0.215905
0.212804
0.209754
0.20678
0.2039
0.201128
0.198473
0.195943
0.193547
0.191288
0.189171
0.187195
0.18536
0.183655
0.182073
0.180602
0.179228
0.17794
0.176729
0.175586
0.174496
0.173453
0.172443
0.171443
0.170451
0.169447
0.168422
0.167387
0.166321
0.165212
0.164058
0.162847
0.161579
0.160247
0.15885
0.15739
0.155857
0.154249
0.15256
0.150785
0.148915
0.146955
0.144895
0.142725
0.140443
0.138042
0.135524
0.132891
0.130151
0.127306
0.124354
0.1213
0.118152
0.114926
0.111633
0.108284
0.104882
0.101429
0.097927
0.0943714
0.0907567
0.0870775
0.083324
0.0794875
0.0755604
0.0715389
0.0674229
0.0632147
0.058919
0.0545389
0.050079
0.0455464
0.0409503
0.0363071
0.031643
0.0269842
0.0223651
0.0178391
0.0135133
0.00952098
0.00581794
0.0024368
-0.000774946
-0.00390019
-0.00697874
-0.0100295
-0.0130621
-0.0160824
-0.0190942
-0.0221004
-0.025103
-0.0281036
-0.0311029
-0.0341016
-0.0370998
-0.0400975
-0.0430947
-0.0460913
-0.049087
-0.0520817
-0.0550755
-0.0580682
-0.0610598
-0.0640503
-0.0670396
-0.070028
-0.0730152
-0.0760015
-0.0789869
-0.0819713
-0.084955
-0.087938
-0.0909203
-0.093902
-0.0968833
-0.0998642
-0.102845
-0.105825
-0.108805
0.219085
0.216078
0.213099
0.210174
0.207327
0.204573
0.201926
0.199392
0.196978
0.194688
0.192527
0.190497
0.188601
0.186836
0.185195
0.183669
0.182246
0.180913
0.179663
0.178489
0.177381
0.176327
0.175318
0.174339
0.173374
0.172415
0.171444
0.170457
0.169458
0.168426
0.167347
0.16622
0.165029
0.163777
0.162452
0.161058
0.159592
0.158046
0.156414
0.15469
0.152867
0.150939
0.14891
0.14677
0.144517
0.14215
0.13966
0.137046
0.13431
0.131457
0.128483
0.125386
0.122172
0.118851
0.115445
0.111972
0.108447
0.104876
0.101268
0.097625
0.0939489
0.0902396
0.0864934
0.0827023
0.0788587
0.0749554
0.070983
0.0669353
0.0628083
0.0586038
0.0543279
0.0499839
0.0455797
0.0411315
0.0366542
0.0321669
0.0276953
0.0232812
0.0189599
0.0147814
0.0107912
0.00696233
0.00339734
1.06233e-05
-0.00325928
-0.00645173
-0.00959131
-0.0126937
-0.0157695
-0.0188261
-0.021869
-0.0249021
-0.0279283
-0.0309495
-0.0339669
-0.0369812
-0.039993
-0.0430025
-0.0460097
-0.0490149
-0.0520179
-0.055019
-0.0580181
-0.0610154
-0.064011
-0.0670049
-0.0699973
-0.0729882
-0.0759778
-0.0789661
-0.0819533
-0.0849395
-0.0879247
-0.0909091
-0.0938928
-0.0968759
-0.0998585
-0.102841
-0.105823
-0.108805
0.219149
0.216274
0.213428
0.210637
0.207925
0.205307
0.202792
0.200387
0.198095
0.195923
0.193871
0.19194
0.190131
0.188442
0.186869
0.185405
0.184041
0.182763
0.181567
0.180446
0.179388
0.178384
0.177421
0.176487
0.175566
0.174653
0.173726
0.17279
0.171837
0.170848
0.169807
0.168713
0.167552
0.166322
0.165009
0.163619
0.162144
0.160578
0.158914
0.157146
0.155265
0.153271
0.151164
0.148939
0.146598
0.144139
0.141557
0.138843
0.136002
0.133029
0.129912
0.126648
0.123248
0.119727
0.116113
0.112428
0.108692
0.104919
0.101119
0.0973056
0.0934849
0.089657
0.0858201
0.0819698
0.0780994
0.0742013
0.0702645
0.0662752
0.0622242
0.0581086
0.0539316
0.0496973
0.0454143
0.0410967
0.0367627
0.0324292
0.0281192
0.0238623
0.0196809
0.0155958
0.0116195
0.00776245
0.00411137
0.000621266
-0.00274625
-0.00602174
-0.00922875
-0.012385
-0.0155038
-0.0185952
-0.0216666
-0.0247236
-0.02777
-0.0308087
-0.0338415
-0.0368695
-0.0398934
-0.0429137
-0.0459305
-0.0489443
-0.051955
-0.0549629
-0.0579682
-0.060971
-0.0639715
-0.0669698
-0.0699662
-0.0729608
-0.0759536
-0.078945
-0.0819349
-0.0849235
-0.0879111
-0.0908976
-0.0938833
-0.0968683
-0.0998527
-0.102837
-0.10582
-0.108804
0.219217
0.21648
0.213776
0.211131
0.208563
0.206087
0.203712
0.201444
0.199286
0.19724
0.195304
0.19348
0.191768
0.190167
0.188674
0.187286
0.185995
0.184792
0.18367
0.182622
0.181635
0.180697
0.179797
0.178923
0.178063
0.177208
0.176343
0.175468
0.174574
0.17364
0.172651
0.171604
0.170487
0.169289
0.168
0.16662
0.165136
0.163548
0.161846
0.160023
0.158077
0.156006
0.153811
0.151492
0.149055
0.1465
0.143818
0.141001
0.138048
0.134941
0.13166
0.128203
0.12459
0.120841
0.116984
0.11305
0.109064
0.105046
0.101016
0.0969875
0.0929824
0.0890046
0.0850524
0.0811217
0.0772045
0.0732915
0.0693714
0.0654284
0.061447
0.0574158
0.053331
0.0491952
0.0450164
0.0408078
0.0365874
0.0323761
0.0281964
0.0240688
0.020006
0.0160118
0.0120875
0.00825878
0.00458165
0.00103927
-0.0023855
-0.00571256
-0.00896223
-0.0121526
-0.0152985
-0.0184117
-0.0215011
-0.0245734
-0.0276334
-0.0306843
-0.0337283
-0.0367668
-0.0398003
-0.0428296
-0.0458547
-0.0488761
-0.0518937
-0.054908
-0.057919
-0.060927
-0.0639322
-0.0669348
-0.0699351
-0.0729332
-0.0759293
-0.0789236
-0.0819162
-0.0849074
-0.0878972
-0.0908859
-0.0938737
-0.0968606
-0.0998468
-0.102832
-0.105818
-0.108803
0.219288
0.216692
0.214133
0.211635
0.209215
0.206886
0.204657
0.202532
0.200513
0.1986
0.196792
0.195088
0.193487
0.19199
0.190597
0.189308
0.188115
0.187011
0.185988
0.185037
0.184144
0.183296
0.182481
0.181686
0.180903
0.180124
0.179338
0.17854
0.17772
0.176857
0.17594
0.174961
0.173906
0.172758
0.171507
0.170145
0.168662
0.167054
0.165312
0.163432
0.161412
0.159254
0.156961
0.15454
0.152001
0.149343
0.146557
0.143635
0.140569
0.137316
0.133848
0.130171
0.126308
0.122282
0.118132
0.113902
0.109623
0.105318
0.101009
0.0967226
0.0924874
0.0883172
0.0842116
0.0801681
0.076177
0.0722274
0.0683043
0.0643881
0.0604586
0.0564992
0.0524979
0.0484493
0.0443559
0.0402312
0.0360971
0.0319781
0.0279015
0.0238897
0.0199524
0.0160765
0.0122495
0.00848991
0.00482231
0.00126002
-0.00219096
-0.00554069
-0.00880733
-0.0120098
-0.0151643
-0.0182841
-0.0213791
-0.0244568
-0.0275224
-0.0305793
-0.0336298
-0.0366749
-0.0397154
-0.0427515
-0.0457833
-0.0488111
-0.0518348
-0.0548547
-0.057871
-0.0608838
-0.0638935
-0.0669002
-0.0699042
-0.0729057
-0.075905
-0.0789021
-0.0818975
-0.0848911
-0.0878833
-0.0908741
-0.0938639
-0.0968527
-0.0998407
-0.102828
-0.105815
-0.108802
0.219355
0.216895
0.214474
0.212117
0.20984
0.207657
0.205577
0.2036
0.201727
0.199958
0.19829
0.196722
0.195253
0.193886
0.19262
0.191456
0.190391
0.189415
0.18852
0.187696
0.186923
0.18619
0.185484
0.184795
0.184113
0.183431
0.182741
0.182039
0.181312
0.180543
0.179723
0.178836
0.177867
0.17679
0.175593
0.174262
0.17279
0.171169
0.169393
0.167458
0.165365
0.163118
0.160724
0.158198
0.155552
0.152791
0.149906
0.146889
0.143713
0.140303
0.136621
0.132687
0.128524
0.124167
0.11967
0.115092
0.110473
0.105833
0.101195
0.0965958
0.0920733
0.0876572
0.0833513
0.0791536
0.0750541
0.0710382
0.0670868
0.0631737
0.0592717
0.0553582
0.0514136
0.0474268
0.0433963
0.0393326
0.0352602
0.0312096
0.0272145
0.0233083
0.0195151
0.0158071
0.0121406
0.00849807
0.00485116
0.00128244
-0.0021723
-0.0055181
-0.00877549
-0.0119664
-0.0151094
-0.018219
-0.0213059
-0.0243779
-0.0274402
-0.0304962
-0.0335477
-0.0365955
-0.0396397
-0.0426803
-0.0457171
-0.04875
-0.0517788
-0.0548037
-0.0578246
-0.0608419
-0.0638557
-0.0668662
-0.0698737
-0.0728785
-0.0758808
-0.0788808
-0.0818787
-0.0848748
-0.0878692
-0.0908622
-0.093854
-0.0968447
-0.0998346
-0.102824
-0.105813
-0.108801
0.219412
0.217068
0.214766
0.212532
0.210385
0.208339
0.2064
0.204571
0.202852
0.201239
0.199729
0.19832
0.197011
0.195803
0.194697
0.193692
0.192786
0.191971
0.191238
0.190574
0.189955
0.189368
0.188802
0.188248
0.187694
0.187133
0.186562
0.185977
0.185365
0.184714
0.184014
0.183246
0.182383
0.181395
0.180264
0.178978
0.17753
0.175911
0.174116
0.172141
0.169986
0.167661
0.16518
0.162558
0.159816
0.156965
0.153996
0.150901
0.147623
0.144049
0.140131
0.135908
0.131408
0.126679
0.121793
0.116825
0.111816
0.106779
0.101745
0.0967668
0.0918962
0.0871706
0.0826033
0.0781994
0.0739472
0.0698237
0.0658033
0.0618539
0.0579427
0.0540413
0.050124
0.046172
0.0421802
0.0381541
0.034117
0.0301057
0.0261648
0.0223411
0.0186835
0.0151752
0.0117566
0.00834296
0.00467557
0.00109543
-0.00234195
-0.00565488
-0.00887458
-0.0120288
-0.0151388
-0.0182204
-0.0212846
-0.0243392
-0.027389
-0.0304367
-0.0334835
-0.0365295
-0.0395742
-0.0426168
-0.0456567
-0.0486933
-0.0517261
-0.0547551
-0.0577802
-0.0608014
-0.0638189
-0.066833
-0.0698439
-0.0728518
-0.075857
-0.0788597
-0.0818601
-0.0848586
-0.0878552
-0.0908503
-0.0938441
-0.0968368
-0.0998285
-0.10282
-0.10581
-0.1088
0.219449
0.217182
0.214963
0.212821
0.210778
0.208848
0.207039
0.205353
0.203789
0.202343
0.20101
0.199785
0.198666
0.197652
0.196741
0.195933
0.195226
0.19461
0.194078
0.193614
0.193187
0.19278
0.192386
0.191997
0.191603
0.191193
0.190765
0.190318
0.189843
0.18933
0.188766
0.188129
0.187383
0.186493
0.185439
0.18421
0.182801
0.181203
0.17941
0.177418
0.17523
0.172859
0.170326
0.167646
0.164843
0.161937
0.158922
0.155779
0.15243
0.148715
0.144572
0.140053
0.135182
0.130027
0.124687
0.119265
0.113838
0.108391
0.102917
0.0974929
0.0922058
0.0871102
0.0822296
0.0775618
0.0730917
0.0687926
0.0646332
0.0605792
0.0565943
0.0526471
0.0487071
0.0447466
0.0407533
0.0367299
0.0327
0.0287063
0.0247973
0.0210347
0.0174719
0.0141316
0.0110262
0.00789209
0.0042402
0.000656095
-0.00272011
-0.00595943
-0.00910821
-0.0121988
-0.0152539
-0.0182894
-0.0213162
-0.0243415
-0.0273693
-0.0304014
-0.0334378
-0.0364776
-0.0395193
-0.0425614
-0.0456025
-0.0486413
-0.0516771
-0.0547094
-0.057738
-0.0607627
-0.0637836
-0.0668009
-0.0698149
-0.0728257
-0.0758336
-0.0788389
-0.0818418
-0.0848425
-0.0878413
-0.0908385
-0.0938342
-0.0968288
-0.0998224
-0.102815
-0.105808
-0.1088
0.219456
0.217208
0.215018
0.212919
0.210938
0.209091
0.20739
0.205835
0.204425
0.203154
0.202013
0.200996
0.200097
0.19931
0.198633
0.198062
0.197593
0.197219
0.19693
0.196704
0.196505
0.196317
0.196132
0.195942
0.195736
0.195504
0.195244
0.194955
0.19463
0.194261
0.193833
0.19332
0.192685
0.191891
0.190918
0.189754
0.188395
0.186835
0.185068
0.183093
0.180917
0.178553
0.17603
0.173368
0.170584
0.167702
0.164719
0.161603
0.158247
0.154442
0.15011
0.145301
0.140029
0.1344
0.128554
0.122658
0.116838
0.111
0.105061
0.0991396
0.0933907
0.0878811
0.0826329
0.0776398
0.0728785
0.0683147
0.0639141
0.0596441
0.055475
0.0513763
0.0473183
0.0432704
0.0392115
0.0351412
0.0310797
0.0270742
0.0231568
0.0194162
0.0159054
0.0126661
0.00965646
0.00662025
0.00321487
-0.000113742
-0.00332168
-0.00643081
-0.00947221
-0.0124724
-0.0154514
-0.0184237
-0.0213993
-0.024384
-0.0273808
-0.03039
-0.0334104
-0.0364397
-0.0394752
-0.0425143
-0.0455546
-0.0485943
-0.051632
-0.0546668
-0.0576981
-0.0607258
-0.0637497
-0.06677
-0.0697868
-0.0728003
-0.0758108
-0.0788185
-0.0818237
-0.0848267
-0.0878276
-0.0908267
-0.0938244
-0.0968208
-0.0998162
-0.102811
-0.105805
-0.108799
0.21943
0.217135
0.214909
0.212793
0.210818
0.209008
0.207375
0.205927
0.204659
0.203562
0.202621
0.201826
0.201167
0.200634
0.20022
0.199919
0.199724
0.199627
0.199614
0.199658
0.199722
0.19979
0.199849
0.19989
0.199897
0.199865
0.199787
0.199661
0.199485
0.199248
0.198935
0.198521
0.19797
0.197249
0.196339
0.195233
0.193924
0.192412
0.190696
0.188779
0.186673
0.184396
0.181981
0.179453
0.176824
0.174108
0.171291
0.168309
0.165025
0.161204
0.156748
0.151677
0.146
0.139886
0.133552
0.127258
0.121171
0.11503
0.10864
0.102185
0.0959578
0.0900347
0.084415
0.0790696
0.0739478
0.0690085
0.0642179
0.0595593
0.0550228
0.0505922
0.0462496
0.0419725
0.0377365
0.0335332
0.0293694
0.0252926
0.0213281
0.0175745
0.0140805
0.0108975
0.00797698
0.00506291
0.00196091
-0.0011016
-0.00409978
-0.00704326
-0.00995
-0.0128381
-0.0157233
-0.0186176
-0.0215295
-0.0244636
-0.0274212
-0.0304012
-0.0334005
-0.0364153
-0.0394416
-0.0424753
-0.0455131
-0.0485522
-0.0515908
-0.0546273
-0.0576609
-0.060691
-0.0637175
-0.0667404
-0.0697598
-0.0727758
-0.0757886
-0.0787986
-0.081806
-0.084811
-0.087814
-0.0908151
-0.0938146
-0.0968129
-0.0998101
-0.102806
-0.105802
-0.108798
0.219381
0.21699
0.214677
0.21249
0.210468
0.208644
0.207037
0.205655
0.204491
0.203536
0.202775
0.20219
0.201765
0.201483
0.201336
0.201312
0.201401
0.201592
0.201867
0.202197
0.202546
0.202893
0.20322
0.20351
0.203746
0.203919
0.20402
0.204046
0.203993
0.203853
0.20361
0.20324
0.202716
0.202014
0.201121
0.200039
0.198768
0.19731
0.195671
0.19386
0.191899
0.189815
0.187644
0.185411
0.183122
0.180771
0.178295
0.175588
0.172489
0.168768
0.164332
0.159116
0.153089
0.14656
0.139871
0.133375
0.127261
0.120996
0.114228
0.107215
0.100536
0.0942761
0.0883613
0.0827024
0.0771927
0.0717709
0.0664029
0.0611101
0.0559272
0.050879
0.0459856
0.0412453
0.0366364
0.0321402
0.0277556
0.0235219
0.0194705
0.0156819
0.0122003
0.00906499
0.00622422
0.00347769
0.000597653
-0.00221062
-0.00498951
-0.00775473
-0.010514
-0.0132774
-0.0160565
-0.0188617
-0.0217003
-0.0245755
-0.0274872
-0.0304324
-0.0334064
-0.0364034
-0.0394177
-0.042444
-0.0454777
-0.0485151
-0.0515535
-0.054591
-0.0576261
-0.0606583
-0.063687
-0.0667122
-0.0697338
-0.0727521
-0.0757672
-0.0787793
-0.0817887
-0.0847957
-0.0878005
-0.0908035
-0.0938049
-0.0968049
-0.0998039
-0.102802
-0.1058
-0.108797
0.219352
0.216895
0.214505
0.212233
0.210132
0.208247
0.206608
0.205229
0.204108
0.20323
0.202576
0.202125
0.201859
0.201765
0.201824
0.202024
0.20235
0.202785
0.203311
0.203901
0.20452
0.205141
0.205731
0.206264
0.206718
0.207079
0.207333
0.207473
0.207494
0.207391
0.207144
0.206736
0.206151
0.205381
0.204432
0.203315
0.202048
0.200642
0.199112
0.197473
0.195755
0.193996
0.192238
0.190503
0.188791
0.187063
0.185151
0.182908
0.180164
0.176741
0.172562
0.167381
0.161154
0.154456
0.147713
0.141352
0.135577
0.12943
0.122392
0.114804
0.107762
0.101337
0.0953084
0.0894795
0.0836484
0.0776928
0.071547
0.0653169
0.0591148
0.0530447
0.0472083
0.0416671
0.0363901
0.0313467
0.0265457
0.0220148
0.0177953
0.013938
0.0104615
0.00738111
0.00460931
0.00196913
-0.000800131
-0.00333587
-0.0059052
-0.00850677
-0.0111262
-0.013765
-0.0164339
-0.0191439
-0.0219028
-0.0247134
-0.0275742
-0.0304805
-0.0334257
-0.0364022
-0.0394025
-0.0424197
-0.0454479
-0.0484826
-0.0515201
-0.0545578
-0.057594
-0.0606278
-0.0636583
-0.0666855
-0.0697091
-0.0727294
-0.0757464
-0.0787605
-0.0817718
-0.0847806
-0.0877872
-0.090792
-0.0937951
-0.0967969
-0.0997976
-0.102798
-0.105797
-0.108796
0.219455
0.217169
0.214875
0.212621
0.210478
0.208512
0.206774
0.205292
0.204075
0.203115
0.202395
0.201897
0.201606
0.201506
0.201583
0.201826
0.202219
0.202747
0.203392
0.204133
0.20494
0.205769
0.206571
0.207302
0.207928
0.208424
0.208772
0.208964
0.20899
0.208843
0.2085
0.207949
0.207193
0.206251
0.205152
0.203937
0.202647
0.20131
0.199945
0.198574
0.197222
0.195939
0.194778
0.193777
0.192933
0.192145
0.191103
0.189607
0.1875
0.184697
0.181115
0.176239
0.170099
0.163636
0.157313
0.151539
0.146439
0.140627
0.133501
0.125437
0.118241
0.111942
0.106104
0.100412
0.0944719
0.0879734
0.0807606
0.0732168
0.0655858
0.0580321
0.0507675
0.0439983
0.0376468
0.0316716
0.0261542
0.0211245
0.0165967
0.0125895
0.00909474
0.00608407
0.00338798
0.000770987
-0.00111526
-0.00428406
-0.00671147
-0.00921694
-0.0117362
-0.014269
-0.016834
-0.0194492
-0.0221262
-0.0248693
-0.0276764
-0.0305413
-0.0334556
-0.0364098
-0.0393946
-0.0424015
-0.0454233
-0.0484544
-0.0514902
-0.0545277
-0.0575645
-0.0605994
-0.0636314
-0.0666602
-0.0696856
-0.0727077
-0.0757265
-0.0787422
-0.0817553
-0.0847658
-0.0877741
-0.0907805
-0.0937853
-0.0967887
-0.0997912
-0.102793
-0.105794
-0.108795
0.21992
0.218458
0.216754
0.214837
0.212806
0.210783
0.20886
0.207101
0.205541
0.204192
0.203056