/*--------------------------------*- C++ -*----------------------------------*\
  =========                 |
  \\      /  F ield         | OpenFOAM: The Open Source CFD Toolbox
   \\    /   O peration     | Website:  https://openfoam.org
    \\  /    A nd           | Version:  6
     \\/     M anipulation  |
\*---------------------------------------------------------------------------*/
FoamFile
{
    version     2.0;
    format      ascii;
    class       volScalarField;
    location    "1500";
    object      T;
}
// * * * * * * * * * * * * * * * * * * * * * * * * * * * * * * * * * * * * * //

dimensions      [0 0 0 1 0 0 0];

internalField   nonuniform List<scalar> 
4800
(
552.485
552.356
552.227
552.098
551.97
551.843
551.718
551.595
551.477
551.363
551.256
551.156
551.062
550.975
550.895
550.822
550.754
550.692
550.635
550.581
550.531
550.484
550.439
550.396
550.354
550.312
550.271
550.231
550.19
550.148
550.107
550.065
550.022
549.977
549.932
549.885
549.836
549.786
549.734
549.681
549.625
549.569
549.51
549.451
549.39
549.327
549.263
549.198
549.13
549.06
548.987
548.911
548.832
548.748
548.661
548.568
548.47
548.367
548.257
548.142
548.02
547.891
547.755
547.612
547.462
547.304
547.137
546.963
546.781
546.594
546.403
546.209
546.015
545.821
545.628
545.436
545.246
545.057
544.871
544.693
544.542
544.429
544.341
544.261
544.182
544.102
544.019
543.934
543.845
543.754
543.661
543.565
543.468
543.368
543.267
543.165
543.062
542.958
542.853
542.748
542.642
542.536
542.43
542.323
542.216
542.109
542.002
541.895
541.787
541.68
541.572
541.465
541.357
541.25
541.142
541.035
540.927
540.819
540.712
540.604
552.485
552.355
552.226
552.097
551.969
551.842
551.716
551.594
551.476
551.363
551.257
551.157
551.063
550.977
550.898
550.825
550.758
550.696
550.639
550.587
550.537
550.49
550.446
550.403
550.361
550.32
550.279
550.238
550.197
550.156
550.114
550.071
550.028
549.984
549.938
549.89
549.841
549.791
549.739
549.685
549.629
549.572
549.514
549.454
549.393
549.33
549.266
549.2
549.131
549.061
548.987
548.911
548.831
548.747
548.659
548.567
548.469
548.365
548.256
548.14
548.018
547.889
547.754
547.611
547.461
547.304
547.138
546.965
546.785
546.598
546.408
546.215
546.02
545.826
545.633
545.44
545.247
545.055
544.861
544.669
544.497
544.407
544.335
544.262
544.186
544.106
544.023
543.937
543.848
543.756
543.663
543.567
543.469
543.369
543.268
543.166
543.063
542.959
542.854
542.749
542.643
542.537
542.43
542.323
542.216
542.109
542.002
541.895
541.787
541.68
541.573
541.465
541.357
541.25
541.142
541.035
540.927
540.819
540.712
540.604
552.485
552.355
552.225
552.096
551.967
551.84
551.715
551.593
551.476
551.365
551.259
551.16
551.068
550.983
550.904
550.832
550.766
550.706
550.65
550.598
550.549
550.502
550.458
550.416
550.374
550.333
550.292
550.252
550.211
550.169
550.127
550.084
550.041
549.995
549.949
549.901
549.851
549.8
549.747
549.693
549.637
549.579
549.521
549.46
549.399
549.335
549.27
549.203
549.134
549.062
548.988
548.911
548.83
548.746
548.657
548.564
548.466
548.363
548.253
548.138
548.016
547.888
547.752
547.61
547.461
547.304
547.14
546.969
546.79
546.606
546.417
546.225
546.032
545.839
545.645
545.452
545.258
545.062
544.859
544.63
544.316
544.372
544.334
544.269
544.194
544.113
544.029
543.942
543.852
543.76
543.666
543.569
543.471
543.371
543.27
543.167
543.064
542.96
542.855
542.749
542.643
542.537
542.43
542.324
542.217
542.11
542.002
541.895
541.788
541.68
541.573
541.465
541.358
541.25
541.142
541.035
540.927
540.819
540.712
540.604
552.485
552.355
552.225
552.096
551.967
551.84
551.715
551.595
551.479
551.369
551.264
551.167
551.076
550.992
550.916
550.845
550.78
550.72
550.665
550.614
550.565
550.52
550.476
550.434
550.393
550.352
550.312
550.271
550.23
550.189
550.146
550.103
550.058
550.012
549.965
549.916
549.865
549.813
549.76
549.705
549.648
549.59
549.531
549.47
549.408
549.344
549.278
549.209
549.139
549.066
548.991
548.913
548.831
548.746
548.656
548.563
548.464
548.361
548.252
548.137
548.015
547.887
547.752
547.611
547.462
547.306
547.144
546.974
546.798
546.616
546.43
546.241
546.05
545.858
545.667
545.475
545.284
545.091
544.895
544.696
544.504
544.434
544.364
544.289
544.209
544.125
544.039
543.95
543.859
543.766
543.671
543.573
543.474
543.374
543.272
543.169
543.066
542.961
542.856
542.75
542.644
542.538
542.431
542.324
542.217
542.11
542.003
541.895
541.788
541.68
541.573
541.465
541.358
541.25
541.142
541.035
540.927
540.819
540.712
540.604
552.485
552.355
552.225
552.096
551.967
551.841
551.718
551.599
551.485
551.376
551.274
551.178
551.089
551.007
550.931
550.862
550.799
550.74
550.685
550.635
550.587
550.542
550.499
550.457
550.416
550.376
550.336
550.296
550.255
550.213
550.17
550.127
550.082
550.035
549.987
549.937
549.885
549.832
549.778
549.722
549.665
549.606
549.547
549.485
549.422
549.357
549.29
549.22
549.149
549.075
548.998
548.918
548.834
548.748
548.657
548.563
548.464
548.361
548.252
548.137
548.016
547.888
547.754
547.613
547.465
547.31
547.149
546.982
546.809
546.63
546.447
546.261
546.072
545.884
545.695
545.507
545.32
545.133
544.948
544.77
544.611
544.497
544.403
544.315
544.228
544.141
544.052
543.961
543.868
543.773
543.677
543.579
543.479
543.378
543.275
543.172
543.068
542.963
542.857
542.752
542.645
542.539
542.432
542.325
542.218
542.111
542.003
541.896
541.788
541.681
541.573
541.466
541.358
541.25
541.143
541.035
540.927
540.819
540.712
540.604
552.485
552.356
552.226
552.097
551.969
551.844
551.722
551.605
551.493
551.387
551.287
551.193
551.106
551.026
550.952
550.884
550.821
550.764
550.71
550.66
550.613
550.569
550.526
550.485
550.445
550.405
550.365
550.325
550.284
550.242
550.199
550.155
550.11
550.062
550.013
549.963
549.911
549.857
549.802
549.745
549.687
549.628
549.568
549.505
549.441
549.375
549.307
549.236
549.163
549.087
549.008
548.926
548.841
548.753
548.661
548.566
548.466
548.362
548.253
548.138
548.018
547.891
547.757
547.617
547.469
547.316
547.156
546.991
546.82
546.644
546.464
546.281
546.096
545.91
545.725
545.54
545.357
545.174
544.994
544.824
544.671
544.544
544.438
544.341
544.249
544.158
544.066
543.973
543.878
543.782
543.684
543.585
543.484
543.382
543.279
543.175
543.07
542.965
542.859
542.753
542.647
542.54
542.433
542.326
542.219
542.111
542.004
541.896
541.789
541.681
541.574
541.466
541.358
541.25
541.143
541.035
540.927
540.819
540.712
540.604
552.486
552.357
552.229
552.101
551.974
551.851
551.731
551.616
551.506
551.402
551.304
551.212
551.127
551.048
550.976
550.91
550.848
550.792
550.739
550.69
550.644
550.6
550.558
550.517
550.478
550.438
550.398
550.358
550.318
550.276
550.233
550.189
550.143
550.095
550.046
549.994
549.942
549.888
549.832
549.775
549.716
549.656
549.595
549.531
549.466
549.398
549.328
549.256
549.18
549.102
549.021
548.937
548.85
548.76
548.666
548.569
548.469
548.364
548.254
548.139
548.019
547.893
547.76
547.62
547.474
547.322
547.164
547
546.832
546.659
546.481
546.301
546.119
545.936
545.753
545.571
545.388
545.206
545.026
544.855
544.7
544.572
544.463
544.364
544.269
544.175
544.081
543.986
543.889
543.791
543.692
543.591
543.49
543.387
543.283
543.179
543.073
542.968
542.862
542.755
542.648
542.541
542.434
542.327
542.22
542.112
542.005
541.897
541.789
541.682
541.574
541.466
541.358
541.251
541.143
541.035
540.927
540.819
540.712
540.604
552.487
552.36
552.233
552.106
551.982
551.861
551.743
551.63
551.523
551.421
551.325
551.235
551.152
551.075
551.005
550.939
550.879
550.824
550.772
550.724
550.678
550.635
550.594
550.554
550.515
550.475
550.436
550.396
550.356
550.314
550.271
550.227
550.181
550.133
550.083
550.032
549.979
549.924
549.868
549.81
549.751
549.69
549.628
549.563
549.496
549.427
549.355
549.28
549.202
549.121
549.036
548.949
548.859
548.767
548.671
548.572
548.47
548.364
548.253
548.138
548.018
547.892
547.76
547.622
547.478
547.327
547.171
547.009
546.843
546.672
546.497
546.32
546.14
545.959
545.777
545.595
545.412
545.228
545.045
544.865
544.704
544.583
544.48
544.384
544.289
544.193
544.097
544
543.902
543.802
543.701
543.599
543.496
543.392
543.288
543.182
543.077
542.971
542.864
542.757
542.65
542.543
542.436
542.328
542.221
542.113
542.005
541.898
541.79
541.682
541.574
541.467
541.359
541.251
541.143
541.035
540.927
540.82
540.712
540.604
552.487
552.362
552.237
552.113
551.991
551.872
551.757
551.647
551.542
551.443
551.349
551.262
551.181
551.106
551.037
550.973
550.914
550.86
550.809
550.762
550.717
550.674
550.634
550.594
550.555
550.517
550.478
550.438
550.398
550.356
550.314
550.27
550.224
550.176
550.126
550.075
550.022
549.967
549.91
549.852
549.792
549.73
549.666
549.6
549.531
549.46
549.385
549.308
549.227
549.142
549.054
548.964
548.871
548.775
548.676
548.574
548.47
548.362
548.25
548.135
548.014
547.888
547.757
547.62
547.478
547.329
547.175
547.015
546.851
546.683
546.511
546.336
546.158
545.979
545.797
545.614
545.43
545.243
545.051
544.854
544.667
544.576
544.491
544.401
544.308
544.212
544.114
544.015
543.914
543.813
543.71
543.607
543.503
543.398
543.293
543.187
543.08
542.974
542.867
542.76
542.652
542.545
542.437
542.33
542.222
542.114
542.006
541.898
541.791
541.683
541.575
541.467
541.359
541.251
541.143
541.035
540.928
540.82
540.712
540.604
552.488
552.365
552.243
552.121
552.002
551.886
551.775
551.667
551.565
551.469
551.378
551.293
551.214
551.141
551.074
551.011
550.954
550.9
550.85
550.804
550.76
550.718
550.678
550.639
550.601
550.562
550.524
550.485
550.445
550.404
550.361
550.317
550.272
550.224
550.175
550.124
550.071
550.016
549.959
549.9
549.839
549.776
549.711
549.643
549.572
549.498
549.421
549.34
549.255
549.167
549.076
548.982
548.885
548.785
548.683
548.578
548.47
548.359
548.246
548.128
548.007
547.881
547.75
547.614
547.473
547.326
547.174
547.017
546.855
546.69
546.521
546.349
546.173
545.995
545.814
545.63
545.444
545.254
545.055
544.83
544.533
544.563
544.506
544.423
544.329
544.232
544.132
544.03
543.928
543.824
543.72
543.615
543.51
543.404
543.298
543.191
543.084
542.977
542.87
542.762
542.654
542.547
542.439
542.331
542.223
542.115
542.007
541.899
541.791
541.683
541.575
541.467
541.359
541.252
541.144
541.036
540.928
540.82
540.712
540.604
552.49
552.37
552.25
552.132
552.016
551.903
551.795
551.691
551.592
551.498
551.41
551.328
551.251
551.18
551.115
551.054
550.998
550.945
550.896
550.85
550.807
550.766
550.727
550.688
550.651
550.613
550.575
550.536
550.497
550.456
550.415
550.371
550.326
550.279
550.23
550.179
550.126
550.071
550.014
549.954
549.892
549.828
549.761
549.691
549.618
549.541
549.46
549.376
549.288
549.196
549.101
549.003
548.902
548.798
548.691
548.582
548.471
548.357
548.24
548.121
547.997
547.871
547.739
547.604
547.464
547.319
547.169
547.014
546.856
546.693
546.528
546.358
546.185
546.009
545.829
545.647
545.463
545.279
545.092
544.902
544.725
544.636
544.548
544.454
544.355
544.253
544.15
544.046
543.941
543.836
543.73
543.623
543.517
543.41
543.303
543.196
543.088
542.98
542.872
542.765
542.657
542.549
542.441
542.332
542.224
542.116
542.008
541.9
541.792
541.684
541.576
541.468
541.36
541.252
541.144
541.036
540.928
540.82
540.712
540.604
552.491
552.375
552.258
552.144
552.031
551.923
551.818
551.718
551.622
551.532
551.447
551.367
551.293
551.224
551.16
551.101
551.046
550.995
550.947
550.902
550.86
550.819
550.781
550.743
550.706
550.669
550.632
550.594
550.555
550.515
550.474
550.432
550.387
550.34
550.292
550.241
550.188
550.133
550.075
550.015
549.952
549.886
549.817
549.745
549.669
549.589
549.505
549.417
549.325
549.23
549.131
549.029
548.923
548.814
548.703
548.589
548.473
548.355
548.234
548.111
547.986
547.857
547.725
547.59
547.45
547.307
547.159
547.007
546.851
546.692
546.53
546.364
546.195
546.023
545.848
545.672
545.495
545.319
545.145
544.977
544.828
544.705
544.595
544.489
544.382
544.275
544.168
544.061
543.954
543.847
543.739
543.632
543.524
543.416
543.308
543.2
543.092
542.984
542.875
542.767
542.659
542.551
542.442
542.334
542.226
542.117
542.009
541.901
541.793
541.685
541.577
541.468
541.36
541.252
541.144
541.036
540.928
540.82
540.712
540.604
552.493
552.38
552.268
552.157
552.049
551.945
551.844
551.748
551.656
551.569
551.487
551.411
551.339
551.273
551.211
551.153
551.1
551.05
551.004
550.96
550.918
550.879
550.841
550.804
550.768
550.732
550.696
550.659
550.621
550.582
550.542
550.5
550.456
550.41
550.362
550.311
550.258
550.203
550.144
550.083
550.019
549.951
549.88
549.805
549.726
549.643
549.556
549.465
549.369
549.27
549.167
549.06
548.949
548.834
548.717
548.598
548.476
548.353
548.228
548.101
547.972
547.841
547.707
547.571
547.432
547.29
547.144
546.995
546.842
546.686
546.527
546.366
546.201
546.035
545.866
545.697
545.528
545.361
545.197
545.04
544.895
544.761
544.638
544.522
544.408
544.297
544.186
544.076
543.967
543.857
543.748
543.64
543.531
543.422
543.313
543.205
543.096
542.987
542.878
542.77
542.661
542.553
542.444
542.336
542.227
542.119
542.01
541.902
541.794
541.685
541.577
541.469
541.361
541.253
541.145
541.036
540.928
540.82
540.712
540.604
552.495
552.386
552.278
552.172
552.069
551.969
551.873
551.781
551.694
551.611
551.532
551.459
551.39
551.326
551.267
551.211
551.16
551.111
551.066
551.024
550.983
550.945
550.909
550.873
550.838
550.803
550.768
550.733
550.696
550.659
550.62
550.579
550.536
550.49
550.442
550.392
550.338
550.282
550.223
550.161
550.094
550.024
549.951
549.873
549.791
549.706
549.615
549.52
549.421
549.317
549.21
549.097
548.98
548.86
548.736
548.61
548.482
548.353
548.222
548.09
547.956
547.822
547.686
547.548
547.409
547.268
547.123
546.977
546.827
546.675
546.52
546.362
546.202
546.041
545.879
545.716
545.554
545.394
545.237
545.086
544.941
544.802
544.673
544.55
544.432
544.316
544.202
544.09
543.978
543.867
543.757
543.647
543.537
543.428
543.318
543.209
543.1
542.99
542.881
542.772
542.664
542.555
542.446
542.337
542.229
542.12
542.011
541.903
541.795
541.686
541.578
541.47
541.361
541.253
541.145
541.037
540.929
540.82
540.712
540.604
552.498
552.393
552.29
552.189
552.091
551.996
551.905
551.817
551.734
551.655
551.581
551.511
551.446
551.384
551.327
551.274
551.225
551.179
551.135
551.095
551.056
551.02
550.985
550.951
550.918
550.885
550.851
550.817
550.783
550.747
550.709
550.67
550.628
550.583
550.535
550.485
550.431
550.375
550.314
550.25
550.182
550.109
550.033
549.952
549.867
549.778
549.684
549.586
549.483
549.375
549.262
549.143
549.02
548.892
548.761
548.627
548.491
548.354
548.217
548.078
547.939
547.801
547.661
547.522
547.381
547.24
547.097
546.953
546.806
546.657
546.505
546.352
546.196
546.04
545.883
545.725
545.569
545.415
545.263
545.115
544.971
544.831
544.699
544.572
544.45
544.331
544.215
544.101
543.988
543.876
543.764
543.653
543.543
543.433
543.323
543.213
543.103
542.994
542.884
542.775
542.666
542.557
542.448
542.339
542.23
542.121
542.013
541.904
541.795
541.687
541.579
541.47
541.362
541.253
541.145
541.037
540.929
540.821
540.712
540.604
552.5
552.401
552.303
552.207
552.114
552.024
551.938
551.856
551.777
551.703
551.633
551.567
551.505
551.447
551.393
551.342
551.296
551.252
551.212
551.174
551.138
551.104
551.071
551.04
551.009
550.978
550.946
550.915
550.882
550.848
550.813
550.775
550.734
550.691
550.644
550.594
550.54
550.483
550.421
550.355
550.284
550.209
550.129
550.045
549.957
549.864
549.767
549.665
549.558
549.445
549.326
549.2
549.069
548.933
548.793
548.65
548.505
548.359
548.213
548.067
547.921
547.777
547.634
547.491
547.349
547.207
547.065
546.922
546.777
546.631
546.483
546.333
546.182
546.029
545.876
545.723
545.572
545.422
545.275
545.13
544.988
544.849
544.716
544.587
544.463
544.343
544.225
544.109
543.995
543.882
543.77
543.659
543.548
543.437
543.327
543.217
543.107
542.997
542.887
542.777
542.668
542.559
542.45
542.34
542.231
542.123
542.014
541.905
541.796
541.688
541.579
541.471
541.362
541.254
541.146
541.037
540.929
540.821
540.712
540.604
552.503
552.409
552.316
552.225
552.137
552.053
551.972
551.895
551.822
551.752
551.687
551.625
551.567
551.513
551.462
551.416
551.373
551.333
551.296
551.261
551.229
551.198
551.169
551.14
551.112
551.083
551.055
551.026
550.996
550.965
550.932
550.897
550.858
550.817
550.772
550.722
550.668
550.61
550.547
550.479
550.406
550.327
550.244
550.156
550.064
549.968
549.867
549.761
549.65
549.532
549.406
549.272
549.132
548.986
548.835
548.681
548.526
548.37
548.213
548.057
547.904
547.752
547.603
547.457
547.312
547.168
547.026
546.884
546.742
546.598
546.453
546.306
546.158
546.008
545.858
545.709
545.561
545.416
545.273
545.132
544.994
544.858
544.725
544.595
544.47
544.349
544.23
544.114
544
543.887
543.775
543.663
543.552
543.441
543.33
543.22
543.11
543
542.89
542.78
542.67
542.561
542.451
542.342
542.233
542.124
542.015
541.906
541.797
541.689
541.58
541.471
541.363
541.254
541.146
541.038
540.929
540.821
540.712
540.604
552.505
552.416
552.328
552.242
552.16
552.081
552.005
551.933
551.866
551.801
551.741
551.684
551.631
551.581
551.536
551.493
551.455
551.42
551.387
551.357
551.329
551.303
551.278
551.253
551.228
551.203
551.178
551.153
551.127
551.099
551.069
551.037
551.002
550.963
550.92
550.872
550.818
550.76
550.695
550.625
550.549
550.468
550.381
550.289
550.193
550.093
549.989
549.88
549.764
549.641
549.507
549.364
549.213
549.055
548.892
548.725
548.558
548.389
548.22
548.053
547.889
547.729
547.572
547.42
547.271
547.126
546.982
546.84
546.699
546.557
546.414
546.269
546.123
545.975
545.828
545.681
545.536
545.394
545.257
545.123
544.99
544.858
544.726
544.596
544.471
544.35
544.232
544.116
544.002
543.889
543.777
543.666
543.555
543.444
543.333
543.223
543.112
543.002
542.892
542.782
542.672
542.562
542.453
542.344
542.234
542.125
542.016
541.907
541.798
541.689
541.581
541.472
541.363
541.255
541.146
541.038
540.929
540.821
540.713
540.604
552.507
552.422
552.339
552.257
552.179
552.105
552.035
551.968
551.906
551.848
551.793
551.742
551.694
551.651
551.611
551.574
551.542
551.512
551.486
551.462
551.439
551.418
551.398
551.378
551.358
551.337
551.317
551.296
551.274
551.25
551.225
551.197
551.166
551.13
551.089
551.042
550.99
550.931
550.866
550.795
550.717
550.633
550.543
550.448
550.348
550.245
550.138
550.026
549.907
549.777
549.635
549.482
549.319
549.147
548.97
548.789
548.607
548.424
548.241
548.06
547.884
547.712
547.546
547.386
547.232
547.082
546.936
546.793
546.651
546.509
546.367
546.224
546.079
545.933
545.786
545.641
545.498
545.359
545.227
545.1
544.976
544.852
544.719
544.589
544.465
544.345
544.228
544.114
544.001
543.889
543.778
543.667
543.557
543.446
543.336
543.225
543.115
543.004
542.894
542.784
542.674
542.564
542.455
542.345
542.236
542.126
542.017
541.908
541.799
541.69
541.581
541.473
541.364
541.255
541.147
541.038
540.93
540.821
540.713
540.604
552.509
552.426
552.346
552.268
552.194
552.124
552.058
551.997
551.94
551.887
551.839
551.795
551.754
551.717
551.684
551.655
551.63
551.607
551.588
551.571
551.556
551.541
551.527
551.513
551.499
551.484
551.469
551.453
551.436
551.417
551.397
551.374
551.347
551.314
551.276
551.232
551.181
551.123
551.058
550.986
550.906
550.821
550.729
550.632
550.531
550.426
550.317
550.203
550.082
549.947
549.797
549.633
549.457
549.27
549.076
548.879
548.682
548.484
548.285
548.088
547.896
547.711
547.534
547.364
547.202
547.046
546.895
546.747
546.603
546.459
546.316
546.172
546.027
545.881
545.735
545.59
545.448
545.312
545.183
545.062
544.949
544.844
544.703
544.573
544.451
544.334
544.219
544.107
543.997
543.887
543.777
543.667
543.557
543.447
543.337
543.227
543.117
543.006
542.896
542.786
542.676
542.566
542.456
542.346
542.237
542.127
542.018
541.909
541.8
541.691
541.582
541.473
541.364
541.256
541.147
541.038
540.93
540.821
540.713
540.604
552.509
552.427
552.348
552.271
552.199
552.132
552.071
552.014
551.963
551.917
551.875
551.838
551.806
551.777
551.753
551.732
551.715
551.702
551.691
551.683
551.676
551.669
551.662
551.656
551.648
551.64
551.631
551.62
551.608
551.595
551.579
551.561
551.538
551.509
551.474
551.431
551.382
551.326
551.262
551.19
551.112
551.026
550.935
550.839
550.738
550.634
550.527
550.414
550.293
550.155
549.998
549.824
549.633
549.429
549.217
549.003
548.792
548.58
548.364
548.149
547.941
547.741
547.55
547.369
547.196
547.03
546.87
546.715
546.563
546.414
546.267
546.119
545.972
545.824
545.677
545.531
545.389
545.253
545.126
545.009
544.9
544.789
544.666
544.546
544.429
544.317
544.206
544.097
543.989
543.882
543.774
543.666
543.557
543.448
543.338
543.228
543.118
543.008
542.898
542.788
542.677
542.567
542.458
542.348
542.238
542.129
542.019
541.91
541.801
541.692
541.583
541.474
541.365
541.256
541.147
541.039
540.93
540.821
540.713
540.604
552.508
552.425
552.344
552.267
552.195
552.13
552.07
552.018
551.972
551.932
551.897
551.868
551.844
551.825
551.81
551.799
551.792
551.788
551.788
551.789
551.792
551.794
551.796
551.798
551.798
551.797
551.794
551.789
551.783
551.774
551.763
551.748
551.728
551.701
551.668
551.628
551.581
551.526
551.464
551.395
551.319
551.236
551.149
551.058
550.963
550.865
550.764
550.656
550.538
550.4
550.239
550.055
549.85
549.629
549.399
549.171
548.95
548.728
548.496
548.262
548.036
547.821
547.617
547.423
547.238
547.058
546.884
546.714
546.549
546.388
546.229
546.074
545.919
545.767
545.615
545.467
545.323
545.187
545.06
544.945
544.839
544.733
544.621
544.51
544.401
544.294
544.189
544.084
543.98
543.875
543.769
543.663
543.555
543.447
543.339
543.229
543.12
543.01
542.899
542.789
542.679
542.569
542.459
542.349
542.239
542.13
542.02
541.911
541.801
541.692
541.583
541.474
541.365
541.256
541.148
541.039
540.93
540.822
540.713
540.604
552.506
552.42
552.336
552.257
552.184
552.118
552.059
552.009
551.966
551.931
551.903
551.882
551.866
551.856
551.85
551.849
551.852
551.858
551.868
551.88
551.893
551.905
551.917
551.927
551.936
551.942
551.946
551.946
551.944
551.939
551.93
551.916
551.897
551.872
551.839
551.8
551.754
551.701
551.642
551.576
551.505
551.43
551.352
551.272
551.19
551.105
551.016
550.919
550.807
550.673
550.513
550.325
550.107
549.871
549.629
549.394
549.172
548.945
548.7
548.446
548.204
547.978
547.763
547.559
547.359
547.162
546.966
546.774
546.585
546.401
546.222
546.049
545.881
545.718
545.558
545.404
545.257
545.119
544.993
544.879
544.776
544.676
544.572
544.47
544.369
544.269
544.169
544.068
543.967
543.866
543.763
543.659
543.553
543.446
543.338
543.23
543.12
543.011
542.901
542.791
542.68
542.57
542.46
542.35
542.24
542.131
542.021
541.912
541.802
541.693
541.584
541.475
541.366
541.257
541.148
541.039
540.93
540.822
540.713
540.604
552.506
552.417
552.331
552.25
552.174
552.105
552.046
551.995
551.954
551.922
551.898
551.881
551.87
551.866
551.868
551.874
551.885
551.9
551.919
551.94
551.962
551.984
552.005
552.024
552.041
552.054
552.063
552.067
552.068
552.064
552.055
552.04
552.018
551.99
551.955
551.915
551.869
551.818
551.763
551.704
551.642
551.579
551.516
551.454
551.393
551.331
551.262
551.182
551.083
550.96
550.81
550.623
550.399
550.157
549.913
549.683
549.474
549.252
548.997
548.723
548.469
548.236
548.018
547.808
547.597
547.381
547.157
546.93
546.704
546.482
546.269
546.067
545.875
545.691
545.516
545.351
545.198
545.058
544.931
544.819
544.718
544.622
544.522
544.429
544.336
544.242
544.146
544.051
543.954
543.855
543.755
543.654
543.55
543.444
543.338
543.23
543.121
543.012
542.902
542.792
542.682
542.571
542.461
542.351
542.241
542.132
542.022
541.912
541.803
541.694
541.584
541.475
541.366
541.257
541.148
541.04
540.931
540.822
540.713
540.604
552.51
552.429
552.347
552.267
552.19
552.119
552.056
552.002
551.957
551.921
551.894
551.874
551.862
551.857
551.859
551.866
551.879
551.897
551.92
551.945
551.974
552.003
552.032
552.058
552.08
552.098
552.11
552.117
552.118
552.112
552.099
552.079
552.052
552.017
551.977
551.933
551.886
551.838
551.789
551.74
551.692
551.646
551.605
551.569
551.54
551.512
551.475
551.422
551.347
551.247
551.118
550.943
550.722
550.489
550.261
550.052
549.868
549.658
549.401
549.11
548.85
548.623
548.412
548.207
547.993
547.757
547.494
547.219
546.942
546.667
546.402
546.155
545.924
545.706
545.505
545.322
545.157
545.011
544.884
544.774
544.676
544.58
544.472
544.396
544.307
544.216
544.125
544.032
543.939
543.844
543.747
543.648
543.546
543.442
543.337
543.229
543.121
543.012
542.903
542.793
542.683
542.572
542.462
542.352
542.242
542.132
542.023
541.913
541.804
541.694
541.585
541.476
541.367
541.258
541.149
541.04
540.931
540.822
540.713
540.604
552.528
552.478
552.42
552.353
552.28
552.208
552.138
552.073
552.015
551.965
551.922
551.886
551.858
551.837
551.824
551.818
551.819
551.827
551.842
551.863
551.891
551.922
551.953
551.983
552.007
552.026
552.039
552.044
552.042
552.032
552.012
551.983
551.945
551.9
551.851
551.802
551.755
551.712
551.673
551.64
551.612
551.592
551.582
551.583
551.595
551.614
551.626
551.615
551.577
551.515
551.425
551.278
551.078
550.876
550.685
550.508
550.349
550.157
549.908
549.614
549.365
549.158
548.971
548.792
548.59
548.331
548.006
547.666
547.323
546.978
546.642
546.339
546.053
545.782
545.541
545.329
545.146
544.992
544.864
544.756
544.661
544.572
544.492
544.388
544.29
544.196
544.105
544.015
543.925
543.833
543.739
543.642
543.542
543.44
543.335
543.229
543.121
543.013
542.903
542.794
542.684
542.573
542.463
542.353
542.243
542.133
542.024
541.914
541.804
541.695
541.586
541.476
541.367
541.258
541.149
541.04
540.931
540.822
540.713
540.604
552.576
552.612
552.617
552.588
552.534
552.462
552.379
552.292
552.204
552.117
552.035
551.957
551.885
551.821
551.765
551.719
551.683
551.658
551.644
551.643
551.656
551.68
551.708
551.734
551.756
551.771
551.779
551.778
551.771
551.753
551.724
551.682
551.63
551.572
551.513
551.458
551.414
551.383
551.365
551.358
551.361
551.377
551.41
551.457
551.527
551.616
551.694
551.741
551.755
551.749
551.723
551.631
551.469
551.327
551.194
551.047
550.893
550.717
550.485
550.222
550.01
549.831
549.687
549.565
549.406
549.115
548.677
548.262
547.856
547.425
546.994
546.639
546.296
545.94
545.644
545.39
545.185
545.024
544.897
544.791
544.693
544.597
544.499
544.394
544.287
544.185
544.09
544
543.912
543.822
543.731
543.636
543.538
543.437
543.334
543.228
543.121
543.013
542.904
542.794
542.684
542.574
542.464
542.354
542.244
542.134
542.024
541.915
541.805
541.696
541.586
541.477
541.368
541.259
541.149
541.04
540.931
540.822
540.713
540.604
552.684
552.911
553.052
553.106
553.088
553.019
552.913
552.782
552.633
552.475
552.313
552.151
551.992
551.839
551.695
551.563
551.447
551.348
551.269
551.215
551.195
551.201
551.214
551.228
551.24
551.246
551.244
551.234
551.217
551.19
551.15
551.095
551.028
550.956
550.888
550.831
550.8
550.796
550.812
550.847
550.897
550.968
551.065
551.174
551.321
551.5
551.661
551.773
551.85
551.924
552.004
551.995
551.879
551.841
551.794
551.645
551.459
551.283
551.069
550.995
550.867
550.662
550.547
550.406
550.27
549.947
549.42
548.912
548.418
547.908
547.477
547.058
546.643
546.22
545.828
545.521
545.301
545.146
545.019
544.914
544.806
544.686
544.566
544.439
544.308
544.188
544.083
543.989
543.901
543.813
543.723
543.63
543.534
543.435
543.332
543.228
543.121
543.013
542.904
542.795
542.685
542.575
542.465
542.355
542.245
542.135
542.025
541.915
541.806
541.696
541.587
541.477
541.368
541.259
541.15
541.041
540.932
540.823
540.714
540.605
552.903
553.503
553.899
554.097
554.137
554.067
553.916
553.705
553.452
553.172
552.872
552.561
552.251
551.942
551.641
551.355
551.091
550.855
550.652
550.499
550.42
550.393
550.381
550.372
550.365
550.355
550.339
550.316
550.288
550.251
550.199
550.13
550.048
549.966
549.894
549.843
549.846
549.892
549.965
550.067
550.191
550.35
550.551
550.748
550.993
551.252
551.481
551.634
551.778
551.974
552.242
552.366
552.341
552.458
552.444
552.311
552.059
551.891
551.689
551.661
551.652
551.633
551.425
551.18
551.11
550.737
550.076
549.47
548.935
548.395
548.029
547.557
547.075
546.526
546.09
545.855
545.606
545.45
545.266
545.154
545.024
544.848
544.701
544.529
544.356
544.206
544.084
543.983
543.892
543.805
543.717
543.625
543.531
543.432
543.331
543.227
543.121
543.013
542.905
542.796
542.686
542.576
542.466
542.356
542.246
542.136
542.026
541.916
541.806
541.697
541.587
541.478
541.369
541.259
541.15
541.041
540.932
540.823
540.714
540.605
553.321
554.583
555.386
555.789
555.893
555.809
555.58
555.239
554.829
554.374
553.865
553.319
552.772
552.216
551.667
551.134
550.631
550.169
549.754
549.433
549.256
549.18
549.13
549.085
549.047
549.014
548.982
548.946
548.906
548.856
548.79
548.707
548.612
548.527
548.454
548.432
548.493
548.618
548.777
548.988
549.234
549.529
549.901
550.235
550.598
550.935
551.181
551.397
551.683
552.023
552.41
552.756
552.905
553.157
553.147
553.006
552.71
552.482
552.394
552.394
552.342
552.556
552.205
551.791
551.699
551.291
550.557
549.976
549.396
548.848
548.482
548.098
547.64
546.916
546.483
546.294
546.156
545.898
545.681
545.422
545.314
545.056
544.879
544.627
544.408
544.229
544.089
543.98
543.886
543.799
543.712
543.622
543.528
543.43
543.33
543.226
543.121
543.014
542.905
542.796
542.686
542.576
542.466
542.356
542.246
542.136
542.026
541.916
541.807
541.697
541.588
541.478
541.369
541.26
541.151
541.041
540.932
540.823
540.714
540.605
554.103
556.402
557.731
558.348
558.477
558.359
558.01
557.478
556.886
556.26
555.478
554.6
553.714
552.781
551.894
551.011
550.173
549.397
548.646
548.053
547.715
547.565
547.436
547.331
547.251
547.19
547.129
547.072
547.008
546.947
546.868
546.777
546.666
546.595
546.524
546.534
546.688
546.933
547.261
547.674
548.127
548.562
549.159
549.667
550.184
550.488
550.75
551.087
551.603
552.244
552.547
553.188
553.593
554.156
554.276
553.907
553.496
553.126
553.375
553.396
552.922
553.18
552.689
552.312
551.924
551.404
550.734
550.566
549.639
549.387
548.679
548.321
548.016
546.983
546.798
546.655
546.735
546.358
546.131
545.642
545.595
545.163
545.015
544.62
544.422
544.238
544.092
543.977
543.882
543.795
543.708
543.619
543.526
543.429
543.329
543.226
543.121
543.014
542.905
542.796
542.687
542.577
542.467
542.357
542.247
542.137
542.027
541.917
541.807
541.698
541.588
541.479
541.37
541.26
541.151