/*--------------------------------*- C++ -*----------------------------------*\
  =========                 |
  \\      /  F ield         | OpenFOAM: The Open Source CFD Toolbox
   \\    /   O peration     | Website:  https://openfoam.org
    \\  /    A nd           | Version:  6
     \\/     M anipulation  |
\*---------------------------------------------------------------------------*/
FoamFile
{
    version     2.0;
    format      ascii;
    class       surfaceScalarField;
    location    "500";
    object      phi;
}
// * * * * * * * * * * * * * * * * * * * * * * * * * * * * * * * * * * * * * //

dimensions      [0 3 -1 0 0 0 0];

internalField   nonuniform List<scalar> 
9440
(
2.37727e-10
-2.37727e-10
7.30071e-10
-4.92345e-10
1.17262e-09
-4.42552e-10
1.1946e-09
-2.19761e-11
1.46753e-09
-2.72936e-10
1.49222e-09
-2.4683e-11
1.5992e-09
-1.06981e-10
1.93588e-09
-3.36679e-10
2.11753e-09
-1.8165e-10
2.18866e-09
-7.11326e-11
2.19979e-09
-1.11278e-11
2.3002e-09
-1.00414e-10
2.42076e-09
-1.20556e-10
2.45388e-09
-3.31167e-11
2.49173e-09
-3.78489e-11
2.57181e-09
-8.00828e-11
2.62628e-09
-5.44655e-11
2.68211e-09
-5.58294e-11
2.6958e-09
-1.36893e-11
2.69619e-09
-3.86959e-13
2.68642e-09
9.77375e-12
2.68402e-09
2.39557e-12
2.70096e-09
-1.69351e-11
2.71895e-09
-1.7981e-11
2.71313e-09
5.81673e-12
2.73401e-09
-2.08767e-11
2.73637e-09
-2.35583e-12
2.7426e-09
-6.23061e-12
2.7484e-09
-5.79721e-12
2.7742e-09
-2.57988e-11
2.79047e-09
-1.6262e-11
2.78763e-09
2.83957e-12
2.77803e-09
9.59677e-12
2.74502e-09
3.30126e-11
2.69151e-09
5.35083e-11
2.60383e-09
8.76902e-11
2.53001e-09
7.3815e-11
2.4981e-09
3.19125e-11
2.4861e-09
1.19999e-11
2.46477e-09
2.13221e-11
2.45647e-09
8.30076e-12
2.46729e-09
-1.08208e-11
2.49011e-09
-2.28167e-11
2.52184e-09
-3.17323e-11
2.55668e-09
-3.48436e-11
2.62342e-09
-6.67408e-11
2.73029e-09
-1.06874e-10
2.75313e-09
-2.28366e-11
2.83839e-09
-8.52604e-11
2.90823e-09
-6.98423e-11
2.91395e-09
-5.72596e-12
3.00982e-09
-9.58703e-11
3.07965e-09
-6.98349e-11
3.1294e-09
-4.97504e-11
3.25256e-09
-1.23157e-10
3.33713e-09
-8.45673e-11
3.38375e-09
-4.66206e-11
3.56232e-09
-1.78576e-10
3.69572e-09
-1.334e-10
3.82086e-09
-1.25144e-10
3.91093e-09
-9.00735e-11
3.99881e-09
-8.78776e-11
4.05479e-09
-5.59819e-11
4.14278e-09
-8.79867e-11
4.13949e-09
3.28651e-12
4.12485e-09
1.46318e-11
4.09132e-09
3.3537e-11
4.04366e-09
4.76517e-11
3.9191e-09
1.24558e-10
3.85416e-09
6.494e-11
3.60586e-09
2.48298e-10
3.49052e-09
1.15343e-10
3.12806e-09
3.62457e-10
3.00077e-09
1.27293e-10
2.48768e-09
5.13086e-10
2.24656e-09
2.4112e-10
1.79428e-09
4.52279e-10
1.06109e-09
7.33193e-10
6.30108e-10
4.30978e-10
2.76383e-10
3.53726e-10
1.24898e-14
2.76363e-10
2.59354e-18
-1.32831e-18
2.39093e-18
2.02616e-19
2.0432e-18
3.45429e-19
1.76312e-18
2.81402e-19
1.55476e-18
2.10462e-19
1.40075e-18
1.55789e-19
1.2871e-18
1.14819e-19
1.20406e-18
8.35302e-20
1.14453e-18
5.93508e-20
1.103e-18
4.08011e-20
1.075e-18
2.69775e-20
1.05684e-18
1.71962e-20
1.04532e-18
1.08179e-20
1.03761e-18
7.22972e-21
1.0313e-18
5.87754e-21
1.02452e-18
6.28063e-21
1.01586e-18
8.02811e-21
1.00435e-18
1.07681e-20
9.89351e-19
1.41927e-20
9.70451e-19
1.80435e-20
9.47413e-19
2.21315e-20
9.20177e-19
2.63485e-20
8.8887e-19
3.06398e-20
8.53753e-19
3.49566e-20
8.1511e-19
3.92165e-20
7.73146e-19
4.33027e-20
7.27952e-19
4.70906e-20
6.79553e-19
5.04797e-20
6.27993e-19
5.3418e-20
5.73417e-19
5.59085e-20
5.16101e-19
5.80013e-20
4.56421e-19
5.97712e-20
3.94774e-19
6.12894e-20
3.31507e-19
6.25971e-20
2.66874e-19
6.36904e-20
2.01071e-19
6.45272e-20
1.3432e-19
6.50386e-20
6.7016e-20
6.51202e-20
6.44719e-20
4.0761e-10
-6.45338e-10
5.85871e-10
-6.70607e-10
6.73302e-10
-5.29984e-10
9.68721e-10
-3.17395e-10
1.1514e-09
-4.55614e-10
1.33799e-09
-2.11279e-10
1.43058e-09
-1.99567e-10
1.59562e-09
-5.01725e-10
1.6893e-09
-2.75329e-10
1.75668e-09
-1.38507e-10
1.9122e-09
-1.66646e-10
2.02144e-09
-2.09651e-10
2.1107e-09
-2.09818e-10
2.16058e-09
-8.29953e-11
2.23072e-09
-1.07985e-10
2.31523e-09
-1.64593e-10
2.36083e-09
-1.00061e-10
2.37373e-09
-6.87223e-11
2.37445e-09
-1.44094e-11
2.35512e-09
1.89461e-11
2.33217e-09
3.27287e-11
2.31269e-09
2.18834e-11
2.30675e-09
-1.09935e-11
2.33496e-09
-4.61844e-11
2.40462e-09
-6.38399e-11
2.43052e-09
-4.6772e-11
2.43554e-09
-7.36982e-12
2.40935e-09
1.99644e-11
2.37744e-09
2.61148e-11
2.35979e-09
-8.1441e-12
2.35839e-09
-1.48608e-11
2.36417e-09
-2.94459e-12
2.37456e-09
-7.82748e-13
2.38245e-09
2.51185e-11
2.37437e-09
6.15923e-11
2.38975e-09
7.23145e-11
2.40392e-09
5.96396e-11
2.39782e-09
3.80149e-11
2.36978e-09
4.00357e-11
2.33729e-09
5.38112e-11
2.31368e-09
3.19014e-11
2.2979e-09
4.9593e-12
2.28523e-09
-1.01486e-11
2.25894e-09
-5.44855e-12
2.25054e-09
-2.64414e-11
2.25612e-09
-7.23267e-11
2.23784e-09
-8.85945e-11
2.2707e-09
-5.5697e-11
2.29247e-09
-1.07031e-10
2.31618e-09
-9.35507e-11
2.38425e-09
-7.37985e-11
2.46369e-09
-1.75314e-10
2.56973e-09
-1.7588e-10
2.67377e-09
-1.53789e-10
2.753e-09
-2.02391e-10
2.88457e-09
-2.16137e-10
3.01949e-09
-1.8154e-10
3.17195e-09
-3.31047e-10
3.32395e-09
-2.85401e-10
3.44566e-09
-2.46853e-10
3.55116e-09
-1.95573e-10
3.63163e-09
-1.68355e-10
3.74119e-09
-1.65543e-10
3.77486e-09
-1.21656e-10
3.7744e-09
3.73923e-12
3.74221e-09
4.68171e-11
3.71293e-09
6.28136e-11
3.63183e-09
1.28752e-10
3.5913e-09
1.65086e-10
3.42397e-09
2.32268e-10
3.35338e-09
3.18894e-10
3.11526e-09
3.53461e-10
2.93102e-09
5.4669e-10
2.55883e-09
4.9948e-10
2.53717e-09
5.34747e-10
1.90544e-09
8.72846e-10
1.80363e-09
5.54094e-10
1.39365e-09
1.14317e-09
1.11854e-09
7.06085e-10
6.61939e-10
8.10346e-10
-5.09975e-16
9.38343e-10
4.12537e-18
5.01512e-18
2.53471e-18
1.80097e-18
1.98005e-18
9.03762e-19
1.69218e-18
5.71539e-19
1.50009e-18
4.04384e-19
1.35978e-18
2.9733e-19
1.25581e-18
2.19083e-19
1.17988e-18
1.58749e-19
1.12598e-18
1.11798e-19
1.08917e-18
7.58346e-20
1.06522e-18
4.91907e-20
1.05046e-18
3.04504e-20
1.04173e-18
1.83202e-20
1.03626e-18
1.16252e-20
1.03171e-18
9.31768e-21
1.02627e-18
1.04691e-20
1.0186e-18
1.42633e-20
1.00777e-18
2.00009e-20
9.93201e-19
2.7116e-20
9.74539e-19
3.51879e-20
9.5163e-19
4.39214e-20
9.24468e-19
5.30844e-20
8.93187e-19
6.24374e-20
8.58012e-19
7.16913e-20
8.19196e-19
8.05257e-20
7.76933e-19
8.8647e-20
7.31341e-19
9.58556e-20
6.82491e-19
1.02084e-19
6.30483e-19
1.07388e-19
5.75509e-19
1.11901e-19
5.17871e-19
1.1577e-19
4.5794e-19
1.19106e-19
3.96082e-19
1.21956e-19
3.32601e-19
1.24321e-19
2.67711e-19
1.26176e-19
2.01582e-19
1.27508e-19
1.34402e-19
1.28343e-19
6.63676e-20
1.28752e-19
1.2894e-19
3.40495e-10
-9.85834e-10
4.57466e-10
-7.87579e-10
5.47682e-10
-6.20201e-10
7.66386e-10
-5.361e-10
8.69378e-10
-5.58606e-10
9.82842e-10
-3.24743e-10
1.14848e-09
-3.65208e-10
1.4028e-09
-7.56036e-10
1.49896e-09
-3.71488e-10
1.61064e-09
-2.50186e-10
1.71061e-09
-2.66622e-10
1.79237e-09
-2.91406e-10
1.86767e-09
-2.85118e-10
1.98679e-09
-2.02109e-10
2.05251e-09
-1.73708e-10
2.04789e-09
-1.59971e-10
2.04881e-09
-1.0098e-10
2.05227e-09
-7.21717e-11
2.07026e-09
-3.24021e-11
2.07287e-09
1.63429e-11
2.06658e-09
3.90177e-11
2.05783e-09
3.06369e-11
2.03247e-09
1.43675e-11
2.00188e-09
-1.5584e-11
1.9637e-09
-2.56554e-11
1.95393e-09
-3.6999e-11
1.95227e-09
-5.7137e-12
1.95586e-09
1.63839e-11
1.96157e-09
2.04023e-11
1.94239e-09
1.1044e-11
1.93711e-09
-9.57962e-12
1.93059e-09
3.5759e-12
1.92752e-09
2.28909e-12
1.9249e-09
2.77429e-11
1.92032e-09
6.61743e-11
1.91293e-09
7.97017e-11
1.8923e-09
8.02687e-11
1.84972e-09
8.05909e-11
1.81101e-09
7.87422e-11
1.80027e-09
6.45576e-11
1.8099e-09
2.2262e-11
1.80846e-09
6.4042e-12
1.80204e-09
-3.73505e-12
1.81942e-09
-2.28297e-11
1.83424e-09
-4.12608e-11
1.83875e-09
-7.68383e-11
1.85039e-09
-1.00241e-10
1.87884e-09
-8.41436e-11
1.90845e-09
-1.36648e-10
1.95781e-09
-1.42912e-10
2.05351e-09
-1.69497e-10
2.10589e-09
-2.27697e-10
2.19109e-09
-2.61084e-10
2.30332e-09
-2.66024e-10
2.40433e-09
-3.03399e-10
2.49783e-09
-3.09637e-10
2.6153e-09
-2.99007e-10
2.67966e-09
-3.95412e-10
2.80501e-09
-4.10755e-10
2.93686e-09
-3.78704e-10
3.0578e-09
-3.16517e-10
3.16147e-09
-2.7203e-10
3.26611e-09
-2.70184e-10
3.28093e-09
-1.36476e-10
3.31559e-09
-3.09281e-11
3.27787e-09
8.45373e-11
3.22513e-09
1.15556e-10
3.14056e-09
2.13316e-10
3.11499e-09
1.9066e-10
2.989e-09
3.58256e-10
2.87547e-09
4.32424e-10
2.67869e-09
5.50235e-10
2.57934e-09
6.46043e-10
2.23525e-09
8.43568e-10
1.99096e-09
7.79035e-10
1.76374e-09
1.10006e-09
1.33824e-09
9.79597e-10
1.06495e-09
1.41646e-09
3.27534e-10
1.4435e-09
1.11042e-10
1.02682e-09
-3.35429e-16
1.04938e-09
9.12671e-19
6.39289e-19
1.63857e-18
1.07603e-18
1.64867e-18
8.95008e-19
1.52503e-18
6.96129e-19
1.39303e-18
5.36856e-19
1.28153e-18
4.08726e-19
1.19548e-18
3.04327e-19
1.13293e-18
2.19821e-19
1.09002e-18
1.52798e-19
1.06253e-18
1.01234e-19
1.04648e-18
6.31929e-20
1.03833e-18
3.67558e-20
1.03504e-18
2.00503e-20
1.03395e-18
1.13294e-20
1.03286e-18
9.03096e-21
1.03006e-18
1.17927e-20
1.02434e-18
1.84512e-20
1.01489e-18
2.80236e-20
1.00127e-18
3.96831e-20
9.83272e-19
5.27456e-20
9.60793e-19
6.66558e-20
9.33821e-19
8.09547e-20
9.0244e-19
9.52276e-20
8.66847e-19
1.09068e-19
8.27317e-19
1.22085e-19
7.84142e-19
1.3396e-19
7.3757e-19
1.44504e-19
6.87795e-19
1.53682e-19
6.34996e-19
1.61589e-19
5.79379e-19
1.68385e-19
5.21207e-19
1.74223e-19
4.6079e-19
1.79208e-19
3.98447e-19
1.83391e-19
3.34455e-19
1.86788e-19
2.69044e-19
1.89417e-19
2.02417e-19
1.91325e-19
1.34811e-19
1.92606e-19
6.65563e-20
1.93393e-19
1.93831e-19
1.02013e-10
-1.08785e-09
3.04651e-10
-9.90217e-10
4.35395e-10
-7.50945e-10
6.09317e-10
-7.10022e-10
7.85899e-10
-7.35188e-10
9.1649e-10
-4.55334e-10
1.11264e-09
-5.61361e-10
1.2509e-09
-8.94289e-10
1.43441e-09
-5.55e-10
1.5037e-09
-3.1948e-10
1.629e-09
-3.91919e-10
1.79608e-09
-4.58485e-10
1.84889e-09
-3.37928e-10
1.92778e-09
-2.81e-10
1.97517e-09
-2.2109e-10
2.00115e-09
-1.85955e-10
1.99666e-09
-9.64831e-11
1.9792e-09
-5.47125e-11
1.95701e-09
-1.02037e-11
1.94642e-09
2.69306e-11
1.92085e-09
6.45888e-11
1.88648e-09
6.50119e-11
1.86437e-09
3.64846e-11
1.80315e-09
4.56353e-11
1.73232e-09
4.51796e-11
1.6621e-09
3.32231e-11
1.62087e-09
3.55219e-11
1.61318e-09
2.40768e-11
1.57575e-09
5.78269e-11
1.52681e-09
5.99851e-11
1.47324e-09
4.40016e-11
1.4318e-09
4.50115e-11
1.38792e-09
4.61732e-11
1.36485e-09
5.08109e-11
1.3583e-09
7.27265e-11
1.35661e-09
8.13961e-11
1.36369e-09
7.31892e-11
1.38137e-09
6.29028e-11
1.40404e-09
5.60719e-11
1.42444e-09
4.41633e-11
1.44276e-09
3.9379e-12
1.45894e-09
-9.78364e-12
1.45059e-09
4.6216e-12
1.4576e-09
-2.98498e-11
1.45327e-09
-3.69237e-11
1.4718e-09
-9.53709e-11
1.51395e-09
-1.42396e-10
1.54272e-09
-1.12914e-10
1.59283e-09
-1.86766e-10
1.65115e-09
-2.0123e-10
1.69554e-09
-2.13892e-10
1.73396e-09
-2.6612e-10
1.74754e-09
-2.74663e-10
1.80387e-09
-3.22356e-10
1.85465e-09
-3.54181e-10
1.9313e-09
-3.86289e-10
2.03056e-09
-3.98272e-10
2.12502e-09
-4.89873e-10
2.22786e-09
-5.13591e-10
2.32206e-09
-4.72904e-10
2.42823e-09
-4.22693e-10
2.50025e-09
-3.44048e-10
2.5308e-09
-3.00741e-10
2.57862e-09
-1.84303e-10
2.6409e-09
-9.32017e-11
2.67532e-09
5.01086e-11
2.6434e-09
1.47478e-10
2.58141e-09
2.75303e-10
2.60508e-09
1.66995e-10
2.48127e-09
4.82065e-10
2.39653e-09
5.17165e-10
2.25892e-09
6.87843e-10
2.06381e-09
8.41157e-10
1.85188e-09
1.05549e-09
1.59564e-09
1.03528e-09
1.41924e-09
1.27646e-09
8.55638e-10
1.54321e-09
5.72915e-10
1.69919e-09
2.44829e-10
1.77159e-09
4.98738e-11
1.22178e-09
3.15543e-16
1.09925e-09
1.35044e-18
8.19959e-19
1.45851e-18
9.67896e-19
1.45049e-18
9.02741e-19
1.36576e-18
7.80358e-19
1.2649e-18
6.3688e-19
1.17713e-18
4.95338e-19
1.11097e-18
3.6893e-19
1.06591e-18
2.6293e-19
1.03845e-18
1.78086e-19
1.02449e-18
1.13022e-19
1.02004e-18
6.55407e-20
1.02163e-18
3.32072e-20
1.02632e-18
1.35814e-20
1.03165e-18
4.37388e-21
1.03562e-18
3.53336e-21
1.03672e-18
9.27318e-21
1.03391e-18
2.00605e-20
1.02655e-18
3.45834e-20
1.01434e-18
5.17084e-20
9.97182e-19
7.04544e-20
9.75092e-19
8.99933e-20
9.48094e-19
1.09651e-19
9.16281e-19
1.28883e-19
8.79864e-19
1.47244e-19
8.39192e-19
1.64366e-19
7.94686e-19
1.7997e-19
7.46748e-19
1.93897e-19
6.95703e-19
2.06115e-19
6.41792e-19
2.16704e-19
5.85216e-19
2.25807e-19
5.26192e-19
2.33576e-19
4.64973e-19
2.40134e-19
4.01844e-19
2.4557e-19
3.37084e-19
2.49951e-19
2.70953e-19
2.53349e-19
2.03697e-19
2.5586e-19
1.35597e-19
2.57613e-19
6.69945e-20
2.58751e-19
2.59388e-19
2.09218e-10
-1.29707e-09
3.14548e-10
-1.09555e-09
4.21116e-10
-8.57512e-10
5.12378e-10
-8.01285e-10
6.57392e-10
-8.80201e-10
8.47345e-10
-6.45287e-10
1.09493e-09
-8.08945e-10
1.102e-09
-9.01357e-10
1.40653e-09
-8.59533e-10
1.52496e-09
-4.37908e-10
1.70009e-09
-5.67053e-10
1.81724e-09
-5.75628e-10
1.87034e-09
-3.91025e-10
1.90376e-09
-3.14421e-10
1.94937e-09
-2.66697e-10
1.93758e-09
-1.74165e-10
1.94687e-09
-1.05767e-10
1.95606e-09
-6.38998e-11
1.91247e-09
3.33828e-11
1.86695e-09
7.24552e-11
1.8088e-09
1.22746e-10
1.75568e-09
1.18129e-10
1.6683e-09
1.23871e-10
1.60008e-09
1.13859e-10
1.53783e-09
1.0743e-10
1.43293e-09
1.38128e-10
1.34345e-09
1.25002e-10
1.26802e-09
9.95031e-11
1.2279e-09
9.79541e-11
1.19818e-09
8.97031e-11
1.13107e-09
1.1112e-10
1.09134e-09
8.47345e-11
1.06776e-09
6.97532e-11
1.05065e-09
6.79212e-11
1.05048e-09
7.29011e-11
1.05618e-09
7.56984e-11
1.07665e-09
5.27185e-11
1.09977e-09
3.97868e-11
1.10993e-09
4.59104e-11
1.10008e-09
5.4005e-11
1.09556e-09
8.46061e-12
1.10895e-09
-2.31698e-11
1.11577e-09
-2.20029e-12
1.13832e-09
-5.24067e-11
1.1545e-09
-5.31085e-11
1.18921e-09
-1.30086e-10
1.21616e-09
-1.69344e-10
1.2629e-09
-1.59657e-10
1.2772e-09
-2.01066e-10
1.26313e-09
-1.87161e-10
1.24233e-09
-1.93098e-10
1.23048e-09
-2.54267e-10
1.21522e-09
-2.59409e-10
1.23973e-09
-3.46863e-10
1.2912e-09
-4.05655e-10
1.36871e-09
-4.63805e-10
1.46779e-09
-4.97349e-10
1.5234e-09
-5.45483e-10
1.59393e-09
-5.8413e-10
1.64775e-09
-5.2672e-10
1.70063e-09
-4.75582e-10
1.78945e-09
-4.3286e-10
1.87383e-09
-3.85128e-10
1.95252e-09
-2.62996e-10
2.01398e-09
-1.54666e-10
2.08114e-09
-1.70525e-11
2.1024e-09
1.26215e-10
2.09339e-09
2.84316e-10
2.049e-09
2.11383e-10
2.00637e-09
5.24701e-10
1.87692e-09
6.46616e-10
1.8963e-09
6.6846e-10
1.77007e-09
9.67391e-10
1.60113e-09
1.22443e-09
1.23453e-09
1.40188e-09
9.08662e-10
1.60233e-09
5.83069e-10
1.8688e-09
1.37382e-10
2.14488e-09
-1.98812e-10
2.10779e-09
-1.80673e-10
1.20364e-09
2.50432e-16
9.18575e-10
1.49928e-18
2.8651e-18
1.39422e-18
1.07254e-18
1.32863e-18
9.67394e-19
1.22228e-18
8.85547e-19
1.12336e-18
7.34486e-19
1.05073e-18
5.66645e-19
1.00497e-18
4.1329e-19
9.81067e-19
2.85282e-19
9.7339e-19
1.84127e-19
9.77006e-19
1.07823e-19
9.87708e-19
5.33329e-20
1.002e-18
1.74608e-20
1.01711e-18
-2.87967e-21
1.03081e-18
-1.05429e-20
1.04136e-18
-8.07933e-21
1.04751e-18
2.282e-21
1.04843e-18
1.86172e-20
1.04367e-18
3.92668e-20
1.03308e-18
6.2784e-20
1.01672e-18
8.79078e-20
9.94749e-19
1.13575e-19
9.67326e-19
1.38943e-19
9.34642e-19
1.63387e-19
8.96986e-19
1.86456e-19
8.54797e-19
2.07825e-19
8.08612e-19
2.27263e-19
7.58966e-19
2.44633e-19
7.06292e-19
2.59899e-19
6.50895e-19
2.73129e-19
5.92985e-19
2.84462e-19
5.3275e-19
2.94067e-19
4.7041e-19
3.02111e-19
4.06225e-19
3.08738e-19
3.40482e-19
3.14071e-19
2.73464e-19
3.18226e-19
2.0545e-19
3.21335e-19
1.36735e-19
3.23547e-19
6.76315e-20
3.25006e-19
3.25818e-19
3.04896e-11
-1.32756e-09
1.95444e-10
-1.2605e-09
4.3469e-10
-1.09676e-09
6.35108e-10
-1.0017e-09
7.628e-10
-1.00789e-09
1.02507e-09
-9.07553e-10
1.23762e-09
-1.0215e-09
1.15915e-09
-8.22882e-10
1.36441e-09
-1.06479e-09
1.63444e-09
-7.07941e-10
1.79248e-09
-7.2509e-10
1.84394e-09
-6.27093e-10
1.89164e-09
-4.38719e-10
1.9147e-09
-3.37481e-10
1.95723e-09
-3.09226e-10
1.92186e-09
-1.38793e-10
1.90591e-09
-8.98164e-11
1.89972e-09
-5.77039e-11
1.86437e-09
6.87374e-11
1.79632e-09
1.40501e-10
1.743e-09
1.76069e-10
1.65189e-09
2.09241e-10
1.54524e-09
2.30528e-10
1.44599e-09
2.13107e-10
1.30506e-09
2.48365e-10
1.23906e-09
2.04128e-10
1.18076e-09
1.83309e-10
1.08027e-09
1.99995e-10
1.0403e-09
1.37929e-10
9.82671e-10
1.47329e-10
9.1588e-10
1.77912e-10
9.04245e-10
9.63697e-11
8.91424e-10
8.25752e-11
8.95769e-10
6.35778e-11
8.77619e-10
9.10519e-11
8.5684e-10
9.64782e-11
8.49351e-10
6.02079e-11
8.31348e-10
5.77904e-11
8.17866e-10
5.93925e-11
8.04002e-10
6.78686e-11
8.08305e-10
4.15644e-12
8.22159e-10
-3.70256e-11
8.61616e-10
-4.16603e-11
8.98467e-10
-8.92614e-11
9.23533e-10
-7.8177e-11
9.25545e-10
-1.32101e-10
9.12515e-10
-1.56317e-10
9.04751e-10
-1.51894e-10
8.62138e-10
-1.58456e-10
8.14855e-10
-1.39879e-10
7.87751e-10
-1.65996e-10
7.76268e-10
-2.42786e-10
7.97076e-10
-2.80218e-10
8.19627e-10
-3.69416e-10
8.61476e-10
-4.47505e-10
9.18982e-10
-5.21312e-10
9.94884e-10
-5.73252e-10
1.03641e-09
-5.87009e-10
1.05065e-09
-5.98369e-10
1.08549e-09
-5.6156e-10
1.14843e-09
-5.38525e-10
1.23628e-09
-5.20713e-10
1.30527e-09
-4.5412e-10
1.37816e-09
-3.35887e-10
1.46372e-09
-2.40228e-10
1.56702e-09
-1.2036e-10
1.58705e-09
1.06185e-10
1.60651e-09
2.64854e-10
1.50212e-09
3.15775e-10
1.55491e-09
4.71915e-10
1.55739e-09
6.4414e-10
1.46165e-09
7.64197e-10
1.2125e-09
1.21654e-09
1.1259e-09
1.31104e-09
9.53179e-10
1.5746e-09
6.73283e-10
1.88222e-09
4.13982e-10
2.1281e-09
-8.74672e-11
2.64633e-09
-8.64454e-10
2.88477e-09
-7.75137e-10
1.11432e-09
4.0601e-16
1.43436e-10
-2.9245e-19
-9.42486e-18
1.28983e-18
-5.10504e-19
1.24711e-18
1.00876e-18
1.07122e-18
1.06028e-18
9.5552e-19
8.49271e-19
8.9737e-19
6.24217e-19
8.76966e-19
4.33365e-19
8.79913e-19
2.82036e-19
8.97086e-19
1.66632e-19
9.22516e-19
8.21381e-20
9.51836e-19
2.38006e-20
9.81662e-19
-1.26191e-20
1.00945e-18
-3.09337e-20
1.03327e-18
-3.4583e-20
1.05172e-18
-2.66339e-20
1.06384e-18
-9.77587e-21
1.06908e-18
1.36668e-20
1.06719e-18
4.16979e-20
1.05821e-18
7.25966e-20
1.04239e-18
1.04881e-19
1.02012e-18
1.37313e-19
9.9177e-19
1.68923e-19
9.57711e-19
1.99018e-19
9.18355e-19
2.27138e-19
8.74235e-19
2.52986e-19
8.25981e-19
2.76374e-19
7.74232e-19
2.97201e-19
7.19522e-19
3.15458e-19
6.62227e-19
3.31227e-19
6.0259e-19
3.44674e-19
5.40795e-19
3.5601e-19
4.77037e-19
3.65454e-19
4.11557e-19
3.73204e-19
3.44637e-19
3.79434e-19
2.76573e-19
3.84303e-19
2.07661e-19
3.87968e-19
1.38194e-19
3.90596e-19
6.84437e-20
3.92335e-19
3.93293e-19
1.62921e-10
-1.49048e-09
2.56902e-10
-1.35448e-09
3.86255e-10
-1.22611e-09
5.44476e-10
-1.15992e-09
6.87602e-10
-1.15102e-09
9.12129e-10
-1.13208e-09
1.12217e-09
-1.23155e-09
1.31461e-09
-1.01532e-09
1.41872e-09
-1.1689e-09
1.63036e-09
-9.19577e-10
1.76134e-09
-8.5607e-10
1.81475e-09
-6.80495e-10
1.85978e-09
-4.83753e-10
1.91879e-09
-3.96487e-10
1.91692e-09
-3.07358e-10
1.92418e-09
-1.46048e-10
1.88862e-09
-5.42595e-11
1.81202e-09
1.89063e-11
1.78042e-09
1.00332e-10
1.71157e-09
2.09351e-10
1.63952e-09
2.48125e-10
1.5461e-09
3.0267e-10
1.43543e-09
3.412e-10
1.32864e-09
3.19898e-10
1.21729e-09
3.59716e-10
1.14405e-09
2.77375e-10
1.03864e-09
2.88715e-10
9.53715e-10
2.84923e-10
8.93265e-10
1.98381e-10
8.24337e-10
2.16258e-10
8.07331e-10
1.9492e-10
7.92695e-10
1.11006e-10
7.66681e-10
1.08591e-10
7.43392e-10
8.6868e-11
7.06617e-10
1.27828e-10
6.73255e-10
1.29842e-10
6.44534e-10
8.89302e-11
6.15896e-10
8.64293e-11
6.05589e-10
6.96996e-11
6.18664e-10
5.4793e-11
6.19855e-10
2.96403e-12
6.24537e-10
-4.17108e-11
6.35854e-10
-5.29798e-11
6.20793e-10
-7.42046e-11
6.21114e-10
-7.85016e-11
5.98498e-10
-1.0949e-10
5.5371e-10
-1.11532e-10
5.01231e-10
-9.94178e-11
4.43684e-10
-1.0091e-10
4.23942e-10
-1.20138e-10
4.26505e-10
-1.6856e-10
4.22744e-10
-2.39026e-10
4.59199e-10
-3.16674e-10
4.8851e-10
-3.98728e-10
5.12586e-10
-4.71582e-10
5.21071e-10
-5.29798e-10
5.25282e-10
-5.77464e-10
5.46179e-10
-6.07907e-10
5.76282e-10
-6.28473e-10
6.22048e-10
-6.07328e-10
6.7768e-10
-5.94158e-10
7.37384e-10
-5.80419e-10
8.01036e-10
-5.17775e-10
8.93375e-10
-4.28228e-10
9.79477e-10
-3.26331e-10
1.09552e-09
-2.364e-10
1.1433e-09
5.84047e-11
1.17001e-09
2.38134e-10
1.14958e-09
3.36215e-10
1.11381e-09
5.07683e-10
1.15431e-09
6.03641e-10
1.01668e-09
9.01825e-10
1.12407e-09
1.10916e-09
1.04892e-09
1.38619e-09
6.94434e-10
1.92909e-09
4.38706e-10
2.13795e-09
1.9971e-10
2.3671e-09
-1.14477e-10
2.96051e-09
-2.64029e-10
3.03432e-09
-1.43399e-10
9.93689e-10
3.36327e-17
3.58711e-14
8.62177e-18
1.55827e-17
2.80964e-18
5.301e-18
1.29879e-18
2.51885e-18
8.60203e-19
1.49859e-18
7.30465e-19
9.79184e-19
7.06519e-19
6.48861e-19
7.25637e-19
4.15405e-19
7.64508e-19
2.44495e-19
8.12593e-19
1.19867e-19
8.64178e-19
3.19084e-20
9.15416e-19
-2.60854e-20
9.63347e-19
-5.93484e-20
1.0058e-18
-7.23458e-20
1.04122e-18
-6.90605e-20
1.06858e-18
-5.3066e-20
1.08729e-18
-2.75182e-20
1.09711e-18
4.86002e-21
1.09809e-18
4.17604e-20
1.09049e-18
8.1234e-20
1.07482e-18
1.21636e-19
1.05173e-18
1.61605e-19
1.02187e-18
2.00084e-19
9.85831e-19
2.36324e-19
9.44203e-19
2.69851e-19
8.97623e-19
3.00394e-19
8.46809e-19
3.27817e-19
7.92488e-19
3.52079e-19
7.35291e-19
3.73231e-19
6.75674e-19
3.91411e-19
6.13926e-19
4.06838e-19
5.50239e-19
4.19778e-19
4.84787e-19
4.30505e-19
4.17787e-19
4.39274e-19
3.49505e-19
4.46305e-19
2.80239e-19
4.51798e-19
2.10288e-19
4.5594e-19
1.39934e-19
4.58916e-19
6.94013e-20
4.60885e-19
4.61959e-19
4.8136e-11
-1.53861e-09
1.6818e-10
-1.47453e-09
3.07738e-10
-1.36567e-09
5.15628e-10
-1.36781e-09
7.33415e-10
-1.36881e-09
9.39445e-10
-1.33811e-09
1.10934e-09
-1.40144e-09
1.33838e-09
-1.24436e-09
1.44218e-09
-1.2727e-09
1.54486e-09
-1.02226e-09
1.67092e-09
-9.82135e-10
1.76553e-09
-7.75104e-10
1.79481e-09
-5.13026e-10
1.83875e-09
-4.4043e-10
1.83059e-09
-2.99194e-10
1.83915e-09
-1.54602e-10
1.84278e-09
-5.78953e-11
1.74618e-09
1.15508e-10
1.65173e-09
1.9479e-10
1.63178e-09
2.29302e-10
1.52054e-09
3.59372e-10
1.42813e-09
3.95081e-10
1.31655e-09
4.52782e-10
1.23271e-09
4.03737e-10
1.15579e-09
4.36642e-10
1.02768e-09
4.05486e-10
9.15221e-10
4.0118e-10
8.52889e-10
3.47257e-10
7.73295e-10
2.77978e-10
7.36512e-10
2.53043e-10
7.1187e-10
2.19564e-10
6.65815e-10
1.57063e-10
6.27396e-10
1.47011e-10
5.77254e-10
1.37012e-10
5.43721e-10
1.61363e-10
5.18885e-10
1.5468e-10
4.83895e-10
1.23922e-10
4.60253e-10
1.10072e-10
4.50892e-10
7.90606e-11
4.55834e-10
4.98505e-11
4.43935e-10
1.48621e-11
4.2757e-10
-2.53479e-11
4.20108e-10
-4.55218e-11
3.84423e-10
-3.8523e-11
3.4668e-10
-4.07624e-11
3.12712e-10
-7.5525e-11
2.71915e-10
-7.07381e-11
2.33312e-10
-6.08168e-11
2.11296e-10
-7.88959e-11
2.05995e-10
-1.14839e-10
2.1254e-10
-1.75105e-10
2.13101e-10
-2.39587e-10
2.29949e-10
-3.33522e-10
2.43689e-10
-4.12469e-10
2.44704e-10
-4.72598e-10
2.3945e-10
-5.24546e-10
2.34615e-10
-5.72629e-10
2.37671e-10
-6.10964e-10
2.49981e-10
-6.40784e-10
2.95164e-10
-6.52513e-10
3.64554e-10
-6.6355e-10
4.14052e-10
-6.29918e-10
4.08089e-10
-5.11814e-10
4.35808e-10
-4.55949e-10
4.96333e-10
-3.86858e-10
5.64166e-10
-3.04234e-10
7.56464e-10
-1.33893e-10
8.89124e-10
1.05475e-10
8.5254e-10
3.72799e-10
8.94263e-10
4.65962e-10
9.24202e-10
5.73703e-10
9.53999e-10
8.7203e-10
9.41433e-10
1.12173e-09
7.14705e-10
1.61292e-09
7.59936e-10
1.88386e-09
6.78345e-10
2.21954e-09
2.45299e-10
2.80014e-09
1.27087e-10
3.07872e-09
1.24169e-10
3.03724e-09
-3.5532e-14
1.11789e-09
-1.22423e-17
-7.67485e-19
-1.65887e-18
4.99924e-18
2.83913e-20
3.61323e-18
2.78639e-19
2.26879e-18
3.40796e-19
1.43735e-18
4.00143e-19
9.21226e-19
4.73063e-19
5.77789e-19
5.54727e-19
3.36086e-19
6.3988e-19
1.61934e-19
7.24634e-19
3.76936e-20
8.06185e-19
-4.70631e-20
8.82153e-19
-9.95156e-20
9.5035e-19
-1.25257e-19
1.00908e-18
-1.29113e-19
1.05722e-18
-1.15485e-19
1.09413e-18
-8.84143e-20
1.11966e-18
-5.15299e-20
1.13401e-18
-7.96672e-21
1.13756e-18
3.96557e-20
1.13089e-18
8.91859e-20
1.11479e-18
1.38859e-19
1.09021e-18
1.87247e-19
1.05811e-18
2.33246e-19
1.01936e-18
2.7609e-19
9.74746e-19
3.15316e-19
9.25046e-19
3.507e-19
8.71072e-19
3.82182e-19
8.1364e-19
4.09811e-19
7.53471e-19
4.33727e-19
6.91101e-19
4.54154e-19
6.26866e-19
4.71384e-19
5.60966e-19
4.85753e-19
4.93556e-19
4.97595e-19
4.24819e-19
5.07223e-19
3.54998e-19
5.14909e-19
2.84381e-19
5.20894e-19
2.13264e-19
5.25403e-19
1.41903e-19
5.2864e-19
7.04753e-20
5.3078e-19
5.31943e-19
1.20206e-10
-1.65882e-09
1.94428e-10
-1.54875e-09
3.92365e-10
-1.56361e-09
5.82039e-10
-1.55749e-09
7.60423e-10
-1.54719e-09
9.68591e-10
-1.54628e-09
1.12679e-09
-1.55964e-09
1.28282e-09
-1.40039e-09
1.42043e-09
-1.4103e-09
1.43189e-09
-1.03372e-09
1.5905e-09
-1.14074e-09
1.63242e-09
-8.17024e-10
1.63604e-09
-5.16644e-10
1.73983e-09
-5.44222e-10
1.6732e-09
-2.3256e-10
1.65188e-09
-1.33288e-10
1.66588e-09
-7.18878e-11
1.60332e-09
1.78074e-10
1.50025e-09
2.97856e-10
1.44475e-09
2.84808e-10
1.41158e-09
3.92547e-10
1.3121e-09
4.94564e-10
1.23153e-09
5.33349e-10
1.09111e-09
5.44168e-10
9.97311e-10
5.30442e-10
9.03144e-10
4.99656e-10
8.42117e-10
4.62211e-10
7.67561e-10
4.21816e-10
6.69969e-10
3.75573e-10
6.44994e-10
2.78022e-10
6.28483e-10
2.36079e-10
5.67596e-10
2.17952e-10
5.11351e-10
2.03259e-10
4.33058e-10
2.15308e-10
4.07894e-10
1.86528e-10
3.96346e-10
1.6623e-10
3.72678e-10
1.4759e-10
3.48786e-10
1.33965e-10
3.19869e-10
1.07977e-10
2.96529e-10
7.319e-11
2.7823e-10
3.31602e-11
2.70965e-10
-1.80841e-11
2.48959e-10
-2.35184e-11
2.06124e-10
4.3095e-12
1.26665e-10
3.86937e-11
7.7629e-12
4.33742e-11
-6.49808e-11
2.00329e-12
-9.00551e-11
-3.57443e-11
-9.7605e-11
-7.13471e-11
-9.30102e-11
-1.19434e-10
-1.03047e-10
-1.65067e-10
-1.3437e-10
-2.08264e-10
-1.69606e-10
-2.98287e-10
-2.0149e-10
-3.80585e-10
-2.43626e-10
-4.30463e-10
-2.81032e-10
-4.87141e-10
-3.06205e-10
-5.47457e-10
-3.29111e-10
-5.88059e-10
-3.50127e-10
-6.1977e-10
-3.82457e-10
-6.20184e-10
-3.96936e-10
-6.49072e-10
-3.11862e-10
-7.14993e-10
-1.5784e-10
-6.65837e-10
-5.07587e-11
-5.6303e-10
2.46458e-11
-4.62262e-10
8.81179e-11
-3.67706e-10
1.96097e-10
-2.41871e-10
3.8237e-10
-8.07966e-11
5.96896e-10
1.58274e-10
6.45063e-10
4.17796e-10
4.86041e-10
7.32724e-10
4.8493e-10
8.73141e-10
4.10323e-10
1.19633e-09
3.77322e-10
1.64592e-09
3.4671e-10
1.91447e-09
1.85006e-10
2.38125e-09
1.19439e-10
2.86571e-09
1.38896e-10
3.05927e-09
1.85729e-10
2.99041e-09
3.2031e-17
1.30362e-09
-6.47536e-18
-1.04671e-18
-3.04396e-18
1.56772e-18
-1.31514e-18
1.88466e-18
-5.52671e-19
1.50741e-18
-1.75326e-19
1.06188e-18
5.67065e-20
6.91388e-19
2.31359e-19
4.05512e-19
3.80574e-19
1.89596e-19
5.1564e-19
2.98492e-20
6.39877e-19
-8.35814e-20
7.53732e-19
-1.57967e-19
8.56411e-19
-1.99252e-19
9.46494e-19
-2.12669e-19
1.02271e-18
-2.03095e-19
1.08429e-18
-1.75231e-19
1.13101e-18
-1.33559e-19
1.16323e-18
-8.21994e-20
1.18164e-18
-2.47449e-20
1.18709e-18
3.5842e-20
1.18057e-18
9.72064e-20
1.16318e-18
1.57497e-19
1.13621e-18
2.1527e-19
1.10095e-18
2.69444e-19
1.05858e-18
3.19295e-19
1.01013e-18
3.64427e-19
9.56527e-19
4.04706e-19
8.987e-19
4.40184e-19
8.37556e-19
4.71033e-19
7.73898e-19
4.97514e-19
7.08332e-19
5.19958e-19
6.41234e-19
5.3875e-19
5.72809e-19
5.54305e-19
5.03183e-19
5.67029e-19
4.32504e-19
5.77298e-19
3.60984e-19
5.85442e-19
2.8889e-19
5.91753e-19
2.16501e-19
5.96491e-19
1.44043e-19
5.99889e-19
7.16379e-20
6.02136e-19
6.03358e-19
7.50391e-11
-1.73386e-09
1.8607e-10
-1.65979e-09
2.67642e-10
-1.64518e-09
4.18403e-10
-1.70825e-09
6.48533e-10
-1.77732e-09
8.80801e-10
-1.77855e-09
1.00935e-09
-1.68819e-09
1.13347e-09
-1.5245e-09
1.22552e-09
-1.50235e-09
1.17656e-09
-9.84755e-10
1.33404e-09
-1.29822e-09
1.25171e-09
-7.34693e-10
1.44384e-09
-7.08772e-10
1.48431e-09
-5.84693e-10
1.46131e-09
-2.09561e-10
1.49038e-09
-1.62357e-10
1.4138e-09
4.69941e-12
1.40806e-09
1.83819e-10
1.36194e-09
3.43974e-10
1.27732e-09
3.69434e-10
1.17205e-09
4.97817e-10
1.07323e-09
5.93389e-10
1.02356e-09
5.83024e-10
9.68752e-10
5.98975e-10
9.01998e-10
5.97199e-10
8.05122e-10
5.96536e-10
7.34921e-10
5.32415e-10
6.46231e-10
5.10511e-10
5.97583e-10
4.24225e-10
5.42654e-10
3.32956e-10
4.3911e-10
3.39627e-10
3.81825e-10
2.7524e-10
3.68016e-10
2.17071e-10
3.52373e-10
2.30954e-10
3.36412e-10
2.02491e-10
3.1957e-10
1.83072e-10
2.93449e-10
1.73712e-10
2.54099e-10
1.73315e-10
2.00253e-10
1.61824e-10
1.5295e-10
1.20493e-10
1.09187e-10
7.69228e-11
2.82597e-11
6.28426e-11
-7.61112e-11
8.08516e-11
-1.4477e-10
7.29669e-11
-1.69898e-10
6.38205e-11
-1.63598e-10
3.70738e-11
-1.4658e-10
-1.50164e-11
-1.45425e-10
-3.68994e-11
-1.49008e-10
-6.77649e-11
-1.64203e-10
-1.04239e-10
-2.12262e-10
-1.17008e-10
-2.78314e-10
-1.42212e-10
-3.0341e-10
-2.73191e-10
-3.33843e-10
-3.50152e-10
-3.55647e-10
-4.0866e-10
-3.63818e-10
-4.78971e-10
-3.65314e-10
-5.45963e-10
-3.69664e-10
-5.8371e-10
-3.75192e-10
-6.14243e-10
-3.58857e-10
-6.36521e-10
-3.24134e-10
-6.83796e-10
-3.25098e-10
-7.14028e-10
-3.36446e-10
-6.54489e-10
-3.41331e-10
-5.58144e-10
-2.99324e-10
-5.04268e-10
-2.34173e-10
-4.32856e-10
-1.59143e-10
-3.16901e-10
-4.19848e-11
-1.97954e-10
1.89459e-10
-7.31691e-11
2.4142e-10
3.65835e-10
1.89939e-10
7.84206e-10
1.67195e-10
8.95884e-10
1.44565e-10
1.21896e-09
1.35333e-10
1.65515e-09
7.57193e-11
1.97409e-09
3.74057e-11
2.41957e-09
7.13967e-11
2.83172e-09
6.73649e-11
3.0633e-09
5.68342e-11
3.00094e-09
-5.15441e-16
1.36046e-09
-3.86025e-18
-7.5554e-19
-2.72616e-18
4.33922e-19
-1.69151e-18
8.5107e-19
-9.98012e-19
8.15574e-19
-5.4582e-19
6.11992e-19
-2.29169e-19
3.77173e-19
1.54431e-20
1.63187e-19
2.20828e-19
-1.3385e-20
4.0221e-19
-1.48918e-19
5.65492e-19
-2.4428e-19
7.12447e-19
-3.0233e-19
8.42995e-19
-3.27086e-19
9.56067e-19
-3.23167e-19
1.05057e-18
-2.95463e-19
1.12596e-18
-2.49e-19
1.18237e-18
-1.88741e-19
1.22068e-18
-1.1935e-19
1.24222e-18
-4.49283e-20
1.24846e-18
3.1167e-20
1.24086e-18
1.0636e-19
1.22095e-18
1.78739e-19
1.19038e-18
2.46908e-19
1.1508e-18
3.09888e-19
1.10372e-18
3.67079e-19
1.05041e-18
4.18223e-19
9.92005e-19
4.63338e-19
9.2955e-19
5.02636e-19
8.64037e-19
5.36452e-19
7.96342e-19
5.65195e-19
7.27124e-19
5.8933e-19
6.56789e-19
6.09354e-19
5.85533e-19
6.25774e-19
5.13452e-19
6.39079e-19
4.40648e-19
6.49716e-19
3.67294e-19
6.58079e-19
2.93628e-19
6.64514e-19
2.19899e-19
6.69324e-19
1.46289e-19
6.72767e-19
7.28601e-20
6.75046e-19
6.76295e-19
1.5146e-10
-1.88532e-09
2.31793e-10
-1.74012e-09
3.79039e-10
-1.79243e-09
5.49809e-10
-1.87902e-09
6.67905e-10
-1.89542e-09
7.6674e-10
-1.87738e-09
8.38627e-10
-1.76008e-09
9.39455e-10
-1.62533e-09
9.278e-10
-1.4907e-09
1.13938e-09
-1.19633e-09
1.17204e-09
-1.33088e-09
1.07883e-09
-6.41482e-10
1.34341e-09
-9.73348e-10
1.0937e-09
-3.34981e-10
1.19867e-09