/*--------------------------------*- C++ -*----------------------------------*\
  =========                 |
  \\      /  F ield         | OpenFOAM: The Open Source CFD Toolbox
   \\    /   O peration     | Website:  https://openfoam.org
    \\  /    A nd           | Version:  6
     \\/     M anipulation  |
\*---------------------------------------------------------------------------*/
FoamFile
{
    version     2.0;
    format      ascii;
    class       volScalarField;
    location    "500";
    object      T;
}
// * * * * * * * * * * * * * * * * * * * * * * * * * * * * * * * * * * * * * //

dimensions      [0 0 0 1 0 0 0];

internalField   nonuniform List<scalar> 
4800
(
552.521
552.463
552.405
552.347
552.288
552.23
552.171
552.113
552.054
551.996
551.937
551.878
551.819
551.759
551.699
551.637
551.575
551.512
551.448
551.382
551.314
551.245
551.175
551.103
551.029
550.954
550.878
550.8
550.721
550.641
550.56
550.478
550.395
550.311
550.226
550.141
550.055
549.968
549.881
549.794
549.707
549.62
549.533
549.446
549.359
549.272
549.185
549.099
549.013
548.927
548.842
548.757
548.672
548.588
548.504
548.421
548.338
548.256
548.174
548.091
548.008
547.924
547.838
547.75
547.659
547.564
547.464
547.358
547.246
547.126
546.996
546.856
546.704
546.54
546.364
546.176
545.979
545.775
545.569
545.368
545.178
545.001
544.839
544.688
544.546
544.411
544.282
544.156
544.033
543.913
543.794
543.677
543.561
543.445
543.331
543.218
543.105
542.993
542.881
542.77
542.66
542.55
542.44
542.33
542.221
542.112
542.004
541.895
541.787
541.679
541.571
541.463
541.356
541.248
541.14
541.033
540.926
540.818
540.711
540.604
552.521
552.462
552.402
552.343
552.284
552.225
552.165
552.106
552.047
551.988
551.929
551.87
551.811
551.751
551.69
551.629
551.567
551.503
551.439
551.372
551.305
551.235
551.165
551.092
551.019
550.943
550.867
550.789
550.709
550.629
550.547
550.465
550.382
550.298
550.213
550.128
550.042
549.955
549.868
549.781
549.694
549.606
549.519
549.432
549.344
549.257
549.17
549.084
548.997
548.911
548.825
548.74
548.655
548.571
548.487
548.403
548.32
548.238
548.155
548.072
547.989
547.905
547.819
547.731
547.64
547.545
547.445
547.34
547.227
547.107
546.978
546.838
546.687
546.523
546.348
546.161
545.964
545.76
545.555
545.354
545.164
544.988
544.828
544.679
544.54
544.407
544.279
544.154
544.032
543.912
543.793
543.676
543.56
543.445
543.331
543.217
543.105
542.993
542.881
542.77
542.66
542.549
542.44
542.33
542.221
542.112
542.004
541.895
541.787
541.679
541.571
541.463
541.356
541.248
541.14
541.033
540.926
540.818
540.711
540.604
552.52
552.458
552.397
552.336
552.275
552.215
552.154
552.094
552.035
551.975
551.915
551.856
551.796
551.736
551.675
551.613
551.55
551.487
551.421
551.355
551.287
551.217
551.146
551.073
550.999
550.923
550.845
550.767
550.687
550.606
550.524
550.441
550.357
550.273
550.188
550.102
550.016
549.93
549.843
549.755
549.668
549.58
549.493
549.405
549.318
549.23
549.143
549.056
548.969
548.882
548.796
548.71
548.624
548.539
548.455
548.37
548.287
548.203
548.12
548.037
547.954
547.869
547.783
547.695
547.604
547.509
547.41
547.305
547.193
547.073
546.945
546.806
546.655
546.493
546.317
546.131
545.933
545.729
545.522
545.321
545.132
544.96
544.806
544.663
544.528
544.399
544.273
544.15
544.029
543.909
543.792
543.675
543.559
543.444
543.33
543.217
543.104
542.992
542.881
542.77
542.659
542.549
542.439
542.33
542.221
542.112
542.003
541.895
541.787
541.679
541.571
541.463
541.355
541.248
541.14
541.033
540.926
540.818
540.711
540.604
552.518
552.454
552.39
552.327
552.264
552.201
552.139
552.078
552.017
551.956
551.896
551.835
551.775
551.714
551.652
551.59
551.527
551.463
551.398
551.331
551.262
551.192
551.12
551.046
550.971
550.894
550.816
550.737
550.656
550.574
550.491
550.408
550.324
550.239
550.154
550.068
549.981
549.895
549.807
549.72
549.632
549.544
549.457
549.369
549.281
549.192
549.105
549.017
548.929
548.842
548.755
548.668
548.581
548.495
548.41
548.325
548.24
548.156
548.072
547.988
547.904
547.819
547.733
547.645
547.554
547.46
547.361
547.256
547.145
547.026
546.899
546.761
546.612
546.45
546.276
546.09
545.892
545.685
545.475
545.27
545.081
544.917
544.773
544.64
544.512
544.387
544.265
544.144
544.025
543.907
543.789
543.673
543.558
543.443
543.329
543.216
543.104
542.992
542.88
542.769
542.659
542.549
542.439
542.33
542.221
542.112
542.003
541.895
541.787
541.679
541.571
541.463
541.355
541.248
541.14
541.033
540.926
540.818
540.711
540.604
552.516
552.449
552.382
552.315
552.25
552.185
552.12
552.056
551.994
551.932
551.87
551.809
551.747
551.686
551.624
551.561
551.498
551.433
551.367
551.3
551.231
551.16
551.088
551.013
550.937
550.859
550.78
550.7
550.618
550.536
550.452
550.368
550.283
550.198
550.112
550.026
549.939
549.852
549.765
549.677
549.589
549.501
549.412
549.324
549.235
549.147
549.058
548.97
548.882
548.793
548.705
548.617
548.529
548.442
548.356
548.269
548.184
548.099
548.014
547.929
547.845
547.759
547.673
547.585
547.494
547.4
547.302
547.198
547.088
546.97
546.844
546.707
546.56
546.401
546.228
546.041
545.843
545.632
545.415
545.198
545.001
544.855
544.731
544.611
544.493
544.375
544.256
544.138
544.02
543.903
543.787
543.671
543.556
543.442
543.328
543.215
543.103
542.991
542.88
542.769
542.658
542.548
542.439
542.329
542.22
542.111
542.003
541.895
541.786
541.678
541.571
541.463
541.355
541.248
541.14
541.033
540.925
540.818
540.711
540.604
552.514
552.443
552.372
552.302
552.233
552.164
552.097
552.031
551.966
551.902
551.839
551.776
551.714
551.652
551.589
551.526
551.462
551.397
551.331
551.263
551.194
551.122
551.049
550.974
550.897
550.818
550.739
550.657
550.575
550.492
550.408
550.323
550.238
550.152
550.066
549.979
549.892
549.804
549.716
549.628
549.54
549.451
549.362
549.273
549.184
549.095
549.006
548.916
548.827
548.738
548.649
548.56
548.471
548.383
548.295
548.208
548.122
548.036
547.95
547.865
547.779
547.693
547.606
547.518
547.427
547.334
547.236
547.133
547.024
546.908
546.783
546.648
546.503
546.346
546.175
545.991
545.792
545.578
545.348
545.103
544.866
544.773
544.683
544.583
544.475
544.363
544.248
544.132
544.016
543.9
543.784
543.669
543.554
543.44
543.327
543.214
543.102
542.99
542.879
542.768
542.658
542.548
542.438
542.329
542.22
542.111
542.003
541.894
541.786
541.678
541.57
541.463
541.355
541.247
541.14
541.033
540.925
540.818
540.711
540.604
552.512
552.436
552.36
552.286
552.212
552.141
552.07
552.001
551.933
551.867
551.802
551.738
551.674
551.611
551.548
551.484
551.42
551.355
551.288
551.22
551.15
551.079
551.005
550.929
550.852
550.773
550.692
550.61
550.527
550.443
550.359
550.273
550.188
550.101
550.015
549.928
549.84
549.752
549.664
549.575
549.486
549.397
549.308
549.218
549.129
549.039
548.949
548.859
548.769
548.679
548.589
548.499
548.41
548.321
548.233
548.145
548.057
547.97
547.884
547.798
547.711
547.625
547.537
547.449
547.358
547.264
547.167
547.065
546.957
546.842
546.719
546.587
546.444
546.29
546.123
545.942
545.745
545.532
545.293
545.007
544.588
544.686
544.647
544.564
544.463
544.354
544.241
544.127
544.012
543.896
543.781
543.666
543.552
543.438
543.325
543.213
543.1
542.989
542.878
542.767
542.657
542.547
542.437
542.328
542.219
542.111
542.002
541.894
541.786
541.678
541.57
541.462
541.355
541.247
541.14
541.033
540.925
540.818
540.711
540.604
552.509
552.427
552.347
552.267
552.189
552.113
552.038
551.966
551.895
551.826
551.759
551.693
551.628
551.564
551.5
551.436
551.371
551.306
551.239
551.171
551.101
551.029
550.955
550.88
550.802
550.722
550.641
550.559
550.475
550.391
550.306
550.22
550.134
550.048
549.961
549.873
549.785
549.697
549.609
549.52
549.43
549.341
549.251
549.161
549.071
548.98
548.89
548.799
548.709
548.619
548.528
548.438
548.348
548.259
548.169
548.081
547.993
547.905
547.818
547.731
547.644
547.557
547.469
547.38
547.289
547.195
547.098
546.997
546.89
546.776
546.655
546.525
546.386
546.235
546.073
545.897
545.708
545.504
545.285
545.051
544.823
544.738
544.656
544.562
544.459
544.349
544.237
544.123
544.008
543.894
543.779
543.664
543.55
543.437
543.324
543.211
543.099
542.988
542.877
542.766
542.656
542.546
542.437
542.327
542.219
542.11
542.002
541.893
541.785
541.677
541.57
541.462
541.355
541.247
541.14
541.032
540.925
540.818
540.711
540.604
552.506
552.418
552.332
552.247
552.163
552.082
552.003
551.926
551.852
551.78
551.71
551.642
551.576
551.511
551.446
551.381
551.317
551.251
551.184
551.116
551.046
550.975
550.901
550.825
550.747
550.667
550.586
550.504
550.42
550.335
550.25
550.164
550.078
549.991
549.904
549.817
549.729
549.641
549.552
549.463
549.373
549.283
549.193
549.103
549.012
548.921
548.831
548.74
548.65
548.559
548.469
548.378
548.288
548.198
548.108
548.019
547.931
547.843
547.755
547.668
547.58
547.492
547.404
547.314
547.222
547.128
547.031
546.93
546.824
546.712
546.592
546.464
546.327
546.181
546.023
545.855
545.675
545.486
545.289
545.093
544.916
544.788
544.678
544.57
544.46
544.349
544.235
544.121
544.006
543.891
543.776
543.662
543.548
543.435
543.322
543.21
543.098
542.986
542.875
542.765
542.655
542.545
542.436
542.327
542.218
542.109
542.001
541.893
541.785
541.677
541.569
541.462
541.354
541.247
541.14
541.032
540.925
540.818
540.711
540.604
552.503
552.408
552.315
552.223
552.134
552.047
551.963
551.882
551.803
551.728
551.655
551.585
551.518
551.451
551.386
551.321
551.256
551.19
551.124
551.056
550.986
550.915
550.841
550.765
550.688
550.608
550.527
550.445
550.361
550.277
550.191
550.106
550.02
549.933
549.846
549.759
549.671
549.583
549.495
549.405
549.316
549.226
549.135
549.045
548.954
548.864
548.773
548.683
548.593
548.502
548.412
548.322
548.231
548.141
548.052
547.963
547.875
547.787
547.699
547.612
547.524
547.435
547.346
547.255
547.162
547.067
546.97
546.868
546.763
546.651
546.533
546.407
546.273
546.13
545.978
545.817
545.648
545.472
545.293
545.119
544.959
544.822
544.698
544.58
544.465
544.35
544.234
544.119
544.004
543.889
543.774
543.66
543.546
543.433
543.32
543.208
543.096
542.985
542.874
542.764
542.654
542.544
542.435
542.326
542.217
542.109
542
541.892
541.784
541.677
541.569
541.461
541.354
541.247
541.139
541.032
540.925
540.818
540.711
540.604
552.499
552.397
552.297
552.198
552.102
552.009
551.919
551.833
551.75
551.672
551.596
551.524
551.454
551.387
551.32
551.255
551.19
551.124
551.058
550.99
550.921
550.85
550.777
550.702
550.625
550.546
550.465
550.383
550.3
550.216
550.131
550.046
549.96
549.874
549.788
549.701
549.614
549.526
549.438
549.349
549.26
549.17
549.08
548.99
548.899
548.809
548.719
548.629
548.539
548.449
548.36
548.27
548.18
548.091
548.002
547.913
547.826
547.738
547.651
547.563
547.475
547.386
547.296
547.204
547.111
547.015
546.916
546.814
546.707
546.597
546.48
546.355
546.224
546.084
545.937
545.783
545.623
545.458
545.293
545.132
544.981
544.842
544.712
544.589
544.469
544.351
544.234
544.118
544.002
543.887
543.772
543.658
543.544
543.431
543.318
543.206
543.095
542.984
542.873
542.763
542.653
542.543
542.434
542.325
542.216
542.108
542
541.892
541.784
541.676
541.569
541.461
541.354
541.246
541.139
541.032
540.925
540.818
540.711
540.604
552.495
552.386
552.278
552.171
552.068
551.968
551.872
551.781
551.694
551.611
551.532
551.458
551.386
551.318
551.251
551.185
551.119
551.054
550.987
550.92
550.851
550.781
550.709
550.634
550.558
550.48
550.4
550.318
550.236
550.153
550.069
549.985
549.9
549.815
549.729
549.643
549.557
549.47
549.382
549.294
549.205
549.116
549.027
548.937
548.848
548.758
548.669
548.579
548.49
548.401
548.313
548.224
548.135
548.046
547.958
547.871
547.784
547.697
547.611
547.524
547.436
547.346
547.256
547.163
547.068
546.971
546.871
546.768
546.66
546.549
546.433
546.31
546.18
546.043
545.901
545.752
545.599
545.444
545.288
545.136
544.99
544.852
544.72
544.594
544.472
544.352
544.234
544.116
544
543.885
543.77
543.656
543.542
543.429
543.317
543.205
543.093
542.982
542.871
542.761
542.651
542.542
542.433
542.324
542.215
542.107
541.999
541.891
541.783
541.676
541.568
541.461
541.353
541.246
541.139
541.032
540.925
540.818
540.711
540.604
552.491
552.373
552.257
552.143
552.032
551.925
551.823
551.726
551.635
551.548
551.466
551.389
551.316
551.246
551.178
551.111
551.046
550.98
550.914
550.847
550.779
550.709
550.638
550.564
550.489
550.411
550.332
550.252
550.17
550.088
550.006
549.923
549.839
549.756
549.671
549.586
549.501
549.415
549.329
549.242
549.154
549.066
548.977
548.889
548.8
548.711
548.623
548.535
548.447
548.359
548.271
548.184
548.096
548.009
547.923
547.837
547.751
547.666
547.58
547.493
547.406
547.316
547.225
547.132
547.036
546.937
546.836
546.731
546.622
546.509
546.393
546.27
546.142
546.008
545.868
545.725
545.578
545.429
545.281
545.134
544.992
544.855
544.723
544.596
544.472
544.351
544.232
544.114
543.998
543.882
543.767
543.653
543.54
543.427
543.314
543.203
543.091
542.98
542.87
542.76
542.65
542.541
542.432
542.323
542.215
542.106
541.998
541.89
541.783
541.675
541.568
541.46
541.353
541.246
541.139
541.032
540.924
540.817
540.71
540.603
552.487
552.361
552.236
552.114
551.996
551.882
551.774
551.671
551.575
551.484
551.399
551.319
551.243
551.172
551.103
551.036
550.97
550.904
550.838
550.771
550.703
550.634
550.564
550.491
550.417
550.341
550.263
550.184
550.104
550.024
549.943
549.861
549.78
549.697
549.614
549.531
549.447
549.363
549.278
549.192
549.106
549.019
548.932
548.844
548.757
548.669
548.582
548.495
548.409
548.323
548.237
548.151
548.065
547.98
547.895
547.811
547.727
547.643
547.558
547.472
547.385
547.296
547.205
547.11
547.013
546.913
546.809
546.702
546.592
546.477
546.359
546.237
546.109
545.976
545.84
545.7
545.557
545.414
545.27
545.127
544.988
544.852
544.721
544.594
544.47
544.348
544.229
544.111
543.994
543.879
543.764
543.65
543.537
543.424
543.312
543.201
543.089
542.979
542.868
542.759
542.649
542.54
542.431
542.322
542.214
542.105
541.998
541.89
541.782
541.675
541.567
541.46
541.353
541.245
541.138
541.031
540.924
540.817
540.71
540.603
552.483
552.348
552.216
552.086
551.96
551.84
551.725
551.617
551.515
551.419
551.331
551.248
551.17
551.097
551.027
550.959
550.893
550.826
550.76
550.694
550.627
550.558
550.489
550.417
550.344
550.27
550.194
550.117
550.039
549.96
549.881
549.801
549.721
549.64
549.559
549.478
549.395
549.313
549.229
549.145
549.06
548.975
548.89
548.804
548.718
548.632
548.546
548.461
548.377
548.292
548.208
548.125
548.042
547.959
547.876
547.794
547.711
547.629
547.545
547.461
547.374
547.285
547.193
547.098
547
546.898
546.792
546.682
546.569
546.452
546.332
546.208
546.08
545.948
545.813
545.676
545.536
545.396
545.255
545.116
544.978
544.845
544.714
544.587
544.464
544.343
544.223
544.106
543.99
543.875
543.76
543.647
543.534
543.422
543.31
543.198
543.088
542.977
542.867
542.757
542.648
542.538
542.43
542.321
542.213
542.105
541.997
541.889
541.781
541.674
541.567
541.459
541.352
541.245
541.138
541.031
540.924
540.817
540.71
540.603
552.479
552.337
552.197
552.06
551.927
551.8
551.679
551.565
551.458
551.358
551.265
551.179
551.099
551.023
550.952
550.883
550.816
550.75
550.684
550.617
550.55
550.483
550.414
550.344
550.272
550.199
550.125
550.05
549.974
549.897
549.819
549.742
549.664
549.585
549.506
549.426
549.346
549.265
549.183
549.101
549.018
548.935
548.851
548.767
548.683
548.599
548.516
548.432
548.35
548.268
548.186
548.105
548.024
547.944
547.864
547.784
547.704
547.623
547.541
547.458
547.372
547.283
547.19
547.095
546.994
546.89
546.782
546.669
546.552
546.432
546.309
546.183
546.054
545.922
545.788
545.652
545.514
545.376
545.238
545.1
544.964
544.832
544.703
544.577
544.455
544.334
544.216
544.099
543.984
543.869
543.756
543.643
543.531
543.419
543.307
543.196
543.085
542.975
542.865
542.756
542.646
542.537
542.429
542.32
542.212
542.104
541.996
541.888
541.781
541.673
541.566
541.459
541.352
541.245
541.138
541.031
540.924
540.817
540.71
540.603
552.475
552.327
552.18
552.037
551.897
551.764
551.637
551.517
551.405
551.301
551.204
551.114
551.031
550.953
550.88
550.81
550.742
550.675
550.609
550.543
550.476
550.409
550.341
550.272
550.201
550.13
550.057
549.984
549.909
549.835
549.759
549.684
549.608
549.531
549.454
549.377
549.299
549.22
549.14
549.06
548.979
548.898
548.816
548.734
548.652
548.57
548.489
548.408
548.328
548.248
548.169
548.091
548.013
547.935
547.858
547.781
547.703
547.624
547.544
547.461
547.376
547.287
547.194
547.097
546.995
546.888
546.776
546.66
546.539
546.415
546.288
546.16
546.029
545.896
545.761
545.626
545.489
545.352
545.215
545.079
544.945
544.814
544.687
544.563
544.442
544.323
544.206
544.091
543.977
543.863
543.751
543.638
543.527
543.415
543.304
543.194
543.083
542.973
542.863
542.754
542.645
542.536
542.427
542.319
542.211
542.103
541.995
541.888
541.78
541.673
541.566
541.459
541.351
541.245
541.138
541.031
540.924
540.817
540.71
540.603
552.473
552.319
552.167
552.018
551.873
551.734
551.601
551.476
551.359
551.25
551.149
551.056
550.97
550.889
550.813
550.741
550.672
550.605
550.538
550.472
550.405
550.338
550.271
550.202
550.133
550.062
549.991
549.919
549.847
549.774
549.701
549.627
549.554
549.479
549.404
549.329
549.253
549.176
549.099
549.021
548.942
548.863
548.783
548.704
548.624
548.545
548.465
548.387
548.309
548.232
548.156
548.081
548.006
547.932
547.857
547.783
547.707
547.631
547.552
547.47
547.385
547.296
547.203
547.104
546.999
546.889
546.774
546.653
546.527
546.398
546.267
546.135
546.001
545.866
545.731
545.595
545.458
545.322
545.186
545.051
544.919
544.79
544.666
544.545
544.426
544.309
544.194
544.081
543.968
543.856
543.744
543.633
543.522
543.412
543.301
543.191
543.081
542.971
542.862
542.752
542.643
542.535
542.426
542.318
542.21
542.102
541.994
541.887
541.78
541.672
541.565
541.458
541.351
541.244
541.137
541.03
540.924
540.817
540.71
540.603
552.471
552.314
552.158
552.005
551.855
551.711
551.574
551.444
551.322
551.209
551.104
551.007
550.917
550.833
550.755
550.681
550.61
550.541
550.473
550.406
550.34
550.272
550.205
550.137
550.068
549.999
549.929
549.858
549.787
549.716
549.644
549.572
549.501
549.428
549.356
549.282
549.208
549.134
549.058
548.983
548.906
548.829
548.752
548.675
548.597
548.52
548.444
548.368
548.293
548.219
548.145
548.073
548.002
547.93
547.859
547.787
547.714
547.64
547.562
547.482
547.397
547.308
547.213
547.112
547.004
546.89
546.77
546.644
546.512
546.378
546.241
546.104
545.966
545.829
545.692
545.555
545.419
545.283
545.149
545.015
544.885
544.76
544.639
544.521
544.406
544.293
544.18
544.069
543.958
543.848
543.737
543.627
543.517
543.408
543.298
543.188
543.078
542.969
542.86
542.751
542.642
542.534
542.425
542.317
542.209
542.101
541.994
541.886
541.779
541.672
541.565
541.458
541.351
541.244
541.137
541.03
540.924
540.817
540.71
540.603
552.471
552.312
552.154
551.998
551.846
551.698
551.557
551.423
551.297
551.179
551.07
550.969
550.875
550.788
550.707
550.63
550.556
550.486
550.416
550.349
550.281
550.214
550.146
550.078
550.009
549.94
549.871
549.801
549.73
549.66
549.589
549.519
549.449
549.378
549.307
549.236
549.164
549.092
549.019
548.945
548.871
548.796
548.721
548.646
548.571
548.496
548.422
548.349
548.277
548.205
548.135
548.066
547.997
547.929
547.861
547.791
547.721
547.648
547.572
547.493
547.408
547.318
547.221
547.117
547.005
546.886
546.76
546.627
546.49
546.348
546.205
546.062
545.92
545.779
545.64
545.502
545.367
545.232
545.099
544.968
544.842
544.722
544.606
544.494
544.383
544.273
544.164
544.055
543.947
543.838
543.73
543.621
543.512
543.403
543.294
543.185
543.076
542.967
542.858
542.749
542.641
542.532
542.424
542.316
542.208
542.1
541.993
541.886
541.778
541.671
541.564
541.457
541.35
541.244
541.137
541.03
540.923
540.817
540.71
540.603
552.471
552.314
552.157
552.001
551.848
551.698
551.554
551.416
551.287
551.165
551.051
550.946
550.848
550.756
550.671
550.591
550.515
550.442
550.371
550.301
550.233
550.164
550.096
550.027
549.957
549.888
549.818
549.748
549.677
549.607
549.537
549.467
549.398
549.329
549.259
549.19
549.12
549.05
548.979
548.907
548.835
548.763
548.69
548.617
548.544
548.472
548.4
548.329
548.259
548.191
548.123
548.057
547.991
547.925
547.859
547.792
547.724
547.653
547.578
547.499
547.413
547.321
547.222
547.113
546.996
546.871
546.737
546.597
546.452
546.303
546.153
546.004
545.856
545.711
545.569
545.431
545.296
545.164
545.034
544.908
544.787
544.675
544.567
544.461
544.356
544.251
544.146
544.041
543.935
543.828
543.722
543.614
543.507
543.399
543.29
543.182
543.073
542.965
542.856
542.748
542.639
542.531
542.423
542.315
542.207
542.1
541.992
541.885
541.778
541.671
541.564
541.457
541.35
541.243
541.137
541.03
540.923
540.817
540.71
540.603
552.474
552.321
552.167
552.014
551.861
551.712
551.566
551.426
551.293
551.167
551.049
550.939
550.837
550.741
550.652
550.568
550.489
550.413
550.339
550.268
550.197
550.127
550.057
549.986
549.916
549.844
549.773
549.702
549.63
549.559
549.489
549.419
549.35
549.281
549.213
549.145
549.077
549.008
548.939
548.87
548.8
548.729
548.658
548.587
548.516
548.445
548.375
548.306
548.239
548.172
548.107
548.042
547.979
547.915
547.851
547.786
547.719
547.649
547.574
547.494
547.408
547.314
547.21
547.096
546.972
546.838
546.695
546.545
546.391
546.234
546.076
545.92
545.767
545.617
545.472
545.333
545.2
545.072
544.948
544.829
544.719
544.619
544.522
544.426
544.328
544.228
544.127
544.025
543.922
543.818
543.713
543.607
543.501
543.394
543.287
543.179
543.071
542.963
542.854
542.746
542.638
542.53
542.422
542.314
542.206
542.099
541.992
541.884
541.777
541.67
541.563
541.457
541.35
541.243
541.136
541.03
540.923
540.816
540.71
540.603
552.478
552.332
552.185
552.037
551.888
551.74
551.595
551.455
551.319
551.19
551.068
550.953
550.845
550.745
550.651
550.563
550.48
550.401
550.325
550.251
550.178
550.106
550.033
549.96
549.887
549.813
549.739
549.666
549.592
549.519
549.447
549.376
549.306
549.237
549.17
549.103
549.036
548.969
548.902
548.834
548.765
548.696
548.626
548.556
548.487
548.417
548.348
548.28
548.213
548.148
548.084
548.021
547.958
547.896
547.833
547.768
547.701
547.63
547.555
547.474
547.386
547.289
547.18
547.059
546.926
546.781
546.626
546.464
546.298
546.131
545.965
545.802
545.644
545.489
545.339
545.198
545.068
544.948
544.833
544.726
544.632
544.553
544.474
544.388
544.298
544.204
544.108
544.009
543.909
543.807
543.704
543.6
543.495
543.389
543.283
543.176
543.068
542.961
542.853
542.745
542.637
542.529
542.421
542.313
542.206
542.098
541.991
541.884
541.777
541.67
541.563
541.456
541.349
541.243
541.136
541.03
540.923
540.816
540.71
540.603
552.483
552.348
552.211
552.072
551.93
551.787
551.645
551.504
551.367
551.235
551.109
550.989
550.876
550.77
550.672
550.58
550.493
550.411
550.332
550.256
550.18
550.105
550.029
549.952
549.876
549.799
549.721
549.644
549.567
549.491
549.417
549.344
549.272
549.203
549.135
549.068
549.002
548.936
548.87
548.803
548.735
548.667
548.598
548.528
548.458
548.388
548.318
548.25
548.182
548.116
548.052
547.988
547.925
547.862
547.798
547.732
547.663
547.591
547.514
547.431
547.34
547.239
547.125
546.996
546.852
546.694
546.525
546.348
546.167
545.987
545.811
545.641
545.479
545.319
545.164
545.019
544.89
544.783
544.681
544.595
544.523
544.484
544.426
544.353
544.27
544.182
544.089
543.994
543.896
543.797
543.696
543.593
543.49
543.385
543.279
543.173
543.066
542.959
542.851
542.743
542.636
542.528
542.42
542.312
542.205
542.098
541.99
541.883
541.776
541.669
541.563
541.456
541.349
541.243
541.136
541.029
540.923
540.816
540.71
540.603
552.491
552.372
552.249
552.122
551.99
551.854
551.716
551.577
551.44
551.305
551.175
551.049
550.93
550.818
550.715
550.619
550.53
550.446
550.365
550.287
550.209
550.13
550.05
549.97
549.889
549.807
549.726
549.645
549.565
549.485
549.408
549.332
549.258
549.186
549.116
549.048
548.981
548.915
548.849
548.782
548.715
548.645
548.575
548.504
548.431
548.359
548.286
548.215
548.144
548.075
548.007
547.94
547.874
547.808
547.741
547.671
547.599
547.523
547.443
547.357
547.263
547.159
547.039
546.9
546.743
546.571
546.386
546.192
545.993
545.796
545.606
545.429
545.265
545.102
544.939
544.785
544.652
544.566
544.479
544.429
544.378
544.43
544.391
544.324
544.246
544.161
544.072
543.979
543.884
543.787
543.688
543.587
543.484
543.381
543.276
543.17
543.064
542.957
542.849
542.742
542.634
542.527
542.419
542.312
542.204
542.097
541.99
541.883
541.776
541.669
541.562
541.456
541.349
541.242
541.136
541.029
540.923
540.816
540.71
540.603
552.501
552.402
552.298
552.186
552.067
551.941
551.809
551.674
551.537
551.401
551.265
551.133
551.008
550.891
550.783
550.685
550.595
550.511
550.431
550.352
550.273
550.191
550.106
550.021
549.935
549.849
549.764
549.678
549.594
549.512
549.432
549.354
549.277
549.201
549.127
549.055
548.985
548.916
548.848
548.779
548.708
548.636
548.562
548.486
548.409
548.331
548.252
548.174
548.096
548.019
547.945
547.873
547.801
547.728
547.654
547.578
547.5
547.418
547.334
547.244
547.148
547.041
546.916
546.767
546.593
546.404
546.204
545.995
545.776
545.559
545.351
545.165
544.999
544.834
544.662
544.496
544.356
544.286
544.223
544.254
544.459
544.464
544.381
544.305
544.226
544.143
544.056
543.966
543.873
543.778
543.68
543.581
543.479
543.377
543.272
543.167
543.061
542.955
542.848
542.741
542.633
542.526
542.419
542.311
542.204
542.097
541.989
541.882
541.776
541.669
541.562
541.455
541.349
541.242
541.136
541.029
540.923
540.816
540.71
540.603
552.514
552.438
552.355
552.263
552.16
552.047
551.923
551.793
551.658
551.521
551.381
551.242
551.11
550.987
550.878
550.781
550.694
550.613
550.537
550.462
550.382
550.299
550.211
550.121
550.03
549.94
549.849
549.758
549.669
549.583
549.503
549.425
549.347
549.266
549.183
549.102
549.024
548.948
548.874
548.799
548.723
548.645
548.564
548.479
548.393
548.304
548.214
548.124
548.034
547.946
547.861
547.779
547.697
547.614
547.53
547.443
547.355
547.265
547.177
547.086
546.989
546.881
546.754
546.589
546.395
546.182
545.968
545.751
545.518
545.279
545.051
544.859
544.704
544.531
544.346
544.167
544.044
544.009
544.128
544.234
544.289
544.431
544.36
544.285
544.207
544.126
544.042
543.954
543.863
543.769
543.673
543.575
543.475
543.373
543.27
543.165
543.06
542.953
542.847
542.74
542.633
542.525
542.418
542.311
542.203
542.096
541.989
541.882
541.775
541.668
541.562
541.455
541.349
541.242
541.135
541.029
540.923
540.816
540.71
540.603
552.527
552.476
552.416
552.346
552.263
552.164
552.051
551.929
551.798
551.663
551.522
551.377
551.237
551.112
551.007
550.92
550.844
550.771
550.701
550.633
550.557
550.475
550.388
550.299
550.206
550.108
550.009
549.907
549.806
549.715
549.639
549.57
549.495
549.406
549.307
549.21
549.117
549.024
548.936
548.851
548.766
548.68
548.586
548.488
548.386
548.282
548.173
548.064
547.955
547.848
547.75
547.653
547.556
547.458
547.359
547.255
547.154
547.056
546.969
546.883
546.788
546.681
546.554
546.364
546.143
545.897
545.667
545.443
545.208
544.942
544.683
544.502
544.401
544.085
543.931
543.789
543.669
543.699
543.864
544.035
544.205
544.403
544.338
544.266
544.19
544.111
544.029
543.943
543.854
543.762
543.668
543.57
543.471
543.37
543.267
543.163
543.058
542.952
542.846
542.739
542.632
542.525
542.417
542.31
542.203
542.096
541.989
541.882
541.775
541.668
541.562
541.455
541.348
541.242
541.135
541.029
540.922
540.816
540.71
540.603
552.54
552.514
552.475
552.426
552.364
552.284
552.188
552.081
551.96
551.832
551.693
551.545
551.401
551.277
551.198
551.145
551.098
551.026
550.959
550.897
550.826
550.76
550.692
550.622
550.529
550.411
550.293
550.165
550.036
549.933
549.873
549.827
549.761
549.661
549.535
549.416
549.303
549.17
549.05
548.944
548.846
548.753
548.639
548.53
548.408
548.279
548.135
548.001
547.867
547.731
547.626
547.497
547.368
547.251
547.131
547.006
546.896
546.795
546.725
546.652
546.556
546.45
546.318
546.06
545.815
545.518
545.29
545.038
544.839
544.538
544.308
544.066
543.892
543.716
543.651
543.584
543.585
543.678
543.864
544.018
544.192
544.39
544.319
544.247
544.174
544.098
544.017
543.934
543.847
543.756
543.663
543.566
543.468
543.367
543.265
543.162
543.057
542.951
542.845
542.738
542.631
542.524
542.417
542.31
542.203
542.096
541.989
541.882
541.775
541.668
541.561
541.455
541.348
541.242
541.135
541.029
540.922
540.816
540.71
540.603
552.552
552.551
552.529
552.501
552.458
552.399
552.335
552.269
552.169
552.058
551.932
551.788
551.646
551.517
551.505
551.528
551.532
551.414
551.321
551.254
551.177
551.173
551.185
551.196
551.089
550.886
550.725
550.546
550.373
550.257
550.237
550.215
550.151
550.051
549.887
549.78
549.671
549.423
549.222
549.06
548.931
548.841
548.692
548.624
548.478
548.322
548.103
547.952
547.793
547.589
547.55
547.3
547.071
546.948
546.804
546.68
546.614
546.499
546.462
546.414
546.281
546.165
546.047
545.724
545.434
545.05
544.827
544.403
544.18
544.014
543.957
543.766
543.546
543.252
543.425
543.432
543.476
543.577
543.881
544.118
544.241
544.38
544.298
544.228
544.159
544.086
544.008
543.926
543.841
543.751
543.659
543.563
543.466
543.365
543.264
543.16
543.056
542.951
542.844
542.738
542.631
542.524
542.417
542.31
542.203
542.096
541.989
541.882
541.775
541.668
541.561
541.455
541.348
541.242
541.135
541.029
540.922
540.816
540.71
540.603
552.561
552.586
552.582
552.595
552.548
552.499
552.488
552.521
552.48
552.389
552.263
552.161
552.093
551.836
551.939
552.109
552.129
551.82
551.601
551.451
551.336
551.515
551.752
551.963
551.69
551.321
551.095
550.849
550.671
550.685
550.662
550.498
550.43
550.441
550.298
550.219
550.172
549.76
549.365
549.045
548.776
548.706
548.729
548.73
548.583
548.353
548.146
547.962
547.689
547.309
547.345
546.886
546.536
546.366
546.163
546.251
546.347
546.199
545.99
546.113
545.823
545.632
545.642
545.226
544.918
544.501
543.941
543.475
543.399
543.492
543.844
543.726
543.472
543.3
543.313
543.433
543.55
543.669
543.834
544.112
544.21
544.309
544.263
544.208
544.146
544.076
544.001
543.921
543.836
543.748
543.656
543.561
543.464
543.364
543.263
543.16
543.055
542.95
542.844
542.738
542.631
542.524
542.417
542.31
542.203
542.096
541.989
541.882
541.775
541.668
541.562
541.455
541.348
541.242
541.135