0.010101 	7.62507e-17 	-8.12577e-20 	7.80122e-19
0.020202 	2.20294e-18 	-6.73973e-21 	4.5037e-20
