/*--------------------------------*- C++ -*----------------------------------*\
  =========                 |
  \\      /  F ield         | OpenFOAM: The Open Source CFD Toolbox
   \\    /   O peration     | Website:  https://openfoam.org
    \\  /    A nd           | Version:  6
     \\/     M anipulation  |
\*---------------------------------------------------------------------------*/
FoamFile
{
    version     2.0;
    format      ascii;
    class       volVectorField;
    location    "3700";
    object      U;
}
// * * * * * * * * * * * * * * * * * * * * * * * * * * * * * * * * * * * * * //

dimensions      [0 1 -1 0 0 0 0];

internalField   nonuniform List<vector> 
4800
(
(-6.67969e-09 0 7.97651e-09)
(-2.2585e-08 0 5.25992e-09)
(-3.72165e-08 0 4.24186e-09)
(-5.18515e-08 0 3.95563e-09)
(-6.62043e-08 0 3.91597e-09)
(-8.01735e-08 0 3.96796e-09)
(-9.36786e-08 0 4.06646e-09)
(-1.06659e-07 0 4.16085e-09)
(-1.1905e-07 0 4.23117e-09)
(-1.3079e-07 0 4.24683e-09)
(-1.41826e-07 0 4.21649e-09)
(-1.52118e-07 0 4.11592e-09)
(-1.6162e-07 0 3.93144e-09)
(-1.70334e-07 0 3.74845e-09)
(-1.78295e-07 0 3.52278e-09)
(-1.85553e-07 0 3.32516e-09)
(-1.92183e-07 0 3.04087e-09)
(-1.97666e-07 0 2.41057e-09)
(-2.02214e-07 0 2.11668e-09)
(-2.06393e-07 0 1.9685e-09)
(-2.09955e-07 0 1.78925e-09)
(-2.12374e-07 0 8.59284e-10)
(-2.14109e-07 0 9.15855e-10)
(-2.15462e-07 0 5.7562e-10)
(-2.16098e-07 0 2.44333e-10)
(-2.16112e-07 0 -2.22769e-11)
(-2.15605e-07 0 -2.74314e-10)
(-2.14556e-07 0 -5.37628e-10)
(-2.12975e-07 0 -7.75052e-10)
(-2.10888e-07 0 -1.03547e-09)
(-2.08271e-07 0 -1.28674e-09)
(-2.05157e-07 0 -1.52792e-09)
(-2.01555e-07 0 -1.76978e-09)
(-1.97469e-07 0 -2.01238e-09)
(-1.92893e-07 0 -2.25351e-09)
(-1.8785e-07 0 -2.4843e-09)
(-1.82342e-07 0 -2.72659e-09)
(-1.76388e-07 0 -2.94465e-09)
(-1.69984e-07 0 -3.16784e-09)
(-1.63183e-07 0 -3.37101e-09)
(-1.55986e-07 0 -3.57116e-09)
(-1.48418e-07 0 -3.74871e-09)
(-1.40532e-07 0 -3.91057e-09)
(-1.3235e-07 0 -4.05663e-09)
(-1.23931e-07 0 -4.16085e-09)
(-1.15308e-07 0 -4.2694e-09)
(-1.06537e-07 0 -4.33063e-09)
(-9.76819e-08 0 -4.36368e-09)
(-8.88053e-08 0 -4.36445e-09)
(-7.99601e-08 0 -4.34765e-09)
(-7.12025e-08 0 -4.28879e-09)
(-6.26031e-08 0 -4.20376e-09)
(-5.42231e-08 0 -4.08291e-09)
(-4.6126e-08 0 -3.93225e-09)
(-3.83678e-08 0 -3.75373e-09)
(-3.09872e-08 0 -3.56812e-09)
(-2.40152e-08 0 -3.34783e-09)
(-1.7513e-08 0 -3.1212e-09)
(-1.14875e-08 0 -2.86664e-09)
(-5.97955e-09 0 -2.6269e-09)
(-9.66652e-10 0 -2.37427e-09)
(3.5293e-09 0 -2.12649e-09)
(7.52074e-09 0 -1.88101e-09)
(1.10205e-08 0 -1.64697e-09)
(1.40518e-08 0 -1.42731e-09)
(1.66585e-08 0 -1.23675e-09)
(1.88748e-08 0 -1.05108e-09)
(2.07349e-08 0 -8.9345e-10)
(2.23043e-08 0 -7.76241e-10)
(2.36779e-08 0 -7.06819e-10)
(2.4933e-08 0 -6.70405e-10)
(2.61944e-08 0 -7.12768e-10)
(2.76803e-08 0 -8.68675e-10)
(2.98207e-08 0 -1.31209e-09)
(3.38188e-08 0 -2.5508e-09)
(4.30096e-08 0 -6.23134e-09)
(6.37381e-08 0 -1.87301e-08)
(4.07657e-08 0 1.39541e-08)
(-7.87556e-13 0 1.82764e-08)
(3.62144e-16 0 -2.65556e-17)
(1.64677e-16 0 -7.23783e-20)
(3.26705e-16 0 4.03251e-19)
(3.25516e-16 0 8.6854e-19)
(3.23459e-16 0 1.35451e-18)
(3.20491e-16 0 1.80946e-18)
(3.16655e-16 0 2.25407e-18)
(3.12002e-16 0 2.66766e-18)
(3.06636e-16 0 3.06057e-18)
(3.00577e-16 0 3.42246e-18)
(2.93784e-16 0 3.74299e-18)
(2.86401e-16 0 4.05319e-18)
(2.78532e-16 0 4.32202e-18)
(2.70157e-16 0 4.53915e-18)
(2.61348e-16 0 4.73561e-18)
(2.52228e-16 0 4.93206e-18)
(2.42798e-16 0 5.06648e-18)
(2.33068e-16 0 5.16988e-18)
(2.23153e-16 0 5.26294e-18)
(2.13113e-16 0 5.33532e-18)
(2.02928e-16 0 5.36633e-18)
(1.92681e-16 0 5.38701e-18)
(1.82404e-16 0 5.37667e-18)
(1.72095e-16 0 5.35599e-18)
(1.61786e-16 0 5.32498e-18)
(1.51457e-16 0 5.28362e-18)
(1.41158e-16 0 5.22158e-18)
(1.30932e-16 0 5.1492e-18)
(1.20789e-16 0 5.08716e-18)
(1.10718e-16 0 5.01478e-18)
(1.00689e-16 0 4.95274e-18)
(9.07624e-17 0 4.85969e-18)
(8.0919e-17 0 4.76663e-18)
(7.11065e-17 0 4.67357e-18)
(6.13768e-17 0 4.60119e-18)
(5.17505e-17 0 4.51847e-18)
(4.21759e-17 0 4.4461e-18)
(3.26116e-17 0 4.35304e-18)
(2.31404e-17 0 4.291e-18)
(1.37622e-17 0 4.1876e-18)
(4.53915e-18 0 4.03251e-18)
(-6.59683e-09 0 2.26502e-08)
(-2.25061e-08 0 2.46972e-08)
(-3.75319e-08 0 2.51172e-08)
(-5.24329e-08 0 2.4804e-08)
(-6.69522e-08 0 2.41318e-08)
(-8.10413e-08 0 2.32573e-08)
(-9.46495e-08 0 2.22259e-08)
(-1.077e-07 0 2.10713e-08)
(-1.20126e-07 0 1.98154e-08)
(-1.31881e-07 0 1.84861e-08)
(-1.4292e-07 0 1.71078e-08)
(-1.53188e-07 0 1.56829e-08)
(-1.62655e-07 0 1.41977e-08)
(-1.71327e-07 0 1.29292e-08)
(-1.79264e-07 0 1.1723e-08)
(-1.86531e-07 0 1.0766e-08)
(-1.93081e-07 0 9.5881e-09)
(-1.98455e-07 0 7.46947e-09)
(-2.03022e-07 0 6.47811e-09)
(-2.07188e-07 0 5.96799e-09)
(-2.10666e-07 0 5.26914e-09)
(-2.1303e-07 0 2.49599e-09)
(-2.148e-07 0 2.5463e-09)
(-2.16105e-07 0 1.50415e-09)
(-2.16698e-07 0 4.10633e-10)
(-2.16676e-07 0 -4.03511e-10)
(-2.16157e-07 0 -1.197e-09)
(-2.15097e-07 0 -2.02779e-09)
(-2.13489e-07 0 -2.78722e-09)
(-2.11376e-07 0 -3.58189e-09)
(-2.08757e-07 0 -4.34536e-09)
(-2.05645e-07 0 -5.07799e-09)
(-2.0203e-07 0 -5.82139e-09)
(-1.97933e-07 0 -6.53483e-09)
(-1.93364e-07 0 -7.24169e-09)
(-1.88311e-07 0 -7.96264e-09)
(-1.82784e-07 0 -8.65089e-09)
(-1.76822e-07 0 -9.29944e-09)
(-1.70398e-07 0 -9.95336e-09)
(-1.63571e-07 0 -1.05512e-08)
(-1.56344e-07 0 -1.11242e-08)
(-1.48745e-07 0 -1.16429e-08)
(-1.40825e-07 0 -1.21059e-08)
(-1.32607e-07 0 -1.25166e-08)
(-1.24128e-07 0 -1.28387e-08)
(-1.15439e-07 0 -1.31141e-08)
(-1.06617e-07 0 -1.32875e-08)
(-9.77019e-08 0 -1.33625e-08)
(-8.87516e-08 0 -1.33575e-08)
(-7.98336e-08 0 -1.32684e-08)
(-7.10203e-08 0 -1.30705e-08)
(-6.23706e-08 0 -1.27863e-08)
(-5.39455e-08 0 -1.24033e-08)
(-4.57961e-08 0 -1.19376e-08)
(-3.79839e-08 0 -1.13799e-08)
(-3.05606e-08 0 -1.07961e-08)
(-2.3555e-08 0 -1.01191e-08)
(-1.70289e-08 0 -9.40761e-09)
(-1.09894e-08 0 -8.62835e-09)
(-5.47186e-09 0 -7.88528e-09)
(-4.57508e-10 0 -7.10458e-09)
(4.03926e-09 0 -6.3433e-09)
(8.02163e-09 0 -5.57402e-09)
(1.14965e-08 0 -4.84247e-09)
(1.45033e-08 0 -4.16193e-09)
(1.70683e-08 0 -3.53937e-09)
(1.92147e-08 0 -2.94959e-09)
(2.10111e-08 0 -2.45929e-09)
(2.25251e-08 0 -2.0791e-09)
(2.38186e-08 0 -1.82488e-09)
(2.49461e-08 0 -1.66791e-09)
(2.59855e-08 0 -1.73154e-09)
(2.70393e-08 0 -2.0969e-09)
(2.81287e-08 0 -3.04312e-09)
(2.89374e-08 0 -5.30456e-09)
(2.83272e-08 0 -1.10093e-08)
(1.59988e-08 0 -2.7045e-08)
(1.1421e-08 0 4.88513e-08)
(-6.04197e-13 0 4.01278e-08)
(3.52828e-16 0 -6.08811e-17)
(1.6518e-16 0 -1.75776e-19)
(3.27657e-16 0 1.30281e-18)
(3.26447e-16 0 2.76072e-18)
(3.24379e-16 0 4.21862e-18)
(3.21411e-16 0 5.61449e-18)
(3.17524e-16 0 6.94832e-18)
(3.12809e-16 0 8.22011e-18)
(3.07391e-16 0 9.40918e-18)
(3.01259e-16 0 1.05155e-17)
(2.94425e-16 0 1.14875e-17)
(2.8698e-16 0 1.2387e-17)
(2.79029e-16 0 1.31935e-17)
(2.70581e-16 0 1.38656e-17)
(2.61741e-16 0 1.44653e-17)
(2.52569e-16 0 1.5003e-17)
(2.43046e-16 0 1.54062e-17)
(2.33275e-16 0 1.57371e-17)
(2.23318e-16 0 1.59853e-17)
(2.13216e-16 0 1.6161e-17)
(2.0298e-16 0 1.62231e-17)
(1.92681e-16 0 1.62955e-17)
(1.82383e-16 0 1.62851e-17)
(1.72043e-16 0 1.61714e-17)
(1.61693e-16 0 1.60576e-17)
(1.51343e-16 0 1.58819e-17)
(1.41024e-16 0 1.56958e-17)
(1.30808e-16 0 1.54683e-17)
(1.20655e-16 0 1.51994e-17)
(1.10563e-16 0 1.49513e-17)
(1.00523e-16 0 1.46825e-17)
(9.05866e-17 0 1.43826e-17)
(8.07432e-17 0 1.40621e-17)
(7.09307e-17 0 1.37622e-17)
(6.12321e-17 0 1.3483e-17)
(5.16057e-17 0 1.32039e-17)
(4.20001e-17 0 1.29247e-17)
(3.24772e-17 0 1.26765e-17)
(2.29853e-17 0 1.24491e-17)
(1.3483e-17 0 1.22216e-17)
(4.37372e-18 0 1.19838e-17)
(-6.9862e-09 0 3.71318e-08)
(-2.33152e-08 0 3.7005e-08)
(-3.81114e-08 0 3.6537e-08)
(-5.28918e-08 0 3.58785e-08)
(-6.74177e-08 0 3.50088e-08)
(-8.15663e-08 0 3.39847e-08)
(-9.52528e-08 0 3.28105e-08)
(-1.08407e-07 0 3.14634e-08)
(-1.20955e-07 0 2.99589e-08)
(-1.32833e-07 0 2.83195e-08)
(-1.43992e-07 0 2.65595e-08)
(-1.54371e-07 0 2.46334e-08)
(-1.63924e-07 0 2.25849e-08)
(-1.72685e-07 0 2.07664e-08)
(-1.80753e-07 0 1.90224e-08)
(-1.8815e-07 0 1.77934e-08)
(-1.9464e-07 0 1.53433e-08)
(-1.99872e-07 0 1.22969e-08)
(-2.04552e-07 0 1.08037e-08)
(-2.08751e-07 0 9.95199e-09)
(-2.12036e-07 0 8.26828e-09)
(-2.14263e-07 0 4.39984e-09)
(-2.16095e-07 0 4.15828e-09)
(-2.17316e-07 0 2.49687e-09)
(-2.17831e-07 0 6.04624e-10)
(-2.17789e-07 0 -6.4129e-10)
(-2.17248e-07 0 -1.97975e-09)
(-2.16154e-07 0 -3.36119e-09)
(-2.14528e-07 0 -4.63269e-09)
(-2.12405e-07 0 -5.928e-09)
(-2.09773e-07 0 -7.1865e-09)
(-2.06641e-07 0 -8.41748e-09)
(-2.03013e-07 0 -9.65883e-09)
(-1.98903e-07 0 -1.08448e-08)
(-1.94306e-07 0 -1.20137e-08)
(-1.89232e-07 0 -1.32444e-08)
(-1.83687e-07 0 -1.43741e-08)
(-1.77695e-07 0 -1.54714e-08)
(-1.71224e-07 0 -1.65779e-08)
(-1.64346e-07 0 -1.7588e-08)
(-1.57062e-07 0 -1.85354e-08)
(-1.49401e-07 0 -1.94153e-08)
(-1.41402e-07 0 -2.02086e-08)
(-1.33084e-07 0 -2.0889e-08)
(-1.24509e-07 0 -2.14724e-08)
(-1.15723e-07 0 -2.19001e-08)
(-1.06797e-07 0 -2.22122e-08)
(-9.77659e-08 0 -2.23431e-08)
(-8.86984e-08 0 -2.23535e-08)
(-7.96591e-08 0 -2.21975e-08)
(-7.07179e-08 0 -2.18663e-08)
(-6.19389e-08 0 -2.1395e-08)
(-5.3388e-08 0 -2.07532e-08)
(-4.51339e-08 0 -1.99741e-08)
(-3.72333e-08 0 -1.90432e-08)
(-2.97141e-08 0 -1.80679e-08)
(-2.26262e-08 0 -1.69288e-08)
(-1.60464e-08 0 -1.57202e-08)
(-9.95791e-09 0 -1.44287e-08)
(-4.41838e-09 0 -1.31664e-08)
(5.97955e-10 0 -1.18661e-08)
(5.0701e-09 0 -1.05804e-08)
(9.00028e-09 0 -9.29311e-09)
(1.24313e-08 0 -8.08226e-09)
(1.53664e-08 0 -6.93537e-09)
(1.78292e-08 0 -5.87746e-09)
(1.98869e-08 0 -4.91531e-09)
(2.15855e-08 0 -4.10116e-09)
(2.29639e-08 0 -3.46703e-09)
(2.40862e-08 0 -3.0026e-09)
(2.49994e-08 0 -2.69888e-09)
(2.576e-08 0 -2.68631e-09)
(2.6346e-08 0 -2.97969e-09)
(2.65989e-08 0 -3.73966e-09)
(2.59168e-08 0 -5.08895e-09)
(2.29148e-08 0 -7.10552e-09)
(1.17321e-08 0 -8.56233e-09)
(5.44126e-09 0 4.72183e-08)
(-8.21107e-13 0 4.73377e-08)
(3.48345e-16 0 -8.21063e-17)
(1.66198e-16 0 -2.58494e-19)
(3.29652e-16 0 2.26441e-18)
(3.28411e-16 0 4.77697e-18)
(3.26302e-16 0 7.22749e-18)
(3.23242e-16 0 9.58496e-18)
(3.19261e-16 0 1.18183e-17)
(3.14473e-16 0 1.39794e-17)
(3.08942e-16 0 1.59956e-17)
(3.02665e-16 0 1.78154e-17)
(2.95676e-16 0 1.94698e-17)
(2.88107e-16 0 2.09587e-17)
(2.80011e-16 0 2.22925e-17)
(2.71439e-16 0 2.34299e-17)
(2.62485e-16 0 2.44328e-17)
(2.53169e-16 0 2.52704e-17)
(2.43543e-16 0 2.59321e-17)
(2.33658e-16 0 2.64801e-17)
(2.23577e-16 0 2.68937e-17)
(2.13351e-16 0 2.71419e-17)
(2.03063e-16 0 2.72453e-17)
(1.92712e-16 0 2.73073e-17)
(1.8228e-16 0 2.72659e-17)
(1.71867e-16 0 2.70902e-17)
(1.61486e-16 0 2.68317e-17)
(1.51105e-16 0 2.64905e-17)
(1.40755e-16 0 2.61286e-17)
(1.30457e-16 0 2.57046e-17)
(1.20272e-16 0 2.5229e-17)
(1.1018e-16 0 2.47224e-17)
(1.0012e-16 0 2.41847e-17)
(9.01627e-17 0 2.36574e-17)
(8.02986e-17 0 2.3068e-17)
(7.04965e-17 0 2.25303e-17)
(6.08185e-17 0 2.19823e-17)
(5.11921e-17 0 2.14653e-17)
(4.16175e-17 0 2.09587e-17)
(3.21463e-17 0 2.05037e-17)
(2.26958e-17 0 2.01212e-17)
(1.32659e-17 0 1.97903e-17)
(4.28066e-18 0 1.95628e-17)
(-7.01749e-09 0 5.29979e-08)
(-2.36271e-08 0 5.2716e-08)
(-3.87151e-08 0 5.2091e-08)
(-5.37458e-08 0 5.11934e-08)
(-6.84856e-08 0 4.99894e-08)
(-8.28518e-08 0 4.85218e-08)
(-9.67525e-08 0 4.68266e-08)
(-1.10096e-07 0 4.4859e-08)
(-1.22819e-07 0 4.26816e-08)
(-1.34866e-07 0 4.02918e-08)
(-1.46153e-07 0 3.77118e-08)
(-1.56637e-07 0 3.48857e-08)
(-1.66288e-07 0 3.19833e-08)
(-1.75117e-07 0 2.92997e-08)
(-1.83282e-07 0 2.6891e-08)
(-1.90772e-07 0 2.51871e-08)
(-1.97071e-07 0 2.11282e-08)
(-2.02081e-07 0 1.71446e-08)
(-2.06962e-07 0 1.51829e-08)
(-2.11191e-07 0 1.41006e-08)
(-2.14105e-07 0 1.0956e-08)
(-2.16145e-07 0 6.4738e-09)
(-2.18058e-07 0 5.7013e-09)
(-2.19135e-07 0 3.42091e-09)
(-2.1956e-07 0 6.81636e-10)
(-2.1949e-07 0 -8.97747e-10)
(-2.18886e-07 0 -2.83297e-09)
(-2.17742e-07 0 -4.74375e-09)
(-2.16085e-07 0 -6.51449e-09)
(-2.13944e-07 0 -8.31359e-09)
(-2.11287e-07 0 -1.00841e-08)
(-2.08128e-07 0 -1.18154e-08)
(-2.04478e-07 0 -1.35384e-08)
(-2.00344e-07 0 -1.5213e-08)
(-1.95724e-07 0 -1.68419e-08)
(-1.9063e-07 0 -1.85741e-08)
(-1.85059e-07 0 -2.01641e-08)
(-1.79024e-07 0 -2.17125e-08)
(-1.72496e-07 0 -2.32811e-08)
(-1.65558e-07 0 -2.47134e-08)
(-1.58175e-07 0 -2.60657e-08)
(-1.50386e-07 0 -2.72988e-08)
(-1.42291e-07 0 -2.84359e-08)
(-1.33842e-07 0 -2.94069e-08)
(-1.25128e-07 0 -3.02322e-08)
(-1.16176e-07 0 -3.08491e-08)
(-1.07067e-07 0 -3.12972e-08)
(-9.78533e-08 0 -3.14912e-08)
(-8.85989e-08 0 -3.15062e-08)
(-7.93707e-08 0 -3.12959e-08)
(-7.02391e-08 0 -3.08253e-08)
(-6.12823e-08 0 -3.01546e-08)
(-5.25599e-08 0 -2.92502e-08)
(-4.4129e-08 0 -2.81435e-08)
(-3.60613e-08 0 -2.68271e-08)
(-2.84138e-08 0 -2.54312e-08)
(-2.12425e-08 0 -2.37983e-08)
(-1.45799e-08 0 -2.20807e-08)
(-8.42824e-09 0 -2.02618e-08)
(-2.84228e-09 0 -1.84447e-08)
(2.16557e-09 0 -1.65877e-08)
(6.62053e-09 0 -1.47493e-08)
(1.05112e-08 0 -1.29232e-08)
(1.38633e-08 0 -1.1203e-08)
(1.66961e-08 0 -9.55301e-09)
(1.90441e-08 0 -8.0341e-09)
(2.09558e-08 0 -6.68593e-09)
(2.24796e-08 0 -5.50342e-09)
(2.36579e-08 0 -4.57132e-09)
(2.45543e-08 0 -3.86581e-09)
(2.52232e-08 0 -3.37036e-09)
(2.5701e-08 0 -3.21193e-09)
(2.59949e-08 0 -3.32258e-09)
(2.60121e-08 0 -3.67363e-09)
(2.55296e-08 0 -4.07386e-09)
(2.45085e-08 0 -3.79998e-09)
(2.27336e-08 0 -4.86393e-10)
(3.98183e-09 0 5.41827e-08)
(-4.73575e-13 0 5.17618e-08)
(3.53184e-16 0 -1.13914e-16)
(1.67734e-16 0 -3.61892e-19)
(3.32692e-16 0 3.21566e-18)
(3.3141e-16 0 6.79322e-18)
(3.29187e-16 0 1.02881e-17)
(3.26002e-16 0 1.36175e-17)
(3.21908e-16 0 1.68124e-17)
(3.16986e-16 0 1.98317e-17)
(3.11247e-16 0 2.26337e-17)
(3.04744e-16 0 2.52187e-17)
(2.97568e-16 0 2.75451e-17)
(2.89803e-16 0 2.96337e-17)
(2.815e-16 0 3.14639e-17)
(2.72732e-16 0 3.30769e-17)
(2.63571e-16 0 3.44831e-17)
(2.54048e-16 0 3.56101e-17)
(2.44246e-16 0 3.65304e-17)
(2.34227e-16 0 3.72438e-17)
(2.2399e-16 0 3.78022e-17)
(2.13578e-16 0 3.81434e-17)
(2.03156e-16 0 3.82985e-17)
(1.92702e-16 0 3.82881e-17)
(1.82166e-16 0 3.81434e-17)
(1.71619e-16 0 3.79056e-17)
(1.61114e-16 0 3.7492e-17)
(1.50661e-16 0 3.7006e-17)
(1.40248e-16 0 3.64373e-17)
(1.29919e-16 0 3.57859e-17)
(1.19672e-16 0 3.51035e-17)
(1.09519e-16 0 3.4328e-17)
(9.94581e-17 0 3.35215e-17)
(8.94803e-17 0 3.27047e-17)
(7.96161e-17 0 3.18465e-17)
(6.98347e-17 0 3.10193e-17)
(6.01671e-17 0 3.01921e-17)
(5.05821e-17 0 2.93959e-17)
(4.10385e-17 0 2.86825e-17)
(3.16397e-17 0 2.80001e-17)
(2.22822e-17 0 2.74521e-17)
(1.2935e-17 0 2.69971e-17)
(4.14624e-18 0 2.66766e-17)
(-7.07977e-09 0 6.89328e-08)
(-2.40745e-08 0 6.86061e-08)
(-3.9558e-08 0 6.78359e-08)
(-5.49721e-08 0 6.66619e-08)
(-7.00584e-08 0 6.51048e-08)
(-8.47527e-08 0 6.31717e-08)
(-9.89441e-08 0 6.09022e-08)
(-1.12552e-07 0 5.82953e-08)
(-1.25509e-07 0 5.54091e-08)
(-1.37743e-07 0 5.22561e-08)
(-1.4918e-07 0 4.88174e-08)
(-1.59811e-07 0 4.50664e-08)
(-1.69539e-07 0 4.14664e-08)
(-1.78497e-07 0 3.77422e-08)
(-1.86795e-07 0 3.49846e-08)
(-1.94099e-07 0 3.31781e-08)
(-2.00216e-07 0 2.58948e-08)
(-2.05238e-07 0 2.18127e-08)
(-2.10227e-07 0 2.0103e-08)
(-2.14246e-07 0 1.90383e-08)
(-2.16789e-07 0 1.11289e-08)
(-2.18824e-07 0 9.45575e-09)
(-2.20623e-07 0 7.00345e-09)
(-2.21547e-07 0 4.15757e-09)
(-2.21852e-07 0 7.0051e-10)
(-2.21741e-07 0 -1.21219e-09)
(-2.21039e-07 0 -3.76475e-09)
(-2.19834e-07 0 -6.17807e-09)
(-2.18139e-07 0 -8.42643e-09)
(-2.15957e-07 0 -1.07334e-08)
(-2.13264e-07 0 -1.30099e-08)
(-2.10098e-07 0 -1.522e-08)
(-2.06449e-07 0 -1.74317e-08)
(-2.02302e-07 0 -1.96051e-08)
(-1.97661e-07 0 -2.16934e-08)
(-1.92522e-07 0 -2.39421e-08)
(-1.86905e-07 0 -2.59929e-08)
(-1.80791e-07 0 -2.80371e-08)
(-1.74172e-07 0 -3.00566e-08)
(-1.67145e-07 0 -3.19243e-08)
(-1.59677e-07 0 -3.37075e-08)
(-1.51747e-07 0 -3.53163e-08)
(-1.43496e-07 0 -3.67986e-08)
(-1.34867e-07 0 -3.80986e-08)
(-1.25948e-07 0 -3.91727e-08)
(-1.16778e-07 0 -4.00067e-08)
(-1.07436e-07 0 -4.05887e-08)
(-9.79809e-08 0 -4.08681e-08)
(-8.84663e-08 0 -4.08855e-08)
(-7.89819e-08 0 -4.06192e-08)
(-6.95835e-08 0 -4.00255e-08)
(-6.03632e-08 0 -3.91248e-08)
(-5.13907e-08 0 -3.79669e-08)
(-4.27336e-08 0 -3.651e-08)
(-3.44825e-08 0 -3.47745e-08)
(-2.66567e-08 0 -3.29305e-08)
(-1.93381e-08 0 -3.07787e-08)
(-1.25527e-08 0 -2.85338e-08)
(-6.3352e-09 0 -2.61652e-08)
(-6.91667e-10 0 -2.37425e-08)
(4.31063e-09 0 -2.13048e-08)
(8.73504e-09 0 -1.88872e-08)
(1.25478e-08 0 -1.64842e-08)
(1.57898e-08 0 -1.42256e-08)
(1.85014e-08 0 -1.20625e-08)
(2.06834e-08 0 -1.0047e-08)
(2.23895e-08 0 -8.29285e-09)
(2.36941e-08 0 -6.71628e-09)
(2.46351e-08 0 -5.45307e-09)
(2.52451e-08 0 -4.47448e-09)
(2.56177e-08 0 -3.79801e-09)
(2.58213e-08 0 -3.45885e-09)
(2.59007e-08 0 -3.43757e-09)
(2.59395e-08 0 -3.59986e-09)
(2.59986e-08 0 -3.64309e-09)
(2.64191e-08 0 -2.9539e-09)
(2.63546e-08 0 4.39827e-10)
(3.58638e-09 0 7.43729e-08)
(-4.73683e-13 0 5.75388e-08)
(3.56006e-16 0 -1.45724e-16)
(1.69829e-16 0 -4.54949e-19)
(3.36807e-16 0 4.22896e-18)
(3.35473e-16 0 8.90253e-18)
(3.33126e-16 0 1.3452e-17)
(3.29776e-16 0 1.78051e-17)
(3.25475e-16 0 2.1972e-17)
(3.20284e-16 0 2.58908e-17)
(3.14329e-16 0 2.94993e-17)
(3.07566e-16 0 3.28391e-17)
(3.00091e-16 0 3.58479e-17)
(2.92036e-16 0 3.85156e-17)
(2.83454e-16 0 4.08937e-17)
(2.74448e-16 0 4.29514e-17)
(2.64998e-16 0 4.46781e-17)
(2.55216e-16 0 4.61257e-17)
(2.45176e-16 0 4.72734e-17)
(2.34909e-16 0 4.81523e-17)
(2.24466e-16 0 4.87726e-17)
(2.13857e-16 0 4.91656e-17)
(2.03228e-16 0 4.9362e-17)
(1.92578e-16 0 4.92793e-17)
(1.81897e-16 0 4.90208e-17)
(1.71226e-16 0 4.86382e-17)
(1.60597e-16 0 4.80695e-17)
(1.5003e-16 0 4.73975e-17)
(1.39535e-16 0 4.6591e-17)
(1.29123e-16 0 4.56914e-17)
(1.18814e-16 0 4.47091e-17)
(1.08609e-16 0 4.36441e-17)
(9.84862e-17 0 4.25067e-17)
(8.84877e-17 0 4.13487e-17)
(7.86235e-17 0 4.01803e-17)
(6.88525e-17 0 3.90222e-17)
(5.92055e-17 0 3.79056e-17)
(4.96929e-17 0 3.67889e-17)
(4.02423e-17 0 3.58066e-17)
(3.09262e-17 0 3.49484e-17)
(2.16928e-17 0 3.41832e-17)
(1.24904e-17 0 3.36146e-17)
(3.96013e-18 0 3.3201e-17)
(-7.21697e-09 0 8.50957e-08)
(-2.47448e-08 0 8.46099e-08)
(-4.0644e-08 0 8.36322e-08)
(-5.64966e-08 0 8.21501e-08)
(-7.20057e-08 0 8.02428e-08)
(-8.70914e-08 0 7.78625e-08)
(-1.0165e-07 0 7.50386e-08)
(-1.15604e-07 0 7.18209e-08)
(-1.28869e-07 0 6.82295e-08)
(-1.4134e-07 0 6.42882e-08)
(-1.52993e-07 0 5.99774e-08)
(-1.63827e-07 0 5.5323e-08)
(-1.7355e-07 0 5.12116e-08)
(-1.82834e-07 0 4.59189e-08)
(-1.91465e-07 0 4.30864e-08)
(-1.98349e-07 0 4.00147e-08)
(-2.04015e-07 0 3.14231e-08)
(-2.09401e-07 0 2.69963e-08)
(-2.14363e-07 0 2.45286e-08)
(-2.17869e-07 0 2.27411e-08)
(-2.20141e-07 0 1.29408e-08)
(-2.22252e-07 0 1.16955e-08)
(-2.23792e-07 0 8.24709e-09)
(-2.24527e-07 0 4.61909e-09)
(-2.24722e-07 0 8.5194e-10)
(-2.24519e-07 0 -1.70103e-09)
(-2.23716e-07 0 -4.75223e-09)
(-2.22447e-07 0 -7.66922e-09)
(-2.20693e-07 0 -1.0375e-08)
(-2.18458e-07 0 -1.32045e-08)
(-2.15741e-07 0 -1.59544e-08)
(-2.12554e-07 0 -1.86372e-08)
(-2.08876e-07 0 -2.1343e-08)
(-2.04711e-07 0 -2.40178e-08)
(-2.00044e-07 0 -2.65841e-08)
(-1.94861e-07 0 -2.93405e-08)
(-1.89224e-07 0 -3.18719e-08)
(-1.83038e-07 0 -3.44535e-08)
(-1.76345e-07 0 -3.69189e-08)
(-1.69189e-07 0 -3.92446e-08)
(-1.61587e-07 0 -4.14754e-08)
(-1.53499e-07 0 -4.35125e-08)
(-1.45008e-07 0 -4.53516e-08)
(-1.36183e-07 0 -4.6998e-08)
(-1.27023e-07 0 -4.83489e-08)
(-1.17583e-07 0 -4.94154e-08)
(-1.07942e-07 0 -5.01374e-08)
(-9.81969e-08 0 -5.05297e-08)
(-8.83474e-08 0 -5.05664e-08)
(-7.85092e-08 0 -5.02407e-08)
(-6.87831e-08 0 -4.95143e-08)
(-5.92313e-08 0 -4.83973e-08)
(-4.99296e-08 0 -4.69575e-08)
(-4.09864e-08 0 -4.50959e-08)
(-3.24635e-08 0 -4.29618e-08)
(-2.44002e-08 0 -4.06278e-08)
(-1.68908e-08 0 -3.79005e-08)
(-9.96067e-09 0 -3.50952e-08)
(-3.64426e-09 0 -3.21285e-08)
(2.04545e-09 0 -2.90746e-08)
(7.05272e-09 0 -2.59801e-08)
(1.14196e-08 0 -2.2995e-08)
(1.51817e-08 0 -1.99418e-08)
(1.82941e-08 0 -1.71023e-08)
(2.08093e-08 0 -1.44083e-08)
(2.27912e-08 0 -1.18745e-08)
(2.42757e-08 0 -9.62623e-09)
(2.53056e-08 0 -7.68152e-09)
(2.59331e-08 0 -6.06093e-09)
(2.62232e-08 0 -4.77361e-09)
(2.62466e-08 0 -3.89157e-09)
(2.60912e-08 0 -3.40323e-09)
(2.58917e-08 0 -3.35379e-09)
(2.58586e-08 0 -3.64789e-09)
(2.62532e-08 0 -4.08392e-09)
(2.78541e-08 0 -4.42084e-09)
(2.73187e-08 0 2.0159e-09)
(9.60734e-10 0 9.8011e-08)
(-6.48356e-13 0 5.88812e-08)
(3.6793e-16 0 -1.85553e-16)
(1.72475e-16 0 -5.89366e-19)
(3.4205e-16 0 5.29396e-18)
(3.40633e-16 0 1.10946e-17)
(3.3811e-16 0 1.67297e-17)
(3.34543e-16 0 2.21581e-17)
(3.29993e-16 0 2.7328e-17)
(3.24513e-16 0 3.21773e-17)
(3.18185e-16 0 3.66648e-17)
(3.11072e-16 0 4.07283e-17)
(3.03255e-16 0 4.44403e-17)
(2.94859e-16 0 4.77283e-17)
(2.85915e-16 0 5.06338e-17)
(2.76506e-16 0 5.3105e-17)
(2.66755e-16 0 5.51523e-17)
(2.56653e-16 0 5.68687e-17)
(2.46283e-16 0 5.82128e-17)
(2.35736e-16 0 5.92158e-17)
(2.25003e-16 0 5.98775e-17)
(2.14178e-16 0 6.02705e-17)
(2.0328e-16 0 6.04049e-17)
(1.92361e-16 0 6.02498e-17)
(1.81504e-16 0 5.98879e-17)
(1.70668e-16 0 5.93089e-17)
(1.59894e-16 0 5.85334e-17)
(1.49172e-16 0 5.75821e-17)
(1.38542e-16 0 5.65068e-17)
(1.28037e-16 0 5.5297e-17)
(1.17625e-16 0 5.39839e-17)
(1.07327e-16 0 5.25467e-17)
(9.71627e-17 0 5.1037e-17)
(8.71538e-17 0 4.95068e-17)
(7.72897e-17 0 4.79558e-17)
(6.75496e-17 0 4.64359e-17)
(5.79233e-17 0 4.4978e-17)
(4.84728e-17 0 4.35717e-17)
(3.91877e-17 0 4.22793e-17)
(3.00163e-17 0 4.11626e-17)
(2.09484e-17 0 4.02217e-17)
(1.19424e-17 0 3.94979e-17)
(3.72231e-18 0 3.89602e-17)
(-7.37925e-09 0 1.01767e-07)
(-2.55571e-08 0 1.0114e-07)
(-4.19736e-08 0 9.99422e-08)
(-5.83476e-08 0 9.81619e-08)
(-7.43684e-08 0 9.58634e-08)
(-8.99344e-08 0 9.30094e-08)
(-1.04956e-07 0 8.96003e-08)
(-1.19324e-07 0 8.57345e-08)
(-1.32932e-07 0 8.13791e-08)
(-1.45701e-07 0 7.6598e-08)
(-1.57784e-07 0 7.11482e-08)
(-1.68582e-07 0 6.63258e-08)
(-1.78574e-07 0 6.02467e-08)
(-1.8837e-07 0 5.48155e-08)
(-1.96947e-07 0 5.26867e-08)
(-2.03494e-07 0 4.49449e-08)
(-2.08684e-07 0 3.68071e-08)
(-2.14626e-07 0 3.19637e-08)
(-2.19485e-07 0 2.96522e-08)
(-2.22068e-07 0 2.57703e-08)
(-2.23963e-07 0 1.43506e-08)
(-2.26447e-07 0 1.39007e-08)
(-2.27566e-07 0 9.33671e-09)
(-2.28052e-07 0 4.73676e-09)
(-2.28137e-07 0 9.86344e-10)
(-2.27828e-07 0 -2.33118e-09)
(-2.26905e-07 0 -5.82043e-09)
(-2.25537e-07 0 -9.22408e-09)
(-2.23717e-07 0 -1.23897e-08)
(-2.21443e-07 0 -1.56997e-08)
(-2.18705e-07 0 -1.89055e-08)
(-2.15501e-07 0 -2.20769e-08)
(-2.11814e-07 0 -2.52658e-08)
(-2.07639e-07 0 -2.84427e-08)
(-2.02962e-07 0 -3.15014e-08)
(-1.97738e-07 0 -3.4781e-08)
(-1.92047e-07 0 -3.77991e-08)
(-1.85798e-07 0 -4.09363e-08)
(-1.79021e-07 0 -4.39045e-08)
(-1.71684e-07 0 -4.67047e-08)
(-1.63929e-07 0 -4.94195e-08)
(-1.55645e-07 0 -5.19242e-08)
(-1.46885e-07 0 -5.41277e-08)
(-1.37827e-07 0 -5.61447e-08)
(-1.28354e-07 0 -5.7821e-08)
(-1.18592e-07 0 -5.91451e-08)
(-1.0857e-07 0 -6.00418e-08)
(-9.84028e-08 0 -6.05482e-08)
(-8.81621e-08 0 -6.06381e-08)
(-7.79149e-08 0 -6.02435e-08)
(-6.77681e-08 0 -5.93751e-08)
(-5.78104e-08 0 -5.80444e-08)
(-4.8133e-08 0 -5.62797e-08)
(-3.88267e-08 0 -5.40065e-08)
(-2.99574e-08 0 -5.14412e-08)
(-2.16072e-08 0 -4.85304e-08)
(-1.38569e-08 0 -4.52581e-08)
(-6.73623e-09 0 -4.17859e-08)
(-2.97124e-10 0 -3.81739e-08)
(5.42614e-09 0 -3.44375e-08)
(1.04681e-08 0 -3.06457e-08)
(1.48002e-08 0 -2.69866e-08)
(1.84006e-08 0 -2.3308e-08)
(2.13644e-08 0 -1.98279e-08)
(2.36944e-08 0 -1.65361e-08)
(2.54261e-08 0 -1.33912e-08)
(2.66093e-08 0 -1.07425e-08)
(2.73074e-08 0 -8.33811e-09)
(2.75699e-08 0 -6.28913e-09)
(2.74365e-08 0 -4.68204e-09)
(2.69947e-08 0 -3.54584e-09)
(2.63532e-08 0 -2.92891e-09)
(2.56717e-08 0 -2.91688e-09)
(2.52451e-08 0 -3.58501e-09)
(2.55876e-08 0 -4.92625e-09)
(2.692e-08 0 -6.55927e-09)
(1.34087e-08 0 2.01748e-08)
(-2.52548e-09 0 1.28305e-07)
(-7.81115e-13 0 5.40498e-08)
(3.77391e-16 0 -2.4391e-16)
(1.75767e-16 0 -7.96161e-19)
(3.48491e-16 0 6.33827e-18)
(3.4693e-16 0 1.33693e-17)
(3.442e-16 0 2.02039e-17)
(3.40354e-16 0 2.67696e-17)
(3.35473e-16 0 3.29942e-17)
(3.29621e-16 0 3.88051e-17)
(3.2288e-16 0 4.41508e-17)
(3.15332e-16 0 4.90415e-17)
(3.07091e-16 0 5.34462e-17)
(2.9823e-16 0 5.73546e-17)
(2.88831e-16 0 6.07357e-17)
(2.78987e-16 0 6.36102e-17)
(2.68772e-16 0 6.60194e-17)
(2.58277e-16 0 6.79322e-17)
(2.47523e-16 0 6.94108e-17)
(2.36574e-16 0 7.04758e-17)
(2.25531e-16 0 7.11582e-17)
(2.14395e-16 0 7.14994e-17)
(2.03207e-16 0 7.14891e-17)
(1.92061e-16 0 7.12306e-17)
(1.80946e-16 0 7.06516e-17)
(1.69872e-16 0 6.98347e-17)
(1.58891e-16 0 6.87904e-17)
(1.48014e-16 0 6.7529e-17)
(1.3724e-16 0 6.61124e-17)
(1.2659e-16 0 6.45304e-17)
(1.16064e-16 0 6.2814e-17)
(1.05662e-16 0 6.09632e-17)
(9.5436e-17 0 5.90504e-17)
(8.53961e-17 0 5.70755e-17)
(7.55526e-17 0 5.50902e-17)
(6.58746e-17 0 5.31464e-17)
(5.6331e-17 0 5.12749e-17)
(4.69839e-17 0 4.95378e-17)
(3.78332e-17 0 4.79248e-17)
(2.88583e-17 0 4.65289e-17)
(2.00281e-17 0 4.53812e-17)
(1.126e-17 0 4.4492e-17)
(3.44314e-18 0 4.38716e-17)
(-7.5762e-09 0 1.19058e-07)
(-2.65422e-08 0 1.18302e-07)
(-4.35707e-08 0 1.16882e-07)
(-6.05542e-08 0 1.14805e-07)
(-7.71805e-08 0 1.12074e-07)
(-9.33074e-08 0 1.08715e-07)
(-1.08887e-07 0 1.0469e-07)
(-1.23744e-07 0 1.00117e-07)
(-1.37742e-07 0 9.49761e-08)
(-1.51187e-07 0 8.88959e-08)
(-1.63367e-07 0 8.33313e-08)
(-1.7422e-07 0 7.71516e-08)
(-1.84871e-07 0 6.94251e-08)
(-1.95369e-07 0 6.4697e-08)
(-2.02953e-07 0 6.22582e-08)
(-2.09322e-07 0 4.88208e-08)
(-2.14812e-07 0 4.26406e-08)
(-2.20964e-07 0 3.72022e-08)
(-2.24797e-07 0 3.68711e-08)
(-2.26757e-07 0 2.15494e-08)
(-2.29121e-07 0 2.00894e-08)
(-2.31092e-07 0 1.47377e-08)
(-2.31901e-07 0 1.05664e-08)
(-2.32103e-07 0 4.21159e-09)
(-2.32154e-07 0 1.16377e-09)
(-2.31573e-07 0 -3.12212e-09)
(-2.30537e-07 0 -7.04727e-09)
(-2.2908e-07 0 -1.08382e-08)
(-2.27216e-07 0 -1.44578e-08)
(-2.249e-07 0 -1.82153e-08)
(-2.22153e-07 0 -2.18731e-08)
(-2.18943e-07 0 -2.55313e-08)
(-2.15246e-07 0 -2.91946e-08)
(-2.11061e-07 0 -3.28786e-08)
(-2.06379e-07 0 -3.64271e-08)
(-2.01165e-07 0 -4.02545e-08)
(-1.95386e-07 0 -4.38022e-08)
(-1.89058e-07 0 -4.75141e-08)
(-1.8217e-07 0 -5.10007e-08)
(-1.74706e-07 0 -5.43422e-08)
(-1.6674e-07 0 -5.75428e-08)
(-1.5827e-07 0 -6.05532e-08)
(-1.49258e-07 0 -6.32172e-08)
(-1.39796e-07 0 -6.55692e-08)
(-1.30014e-07 0 -6.76361e-08)
(-1.19849e-07 0 -6.92577e-08)
(-1.09392e-07 0 -7.03916e-08)
(-9.87205e-08 0 -7.10025e-08)
(-8.80208e-08 0 -7.11458e-08)
(-7.72686e-08 0 -7.07154e-08)
(-6.65937e-08 0 -6.97095e-08)
(-5.61115e-08 0 -6.81411e-08)
(-4.59423e-08 0 -6.6036e-08)
(-3.61924e-08 0 -6.32954e-08)
(-2.69179e-08 0 -6.02744e-08)
(-1.82336e-08 0 -5.67106e-08)
(-1.02175e-08 0 -5.28359e-08)
(-2.87976e-09 0 -4.86545e-08)
(3.71791e-09 0 -4.43215e-08)
(9.53331e-09 0 -3.98033e-08)
(1.45749e-08 0 -3.53454e-08)
(1.88424e-08 0 -3.09237e-08)
(2.2331e-08 0 -2.64534e-08)
(2.50761e-08 0 -2.2345e-08)
(2.71463e-08 0 -1.83476e-08)
(2.85874e-08 0 -1.47667e-08)
(2.94449e-08 0 -1.14706e-08)
(2.97509e-08 0 -8.57408e-09)
(2.95659e-08 0 -6.10292e-09)
(2.89568e-08 0 -4.11397e-09)
(2.79715e-08 0 -2.67323e-09)
(2.66866e-08 0 -1.85377e-09)
(2.52136e-08 0 -1.79004e-09)
(2.38261e-08 0 -2.80407e-09)
(2.34194e-08 0 -5.43088e-09)
(2.69779e-08 0 -1.1666e-08)
(5.77129e-10 0 5.26176e-08)
(-4.67211e-09 0 1.06544e-07)
(-7.64274e-13 0 4.97563e-08)
(3.84851e-16 0 -3.15605e-16)
(1.79693e-16 0 -1.04432e-18)
(3.56215e-16 0 7.41361e-18)
(3.54499e-16 0 1.57785e-17)
(3.515e-16 0 2.39159e-17)
(3.47323e-16 0 3.16914e-17)
(3.42019e-16 0 3.90119e-17)
(3.3567e-16 0 4.58568e-17)
(3.28432e-16 0 5.21124e-17)
(3.20367e-16 0 5.78406e-17)
(3.11558e-16 0 6.29485e-17)
(3.02138e-16 0 6.74359e-17)
(2.92171e-16 0 7.12926e-17)
(2.81779e-16 0 7.456e-17)
(2.71057e-16 0 7.71966e-17)
(2.60035e-16 0 7.93163e-17)
(2.48826e-16 0 8.08673e-17)
(2.37473e-16 0 8.19633e-17)
(2.26006e-16 0 8.2625e-17)
(2.14498e-16 0 8.28628e-17)
(2.03e-16 0 8.26974e-17)
(1.91513e-16 0 8.22218e-17)
(1.80098e-16 0 8.13739e-17)
(1.68786e-16 0 8.02675e-17)
(1.57578e-16 0 7.8882e-17)
(1.46494e-16 0 7.7269e-17)
(1.35554e-16 0 7.54182e-17)
(1.24739e-16 0 7.33606e-17)
(1.14058e-16 0 7.11582e-17)
(1.03573e-16 0 6.88318e-17)
(9.32853e-17 0 6.6433e-17)
(8.3204e-17 0 6.39617e-17)
(7.33606e-17 0 6.14905e-17)
(6.3755e-17 0 5.90607e-17)
(5.43251e-17 0 5.67549e-17)
(4.5133e-17 0 5.46043e-17)
(3.61892e-17 0 5.26707e-17)
(2.74727e-17 0 5.09957e-17)
(1.89114e-17 0 4.95998e-17)
(1.04328e-17 0 4.85555e-17)
(3.11227e-18 0 4.78627e-17)
(-7.8032e-09 0 1.3708e-07)
(-2.77048e-08 0 1.3619e-07)
(-4.54634e-08 0 1.34534e-07)
(-6.31438e-08 0 1.32142e-07)
(-8.04822e-08 0 1.28959e-07)
(-9.73075e-08 0 1.25041e-07)
(-1.13465e-07 0 1.20441e-07)
(-1.28885e-07 0 1.15012e-07)
(-1.43719e-07 0 1.08641e-07)
(-1.57457e-07 0 1.0233e-07)
(-1.69729e-07 0 9.57228e-08)
(-1.81059e-07 0 8.76329e-08)
(-1.93069e-07 0 7.90284e-08)
(-2.02652e-07 0 7.68739e-08)
(-2.10064e-07 0 6.68871e-08)
(-2.16189e-07 0 5.53353e-08)
(-2.2282e-07 0 4.73272e-08)
(-2.27747e-07 0 4.31564e-08)
(-2.30547e-07 0 4.10804e-08)
(-2.32232e-07 0 2.21862e-08)
(-2.35243e-07 0 2.30692e-08)
(-2.36227e-07 0 1.57354e-08)
(-2.36749e-07 0 1.0652e-08)
(-2.36799e-07 0 4.59379e-09)
(-2.36646e-07 0 6.83673e-10)
(-2.35793e-07 0 -3.98223e-09)
(-2.3462e-07 0 -8.37721e-09)
(-2.33077e-07 0 -1.24765e-08)
(-2.31142e-07 0 -1.66012e-08)
(-2.28796e-07 0 -2.07397e-08)
(-2.26046e-07 0 -2.48347e-08)
(-2.22858e-07 0 -2.89593e-08)
(-2.19192e-07 0 -3.3116e-08)
(-2.15023e-07 0 -3.7307e-08)
(-2.10348e-07 0 -4.13848e-08)
(-2.05146e-07 0 -4.56788e-08)
(-1.99251e-07 0 -4.99508e-08)
(-1.92881e-07 0 -5.41258e-08)
(-1.85909e-07 0 -5.82346e-08)
(-1.78306e-07 0 -6.21814e-08)
(-1.70049e-07 0 -6.58682e-08)
(-1.61348e-07 0 -6.94278e-08)
(-1.52063e-07 0 -7.26266e-08)
(-1.42217e-07 0 -7.5443e-08)
(-1.31944e-07 0 -7.78115e-08)
(-1.21336e-07 0 -7.98217e-08)
(-1.10379e-07 0 -8.12413e-08)
(-9.91598e-08 0 -8.20344e-08)
(-8.7798e-08 0 -8.21715e-08)
(-7.64787e-08 0 -8.17613e-08)
(-6.51952e-08 0 -8.06166e-08)
(-5.41306e-08 0 -7.8796e-08)
(-4.34071e-08 0 -7.62329e-08)
(-3.30917e-08 0 -7.31385e-08)
(-2.33113e-08 0 -6.95205e-08)
(-1.42115e-08 0 -6.52345e-08)
(-5.83789e-09 0 -6.06692e-08)
(1.76691e-09 0 -5.57457e-08)