0 	306.925
0.010101 	313.745
0.020202 	313.776
