0 	580.881
0.010101 	588.567
0.020202 	588.584
0.030303 	588.588
0.040404 	588.579
