/*--------------------------------*- C++ -*----------------------------------*\
  =========                 |
  \\      /  F ield         | OpenFOAM: The Open Source CFD Toolbox
   \\    /   O peration     | Website:  https://openfoam.org
    \\  /    A nd           | Version:  6
     \\/     M anipulation  |
\*---------------------------------------------------------------------------*/
FoamFile
{
    version     2.0;
    format      ascii;
    class       volScalarField;
    location    "2300";
    object      dmdt;
}
// * * * * * * * * * * * * * * * * * * * * * * * * * * * * * * * * * * * * * //

dimensions      [0 0 0 0 0 0 0];

internalField   nonuniform List<scalar> 
4800
(
-0.217664
-0.211812
-0.205994
-0.200264
-0.194671
-0.189282
-0.184155
-0.179365
-0.174977
-0.171014
-0.167472
-0.164322
-0.161522
-0.159024
-0.156783
-0.154757
-0.152909
-0.151208
-0.14963
-0.148147
-0.14673
-0.14536
-0.144026
-0.14271
-0.141394
-0.140071
-0.138739
-0.137393
-0.136033
-0.134663
-0.133284
-0.131897
-0.130504
-0.129103
-0.12769
-0.126263
-0.12483
-0.123388
-0.121942
-0.120502
-0.119072
-0.117653
-0.116247
-0.114861
-0.113499
-0.112156
-0.11083
-0.109517
-0.108208
-0.106894
-0.105568
-0.104229
-0.102875
-0.101503
-0.10011
-0.0986922
-0.0972398
-0.0957437
-0.0941967
-0.0925913
-0.0909177
-0.0891655
-0.0873223
-0.0853733
-0.0833015
-0.0810829
-0.078693
-0.0761009
-0.073273
-0.0701695
-0.0667454
-0.062957
-0.0587586
-0.0541377
-0.0492077
-0.0440768
-0.0388522
-0.0336693
-0.0286269
-0.0237838
-0.0191795
-0.0148758
-0.0108803
-0.00713738
-0.00357614
-0.000136092
0.00322668
0.00654128
0.00982604
0.013092
0.0163456
0.0195904
0.0228285
0.0260608
0.0292877
0.0325096
0.0357265
0.0389386
0.0421458
0.0453483
0.0485462
0.0517397
0.054929
0.0581142
0.0612956
0.0644735
0.067648
0.0708193
0.0739878
0.0771537
0.0803172
0.0834785
0.0866379
0.0897956
0.0929519
0.0961069
0.099261
0.102414
0.105567
0.108719
-0.217614
-0.211672
-0.205777
-0.199995
-0.194388
-0.189021
-0.18395
-0.17922
-0.174889
-0.170977
-0.167481
-0.16437
-0.161598
-0.15912
-0.156892
-0.154876
-0.153034
-0.151334
-0.14975
-0.148256
-0.146825
-0.145435
-0.144079
-0.142738
-0.141399
-0.140061
-0.138714
-0.137355
-0.135982
-0.134596
-0.133203
-0.131802
-0.130395
-0.128982
-0.127558
-0.126122
-0.12468
-0.123233
-0.121781
-0.120333
-0.118894
-0.11747
-0.116059
-0.114667
-0.113296
-0.111944
-0.110608
-0.109284
-0.107966
-0.106646
-0.105315
-0.103968
-0.102606
-0.101226
-0.0998237
-0.0983946
-0.0969338
-0.0954321
-0.0938831
-0.0922768
-0.0906062
-0.0888561
-0.0870189
-0.0850737
-0.0830102
-0.0807997
-0.0784249
-0.0758476
-0.0730461
-0.0699724
-0.0666003
-0.062888
-0.0588294
-0.0544124
-0.049648
-0.0445831
-0.0393117
-0.0339647
-0.0286909
-0.0236221
-0.0188781
-0.0145629
-0.0106232
-0.00695046
-0.00344893
-5.20181e-05
0.00328222
0.00657895
0.00985291
0.0131125
0.0163624
0.0196052
0.022842
0.0260735
0.0293
0.0325214
0.035738
0.0389496
0.0421564
0.0453585
0.0485559
0.0517489
0.0549377
0.0581224
0.0613033
0.0644805
0.0676545
0.0708253
0.0739933
0.0771586
0.0803216
0.0834824
0.0866413
0.0897986
0.0929544
0.096109
0.0992625
0.102415
0.105568
0.10872
-0.217555
-0.21151
-0.20554
-0.19971
-0.194096
-0.188751
-0.18374
-0.1791
-0.174863
-0.171038
-0.167608
-0.164544
-0.16181
-0.159362
-0.157156
-0.155152
-0.153314
-0.15161
-0.15001
-0.148489
-0.147027
-0.145603
-0.144208
-0.142821
-0.141445
-0.140071
-0.13869
-0.1373
-0.135899
-0.134486
-0.133066
-0.131638
-0.130202
-0.12876
-0.127314
-0.125855
-0.124393
-0.122931
-0.121466
-0.120005
-0.11855
-0.117113
-0.115691
-0.114283
-0.112894
-0.111525
-0.110167
-0.108819
-0.107478
-0.10614
-0.104794
-0.103434
-0.102056
-0.100659
-0.0992408
-0.0977983
-0.096328
-0.0948199
-0.0932681
-0.0916615
-0.0899943
-0.0882491
-0.0864206
-0.0844842
-0.0824353
-0.0802395
-0.0778891
-0.0753405
-0.0725827
-0.0695723
-0.0662901
-0.0626935
-0.0587671
-0.0544992
-0.0498713
-0.0449061
-0.0396643
-0.0342164
-0.0286604
-0.0231863
-0.0181487
-0.0138712
-0.0100958
-0.00658783
-0.00321139
0.000101412
0.00338264
0.00664725
0.00990226
0.0131509
0.0163946
0.0196337
0.0228685
0.0260988
0.0293243
0.032545
0.0357609
0.0389717
0.0421777
0.0453789
0.0485754
0.0517674
0.0549551
0.0581387
0.0613185
0.0644947
0.0676675
0.0708373
0.0740042
0.0771685
0.0803304
0.0834903
0.0866482
0.0898045
0.0929593
0.096113
0.0992657
0.102418
0.105569
0.10872
-0.217518
-0.211396
-0.205354
-0.199476
-0.19386
-0.188559
-0.183628
-0.179097
-0.174965
-0.171237
-0.167887
-0.164883
-0.162195
-0.159778
-0.157592
-0.155598
-0.15376
-0.152047
-0.150426
-0.148874
-0.14737
-0.145898
-0.144453
-0.143013
-0.141582
-0.140147
-0.138704
-0.137258
-0.135807
-0.134351
-0.13289
-0.13142
-0.129938
-0.128447
-0.126959
-0.125463
-0.123965
-0.122476
-0.120989
-0.119509
-0.118037
-0.11658
-0.115137
-0.113707
-0.11229
-0.110891
-0.109503
-0.108122
-0.106753
-0.105386
-0.104014
-0.102631
-0.101233
-0.0998165
-0.0983808
-0.0969221
-0.0954381
-0.0939205
-0.0923634
-0.0907565
-0.0890922
-0.0873545
-0.0855359
-0.0836138
-0.0815819
-0.079409
-0.0770861
-0.0745793
-0.0718691
-0.0689274
-0.0657311
-0.0622387
-0.0584324
-0.054292
-0.0497906
-0.04492
-0.0396826
-0.0340798
-0.0281645
-0.0221688
-0.0166625
-0.0126772
-0.00929951
-0.00609043
-0.00290509
0.000292883
0.00350699
0.00673299
0.00996608
0.0132024
0.0164393
0.0196747
0.0229073
0.0261361
0.0293606
0.0325804
0.0357952
0.039005
0.0422097
0.0454095
0.0486046
0.051795
0.0549812
0.0581632
0.0613413
0.0645159
0.0676871
0.0708552
0.0740205
0.0771833
0.0803437
0.083502
0.0866584
0.0898133
0.0929667
0.096119
0.0992703
0.102421
0.105571
0.108721
-0.217481
-0.211309
-0.205255
-0.199386
-0.193799
-0.188561
-0.18371
-0.179269
-0.175239
-0.171604
-0.168336
-0.165403
-0.162766
-0.160381
-0.158215
-0.156226
-0.154382
-0.152653
-0.151007
-0.149418
-0.147864
-0.146335
-0.144826
-0.14331
-0.141803
-0.14029
-0.138776
-0.137258
-0.135735
-0.134211
-0.132685
-0.13115
-0.129602
-0.128043
-0.126488
-0.124937
-0.123391
-0.12186
-0.120343
-0.118836
-0.117342
-0.11586
-0.114392
-0.112935
-0.111484
-0.110047
-0.108623
-0.107206
-0.105801
-0.104399
-0.102994
-0.10158
-0.100154
-0.0987141
-0.0972591
-0.0957851
-0.0942882
-0.0927609
-0.091197
-0.0895877
-0.0879241
-0.0861927
-0.0843838
-0.0824772
-0.0804647
-0.0783206
-0.0760293
-0.073568
-0.0709105
-0.0680308
-0.064912
-0.0615121
-0.0578114
-0.0537834
-0.0493896
-0.0445896
-0.0393416
-0.0335819
-0.0272563
-0.0204341
-0.0136604
-0.0108778
-0.00833526
-0.00556709
-0.00260667
0.000474607
0.00362682
0.00681958
0.0100348
0.0132617
0.0164935
0.0197263
0.0229574
0.0261852
0.0294088
0.0326275
0.0358411
0.0390494
0.0422525
0.0454505
0.0486436
0.051832
0.055016
0.0581958
0.0613717
0.0645441
0.0677131
0.070879
0.0740422
0.0772029
0.0803612
0.0835175
0.086672
0.089825
0.0929765
0.096127
0.0992765
0.102425
0.105574
0.108722
-0.217451
-0.211236
-0.205193
-0.199386
-0.193871
-0.188717
-0.183965
-0.179628
-0.175702
-0.172161
-0.168973
-0.166111
-0.163524
-0.161174
-0.159026
-0.157042
-0.155192
-0.15344
-0.151757
-0.150123
-0.148515
-0.146922
-0.14533
-0.143731
-0.142133
-0.140525
-0.138913
-0.137299
-0.135685
-0.13407
-0.13245
-0.13082
-0.129177
-0.127529
-0.125889
-0.124266
-0.122661
-0.121081
-0.119524
-0.117983
-0.11646
-0.114952
-0.113451
-0.111964
-0.11048
-0.109006
-0.107541
-0.106083
-0.104638
-0.103197
-0.101754
-0.100307
-0.0988503
-0.0973849
-0.0959098
-0.09442
-0.0929104
-0.091374
-0.0898034
-0.0881912
-0.0865268
-0.0847997
-0.0829989
-0.0811078
-0.0791147
-0.0769996
-0.074743
-0.0723257
-0.0697228
-0.0669032
-0.0638556
-0.060544
-0.0569423
-0.053021
-0.0487335
-0.0440141
-0.0387958
-0.0329704
-0.0263296
-0.0182933
-0.00391871
-0.00883781
-0.00759669
-0.00523346
-0.00242402
0.000592142
0.00371376
0.00689179
0.0101002
0.0133241
0.0165549
0.0197874
0.0230184
0.0262459
0.0294689
0.0326866
0.0358987
0.0391053
0.0423063
0.045502
0.0486926
0.0518783
0.0550596
0.0582366
0.0614097
0.0645793
0.0677455
0.0709087
0.0740692
0.0772272
0.080383
0.0835368
0.0866889
0.0898394
0.0929887
0.0961368
0.0992841
0.102431
0.105577
0.108723
-0.217469
-0.211283
-0.205272
-0.199529
-0.194112
-0.189065
-0.184422
-0.180191
-0.176365
-0.172913
-0.169805
-0.167008
-0.164469
-0.162154
-0.160022
-0.158038
-0.156173
-0.154392
-0.152666
-0.150981
-0.149308
-0.147637
-0.145954
-0.144262
-0.142551
-0.140831
-0.139106
-0.137376
-0.135643
-0.133909
-0.132166
-0.130413
-0.128653
-0.126896
-0.125156
-0.123448
-0.121775
-0.120137
-0.118535
-0.116956
-0.115397
-0.113861
-0.112329
-0.110808
-0.109291
-0.107779
-0.106276
-0.104778
-0.10329
-0.101809
-0.100331
-0.0988524
-0.0973681
-0.0958789
-0.0943839
-0.0928773
-0.0913536
-0.0898068
-0.0882288
-0.0866124
-0.0849472
-0.0832235
-0.0814301
-0.0795535
-0.0775791
-0.0754917
-0.0732696
-0.0708951
-0.0683455
-0.0655914
-0.0626156
-0.0593863
-0.0558734
-0.0520396
-0.0478488
-0.043251
-0.0381733
-0.0325312
-0.0262574
-0.0193279
-0.0121023
-0.0102045
-0.00797637
-0.00534109
-0.00244141
0.000611916
0.00375253
0.00694212
0.0101584
0.0133879
0.0166228
0.019858
0.0230905
0.0263186
0.0295412
0.0327578
0.0359683
0.0391727
0.0423712
0.045564
0.0487515
0.051934
0.0551119
0.0582855
0.0614552
0.0646213
0.0677842
0.0709441
0.0741014
0.0772563
0.080409
0.0835598
0.086709
0.0898567
0.0930031
0.0961486
0.0992932
0.102437
0.105581
0.108724
-0.217505
-0.211397
-0.205472
-0.199824
-0.194516
-0.189584
-0.185054
-0.180933
-0.177212
-0.173853
-0.170825
-0.168087
-0.165591
-0.163305
-0.161183
-0.159193
-0.157304
-0.155486
-0.153715
-0.151975
-0.150228
-0.148475
-0.146697
-0.144896
-0.143065
-0.141222
-0.139362
-0.137491
-0.135614
-0.133729
-0.131839
-0.129944
-0.128051
-0.126172
-0.124322
-0.122518
-0.120763
-0.119055
-0.117397
-0.115774
-0.114174
-0.112599
-0.111037
-0.109483
-0.107934
-0.106387
-0.104846
-0.103313
-0.101787
-0.10027
-0.0987612
-0.0972568
-0.0957504
-0.0942403
-0.0927261
-0.0912022
-0.0896635
-0.0881046
-0.0865183
-0.084897
-0.0832315
-0.081511
-0.0797249
-0.0778621
-0.0759062
-0.0738446
-0.0716561
-0.0693241
-0.0668286
-0.0641416
-0.0612413
-0.0581001
-0.0546861
-0.050968
-0.0469078
-0.0424608
-0.0375924
-0.0322904
-0.0266074
-0.0207833
-0.015458
-0.011864
-0.00875708
-0.00570479
-0.0026035
0.000553474
0.00375133
0.0069747
0.0102119
0.0134549
0.0166984
0.019939
0.0231745
0.0264038
0.0296263
0.0328418
0.0360503
0.039252
0.0424474
0.0456367
0.0488204
0.051999
0.0551729
0.0583425
0.0615081
0.0646702
0.0678291
0.0709852
0.0741387
0.0772898
0.080439
0.0835863
0.0867321
0.0898765
0.0930198
0.0961621
0.0993037
0.102445
0.105585
0.108725
-0.217587
-0.211634
-0.205842
-0.200305
-0.195102
-0.19028
-0.185864
-0.181856
-0.178232
-0.174961
-0.172011
-0.16933
-0.166871
-0.164601
-0.162482
-0.160481
-0.158569
-0.156717
-0.154897
-0.153091
-0.151261
-0.149421
-0.147542
-0.14563
-0.14368
-0.141698
-0.139683
-0.137651
-0.135609
-0.133559
-0.131506
-0.129454
-0.127412
-0.125399
-0.123427
-0.121513
-0.11966
-0.117865
-0.116132
-0.114452
-0.112808
-0.111192
-0.109593
-0.108005
-0.106426
-0.104852
-0.103278
-0.101713
-0.100157
-0.0986116
-0.0970761
-0.0955471
-0.0940193
-0.0924898
-0.0909572
-0.089417
-0.0878642
-0.0862936
-0.0846987
-0.083072
-0.0814053
-0.0796879
-0.0779091
-0.0760589
-0.0741216
-0.0720857
-0.0699322
-0.0676427
-0.0651998
-0.0625779
-0.0597536
-0.0567017
-0.0533929
-0.049798
-0.0458844
-0.0416308
-0.0370271
-0.0321009
-0.0269536
-0.0217992
-0.017034
-0.0130291
-0.00947088
-0.0061055
-0.00281008
0.000464538
0.00373441
0.00700279
0.0102687
0.0135301
0.0167852
0.0200329
0.0232723
0.0265031
0.0297254
0.0329393
0.0361453
0.0393437
0.0425352
0.0457203
0.0488996
0.0520735
0.0552426
0.0584074
0.0615683
0.0647258
0.0678801
0.0710317
0.0741808
0.0773278
0.0804729
0.0836163
0.0867582
0.0898989
0.0930386
0.0961774
0.0993155
0.102453
0.10559
0.108727
-0.217665
-0.211869
-0.206239
-0.200856
-0.195791
-0.191094
-0.186792
-0.182893
-0.179375
-0.176202
-0.173328
-0.170701
-0.168278
-0.166024
-0.163902
-0.161888
-0.159947
-0.158057
-0.156179
-0.154303
-0.152394
-0.150466
-0.148484
-0.146452
-0.144366
-0.142234
-0.14006
-0.137859
-0.135642
-0.133417
-0.131198
-0.128987
-0.126785
-0.124619
-0.122504
-0.12046
-0.11849
-0.116593
-0.114768
-0.113013
-0.111314
-0.109655
-0.108018
-0.106399
-0.104788
-0.103189
-0.10159
-0.099999
-0.0984171
-0.096847
-0.095287
-0.0937349
-0.0921865
-0.0906385
-0.0890893
-0.0875342
-0.0859682
-0.0843866
-0.0827832
-0.0811516
-0.0794834
-0.0777682
-0.075996
-0.0741569
-0.0722379
-0.0702272
-0.068108
-0.065864
-0.0634778
-0.0609269
-0.0581845
-0.0552241
-0.0520212
-0.0485537
-0.0448022
-0.0407542
-0.0364143
-0.0318207
-0.0270652
-0.0223196
-0.0178204
-0.0137334
-0.00997612
-0.00642215
-0.00298329
0.000391672
0.00372944
0.00704315
0.0103391
0.0136201
0.0168878
0.0201429
0.0233861
0.0266181
0.0298396
0.0330513
0.0362539
0.0394482
0.042635
0.045815
0.0489889
0.0521574
0.055321
0.0584803
0.0616357
0.0647878
0.067937
0.0710835
0.0742278
0.07737
0.0805105
0.0836495
0.0867872
0.0899238
0.0930594
0.0961942
0.0993285
0.102462
0.105596
0.108729
-0.217767
-0.212164
-0.206705
-0.201479
-0.196564
-0.192018
-0.187867
-0.184101
-0.180682
-0.177584
-0.174765
-0.172183
-0.169788
-0.167546
-0.165423
-0.163393
-0.161415
-0.159489
-0.157552
-0.155616
-0.153634
-0.151611
-0.149519
-0.147359
-0.14513
-0.14284
-0.1405
-0.138124
-0.135726
-0.133323
-0.130933
-0.128559
-0.126194
-0.123865
-0.12159
-0.119394
-0.117285
-0.115264
-0.113333
-0.111487
-0.109718
-0.108008
-0.106333
-0.104684
-0.103048
-0.101426
-0.099803
-0.0981866
-0.0965797
-0.0949863
-0.0934039
-0.0918304
-0.0902623
-0.0886966
-0.0871315
-0.0855621
-0.0839835
-0.0823911
-0.0807796
-0.079143
-0.0774733
-0.0757602
-0.0739949
-0.0721671
-0.0702663
-0.0682811
-0.0661961
-0.0639979
-0.0616679
-0.0591851
-0.0565272
-0.0536687
-0.0505854
-0.0472575
-0.0436709
-0.0398212
-0.0357235
-0.03141
-0.0269571
-0.0224925
-0.0181683
-0.0140934
-0.0102616
-0.00660898
-0.00307942
0.000367887
0.00375941
0.00711144
0.0104338
0.0137325
0.0170112
0.0202727
0.0235187
0.0267508
0.0299704
0.0331787
0.0363769
0.039566
0.0427471
0.045921
0.0490886
0.0522507
0.0554079
0.0585609
0.0617101
0.0648562
0.0679995
0.0711404
0.0742792
0.0774162
0.0805517
0.0836858
0.0868188
0.0899508
0.093082
0.0962126
0.0993427
0.102472
0.105602
0.108731
-0.21786
-0.212447
-0.207176
-0.202131
-0.19739
-0.193007
-0.188998
-0.185347
-0.182032
-0.179032
-0.176287
-0.173753
-0.171382
-0.16915
-0.167021
-0.164978
-0.162971
-0.161011
-0.159017
-0.157013
-0.154943
-0.152821
-0.150621
-0.148333
-0.14596
-0.143512
-0.140999
-0.138439
-0.135857
-0.133273
-0.130705
-0.128162
-0.125632
-0.12313
-0.12068
-0.118314
-0.116048
-0.113889
-0.111839
-0.109896
-0.108051
-0.106284
-0.104565
-0.102882
-0.101223
-0.0995748
-0.0979286
-0.0962882
-0.0946573
-0.0930412
-0.0914368
-0.0898423
-0.0882548
-0.0866714
-0.0850905
-0.083507
-0.081916
-0.0803134
-0.0786944
-0.0770533
-0.0753825
-0.0736731
-0.0719159
-0.070101
-0.0682189
-0.0662606
-0.0642112
-0.0620594
-0.0597889
-0.0573775
-0.0548035
-0.0520451
-0.0490816
-0.0458953
-0.042475
-0.0388168
-0.0349378
-0.030865
-0.026658
-0.0224089
-0.0182251
-0.0141967
-0.0103523
-0.00665817
-0.00307992
0.000412105
0.00384012
0.00721981
0.0105619
0.0138738
0.0171605
0.0204258
0.0236725
0.026903
0.0301191
0.0333226
0.0365149
0.0396975
0.0428716
0.0460383
0.0491985
0.0523532
0.0555031
0.058649
0.0617913
0.0649306
0.0680674
0.0712021
0.0743349
0.0774661
0.0805961
0.0837249
0.0868528
0.0899799
0.0931064
0.0962324
0.0993579
0.102483
0.105608
0.108733
-0.217963
-0.21276
-0.207696
-0.202855
-0.198316
-0.194108
-0.190244
-0.186726
-0.183528
-0.180609
-0.177912
-0.175407
-0.173053
-0.170825
-0.168691
-0.166635
-0.1646
-0.162595
-0.160545
-0.158469
-0.156321
-0.154108
-0.151797
-0.14938
-0.146859
-0.144246
-0.141556
-0.138808
-0.136032
-0.133256
-0.130501
-0.127781
-0.125076
-0.12239
-0.119754
-0.117208
-0.114779
-0.11248
-0.110315
-0.108279
-0.106352
-0.104516
-0.102746
-0.101019
-0.0993296
-0.0976525
-0.0959809
-0.0943159
-0.0926617
-0.0910226
-0.0893963
-0.0877806
-0.0861733
-0.0845721
-0.0829748
-0.0813772
-0.0797743
-0.0781622
-0.0765365
-0.0748915
-0.0732207
-0.0715162
-0.069769
-0.0679694
-0.0661087
-0.0641795
-0.0621679
-0.060062
-0.0578488
-0.0555087
-0.053021
-0.0503644
-0.0475172
-0.0444658
-0.0412035
-0.0377264
-0.0340463
-0.0301869
-0.0261932
-0.0221333
-0.0180767
-0.0141036
-0.0102775
-0.00657718
-0.00298073
0.000532809
0.00398073
0.0073765
0.0107303
0.0140495
0.0173398
0.0206056
0.0238502
0.0270766
0.0302871
0.0334839
0.0366687
0.0398432
0.0430088
0.0461669
0.0493186
0.0524649
0.0556065
0.0587443
0.0618789
0.0650107
0.0681404
0.0712682
0.0743945
0.0775195
0.0806435
0.0837666
0.086889
0.0900109
0.0931323
0.0962533
0.0993741
0.102495
0.105615
0.108735
-0.218082
-0.213102
-0.208249
-0.203621
-0.199277
-0.195245
-0.19154
-0.188148
-0.185039
-0.182188
-0.179552
-0.177095
-0.174772
-0.172555
-0.170417
-0.168342
-0.166278
-0.164231
-0.162136
-0.15999
-0.157768
-0.155465
-0.153047
-0.150501
-0.147827
-0.145045
-0.142171
-0.139226
-0.136248
-0.133269
-0.130314
-0.127403
-0.124511
-0.121631
-0.118801
-0.116073
-0.113479
-0.111037
-0.108752
-0.10662
-0.104617
-0.102713
-0.100886
-0.0991116
-0.0973807
-0.0956702
-0.0939704
-0.0922807
-0.0906037
-0.0889418
-0.0872932
-0.0856561
-0.0840287
-0.0824091
-0.0807946
-0.0791818
-0.0775668
-0.0759455
-0.0743135
-0.0726654
-0.0709955
-0.0692969
-0.0675611
-0.0657793
-0.0639431
-0.0620453
-0.0600744
-0.0580188
-0.0558667
-0.0535997
-0.0511956
-0.0486336
-0.0458944
-0.0429695
-0.0398557
-0.0365489
-0.0330532
-0.0293877
-0.0255884
-0.0217004
-0.0177633
-0.0138519
-0.0100622
-0.00637818
-0.00278502
0.000731877
0.00418538
0.00758629
0.0109434
0.0142636
0.0175525
0.0208146
0.0240538
0.0272732
0.0304755
0.0336632
0.0368385
0.0400031
0.0431587
0.0463069
0.0494487
0.0525853
0.0557176
0.0588465
0.0619725
0.0650962
0.068218
0.0713384
0.0744576
0.077576
0.0806936
0.0838106
0.0869272
0.0900435
0.0931595
0.0962754
0.0993911
0.102507
0.105622
0.108738
-0.218198
-0.213447
-0.208822
-0.20441
-0.200259
-0.196401
-0.192846
-0.189581
-0.186582
-0.183824
-0.181252
-0.178833
-0.176535
-0.174329
-0.172192
-0.170104
-0.168019
-0.165928
-0.163782
-0.16157
-0.159278
-0.156882
-0.154352
-0.151673
-0.148847
-0.145891
-0.142827
-0.139679
-0.136491
-0.133298
-0.130128
-0.127012
-0.123921
-0.12084
-0.117814
-0.114905
-0.11215
-0.109568
-0.107165
-0.104937
-0.102853
-0.100878
-0.0989909
-0.0971651
-0.0953874
-0.093639
-0.0919076
-0.0901913
-0.0884913
-0.0868069
-0.0851362
-0.0834776
-0.0818301
-0.0801917
-0.0785596
-0.076931
-0.0753029
-0.0736716
-0.0720329
-0.0703814
-0.0687126
-0.0670201
-0.0652964
-0.0635337
-0.061724
-0.0598602
-0.0579321
-0.0559294
-0.0538395
-0.0516446
-0.0493264
-0.0468613
-0.0442316
-0.0414274
-0.0384523
-0.0353046
-0.0319809
-0.0284898
-0.02486
-0.0211268
-0.0173083
-0.0134675
-0.00972696
-0.00607414
-0.00249928
0.00100739
0.00445488
0.00785137
0.011204
0.0145187
0.0178009
0.021055
0.0242848
0.0274939
0.0306851
0.0338613
0.0370247
0.0401774
0.0433212
0.0464577
0.0495883
0.0527141
0.0558361
0.058955
0.0620716
0.0651864
0.0682998
0.0714122
0.0745239
0.0776351
0.0807459
0.0838566
0.0869671
0.0900775
0.0931879
0.0962983
0.0994088
0.102519
0.10563
0.10874
-0.218313
-0.213799
-0.209409
-0.205213
-0.201261
-0.19758
-0.194175
-0.191041
-0.188151
-0.18547
-0.182954
-0.180583
-0.17832
-0.176134
-0.174002
-0.171905
-0.169799
-0.16767
-0.165479
-0.163209
-0.160841
-0.158344
-0.155696
-0.152876
-0.149883
-0.146742
-0.143481
-0.140127
-0.136724
-0.133307
-0.129911
-0.126573
-0.123276
-0.119996
-0.116784
-0.113703
-0.110794
-0.108079
-0.105562
-0.103235
-0.101066
-0.0990168
-0.0970619
-0.0951794
-0.0933531
-0.0915649
-0.089801
-0.0880567
-0.0863317
-0.0846244
-0.0829313
-0.0812514
-0.0795838
-0.0779267
-0.0762774
-0.0746326
-0.0729905
-0.0713483
-0.0697019
-0.0680469
-0.0663791
-0.0646929
-0.0629819
-0.0612389
-0.0594565
-0.0576284
-0.0557454
-0.0537986
-0.0517758
-0.0496594
-0.0474312
-0.0450643
-0.042543
-0.0398543
-0.0370036
-0.0339945
-0.0308269
-0.0274986
-0.0240216
-0.0204305
-0.0167337
-0.0129729
-0.00929006
-0.00567796
-0.00213133
0.00135544
0.00478803
0.00817217
0.0115133
0.0148166
0.0180867
0.021328
0.0245444
0.0277395
0.0309165
0.0340782
0.0372272
0.0403658
0.0434959
0.0466192
0.049737
0.0528507
0.0559612
0.0590692
0.0621756
0.0652808
0.0683852
0.0714891
0.0745928
0.0776965
0.0808002
0.0839041
0.0870083
0.0901126
0.0932172
0.096322
0.099427
0.102532
0.105637
0.108743
-0.218436
-0.214168
-0.210018
-0.206044
-0.202288
-0.19878
-0.195528
-0.192523
-0.189733
-0.187131
-0.184681
-0.182357
-0.180127
-0.177963
-0.175841
-0.173737
-0.171617
-0.169456
-0.167222
-0.164892
-0.162443
-0.159849
-0.157082
-0.154117
-0.150948
-0.147608
-0.144133
-0.140556
-0.136927
-0.133279
-0.129648
-0.126074
-0.122559
-0.119086
-0.115699
-0.112455
-0.109395
-0.106548
-0.103923
-0.101503
-0.0992543
-0.0971331
-0.095113
-0.0931706
-0.0912904
-0.0894558
-0.0876557
-0.0858805
-0.0841277
-0.0823959
-0.0806811
-0.0789808
-0.0772942
-0.0756193
-0.0739536
-0.0722937
-0.0706379
-0.0689841
-0.0673296
-0.0656707
-0.0640037
-0.0623248
-0.0606275
-0.0589061
-0.0571528
-0.0553619
-0.0535248
-0.0516337
-0.0496761
-0.047639
-0.0454997
-0.0432326
-0.0408221
-0.038254
-0.0355283
-0.0326511
-0.0296243
-0.0264424
-0.0231087
-0.0196515
-0.0160707
-0.0123904
-0.00876863
-0.00520196
-0.00168929
0.00177134
0.00518264
0.00854815
0.0118718
0.015158
0.0184109
0.0216346
0.0248333
0.0280105
0.0311696
0.0343139
0.0374458
0.0405679
0.0436822
0.0467904
0.0498941
0.0529943
0.0560922
0.0591885
0.0622838
0.0653787
0.0684735
0.0715684
0.0746638
0.0777596
0.0808559
0.0839529
0.0870504
0.0901485
0.0932471
0.0963462
0.0994456
0.102545
0.105645
0.108745
-0.218562
-0.214542
-0.21063
-0.206877
-0.203321
-0.19999
-0.196888
-0.194007
-0.191322
-0.188801
-0.186416
-0.184141
-0.181951
-0.179815
-0.177707
-0.175603
-0.173472
-0.171285
-0.16901
-0.166618
-0.164091
-0.161397
-0.158499
-0.155374
-0.15202
-0.148475
-0.144775
-0.14096
-0.13709
-0.133199
-0.129323
-0.125507
-0.121771
-0.118106
-0.114548
-0.111144
-0.107938
-0.104964
-0.102239
-0.0997324
-0.0974095
-0.0952201
-0.0931393
-0.0911434
-0.0892153
-0.0873358
-0.085497
-0.0836879
-0.081904
-0.0801421
-0.0784008
-0.0766764
-0.074969
-0.0732752
-0.0715937
-0.0699206
-0.0682537
-0.0665908
-0.0649301
-0.0632692
-0.0616045
-0.0599332
-0.0582505
-0.0565513
-0.0548281
-0.0530744
-0.051282
-0.0494443
-0.047549
-0.0455896
-0.0435394
-0.0413732
-0.0390698
-0.0366209
-0.0340244
-0.0312803
-0.0283888
-0.0253436
-0.022142
-0.0188076
-0.0153382
-0.0117396
-0.00817837
-0.00465761
-0.00118086
0.00225042
0.00563628
0.00897839
0.0122795
0.0155433
0.0187738
0.0219752
0.0251515
0.0283067
0.0314444
0.0345678
0.0376798
0.0407829
0.0438793
0.0469706
0.0500585
0.053144
0.0562282
0.0593118
0.0623954
0.0654794
0.068564
0.0716496
0.0747362
0.0778238
0.0809126
0.0840024
0.0870932
0.0901849
0.0932774
0.0963706
0.0994644
0.102559
0.105653
0.108748
-0.218687
-0.214913
-0.211236
-0.207701
-0.204346
-0.201192
-0.198241
-0.195485
-0.1929
-0.190459
-0.188146
-0.185932
-0.183786
-0.181685
-0.179599
-0.1775
-0.17536
-0.173144
-0.170823
-0.168365
-0.165756
-0.162953
-0.159919
-0.156626
-0.153073
-0.149309
-0.145372
-0.141304
-0.137177
-0.133041
-0.128928
-0.124882
-0.120932
-0.117072
-0.113341
-0.109783
-0.106439
-0.103345
-0.100517
-0.0979262
-0.0955384
-0.09329
-0.0911542
-0.0891087
-0.0871348
-0.0852139
-0.0833356
-0.0814904
-0.0796737
-0.0778803
-0.0761105
-0.0743607
-0.0726307
-0.0709169
-0.0692177
-0.0675301
-0.0658518
-0.0641807
-0.0625157
-0.0608553
-0.059197
-0.0575378
-0.0558736
-0.0541993
-0.0525081
-0.0507943
-0.0490492
-0.0472656
-0.045429
-0.043539
-0.0415702
-0.0395048
-0.037309
-0.0349724
-0.0324966
-0.029881
-0.0271217
-0.02421
-0.0211416
-0.0179312
-0.0145666
-0.0110421
-0.00753485
-0.00405554
-0.000612867
0.00278864
0.00614691
0.00946213
0.0127363
0.0159728
0.0191758
0.0223497
0.0254989
0.0286277
0.0317399
0.0348391
0.0379281
0.0410096
0.0440859
0.0471585
0.0502291
0.0532987
0.0563682
0.0594382
0.0625093
0.0655819
0.068656
0.0717318
0.0748094
0.0778886
0.0809696
0.0840521
0.0871361
0.0902213
0.0933077
0.0963951
0.0994832
0.102572
0.105661
0.108751
-0.21881
-0.21528
-0.211838
-0.208524
-0.205364
-0.202378
-0.199571
-0.196938
-0.19446
-0.192112
-0.189875
-0.18772
-0.185622
-0.183559
-0.181501
-0.17941
-0.177262
-0.175019
-0.172653
-0.170131
-0.167436
-0.164516
-0.161337
-0.157866
-0.154103
-0.150104
-0.145909
-0.141572
-0.137187
-0.132808
-0.128476
-0.124233
-0.120088
-0.116034
-0.112122
-0.1084
-0.104918
-0.101718
-0.0988053
-0.0961276
-0.0936604
-0.0913554
-0.0891695
-0.0870788
-0.0850601
-0.0830986
-0.0811817
-0.0792999
-0.0774482
-0.0756219
-0.0738209
-0.0720438
-0.0702892
-0.0685544
-0.066837
-0.0651351
-0.0634459
-0.0617684
-0.0601022
-0.0584463
-0.056799
-0.055157
-0.0535161
-0.0518714
-0.050215
-0.0485426
-0.0468461
-0.0451176
-0.043341
-0.0415158
-0.0396141
-0.0376346
-0.0355389
-0.0333156
-0.0309578
-0.028465
-0.0258331
-0.0230482
-0.0201016
-0.0170082
-0.0137582
-0.0103164
-0.00685254
-0.0034049
9.28348e-06
0.00338324
0.00671347
0.00999927
0.0132425
0.0164468
0.0196169
0.0227579
0.0258749
0.0289726
0.0320551
0.0351263
0.0381892
0.0412465
0.0443004
0.0473526
0.0504044
0.0534568
0.0565107
0.0595664
0.0626245
0.0656851
0.0687484
0.0718142
0.0748826
0.0779534
0.0810265
0.0841017
0.0871788
0.0902575
0.0933378
0.0964193
0.0995018
0.102585
0.105669
0.108753
-0.218931
-0.215637
-0.212419
-0.209312
-0.206343
-0.203527
-0.200869
-0.198363
-0.195992
-0.193737
-0.19158
-0.189494
-0.187451
-0.185426
-0.18339
-0.181304
-0.179143
-0.176878
-0.174476
-0.171896
-0.169122
-0.166094
-0.162767
-0.159105
-0.155117
-0.150865
-0.146395
-0.14177
-0.137109
-0.132495
-0.127981
-0.123585
-0.119275
-0.115039
-0.110956
-0.107076
-0.103448
-0.100108
-0.0970814
-0.0943321
-0.0917995
-0.0894402
-0.0872106
-0.0850803
-0.0830215
-0.0810197
-0.0790629
-0.0771416
-0.0752504
-0.0733867
-0.0715506
-0.0697426
-0.0679611
-0.0662036
-0.0644676
-0.0627511
-0.0610521
-0.0593705
-0.0577071
-0.056061
-0.0544306
-0.0528123
-0.0512008
-0.0495916
-0.047976
-0.0463494
-0.0447034
-0.0430299
-0.0413133
-0.0395513
-0.0377116
-0.0358064
-0.0337945
-0.0316752
-0.0294325
-0.0270603
-0.0245512
-0.0218884
-0.0190641
-0.0160826
-0.0129393
-0.00926873
-0.00614027
-0.00271109
0.000682689
0.00403344
0.0073365
0.0105908
0.0137989
0.0169656
0.0200969
0.0231991
0.0262783
0.0293397
0.0323882
0.0354276
0.0384612
0.0414916
0.044521
0.047551
0.0505826
0.0536169
0.0566542
0.0596951
0.0627397
0.0657881
0.0688402
0.0718959
0.074955
0.0780173
0.0810825
0.0841504
0.0872207
0.0902931
0.0933673
0.0964431
0.0995201
0.102598
0.105677
0.108756
-0.219049
-0.215986
-0.212985
-0.210076
-0.207288
-0.204634
-0.202122
-0.199745
-0.197488
-0.195336
-0.193255
-0.191238
-0.189246
-0.187258
-0.185248
-0.183177
-0.181018
-0.178742
-0.176306
-0.173672
-0.170811
-0.167656
-0.16416
-0.160292
-0.15607
-0.151559
-0.14681
-0.141911
-0.136991
-0.13216
-0.127484
-0.122954
-0.11851
-0.114127
-0.109889
-0.105863
-0.102096
-0.0986349
-0.0954907
-0.0926391
-0.090019
-0.0875936
-0.0853166
-0.0831425
-0.0810438
-0.0790029
-0.0770066
-0.0750446
-0.0731105
-0.0712043
-0.069328
-0.0674835
-0.0656706
-0.063887
-0.0621302
-0.0603983
-0.05869
-0.0570073
-0.0553517
-0.0537217
-0.0521135
-0.0505226
-0.0489443
-0.0473755
-0.0458091
-0.0442385
-0.0426504
-0.041034
-0.0393746
-0.0376679
-0.0358853
-0.0340443
-0.0321037
-0.0300741
-0.0279334
-0.0256714
-0.0232795
-0.0207348
-0.0180209
-0.0151437
-0.0120971
-0.00880033
-0.00538398
-0.00197301
0.00140784
0.00474141
0.00801902
0.0112396
0.0144075
0.01753
0.0206156
0.0236723
0.0267073
0.0297271
0.0327367
0.0357403
0.0387414
0.0417424
0.0447453
0.0477515
0.0507618
0.0537769
0.0567972
0.0598228
0.0628536
0.0658896
0.0689304
0.071976
0.0750258
0.0780796
0.0811371
0.0841978
0.0872615
0.0903276
0.093396
0.0964661
0.0995378
0.102611
0.105684
0.108758
-0.219161
-0.216318
-0.213526
-0.210814
-0.208203
-0.205707
-0.203338
-0.20109
-0.198937
-0.196876
-0.194865
-0.192916
-0.190978
-0.189036
-0.187057
-0.185004
-0.182845
-0.180551
-0.178068
-0.175368
-0.172406
-0.169109
-0.165433
-0.161349
-0.15689
-0.152134
-0.147129
-0.141966
-0.13679
-0.131751
-0.126949
-0.122343
-0.117822
-0.113336
-0.108971
-0.104813
-0.100912
-0.0973207
-0.0940498
-0.09109
-0.0883788
-0.0858729
-0.0835392
-0.0813166
-0.0791745
-0.0770934
-0.0750558
-0.0730523
-0.0710737
-0.0691218
-0.0671996
-0.0653108
-0.0634575
-0.0616402
-0.0598573
-0.0581074
-0.0563899
-0.0547091
-0.0530659
-0.0514548
-0.0498666
-0.0482961
-0.0467452
-0.0452167
-0.043707
-0.0422078
-0.0406955
-0.0391478
-0.0375483
-0.0358882
-0.0341516
-0.0323566
-0.03047
-0.0285092
-0.0264562
-0.0242999
-0.0220199
-0.0195939
-0.0170076
-0.0142368
-0.0112624
-0.00801557
-0.00461622
-0.00120173
0.00218572
0.00551316
0.00876768
0.0119507
0.0150714
0.0181413
0.0211725
0.0241756
0.0271596
0.0301315
0.0330973
0.0360613
0.0390267
0.0419958
0.0449704
0.0479514
0.0509395
0.0539349
0.0569377
0.0599476
0.0629646
0.0659882
0.0690179
0.0720534
0.0750941
0.0781397
0.0811896
0.0842434
0.0873005
0.0903607
0.0934234
0.0964882
0.0995547
0.102623
0.105691
0.108761
-0.219267
-0.216631
-0.214035
-0.211506
-0.209064
-0.206722
-0.204482
-0.202345
-0.200282
-0.198311
-0.196379
-0.194502
-0.192628
-0.190735
-0.188789
-0.186753
-0.184596
-0.182274
-0.179746
-0.176976
-0.173896
-0.170444
-0.166578
-0.162273
-0.157577
-0.152582
-0.147339
-0.141906
-0.136464
-0.131232
-0.126332
-0.121709
-0.117181
-0.112657
-0.108219
-0.103972
-0.0999826
-0.0962971
-0.0929255
-0.0898555
-0.0870336
-0.0844149
-0.0819781
-0.0796765
-0.0774758
-0.0753497
-0.0732716
-0.0712275
-0.0692061
-0.0672074
-0.0652344
-0.0632921
-0.061386
-0.0595214
-0.0577021
-0.0559287
-0.054202
-0.0525275
-0.0508998
-0.0493012
-0.047712
-0.0461312
-0.0445799
-0.0430773
-0.041623
-0.0402158
-0.0388096
-0.0373563
-0.0358246
-0.0341999
-0.032484
-0.0307044
-0.0288506
-0.0269369
-0.0249502
-0.0228824
-0.020711
-0.0184029
-0.0159292
-0.0132629
-0.0103911
-0.00723653
-0.0038647
-0.000405736
0.0030246
0.00636258
0.00959497
0.0127328
0.0157949
0.0188005
0.0217665
0.0247065
0.0276313
0.0305491
0.0334659
0.0363862