0.010101 	-2.15518e-13 	2.39039e-16 	-2.5316e-15
0.020202 	-2.3362e-15 	1.253e-17 	-1.5024e-16
