0 	-15.2164
0.010101 	-9.59345
0.020202 	-9.39639
0.030303 	-8.12439
0.040404 	-8.83089
0.0505051 	-9.88123
0.0606061 	-8.32526
0.0707071 	-9.52986
0.0808081 	-9.59991
0.0909091 	-9.60391
