/*--------------------------------*- C++ -*----------------------------------*\
  =========                 |
  \\      /  F ield         | OpenFOAM: The Open Source CFD Toolbox
   \\    /   O peration     | Website:  https://openfoam.org
    \\  /    A nd           | Version:  6
     \\/     M anipulation  |
\*---------------------------------------------------------------------------*/
FoamFile
{
    version     2.0;
    format      ascii;
    class       volScalarField;
    location    "3900";
    object      Su;
}
// * * * * * * * * * * * * * * * * * * * * * * * * * * * * * * * * * * * * * //

dimensions      [0 0 -1 0 0 0 0];

internalField   nonuniform List<scalar> 
4800
(
0.217931
0.212625
0.207411
0.202407
0.19768
0.193243
0.189092
0.185213
0.181579
0.178161
0.174936
0.171864
0.168921
0.166105
0.16341
0.160833
0.158371
0.156016
0.153752
0.151566
0.149447
0.147383
0.145365
0.143385
0.141437
0.13952
0.137634
0.135792
0.133997
0.132245
0.130537
0.128875
0.127259
0.12569
0.124166
0.122687
0.121252
0.119861
0.118508
0.117188
0.115899
0.11463
0.113373
0.112123
0.110874
0.109608
0.108315
0.106984
0.105599
0.104144
0.1026
0.100948
0.0991651
0.0972318
0.0951275
0.0928353
0.0903428
0.0876382
0.0847213
0.0815949
0.0782654
0.0747702
0.0711564
0.0674643
0.063726
0.0599616
0.0561877
0.0524196
0.0486741
0.0449713
0.0413313
0.0377667
0.0342808
0.0308701
0.0275254
0.0242337
0.0209836
0.0177682
0.0145848
0.0114312
0.0082983
0.00516996
0.00204224
-0.00108006
-0.00419495
-0.00730184
-0.0104005
-0.0134909
-0.016573
-0.0196466
-0.0227117
-0.0257683
-0.0288163
-0.0318558
-0.034887
-0.0379098
-0.0409246
-0.0439316
-0.0469311
-0.0499234
-0.0529088
-0.0558877
-0.0588606
-0.0618277
-0.0647896
-0.0677465
-0.070699
-0.0736474
-0.076592
-0.0795333
-0.0824716
-0.0854072
-0.0883405
-0.0912718
-0.0942013
-0.0971294
-0.100056
-0.102982
-0.105908
-0.108833
0.21791
0.212604
0.207432
0.20246
0.197746
0.193312
0.189158
0.185271
0.181624
0.178186
0.174932
0.171836
0.16888
0.166053
0.163351
0.16077
0.158303
0.15594
0.153666
0.151469
0.149336
0.147256
0.14522
0.143224
0.141262
0.139337
0.137442
0.135586
0.133775
0.132009
0.130287
0.128613
0.126988
0.12541
0.12388
0.122392
0.120949
0.11955
0.118194
0.116873
0.115582
0.114317
0.113065
0.111817
0.11057
0.109307
0.108018
0.106691
0.10531
0.103859
0.10232
0.100673
0.0988982
0.096974
0.0948814
0.092602
0.0901242
0.0874367
0.0845391
0.0814408
0.0781483
0.0746812
0.0710729
0.0673797
0.0636483
0.0598963
0.0561387
0.0523923
0.0486703
0.044988
0.0413631
0.0378083
0.0343277
0.0309167
0.0275681
0.0242734
0.0210257
0.0178205
0.0146426
0.0114732
0.0083118
0.00516431
0.0020304
-0.00109407
-0.0042097
-0.00731678
-0.0104154
-0.0135057
-0.0165876
-0.019661
-0.0227258
-0.025782
-0.0288297
-0.0318688
-0.0348995
-0.0379218
-0.0409361
-0.0439426
-0.0469415
-0.0499332
-0.052918
-0.0558963
-0.0588686
-0.0618352
-0.0647965
-0.0677529
-0.0707049
-0.0736527
-0.0765969
-0.0795377
-0.0824755
-0.0854106
-0.0883435
-0.0912743
-0.0942035
-0.0971312
-0.100058
-0.102983
-0.105909
-0.108833
0.217922
0.212638
0.207496
0.202556
0.197861
0.193438
0.189287
0.185395
0.181736
0.17828
0.174996
0.171867
0.168881
0.16603
0.163305
0.160707
0.158223
0.155836
0.153534
0.151304
0.149133
0.147015
0.14494
0.142908
0.140913
0.138962
0.137045
0.135162
0.133323
0.131532
0.129785
0.128089
0.126445
0.124851
0.123306
0.121805
0.120348
0.118939
0.117578
0.116256
0.114966
0.113703
0.112457
0.111215
0.109971
0.108715
0.107433
0.106113
0.104741
0.103299
0.101769
0.100135
0.0983742
0.0964661
0.094394
0.0921379
0.0896874
0.0870316
0.0841668
0.0811119
0.0778674
0.0744452
0.0708751
0.0672103
0.0635006
0.0597709
0.0560408
0.0523261
0.0486383
0.0449889
0.0413888
0.0378442
0.0343605
0.0309408
0.0275827
0.0242787
0.0210162
0.0177879
0.0145974
0.0114385
0.00828853
0.00514017
0.00200279
-0.00112347
-0.00423972
-0.00734686
-0.0104454
-0.0135354
-0.0166169
-0.0196898
-0.0227541
-0.0258097
-0.0288566
-0.0318949
-0.0349246
-0.037946
-0.0409592
-0.0439645
-0.0469623
-0.0499528
-0.0529365
-0.0559136
-0.0588848
-0.0618502
-0.0648104
-0.0677657
-0.0707166
-0.0736634
-0.0766065
-0.0795464
-0.0824833
-0.0854175
-0.0883495
-0.0912795
-0.0942078
-0.0971347
-0.10006
-0.102985
-0.10591
-0.108834
0.217944
0.212701
0.207599
0.202698
0.198031
0.193624
0.189481
0.185588
0.181916
0.178436
0.175121
0.171958
0.168938
0.16605
0.163292
0.160657
0.158133
0.155701
0.15335
0.151063
0.148833
0.146655
0.144526
0.142443
0.140403
0.138408
0.136453
0.134534
0.13266
0.130835
0.129058
0.12733
0.125658
0.124037
0.122472
0.120955
0.119482
0.118061
0.11669
0.115365
0.114076
0.112813
0.111572
0.110338
0.109103
0.107856
0.106583
0.105272
0.103911
0.102483
0.10097
0.0993551
0.0976176
0.0957357
0.093693
0.0914696
0.0890555
0.0864448
0.083625
0.0806172
0.0774268
0.0740652
0.0705636
0.0669549
0.0632757
0.059572
0.0558753
0.0521959
0.0485416
0.0449204
0.0413392
0.0378057
0.0343264
0.0309061
0.0275463
0.0242454
0.0209984
0.0177946
0.0146198
0.0114508
0.0082704
0.00510048
0.00195804
-0.00116915
-0.00428529
-0.00739211
-0.0104902
-0.0135798
-0.0166608
-0.0197331
-0.0227967
-0.0258513
-0.0288971
-0.0319341
-0.0349624
-0.0379823
-0.0409939
-0.0439975
-0.0469936
-0.0499823
-0.0529642
-0.0559396
-0.058909
-0.0618727
-0.0648312
-0.0677849
-0.0707341
-0.0736794
-0.0766211
-0.0795594
-0.0824949
-0.0854278
-0.0883585
-0.0912872
-0.0942142
-0.0971399
-0.100065
-0.102988
-0.105911
-0.108834
0.217979
0.212799
0.207746
0.202887
0.198255
0.193871
0.189736
0.185837
0.182148
0.178645
0.175303
0.172107
0.169048
0.166117
0.163311
0.160622
0.158037
0.155538
0.153112
0.150751
0.148447
0.146196
0.143999
0.141854
0.139758
0.137713
0.13571
0.133746
0.131828
0.12996
0.12814
0.126369
0.12466
0.123005
0.12141
0.119873
0.118379
0.116939
0.115555
0.114222
0.112933
0.111671
0.110436
0.10921
0.107985
0.106748
0.105488
0.104191
0.102845
0.101436
0.099946
0.0983559
0.0966477
0.0947992
0.0927957
0.0906166
0.0882471
0.0856849
0.0829189
0.0799673
0.0768409
0.0735548
0.0701249
0.0665747
0.0629545
0.0593093
0.0556545
0.0520031
0.0483728
0.0447743
0.0412131
0.0376948
0.0342242
0.0308076
0.0274484
0.0241448
0.0208931
0.0176848
0.0145122
0.0113531
0.00818716
0.00502933
0.0018926
-0.00123163
-0.00434622
-0.00745221
-0.0105498
-0.013639
-0.0167194
-0.019791
-0.0228536
-0.025907
-0.0289514
-0.0319867
-0.0350131
-0.0380309
-0.0410403
-0.0440417
-0.0470354
-0.0500218
-0.0530013
-0.0559743
-0.0589413
-0.0619027
-0.0648589
-0.0678104
-0.0707575
-0.0737007
-0.0766403
-0.0795768
-0.0825104
-0.0854415
-0.0883704
-0.0912974
-0.0942228
-0.0971469
-0.10007
-0.102992
-0.105914
-0.108835
0.218016
0.212909
0.207921
0.203114
0.198522
0.194162
0.190036
0.186132
0.182428
0.178905
0.175538
0.17231
0.169212
0.166235
0.163371
0.160614
0.157949
0.155363
0.152848
0.150397
0.148002
0.145663
0.143384
0.141167
0.139008
0.136903
0.134845
0.132829
0.130857
0.128935
0.127061
0.125237
0.123476
0.12178
0.120143
0.118573
0.117056
0.115594
0.114199
0.112857
0.111565
0.110303
0.109074
0.107858
0.106644
0.105419
0.104173
0.102894
0.101568
0.10018
0.0987156
0.0971567
0.0954859
0.0936776
0.0917185
0.0895896
0.0872728
0.0847668
0.0820638
0.0791783
0.0761206
0.0729054
0.0695474
0.0660738
0.0625249
0.0589339
0.0553252
0.0517185
0.0481278
0.0445622
0.0410279
0.0375305
0.0340758
0.0306683
0.027309
0.0239946
0.0207252
0.0175041
0.0143298
0.0111893
0.00806124
0.00493408
0.00181011
-0.00130872
-0.00442113
-0.00752633
-0.0106237
-0.0137126
-0.0167926
-0.0198635
-0.022925
-0.025977
-0.0290196
-0.0320528
-0.0350769
-0.0380921
-0.0410987
-0.0440972
-0.0470879
-0.0500712
-0.0530477
-0.0560177
-0.0589817
-0.0619402
-0.0648935
-0.0678422
-0.0707866
-0.0737272
-0.0766643
-0.0795983
-0.0825296
-0.0854584
-0.0883852
-0.0913101
-0.0942334
-0.0971555
-0.100077
-0.102997
-0.105916
-0.108836
0.218059
0.213036
0.208125
0.203377
0.198826
0.194492
0.190377
0.186472
0.18276
0.179217
0.175823
0.172564
0.169425
0.166396
0.163468
0.160631
0.157876
0.155191
0.152572
0.150016
0.147524
0.145097
0.142736
0.140439
0.138202
0.136022
0.133891
0.131807
0.129769
0.12778
0.125842
0.123957
0.122135
0.120386
0.118703
0.117087
0.11554
0.114056
0.112642
0.111292
0.109998
0.108744
0.10752
0.106314
0.105113
0.103902
0.10267
0.101409
0.100105
0.0987428
0.0973076
0.0957838
0.0941532
0.0923874
0.0904756
0.0884047
0.0861491
0.0837042
0.0810675
0.078253
0.0752724
0.0721397
0.0688691
0.0654796
0.0620046
0.0584785
0.0549273
0.0513727
0.0478292
0.0443044
0.0408039
0.0373341
0.0339012
0.0305081
0.0271549
0.0238393
0.0205631
0.0173339
0.0141609
0.0110409
0.00794159
0.00483412
0.00171923
-0.00139612
-0.00450771
-0.00761316
-0.010711
-0.0138003
-0.0168803
-0.0199506
-0.023011
-0.0260614
-0.0291019
-0.0321326
-0.0351538
-0.0381659
-0.0411692
-0.0441641
-0.0471511
-0.0501308
-0.0531035
-0.0560698
-0.0590302
-0.0619851
-0.064935
-0.0678803
-0.0708214
-0.0737589
-0.076693
-0.0796241
-0.0825525
-0.0854787
-0.0884028
-0.0913251
-0.094246
-0.0971657
-0.100084
-0.103002
-0.10592
-0.108837
0.218109
0.21318
0.208345
0.203659
0.199158
0.194859
0.190761
0.18686
0.183138
0.179575
0.176153
0.172859
0.169678
0.166597
0.163603
0.160681
0.157826
0.155035
0.152308
0.149648
0.147057
0.144536
0.142084
0.139697
0.137374
0.135109
0.132896
0.130729
0.128609
0.126537
0.124519
0.122559
0.120663
0.118847
0.11711
0.115447
0.113857
0.112348
0.110921
0.109562
0.108265
0.107017
0.105803
0.104606
0.103421
0.102224
0.101011
0.0997697
0.0984897
0.097156
0.0957523
0.0942654
0.0926772
0.090961
0.0891002
0.0870853
0.0848937
0.0825198
0.0799626
0.0772305
0.0743352
0.0712895
0.0681084
0.0648072
0.0614126
0.0579592
0.0544765
0.0509845
0.0474947
0.0440162
0.0405568
0.0371228
0.0337196
0.03035
0.0270153
0.023718
0.0204611
0.0172451
0.0140714
0.0109446
0.00784621
0.00474209
0.00162731
-0.0014897
-0.00460361
-0.0077114
-0.0108112
-0.0139018
-0.0169824
-0.0200525
-0.0231119
-0.0261606
-0.0291987
-0.0322265
-0.0352443
-0.0382526
-0.0412519
-0.0442425
-0.0472252
-0.0502005
-0.0531688
-0.0561307
-0.0590867
-0.0620374
-0.0649832
-0.0679245
-0.0708618
-0.0737956
-0.0767261
-0.0796538
-0.082579
-0.085502
-0.0884231
-0.0913425
-0.0942606
-0.0971775
-0.100094
-0.103009
-0.105924
-0.108838
0.218152
0.21331
0.208562
0.203957
0.199524
0.195268
0.191191
0.187291
0.183557
0.179971
0.176521
0.173191
0.169967
0.16683
0.163765
0.160757
0.157802
0.154905
0.152071
0.149304
0.146609
0.143986
0.141435
0.138952
0.136535
0.134176
0.131869
0.129609
0.127395
0.125231
0.123122
0.121075
0.119097
0.117202
0.115397
0.113684
0.112054
0.11051
0.109062
0.107695
0.106399
0.10516
0.103958
0.102773
0.101602
0.100423
0.0992296
0.0980115
0.0967591
0.0954558
0.094086
0.0926354
0.0910896
0.0894218
0.0876184
0.0856687
0.0835495
0.0812477
0.0787695
0.0761228
0.0733179
0.0703658
0.0672798
0.0640736
0.0607699
0.0574014
0.0539967
0.0505753
0.047149
0.0437267
0.0403161
0.0369249
0.0335582
0.0302191
0.0269118
0.0236424
0.0204117
0.0172158
0.0140449
0.0109009
0.00778233
0.00466382
0.00153834
-0.00158684
-0.0047072
-0.00782006
-0.0109237
-0.0140168
-0.0170988
-0.0201692
-0.0232278
-0.0262748
-0.0293103
-0.0323347
-0.0353486
-0.0383525
-0.041347
-0.0443327
-0.0473103
-0.0502803
-0.0532434
-0.0562002
-0.0591512
-0.062097
-0.065038
-0.0679748
-0.0709077
-0.0738372
-0.0767637
-0.0796875
-0.082609
-0.0855284
-0.088446
-0.0913622
-0.094277
-0.0971908
-0.100104
-0.103016
-0.105928
-0.10884
0.218203
0.213461
0.208808
0.20429
0.199925
0.195715
0.191662
0.187762
0.184011
0.180402
0.176921
0.173552
0.170277
0.167078
0.163939
0.160848
0.157799
0.1548
0.151859
0.148984
0.146179
0.143448
0.140788
0.1382
0.135681
0.133223
0.130817
0.128458
0.126145
0.12388
0.121672
0.119529
0.117462
0.115485
0.113604
0.11183
0.110156
0.108579
0.107105
0.105726
0.10443
0.1032
0.102014
0.100843
0.0996887
0.0985294
0.0973588
0.0961675
0.0949451
0.0936756
0.0923449
0.0909331
0.0894332
0.0878131
0.0860635
0.0841692
0.0821203
0.0799027
0.077515
0.0749622
0.072253
0.0693976
0.0664093
0.0633029
0.0600997
0.056827
0.0535103
0.0501679
0.046811
0.0434493
0.040094
0.0367544
0.0334358
0.0301421
0.0268776
0.0236445
0.0204411
0.0172628
0.0140888
0.010913
0.00775068
0.00459887
0.00145262
-0.00168688
-0.00481778
-0.00793861
-0.0110481
-0.0141454
-0.0172298
-0.020301
-0.0233591
-0.0264043
-0.0294369
-0.0324576
-0.035467
-0.0384658
-0.0414548
-0.0444348
-0.0474064
-0.0503704
-0.0533276
-0.0562784
-0.0592237
-0.0621638
-0.0650994
-0.068031
-0.0709589
-0.0738836
-0.0768056
-0.079725
-0.0826423
-0.0855577
-0.0884715
-0.0913839
-0.0942952
-0.0972056
-0.100115
-0.103024
-0.105933
-0.108841
0.218258
0.213621
0.209069
0.204636
0.200335
0.196171
0.192145
0.188252
0.184489
0.180854
0.177334
0.173912
0.170573
0.167307
0.1641
0.160935
0.157804
0.154712
0.151671
0.148691
0.145776
0.142929
0.140151
0.137446
0.134815
0.132252
0.129745
0.127286
0.124869
0.122502
0.120192
0.117949
0.115786
0.113717
0.111753
0.109909
0.108184
0.106578
0.105084
0.103691
0.102394
0.101172
0.100001
0.0988483
0.0977111
0.0965742
0.0954286
0.0942674
0.0930768
0.091843
0.0905501
0.0891794
0.0877309
0.0861742
0.0844932
0.082667
0.0806853
0.0785418
0.0762376
0.0737756
0.0711616
0.068405
0.0655174
0.0625144
0.0594176
0.0562498
0.0530287
0.0497682
0.0464835
0.0431894
0.039898
0.0366169
0.0333509
0.0301038
0.0268782
0.0236753
0.0204914
0.0173143
0.0141282
0.0109292
0.00772808
0.00453864
0.00136703
-0.00179068
-0.0049354
-0.00806691
-0.0111845
-0.0142875
-0.0173755
-0.0204483
-0.0235062
-0.0265496
-0.0295791
-0.0325955
-0.0355998
-0.0385928
-0.0415755
-0.0445488
-0.0475136
-0.0504708
-0.053421
-0.0563652
-0.0593039
-0.0622377
-0.0651672
-0.0680929
-0.0710152
-0.0739346
-0.0768515
-0.079766
-0.0826787
-0.0855897
-0.0884993
-0.0914077
-0.0943151
-0.0972216
-0.100128
-0.103033
-0.105938
-0.108843
0.218307
0.213765
0.209307
0.204957
0.20072
0.196602
0.192606
0.188726
0.184955
0.181291
0.177722
0.174238
0.170833
0.1675
0.164228
0.161
0.157801
0.154633
0.151505
0.148425
0.145402
0.142443
0.139546
0.136717
0.133961
0.131278
0.128662
0.126098
0.123579
0.121109
0.118698
0.116355
0.114098
0.111942
0.109901
0.107987
0.106202
0.104552
0.103033
0.101623
0.100321
0.0991063
0.097948
0.0968159
0.0956992
0.094587
0.0934711
0.0923431
0.0911873
0.089993
0.0887436
0.087421
0.0860164
0.0845094
0.0828862
0.0811298
0.0792275
0.0771681
0.0749517
0.0725825
0.0700663
0.0674106
0.0646274
0.0617326
0.0587447
0.05568
0.0525539
0.0493823
0.0461809
0.0429636
0.0397413
0.0365207
0.033306
0.0300999
0.0269028
0.0237149
0.0205326
0.0173445
0.0141431
0.0109288
0.00769998
0.00447547
0.00127843
-0.00189917
-0.00506018
-0.00820493
-0.0113329
-0.0144434
-0.0175362
-0.0206115
-0.0236695
-0.0267111
-0.0297372
-0.0327489
-0.0357473
-0.0387337
-0.0417091
-0.0446749
-0.0476319
-0.0505813
-0.0535238
-0.0564604
-0.0593917
-0.0623184
-0.0652411
-0.0681603
-0.0710764
-0.0739899
-0.0769012
-0.0798105
-0.0827181
-0.0856243
-0.0885293
-0.0914333
-0.0943364
-0.0972389
-0.100141
-0.103042
-0.105944
-0.108845
0.218354
0.213908
0.209536
0.205256
0.201075
0.196998
0.193029
0.18916
0.185381
0.181684
0.178068
0.174526
0.171057
0.167658
0.16432
0.161027
0.157765
0.154532
0.151331
0.14817
0.145058
0.141996
0.138982
0.136023
0.133134
0.130322
0.127587
0.124916
0.122293
0.119721
0.117208
0.114769
0.112422
0.11018
0.108061
0.106079
0.104238
0.102541
0.100985
0.0995529
0.0982367
0.097023
0.0958759
0.0947667
0.0936774
0.0925967
0.0915177
0.0904278
0.0893117
0.0881548
0.0869446
0.0856698
0.084319
0.0828716
0.0813098
0.0796221
0.0777949
0.0758168
0.0736873
0.0714108
0.0689932
0.0664412
0.0637664
0.0609825
0.0581044
0.0551466
0.052123
0.0490489
0.0459381
0.0428014
0.0396472
0.0364839
0.0333169
0.0301464
0.0269711
0.023789
0.0205966
0.0173895
0.014167
0.0109294
0.00766847
0.00440512
0.0011861
-0.00201185
-0.00519159
-0.00835244
-0.0114933
-0.0146134
-0.0177125
-0.020791
-0.0238497
-0.0268895
-0.0299118
-0.0329181
-0.0359099
-0.0388887
-0.041856
-0.0448131
-0.0477614
-0.0507019
-0.0536358
-0.0565638
-0.0594869
-0.0624057
-0.0653209
-0.0682329
-0.0711422
-0.0740493
-0.0769545
-0.079858
-0.0827602
-0.0856612
-0.0885612
-0.0914605
-0.0943592
-0.0972573
-0.100155
-0.103053
-0.10595
-0.108847
0.218403
0.214051
0.209757
0.205536
0.201404
0.197365
0.193417
0.189554
0.185763
0.182037
0.178373
0.174775
0.171242
0.167775
0.164366
0.161005
0.157682
0.154394
0.15114
0.147924
0.14474
0.141584
0.138456
0.13537
0.132346
0.129398
0.126535
0.12375
0.121024
0.118354
0.115747
0.113214
0.110775
0.108445
0.106246
0.104196
0.102302
0.100572
0.0989889
0.0975415
0.0962116
0.0949911
0.0938474
0.0927527
0.0916885
0.09064
0.0895987
0.0885505
0.087479
0.0863656
0.0851994
0.0839706
0.0826692
0.08128
0.0797799
0.0781585
0.0764045
0.074508
0.0724671
0.070285
0.0679679
0.0655222
0.0629577
0.0602865
0.057521
0.0546735
0.0517557
0.0487797
0.0457582
0.0427005
0.0396143
0.0365064
0.0333811
0.0302389
0.0270778
0.0238947
0.0206878
0.0174549
0.0141965
0.0109161
0.0076242
0.00414186
0.0010943
-0.00212555
-0.00532816
-0.00850901
-0.0116659
-0.014798
-0.0179051
-0.0209879
-0.0240475
-0.0270854
-0.0301035
-0.0331037
-0.036088
-0.0390581
-0.0420161
-0.0449635
-0.0479018
-0.0508325
-0.0537566
-0.0566752
-0.0595891
-0.0624993
-0.0654061
-0.0683103
-0.0712123
-0.0741124
-0.077011
-0.0799084
-0.0828047
-0.0857002
-0.088595
-0.0914893
-0.0943832
-0.0972767
-0.10017
-0.103063
-0.105956
-0.108849
0.218452
0.21419
0.209969
0.205806
0.201718
0.19771
0.193778
0.189914
0.186108
0.182352
0.178644
0.17499
0.17139
0.167849
0.164364
0.160929
0.15754
0.154192
0.150884
0.147611
0.144363
0.141137
0.137926
0.134735
0.131585
0.128501
0.125506
0.122605
0.11978
0.117021
0.114327
0.111707
0.109184
0.106775
0.104505
0.10239
0.100439
0.0986627
0.0970522
0.0955934
0.09426
0.0930386
0.0919004
0.0908192
0.0897795
0.0887629
0.0877583
0.0867503
0.0857214
0.0846533
0.0835346
0.0823542
0.0811008
0.0797629
0.0783233
0.0767695
0.0750899
0.0732761
0.071324
0.0692361
0.0670188
0.0646786
0.0622247
0.0596674
0.0570157
0.0542784
0.0514651
0.0485867
0.0456526
0.0426718
0.0396516
0.0365976
0.0335115
0.0303933
0.0272414
0.0240532
0.0208277
0.0175657
0.0142709
0.0109538
0.00763462
0.00431633
0.00102652
-0.00223408
-0.00546829
-0.00867458
-0.0118514
-0.0149982
-0.018115
-0.021203
-0.0242639
-0.0272998
-0.0303131
-0.0333063
-0.0362819
-0.0392422
-0.0421896
-0.0451259
-0.0480531
-0.0509727
-0.0538859
-0.0567941
-0.059698
-0.0625986
-0.0654965
-0.0683922
-0.0712862
-0.0741788
-0.0770704
-0.0799612
-0.0828513
-0.085741
-0.0886303
-0.0915193
-0.0944082
-0.0972969
-0.100186
-0.103074
-0.105963
-0.108851
0.21849
0.214304
0.210155
0.206056
0.202015
0.198032
0.194109
0.190239
0.186415
0.182627
0.178874
0.17516
0.17149
0.167868
0.164297
0.160779
0.157309
0.153887
0.150511
0.147178
0.143873
0.140592
0.137321
0.134056
0.130811
0.127612
0.124491
0.121476
0.118559
0.115723
0.11296
0.110268
0.107672
0.105193
0.102858
0.100689
0.0986934
0.09688
0.0952393
0.0937594
0.0924169
0.0911968
0.0900662
0.0890017
0.0879872
0.0870019
0.0860331
0.0850638
0.0840762
0.0830522
0.0819806
0.0808492
0.0796477
0.0783615
0.0769779
0.075487
0.0738773
0.0721411
0.0702756
0.068283
0.0661673
0.0639341
0.0615912
0.0591464
0.0566065
0.0539773
0.0512665
0.0484828
0.0456353
0.04273
0.0397731
0.0367691
0.0337192
0.0306206
0.0274705
0.0242696
0.0210183
0.0177191
0.0143785
0.0110116
0.00764719
0.00429517
0.000961687
-0.00234211
-0.00561361
-0.00885053
-0.0120513
-0.0152156
-0.018344
-0.0214382
-0.0245005
-0.0275339
-0.0305415
-0.0335265
-0.0364921
-0.0394411
-0.0423764
-0.0453003
-0.048215
-0.0511222
-0.0540235
-0.0569201
-0.0598131
-0.0627033
-0.0655915
-0.068478
-0.0713635
-0.0742482
-0.0771323
-0.0800161
-0.0828997
-0.0857832
-0.0886668
-0.0915503
-0.094434
-0.0973177
-0.100202
-0.103085
-0.105969
-0.108853
0.218529
0.214418
0.210337
0.206293
0.20229
0.198331
0.194413
0.190531
0.186683
0.182859
0.179054
0.175272
0.171515
0.167797
0.16413
0.160519
0.156959
0.153444
0.149985
0.146586
0.143232
0.139903
0.136583
0.133265
0.129956
0.126676
0.123458
0.120345
0.11735
0.114459
0.111649
0.108905
0.106249
0.103714
0.101327
0.0991111
0.0970744
0.095225
0.0935587
0.092064
0.0907164
0.0894977
0.0883783
0.0873333
0.0863451
0.0853907
0.0844558
0.083523
0.0825747
0.0815918
0.0805654
0.0794813
0.0783301
0.0770972
0.0757687
0.0743369
0.0727947
0.0711356
0.0693559
0.067456
0.0654393
0.0633104
0.0610754
0.0587397
0.0563074
0.0537827
0.0511711
0.0484796
0.0457128
0.0428779
0.0399798
0.0370227
0.0340047
0.0309199
0.0277673
0.0245499
0.0212695
0.0179299
0.0145417
0.0111229
0.00770069
0.00429074
0.000902535
-0.00245143
-0.00576657
-0.00903949
-0.0122684
-0.015453
-0.0185946
-0.0216955
-0.0247591
-0.0277892
-0.0307899
-0.0337651
-0.036719
-0.039655
-0.0425765
-0.0454864
-0.048387
-0.0512805
-0.0541685
-0.0570525
-0.0599336
-0.0628127
-0.0656904
-0.0685672
-0.0714436
-0.0743198
-0.0771962
-0.0800727
-0.0829495
-0.0858267
-0.0887042
-0.0915821
-0.0944604
-0.097339
-0.100218
-0.103097
-0.105976
-0.108856
0.218571
0.214536
0.21052
0.206528
0.202561
0.198616
0.194691
0.190787
0.186901
0.183025
0.179152
0.175286
0.171435
0.167616
0.163842
0.160117
0.156444
0.152826
0.149274
0.145804
0.142394
0.139023
0.135668
0.132317
0.128975
0.125651
0.122373
0.11919
0.116142
0.113227
0.110409
0.107642
0.104945
0.102372
0.0999483
0.0976966
0.095629
0.0937529
0.0920648
0.0905533
0.0891989
0.0879776
0.0868678
0.0858409
0.0848758
0.0839502
0.0830466
0.0821475
0.0812363
0.0802915
0.0793085
0.0782702
0.0771666
0.0759855
0.0747132
0.0733417
0.0718656
0.0702795
0.0685806
0.066769
0.0648461
0.0628158
0.0606832
0.0584509
0.0561193
0.0536909
0.0511708
0.0485624
0.0458719
0.0431031
0.04026
0.0373443
0.0343521
0.0312797
0.0281256
0.0248909
0.021579
0.0181937
0.0147445
0.0112566
0.0077675
0.00429552
0.000846905
-0.00256537
-0.00593134
-0.00924591
-0.0125069
-0.0157144
-0.0188704
-0.0219782
-0.0250423
-0.0280676
-0.0310595
-0.034023
-0.036963
-0.039884
-0.0427897
-0.0456836
-0.0485686
-0.0514469
-0.0543204
-0.0571907
-0.0600589
-0.062926
-0.0657925
-0.068659
-0.0715259
-0.0743933
-0.0772615
-0.0801304
-0.0830002
-0.0858708
-0.0887422
-0.0916144
-0.0944872
-0.0973606
-0.100235
-0.103109
-0.105983
-0.108858
0.218603
0.214633
0.210675
0.206729
0.202792
0.19886
0.194931
0.191002
0.187069
0.18313
0.179182
0.175227
0.171271
0.167328
0.163416
0.159552
0.155751
0.152022
0.148369
0.14481
0.141332
0.137913
0.134531
0.131176
0.127838
0.124512
0.121216
0.118
0.114933
0.112031
0.109245
0.106493
0.103785
0.101191
0.0987455
0.096473
0.0943837
0.0924891
0.0907825
0.0892546
0.0878892
0.086662
0.0855538
0.0845388
0.0835902
0.0826892
0.0818136
0.0809448
0.0800681
0.0791602
0.0782183
0.0772224
0.076163
0.0750285
0.0738091
0.0724957
0.071083
0.0695667
0.0679447
0.0662162
0.064382
0.062444
0.0604049
0.0582645
0.0560226
0.0536814
0.0512433
0.0487129
0.0460926
0.043385
0.0405923
0.0377137
0.034745
0.0316842
0.0285297
0.0252805
0.0219395
0.0185135
0.0150159
0.011468
0.00789484
0.0043263
0.000792824
-0.00269011
-0.00611496
-0.0094768
-0.0127735
-0.0160058
-0.0191765
-0.0222903
-0.0253532
-0.0283715
-0.031352
-0.0343011
-0.0372246
-0.0401279
-0.0430156
-0.0458915
-0.048759
-0.0516205
-0.0544782
-0.0573336
-0.060188
-0.0630423
-0.065897
-0.0687527
-0.0716096
-0.0744679
-0.0773276
-0.0801888
-0.0830514
-0.0859153
-0.0887805
-0.0916468
-0.0945141
-0.0973823
-0.100251
-0.103121
-0.10599
-0.10886
0.218632
0.214718
0.210809
0.206904
0.202993
0.199071
0.195133
0.191173
0.187187
0.183176
0.17914
0.175086
0.17102
0.166946
0.162883
0.158862
0.154919
0.151064
0.147292
0.143629
0.140073
0.136601
0.133191
0.129852
0.126551
0.123262
0.119989
0.116782
0.113719
0.110843
0.108112
0.105421
0.102747
0.100172
0.0977359
0.0954679
0.0933723
0.0914658
0.0897406
0.0881917
0.0868053
0.0855629
0.0844458
0.0834313
0.0824912
0.0816064
0.0807531
0.0799096
0.0790626
0.0781905
0.0772864
0.0763298
0.0753125
0.0742207
0.0730492
0.0717889
0.0704336
0.0689804
0.0674276
0.0657737
0.0640188
0.0621622
0.0602028
0.0581401
0.0559749
0.0537094
0.051346
0.0488857
0.0463293
0.0436785
0.0409336
0.0380911
0.0351458
0.0320967
0.028943
0.0256825
0.0223156
0.0188478
0.0152926
0.0116722
0.00801178
0.00434764
0.000722949
-0.00283859
-0.0063289
-0.0097426
-0.0130776
-0.0163352
-0.0195197
-0.0226373
-0.0256959
-0.0287038
-0.0316693
-0.0346003
-0.037504
-0.0403866
-0.0432535
-0.0461092
-0.0489571
-0.0518003
-0.0546407
-0.0574802
-0.0603199
-0.0631606
-0.066003
-0.0688474
-0.071694
-0.0745428
-0.0773939
-0.0802472
-0.0831025
-0.0859597
-0.0888186
-0.0916791
-0.0945409
-0.0974038
-0.100268
-0.103132
-0.105997
-0.108863
0.218664
0.214806
0.210941
0.207061
0.203161
0.199241
0.195288
0.191293
0.187258
0.18318
0.179056
0.174895
0.170712
0.166511
0.162305
0.158133
0.154038
0.150039
0.146133
0.142347
0.138696
0.135162
0.131717
0.128405
0.125165
0.121945
0.118722
0.115551
0.112524
0.109702
0.107049
0.104452
0.101855
0.0993425
0.0969543
0.0947152
0.0926296
0.0907125
0.0889635
0.0873819
0.0859606
0.0846885
0.0835491
0.0825191
0.0815732
0.0806907
0.0798483
0.0790214
0.0781949
0.0773508
0.0764762
0.0755545
0.0745761
0.0735255
0.0723974
0.0711839
0.0698779
0.0684763
0.0669791
0.0653856
0.0636935
0.0618997
0.0600026
0.0580019
0.0558997
0.0536984
0.0513994
0.0490022
0.0465066
0.0439109
0.0412127
0.0384071
0.0354889
0.0324569
0.0293099
0.0260445
0.0226584
0.0191535
0.0155419
0.0118464
0.00809742
0.00433771
0.000617575
-0.00302826
-0.00658889
-0.0100575
-0.0134316
-0.0167133
-0.0199085
-0.0230257
-0.0260751
-0.0290674
-0.032013
-0.0349214
-0.0378011
-0.0406595
-0.0435026
-0.0463354
-0.0491617
-0.0519847
-0.0548066
-0.057629
-0.0604532
-0.0632798
-0.0661093
-0.0689421
-0.0717781
-0.0746174
-0.0774597
-0.080305
-0.083153
-0.0860035
-0.0888562
-0.0917108
-0.0945672
-0.0974249
-0.100284
-0.103144
-0.106004
-0.108865
0.218689
0.214879
0.21105
0.207192
0.203301
0.199374
0.195396
0.191359
0.187267
0.183113
0.178905
0.174654
0.170371
0.166061
0.161736
0.157431
0.153185
0.149028
0.144977
0.141063
0.13731
0.13371
0.130223
0.126918
0.123734
0.120602
0.117463
0.114365
0.111409
0.108669
0.106105
0.103622
0.101143
0.0987303
0.0964185
0.0942283
0.0921635
0.0902363
0.0884558
0.0868277
0.0853553
0.0840337
0.0828514
0.081786
0.0808134
0.0799129
0.0790613
0.0782344
0.0774132
0.0765833
0.0757263
0.0748326
0.073886
0.072871
0.0717781
0.0706009
0.0693318
0.0679678
0.0665085
0.0649537
0.0633014
0.061549
0.0596949
0.05774
0.0556866
0.053537
0.0512923
0.0489531
0.0465165
0.0439769
0.0413287
0.0385661
0.035684
0.0326801
0.0295519
0.0262952
0.0229043
0.0193766
0.0157218
0.0119626
0.00813292
0.00427729
0.000454429
-0.00328043
-0.0069148
-0.0104396
-0.0138515
-0.0171534
-0.0203534
-0.0234632
-0.0264962
-0.0294659
-0.032385
-0.0352649
-0.0381157
-0.0409455
-0.0437613
-0.0465685
-0.049371
-0.0521722
-0.0549742
-0.0577786
-0.0605864
-0.0633984
-0.0662148
-0.0690357
-0.071861
-0.0746906
-0.0775242
-0.0803616
-0.0832024
-0.0860462
-0.0888928
-0.0917417
-0.0945927
-0.0974454
-0.1003
-0.103155
-0.106011
-0.108867
0.21871
0.214935
0.21113
0.207286
0.203398
0.199456
0.195448
0.191375
0.187231
0.18301
0.178727
0.174395
0.170028
0.165636
0.161227
0.156821
0.152446
0.14814
0.143944
0.139901
0.136039
0.132365
0.12884
0.125532
0.122381
0.119327
0.116299
0.113325
0.110486
0.107854
0.105391
0.103016
0.100664
0.0983687
0.0961463
0.0940101
0.0919652
0.090023
0.0882006
0.0865123
0.0849697
0.0835754
0.0823237
0.0811956
0.0801679
0.0792212
0.0783314
0.077479
0.0766418
0.0758065
0.0749506
0.074072
0.0731467
0.072156
0.0710839
0.0699249
0.068669
0.0673149
0.0658646
0.0643206
0.0626824
0.0609483
0.0591158
0.0571877
0.055166
0.0530574
0.0508654
0.0485865
0.0462127
0.043735
0.0411469
0.0384439
0.0356177
0.0326627
0.0295752
0.0263487
0.0229753
0.0194512
0.0157829
0.0119855
0.00808846
0.00413886
0.000205311
-0.00362053
-0.00733057
-0.0109113
-0.0143569
-0.0176714
-0.0208666
-0.0239585
-0.0269647
-0.0299021
-0.0327863
-0.0356306
-0.0384464
-0.041243
-0.0440277
-0.0468062
-0.0495828
-0.0523604
-0.0551414
-0.0579269
-0.060718
-0.063515
-0.066318
-0.069127
-0.0719416
-0.0747616
-0.0775867
-0.0804162
-0.0832499
-0.0860873
-0.0889279
-0.0917713
-0.0946172
-0.0974651
-0.100315
-0.103165
-0.106017
-0.108869
0.218726
0.214978
0.21119
0.207349
0.203452
0.199491
0.195463
0.191366
0.187185
0.182917
0.178581
0.174191
0.169764
0.165319
0.160862
0.156399
0.151946
0.147539
0.143228
0.139056
0.135065
0.131297
0.127738
0.124412
0.12128
0.118301
0.115409
0.112595
0.10991
0.107406
0.105037
0.10275
0.100514
0.0983244
0.0961772
0.0940784
0.092032
0.0900544
0.0881725
0.0864029
0.0847596
0.0832636
0.0819129
0.0806901
0.0795708
0.0785404
0.0775759
0.0766645
0.0757826
0.0749129
0.0740328
0.0731485
0.0722283
0.0712441
0.0701694
0.0689999
0.0677229
0.0663405
0.0648571
0.063286
0.0616278
0.0598861
0.0580548
0.0561336
0.0541268
0.0520547
0.0499197
0.0477084
0.0454113
0.0430178
0.0405152
0.037908
0.035176
0.0323021
0.0292841
0.0261177
0.0227939
0.019306
0.0156614
0.0118696
0.00794438
0.003909
-0.000161664
-0.00407566
-0.00786376
-0.0114996
-0.0149715
-0.0182863
-0.0214618
-0.0245205
-0.0274856
-0.0303783
-0.033217
-0.0360171
-0.0387912
-0.0415492
-0.0442988
-0.0470458
-0.0497942
-0.052547
-0.0553059
-0.058072
-0.060846
-0.0636279
-0.0664175
-0.0692147
-0.0720188
-0.0748295
-0.0776462
-0.0804682
-0.0832951
-0.0861262
-0.0889612
-0.0917994
-0.0946404
-0.0974836
-0.100329
-0.103175
-0.106023
-0.108871
0.218736
0.215004
0.21122
0.207376
0.203473
0.199512
0.195493
0.191396
0.187208
0.182933
0.178587
0.174195
0.169776
0.165343
0.160898
0.15642
0.151912
0.147431
0.143047
0.138764
0.134635
0.130764
0.127163
0.123803
0.120657
0.117714
0.114946
0.11231
0.109802
0.107434
0.10518
0.103001
0.100868
0.0987361
0.096619
0.0945158
0.0924158
0.0903501
0.0883724
0.0864809
0.0846901
0.0830615
0.0815742
0.0802113
0.0789493
0.0777899
0.0767083
0.0756955
0.0747344
0.073792
0.0728478
0.0719309
0.0709906
0.0699838
0.0688683
0.06764
0.0662864
0.0648258
0.0632385
0.0615896
0.0598684
0.0580803
0.0562173
0.0542904
0.0522955
0.0502792
0.0482349
0.0461059
0.0438945
0.0416336
0.0392639
0.0368321
0.0342722
0.0315458
0.0286383
0.0255615
0.0223157
0.0188993
0.0153287
0.0115931
0.00768104
0.00358706
-0.000454403
-0.00465612
-0.00854456
-0.0122377
-0.0157245
-0.01902
-0.0221533
-0.0251572
-0.0280625