/*--------------------------------*- C++ -*----------------------------------*\
  =========                 |
  \\      /  F ield         | OpenFOAM: The Open Source CFD Toolbox
   \\    /   O peration     | Website:  https://openfoam.org
    \\  /    A nd           | Version:  6
     \\/     M anipulation  |
\*---------------------------------------------------------------------------*/
FoamFile
{
    version     2.0;
    format      ascii;
    class       volScalarField;
    location    "3900";
    object      T;
}
// * * * * * * * * * * * * * * * * * * * * * * * * * * * * * * * * * * * * * //

dimensions      [0 0 0 1 0 0 0];

internalField   nonuniform List<scalar> 
4800
(
552.454
552.261
552.072
551.891
551.719
551.558
551.408
551.267
551.135
551.011
550.894
550.783
550.676
550.574
550.476
550.383
550.293
550.208
550.126
550.047
549.97
549.895
549.822
549.75
549.679
549.61
549.541
549.475
549.409
549.346
549.284
549.224
549.165
549.108
549.053
548.999
548.947
548.897
548.848
548.8
548.753
548.707
548.661
548.616
548.571
548.525
548.478
548.43
548.379
548.327
548.271
548.211
548.146
548.076
548
547.917
547.826
547.728
547.623
547.509
547.388
547.262
547.131
546.997
546.861
546.725
546.588
546.451
546.315
546.181
546.049
545.92
545.793
545.67
545.548
545.429
545.311
545.194
545.079
544.965
544.851
544.737
544.624
544.511
544.398
544.285
544.173
544.061
543.949
543.837
543.726
543.615
543.505
543.395
543.285
543.175
543.066
542.957
542.848
542.739
542.631
542.523
542.415
542.308
542.2
542.093
541.986
541.879
541.772
541.666
541.559
541.453
541.346
541.24
541.134
541.027
540.921
540.815
540.709
540.603
552.453
552.26
552.073
551.893
551.722
551.561
551.41
551.269
551.137
551.012
550.894
550.782
550.675
550.572
550.474
550.38
550.291
550.205
550.123
550.043
549.966
549.89
549.816
549.744
549.673
549.603
549.534
549.467
549.401
549.337
549.275
549.214
549.155
549.098
549.043
548.989
548.936
548.885
548.836
548.788
548.742
548.696
548.65
548.605
548.56
548.514
548.467
548.419
548.369
548.316
548.261
548.201
548.137
548.067
547.991
547.908
547.818
547.721
547.616
547.504
547.384
547.258
547.128
546.994
546.858
546.722
546.586
546.45
546.315
546.182
546.05
545.921
545.795
545.671
545.55
545.43
545.313
545.196
545.081
544.966
544.851
544.737
544.624
544.51
544.397
544.285
544.172
544.06
543.948
543.837
543.726
543.615
543.504
543.394
543.284
543.175
543.065
542.956
542.848
542.739
542.631
542.523
542.415
542.307
542.2
542.093
541.986
541.879
541.772
541.665
541.559
541.452
541.346
541.24
541.134
541.027
540.921
540.815
540.709
540.603
552.453
552.262
552.075
551.896
551.726
551.565
551.415
551.274
551.141
551.016
550.896
550.783
550.675
550.571
550.472
550.378
550.288
550.201
550.118
550.037
549.958
549.882
549.806
549.733
549.66
549.589
549.52
549.452
549.385
549.32
549.257
549.195
549.136
549.078
549.022
548.967
548.914
548.863
548.814
548.766
548.719
548.673
548.628
548.583
548.538
548.493
548.446
548.398
548.348
548.296
548.241
548.181
548.118
548.048
547.973
547.891
547.803
547.706
547.602
547.492
547.374
547.25
547.12
546.988
546.853
546.718
546.582
546.448
546.314
546.182
546.051
545.923
545.796
545.672
545.55
545.431
545.312
545.195
545.079
544.965
544.851
544.736
544.623
544.509
544.396
544.284
544.171
544.059
543.947
543.836
543.725
543.614
543.503
543.393
543.283
543.174
543.065
542.956
542.847
542.738
542.63
542.522
542.414
542.307
542.2
542.092
541.985
541.879
541.772
541.665
541.559
541.452
541.346
541.24
541.133
541.027
540.921
540.815
540.709
540.603
552.454
552.264
552.079
551.901
551.732
551.572
551.422
551.281
551.147
551.021
550.901
550.786
550.677
550.572
550.472
550.376
550.285
550.197
550.111
550.028
549.947
549.868
549.791
549.716
549.642
549.569
549.498
549.429
549.361
549.295
549.23
549.168
549.107
549.048
548.991
548.936
548.883
548.831
548.782
548.734
548.687
548.641
548.596
548.551
548.507
548.461
548.415
548.368
548.318
548.267
548.212
548.153
548.09
548.022
547.948
547.867
547.78
547.685
547.583
547.474
547.358
547.236
547.109
546.978
546.845
546.711
546.576
546.443
546.31
546.179
546.049
545.921
545.795
545.671
545.549
545.429
545.312
545.195
545.08
544.965
544.85
544.735
544.621
544.508
544.395
544.282
544.17
544.057
543.946
543.834
543.723
543.612
543.502
543.392
543.282
543.173
543.063
542.954
542.846
542.737
542.629
542.521
542.414
542.306
542.199
542.092
541.985
541.878
541.771
541.665
541.558
541.452
541.346
541.239
541.133
541.027
540.921
540.815
540.709
540.603
552.455
552.267
552.084
551.908
551.74
551.581
551.431
551.29
551.156
551.029
550.908
550.792
550.681
550.574
550.473
550.375
550.281
550.191
550.103
550.017
549.933
549.852
549.772
549.694
549.618
549.544
549.472
549.4
549.331
549.263
549.197
549.133
549.071
549.011
548.953
548.897
548.843
548.791
548.741
548.692
548.645
548.6
548.555
548.51
548.466
548.421
548.375
548.328
548.28
548.229
548.175
548.117
548.055
547.988
547.915
547.836
547.75
547.657
547.557
547.45
547.337
547.218
547.093
546.964
546.833
546.701
546.568
546.436
546.304
546.174
546.045
545.917
545.791
545.667
545.545
545.426
545.308
545.191
545.076
544.962
544.847
544.732
544.619
544.505
544.392
544.28
544.167
544.055
543.944
543.832
543.721
543.61
543.5
543.39
543.28
543.171
543.062
542.953
542.844
542.736
542.628
542.52
542.412
542.305
542.198
542.091
541.984
541.877
541.771
541.664
541.558
541.451
541.345
541.239
541.133
541.027
540.921
540.815
540.709
540.603
552.457
552.271
552.091
551.916
551.75
551.592
551.442
551.3
551.166
551.038
550.916
550.799
550.687
550.579
550.475
550.375
550.278
550.184
550.093
550.004
549.917
549.832
549.75
549.669
549.591
549.515
549.44
549.367
549.296
549.226
549.158
549.092
549.028
548.966
548.907
548.85
548.795
548.742
548.691
548.643
548.596
548.55
548.506
548.461
548.417
548.373
548.328
548.281
548.233
548.183
548.13
548.073
548.013
547.947
547.876
547.799
547.715
547.624
547.526
547.422
547.311
547.194
547.072
546.946
546.818
546.687
546.557
546.426
546.295
546.166
546.038
545.911
545.786
545.662
545.54
545.42
545.302
545.185
545.07
544.956
544.842
544.729
544.616
544.503
544.39
544.277
544.165
544.053
543.941
543.83
543.719
543.608
543.498
543.388
543.278
543.169
543.059
542.951
542.842
542.734
542.626
542.518
542.411
542.304
542.197
542.09
541.983
541.876
541.77
541.663
541.557
541.451
541.345
541.239
541.133
541.027
540.921
540.815
540.709
540.603
552.458
552.276
552.098
551.926
551.761
551.603
551.454
551.313
551.178
551.049
550.926
550.808
550.694
550.584
550.478
550.375
550.275
550.178
550.083
549.99
549.9
549.812
549.726
549.643
549.562
549.483
549.406
549.33
549.256
549.184
549.114
549.045
548.979
548.916
548.855
548.796
548.74
548.686
548.635
548.586
548.539
548.494
548.449
548.405
548.362
548.318
548.273
548.228
548.18
548.131
548.079
548.024
547.964
547.9
547.831
547.756
547.674
547.586
547.49
547.388
547.28
547.166
547.048
546.925
546.799
546.671
546.542
546.413
546.285
546.157
546.03
545.904
545.78
545.656
545.535
545.415
545.296
545.179
545.064
544.95
544.838
544.725
544.612
544.499
544.387
544.274
544.162
544.05
543.938
543.826
543.715
543.605
543.495
543.385
543.275
543.166
543.057
542.948
542.84
542.732
542.624
542.517
542.409
542.302
542.195
542.088
541.982
541.875
541.769
541.662
541.556
541.45
541.344
541.238
541.132
541.026
540.92
540.814
540.709
540.603
552.46
552.281
552.106
551.936
551.773
551.617
551.468
551.327
551.192
551.062
550.938
550.819
550.703
550.592
550.483
550.377
550.274
550.172
550.073
549.977
549.883
549.792
549.703
549.616
549.532
549.45
549.369
549.291
549.214
549.139
549.066
548.995
548.926
548.86
548.797
548.737
548.679
548.624
548.573
548.523
548.476
548.431
548.387
548.344
548.301
548.257
548.213
548.168
548.122
548.073
548.022
547.969
547.911
547.849
547.781
547.708
547.629
547.543
547.45
547.351
547.246
547.135
547.02
546.9
546.777
546.652
546.526
546.399
546.273
546.146
546.021
545.896
545.773
545.651
545.53
545.41
545.292
545.175
545.06
544.947
544.835
544.722
544.609
544.496
544.383
544.27
544.158
544.046
543.934
543.823
543.712
543.601
543.491
543.381
543.272
543.163
543.054
542.945
542.837
542.729
542.622
542.514
542.407
542.3
542.193
542.087
541.98
541.874
541.767
541.661
541.555
541.449
541.343
541.237
541.132
541.026
540.92
540.814
540.709
540.603
552.462
552.286
552.114
551.947
551.786
551.632
551.484
551.342
551.207
551.077
550.952
550.831
550.714
550.6
550.489
550.38
550.273
550.168
550.065
549.964
549.867
549.772
549.679
549.589
549.501
549.416
549.332
549.25
549.17
549.091
549.015
548.941
548.869
548.8
548.735
548.673
548.614
548.558
548.505
548.456
548.409
548.364
548.32
548.277
548.235
548.192
548.149
548.104
548.059
548.012
547.962
547.909
547.853
547.793
547.728
547.657
547.58
547.497
547.407
547.311
547.209
547.102
546.99
546.874
546.754
546.632
546.508
546.384
546.26
546.136
546.012
545.889
545.767
545.646
545.526
545.407
545.29
545.174
545.059
544.945
544.832
544.719
544.606
544.492
544.379
544.266
544.154
544.042
543.93
543.819
543.708
543.597
543.487
543.377
543.268
543.159
543.05
542.942
542.834
542.727
542.619
542.512
542.405
542.298
542.191
542.085
541.978
541.872
541.766
541.66
541.554
541.448
541.342
541.237
541.131
541.025
540.92
540.814
540.708
540.603
552.463
552.291
552.123
551.959
551.8
551.648
551.501
551.359
551.223
551.092
550.966
550.844
550.725
550.609
550.495
550.383
550.272
550.164
550.057
549.953
549.851
549.752
549.656
549.562
549.47
549.381
549.294
549.208
549.125
549.042
548.962
548.885
548.81
548.738
548.67
548.605
548.545
548.488
548.434
548.384
548.337
548.293
548.25
548.207
548.165
548.123
548.081
548.038
547.993
547.947
547.899
547.848
547.793
547.735
547.671
547.602
547.528
547.448
547.361
547.269
547.17
547.067
546.959
546.846
546.73
546.611
546.491
546.37
546.248
546.126
546.004
545.883
545.763
545.643
545.525
545.408
545.291
545.176
545.061
544.946
544.831
544.717
544.603
544.489
544.375
544.262
544.149
544.037
543.925
543.814
543.703
543.592
543.482
543.373
543.264
543.155
543.047
542.939
542.831
542.723
542.616
542.509
542.402
542.296
542.189
542.083
541.977
541.871
541.765
541.659
541.553
541.447
541.341
541.236
541.13
541.025
540.919
540.814
540.708
540.603
552.465
552.297
552.132
551.971
551.815
551.664
551.518
551.377
551.241
551.109
550.981
550.857
550.736
550.617
550.501
550.386
550.273
550.16
550.05
549.942
549.836
549.733
549.632
549.534
549.439
549.346
549.255
549.166
549.078
548.992
548.909
548.827
548.749
548.674
548.603
548.536
548.473
548.415
548.361
548.31
548.263
548.219
548.177
548.135
548.094
548.052
548.011
547.969
547.925
547.881
547.834
547.784
547.732
547.675
547.614
547.548
547.476
547.398
547.315
547.226
547.131
547.031
546.926
546.817
546.705
546.59
546.473
546.355
546.236
546.116
545.997
545.878
545.76
545.642
545.525
545.409
545.293
545.178
545.062
544.946
544.83
544.715
544.6
544.485
544.371
544.257
544.144
544.032
543.92
543.808
543.698
543.587
543.477
543.368
543.259
543.15
543.042
542.934
542.827
542.72
542.613
542.506
542.399
542.293
542.187
542.081
541.975
541.869
541.763
541.657
541.552
541.446
541.34
541.235
541.13
541.024
540.919
540.813
540.708
540.603
552.467
552.302
552.141
551.983
551.829
551.68
551.535
551.394
551.257
551.124
550.995
550.869
550.745
550.624
550.506
550.388
550.272
550.158
550.044
549.932
549.823
549.715
549.61
549.508
549.408
549.311
549.216
549.123
549.031
548.942
548.854
548.769
548.688
548.61
548.535
548.466
548.401
548.342
548.287
548.235
548.188
548.144
548.102
548.061
548.021
547.98
547.94
547.899
547.857
547.814
547.768
547.72
547.67
547.615
547.556
547.492
547.423
547.349
547.268
547.182
547.091
546.995
546.894
546.789
546.681
546.569
546.456
546.341
546.225
546.108
545.991
545.875
545.758
545.642
545.526
545.41
545.295
545.179
545.063
544.946
544.829
544.712
544.596
544.481
544.367
544.252
544.139
544.026
543.914
543.803
543.692
543.581
543.472
543.362
543.254
543.145
543.037
542.93
542.823
542.716
542.609
542.502
542.396
542.29
542.184
542.078
541.972
541.867
541.761
541.656
541.55
541.445
541.339
541.234
541.129
541.024
540.918
540.813
540.708
540.603
552.469
552.308
552.149
551.994
551.842
551.694
551.55
551.41
551.273
551.139
551.007
550.879
550.753
550.63
550.509
550.389
550.271
550.154
550.038
549.923
549.81
549.699
549.59
549.483
549.378
549.276
549.177
549.08
548.985
548.892
548.8
548.712
548.627
548.546
548.469
548.397
548.33
548.269
548.212
548.16
548.113
548.069
548.027
547.987
547.947
547.908
547.869
547.83
547.789
547.747
547.703
547.657
547.608
547.556
547.499
547.438
547.371
547.3
547.222
547.14
547.052
546.96
546.863
546.762
546.657
546.55
546.44
546.329
546.216
546.102
545.988
545.873
545.758
545.643
545.528
545.413
545.297
545.181
545.064
544.946
544.828
544.71
544.593
544.477
544.362
544.247
544.133
544.02
543.908
543.796
543.685
543.575
543.465
543.356
543.248
543.14
543.032
542.925
542.818
542.711
542.605
542.499
542.393
542.287
542.181
542.075
541.97
541.865
541.759
541.654
541.549
541.443
541.338
541.233
541.128
541.023
540.918
540.813
540.708
540.603
552.471
552.313
552.157
552.004
551.854
551.707
551.564
551.424
551.287
551.151
551.019
550.888
550.76
550.634
550.51
550.389
550.268
550.149
550.031
549.914
549.799
549.684
549.571
549.459
549.349
549.242
549.139
549.038
548.939
548.842
548.747
548.656
548.567
548.483
548.403
548.329
548.26
548.197
548.14
548.087
548.039
547.995
547.954
547.914
547.875
547.837
547.799
547.761
547.723
547.682
547.64
547.595
547.548
547.498
547.443
547.385
547.321
547.252
547.178
547.099
547.015
546.926
546.833
546.737
546.636
546.533
546.427
546.319
546.21
546.099
545.987
545.874
545.761
545.647
545.532
545.417
545.3
545.183
545.065
544.946
544.827
544.707
544.59
544.473
544.357
544.241
544.127
544.013
543.901
543.789
543.678
543.568
543.458
543.349
543.241
543.134
543.026
542.919
542.813
542.706
542.6
542.495
542.389
542.283
542.178
542.073
541.967
541.862
541.757
541.652
541.547
541.442
541.337
541.232
541.127
541.022
540.917
540.812
540.707
540.602
552.472
552.318
552.165
552.014
551.865
551.72
551.577
551.437
551.299
551.163
551.028
550.896
550.765
550.637
550.51
550.386
550.263
550.141
550.021
549.903
549.785
549.668
549.552
549.436
549.322
549.21
549.101
548.996
548.894
548.794
548.696
548.601
548.51
548.422
548.34
548.263
548.193
548.128
548.07
548.017
547.969
547.924
547.883
547.844
547.806
547.769
547.733
547.696
547.659
547.62
547.58
547.537
547.491
547.443
547.391
547.334
547.273
547.208
547.137
547.061
546.981
546.896
546.807
546.714
546.618
546.519
546.417
546.312
546.206
546.098
545.988
545.877
545.766
545.652
545.538
545.423
545.306
545.187
545.068
544.947
544.827
544.707
544.587
544.469
544.352
544.235
544.12
544.006
543.893
543.781
543.67
543.56
543.451
543.342
543.234
543.127
543.02
542.913
542.807
542.701
542.596
542.49
542.385
542.28
542.175
542.07
541.965
541.86
541.755
541.65
541.545
541.44
541.336
541.231
541.126
541.021
540.917
540.812
540.707
540.602
552.474
552.322
552.171
552.023
551.876
551.732
551.589
551.449
551.31
551.173
551.037
550.902
550.769
550.637
550.508
550.38
550.254
550.13
550.008
549.887
549.767
549.648
549.53
549.411
549.294
549.178
549.064
548.955
548.849
548.747
548.646
548.549
548.455
548.365
548.28
548.202
548.129
548.064
548.004
547.95
547.902
547.858
547.817
547.778
547.741
547.705
547.67
547.635
547.599
547.562
547.523
547.482
547.439
547.392
547.342
547.288
547.229
547.166
547.099
547.027
546.95
546.869
546.784
546.695
546.603
546.508
546.409
546.309
546.205
546.1
545.993
545.884
545.773
545.661
545.546
545.43
545.312
545.193
545.072
544.949
544.827
544.706
544.585
544.465
544.346
544.229
544.113
543.998
543.885
543.773
543.661
543.551
543.442
543.334
543.227
543.12
543.013
542.907
542.801
542.696
542.591
542.486
542.381
542.276
542.171
542.067
541.962
541.857
541.753
541.648
541.544
541.439
541.334
541.23
541.125
541.021
540.916
540.811
540.707
540.602
552.475
552.326
552.178
552.031
551.886
551.742
551.6
551.459
551.32
551.181
551.043
550.906
550.77
550.635
550.502
550.371
550.242
550.114
549.989
549.866
549.744
549.623
549.503
549.383
549.263
549.144
549.027
548.914
548.806
548.701
548.599
548.499
548.403
548.311
548.225
548.144
548.071
548.004
547.943
547.889
547.84
547.796
547.755
547.717
547.682
547.647
547.613
547.579
547.545
547.509
547.472
547.433
547.391
547.346
547.298
547.246
547.19
547.13
547.065
546.997
546.923
546.846
546.765
546.68
546.592
546.501
546.406
546.308
546.208
546.105
546
545.893
545.783
545.672
545.557
545.44
545.322
545.2
545.078
544.954
544.829
544.706
544.583
544.461
544.341
544.222
544.105
543.99
543.876
543.763
543.652
543.542
543.433
543.325
543.218
543.112
543.006
542.9
542.795
542.69
542.586
542.481
542.376
542.272
542.168
542.063
541.959
541.855
541.75
541.646
541.542
541.437
541.333
541.229
541.124
541.02
540.915
540.811
540.707
540.602
552.477
552.33
552.185
552.04
551.896
551.753
551.61
551.469
551.328
551.187
551.047
550.906
550.767
550.628
550.491
550.356
550.223
550.092
549.963
549.837
549.714
549.591
549.47
549.348
549.227
549.107
548.988
548.872
548.762
548.656
548.554
548.454
548.356
548.263
548.175
548.093
548.018
547.95
547.889
547.834
547.785
547.741
547.701
547.663
547.628
547.595
547.562
547.529
547.496
547.462
547.426
547.389
547.349
547.306
547.26
547.21
547.156
547.099
547.037
546.972
546.902
546.828
546.751
546.67
546.585
546.497
546.406
546.311
546.214
546.113
546.01
545.904
545.796
545.684
545.57
545.453
545.333
545.21
545.085
544.958
544.832
544.706
544.581
544.457
544.335
544.215
544.096
543.98
543.866
543.753
543.642
543.532
543.424
543.316
543.209
543.104
542.998
542.893
542.789
542.684
542.58
542.476
542.372
542.268
542.164
542.06
541.956
541.852
541.748
541.644
541.54
541.436
541.332
541.227
541.123
541.019
540.915
540.811
540.706
540.602
552.478
552.334
552.19
552.047
551.904
551.762
551.619
551.477
551.334
551.191
551.048
550.904
550.761
550.618
550.476
550.336
550.198
550.063
549.93
549.801
549.675
549.551
549.429
549.307
549.186
549.065
548.946
548.829
548.718
548.613
548.512
548.412
548.314
548.22
548.131
548.049
547.973
547.905
547.843
547.787
547.738
547.693
547.653
547.616
547.582
547.549
547.517
547.486
547.454
547.421
547.387
547.351
547.312
547.271
547.227
547.179
547.128
547.073
547.014
546.951
546.885
546.815
546.741
546.663
546.582
546.497
546.408
546.317
546.222
546.123
546.022
545.918
545.81
545.699
545.585
545.467
545.346
545.221
545.095
544.966
544.836
544.707
544.579
544.453
544.328
544.206
544.087
543.97
543.855
543.742
543.631
543.521
543.413
543.306
543.2
543.095
542.99
542.886
542.782
542.678
542.574
542.471
542.367
542.264
542.16
542.057
541.953
541.849
541.746
541.642
541.538
541.434
541.33
541.226
541.122
541.018
540.914
540.81
540.706
540.602
552.479
552.337
552.195
552.053
551.912
551.769
551.626
551.483
551.338
551.193
551.046
550.899
550.752
550.604
550.457
550.311
550.168
550.028
549.892
549.759
549.63
549.504
549.38
549.259
549.139
549.02
548.902
548.785
548.674
548.57
548.471
548.374
548.277
548.183
548.095
548.013
547.937
547.868
547.805
547.749
547.699
547.653
547.613
547.576
547.542
547.51
547.479
547.448
547.417
547.386
547.353
547.318
547.281
547.242
547.199
547.153
547.104
547.052
546.995
546.935
546.872
546.804
546.733
546.658
546.58
546.498
546.412
546.323
546.23
546.134
546.034
545.931
545.824
545.714
545.599
545.481
545.359
545.233
545.105
544.973
544.841
544.708
544.576
544.447
544.321
544.197
544.076
543.958
543.842
543.729
543.618
543.509
543.401
543.295
543.19
543.085
542.981
542.878
542.775
542.671
542.568
542.465
542.362
542.259
542.156
542.053
541.95
541.847
541.743
541.64
541.536
541.433
541.329
541.225
541.121
541.018
540.914
540.81
540.706
540.602
552.48
552.34
552.2
552.059
551.918
551.775
551.632
551.487
551.341
551.193
551.044
550.893
550.741
550.589
550.436
550.285
550.136
549.991
549.85
549.713
549.58
549.452
549.327
549.207
549.089
548.973
548.856
548.741
548.631
548.529
548.433
548.339
548.244
548.153
548.067
547.986
547.91
547.84
547.777
547.72
547.668
547.622
547.58
547.543
547.509
547.476
547.446
547.416
547.386
547.355
547.323
547.29
547.254
547.216
547.175
547.131
547.084
547.033
546.979
546.921
546.859
546.794
546.726
546.653
546.577
546.497
546.413
546.327
546.236
546.142
546.044
545.942
545.837
545.727
545.613
545.494
545.371
545.244
545.114
544.98
544.844
544.707
544.572
544.44
544.311
544.185
544.063
543.944
543.828
543.715
543.604
543.496
543.389
543.284
543.179
543.075
542.972
542.87
542.767
542.665
542.562
542.46
542.358
542.255
542.152
542.05
541.947
541.844
541.741
541.638
541.534
541.431
541.328
541.224
541.12
541.017
540.913
540.809
540.706
540.602
552.481
552.343
552.204
552.064
551.923
551.78
551.636
551.49
551.341
551.191
551.038
550.884
550.729
550.573
550.416
550.26
550.106
549.955
549.808
549.667
549.53
549.4
549.273
549.153
549.038
548.924
548.811
548.698
548.591
548.492
548.399
548.309
548.219
548.131
548.048
547.968
547.893
547.823
547.759
547.7
547.646
547.598
547.555
547.516
547.481
547.448
547.417
547.387
547.357
547.327
547.296
547.263
547.229
547.192
547.152
547.11
547.064
547.014
546.961
546.905
546.845
546.781
546.714
546.643
546.569
546.491
546.409
546.324
546.236
546.144
546.048
545.948
545.843
545.734
545.621
545.503
545.38
545.252
545.12
544.984
544.845
544.705
544.566
544.431
544.299
544.171
544.048
543.928
543.812
543.699
543.589
543.481
543.376
543.271
543.168
543.065
542.963
542.861
542.759
542.658
542.556
542.455
542.353
542.251
542.149
542.046
541.944
541.841
541.738
541.636
541.533
541.429
541.326
541.223
541.119
541.016
540.913
540.809
540.705
540.602
552.482
552.345
552.207
552.067
551.926
551.784
551.638
551.491
551.34
551.187
551.032
550.875
550.717
550.558
550.398
550.238
550.08
549.924
549.772
549.625
549.485
549.352
549.224
549.104
548.989
548.879
548.769
548.661
548.558
548.463
548.373
548.287
548.202
548.119
548.038
547.96
547.886
547.816
547.75
547.688
547.632
547.581
547.536
547.495
547.457
547.423
547.39
547.359
547.329
547.299
547.267
547.235
547.202
547.166
547.127
547.085
547.039
546.99
546.937
546.881
546.822
546.759
546.692
546.622
546.549
546.473
546.393
546.311
546.225
546.135
546.041
545.943
545.841
545.734
545.622
545.505
545.383
545.255
545.122
544.984
544.843
544.7
544.557
544.419
544.284
544.154
544.029
543.909
543.793
543.681
543.572
543.466
543.361
543.258
543.156
543.054
542.953
542.853
542.752
542.651
542.55
542.449
542.348
542.247
542.145
542.043
541.941
541.839
541.736
541.634
541.531
541.428
541.325
541.222
541.119
541.015
540.912
540.809
540.705
540.602
552.482
552.346
552.209
552.07
551.929
551.785
551.639
551.491
551.339
551.185
551.028
550.869
550.708
550.547
550.386
550.224
550.063
549.903
549.747
549.595
549.451
549.314
549.185
549.064
548.95
548.842
548.737
548.635
548.538
548.447
548.361
548.278
548.197
548.117
548.039
547.963
547.889
547.817
547.749
547.684
547.625
547.57
547.521
547.476
547.436
547.398
547.363
547.33
547.298
547.266
547.234
547.202
547.168
547.132
547.093
547.051
547.004
546.954
546.9
546.843
546.783
546.72
546.653
546.583
546.511
546.436
546.358
546.278
546.195
546.108
546.018
545.923
545.825
545.72
545.611
545.496
545.376
545.25
545.117
544.98
544.838
544.692
544.544
544.402
544.265
544.133
544.007
543.887
543.772
543.661
543.553
543.448
543.345
543.244
543.143
543.043
542.943
542.844
542.744
542.644
542.544
542.444
542.343
542.242
542.141
542.04
541.938
541.836
541.734
541.632
541.529
541.427
541.324
541.221
541.118
541.015
540.911
540.808
540.705
540.602
552.483
552.347
552.21
552.071
551.93
551.786
551.641
551.492
551.341
551.186
551.028
550.869
550.709
550.549
550.388
550.226
550.063
549.9
549.741
549.586
549.436
549.296
549.165
549.043
548.929
548.822
548.721
548.626
548.535
548.449
548.367
548.288
548.211
548.133
548.057
547.98
547.904
547.829
547.757
547.688
547.623
547.563
547.509
547.459
547.413
547.371
547.332
547.295
547.26
547.225
547.191
547.157
547.123
547.086
547.046
547.001
546.952
546.899
546.841
546.781
546.718
546.653
546.586
546.516
546.444
546.371
546.297
546.22
546.14
546.058
545.972
545.884
545.792
545.693
545.588
545.476
545.359
545.235
545.105
544.97
544.828
544.68
544.528
544.381
544.24
544.106
543.98
543.86
543.747
543.638
543.532
543.43
543.329
543.229
543.13
543.032
542.934
542.835
542.737
542.638
542.538
542.439
542.339
542.239
542.138
542.037
541.936
541.834
541.732
541.63
541.528
541.425
541.323
541.22
541.117
541.014
540.911
540.808
540.705
540.602
552.483
552.348
552.21
552.071
551.931
551.789
551.645
551.499
551.349
551.197
551.043
550.888
550.732
550.576
550.419
550.258
550.094
549.93
549.77
549.61
549.454
549.309
549.176
549.052
548.938
548.832
548.735
548.646
548.561
548.481
548.404
548.333
548.259
548.18
548.102
548.022
547.94
547.858
547.782
547.706
547.632
547.566
547.504
547.447
547.393
547.344
547.299
547.256
547.216
547.177
547.138
547.103
547.067
547.027
546.983
546.933
546.877
546.82
546.753
546.688
546.622
546.553
546.482
546.412
546.341
546.272
546.204
546.13
546.051
545.98
545.902
545.826
545.742
545.656
545.557
545.448
545.333
545.211
545.086
544.953
544.815
544.668
544.513
544.357
544.209
544.072
543.946
543.828
543.718
543.612
543.509
543.409
543.311
543.214
543.117
543.021
542.924
542.827
542.729
542.631
542.533
542.434
542.335
542.235
542.135
542.034
541.933
541.832
541.73
541.628
541.526
541.424
541.322
541.219
541.116
541.013
540.911
540.808
540.705
540.602
552.482
552.345
552.208
552.071
551.934
551.797
551.658
551.517
551.374
551.229
551.082
550.935
550.789
550.644
550.494
550.336
550.173
550.012
549.854
549.689
549.526
549.375
549.238
549.114
549.002
548.897
548.805
548.719
548.636
548.562
548.489
548.436
548.365
548.278
548.198
548.111
548.014
547.92
547.842
547.755
547.662
547.593
547.516
547.446
547.378
547.32
547.267
547.214
547.167
547.12
547.078
547.043
547.002
546.957
546.904
546.848
546.775
546.719
546.627
546.561
546.49
546.416
546.335
546.269
546.199
546.135
546.079
546.005
545.913
545.876
545.813
545.749
545.658
545.607
545.52
545.423
545.311
545.195
545.073
544.942
544.808
544.659
544.498
544.323
544.164
544.029
543.904
543.791
543.684
543.583
543.484
543.388
543.293
543.199
543.104
543.01
542.915
542.819
542.723
542.626
542.528
542.43
542.331
542.232
542.132
542.032
541.931
541.83
541.729
541.627
541.525
541.423
541.321
541.218
541.116
541.013
540.91
540.807
540.704
540.601
552.48
552.341
552.205
552.073
551.944
551.816
551.688
551.558
551.427
551.294
551.161
551.028
550.898
550.77
550.632
550.482
550.323
550.17
550.019
549.858
549.688
549.526
549.383
549.259
549.16
549.058
548.973
548.882
548.784
548.709
548.614
548.52
548.418
548.313
548.206
548.103
547.995
547.897
547.813
547.716
547.628
547.549
547.471
547.391
547.328
547.257
547.193
547.134
547.089
547.052
547.013
546.986
546.94
546.889
546.822
546.761
546.695
546.627
546.535
546.436
546.347
546.251
546.178
546.086
546.026
545.935
545.856
545.802
545.757
545.733
545.674
545.616
545.518
545.464
545.396
545.385
545.316
545.232
545.074
544.893
544.768
544.616
544.478
544.228
544.096
543.975
543.853
543.746
543.646
543.551
543.458
543.366
543.275
543.184
543.092
542.999
542.906
542.812
542.716
542.62
542.524
542.426
542.328
542.229
542.129
542.029
541.929
541.828
541.727
541.626
541.524
541.422
541.32
541.218
541.115
541.013
540.91
540.807
540.704
540.601
552.478
552.338
552.206
552.083
551.968
551.857
551.747
551.637
551.527
551.416
551.305
551.191
551.08
550.974
550.86
550.735
550.59
550.451
550.31
550.167
550.001
549.809
549.646
549.501
549.374
549.255
549.151
549.042
548.919
548.816
548.686
548.55
548.415
548.299
548.178
548.06
547.95
547.85
547.752
547.634
547.549
547.454
547.369
547.303
547.257
547.199
547.142
547.084
547.042
546.996
546.987
546.98
546.937
546.877
546.783
546.685
546.58
546.476
546.367
546.27
546.179
546.127
546.082
545.982
545.897
545.848
545.818
545.813
545.791
545.758
545.712
545.639
545.565
545.497
545.436
545.364
545.264
545.153
545.022
544.88
544.751
544.616
544.479
544.188
544.049
543.893
543.787
543.694
543.605
543.518
543.431
543.344
543.257
543.169
543.08
542.99
542.898
542.805
542.711
542.616
542.52
542.423
542.325
542.226
542.127
542.028
541.927
541.827
541.726
541.625
541.523
541.421
541.319
541.217
541.115
541.012
540.91
540.807
540.704
540.601
552.477
552.337
552.212
552.106
552.014
551.929
551.854
551.782
551.709
551.636
551.566
551.478
551.374
551.292
551.221
551.154
551.039
550.89
550.733
550.542
550.351
550.13
549.964
549.784
549.634
549.483
549.338
549.207
549.045
548.916
548.747
548.557
548.384
548.251
548.117
547.995
547.89
547.819
547.718
547.581
547.49
547.388
547.295
547.263
547.25
547.168
547.072
546.964
546.906
546.92
546.963
547.003
546.963
546.854
546.727
546.601
546.512
546.498
546.408
546.329
546.256
546.236
546.156
546.069
545.989
545.91
545.866
545.833
545.785
545.746
545.692
545.626
545.555
545.48
545.399
545.302
545.186
545.065
544.954
544.837
544.726
544.599
544.396
544.062
543.961
543.831
543.717
543.637
543.563
543.486
543.405
543.322
543.24
543.156
543.07
542.982
542.892
542.8
542.707
542.612
542.517
542.42
542.323
542.224
542.126
542.026
541.926
541.826
541.725
541.624
541.522
541.421
541.319
541.217
541.114
541.012
540.909
540.807
540.704
540.601
552.474
552.335
552.224
552.147
552.088
552.05
552.049
552.052
552.047
552.032
552.031
551.992
551.848
551.768
551.725
551.671
551.547
551.35
551.138
550.98
550.771
550.545
550.316
550.121
549.957
549.803
549.638
549.474
549.266
549.078
548.846
548.565
548.344
548.203
548.077
548.02
547.947
547.956
547.82
547.563
547.414
547.34
547.25
547.25
547.22
547.182
547.137
546.986
546.954
546.956
547.024
547.08
547.042
546.922
546.823
546.708
546.627
546.575
546.485
546.405
546.322
546.261
546.188
546.109
546.028
545.955
545.89
545.832
545.771
545.711
545.642
545.57
545.495
545.412
545.321
545.22
545.111
545.004
544.903
544.8
544.689
544.501
544.28
544.027
543.867
543.753
543.673
543.585
543.525
543.459
543.38
543.301
543.225
543.146
543.062
542.976
542.887
542.796
542.704
542.61
542.515
542.418
542.321
542.223
542.125
542.025
541.925
541.825
541.724
541.623
541.522
541.42
541.318
541.216
541.114
541.012
540.909