0 	1.81478e-20 	0 	-2.90365e-20
0.010101 	3.73927e-20 	2.03105e-22 	-8.7246e-20
0.020202 	3.37796e-20 	-2.36558e-22 	-8.30451e-20
0.030303 	-8.57282e-20 	-3.36237e-23 	-1.0993e-19
0.040404 	3.97949e-20 	2.36729e-22 	-3.39042e-20
0.0505051 	-2.98279e-20 	-1.70325e-25 	6.36082e-20
