/*--------------------------------*- C++ -*----------------------------------*\
  =========                 |
  \\      /  F ield         | OpenFOAM: The Open Source CFD Toolbox
   \\    /   O peration     | Website:  https://openfoam.org
    \\  /    A nd           | Version:  6
     \\/     M anipulation  |
\*---------------------------------------------------------------------------*/
FoamFile
{
    version     2.0;
    format      ascii;
    class       volScalarField;
    location    "100";
    object      T;
}
// * * * * * * * * * * * * * * * * * * * * * * * * * * * * * * * * * * * * * //

dimensions      [0 0 0 1 0 0 0];

internalField   nonuniform List<scalar> 
4800
(
552.543
552.528
552.513
552.498
552.483
552.467
552.45
552.433
552.415
552.397
552.377
552.355
552.331
552.305
552.276
552.242
552.203
552.159
552.109
552.054
551.993
551.928
551.859
551.788
551.715
551.639
551.562
551.483
551.403
551.32
551.236
551.15
551.063
550.973
550.882
550.789
550.694
550.597
550.499
550.399
550.296
550.192
550.086
549.978
549.868
549.756
549.642
549.526
549.408
549.288
549.166
549.042
548.916
548.788
548.659
548.528
548.395
548.26
548.124
547.987
547.848
547.708
547.567
547.424
547.281
547.137
546.992
546.847
546.701
546.555
546.409
546.263
546.117
545.971
545.826
545.682
545.539
545.396
545.255
545.116
544.977
544.841
544.705
544.572
544.44
544.309
544.18
544.053
543.927
543.803
543.681
543.56
543.44
543.322
543.205
543.09
542.976
542.864
542.752
542.642
542.533
542.424
542.317
542.211
542.106
542.002
541.898
541.795
541.693
541.591
541.491
541.39
541.29
541.191
541.091
540.993
540.894
540.796
540.697
540.599
552.542
552.527
552.511
552.496
552.479
552.463
552.446
552.428
552.41
552.391
552.371
552.349
552.325
552.298
552.269
552.235
552.196
552.152
552.103
552.048
551.988
551.923
551.855
551.784
551.712
551.637
551.56
551.481
551.401
551.319
551.235
551.149
551.062
550.973
550.881
550.789
550.694
550.597
550.499
550.398
550.296
550.192
550.086
549.978
549.868
549.756
549.642
549.526
549.408
549.288
549.166
549.042
548.916
548.789
548.659
548.528
548.395
548.261
548.125
547.987
547.848
547.708
547.567
547.425
547.281
547.137
546.992
546.847
546.701
546.555
546.409
546.263
546.117
545.971
545.826
545.682
545.539
545.396
545.255
545.116
544.977
544.841
544.705
544.572
544.44
544.309
544.18
544.053
543.927
543.803
543.681
543.56
543.44
543.322
543.205
543.09
542.976
542.864
542.752
542.642
542.533
542.424
542.317
542.211
542.106
542.002
541.898
541.795
541.693
541.591
541.491
541.39
541.29
541.191
541.091
540.993
540.894
540.796
540.697
540.599
552.542
552.525
552.508
552.491
552.473
552.456
552.438
552.419
552.4
552.38
552.359
552.337
552.312
552.285
552.256
552.222
552.183
552.14
552.091
552.037
551.977
551.914
551.847
551.778
551.706
551.632
551.556
551.478
551.398
551.316
551.233
551.148
551.06
550.971
550.88
550.788
550.693
550.597
550.498
550.398
550.296
550.192
550.086
549.978
549.868
549.756
549.642
549.526
549.408
549.288
549.166
549.042
548.917
548.789
548.66
548.528
548.396
548.261
548.125
547.988
547.849
547.709
547.568
547.425
547.282
547.138
546.993
546.848
546.702
546.556
546.409
546.263
546.117
545.972
545.827
545.683
545.539
545.397
545.256
545.116
544.978
544.841
544.705
544.572
544.44
544.309
544.18
544.053
543.927
543.803
543.681
543.56
543.44
543.322
543.206
543.09
542.976
542.864
542.752
542.642
542.533
542.424
542.317
542.211
542.106
542.002
541.898
541.795
541.693
541.592
541.491
541.39
541.29
541.191
541.091
540.993
540.894
540.796
540.697
540.599
552.541
552.522
552.503
552.484
552.465
552.446
552.427
552.407
552.387
552.366
552.344
552.32
552.295
552.268
552.237
552.203
552.165
552.122
552.074
552.021
551.963
551.901
551.836
551.768
551.697
551.625
551.55
551.473
551.394
551.313
551.23
551.145
551.058
550.969
550.879
550.786
550.692
550.596
550.498
550.398
550.296
550.192
550.086
549.978
549.869
549.757
549.643
549.527
549.409
549.289
549.167
549.043
548.917
548.79
548.66
548.529
548.396
548.262
548.126
547.989
547.85
547.71
547.569
547.426
547.283
547.139
546.994
546.849
546.703
546.557
546.41
546.264
546.118
545.973
545.827
545.683
545.54
545.397
545.256
545.116
544.978
544.841
544.706
544.572
544.44
544.309
544.18
544.053
543.927
543.803
543.681
543.56
543.44
543.322
543.206
543.09
542.976
542.864
542.752
542.642
542.533
542.425
542.317
542.211
542.106
542.002
541.898
541.795
541.693
541.592
541.491
541.39
541.29
541.191
541.092
540.993
540.894
540.796
540.697
540.599
552.539
552.518
552.497
552.476
552.455
552.434
552.413
552.392
552.37
552.348
552.324
552.3
552.274
552.246
552.215
552.181
552.143
552.101
552.054
552.002
551.946
551.886
551.822
551.756
551.687
551.616
551.542
551.466
551.388
551.308
551.226
551.141
551.055
550.967
550.876
550.784
550.69
550.594
550.497
550.397
550.295
550.192
550.086
549.979
549.869
549.757
549.643
549.528
549.41
549.29
549.168
549.044
548.918
548.791
548.661
548.53
548.397
548.263
548.127
547.99
547.851
547.711
547.57
547.427
547.284
547.14
546.995
546.85
546.704
546.558
546.411
546.265
546.119
545.973
545.828
545.684
545.54
545.398
545.257
545.117
544.978
544.841
544.706
544.572
544.44
544.309
544.181
544.053
543.928
543.803
543.681
543.56
543.44
543.322
543.206
543.09
542.976
542.864
542.752
542.642
542.533
542.425
542.318
542.211
542.106
542.002
541.898
541.795
541.693
541.592
541.491
541.39
541.29
541.191
541.092
540.993
540.894
540.796
540.697
540.599
552.538
552.515
552.491
552.468
552.445
552.421
552.398
552.375
552.352
552.328
552.303
552.278
552.25
552.222
552.19
552.157
552.119
552.077
552.031
551.98
551.926
551.868
551.807
551.743
551.676
551.606
551.534
551.459
551.382
551.303
551.221
551.137
551.052
550.964
550.874
550.782
550.689
550.593
550.496
550.396
550.295
550.192
550.086
549.979
549.87
549.758
549.644
549.528
549.41
549.291
549.169
549.045
548.919
548.792
548.662
548.531
548.399
548.264
548.128
547.991
547.852
547.712
547.571
547.429
547.286
547.141
546.997
546.851
546.705
546.559
546.413
546.266
546.12
545.974
545.829
545.685
545.541
545.398
545.257
545.117
544.979
544.842
544.706
544.572
544.44
544.31
544.181
544.053
543.928
543.803
543.681
543.56
543.44
543.322
543.206
543.09
542.976
542.864
542.752
542.642
542.533
542.425
542.318
542.212
542.106
542.002
541.898
541.795
541.693
541.592
541.491
541.39
541.29
541.191
541.092
540.993
540.894
540.796
540.697
540.599
552.537
552.511
552.485
552.459
552.433
552.408
552.383
552.358
552.333
552.307
552.281
552.255
552.227
552.197
552.165
552.13
552.093
552.052
552.007
551.958
551.906
551.85
551.791
551.729
551.663
551.595
551.524
551.451
551.375
551.297
551.216
551.133
551.048
550.961
550.871
550.78
550.687
550.592
550.495
550.396
550.295
550.192
550.087
549.98
549.87
549.759
549.645
549.529
549.411
549.292
549.17
549.046
548.92
548.793
548.664
548.533
548.4
548.266
548.13
547.992
547.854
547.714
547.573
547.43
547.287
547.143
546.998
546.853
546.707
546.56
546.414
546.268
546.121
545.976
545.83
545.686
545.542
545.399
545.258
545.117
544.979
544.842
544.706
544.572
544.44
544.309
544.181
544.053
543.928
543.803
543.681
543.56
543.44
543.322
543.206
543.09
542.977
542.864
542.752
542.642
542.533
542.425
542.318
542.212
542.106
542.002
541.898
541.796
541.693
541.592
541.491
541.39
541.29
541.191
541.092
540.993
540.894
540.796
540.697
540.599
552.536
552.507
552.479
552.45
552.423
552.395
552.368
552.341
552.314
552.287
552.259
552.231
552.202
552.172
552.139
552.105
552.067
552.027
551.983
551.936
551.886
551.832
551.774
551.714
551.65
551.584
551.514
551.442
551.368
551.29
551.21
551.128
551.044
550.957
550.868
550.778
550.685
550.59
550.494
550.395
550.295
550.192
550.087
549.98
549.871
549.76
549.646
549.53
549.413
549.293
549.171
549.047
548.922
548.794
548.665
548.534
548.401
548.267
548.131
547.994
547.855
547.715
547.574
547.432
547.289
547.145
547
546.854
546.708
546.562
546.416
546.269
546.123
545.977
545.831
545.687
545.543
545.4
545.258
545.118
544.979
544.842
544.706
544.572
544.44
544.309
544.18
544.053
543.927
543.803
543.681
543.56
543.44
543.322
543.206
543.09
542.977
542.864
542.752
542.642
542.533
542.425
542.318
542.212
542.107
542.002
541.899
541.796
541.694
541.592
541.491
541.391
541.291
541.191
541.092
540.993
540.894
540.796
540.697
540.599
552.534
552.504
552.473
552.442
552.412
552.383
552.353
552.324
552.296
552.267
552.238
552.209
552.179
552.148
552.115
552.081
552.043
552.004
551.961
551.915
551.866
551.814
551.758
551.699
551.637
551.572
551.504
551.434
551.36
551.284
551.205
551.123
551.04
550.954
550.865
550.775
550.683
550.589
550.493
550.395
550.295
550.192
550.088
549.981
549.872
549.761
549.647
549.531
549.414
549.294
549.172
549.048
548.923
548.795
548.666
548.535
548.403
548.268
548.133
547.996
547.857
547.717
547.576
547.434
547.291
547.147
547.002
546.856
546.71
546.564
546.417
546.271
546.124
545.978
545.832
545.687
545.543
545.4
545.258
545.118
544.979
544.842
544.706
544.572
544.44
544.309
544.18
544.053
543.927
543.803
543.68
543.56
543.44
543.322
543.206
543.09
542.977
542.864
542.753
542.642
542.533
542.425
542.318
542.212
542.107
542.002
541.899
541.796
541.694
541.592
541.491
541.391
541.291
541.191
541.092
540.993
540.894
540.796
540.697
540.599
552.533
552.5
552.468
552.435
552.403
552.371
552.34
552.309
552.279
552.249
552.219
552.189
552.158
552.126
552.093
552.058
552.022
551.982
551.94
551.896
551.848
551.797
551.742
551.685
551.625
551.561
551.495
551.425
551.353
551.277
551.199
551.119
551.035
550.95
550.863
550.773
550.681
550.588
550.492
550.395
550.295
550.193
550.088
549.982
549.873
549.762
549.648
549.532
549.415
549.295
549.173
549.05
548.924
548.797
548.667
548.537
548.404
548.27
548.134
547.997
547.859
547.719
547.578
547.436
547.292
547.148
547.003
546.858
546.712
546.565
546.419
546.272
546.125
545.979
545.833
545.688
545.544
545.401
545.259
545.118
544.979
544.842
544.706
544.572
544.439
544.309
544.18
544.052
543.927
543.803
543.68
543.559
543.44
543.322
543.205
543.09
542.976
542.864
542.753
542.642
542.533
542.425
542.318
542.212
542.107
542.002
541.899
541.796
541.694
541.592
541.491
541.391
541.291
541.191
541.092
540.993
540.894
540.796
540.697
540.599
552.533
552.498
552.463
552.429
552.395
552.361
552.329
552.296
552.264
552.233
552.202
552.171
552.139
552.107
552.073
552.038
552.002
551.963
551.921
551.877
551.83
551.78
551.727
551.671
551.612
551.55
551.485
551.417
551.346
551.271
551.194
551.114
551.032
550.947
550.86
550.771
550.68
550.587
550.492
550.395
550.295
550.194
550.089
549.983
549.874
549.763
549.649
549.533
549.416
549.296
549.174
549.05
548.925
548.798
548.668
548.538
548.405
548.271
548.135
547.998
547.86
547.72
547.579
547.437
547.294
547.15
547.005
546.859
546.713
546.567
546.42
546.273
546.127
545.98
545.834
545.689
545.544
545.401
545.258
545.118
544.978
544.841
544.705
544.571
544.438
544.308
544.179
544.051
543.926
543.802
543.679
543.559
543.439
543.322
543.205
543.09
542.976
542.864
542.752
542.642
542.533
542.425
542.318
542.212
542.107
542.003
541.899
541.796
541.694
541.592
541.491
541.391
541.291
541.191
541.092
540.993
540.894
540.796
540.697
540.599
552.532
552.496
552.46
552.424
552.389
552.354
552.319
552.285
552.252
552.219
552.187
552.155
552.123
552.09
552.056
552.02
551.984
551.945
551.904
551.86
551.814
551.765
551.713
551.658
551.6
551.54
551.476
551.409
551.339
551.266
551.189
551.11
551.028
550.944
550.858
550.77
550.679
550.587
550.492
550.395
550.296
550.194
550.09
549.984
549.875
549.763
549.65
549.534
549.416
549.297
549.175
549.051
548.926
548.798
548.669
548.538
548.406
548.272
548.137
548
547.861
547.721
547.581
547.439
547.295
547.151
547.007
546.861
546.715
546.568
546.421
546.274
546.127
545.981
545.834
545.689
545.544
545.4
545.258
545.117
544.978
544.84
544.704
544.57
544.437
544.306
544.177
544.05
543.925
543.801
543.679
543.558
543.439
543.321
543.205
543.09
542.976
542.864
542.752
542.642
542.533
542.425
542.318
542.212
542.107
542.003
541.899
541.796
541.694
541.592
541.491
541.391
541.291
541.191
541.092
540.993
540.894
540.796
540.697
540.599
552.531
552.494
552.457
552.42
552.383
552.347
552.311
552.276
552.242
552.208
552.175
552.142
552.108
552.075
552.04
552.004
551.967
551.928
551.887
551.844
551.798
551.75
551.699
551.646
551.589
551.53
551.467
551.401
551.332
551.26
551.185
551.107
551.026
550.942
550.857
550.769
550.679
550.587
550.493
550.396
550.297
550.195
550.091
549.985
549.875
549.764
549.65
549.534
549.417
549.297
549.175
549.051
548.926
548.799
548.67
548.539
548.407
548.273
548.137
548
547.862
547.722
547.582
547.44
547.297
547.153
547.008
546.862
546.716
546.569
546.422
546.275
546.128
545.981
545.835
545.689
545.544
545.4
545.257
545.116
544.976
544.838
544.702
544.568
544.435
544.305
544.176
544.049
543.923
543.8
543.677
543.557
543.438
543.32
543.204
543.089
542.976
542.863
542.752
542.642
542.533
542.425
542.318
542.212
542.107
542.003
541.899
541.796
541.694
541.593
541.492
541.391
541.291
541.191
541.092
540.993
540.894
540.796
540.697
540.599
552.531
552.493
552.455
552.416
552.379
552.341
552.304
552.268
552.233
552.198
552.164
552.13
552.096
552.061
552.026
551.99
551.952
551.913
551.872
551.829
551.784
551.736
551.686
551.634
551.578
551.52
551.459
551.394
551.327
551.256
551.182
551.104
551.024
550.942
550.857
550.769
550.68
550.588
550.494
550.397
550.298
550.196
550.092
549.985
549.876
549.764
549.65
549.534
549.416
549.297
549.175
549.051
548.926
548.798
548.669
548.539
548.407
548.273
548.137
548.001
547.862
547.723
547.582
547.44
547.297
547.153
547.009
546.863
546.717
546.57
546.423
546.276
546.128
545.981
545.834
545.688
545.543
545.398
545.255
545.114
544.974
544.836
544.7
544.565
544.433
544.302
544.174
544.047
543.921
543.798
543.676
543.556
543.437
543.319
543.203
543.089
542.975
542.863
542.752
542.642
542.533
542.425
542.318
542.212
542.107
542.003
541.899
541.796
541.694
541.593
541.492
541.391
541.291
541.192
541.092
540.993
540.894
540.796
540.698
540.599
552.531
552.492
552.453
552.414
552.375
552.337
552.299
552.262
552.226
552.19
552.155
552.12
552.085
552.049
552.013
551.977
551.939
551.899
551.858
551.815
551.77
551.723
551.674
551.622
551.567
551.51
551.45
551.387
551.321
551.251
551.178
551.102
551.024
550.942
550.858
550.771
550.681
550.59
550.496
550.399
550.299
550.197
550.092
549.985
549.875
549.763
549.649
549.533
549.415
549.295
549.174
549.05
548.925
548.798
548.669
548.538
548.406
548.272
548.137
548
547.862
547.723
547.582
547.44
547.298
547.154
547.009
546.863
546.717
546.57
546.423
546.275
546.128
545.98
545.833
545.687
545.541
545.396
545.253
545.111
544.971
544.833
544.697
544.562
544.43
544.299
544.171
544.044
543.919
543.796
543.674
543.554
543.435
543.318
543.202
543.088
542.974
542.862
542.751
542.642
542.533
542.425
542.318
542.212
542.107
542.003
541.899
541.797
541.694
541.593
541.492
541.391
541.291
541.192
541.092
540.993
540.895
540.796
540.698
540.599
552.53
552.491
552.451
552.412
552.372
552.333
552.295
552.257
552.22
552.183
552.147
552.111
552.075
552.039
552.002
551.964
551.926
551.886
551.845
551.802
551.757
551.71
551.661
551.61
551.556
551.5
551.441
551.379
551.314
551.246
551.175
551.101
551.023
550.943
550.859
550.773
550.684
550.592
550.497
550.4
550.3
550.197
550.091
549.983
549.873
549.761
549.647
549.531
549.413
549.293
549.172
549.048
548.923
548.796
548.667
548.536
548.404
548.271
548.136
547.999
547.861
547.722
547.582
547.44
547.297
547.153
547.009
546.863
546.717
546.57
546.423
546.275
546.127
545.979
545.832
545.685
545.539
545.393
545.25
545.107
544.967
544.829
544.692
544.558
544.426
544.296
544.167
544.041
543.916
543.793
543.672
543.552
543.434
543.317
543.201
543.087
542.974
542.862
542.751
542.641
542.533
542.425
542.318
542.212
542.107
542.003
541.899
541.797
541.695
541.593
541.492
541.391
541.291
541.192
541.092
540.993
540.895
540.796
540.698
540.599
552.53
552.49
552.45
552.41
552.37
552.331
552.292
552.253
552.215
552.178
552.14
552.103
552.066
552.029
551.992
551.953
551.914
551.874
551.832
551.789
551.744
551.697
551.648
551.598
551.544
551.489
551.431
551.37
551.307
551.24
551.171
551.098
551.022
550.942
550.86
550.774
550.685
550.592
550.497
550.399
550.298
550.194
550.088
549.98
549.87
549.757
549.643
549.527
549.41
549.29
549.168
549.045
548.92
548.793
548.664
548.534
548.402
548.269
548.134
547.997
547.859
547.72
547.58
547.439
547.296
547.153
547.008
546.862
546.716
546.569
546.422
546.274
546.125
545.977
545.829
545.682
545.535
545.39
545.245
545.103
544.962
544.823
544.687
544.553
544.421
544.291
544.163
544.037
543.913
543.79
543.669
543.55
543.432
543.315
543.2
543.086
542.973
542.861
542.75
542.641
542.532
542.425
542.318
542.212
542.107
542.003
541.9
541.797
541.695
541.593
541.492
541.392
541.291
541.192
541.092
540.993
540.895
540.796
540.698
540.599
552.53
552.489
552.449
552.409
552.369
552.329
552.289
552.25
552.211
552.173
552.135
552.097
552.059
552.021
551.982
551.943
551.903
551.862
551.819
551.776
551.73
551.683
551.635
551.584
551.532
551.477
551.419
551.36
551.297
551.232
551.164
551.093
551.018
550.939
550.857
550.772
550.683
550.59
550.494
550.396
550.294
550.189
550.083
549.975
549.864
549.752
549.638
549.522
549.404
549.285
549.163
549.04
548.915
548.789
548.66
548.53
548.398
548.265
548.13
547.994
547.857
547.718
547.578
547.437
547.294
547.151
547.006
546.861
546.715
546.568
546.42
546.272
546.123
545.974
545.826
545.678
545.53
545.384
545.239
545.096
544.955
544.817
544.68
544.547
544.415
544.285
544.158
544.032
543.909
543.786
543.666
543.547
543.429
543.313
543.198
543.084
542.972
542.86
542.75
542.64
542.532
542.424
542.318
542.212
542.107
542.003
541.9
541.797
541.695
541.593
541.492
541.392
541.292
541.192
541.093
540.994
540.895
540.796
540.698
540.599
552.53
552.489
552.448
552.408
552.367
552.327
552.287
552.247
552.208
552.168
552.13
552.091
552.052
552.013
551.973
551.933
551.892
551.85
551.807
551.762
551.716
551.669
551.62
551.569
551.517
551.462
551.406
551.347
551.285
551.221
551.154
551.084
551.01
550.933
550.851
550.766
550.677
550.584
550.488
550.388
550.286
550.182
550.075
549.967
549.856
549.744
549.63
549.515
549.397
549.278
549.157
549.034
548.909
548.783
548.655
548.525
548.393
548.26
548.126
547.99
547.853
547.714
547.575
547.434
547.291
547.148
547.004
546.859
546.712
546.565
546.417
546.268
546.119
545.97
545.821
545.672
545.524
545.377
545.232
545.088
544.947
544.808
544.672
544.539
544.408
544.279
544.152
544.027
543.904
543.782
543.662
543.544
543.427
543.311
543.196
543.083
542.97
542.859
542.749
542.64
542.531
542.424
542.317
542.212
542.107
542.003
541.9
541.797
541.695
541.593
541.492
541.392
541.292
541.192
541.093
540.994
540.895
540.796
540.698
540.599
552.53
552.489
552.448
552.407
552.366
552.326
552.285
552.245
552.205
552.165
552.126
552.086
552.046
552.006
551.965
551.924
551.881
551.838
551.794
551.748
551.701
551.653
551.604
551.553
551.5
551.445
551.389
551.33
551.269
551.206
551.14
551.071
550.998
550.921
550.84
550.755
550.666
550.573
550.477
550.377
550.275
550.171
550.064
549.956
549.846
549.734
549.621
549.505
549.388
549.269
549.148
549.026
548.901
548.775
548.647
548.518
548.387
548.254
548.12
547.984
547.847
547.709
547.57
547.429
547.287
547.144
547
546.855
546.708
546.561
546.413
546.264
546.114
545.964
545.814
545.665
545.516
545.368
545.222
545.078
544.936
544.798
544.662
544.529
544.399
544.271
544.145
544.021
543.898
543.777
543.658
543.54
543.424
543.308
543.194
543.081
542.969
542.858
542.748
542.639
542.531
542.424
542.317
542.212
542.107
542.003
541.899
541.797
541.695
541.593
541.492
541.392
541.292
541.192
541.093
540.994
540.895
540.796
540.698
540.599
552.53
552.489
552.448
552.407
552.366
552.325
552.285
552.244
552.204
552.163
552.123
552.082
552.041
552
551.957
551.915
551.871
551.826
551.78
551.733
551.685
551.635
551.585
551.533
551.48
551.425
551.368
551.31
551.25
551.187
551.121
551.053
550.981
550.905
550.824
550.74
550.651
550.558
550.462
550.362
550.26
550.156
550.05
549.943
549.833
549.721
549.608
549.493
549.376
549.258
549.137
549.015
548.891
548.765
548.638
548.509
548.378
548.246
548.112
547.977
547.841
547.703
547.564
547.423
547.282
547.139
546.994
546.849
546.703
546.555
546.406
546.257
546.106
545.955
545.805
545.654
545.504
545.355
545.208
545.064
544.922
544.784
544.649
544.517
544.388
544.261
544.136
544.013
543.892
543.772
543.654
543.536
543.42
543.305
543.192
543.079
542.967
542.857
542.747
542.638
542.53
542.423
542.317
542.211
542.107
542.003
541.899
541.797
541.695
541.593
541.492
541.392
541.292
541.192
541.093
540.994
540.895
540.796
540.698
540.599
552.53
552.489
552.449
552.408
552.367
552.327
552.286
552.245
552.204
552.163
552.121
552.079
552.037
551.994
551.95
551.905
551.86
551.813
551.765
551.716
551.666
551.615
551.563
551.51
551.456
551.401
551.344
551.286
551.225
551.163
551.098
551.03
550.958
550.883
550.803
550.719
550.631
550.538
550.442
550.344
550.242
550.139
550.033
549.926
549.817
549.706
549.593
549.479
549.362
549.244
549.124
549.002
548.878
548.753
548.626
548.498
548.368
548.236
548.103
547.968
547.832
547.694
547.556
547.415
547.274
547.131
546.986
546.841
546.694
546.545
546.396
546.246
546.095
545.943
545.791
545.64
545.489
545.339
545.191
545.046
544.904
544.767
544.633
544.503
544.375
544.25
544.127
544.005
543.885
543.766
543.649
543.532
543.417
543.303
543.189
543.077
542.966
542.855
542.746
542.637
542.53
542.423
542.316
542.211
542.107
542.003
541.899
541.797
541.695
541.593
541.492
541.392
541.292
541.192
541.093
540.994
540.895
540.796
540.698
540.599
552.53
552.491
552.451
552.411
552.371
552.33
552.29
552.248
552.207
552.164
552.121
552.078
552.034
551.988
551.942
551.895
551.848
551.799
551.749
551.698
551.646
551.593
551.54
551.486
551.43
551.374
551.317
551.258
551.197
551.134
551.069
551.002
550.931
550.856
550.777
550.694
550.606
550.514
550.419
550.321
550.221
550.118
550.014
549.907
549.799
549.689
549.577
549.462
549.346
549.228
549.108
548.987
548.864
548.739
548.613
548.485
548.355
548.224
548.092
547.957
547.821
547.684
547.545
547.404
547.262
547.119
546.974
546.828
546.68
546.531
546.381
546.23
546.078
545.926
545.773
545.62
545.469
545.318
545.169
545.023
544.882
544.745
544.613
544.485
544.36
544.237
544.116
543.996
543.877
543.76
543.643
543.528
543.413
543.299
543.187
543.075
542.964
542.854
542.745
542.636
542.529
542.422
542.316
542.211
542.106
542.002
541.899
541.797
541.695
541.593
541.492
541.392
541.292
541.192
541.093
540.994
540.895
540.796
540.698
540.599
552.531
552.493
552.455
552.416
552.377
552.337
552.297
552.255
552.212
552.169
552.124
552.078
552.031
551.983
551.934
551.884
551.834
551.782
551.73
551.677
551.623
551.569
551.515
551.459
551.403
551.346
551.288
551.228
551.167
551.104
551.038
550.97
550.899
550.824
550.746
550.663
550.577
550.486
550.393
550.296
550.197
550.095
549.992
549.887
549.78
549.67
549.559
549.445
549.329
549.211
549.092
548.971
548.848
548.724
548.598
548.47
548.342
548.211
548.079
547.944
547.808
547.67
547.531
547.389
547.246
547.102
546.955
546.808
546.659
546.509
546.358
546.207
546.054
545.902
545.749
545.596
545.443
545.291
545.141
544.994
544.853
544.718
544.59
544.465
544.343
544.223
544.104
543.986
543.869
543.753
543.638
543.523
543.409
543.296
543.184
543.073
542.962
542.853
542.744
542.635
542.528
542.422
542.316
542.211
542.106
542.002
541.899
541.797
541.695
541.593
541.492
541.392
541.292
541.192
541.093
540.994
540.895
540.796
540.698
540.599
552.533
552.498
552.463
552.426
552.388
552.349
552.308
552.266
552.221
552.176
552.128
552.079
552.028
551.976
551.923
551.87
551.817
551.764
551.71
551.656
551.601
551.547
551.491
551.435
551.378
551.32
551.261
551.2
551.137
551.073
551.006
550.937
550.865
550.791
550.712
550.631
550.545
550.456
550.364
550.269
550.172
550.072
549.97
549.866
549.761
549.652
549.542
549.429
549.314
549.197
549.077
548.956
548.834
548.709
548.583
548.456
548.327
548.196
548.063
547.928
547.791
547.652
547.51
547.367
547.222
547.075
546.927
546.778
546.628
546.477
546.326
546.175
546.024
545.872
545.719
545.566
545.413
545.259
545.107
544.957
544.815
544.685
544.561
544.442
544.324
544.207
544.091
543.976
543.861
543.746
543.632
543.518
543.405
543.293
543.182
543.071
542.961
542.851
542.743
542.635
542.527
542.421
542.315
542.21
542.106
542.002
541.899
541.797
541.695
541.593
541.492
541.392
541.292
541.192
541.093
540.994
540.895
540.796
540.698
540.599
552.536
552.506
552.474
552.44
552.404
552.365
552.323
552.279
552.232
552.182
552.13
552.076
552.021
551.964
551.908
551.852
551.797
551.743
551.689
551.636
551.583
551.528
551.473
551.417
551.359
551.299
551.237
551.174
551.109
551.042
550.974
550.903
550.831
550.755
550.678
550.597
550.512
550.425
550.335
550.242
550.147
550.049
549.95
549.848
549.744
549.638
549.53
549.418
549.304
549.187
549.068
548.947
548.824
548.698
548.571
548.442
548.311
548.179
548.044
547.906
547.766
547.623
547.479
547.332
547.185
547.036
546.886
546.735
546.584
546.434
546.284
546.135
545.986
545.837
545.685
545.532
545.377
545.221
545.065
544.911
544.763
544.643
544.528
544.416
544.303
544.191
544.078
543.965
543.852
543.739
543.626
543.514
543.402
543.29
543.179
543.069
542.959
542.85
542.741
542.634
542.527
542.421
542.315
542.21
542.106
542.002
541.899
541.797
541.695
541.593
541.493
541.392
541.292
541.192
541.093
540.994
540.895
540.796
540.698
540.599
552.54
552.518
552.491
552.46
552.424
552.384
552.339
552.291
552.239
552.185
552.127
552.068
552.006
551.945
551.885
551.828
551.774
551.722
551.672
551.623
551.573
551.521
551.466
551.408
551.348
551.284
551.218
551.15
551.081
551.011
550.941
550.868
550.795
550.72
550.643
550.563
550.48
550.396
550.308
550.219
550.127
550.032
549.935
549.837
549.736
549.633
549.527
549.418
549.305
549.188
549.068
548.945
548.82
548.692
548.561
548.428
548.293
548.156
548.016
547.873
547.727
547.58
547.431
547.281
547.131
546.98
546.83
546.679
546.529
546.38
546.234
546.088
545.943
545.795
545.644
545.489
545.33
545.17
545.009
544.848
544.678
544.592
544.493
544.389
544.282
544.174
544.065
543.954
543.844
543.732
543.621
543.509
543.398
543.287
543.177
543.067
542.957
542.849
542.741
542.633
542.526
542.42
542.315
542.21
542.106
542.002
541.899
541.797
541.695
541.593
541.493
541.392
541.292
541.192
541.093
540.994
540.895
540.796
540.698
540.599
552.545
552.531
552.51
552.479
552.442
552.397
552.347
552.293
552.236
552.178
552.115
552.049
551.982
551.917
551.856
551.8
551.752
551.709
551.668
551.626
551.582
551.532
551.475
551.411
551.342
551.271
551.199
551.126
551.052
550.978
550.905
550.834
550.762
550.69
550.616
550.537
550.456
550.373
550.288
550.203
550.116
550.027
549.936
549.841
549.744
549.645
549.542
549.434
549.321
549.202
549.078
548.951
548.82
548.686
548.548
548.408
548.264
548.118
547.969
547.818
547.666
547.513
547.363
547.212
547.063
546.914
546.766
546.617
546.47
546.324
546.179
546.035
545.886
545.736
545.579
545.416
545.246
545.082
544.923
544.773
544.627
544.548
544.459
544.363
544.262
544.158
544.052
543.945
543.836
543.726
543.616
543.506
543.395
543.285
543.175
543.065
542.956
542.848
542.74
542.632
542.526
542.42
542.314
542.21
542.105
542.002
541.899
541.797
541.695
541.593
541.493
541.392
541.292
541.192
541.093
540.994
540.895
540.796
540.698
540.599
552.548
552.54
552.52
552.488
552.445
552.394
552.336
552.278
552.22
552.162
552.095
552.023
551.954
551.892
551.835
551.785
551.748
551.723
551.7
551.668
551.622
551.566
551.496
551.412
551.321
551.24
551.166
551.095
551.021
550.942
550.871
550.811
550.757
550.699
550.631
550.553
550.469
550.381
550.29
550.208
550.128
550.049
549.967
549.875
549.78
549.683
549.579
549.468
549.351
549.227
549.091
548.951
548.807
548.66
548.511
548.362
548.205
548.047
547.886
547.727
547.575
547.426
547.291
547.143
547.004
546.857
546.719
546.577
546.431
546.281
546.124
545.965
545.786
545.614
545.435
545.26
545.055
544.891
544.759
544.653
544.566
544.501
544.426
544.339
544.244
544.144
544.041
543.936
543.829
543.721
543.612
543.502
543.392
543.283
543.173
543.064
542.955
542.847
542.739
542.632
542.525
542.419
542.314
542.209
542.105
542.002
541.899
541.797
541.695
541.593
541.493
541.392
541.292
541.193
541.093
540.994
540.895
540.796
540.698
540.599
552.545
552.532
552.503
552.459
552.411
552.357
552.297
552.249
552.202
552.155
552.081
552.002
551.946
551.911
551.871
551.827
551.802
551.804
551.812
551.782
551.695
551.596
551.496
551.365
551.228
551.142
551.089
551.057
551.011
550.934
550.865
550.841
550.841
550.829
550.77
550.679
550.583
550.472
550.346
550.271
550.188
550.107
550.042
549.945
549.843
549.736
549.624
549.502
549.379
549.244
549.082
548.917
548.743
548.571
548.409
548.272
548.09
547.915
547.742
547.585
547.459
547.332
547.259
547.117
547.011
546.851
546.749
546.629
546.456
546.273
546.058
545.844
545.533
545.314
545.106
544.954
544.62
544.472
544.475
544.473
544.482
544.444
544.391
544.316
544.228
544.132
544.032
543.929
543.824
543.717
543.608
543.5
543.39
543.281
543.172
543.063
542.954
542.846
542.739
542.631
542.525
542.419
542.314
542.209
542.105
542.002
541.899
541.797
541.695
541.594
541.493
541.392
541.292
541.193
541.093
540.994
540.895
540.796
540.698
540.599
552.521
552.476
552.415
552.352
552.315
552.28
552.235
552.253
552.212
552.168
552.055
551.967
551.988
552.056
552.051
552.014
551.975
551.97
552.041
552.02
551.73
551.474
551.343
551.152
550.935
550.883
550.883
550.969
551.066
551.104
551.033
551.027
551.11
551.168
551.1
550.967
550.877
550.765
550.551
550.576
550.39
550.159
550.083
549.962
549.866
549.739
549.616
549.454
549.313
549.169
548.987
548.798
548.543
548.341
548.198
548.239
547.927
547.694
547.514
547.343
547.318
547.197
547.297
547.168
547.209
546.935
547.068
546.923
546.439
546.262
546.022
545.547
544.597
544.738
544.742
544.213
543.363
543.858
544.194
544.231
544.384
544.39
544.361
544.298
544.216
544.123
544.025
543.924
543.82
543.714
543.606
543.498
543.389
543.28
543.171
543.062
542.954
542.846
542.738
542.631
542.525
542.419
542.314
542.209
542.105
542.002
541.899
541.797
541.695
541.594
541.493
541.392
541.292
541.193