/*--------------------------------*- C++ -*----------------------------------*\
  =========                 |
  \\      /  F ield         | OpenFOAM: The Open Source CFD Toolbox
   \\    /   O peration     | Website:  https://openfoam.org
    \\  /    A nd           | Version:  6
     \\/     M anipulation  |
\*---------------------------------------------------------------------------*/
FoamFile
{
    version     2.0;
    format      ascii;
    class       volVectorField;
    location    "100";
    object      U;
}
// * * * * * * * * * * * * * * * * * * * * * * * * * * * * * * * * * * * * * //

dimensions      [0 1 -1 0 0 0 0];

internalField   nonuniform List<vector> 
4800
(
(0.000195743 0 -9.45556e-05)
(-2.12912e-05 0 -0.00096183)
(0.00093145 0 -0.000525346)
(0.00123656 0 -0.000312881)
(0.00141176 0 -0.000629844)
(0.00171472 0 -7.21289e-05)
(0.00183841 0 -0.000245581)
(0.00198729 0 -0.000637026)
(0.00226157 0 -0.000134598)
(0.00237675 0 0.000226492)
(0.002377 0 -0.000220949)
(0.00240793 0 -0.000279009)
(0.0025042 0 -0.000229881)
(0.00252316 0 -8.06091e-05)
(0.00248805 0 -2.51328e-05)
(0.00240116 0 6.47631e-05)
(0.00226182 0 0.000119516)
(0.00206828 0 0.000164666)
(0.00181944 0 0.000110929)
(0.0015245 0 6.96759e-05)
(0.00124087 0 0.000131626)
(0.00104466 0 0.000158215)
(0.000896467 0 0.000127151)
(0.000757574 0 9.23663e-05)
(0.000649432 0 6.58865e-05)
(0.000569303 0 4.62317e-05)
(0.000503239 0 3.86963e-05)
(0.000448455 0 3.18255e-05)
(0.00040201 0 2.48349e-05)
(0.000363332 0 2.27756e-05)
(0.000330324 0 2.0012e-05)
(0.000300208 0 1.55867e-05)
(0.000274391 0 1.30771e-05)
(0.000252757 0 1.19328e-05)
(0.000232728 0 1.06542e-05)
(0.000214294 0 9.19971e-06)
(0.000198719 0 7.7778e-06)
(0.000185591 0 6.52243e-06)
(0.000174123 0 5.45802e-06)
(0.000164202 0 4.51174e-06)
(0.000155736 0 3.66542e-06)
(0.000148426 0 2.94675e-06)
(0.000142028 0 2.33499e-06)
(0.000136359 0 1.83794e-06)
(0.000131234 0 1.4494e-06)
(0.000126524 0 1.16725e-06)
(0.000122176 0 9.70667e-07)
(0.00011812 0 8.26668e-07)
(0.000114249 0 7.55397e-07)
(0.000110509 0 7.78063e-07)
(0.000106899 0 8.11332e-07)
(0.000103397 0 8.33076e-07)
(9.9972e-05 0 8.29641e-07)
(9.6597e-05 0 8.06084e-07)
(9.32547e-05 0 7.64334e-07)
(8.99347e-05 0 7.33977e-07)
(8.66255e-05 0 7.04012e-07)
(8.33184e-05 0 6.88101e-07)
(8.00209e-05 0 6.75176e-07)
(7.67199e-05 0 6.70381e-07)
(7.33818e-05 0 6.77609e-07)
(7.0022e-05 0 6.80616e-07)
(6.66449e-05 0 6.84093e-07)
(6.31846e-05 0 6.97679e-07)
(5.96187e-05 0 7.14204e-07)
(5.60066e-05 0 7.28061e-07)
(5.23657e-05 0 7.36881e-07)
(4.86478e-05 0 7.41008e-07)
(4.48312e-05 0 7.36958e-07)
(4.09302e-05 0 7.25783e-07)
(3.69506e-05 0 7.07933e-07)
(3.2889e-05 0 6.84216e-07)
(2.87461e-05 0 6.59626e-07)
(2.45304e-05 0 6.40153e-07)
(2.02458e-05 0 6.37692e-07)
(1.59454e-05 0 6.6793e-07)
(1.14361e-05 0 8.03551e-07)
(7.59794e-06 0 1.09422e-06)
(6.99355e-07 0 2.61166e-06)
(-3.91657e-09 0 3.50547e-07)
(-7.74411e-14 0 3.40709e-15)
(-1.45468e-13 0 -4.15745e-15)
(-1.3303e-13 0 -8.12956e-15)
(-1.13577e-13 0 -1.10105e-14)
(-8.90128e-14 0 -1.32394e-14)
(-6.04463e-14 0 -1.50212e-14)
(-2.87657e-14 0 -1.63722e-14)
(5.14282e-15 0 -1.72763e-14)
(4.03766e-14 0 -1.77308e-14)
(7.60445e-14 0 -1.77487e-14)
(1.11299e-13 0 -1.73585e-14)
(1.45362e-13 0 -1.66009e-14)
(1.77548e-13 0 -1.55257e-14)
(2.07277e-13 0 -1.41883e-14)
(2.34081e-13 0 -1.26462e-14)
(2.57606e-13 0 -1.0956e-14)
(2.77609e-13 0 -9.17142e-15)
(2.93948e-13 0 -7.34106e-15)
(3.06575e-13 0 -5.50758e-15)
(3.15516e-13 0 -3.70699e-15)
(3.20866e-13 0 -1.9685e-15)
(3.22773e-13 0 -3.14711e-16)
(3.21422e-13 0 1.23786e-15)
(3.17027e-13 0 2.67815e-15)
(3.09823e-13 0 3.9999e-15)
(3.00049e-13 0 5.20062e-15)
(2.87949e-13 0 6.28125e-15)
(2.73763e-13 0 7.245e-15)
(2.57721e-13 0 8.09701e-15)
(2.40043e-13 0 8.84354e-15)
(2.20935e-13 0 9.49167e-15)
(2.00591e-13 0 1.00487e-14)
(1.79187e-13 0 1.05219e-14)
(1.56887e-13 0 1.09182e-14)
(1.33842e-13 0 1.12439e-14)
(1.10191e-13 0 1.15039e-14)
(8.60662e-14 0 1.17014e-14)
(6.15961e-14 0 1.18352e-14)
(3.69269e-14 0 1.18905e-14)
(1.22813e-14 0 1.18051e-14)
(0.000933485 0 -0.000114335)
(0.000464578 0 -0.000932448)
(0.000893246 0 -0.000576939)
(0.00112033 0 -0.000409461)
(0.00132814 0 -0.000172877)
(0.00142284 0 -0.00033554)
(0.00157208 0 -0.000427651)
(0.00188556 0 0.000172384)
(0.00187181 0 -0.000269388)
(0.00190666 0 -0.000350243)
(0.00203466 0 -0.000323808)
(0.00221559 0 -5.83697e-05)
(0.00223147 0 4.29866e-05)
(0.00221105 0 2.92236e-05)
(0.00217563 0 7.64868e-05)
(0.00210054 0 0.000160275)
(0.00196248 0 0.000301932)
(0.00178206 0 0.000425614)
(0.00161963 0 0.000404457)
(0.00141025 0 0.000426096)
(0.001187 0 0.000357069)
(0.00099902 0 0.000254035)
(0.000849396 0 0.000195168)
(0.000727654 0 0.000165423)
(0.00063308 0 0.000139649)
(0.000558063 0 0.000107654)
(0.000494449 0 8.81086e-05)
(0.000441444 0 7.43637e-05)
(0.000396662 0 6.0902e-05)
(0.0003591 0 5.36392e-05)
(0.000326358 0 4.68887e-05)
(0.000296412 0 3.99977e-05)
(0.000271395 0 3.55975e-05)
(0.000250473 0 3.18442e-05)
(0.000230774 0 2.78047e-05)
(0.000212406 0 2.43836e-05)
(0.000196795 0 2.15455e-05)
(0.000183796 0 1.8599e-05)
(0.000172615 0 1.59767e-05)
(0.000162991 0 1.38792e-05)
(0.000154762 0 1.21309e-05)
(0.000147657 0 1.06473e-05)
(0.000141447 0 9.50313e-06)
(0.000135932 0 8.68294e-06)
(0.000130913 0 8.0245e-06)
(0.000126276 0 7.45853e-06)
(0.000121982 0 6.9713e-06)
(0.000117964 0 6.66841e-06)
(0.000114166 0 6.3196e-06)
(0.00011053 0 5.89524e-06)
(0.000106979 0 5.6191e-06)
(0.000103475 0 5.40875e-06)
(0.000100008 0 5.31686e-06)
(9.65911e-05 0 5.32079e-06)
(9.32292e-05 0 5.39138e-06)
(8.99136e-05 0 5.40755e-06)
(8.66116e-05 0 5.48778e-06)
(8.3316e-05 0 5.50536e-06)
(8.00324e-05 0 5.55363e-06)
(7.67448e-05 0 5.63923e-06)
(7.34196e-05 0 5.67167e-06)
(7.0072e-05 0 5.72192e-06)
(6.67096e-05 0 5.8337e-06)
(6.32657e-05 0 5.95604e-06)
(5.97142e-05 0 6.06277e-06)
(5.61166e-05 0 6.16523e-06)
(5.24913e-05 0 6.2872e-06)
(4.87902e-05 0 6.42369e-06)
(4.49886e-05 0 6.57707e-06)
(4.10996e-05 0 6.73875e-06)
(3.71287e-05 0 6.89971e-06)
(3.30694e-05 0 7.06553e-06)
(2.89218e-05 0 7.2231e-06)
(2.46911e-05 0 7.36447e-06)
(2.03784e-05 0 7.47555e-06)
(1.60084e-05 0 7.55235e-06)
(1.14175e-05 0 7.51679e-06)
(7.22443e-06 0 7.34367e-06)
(6.48502e-07 0 6.66865e-06)
(-6.51174e-09 0 8.96164e-07)
(-8.1312e-14 0 -4.0948e-15)
(-1.56621e-13 0 -1.59302e-14)
(-1.39506e-13 0 -2.53615e-14)
(-1.18469e-13 0 -3.3413e-14)
(-9.29933e-14 0 -4.00316e-14)
(-6.3579e-14 0 -4.5404e-14)
(-3.10209e-14 0 -4.94881e-14)
(3.78423e-15 0 -5.22199e-14)
(3.99042e-14 0 -5.35873e-14)
(7.64168e-14 0 -5.36307e-14)
(1.12447e-13 0 -5.24379e-14)
(1.47195e-13 0 -5.01341e-14)
(1.79961e-13 0 -4.68722e-14)
(2.10157e-13 0 -4.28216e-14)
(2.37313e-13 0 -3.81578e-14)
(2.6108e-13 0 -3.30533e-14)
(2.81224e-13 0 -2.76706e-14)
(2.97612e-13 0 -2.21569e-14)
(3.10209e-13 0 -1.66405e-14)
(3.19055e-13 0 -1.12293e-14)
(3.24258e-13 0 -6.01062e-15)
(3.25979e-13 0 -1.0516e-15)
(3.24414e-13 0 3.59895e-15)
(3.1979e-13 0 7.90875e-15)
(3.12345e-13 0 1.18598e-14)
(3.0233e-13 0 1.54456e-14)
(2.89994e-13 0 1.86695e-14)
(2.75579e-13 0 2.15421e-14)
(2.59319e-13 0 2.40792e-14)
(2.41437e-13 0 2.63003e-14)
(2.2214e-13 0 2.82271e-14)
(2.01621e-13 0 2.98818e-14)
(1.80056e-13 0 3.12867e-14)
(1.57609e-13 0 3.24628e-14)
(1.34428e-13 0 3.34292e-14)
(1.10649e-13 0 3.4202e-14)
(8.63975e-14 0 3.47934e-14)
(6.17852e-14 0 3.52082e-14)
(3.68969e-14 0 3.54365e-14)
(1.21959e-14 0 3.54329e-14)
(3.56606e-05 0 -0.00125528)
(0.00043122 0 -0.00103938)
(0.000714047 0 -0.000706124)
(0.000914487 0 -0.000526191)
(0.00101431 0 -0.000506561)
(0.00117178 0 -0.000441912)
(0.00130876 0 -0.000475829)
(0.00144567 0 -0.000557021)
(0.00163398 0 -0.000159678)
(0.00171225 0 -0.000293538)
(0.00185293 0 -0.000254653)
(0.00190607 0 -6.76687e-05)
(0.00186328 0 -1.70469e-05)
(0.00186644 0 6.13591e-05)
(0.00190079 0 0.000115153)
(0.0018716 0 0.000137694)
(0.001766 0 8.75656e-05)
(0.00164046 0 8.67619e-05)
(0.00147718 0 0.000331945)
(0.00127197 0 0.000497639)
(0.00104468 0 0.000541878)
(0.000881315 0 0.000436842)
(0.000751407 0 0.000356519)
(0.000665947 0 0.00026621)
(0.000590945 0 0.000215917)
(0.000527394 0 0.000172472)
(0.000472366 0 0.000144549)
(0.000424382 0 0.000122842)
(0.000383273 0 0.000102259)
(0.000348507 0 9.05694e-05)
(0.000317695 0 7.95257e-05)
(0.000289442 0 6.68408e-05)
(0.000264998 0 5.8366e-05)
(0.00024434 0 5.21431e-05)
(0.00022563 0 4.67408e-05)
(0.000208465 0 4.18859e-05)
(0.000193305 0 3.60669e-05)
(0.000180107 0 3.02553e-05)
(0.00016905 0 2.56182e-05)
(0.000159994 0 2.2025e-05)
(0.000152341 0 1.90342e-05)
(0.000145685 0 1.65279e-05)
(0.000139871 0 1.45147e-05)
(0.000134709 0 1.30207e-05)
(0.000129963 0 1.19092e-05)
(0.000125535 0 1.09808e-05)
(0.000121418 0 1.03335e-05)
(0.000117582 0 9.74739e-06)
(0.000113902 0 9.39782e-06)
(0.000110267 0 9.26816e-06)
(0.000106661 0 9.27196e-06)
(0.000103148 0 9.22023e-06)
(9.97255e-05 0 9.13886e-06)
(9.63839e-05 0 8.89171e-06)
(9.30876e-05 0 8.71367e-06)
(8.98216e-05 0 8.53049e-06)
(8.65536e-05 0 8.46598e-06)
(8.32939e-05 0 8.34829e-06)
(8.00371e-05 0 8.31663e-06)
(7.67655e-05 0 8.3815e-06)
(7.34637e-05 0 8.39027e-06)
(7.01408e-05 0 8.41882e-06)
(6.67904e-05 0 8.56231e-06)
(6.33588e-05 0 8.73714e-06)
(5.98274e-05 0 8.8819e-06)
(5.62439e-05 0 9.03317e-06)
(5.26231e-05 0 9.20981e-06)
(4.89197e-05 0 9.41801e-06)
(4.51161e-05 0 9.63835e-06)
(4.12225e-05 0 9.86317e-06)
(3.72427e-05 0 1.00851e-05)
(3.31735e-05 0 1.03021e-05)
(2.90141e-05 0 1.05063e-05)
(2.4772e-05 0 1.06893e-05)
(2.04484e-05 0 1.08458e-05)
(1.6091e-05 0 1.0964e-05)
(1.15174e-05 0 1.10407e-05)
(7.52423e-06 0 1.09722e-05)
(8.85286e-07 0 1.08856e-05)
(-7.43052e-09 0 1.43396e-06)
(-8.53043e-14 0 -1.69062e-14)
(-1.6597e-13 0 -2.99845e-14)
(-1.4976e-13 0 -4.38931e-14)
(-1.27813e-13 0 -5.68623e-14)
(-1.00944e-13 0 -6.79413e-14)
(-6.99028e-14 0 -7.70141e-14)
(-3.55816e-14 0 -8.3905e-14)
(1.04371e-15 0 -8.8488e-14)
(3.89657e-14 0 -9.07411e-14)
(7.71939e-14 0 -9.07373e-14)
(1.14796e-13 0 -8.86316e-14)
(1.50928e-13 0 -8.46442e-14)
(1.84861e-13 0 -7.90417e-14)
(2.15991e-13 0 -7.21171e-14)
(2.43849e-13 0 -6.41731e-14)
(2.68093e-13 0 -5.55051e-14)
(2.88505e-13 0 -4.63901e-14)
(3.04979e-13 0 -3.70772e-14)
(3.17502e-13 0 -2.77824e-14)
(3.26145e-13 0 -1.86858e-14)
(3.31044e-13 0 -9.93194e-15)
(3.32382e-13 0 -1.63107e-15)
(3.30382e-13 0 6.13794e-15)
(3.25288e-13 0 1.33239e-14)
(3.1736e-13 0 1.98995e-14)
(3.06859e-13 0 2.58567e-14)
(2.94046e-13 0 3.12036e-14)
(2.79173e-13 0 3.59599e-14)
(2.62479e-13 0 4.01542e-14)
(2.44191e-13 0 4.38205e-14)
(2.24517e-13 0 4.69965e-14)
(2.0365e-13 0 4.97205e-14)
(1.81768e-13 0 5.20307e-14)
(1.59029e-13 0 5.39631e-14)
(1.35581e-13 0 5.55506e-14)
(1.11556e-13 0 5.68219e-14)
(8.70724e-14 0 5.78009e-14)
(6.22392e-14 0 5.85063e-14)
(3.71515e-14 0 5.89539e-14)
(1.22776e-14 0 5.91731e-14)
(0.000290709 0 -0.00133633)
(0.000350225 0 -0.0011231)
(0.00036441 0 -0.000944758)
(0.000760386 0 -0.000656341)
(0.000835071 0 -0.000606976)
(0.000927394 0 -0.00062566)
(0.0010459 0 -0.000692325)
(0.00128215 0 -0.000320323)
(0.00126459 0 -0.000517151)
(0.00132649 0 -0.000644419)
(0.0015472 0 -0.000278396)
(0.00157157 0 -0.000102476)
(0.00153931 0 -0.000124606)
(0.00151959 0 -3.36811e-05)
(0.00142504 0 0.0004437)
(0.00132104 0 0.000684431)
(0.00122603 0 0.000747646)
(0.00105483 0 0.000822523)
(0.000968212 0 0.000804271)
(0.00090281 0 0.000762862)
(0.000800365 0 0.000700441)
(0.000698308 0 0.000589032)
(0.000644311 0 0.000434533)
(0.000583956 0 0.000347118)
(0.000530772 0 0.000284038)
(0.000486826 0 0.0002221)
(0.000437868 0 0.000197981)
(0.000401571 0 0.000160042)
(0.000367081 0 0.000133962)
(0.000333073 0 0.000122985)
(0.000304273 0 0.000106483)
(0.000278761 0 9.3718e-05)
(0.000257074 0 8.20247e-05)
(0.000237059 0 7.02353e-05)
(0.000217881 0 6.2995e-05)
(0.000201201 0 5.7702e-05)
(0.00018675 0 5.11259e-05)
(0.000174328 0 4.30209e-05)
(0.000164214 0 3.57633e-05)
(0.000156015 0 3.02854e-05)
(0.000149037 0 2.59545e-05)
(0.000142976 0 2.23063e-05)
(0.000137704 0 1.96153e-05)
(0.000133021 0 1.77024e-05)
(0.000128659 0 1.62264e-05)
(0.000124542 0 1.49444e-05)
(0.000120686 0 1.39407e-05)
(0.000117019 0 1.33205e-05)
(0.000113397 0 1.30202e-05)
(0.000109804 0 1.26383e-05)
(0.000106302 0 1.22124e-05)
(0.000102939 0 1.184e-05)
(9.96929e-05 0 1.15612e-05)
(9.64796e-05 0 1.12755e-05)
(9.32038e-05 0 1.1187e-05)
(8.99126e-05 0 1.11441e-05)
(8.66318e-05 0 1.12165e-05)
(8.3378e-05 0 1.11922e-05)
(8.01249e-05 0 1.12686e-05)
(7.68699e-05 0 1.13981e-05)
(7.35932e-05 0 1.14497e-05)
(7.02822e-05 0 1.15678e-05)
(6.69485e-05 0 1.17849e-05)
(6.35414e-05 0 1.20283e-05)
(6.00289e-05 0 1.2252e-05)
(5.64572e-05 0 1.24723e-05)
(5.2839e-05 0 1.27367e-05)
(4.9146e-05 0 1.30037e-05)
(4.53433e-05 0 1.33121e-05)
(4.14483e-05 0 1.36167e-05)
(3.74637e-05 0 1.39182e-05)
(3.33822e-05 0 1.42197e-05)
(2.92077e-05 0 1.45021e-05)
(2.49476e-05 0 1.47599e-05)
(2.06049e-05 0 1.49852e-05)
(1.62295e-05 0 1.51735e-05)
(1.16242e-05 0 1.5313e-05)
(7.65563e-06 0 1.53531e-05)
(-9.80892e-08 0 1.54119e-05)
(-8.22017e-09 0 2.25749e-06)
(-9.40672e-14 0 -2.19907e-14)
(-1.82847e-13 0 -4.32211e-14)
(-1.65636e-13 0 -6.34164e-14)
(-1.42086e-13 0 -8.19453e-14)
(-1.13085e-13 0 -9.78408e-14)
(-7.95427e-14 0 -1.10839e-13)
(-4.24947e-14 0 -1.20654e-13)
(-3.05189e-15 0 -1.27104e-13)
(3.76549e-14 0 -1.30167e-13)
(7.85263e-14 0 -1.29959e-13)
(1.1854e-13 0 -1.26719e-13)
(1.56785e-13 0 -1.20782e-13)
(1.92488e-13 0 -1.12544e-13)
(2.25025e-13 0 -1.0244e-13)
(2.53925e-13 0 -9.09143e-14)
(2.78863e-13 0 -7.83986e-14)
(2.99652e-13 0 -6.5293e-14)
(3.1622e-13 0 -5.19549e-14)
(3.286e-13 0 -3.86907e-14)
(3.36905e-13 0 -2.57539e-14)
(3.41313e-13 0 -1.33448e-14)
(3.42049e-13 0 -1.61411e-15)
(3.39369e-13 0 9.33282e-15)
(3.33551e-13 0 1.94299e-14)
(3.24878e-13 0 2.86446e-14)
(3.13635e-13 0 3.69716e-14)
(3.00097e-13 0 4.44271e-14)
(2.84529e-13 0 5.10439e-14)
(2.6718e-13 0 5.68657e-14)
(2.4828e-13 0 6.19442e-14)
(2.2804e-13 0 6.63345e-14)
(2.06655e-13 0 7.00933e-14)
(1.84299e-13 0 7.32757e-14)
(1.61129e-13 0 7.5934e-14)
(1.37286e-13 0 7.81159e-14)
(1.12899e-13 0 7.98636e-14)
(8.80819e-14 0 8.12132e-14)
(6.29382e-14 0 8.21945e-14)
(3.75637e-14 0 8.28329e-14)
(1.24152e-14 0 8.31522e-14)
(0.000147165 0 -0.00159831)
(0.000184717 0 -0.00127363)
(0.00036898 0 -0.000928316)
(0.000474768 0 -0.00084346)
(0.000649353 0 -0.000764996)
(0.000694906 0 -0.000771894)
(0.000843246 0 -0.000660939)
(0.000908533 0 -0.000582491)
(0.000986593 0 -0.00044945)
(0.00104473 0 -0.000362251)
(0.00103009 0 -0.000335636)
(0.00106914 0 -0.00029124)
(0.00113979 0 -0.000252049)
(0.00111222 0 -0.000320073)
(0.00112445 0 -0.000167905)
(0.0010631 0 0.000289654)
(0.000986904 0 0.000463137)
(0.000956795 0 0.000501107)
(0.000877812 0 0.000615006)
(0.000674711 0 0.00079412)
(0.000578918 0 0.000779878)
(0.000540504 0 0.00064998)
(0.000537002 0 0.000479438)
(0.000497816 0 0.000399874)
(0.000472994 0 0.000319359)
(0.000436289 0 0.000270449)
(0.000403293 0 0.000230662)
(0.000372833 0 0.000195916)
(0.000341811 0 0.00017428)
(0.000314324 0 0.000152411)
(0.000289645 0 0.000128898)
(0.000265823 0 0.000116135)
(0.000245162 0 0.000105298)
(0.000226008 0 9.24999e-05)
(0.000208215 0 8.04222e-05)
(0.000192068 0 7.14545e-05)
(0.000178046 0 6.21849e-05)
(0.000166741 0 5.21165e-05)
(0.000158135 0 4.34974e-05)
(0.000151109 0 3.70234e-05)
(0.000144922 0 3.1934e-05)
(0.000139542 0 2.77279e-05)
(0.000135028 0 2.42674e-05)
(0.000130998 0 2.20623e-05)
(0.000127163 0 2.0224e-05)
(0.000123355 0 1.87857e-05)
(0.00011972 0 1.78418e-05)
(0.000116343 0 1.69158e-05)
(0.000112936 0 1.62357e-05)
(0.000109474 0 1.5666e-05)
(0.000106143 0 1.54275e-05)
(0.000103053 0 1.48215e-05)
(9.98313e-05 0 1.46194e-05)
(9.64339e-05 0 1.46924e-05)
(9.30513e-05 0 1.48007e-05)
(8.97971e-05 0 1.46867e-05)
(8.65628e-05 0 1.47476e-05)
(8.33637e-05 0 1.46336e-05)
(8.0158e-05 0 1.46731e-05)
(7.69438e-05 0 1.48514e-05)
(7.37254e-05 0 1.48675e-05)
(7.04584e-05 0 1.49776e-05)
(6.71498e-05 0 1.52878e-05)
(6.37759e-05 0 1.56105e-05)
(6.0299e-05 0 1.58846e-05)
(5.67515e-05 0 1.6178e-05)
(5.316e-05 0 1.6508e-05)
(4.94821e-05 0 1.68806e-05)
(4.56921e-05 0 1.72823e-05)
(4.18035e-05 0 1.76889e-05)
(3.78144e-05 0 1.81012e-05)
(3.37192e-05 0 1.85079e-05)
(2.95228e-05 0 1.88919e-05)
(2.5231e-05 0 1.92449e-05)
(2.08445e-05 0 1.9553e-05)
(1.64058e-05 0 1.98092e-05)
(1.17272e-05 0 1.9986e-05)
(7.64483e-06 0 2.00781e-05)
(6.17284e-07 0 2.01403e-05)
(-8.77318e-09 0 1.62145e-06)
(-1.06323e-13 0 -2.88208e-14)
(-2.06639e-13 0 -5.74962e-14)
(-1.87742e-13 0 -8.46381e-14)
(-1.61809e-13 0 -1.09382e-13)
(-1.29778e-13 0 -1.30593e-13)
(-9.2716e-14 0 -1.47852e-13)
(-5.1847e-14 0 -1.60764e-13)
(-8.46892e-15 0 -1.69102e-13)
(3.61116e-14 0 -1.72856e-13)
(8.06413e-14 0 -1.72209e-13)
(1.23973e-13 0 -1.67509e-13)
(1.65104e-13 0 -1.59231e-13)
(2.03203e-13 0 -1.4793e-13)
(2.37621e-13 0 -1.34207e-13)
(2.6789e-13 0 -1.18671e-13)
(2.93714e-13 0 -1.01906e-13)
(3.14949e-13 0 -8.44492e-14)
(3.31581e-13 0 -6.67734e-14)
(3.43703e-13 0 -4.92802e-14)
(3.51491e-13 0 -3.22964e-14)
(3.55184e-13 0 -1.60757e-14)
(3.5506e-13 0 -8.04775e-16)
(3.51426e-13 0 1.33901e-14)
(3.446e-13 0 2.6434e-14)
(3.34901e-13 0 3.82956e-14)
(3.22641e-13 0 4.8978e-14)
(3.08118e-13 0 5.85114e-14)
(2.91611e-13 0 6.69457e-14)
(2.73379e-13 0 7.43447e-14)
(2.53659e-13 0 8.07806e-14)
(2.32666e-13 0 8.63296e-14)
(2.10591e-13 0 9.10684e-14)
(1.87608e-13 0 9.50714e-14)
(1.6387e-13 0 9.84084e-14)
(1.39511e-13 0 1.01143e-13)
(1.14653e-13 0 1.03332e-13)
(8.94032e-14 0 1.05022e-13)
(6.38589e-14 0 1.06255e-13)
(3.81092e-14 0 1.0706e-13)
(1.25969e-14 0 1.07463e-13)
(0.000142145 0 -0.0017316)
(-9.83727e-06 0 -0.00137809)
(0.000453156 0 -0.000966372)
(0.00015366 0 -0.000958409)
(0.000466138 0 -0.000883447)
(0.000363758 0 -0.000875786)
(0.000510012 0 -0.000758028)
(0.000560701 0 -0.00061988)
(0.000538411 0 -0.000536327)
(0.000598261 0 -0.00046821)
(0.000592331 0 -0.000232105)
(0.000401738 0 0.000283669)
(0.000376062 0 0.000334342)
(0.000458432 0 0.000287994)
(0.000583579 0 0.000313821)
(0.000776398 0 0.000306348)
(0.00079505 0 0.000506122)
(0.000609791 0 0.0007203)
(0.000369381 0 0.000891543)
(0.000315653 0 0.000920692)
(0.000371386 0 0.000800442)
(0.000412049 0 0.000633538)
(0.000432583 0 0.000499887)
(0.000427184 0 0.000415276)
(0.00040847 0 0.000351839)
(0.000389384 0 0.00029782)
(0.000364985 0 0.000260611)
(0.000343135 0 0.000224411)
(0.000319216 0 0.000197249)
(0.00029433 0 0.000176185)
(0.000269544 0 0.000159571)
(0.000250327 0 0.000140092)
(0.000232493 0 0.000121158)
(0.000213368 0 0.00010755)
(0.000195296 0 9.93396e-05)
(0.000180217 0 8.93156e-05)
(0.000167103 0 7.65023e-05)
(0.00015722 0 6.25925e-05)
(0.000150159 0 5.1645e-05)
(0.000144543 0 4.36004e-05)
(0.000139643 0 3.73459e-05)
(0.000135477 0 3.19506e-05)
(0.000131914 0 2.82838e-05)
(0.000128761 0 2.54558e-05)
(0.000125372 0 2.39616e-05)
(0.000122004 0 2.24517e-05)
(0.000118941 0 2.07259e-05)
(0.0001157 0 2.02616e-05)
(0.000112294 0 2.02335e-05)
(0.000109176 0 1.95366e-05)
(0.000106265 0 1.84156e-05)
(0.000102876 0 1.86166e-05)
(9.92852e-05 0 1.89432e-05)
(9.59542e-05 0 1.85878e-05)
(9.27595e-05 0 1.82834e-05)
(8.96401e-05 0 1.80288e-05)
(8.64836e-05 0 1.80185e-05)
(8.3349e-05 0 1.78806e-05)
(8.02237e-05 0 1.78799e-05)
(7.70528e-05 0 1.80995e-05)
(7.387e-05 0 1.81797e-05)
(7.06709e-05 0 1.82937e-05)
(6.74178e-05 0 1.86544e-05)
(6.40821e-05 0 1.90581e-05)
(6.06427e-05 0 1.94123e-05)
(5.7138e-05 0 1.97778e-05)
(5.35843e-05 0 2.0193e-05)
(4.9927e-05 0 2.06743e-05)
(4.61537e-05 0 2.11815e-05)
(4.22745e-05 0 2.17011e-05)
(3.82821e-05 0 2.2229e-05)
(3.41724e-05 0 2.27484e-05)
(2.99489e-05 0 2.32435e-05)
(2.56133e-05 0 2.37017e-05)
(2.11642e-05 0 2.41046e-05)
(1.66458e-05 0 2.44358e-05)
(1.18871e-05 0 2.46605e-05)
(7.73801e-06 0 2.47508e-05)
(7.5583e-07 0 2.48388e-05)
(-9.6174e-09 0 3.07214e-06)
(-1.22292e-13 0 -3.63604e-14)
(-2.37911e-13 0 -7.33125e-14)
(-2.16785e-13 0 -1.083e-13)
(-1.87616e-13 0 -1.40081e-13)
(-1.51495e-13 0 -1.67255e-13)
(-1.09713e-13 0 -1.89209e-13)
(-6.37455e-14 0 -2.05435e-13)
(-1.51438e-14 0 -2.15665e-13)
(3.45484e-14 0 -2.19925e-13)
(8.38726e-14 0 -2.18495e-13)
(1.31518e-13 0 -2.11871e-13)
(1.76365e-13 0 -2.00706e-13)
(2.17512e-13 0 -1.85753e-13)
(2.54284e-13 0 -1.67814e-13)
(2.86226e-13 0 -1.4769e-13)
(3.13086e-13 0 -1.26141e-13)
(3.34785e-13 0 -1.03856e-13)
(3.51389e-13 0 -8.14362e-14)
(3.63077e-13 0 -5.93803e-14)
(3.7011e-13 0 -3.80878e-14)
(3.72805e-13 0 -1.78617e-14)
(3.71515e-13 0 1.08227e-15)
(3.66608e-13 0 1.86048e-14)
(3.58457e-13 0 3.46311e-14)
(3.47422e-13 0 4.91394e-14)
(3.3385e-13 0 6.21492e-14)
(3.18065e-13 0 7.37119e-14)
(3.00363e-13 0 8.39013e-14)
(2.81015e-13 0 9.28061e-14)
(2.60265e-13 0 1.00524e-13)
(2.38328e-13 0 1.07155e-13)
(2.15397e-13 0 1.128e-13)
(1.91639e-13 0 1.17554e-13)
(1.672e-13 0 1.21507e-13)
(1.4221e-13 0 1.24738e-13)
(1.16778e-13 0 1.2732e-13)
(9.10049e-14 0 1.29312e-13)
(6.49764e-14 0 1.30765e-13)
(3.87718e-14 0 1.31715e-13)
(1.28175e-14 0 1.32189e-13)
(7.98629e-05 0 -0.00185334)
(5.51302e-05 0 -0.00142584)
(0.000196151 0 -0.00107343)
(0.000111442 0 -0.0009836)
(0.000363269 0 -0.000909911)
(0.000170674 0 -0.000841799)
(0.000232176 0 -0.000752833)
(0.000266686 0 -0.000636403)
(0.000294374 0 -0.000465236)
(0.000215906 0 -0.000431667)
(0.000256668 0 -0.000482752)
(0.000385493 0 -0.000427222)
(0.00050463 0 -0.000340892)
(0.000341655 0 -0.00012566)
(3.0334e-05 0 0.000263323)
(8.67367e-06 0 0.000574105)
(2.74637e-05 0 0.000768372)
(-7.30626e-05 0 0.000894644)
(4.79062e-05 0 0.000918654)
(0.000131107 0 0.000862092)
(0.000237055 0 0.000716804)
(0.000310844 0 0.000589412)
(0.000347507 0 0.000494266)
(0.00035227 0 0.000426419)
(0.000351581 0 0.000365152)
(0.000345136 0 0.000314302)
(0.000328308 0 0.000280719)
(0.000314475 0 0.000244195)
(0.000293672 0 0.00022068)
(0.000269812 0 0.000202279)
(0.000250293 0 0.000179903)
(0.000235064 0 0.00015576)
(0.000217284 0 0.000137524)
(0.000199072 0 0.000125166)
(0.000184028 0 0.000112068)
(0.000167978 0 9.98555e-05)
(0.000154276 0 8.48299e-05)
(0.00014595 0 6.91604e-05)
(0.000141021 0 5.62294e-05)
(0.000136903 0 4.78113e-05)
(0.00013368 0 4.07179e-05)
(0.000130864 0 3.53067e-05)
(0.000128546 0 3.08113e-05)
(0.000126037 0 2.91738e-05)
(0.000123705 0 2.66901e-05)
(0.000121045 0 2.48236e-05)
(0.000117906 0 2.44463e-05)
(0.000115031 0 2.33726e-05)
(0.000112358 0 2.20575e-05)
(0.000109336 0 2.15239e-05)
(0.000105559 0 2.2752e-05)
(0.000102096 0 2.24706e-05)
(9.89654e-05 0 2.1598e-05)
(9.57865e-05 0 2.14362e-05)
(9.27092e-05 0 2.11341e-05)
(8.96141e-05 0 2.09953e-05)
(8.6454e-05 0 2.10466e-05)
(8.33748e-05 0 2.09384e-05)
(8.02979e-05 0 2.10371e-05)
(7.71915e-05 0 2.12088e-05)
(7.40792e-05 0 2.12869e-05)
(7.09424e-05 0 2.14752e-05)
(6.77401e-05 0 2.19122e-05)
(6.44517e-05 0 2.24072e-05)
(6.1074e-05 0 2.28254e-05)
(5.76215e-05 0 2.32664e-05)
(5.41037e-05 0 2.37835e-05)
(5.04776e-05 0 2.43677e-05)
(4.67258e-05 0 2.49866e-05)
(4.28515e-05 0 2.56319e-05)
(3.88582e-05 0 2.62796e-05)
(3.47376e-05 0 2.69183e-05)
(3.04832e-05 0 2.75376e-05)
(2.60958e-05 0 2.81168e-05)
(2.15756e-05 0 2.86313e-05)
(1.69518e-05 0 2.90667e-05)
(1.20473e-05 0 2.93695e-05)
(7.69142e-06 0 2.94994e-05)
(-4.68574e-08 0 2.92815e-05)
(-1.05471e-08 0 3.49769e-06)
(-1.42675e-13 0 -4.44271e-14)
(-2.77829e-13 0 -9.11057e-14)
(-2.5378e-13 0 -1.35224e-13)
(-2.20343e-13 0 -1.75128e-13)
(-1.78847e-13 0 -2.09098e-13)
(-1.30896e-13 0 -2.36293e-13)
(-7.83028e-14 0 -2.56078e-13)
(-2.29587e-14 0 -2.68163e-13)
(3.32818e-14 0 -2.72641e-13)
(8.86947e-14 0 -2.69936e-13)
(1.41762e-13 0 -2.60744e-13)
(1.91222e-13 0 -2.45952e-13)
(2.36095e-13 0 -2.26563e-13)
(2.75684e-13 0 -2.03624e-13)
(3.09563e-13 0 -1.78166e-13)
(3.37548e-13 0 -1.51151e-13)
(3.59653e-13 0 -1.23441e-13)
(3.76057e-13 0 -9.57727e-14)
(3.87052e-13 0 -6.87471e-14)
(3.9301e-13 0 -4.28334e-14)
(3.94354e-13 0 -1.83767e-14)
(3.91526e-13 0 4.38811e-15)
(3.84975e-13 0 2.53201e-14)
(3.75135e-13 0 4.43563e-14)
(3.62419e-13 0 6.14957e-14)
(3.47214e-13 0 7.67848e-14)
(3.2987e-13 0 9.03052e-14)
(3.10705e-13 0 1.02162e-13)
(2.90002e-13 0 1.12477e-13)
(2.68009e-13 0 1.21377e-13)
(2.44942e-13 0 1.28992e-13)
(2.20991e-13 0 1.35447e-13)
(1.96315e-13 0 1.40864e-13)
(1.71054e-13 0 1.45352e-13)
(1.45324e-13 0 1.4901e-13)
(1.19227e-13 0 1.51925e-13)
(9.28478e-14 0 1.5417e-13)
(6.62614e-14 0 1.55804e-13)
(3.95339e-14 0 1.56873e-13)
(1.30713e-14 0 1.57406e-13)
(7.0062e-05 0 -0.00191987)
(1.25598e-05 0 -0.00144822)
(0.000166172 0 -0.00108641)
(-7.559e-06 0 -0.000984807)
(3.71478e-05 0 -0.000955836)
(7.37759e-05 0 -0.000812567)
(2.67795e-05 0 -0.000729248)
(4.2414e-05 0 -0.000644177)
(5.2498e-05 0 -0.000506893)
(-2.38499e-06 0 -0.000321481)
(0.000112112 0 -0.000262391)
(-2.80477e-05 0 -7.55142e-05)
(-4.69609e-05 0 5.75931e-05)
(-7.81902e-05 0 0.000195814)
(-0.000176926 0 0.000364256)
(-0.000250435 0 0.000564229)
(-0.000278592 0 0.000704499)
(-0.000190294 0 0.000801379)
(-8.8373e-05 0 0.000789266)
(5.81854e-05 0 0.000709394)
(0.000158442 0 0.000622162)
(0.000234706 0 0.000543271)
(0.000272308 0 0.000476338)
(0.000291422 0 0.000419095)
(0.000304838 0 0.000363268)
(0.000298938 0 0.000328236)
(0.000292694 0 0.000294533)
(0.000285609 0 0.000260343)
(0.000266722 0 0.000240911)
(0.000241847 0 0.000227555)
(0.00022999 0 0.000199384)
(0.000214285 0 0.000176122)
(0.000197131 0 0.000157522)
(0.000180283 0 0.000146666)
(0.000164312 0 0.000135384)
(0.000150297 0 0.000115641)
(0.000138549 0 9.40653e-05)
(0.000132792 0 7.44776e-05)
(0.000129694 0 6.0694e-05)
(0.000128155 0 4.97645e-05)
(0.000126644 0 4.33844e-05)
(0.000125939 0 3.67916e-05)
(0.000125001 0 3.31966e-05)
(0.000124246 0 2.93525e-05)
(0.000122347 0 2.86933e-05)
(0.000119441 0 2.85882e-05)
(0.000116556 0 2.78064e-05)
(0.000114308 0 2.72047e-05)
(0.000111909 0 2.65307e-05)
(0.00010841 0 2.65647e-05)
(0.000105039 0 2.53838e-05)
(0.000101881 0 2.48893e-05)
(9.868e-05 0 2.51603e-05)
(9.57652e-05 0 2.43708e-05)
(9.26299e-05 0 2.41331e-05)
(8.93543e-05 0 2.44403e-05)
(8.64075e-05 0 2.40918e-05)
(8.34748e-05 0 2.3818e-05)
(8.0347e-05 0 2.41325e-05)
(7.73007e-05 0 2.43636e-05)
(7.43553e-05 0 2.4328e-05)
(7.12766e-05 0 2.45748e-05)
(6.81118e-05 0 2.51033e-05)
(6.4904e-05 0 2.56732e-05)
(6.15939e-05 0 2.62029e-05)
(5.82069e-05 0 2.6707e-05)
(5.47352e-05 0 2.73128e-05)
(5.11372e-05 0 2.80295e-05)
(4.74027e-05 0 2.8792e-05)
(4.3556e-05 0 2.9542e-05)
(3.95643e-05 0 3.03192e-05)
(3.54219e-05 0 3.11109e-05)
(3.11426e-05 0 3.18671e-05)
(2.67079e-05 0 3.25827e-05)
(2.20987e-05 0 3.32454e-05)
(1.7373e-05 0 3.38105e-05)
(1.23098e-05 0 3.42389e-05)
(7.6486e-06 0 3.44673e-05)
(5.62415e-07 0 3.41208e-05)
(-1.17002e-08 0 3.24921e-06)
(-1.68308e-13 0 -5.31717e-14)
(-3.27964e-13 0 -1.11477e-13)
(-3.00083e-13 0 -1.66426e-13)
(-2.61073e-13 0 -2.15862e-13)
(-2.12602e-13 0 -2.57684e-13)
(-1.56693e-13 0 -2.90782e-13)
(-9.56159e-14 0 -3.14389e-13)
(-3.17067e-14 0 -3.28216e-13)
(3.27757e-14 0 -3.32471e-13)
(9.57693e-14 0 -3.27793e-13)
(1.55502e-13 0 -3.15153e-13)
(2.10546e-13 0 -2.95747e-13)
(2.5984e-13 0 -2.70897e-13)
(3.02681e-13 0 -2.41953e-13)
(3.38699e-13 0 -2.1022e-13)
(3.6781e-13 0 -1.76896e-13)
(3.90163e-13 0 -1.43033e-13)
(4.06083e-13 0 -1.09515e-13)
(4.16016e-13 0 -7.7044e-14)
(4.2048e-13 0 -4.61538e-14)
(4.20026e-13 0 -1.72199e-14)
(4.15211e-13 0 9.51761e-15)
(4.06576e-13 0 3.39318e-14)
(3.94632e-13 0 5.59866e-14)
(3.79851e-13 0 7.57164e-14)
(3.6266e-13 0 9.32076e-14)
(3.43442e-13 0 1.08583e-13)
(3.22534e-13 0 1.2199e-13)
(3.00229e-13 0 1.33588e-13)
(2.76779e-13 0 1.43542e-13)
(2.52399e-13 0 1.52014e-13)
(2.2727e-13 0 1.59162e-13)
(2.01543e-13 0 1.65132e-13)
(1.75346e-13 0 1.70057e-13)
(1.48782e-13 0 1.74055e-13)
(1.21938e-13 0 1.7723e-13)
(9.48841e-14 0 1.79669e-13)
(6.76795e-14 0 1.81441e-13)
(4.03743e-14 0 1.82598e-13)
(1.33511e-14 0 1.83175e-13)
(5.13871e-05 0 -0.00193789)
(-3.59195e-05 0 -0.00142011)
(8.50455e-06 0 -0.00109652)
(-0.00020367 0 -0.000979076)
(4.18268e-05 0 -0.000933098)
(-7.1142e-05 0 -0.000800244)
(-0.000139271 0 -0.000696964)
(-0.000190448 0 -0.000620525)
(-0.000170885 0 -0.000535549)
(-0.000262275 0 -0.000357424)
(-0.000314537 0 -0.000231342)
(-0.000358188 0 -5.66293e-05)
(-0.000351412 0 0.000134988)
(-0.000389994 0 0.000260406)
(-0.000441438 0 0.000392624)
(-0.000414936 0 0.000504387)
(-0.000345806 0 0.000601354)
(-0.000225126 0 0.000643944)
(-0.000109892 0 0.000622569)
(-6.08005e-06 0 0.00058947)
(0.000108201 0 0.000543744)
(0.000172535 0 0.000494266)
(0.000219201 0 0.000443441)
(0.000242936 0 0.000400999)
(0.000259442 0 0.000360302)
(0.000268728 0 0.000324337)
(0.000264229 0 0.000298077)
(0.000253204 0 0.000278859)
(0.000237664 0 0.000263289)
(0.000232153 0 0.000234551)
(0.000215292 0 0.000213786)
(0.000197803 0 0.000188479)
(0.000177238 0 0.000173666)
(0.000163796 0 0.000161125)
(0.000146897 0 0.00014853)
(0.000128779 0 0.000130985)
(0.000121121 0 0.000104017)
(0.000118171 0 7.97951e-05)
(0.000117596 0 6.17355e-05)
(0.000118624 0 5.14412e-05)
(0.000120878 0 4.07677e-05)
(0.000121179 0 3.61813e-05)
(0.000121332 0 3.37063e-05)
(0.00012115 0 3.336e-05)
(0.000120673 0 3.16501e-05)
(0.000119327 0 2.90282e-05)
(0.000117897 0 2.621e-05)
(0.000115397 0 2.66462e-05)
(0.000111205 0 2.91943e-05)
(0.000107676 0 2.88291e-05)
(0.000104607 0 2.90083e-05)
(0.000101821 0 2.8332e-05)
(9.89399e-05 0 2.71265e-05)
(9.53345e-05 0 2.79852e-05)
(9.22462e-05 0 2.75431e-05)
(8.94332e-05 0 2.68329e-05)
(8.63362e-05 0 2.71116e-05)
(8.33409e-05 0 2.70625e-05)
(8.04688e-05 0 2.69729e-05)
(7.7579e-05 0 2.71649e-05)
(7.45965e-05 0 2.74441e-05)
(7.15953e-05 0 2.76796e-05)
(6.85467e-05 0 2.82293e-05)
(6.54518e-05 0 2.88991e-05)
(6.22595e-05 0 2.94521e-05)
(5.88753e-05 0 3.01301e-05)
(5.54502e-05 0 3.08544e-05)
(5.19281e-05 0 3.16722e-05)
(4.82546e-05 0 3.25293e-05)
(4.43773e-05 0 3.34783e-05)
(4.03884e-05 0 3.44131e-05)
(3.628e-05 0 3.53162e-05)
(3.19591e-05 0 3.6248e-05)
(2.74547e-05 0 3.71447e-05)
(2.28151e-05 0 3.7953e-05)
(1.78797e-05 0 3.87364e-05)
(1.27776e-05 0 3.92945e-05)
(7.54309e-06 0 3.97643e-05)
(-1.07281e-06 0 3.8931e-05)
(-1.30186e-08 0 4.02943e-06)
(-2.00276e-13 0 -6.2843e-14)
(-3.90344e-13 0 -1.35231e-13)
(-3.57449e-13 0 -2.03205e-13)
(-3.11189e-13 0 -2.63976e-13)