/*--------------------------------*- C++ -*----------------------------------*\
  =========                 |
  \\      /  F ield         | OpenFOAM: The Open Source CFD Toolbox
   \\    /   O peration     | Website:  https://openfoam.org
    \\  /    A nd           | Version:  6
     \\/     M anipulation  |
\*---------------------------------------------------------------------------*/
FoamFile
{
    version     2.0;
    format      ascii;
    class       surfaceScalarField;
    location    "9600";
    object      phi;
}
// * * * * * * * * * * * * * * * * * * * * * * * * * * * * * * * * * * * * * //

dimensions      [0 3 -1 0 0 0 0];

internalField   nonuniform List<scalar> 
9440
(
4.28291e-13
-4.2829e-13
8.42107e-13
-4.13817e-13
1.24264e-12
-4.00534e-13
1.61501e-12
-3.72368e-13
1.95242e-12
-3.37403e-13
2.25183e-12
-2.99414e-13
2.5117e-12
-2.59867e-13
2.73194e-12
-2.20234e-13
2.91382e-12
-1.81888e-13
3.05953e-12
-1.45701e-13
3.17165e-12
-1.12121e-13
3.25295e-12
-8.12995e-14
3.30678e-12
-5.38243e-14
3.33575e-12
-2.89716e-14
3.34234e-12
-6.58563e-15
3.32814e-12
1.4195e-14
3.29588e-12
3.22624e-14
3.25074e-12
4.51469e-14
3.19356e-12
5.71759e-14
3.12684e-12
6.67204e-14
3.04887e-12
7.79709e-14
2.9654e-12
8.3472e-14
2.87765e-12
8.77571e-14
2.78618e-12
9.14688e-14
2.69307e-12
9.31075e-14
2.59856e-12
9.45172e-14
2.5038e-12
9.47552e-14
2.41036e-12
9.34425e-14
2.31855e-12
9.18092e-14
2.22869e-12
8.98584e-14
2.14132e-12
8.73734e-14
2.05682e-12
8.44966e-14
1.97532e-12
8.15007e-14
1.897e-12
7.83214e-14
1.82203e-12
7.49725e-14
1.7501e-12
7.1922e-14
1.68136e-12
6.87474e-14
1.61544e-12
6.59199e-14
1.55232e-12
6.31204e-14
1.49184e-12
6.04775e-14
1.43379e-12
5.8055e-14
1.37797e-12
5.58192e-14
1.32422e-12
5.37526e-14
1.27249e-12
5.17345e-14
1.22237e-12
5.01179e-14
1.17392e-12
4.84505e-14
1.12658e-12
4.73335e-14
1.08076e-12
4.58272e-14
1.03613e-12
4.4631e-14
9.92696e-13
4.34314e-14
9.50406e-13
4.22912e-14
9.08994e-13
4.14122e-14
8.68446e-13
4.05498e-14
8.28818e-13
3.96292e-14
7.89983e-13
3.88352e-14
7.52028e-13
3.79549e-14
7.14807e-13
3.72216e-14
6.78448e-13
3.63598e-14
6.42642e-13
3.58036e-14
6.07585e-13
3.50583e-14
5.73272e-13
3.43125e-14
5.39718e-13
3.35547e-14
5.06823e-13
3.28935e-14
4.74591e-13
3.22293e-14
4.4301e-13
3.15815e-14
4.12137e-13
3.08712e-14
3.81895e-13
3.02405e-14
3.52285e-13
2.96074e-14
3.23261e-13
2.90233e-14
2.95048e-13
2.82108e-14
2.67648e-13
2.7398e-14
2.41195e-13
2.64526e-14
2.161e-13
2.50935e-14
1.93326e-13
2.27723e-14
1.76227e-13
1.7096e-14
1.75568e-13
6.55382e-16
2.26372e-13
-5.0807e-14
1.23379e-13
1.02992e-13
1.89629e-18
1.23375e-13
8.5367e-22
-2.64757e-23
8.55305e-22
-5.16988e-26
8.52668e-22
2.48154e-24
8.47447e-22
5.11818e-24
8.39743e-22
7.70312e-24
8.29611e-22
1.0133e-23
8.17151e-22
1.24077e-23
8.02469e-22
1.46825e-23
7.85822e-22
1.67504e-23
7.67313e-22
1.85599e-23
7.47099e-22
2.02142e-23
7.25489e-22
2.16618e-23
7.0238e-22
2.28509e-23
6.78185e-22
2.37814e-23
6.53214e-22
2.48154e-23
6.27417e-22
2.53841e-23
6.00947e-22
2.58494e-23
5.7396e-22
2.61596e-23
5.46611e-22
2.63147e-23
5.19263e-22
2.64698e-23
4.91604e-22
2.63147e-23
4.63893e-22
2.60562e-23
4.36441e-22
2.58494e-23
4.09144e-22
2.54875e-23
3.82106e-22
2.50739e-23
3.55171e-22
2.46086e-23
3.28753e-22
2.40916e-23
3.02593e-22
2.34713e-23
2.76847e-22
2.29543e-23
2.51566e-22
2.23856e-23
2.26699e-22
2.18169e-23
2.02349e-22
2.12999e-23
1.78413e-22
2.08346e-23
1.54734e-22
2.02659e-23
1.31625e-22
1.98006e-23
1.08774e-22
1.9387e-23
8.61302e-23
1.89735e-23
6.37963e-23
1.86116e-23
4.19277e-23
1.83014e-23
2.02659e-23
1.77844e-23
1.66987e-23
4.39802e-13
-8.68091e-13
8.67066e-13
-8.41078e-13
1.2724e-12
-8.05869e-13
1.64922e-12
-7.49187e-13
1.99014e-12
-6.78321e-13
2.29111e-12
-6.00378e-13
2.55084e-12
-5.19597e-13
2.76977e-12
-4.39166e-13
2.94954e-12
-3.61657e-13
3.09254e-12
-2.88694e-13
3.20175e-12
-2.2133e-13
3.28022e-12
-1.59769e-13
3.33128e-12
-1.04878e-13
3.35749e-12
-5.51765e-14
3.36128e-12
-1.0368e-14
3.34415e-12
3.13264e-14
3.31018e-12
6.62293e-14
3.26315e-12
9.21803e-14
3.20425e-12
1.16078e-13
3.13491e-12
1.36066e-13
3.05555e-12
1.57337e-13
2.97046e-12
1.68563e-13
2.88126e-12
1.76954e-13
2.78832e-12
1.84408e-13
2.69422e-12
1.87214e-13
2.59858e-12
1.90157e-13
2.50297e-12
1.90366e-13
2.40888e-12
1.87534e-13
2.31646e-12
1.84225e-13
2.22618e-12
1.80146e-13
2.13854e-12
1.75012e-13
2.05387e-12
1.69171e-13
1.9722e-12
1.63173e-13
1.89387e-12
1.56646e-13
1.81878e-12
1.50068e-13
1.74702e-12
1.43681e-13
1.67833e-12
1.37443e-13
1.61266e-12
1.31585e-13
1.54971e-12
1.26072e-13
1.48949e-12
1.20696e-13
1.43147e-12
1.1608e-13
1.3759e-12
1.11389e-13
1.32239e-12
1.0727e-13
1.27072e-12
1.03405e-13
1.22074e-12
1.00102e-13
1.17247e-12
9.67202e-14
1.12536e-12
9.44415e-14
1.07955e-12
9.16431e-14
1.03515e-12
8.90346e-14
9.91795e-13
8.67855e-14
9.49585e-13
8.45021e-14
9.08227e-13
8.27726e-14
8.67703e-13
8.10754e-14
8.28167e-13
7.9165e-14
7.89322e-13
7.76827e-14
7.51358e-13
7.59211e-14
7.14193e-13
7.43875e-14
6.77772e-13
7.27792e-14
6.42006e-13
7.15728e-14
6.0697e-13
7.00945e-14
5.7269e-13
6.85897e-14
5.39196e-13
6.7047e-14
5.06336e-13
6.57495e-14
4.74107e-13
6.44571e-14
4.4256e-13
6.31263e-14
4.11709e-13
6.17194e-14
3.81375e-13
6.05724e-14
3.51716e-13
5.92654e-14
3.22767e-13
5.79687e-14
2.94482e-13
5.64937e-14
2.6687e-13
5.50066e-14
2.4009e-13
5.32293e-14
2.14185e-13
5.09954e-14
1.89233e-13
4.77188e-14
1.64334e-13
4.19929e-14
1.32273e-13
3.2714e-14
6.7386e-14
1.40748e-14
3.75078e-14
1.32866e-13
1.08835e-18
1.60879e-13
8.60287e-22
-1.5883e-22
8.57838e-22
-3.61892e-25
8.55357e-22
5.01478e-24
8.50032e-22
1.02364e-23
8.42225e-22
1.54062e-23
8.31834e-22
2.04727e-23
8.19426e-22
2.52807e-23
8.04537e-22
2.96234e-23
7.87631e-22
3.37076e-23
7.6902e-22
3.73265e-23
7.48547e-22
4.04802e-23
7.26678e-22
4.32719e-23
7.03362e-22
4.57017e-23
6.79219e-22
4.76663e-23
6.53886e-22
4.92173e-23
6.27882e-22
5.03029e-23
6.01257e-22
5.11818e-23
5.74115e-22
5.17505e-23
5.46715e-22
5.18539e-23
5.19159e-22
5.16988e-23
4.91345e-22
5.13369e-23
4.63738e-22
5.08716e-23
4.36079e-22
5.01995e-23
4.08679e-22
4.92689e-23
3.8164e-22
4.82867e-23
3.54654e-22
4.70976e-23
3.28081e-22
4.59085e-23
3.02076e-22
4.46678e-23
2.76227e-22
4.33753e-23
2.50998e-22
4.22379e-23
2.26131e-22
4.09971e-23
2.01884e-22
3.98598e-23
1.77896e-22
3.86707e-23
1.54269e-22
3.76367e-23
1.3116e-22
3.67061e-23
1.08412e-22
3.57756e-23
8.57683e-23
3.50001e-23
6.34861e-23
3.44314e-23
4.1359e-23
3.38627e-23
1.92836e-23
3.35008e-23
3.3294e-23
4.60202e-13
-1.32829e-12
9.07346e-13
-1.28822e-12
1.3304e-12
-1.22892e-12
1.71989e-12
-1.13868e-12
2.06847e-12
-1.0269e-12
2.37275e-12
-9.04655e-13
2.6323e-12
-7.7915e-13
2.84846e-12
-6.55325e-13
3.02367e-12
-5.36863e-13
3.16128e-12
-4.26306e-13
3.26449e-12
-3.24537e-13
3.33707e-12
-2.32343e-13
3.38219e-12
-1.49988e-13
3.40264e-12
-7.56285e-14
3.40049e-12
-8.21031e-15
3.37771e-12
5.41034e-14
3.33977e-12
1.04175e-13
3.28833e-12
1.43626e-13
3.22579e-12
1.78616e-13
3.15095e-12
2.10909e-13
3.06854e-12
2.39754e-13
2.98036e-12
2.5674e-13
2.88803e-12
2.69283e-13
2.79234e-12
2.80107e-13
2.69615e-12
2.83396e-13
2.59815e-12
2.88165e-13
2.50102e-12
2.87496e-13
2.40555e-12
2.83005e-13
2.31199e-12
2.77784e-13
2.2209e-12
2.71234e-13
2.13268e-12
2.63235e-13
2.04759e-12
2.54265e-13
1.96574e-12
2.45027e-13
1.88746e-12
2.34923e-13
1.81258e-12
2.24949e-13
1.74092e-12
2.15346e-13
1.67253e-12
2.05832e-13
1.60698e-12
1.97137e-13
1.54444e-12
1.88607e-13
1.48464e-12
1.805e-13
1.42708e-12
1.73651e-13
1.37178e-12
1.66684e-13
1.31863e-12
1.60421e-13
1.26725e-12
1.54786e-13
1.21761e-12
1.49743e-13
1.16967e-12
1.44663e-13
1.12279e-12
1.41326e-13
1.07721e-12
1.37222e-13
1.0329e-12
1.33344e-13
9.89653e-13
1.30036e-13
9.47569e-13
1.2659e-13
9.06386e-13
1.23957e-13
8.65904e-13
1.2156e-13
8.26367e-13
1.18704e-13
7.87553e-13
1.16499e-13
7.49678e-13
1.13797e-13
7.12541e-13
1.11525e-13
6.76207e-13
1.09116e-13
6.40497e-13
1.07284e-13
6.05479e-13
1.05109e-13
5.71255e-13
1.02813e-13
5.37653e-13
1.0065e-13
5.04768e-13
9.8633e-14
4.72611e-13
9.66111e-14
4.41077e-13
9.46585e-14
4.10135e-13
9.26611e-14
3.79909e-13
9.07973e-14
3.50239e-13
8.89324e-14
3.21203e-13
8.70039e-14
2.92838e-13
8.48562e-14
2.65056e-13
8.27865e-14
2.37826e-13
8.04539e-14
2.10823e-13
7.79997e-14
1.83596e-13
7.49416e-14
1.5379e-13
7.17961e-14
1.16751e-13
6.97487e-14
5.71629e-14
7.36594e-14
3.30513e-14
1.56976e-13
5.45731e-19
1.93927e-13
8.60287e-22
-1.98542e-22
8.63215e-22
-5.16988e-25
8.60578e-22
7.65142e-24
8.55201e-22
1.56647e-23
8.4724e-22
2.3523e-23
8.36693e-22
3.10193e-23
8.2382e-22
3.82054e-23
8.08621e-22
4.48229e-23
7.9125e-22
5.0975e-23
7.72173e-22
5.63517e-23
7.5139e-22
6.12114e-23
7.29056e-22
6.53473e-23
7.05327e-22
6.89145e-23
6.80718e-22
7.18096e-23
6.55024e-22
7.40844e-23
6.28657e-22
7.57387e-23
6.01774e-22
7.69278e-23
5.74218e-22
7.75999e-23
5.46611e-22
7.78584e-23
5.18746e-22
7.75999e-23
4.9088e-22
7.70312e-23
4.63014e-22
7.61523e-23
4.35149e-22
7.50149e-23
4.07748e-22
7.36708e-23
3.80451e-22
7.20681e-23
3.53465e-22
7.02587e-23
3.26943e-22
6.85009e-23
3.00732e-22
6.66397e-23
2.75089e-22
6.47269e-23
2.49757e-22
6.27106e-23
2.24993e-22
6.09012e-23
2.00695e-22
5.91434e-23
1.7681e-22
5.74374e-23
1.53339e-22
5.58347e-23
1.30229e-22
5.44388e-23
1.07533e-22
5.31464e-23
8.51479e-23
5.2009e-23
6.29691e-23
5.10784e-23
4.09971e-23
5.0458e-23
1.90769e-23
5.00444e-23
4.9941e-23
4.96111e-13
-1.8244e-12
9.73548e-13
-1.76566e-12
1.4226e-12
-1.67797e-12
1.83102e-12
-1.54709e-12
2.19048e-12
-1.38636e-12
2.49839e-12
-1.21257e-12
2.75619e-12
-1.03695e-12
2.96687e-12
-8.66009e-13
3.13438e-12
-7.0437e-13
3.263e-12
-5.54928e-13
3.35708e-12
-4.18609e-13
3.42082e-12
-2.96085e-13
3.45701e-12
-1.86176e-13
3.46721e-12
-8.58214e-14
3.4582e-12
8.04507e-16
3.42796e-12
8.43436e-14
3.38371e-12
1.48428e-13
3.3248e-12
2.02545e-13
3.25755e-12
2.45867e-13
3.17438e-12
2.94075e-13
3.08775e-12
3.26394e-13
2.9946e-12
3.49887e-13
2.89785e-12
3.66031e-13
2.79827e-12
3.79697e-13
2.69854e-12
3.8313e-13
2.59739e-12
3.89312e-13
2.49781e-12
3.87077e-13
2.40024e-12
3.80576e-13
2.30504e-12
3.72982e-13
2.21266e-12
3.6362e-13
2.12373e-12
3.52162e-13
2.03804e-12
3.39955e-13
1.95587e-12
3.27202e-13
1.87761e-12
3.13185e-13
1.8028e-12
2.99755e-13
1.73156e-12
2.86585e-13
1.66354e-12
2.73863e-13
1.59857e-12
2.62107e-13
1.53653e-12
2.50647e-13
1.4771e-12
2.39928e-13
1.42018e-12
2.30581e-13
1.36553e-12
2.21335e-13
1.31297e-12
2.12988e-13
1.26213e-12
2.05626e-13
1.21283e-12
1.99045e-13
1.16542e-12
1.92076e-13
1.11906e-12
1.87691e-13
1.07366e-12
1.82623e-13
1.02963e-12
1.77373e-13
9.86599e-13
1.73071e-13
9.447e-13
1.68494e-13
9.03622e-13
1.65037e-13
8.63262e-13
1.61923e-13
8.23834e-13
1.58135e-13
7.8521e-13
1.55124e-13
7.47346e-13
1.51663e-13
7.10243e-13
1.4863e-13
6.73902e-13
1.45458e-13
6.38249e-13
1.42936e-13
6.03327e-13
1.4003e-13
5.69085e-13
1.37055e-13
5.35565e-13
1.34169e-13
5.02776e-13
1.31421e-13
4.70628e-13
1.2876e-13
4.39157e-13
1.26128e-13
4.0824e-13
1.2358e-13
3.77911e-13
1.21123e-13
3.48219e-13
1.18624e-13
3.19202e-13
1.16021e-13
2.90707e-13
1.13349e-13
2.62731e-13
1.10763e-13
2.352e-13
1.07982e-13
2.07905e-13
1.05291e-13
1.80069e-13
1.02777e-13
1.50828e-13
1.01037e-13
1.19994e-13
1.0058e-13
8.89921e-14
1.04662e-13
3.76321e-14
2.08335e-13
-2.21098e-19
2.31558e-13
8.8014e-22
-3.1766e-22
8.71331e-22
-8.27181e-25
8.68643e-22
1.03398e-23
8.6306e-22
2.11965e-23
8.54736e-22
3.18465e-23
8.43879e-22
4.21345e-23
8.30386e-22
5.16471e-23
8.14773e-22
6.06427e-23
7.96678e-22
6.87594e-23
7.77033e-22
7.61006e-23
7.55474e-22
8.2563e-23
7.32624e-22
8.80947e-23
7.08222e-22
9.26442e-23
6.82941e-22
9.64699e-23
6.56678e-22
9.93651e-23
6.29898e-22
1.01588e-22
6.02446e-22
1.03087e-22
5.74529e-22
1.03915e-22
5.46301e-22
1.04121e-22
5.18177e-22
1.03759e-22
4.89949e-22
1.02881e-22
4.61877e-22
1.01692e-22
4.33856e-22
1.00037e-22
4.06094e-22
9.8176e-23
3.78694e-22
9.60047e-23
3.51655e-22
9.37299e-23
3.25082e-22
9.12484e-23
2.98871e-22
8.86634e-23
2.73125e-22
8.60268e-23
2.47947e-22
8.34936e-23
2.23184e-22
8.09603e-23
1.9904e-22
7.85822e-23
1.75207e-22
7.63074e-23
1.51891e-22
7.41361e-23
1.28988e-22
7.22749e-23
1.06396e-22
7.06206e-23
8.4269e-23
6.92247e-23
6.2297e-23
6.80873e-23
4.06353e-23
6.72084e-23
1.89735e-23
6.66914e-23
6.6588e-23
5.47486e-13
-2.37189e-12
1.06985e-12
-2.28802e-12
1.55604e-12
-2.16416e-12
1.99029e-12
-1.98134e-12
2.36333e-12
-1.7594e-12
2.67373e-12
-1.52296e-12
2.92674e-12
-1.28996e-12
3.12816e-12
-1.06743e-12
3.28359e-12
-8.59792e-13
3.3992e-12
-6.70535e-13
3.48049e-12
-4.999e-13
3.53181e-12
-3.47395e-13
3.55422e-12
-2.08584e-13
3.55356e-12
-8.51619e-14
3.53336e-12
2.10123e-14
3.49456e-12
1.23143e-13
3.44162e-12
2.01378e-13
3.37383e-12
2.70342e-13
3.29711e-12
3.2259e-13
3.206e-12
3.85182e-13
3.11276e-12
4.19645e-13
3.01293e-12
4.4972e-13
2.90994e-12
4.69022e-13
2.80562e-12
4.84026e-13
2.70073e-12
4.88014e-13
2.59557e-12
4.94474e-13
2.49281e-12
4.89839e-13
2.39252e-12
4.80868e-13
2.29505e-12
4.70457e-13
2.20128e-12
4.57391e-13
2.11121e-12
4.42236e-13
2.02491e-12
4.26248e-13
1.9424e-12
4.09716e-13
1.86415e-12
3.91435e-13
1.78959e-12
3.74323e-13
1.71894e-12
3.57227e-13
1.65144e-12
3.41368e-13
1.5872e-12
3.26357e-13
1.52602e-12
3.11825e-13
1.46744e-12
2.98513e-13
1.41128e-12
2.86735e-13
1.35742e-12
2.75196e-13
1.3055e-12
2.64907e-13
1.25531e-12
2.55819e-13
1.20666e-12
2.47697e-13
1.15966e-12
2.39078e-13
1.11422e-12
2.33138e-13
1.06911e-12
2.27737e-13
1.02529e-12
2.21189e-13
9.82551e-13
2.15816e-13
9.40879e-13
2.10166e-13
9.0003e-13
2.05888e-13
8.59935e-13
2.02019e-13
8.20674e-13
1.97396e-13
7.82013e-13
1.93788e-13
7.44297e-13
1.8938e-13
7.07241e-13
1.85688e-13
6.70978e-13
1.81723e-13
6.35301e-13
1.78616e-13
6.00531e-13
1.74803e-13
5.66339e-13
1.7125e-13
5.32921e-13
1.67589e-13
5.00131e-13
1.64212e-13
4.67956e-13
1.60936e-13
4.36545e-13
1.57537e-13
4.05591e-13
1.54534e-13
3.75283e-13
1.51433e-13
3.45629e-13
1.48277e-13
3.16529e-13
1.45122e-13
2.87922e-13
1.41958e-13
2.599e-13
1.38786e-13
2.32373e-13
1.3551e-13
2.05321e-13
1.32344e-13
1.78681e-13
1.29417e-13
1.51798e-13
1.2792e-13
1.25924e-13
1.26455e-13
9.90695e-14
1.31517e-13
4.10375e-14
2.66366e-13
-5.33873e-19
2.72596e-13
8.86757e-22
-3.83838e-22
8.82498e-22
-9.30578e-25
8.795e-22
1.31315e-23
8.73658e-22
2.71936e-23
8.65024e-22
4.07903e-23
8.53392e-22
5.3715e-23
8.3933e-22
6.59677e-23
8.22838e-22
7.72897e-23
8.04071e-22
8.75261e-23
7.83495e-22
9.6625e-23
7.61058e-22
1.04638e-22
7.37121e-22
1.11618e-22
7.12099e-22
1.17253e-22
6.85888e-22
1.21802e-22
6.58849e-22
1.2537e-22
6.31397e-22
1.28058e-22
6.03222e-22
1.29661e-22
5.74735e-22
1.30539e-22
5.45991e-22
1.30695e-22
5.17298e-22
1.30178e-22
4.8876e-22
1.29092e-22
4.60274e-22
1.27386e-22
4.31995e-22
1.25318e-22
4.03923e-22
1.22836e-22
3.76419e-22
1.20096e-22
3.49174e-22
1.17201e-22
3.22497e-22
1.14048e-22
2.96234e-22
1.10842e-22
2.70488e-22
1.07637e-22
2.45414e-22
1.04432e-22
2.20857e-22
1.0133e-22
1.96714e-22
9.82794e-23
1.73088e-22
9.53326e-23
1.50082e-22
9.27993e-23
1.27282e-22
9.03695e-23
1.05052e-22
8.83532e-23
8.31317e-23
8.65955e-23
6.14182e-23
8.51996e-23
4.01183e-23
8.4269e-23
1.88184e-23
8.36486e-23
8.34419e-23
6.19327e-13
-2.99122e-12
1.20687e-12
-2.87556e-12
1.74329e-12
-2.70058e-12
2.20934e-12
-2.44739e-12
2.5978e-12
-2.14786e-12
2.9067e-12
-1.83185e-12
3.14899e-12
-1.53224e-12
3.33529e-12
-1.25373e-12
3.47274e-12
-9.97233e-13
3.57003e-12
-7.67829e-13
3.63529e-12
-5.65149e-13
3.66691e-12
-3.79018e-13
3.67407e-12
-2.15736e-13
3.66301e-12
-7.40882e-14
3.62642e-12
5.75967e-14
3.57694e-12
1.72631e-13
3.51225e-12
2.66073e-13
3.43589e-12
3.46713e-13
3.34383e-12
4.14651e-13
3.24597e-12
4.83047e-13
3.14293e-12
5.22688e-13
3.03472e-12
5.57936e-13
2.92389e-12
5.79855e-13
2.81376e-12
5.94161e-13
2.70204e-12
5.99739e-13
2.59212e-12
6.04401e-13
2.48532e-12
5.96645e-13
2.3818e-12
5.84387e-13
2.28171e-12
5.70551e-13
2.18608e-12
5.53013e-13
2.09482e-12
5.33499e-13
2.00767e-12
5.13406e-13
1.92491e-12
4.92477e-13
1.84677e-12
4.69573e-13
1.77287e-12
4.48226e-13
1.70281e-12
4.27291e-13
1.63617e-12
4.08011e-13
1.5729e-12
3.89627e-13
1.51277e-12
3.71952e-13
1.45514e-12
3.56148e-13
1.40022e-12
3.41661e-13
1.34713e-12
3.28281e-13
1.29636e-12
3.15681e-13
1.24689e-12
3.05297e-13
1.19939e-12
2.95199e-13
1.1525e-12
2.85965e-13
1.10821e-12
2.77428e-13
1.06348e-12
2.72467e-13
1.01988e-12
2.64789e-13
9.77637e-13
2.58066e-13
9.36078e-13
2.51727e-13
8.95577e-13
2.46392e-13
8.55655e-13
2.41945e-13
8.16577e-13
2.36476e-13
7.78089e-13
2.32282e-13
7.40468e-13
2.27004e-13
7.03541e-13
2.22618e-13
6.67315e-13
2.1795e-13
6.31769e-13
2.14163e-13
5.96936e-13
2.0964e-13
5.62819e-13
2.05367e-13
5.29512e-13
2.00899e-13
4.9683e-13
1.96896e-13
4.64793e-13
1.92975e-13
4.33417e-13
1.88917e-13
4.02511e-13
1.85442e-13
3.72205e-13
1.81742e-13
3.4254e-13
1.77945e-13
3.13375e-13
1.7429e-13
2.84718e-13
1.70619e-13
2.56653e-13
1.66855e-13
2.29202e-13
1.62963e-13
2.02613e-13
1.58937e-13
1.77106e-13
1.54927e-13
1.52392e-13
1.52636e-13
1.31636e-13
1.47214e-13
1.11711e-13
1.51445e-13
3.11071e-14
3.46972e-13
-1.33339e-18
3.03708e-13
8.99993e-22
-4.36779e-22
8.96612e-22
-1.08567e-24
8.9351e-22
1.64402e-23
8.87255e-22
3.36042e-23
8.77897e-22
5.03546e-23
8.65696e-22
6.61745e-23
8.50704e-22
8.10637e-23
8.33023e-22
9.48156e-23
8.13222e-22
1.07172e-22
7.91457e-22
1.18235e-22
7.67986e-22
1.27851e-22
7.4286e-22
1.3602e-22
7.16597e-22
1.42844e-22
6.89403e-22
1.48272e-22
6.61589e-22
1.52356e-22
6.33052e-22
1.55303e-22
6.04049e-22
1.57164e-22
5.74891e-22
1.57992e-22
5.45474e-22
1.58043e-22
5.16212e-22
1.57319e-22
4.87106e-22
1.55717e-22
4.58206e-22
1.53649e-22
4.29514e-22
1.51012e-22
4.01183e-22
1.47962e-22
3.73472e-22
1.44653e-22
3.4602e-22
1.40931e-22
3.19343e-22
1.3726e-22
2.92925e-22
1.33331e-22
2.67334e-22
1.29505e-22
2.42364e-22
1.2568e-22
2.17807e-22
1.21854e-22
1.93767e-22
1.18183e-22
1.70554e-22
1.14926e-22
1.47652e-22
1.11773e-22
1.25318e-22
1.08826e-22
1.03242e-22
1.06396e-22
8.17358e-23
1.0438e-22
6.05393e-23
1.02674e-22
3.94979e-23
1.01588e-22
1.86633e-23
1.00916e-22
1.00709e-22
7.18428e-13
-3.70964e-12
1.39831e-12
-3.55544e-12
2.00568e-12
-3.30795e-12
2.50582e-12
-2.94753e-12
2.90821e-12
-2.55025e-12
3.20652e-12
-2.13017e-12
3.42813e-12
-1.75385e-12
3.5907e-12
-1.41629e-12
3.70176e-12
-1.10829e-12
3.77512e-12
-8.41192e-13
3.8156e-12
-6.05617e-13
3.82761e-12
-3.91021e-13
3.81911e-12
-2.07229e-13
3.7904e-12
-4.5375e-14
3.738e-12
1.09995e-13
3.67531e-12
2.35331e-13
3.59424e-12
3.47145e-13
3.50879e-12
4.32173e-13
3.39808e-12
5.25368e-13
3.293e-12
5.88132e-13
3.17693e-12
6.38767e-13
3.05943e-12
6.75436e-13
2.93882e-12
7.00473e-13
2.82194e-12
7.11043e-13
2.7014e-12
7.20288e-13
2.58599e-12
7.19817e-13
2.47455e-12
7.08091e-13
2.36715e-12
6.91783e-13
2.26423e-12
6.73479e-13
2.16638e-12
6.5086e-13
2.07388e-12
6.26007e-13
1.98561e-12
6.01671e-13
1.90319e-12
5.749e-13
1.82559e-12
5.4718e-13
1.75238e-12
5.21435e-13
1.68319e-12
4.96484e-13
1.61768e-12
4.73525e-13
1.55561e-12
4.517e-13
1.49678e-12
4.30779e-13
1.44047e-12
4.12466e-13
1.38686e-12
3.95273e-13
1.33509e-12
3.80052e-13
1.28542e-12
3.6536e-13
1.23687e-12
3.5384e-13
1.19058e-12
3.41495e-13
1.14407e-12
3.32476e-13
1.10077e-12
3.20733e-13
1.05711e-12
3.16126e-13
1.01381e-12
3.08085e-13
9.71977e-13
2.99901e-13
9.30643e-13
2.93064e-13
8.90441e-13
2.86598e-13
8.50753e-13
2.81636e-13
8.11793e-13
2.75437e-13
7.73396e-13
2.70679e-13
7.35782e-13
2.64624e-13
6.99043e-13
2.59363e-13
6.62898e-13
2.54096e-13
6.27533e-13
2.49531e-13
5.92661e-13
2.44514e-13
5.58701e-13
2.3933e-13
5.25401e-13
2.34201e-13
4.92773e-13
2.29528e-13
4.60919e-13
2.24831e-13
4.29563e-13
2.20276e-13
3.98665e-13
2.16345e-13
3.68571e-13
2.11841e-13
3.38926e-13
2.07593e-13
3.09693e-13
2.03527e-13
2.80953e-13
1.99363e-13
2.52758e-13
1.95054e-13
2.25191e-13
1.90535e-13
1.98675e-13
1.85458e-13
1.73871e-13
1.79738e-13
1.52605e-13
1.73905e-13
1.33615e-13
1.66208e-13
7.48876e-14
2.10177e-13
1.38662e-14
4.08e-13
-2.30826e-18
3.17581e-13
9.13227e-22
-4.23545e-22
9.14035e-22
-9.30578e-25
9.10778e-22
2.00074e-23
9.03953e-22
4.05836e-23
8.93769e-22
6.0591e-23
8.80586e-22
7.95644e-23
8.64404e-22
9.72454e-23
8.45482e-22
1.13427e-22
8.24182e-22
1.28058e-22
8.01073e-22
1.41034e-22
7.76206e-22
1.52253e-22
7.49684e-22
1.61714e-22
7.22077e-22
1.69417e-22
6.93539e-22
1.75569e-22
6.64485e-22
1.80325e-22
6.34861e-22
1.83427e-22
6.04928e-22
1.85495e-22
5.74942e-22
1.86322e-22
5.4475e-22
1.86012e-22
5.1461e-22
1.84771e-22
4.84986e-22
1.82962e-22
4.5557e-22
1.80325e-22
4.26412e-22
1.77172e-22
3.97874e-22
1.73605e-22
3.6975e-22
1.69572e-22
3.42401e-22
1.65281e-22
3.15414e-22
1.60783e-22
2.89151e-22
1.56234e-22
2.63509e-22
1.51736e-22
2.38538e-22
1.47238e-22
2.14136e-22
1.42844e-22
1.9051e-22
1.38656e-22
1.67401e-22
1.3452e-22
1.44705e-22
1.30901e-22
1.22836e-22
1.27748e-22
1.01278e-22
1.24853e-22
8.00297e-23
1.22423e-22
5.93502e-23
1.20613e-22
3.88258e-23
1.19269e-22
1.85082e-23
1.18545e-22
1.18339e-22
8.54788e-13
-4.56443e-12
1.669e-12
-4.36965e-12
2.37847e-12
-4.01743e-12
2.90152e-12
-3.47058e-12
3.30231e-12
-2.95103e-12
3.58282e-12
-2.41068e-12
3.76986e-12
-1.94089e-12
3.89251e-12
-1.53894e-12
3.96847e-12
-1.18425e-12
4.00937e-12
-8.82086e-13
4.02127e-12
-6.17512e-13
4.01239e-12
-3.82137e-13
3.98718e-12
-1.82015e-13
3.93321e-12
8.61116e-15
3.86751e-12
1.75698e-13
3.78621e-12
3.16643e-13
3.69154e-12
4.41826e-13
3.58573e-12
5.37992e-13
3.46333e-12
6.47777e-13
3.34437e-12
7.07101e-13
3.21456e-12
7.68591e-13
3.08537e-12
8.04634e-13
2.95455e-12
8.31294e-13
2.82737e-12
8.3823e-13
2.69837e-12
8.49299e-13
2.57633e-12
8.41857e-13
2.45969e-12
8.24736e-13
2.34761e-12
8.03866e-13
2.24154e-12
7.79549e-13
2.1417e-12
7.50709e-13
2.04753e-12
7.20179e-13
1.95892e-12
6.90285e-13
1.87679e-12
6.57029e-13
1.79989e-12
6.24091e-13
1.7278e-12
5.93523e-13
1.65967e-12
5.64618e-13
1.59566e-12
5.37534e-13
1.53538e-12
5.11982e-13
1.47805e-12
4.88111e-13
1.42338e-12
4.67144e-13
1.37116e-12
4.47497e-13
1.32118e-12
4.3003e-13
1.27267e-12
4.13876e-13
1.22568e-12
4.00829e-13
1.1802e-12
3.86975e-13
1.13554e-12
3.77137e-13
1.09159e-12
3.64682e-13
1.04993e-12
3.57794e-13
1.00698e-12
3.51036e-13
9.65459e-13
3.41424e-13
9.24357e-13
3.34168e-13
8.84469e-13
3.26487e-13
8.45089e-13
3.21018e-13
8.06149e-13
3.14381e-13
7.68071e-13
3.08762e-13
7.30421e-13
3.02278e-13
6.93804e-13
2.95983e-13
6.57605e-13
2.90298e-13
6.22478e-13
2.84661e-13
5.87735e-13
2.79262e-13
5.53824e-13
2.73246e-13
5.20743e-13
2.67286e-13
4.88329e-13
2.61948e-13
4.56457e-13
2.56708e-13
4.25134e-13
2.51607e-13
3.94508e-13
2.46976e-13
3.6439e-13
2.41967e-13
3.34748e-13
2.3724e-13
3.05572e-13
2.32711e-13
2.7666e-13
2.28284e-13
2.48181e-13
2.2354e-13
2.20214e-13
2.18508e-13
1.92863e-13
2.12815e-13
1.66999e-13
2.0561e-13
1.45931e-13
1.94982e-13
1.36707e-13
1.75439e-13
5.1817e-14
2.95074e-13
1.51338e-14
4.4469e-13
-2.75829e-18
3.32723e-13
9.46315e-22
-4.76484e-22
9.35024e-22
-1.08567e-24
9.31302e-22
2.39365e-23
9.23961e-22
4.82867e-23
9.1269e-22
7.18613e-23
8.98267e-22
9.42986e-23
8.80586e-22
1.1503e-22
8.60113e-22
1.33848e-22
8.3721e-22
1.50702e-22
8.1224e-22
1.65436e-22
7.85615e-22
1.78154e-22
7.57387e-22
1.88701e-22
7.28229e-22
1.97489e-22
6.98192e-22
2.04262e-22
6.6769e-22
2.09328e-22
6.36929e-22
2.12741e-22
6.05755e-22
2.14653e-22
5.74632e-22
2.15274e-22
5.43509e-22
2.14705e-22
5.12749e-22
2.13154e-22
4.82298e-22
2.10724e-22
4.52416e-22
2.07674e-22
4.22793e-22
2.03848e-22
3.93841e-22
1.99506e-22
3.6551e-22
1.94853e-22
3.37852e-22
1.89941e-22
3.10865e-22
1.84771e-22
2.84654e-22
1.79602e-22
2.59011e-22
1.74432e-22
2.34092e-22
1.6921e-22
2.09949e-22
1.64247e-22
1.86426e-22
1.59387e-22
1.6373e-22
1.54941e-22
1.41551e-22
1.50805e-22
1.19941e-22
1.47083e-22
9.87964e-23
1.43774e-22
7.8272e-23
1.41086e-22
5.8006e-23
1.38966e-22
3.80503e-23
1.37415e-22
1.83014e-23
1.3664e-22
1.36485e-22
1.05399e-12
-5.61842e-12
2.04114e-12
-5.3568e-12
2.84885e-12
-4.82513e-12
3.44812e-12
-4.06984e-12
3.82257e-12
-3.32548e-12
4.05288e-12
-2.64098e-12
4.18094e-12
-2.06894e-12
4.24748e-12
-1.60548e-12
4.27206e-12
-1.20883e-12
4.27185e-12
-8.81867e-13
4.25223e-12
-5.97892e-13
4.22187e-12
-3.51765e-13
4.17034e-12
-1.30483e-13
4.09428e-12
8.46786e-14
4.01269e-12
2.573e-13
3.91083e-12
4.18516e-13
3.80118e-12
5.51481e-13
3.668e-12
6.71181e-13
3.54006e-12
7.75724e-13
3.39847e-12
8.48701e-13
3.2555e-12
9.11569e-13
3.1116e-12
9.48547e-13
2.96938e-12
9.73516e-13
2.82891e-12
9.78717e-13
2.69184e-12
9.86374e-13
2.56202e-12
9.7168e-13
2.43896e-12
9.47804e-13
2.32211e-12
9.20726e-13
2.21273e-12
8.88934e-13
2.11109e-12
8.52346e-13
2.01473e-12
8.16541e-13
1.92665e-12
7.78373e-13
1.84512e-12
7.38563e-13
1.76932e-12
6.99894e-13
1.69866e-12
6.6418e-13
1.63219e-12
6.31093e-13
1.57017e-12
5.99555e-13
1.512e-12
5.70157e-13
1.45663e-12
5.43481e-13
1.40397e-12
5.19805e-13
1.3536e-12
4.97878e-13
1.30574e-12
4.77892e-13
1.25866e-12
4.60955e-13
1.21321e-12
4.46282e-13
1.16873e-12
4.31459e-13
1.12589e-12
4.19972e-13
1.08163e-12
4.08947e-13
1.04192e-12
3.97507e-13
9.99799e-13
3.93159e-13
9.58273e-13
3.82952e-13
9.17676e-13
3.74768e-13
8.77809e-13
3.66357e-13
8.3879e-13
3.60042e-13
7.99903e-13
3.53272e-13
7.62045e-13
3.46622e-13
7.24359e-13
3.39968e-13
6.87827e-13
3.3252e-13
6.51578e-13
3.26553e-13
6.16813e-13
3.19431e-13
5.82058e-13
3.14024e-13
5.48285e-13
3.07024e-13
5.15341e-13
3.00237e-13
4.83012e-13
2.94283e-13
4.5135e-13
2.88378e-13
4.2018e-13
2.82786e-13
3.89785e-13
2.77379e-13
3.59796e-13
2.71963e-13
3.30212e-13
2.66833e-13
3.00931e-13
2.61999e-13
2.72004e-13
2.57221e-13
2.4325e-13
2.52305e-13
2.14635e-13
2.47133e-13
1.86196e-13
2.41264e-13
1.57531e-13
2.34285e-13
1.28496e-13
2.24027e-13
9.47869e-14
2.09159e-13
3.10465e-14
3.58823e-13
1.61082e-14
4.59637e-13
-3.22601e-18
3.48841e-13
9.72785e-22
-4.76485e-22
9.60047e-22
-9.30578e-25
9.55704e-22
2.82792e-23
9.47535e-22
5.70755e-23
9.35128e-22
8.45792e-23
9.19049e-22
1.1048e-22
8.99352e-22
1.34417e-22
8.76915e-22
1.55975e-22
8.51996e-22
1.75259e-22
8.24958e-22
1.91854e-22
7.96213e-22
2.0602e-22
7.66124e-22
2.17704e-22
7.35053e-22
2.27268e-22
7.03259e-22
2.34609e-22
6.71102e-22
2.39882e-22
6.38842e-22
2.43398e-22
6.06375e-22
2.45207e-22
5.74012e-22
2.45466e-22
5.4201e-22
2.44484e-22
5.1037e-22
2.42467e-22
4.79196e-22
2.39417e-22
4.4859e-22
2.35591e-22
4.18502e-22
2.31145e-22
3.89189e-22
2.26286e-22
3.60599e-22
2.20909e-22
3.32733e-22
2.15222e-22
3.05695e-22
2.09432e-22
2.79484e-22
2.03486e-22
2.53841e-22
1.97489e-22
2.29077e-22
1.91803e-22
2.05089e-22
1.86167e-22
1.82083e-22
1.80842e-22
1.59594e-22
1.75879e-22
1.37777e-22
1.71278e-22
1.16632e-22
1.67039e-22
9.61598e-23
1.63368e-22
7.61523e-23
1.60318e-22
5.64551e-23
1.57888e-22
3.73265e-23
1.5613e-22
1.8198e-23
1.552e-22
1.55096e-22
1.32906e-12
-6.94748e-12
2.57072e-12
-6.59845e-12
3.54769e-12
-5.80209e-12
4.17232e-12
-4.69447e-12
4.47999e-12
-3.63314e-12
4.61244e-12
-2.77342e-12
4.65005e-12
-2.10655e-12
4.64369e-12
-1.59912e-12
4.61119e-12
-1.17633e-12
4.55959e-12
-8.3026e-13
4.50249e-12
-5.40791e-13
4.44501e-12
-2.94279e-13
4.36696e-12
-5.2429e-14
4.2764e-12
1.75257e-13
4.16949e-12
3.64218e-13
4.05429e-12
5.33717e-13
3.91391e-12
6.91876e-13
3.76717e-12
8.17926e-13
3.61843e-12
9.24475e-13
3.45766e-12
1.00949e-12
3.29735e-12
1.07189e-12
3.13677e-12
1.10914e-12
2.98052e-12
1.12978e-12
2.82663e-12
1.13262e-12
2.6795e-12
1.13351e-12
2.54113e-12
1.11006e-12
2.41092e-12
1.07802e-12
2.28923e-12
1.04242e-12
2.17682e-12
1.00135e-12
2.0726e-12
9.56568e-13
1.97556e-12
9.13584e-13
1.88835e-12
8.6559e-13
1.80792e-12
8.18992e-13
1.73362e-12
7.74198e-13
1.66454e-12
7.33268e-13
1.60064e-12
6.94999e-13
1.54101e-12
6.59185e-13
1.48541e-12
6.2576e-13
1.4324e-12
5.96496e-13
1.38231e-12
5.69891e-13
1.33445e-12
5.45748e-13
1.28814e-12
5.24198e-13
1.24314e-12
5.05957e-13
1.19944e-12
4.89993e-13
1.15649e-12
4.74406e-13
1.11492e-12
4.6155e-13
1.07245e-12
4.51415e-13
1.03244e-12
4.37524e-13
9.92123e-13
4.33475e-13
9.50615e-13
4.24466e-13
9.10633e-13
4.14752e-13
8.70493e-13
4.06502e-13
8.3198e-13
3.98559e-13
7.93259e-13
3.91996e-13
7.55372e-13
3.84515e-13
7.17541e-13
3.77806e-13
6.81039e-13
3.69029e-13
6.45042e-13
3.62555e-13
6.10224e-13
3.54254e-13
5.75729e-13
3.48525e-13
5.41909e-13
3.40854e-13
5.09106e-13
3.33044e-13
4.77041e-13
3.26355e-13
4.45764e-13
3.1966e-13
4.1477e-13
3.13788e-13
3.84542e-13
3.07617e-13
3.54754e-13
3.01762e-13
3.25292e-13
2.96306e-13
2.96054e-13
2.9125e-13
2.67084e-13
2.86201e-13
2.38004e-13
2.81396e-13
2.08777e-13
2.76373e-13
1.78714e-13
2.71338e-13
1.46409e-13
2.66601e-13
1.0961e-13
2.60835e-13
5.47614e-14
2.64019e-13
1.72272e-14
3.96371e-13
1.26068e-14
4.64269e-13
-3.76955e-18
3.61462e-13
9.99254e-22
-4.89712e-22
9.89256e-22
-9.82277e-25
9.845e-22
3.33457e-23
9.75091e-22
6.68982e-23
9.61029e-22
9.88998e-23
9.42883e-22
1.28782e-22
9.20962e-22
1.56079e-22
8.96199e-22
1.80532e-22
8.68643e-22
2.02039e-22
8.39123e-22
2.2065e-22
8.07897e-22
2.36263e-22
7.75637e-22
2.49085e-22
7.42395e-22
2.59114e-22
7.08532e-22
2.66766e-22
6.74618e-22
2.72246e-22
6.40651e-22
2.75503e-22
6.06634e-22
2.77002e-22
5.73081e-22
2.76795e-22
5.3989e-22
2.75348e-22
5.0732e-22
2.72659e-22
4.7537e-22
2.68989e-22
4.44196e-22
2.64491e-22
4.1359e-22
2.59373e-22
3.83812e-22
2.53738e-22
3.54912e-22
2.47637e-22
3.26943e-22
2.41278e-22
2.9975e-22
2.34764e-22
2.73487e-22
2.28198e-22
2.48154e-22
2.21684e-22
2.23442e-22
2.15274e-22
1.99764e-22
2.09122e-22
1.7712e-22
2.03176e-22
1.54941e-22
1.97541e-22
1.33538e-22
1.9232e-22
1.13014e-22
1.8777e-22
9.31095e-23
1.83789e-22
7.36708e-23
1.80274e-22
5.48007e-23
1.77534e-22
3.63443e-23
1.75621e-22
1.80429e-23
1.74587e-22
1.74432e-22
1.81161e-12
-8.75909e-12
3.44014e-12
-8.22697e-12
4.5942e-12
-6.95614e-12
5.17446e-12
-5.27473e-12
5.31506e-12
-3.77373e-12
5.25881e-12
-2.71716e-12
5.1588e-12
-2.00653e-12
5.04842e-12
-1.48873e-12
4.96579e-12
-1.09369e-12
4.87356e-12
-7.38025e-13
4.77356e-12
-4.40781e-13
4.67237e-12
-1.93087e-13
4.58125e-12
3.8702e-14
4.47237e-12
2.84141e-13
4.34552e-12
4.91083e-13
4.20355e-12
6.75689e-13
4.04215e-12
8.5329e-13
3.87777e-12
9.82322e-13
3.6998e-12
1.10245e-12
3.51999e-12
1.1893e-12
3.33853e-12
1.25336e-12
3.15877e-12
1.28891e-12
2.9871e-12
1.30146e-12
2.81762e-12
1.30211e-12
2.65909e-12
1.29205e-12
2.51174e-12
1.25742e-12
2.37431e-12
1.21546e-12
2.24773e-12
1.16901e-12
2.13294e-12
1.11615e-12