/*--------------------------------*- C++ -*----------------------------------*\
  =========                 |
  \\      /  F ield         | OpenFOAM: The Open Source CFD Toolbox
   \\    /   O peration     | Website:  https://openfoam.org
    \\  /    A nd           | Version:  6
     \\/     M anipulation  |
\*---------------------------------------------------------------------------*/
FoamFile
{
    version     2.0;
    format      ascii;
    class       volVectorField;
    location    "9600";
    object      U;
}
// * * * * * * * * * * * * * * * * * * * * * * * * * * * * * * * * * * * * * //

dimensions      [0 1 -1 0 0 0 0];

internalField   nonuniform List<vector> 
4800
(
(8.78736e-08 0 -8.23161e-08)
(2.5442e-07 0 -8.22707e-08)
(4.15318e-07 0 -8.07094e-08)
(5.70408e-07 0 -7.56844e-08)
(7.12547e-07 0 -6.89699e-08)
(8.39832e-07 0 -6.14826e-08)
(9.51674e-07 0 -5.3587e-08)
(1.04776e-06 0 -4.56006e-08)
(1.12827e-06 0 -3.78115e-08)
(1.19386e-06 0 -3.04209e-08)
(1.24549e-06 0 -2.35236e-08)
(1.28423e-06 0 -1.71603e-08)
(1.31125e-06 0 -1.14477e-08)
(1.32773e-06 0 -6.31065e-09)
(1.33498e-06 0 -1.71767e-09)
(1.33357e-06 0 2.59729e-09)
(1.3248e-06 0 6.27441e-09)
(1.30959e-06 0 8.89768e-09)
(1.28894e-06 0 1.13336e-08)
(1.26405e-06 0 1.32524e-08)
(1.23549e-06 0 1.54806e-08)
(1.20343e-06 0 1.65574e-08)
(1.16886e-06 0 1.73894e-08)
(1.13304e-06 0 1.80961e-08)
(1.09623e-06 0 1.84159e-08)
(1.05867e-06 0 1.86543e-08)
(1.02077e-06 0 1.86827e-08)
(9.83067e-07 0 1.84004e-08)
(9.45983e-07 0 1.80581e-08)
(9.09644e-07 0 1.76572e-08)
(8.74177e-07 0 1.71533e-08)
(8.39777e-07 0 1.65857e-08)
(8.06566e-07 0 1.59949e-08)
(7.74586e-07 0 1.53641e-08)
(7.43889e-07 0 1.47491e-08)
(7.14482e-07 0 1.42357e-08)
(6.86327e-07 0 1.36472e-08)
(6.59376e-07 0 1.30869e-08)
(6.33558e-07 0 1.24544e-08)
(6.08819e-07 0 1.18298e-08)
(5.85099e-07 0 1.13558e-08)
(5.62322e-07 0 1.08776e-08)
(5.40407e-07 0 1.04775e-08)
(5.19294e-07 0 1.00683e-08)
(4.98928e-07 0 9.74178e-09)
(4.79248e-07 0 9.3909e-09)
(4.60132e-07 0 9.15244e-09)
(4.41507e-07 0 8.84386e-09)
(4.23397e-07 0 8.59186e-09)
(4.05792e-07 0 8.35069e-09)
(3.88637e-07 0 8.10955e-09)
(3.71901e-07 0 7.91415e-09)
(3.55527e-07 0 7.71299e-09)
(3.39493e-07 0 7.50583e-09)
(3.23805e-07 0 7.32457e-09)
(3.08442e-07 0 7.12555e-09)
(2.93405e-07 0 6.94921e-09)
(2.78691e-07 0 6.74793e-09)
(2.64274e-07 0 6.59045e-09)
(2.50123e-07 0 6.41249e-09)
(2.36239e-07 0 6.22526e-09)
(2.22658e-07 0 6.03718e-09)
(2.09371e-07 0 5.87033e-09)
(1.96347e-07 0 5.69581e-09)
(1.83582e-07 0 5.52064e-09)
(1.71084e-07 0 5.33814e-09)
(1.58857e-07 0 5.16127e-09)
(1.46893e-07 0 4.97665e-09)
(1.3517e-07 0 4.81588e-09)
(1.23716e-07 0 4.62074e-09)
(1.12593e-07 0 4.42126e-09)
(1.01842e-07 0 4.21858e-09)
(9.15835e-08 0 3.97066e-09)
(8.21352e-08 0 3.64305e-09)
(7.44286e-08 0 3.13046e-09)
(7.07641e-08 0 1.77762e-09)
(7.36319e-08 0 -1.18784e-08)
(6.63165e-08 0 1.92952e-09)
(-3.91282e-13 0 2.3621e-08)
(3.58805e-16 0 -5.31856e-18)
(1.71982e-16 0 -1.03398e-20)
(3.41595e-16 0 4.96308e-19)
(3.40023e-16 0 1.02364e-18)
(3.37438e-16 0 1.54062e-18)
(3.33871e-16 0 2.02659e-18)
(3.29352e-16 0 2.48154e-18)
(3.23924e-16 0 2.93649e-18)
(3.17658e-16 0 3.35008e-18)
(3.10627e-16 0 3.71197e-18)
(3.02883e-16 0 4.04285e-18)
(2.94518e-16 0 4.33236e-18)
(2.85574e-16 0 4.57017e-18)
(2.76113e-16 0 4.75629e-18)
(2.6628e-16 0 4.96308e-18)
(2.56126e-16 0 5.07682e-18)
(2.45673e-16 0 5.16988e-18)
(2.34981e-16 0 5.23192e-18)
(2.24114e-16 0 5.26294e-18)
(2.13175e-16 0 5.29396e-18)
(2.02173e-16 0 5.26294e-18)
(1.91099e-16 0 5.21124e-18)
(1.80067e-16 0 5.16988e-18)
(1.69117e-16 0 5.0975e-18)
(1.5825e-16 0 5.01478e-18)
(1.47455e-16 0 4.92173e-18)
(1.36785e-16 0 4.81833e-18)
(1.26269e-16 0 4.69425e-18)
(1.15888e-16 0 4.59085e-18)
(1.05683e-16 0 4.47712e-18)
(9.56531e-17 0 4.36338e-18)
(8.58097e-17 0 4.25998e-18)
(7.61523e-17 0 4.16692e-18)
(6.66294e-17 0 4.05319e-18)
(5.72719e-17 0 3.96013e-18)
(4.80799e-17 0 3.87741e-18)
(3.89809e-17 0 3.79469e-18)
(2.99853e-17 0 3.72231e-18)
(2.11448e-17 0 3.66027e-18)
(1.24387e-17 0 3.55688e-18)
(4.05319e-18 0 3.33974e-18)
(8.17945e-08 0 -2.59236e-07)
(2.67332e-07 0 -2.48809e-07)
(4.24927e-07 0 -2.38488e-07)
(5.82657e-07 0 -2.21289e-07)
(7.26916e-07 0 -2.00115e-07)
(8.5517e-07 0 -1.77055e-07)
(9.67268e-07 0 -1.532e-07)
(1.06308e-06 0 -1.29447e-07)
(1.14291e-06 0 -1.06559e-07)
(1.20755e-06 0 -8.50117e-08)
(1.25807e-06 0 -6.51152e-08)
(1.29565e-06 0 -4.69034e-08)
(1.32153e-06 0 -3.06558e-08)
(1.33696e-06 0 -1.59804e-08)
(1.34309e-06 0 -2.74874e-09)
(1.34058e-06 0 9.44517e-09)
(1.33094e-06 0 2.0138e-08)
(1.31487e-06 0 2.78139e-08)
(1.29349e-06 0 3.49382e-08)
(1.26787e-06 0 4.06617e-08)
(1.23846e-06 0 4.73574e-08)
(1.2057e-06 0 5.06798e-08)
(1.1706e-06 0 5.32147e-08)
(1.13423e-06 0 5.54619e-08)
(1.0969e-06 0 5.64588e-08)
(1.05889e-06 0 5.72936e-08)
(1.02062e-06 0 5.74452e-08)
(9.82612e-07 0 5.66392e-08)
(9.45274e-07 0 5.56529e-08)
(9.08726e-07 0 5.44636e-08)
(8.73113e-07 0 5.29348e-08)
(8.38629e-07 0 5.11803e-08)
(8.05354e-07 0 4.93356e-08)
(7.73329e-07 0 4.7409e-08)
(7.42619e-07 0 4.53793e-08)
(7.13219e-07 0 4.34428e-08)
(6.85097e-07 0 4.15549e-08)
(6.58207e-07 0 3.98294e-08)
(6.32475e-07 0 3.82474e-08)
(6.07822e-07 0 3.67399e-08)
(5.84175e-07 0 3.5204e-08)
(5.61444e-07 0 3.38447e-08)
(5.39604e-07 0 3.25875e-08)
(5.18581e-07 0 3.13753e-08)
(4.98258e-07 0 3.04213e-08)
(4.7862e-07 0 2.94404e-08)
(4.59579e-07 0 2.87574e-08)
(4.41031e-07 0 2.78815e-08)
(4.22962e-07 0 2.71146e-08)
(4.05403e-07 0 2.64226e-08)
(3.88296e-07 0 2.57432e-08)
(3.71584e-07 0 2.52359e-08)
(3.5523e-07 0 2.47435e-08)
(3.39214e-07 0 2.41913e-08)
(3.23531e-07 0 2.37457e-08)
(3.08181e-07 0 2.32244e-08)
(2.9315e-07 0 2.27965e-08)
(2.78437e-07 0 2.23321e-08)
(2.64013e-07 0 2.20131e-08)
(2.4987e-07 0 2.15998e-08)
(2.36002e-07 0 2.1176e-08)
(2.22438e-07 0 2.07413e-08)
(2.09168e-07 0 2.03683e-08)
(1.96158e-07 0 2.00028e-08)
(1.83395e-07 0 1.96495e-08)
(1.70909e-07 0 1.92584e-08)
(1.58678e-07 0 1.89414e-08)
(1.46682e-07 0 1.86083e-08)
(1.34946e-07 0 1.82794e-08)
(1.23498e-07 0 1.78546e-08)
(1.12318e-07 0 1.74401e-08)
(1.0143e-07 0 1.69452e-08)
(9.08625e-08 0 1.63001e-08)
(8.06172e-08 0 1.53668e-08)
(7.04157e-08 0 1.32539e-08)
(6.08505e-08 0 8.0426e-09)
(3.75274e-08 0 -7.44565e-09)
(2.60883e-08 0 5.1376e-08)
(-1.18978e-12 0 5.40566e-08)
(3.64291e-16 0 -3.70333e-17)
(1.72504e-16 0 -8.27181e-20)
(3.42639e-16 0 1.49926e-18)
(3.41078e-16 0 3.07091e-18)
(3.38451e-16 0 4.62187e-18)
(3.34812e-16 0 6.12114e-18)
(3.30252e-16 0 7.53768e-18)
(3.24792e-16 0 8.86117e-18)
(3.18434e-16 0 1.00916e-17)
(3.1133e-16 0 1.11773e-17)
(3.03513e-16 0 1.21389e-17)
(2.95045e-16 0 1.29867e-17)
(2.86008e-16 0 1.37105e-17)
(2.76516e-16 0 1.42895e-17)
(2.66621e-16 0 1.48065e-17)
(2.56354e-16 0 1.51374e-17)
(2.45828e-16 0 1.54062e-17)
(2.35074e-16 0 1.5582e-17)
(2.24166e-16 0 1.56337e-17)
(2.13175e-16 0 1.56337e-17)
(2.02101e-16 0 1.55303e-17)
(1.91017e-16 0 1.53856e-17)
(1.79963e-16 0 1.52098e-17)
(1.68952e-16 0 1.49513e-17)
(1.58064e-16 0 1.46721e-17)
(1.47259e-16 0 1.43412e-17)
(1.36547e-16 0 1.4e-17)
(1.26031e-16 0 1.36278e-17)
(1.15661e-16 0 1.32659e-17)
(1.05445e-16 0 1.29247e-17)
(9.54256e-17 0 1.25628e-17)
(8.56029e-17 0 1.22319e-17)
(7.59559e-17 0 1.19011e-17)
(6.64329e-17 0 1.15805e-17)
(5.70858e-17 0 1.13014e-17)
(4.79144e-17 0 1.10325e-17)
(3.88361e-17 0 1.07947e-17)
(2.98509e-17 0 1.06086e-17)
(2.0969e-17 0 1.04328e-17)
(1.21285e-17 0 1.0257e-17)
(3.85673e-18 0 9.99855e-18)
(8.22937e-08 0 -4.38544e-07)
(2.8188e-07 0 -4.25804e-07)
(4.44073e-07 0 -4.06965e-07)
(6.07992e-07 0 -3.77667e-07)
(7.56682e-07 0 -3.4125e-07)
(8.87128e-07 0 -3.01293e-07)
(9.99816e-07 0 -2.60071e-07)
(1.09504e-06 0 -2.19228e-07)
(1.17342e-06 0 -1.80023e-07)
(1.23606e-06 0 -1.43289e-07)
(1.2843e-06 0 -1.09407e-07)
(1.31951e-06 0 -7.85457e-08)
(1.34301e-06 0 -5.106e-08)
(1.35614e-06 0 -2.60602e-08)
(1.35989e-06 0 -3.9242e-09)
(1.35526e-06 0 1.70179e-08)
(1.34369e-06 0 3.41182e-08)
(1.3257e-06 0 4.71942e-08)
(1.3027e-06 0 5.90733e-08)
(1.27552e-06 0 6.91933e-08)
(1.24436e-06 0 7.948e-08)
(1.21011e-06 0 8.50375e-08)
(1.17393e-06 0 8.91827e-08)
(1.13648e-06 0 9.28143e-08)
(1.09809e-06 0 9.41013e-08)
(1.05916e-06 0 9.55483e-08)
(1.02017e-06 0 9.54594e-08)
(9.81557e-07 0 9.39895e-08)
(9.43714e-07 0 9.227e-08)
(9.06767e-07 0 9.01468e-08)
(8.70877e-07 0 8.75319e-08)
(8.36213e-07 0 8.4565e-08)
(8.02806e-07 0 8.15783e-08)
(7.70742e-07 0 7.82146e-08)
(7.40075e-07 0 7.49034e-08)
(7.10761e-07 0 7.16829e-08)
(6.82723e-07 0 6.85064e-08)
(6.5591e-07 0 6.55615e-08)
(6.3028e-07 0 6.26844e-08)
(6.05793e-07 0 5.99367e-08)
(5.82302e-07 0 5.78241e-08)
(5.59754e-07 0 5.54277e-08)
(5.38038e-07 0 5.34255e-08)
(5.17129e-07 0 5.15663e-08)
(4.96929e-07 0 4.98686e-08)
(4.77427e-07 0 4.81523e-08)
(4.58503e-07 0 4.70266e-08)
(4.40059e-07 0 4.56698e-08)
(4.2205e-07 0 4.43946e-08)
(4.04525e-07 0 4.32808e-08)
(3.87462e-07 0 4.21519e-08)
(3.70805e-07 0 4.1266e-08)
(3.54499e-07 0 4.04228e-08)
(3.38505e-07 0 3.94801e-08)
(3.22828e-07 0 3.8729e-08)
(3.07493e-07 0 3.78578e-08)
(2.92474e-07 0 3.70924e-08)
(2.77797e-07 0 3.6258e-08)
(2.63401e-07 0 3.56314e-08)
(2.49275e-07 0 3.48971e-08)
(2.35415e-07 0 3.4136e-08)
(2.21851e-07 0 3.3384e-08)
(2.08558e-07 0 3.27245e-08)
(1.95542e-07 0 3.20701e-08)
(1.82797e-07 0 3.14118e-08)
(1.70311e-07 0 3.07231e-08)
(1.58071e-07 0 3.01051e-08)
(1.46087e-07 0 2.94454e-08)
(1.34346e-07 0 2.87891e-08)
(1.22859e-07 0 2.80702e-08)
(1.11616e-07 0 2.73525e-08)
(1.00598e-07 0 2.65378e-08)
(8.97134e-08 0 2.56318e-08)
(7.88565e-08 0 2.43348e-08)
(6.73877e-08 0 2.25395e-08)
(5.55931e-08 0 2.01521e-08)
(3.28374e-08 0 1.71051e-08)
(2.03251e-08 0 6.1357e-08)
(-1.32731e-12 0 7.06567e-08)
(3.61282e-16 0 -7.14153e-17)
(1.73579e-16 0 -1.75776e-19)
(3.44759e-16 0 2.53324e-18)
(3.43156e-16 0 5.18022e-18)
(3.40488e-16 0 7.78584e-18)
(3.36787e-16 0 1.02984e-17)
(3.32103e-16 0 1.26972e-17)
(3.26488e-16 0 1.48893e-17)
(3.19974e-16 0 1.69365e-17)
(3.12685e-16 0 1.87356e-17)
(3.04713e-16 0 2.03383e-17)
(2.96089e-16 0 2.17238e-17)
(2.86877e-16 0 2.29232e-17)
(2.77209e-16 0 2.38952e-17)
(2.67148e-16 0 2.46603e-17)
(2.56736e-16 0 2.52083e-17)
(2.46086e-16 0 2.56219e-17)
(2.35198e-16 0 2.58701e-17)
(2.24166e-16 0 2.59425e-17)
(2.13071e-16 0 2.58597e-17)
(2.01925e-16 0 2.56736e-17)
(1.90779e-16 0 2.54048e-17)
(1.79633e-16 0 2.50429e-17)
(1.68579e-16 0 2.45879e-17)
(1.5764e-16 0 2.4071e-17)
(1.46783e-16 0 2.34713e-17)
(1.36082e-16 0 2.28819e-17)
(1.25535e-16 0 2.22615e-17)
(1.15164e-16 0 2.16204e-17)
(1.04969e-16 0 2.09897e-17)
(9.495e-17 0 2.03797e-17)
(8.51376e-17 0 1.98006e-17)
(7.55009e-17 0 1.92216e-17)
(6.60297e-17 0 1.86943e-17)
(5.67136e-17 0 1.8229e-17)
(4.75525e-17 0 1.77844e-17)
(3.85363e-17 0 1.74018e-17)
(2.96234e-17 0 1.7102e-17)
(2.07933e-17 0 1.68641e-17)
(1.20148e-17 0 1.6709e-17)
(3.81537e-18 0 1.6647e-17)
(8.66774e-08 0 -6.29085e-07)
(3.04293e-07 0 -6.09496e-07)
(4.75317e-07 0 -5.80005e-07)
(6.4828e-07 0 -5.35864e-07)
(8.03299e-07 0 -4.81553e-07)
(9.36667e-07 0 -4.22548e-07)
(1.0497e-06 0 -3.62473e-07)
(1.14349e-06 0 -3.03645e-07)
(1.21924e-06 0 -2.47726e-07)
(1.27855e-06 0 -1.95786e-07)
(1.32316e-06 0 -1.48223e-07)
(1.3547e-06 0 -1.05216e-07)
(1.37467e-06 0 -6.68238e-08)
(1.38405e-06 0 -3.26264e-08)
(1.38418e-06 0 -4.5609e-10)
(1.37706e-06 0 2.77498e-08)
(1.36263e-06 0 5.05687e-08)
(1.34173e-06 0 6.91704e-08)
(1.31614e-06 0 8.54212e-08)
(1.28668e-06 0 1.00629e-07)
(1.25307e-06 0 1.13613e-07)
(1.21657e-06 0 1.21562e-07)
(1.17874e-06 0 1.27171e-07)
(1.1397e-06 0 1.32077e-07)
(1.0998e-06 0 1.33371e-07)
(1.05944e-06 0 1.35584e-07)
(1.01938e-06 0 1.34996e-07)
(9.79877e-07 0 1.32744e-07)
(9.41264e-07 0 1.30201e-07)
(9.03725e-07 0 1.27014e-07)
(8.67437e-07 0 1.23106e-07)
(8.32518e-07 0 1.18832e-07)
(7.9894e-07 0 1.14405e-07)
(7.66789e-07 0 1.09622e-07)
(7.36143e-07 0 1.04954e-07)
(7.06927e-07 0 1.00457e-07)
(6.79053e-07 0 9.59935e-08)
(6.52423e-07 0 9.1926e-08)
(6.27e-07 0 8.79839e-08)
(6.02712e-07 0 8.41736e-08)
(5.79426e-07 0 8.08263e-08)
(5.57088e-07 0 7.77211e-08)
(5.35651e-07 0 7.46932e-08)
(5.14983e-07 0 7.20425e-08)
(4.94965e-07 0 6.97149e-08)
(4.75614e-07 0 6.74038e-08)
(4.56861e-07 0 6.58388e-08)
(4.38618e-07 0 6.3955e-08)
(4.20714e-07 0 6.21523e-08)
(4.03248e-07 0 6.06285e-08)
(3.86283e-07 0 5.89955e-08)
(3.69681e-07 0 5.78104e-08)
(3.53415e-07 0 5.67137e-08)
(3.37477e-07 0 5.53818e-08)
(3.21833e-07 0 5.43404e-08)
(3.06557e-07 0 5.30868e-08)
(2.91562e-07 0 5.20133e-08)
(2.76888e-07 0 5.09039e-08)
(2.6248e-07 0 5.00514e-08)
(2.4839e-07 0 4.90203e-08)
(2.34562e-07 0 4.79629e-08)
(2.21003e-07 0 4.69508e-08)
(2.07733e-07 0 4.59854e-08)
(1.94745e-07 0 4.50301e-08)
(1.8202e-07 0 4.40996e-08)
(1.69546e-07 0 4.31815e-08)
(1.57296e-07 0 4.23238e-08)
(1.45286e-07 0 4.1456e-08)
(1.33535e-07 0 4.05549e-08)
(1.22033e-07 0 3.95782e-08)
(1.10729e-07 0 3.86432e-08)
(9.96198e-08 0 3.76107e-08)
(8.86406e-08 0 3.65365e-08)
(7.76606e-08 0 3.53334e-08)
(6.62756e-08 0 3.40834e-08)
(5.55788e-08 0 3.29681e-08)
(3.91154e-08 0 3.44734e-08)
(2.10917e-08 0 7.35143e-08)
(-1.67135e-12 0 8.44083e-08)
(3.66236e-16 0 -1.03177e-16)
(1.75221e-16 0 -2.68834e-19)
(3.47995e-16 0 3.59824e-18)
(3.46341e-16 0 7.37225e-18)
(3.43559e-16 0 1.10739e-17)
(3.39723e-16 0 1.46308e-17)
(3.34853e-16 0 1.79705e-17)
(3.29032e-16 0 2.10931e-17)
(3.2229e-16 0 2.39469e-17)
(3.14742e-16 0 2.64905e-17)
(3.06501e-16 0 2.87549e-17)
(2.9762e-16 0 3.06884e-17)
(2.88169e-16 0 3.23117e-17)
(2.78233e-16 0 3.36559e-17)
(2.67924e-16 0 3.46899e-17)
(2.57315e-16 0 3.54654e-17)
(2.46469e-16 0 3.6003e-17)
(2.35395e-16 0 3.63029e-17)
(2.24166e-16 0 3.6396e-17)
(2.12896e-16 0 3.62719e-17)
(2.01625e-16 0 3.59824e-17)
(1.90365e-16 0 3.55688e-17)
(1.79147e-16 0 3.50104e-17)
(1.6799e-16 0 3.43694e-17)
(1.56958e-16 0 3.36146e-17)
(1.4607e-16 0 3.27977e-17)
(1.35347e-16 0 3.19499e-17)
(1.24791e-16 0 3.10606e-17)
(1.14399e-16 0 3.01507e-17)
(1.04214e-16 0 2.92408e-17)
(9.42262e-17 0 2.83723e-17)
(8.44448e-17 0 2.75451e-17)
(7.48495e-17 0 2.6749e-17)
(6.54197e-17 0 2.59942e-17)
(5.61759e-17 0 2.53427e-17)
(4.70769e-17 0 2.47534e-17)
(3.8133e-17 0 2.42467e-17)
(2.93132e-17 0 2.38331e-17)
(2.05865e-17 0 2.35333e-17)
(1.19217e-17 0 2.33472e-17)
(3.79469e-18 0 2.33058e-17)
(9.38263e-08 0 -8.36973e-07)
(3.36059e-07 0 -8.08578e-07)
(5.20779e-07 0 -7.66044e-07)
(7.06317e-07 0 -7.03542e-07)
(8.69741e-07 0 -6.27351e-07)
(1.00637e-06 0 -5.4569e-07)
(1.11887e-06 0 -4.64243e-07)
(1.20986e-06 0 -3.85741e-07)
(1.28135e-06 0 -3.12059e-07)
(1.33562e-06 0 -2.44447e-07)
(1.37505e-06 0 -1.83042e-07)
(1.40148e-06 0 -1.28095e-07)
(1.41631e-06 0 -7.92407e-08)
(1.4208e-06 0 -3.29918e-08)
(1.4166e-06 0 4.11529e-09)
(1.40567e-06 0 4.22176e-08)
(1.38749e-06 0 7.0323e-08)
(1.36304e-06 0 9.47888e-08)
(1.33405e-06 0 1.13392e-07)
(1.30108e-06 0 1.36387e-07)
(1.26448e-06 0 1.49227e-07)
(1.22512e-06 0 1.59947e-07)
(1.18493e-06 0 1.6712e-07)
(1.1436e-06 0 1.72977e-07)
(1.10172e-06 0 1.74296e-07)
(1.05951e-06 0 1.76874e-07)
(1.01802e-06 0 1.75472e-07)
(9.77338e-07 0 1.72407e-07)
(9.37748e-07 0 1.68765e-07)
(8.99444e-07 0 1.64314e-07)
(8.62644e-07 0 1.58953e-07)
(8.27399e-07 0 1.53327e-07)
(7.93622e-07 0 1.47384e-07)
(7.61408e-07 0 1.40927e-07)
(7.30804e-07 0 1.34799e-07)
(7.01758e-07 0 1.28749e-07)
(6.741e-07 0 1.23034e-07)
(6.47727e-07 0 1.17703e-07)
(6.22619e-07 0 1.12495e-07)
(5.98667e-07 0 1.07737e-07)
(5.75694e-07 0 1.03552e-07)
(5.53712e-07 0 9.9231e-08)
(5.32532e-07 0 9.55969e-08)
(5.12122e-07 0 9.23522e-08)
(4.92343e-07 0 8.94395e-08)
(4.73252e-07 0 8.62352e-08)
(4.54693e-07 0 8.43193e-08)
(4.36714e-07 0 8.20972e-08)
(4.18997e-07 0 7.97459e-08)
(4.01568e-07 0 7.78319e-08)
(3.84696e-07 0 7.57884e-08)
(3.68205e-07 0 7.42392e-08)
(3.52027e-07 0 7.28403e-08)
(3.3618e-07 0 7.11435e-08)
(3.20569e-07 0 6.98223e-08)
(3.05323e-07 0 6.82663e-08)
(2.90345e-07 0 6.69236e-08)
(2.75705e-07 0 6.54946e-08)
(2.6131e-07 0 6.43511e-08)
(2.47243e-07 0 6.30246e-08)
(2.33452e-07 0 6.1696e-08)
(2.19928e-07 0 6.03954e-08)
(2.06678e-07 0 5.91718e-08)
(1.93686e-07 0 5.80043e-08)
(1.80966e-07 0 5.68003e-08)
(1.68489e-07 0 5.56916e-08)
(1.56247e-07 0 5.45726e-08)
(1.44236e-07 0 5.34488e-08)
(1.32484e-07 0 5.2295e-08)
(1.20953e-07 0 5.1123e-08)
(1.09614e-07 0 4.99685e-08)
(9.85038e-08 0 4.87398e-08)
(8.7594e-08 0 4.75349e-08)
(7.68832e-08 0 4.63836e-08)
(6.61476e-08 0 4.56396e-08)
(5.65788e-08 0 4.54853e-08)
(4.26894e-08 0 4.85186e-08)
(2.21187e-08 0 9.4076e-08)
(-2.0286e-12 0 1.00702e-07)
(3.65902e-16 0 -1.40364e-16)
(1.77458e-16 0 -3.51552e-19)
(3.524e-16 0 4.69425e-18)
(3.50632e-16 0 9.67801e-18)
(3.47736e-16 0 1.45274e-17)
(3.43683e-16 0 1.91699e-17)
(3.38544e-16 0 2.3523e-17)
(3.32434e-16 0 2.75865e-17)
(3.25382e-16 0 3.12571e-17)
(3.17513e-16 0 3.45451e-17)
(3.08911e-16 0 3.74403e-17)
(2.99636e-16 0 3.99425e-17)
(2.89844e-16 0 4.19794e-17)
(2.79597e-16 0 4.36545e-17)
(2.68947e-16 0 4.49469e-17)
(2.58049e-16 0 4.59292e-17)
(2.46924e-16 0 4.65496e-17)
(2.35591e-16 0 4.68908e-17)
(2.24145e-16 0 4.69632e-17)
(2.12658e-16 0 4.67874e-17)
(2.01212e-16 0 4.63945e-17)
(1.89807e-16 0 4.58155e-17)
(1.78454e-16 0 4.5071e-17)
(1.67184e-16 0 4.42025e-17)
(1.56068e-16 0 4.32202e-17)
(1.45119e-16 0 4.21862e-17)
(1.34334e-16 0 4.10592e-17)
(1.23746e-16 0 3.99011e-17)
(1.13344e-16 0 3.87327e-17)
(1.0318e-16 0 3.7585e-17)
(9.32543e-17 0 3.6458e-17)
(8.35142e-17 0 3.53723e-17)
(7.39603e-17 0 3.4328e-17)
(6.46338e-17 0 3.33871e-17)
(5.54728e-17 0 3.25289e-17)
(4.64669e-17 0 3.17948e-17)
(3.76367e-17 0 3.1164e-17)
(2.891e-17 0 3.06574e-17)
(2.03073e-17 0 3.02955e-17)
(1.17873e-17 0 3.0068e-17)
(3.76367e-18 0 3.0006e-17)
(1.03851e-07 0 -1.06921e-06)
(3.80923e-07 0 -1.02873e-06)
(5.84991e-07 0 -9.69774e-07)
(7.86879e-07 0 -8.82943e-07)
(9.60479e-07 0 -7.78853e-07)
(1.10003e-06 0 -6.69124e-07)
(1.20989e-06 0 -5.63111e-07)
(1.2957e-06 0 -4.63057e-07)
(1.36065e-06 0 -3.70443e-07)
(1.40763e-06 0 -2.86902e-07)
(1.44004e-06 0 -2.12007e-07)
(1.45937e-06 0 -1.46247e-07)
(1.46758e-06 0 -8.35994e-08)
(1.46638e-06 0 -3.07569e-08)
(1.45756e-06 0 1.54957e-08)
(1.441e-06 0 5.92795e-08)
(1.41773e-06 0 9.38512e-08)
(1.38915e-06 0 1.24185e-07)
(1.35627e-06 0 1.47015e-07)
(1.31859e-06 0 1.74304e-07)
(1.2781e-06 0 1.8863e-07)
(1.23556e-06 0 2.01647e-07)
(1.19228e-06 0 2.09849e-07)
(1.14795e-06 0 2.1595e-07)
(1.10357e-06 0 2.17674e-07)
(1.05913e-06 0 2.19973e-07)
(1.01581e-06 0 2.17455e-07)
(9.73693e-07 0 2.1322e-07)
(9.32941e-07 0 2.083e-07)
(8.93753e-07 0 2.02145e-07)
(8.56315e-07 0 1.95244e-07)
(8.20691e-07 0 1.87965e-07)
(7.8665e-07 0 1.80541e-07)
(7.54443e-07 0 1.72284e-07)
(7.23955e-07 0 1.64656e-07)
(6.95188e-07 0 1.56982e-07)
(6.67821e-07 0 1.49955e-07)
(6.4181e-07 0 1.43251e-07)
(6.17091e-07 0 1.36809e-07)
(5.93557e-07 0 1.30948e-07)
(5.71035e-07 0 1.25739e-07)
(5.49416e-07 0 1.20791e-07)
(5.28635e-07 0 1.16199e-07)
(5.08603e-07 0 1.12227e-07)
(4.89187e-07 0 1.08641e-07)
(4.70377e-07 0 1.04939e-07)
(4.52061e-07 0 1.02237e-07)
(4.34285e-07 0 1.00114e-07)
(4.16858e-07 0 9.72474e-08)
(3.99518e-07 0 9.48904e-08)
(3.8274e-07 0 9.24639e-08)
(3.66362e-07 0 9.0549e-08)
(3.50267e-07 0 8.88836e-08)
(3.34524e-07 0 8.68663e-08)
(3.18965e-07 0 8.52979e-08)
(3.0378e-07 0 8.33424e-08)
(2.88832e-07 0 8.17248e-08)
(2.74244e-07 0 7.99963e-08)
(2.59865e-07 0 7.86198e-08)
(2.45831e-07 0 7.69461e-08)
(2.32032e-07 0 7.53928e-08)
(2.18547e-07 0 7.37462e-08)
(2.05323e-07 0 7.22828e-08)
(1.92397e-07 0 7.0817e-08)
(1.79719e-07 0 6.93411e-08)
(1.6725e-07 0 6.8017e-08)
(1.55007e-07 0 6.66919e-08)
(1.4301e-07 0 6.5307e-08)
(1.31245e-07 0 6.39377e-08)
(1.19677e-07 0 6.25734e-08)
(1.08332e-07 0 6.11823e-08)
(9.72319e-08 0 5.97386e-08)
(8.64273e-08 0 5.82781e-08)
(7.60646e-08 0 5.68653e-08)
(6.57778e-08 0 5.60513e-08)
(5.75034e-08 0 5.50283e-08)
(4.70786e-08 0 5.8151e-08)
(2.38233e-08 0 1.17691e-07)
(-2.41468e-12 0 1.16047e-07)
(3.71203e-16 0 -1.64335e-16)
(1.80293e-16 0 -4.03251e-19)
(3.58024e-16 0 5.91434e-18)
(3.56153e-16 0 1.21596e-17)
(3.5303e-16 0 1.8229e-17)
(3.48719e-16 0 2.39779e-17)
(3.4328e-16 0 2.94063e-17)
(3.36745e-16 0 3.44211e-17)
(3.29249e-16 0 3.89395e-17)
(3.20936e-16 0 4.2972e-17)
(3.11888e-16 0 4.64979e-17)
(3.02169e-16 0 4.95274e-17)
(2.91891e-16 0 5.20193e-17)
(2.812e-16 0 5.40149e-17)
(2.70199e-16 0 5.55452e-17)
(2.58928e-16 0 5.66722e-17)
(2.4742e-16 0 5.7365e-17)
(2.35788e-16 0 5.77062e-17)
(2.24073e-16 0 5.77476e-17)
(2.12337e-16 0 5.74994e-17)
(2.00664e-16 0 5.69617e-17)
(1.89062e-16 0 5.62069e-17)
(1.77544e-16 0 5.5266e-17)
(1.66139e-16 0 5.41597e-17)
(1.54931e-16 0 5.29499e-17)
(1.43898e-16 0 5.16264e-17)
(1.33073e-16 0 5.02616e-17)
(1.22454e-16 0 4.88347e-17)
(1.12052e-16 0 4.74285e-17)
(1.0194e-16 0 4.60223e-17)
(9.20342e-17 0 4.46367e-17)
(8.23148e-17 0 4.32926e-17)
(7.28643e-17 0 4.20518e-17)
(6.36412e-17 0 4.09144e-17)
(5.45939e-17 0 3.98391e-17)
(4.57121e-17 0 3.89499e-17)
(3.69957e-17 0 3.81951e-17)
(2.8455e-17 0 3.75747e-17)
(2.00074e-17 0 3.71714e-17)
(1.16322e-17 0 3.69129e-17)
(3.73265e-18 0 3.68302e-17)
(1.17475e-07 0 -1.3345e-06)
(4.42553e-07 0 -1.28169e-06)
(6.75827e-07 0 -1.19703e-06)
(8.97701e-07 0 -1.0755e-06)
(1.08139e-06 0 -9.35357e-07)
(1.22259e-06 0 -7.90297e-07)
(1.32583e-06 0 -6.55665e-07)
(1.40247e-06 0 -5.32409e-07)
(1.4575e-06 0 -4.20543e-07)
(1.49444e-06 0 -3.21103e-07)
(1.51681e-06 0 -2.34859e-07)
(1.52814e-06 0 -1.51336e-07)
(1.52856e-06 0 -8.35282e-08)
(1.52092e-06 0 -2.41484e-08)
(1.50582e-06 0 3.39079e-08)
(1.48303e-06 0 8.2143e-08)
(1.45355e-06 0 1.22041e-07)
(1.41969e-06 0 1.56972e-07)
(1.38204e-06 0 1.87037e-07)
(1.33912e-06 0 2.15625e-07)
(1.29375e-06 0 2.32474e-07)
(1.2474e-06 0 2.47205e-07)
(1.20042e-06 0 2.56146e-07)
(1.15255e-06 0 2.61584e-07)
(1.10502e-06 0 2.63852e-07)
(1.05789e-06 0 2.65151e-07)
(1.01236e-06 0 2.61239e-07)
(9.68625e-07 0 2.554e-07)
(9.26534e-07 0 2.48995e-07)
(8.86335e-07 0 2.409e-07)
(8.48205e-07 0 2.32052e-07)
(8.12082e-07 0 2.23023e-07)
(7.77864e-07 0 2.13665e-07)
(7.45831e-07 0 2.03479e-07)
(7.15643e-07 0 1.93961e-07)
(6.87166e-07 0 1.84811e-07)
(6.60182e-07 0 1.76346e-07)
(6.34641e-07 0 1.68315e-07)
(6.10448e-07 0 1.60594e-07)
(5.87399e-07 0 1.53764e-07)
(5.6543e-07 0 1.47389e-07)
(5.44303e-07 0 1.41674e-07)
(5.24058e-07 0 1.36225e-07)
(5.04391e-07 0 1.31878e-07)
(4.85439e-07 0 1.27426e-07)
(4.66878e-07 0 1.23759e-07)
(4.48975e-07 0 1.19745e-07)
(4.31386e-07 0 1.17815e-07)
(4.14375e-07 0 1.14594e-07)
(3.97253e-07 0 1.11697e-07)
(3.80512e-07 0 1.09009e-07)
(3.64246e-07 0 1.06678e-07)
(3.48243e-07 0 1.04788e-07)
(3.32616e-07 0 1.02451e-07)
(3.17069e-07 0 1.00672e-07)
(3.01914e-07 0 9.84063e-08)
(2.86997e-07 0 9.64847e-08)
(2.72465e-07 0 9.44787e-08)
(2.58132e-07 0 9.28185e-08)
(2.44137e-07 0 9.08691e-08)
(2.30356e-07 0 8.90147e-08)
(2.16899e-07 0 8.71018e-08)
(2.03711e-07 0 8.53476e-08)
(1.90793e-07 0 8.36512e-08)
(1.78184e-07 0 8.18833e-08)
(1.65704e-07 0 8.04456e-08)
(1.53527e-07 0 7.87892e-08)
(1.41555e-07 0 7.71643e-08)
(1.29778e-07 0 7.56232e-08)
(1.18191e-07 0 7.40674e-08)
(1.06803e-07 0 7.24614e-08)
(9.56504e-08 0 7.07925e-08)
(8.48335e-08 0 6.89922e-08)
(7.47015e-08 0 6.70228e-08)
(6.4775e-08 0 6.54769e-08)
(5.74443e-08 0 6.19359e-08)
(4.16105e-08 0 7.6171e-08)
(2.03117e-08 0 1.5359e-07)
(-2.94855e-12 0 1.2517e-07)
(3.6734e-16 0 -1.72401e-16)
(1.83795e-16 0 -4.03251e-19)
(3.64962e-16 0 7.28953e-18)
(3.62946e-16 0 1.48376e-17)
(3.59544e-16 0 2.21891e-17)
(3.54871e-16 0 2.91478e-17)
(3.48998e-16 0 3.56618e-17)
(3.41977e-16 0 4.16485e-17)
(3.33933e-16 0 4.70459e-17)
(3.25051e-16 0 5.18539e-17)
(3.15456e-16 0 5.60208e-17)
(3.05178e-16 0 5.95467e-17)
(2.94352e-16 0 6.24521e-17)
(2.83123e-16 0 6.47682e-17)
(2.71605e-16 0 6.65363e-17)
(2.59869e-16 0 6.77461e-17)
(2.47958e-16 0 6.85319e-17)
(2.35974e-16 0 6.88628e-17)
(2.23938e-16 0 6.88111e-17)
(2.11872e-16 0 6.84182e-17)
(1.99919e-16 0 6.77358e-17)
(1.88111e-16 0 6.67948e-17)
(1.76396e-16 0 6.56368e-17)
(1.64857e-16 0 6.43133e-17)
(1.53525e-16 0 6.28451e-17)
(1.4243e-16 0 6.12424e-17)
(1.31563e-16 0 5.96087e-17)
(1.20913e-16 0 5.7913e-17)
(1.10532e-16 0 5.62483e-17)
(1.00409e-16 0 5.45836e-17)
(9.05349e-17 0 5.29396e-17)
(8.09293e-17 0 5.13679e-17)
(7.15821e-17 0 4.98893e-17)
(6.24211e-17 0 4.85348e-17)
(5.35083e-17 0 4.73147e-17)
(4.48229e-17 0 4.62497e-17)
(3.62615e-17 0 4.53605e-17)
(2.7876e-17 0 4.46574e-17)
(1.96352e-17 0 4.41714e-17)
(1.14668e-17 0 4.38923e-17)
(3.70163e-18 0 4.38096e-17)
(1.36144e-07 0 -1.64822e-06)
(5.29683e-07 0 -1.58038e-06)
(8.04826e-07 0 -1.45005e-06)
(1.05306e-06 0 -1.27711e-06)
(1.23597e-06 0 -1.09778e-06)
(1.37928e-06 0 -9.05185e-07)
(1.47031e-06 0 -7.36979e-07)
(1.53081e-06 0 -5.91044e-07)
(1.57175e-06 0 -4.57179e-07)
(1.59456e-06 0 -3.44378e-07)
(1.60555e-06 0 -2.43094e-07)
(1.60633e-06 0 -1.5536e-07)
(1.59893e-06 0 -7.66251e-08)
(1.58341e-06 0 -8.6896e-09)
(1.56068e-06 0 5.82834e-08)
(1.53073e-06 0 1.10152e-07)
(1.49475e-06 0 1.5994e-07)
(1.45521e-06 0 1.92347e-07)
(1.41049e-06 0 2.36965e-07)
(1.36255e-06 0 2.58505e-07)
(1.31128e-06 0 2.81745e-07)
(1.26051e-06 0 2.96223e-07)
(1.2086e-06 0 3.07087e-07)
(1.15698e-06 0 3.09768e-07)
(1.10536e-06 0 3.14549e-07)
(1.05554e-06 0 3.12558e-07)
(1.00741e-06 0 3.06802e-07)
(9.61741e-07 0 2.99285e-07)
(9.1815e-07 0 2.90807e-07)
(8.76832e-07 0 2.80532e-07)
(8.38078e-07 0 2.69305e-07)
(8.01378e-07 0 2.58583e-07)
(7.67269e-07 0 2.46337e-07)
(7.35405e-07 0 2.34294e-07)
(7.05563e-07 0 2.23107e-07)
(6.77552e-07 0 2.12241e-07)
(6.51072e-07 0 2.02306e-07)
(6.26151e-07 0 1.92832e-07)
(6.02657e-07 0 1.83818e-07)
(5.80229e-07 0 1.76012e-07)
(5.58874e-07 0 1.68636e-07)
(5.38335e-07 0 1.62212e-07)
(5.1875e-07 0 1.5592e-07)
(4.99559e-07 0 1.51075e-07)
(4.81174e-07 0 1.45707e-07)
(4.62957e-07 0 1.42155e-07)
(4.45635e-07 0 1.36788e-07)
(4.28017e-07 0 1.35254e-07)
(4.11437e-07 0 1.31876e-07)
(3.94759e-07 0 1.28284e-07)
(3.77953e-07 0 1.25583e-07)
(3.61781e-07 0 1.2274e-07)
(3.45878e-07 0 1.20665e-07)
(3.30391e-07 0 1.18043e-07)
(3.14876e-07 0 1.16033e-07)
(2.99787e-07 0 1.13444e-07)
(2.84895e-07 0 1.1118e-07)
(2.70365e-07 0 1.08931e-07)
(2.56063e-07 0 1.06974e-07)
(2.42116e-07 0 1.04844e-07)
(2.28439e-07 0 1.02555e-07)
(2.14984e-07 0 1.00382e-07)
(2.01859e-07 0 9.8375e-08)
(1.89049e-07 0 9.63456e-08)
(1.76413e-07 0 9.44597e-08)
(1.63981e-07 0 9.27393e-08)
(1.51846e-07 0 9.08336e-08)
(1.39888e-07 0 8.90419e-08)
(1.2812e-07 0 8.73318e-08)
(1.16498e-07 0 8.5618e-08)
(1.05022e-07 0 8.38299e-08)
(9.37217e-08 0 8.19505e-08)
(8.26777e-08 0 7.98588e-08)
(7.2135e-08 0 7.74259e-08)
(6.29778e-08 0 7.42178e-08)
(5.49763e-08 0 6.85245e-08)
(3.70916e-08 0 9.59845e-08)
(1.64172e-08 0 1.75619e-07)
(-3.37251e-12 0 1.29587e-07)
(3.80493e-16 0 -1.80644e-16)
(1.88041e-16 0 -4.03251e-19)
(3.73265e-16 0 8.78879e-18)
(3.71053e-16 0 1.7774e-17)
(3.6733e-16 0 2.64905e-17)
(3.62191e-16 0 3.47726e-17)
(3.5577e-16 0 4.2455e-17)
(3.4814e-16 0 4.94551e-17)
(3.39465e-16 0 5.5752e-17)
(3.2989e-16 0 6.12941e-17)
(3.19571e-16 0 6.60814e-17)
(3.086e-16 0 7.00829e-17)
(2.97123e-16 0 7.33813e-17)
(2.85284e-16 0 7.59662e-17)
(2.73176e-16 0 7.79308e-17)
(2.60924e-16 0 7.92336e-17)
(2.48537e-16 0 8.00297e-17)
(2.36077e-16 0 8.03192e-17)
(2.23628e-16 0 8.01435e-17)
(2.11252e-16 0 7.95851e-17)
(1.99009e-16 0 7.87373e-17)
(1.86943e-16 0 7.75999e-17)
(1.75042e-16 0 7.6204e-17)
(1.63327e-16 0 7.4622e-17)
(1.5187e-16 0 7.2885e-17)
(1.40672e-16 0 7.10445e-17)
(1.29743e-16 0 6.91109e-17)
(1.19104e-16 0 6.71671e-17)
(1.08733e-16 0 6.52335e-17)
(9.86206e-17 0 6.32897e-17)
(8.88082e-17 0 6.14182e-17)
(7.92749e-17 0 5.96087e-17)
(7.00312e-17 0 5.78923e-17)
(6.10563e-17 0 5.63413e-17)
(5.22985e-17 0 5.49662e-17)
(4.37475e-17 0 5.37254e-17)
(3.54137e-17 0 5.27017e-17)
(2.72556e-17 0 5.19159e-17)
(1.92113e-17 0 5.13369e-17)
(1.12703e-17 0 5.1037e-17)
(3.66027e-18 0 5.09647e-17)
(1.88061e-07 0 -2.02617e-06)
(6.58366e-07 0 -1.92312e-06)
(9.46766e-07 0 -1.76358e-06)
(1.26795e-06 0 -1.49478e-06)
(1.44984e-06 0 -1.24824e-06)
(1.5763e-06 0 -1.00585e-06)
(1.6463e-06 0 -8.01158e-07)
(1.68461e-06 0 -6.27655e-07)
(1.703e-06 0 -4.79849e-07)
(1.70801e-06 0 -3.52188e-07)
(1.70405e-06 0 -2.42987e-07)
(1.69414e-06 0 -1.43538e-07)
(1.6766e-06 0 -6.48377e-08)
(1.65321e-06 0 1.93795e-08)
(1.62181e-06 0 8.73186e-08)
(1.58388e-06 0 1.47789e-07)
(1.5412e-06 0 1.98775e-07)
(1.49448e-06 0 2.41507e-07)
(1.44213e-06 0 2.87324e-07)
(1.38795e-06 0 3.1082e-07)
(1.33083e-06 0 3.36977e-07)
(1.27426e-06 0 3.51037e-07)
(1.21664e-06 0 3.6148e-07)
(1.16026e-06 0 3.63791e-07)
(1.10442e-06 0 3.67642e-07)
(1.05134e-06 0 3.63007e-07)
(1.0005e-06 0 3.54758e-07)
(9.52496e-07 0 3.4527e-07)
(9.07291e-07 0 3.33947e-07)
(8.64959e-07 0 3.20877e-07)
(8.25479e-07 0 3.07226e-07)
(7.88355e-07 0 2.94057e-07)
(7.54373e-07 0 2.79423e-07)
(7.22988e-07 0 2.64892e-07)
(6.93654e-07 0 2.51591e-07)
(6.66187e-07 0 2.39241e-07)
(6.40473e-07 0 2.27503e-07)
(6.16365e-07 0 2.16493e-07)
(5.93692e-07 0 2.06359e-07)
(5.72064e-07 0 1.97421e-07)
(5.51434e-07 0 1.89126e-07)
(5.31751e-07 0 1.81633e-07)
(5.12847e-07 0 1.74966e-07)
(4.94275e-07 0 1.6945e-07)
(4.76356e-07 0 1.63748e-07)
(4.5873e-07 0 1.59546e-07)
(4.41622e-07 0 1.54806e-07)
(4.24632e-07 0 1.51205e-07)
(4.08045e-07 0 1.49055e-07)
(3.92015e-07 0 1.44875e-07)
(3.75258e-07 0 1.41921e-07)
(3.59095e-07 0 1.38697e-07)
(3.43294e-07 0 1.36341e-07)
(3.27857e-07 0 1.33669e-07)
(3.12459e-07 0 1.3121e-07)
(2.97344e-07 0 1.28584e-07)
(2.82549e-07 0 1.25796e-07)
(2.6791e-07 0 1.23506e-07)
(2.53772e-07 0 1.20921e-07)
(2.39819e-07 0 1.18717e-07)
(2.26188e-07 0 1.162e-07)
(2.12839e-07 0 1.13548e-07)
(1.99715e-07 0 1.11317e-07)
(1.86942e-07 0 1.09142e-07)
(1.74422e-07 0 1.0694e-07)
(1.62034e-07 0 1.04976e-07)
(1.4998e-07 0 1.02869e-07)
(1.38067e-07 0 1.00904e-07)
(1.26288e-07 0 9.90386e-08)
(1.14629e-07 0 9.72071e-08)
(1.03086e-07 0 9.52833e-08)
(9.15908e-08 0 9.32694e-08)
(8.01396e-08 0 9.10263e-08)
(6.86908e-08 0 8.83523e-08)
(5.78446e-08 0 8.47527e-08)
(4.34284e-08 0 7.87033e-08)
(3.26832e-08 0 1.23777e-07)
(5.47791e-09 0 1.80178e-07)
(-3.67464e-12 0 1.34393e-07)
(3.88029e-16 0 -1.91399e-16)
(1.931e-16 0 -4.03251e-19)
(3.8315e-16 0 1.04432e-17)
(3.80648e-16 0 2.10724e-17)
(3.76533e-16 0 3.12881e-17)
(3.70835e-16 0 4.09558e-17)
(3.6368e-16 0 4.98893e-17)
(3.55253e-16 0 5.79647e-17)
(3.45782e-16 0 6.51922e-17)