0 	306.927
0.010101 	313.746
0.020202 	313.777
