/*--------------------------------*- C++ -*----------------------------------*\
  =========                 |
  \\      /  F ield         | OpenFOAM: The Open Source CFD Toolbox
   \\    /   O peration     | Website:  https://openfoam.org
    \\  /    A nd           | Version:  6
     \\/     M anipulation  |
\*---------------------------------------------------------------------------*/
FoamFile
{
    version     2.0;
    format      ascii;
    class       volScalarField;
    location    "1600";
    object      T;
}
// * * * * * * * * * * * * * * * * * * * * * * * * * * * * * * * * * * * * * //

dimensions      [0 0 0 1 0 0 0];

internalField   nonuniform List<scalar> 
4800
(
552.493
552.379
552.266
552.155
552.046
551.94
551.837
551.736
551.638
551.542
551.449
551.358
551.27
551.183
551.098
551.014
550.932
550.851
550.772
550.694
550.617
550.541
550.466
550.392
550.32
550.248
550.177
550.107
550.038
549.97
549.903
549.836
549.77
549.705
549.639
549.575
549.511
549.447
549.384
549.321
549.258
549.196
549.133
549.071
549.008
548.945
548.882
548.819
548.755
548.69
548.625
548.559
548.493
548.425
548.356
548.285
548.213
548.138
548.062
547.982
547.9
547.814
547.724
547.63
547.531
547.427
547.318
547.204
547.083
546.957
546.825
546.686
546.542
546.393
546.238
546.079
545.916
545.752
545.588
545.426
545.267
545.112
544.96
544.813
544.67
544.53
544.393
544.259
544.128
543.999
543.873
543.748
543.625
543.504
543.384
543.265
543.148
543.032
542.916
542.802
542.688
542.575
542.463
542.351
542.24
542.129
542.018
541.908
541.798
541.689
541.58
541.471
541.362
541.253
541.145
541.037
540.928
540.82
540.712
540.604
552.493
552.378
552.265
552.154
552.045
551.938
551.834
551.733
551.635
551.539
551.446
551.355
551.265
551.178
551.093
551.009
550.927
550.846
550.767
550.688
550.611
550.535
550.46
550.387
550.314
550.242
550.171
550.101
550.032
549.964
549.896
549.829
549.763
549.697
549.632
549.567
549.503
549.439
549.376
549.313
549.25
549.187
549.124
549.061
548.999
548.936
548.873
548.809
548.745
548.681
548.615
548.55
548.483
548.415
548.346
548.275
548.203
548.128
548.051
547.972
547.889
547.804
547.714
547.62
547.521
547.417
547.308
547.194
547.074
546.947
546.815
546.677
546.533
546.384
546.23
546.072
545.911
545.748
545.585
545.423
545.263
545.108
544.957
544.81
544.667
544.527
544.39
544.257
544.126
543.997
543.871
543.746
543.624
543.503
543.383
543.265
543.147
543.031
542.916
542.801
542.688
542.575
542.462
542.351
542.239
542.128
542.018
541.908
541.798
541.689
541.58
541.471
541.362
541.253
541.145
541.036
540.928
540.82
540.712
540.604
552.492
552.377
552.263
552.151
552.041
551.934
551.829
551.728
551.629
551.533
551.439
551.347
551.258
551.17
551.085
551.001
550.918
550.837
550.757
550.679
550.601
550.525
550.45
550.376
550.303
550.231
550.16
550.089
550.02
549.951
549.883
549.816
549.749
549.683
549.617
549.552
549.488
549.424
549.36
549.296
549.233
549.17
549.106
549.043
548.98
548.917
548.854
548.79
548.726
548.661
548.596
548.53
548.463
548.395
548.326
548.255
548.183
548.108
548.031
547.952
547.869
547.784
547.694
547.6
547.501
547.398
547.289
547.175
547.055
546.929
546.797
546.66
546.516
546.368
546.215
546.058
545.899
545.738
545.576
545.415
545.255
545.1
544.949
544.803
544.66
544.521
544.385
544.252
544.122
543.994
543.868
543.744
543.621
543.5
543.381
543.263
543.146
543.03
542.915
542.8
542.687
542.574
542.462
542.35
542.239
542.128
542.018
541.908
541.798
541.688
541.579
541.47
541.362
541.253
541.145
541.036
540.928
540.82
540.712
540.604
552.492
552.376
552.26
552.147
552.036
551.928
551.823
551.72
551.621
551.524
551.43
551.338
551.248
551.16
551.073
550.989
550.906
550.824
550.744
550.665
550.588
550.511
550.436
550.361
550.288
550.215
550.143
550.072
550.002
549.933
549.864
549.796
549.729
549.662
549.596
549.531
549.466
549.401
549.336
549.272
549.208
549.144
549.081
549.017
548.953
548.89
548.826
548.762
548.698
548.633
548.567
548.501
548.434
548.366
548.296
548.226
548.153
548.079
548.002
547.922
547.84
547.754
547.664
547.571
547.472
547.369
547.261
547.147
547.027
546.902
546.771
546.634
546.492
546.345
546.193
546.038
545.88
545.72
545.56
545.4
545.242
545.088
544.938
544.793
544.651
544.513
544.378
544.245
544.116
543.988
543.863
543.739
543.617
543.497
543.378
543.26
543.144
543.028
542.913
542.799
542.686
542.573
542.461
542.349
542.238
542.127
542.017
541.907
541.797
541.688
541.579
541.47
541.361
541.253
541.144
541.036
540.928
540.82
540.712
540.604
552.491
552.373
552.257
552.142
552.03
551.921
551.815
551.712
551.612
551.515
551.42
551.327
551.236
551.148
551.061
550.976
550.892
550.81
550.729
550.65
550.572
550.495
550.418
550.343
550.269
550.196
550.123
550.051
549.98
549.91
549.84
549.771
549.703
549.636
549.569
549.503
549.437
549.371
549.306
549.241
549.176
549.111
549.047
548.983
548.919
548.854
548.79
548.726
548.661
548.595
548.53
548.463
548.396
548.328
548.258
548.187
548.114
548.04
547.963
547.884
547.801
547.716
547.626
547.533
547.435
547.332
547.224
547.11
546.991
546.867
546.737
546.601
546.46
546.314
546.164
546.011
545.855
545.697
545.538
545.38
545.224
545.072
544.923
544.779
544.638
544.501
544.367
544.236
544.107
543.981
543.856
543.734
543.613
543.493
543.374
543.257
543.141
543.025
542.911
542.797
542.684
542.571
542.459
542.348
542.237
542.126
542.016
541.906
541.797
541.687
541.578
541.47
541.361
541.253
541.144
541.036
540.928
540.82
540.712
540.604
552.49
552.372
552.254
552.138
552.025
551.915
551.808
551.704
551.603
551.505
551.409
551.316
551.225
551.135
551.048
550.962
550.877
550.795
550.713
550.633
550.554
550.476
550.399
550.323
550.247
550.173
550.099
550.026
549.954
549.882
549.811
549.741
549.672
549.604
549.536
549.468
549.401
549.335
549.268
549.202
549.137
549.071
549.006
548.941
548.876
548.811
548.746
548.681
548.616
548.55
548.484
548.417
548.35
548.281
548.211
548.14
548.068
547.993
547.916
547.837
547.755
547.669
547.58
547.487
547.389
547.287
547.179
547.067
546.949
546.825
546.696
546.561
546.421
546.277
546.129
545.978
545.824
545.669
545.513
545.357
545.202
545.051
544.904
544.761
544.622
544.487
544.355
544.225
544.097
543.972
543.849
543.727
543.606
543.487
543.37
543.253
543.137
543.022
542.908
542.795
542.682
542.569
542.458
542.346
542.236
542.125
542.015
541.905
541.796
541.687
541.578
541.469
541.361
541.252
541.144
541.036
540.928
540.82
540.712
540.604
552.49
552.37
552.251
552.134
552.019
551.908
551.8
551.695
551.594
551.495
551.399
551.306
551.214
551.124
551.035
550.948
550.863
550.779
550.697
550.615
550.535
550.456
550.377
550.3
550.223
550.147
550.072
549.998
549.924
549.851
549.779
549.707
549.637
549.567
549.497
549.428
549.36
549.292
549.225
549.158
549.091
549.024
548.958
548.892
548.826
548.761
548.695
548.63
548.564
548.498
548.431
548.364
548.296
548.227
548.157
548.086
548.013
547.938
547.862
547.782
547.7
547.615
547.526
547.433
547.336
547.234
547.128
547.016
546.899
546.776
546.648
546.515
546.377
546.235
546.089
545.939
545.788
545.635
545.481
545.328
545.175
545.026
544.881
544.74
544.604
544.47
544.339
544.211
544.085
543.962
543.839
543.719
543.599
543.481
543.364
543.248
543.133
543.018
542.905
542.792
542.679
542.567
542.456
542.345
542.234
542.124
542.014
541.904
541.795
541.686
541.577
541.469
541.36
541.252
541.144
541.036
540.928
540.82
540.712
540.604
552.489
552.368
552.248
552.131
552.015
551.903
551.794
551.689
551.587
551.488
551.391
551.297
551.204
551.113
551.024
550.936
550.849
550.764
550.68
550.597
550.515
550.435
550.354
550.275
550.197
550.119
550.042
549.966
549.891
549.816
549.742
549.669
549.596
549.525
549.454
549.384
549.314
549.245
549.176
549.107
549.039
548.972
548.905
548.838
548.771
548.704
548.638
548.572
548.505
548.439
548.371
548.304
548.235
548.166
548.096
548.024
547.951
547.877
547.8
547.721
547.639
547.554
547.466
547.373
547.277
547.175
547.069
546.958
546.842
546.721
546.594
546.463
546.327
546.186
546.042
545.895
545.745
545.594
545.443
545.293
545.143
544.996
544.854
544.716
544.581
544.45
544.322
544.196
544.072
543.949
543.829
543.709
543.591
543.474
543.358
543.243
543.128
543.014
542.901
542.788
542.676
542.565
542.454
542.343
542.232
542.122
542.013
541.903
541.794
541.685
541.576
541.468
541.36
541.251
541.143
541.035
540.927
540.819
540.712
540.604
552.489
552.367
552.247
552.128
552.013
551.9
551.79
551.684
551.581
551.482
551.384
551.289
551.196
551.104
551.014
550.925
550.837
550.75
550.664
550.58
550.496
550.413
550.331
550.249
550.169
550.089
550.01
549.932
549.855
549.778
549.703
549.627
549.553
549.48
549.407
549.335
549.263
549.193
549.122
549.053
548.983
548.914
548.846
548.778
548.71
548.643
548.575
548.508
548.441
548.374
548.306
548.238
548.169
548.099
548.029
547.957
547.884
547.809
547.733
547.654
547.572
547.487
547.399
547.307
547.211
547.111
547.005
546.895
546.78
546.661
546.536
546.406
546.271
546.133
545.991
545.845
545.698
545.549
545.401
545.253
545.106
544.962
544.823
544.688
544.556
544.428
544.302
544.178
544.056
543.936
543.817
543.699
543.582
543.466
543.351
543.237
543.123
543.01
542.897
542.785
542.673
542.562
542.451
542.341
542.231
542.121
542.011
541.902
541.793
541.684
541.576
541.467
541.359
541.251
541.143
541.035
540.927
540.819
540.712
540.604
552.489
552.367
552.246
552.128
552.012
551.898
551.789
551.682
551.579
551.478
551.38
551.284
551.19
551.097
551.006
550.915
550.826
550.737
550.65
550.563
550.477
550.392
550.307
550.223
550.141
550.058
549.977
549.897
549.817
549.738
549.66
549.583
549.507
549.431
549.357
549.283
549.21
549.137
549.065
548.994
548.923
548.853
548.783
548.714
548.645
548.576
548.508
548.44
548.372
548.304
548.236
548.167
548.098
548.028
547.957
547.885
547.811
547.736
547.66
547.581
547.5
547.415
547.327
547.236
547.141
547.041
546.937
546.828
546.714
546.596
546.472
546.344
546.212
546.075
545.935
545.792
545.646
545.5
545.353
545.208
545.064
544.923
544.787
544.656
544.528
544.403
544.28
544.159
544.04
543.922
543.804
543.688
543.573
543.458
543.344
543.23
543.117
543.005
542.893
542.781
542.67
542.559
542.449
542.338
542.229
542.119
542.01
541.901
541.792
541.683
541.575
541.466
541.358
541.25
541.142
541.035
540.927
540.819
540.711
540.604
552.489
552.368
552.247
552.129
552.013
551.9
551.79
551.683
551.579
551.477
551.378
551.281
551.186
551.092
551
550.908
550.816
550.726
550.636
550.547
550.459
550.371
550.284
550.198
550.112
550.027
549.943
549.86
549.778
549.697
549.617
549.537
549.458
549.381
549.304
549.228
549.153
549.079
549.005
548.932
548.859
548.788
548.716
548.646
548.576
548.506
548.437
548.368
548.299
548.231
548.162
548.092
548.023
547.952
547.88
547.808
547.734
547.659
547.582
547.504
547.423
547.339
547.251
547.16
547.065
546.966
546.863
546.755
546.643
546.526
546.405
546.279
546.148
546.013
545.875
545.734
545.59
545.445
545.3
545.157
545.016
544.879
544.747
544.62
544.497
544.376
544.257
544.139
544.022
543.906
543.791
543.676
543.562
543.449
543.336
543.223
543.111
542.999
542.888
542.777
542.666
542.556
542.446
542.336
542.227
542.117
542.008
541.899
541.791
541.682
541.574
541.466
541.358
541.25
541.142
541.034
540.926
540.819
540.711
540.604
552.49
552.37
552.25
552.133
552.017
551.904
551.794
551.686
551.582
551.479
551.379
551.281
551.184
551.089
550.995
550.901
550.808
550.716
550.624
550.532
550.441
550.351
550.261
550.172
550.084
549.996
549.91
549.824
549.739
549.655
549.572
549.49
549.409
549.329
549.25
549.171
549.094
549.018
548.942
548.868
548.793
548.72
548.647
548.575
548.504
548.433
548.363
548.293
548.223
548.154
548.084
548.014
547.944
547.873
547.801
547.728
547.654
547.579
547.502
547.423
547.342
547.258
547.171
547.081
546.987
546.889
546.787
546.68
546.569
546.454
546.334
546.209
546.081
545.948
545.811
545.671
545.528
545.385
545.241
545.099
544.961
544.828
544.703
544.582
544.463
544.347
544.232
544.117
544.003
543.89
543.777
543.664
543.552
543.439
543.328
543.216
543.105
542.994
542.883
542.773
542.663
542.553
542.443
542.334
542.224
542.115
542.006
541.898
541.789
541.681
541.573
541.465
541.357
541.249
541.141
541.034
540.926
540.819
540.711
540.604
552.491
552.372
552.255
552.139
552.024
551.912
551.801
551.693
551.587
551.483
551.382
551.282
551.184
551.087
550.991
550.896
550.801
550.707
550.613
550.519
550.425
550.332
550.24
550.148
550.056
549.966
549.876
549.787
549.7
549.613
549.527
549.442
549.359
549.276
549.194
549.114
549.034
548.956
548.878
548.802
548.726
548.65
548.576
548.502
548.429
548.358
548.286
548.216
548.145
548.075
548.005
547.934
547.863
547.792
547.719
547.645
547.571
547.495
547.418
547.34
547.259
547.175
547.089
546.999
546.905
546.808
546.707
546.602
546.492
546.379
546.261
546.138
546.011
545.88
545.745
545.606
545.464
545.32
545.175
545.033
544.897
544.771
544.653
544.54
544.428
544.317
544.206
544.095
543.984
543.873
543.762
543.651
543.541
543.43
543.319
543.209
543.098
542.988
542.878
542.768
542.659
542.549
542.44
542.331
542.222
542.113
542.005
541.896
541.788
541.68
541.572
541.464
541.356
541.248
541.141
541.033
540.926
540.818
540.711
540.604
552.492
552.376
552.26
552.146
552.033
551.921
551.811
551.702
551.595
551.49
551.386
551.284
551.184
551.085
550.988
550.891
550.795
550.698
550.602
550.506
550.41
550.314
550.219
550.124
550.029
549.936
549.843
549.751
549.66
549.571
549.482
549.395
549.308
549.223
549.139
549.056
548.974
548.893
548.813
548.734
548.657
548.579
548.503
548.428
548.354
548.281
548.208
548.137
548.066
547.995
547.924
547.853
547.781
547.709
547.636
547.562
547.487
547.411
547.333
547.254
547.173
547.09
547.004
546.914
546.822
546.726
546.626
546.523
546.415
546.302
546.186
546.066
545.941
545.812
545.678
545.54
545.398
545.253
545.105
544.957
544.819
544.704
544.599
544.496
544.392
544.286
544.18
544.073
543.965
543.857
543.748
543.639
543.53
543.42
543.311
543.201
543.092
542.983
542.873
542.764
542.655
542.546
542.437
542.328
542.22
542.111
542.003
541.895
541.786
541.679
541.571
541.463
541.355
541.248
541.14
541.033
540.925
540.818
540.711
540.604
552.493
552.38
552.267
552.154
552.042
551.931
551.821
551.712
551.604
551.497
551.392
551.288
551.185
551.084
550.985
550.886
550.788
550.69
550.592
550.494
550.395
550.297
550.199
550.101
550.004
549.907
549.811
549.716
549.623
549.53
549.439
549.348
549.259
549.171
549.085
548.999
548.915
548.831
548.749
548.668
548.588
548.509
548.431
548.354
548.278
548.204
548.13
548.057
547.985
547.914
547.842
547.771
547.698
547.626
547.552
547.478
547.402
547.326
547.248
547.169
547.088
547.004
546.918
546.83
546.738
546.643
546.545
546.443
546.337
546.226
546.112
545.993
545.87
545.743
545.611
545.475
545.333
545.187
545.033
544.873
544.714
544.628
544.543
544.452
544.356
544.257
544.155
544.051
543.946
543.84
543.733
543.626
543.519
543.411
543.302
543.194
543.085
542.977
542.868
542.76
542.651
542.542
542.434
542.326
542.217
542.109
542.001
541.893
541.785
541.677
541.57
541.462
541.354
541.247
541.14
541.032
540.925
540.818
540.711
540.604
552.494
552.383
552.273
552.162
552.052
551.942
551.833
551.723
551.614
551.506
551.398
551.291
551.186
551.083
550.981
550.881
550.781
550.682
550.582
550.481
550.381
550.28
550.179
550.079
549.978
549.879
549.78
549.683
549.586
549.491
549.397
549.304
549.212
549.122
549.033
548.945
548.858
548.772
548.687
548.604
548.522
548.44
548.36
548.281
548.204
548.127
548.052
547.978
547.905
547.833
547.761
547.688
547.616
547.543
547.469
547.394
547.318
547.242
547.164
547.085
547.004
546.92
546.834
546.746
546.655
546.561
546.463
546.363
546.259
546.151
546.038
545.921
545.801
545.676
545.546
545.412
545.272
545.126
544.969
544.79
544.535
544.55
544.494
544.414
544.324
544.229
544.131
544.03
543.928
543.824
543.72
543.614
543.508
543.401
543.294
543.187
543.079
542.971
542.863
542.755
542.647
542.539
542.431
542.323
542.215
542.107
541.999
541.891
541.784
541.676
541.569
541.461
541.354
541.246
541.139
541.032
540.925
540.818
540.711
540.604
552.496
552.387
552.278
552.17
552.061
551.952
551.843
551.733
551.623
551.513
551.403
551.294
551.187
551.081
550.976
550.874
550.773
550.672
550.57
550.468
550.365
550.262
550.159
550.056
549.954
549.852
549.751
549.651
549.552
549.454
549.357
549.262
549.168
549.075
548.983
548.893
548.804
548.715
548.628
548.542
548.458
548.374
548.292
548.21
548.131
548.053
547.976
547.901
547.827
547.753
547.681
547.608
547.535
547.461
547.387
547.312
547.236
547.16
547.082
547.003
546.921
546.838
546.752
546.664
546.573
546.48
546.384
546.284
546.182
546.076
545.965
545.851
545.733
545.611
545.485
545.353
545.217
545.075
544.927
544.774
544.621
544.543
544.467
544.385
544.297
544.205
544.109
544.011
543.911
543.809
543.706
543.602
543.498
543.392
543.286
543.18
543.073
542.966
542.858
542.751
542.643
542.536
542.428
542.32
542.213
542.105
541.997
541.89
541.782
541.675
541.567
541.46
541.353
541.246
541.139
541.032
540.924
540.817
540.71
540.603
552.497
552.39
552.284
552.176
552.069
551.961
551.852
551.741
551.63
551.519
551.407
551.296
551.186
551.077
550.97
550.865
550.762
550.659
550.556
550.453
550.349
550.244
550.139
550.034
549.929
549.825
549.722
549.62
549.519
549.419
549.32
549.223
549.127
549.032
548.938
548.845
548.753
548.663
548.573
548.485
548.397
548.311
548.227
548.143
548.062
547.982
547.904
547.827
547.752
547.678
547.604
547.531
547.457
547.383
547.309
547.234
547.158
547.082
547.004
546.924
546.843
546.759
546.674
546.586
546.496
546.403
546.307
546.209
546.107
546.003
545.895
545.783
545.668
545.549
545.426
545.299
545.167
545.032
544.893
544.756
544.631
544.534
544.447
544.361
544.274
544.183
544.089
543.993
543.895
543.795
543.694
543.591
543.488
543.383
543.278
543.173
543.067
542.96
542.854
542.747
542.64
542.532
542.425
542.318
542.21
542.103
541.996
541.888
541.781
541.674
541.566
541.459
541.352
541.245
541.138
541.031
540.924
540.817
540.71
540.603
552.498
552.392
552.287
552.181
552.074
551.966
551.857
551.746
551.634
551.521
551.408
551.295
551.182
551.071
550.961
550.853
550.748
550.643
550.539
550.435
550.329
550.223
550.116
550.01
549.904
549.798
549.693
549.59
549.487
549.386
549.286
549.187
549.088
548.991
548.895
548.801
548.707
548.614
548.522
548.432
548.342
548.254
548.167
548.082
547.998
547.916
547.837
547.759
547.683
547.608
547.533
547.459
547.386
547.311
547.237
547.162
547.086
547.009
546.931
546.851
546.77
546.686
546.601
546.513
546.423
546.331
546.236
546.138
546.038
545.935
545.829
545.719
545.607
545.491
545.371
545.248
545.121
544.99
544.858
544.73
544.613
544.514
544.426
544.34
544.253
544.164
544.072
543.978
543.881
543.783
543.682
543.581
543.479
543.375
543.271
543.166
543.061
542.955
542.849
542.743
542.636
542.529
542.422
542.315
542.208
542.101
541.994
541.887
541.78
541.672
541.565
541.458
541.351
541.244
541.138
541.031
540.924
540.817
540.71
540.603
552.498
552.393
552.288
552.182
552.075
551.966
551.856
551.745
551.632
551.518
551.404
551.288
551.174
551.06
550.947
550.837
550.728
550.622
550.517
550.412
550.305
550.198
550.091
549.984
549.877
549.77
549.665
549.56
549.457
549.354
549.253
549.153
549.054
548.955
548.858
548.761
548.665
548.571
548.477
548.384
548.293
548.203
548.114
548.027
547.941
547.858
547.777
547.698
547.621
547.545
547.47
547.396
547.322
547.248
547.173
547.098
547.022
546.945
546.866
546.786
546.704
546.621
546.535
546.447
546.357
546.265
546.17
546.073
545.974
545.872
545.767
545.66
545.55
545.437
545.32
545.201
545.078
544.951
544.822
544.693
544.576
544.484
544.401
544.319
544.235
544.148
544.057
543.964
543.868
543.771
543.672
543.572
543.47
543.368
543.264
543.16
543.056
542.95
542.845
542.739
542.633
542.526
542.42
542.313
542.206
542.099
541.992
541.885
541.778
541.671
541.564
541.458
541.351
541.244
541.137
541.03
540.923
540.817
540.71
540.603
552.497
552.391
552.285
552.177
552.069
551.96
551.849
551.736
551.622
551.507
551.391
551.274
551.158
551.042
550.927
550.814
550.703
550.594
550.488
550.382
550.276
550.169
550.061
549.954
549.847
549.74
549.635
549.53
549.427
549.324
549.223
549.122
549.022
548.923
548.824
548.727
548.63
548.534
548.439
548.344
548.251
548.16
548.069
547.98
547.893
547.809
547.727
547.647
547.569
547.492
547.417
547.343
547.269
547.194
547.12
547.044
546.968
546.891
546.812
546.732
546.649
546.565
546.479
546.39
546.3
546.208
546.114
546.017
545.918
545.816
545.713
545.607
545.498
545.387
545.273
545.157
545.038
544.914
544.784
544.647
544.515
544.445
544.376
544.301
544.22
544.134
544.044
543.952
543.858
543.761
543.663
543.563
543.462
543.361
543.258
543.155
543.05
542.946
542.841
542.735
542.629
542.523
542.417
542.311
542.204
542.097
541.991
541.884
541.777
541.67
541.563
541.457
541.35
541.243
541.137
541.03
540.923
540.817
540.71
540.603
552.495
552.386
552.277
552.167
552.056
551.944
551.831
551.717
551.601
551.484
551.366
551.248
551.13
551.013
550.897
550.782
550.669
550.559
550.451
550.345
550.24
550.133
550.026
549.92
549.813
549.708
549.603
549.499
549.396
549.295
549.194
549.094
548.994
548.895
548.796
548.698
548.6
548.503
548.408
548.313
548.218
548.125
548.034
547.943
547.855
547.77
547.687
547.606
547.528
547.451
547.376
547.302
547.228
547.154
547.079
547.004
546.928
546.85
546.771
546.69
546.607
546.522
546.435
546.346
546.255
546.162
546.068
545.971
545.871
545.77
545.666
545.561
545.453
545.343
545.231
545.118
545.002
544.881
544.751
544.601
544.391
544.406
544.358
544.289
544.209
544.123
544.034
543.942
543.848
543.752
543.655
543.556
543.456
543.354
543.252
543.149
543.046
542.942
542.837
542.732
542.626
542.521
542.415
542.309
542.202
542.096
541.989
541.883
541.776
541.669
541.563
541.456
541.349
541.243
541.136
541.029
540.923
540.816
540.71
540.603
552.492
552.377
552.262
552.147
552.032
551.917
551.801
551.684
551.566
551.447
551.327
551.207
551.087
550.969
550.852
550.737
550.624
550.512
550.404
550.298
550.194
550.089
549.984
549.879
549.774
549.671
549.568
549.466
549.365
549.265
549.166
549.067
548.969
548.871
548.773
548.675
548.578
548.481
548.385
548.289
548.195
548.101
548.008
547.917
547.828
547.742
547.659
547.578
547.5
547.424
547.349
547.275
547.202
547.129
547.055
546.98
546.903
546.825
546.745
546.663
546.579
546.493
546.405
546.316
546.224
546.131
546.035
545.937
545.837
545.735
545.63
545.524
545.415
545.306
545.195
545.083
544.971
544.857
544.739
544.615
544.492
544.43
544.363
544.286
544.204
544.117
544.027
543.935
543.84
543.745
543.647
543.549
543.449
543.349
543.247
543.145
543.042
542.938
542.834
542.729
542.624
542.518
542.413
542.307
542.2
542.094
541.988
541.881
541.775
541.668
541.562
541.455
541.349
541.242
541.136
541.029
540.923
540.816
540.71
540.603
552.488
552.363
552.24
552.117
551.996
551.876
551.756
551.635
551.513
551.391
551.268
551.145
551.024
550.904
550.788
550.675
550.563
550.452
550.344
550.24
550.137
550.035
549.932
549.83
549.729
549.628
549.528
549.429
549.33
549.233
549.137
549.041
548.945
548.85
548.754
548.658
548.563
548.467
548.371
548.276
548.181
548.087
547.993
547.902
547.812
547.726
547.643
547.563
547.486
547.411
547.337
547.265
547.193
547.121
547.048
546.974
546.897
546.819
546.738
546.655
546.57
546.483
546.394
546.303
546.211
546.116
546.019
545.92
545.819
545.714
545.608
545.499
545.388
545.277
545.165
545.054
544.945
544.837
544.732
544.628
544.534
544.46
544.377
544.291
544.203
544.113
544.021
543.928
543.834
543.738
543.641
543.543
543.444
543.344
543.242
543.14
543.038
542.934
542.83
542.726
542.621
542.516
542.411
542.305
542.199
542.093
541.987
541.88
541.774
541.668
541.561
541.455
541.348
541.242
541.135
541.029
540.922
540.816
540.71
540.603
552.481
552.344
552.209
552.076
551.946
551.819
551.693
551.567
551.442
551.316
551.189
551.063
550.938
550.816
550.702
550.593
550.485
550.376
550.269
550.167
550.068
549.968
549.87
549.771
549.674
549.577
549.48
549.385
549.29
549.197
549.105
549.013
548.922
548.831
548.74
548.648
548.556
548.463
548.368
548.274
548.178
548.083
547.989
547.897
547.808
547.722
547.64
547.561
547.486
547.413
547.342
547.272
547.202
547.132
547.061
546.988
546.912
546.834
546.752
546.668
546.582
546.494
546.404
546.312
546.218
546.123
546.025
545.924
545.82
545.713
545.602
545.489
545.374
545.258
545.142
545.029
544.92
544.817
544.72
544.632
544.556
544.501
544.394
544.297
544.203
544.11
544.017
543.923
543.829
543.733
543.636
543.538
543.439
543.339
543.238
543.137
543.034
542.931
542.828
542.724
542.619
542.514
542.409
542.303
542.197
542.092
541.985
541.879
541.773
541.667
541.56
541.454
541.348
541.241
541.135
541.029
540.922
540.816
540.71
540.603
552.473
552.319
552.168
552.022
551.882
551.745
551.612
551.481
551.35
551.22
551.09
550.959
550.83
550.705
550.592
550.489
550.387
550.281
550.177
550.078
549.982
549.887
549.793
549.7
549.607
549.515
549.422
549.331
549.241
549.153
549.067
548.982
548.898
548.815
548.731
548.646
548.559
548.47
548.378
548.284
548.188
548.093
547.997
547.904
547.815
547.73
547.649
547.573
547.501
547.431
547.364
547.297
547.231
547.164
547.095
547.024
546.949
546.871
546.789
546.704
546.618
546.53
546.439
546.347
546.253
546.157
546.057
545.954
545.847
545.735
545.619
545.498
545.375
545.251
545.127
545.006
544.894
544.792
544.701
544.623
544.559
544.509
544.401
544.3
544.203
544.108
544.014
543.919
543.824
543.728
543.631
543.534
543.435
543.335
543.235
543.134
543.031
542.929
542.825
542.721
542.617
542.512
542.407
542.302
542.196
542.09
541.984
541.878
541.772
541.666
541.56
541.454
541.347
541.241
541.135
541.028
540.922
540.816
540.709
540.603
552.462
552.288
552.119
551.958
551.803
551.656
551.514
551.375
551.24
551.105
550.971
550.837
550.704
550.574
550.461
550.365
550.27
550.169
550.068
549.971
549.879
549.789
549.701
549.614
549.526
549.438
549.35
549.262
549.177
549.095
549.018
548.943
548.871
548.798
548.726
548.652
548.574
548.491
548.403
548.309
548.213
548.115
548.017
547.923
547.834
547.75
547.673
547.6
547.531
547.466
547.402
547.341
547.279
547.215
547.15
547.081
547.008
546.93
546.848
546.764
546.68
546.594
546.505
546.416
546.323
546.228
546.127
546.021
545.909
545.79
545.663
545.529
545.393
545.255
545.116
544.982
544.86
544.758
544.671
544.602
544.548
544.506
544.4
544.299
544.201
544.105
544.01
543.915
543.82
543.724
543.628
543.53
543.431
543.332
543.232
543.131
543.029
542.926
542.823
542.72
542.615
542.511
542.406
542.301
542.195
542.09
541.984
541.878
541.772
541.666
541.559
541.453
541.347
541.241
541.134
541.028
540.922
540.816
540.709
540.603
552.451
552.255
552.066
551.885
551.714
551.553
551.399
551.252
551.11
550.971
550.834
550.698
550.563
550.431
550.318
550.225
550.136
550.04
549.942
549.846
549.757
549.672
549.59
549.51
549.428
549.347
549.261
549.176
549.095
549.021
548.954
548.894
548.836
548.78
548.726
548.669
548.605
548.532
548.447
548.351
548.25
548.148
548.046
547.951
547.864
547.784
547.712
547.645
547.581
547.518
547.458
547.401
547.343
547.284
547.22
547.154
547.087
547.011
546.928
546.847
546.769
546.689
546.607
546.525
546.438
546.345
546.244
546.132
546.016
545.887
545.739
545.582
545.428
545.272
545.103
544.95
544.809
544.709
544.625
544.568
544.526
544.499
544.395
544.294
544.197
544.101
544.006
543.911
543.816
543.721
543.624
543.527
543.429
543.329
543.229
543.128
543.027
542.924
542.822
542.718
542.614
542.51
542.405
542.3
542.194
542.089
541.983
541.877
541.771
541.665
541.559
541.453
541.347
541.24
541.134
541.028
540.922
540.816
540.709
540.603
552.44
552.222
552.01
551.809
551.62
551.441
551.273
551.113
550.962
550.819
550.682
550.546
550.414
550.285
550.171
550.078
549.991
549.901
549.802
549.704
549.614
549.533
549.457
549.383
549.31
549.24
549.157
549.075
549.001
548.935
548.883
548.838
548.798
548.759
548.733
548.705
548.659
548.598
548.511
548.403
548.287
548.184
548.074
547.988
547.912
547.835
547.774
547.714
547.654
547.59
547.527
547.476
547.416
547.364
547.302
547.236
547.185
547.115
547.029
546.948
546.882
546.819
546.754
546.687
546.605
546.515
546.416
546.283
546.175
546.044
545.848
545.656
545.476
545.299
545.072
544.926
544.71
544.639
544.587
544.533
544.503
544.491
544.386
544.287
544.191
544.096
544.002
543.908
543.813
543.718
543.621
543.524
543.426
543.327
543.227
543.127
543.025
542.923
542.82
542.717
542.613
542.509
542.404
542.299
542.194
542.088
541.982
541.877
541.771
541.665
541.559
541.452
541.346
541.24
541.134
541.028
540.922
540.815
540.709
540.603
552.428
552.189
551.954
551.73
551.52
551.32
551.134
550.958
550.799
550.653
550.519
550.39
550.27
550.149
550.039
549.928
549.841
549.761
549.651
549.538
549.448
549.372
549.293
549.213
549.154
549.116
549.036
548.975
548.928
548.879
548.846
548.792
548.765
548.738
548.753
548.763
548.728
548.682
548.571
548.431
548.284
548.201
548.071
548.038
548.01
547.914
547.869
547.813
547.745
547.682
547.587
547.554
547.481
547.454
547.394
547.309
547.307
547.272
547.162
547.048
547.011
547.018
547.026
546.939
546.811
546.713
546.664
546.428
546.288
546.121
545.893
545.646
545.468
545.257
544.932
544.855
544.513
544.464
544.522
544.502
544.494
544.48
544.373
544.277
544.183
544.091
543.998
543.905
543.81
543.715
543.619
543.522
543.424
543.326
543.226
543.125
543.024
542.922
542.819
542.716
542.612
542.508
542.403
542.298
542.193
542.088
541.982
541.876
541.77
541.664
541.558
541.452
541.346
541.24
541.134
541.028
540.922
540.815
540.709
540.603
552.408
552.144
551.891
551.65
551.424
551.19
550.989
550.797
550.641
550.482
550.357
550.258
550.164
550.048
549.955
549.763
549.68
549.656
549.488
549.343
549.278
549.264
549.126
549.002
548.936
548.918
548.874
548.952
548.964
548.908
548.829
548.706
548.715
548.712
548.732
548.745
548.702
548.65
548.557
548.365
548.217
548.175
548.004
548.029
548.216
548.052
547.934
547.862
547.814
547.839
547.633
547.646
547.625
547.67
547.594
547.447
547.543
547.537
547.391
547.108
547.194
547.638
547.72
547.219
546.916
546.808
547.124
546.237
546.245
546.385
546.016
545.637
545.696
545.124
544.717
545.538
544.416
544.443
544.546
544.502
544.504
544.444
544.351
544.264
544.176
544.086
543.995
543.902
543.809
543.714
543.618
543.521
543.423
543.324
543.225
543.124
543.023
542.921
542.819
542.715
542.612
542.507
542.403
542.298
542.193
542.087
541.982
541.876
541.77