/*--------------------------------*- C++ -*----------------------------------*\
  =========                 |
  \\      /  F ield         | OpenFOAM: The Open Source CFD Toolbox
   \\    /   O peration     | Website:  https://openfoam.org
    \\  /    A nd           | Version:  6
     \\/     M anipulation  |
\*---------------------------------------------------------------------------*/
FoamFile
{
    version     2.0;
    format      ascii;
    class       surfaceScalarField;
    location    "4500";
    object      phi;
}
// * * * * * * * * * * * * * * * * * * * * * * * * * * * * * * * * * * * * * //

dimensions      [0 3 -1 0 0 0 0];

internalField   nonuniform List<scalar> 
9440
(
-2.30271e-14
2.30272e-14
-4.59416e-14
2.29213e-14
-6.85343e-14
2.25961e-14
-9.05193e-14
2.19881e-14
-1.11659e-13
2.11445e-14
-1.31717e-13
2.00617e-14
-1.50565e-13
1.88515e-14
-1.68089e-13
1.75261e-14
-1.84169e-13
1.60848e-14
-1.98668e-13
1.4502e-14
-2.11586e-13
1.29204e-14
-2.22851e-13
1.1268e-14
-2.32342e-13
9.49336e-15
-2.40484e-13
8.1439e-15
-2.47356e-13
6.87259e-15
-2.53278e-13
5.92616e-15
-2.57951e-13
4.675e-15
-2.59932e-13
1.98151e-15
-2.61139e-13
1.20985e-15
-2.62237e-13
1.09996e-15
-2.62964e-13
7.29594e-16
-2.59881e-13
-3.08064e-15
-2.5785e-13
-2.02932e-15
-2.54776e-13
-3.07076e-15
-2.50723e-13
-4.05039e-15
-2.46071e-13
-4.65038e-15
-2.40802e-13
-5.26543e-15
-2.34838e-13
-5.96088e-15
-2.28346e-13
-6.48754e-15
-2.21128e-13
-7.21452e-15
-2.13241e-13
-7.88172e-15
-2.04724e-13
-8.51332e-15
-1.95522e-13
-9.1982e-15
-1.85677e-13
-9.83846e-15
-1.75106e-13
-1.05669e-14
-1.63893e-13
-1.12078e-14
-1.51997e-13
-1.18882e-14
-1.39509e-13
-1.24798e-14
-1.26394e-13
-1.31063e-14
-1.12761e-13
-1.36266e-14
-9.86339e-14
-1.41187e-14
-8.41295e-14
-1.44944e-14
-6.93407e-14
-1.47795e-14
-5.42987e-14
-1.50318e-14
-3.92248e-14
-1.50629e-14
-2.41266e-14
-1.50879e-14
-9.20012e-15
-1.49151e-14
5.43652e-15
-1.46246e-14
1.96032e-14
-1.41551e-14
3.32733e-14
-1.36565e-14
4.6246e-14
-1.29598e-14
5.84705e-14
-1.22124e-14
6.97787e-14
-1.12947e-14
8.00796e-14
-1.02872e-14
8.9298e-14
-9.20615e-15
9.74661e-14
-8.1544e-15
1.04476e-13
-6.9971e-15
1.10346e-13
-5.85634e-15
1.14969e-13
-4.61033e-15
1.18535e-13
-3.55486e-15
1.21003e-13
-2.45527e-15
1.22444e-13
-1.4282e-15
1.22884e-13
-4.27725e-16
1.22452e-13
4.44187e-16
1.21201e-13
1.26214e-15
1.19355e-13
1.85649e-15
1.16871e-13
2.49307e-15
1.13926e-13
2.9542e-15
1.1071e-13
3.22745e-15
1.07473e-13
3.24773e-15
1.04335e-13
3.14751e-15
1.01692e-13
2.65153e-15
1.00132e-13
1.56918e-15
1.01171e-13
-1.03093e-15
1.08637e-13
-7.45812e-15
1.34792e-13
-2.61464e-14
2.17954e-13
-8.31543e-14
9.94826e-14
1.18479e-13
-4.52117e-18
9.94956e-14
6.17081e-22
-5.29402e-23
6.16922e-22
-2.58494e-25
6.15681e-22
1.34417e-24
6.13199e-22
3.15363e-24
6.0896e-22
5.01478e-24
6.03066e-22
6.87594e-24
5.95312e-22
8.582e-24
5.86006e-22
1.01847e-23
5.75097e-22
1.16322e-23
5.62948e-22
1.30798e-23
5.49558e-22
1.43723e-23
5.34979e-22
1.55096e-23
5.19366e-22
1.65436e-23
5.02926e-22
1.73708e-23
4.85555e-22
1.81463e-23
4.67719e-22
1.8715e-23
4.49314e-22
1.91803e-23
4.30341e-22
1.95938e-23
4.11109e-22
1.97489e-23
3.91567e-22
1.99557e-23
3.71869e-22
2.00074e-23
3.52172e-22
2.00074e-23
3.32216e-22
1.9904e-23
3.12312e-22
1.96972e-23
2.9246e-22
1.94904e-23
2.72659e-22
1.91286e-23
2.53066e-22
1.87667e-23
2.33472e-22
1.83531e-23
2.14085e-22
1.79395e-23
1.94904e-22
1.74225e-23
1.76138e-22
1.69572e-23
1.57319e-22
1.63885e-23
1.38708e-22
1.58715e-23
1.20458e-22
1.54062e-23
1.02312e-22
1.4941e-23
8.45275e-23
1.4424e-23
6.68982e-23
1.40104e-23
4.94757e-23
1.36485e-23
3.226e-23
1.32866e-23
1.55613e-23
1.26145e-23
1.13737e-23
-2.24788e-14
4.55122e-14
-4.62856e-14
4.67364e-14
-6.97047e-14
4.60197e-14
-9.22275e-14
4.452e-14
-1.1367e-13
4.25938e-14
-1.33988e-13
4.03859e-14
-1.53024e-13
3.78944e-14
-1.7063e-13
3.51406e-14
-1.86669e-13
3.21288e-14
-2.01183e-13
2.90221e-14
-2.13982e-13
2.57254e-14
-2.2506e-13
2.23517e-14
-2.34447e-13
1.88853e-14
-2.42377e-13
1.60795e-14
-2.49091e-13
1.35901e-14
-2.552e-13
1.20367e-14
-2.5928e-13
8.75959e-15
-2.61133e-13
3.84005e-15
-2.62341e-13
2.41906e-15
-2.63533e-13
2.29636e-15
-2.63608e-13
8.08312e-16
-2.60887e-13
-5.79865e-15
-2.58671e-13
-4.24278e-15
-2.5563e-13
-6.10742e-15
-2.5139e-13
-8.28696e-15
-2.46735e-13
-9.29954e-15
-2.41484e-13
-1.05084e-14
-2.35549e-13
-1.18898e-14
-2.28975e-13
-1.30533e-14
-2.21745e-13
-1.44364e-14
-2.13871e-13
-1.57482e-14
-2.05358e-13
-1.70188e-14
-1.96147e-13
-1.84004e-14
-1.86276e-13
-1.97004e-14
-1.75804e-13
-2.10273e-14
-1.64507e-13
-2.24932e-14
-1.52605e-13
-2.37781e-14
-1.40078e-13
-2.49936e-14
-1.26922e-13
-2.62496e-14
-1.1322e-13
-2.73111e-14
-9.90502e-14
-2.8272e-14
-8.44336e-14
-2.90908e-14
-6.95293e-14
-2.9667e-14
-5.44327e-14
-3.01102e-14
-3.91589e-14
-3.03153e-14
-2.39533e-14
-3.02736e-14
-8.87391e-15
-2.9974e-14
5.86131e-15
-2.93371e-14
2.0235e-14
-2.85072e-14
3.40031e-14
-2.74035e-14
4.71206e-14
-2.60564e-14
5.9382e-14
-2.44499e-14
7.07539e-14
-2.26445e-14
8.11572e-14
-2.06669e-14
9.0451e-14
-1.84767e-14
9.86327e-14
-1.6313e-14
1.05657e-13
-1.39954e-14
1.11467e-13
-1.16435e-14
1.1611e-13
-9.22989e-15
1.19622e-13
-7.04243e-15
1.22026e-13
-4.83506e-15
1.23435e-13
-2.81617e-15
1.23811e-13
-7.82925e-16
1.23272e-13
1.00446e-15
1.21979e-13
2.57374e-15
1.19924e-13
3.9304e-15
1.17271e-13
5.16327e-15
1.1421e-13
6.03394e-15
1.10891e-13
6.56197e-15
1.07384e-13
6.77111e-15
1.03896e-13
6.65058e-15
1.00612e-13
5.95082e-15
9.77807e-14
4.41552e-15
9.52176e-14
1.54845e-15
9.17071e-14
-3.93476e-15
7.9519e-14
-1.39439e-14
2.77124e-14
-3.1335e-14
2.50814e-14
1.21124e-13
-3.65216e-18
1.24591e-13
6.23698e-22
-1.22424e-22
6.18524e-22
-9.30578e-25
6.17439e-22
2.99853e-24
6.15061e-22
6.87594e-24
6.10821e-22
1.07533e-23
6.04824e-22
1.4424e-23
5.96914e-22
1.78361e-23
5.87453e-22
2.11448e-23
5.76545e-22
2.43501e-23
5.64241e-22
2.70902e-23
5.50696e-22
2.95717e-23
5.35961e-22
3.17948e-23
5.20245e-22
3.37076e-23
5.03753e-22
3.55688e-23
4.86175e-22
3.68612e-23
4.68236e-22
3.79986e-23
4.49676e-22
3.89809e-23
4.30548e-22
3.94462e-23
4.11316e-22
3.99115e-23
3.91618e-22
4.00666e-23
3.71921e-22
4.01183e-23
3.52069e-22
3.98598e-23
3.32061e-22
3.93945e-23
3.12054e-22
3.87741e-23
2.92098e-22
3.79986e-23
2.72349e-22
3.72231e-23
2.526e-22
3.61892e-23
2.3311e-22
3.51035e-23
2.13568e-22
3.39144e-23
1.94439e-22
3.28287e-23
1.75569e-22
3.16914e-23
1.56751e-22
3.02955e-23
1.38294e-22
2.91064e-23
1.19941e-22
2.79173e-23
1.01898e-22
2.68317e-23
8.41139e-23
2.58494e-23
6.6588e-23
2.48671e-23
4.90622e-23
2.39882e-23
3.16397e-23
2.32128e-23
1.42689e-23
2.25924e-23
2.21788e-23
-2.4665e-14
7.01812e-14
-4.80482e-14
7.01271e-14
-7.09278e-14
6.89048e-14
-9.32889e-14
6.68839e-14
-1.14831e-13
6.41405e-14
-1.35241e-13
6.07982e-14
-1.54443e-13
5.71028e-14
-1.72205e-13
5.29079e-14
-1.8852e-13
4.8445e-14
-2.0314e-13
4.36451e-14
-2.16156e-13
3.87471e-14
-2.27318e-13
3.35165e-14
-2.36818e-13
2.83883e-14
-2.44796e-13
2.40602e-14
-2.51718e-13
2.05163e-14
-2.58205e-13
1.85276e-14
-2.61461e-13
1.20165e-14
-2.63108e-13
5.49084e-15
-2.64616e-13
3.92789e-15
-2.66086e-13
3.77206e-15
-2.647e-13
-5.75623e-16
-2.62577e-13
-7.92129e-15
-2.60219e-13
-6.59768e-15
-2.57039e-13
-9.2811e-15
-2.52613e-13
-1.27068e-14
-2.48046e-13
-1.38618e-14
-2.42766e-13
-1.57843e-14
-2.36824e-13
-1.78252e-14
-2.30266e-13
-1.96057e-14
-2.2309e-13
-2.16058e-14
-2.15278e-13
-2.35521e-14
-2.0675e-13
-2.55388e-14
-1.97549e-13
-2.75949e-14
-1.87652e-13
-2.95885e-14
-1.77115e-13
-3.15549e-14
-1.65826e-13
-3.37708e-14
-1.53891e-13
-3.57012e-14
-1.41285e-13
-3.75882e-14
-1.27981e-13
-3.95412e-14
-1.14145e-13
-4.11353e-14
-9.98326e-14
-4.2567e-14
-8.5072e-14
-4.38399e-14
-6.9913e-14
-4.4811e-14
-5.45606e-14
-4.54479e-14
-3.90479e-14
-4.58119e-14
-2.36383e-14
-4.56656e-14
-8.33373e-15
-4.52625e-14
6.68572e-15
-4.43388e-14
2.13003e-14
-4.30997e-14
3.535e-14
-4.14345e-14
4.86564e-14
-3.93413e-14
6.11772e-14
-3.69495e-14
7.27401e-14
-3.41843e-14
8.32258e-14
-3.11334e-14
9.26149e-14
-2.78453e-14
1.00947e-13
-2.46233e-14
1.08006e-13
-2.10366e-14
1.13833e-13
-1.74492e-14
1.18459e-13
-1.38345e-14
1.21887e-13
-1.04493e-14
1.24197e-13
-7.12744e-15
1.25363e-13
-3.96477e-15
1.25541e-13
-9.42274e-16
1.24847e-13
1.71326e-15
1.23287e-13
4.14939e-15
1.20979e-13
6.25489e-15
1.18146e-13
8.01287e-15
1.14782e-13
9.41071e-15
1.11084e-13
1.02737e-14
1.072e-13
1.06703e-14
1.03172e-13
1.0693e-14
9.91477e-14
9.98865e-15
9.48649e-14
8.71008e-15
8.97233e-14
6.70069e-15
8.12848e-14
4.51584e-15
6.34097e-14
3.94284e-15
1.95283e-14
1.25573e-14
1.58507e-14
1.24815e-13
-3.81764e-18
1.40454e-13
6.25353e-22
-1.68747e-22
6.22505e-22
-1.29247e-24
6.21368e-22
4.70459e-24
6.18886e-22
1.07017e-23
6.14492e-22
1.64402e-23
6.08288e-22
2.20237e-23
6.00223e-22
2.71936e-23
5.90607e-22
3.22083e-23
5.79285e-22
3.67578e-23
5.66722e-22
4.10488e-23
5.52867e-22
4.48229e-23
5.37926e-22
4.81316e-23
5.22054e-22
5.10784e-23
5.05097e-22
5.35083e-23
4.87365e-22
5.57313e-23
4.69167e-22
5.72823e-23
4.50141e-22
5.85747e-23
4.31013e-22
5.95053e-23
4.11419e-22
6.00223e-23
3.9167e-22
6.01774e-23
3.71663e-22
5.99706e-23
3.51603e-22
5.9557e-23
3.31389e-22
5.88332e-23
3.11278e-22
5.79026e-23
2.91271e-22
5.67136e-23
2.71315e-22
5.5266e-23
2.51515e-22
5.37667e-23
2.31869e-22
5.21641e-23
2.12482e-22
5.04063e-23
1.93353e-22
4.84935e-23
1.74173e-22
4.65289e-23
1.55562e-22
4.46161e-23
1.37054e-22
4.26515e-23
1.18856e-22
4.0842e-23
1.00916e-22
3.90843e-23
8.31317e-23
3.74299e-23
6.56058e-23
3.59824e-23
4.82867e-23
3.46899e-23
3.10193e-23
3.36042e-23
1.38036e-23
3.2777e-23
3.23634e-23
-2.50248e-14
9.52105e-14
-4.92793e-14
9.43901e-14
-7.28968e-14
9.25264e-14
-9.58032e-14
8.97962e-14
-1.17816e-13
8.6156e-14
-1.38738e-13
8.17259e-14
-1.58329e-13
7.66987e-14
-1.76432e-13
7.10135e-14
-1.92911e-13
6.49293e-14
-2.07796e-13
5.85345e-14
-2.20788e-13
5.17403e-14
-2.31933e-13
4.46648e-14
-2.41622e-13
3.8079e-14
-2.4928e-13
3.17204e-14
-2.56285e-13
2.75236e-14
-2.63115e-13
2.53574e-14
-2.64931e-13
1.38356e-14
-2.66399e-13
6.96069e-15
-2.68116e-13
5.64845e-15
-2.70364e-13
6.02273e-15
-2.66094e-13
-4.8448e-15
-2.65319e-13
-8.69267e-15
-2.62485e-13
-9.4282e-15
-2.59089e-13
-1.26712e-14
-2.54627e-13
-1.71653e-14
-2.50052e-13
-1.84345e-14
-2.44678e-13
-2.11526e-14
-2.3874e-13
-2.37572e-14
-2.3223e-13
-2.61104e-14
-2.25119e-13
-2.87123e-14
-2.17292e-13
-3.13723e-14
-2.0877e-13
-3.40539e-14
-1.99607e-13
-3.67506e-14
-1.89724e-13
-3.94623e-14
-1.79193e-13
-4.20775e-14
-1.67864e-13
-4.50902e-14
-1.5584e-13
-4.77178e-14
-1.43095e-13
-5.03217e-14
-1.29712e-13
-5.29124e-14
-1.15662e-13
-5.51722e-14
-1.0102e-13
-5.71965e-14
-8.5986e-14
-5.88608e-14
-7.05789e-14
-6.0204e-14
-5.48635e-14
-6.11476e-14
-3.90458e-14
-6.16142e-14
-2.31476e-14
-6.15485e-14
-7.41358e-15
-6.09785e-14
8.0191e-15
-5.97543e-14
2.29839e-14
-5.80481e-14
3.73832e-14
-5.58166e-14
5.10545e-14
-5.29964e-14
6.38466e-14
-4.97244e-14
7.56838e-14
-4.60033e-14
8.6449e-14
-4.18795e-14
9.60549e-14
-3.74325e-14
1.0441e-13
-3.29594e-14
1.11486e-13
-2.80913e-14
1.17316e-13
-2.3264e-14
1.21913e-13
-1.84126e-14
1.25212e-13
-1.37285e-14
1.27309e-13
-9.20669e-15
1.28329e-13
-4.96667e-15
1.28292e-13
-8.88332e-16
1.27275e-13
2.74637e-15
1.25402e-13
6.03974e-15
1.22735e-13
8.93698e-15
1.19467e-13
1.12971e-14
1.15685e-13
1.32101e-14
1.11531e-13
1.44404e-14
1.07097e-13
1.5118e-14
1.02521e-13
1.52821e-14
9.78235e-14
1.46966e-14
9.29456e-14
1.36013e-14
8.73431e-14
1.2318e-14
8.03513e-14
1.15206e-14
7.13145e-14
1.29919e-14
6.41047e-14
1.97804e-14
1.48158e-14
1.74115e-13
-3.8508e-18
1.55284e-13
6.3197e-22
-2.18378e-22
6.28451e-22
-1.65436e-24
6.27365e-22
6.46235e-24
6.24625e-22
1.43723e-23
6.20024e-22
2.21788e-23
6.1351e-22
2.96751e-23
6.05238e-22
3.68095e-23
5.95157e-22
4.35304e-23
5.83576e-22
4.96308e-23
5.70496e-22
5.5266e-23
5.56124e-22
6.02808e-23
5.40873e-22
6.48303e-23
5.24484e-22
6.87594e-23
5.07269e-22
7.19647e-23
4.88967e-22
7.46014e-23
4.70356e-22
7.67727e-23
4.51124e-22
7.83754e-23
4.3153e-22
7.95127e-23
4.11626e-22
8.00814e-23
3.91463e-22
8.03399e-23
3.71197e-22
8.00297e-23
3.5088e-22
7.93059e-23
3.3051e-22
7.82203e-23
3.10089e-22
7.68761e-23
2.89875e-22
7.52734e-23
2.69816e-22
7.33089e-23
2.4986e-22
7.11892e-23
2.30111e-22
6.88628e-23
2.10569e-22
6.63813e-23
1.91389e-22
6.36929e-23
1.7226e-22
6.10046e-23
1.53597e-22
5.84196e-23
1.35296e-22
5.5783e-23
1.17098e-22
5.30947e-23
9.93134e-23
5.07165e-23
8.17358e-23
4.84935e-23
6.43133e-23
4.65806e-23
4.7201e-23
4.47712e-23
3.01921e-23
4.34787e-23
1.339e-23
4.25481e-23
4.1876e-23
-2.57052e-14
1.20921e-13
-5.10086e-14
1.19698e-13
-7.57197e-14
1.17243e-13
-9.95188e-14
1.13601e-13
-1.22344e-13
1.08984e-13
-1.43951e-13
1.03338e-13
-1.6406e-13
9.68114e-14
-1.82613e-13
8.957e-14
-1.99433e-13
8.17552e-14
-2.14378e-13
7.34817e-14
-2.274e-13
6.4768e-14
-2.38564e-13
5.58327e-14
-2.48226e-13
4.77444e-14
-2.55422e-13
3.89189e-14
-2.62936e-13
3.50398e-14
-2.68696e-13
3.1122e-14
-2.69733e-13
1.48757e-14
-2.7132e-13
8.54928e-15
-2.73121e-13
7.45199e-15
-2.74691e-13
7.59535e-15
-2.69217e-13
-1.03156e-14
-2.68694e-13
-9.21545e-15
-2.65569e-13
-1.25484e-14
-2.6167e-13
-1.65688e-14
-2.57326e-13
-2.15051e-14
-2.52582e-13
-2.31755e-14
-2.47171e-13
-2.65608e-14
-2.41238e-13
-2.96841e-14
-2.34792e-13
-3.25492e-14
-2.27667e-13
-3.58315e-14
-2.19901e-13
-3.91328e-14
-2.1154e-13
-4.241e-14
-2.02436e-13
-4.58461e-14
-1.92573e-13
-4.93189e-14
-1.82024e-13
-5.2619e-14
-1.70592e-13
-5.65152e-14
-1.58488e-13
-5.98103e-14
-1.45542e-13
-6.32574e-14
-1.31917e-13
-6.65251e-14
-1.17659e-13
-6.94168e-14
-1.02749e-13
-7.20921e-14
-8.73101e-14
-7.42864e-14
-7.14875e-14
-7.60129e-14
-5.52829e-14
-7.73401e-14
-3.89268e-14
-7.79552e-14
-2.25284e-14
-7.79301e-14
-6.26749e-15
-7.72236e-14
9.7316e-15
-7.57356e-14
2.52438e-14
-7.35437e-14
4.01608e-14
-7.07156e-14
5.43899e-14
-6.72107e-14
6.75963e-14
-6.29122e-14
7.98531e-14
-5.82444e-14
9.08875e-14
-5.28982e-14
1.00683e-13
-4.72083e-14
1.09208e-13
-4.14674e-14
1.16325e-13
-3.51882e-14
1.22133e-13
-2.90541e-14
1.2661e-13
-2.28715e-14
1.29792e-13
-1.6894e-14
1.31627e-13
-1.1025e-14
1.32358e-13
-5.68142e-15
1.31904e-13
-4.17692e-16
1.30527e-13
4.13973e-15
1.28251e-13
8.33353e-15
1.25065e-13
1.21366e-14
1.21257e-13
1.51208e-14
1.16962e-13
1.75186e-14
1.12214e-13
1.92046e-14
1.07105e-13
2.02424e-14
1.01949e-13
2.04521e-14
9.66909e-14
1.99698e-14
9.15507e-14
1.87544e-14
8.66615e-14
1.72214e-14
8.21082e-14
1.60858e-14
7.88634e-14
1.62493e-14
7.38915e-14
2.47654e-14
1.40967e-14
2.33923e-13
-4.30184e-18
1.69394e-13
6.40242e-22
-2.44848e-22
6.36619e-22
-2.01625e-24
6.35326e-22
8.3752e-24
6.32431e-22
1.85599e-23
6.27572e-22
2.83826e-23
6.20644e-22
3.78952e-23
6.11959e-22
4.68908e-23
6.01205e-22
5.51626e-23
5.89211e-22
6.30208e-23
5.75563e-22
7.00519e-23
5.60725e-22
7.64108e-23
5.44802e-22
8.19943e-23
5.27741e-22
8.67506e-23
5.09853e-22
9.07314e-23
4.9119e-22
9.40401e-23
4.71958e-22
9.6625e-23
4.52261e-22
9.84862e-23
4.3215e-22
9.9727e-23
4.11781e-22
1.00399e-22
3.91256e-22
1.00451e-22
3.70474e-22
9.98821e-23
3.49794e-22
9.90032e-23
3.29166e-22
9.75556e-23
3.08487e-22
9.56945e-23
2.87911e-22
9.34714e-23
2.67748e-22
9.09382e-23
2.47482e-22
8.8043e-23
2.2763e-22
8.49928e-23
2.07933e-22
8.16841e-23
1.88649e-22
7.83237e-23
1.69675e-22
7.48082e-23
1.5096e-22
7.12926e-23
1.32607e-22
6.79322e-23
1.1472e-22
6.47269e-23
9.70903e-23
6.16767e-23
7.97712e-23
5.88849e-23
6.26072e-23
5.63517e-23
4.58568e-23
5.43354e-23
2.92615e-23
5.25777e-23
1.27696e-23
5.13369e-23
5.06131e-23
-2.6932e-14
1.47855e-13
-5.34361e-14
1.46208e-13
-7.92842e-14
1.43097e-13
-1.04216e-13
1.38537e-13
-1.2802e-13
1.32791e-13
-1.50454e-13
1.25776e-13
-1.71281e-13
1.17642e-13
-1.90405e-13
1.08699e-13
-2.07606e-13
9.89606e-14
-2.22674e-13
8.85499e-14
-2.35661e-13
7.77597e-14
-2.47235e-13
6.74067e-14
-2.55963e-13
5.64753e-14
-2.6361e-13
4.65669e-14
-2.72401e-13
4.38327e-14
-2.74255e-13
3.2978e-14
-2.75672e-13
1.62929e-14
-2.77545e-13
1.04249e-14
-2.79936e-13
9.84525e-15
-2.77838e-13
5.49836e-15
-2.74057e-13
-1.40934e-14
-2.72538e-13
-1.0732e-14
-2.69288e-13
-1.57956e-14
-2.64659e-13
-2.11953e-14
-2.60647e-13
-2.55137e-14
-2.55649e-13
-2.81696e-14
-2.50251e-13
-3.19511e-14
-2.44373e-13
-3.55604e-14
-2.37978e-13
-3.89384e-14
-2.30907e-13
-4.28961e-14
-2.23266e-13
-4.67666e-14
-2.14945e-13
-5.07267e-14
-2.059e-13
-5.48845e-14
-1.96079e-13
-5.91321e-14
-1.85463e-13
-6.32284e-14
-1.74087e-13
-6.78818e-14
-1.61867e-13
-7.20205e-14
-1.48731e-13
-7.63843e-14
-1.34885e-13
-8.03612e-14
-1.20292e-13
-8.39976e-14
-1.04994e-13
-8.73795e-14
-8.90596e-14
-9.02075e-14
-7.26427e-14
-9.24163e-14
-5.58761e-14
-9.40916e-14
-3.88996e-14
-9.49168e-14
-2.18031e-14
-9.50126e-14
-4.90245e-15
-9.41109e-14
1.17775e-14
-9.24012e-14
2.80623e-14
-8.98106e-14
4.37132e-14
-8.63488e-14
5.84718e-14
-8.19539e-14
7.23521e-14
-7.67782e-14
8.5066e-14
-7.09417e-14
9.6464e-14
-6.4281e-14
1.06619e-13
-5.7349e-14
1.15294e-13
-5.01253e-14
1.2254e-13
-4.24195e-14
1.28279e-13
-3.47779e-14
1.32676e-13
-2.72514e-14
1.35553e-13
-1.97539e-14
1.37098e-13
-1.25565e-14
1.37486e-13
-6.05118e-15
1.36676e-13
4.07569e-16
1.3472e-13
6.11322e-15
1.31833e-13
1.1233e-14
1.28122e-13
1.58674e-14
1.23726e-13
1.95315e-14
1.18723e-13
2.25375e-14
1.13217e-13
2.4722e-14
1.07429e-13
2.60466e-14
1.01462e-13
2.64334e-14
9.556e-14
2.58861e-14
9.00703e-14
2.42588e-14
8.55905e-14
2.17127e-14
8.3169e-14
1.85208e-14
8.4034e-14
1.53981e-14
7.38378e-14
3.49768e-14
-2.88144e-16
3.08064e-13
-4.15468e-18
1.69123e-13
6.45205e-22
-2.84553e-22
6.4701e-22
-2.17135e-24
6.45511e-22
1.04949e-23
6.42254e-22
2.28509e-23
6.37033e-22
3.48967e-23
6.2964e-22
4.64772e-23
6.2023e-22
5.7334e-23
6.09063e-22
6.7622e-23
5.96294e-22
7.69278e-23
5.8187e-22
8.54581e-23
5.66257e-22
9.30061e-23
5.49558e-22
9.96753e-23
5.31722e-22
1.0531e-22
5.13162e-22
1.10067e-22
4.93775e-22
1.13841e-22
4.73871e-22
1.16891e-22
4.5345e-22
1.19011e-22
4.32771e-22
1.20303e-22
4.11833e-22
1.20872e-22
3.90636e-22
1.20717e-22
3.69646e-22
1.19993e-22
3.48398e-22
1.18597e-22
3.27253e-22
1.16632e-22
3.06315e-22
1.14203e-22
2.85377e-22
1.11359e-22
2.64853e-22
1.08102e-22
2.44484e-22
1.04432e-22
2.24321e-22
1.00606e-22
2.04572e-22
9.64699e-23
1.85082e-22
9.21789e-23
1.66212e-22
8.79913e-23
1.476e-22
8.35969e-23
1.29402e-22
7.9461e-23
1.11669e-22
7.54285e-23
9.42469e-23
7.17062e-23
7.71863e-23
6.82424e-23
6.05393e-23
6.51922e-23
4.40991e-23
6.27106e-23
2.80207e-23
6.06944e-23
1.19941e-23
5.92985e-23
5.84196e-23
-2.84273e-14
1.76286e-13
-5.63976e-14
1.74181e-13
-8.36689e-14
1.7037e-13
-1.09997e-13
1.64868e-13
-1.35006e-13
1.57804e-13
-1.58528e-13
1.49299e-13
-1.80242e-13
1.39359e-13
-2.00018e-13
1.28475e-13
-2.17591e-13
1.16536e-13
-2.32804e-13
1.03765e-13
-2.46346e-13
9.13039e-14
-2.57645e-13
7.87093e-14
-2.65275e-13
6.41047e-14
-2.74737e-13
5.60328e-14
-2.8326e-13
5.23576e-14
-2.813e-13
3.10207e-14
-2.8312e-13
1.81142e-14
-2.85143e-13
1.24487e-14
-2.8921e-13
1.3916e-14
-2.79374e-13
-4.3339e-15
-2.8046e-13
-1.30064e-14
-2.77012e-13
-1.41787e-14
-2.73619e-13
-1.9186e-14
-2.68174e-13
-2.66405e-14
-2.64442e-13
-2.92418e-14
-2.5927e-13
-3.33387e-14
-2.5388e-13
-3.73391e-14
-2.48017e-13
-4.14187e-14
-2.41668e-13
-4.52831e-14
-2.34799e-13
-4.97579e-14
-2.27293e-13
-5.42685e-14
-2.19117e-13
-5.88951e-14
-2.10183e-13
-6.38118e-14
-2.00447e-13
-6.88609e-14
-1.89904e-13
-7.37631e-14
-1.78403e-13
-7.93757e-14
-1.66104e-13
-8.43112e-14
-1.52798e-13
-8.96804e-14
-1.38612e-13
-9.45375e-14
-1.23583e-13
-9.90146e-14
-1.07793e-13
-1.03158e-13
-9.12537e-14
-1.06736e-13
-7.42079e-14
-1.09451e-13
-5.67609e-14
-1.11527e-13
-3.89226e-14
-1.12743e-13
-2.1013e-14
-1.12908e-13
-3.11328e-15
-1.12002e-13
1.4491e-14
-1.09992e-13
3.16537e-14
-1.0696e-13
4.81002e-14
-1.0278e-13
6.36945e-14
-9.75342e-14
7.82122e-14
-9.12787e-14
9.15057e-14
-8.42204e-14
1.03419e-13
-7.6178e-14
1.13973e-13
-6.78888e-14
1.22829e-13
-5.89682e-14
1.30198e-13
-4.97751e-14
1.35926e-13
-4.04931e-14
1.40102e-13
-3.14107e-14
1.4269e-13
-2.23281e-14
1.43957e-13
-1.38059e-14
1.43784e-13
-5.86271e-15
1.42363e-13
1.84128e-15
1.39894e-13
8.59733e-15
1.36307e-13
1.48363e-14
1.31909e-13
2.02805e-14
1.26716e-13
2.47375e-14
1.20949e-13
2.832e-14
1.1459e-13
3.10936e-14
1.07818e-13
3.28352e-14
1.00828e-13
3.344e-14
9.3874e-14
3.28527e-14
8.7423e-14
3.07244e-14
8.24527e-14
2.66974e-14
8.02684e-14
2.07205e-14
8.29457e-14
1.27357e-14
5.24342e-15
1.12695e-13
-7.72538e-15
3.21049e-13
-4.75309e-18
1.61414e-13
6.5844e-22
-3.04406e-22
6.59625e-22
-2.22305e-24
6.57815e-22
1.27179e-23
6.543e-22
2.74004e-23
6.48613e-22
4.18243e-23
6.40496e-22
5.54728e-23
6.30518e-22
6.84492e-23
6.18421e-22
8.05467e-23
6.04772e-22
9.17137e-23
5.8947e-22
1.0164e-22
5.72874e-22
1.1048e-22
5.55245e-22
1.18183e-22
5.36478e-22
1.24646e-22
5.16885e-22
1.30126e-22
4.96774e-22
1.34365e-22
4.76042e-22
1.37622e-22
4.54794e-22
1.39794e-22
4.33288e-22
1.41189e-22
4.11781e-22
1.415e-22
3.89912e-22
1.41189e-22
3.68199e-22
1.40052e-22
3.46485e-22
1.38087e-22
3.24824e-22
1.35554e-22
3.0342e-22
1.32401e-22
2.8212e-22
1.28782e-22
2.61182e-22
1.24697e-22
2.40606e-22
1.20355e-22
2.20185e-22
1.15495e-22
2.00281e-22
1.1048e-22
1.80894e-22
1.05362e-22
1.61817e-22
1.00089e-22
1.43464e-22
9.4919e-23
1.2537e-22
8.99559e-23
1.07947e-22
8.51996e-23
9.08348e-23
8.07535e-23
7.41878e-23
7.6721e-23
5.80577e-23
7.32055e-23
4.21862e-23
7.02587e-23
2.66249e-23
6.79839e-23
1.12186e-23
6.63296e-23
6.55541e-23
-3.02887e-14
2.06577e-13
-6.01063e-14
2.04001e-13
-8.91391e-14
1.99406e-13
-1.17086e-13
1.92817e-13
-1.43559e-13
1.84278e-13
-1.68282e-13
1.74023e-13
-1.91122e-13
1.62201e-13
-2.11639e-13
1.48995e-13
-2.29624e-13
1.34524e-13
-2.45543e-13
1.19687e-13
-2.59449e-13
1.05214e-13
-2.69077e-13
8.8336e-14
-2.77776e-13
7.28043e-14
-2.89996e-13
6.82544e-14
-2.91979e-13
5.43412e-14
-2.9135e-13
3.03933e-14
-2.92493e-13
1.92598e-14
-2.95337e-13
1.52923e-14
-2.95707e-13
1.42858e-14
-2.84789e-13
-1.52498e-14
-2.86946e-13
-1.08514e-14
-2.82147e-13
-1.89757e-14
-2.77692e-13
-2.36396e-14
-2.72798e-13
-3.15314e-14
-2.68447e-13
-3.35906e-14
-2.63321e-13
-3.84616e-14
-2.57825e-13
-4.28325e-14
-2.52208e-13
-4.70309e-14
-2.46015e-13
-5.14731e-14
-2.3931e-13
-5.64597e-14
-2.3208e-13
-6.1492e-14
-2.24034e-13
-6.6933e-14
-2.15268e-13
-7.25708e-14
-2.05625e-13
-7.84962e-14
-1.95155e-13
-8.42247e-14
-1.83774e-13
-9.07476e-14
-1.71153e-13
-9.6923e-14
-1.57671e-13
-1.03154e-13
-1.43159e-13
-1.0904e-13
-1.27657e-13
-1.14506e-13
-1.11353e-13
-1.19453e-13
-9.41846e-14
-1.23895e-13
-7.62581e-14
-1.27365e-13
-5.78712e-14
-1.29902e-13
-3.91858e-14
-1.31418e-13
-2.01731e-14
-1.31908e-13
-1.16035e-15
-1.31002e-13
1.75764e-14
-1.28716e-13
3.57532e-14
-1.25125e-13
5.32872e-14
-1.20301e-13
6.98845e-14
-1.14119e-13
8.5375e-14
-1.06758e-13
9.93532e-14
-9.81847e-14
1.11908e-13
-8.87218e-14
1.22839e-13
-7.8807e-14
1.31932e-13
-6.80459e-14
1.39372e-13
-5.72037e-14
1.45077e-13
-4.61827e-14
1.49018e-13
-3.53379e-14
1.51295e-13
-2.45932e-14
1.5209e-13
-1.45864e-14
1.51391e-13
-5.15127e-15
1.49307e-13
3.93909e-15
1.45995e-13
1.1925e-14
1.41648e-13
1.91964e-14
1.36467e-13
2.54775e-14
1.30429e-13
3.07889e-14
1.2363e-13
3.5136e-14
1.1629e-13
3.84494e-14
1.08437e-13
4.0704e-14
1.00203e-13
4.16882e-14
9.1758e-14
4.13141e-14
8.33587e-14
3.91391e-14
7.60082e-14
3.40633e-14
7.31961e-14
2.35478e-14
8.60413e-14
-9.22324e-17
-2.91447e-14
2.27897e-13
-2.67834e-15
2.94598e-13
-5.08676e-18
1.58754e-13
6.78292e-22
-2.87862e-22
6.74618e-22
-2.17135e-24
6.7255e-22
1.53545e-23
6.68672e-22
3.26736e-23
6.62262e-22
4.93206e-23
6.53473e-22
6.53473e-23
6.42616e-22
8.03916e-23
6.29536e-22
9.43503e-23
6.14699e-22
1.07172e-22
5.98258e-22
1.18649e-22
5.80577e-22
1.28782e-22
5.61759e-22
1.37622e-22
5.41907e-22
1.44963e-22
5.21176e-22
1.50909e-22
5.00031e-22
1.55613e-22
4.78214e-22
1.59077e-22
4.56138e-22
1.613e-22
4.33701e-22
1.62438e-22
4.11419e-22
1.62593e-22
3.88723e-22
1.61714e-22
3.66286e-22
1.60111e-22
3.439e-22
1.57578e-22
3.2167e-22
1.54321e-22
2.99801e-22
1.50392e-22
2.78088e-22
1.45894e-22
2.56788e-22
1.40931e-22
2.35746e-22
1.35503e-22
2.15222e-22
1.29764e-22
1.95163e-22
1.23819e-22
1.75672e-22
1.1777e-22
1.56647e-22
1.11566e-22
1.38449e-22
1.05466e-22
1.20562e-22
9.96236e-23
1.03553e-22
9.40401e-23
8.68023e-23
8.88702e-23
7.06206e-23
8.42173e-23
5.50592e-23
8.02882e-23
3.99115e-23
7.70312e-23
2.50222e-23
7.4498e-23
1.03915e-23
7.27402e-23
7.19647e-23
-3.25782e-14
2.39157e-13
-6.46376e-14
2.36058e-13
-9.57595e-14
2.3053e-13
-1.25617e-13
2.22675e-13
-1.53866e-13
2.12528e-13
-1.80055e-13
2.00214e-13
-2.04079e-13
1.86226e-13
-2.25561e-13
1.70476e-13
-2.44353e-13
1.53316e-13
-2.61116e-13
1.3645e-13
-2.74208e-13
1.18307e-13
-2.82483e-13
9.66137e-14
-2.95267e-13
8.55886e-14
-3.057e-13
7.86861e-14
-3.01324e-13
4.99665e-14
-3.03627e-13
3.26978e-14
-3.04549e-13
2.0182e-14
-3.0733e-13
1.80737e-14
-2.96391e-13
3.34941e-15
-2.96272e-13
-1.53697e-14
-2.91984e-13
-1.51381e-14
-2.88138e-13
-2.28207e-14
-2.81686e-13
-3.00893e-14
-2.78047e-13
-3.51688e-14
-2.72781e-13
-3.88548e-14
-2.67604e-13
-4.36341e-14
-2.62295e-13
-4.81374e-14
-2.56829e-13
-5.24937e-14
-2.50804e-13
-5.74912e-14
-2.44444e-13
-6.28146e-14
-2.37445e-13
-6.84877e-14
-2.29776e-13
-7.45963e-14
-2.21211e-13
-8.11309e-14
-2.11787e-13
-8.79137e-14
-2.01406e-13
-9.45995e-14
-1.89977e-13
-1.02171e-13
-1.7723e-13
-1.09663e-13
-1.63603e-13
-1.16776e-13
-1.4872e-13
-1.23913e-13
-1.32701e-13
-1.30515e-13
-1.15646e-13
-1.36498e-13
-9.77584e-14
-1.41772e-13
-7.89607e-14
-1.46154e-13
-5.93924e-14
-1.4946e-13
-3.94288e-14
-1.51372e-13
-1.92526e-14
-1.52074e-13
1.06542e-15
-1.51312e-13
2.12069e-14
-1.48847e-13
4.07684e-14
-1.44675e-13
5.9537e-14
-1.39057e-13
7.73388e-14
-1.3191e-13
9.37581e-14
-1.23165e-13
1.08587e-13
-1.13001e-13
1.22034e-13
-1.02158e-13
1.33376e-13
-9.01374e-14
1.42846e-13
-7.75049e-14
1.50367e-13
-6.47118e-14
1.55997e-13
-5.18011e-14
1.59594e-13
-3.8923e-14
1.61528e-13
-2.65123e-14
1.61715e-13
-1.47602e-14
1.60218e-13
-3.641e-15
1.57393e-13
6.77805e-15
1.53176e-13
1.61567e-14
1.47959e-13
2.44289e-14
1.4183e-13
3.16209e-14
1.3474e-13
3.78935e-14
1.26971e-13
4.29206e-14
1.18472e-13
4.69632e-14
1.09469e-13
4.9725e-14
9.98544e-14
5.13187e-14
8.95707e-14
5.16128e-14
7.84362e-14
5.0291e-14
6.57236e-14
4.67918e-14
4.98665e-14
3.94218e-14
2.36233e-14
2.61672e-14
-1.78879e-14
2.69426e-13
-1.45726e-15
2.78183e-13
-5.73582e-18
1.57316e-13
6.93182e-22
-2.97788e-22
6.92092e-22
-2.17135e-24
6.89869e-22
1.82497e-23
6.85423e-22
3.82054e-23
6.78236e-22
5.74891e-23
6.68569e-22
7.60489e-23
6.56575e-22
9.3368e-23
6.42409e-22
1.09395e-22
6.26176e-22
1.23922e-22
6.08443e-22
1.37002e-22
5.89315e-22
1.48376e-22
5.69152e-22
1.58043e-22
5.47852e-22
1.66057e-22
5.2588e-22
1.72571e-22
5.03495e-22
1.77637e-22
4.80437e-22
1.81101e-22
4.57276e-22
1.83221e-22
4.33908e-22
1.84151e-22
4.10488e-22
1.83893e-22
3.87121e-22
1.82497e-22
3.63753e-22
1.8017e-22
3.40643e-22
1.76913e-22
3.17792e-22
1.72932e-22
2.95304e-22
1.68124e-22
2.73176e-22
1.628e-22
2.51308e-22
1.56647e-22
2.30111e-22
1.50237e-22
2.09225e-22
1.43516e-22
1.89062e-22
1.36588e-22
1.6952e-22
1.29454e-22
1.50599e-22
1.22268e-22
1.32556e-22
1.15392e-22
1.1503e-22
1.08567e-22
9.83311e-23
1.0226e-22
8.21494e-23
9.63666e-23
6.66397e-23
9.12484e-23
5.18539e-23
8.68023e-23
3.73265e-23
8.31317e-23
2.32645e-23
8.03916e-23
9.61598e-24
7.85822e-23
7.77033e-23
-3.53091e-14
2.74467e-13
-6.9926e-14
2.70675e-13
-1.03534e-13
2.6414e-13
-1.35757e-13
2.54898e-13
-1.66052e-13
2.42823e-13
-1.94083e-13
2.28244e-13
-2.19752e-13
2.11896e-13
-2.415e-13
1.92221e-13
-2.62292e-13
1.74108e-13
-2.79513e-13
1.53671e-13
-2.88655e-13
1.27448e-13
-3.03089e-13
1.11047e-13
-3.1813e-13
1.00629e-13
-3.15106e-13
7.56629e-14
-3.17242e-13
5.21033e-14
-3.16335e-13
3.17908e-14
-3.22124e-13
2.59708e-14
-3.12912e-13
8.86115e-15
-3.04422e-13
-5.13889e-15
-3.05243e-13
-1.45487e-14
-2.98839e-13
-2.1542e-14
-2.93219e-13
-2.84425e-14
-2.87118e-13
-3.61879e-14
-2.82797e-13
-3.94884e-14
-2.77305e-13
-4.43461e-14
-2.72165e-13
-4.87737e-14
-2.67077e-13
-5.32213e-14
-2.61739e-13
-5.78284e-14
-2.56108e-13
-6.31195e-14
-2.50098e-13
-6.88221e-14
-2.43525e-13
-7.50556e-14
-2.36191e-13
-8.19262e-14
-2.28058e-13
-8.92577e-14
-2.18881e-13
-9.7084e-14
-2.08772e-13
-1.04701e-13
-1.97168e-13
-1.1377e-13
-1.84453e-13
-1.22372e-13
-1.70454e-13
-1.30766e-13
-1.55329e-13
-1.39029e-13
-1.38785e-13
-1.47052e-13
-1.21008e-13
-1.54266e-13
-1.02083e-13
-1.6069e-13
-8.22568e-14
-1.65971e-13
-6.15071e-14
-1.70201e-13
-4.00358e-14
-1.72835e-13
-1.82957e-14
-1.73806e-13
3.61314e-15
-1.73212e-13
2.52354e-14
-1.70459e-13
4.64382e-14
-1.65869e-13
6.68341e-14
-1.59445e-13
8.60047e-14
-1.51073e-13
1.03665e-13
-1.40813e-13
1.19835e-13
-1.2916e-13
1.33954e-13
-1.16267e-13
1.45812e-13
-1.01985e-13
1.55738e-13
-8.74208e-14
1.63354e-13
-7.23161e-14
1.68778e-13
-5.72141e-14
1.72011e-13
-4.21454e-14
1.73358e-13
-2.78467e-14
1.72811e-13
-1.41998e-14
1.70521e-13
-1.33809e-15
1.66717e-13
1.05954e-14
1.61592e-13
2.12939e-14
1.5532e-13
3.07148e-14
1.47995e-13
3.89617e-14
1.39835e-13
4.6067e-14
1.30876e-13
5.18956e-14
1.21278e-13
5.65775e-14
1.11029e-13
5.99889e-14
1.0008e-13
6.22865e-14
8.82684e-14
6.34398e-14
7.48621e-14
6.37137e-14
5.82014e-14
6.34727e-14
3.35713e-14
6.40695e-14
-1.59355e-14
7.56929e-14
-1.08095e-14
2.64317e-13
-4.11924e-15
2.71512e-13
-6.24899e-18
1.53218e-13
7.11379e-22
-2.81245e-22
7.12564e-22
-1.70606e-24
7.09721e-22
2.1455e-23
7.04758e-22
4.4461e-23
6.96745e-22
6.67948e-23
6.85888e-22
8.78879e-23
6.72601e-22
1.07637e-22
6.56937e-22
1.25783e-22
6.39256e-22
1.42172e-22
6.19817e-22
1.56647e-22
5.99034e-22
1.6921e-22
5.77165e-22
1.79808e-22
5.54366e-22
1.88545e-22
5.30947e-22
1.95421e-22
5.06958e-22
2.00488e-22
4.82505e-22
2.03952e-22
4.58155e-22
2.05968e-22
4.33701e-22
2.06433e-22
4.09144e-22
2.05554e-22
3.84742e-22
2.0359e-22
3.60547e-22
2.00436e-22
3.36611e-22
1.96249e-22
3.12984e-22
1.91337e-22
2.89875e-22
1.85547e-22
2.67076e-22
1.79136e-22
2.44897e-22
1.72105e-22
2.2339e-22
1.64609e-22
2.02246e-22
1.56699e-22
1.8198e-22
1.48686e-22
1.62334e-22
1.40621e-22
1.43619e-22
1.32504e-22
1.25783e-22
1.24646e-22
1.08774e-22
1.17098e-22
9.24374e-23
1.09963e-22
7.70829e-23
1.03501e-22
6.22453e-23
9.77624e-23
4.81833e-23
9.29544e-23
3.45865e-23
8.89219e-23
2.1455e-23