/*--------------------------------*- C++ -*----------------------------------*\
  =========                 |
  \\      /  F ield         | OpenFOAM: The Open Source CFD Toolbox
   \\    /   O peration     | Website:  https://openfoam.org
    \\  /    A nd           | Version:  6
     \\/     M anipulation  |
\*---------------------------------------------------------------------------*/
FoamFile
{
    version     2.0;
    format      ascii;
    class       surfaceScalarField;
    location    "1900";
    object      phi;
}
// * * * * * * * * * * * * * * * * * * * * * * * * * * * * * * * * * * * * * //

dimensions      [0 3 -1 0 0 0 0];

internalField   nonuniform List<scalar> 
9440
(
6.8982e-11
-6.8982e-11
3.42222e-10
-2.73241e-10
5.05727e-10
-1.63505e-10
5.98661e-10
-9.29346e-11
6.34614e-10
-3.59534e-11
6.53314e-10
-1.86996e-11
6.3407e-10
1.92436e-11
5.59909e-10
7.4161e-11
4.5696e-10
1.02949e-10
3.28957e-10
1.28001e-10
2.03964e-10
1.24993e-10
6.1328e-11
1.42634e-10
-6.80375e-11
1.29364e-10
-1.64267e-10
9.6227e-11
-2.57214e-10
9.29448e-11
-4.62064e-10
2.04848e-10
-6.89397e-10
2.2733e-10
-8.24407e-10
1.35008e-10
-1.06135e-09
2.36941e-10
-1.46849e-09
4.07136e-10
-1.79498e-09
3.26487e-10
-2.10108e-09
3.06104e-10
-2.38961e-09
2.88528e-10
-2.58684e-09
1.97227e-10
-2.76935e-09
1.82511e-10
-2.90502e-09
1.35665e-10
-2.99777e-09
9.27489e-11
-3.07543e-09
7.76562e-11
-3.10731e-09
3.18814e-11
-2.9813e-09
-1.26009e-10
-2.85877e-09
-1.22529e-10
-2.70675e-09
-1.52029e-10
-2.54203e-09
-1.64714e-10
-2.29797e-09
-2.44062e-10
-2.09704e-09
-2.00932e-10
-1.9204e-09
-1.76644e-10
-1.67053e-09
-2.49865e-10
-1.43732e-09
-2.33214e-10
-1.2452e-09
-1.92118e-10
-1.08736e-09
-1.57844e-10
-9.28472e-10
-1.58884e-10
-7.73883e-10
-1.54588e-10
-6.92471e-10
-8.14114e-11
-6.41857e-10
-5.06125e-11
-5.07836e-10
-1.34021e-10
-3.06507e-10
-2.01328e-10
-1.1554e-10
-1.90966e-10
9.62476e-11
-2.11787e-10
1.62912e-10
-6.66638e-11
2.83517e-11
1.3456e-10
-5.97997e-11
8.8152e-11
-1.53154e-10
9.33555e-11
-2.40989e-10
8.78363e-11
-3.24792e-10
8.38042e-11
-4.02979e-10
7.81902e-11
-4.75621e-10
7.26445e-11
-5.44865e-10
6.92465e-11
-6.10618e-10
6.57566e-11
-6.63513e-10
5.28964e-11
-6.95463e-10
3.19522e-11
-7.13488e-10
1.8025e-11
-7.23834e-10
1.03458e-11
-6.78541e-10
-4.52946e-11
-6.32157e-10
-4.63864e-11
-5.84193e-10
-4.7966e-11
-5.09212e-10
-7.49822e-11
-3.78901e-10
-1.30314e-10
-2.81824e-10
-9.70786e-11
-1.81842e-10
-9.9983e-11
-7.77778e-11
-1.04065e-10
3.16608e-11
-1.09439e-10
1.20244e-10
-8.8584e-11
1.36961e-10
-1.67175e-11
2.29383e-10
-9.24226e-11
2.71931e-10
-4.25493e-11
3.48215e-10
-7.62843e-11
5.00077e-10
-1.51863e-10
6.46895e-10
-1.4682e-10
5.44743e-10
1.0215e-10
3.20014e-10
2.24726e-10
8.70094e-15
3.19998e-10
-3.29916e-18
3.42491e-19
-3.30463e-18
5.47737e-21
-3.25325e-18
-5.47168e-20
-3.17033e-18
-8.52235e-20
-3.05901e-18
-1.13582e-19
-2.91823e-18
-1.43218e-19
-2.74837e-18
-1.72292e-19
-2.55206e-18
-1.98548e-19
-2.33322e-18
-2.20799e-19
-2.09661e-18
-2.38133e-19
-1.84747e-18
-2.50101e-19
-1.59145e-18
-2.5653e-19
-1.33401e-18
-2.57422e-19
-1.08012e-18
-2.53079e-19
-8.34283e-19
-2.44198e-19
-6.00809e-19
-2.31568e-19
-3.83424e-19
-2.15814e-19
-1.84733e-19
-1.97504e-19
-6.42284e-21
-1.77379e-19
1.50292e-19
-1.56263e-19
2.84555e-19
-1.34749e-19
3.96191e-19
-1.13142e-19
4.85845e-19
-9.17124e-20
5.54558e-19
-7.08468e-20
6.03435e-19
-5.09245e-20
6.33725e-19
-3.22058e-20
6.46865e-19
-1.48724e-20
6.44305e-19
9.34144e-22
6.27429e-19
1.51677e-20
5.97702e-19
2.79118e-20
5.56761e-19
3.93092e-20
5.06326e-19
4.94658e-20
4.48038e-19
5.84117e-20
3.8336e-19
6.61259e-20
3.13536e-19
7.25684e-20
2.39578e-19
7.77e-20
1.62287e-19
8.15105e-20
8.23161e-20
8.412e-20
8.61465e-20
2.82798e-10
-3.5178e-10
3.52541e-10
-3.42984e-10
4.75859e-10
-2.86823e-10
5.36857e-10
-1.53933e-10
5.85164e-10
-8.42607e-11
5.89673e-10
-2.32092e-11
5.40979e-10
6.79369e-11
4.73213e-10
1.41925e-10
3.93704e-10
1.82457e-10
2.89791e-10
2.31913e-10
1.53432e-10
2.61348e-10
6.23743e-11
2.33689e-10
-7.73592e-11
2.69094e-10
-2.75394e-10
2.94258e-10
-5.0946e-10
3.27007e-10
-7.46537e-10
4.4192e-10
-1.00275e-09
4.83538e-10
-1.28899e-09
4.21247e-10
-1.53324e-09
4.81181e-10
-1.76113e-09
6.35027e-10
-2.01715e-09
5.82502e-10
-2.2484e-09
5.37349e-10
-2.29654e-09
3.36667e-10
-2.46338e-09
3.64062e-10
-2.70047e-09
4.19602e-10
-2.82309e-09
2.58283e-10
-2.9083e-09
1.77956e-10
-2.96188e-09
1.31232e-10
-3.00524e-09
7.52398e-11
-2.88765e-09
-2.43595e-10
-2.69514e-09
-3.15038e-10
-2.47921e-09
-3.67963e-10
-2.33427e-09
-3.09651e-10
-2.15963e-09
-4.18703e-10
-2.00842e-09
-3.52149e-10
-1.83375e-09
-3.51315e-10
-1.64343e-09
-4.40186e-10
-1.42562e-09
-4.51023e-10
-1.21472e-09
-4.0302e-10
-1.08516e-09
-2.87397e-10
-9.15721e-10
-3.28326e-10
-7.47051e-10
-3.23256e-10
-6.05664e-10
-2.22797e-10
-4.6565e-10
-1.90626e-10
-2.86279e-10
-3.1339e-10
-1.03644e-10
-3.83962e-10
7.16643e-11
-3.66273e-10
2.09927e-10
-3.50049e-10
2.21497e-10
-7.82331e-11
1.29901e-10
2.26158e-10
2.2391e-11
1.95664e-10
-7.00947e-11
1.85844e-10
-1.55071e-10
1.72816e-10
-2.37069e-10
1.65807e-10
-3.15134e-10
1.5626e-10
-3.91351e-10
1.48867e-10
-4.68908e-10
1.46808e-10
-5.41999e-10
1.38851e-10
-5.98411e-10
1.09311e-10
-6.41562e-10
7.5103e-11
-6.61348e-10
3.78097e-11
-6.57945e-10
6.9404e-12
-6.38791e-10
-6.44517e-11
-5.89399e-10
-9.57819e-11
-5.31506e-10
-1.05862e-10
-4.49326e-10
-1.57165e-10
-3.48349e-10
-2.31293e-10
-2.45742e-10
-1.99688e-10
-1.59967e-10
-1.8576e-10
-2.63596e-11
-2.37674e-10
9.67861e-11
-2.32587e-10
1.93298e-10
-1.85097e-10
2.60006e-10
-8.34265e-11
2.95665e-10
-1.28082e-10
2.61091e-10
-7.97778e-12
7.93073e-12
1.76874e-10
-4.97585e-10
3.5365e-10
-9.63889e-10
3.19481e-10
-9.69109e-10
1.07367e-10
-2.84569e-10
-4.59812e-10
1.454e-16
3.54459e-11
-3.52164e-18
2.15277e-20
-3.37051e-18
-1.45093e-19
-3.28775e-18
-1.40325e-19
-3.20103e-18
-1.76038e-19
-3.08939e-18
-2.2949e-19
-2.94722e-18
-2.89478e-19
-2.77463e-18
-3.48584e-19
-2.57431e-18
-4.02018e-19
-2.35055e-18
-4.47145e-19
-2.10858e-18
-4.82048e-19
-1.8539e-18
-5.05729e-19
-1.59234e-18
-5.17935e-19
-1.32967e-18
-5.19073e-19
-1.07124e-18
-5.10027e-19
-8.21653e-19
-4.91991e-19
-5.85055e-19
-4.66272e-19
-3.65114e-19
-4.34288e-19
-1.64608e-19
-3.9749e-19
1.46939e-20
-3.57264e-19
1.71806e-19
-3.14851e-19
3.06161e-19
-2.71303e-19
4.17621e-19
-2.27522e-19
5.06711e-19
-1.84309e-19
5.7448e-19
-1.4237e-19
6.22154e-19
-1.02322e-19
6.51058e-19
-6.46904e-20
6.62672e-19
-2.98511e-20
6.58539e-19
2.05001e-21
6.40173e-19
3.10834e-20
6.09099e-19
5.74252e-20
5.66917e-19
8.12189e-20
5.15272e-19
1.02485e-19
4.55752e-19
1.21111e-19
3.89802e-19
1.36921e-19
3.18668e-19
1.49782e-19
2.43388e-19
1.59698e-19
1.64897e-19
1.66809e-19
8.43425e-20
1.71364e-19
1.73709e-19
1.85074e-10
-5.36855e-10
3.20612e-10
-4.78522e-10
4.37539e-10
-4.03751e-10
4.03207e-10
-1.19602e-10
4.74282e-10
-1.55335e-10
4.47325e-10
3.74683e-12
4.10352e-10
1.0491e-10
3.70825e-10
1.81451e-10
3.03138e-10
2.50142e-10
2.08837e-10
3.26212e-10
1.01158e-10
3.69025e-10
-4.12954e-11
3.7614e-10
-2.02768e-10
4.30563e-10
-4.10122e-10
5.01609e-10
-6.74957e-10
5.91838e-10
-8.92795e-10
6.59755e-10
-1.09746e-09
6.88198e-10
-1.43067e-09
7.54452e-10
-1.62925e-09
6.79758e-10
-1.71799e-09
7.23763e-10
-1.9904e-09
8.54908e-10
-2.14122e-09
6.88169e-10
-2.35604e-09
5.51487e-10
-2.55039e-09
5.58409e-10
-2.60986e-09
4.79069e-10
-2.7501e-09
3.98519e-10
-2.80222e-09
2.30078e-10
-2.82246e-09
1.51473e-10
-2.83533e-09
8.8104e-11
-2.73805e-09
-3.40871e-10
-2.58377e-09
-4.69322e-10
-2.52778e-09
-4.23951e-10
-2.29606e-09
-5.41371e-10
-2.06847e-09
-6.46295e-10
-1.86986e-09
-5.50765e-10
-1.72426e-09
-4.96913e-10
-1.59808e-09
-5.66367e-10
-1.42245e-09
-6.26653e-10
-1.23652e-09
-5.88953e-10
-1.0946e-09
-4.29322e-10
-9.17572e-10
-5.05349e-10
-8.13904e-10
-4.26923e-10
-6.37383e-10
-3.99316e-10
-3.41603e-10
-4.86404e-10
-1.49433e-10
-5.05558e-10
4.73737e-11
-5.80767e-10
2.03136e-10
-5.22035e-10
2.37147e-10
-3.84058e-10
2.77978e-10
-1.19063e-10
2.5358e-10
2.50557e-10
1.64987e-10
2.84259e-10
6.46726e-11
2.86161e-10
-3.03653e-11
2.67856e-10
-1.27688e-10
2.63132e-10
-2.12263e-10
2.40838e-10
-2.7989e-10
2.16497e-10
-3.41612e-10
2.08531e-10
-4.09122e-10
2.06362e-10
-4.75296e-10
1.75485e-10
-5.2121e-10
1.21016e-10
-5.45886e-10
6.24846e-11
-5.52955e-10
1.40077e-11
-5.36077e-10
-8.13325e-11
-4.7915e-10
-1.52711e-10
-4.24159e-10
-1.60855e-10
-3.41417e-10
-2.39909e-10
-2.7347e-10
-2.99242e-10
-1.99276e-10
-2.73882e-10
-1.08743e-10
-2.76295e-10
2.41091e-11
-3.70527e-10
1.4066e-10
-3.49138e-10
2.69991e-10
-3.1443e-10
3.48379e-10
-1.61815e-10
3.60724e-10
-1.40428e-10
3.47446e-10
5.29928e-12
3.26668e-10
1.9765e-10
3.53777e-10
3.26539e-10
3.61603e-10
3.11651e-10
2.168e-10
2.52163e-10
1.70017e-11
-2.60026e-10
-6.6363e-16
5.24424e-11
-3.39954e-18
1.84334e-19
-3.36477e-18
-1.81536e-19
-3.3225e-18
-1.84518e-19
-3.25354e-18
-2.47756e-19
-3.14846e-18
-3.3776e-19
-3.00582e-18
-4.35513e-19
-2.82806e-18
-5.29777e-19
-2.61944e-18
-6.13908e-19
-2.38545e-18
-6.84119e-19
-2.13226e-18
-7.37905e-19
-1.86611e-18
-7.74095e-19
-1.59348e-18
-7.92481e-19
-1.32062e-18
-7.93624e-19
-1.05321e-18
-7.78861e-19
-7.95934e-19
-7.5021e-19
-5.53071e-19
-7.09852e-19
-3.28317e-19
-6.59954e-19
-1.24382e-19
-6.02665e-19
5.7107e-20
-5.40201e-19
2.15354e-19
-4.74694e-19
3.49943e-19
-4.07887e-19
4.60833e-19
-3.41096e-19
5.48649e-19
-2.75419e-19
6.14529e-19
-2.11823e-19
6.59785e-19
-1.51118e-19
6.85897e-19
-9.39576e-20
6.94573e-19
-4.08628e-20
6.87572e-19
7.82843e-21
6.66515e-19
5.20166e-20
6.32893e-19
9.17982e-20
5.88183e-19
1.27331e-19
5.33898e-19
1.58707e-19
4.71562e-19
1.8592e-19
4.02664e-19
2.08925e-19
3.28583e-19
2.27721e-19
2.505e-19
2.42387e-19
1.69451e-19
2.5309e-19
8.66873e-20
2.60094e-19
2.63602e-19
1.55209e-10
-6.92064e-10
2.59013e-10
-5.82325e-10
3.36592e-10
-4.81331e-10
3.76982e-10
-1.59992e-10
3.88186e-10
-1.66539e-10
3.2165e-10
7.02825e-11
2.82028e-10
1.44531e-10
2.18539e-10
2.44939e-10
1.27539e-10
3.41141e-10
4.28109e-11
4.10939e-10
-5.51641e-11
4.66998e-10
-1.87309e-10
5.08283e-10
-3.77761e-10
6.21012e-10
-5.86515e-10
7.10359e-10
-7.92232e-10
7.97552e-10
-9.89257e-10
8.56775e-10
-1.18276e-09
8.81697e-10
-1.37523e-09
9.46916e-10
-1.5873e-09
8.91829e-10
-1.77894e-09
9.15396e-10
-1.92054e-09
9.96504e-10
-2.08361e-09
8.51234e-10
-2.30148e-09
7.69354e-10
-2.45711e-09
7.14043e-10
-2.55632e-09
5.78277e-10
-2.64736e-09
4.89557e-10
-2.67744e-09
2.60157e-10
-2.69048e-09
1.64516e-10
-2.60108e-09
-1.29858e-12
-2.62233e-09
-3.19623e-10
-2.41344e-09
-6.78218e-10
-2.33447e-09
-5.02915e-10
-2.25944e-09
-6.16402e-10
-2.06583e-09
-8.39907e-10
-1.83857e-09
-7.78027e-10
-1.7034e-09
-6.32092e-10
-1.59347e-09
-6.76296e-10
-1.51751e-09
-7.02614e-10
-1.43636e-09
-6.70099e-10
-1.27199e-09
-5.93693e-10
-1.16566e-09
-6.11676e-10
-1.07503e-09
-5.17553e-10
-8.42897e-10
-6.31449e-10
-3.7612e-10
-9.53179e-10
-1.2788e-10
-7.53797e-10
1.30244e-10
-8.38889e-10
2.54724e-10
-6.46514e-10
3.07307e-10
-4.3664e-10
3.61822e-10
-1.73576e-10
3.9204e-10
2.2034e-10
3.31941e-10
3.44361e-10
2.66238e-10
3.51866e-10
1.68347e-10
3.6575e-10
5.37672e-11
3.77714e-10
-5.03005e-11
3.44908e-10
-1.48175e-10
3.14373e-10
-2.20238e-10
2.80595e-10
-2.84281e-10
2.70405e-10
-3.4617e-10
2.37375e-10
-3.93185e-10
1.68031e-10
-4.16575e-10
8.58734e-11
-4.11846e-10
9.27709e-12
-4.03586e-10
-8.95938e-11
-3.70638e-10
-1.85661e-10
-2.9e-10
-2.41495e-10
-2.14098e-10
-3.15811e-10
-1.38382e-10
-3.74959e-10
-4.05825e-12
-4.08207e-10
2.02685e-10
-4.83039e-10
4.15123e-10
-5.82967e-10
5.1724e-10
-4.51256e-10
5.04518e-10
-3.01709e-10
5.6514e-10
-2.22439e-10
5.51161e-10
-1.26449e-10
5.51845e-10
4.61408e-12
5.78588e-10
1.70906e-10
6.54768e-10
2.50358e-10
6.04832e-10
3.61588e-10
5.7128e-10
2.85716e-10
2.81512e-10
2.97405e-11
-1.17638e-16
3.33954e-10
-3.30867e-18
2.57612e-19
-3.36677e-18
-1.24685e-19
-3.38478e-18
-1.68313e-19
-3.34261e-18
-2.9249e-19
-3.2453e-18
-4.38189e-19
-3.09962e-18
-5.84694e-19
-2.91219e-18
-7.20887e-19
-2.68965e-18
-8.40134e-19
-2.43924e-18
-9.38293e-19
-2.16845e-18
-1.01259e-18
-1.8845e-18
-1.06177e-18
-1.59462e-18
-1.08593e-18
-1.30586e-18
-1.08608e-18
-1.02455e-18
-1.06407e-18
-7.55576e-19
-1.02273e-18
-5.03172e-19
-9.65251e-19
-2.71028e-19
-8.94923e-19
-6.19174e-20
-8.14815e-19
1.22614e-19
-7.27894e-19
2.82161e-19
-6.3706e-19
4.16733e-19
-5.44856e-19
5.2651e-19
-4.5324e-19
6.12245e-19
-3.63697e-19
6.75234e-19
-2.77389e-19
7.16945e-19
-1.95221e-19
7.38992e-19
-1.17939e-19
7.43264e-19
-4.6216e-20
7.3176e-19
1.93927e-20
7.06297e-19
7.85813e-20
6.68426e-19
1.31369e-19
6.1956e-19
1.78025e-19
5.61112e-19
2.18898e-19
4.94567e-19
2.54267e-19
4.21459e-19
2.84283e-19
3.4325e-19
3.09007e-19
2.61203e-19
3.28477e-19
1.76455e-19
3.42792e-19
9.01954e-20
3.52178e-19
3.56805e-19
1.12488e-10
-8.04552e-10
2.09669e-10
-6.79506e-10
1.89202e-10
-4.60864e-10
2.85779e-10
-2.56569e-10
2.67689e-10
-1.4845e-10
2.31062e-10
1.0691e-10
1.81535e-10
1.94057e-10
1.22352e-10
3.04122e-10
4.03207e-11
4.23171e-10
-5.30701e-11
5.04328e-10
-1.43506e-10
5.57432e-10
-2.68031e-10
6.32806e-10
-4.20831e-10
7.7381e-10
-6.4058e-10
9.30105e-10
-8.60729e-10
1.0177e-09
-1.01668e-09
1.01272e-09
-1.1721e-09
1.03712e-09
-1.36332e-09
1.13813e-09
-1.58876e-09
1.11726e-09
-1.81959e-09
1.14623e-09
-1.92499e-09
1.1019e-09
-2.10137e-09
1.02761e-09
-2.28778e-09
9.55762e-10
-2.37083e-09
7.97089e-10
-2.43703e-09
6.4448e-10
-2.50515e-09
5.57671e-10
-2.47484e-09
2.29849e-10
-2.4862e-09
1.75876e-10
-2.45215e-09
-3.53532e-11
-2.38882e-09
-3.82948e-10
-2.34688e-09
-7.20162e-10
-2.2108e-09
-6.38992e-10
-2.03352e-09
-7.93686e-10
-1.98097e-09
-8.9246e-10
-1.86418e-09
-8.94815e-10
-1.74589e-09
-7.50382e-10
-1.68098e-09
-7.41214e-10
-1.69303e-09
-6.90562e-10
-1.70107e-09
-6.62057e-10
-1.68886e-09
-6.0591e-10
-1.64031e-09
-6.60223e-10
-1.41832e-09
-7.3954e-10
-1.04936e-09
-1.00041e-09
-6.90301e-10
-1.31224e-09
-3.35913e-10
-1.10818e-09
5.71245e-11
-1.23193e-09
2.35037e-10
-8.24424e-10
3.69573e-10
-5.71173e-10
4.80601e-10
-2.84602e-10
5.35597e-10
1.65347e-10
4.82032e-10
3.97927e-10
4.53714e-10
3.80186e-10
3.93832e-10
4.25633e-10
3.00185e-10
4.71363e-10
1.74612e-10
4.70481e-10
2.71711e-11
4.61814e-10
-1.03222e-10
4.10988e-10
-1.83317e-10
3.505e-10
-2.20545e-10
2.74601e-10
-2.52931e-10
2.00417e-10
-2.89725e-10
1.22666e-10
-2.78492e-10
-1.95679e-12
-2.73111e-10
-9.49743e-11
-2.23214e-10
-2.35559e-10
-1.60114e-10
-3.04594e-10
-1.85686e-11
-4.57357e-10
2.21347e-10
-6.14875e-10
4.36039e-10
-6.22899e-10
6.63907e-10
-7.10907e-10
7.49994e-10
-6.69055e-10
9.43759e-10
-6.45021e-10
1.01068e-09
-3.68634e-10
9.96541e-10
-2.08296e-10
9.07404e-10
-3.73131e-11
7.81758e-10
1.30259e-10
7.71517e-10
1.81145e-10
7.47222e-10
2.74651e-10
7.10634e-10
3.98174e-10
5.61496e-10
4.34854e-10
2.71133e-10
3.20103e-10
8.35659e-16
6.05086e-10
-3.02511e-18
1.98005e-18
-3.4094e-18
2.58841e-19
-3.50799e-18
-7.19918e-20
-3.48737e-18
-3.15899e-19
-3.39091e-18
-5.37813e-19
-3.2354e-18
-7.43724e-19
-3.03144e-18
-9.28665e-19
-2.78781e-18
-1.0876e-18
-2.51353e-18
-1.21656e-18
-2.21763e-18
-1.31281e-18
-1.90866e-18
-1.37517e-18
-1.59476e-18
-1.40419e-18
-1.28386e-18
-1.40152e-18
-9.83206e-19
-1.36985e-18
-6.98102e-19
-1.31293e-18
-4.32844e-19
-1.23516e-18
-1.90921e-19
-1.14108e-18
2.50043e-20
-1.03491e-18
2.13447e-19
-9.20524e-19
3.74366e-19
-8.01608e-19
5.0835e-19
-6.8145e-19
6.16053e-19
-5.62702e-19
6.98554e-19
-4.47394e-19
7.57403e-19
-3.37027e-19
7.94227e-19
-2.3266e-19
8.10715e-19
-1.35058e-19
8.08873e-19
-4.48698e-20
7.90949e-19
3.73421e-20
7.59084e-19
1.11234e-19
7.15082e-19
1.76825e-19
6.60433e-19
2.34489e-19
5.9648e-19
2.84768e-19
5.24583e-19
3.28157e-19
4.46184e-19
3.64971e-19
3.6272e-19
3.95341e-19
2.75517e-19
4.19311e-19
1.85842e-19
4.36983e-19
9.48225e-20
4.4856e-19
4.54188e-19
6.69447e-11
-8.71497e-10
1.11373e-10
-7.23935e-10
1.32656e-10
-4.82147e-10
1.41919e-10
-2.65832e-10
1.00954e-10
-1.07486e-10
6.95503e-11
1.38314e-10
3.66846e-11
2.26922e-10
-6.12181e-12
3.46927e-10
-7.19947e-11
4.89043e-10
-1.58049e-10
5.90381e-10
-2.60465e-10
6.59845e-10
-4.16825e-10
7.89164e-10
-5.96771e-10
9.53753e-10
-7.39553e-10
1.07288e-09
-8.66891e-10
1.14503e-09
-1.09087e-09
1.2367e-09
-1.27106e-09
1.2173e-09
-1.37185e-09
1.23892e-09
-1.5753e-09
1.32071e-09
-1.75571e-09
1.32663e-09
-1.90547e-09
1.25166e-09
-2.06412e-09
1.18626e-09
-2.18881e-09
1.08045e-09
-2.23531e-09
8.4358e-10
-2.28562e-09
6.94788e-10
-2.31792e-09
5.89969e-10
-2.30812e-09
2.20049e-10
-2.25226e-09
1.2002e-10
-2.29659e-09
8.97214e-12
-2.1879e-09
-4.91642e-10
-2.27092e-09
-6.3714e-10
-2.15372e-09
-7.56194e-10
-2.02312e-09
-9.24284e-10
-1.93789e-09
-9.77696e-10
-1.98545e-09
-8.47254e-10
-1.83172e-09
-9.0412e-10
-1.79137e-09
-7.81563e-10
-1.77538e-09
-7.06554e-10
-1.78646e-09
-6.50979e-10
-1.7565e-09
-6.35872e-10
-1.75299e-09
-6.63729e-10
-1.54254e-09
-9.49989e-10
-1.1808e-09
-1.36215e-09
-8.49573e-10
-1.64347e-09
-4.21192e-10
-1.53656e-09
-6.43881e-11
-1.58873e-09
2.18975e-10
-1.10779e-09
4.11478e-10
-7.63673e-10
5.22298e-10
-3.95419e-10
6.36944e-10
5.07028e-11
6.4125e-10
3.93624e-10
6.3251e-10
3.88929e-10
5.54935e-10
5.03208e-10
4.35465e-10
5.90833e-10
3.05554e-10
6.00393e-10
1.8603e-10
5.81338e-10
7.08712e-11
5.26147e-10
-3.68798e-11
4.5825e-10
-1.14343e-10
3.52064e-10
-1.49101e-10
2.35174e-10
-1.75263e-10
1.48828e-10
-1.93106e-10
1.5886e-11
-1.69281e-10
-1.18799e-10
-1.25599e-10
-2.7924e-10
8.50701e-12
-4.38699e-10
1.58315e-10
-6.07164e-10
3.36217e-10
-7.92776e-10
4.85106e-10
-7.71787e-10
8.29315e-10
-1.05512e-09
9.89645e-10
-8.29385e-10
1.13016e-09
-7.85538e-10
1.30832e-09
-5.46798e-10
1.30886e-09
-2.08829e-10
1.23119e-09
4.03564e-11
1.09996e-09
2.61483e-10
9.74988e-10
3.06114e-10
8.48559e-10
4.01078e-10
7.20099e-10
5.26632e-10
5.78239e-10
5.76712e-10
3.36919e-10
5.61422e-10
1.56599e-15
9.42001e-10
-3.81055e-18
1.38444e-18
-3.73919e-18
1.86704e-19
-3.75091e-18
-6.29941e-20
-3.70835e-18
-3.61381e-19
-3.59593e-18
-6.53206e-19
-3.42e-18
-9.2282e-19
-3.19037e-18
-1.16178e-18
-2.91677e-18
-1.36466e-18
-2.60979e-18
-1.52715e-18
-2.27999e-18
-1.64647e-18
-1.93768e-18
-1.72158e-18
-1.5921e-18
-1.75371e-18
-1.25218e-18
-1.74543e-18
-9.26288e-19
-1.70056e-18
-6.20331e-19
-1.62404e-18
-3.38763e-19
-1.52166e-18
-8.4752e-20
-1.39949e-18
1.39387e-19
-1.26314e-18
3.32363e-19
-1.11757e-18
4.94523e-19
-9.6728e-19
6.27097e-19
-8.163e-19
7.31362e-19
-6.67976e-19
8.08921e-19
-5.24957e-19
8.6177e-19
-3.89199e-19
8.91828e-19
-2.61953e-19
9.00904e-19
-1.43905e-19
8.91085e-19
-3.5453e-20
8.6484e-19
6.30898e-20
8.24676e-19
1.51512e-19
7.72745e-19
2.2986e-19
7.10712e-19
2.98514e-19
6.39869e-19
3.58087e-19
5.61397e-19
4.09219e-19
4.76553e-19
4.52397e-19
3.8669e-19
4.87904e-19
2.93188e-19
5.159e-19
1.97418e-19
5.36555e-19
1.0045e-19
5.50071e-19
5.56583e-19
4.12298e-11
-9.12727e-10
6.76424e-11
-7.50348e-10
6.50098e-11
-4.79514e-10
5.24513e-11
-2.53273e-10
2.94833e-11
-8.45183e-11
-6.71672e-12
1.74513e-10
-5.3674e-11
2.73879e-10
-1.18591e-10
4.11843e-10
-1.94887e-10
5.65338e-10
-2.65928e-10
6.6142e-10
-3.86822e-10
7.80737e-10
-5.07583e-10
9.09923e-10
-6.28577e-10
1.07475e-09
-8.08799e-10
1.2531e-09
-1.00179e-09
1.33802e-09
-1.06796e-09
1.30287e-09
-1.22974e-09
1.37908e-09
-1.41637e-09
1.42554e-09
-1.59435e-09
1.49869e-09
-1.7095e-09
1.44179e-09
-1.85037e-09
1.39253e-09
-1.97721e-09
1.31309e-09
-2.02532e-09
1.12856e-09
-2.04724e-09
8.6549e-10
-2.0503e-09
6.97848e-10
-2.01706e-09
5.5673e-10
-2.06053e-09
2.63522e-10
-2.02544e-09
8.49271e-11
-2.03703e-09
2.05566e-11
-2.0484e-09
-4.8027e-10
-2.05546e-09
-6.3008e-10
-2.03521e-09
-7.76444e-10
-1.95739e-09
-1.00211e-09
-1.95655e-09
-9.78536e-10
-1.94529e-09
-8.58521e-10
-1.81529e-09
-1.03413e-09
-1.73021e-09
-8.66636e-10
-1.66005e-09
-7.76719e-10
-1.61819e-09
-6.92844e-10
-1.54602e-09
-7.0804e-10
-1.47218e-09
-7.37572e-10
-1.24569e-09
-1.17648e-09
-9.80607e-10
-1.62723e-09
-7.22561e-10
-1.90151e-09
-2.78671e-10
-1.98045e-09
4.87718e-11
-1.91617e-09
2.89645e-10
-1.34866e-09
4.06721e-10
-8.80746e-10
4.40931e-10
-4.29627e-10
6.21893e-10
-1.30257e-10
7.73097e-10
2.42423e-10
7.73906e-10
3.88122e-10
7.26732e-10
5.50383e-10
5.97205e-10
7.20361e-10
4.69131e-10
7.28466e-10
3.48673e-10
7.01796e-10
2.28621e-10
6.46198e-10
1.19235e-10
5.67635e-10
1.40751e-11
4.57224e-10
-8.07317e-11
3.29981e-10
-1.23105e-10
1.91202e-10
-1.36976e-10
2.97572e-11
-7.33086e-11
-1.82464e-10
3.31539e-12
-3.55863e-10
1.4304e-10
-5.78422e-10
2.8723e-10
-7.51353e-10
4.45527e-10
-9.51073e-10
6.74509e-10
-1.00077e-09
8.77027e-10
-1.25763e-09
1.12798e-09
-1.08033e-09
1.25432e-09
-9.11883e-10
1.39528e-09
-6.87757e-10
1.49708e-09
-3.10632e-10
1.40789e-09
1.2954e-10
1.29122e-09
3.78151e-10
1.09162e-09
5.05714e-10
9.26642e-10
5.66053e-10
7.48696e-10
7.04574e-10
5.63233e-10
7.62173e-10
3.19747e-10
8.04906e-10
1.48268e-15
1.26174e-09
-3.75182e-18
2.48057e-18
-3.98783e-18
4.21629e-19
-4.04829e-18
-5.10562e-21
-3.99924e-18
-4.12976e-19
-3.86467e-18
-7.90168e-19
-3.65869e-18
-1.13124e-18
-3.39325e-18
-1.43009e-18
-3.07926e-18
-1.6814e-18
-2.72911e-18
-1.88021e-18
-2.35509e-18
-2.02342e-18
-1.96981e-18
-2.11014e-18
-1.58381e-18
-2.14257e-18
-1.20731e-18
-2.12455e-18
-8.49772e-19
-2.06155e-18
-5.17952e-19
-1.96002e-18
-2.16592e-19
-1.82736e-18
5.15978e-20
-1.67145e-18
2.84961e-19
-1.49963e-18
4.82651e-19
-1.31823e-18
6.45503e-19
-1.13273e-18
7.75421e-19
-9.47861e-19
8.74381e-19
-7.67531e-19
9.44678e-19
-5.94893e-19
9.89015e-19
-4.3231e-19
1.00988e-18
-2.81245e-19
1.00936e-18
-1.42307e-19
9.89628e-19
-1.55644e-20
9.53263e-19
9.90755e-20
9.03024e-19
2.01698e-19
8.41399e-19
2.92468e-19
7.70285e-19
3.71777e-19
6.91001e-19
4.40257e-19
6.04576e-19
4.9865e-19
5.12061e-19
5.47627e-19
4.14685e-19
5.87684e-19
3.13843e-19
6.19171e-19
2.10934e-19
6.42387e-19
1.06963e-19
6.57567e-19
6.64855e-19
2.36947e-11
-9.36422e-10
3.09682e-11
-7.57622e-10
2.33717e-11
-4.71918e-10
-6.24645e-12
-2.23656e-10
-2.68898e-12
-8.80763e-11
-1.66907e-11
1.88514e-10
-1.06553e-10
3.6374e-10
-1.88398e-10
4.93687e-10
-2.79764e-10
6.56702e-10
-3.83058e-10
7.64712e-10
-5.54959e-10
9.52637e-10
-7.27312e-10
1.08227e-09
-8.69051e-10
1.21648e-09
-8.79152e-10
1.2632e-09
-9.30004e-10
1.38886e-09
-1.11458e-09
1.48744e-09
-1.28724e-09
1.55174e-09
-1.47897e-09
1.61726e-09
-1.61223e-09
1.63195e-09
-1.73105e-09
1.56059e-09
-1.83229e-09
1.49377e-09
-1.87106e-09
1.35185e-09
-1.88182e-09
1.13932e-09
-1.89208e-09
8.75751e-10
-1.84928e-09
6.55039e-10
-1.77708e-09
4.84531e-10
-1.77938e-09
2.65818e-10
-1.709e-09
1.4553e-11
-1.69916e-09
1.07148e-11
-1.82121e-09
-3.58218e-10
-1.87566e-09
-5.75635e-10
-1.84497e-09
-8.07139e-10
-1.87267e-09
-9.74402e-10
-1.89691e-09
-9.54298e-10
-1.7135e-09
-1.04194e-09
-1.70498e-09
-1.04264e-09
-1.54337e-09
-1.02825e-09
-1.43097e-09
-8.89126e-10
-1.30991e-09
-8.13908e-10
-1.19673e-09
-8.21214e-10
-1.0739e-09
-8.6041e-10
-1.00413e-09
-1.24624e-09
-8.59083e-10
-1.77228e-09
-6.52337e-10
-2.10826e-09
-4.03882e-10
-2.2289e-09
-1.66544e-10
-2.1535e-09
9.12861e-11
-1.60648e-09
1.85041e-10
-9.74499e-10
3.19868e-10
-5.6445e-10
4.77163e-10
-2.87549e-10
6.74017e-10
4.55718e-11
7.26349e-10
3.35792e-10
7.32853e-10
5.4388e-10
6.79272e-10
7.73943e-10
6.01183e-10
8.06555e-10
4.80177e-10
8.22801e-10
3.35971e-10
7.90403e-10
1.96265e-10
7.0734e-10
9.57697e-11
5.57719e-10
1.86946e-11
4.07057e-10
-5.02639e-11
2.60161e-10
-9.61087e-11
7.56032e-11
-4.49641e-11
-2.33608e-10
-2.30263e-12
-3.98523e-10
6.57163e-11
-6.4644e-10
2.23366e-10
-9.09001e-10
3.59233e-10
-1.08694e-09
6.5146e-10
-1.293e-09
8.58515e-10
-1.46469e-09
1.1124e-09
-1.33422e-09
1.34262e-09
-1.1421e-09
1.37251e-09
-7.17645e-10
1.5934e-09
-5.31523e-10
1.46011e-09
2.62828e-10
1.35348e-09
4.84773e-10
1.15684e-09
7.0235e-10
9.7279e-10
7.50102e-10
7.7886e-10
8.98501e-10
5.81446e-10
9.59584e-10
3.49331e-10
1.03702e-09
5.06245e-16
1.61107e-09
-4.17081e-18
3.5515e-18
-4.41345e-18
6.6302e-19
-4.45514e-18
3.49408e-20
-4.3755e-18
-4.94298e-19
-4.20488e-18
-9.62383e-19
-3.95736e-18
-1.38043e-18
-3.64455e-18
-1.74523e-18
-3.27807e-18
-2.05013e-18
-2.87232e-18
-2.28846e-18
-2.44182e-18
-2.45614e-18
-2.00223e-18
-2.55244e-18
-1.56579e-18
-2.58094e-18
-1.14431e-18
-2.54728e-18
-7.48247e-19
-2.4593e-18
-3.85294e-19
-2.32558e-18
-6.06817e-20
-2.15546e-18
2.23421e-19
-1.95883e-18
4.66365e-19
-1.74505e-18
6.68146e-19
-1.52217e-18
8.30372e-19
-1.29685e-18
9.55751e-19
-1.07454e-18
1.04702e-18
-8.59527e-19
1.10726e-18
-6.55227e-19
1.14008e-18
-4.64224e-19
1.14881e-18
-2.8815e-19
1.1361e-18
-1.276e-19
1.10427e-18
1.76338e-20
1.05589e-18
1.48096e-19
9.93794e-19
2.64313e-19
9.20707e-19
3.66745e-19
8.38765e-19
4.55921e-19
7.49395e-19
5.32554e-19
6.53553e-19
5.97493e-19
5.52118e-19
6.51589e-19
4.46173e-19
6.95567e-19
3.37059e-19
7.30004e-19
2.26115e-19
7.55353e-19
1.14251e-19
7.71926e-19
7.79897e-19
2.74145e-11
-9.63836e-10
1.30735e-11
-7.43281e-10
-4.88543e-12
-4.53959e-10
-6.17701e-11
-1.66771e-10
-1.18704e-10
-3.11427e-11
-1.21311e-10
1.9112e-10
-1.88586e-10
4.31013e-10
-2.70017e-10
5.75117e-10
-3.58539e-10
7.45222e-10
-4.7056e-10
8.76732e-10
-5.77168e-10
1.05924e-09
-6.47637e-10
1.15274e-09
-7.28991e-10
1.29783e-09
-8.74118e-10
1.40833e-09
-1.00503e-09
1.51977e-09
-1.18079e-09
1.6632e-09
-1.33713e-09
1.70808e-09
-1.4857e-09
1.76583e-09
-1.5871e-09
1.73335e-09
-1.66861e-09
1.64211e-09
-1.72554e-09
1.5507e-09
-1.7298e-09
1.35611e-09
-1.66682e-09
1.07633e-09
-1.68237e-09
8.91305e-10
-1.65495e-09
6.27617e-10
-1.61532e-09
4.44899e-10
-1.58483e-09
2.35324e-10
-1.54495e-09
-2.53305e-11
-1.47996e-09
-5.42771e-11
-1.56396e-09
-2.74217e-10
-1.64641e-09
-4.93187e-10
-1.60967e-09
-8.4388e-10
-1.66077e-09
-9.2331e-10
-1.70098e-09
-9.14082e-10
-1.65377e-09
-1.08915e-09
-1.54545e-09
-1.15097e-09
-1.43887e-09
-1.13482e-09
-1.33362e-09
-9.94382e-10
-1.1261e-09
-1.02143e-09
-9.77485e-10
-9.69831e-10
-8.48988e-10
-9.88908e-10
-8.24665e-10
-1.27057e-09
-7.67592e-10
-1.82935e-09
-6.66666e-10
-2.20918e-09
-5.7354e-10
-2.32203e-09
-4.56143e-10
-2.2709e-09
-3.17283e-10
-1.74534e-09
-1.39034e-10
-1.15275e-09
1.08848e-10
-8.12328e-10
2.53026e-10
-4.31723e-10
3.95826e-10
-9.72265e-11
6.09173e-10
1.22447e-10
6.30857e-10
5.22197e-10
6.07598e-10
7.97201e-10
5.63989e-10
8.50164e-10
5.32062e-10
8.54726e-10
4.46503e-10
8.75961e-10
3.25335e-10
8.28507e-10
1.86161e-10
6.96892e-10
6.20969e-11
5.31121e-10
-2.61055e-11
3.48364e-10
-7.40919e-11
1.23591e-10
-4.77454e-11
-2.59953e-10
-2.95639e-11
-4.16703e-10
-7.82827e-13
-6.75219e-10
6.63935e-11
-9.76176e-10
1.97316e-10
-1.21786e-09
4.09591e-10
-1.50527e-09
6.15989e-10
-1.67108e-09
8.54335e-10
-1.57257e-09
1.12976e-09
-1.41753e-09
1.16613e-09
-7.54012e-10
1.3989e-09
-7.64301e-10
1.33529e-09
3.26442e-10
1.28643e-09
5.3363e-10
1.18781e-09
8.00965e-10
9.8012e-10
9.57791e-10
7.47617e-10
1.131e-09
5.5879e-10
1.14841e-09
3.46221e-10
1.24959e-09
-6.8999e-16
1.95729e-09
-4.96175e-18
4.60286e-18
-5.04037e-18
7.40644e-19
-4.98335e-18
-2.24959e-20
-4.84265e-18
-6.35844e-19
-4.62208e-18
-1.18405e-18
-4.32206e-18
-1.68181e-18
-3.94945e-18
-2.12005e-18
-3.5164e-18
-2.48553e-18
-3.04e-18
-2.76759e-18
-2.53812e-18
-2.96025e-18
-2.03073e-18
-3.06292e-18
-1.53214e-18
-3.08125e-18
-1.05632e-18
-3.02368e-18
-6.14532e-19
-2.90128e-18
-2.15166e-19
-2.72577e-18
1.35948e-19
-2.50901e-18
4.37193e-19
-2.26317e-18
6.89251e-19
-1.99976e-18
8.93462e-19
-1.7287e-18
1.05269e-18
-1.45806e-18
1.17076e-18
-1.19407e-18
1.25132e-18
-9.41308e-19
1.29827e-18
-7.03181e-19
1.31615e-18
-4.82202e-19
1.30936e-18
-2.8e-19
1.28133e-18
-9.71416e-20
1.23473e-18
6.67788e-20
1.1721e-18
2.12721e-19
1.09623e-18
3.41733e-19
1.00988e-18
4.54747e-19
9.15397e-19
5.5263e-19
8.14334e-19
6.36312e-19
7.07649e-19
7.06824e-19
5.96096e-19
7.6521e-19
4.8061e-19
8.1242e-19
3.62407e-19
8.49252e-19
2.42688e-19
8.76315e-19
1.22222e-19
8.94016e-19
9.02585e-19
1.51581e-11
-9.78995e-10
4.68489e-12
-7.32808e-10
1.15403e-11
-4.60815e-10
7.68468e-12
-1.62916e-10
-8.34485e-11
5.99898e-11
-1.6736e-10
2.7503e-10
-2.5012e-10
5.13772e-10
-3.39459e-10
6.64455e-10
-4.65678e-10
8.71439e-10
-6.08854e-10
1.01991e-09
-7.42272e-10
1.19266e-09
-8.74175e-10
1.28464e-09
-9.77309e-10
1.40097e-09
-1.01379e-09
1.44481e-09
-1.12834e-09
1.63431e-09
-1.22614e-09
1.76099e-09
-1.38054e-09
1.86248e-09
-1.46059e-09
1.84588e-09
-1.53123e-09
1.80399e-09
-1.60721e-09
1.71808e-09
-1.63573e-09
1.57922e-09
-1.64994e-09
1.37032e-09
-1.59133e-09
1.01772e-09
-1.5185e-09
8.18477e-10
-1.45886e-09
5.67978e-10
-1.4134e-09
3.99434e-10
-1.37358e-09
1.955e-10
-1.43274e-09
3.38289e-11
-1.37962e-09
-1.07403e-10
-1.36762e-09
-2.86215e-10
-1.34213e-09
-5.18682e-10
-1.36172e-09
-8.24285e-10
-1.42133e-09
-8.63701e-10
-1.45864e-09
-8.76777e-10
-1.42398e-09
-1.12381e-09
-1.43323e-09
-1.14172e-09
-1.41556e-09
-1.15249e-09
-1.19266e-09
-1.21729e-09
-1.02231e-09
-1.19179e-09
-8.67476e-10
-1.12466e-09
-6.83873e-10
-1.17251e-09
-6.42719e-10
-1.31172e-09
-7.14353e-10
-1.75772e-09
-7.06577e-10
-2.21696e-09
-6.54754e-10
-2.37385e-09
-6.37652e-10
-2.288e-09
-5.4065e-10
-1.84234e-09
-2.79427e-10
-1.41397e-09
-9.73315e-11
-9.9442e-10
1.06263e-10
-6.35315e-10
2.89861e-10
-2.80822e-10
4.32498e-10
-2.01897e-11
4.33024e-10
5.21671e-10
4.85055e-10
7.4517e-10
5.08095e-10
8.27123e-10
5.05676e-10
8.57145e-10
4.81682e-10
8.99954e-10
4.44995e-10
8.65192e-10
3.41656e-10
8.0023e-10
2.41832e-10
6.30945e-10
1.5402e-10
4.36176e-10
3.72952e-11
2.40316e-10
-5.76803e-11
-1.64976e-10
-1.0369e-10
-3.70692e-10
-1.71189e-10
-6.07719e-10
-1.65651e-10
-9.81713e-10
3.51431e-11
-1.41865e-09
2.13225e-10
-1.68335e-09
3.61795e-10
-1.81965e-09
6.26386e-10
-1.83716e-09
8.36867e-10
-1.62801e-09
9.91034e-10
-9.08179e-10
1.05427e-09
-8.27543e-10
1.10269e-09
2.78026e-10
1.13204e-09
5.04281e-10
1.04151e-09
8.91495e-10
9.19266e-10
1.08003e-09
8.37832e-10
1.21244e-09
6.00702e-10
1.38554e-09
3.62759e-10
1.48753e-09
-1.18191e-15
2.32005e-09
-6.15938e-18
4.42967e-18
-5.80231e-18
3.83174e-19
-5.59565e-18
-2.28916e-19
-5.38993e-18
-8.42263e-19
-5.11913e-18
-1.45609e-18
-4.76029e-18
-2.04241e-18
-4.31492e-18
-2.5679e-18
-3.79847e-18
-3.00511e-18
-3.23266e-18
-3.33698e-18
-2.64079e-18
-3.55518e-18
-2.04906e-18
-3.65977e-18
-1.47457e-18
-3.65905e-18
-9.3392e-19
-3.56598e-18
-4.39021e-19
-3.39614e-18
1.59307e-21
-3.16567e-18
3.8179e-19
-2.89004e-18
7.006e-19
-2.58417e-18
9.6031e-19
-2.26183e-18
1.1641e-18
-1.9348e-18
1.31668e-18
-1.61254e-18
1.42352e-18
-1.30211e-18