/*--------------------------------*- C++ -*----------------------------------*\
  =========                 |
  \\      /  F ield         | OpenFOAM: The Open Source CFD Toolbox
   \\    /   O peration     | Website:  https://openfoam.org
    \\  /    A nd           | Version:  6
     \\/     M anipulation  |
\*---------------------------------------------------------------------------*/
FoamFile
{
    version     2.0;
    format      ascii;
    class       surfaceScalarField;
    location    "6200";
    object      phi;
}
// * * * * * * * * * * * * * * * * * * * * * * * * * * * * * * * * * * * * * //

dimensions      [0 3 -1 0 0 0 0];

internalField   nonuniform List<scalar> 
9440
(
1.23449e-13
-1.23448e-13
2.4582e-13
-1.22367e-13
3.66354e-13
-1.20533e-13
4.84138e-13
-1.17782e-13
5.98371e-13
-1.14231e-13
7.08377e-13
-1.10004e-13
8.13403e-13
-1.05025e-13
9.12836e-13
-9.943e-14
1.00612e-12
-9.32796e-14
1.09287e-12
-8.67586e-14
1.17271e-12
-7.98405e-14
1.2455e-12
-7.27952e-14
1.31123e-12
-6.57287e-14
1.3696e-12
-5.83728e-14
1.42064e-12
-5.10422e-14
1.46434e-12
-4.37121e-14
1.50149e-12
-3.71523e-14
1.53406e-12
-3.25792e-14
1.56067e-12
-2.66203e-14
1.58138e-12
-2.07197e-14
1.59723e-12
-1.58599e-14
1.6123e-12
-1.50787e-14
1.62239e-12
-1.00948e-14
1.63023e-12
-7.85854e-15
1.63677e-12
-6.55768e-15
1.64196e-12
-5.20535e-15
1.64644e-12
-4.4923e-15
1.65074e-12
-4.3128e-15
1.65513e-12
-4.40609e-15
1.66005e-12
-4.94082e-15
1.66569e-12
-5.65892e-15
1.67216e-12
-6.48547e-15
1.67957e-12
-7.41915e-15
1.68781e-12
-8.26272e-15
1.69693e-12
-9.13489e-15
1.70665e-12
-9.73845e-15
1.71686e-12
-1.02213e-14
1.72713e-12
-1.02924e-14
1.7373e-12
-1.01823e-14
1.74694e-12
-9.65133e-15
1.75576e-12
-8.83547e-15
1.76322e-12
-7.47597e-15
1.76907e-12
-5.86427e-15
1.77297e-12
-3.90265e-15
1.77426e-12
-1.30453e-15
1.77287e-12
1.37722e-15
1.76854e-12
4.32366e-15
1.76097e-12
7.57064e-15
1.74976e-12
1.12035e-14
1.73492e-12
1.4837e-14
1.71629e-12
1.86281e-14
1.69364e-12
2.26497e-14
1.66714e-12
2.64922e-14
1.63667e-12
3.04707e-14
1.6023e-12
3.43701e-14
1.56429e-12
3.80171e-14
1.52251e-12
4.17831e-14
1.47732e-12
4.5198e-14
1.42858e-12
4.87506e-14
1.37684e-12
5.1746e-14
1.32222e-12
5.46257e-14
1.26488e-12
5.7351e-14
1.205e-12
5.98844e-14
1.14286e-12
6.21531e-14
1.07864e-12
6.42306e-14
1.01264e-12
6.60158e-14
9.44972e-13
6.76783e-14
8.75883e-13
6.91014e-14
8.05624e-13
7.02742e-14
7.34528e-13
7.1108e-14
6.62822e-13
7.1721e-14
5.90913e-13
7.19226e-14
5.19444e-13
7.1483e-14
4.4996e-13
6.95012e-14
3.86153e-13
6.38214e-14
3.39886e-13
4.62824e-14
3.50074e-13
-1.01707e-14
1.73363e-13
1.76726e-13
-1.0379e-17
1.7339e-13
2.94477e-21
9.16524e-22
2.9308e-21
1.62851e-23
2.91044e-21
2.06278e-23
2.88257e-21
2.63147e-23
2.84628e-21
3.21567e-23
2.80171e-21
3.76884e-23
2.74919e-21
4.27549e-23
2.68958e-21
4.73561e-23
2.62346e-21
5.15954e-23
2.55185e-21
5.53177e-23
2.47534e-21
5.84196e-23
2.39557e-21
6.11597e-23
2.31285e-21
6.3331e-23
2.22832e-21
6.51922e-23
2.14291e-21
6.67948e-23
2.05709e-21
6.8139e-23
1.97138e-21
6.92247e-23
1.88618e-21
7.0207e-23
1.80196e-21
7.1396e-23
1.71826e-21
7.22749e-23
1.63565e-21
7.31538e-23
1.55386e-21
7.41361e-23
1.473e-21
7.51183e-23
1.39271e-21
7.61006e-23
1.31294e-21
7.7238e-23
1.23348e-21
7.84271e-23
1.15418e-21
7.96678e-23
1.07477e-21
8.08569e-23
9.95253e-22
8.20977e-23
9.15327e-22
8.32351e-23
8.35091e-22
8.45275e-23
7.54285e-22
8.55615e-23
6.73067e-22
8.66989e-23
5.91227e-22
8.77329e-23
5.08768e-22
8.856e-23
4.25688e-22
8.94389e-23
3.42039e-22
9.01627e-23
2.57874e-22
9.07831e-23
1.73191e-22
9.14552e-23
8.75778e-23
9.21789e-23
9.41952e-23
1.25276e-13
-2.48721e-13
2.47858e-13
-2.44939e-13
3.685e-13
-2.41172e-13
4.86666e-13
-2.35943e-13
6.0154e-13
-2.29103e-13
7.12146e-13
-2.20609e-13
8.17788e-13
-2.10667e-13
9.17799e-13
-1.99442e-13
1.01163e-12
-1.87116e-13
1.09874e-12
-1.73867e-13
1.17896e-12
-1.60066e-13
1.25203e-12
-1.4587e-13
1.31786e-12
-1.31566e-13
1.37617e-12
-1.16689e-13
1.42708e-12
-1.01964e-13
1.47018e-12
-8.68294e-14
1.50741e-12
-7.43928e-14
1.53949e-12
-6.46829e-14
1.56544e-12
-5.25902e-14
1.58535e-12
-4.06472e-14
1.60114e-12
-3.16696e-14
1.6151e-12
-2.90579e-14
1.62469e-12
-1.97144e-14
1.63187e-12
-1.5062e-14
1.63796e-12
-1.26772e-14
1.64267e-12
-9.94175e-15
1.64664e-12
-8.49636e-15
1.65058e-12
-8.27564e-15
1.65467e-12
-8.53281e-15
1.65938e-12
-9.68213e-15
1.66487e-12
-1.11776e-14
1.67127e-12
-1.29216e-14
1.67869e-12
-1.48678e-14
1.68707e-12
-1.66729e-14
1.69624e-12
-1.83361e-14
1.70626e-12
-1.97851e-14
1.71667e-12
-2.06597e-14
1.72729e-12
-2.09397e-14
1.7378e-12
-2.07197e-14
1.74783e-12
-1.97018e-14
1.75693e-12
-1.79581e-14
1.76489e-12
-1.54508e-14
1.77111e-12
-1.21119e-14
1.77533e-12
-8.13256e-15
1.77704e-12
-3.02713e-15
1.77593e-12
2.47491e-15
1.77191e-12
8.33343e-15
1.76448e-12
1.49884e-14
1.75357e-12
2.21105e-14
1.73882e-12
2.95839e-14
1.7203e-12
3.71458e-14
1.69765e-12
4.53043e-14
1.67108e-12
5.30628e-14
1.64063e-12
6.09231e-14
1.60621e-12
6.88028e-14
1.56801e-12
7.6217e-14
1.52613e-12
8.36719e-14
1.48066e-12
9.06856e-14
1.43178e-12
9.76421e-14
1.37986e-12
1.03675e-13
1.32501e-12
1.09488e-13
1.2675e-12
1.14878e-13
1.20744e-12
1.19965e-13
1.14507e-12
1.24544e-13
1.08067e-12
1.28648e-13
1.01441e-12
1.32301e-13
9.46456e-13
1.35657e-13
8.7715e-13
1.38431e-13
8.06718e-13
1.40732e-13
7.35323e-13
1.42529e-13
6.63189e-13
1.4388e-13
5.90609e-13
1.4453e-13
5.17899e-13
1.44217e-13
4.44992e-13
1.42436e-13
3.70826e-13
1.38016e-13
2.88433e-13
1.28704e-13
1.67184e-13
1.11107e-13
9.16918e-14
2.52246e-13
-7.87868e-18
2.65112e-13
2.94312e-21
1.44262e-21
2.9352e-21
2.52807e-23
2.91612e-21
3.61892e-23
2.88841e-21
4.62704e-23
2.85181e-21
5.58347e-23
2.80673e-21
6.4882e-23
2.75384e-21
7.3464e-23
2.69377e-21
8.14773e-23
2.62723e-21
8.88185e-23
2.55495e-21
9.54877e-23
2.47808e-21
1.01743e-22
2.39774e-21
1.07533e-22
2.31466e-21
1.126e-22
2.22992e-21
1.17253e-22
2.14426e-21
1.21544e-22
2.05818e-21
1.25525e-22
1.97241e-21
1.29247e-22
1.88726e-21
1.32763e-22
1.80284e-21
1.36123e-22
1.71909e-21
1.39277e-22
1.63663e-21
1.42585e-22
1.55489e-21
1.45842e-22
1.47398e-21
1.49048e-22
1.39385e-21
1.52201e-22
1.31413e-21
1.55407e-22
1.23462e-21
1.58508e-22
1.15547e-21
1.61662e-22
1.07601e-21
1.64764e-22
9.96391e-22
1.67763e-22
9.16568e-22
1.70813e-22
8.36125e-22
1.73553e-22
7.55423e-22
1.76086e-22
6.74101e-22
1.78464e-22
5.92055e-22
1.80687e-22
5.09543e-22
1.82548e-22
4.26412e-22
1.84203e-22
3.4266e-22
1.85547e-22
2.58546e-22
1.86633e-22
1.73966e-22
1.87512e-22
8.95423e-23
1.88184e-22
1.88494e-22
1.25141e-13
-3.73862e-13
2.50535e-13
-3.70328e-13
3.73979e-13
-3.6461e-13
4.94462e-13
-3.56421e-13
6.11209e-13
-3.45847e-13
7.23494e-13
-3.32891e-13
8.30485e-13
-3.17657e-13
9.3161e-13
-3.0057e-13
1.02624e-12
-2.81746e-13
1.11403e-12
-2.61657e-13
1.19448e-12
-2.4052e-13
1.26763e-12
-2.19031e-13
1.3332e-12
-1.97141e-13
1.39112e-12
-1.74615e-13
1.44115e-12
-1.52003e-13
1.48297e-12
-1.28665e-13
1.51995e-12
-1.11389e-13
1.55099e-12
-9.57319e-14
1.57521e-12
-7.68277e-14
1.59345e-12
-5.89002e-14
1.6093e-12
-4.75332e-14
1.62116e-12
-4.09448e-14
1.62943e-12
-2.80018e-14
1.63543e-12
-2.10783e-14
1.64047e-12
-1.77444e-14
1.64394e-12
-1.3433e-14
1.64703e-12
-1.16139e-14
1.65011e-12
-1.13766e-14
1.6536e-12
-1.20557e-14
1.65784e-12
-1.39454e-14
1.66302e-12
-1.63804e-14
1.66933e-12
-1.92598e-14
1.6768e-12
-2.23591e-14
1.68539e-12
-2.52888e-14
1.69491e-12
-2.78842e-14
1.70531e-12
-3.02122e-14
1.71633e-12
-3.16966e-14
1.72757e-12
-3.22037e-14
1.73886e-12
-3.20276e-14
1.74964e-12
-3.05103e-14
1.75953e-12
-2.78603e-14
1.76817e-12
-2.41138e-14
1.7752e-12
-1.91515e-14
1.78015e-12
-1.31005e-14
1.78263e-12
-5.52246e-15
1.78213e-12
2.96948e-15
1.77847e-12
1.19808e-14
1.77153e-12
2.19247e-14
1.76094e-12
3.26917e-14
1.74647e-12
4.40498e-14
1.72814e-12
5.54717e-14
1.70556e-12
6.78904e-14
1.67897e-12
7.9651e-14
1.64834e-12
9.15656e-14
1.61363e-12
1.03512e-13
1.57529e-12
1.14573e-13
1.53308e-12
1.25879e-13
1.48729e-12
1.36487e-13
1.43802e-12
1.46922e-13
1.38569e-12
1.56026e-13
1.33041e-12
1.64775e-13
1.27236e-12
1.72948e-13
1.2118e-12
1.80547e-13
1.14901e-12
1.8735e-13
1.08415e-12
1.93526e-13
1.01739e-12
1.99087e-13
9.49081e-13
2.03981e-13
8.79334e-13
2.082e-13
8.0838e-13
2.11706e-13
7.36455e-13
2.14475e-13
6.63682e-13
2.16677e-13
5.90252e-13
2.17983e-13
5.15993e-13
2.185e-13
4.40391e-13
2.18062e-13
3.61346e-13
2.17085e-13
2.73149e-13
2.16926e-13
1.59574e-13
2.24709e-13
8.59218e-14
3.25925e-13
-7.15754e-18
3.5106e-13
2.95801e-21
2.16227e-21
2.94611e-21
3.77401e-23
2.9262e-21
5.34049e-23
2.89808e-21
6.8139e-23
2.86086e-21
8.20977e-23
2.81531e-21
9.5436e-23
2.76185e-21
1.07999e-22
2.70116e-21
1.19734e-22
2.6339e-21
1.30798e-22
2.56116e-21
1.40931e-22
2.48387e-21
1.5034e-22
2.4028e-21
1.58819e-22
2.31936e-21
1.66677e-22
2.23422e-21
1.73863e-22
2.14824e-21
1.80636e-22
2.0619e-21
1.86788e-22
1.97593e-21
1.92578e-22
1.89062e-21
1.98058e-22
1.80599e-21
2.03435e-22
1.72245e-21
2.08605e-22
1.63983e-21
2.13568e-22
1.5581e-21
2.18531e-22
1.47714e-21
2.23597e-22
1.39706e-21
2.28509e-22
1.31729e-21
2.3342e-22
1.23782e-21
2.38331e-22
1.15857e-21
2.43139e-22
1.07895e-21
2.47844e-22
9.99389e-22
2.52549e-22
9.1936e-22
2.56891e-22
8.3871e-22
2.61079e-22
7.57749e-22
2.65008e-22
6.76272e-22
2.68524e-22
5.93967e-22
2.71729e-22
5.11198e-22
2.74624e-22
4.27756e-22
2.77054e-22
3.43797e-22
2.79018e-22
2.59373e-22
2.80621e-22
1.7469e-22
2.81707e-22
8.98525e-23
2.82327e-22
2.82482e-22
1.28253e-13
-5.02112e-13
2.56135e-13
-4.98206e-13
3.82224e-13
-4.90697e-13
5.05352e-13
-4.79545e-13
6.24548e-13
-4.6504e-13
7.39009e-13
-4.47349e-13
8.47974e-13
-4.26621e-13
9.50739e-13
-4.03333e-13
1.04676e-12
-3.7777e-13
1.13545e-12
-3.50345e-13
1.21664e-12
-3.21717e-13
1.29007e-12
-2.92462e-13
1.35527e-12
-2.62348e-13
1.41291e-12
-2.32257e-13
1.46177e-12
-2.0087e-13
1.50191e-12
-1.68817e-13
1.53869e-12
-1.48186e-13
1.56792e-12
-1.24972e-13
1.58989e-12
-9.88182e-14
1.60521e-12
-7.42269e-14
1.6217e-12
-6.40442e-14
1.62989e-12
-4.91563e-14
1.63647e-12
-3.46076e-14
1.64066e-12
-2.52885e-14
1.64388e-12
-2.09861e-14
1.64568e-12
-1.52582e-14
1.64737e-12
-1.33309e-14
1.64928e-12
-1.33066e-14
1.65185e-12
-1.46588e-14
1.6553e-12
-1.74211e-14
1.66011e-12
-2.12105e-14
1.66628e-12
-2.54534e-14
1.67378e-12
-2.98912e-14
1.68268e-12
-3.42153e-14
1.69272e-12
-3.7945e-14
1.70383e-12
-4.13508e-14
1.71566e-12
-4.35486e-14
1.72793e-12
-4.44915e-14
1.74021e-12
-4.43319e-14
1.75214e-12
-4.24592e-14
1.76334e-12
-3.90798e-14
1.77321e-12
-3.39953e-14
1.78133e-12
-2.72838e-14
1.78736e-12
-1.91512e-14
1.79088e-12
-9.04486e-15
1.79152e-12
2.32215e-15
1.78859e-12
1.4899e-14
1.78232e-12
2.81895e-14
1.77229e-12
4.27167e-14
1.75814e-12
5.81901e-14
1.74e-12
7.36109e-14
1.71754e-12
9.03522e-14
1.69084e-12
1.06347e-13
1.66008e-12
1.22326e-13
1.62515e-12
1.38448e-13
1.58634e-12
1.53397e-13
1.5436e-12
1.68623e-13
1.49727e-12
1.82835e-13
1.44748e-12
1.96721e-13
1.39447e-12
2.0904e-13
1.33851e-12
2.20754e-13
1.27983e-12
2.31635e-13
1.21865e-12
2.41744e-13
1.15521e-12
2.50815e-13
1.08969e-12
2.59056e-13
1.02225e-12
2.6655e-13
9.53219e-13
2.73034e-13
8.8278e-13
2.78658e-13
8.11183e-13
2.83324e-13
7.38509e-13
2.87173e-13
6.64975e-13
2.90234e-13
5.90704e-13
2.92281e-13
5.15615e-13
2.93608e-13
4.392e-13
2.94501e-13
3.60841e-13
2.95466e-13
2.8007e-13
2.97721e-13
1.99491e-13
3.05313e-13
8.79047e-14
4.37535e-13
-7.48238e-18
4.38991e-13
2.97455e-21
2.91832e-21
2.96177e-21
5.12852e-23
2.94089e-21
7.1396e-23
2.91199e-21
9.06797e-23
2.87419e-21
1.0924e-22
2.82792e-21
1.26869e-22
2.77359e-21
1.43671e-22
2.71212e-21
1.59491e-22
2.64408e-21
1.74122e-22
2.57057e-21
1.87667e-22
2.4923e-21
2.00023e-22
2.41066e-21
2.11603e-22
2.32655e-21
2.22098e-22
2.24099e-21
2.31817e-22
2.15444e-21
2.40658e-22
2.06774e-21
2.48981e-22
1.98141e-21
2.56891e-22
1.896e-21
2.64284e-22
1.81122e-21
2.71315e-22
1.72741e-21
2.78243e-22
1.6448e-21
2.84964e-22
1.56311e-21
2.91633e-22
1.4821e-21
2.9825e-22
1.40192e-21
3.04919e-22
1.3222e-21
3.11485e-22
1.24263e-21
3.18051e-22
1.16327e-21
3.24462e-22
1.08361e-21
3.30769e-22
1.00378e-21
3.36869e-22
9.23496e-22
3.4266e-22
8.42639e-22
3.48191e-22
7.61368e-22
3.53361e-22
6.79477e-22
3.58118e-22
5.96914e-22
3.62305e-22
5.13576e-22
3.65924e-22
4.2972e-22
3.69129e-22
3.454e-22
3.71714e-22
2.6051e-22
3.73731e-22
1.75259e-22
3.75023e-22
9.00076e-23
3.75747e-22
3.75799e-22
1.32352e-13
-6.3446e-13
2.63814e-13
-6.29663e-13
3.93252e-13
-6.2013e-13
5.19763e-13
-6.06056e-13
6.42154e-13
-5.87427e-13
7.59545e-13
-5.64741e-13
8.71166e-13
-5.38243e-13
9.76244e-13
-5.08411e-13
1.0741e-12
-4.75623e-13
1.16425e-12
-4.40503e-13
1.24637e-12
-4.0384e-13
1.32011e-12
-3.66209e-13
1.38513e-12
-3.27365e-13
1.44232e-12
-2.89461e-13
1.48923e-12
-2.47786e-13
1.52857e-12
-2.08165e-13
1.56388e-12
-1.83506e-13
1.59032e-12
-1.51433e-13
1.60931e-12
-1.17817e-13
1.6223e-12
-8.72338e-14
1.63691e-12
-7.86671e-14
1.64175e-12
-5.40191e-14
1.64559e-12
-3.84626e-14
1.64755e-12
-2.72732e-14
1.64801e-12
-2.14679e-14
1.64771e-12
-1.49836e-14
1.64754e-12
-1.31777e-14
1.64784e-12
-1.36332e-14
1.64901e-12
-1.58591e-14
1.65169e-12
-2.01201e-14
1.65587e-12
-2.54174e-14
1.66173e-12
-3.13396e-14
1.66935e-12
-3.75362e-14
1.67869e-12
-4.35774e-14
1.68944e-12
-4.87224e-14
1.70162e-12
-5.35522e-14
1.71461e-12
-5.65612e-14
1.72832e-12
-5.82241e-14
1.74211e-12
-5.81472e-14
1.75563e-12
-5.59941e-14
1.76836e-12
-5.18288e-14
1.77987e-12
-4.55262e-14
1.78962e-12
-3.70553e-14
1.79718e-12
-2.67158e-14
1.80215e-12
-1.403e-14
1.80414e-12
3.23359e-16
1.80228e-12
1.67497e-14
1.79682e-12
3.36403e-14
1.78749e-12
5.20442e-14
1.77393e-12
7.1745e-14
1.75609e-12
9.14493e-14
1.73378e-12
1.12667e-13
1.70704e-12
1.3309e-13
1.67602e-12
1.53347e-13
1.64061e-12
1.73862e-13
1.60127e-12
1.9274e-13
1.55787e-12
2.1203e-13
1.51078e-12
2.29933e-13
1.46011e-12
2.47402e-13
1.40634e-12
2.6283e-13
1.34945e-12
2.77653e-13
1.2899e-12
2.91203e-13
1.22777e-12
3.03883e-13
1.16341e-12
3.15196e-13
1.09701e-12
3.25473e-13
1.02869e-12
3.34896e-13
9.58775e-13
3.42966e-13
8.87536e-13
3.49918e-13
8.15008e-13
3.55874e-13
7.41418e-13
3.60786e-13
6.67061e-13
3.64612e-13
5.9195e-13
3.67416e-13
5.16356e-13
3.69226e-13
4.4041e-13
3.70472e-13
3.63927e-13
3.71975e-13
2.88496e-13
3.73177e-13
2.11321e-13
3.82513e-13
8.96102e-14
5.59272e-13
-7.47582e-18
5.28629e-13
2.99771e-21
3.66941e-21
2.98183e-21
6.5399e-23
2.96022e-21
9.00593e-23
2.93049e-21
1.14099e-22
2.89193e-21
1.37415e-22
2.84473e-21
1.59542e-22
2.78936e-21
1.80584e-22
2.7268e-21
2.00385e-22
2.65768e-21
2.18738e-22
2.58292e-21
2.35746e-22
2.50388e-21
2.51256e-22
2.42116e-21
2.65577e-22
2.33627e-21
2.78708e-22
2.24983e-21
2.90754e-22
2.16272e-21
3.01869e-22
2.0756e-21
3.12157e-22
1.9888e-21
3.21825e-22
1.90298e-21
3.31079e-22
1.81814e-21
3.39816e-22
1.73418e-21
3.48398e-22
1.65147e-21
3.5667e-22
1.56968e-21
3.64942e-22
1.48877e-21
3.73162e-22
1.40848e-21
3.81434e-22
1.32876e-21
3.89602e-22
1.24909e-21
3.97615e-22
1.16953e-21
4.05577e-22
1.08971e-21
4.13228e-22
1.00957e-21
4.20776e-22
9.29079e-22
4.28014e-22
8.47809e-22
4.34787e-22
7.66124e-22
4.41198e-22
6.83665e-22
4.46936e-22
6.00481e-22
4.52158e-22
5.16885e-22
4.56655e-22
4.32305e-22
4.60429e-22
3.47364e-22
4.6348e-22
2.61803e-22
4.65858e-22
1.75983e-22
4.67512e-22
9.00593e-23
4.68288e-22
4.68339e-22
1.37183e-13
-7.7164e-13
2.73355e-13
-7.6583e-13
4.07417e-13
-7.54187e-13
5.38255e-13
-7.36892e-13
6.64796e-13
-7.13968e-13
7.86021e-13
-6.85961e-13
9.0109e-13
-6.53309e-13
1.00899e-12
-6.16314e-13
1.10926e-12
-5.7589e-13
1.2014e-12
-5.32648e-13
1.2847e-12
-4.87146e-13
1.35842e-12
-4.39929e-13
1.424e-12
-3.92951e-13
1.47942e-12
-3.44887e-13
1.5234e-12
-2.91779e-13
1.56418e-12
-2.48957e-13
1.59599e-12
-2.15329e-13
1.61859e-12
-1.74041e-13
1.6332e-12
-1.32445e-13
1.64634e-12
-1.00387e-13
1.65483e-12
-8.71699e-14
1.65673e-12
-5.59361e-14
1.65679e-12
-3.85412e-14
1.656e-12
-2.65068e-14
1.65278e-12
-1.8269e-14
1.64985e-12
-1.20745e-14
1.64711e-12
-1.04628e-14
1.64532e-12
-1.18646e-14
1.64493e-12
-1.54897e-14
1.64645e-12
-2.16638e-14
1.64993e-12
-2.89185e-14
1.65554e-12
-3.69826e-14
1.66336e-12
-4.53789e-14
1.67327e-12
-5.35127e-14
1.68506e-12
-6.05268e-14
1.69842e-12
-6.69394e-14
1.71299e-12
-7.11548e-14
1.7285e-12
-7.37518e-14
1.74426e-12
-7.39292e-14
1.75979e-12
-7.15456e-14
1.7747e-12
-6.67561e-14
1.78835e-12
-5.91952e-14
1.8002e-12
-4.89178e-14
1.80971e-12
-3.62395e-14
1.81649e-12
-2.08213e-14
1.81997e-12
-3.16338e-15
1.81997e-12
1.67419e-14
1.81524e-12
3.83591e-14
1.80687e-12
6.04055e-14
1.79408e-12
8.45392e-14
1.77643e-12
1.091e-13
1.75448e-12
1.34614e-13
1.72746e-12
1.60106e-13
1.69608e-12
1.84738e-13
1.66014e-12
2.09807e-13
1.62011e-12
2.32775e-13
1.57589e-12
2.56261e-13
1.52778e-12
2.78043e-13
1.47611e-12
2.99091e-13
1.42111e-12
3.17843e-13
1.36313e-12
3.35644e-13
1.30248e-12
3.51868e-13
1.23928e-12
3.67096e-13
1.17373e-12
3.80758e-13
1.1062e-12
3.93022e-13
1.0368e-12
4.04321e-13
9.65883e-13
4.13898e-13
8.93514e-13
4.22306e-13
8.199e-13
4.29512e-13
7.45275e-13
4.35433e-13
6.69831e-13
4.40078e-13
5.93846e-13
4.43424e-13
5.17693e-13
4.45402e-13
4.41845e-13
4.46346e-13
3.66732e-13
4.47113e-13
2.96133e-13
4.438e-13
2.19606e-13
4.59065e-13
7.69675e-14
7.01937e-13
-7.69715e-18
6.05626e-13
3.01922e-21
4.37251e-21
3.00649e-21
7.97712e-23
2.98431e-21
1.09395e-22
2.95386e-21
1.38501e-22
2.91405e-21
1.66729e-22
2.86572e-21
1.93612e-22
2.80916e-21
2.19151e-22
2.7451e-21
2.42984e-22
2.67464e-21
2.6506e-22
2.59848e-21
2.85532e-22
2.5182e-21
3.04351e-22
2.43429e-21
3.2136e-22
2.34831e-21
3.37128e-22
2.26089e-21
3.51397e-22
2.17295e-21
3.64476e-22
2.08532e-21
3.76729e-22
1.99805e-21
3.87999e-22
1.91172e-21
3.98753e-22
1.82673e-21
4.08989e-22
1.74251e-21
4.19019e-22
1.65969e-21
4.28841e-22
1.57795e-21
4.38561e-22
1.49704e-21
4.48229e-22
1.41665e-21
4.57741e-22
1.33678e-21
4.67357e-22
1.257e-21
4.7687e-22
1.17723e-21
4.86279e-22
1.09726e-21
4.95481e-22
1.01681e-21
5.04322e-22
9.35903e-22
5.128e-22
8.54167e-22
5.20865e-22
7.71915e-22
5.2831e-22
6.88835e-22
5.35083e-22
6.05031e-22
5.41131e-22
5.20607e-22
5.46405e-22
4.35356e-22
5.50799e-22
3.49742e-22
5.54314e-22
2.63457e-22
5.57003e-22
1.76758e-22
5.58709e-22
9.0111e-23
5.59795e-22
5.59743e-22
1.43092e-13
-9.14729e-13
2.85144e-13
-9.07879e-13
4.24937e-13
-8.93976e-13
5.61161e-13
-8.73113e-13
6.92817e-13
-8.4562e-13
8.18743e-13
-8.11884e-13
9.38001e-13
-7.72566e-13
1.04964e-12
-7.27949e-13
1.15299e-12
-6.79244e-13
1.24733e-12
-6.26989e-13
1.33159e-12
-5.71413e-13
1.40624e-12
-5.14574e-13
1.47217e-12
-4.58885e-13
1.52417e-12
-3.96895e-13
1.56633e-12
-3.33948e-13
1.60769e-12
-2.90327e-13
1.63507e-12
-2.4272e-13
1.65315e-12
-1.92136e-13
1.66146e-12
-1.40767e-13
1.67747e-12
-1.1641e-13
1.67544e-12
-8.5159e-14
1.67476e-12
-5.52693e-14
1.66991e-12
-3.37088e-14
1.66549e-12
-2.21064e-14
1.65794e-12
-1.07405e-14
1.65148e-12
-5.64142e-15
1.64571e-12
-4.70897e-15
1.64138e-12
-7.56095e-15
1.63908e-12
-1.3216e-14
1.6391e-12
-2.16998e-14
1.64177e-12
-3.16166e-14
1.64715e-12
-4.2381e-14
1.65525e-12
-5.35053e-14
1.66594e-12
-6.42276e-14
1.6789e-12
-7.3512e-14
1.69397e-12
-8.20254e-14
1.71052e-12
-8.77337e-14
1.72823e-12
-9.14781e-14
1.74648e-12
-9.22015e-14
1.76477e-12
-8.98462e-14
1.78229e-12
-8.43019e-14
1.7986e-12
-7.55216e-14
1.81306e-12
-6.33842e-14
1.82494e-12
-4.81279e-14
1.83406e-12
-2.99587e-14
1.83934e-12
-8.44801e-15
1.84154e-12
1.45349e-14
1.83837e-12
4.15172e-14
1.83081e-12
6.79618e-14
1.81883e-12
9.65092e-14
1.80158e-12
1.26357e-13
1.77989e-12
1.56298e-13
1.75252e-12
1.87478e-13
1.72063e-12
2.16626e-13
1.68398e-12
2.46468e-13
1.64294e-12
2.73817e-13
1.59772e-12
3.01496e-13
1.54833e-12
3.27435e-13
1.49539e-12
3.52042e-13
1.4389e-12
3.74349e-13
1.37966e-12
3.94893e-13
1.31751e-12
4.14033e-13
1.25288e-12
4.31748e-13
1.18611e-12
4.47543e-13
1.11722e-12
4.61933e-13
1.0465e-12
4.75047e-13
9.74356e-13
4.86066e-13
9.00776e-13
4.95907e-13
8.25875e-13
5.04435e-13
7.4989e-13
5.11443e-13
6.73121e-13
5.1687e-13
5.95804e-13
5.20765e-13
5.18526e-13
5.22705e-13
4.42414e-13
5.2248e-13
3.69572e-13
5.19982e-13
2.97416e-13
5.15981e-13
1.64942e-13
5.91565e-13
6.49526e-14
8.0195e-13
-7.74031e-18
6.70606e-13
3.04982e-21
4.99125e-21
3.03612e-21
9.37816e-23
3.01342e-21
1.29247e-22
2.98204e-21
1.63885e-22
2.94094e-21
1.97386e-22
2.8912e-21
2.29439e-22
2.83304e-21
2.59631e-22
2.76728e-21
2.87704e-22
2.69506e-21
3.13708e-22
2.6173e-21
3.37541e-22
2.53526e-21
3.5941e-22
2.45006e-21
3.79314e-22
2.36253e-21
3.97409e-22
2.27402e-21
4.13849e-22
2.18526e-21
4.2879e-22
2.09664e-21
4.42542e-22
2.00881e-21
4.55415e-22
1.92201e-21
4.6746e-22
1.83675e-21
4.79041e-22
1.75233e-21
4.90208e-22
1.66941e-21
5.01323e-22
1.58757e-21
5.12283e-22
1.50661e-21
5.23192e-22
1.42627e-21
5.341e-22
1.34629e-21
5.4506e-22
1.26636e-21
5.55865e-22
1.18644e-21
5.66619e-22
1.1061e-21
5.77114e-22
1.02529e-21
5.8735e-22
9.43865e-22
5.97018e-22
8.61664e-22
6.06117e-22
7.78687e-22
6.14647e-22
6.94883e-22
6.2235e-22
6.10253e-22
6.29278e-22
5.25001e-22
6.35223e-22
4.38871e-22
6.40031e-22
3.52379e-22
6.44012e-22
2.65215e-22
6.46907e-22
1.77844e-22
6.48872e-22
9.00593e-23
6.49906e-22
6.49854e-22
1.50203e-13
-1.06493e-12
2.99263e-13
-1.05694e-12
4.45836e-13
-1.04054e-12
5.8864e-13
-1.01591e-12
7.26534e-13
-9.83513e-13
8.58249e-13
-9.43599e-13
9.82606e-13
-8.96919e-13
1.09881e-12
-8.44156e-13
1.2059e-12
-7.86333e-13
1.30246e-12
-7.23546e-13
1.38827e-12
-6.57229e-13
1.46518e-12
-5.91487e-13
1.52877e-12
-5.22482e-13
1.5766e-12
-4.44725e-13
1.62215e-12
-3.79512e-13
1.65805e-12
-3.26237e-13
1.68114e-12
-2.65816e-13
1.69305e-12
-2.04062e-13
1.69982e-12
-1.47542e-13
1.70961e-12
-1.26218e-13
1.70094e-12
-7.6502e-14
1.69515e-12
-4.9493e-14
1.68556e-12
-2.41437e-14
1.67507e-12
-1.16315e-14
1.66323e-12
1.08132e-15
1.65234e-12
5.2278e-15
1.64296e-12
4.65567e-15
1.63542e-12
-4.79472e-17
1.6307e-12
-8.51946e-15
1.62907e-12
-2.00965e-14
1.63085e-12
-3.34126e-14
1.63601e-12
-4.75688e-14
1.64453e-12
-6.20439e-14
1.65627e-12
-7.59821e-14
1.67087e-12
-8.81328e-14
1.68782e-12
-9.89979e-14
1.70706e-12
-1.07001e-13
1.72756e-12
-1.11992e-13
1.74886e-12
-1.1352e-13
1.7703e-12
-1.11308e-13
1.79112e-12
-1.05132e-13
1.81067e-12
-9.50843e-14
1.82827e-12
-8.10052e-14
1.84327e-12
-6.31375e-14
1.85501e-12
-4.17107e-14
1.86293e-12
-1.63797e-14
1.86672e-12
1.07379e-14
1.86641e-12
4.18258e-14
1.85942e-12
7.49422e-14
1.84838e-12
1.07552e-13
1.83168e-12
1.4305e-13
1.81011e-12
1.7787e-13
1.78255e-12
2.15041e-13
1.74986e-12
2.49314e-13
1.71244e-12
2.839e-13
1.66995e-12
3.16311e-13
1.62342e-12
3.4803e-13
1.57244e-12
3.78426e-13
1.51813e-12
4.06359e-13
1.45978e-12
4.32714e-13
1.39883e-12
4.55854e-13
1.33516e-12
4.7772e-13
1.26888e-12
4.98038e-13
1.20041e-12
5.1603e-13
1.12992e-12
5.32441e-13
1.05787e-12
5.47115e-13
9.84231e-13
5.59729e-13
9.09141e-13
5.71018e-13
8.3285e-13
5.80747e-13
7.55354e-13
5.88959e-13
6.76923e-13
5.95324e-13
5.97798e-13
5.99913e-13
5.18217e-13
6.02309e-13
4.39233e-13
6.01488e-13
3.63856e-13
5.95382e-13
3.01842e-13
5.7802e-13
1.37166e-13
7.56265e-13
6.99825e-14
8.69162e-13
-7.81115e-18
7.40618e-13
3.08539e-21
5.53719e-21
3.07158e-21
1.08309e-22
3.04811e-21
1.49926e-22
3.01549e-21
1.90613e-22
2.97299e-21
2.29905e-22
2.9214e-21
2.67386e-22
2.86111e-21
3.02438e-22
2.79329e-21
3.34956e-22
2.71884e-21
3.64993e-22
2.63917e-21
3.92446e-22
2.55516e-21
4.17209e-22
2.46815e-21
4.3975e-22
2.37897e-21
4.59912e-22
2.28902e-21
4.78317e-22
2.19901e-21
4.94809e-22
2.10947e-21
5.1006e-22
2.02085e-21
5.24122e-22
1.93353e-21
5.37357e-22
1.84792e-21
5.50023e-22
1.76345e-21
5.62173e-22
1.68042e-21
5.74218e-22
1.59847e-21
5.86161e-22
1.51746e-21
5.98207e-22
1.43723e-21
6.10408e-22
1.35715e-21
6.22298e-22
1.27706e-21
6.34344e-22
1.19703e-21
6.46287e-22
1.11633e-21
6.58022e-22
1.03496e-21
6.69396e-22
9.53067e-22
6.80356e-22
8.70091e-22
6.90489e-22
7.86442e-22
7.00002e-22
7.01811e-22
7.08584e-22
6.16198e-22
7.16132e-22
5.29861e-22
7.22697e-22
4.42852e-22
7.28126e-22
3.55222e-22
7.32417e-22
2.67179e-22
7.3557e-22
1.78878e-22
7.3769e-22
9.00076e-23
7.38569e-22
7.38414e-22
1.58497e-13
-1.22342e-12
3.15739e-13
-1.21417e-12
4.704e-13
-1.1952e-12
6.21076e-13
-1.16659e-12
7.66363e-13
-1.1288e-12
9.05022e-13
-1.08225e-12
1.03563e-12
-1.02752e-12
1.15724e-12
-9.65769e-13
1.26846e-12
-8.97558e-13
1.36777e-12
-8.22856e-13
1.45691e-12
-7.46366e-13
1.535e-12
-6.69587e-13
1.59335e-12
-5.80832e-13
1.64164e-12
-4.93025e-13
1.68898e-12
-4.26854e-13
1.7171e-12
-3.54369e-13
1.73393e-12
-2.82655e-13
1.7403e-12
-2.10441e-13
1.75054e-12
-1.57786e-13
1.74142e-12
-1.17118e-13
1.73237e-12
-6.74655e-14
1.71766e-12
-3.47916e-14
1.7031e-12
-9.60662e-15
1.68471e-12
6.74258e-15
1.66784e-12
1.79397e-14
1.65178e-12
2.12619e-14
1.63788e-12
1.85403e-14
1.62677e-12
1.10424e-14
1.61938e-12
-1.15396e-15
1.61576e-12
-1.64988e-14
1.61659e-12
-3.42599e-14
1.62152e-12
-5.25252e-14
1.63061e-12
-7.11515e-14
1.6437e-12
-8.90941e-14
1.66024e-12
-1.04692e-13
1.67986e-12
-1.18641e-13
1.70216e-12
-1.29314e-13
1.72605e-12
-1.35901e-13
1.75107e-12
-1.38563e-13
1.7764e-12
-1.36655e-13
1.80125e-12
-1.29999e-13
1.82472e-12
-1.18563e-13
1.84607e-12
-1.02377e-13
1.86471e-12
-8.1788e-14
1.87983e-12
-5.6842e-14
1.8909e-12
-2.74605e-14
1.89685e-12
4.77775e-15
1.89891e-12
3.97627e-14
1.89396e-12
7.98872e-14
1.88329e-12
1.18219e-13
1.86745e-12
1.5889e-13
1.84535e-12
1.99963e-13
1.81779e-12
2.42599e-13
1.7841e-12
2.83003e-13
1.74552e-12
3.22489e-13
1.70138e-12
3.60461e-13
1.65327e-12
3.96145e-13
1.60044e-12
4.31268e-13
1.54425e-12
4.62552e-13
1.48378e-12
4.93197e-13
1.42084e-12
5.18816e-13
1.35512e-12
5.43448e-13
1.287e-12
5.66171e-13
1.21669e-12
5.86352e-13
1.14443e-12
6.04721e-13
1.07081e-12
6.2076e-13
9.95501e-13
6.35057e-13
9.18855e-13
6.47686e-13
8.40851e-13
6.58773e-13
7.61795e-13
6.68035e-13
6.81562e-13
6.7558e-13
6.0022e-13
6.81279e-13
5.17737e-13
6.84814e-13
4.33678e-13
6.85571e-13
3.47599e-13
6.81487e-13
2.52956e-13
6.72688e-13
1.32583e-13
8.76664e-13
7.24837e-14
9.29289e-13
-7.57987e-18
8.13131e-13
3.12841e-21
5.97394e-21
3.11325e-21
1.23095e-22
3.08874e-21
1.71485e-22
3.05478e-21
2.18996e-22
3.01047e-21
2.64594e-22
2.95645e-21
3.07815e-22
2.89368e-21
3.48191e-22
2.82327e-21
3.85415e-22
2.74634e-21
4.19587e-22
2.66394e-21
4.50555e-22
2.57765e-21
4.78369e-22
2.48837e-21
5.03184e-22
2.39732e-21
5.25363e-22
2.30556e-21
5.45215e-22
2.21421e-21
5.63155e-22
2.12353e-21
5.79388e-22
2.03409e-21
5.94278e-22
1.9462e-21
6.0834e-22
1.86007e-21
6.21678e-22
1.77544e-21
6.34551e-22
1.69241e-21
6.47321e-22
1.61057e-21
6.60038e-22
1.52961e-21
6.72911e-22
1.44912e-21
6.85733e-22
1.36914e-21
6.98916e-22
1.28901e-21
7.12047e-22
1.20872e-21
7.25282e-22
1.12776e-21
7.38104e-22
1.04587e-21
7.50666e-22
9.632e-22
7.62609e-22
8.79603e-22
7.73879e-22
7.94972e-22
7.84219e-22
7.09411e-22
7.93525e-22
6.22764e-22
8.01745e-22
5.35238e-22
8.08828e-22
4.47143e-22
8.14721e-22
3.58428e-22
8.19322e-22
2.69299e-22
8.22631e-22
1.79757e-22
8.24854e-22
8.98525e-23
8.25837e-22
8.25681e-22
1.68087e-13
-1.39151e-12
3.34988e-13
-1.38107e-12
4.99101e-13
-1.35931e-12
6.58898e-13
-1.32638e-12
8.1301e-13
-1.28291e-12
9.59712e-13
-1.22896e-12
1.09769e-12
-1.1655e-12
1.22653e-12
-1.09461e-12
1.34147e-12
-1.0125e-12
1.44538e-12
-9.2677e-13
1.5402e-12
-8.41185e-13
1.61173e-12
-7.41119e-13
1.66907e-12
-6.38175e-13
1.72582e-12
-5.49778e-13
1.76266e-12
-4.63707e-13
1.78671e-12
-3.78423e-13
1.79286e-12
-2.88815e-13
1.80251e-12
-2.20106e-13
1.80026e-12
-1.5554e-13
1.78246e-12
-9.93377e-14
1.76559e-12
-5.06026e-14
1.744e-12
-1.32157e-14
1.72046e-12
1.39208e-14
1.69496e-12
3.22232e-14
1.67112e-12
4.17623e-14
1.64904e-12
4.33269e-14
1.62982e-12
3.77422e-14
1.61467e-12
2.61709e-14
1.60401e-12
9.4881e-15
1.59833e-12
-1.0829e-14
1.59793e-12
-3.38787e-14
1.60295e-12
-5.75676e-14
1.61279e-12
-8.10176e-14
1.62752e-12
-1.03842e-13
1.64653e-12
-1.2372e-13
1.66954e-12
-1.41665e-13
1.69544e-12
-1.55234e-13
1.72366e-12
-1.64139e-13
1.75305e-12
-1.6797e-13
1.78304e-12
-1.66658e-13
1.81256e-12
-1.5953e-13
1.84086e-12
-1.46881e-13
1.8668e-12
-1.28327e-13
1.88966e-12
-1.04661e-13
1.90872e-12
-7.59144e-14
1.92348e-12
-4.22226e-14
1.93252e-12
-4.27366e-15
1.93608e-12
3.61937e-14
1.93461e-12
8.13533e-14
1.92415e-12
1.28677e-13
1.90896e-12
1.74077e-13
1.88636e-12
2.22568e-13
1.859e-12
2.69957e-13
1.82391e-12
3.18095e-13
1.78358e-12
3.62828e-13
1.73749e-12
4.06553e-13
1.68736e-12
4.46286e-13
1.63226e-12
4.8637e-13
1.57362e-12
5.21205e-13
1.51099e-12
5.55844e-13
1.44531e-12
5.84504e-13
1.37754e-12
6.11236e-13
1.30717e-12
6.3655e-13
1.23492e-12
6.58625e-13
1.16073e-12
6.78926e-13
1.08518e-12
6.9633e-13
1.00814e-12
7.12116e-13
9.29761e-13
7.26083e-13
8.5011e-13
7.38443e-13
7.69288e-13
7.4888e-13
6.87179e-13
7.57712e-13
6.0369e-13
7.64793e-13
5.18179e-13
7.70349e-13
4.29222e-13
7.74552e-13
3.3321e-13
7.77525e-13
2.14107e-13
7.91815e-13
1.33265e-13
9.57531e-13
7.04275e-14
9.92151e-13
-7.74195e-18
8.83587e-13
3.17638e-21
6.2618e-21
3.16159e-21
1.38139e-22
3.13631e-21
1.94439e-22
3.10038e-21
2.49395e-22
3.05369e-21
3.01921e-22
2.99682e-21
3.51397e-22
2.93086e-21
3.97512e-22
2.8575e-21
4.39853e-22
2.77726e-21
4.78007e-22
2.69175e-21
5.12438e-22
2.60247e-21
5.43096e-22
2.5106e-21
5.70134e-22
2.41718e-21
5.94071e-22
2.3235e-21
6.15164e-22
2.23039e-21
6.33931e-22
2.13842e-21
6.50733e-22
2.04815e-21
6.66139e-22
1.95954e-21
6.80356e-22
1.87289e-21
6.94056e-22
1.78826e-21
7.07291e-22
1.70518e-21
7.20474e-22
1.62334e-21
7.33658e-22
1.54249e-21
7.47048e-22
1.46235e-21
7.60799e-22
1.38227e-21
7.74706e-22
1.30224e-21
7.8882e-22
1.22149e-21
8.02882e-22
1.14027e-21
8.16893e-22
1.05786e-21
8.30438e-22
9.74471e-22
8.43569e-22
8.89891e-22
8.55718e-22
8.0433e-22
8.66989e-22
7.17579e-22
8.77173e-22
6.29846e-22
8.86066e-22
5.41183e-22
8.93562e-22
4.51744e-22
8.99818e-22
3.61788e-22
9.04729e-22
2.7147e-22
9.08244e-22
1.80739e-22
9.10364e-22
8.97491e-23
9.11398e-22
9.11191e-22
1.79177e-13
-1.57068e-12
3.56907e-13
-1.5588e-12
5.31888e-13
-1.53429e-12
7.02107e-13
-1.4966e-12
8.66806e-13
-1.44761e-12
1.02432e-12
-1.38648e-12
1.17034e-12
-1.31152e-12
1.3049e-12
-1.22917e-12
1.42714e-12
-1.13474e-12
1.5407e-12
-1.04034e-12
1.62988e-12
-9.30367e-13
1.70063e-12
-8.11874e-13
1.76783e-12
-7.05381e-13
1.81726e-12
-5.99215e-13
1.8499e-12
-4.96347e-13
1.86217e-12
-3.90709e-13
1.8713e-12
-2.97944e-13
1.87026e-12
-2.19079e-13