/*--------------------------------*- C++ -*----------------------------------*\
  =========                 |
  \\      /  F ield         | OpenFOAM: The Open Source CFD Toolbox
   \\    /   O peration     | Website:  https://openfoam.org
    \\  /    A nd           | Version:  6
     \\/     M anipulation  |
\*---------------------------------------------------------------------------*/
FoamFile
{
    version     2.0;
    format      ascii;
    class       volVectorField;
    location    "6200";
    object      U;
}
// * * * * * * * * * * * * * * * * * * * * * * * * * * * * * * * * * * * * * //

dimensions      [0 1 -1 0 0 0 0];

internalField   nonuniform List<vector> 
4800
(
(2.55928e-08 0 -2.40243e-08)
(7.35286e-08 0 -2.69539e-08)
(1.2225e-07 0 -2.77082e-08)
(1.69897e-07 0 -2.73689e-08)
(2.16265e-07 0 -2.65189e-08)
(2.61086e-07 0 -2.53667e-08)
(3.04074e-07 0 -2.398e-08)
(3.44954e-07 0 -2.24351e-08)
(3.83495e-07 0 -2.07789e-08)
(4.19506e-07 0 -1.90656e-08)
(4.5283e-07 0 -1.73001e-08)
(4.8336e-07 0 -1.55652e-08)
(5.11045e-07 0 -1.38792e-08)
(5.35845e-07 0 -1.22063e-08)
(5.5773e-07 0 -1.05816e-08)
(5.76708e-07 0 -9.00661e-09)
(5.92952e-07 0 -7.59284e-09)
(6.07023e-07 0 -6.60307e-09)
(6.1886e-07 0 -5.37775e-09)
(6.28245e-07 0 -4.16158e-09)
(6.35768e-07 0 -3.15444e-09)
(6.42068e-07 0 -2.98202e-09)
(6.47036e-07 0 -1.95496e-09)
(6.50676e-07 0 -1.49089e-09)
(6.53544e-07 0 -1.19587e-09)
(6.55893e-07 0 -9.17608e-10)
(6.57818e-07 0 -7.53819e-10)
(6.59548e-07 0 -7.00615e-10)
(6.61274e-07 0 -7.0567e-10)
(6.63124e-07 0 -8.00234e-10)
(6.65224e-07 0 -9.34649e-10)
(6.67626e-07 0 -1.09252e-09)
(6.70392e-07 0 -1.27465e-09)
(6.73509e-07 0 -1.44108e-09)
(6.76972e-07 0 -1.61253e-09)
(6.80733e-07 0 -1.73222e-09)
(6.84708e-07 0 -1.83124e-09)
(6.88793e-07 0 -1.84888e-09)
(6.9288e-07 0 -1.82956e-09)
(6.96831e-07 0 -1.72873e-09)
(7.00513e-07 0 -1.57385e-09)
(7.03766e-07 0 -1.30938e-09)
(7.06421e-07 0 -9.9338e-10)
(7.08361e-07 0 -6.1097e-10)
(7.09419e-07 0 -9.55325e-11)
(7.09396e-07 0 4.22214e-10)
(7.08267e-07 0 1.00203e-09)
(7.05884e-07 0 1.64054e-09)
(7.02129e-07 0 2.35593e-09)
(6.96915e-07 0 3.07105e-09)
(6.90232e-07 0 3.8165e-09)
(6.81977e-07 0 4.60459e-09)
(6.72158e-07 0 5.35598e-09)
(6.60779e-07 0 6.13567e-09)
(6.47807e-07 0 6.89702e-09)
(6.33335e-07 0 7.6078e-09)
(6.17383e-07 0 8.33719e-09)
(5.99989e-07 0 8.99563e-09)
(5.81219e-07 0 9.67595e-09)
(5.61138e-07 0 1.0249e-08)
(5.39864e-07 0 1.07914e-08)
(5.17472e-07 0 1.13019e-08)
(4.9403e-07 0 1.17713e-08)
(4.69626e-07 0 1.21827e-08)
(4.44352e-07 0 1.25537e-08)
(4.18306e-07 0 1.2865e-08)
(3.9157e-07 0 1.31467e-08)
(3.64223e-07 0 1.33796e-08)
(3.36352e-07 0 1.35686e-08)
(3.08078e-07 0 1.36912e-08)
(2.79519e-07 0 1.3772e-08)
(2.50804e-07 0 1.37892e-08)
(2.22154e-07 0 1.3699e-08)
(1.94006e-07 0 1.33455e-08)
(1.67592e-07 0 1.22843e-08)
(1.4551e-07 0 1.00327e-08)
(1.32501e-07 0 -3.81848e-09)
(9.28827e-08 0 1.92161e-08)
(-4.29032e-11 0 3.43836e-08)
(6.79203e-16 0 1.84575e-16)
(6.05085e-16 0 3.25702e-18)
(1.16825e-15 0 4.12556e-18)
(1.1586e-15 0 5.26294e-18)
(1.14577e-15 0 6.43133e-18)
(1.1296e-15 0 7.53768e-18)
(1.11018e-15 0 8.55098e-18)
(1.08775e-15 0 9.47122e-18)
(1.06261e-15 0 1.03191e-17)
(1.03506e-15 0 1.10635e-17)
(1.00544e-15 0 1.16839e-17)
(9.74181e-16 0 1.22319e-17)
(9.41683e-16 0 1.26662e-17)
(9.08234e-16 0 1.30384e-17)
(8.74247e-16 0 1.3359e-17)
(8.40002e-16 0 1.36278e-17)
(8.05695e-16 0 1.38449e-17)
(7.71511e-16 0 1.40414e-17)
(7.37628e-16 0 1.42792e-17)
(7.04045e-16 0 1.4455e-17)
(6.70781e-16 0 1.46308e-17)
(6.37901e-16 0 1.48272e-17)
(6.05372e-16 0 1.50237e-17)
(5.73143e-16 0 1.52201e-17)
(5.41131e-16 0 1.54476e-17)
(5.09285e-16 0 1.56854e-17)
(4.77531e-16 0 1.59336e-17)
(4.45788e-16 0 1.61714e-17)
(4.14004e-16 0 1.64195e-17)
(3.82116e-16 0 1.6647e-17)
(3.50084e-16 0 1.69055e-17)
(3.17875e-16 0 1.71123e-17)
(2.8547e-16 0 1.73398e-17)
(2.52859e-16 0 1.75466e-17)
(2.19999e-16 0 1.7712e-17)
(1.86891e-16 0 1.78878e-17)
(1.53545e-16 0 1.80325e-17)
(1.19983e-16 0 1.81566e-17)
(8.62129e-17 0 1.8291e-17)
(5.21537e-17 0 1.84358e-17)
(1.75156e-17 0 1.8839e-17)
(2.57952e-08 0 -7.39341e-08)
(7.44592e-08 0 -7.0877e-08)
(1.23019e-07 0 -6.90463e-08)
(1.70805e-07 0 -6.7353e-08)
(2.17379e-07 0 -6.54175e-08)
(2.62445e-07 0 -6.31329e-08)
(3.05673e-07 0 -6.04723e-08)
(3.46795e-07 0 -5.74593e-08)
(3.85563e-07 0 -5.41172e-08)
(4.21754e-07 0 -5.05062e-08)
(4.55227e-07 0 -4.66834e-08)
(4.8589e-07 0 -4.27142e-08)
(5.13659e-07 0 -3.86816e-08)
(5.38479e-07 0 -3.44228e-08)
(5.60297e-07 0 -3.01611e-08)
(5.79161e-07 0 -2.5814e-08)
(5.9533e-07 0 -2.19619e-08)
(6.09276e-07 0 -1.92587e-08)
(6.2087e-07 0 -1.57114e-08)
(6.30012e-07 0 -1.21526e-08)
(6.37344e-07 0 -9.32793e-09)
(6.43385e-07 0 -8.83332e-09)
(6.48072e-07 0 -5.89981e-09)
(6.51465e-07 0 -4.55033e-09)
(6.54123e-07 0 -3.79982e-09)
(6.56272e-07 0 -3.02148e-09)
(6.58001e-07 0 -2.58595e-09)
(6.59562e-07 0 -2.51352e-09)
(6.61156e-07 0 -2.59214e-09)
(6.62902e-07 0 -2.93718e-09)
(6.64925e-07 0 -3.38593e-09)
(6.67286e-07 0 -3.90365e-09)
(6.70043e-07 0 -4.48462e-09)
(6.73183e-07 0 -5.01757e-09)
(6.76689e-07 0 -5.5267e-09)
(6.8052e-07 0 -5.93926e-09)
(6.8459e-07 0 -6.21176e-09)
(6.88787e-07 0 -6.28382e-09)
(6.93012e-07 0 -6.21687e-09)
(6.97108e-07 0 -5.90628e-09)
(7.00927e-07 0 -5.39416e-09)
(7.04333e-07 0 -4.62098e-09)
(7.07155e-07 0 -3.62769e-09)
(7.09241e-07 0 -2.43681e-09)
(7.10445e-07 0 -8.84493e-10)
(7.10557e-07 0 7.45531e-10)
(7.09545e-07 0 2.50843e-09)
(7.0726e-07 0 4.49526e-09)
(7.03591e-07 0 6.65185e-09)
(6.98453e-07 0 8.87758e-09)
(6.91814e-07 0 1.11599e-08)
(6.8358e-07 0 1.35951e-08)
(6.7375e-07 0 1.5925e-08)
(6.62356e-07 0 1.83067e-08)
(6.49373e-07 0 2.06704e-08)
(6.34864e-07 0 2.28971e-08)
(6.18851e-07 0 2.51608e-08)
(6.01382e-07 0 2.72659e-08)
(5.82527e-07 0 2.9389e-08)
(5.6238e-07 0 3.12219e-08)
(5.41029e-07 0 3.29876e-08)
(5.18557e-07 0 3.46403e-08)
(4.95043e-07 0 3.61954e-08)
(4.7056e-07 0 3.76012e-08)
(4.45202e-07 0 3.88803e-08)
(4.1907e-07 0 4.00084e-08)
(3.92228e-07 0 4.10557e-08)
(3.64777e-07 0 4.19429e-08)
(3.36823e-07 0 4.26857e-08)
(3.08457e-07 0 4.32531e-08)
(2.79749e-07 0 4.36923e-08)
(2.508e-07 0 4.39057e-08)
(2.21722e-07 0 4.38145e-08)
(1.92565e-07 0 4.3176e-08)
(1.63008e-07 0 4.14901e-08)
(1.32899e-07 0 3.59583e-08)
(8.98713e-08 0 2.02007e-08)
(5.55965e-08 0 8.99556e-08)
(-5.63786e-11 0 8.5332e-08)
(8.13946e-16 0 4.71811e-16)
(6.06213e-16 0 8.31317e-18)
(1.17026e-15 0 1.13634e-17)
(1.16091e-15 0 1.4517e-17)
(1.14804e-15 0 1.75983e-17)
(1.13171e-15 0 2.05141e-17)
(1.11211e-15 0 2.32438e-17)
(1.08952e-15 0 2.57667e-17)
(1.0642e-15 0 2.80828e-17)
(1.03644e-15 0 3.01611e-17)
(1.00661e-15 0 3.20326e-17)
(9.75163e-16 0 3.37386e-17)
(9.42479e-16 0 3.51862e-17)
(9.08916e-16 0 3.6489e-17)
(8.74837e-16 0 3.76677e-17)
(8.40488e-16 0 3.87327e-17)
(8.06119e-16 0 3.96943e-17)
(7.71935e-16 0 4.05939e-17)
(7.38021e-16 0 4.15038e-17)
(7.04386e-16 0 4.23103e-17)
(6.71143e-16 0 4.31478e-17)
(6.38304e-16 0 4.39957e-17)
(6.05775e-16 0 4.48332e-17)
(5.73567e-16 0 4.56604e-17)
(5.41597e-16 0 4.65289e-17)
(5.0975e-16 0 4.73871e-17)
(4.78017e-16 0 4.8266e-17)
(4.46295e-16 0 4.91242e-17)
(4.1448e-16 0 4.99721e-17)
(3.82592e-16 0 5.08096e-17)
(3.50538e-16 0 5.16161e-17)
(3.18309e-16 0 5.23295e-17)
(2.85905e-16 0 5.30326e-17)
(2.53231e-16 0 5.3684e-17)
(2.2032e-16 0 5.42217e-17)
(1.87191e-16 0 5.47283e-17)
(1.53814e-16 0 5.51419e-17)
(1.20241e-16 0 5.54831e-17)
(8.65024e-17 0 5.57933e-17)
(5.27017e-17 0 5.60725e-17)
(1.79085e-17 0 5.65378e-17)
(2.57756e-08 0 -1.24679e-07)
(7.49347e-08 0 -1.23599e-07)
(1.24638e-07 0 -1.21813e-07)
(1.73433e-07 0 -1.19128e-07)
(2.2083e-07 0 -1.1561e-07)
(2.666e-07 0 -1.11271e-07)
(3.10433e-07 0 -1.06172e-07)
(3.52041e-07 0 -1.00442e-07)
(3.91191e-07 0 -9.4142e-08)
(4.27679e-07 0 -8.73996e-08)
(4.61335e-07 0 -8.0337e-08)
(4.92063e-07 0 -7.31289e-08)
(5.19815e-07 0 -6.58521e-08)
(5.44508e-07 0 -5.83093e-08)
(5.66027e-07 0 -5.08307e-08)
(5.84548e-07 0 -4.31409e-08)
(6.00439e-07 0 -3.7066e-08)
(6.14053e-07 0 -3.19949e-08)
(6.25047e-07 0 -2.58583e-08)
(6.33642e-07 0 -1.99477e-08)
(6.40612e-07 0 -1.56328e-08)
(6.46176e-07 0 -1.40498e-08)
(6.50255e-07 0 -9.50691e-09)
(6.53125e-07 0 -7.19897e-09)
(6.5534e-07 0 -6.03638e-09)
(6.57028e-07 0 -4.66246e-09)
(6.58333e-07 0 -3.99483e-09)
(6.59545e-07 0 -3.91022e-09)
(6.6085e-07 0 -4.09889e-09)
(6.62377e-07 0 -4.70367e-09)
(6.64249e-07 0 -5.49056e-09)
(6.66527e-07 0 -6.41751e-09)
(6.69274e-07 0 -7.42771e-09)
(6.72469e-07 0 -8.37531e-09)
(6.76084e-07 0 -9.22812e-09)
(6.80063e-07 0 -9.98307e-09)
(6.84331e-07 0 -1.04558e-08)
(6.88773e-07 0 -1.06125e-08)
(6.93278e-07 0 -1.05348e-08)
(6.97679e-07 0 -1.00302e-08)
(7.01807e-07 0 -9.14753e-09)
(7.05512e-07 0 -7.9003e-09)
(7.0863e-07 0 -6.23966e-09)
(7.11017e-07 0 -4.23426e-09)
(7.12523e-07 0 -1.69163e-09)
(7.12915e-07 0 1.1115e-09)
(7.12096e-07 0 4.06874e-09)
(7.09983e-07 0 7.40362e-09)
(7.06474e-07 0 1.09832e-08)
(7.0146e-07 0 1.47394e-08)
(6.94911e-07 0 1.85442e-08)
(6.8673e-07 0 2.26517e-08)
(6.76908e-07 0 2.65512e-08)
(6.65479e-07 0 3.05153e-08)
(6.52407e-07 0 3.44578e-08)
(6.37803e-07 0 3.81612e-08)
(6.21695e-07 0 4.19035e-08)
(6.04106e-07 0 4.54155e-08)
(5.85109e-07 0 4.88887e-08)
(5.64802e-07 0 5.19062e-08)
(5.43279e-07 0 5.48098e-08)
(5.20618e-07 0 5.75084e-08)
(4.96896e-07 0 6.00362e-08)
(4.72222e-07 0 6.23022e-08)
(4.46691e-07 0 6.43463e-08)
(4.20373e-07 0 6.61726e-08)
(3.93354e-07 0 6.78059e-08)
(3.65742e-07 0 6.91863e-08)
(3.37602e-07 0 7.03338e-08)
(3.09022e-07 0 7.12389e-08)
(2.80075e-07 0 7.19381e-08)
(2.50822e-07 0 7.23275e-08)
(2.21263e-07 0 7.23693e-08)
(1.91268e-07 0 7.19071e-08)
(1.60319e-07 0 7.06705e-08)
(1.27832e-07 0 6.85826e-08)
(8.54405e-08 0 6.6548e-08)
(5.05746e-08 0 1.18151e-07)
(-5.57665e-11 0 1.22372e-07)
(8.41954e-16 0 7.21749e-16)
(6.08657e-16 0 1.26042e-17)
(1.17446e-15 0 1.79188e-17)
(1.16486e-15 0 2.28819e-17)
(1.15179e-15 0 2.75865e-17)
(1.13523e-15 0 3.20636e-17)
(1.11543e-15 0 3.62926e-17)
(1.0926e-15 0 4.02423e-17)
(1.06701e-15 0 4.39233e-17)
(1.03901e-15 0 4.72837e-17)
(1.00901e-15 0 5.04167e-17)
(9.77335e-16 0 5.32704e-17)
(9.44434e-16 0 5.58554e-17)
(9.10716e-16 0 5.82232e-17)
(8.76491e-16 0 6.04359e-17)
(8.42029e-16 0 6.24625e-17)
(8.07566e-16 0 6.4365e-17)
(7.73311e-16 0 6.61641e-17)
(7.39324e-16 0 6.79115e-17)
(7.05689e-16 0 6.95762e-17)
(6.72457e-16 0 7.12306e-17)
(6.39586e-16 0 7.28746e-17)
(6.07047e-16 0 7.4529e-17)
(5.74839e-16 0 7.6142e-17)
(5.42868e-16 0 7.77653e-17)
(5.11022e-16 0 7.9368e-17)
(4.79279e-16 0 8.09603e-17)
(4.47505e-16 0 8.25216e-17)
(4.15669e-16 0 8.40622e-17)
(3.8375e-16 0 8.55408e-17)
(3.51614e-16 0 8.69264e-17)
(3.19292e-16 0 8.82188e-17)
(2.86804e-16 0 8.93976e-17)
(2.54048e-16 0 9.04832e-17)
(2.21033e-16 0 9.14345e-17)
(1.87791e-16 0 9.22513e-17)
(1.54311e-16 0 9.29131e-17)
(1.20634e-16 0 9.34507e-17)
(8.68126e-17 0 9.38436e-17)
(5.29085e-17 0 9.41021e-17)
(1.79705e-17 0 9.41952e-17)
(2.64069e-08 0 -1.75047e-07)
(7.66614e-08 0 -1.73725e-07)
(1.27401e-07 0 -1.71157e-07)
(1.77263e-07 0 -1.67307e-07)
(2.25678e-07 0 -1.62274e-07)
(2.72368e-07 0 -1.5611e-07)
(3.17029e-07 0 -1.4888e-07)
(3.59362e-07 0 -1.40763e-07)
(3.99115e-07 0 -1.3185e-07)
(4.3606e-07 0 -1.22311e-07)
(4.70045e-07 0 -1.12329e-07)
(5.00953e-07 0 -1.02155e-07)
(5.28725e-07 0 -9.1806e-08)
(5.53272e-07 0 -8.11757e-08)
(5.74415e-07 0 -7.04883e-08)
(5.92519e-07 0 -5.95441e-08)
(6.08058e-07 0 -5.15218e-08)
(6.21158e-07 0 -4.40067e-08)
(6.31225e-07 0 -3.51647e-08)
(6.39065e-07 0 -2.67228e-08)
(6.45477e-07 0 -2.15749e-08)
(6.50309e-07 0 -1.82201e-08)
(6.53457e-07 0 -1.24006e-08)
(6.55573e-07 0 -9.17312e-09)
(6.57078e-07 0 -7.70188e-09)
(6.58066e-07 0 -5.68153e-09)
(6.58748e-07 0 -4.93292e-09)
(6.59449e-07 0 -4.88526e-09)
(6.60332e-07 0 -5.29524e-09)
(6.61521e-07 0 -6.22554e-09)
(6.63164e-07 0 -7.47657e-09)
(6.65331e-07 0 -8.9053e-09)
(6.68058e-07 0 -1.04119e-08)
(6.71325e-07 0 -1.18662e-08)
(6.75104e-07 0 -1.31324e-08)
(6.79328e-07 0 -1.42811e-08)
(6.83903e-07 0 -1.50225e-08)
(6.88708e-07 0 -1.53073e-08)
(6.93622e-07 0 -1.52456e-08)
(6.98454e-07 0 -1.45688e-08)
(7.03064e-07 0 -1.33666e-08)
(7.07281e-07 0 -1.15964e-08)
(7.10865e-07 0 -9.26329e-09)
(7.13684e-07 0 -6.43271e-09)
(7.15607e-07 0 -2.88127e-09)
(7.16447e-07 0 1.11321e-09)
(7.15984e-07 0 5.37056e-09)
(7.14166e-07 0 1.00563e-08)
(7.10902e-07 0 1.51177e-08)
(7.06066e-07 0 2.04845e-08)
(6.99616e-07 0 2.58321e-08)
(6.91496e-07 0 3.16956e-08)
(6.81677e-07 0 3.72289e-08)
(6.70201e-07 0 4.28069e-08)
(6.57052e-07 0 4.84279e-08)
(6.42324e-07 0 5.36249e-08)
(6.26014e-07 0 5.89295e-08)
(6.08205e-07 0 6.38916e-08)
(5.88989e-07 0 6.87641e-08)
(5.68453e-07 0 7.3037e-08)
(5.46659e-07 0 7.71338e-08)
(5.23732e-07 0 8.09451e-08)
(4.99759e-07 0 8.44794e-08)
(4.74835e-07 0 8.76554e-08)
(4.49042e-07 0 9.05339e-08)
(4.22453e-07 0 9.31403e-08)
(3.95156e-07 0 9.54233e-08)
(3.67261e-07 0 9.73893e-08)
(3.38851e-07 0 9.90242e-08)
(3.09995e-07 0 1.00342e-07)
(2.80745e-07 0 1.01392e-07)
(2.5118e-07 0 1.02055e-07)
(2.21298e-07 0 1.02408e-07)
(1.91012e-07 0 1.02458e-07)
(1.60104e-07 0 1.02339e-07)
(1.29022e-07 0 1.02461e-07)
(9.44879e-08 0 1.05492e-07)
(5.05814e-08 0 1.52766e-07)
(-5.4202e-11 0 1.57099e-07)
(8.53735e-16 0 1.01742e-15)
(6.1208e-16 0 1.78051e-17)
(1.18053e-15 0 2.49602e-17)
(1.17057e-15 0 3.17637e-17)
(1.15724e-15 0 3.82674e-17)
(1.14042e-15 0 4.4461e-17)
(1.1203e-15 0 5.03339e-17)
(1.09714e-15 0 5.5845e-17)
(1.07124e-15 0 6.09839e-17)
(1.04293e-15 0 6.57195e-17)
(1.01257e-15 0 7.00725e-17)
(9.80592e-16 0 7.40844e-17)
(9.47442e-16 0 7.7755e-17)
(9.13507e-16 0 8.11361e-17)
(8.79086e-16 0 8.42587e-17)
(8.44438e-16 0 8.71538e-17)
(8.09831e-16 0 8.98939e-17)
(7.75482e-16 0 9.24685e-17)
(7.41443e-16 0 9.495e-17)
(7.07725e-16 0 9.73695e-17)
(6.74442e-16 0 9.97063e-17)
(6.41582e-16 0 1.02033e-16)
(6.09043e-16 0 1.0437e-16)
(5.76803e-16 0 1.06686e-16)
(5.44823e-16 0 1.08981e-16)
(5.12966e-16 0 1.11276e-16)
(4.81181e-16 0 1.1352e-16)
(4.49376e-16 0 1.15723e-16)
(4.17478e-16 0 1.17884e-16)
(3.85456e-16 0 1.1991e-16)
(3.53227e-16 0 1.21854e-16)
(3.20801e-16 0 1.23674e-16)
(2.88169e-16 0 1.25328e-16)
(2.55278e-16 0 1.26807e-16)
(2.22098e-16 0 1.2811e-16)
(1.88659e-16 0 1.29237e-16)
(1.55024e-16 0 1.30147e-16)
(1.21182e-16 0 1.3087e-16)
(8.71538e-17 0 1.31346e-16)
(5.30533e-17 0 1.31615e-16)
(1.80015e-17 0 1.31656e-16)
(2.72824e-08 0 -2.26944e-07)
(7.90161e-08 0 -2.25162e-07)
(1.31127e-07 0 -2.21743e-07)
(1.8234e-07 0 -2.16703e-07)
(2.32073e-07 0 -2.10091e-07)
(2.79989e-07 0 -2.02035e-07)
(3.25767e-07 0 -1.92611e-07)
(3.69089e-07 0 -1.82008e-07)
(4.0967e-07 0 -1.70352e-07)
(4.47279e-07 0 -1.57858e-07)
(4.81727e-07 0 -1.44804e-07)
(5.12874e-07 0 -1.31509e-07)
(5.40743e-07 0 -1.1772e-07)
(5.65021e-07 0 -1.03971e-07)
(5.85738e-07 0 -8.95314e-08)
(6.03543e-07 0 -7.49285e-08)
(6.18396e-07 0 -6.63159e-08)
(6.30649e-07 0 -5.52356e-08)
(6.39575e-07 0 -4.30237e-08)
(6.46562e-07 0 -3.19616e-08)
(6.51945e-07 0 -2.88325e-08)
(6.55768e-07 0 -2.03682e-08)
(6.57648e-07 0 -1.45349e-08)
(6.58785e-07 0 -1.03736e-08)
(6.59278e-07 0 -8.48848e-09)
(6.59309e-07 0 -5.94417e-09)
(6.59181e-07 0 -5.233e-09)
(6.59192e-07 0 -5.32069e-09)
(6.59478e-07 0 -6.03756e-09)
(6.60231e-07 0 -7.44973e-09)
(6.61588e-07 0 -9.27067e-09)
(6.63574e-07 0 -1.13062e-08)
(6.66263e-07 0 -1.34376e-08)
(6.69637e-07 0 -1.55129e-08)
(6.7365e-07 0 -1.72891e-08)
(6.78229e-07 0 -1.89413e-08)
(6.83246e-07 0 -1.99879e-08)
(6.88575e-07 0 -2.04992e-08)
(6.94077e-07 0 -2.04601e-08)
(6.99529e-07 0 -1.9659e-08)
(7.04762e-07 0 -1.81459e-08)
(7.09619e-07 0 -1.58664e-08)
(7.13855e-07 0 -1.28426e-08)
(7.17307e-07 0 -9.14181e-09)
(7.19814e-07 0 -4.58861e-09)
(7.21225e-07 0 5.73023e-10)
(7.21241e-07 0 6.38586e-09)
(7.19805e-07 0 1.23803e-08)
(7.16846e-07 0 1.89997e-08)
(7.12268e-07 0 2.60281e-08)
(7.05991e-07 0 3.30507e-08)
(6.97967e-07 0 4.06536e-08)
(6.88162e-07 0 4.79291e-08)
(6.76629e-07 0 5.5167e-08)
(6.63333e-07 0 6.25053e-08)
(6.48406e-07 0 6.92761e-08)
(6.31853e-07 0 7.61667e-08)
(6.13765e-07 0 8.25926e-08)
(5.9422e-07 0 8.88567e-08)
(5.73356e-07 0 9.44203e-08)
(5.51221e-07 0 9.97103e-08)
(5.27936e-07 0 1.04608e-07)
(5.03597e-07 0 1.0916e-07)
(4.78302e-07 0 1.13244e-07)
(4.52148e-07 0 1.16945e-07)
(4.25204e-07 0 1.20329e-07)
(3.97559e-07 0 1.23234e-07)
(3.6932e-07 0 1.25761e-07)
(3.40568e-07 0 1.27885e-07)
(3.11347e-07 0 1.29634e-07)
(2.81749e-07 0 1.31011e-07)
(2.51853e-07 0 1.31973e-07)
(2.21715e-07 0 1.32581e-07)
(1.91414e-07 0 1.32968e-07)
(1.60933e-07 0 1.33414e-07)
(1.31086e-07 0 1.34311e-07)
(9.86163e-08 0 1.38358e-07)
(5.16518e-08 0 1.98176e-07)
(-5.30546e-11 0 1.94104e-07)
(8.69599e-16 0 1.31999e-15)
(6.16469e-16 0 2.33368e-17)
(1.18841e-15 0 3.22911e-17)
(1.17814e-15 0 4.09558e-17)
(1.16448e-15 0 4.9331e-17)
(1.14733e-15 0 5.72823e-17)
(1.12682e-15 0 6.4851e-17)
(1.10323e-15 0 7.19751e-17)
(1.0769e-15 0 7.85718e-17)
(1.04812e-15 0 8.46826e-17)
(1.01736e-15 0 9.02558e-17)
(9.85007e-16 0 9.5436e-17)
(9.51485e-16 0 1.00161e-16)
(9.17219e-16 0 1.04514e-16)
(8.82509e-16 0 1.08505e-16)
(8.47664e-16 0 1.12228e-16)
(8.12881e-16 0 1.15743e-16)
(7.78356e-16 0 1.19073e-16)
(7.44225e-16 0 1.22226e-16)
(7.10465e-16 0 1.25328e-16)
(6.7713e-16 0 1.28327e-16)
(6.44229e-16 0 1.31315e-16)
(6.1169e-16 0 1.34282e-16)
(5.7945e-16 0 1.37271e-16)
(5.47449e-16 0 1.40217e-16)
(5.15571e-16 0 1.43133e-16)
(4.83725e-16 0 1.46008e-16)
(4.51847e-16 0 1.48799e-16)
(4.19856e-16 0 1.51529e-16)
(3.87731e-16 0 1.54135e-16)
(3.55378e-16 0 1.56596e-16)
(3.22787e-16 0 1.58912e-16)
(2.89958e-16 0 1.61011e-16)
(2.56829e-16 0 1.62893e-16)
(2.23473e-16 0 1.64516e-16)
(1.89838e-16 0 1.65912e-16)
(1.55934e-16 0 1.67039e-16)
(1.21833e-16 0 1.67918e-16)
(8.75571e-17 0 1.68507e-16)
(5.32084e-17 0 1.68807e-16)
(1.80119e-17 0 1.68828e-16)
(2.83255e-08 0 -2.80764e-07)
(8.18774e-08 0 -2.78605e-07)
(1.35859e-07 0 -2.74363e-07)
(1.88854e-07 0 -2.68092e-07)
(2.40289e-07 0 -2.59796e-07)
(2.89802e-07 0 -2.49672e-07)
(3.3703e-07 0 -2.3786e-07)
(3.81605e-07 0 -2.24519e-07)
(4.2324e-07 0 -2.09901e-07)
(4.61724e-07 0 -1.94212e-07)
(4.96748e-07 0 -1.77825e-07)
(5.28225e-07 0 -1.61066e-07)
(5.5625e-07 0 -1.43434e-07)
(5.79897e-07 0 -1.26796e-07)
(6.00087e-07 0 -1.08093e-07)
(6.17637e-07 0 -9.04986e-08)
(6.31752e-07 0 -7.94984e-08)
(6.42536e-07 0 -6.48893e-08)
(6.50132e-07 0 -5.01576e-08)
(6.56233e-07 0 -3.68301e-08)
(6.60183e-07 0 -3.31704e-08)
(6.62435e-07 0 -2.18856e-08)
(6.62872e-07 0 -1.52987e-08)
(6.62723e-07 0 -1.05283e-08)
(6.61907e-07 0 -7.88895e-09)
(6.60706e-07 0 -5.30711e-09)
(6.59514e-07 0 -4.63056e-09)
(6.58608e-07 0 -5.01374e-09)
(6.58158e-07 0 -6.19318e-09)
(6.58362e-07 0 -8.27873e-09)
(6.59351e-07 0 -1.08003e-08)
(6.61147e-07 0 -1.35986e-08)
(6.63825e-07 0 -1.65245e-08)
(6.67357e-07 0 -1.93592e-08)
(6.71683e-07 0 -2.17969e-08)
(6.76713e-07 0 -2.40417e-08)
(6.82286e-07 0 -2.54946e-08)
(6.88284e-07 0 -2.63509e-08)
(6.94538e-07 0 -2.63642e-08)
(7.00798e-07 0 -2.54638e-08)
(7.06862e-07 0 -2.36745e-08)
(7.12574e-07 0 -2.09048e-08)
(7.17679e-07 0 -1.71506e-08)
(7.21927e-07 0 -1.2555e-08)
(7.25182e-07 0 -6.92647e-09)
(7.27245e-07 0 -5.71598e-10)
(7.27955e-07 0 6.88533e-09)
(7.27008e-07 0 1.43542e-08)
(7.24414e-07 0 2.25386e-08)
(7.2017e-07 0 3.13344e-08)
(7.14092e-07 0 4.01501e-08)
(7.06177e-07 0 4.9526e-08)
(6.96382e-07 0 5.86783e-08)
(6.84736e-07 0 6.76765e-08)
(6.7125e-07 0 7.67845e-08)
(6.56076e-07 0 8.51488e-08)
(6.3923e-07 0 9.37172e-08)
(6.20772e-07 0 1.01648e-07)
(6.00816e-07 0 1.09349e-07)
(5.79513e-07 0 1.16176e-07)
(5.56918e-07 0 1.22716e-07)
(5.33188e-07 0 1.28643e-07)
(5.08409e-07 0 1.34254e-07)
(4.82673e-07 0 1.39233e-07)
(4.56057e-07 0 1.43744e-07)
(4.28664e-07 0 1.47863e-07)
(4.006e-07 0 1.51438e-07)
(3.71944e-07 0 1.54498e-07)
(3.42748e-07 0 1.57119e-07)
(3.13094e-07 0 1.59289e-07)
(2.83079e-07 0 1.60982e-07)
(2.52793e-07 0 1.62208e-07)
(2.2237e-07 0 1.62955e-07)
(1.91991e-07 0 1.63378e-07)
(1.6163e-07 0 1.6383e-07)
(1.33061e-07 0 1.63696e-07)
(1.02089e-07 0 1.69139e-07)
(5.16136e-08 0 2.47797e-07)
(-5.25564e-11 0 2.28139e-07)
(8.87343e-16 0 1.61191e-15)
(6.2186e-16 0 2.9034e-17)
(1.19816e-15 0 3.98908e-17)
(1.18764e-15 0 5.05201e-17)
(1.17358e-15 0 6.08288e-17)
(1.15595e-15 0 7.06309e-17)
(1.13497e-15 0 7.9947e-17)
(1.11085e-15 0 8.86738e-17)
(1.08395e-15 0 9.67595e-17)
(1.05462e-15 0 1.04256e-16)
(1.02334e-15 0 1.11121e-16)
(9.90497e-16 0 1.17387e-16)
(9.56521e-16 0 1.23167e-16)
(9.21841e-16 0 1.2843e-16)
(8.86769e-16 0 1.33269e-16)
(8.51655e-16 0 1.37777e-16)
(8.16675e-16 0 1.41965e-16)
(7.81955e-16 0 1.45966e-16)
(7.47689e-16 0 1.49761e-16)
(7.13847e-16 0 1.53483e-16)
(6.80439e-16 0 1.57102e-16)
(6.47527e-16 0 1.60701e-16)
(6.14999e-16 0 1.64278e-16)
(5.82738e-16 0 1.67835e-16)
(5.50685e-16 0 1.71392e-16)
(5.18756e-16 0 1.74897e-16)
(4.86848e-16 0 1.78371e-16)
(4.54898e-16 0 1.81742e-16)
(4.22813e-16 0 1.8502e-16)
(3.90543e-16 0 1.88163e-16)
(3.58014e-16 0 1.9113e-16)
(3.25216e-16 0 1.93901e-16)
(2.9215e-16 0 1.96404e-16)
(2.58773e-16 0 1.98658e-16)
(2.25128e-16 0 2.00612e-16)
(1.91192e-16 0 2.02246e-16)
(1.5702e-16 0 2.03559e-16)
(1.2264e-16 0 2.04572e-16)
(8.8043e-17 0 2.05244e-16)
(5.33738e-17 0 2.05616e-16)
(1.80222e-17 0 2.05616e-16)
(2.96035e-08 0 -3.36708e-07)
(8.53973e-08 0 -3.34142e-07)
(1.41702e-07 0 -3.29033e-07)
(1.96928e-07 0 -3.2141e-07)
(2.50458e-07 0 -3.11336e-07)
(3.01935e-07 0 -2.99006e-07)
(3.5093e-07 0 -2.84628e-07)
(3.97101e-07 0 -2.68332e-07)
(4.4011e-07 0 -2.50489e-07)
(4.79588e-07 0 -2.31408e-07)
(5.15187e-07 0 -2.11532e-07)
(5.47436e-07 0 -1.90275e-07)
(5.75188e-07 0 -1.69847e-07)
(5.98152e-07 0 -1.48414e-07)
(6.18092e-07 0 -1.24736e-07)
(6.34913e-07 0 -1.07182e-07)
(6.48188e-07 0 -9.13536e-08)
(6.56867e-07 0 -7.31589e-08)
(6.6314e-07 0 -5.49297e-08)
(6.681e-07 0 -4.12129e-08)
(6.70278e-07 0 -3.55942e-08)
(6.70329e-07 0 -2.16319e-08)
(6.69074e-07 0 -1.44072e-08)
(6.67274e-07 0 -9.49799e-09)
(6.64818e-07 0 -5.70442e-09)
(6.62063e-07 0 -3.4179e-09)
(6.59562e-07 0 -2.90734e-09)
(6.57544e-07 0 -3.78527e-09)
(6.56196e-07 0 -5.64052e-09)
(6.55719e-07 0 -8.58495e-09)
(6.5625e-07 0 -1.20177e-08)
(6.5783e-07 0 -1.5794e-08)
(6.60521e-07 0 -1.97032e-08)
(6.64265e-07 0 -2.34779e-08)
(6.68984e-07 0 -2.67419e-08)
(6.74591e-07 0 -2.97352e-08)
(6.80903e-07 0 -3.17079e-08)
(6.87735e-07 0 -3.2989e-08)
(6.94923e-07 0 -3.31825e-08)
(7.02241e-07 0 -3.22149e-08)
(7.09375e-07 0 -3.01659e-08)
(7.16133e-07 0 -2.68973e-08)
(7.22299e-07 0 -2.23998e-08)
(7.27549e-07 0 -1.68274e-08)
(7.31738e-07 0 -1.01104e-08)
(7.34618e-07 0 -2.28045e-09)
(7.36148e-07 0 6.27399e-09)
(7.35919e-07 0 1.61248e-08)
(7.33832e-07 0 2.56758e-08)
(7.29916e-07 0 3.62915e-08)
(7.24073e-07 0 4.71515e-08)
(7.1629e-07 0 5.82915e-08)
(7.06476e-07 0 6.95573e-08)
(6.94668e-07 0 8.03308e-08)
(6.80928e-07 0 9.13265e-08)
(6.65414e-07 0 1.01376e-07)
(6.48171e-07 0 1.11622e-07)
(6.29249e-07 0 1.21144e-07)
(6.08786e-07 0 1.30298e-07)
(5.8693e-07 0 1.3847e-07)
(5.63782e-07 0 1.46183e-07)
(5.39507e-07 0 1.53257e-07)
(5.14148e-07 0 1.59813e-07)
(4.87858e-07 0 1.65713e-07)
(4.60739e-07 0 1.71025e-07)
(4.3281e-07 0 1.75975e-07)
(4.04249e-07 0 1.80043e-07)
(3.75087e-07 0 1.83687e-07)
(3.45391e-07 0 1.86845e-07)
(3.15216e-07 0 1.89438e-07)
(2.84663e-07 0 1.9146e-07)
(2.53842e-07 0 1.92915e-07)
(2.22932e-07 0 1.93706e-07)
(1.92289e-07 0 1.93849e-07)
(1.61803e-07 0 1.93468e-07)
(1.34567e-07 0 1.91092e-07)
(9.12113e-08 0 2.13976e-07)
(4.74689e-08 0 3.08753e-07)
(-5.21814e-11 0 2.55645e-07)
(9.10853e-16 0 1.87745e-15)
(6.28431e-16 0 3.47106e-17)
(1.20991e-15 0 4.77283e-17)
(1.19909e-15 0 6.04772e-17)
(1.1846e-15 0 7.28229e-17)
(1.16643e-15 0 8.46102e-17)
(1.14485e-15 0 9.57565e-17)
(1.12006e-15 0 1.06138e-16)
(1.09247e-15 0 1.15754e-16)
(1.06247e-15 0 1.24615e-16)
(1.03051e-15 0 1.32752e-16)
(9.97063e-16 0 1.40135e-16)
(9.62518e-16 0 1.46907e-16)
(9.27311e-16 0 1.53049e-16)
(8.91856e-16 0 1.58653e-16)
(8.5638e-16 0 1.63854e-16)
(8.21091e-16 0 1.68683e-16)
(7.86163e-16 0 1.73243e-16)
(7.51752e-16 0 1.77606e-16)
(7.17817e-16 0 1.81845e-16)
(6.84347e-16 0 1.86033e-16)
(6.51394e-16 0 1.90169e-16)
(6.18835e-16 0 1.94284e-16)
(5.86575e-16 0 1.98368e-16)
(5.54511e-16 0 2.02483e-16)
(5.2253e-16 0 2.06547e-16)
(4.9056e-16 0 2.1058e-16)
(4.58506e-16 0 2.14519e-16)
(4.26277e-16 0 2.18334e-16)
(3.93831e-16 0 2.21964e-16)
(3.61106e-16 0 2.25396e-16)
(3.2807e-16 0 2.28591e-16)
(2.94714e-16 0 2.31487e-16)
(2.61027e-16 0 2.34082e-16)
(2.27051e-16 0 2.36326e-16)
(1.92774e-16 0 2.38166e-16)
(1.5825e-16 0 2.39665e-16)
(1.23519e-16 0 2.40782e-16)
(8.86117e-17 0 2.41516e-16)
(5.35806e-17 0 2.4194e-16)
(1.80119e-17 0 2.41919e-16)
(3.11475e-08 0 -3.95207e-07)
(8.96178e-08 0 -3.92191e-07)
(1.4868e-07 0 -3.86133e-07)
(2.06592e-07 0 -3.77046e-07)
(2.62674e-07 0 -3.6508e-07)
(3.16559e-07 0 -3.50369e-07)
(3.67712e-07 0 -3.33214e-07)
(4.1586e-07 0 -3.13721e-07)
(4.60499e-07 0 -2.92389e-07)
(5.00916e-07 0 -2.69808e-07)
(5.37813e-07 0 -2.45159e-07)
(5.70674e-07 0 -2.2011e-07)
(5.97602e-07 0 -1.96077e-07)
(6.20152e-07 0 -1.68601e-07)
(6.40313e-07 0 -1.40749e-07)
(6.55769e-07 0 -1.23503e-07)
(6.67362e-07 0 -1.01125e-07)
(6.7397e-07 0 -7.93237e-08)
(6.79505e-07 0 -5.62011e-08)
(6.8182e-07 0 -5.00791e-08)
(6.82036e-07 0 -3.11897e-08)
(6.79386e-07 0 -2.09805e-08)
(6.76382e-07 0 -1.10916e-08)
(6.72299e-07 0 -6.90112e-09)
(6.67834e-07 0 -1.64007e-09)
(6.63265e-07 0 3.95497e-11)
(6.59198e-07 0 1.24605e-10)
(6.55796e-07 0 -1.40377e-09)
(6.53331e-07 0 -4.2151e-09)
(6.52034e-07 0 -8.26836e-09)
(6.5206e-07 0 -1.28867e-08)
(6.53412e-07 0 -1.79064e-08)
(6.56146e-07 0 -2.30225e-08)
(6.60189e-07 0 -2.79604e-08)
(6.6543e-07 0 -3.22478e-08)
(6.71747e-07 0 -3.61471e-08)
(6.78991e-07 0 -3.88479e-08)
(6.86902e-07 0 -4.06434e-08)
(6.95264e-07 0 -4.10771e-08)
(7.03812e-07 0 -4.01636e-08)
(7.12255e-07 0 -3.78226e-08)
(7.20309e-07 0 -3.40616e-08)
(7.27737e-07 0 -2.88265e-08)
(7.34265e-07 0 -2.21772e-08)
(7.39596e-07 0 -1.42783e-08)
(7.43528e-07 0 -4.87966e-09)
(7.45874e-07 0 5.01615e-09)
(7.46595e-07 0 1.69956e-08)
(7.45124e-07 0 2.84832e-08)
(7.41571e-07 0 4.08747e-08)
(7.36e-07 0 5.39874e-08)
(7.28358e-07 0 6.68762e-08)
(7.18515e-07 0 8.06164e-08)
(7.06532e-07 0 9.32566e-08)
(6.92467e-07 0 1.06201e-07)
(6.76518e-07 0 1.18056e-07)
(6.58709e-07 0 1.29998e-07)
(6.39224e-07 0 1.41228e-07)
(6.18157e-07 0 1.51815e-07)
(5.95647e-07 0 1.61449e-07)
(5.71815e-07 0 1.70187e-07)
(5.46857e-07 0 1.78431e-07)
(5.20873e-07 0 1.86028e-07)
(4.93945e-07 0 1.92769e-07)
(4.66143e-07 0 1.98971e-07)
(4.37626e-07 0 2.04486e-07)
(4.08488e-07 0 2.0922e-07)
(3.78741e-07 0 2.13456e-07)
(3.48462e-07 0 2.17113e-07)
(3.17696e-07 0 2.20159e-07)
(2.86514e-07 0 2.22528e-07)
(2.54995e-07 0 2.24242e-07)
(2.23264e-07 0 2.25147e-07)
(1.91637e-07 0 2.25004e-07)
(1.61051e-07 0 2.23352e-07)
(1.31801e-07 0 2.1907e-07)
(8.52306e-08 0 2.63838e-07)
(4.34363e-08 0 3.36603e-07)
(-5.1481e-11 0 2.81155e-07)
(9.37191e-16 0 2.11221e-15)
(6.3637e-16 0 4.04181e-17)
(1.22394e-15 0 5.58347e-17)
(1.21272e-15 0 7.08997e-17)
(1.1977e-15 0 8.54581e-17)
(1.17888e-15 0 9.93651e-17)
(1.1565e-15 0 1.12414e-16)
(1.13088e-15 0 1.24532e-16)
(1.10243e-15 0 1.3574e-16)
(1.0716e-15 0 1.45997e-16)
(1.03887e-15 0 1.55324e-16)
(1.00466e-15 0 1.63813e-16)
(9.69425e-16 0 1.71464e-16)
(9.33597e-16 0 1.78433e-16)
(8.97605e-16 0 1.8472e-16)
(8.61695e-16 0 1.9052e-16)
(8.26064e-16 0 1.95907e-16)
(7.90878e-16 0 2.00964e-16)
(7.56291e-16 0 2.05813e-16)
(7.22273e-16 0 2.10476e-16)
(6.88773e-16 0 2.15108e-16)
(6.55779e-16 0 2.19689e-16)
(6.23188e-16 0 2.2428e-16)
(5.90938e-16 0 2.28902e-16)
(5.58874e-16 0 2.33472e-16)
(5.26842e-16 0 2.38042e-16)
(4.94819e-16 0 2.42581e-16)
(4.62673e-16 0 2.47027e-16)
(4.30258e-16 0 2.51349e-16)
(3.97605e-16 0 2.55475e-16)
(3.64632e-16 0 2.59321e-16)
(3.31307e-16 0 2.6293e-16)
(2.97651e-16 0 2.66187e-16)
(2.63602e-16 0 2.69082e-16)
(2.29212e-16 0 2.71584e-16)
(1.94543e-16 0 2.73631e-16)
(1.59615e-16 0 2.75286e-16)
(1.2448e-16 0 2.76495e-16)
(8.92114e-17 0 2.77312e-16)
(5.37771e-17 0 2.77695e-16)
(1.80015e-17 0 2.77654e-16)
(3.29573e-08 0 -4.56748e-07)
(9.45416e-08 0 -4.5324e-07)
(1.56851e-07 0 -4.46166e-07)
(2.1798e-07 0 -4.35524e-07)
(2.77096e-07 0 -4.21519e-07)
(3.3382e-07 0 -4.0425e-07)
(3.87696e-07 0 -3.83966e-07)
(4.38136e-07 0 -3.61115e-07)
(4.8436e-07 0 -3.36195e-07)
(5.26603e-07 0 -3.08708e-07)
(5.65045e-07 0 -2.79542e-07)
(5.97722e-07 0 -2.51128e-07)
(6.23794e-07 0 -2.21442e-07)
(6.47442e-07 0 -1.86357e-07)
(6.66264e-07 0 -1.60325e-07)
(6.80597e-07 0 -1.35734e-07)
(6.89136e-07 0 -1.09974e-07)
(6.95029e-07 0 -8.25363e-08)
(6.98692e-07 0 -5.83898e-08)
(6.97941e-07 0 -5.03956e-08)
(6.95152e-07 0 -2.76106e-08)
(6.90051e-07 0 -1.69147e-08)
(6.84458e-07 0 -6.30236e-09)
(6.77659e-07 0 -9.01891e-10)
(6.7074e-07 0 4.02185e-09)
(6.64056e-07 0 5.49082e-09)
(6.58071e-07 0 4.79949e-09)
(6.53056e-07 0 2.36578e-09)
(6.49331e-07 0 -1.79669e-09)
(6.4711e-07 0 -7.17904e-09)
(6.46547e-07 0 -1.3426e-08)
(6.47651e-07 0 -1.99058e-08)
(6.50457e-07 0 -2.65399e-08)
(6.54886e-07 0 -3.29209e-08)
(6.60793e-07 0 -3.84945e-08)
(6.68014e-07 0 -4.34076e-08)
(6.76419e-07 0 -4.71863e-08)
(6.85637e-07 0 -4.94933e-08)
(6.95392e-07 0 -5.03446e-08)
(7.05454e-07 0 -4.95391e-08)
(7.15512e-07 0 -4.69347e-08)
(7.2515e-07 0 -4.26534e-08)
(7.34097e-07 0 -3.66137e-08)
(7.421e-07 0 -2.8924e-08)
(7.48852e-07 0 -1.96351e-08)
(7.54085e-07 0 -8.65405e-09)
(7.57473e-07 0 3.16561e-09)
(7.59124e-07 0 1.62159e-08)
(7.58481e-07 0 3.13311e-08)
(7.5547e-07 0 4.51016e-08)
(7.50138e-07 0 6.05432e-08)
(7.42565e-07 0 7.55861e-08)
(7.32632e-07 0 9.16987e-08)
(7.20406e-07 0 1.06552e-07)
(7.05949e-07 0 1.21336e-07)
(6.8942e-07 0 1.35461e-07)
(6.70973e-07 0 1.48937e-07)
(6.50776e-07 0 1.62065e-07)
(6.29013e-07 0 1.73811e-07)
(6.05641e-07 0 1.85266e-07)
(5.81028e-07 0 1.95069e-07)
(5.55265e-07 0 2.04264e-07)
(5.28488e-07 0 2.12932e-07)
(5.00819e-07 0 2.20589e-07)
(4.72315e-07 0 2.27467e-07)
(4.43105e-07 0 2.33683e-07)
(4.13333e-07 0 2.39041e-07)
(3.82941e-07 0 2.43828e-07)
(3.52004e-07 0 2.47992e-07)
(3.20584e-07 0 2.51493e-07)
(2.88719e-07 0 2.54279e-07)
(2.56392e-07 0 2.56355e-07)
(2.23603e-07 0 2.57582e-07)
(1.90313e-07 0 2.57694e-07)
(1.5675e-07 0 2.56077e-07)
(1.19412e-07 0 2.51114e-07)
(8.33346e-08 0 3.21864e-07)
(3.78209e-08 0 3.56703e-07)
(-5.03302e-11 0 3.08842e-07)