0.010101 	6.31723e-13 	-6.61983e-16 	6.34843e-15
0.020202 	2.10632e-14 	-5.79134e-17 	3.62139e-16
