/*--------------------------------*- C++ -*----------------------------------*\
  =========                 |
  \\      /  F ield         | OpenFOAM: The Open Source CFD Toolbox
   \\    /   O peration     | Website:  https://openfoam.org
    \\  /    A nd           | Version:  6
     \\/     M anipulation  |
\*---------------------------------------------------------------------------*/
FoamFile
{
    version     2.0;
    format      ascii;
    class       surfaceScalarField;
    location    "1000";
    object      phi;
}
// * * * * * * * * * * * * * * * * * * * * * * * * * * * * * * * * * * * * * //

dimensions      [0 3 -1 0 0 0 0];

internalField   nonuniform List<scalar> 
9440
(
-3.13917e-11
3.13917e-11
-8.13802e-11
4.99892e-11
-1.80558e-10
9.91779e-11
-3.31445e-10
1.50887e-10
-6.42569e-10
3.11125e-10
-9.80988e-10
3.3842e-10
-1.17962e-09
1.98631e-10
-1.38488e-09
2.05263e-10
-1.56987e-09
1.84991e-10
-1.78026e-09
2.10392e-10
-2.00329e-09
2.23029e-10
-2.25281e-09
2.49521e-10
-2.48116e-09
2.28352e-10
-2.69062e-09
2.09455e-10
-2.8653e-09
1.7468e-10
-3.04237e-09
1.77073e-10
-3.17536e-09
1.32988e-10
-3.31429e-09
1.38929e-10
-3.38001e-09
6.57254e-11
-3.46176e-09
8.17522e-11
-3.49386e-09
3.20965e-11
-3.50864e-09
1.4776e-11
-3.49992e-09
-8.72026e-12
-3.46736e-09
-3.25605e-11
-3.42298e-09
-4.43758e-11
-3.39296e-09
-3.00266e-11
-3.38352e-09
-9.43462e-12
-3.37412e-09
-9.40089e-12
-3.35382e-09
-2.0298e-11
-3.29473e-09
-5.90918e-11
-3.27382e-09
-2.0907e-11
-3.31348e-09
3.9659e-11
-3.2683e-09
-4.51746e-11
-3.2519e-09
-1.64057e-11
-3.22171e-09
-3.0185e-11
-3.24477e-09
2.30632e-11
-3.17137e-09
-7.34032e-11
-3.1083e-09
-6.3063e-11
-3.05379e-09
-5.45114e-11
-3.00359e-09
-5.01989e-11
-2.91346e-09
-9.01238e-11
-2.83181e-09
-8.16567e-11
-2.69244e-09
-1.39367e-10
-2.58115e-09
-1.1128e-10
-2.4448e-09
-1.36348e-10
-2.3286e-09
-1.16198e-10
-2.18609e-09
-1.42509e-10
-2.06333e-09
-1.22757e-10
-2.00703e-09
-5.63013e-11
-1.98693e-09
-2.00965e-11
-1.98591e-09
-1.02074e-12
-2.0004e-09
1.44918e-11
-2.05356e-09
5.31658e-11
-2.10631e-09
5.27434e-11
-2.12961e-09
2.33021e-11
-2.14399e-09
1.43797e-11
-2.15916e-09
1.51715e-11
-2.12662e-09
-3.25393e-11
-1.99421e-09
-1.32415e-10
-1.84332e-09
-1.50886e-10
-1.73552e-09
-1.07802e-10
-1.66536e-09
-7.016e-11
-1.43627e-09
-2.29091e-10
-1.23806e-09
-1.9821e-10
-1.19423e-09
-4.38304e-11
-1.07118e-09
-1.23054e-10
-9.93441e-10
-7.77407e-11
-8.90669e-10
-1.02772e-10
-8.15045e-10
-7.56235e-11
-7.10794e-10
-1.04252e-10
-7.62592e-10
5.17984e-11
-8.18196e-10
5.56027e-11
-9.27364e-10
1.09168e-10
-9.465e-10
1.91345e-11
-1.04695e-09
1.00454e-10
-1.1029e-09
5.59403e-11
-1.19021e-09
8.73123e-11
-9.75594e-10
-2.14618e-10
-4.64344e-10
-5.1125e-10
-5.76247e-15
-4.64335e-10
5.25972e-19
-6.12872e-19
7.49266e-19
-2.23294e-19
8.68093e-19
-1.1798e-19
9.44506e-19
-7.82405e-20
1.0019e-18
-5.94912e-20
1.05161e-18
-5.1387e-20
1.09971e-18
-4.94785e-20
1.14873e-18
-5.02559e-20
1.19945e-18
-5.19207e-20
1.25145e-18
-5.31795e-20
1.30354e-18
-5.32567e-20
1.35415e-18
-5.17601e-20
1.40155e-18
-4.85631e-20
1.44411e-18
-4.37212e-20
1.48027e-18
-3.74013e-20
1.50872e-18
-2.9833e-20
1.52841e-18
-2.12756e-20
1.53858e-18
-1.19957e-20
1.53881e-18
-2.24114e-21
1.52897e-18
7.76972e-21
1.50925e-18
1.78398e-20
1.48009e-18
2.77794e-20
1.44205e-18
3.7402e-20
1.39578e-18
4.65357e-20
1.34189e-18
5.50332e-20
1.28091e-18
6.27797e-20
1.21334e-18
6.96988e-20
1.13962e-18
7.57636e-20
1.06022e-18
8.10041e-20
9.757e-19
8.55037e-20
8.86775e-19
8.93802e-20
7.94256e-19
9.2757e-20
6.99e-19
9.57356e-20
6.01807e-19
9.83813e-20
5.03339e-19
1.00723e-19
4.04075e-19
1.02767e-19
3.04291e-19
1.04525e-19
2.04049e-19
1.06056e-19
1.03054e-19
1.07609e-19
1.10135e-19
-5.58292e-11
8.72216e-11
-1.75137e-10
1.69299e-10
-4.24623e-10
3.48664e-10
-6.84978e-10
4.11243e-10
-7.8461e-10
4.10757e-10
-9.31812e-10
4.85623e-10
-1.1228e-09
3.89615e-10
-1.2804e-09
3.62872e-10
-1.49505e-09
3.99639e-10
-1.73462e-09
4.49958e-10
-1.95823e-09
4.46648e-10
-2.17184e-09
4.63126e-10
-2.40836e-09
4.64875e-10
-2.62381e-09
4.24911e-10
-2.80709e-09
3.57955e-10
-2.98994e-09
3.59921e-10
-3.11964e-09
2.62694e-10
-3.23605e-09
2.55338e-10
-3.32488e-09
1.54555e-10
-3.38776e-09
1.44626e-10
-3.43803e-09
8.23706e-11
-3.47168e-09
4.84242e-11
-3.49295e-09
1.25458e-11
-3.49244e-09
-3.3068e-11
-3.46468e-09
-7.21392e-11
-3.41908e-09
-7.56244e-11
-3.37507e-09
-5.3441e-11
-3.34269e-09
-4.17873e-11
-3.31619e-09
-4.6792e-11
-3.29984e-09
-7.5439e-11
-3.29412e-09
-2.66239e-11
-3.27867e-09
2.42093e-11
-3.2373e-09
-8.65426e-11
-3.25037e-09
-3.32893e-12
-3.24555e-09
-3.50096e-11
-3.20829e-09
-1.41948e-11
-3.18594e-09
-9.57537e-11
-3.16446e-09
-8.45334e-11
-3.04639e-09
-1.72583e-10
-2.9659e-09
-1.30685e-10
-2.87864e-09
-1.77381e-10
-2.73719e-09
-2.23098e-10
-2.60259e-09
-2.73967e-10
-2.46706e-09
-2.46799e-10
-2.34681e-09
-2.56598e-10
-2.22664e-09
-2.36361e-10
-2.14184e-09
-2.27303e-10
-2.03312e-09
-2.31474e-10
-1.97064e-09
-1.18784e-10
-1.92926e-09
-6.14711e-11
-1.91495e-09
-1.53319e-11
-1.92071e-09
2.02533e-11
-1.9872e-09
1.19661e-10
-2.06823e-09
1.33777e-10
-2.12637e-09
8.14421e-11
-2.16114e-09
4.91461e-11
-2.14123e-09
-4.74165e-12
-2.10358e-09
-7.01873e-11
-1.94412e-09
-2.91879e-10
-1.8331e-09
-2.61905e-10
-1.73709e-09
-2.03809e-10
-1.59906e-09
-2.08195e-10
-1.44066e-09
-3.87493e-10
-1.11473e-09
-5.24145e-10
-1.05571e-09
-1.02848e-10
-9.15946e-10
-2.62818e-10
-7.25783e-10
-2.67903e-10
-5.5221e-10
-2.76346e-10
-3.28972e-10
-2.98862e-10
-1.04057e-10
-3.29168e-10
-1.74386e-11
-3.48208e-11
-2.10511e-11
5.92138e-11
1.14561e-10
-2.64457e-11
1.85761e-10
-5.20671e-11
1.73057e-10
1.13156e-10
9.82111e-11
1.30784e-10
5.67196e-10
-3.81675e-10
4.96805e-10
-1.4423e-10
-1.79891e-10
1.65438e-10
5.55695e-16
-6.44248e-10
9.33313e-19
4.75836e-19
8.51049e-19
-1.47515e-19
9.05258e-19
-1.75874e-19
9.61616e-19
-1.37052e-19
1.00927e-18
-1.09319e-19
1.05362e-18
-9.7792e-20
1.09894e-18
-9.67822e-20
1.14706e-18
-1.00337e-19
1.19819e-18
-1.0502e-19
1.25137e-18
-1.08378e-19
1.30504e-18
-1.09006e-19
1.35734e-18
-1.06232e-19
1.4064e-18
-9.98992e-20
1.45043e-18
-9.01788e-20
1.48784e-18
-7.74346e-20
1.51728e-18
-6.21198e-20
1.53769e-18
-4.47244e-20
1.54833e-18
-2.57408e-20
1.54882e-18
-5.64649e-21
1.53904e-18
1.5096e-20
1.51919e-18
3.60192e-20
1.48971e-18
5.66376e-20
1.45119e-18
7.64669e-20
1.40428e-18
9.50656e-20
1.34963e-18
1.12087e-19
1.28783e-18
1.27325e-19
1.21941e-18
1.40737e-19
1.14486e-18
1.52444e-19
1.06472e-18
1.62693e-19
9.79576e-19
1.71782e-19
8.90151e-19
1.79987e-19
7.97235e-19
1.87497e-19
7.01646e-19
1.94389e-19
6.04149e-19
2.00642e-19
5.05384e-19
2.0618e-19
4.05832e-19
2.10913e-19
3.05823e-19
2.14782e-19
2.05602e-19
2.17777e-19
1.05579e-19
2.19904e-19
2.20931e-19
-4.46848e-11
1.31907e-10
-8.9445e-11
2.14059e-10
-1.97505e-10
4.56725e-10
-5.29481e-10
7.43219e-10
-8.60882e-10
7.42159e-10
-9.73112e-10
5.97852e-10
-1.09281e-09
5.09314e-10
-1.34286e-09
6.12925e-10
-1.49382e-09
5.50595e-10
-1.63845e-09
5.9459e-10
-1.85447e-09
6.62667e-10
-2.03224e-09
6.40898e-10
-2.26254e-09
6.95173e-10
-2.46051e-09
6.22884e-10
-2.62332e-09
5.20766e-10
-2.77895e-09
5.15548e-10
-2.88065e-09
3.644e-10
-2.97e-09
3.44687e-10
-3.05182e-09
2.36378e-10
-3.10323e-09
1.9603e-10
-3.16515e-09
1.44294e-10
-3.20799e-09
9.12613e-11
-3.22453e-09
2.9086e-11
-3.23012e-09
-2.74767e-11
-3.23313e-09
-6.91298e-11
-3.23016e-09
-7.86025e-11
-3.22427e-09
-5.93306e-11
-3.2266e-09
-3.94526e-11
-3.22985e-09
-4.35412e-11
-3.2416e-09
-6.3683e-11
-3.22522e-09
-4.30041e-11
-3.16529e-09
-3.57223e-11
-3.20488e-09
-4.69472e-11
-3.18617e-09
-2.20385e-11
-3.17639e-09
-4.47936e-11
-3.13894e-09
-5.16396e-11
-3.1306e-09
-1.04088e-10
-3.10096e-09
-1.14173e-10
-2.98743e-09
-2.86106e-10
-2.85312e-09
-2.64995e-10
-2.69495e-09
-3.3555e-10
-2.52231e-09
-3.95737e-10
-2.38569e-09
-4.10576e-10
-2.23754e-09
-3.94947e-10
-2.11727e-09
-3.76864e-10
-2.03161e-09
-3.22022e-10
-2.00006e-09
-2.58843e-10
-1.9094e-09
-3.22133e-10
-1.85642e-09
-1.71768e-10
-1.81085e-09
-1.07032e-10
-1.79255e-09
-3.3629e-11
-1.8193e-09
4.70046e-11
-1.8916e-09
1.9196e-10
-1.97031e-09
2.12483e-10
-2.03587e-09
1.47001e-10
-2.0856e-09
9.88847e-11
-2.06834e-09
-2.20033e-11
-1.97808e-09
-1.60452e-10
-1.9259e-09
-3.4406e-10
-1.82633e-09
-3.61478e-10
-1.66113e-09
-3.69012e-10
-1.50709e-09
-3.62233e-10
-1.41274e-09
-4.81848e-10
-1.18624e-09
-7.50648e-10
-1.03664e-09
-2.52443e-10
-8.67922e-10
-4.31538e-10
-6.24269e-10
-5.11557e-10
-4.64576e-10
-4.36039e-10
-2.66312e-10
-4.97127e-10
-5.62222e-12
-5.89858e-10
2.10092e-10
-2.50535e-10
3.65931e-10
-9.66267e-11
6.45687e-10
-3.06203e-10
6.89925e-10
-9.63064e-11
6.72525e-10
1.30555e-10
4.65137e-10
3.38171e-10
-3.09146e-10
3.92608e-10
-6.05365e-10
1.51992e-10
-2.74872e-10
-1.65048e-10
5.18359e-16
-9.19117e-10
3.58969e-19
-1.43466e-18
8.23245e-19
-6.1312e-19
9.44629e-19
-2.99053e-19
9.89893e-19
-1.83622e-19
1.02134e-18
-1.41847e-19
1.05513e-18
-1.32623e-19
1.09538e-18
-1.38142e-19
1.14238e-18
-1.48595e-19
1.19483e-18
-1.58962e-19
1.25075e-18
-1.66015e-19
1.30781e-18
-1.68001e-19
1.36368e-18
-1.64175e-19
1.41612e-18
-1.54481e-19
1.46317e-18
-1.39325e-19
1.50315e-18
-1.19379e-19
1.53468e-18
-9.54363e-20
1.55667e-18
-6.83457e-20
1.56843e-18
-3.89623e-20
1.56956e-18
-8.1058e-21
1.55996e-18
2.34652e-20
1.53981e-18
5.50432e-20
1.50954e-18
8.59487e-20
1.46978e-18
1.15537e-19
1.4213e-18
1.43248e-19
1.36487e-18
1.68659e-19
1.30125e-18
1.91539e-19
1.23112e-18
2.11859e-19
1.15511e-18
2.29779e-19
1.0738e-18
2.45599e-19
9.87781e-19
2.59675e-19
8.97661e-19
2.72337e-19
8.04127e-19
2.83817e-19
7.079e-19
2.94218e-19
6.09686e-19
3.03532e-19
5.10117e-19
3.11678e-19
4.09701e-19
3.18557e-19
3.08817e-19
3.24091e-19
2.07729e-19
3.28234e-19
1.06607e-19
3.30943e-19
3.32113e-19
-5.99633e-11
1.91871e-10
-1.38515e-10
2.92611e-10
-2.26737e-10
5.44948e-10
-2.98868e-10
8.15351e-10
-5.62524e-10
1.00582e-09
-8.54733e-10
8.90061e-10
-1.01179e-09
6.66371e-10
-1.15859e-09
7.59722e-10
-1.39325e-09
7.85258e-10
-1.50901e-09
7.10356e-10
-1.66687e-09
8.20527e-10
-1.86733e-09
8.41362e-10
-2.01765e-09
8.4549e-10
-2.19523e-09
8.00467e-10
-2.35304e-09
6.78574e-10
-2.44358e-09
6.06093e-10
-2.56075e-09
4.81566e-10
-2.61321e-09
3.97148e-10
-2.68928e-09
3.12443e-10
-2.74177e-09
2.4852e-10
-2.77358e-09
1.76103e-10
-2.7906e-09
1.08282e-10
-2.78054e-09
1.90235e-11
-2.77301e-09
-3.5002e-11
-2.78985e-09
-5.22975e-11
-2.80022e-09
-6.82295e-11
-2.8087e-09
-5.08544e-11
-2.82773e-09
-2.04191e-11
-2.8536e-09
-1.76677e-11
-2.88757e-09
-2.97138e-11
-2.9073e-09
-2.32692e-11
-2.90539e-09
-3.7634e-11
-2.92254e-09
-2.97993e-11
-2.93946e-09
-5.10832e-12
-2.93455e-09
-4.9705e-11
-2.8813e-09
-1.04882e-10
-2.83846e-09
-1.46926e-10
-2.77607e-09
-1.76563e-10
-2.71453e-09
-3.47638e-10
-2.56012e-09
-4.19412e-10
-2.38179e-09
-5.1387e-10
-2.22338e-09
-5.54147e-10
-1.99834e-09
-6.35614e-10
-1.82742e-09
-5.65856e-10
-1.74359e-09
-4.60699e-10
-1.69566e-09
-3.69949e-10
-1.7273e-09
-2.27195e-10
-1.71709e-09
-3.32345e-10
-1.67269e-09
-2.16158e-10
-1.62412e-09
-1.55604e-10
-1.61833e-09
-3.94165e-11
-1.68668e-09
1.15363e-10
-1.73218e-09
2.37457e-10
-1.78055e-09
2.60854e-10
-1.8484e-09
2.14851e-10
-1.88419e-09
1.34681e-10
-1.89874e-09
-7.46069e-12
-1.87391e-09
-1.85278e-10
-1.87541e-09
-3.42565e-10
-1.78938e-09
-4.47506e-10
-1.65504e-09
-5.03359e-10
-1.46007e-09
-5.57199e-10
-1.28738e-09
-6.54543e-10
-1.3538e-09
-6.84221e-10
-1.0641e-09
-5.42153e-10
-8.74126e-10
-6.21509e-10
-6.65467e-10
-7.20216e-10
-4.03561e-10
-6.97946e-10
-4.00406e-11
-8.60649e-10
1.39364e-10
-7.69264e-10
3.54731e-10
-4.65903e-10
5.44234e-10
-2.86131e-10
7.40082e-10
-5.02051e-10
8.25496e-10
-1.81721e-10
8.93518e-10
6.25315e-11
9.5955e-10
2.72138e-10
1.05243e-09
2.99725e-10
1.07974e-09
1.24678e-10
7.73721e-10
1.40971e-10
1.00221e-17
-1.45396e-10
1.3654e-18
-3.27271e-19
1.13785e-18
-3.85948e-19
1.0606e-18
-2.22198e-19
1.03221e-18
-1.55447e-19
1.0311e-18
-1.40895e-19
1.05009e-18
-1.51865e-19
1.08493e-18
-1.7343e-19
1.13201e-18
-1.96427e-19
1.18778e-18
-2.1588e-19
1.24876e-18
-2.28548e-19
1.31164e-18
-2.32756e-19
1.37337e-18
-2.27967e-19
1.43127e-18
-2.14451e-19
1.48312e-18
-1.93032e-19
1.5271e-18
-1.64857e-19
1.56177e-18
-1.31212e-19
1.58605e-18
-9.3423e-20
1.59928e-18
-5.27952e-20
1.60113e-18
-1.055e-20
1.59154e-18
3.22401e-20
1.57072e-18
7.46601e-20
1.53913e-18
1.15919e-19
1.4975e-18
1.55317e-19
1.44671e-18
1.92257e-19
1.38775e-18
2.26288e-19
1.32157e-18
2.57144e-19
1.24904e-18
2.84759e-19
1.17093e-18
3.09258e-19
1.08788e-18
3.30918e-19
1.00044e-18
3.50098e-19
9.09141e-19
3.67163e-19
8.14528e-19
3.82402e-19
7.17213e-19
3.95992e-19
6.17832e-19
4.07991e-19
5.16996e-19
4.18371e-19
4.15236e-19
4.27067e-19
3.12961e-19
4.3401e-19
2.10438e-19
4.3915e-19
1.07776e-19
4.42446e-19
4.43854e-19
-1.45842e-10
3.37713e-10
-3.35875e-10
4.82644e-10
-5.51894e-10
7.60967e-10
-6.68612e-10
9.3207e-10
-6.79739e-10
1.01694e-09
-7.51949e-10
9.62273e-10
-9.471e-10
8.61522e-10
-1.06262e-09
8.75243e-10
-1.26046e-09
9.83102e-10
-1.39552e-09
8.45415e-10
-1.53082e-09
9.55824e-10
-1.67378e-09
9.84328e-10
-1.78231e-09
9.5402e-10
-1.89051e-09
9.08659e-10
-2.02366e-09
8.11731e-10
-2.1126e-09
6.95025e-10
-2.23124e-09
6.0021e-10
-2.29324e-09
4.59147e-10
-2.33118e-09
3.50382e-10
-2.37101e-09
2.88348e-10
-2.35322e-09
1.5831e-10
-2.37802e-09
1.33088e-10
-2.39461e-09
3.56047e-11
-2.39803e-09
-3.15793e-11
-2.41425e-09
-3.60767e-11
-2.42076e-09
-6.17207e-11
-2.43842e-09
-3.31962e-11
-2.47383e-09
1.49962e-11
-2.51341e-09
2.19131e-11
-2.56978e-09
2.66524e-11
-2.63811e-09
4.50644e-11
-2.66134e-09
-1.44081e-11
-2.69105e-09
-7.9745e-14
-2.70685e-09
1.06957e-11
-2.71466e-09
-4.18985e-11
-2.70435e-09
-1.15185e-10
-2.7076e-09
-1.43674e-10
-2.71062e-09
-1.73539e-10
-2.56571e-09
-4.92545e-10
-2.41194e-09
-5.73177e-10
-2.252e-09
-6.73815e-10
-2.08889e-09
-7.17254e-10
-1.77197e-09
-9.52526e-10
-1.48421e-09
-8.53611e-10
-1.33966e-09
-6.0525e-10
-1.24658e-09
-4.63021e-10
-1.32698e-09
-1.46796e-10
-1.34514e-09
-3.14179e-10
-1.35312e-09
-2.08182e-10
-1.3894e-09
-1.19317e-10
-1.43259e-09
3.77394e-12
-1.49062e-09
1.73392e-10
-1.52142e-09
2.68258e-10
-1.55355e-09
2.92987e-10
-1.5772e-09
2.385e-10
-1.56353e-09
1.21016e-10
-1.53807e-09
-3.29211e-11
-1.53479e-09
-1.8856e-10
-1.45941e-09
-4.17939e-10
-1.39805e-09
-5.08868e-10
-1.3232e-09
-5.7821e-10
-1.21807e-09
-6.62334e-10
-1.16724e-09
-7.05373e-10
-1.22507e-09
-6.26397e-10
-9.76061e-10
-7.91159e-10
-7.48514e-10
-8.49057e-10
-4.47927e-10
-1.0208e-09
-1.22509e-10
-1.02337e-09
4.67414e-11
-1.0299e-09
1.5927e-10
-8.81793e-10
4.11764e-10
-7.18397e-10
6.68771e-10
-5.43138e-10
7.16477e-10
-5.49757e-10
8.78451e-10
-3.43695e-10
9.03078e-10
3.79043e-11
9.91549e-10
1.83667e-10
1.01842e-09
2.72851e-10
7.72729e-10
3.7037e-10
5.61029e-10
3.5267e-10
-1.68852e-16
4.15633e-10
1.64312e-18
4.16959e-19
1.30215e-18
-4.49571e-20
1.1279e-18
-4.74634e-20
1.0473e-18
-7.42823e-20
1.02066e-18
-1.13764e-19
1.02898e-18
-1.5991e-19
1.06193e-18
-2.06378e-19
1.11256e-18
-2.47381e-19
1.17511e-18
-2.79212e-19
1.24455e-18
-2.99261e-19
1.31643e-18
-3.06331e-19
1.38689e-18
-3.00398e-19
1.45269e-18
-2.82307e-19
1.51129e-18
-2.53506e-19
1.56074e-18
-2.1579e-19
1.59956e-18
-1.71073e-19
1.62668e-18
-1.21254e-19
1.64153e-18
-6.8153e-20
1.64392e-18
-1.34386e-20
1.63396e-18
4.14675e-20
1.61198e-18
9.54331e-20
1.57853e-18
1.47573e-19
1.53443e-18
1.97174e-19
1.48074e-18
2.43653e-19
1.41861e-18
2.86563e-19
1.34918e-18
3.25615e-19
1.27354e-18
3.607e-19
1.19259e-18
3.91889e-19
1.10706e-18
4.19414e-19
1.01751e-18
4.43621e-19
9.24381e-19
4.64905e-19
8.28118e-19
4.83628e-19
7.29212e-19
5.00067e-19
6.28212e-19
5.14383e-19
5.25691e-19
5.26642e-19
4.22179e-19
5.3684e-19
3.18101e-19
5.44946e-19
2.13734e-19
5.50923e-19
1.09184e-19
5.54738e-19
5.56364e-19
-1.87609e-10
5.25323e-10
-4.35752e-10
7.30787e-10
-5.71546e-10
8.96762e-10
-6.98494e-10
1.05902e-09
-7.99034e-10
1.11748e-09
-9.0003e-10
1.06327e-09
-9.55378e-10
9.16871e-10
-1.03675e-09
9.56617e-10
-1.11187e-09
1.05822e-09
-1.27825e-09
1.0118e-09
-1.36793e-09
1.04551e-09
-1.41797e-09
1.03436e-09
-1.52606e-09
1.06211e-09
-1.65856e-09
1.04116e-09
-1.74813e-09
9.013e-10
-1.83111e-09
7.78011e-10
-1.9129e-09
6.81995e-10
-1.90546e-09
4.51713e-10
-1.94256e-09
3.87474e-10
-1.95967e-09
3.05459e-10
-1.97806e-09
1.76695e-10
-1.97235e-09
1.27383e-10
-2.01876e-09
8.20108e-11
-2.0861e-09
3.57606e-11
-2.11801e-09
-4.16097e-12
-2.18431e-09
4.57119e-12
-2.27295e-09
5.54488e-11
-2.34554e-09
8.75854e-11
-2.41418e-09
9.05546e-11
-2.48023e-09
9.26991e-11
-2.5221e-09
8.69427e-11
-2.55878e-09
2.22696e-11
-2.59726e-09
3.84012e-11
-2.62674e-09
4.01839e-11
-2.66259e-09
-6.05407e-12
-2.67376e-09
-1.04012e-10
-2.6514e-09
-1.66031e-10
-2.62283e-09
-2.02105e-10
-2.61736e-09
-4.98004e-10
-2.38017e-09
-8.10368e-10
-2.19951e-09
-8.5447e-10
-1.91711e-09
-9.99655e-10
-1.70109e-09
-1.16854e-09
-1.42191e-09
-1.13279e-09
-1.17873e-09
-8.48419e-10
-8.51911e-10
-7.89841e-10
-9.08286e-10
-9.04177e-11
-8.35225e-10
-3.87237e-10
-9.35667e-10
-1.07737e-10
-1.0594e-09
4.41852e-12
-1.16071e-09
1.05082e-10
-1.19888e-09
2.11569e-10
-1.21074e-09
2.80114e-10
-1.21176e-09
2.94008e-10
-1.19562e-09
2.22368e-10
-1.16778e-09
9.31705e-11
-1.15338e-09
-4.73191e-11
-1.11504e-09
-2.26895e-10
-1.0951e-09
-4.37886e-10
-1.05902e-09
-5.44944e-10
-1.05222e-09
-5.85016e-10
-9.96389e-10
-7.18163e-10
-9.09441e-10
-7.92321e-10
-7.95402e-10
-7.40438e-10
-6.96872e-10
-8.8969e-10
-4.48541e-10
-1.09739e-09
-1.60683e-10
-1.30866e-09
7.19755e-11
-1.25603e-09
2.88982e-10
-1.24691e-09
5.14861e-10
-1.10767e-09
7.15173e-10
-9.18709e-10
8.72642e-10
-7.00608e-10
8.41384e-10
-5.185e-10
8.64711e-10
-3.67022e-10
8.6829e-10
3.43248e-11
8.99578e-10
1.52378e-10
8.42154e-10
3.30274e-10
5.9204e-10
6.20483e-10
3.35428e-10
6.09282e-10
1.12339e-16
7.51061e-10
1.75832e-18
2.07978e-18
1.30021e-18
4.13602e-19
1.10164e-18
1.51582e-19
1.00836e-18
1.95076e-20
9.75045e-19
-8.00566e-20
9.8293e-19
-1.67676e-19
1.02093e-18
-2.44506e-19
1.08073e-18
-3.07503e-19
1.15506e-18
-3.54182e-19
1.23748e-18
-3.8275e-19
1.32236e-18
-3.92747e-19
1.40498e-18
-3.84932e-19
1.48149e-18
-3.60971e-19
1.54901e-18
-3.23155e-19
1.60546e-18
-2.74097e-19
1.64937e-18
-2.1647e-19
1.67978e-18
-1.52831e-19
1.69624e-18
-8.55575e-20
1.69883e-18
-1.68003e-20
1.68793e-18
5.16231e-20
1.66412e-18
1.18306e-19
1.62813e-18
1.82231e-19
1.58091e-18
2.4267e-19
1.52365e-18
2.9908e-19
1.45766e-18
3.51063e-19
1.38427e-18
3.98354e-19
1.30473e-18
4.40839e-19
1.22011e-18
4.78568e-19
1.13127e-18
5.11748e-19
1.03879e-18
5.40726e-19
9.43104e-19
5.6593e-19
8.44557e-19
5.87802e-19
7.43529e-19
6.06729e-19
6.40471e-19
6.22997e-19
5.35889e-19
6.36784e-19
4.30285e-19
6.48174e-19
3.24078e-19
6.5719e-19
2.17549e-19
6.63824e-19
1.1081e-19
6.68053e-19
6.69863e-19
-6.88409e-11
5.94164e-10
-1.55108e-10
8.17055e-10
-3.43811e-10
1.08547e-09
-4.91331e-10
1.20654e-09
-5.94615e-10
1.22077e-09
-7.16159e-10
1.18482e-09
-8.96163e-10
1.09688e-09
-1.05652e-09
1.11698e-09
-1.06716e-09
1.06886e-09
-1.10907e-09
1.0537e-09
-1.20931e-09
1.14575e-09
-1.26487e-09
1.08992e-09
-1.29812e-09
1.09536e-09
-1.35842e-09
1.10146e-09
-1.4343e-09
9.7718e-10
-1.49196e-09
8.35664e-10
-1.56231e-09
7.52347e-10
-1.5662e-09
4.55605e-10
-1.54634e-09
3.67606e-10
-1.52901e-09
2.88134e-10
-1.54877e-09
1.96457e-10
-1.59603e-09
1.74644e-10
-1.65526e-09
1.41236e-10
-1.79956e-09
1.80056e-10
-1.97129e-09
1.67574e-10
-2.11354e-09
1.46817e-10
-2.24052e-09
1.8243e-10
-2.32324e-09
1.7031e-10
-2.38917e-09
1.5648e-10
-2.46763e-09
1.71161e-10
-2.51138e-09
1.30696e-10
-2.55505e-09
6.59413e-11
-2.5651e-09
4.84569e-11
-2.58766e-09
6.2738e-11
-2.59674e-09
3.0371e-12
-2.60898e-09
-9.17754e-11
-2.61278e-09
-1.62223e-10
-2.54615e-09
-2.68736e-10
-2.45708e-09
-5.87067e-10
-2.39006e-09
-8.77388e-10
-2.18758e-09
-1.05694e-09
-2.05633e-09
-1.13091e-09
-1.87991e-09
-1.34496e-09
-1.5351e-09
-1.4776e-09
-1.17928e-09
-1.20423e-09
-9.852e-10
-9.83917e-10
-6.18677e-10
-4.56938e-10
-4.37865e-10
-5.68047e-10
-4.87996e-10
-5.76039e-11
-6.25568e-10
1.41992e-10
-7.7136e-10
2.50876e-10
-8.33789e-10
2.74e-10
-8.21315e-10
2.67642e-10
-7.97981e-10
2.70675e-10
-7.67213e-10
1.91601e-10
-7.53307e-10
7.92659e-11
-7.80216e-10
-2.04098e-11
-7.88611e-10
-2.185e-10
-8.12329e-10
-4.14167e-10
-8.44012e-10
-5.13262e-10
-7.98143e-10
-6.30885e-10
-7.3902e-10
-7.77287e-10
-7.22021e-10
-8.09321e-10
-5.39297e-10
-9.23162e-10
-2.99097e-10
-1.12989e-09
-9.56954e-11
-1.30079e-09
1.7366e-10
-1.57802e-09
4.11326e-10
-1.49369e-09
5.85807e-10
-1.42139e-09
7.325e-10
-1.25437e-09
9.05155e-10
-1.09136e-09
9.82603e-10
-7.78056e-10
9.5144e-10
-4.87338e-10
9.31668e-10
-3.47251e-10
9.23652e-10
4.23404e-11
9.04552e-10
1.71476e-10
7.86453e-10
4.48373e-10
6.12742e-10
7.94194e-10
3.32722e-10
8.89301e-10
7.71243e-16
1.08378e-09
9.67733e-19
1.67182e-18
1.0388e-18
3.43117e-19
9.70141e-19
2.19544e-19
9.09349e-19
7.95771e-20
8.87955e-19
-5.94473e-20
9.06479e-19
-1.87208e-19
9.57931e-19
-2.97097e-19
1.03405e-18
-3.84673e-19
1.12649e-18
-4.47632e-19
1.22749e-18
-4.84899e-19
1.33018e-18
-4.96934e-19
1.42894e-18
-4.85556e-19
1.51931e-18
-4.5353e-19
1.59806e-18
-4.04229e-19
1.66308e-18
-3.41281e-19
1.71301e-18
-2.68258e-19
1.74706e-18
-1.88465e-19
1.765e-18
-1.04877e-19
1.76725e-18
-2.01339e-20
1.75461e-18
6.35291e-20
1.72804e-18
1.44382e-19
1.68857e-18
2.2122e-19
1.63733e-18
2.93264e-19
1.57564e-18
3.60027e-19
1.50495e-18
4.21202e-19
1.42675e-18
4.7662e-19
1.34245e-18
5.26236e-19
1.25329e-18
5.70141e-19
1.16025e-18
6.08571e-19
1.064e-18
6.41903e-19
9.64976e-19
6.70615e-19
8.63483e-19
6.95234e-19
7.59797e-19
7.1626e-19
6.54258e-19
7.34105e-19
5.47279e-19
7.4907e-19
4.39301e-19
7.61338e-19
3.30711e-19
7.71003e-19
2.21779e-19
7.78096e-19
1.1262e-19
7.82619e-19
7.84567e-19
-5.97085e-11
6.53873e-10
-1.5376e-10
9.11107e-10
-2.56993e-10
1.1887e-09
-3.82092e-10
1.33164e-09
-5.04977e-10
1.34365e-09
-6.02343e-10
1.28218e-09
-7.105e-10
1.20503e-09
-8.10132e-10
1.21661e-09
-9.81993e-10
1.24072e-09
-1.04306e-09
1.11477e-09
-1.08635e-09
1.18905e-09
-1.15141e-09
1.15498e-09
-1.16977e-09
1.11371e-09
-1.1546e-09
1.08629e-09
-1.20082e-09
1.0234e-09
-1.26916e-09
9.04001e-10
-1.25501e-09
7.38206e-10
-1.3169e-09
5.1749e-10
-1.29337e-09
3.44072e-10
-1.33021e-09
3.24979e-10
-1.3867e-09
2.5295e-10
-1.52194e-09
3.09878e-10
-1.66332e-09
2.82624e-10
-1.80087e-09
3.176e-10
-1.9514e-09
3.18104e-10
-2.11251e-09
3.07928e-10
-2.25168e-09
3.21601e-10
-2.34367e-09
2.62305e-10
-2.40262e-09
2.15424e-10
-2.43574e-09
2.0428e-10
-2.4713e-09
1.6626e-10
-2.46201e-09
5.66481e-11
-2.4429e-09
2.93526e-11
-2.4392e-09
5.90381e-11
-2.42846e-09
-7.70126e-12
-2.42663e-09
-9.35965e-11
-2.4358e-09
-1.53058e-10
-2.37404e-09
-3.3049e-10
-2.29643e-09
-6.64678e-10
-2.35917e-09
-8.14641e-10
-2.18485e-09
-1.23126e-09
-2.08201e-09
-1.23375e-09
-1.93773e-09
-1.48924e-09
-1.82544e-09
-1.58988e-09
-1.4165e-09
-1.61317e-09
-8.63077e-10
-1.53734e-09
-1.50396e-10
-1.16962e-09
-2.073e-10
-5.11142e-10
-1.46851e-10
-1.1805e-10
-7.48624e-11
7.00055e-11
-1.66045e-10
3.42061e-10
-3.46443e-10
4.54399e-10
-4.93339e-10
4.14539e-10
-5.38717e-10
3.16054e-10
-5.02621e-10
1.55507e-10
-4.91522e-10
6.81681e-11
-4.96113e-10
-1.58183e-11
-5.48241e-10
-1.66371e-10
-6.18724e-10
-3.43684e-10
-6.51324e-10
-4.80662e-10
-5.93487e-10
-6.88722e-10
-5.34488e-10
-8.36286e-10
-3.54384e-10
-9.89426e-10
-9.32377e-11
-1.18431e-09
8.91372e-11
-1.31227e-09
2.51325e-10
-1.46298e-09
4.05045e-10
-1.73174e-09
5.6916e-10
-1.65781e-09
7.43802e-10
-1.59603e-09
9.35486e-10
-1.44605e-09
1.02656e-09
-1.18244e-09
1.17783e-09
-9.29325e-10
1.10675e-09
-4.16257e-10
1.07431e-09
-3.14813e-10
1.04588e-09
7.07632e-11
9.56111e-10
2.61247e-10
8.04787e-10
5.99696e-10
6.1499e-10
9.83989e-10
3.62433e-10
1.14186e-09
1.4766e-15
1.44621e-09
8.6714e-19
1.11296e-18
9.15829e-19
2.94449e-19
8.30749e-19
3.01903e-19
7.70874e-19
1.36591e-19
7.6072e-19
-5.20882e-20
7.96918e-19
-2.26324e-19
8.70355e-19
-3.73426e-19
9.7109e-19
-4.87885e-19
1.08923e-18
-5.67687e-19
1.21545e-18
-6.12708e-19
1.34156e-18
-6.24646e-19
1.46096e-18
-6.06732e-19
1.56861e-18
-5.63179e-19
1.66101e-18
-4.98753e-19
1.73611e-18
-4.18337e-19
1.79281e-18
-3.26584e-19
1.83064e-18
-2.27664e-19
1.84974e-18
-1.25193e-19
1.85091e-18
-2.22817e-20
1.83546e-18
7.84582e-20
1.80488e-18
1.74987e-19
1.76061e-18
2.65888e-19
1.70409e-18
3.50308e-19
1.63681e-18
4.27809e-19
1.56037e-18
4.98222e-19
1.47637e-18
5.61539e-19
1.38636e-18
6.1787e-19
1.29172e-18
6.67429e-19
1.19358e-18
7.10546e-19
1.09271e-18
7.47676e-19
9.89595e-19
7.79377e-19
8.84509e-19
8.06265e-19
7.77643e-19
8.28952e-19
6.69223e-19
8.47974e-19
5.59548e-19
8.63751e-19
4.48965e-19
8.76574e-19
3.37804e-19
8.86614e-19
2.26302e-19
8.93958e-19
1.14569e-19
8.98638e-19
9.00673e-19
-5.23274e-12
6.59106e-10
-8.78607e-11
9.93736e-10
-1.97624e-10
1.29846e-09
-3.13973e-10
1.44799e-09
-4.10733e-10
1.44041e-09
-4.81455e-10
1.35291e-09
-5.94415e-10
1.31799e-09
-6.98379e-10
1.32057e-09
-8.11023e-10
1.35337e-09
-8.95589e-10
1.19933e-09
-8.84605e-10
1.17807e-09
-9.16008e-10
1.18638e-09
-9.5244e-10
1.15014e-09
-9.64984e-10
1.09884e-09
-9.38369e-10
9.96784e-10
-9.56615e-10
9.22246e-10
-1.00074e-09
7.82333e-10
-1.14852e-09
6.65263e-10
-1.26163e-09
4.57189e-10
-1.3252e-09
3.88548e-10
-1.49671e-09
4.24462e-10
-1.6194e-09
4.3257e-10
-1.78029e-09
4.43516e-10
-1.91151e-09
4.4882e-10
-1.98945e-09
3.96046e-10
-2.0779e-09
3.96372e-10
-2.15936e-09
4.03064e-10
-2.23307e-09
3.36012e-10
-2.23877e-09
2.21124e-10
-2.22783e-09
1.93345e-10
-2.21202e-09
1.50454e-10
-2.14521e-09
-1.0162e-11
-2.09237e-09
-2.3493e-11
-2.03834e-09
5.00931e-12
-2.01618e-09
-2.98568e-11
-1.97498e-09
-1.34793e-10
-1.96306e-09
-1.64975e-10
-1.91699e-09
-3.76557e-10
-1.93667e-09
-6.44994e-10
-1.895e-09
-8.56313e-10
-1.9442e-09
-1.18206e-09
-1.86653e-09
-1.31141e-09
-1.74052e-09
-1.61525e-09
-1.60582e-09
-1.72458e-09
-1.37275e-09
-1.84624e-09
-1.11855e-09
-1.79154e-09
-9.44394e-10
-1.34377e-09
-5.7857e-10
-8.76963e-10
-1.67483e-10
-5.29136e-10
1.25177e-10
-2.22652e-10
6.06769e-11
4.06562e-10
4.52295e-11
4.69848e-10
1.45709e-12
4.58312e-10
-8.83344e-11
4.05846e-10
-2.05885e-10
2.73058e-10
-3.19858e-10
1.82142e-10
-3.3876e-10
3.08478e-12
-3.77005e-10
-1.28125e-10
-4.29826e-10
-2.90862e-10
-4.12341e-10
-4.98145e-10
-3.09249e-10
-7.91813e-10
-1.4805e-10
-9.97485e-10
-1.1388e-11
-1.12609e-09
7.94121e-11
-1.27511e-09
1.93819e-10
-1.42668e-09
3.60354e-10
-1.62952e-09
4.76626e-10
-1.84801e-09
6.82378e-10
-1.86356e-09
8.72963e-10
-1.78662e-09
1.03556e-09
-1.60865e-09
1.11723e-09
-1.26411e-09
1.22647e-09
-1.03856e-09
1.18017e-09
-3.69952e-10
1.15978e-09
-2.94426e-10
1.09127e-09
1.39267e-10
9.8512e-10
3.67398e-10
8.79985e-10
7.04828e-10
7.90137e-10
1.07384e-09
5.57167e-10
1.37482e-09
1.77185e-15
2.00337e-09
1.71421e-18
4.58858e-18
9.23888e-19
1.08355e-18
6.66015e-19
5.55182e-19
5.82742e-19
2.15063e-19
5.87003e-19
-6.09136e-20
6.50084e-19
-2.94112e-19
7.55896e-19
-4.83889e-19
8.91288e-19
-6.27365e-19
1.04421e-18
-7.23709e-19
1.20351e-18
-7.74276e-19
1.35947e-18
-7.825e-19
1.50452e-18
-7.53517e-19
1.63304e-18
-6.93427e-19
1.74143e-18
-6.08784e-19
1.82786e-18
-5.06044e-19
1.89173e-18
-3.91167e-19
1.93312e-18
-2.69341e-19
1.95266e-18
-1.44898e-19
1.95165e-18
-2.13939e-20
1.93199e-18
9.8279e-20
1.89578e-18
2.11878e-19
1.84503e-18
3.17837e-19
1.78159e-18
4.1525e-19
1.70723e-18
5.03744e-19
1.62369e-18
5.83317e-19
1.5327e-18
6.54185e-19
1.43592e-18
7.16688e-19
1.33484e-18
7.71246e-19
1.23071e-18
8.18357e-19
1.12441e-18
8.58609e-19
1.01648e-18
8.9267e-19
9.07196e-19
9.21262e-19
7.96665e-19
9.45107e-19
6.85e-19
9.64859e-19
5.7237e-19
9.81053e-19
4.59006e-19
9.94086e-19
3.45148e-19
1.00421e-18
2.30981e-19
1.01159e-18
1.16604e-19
1.01628e-18
1.01833e-18
-1.53396e-11
6.74446e-10
-5.7162e-11
1.03556e-09
-1.23051e-10
1.36435e-09
-2.36949e-10
1.56189e-09
-3.74163e-10
1.57763e-09
-5.18763e-10
1.49751e-09
-6.0879e-10
1.40802e-09
-7.0795e-10
1.41973e-09
-7.25831e-10
1.37125e-09
-8.26434e-10
1.29994e-09
-8.6021e-10
1.21185e-09
-8.45615e-10
1.17178e-09
-8.22227e-10
1.12676e-09
-7.80011e-10
1.05662e-09
-7.83813e-10
1.00059e-09
-8.23748e-10
9.62181e-10
-9.45686e-10
9.04271e-10
-1.09363e-09
8.13211e-10
-1.28679e-09
6.50342e-10
-1.49589e-09
5.97654e-10
-1.71744e-09
6.46018e-10
-1.82982e-09
5.4495e-10
-1.88724e-09
5.00932e-10
-1.93831e-09
4.99896e-10
-1.90843e-09
3.66161e-10
-1.91221e-09
4.00153e-10
-1.99684e-09
4.87699e-10
-2.02417e-09
3.63343e-10
-1.89207e-09
8.9018e-11
-1.87907e-09
1.80345e-10
-1.82246e-09
9.38486e-11
-1.77591e-09
-5.67094e-11
-1.73098e-09
-6.84218e-11
-1.65906e-09
-6.69114e-11
-1.61225e-09
-7.66697e-11
-1.60253e-09
-1.44509e-10
-1.54054e-09
-2.26964e-10
-1.54588e-09
-3.71215e-10
-1.60831e-09
-5.82567e-10
-1.68009e-09
-7.8453e-10
-1.75677e-09
-1.10537e-09
-1.74948e-09
-1.3187e-09
-1.72679e-09
-1.63794e-09
-1.65813e-09
-1.79324e-09
-1.60971e-09
-1.89466e-09
-1.51091e-09
-1.89033e-09
-1.12311e-09
-1.73157e-09
-6.87523e-10
-1.31255e-09
-4.21332e-10
-7.95325e-10
-8.52866e-11
-5.58696e-10
1.48985e-10
1.72292e-10
1.98423e-10
4.20412e-10
1.50449e-10
5.06288e-10
8.48658e-11
4.7143e-10
-8.22001e-12
3.66145e-10
-7.88622e-11
2.52786e-10
-1.68208e-10
9.24319e-11
-2.12523e-10
-8.38083e-11
-2.21371e-10
-2.82012e-10
-1.55621e-10
-5.63893e-10
-9.08903e-11
-8.56542e-10
-2.53207e-11
-1.06305e-09
4.56087e-11
-1.19702e-09
1.31869e-10
-1.36137e-09
2.43032e-10
-1.53784e-09
3.26558e-10
-1.71305e-09
4.16349e-10
-1.93781e-09
6.04072e-10
-2.05129e-09
8.11346e-10
-1.99389e-09
1.01778e-09
-1.81508e-09
1.18171e-09
-1.42805e-09
1.2046e-09
-1.06146e-09
1.21851e-09
-3.83859e-10
1.16745e-09
-2.43375e-10
1.05596e-09
2.5076e-10
9.67263e-10
4.56094e-10
7.23588e-10
9.48501e-10
5.9525e-10
1.20217e-09
5.02885e-10
1.46718e-09
1.48252e-15
2.50625e-09
4.23891e-19
4.80837e-18
3.96168e-19
1.10869e-18
3.26485e-19
6.19631e-19
3.07309e-19
2.28977e-19
3.54315e-19
-1.12596e-19
4.60503e-19
-4.05432e-19
6.1242e-19
-6.41178e-19
7.94944e-19
-8.14956e-19
9.93639e-19
-9.26429e-19
1.19529e-18
-9.78845e-19
1.38845e-18
-9.78017e-19
1.56461e-18
-9.31633e-19
1.71768e-18
-8.48235e-19
1.84417e-18
-7.36645e-19
1.94274e-18
-6.05275e-19
2.01355e-18
-4.61663e-19
2.05756e-18
-3.12195e-19
2.07616e-18
-1.62015e-19
2.07133e-18
-1.51234e-20
2.04559e-18
1.25421e-19
2.00174e-18
2.57347e-19
1.94244e-18
3.79111e-19
1.87008e-18
4.89863e-19
1.7868e-18
5.89359e-19
1.69455e-18
6.77808e-19