/*--------------------------------*- C++ -*----------------------------------*\
  =========                 |
  \\      /  F ield         | OpenFOAM: The Open Source CFD Toolbox
   \\    /   O peration     | Website:  https://openfoam.org
    \\  /    A nd           | Version:  6
     \\/     M anipulation  |
\*---------------------------------------------------------------------------*/
FoamFile
{
    version     2.0;
    format      ascii;
    class       volScalarField;
    location    "1000";
    object      Su;
}
// * * * * * * * * * * * * * * * * * * * * * * * * * * * * * * * * * * * * * //

dimensions      [0 0 -1 0 0 0 0];

internalField   nonuniform List<scalar> 
4800
(
0.218474
0.214241
0.21001
0.205797
0.201625
0.197531
0.193555
0.189725
0.186054
0.182555
0.179236
0.176108
0.173177
0.170447
0.167916
0.165577
0.163417
0.161421
0.159574
0.157857
0.156252
0.154742
0.153312
0.151946
0.150632
0.149356
0.148107
0.146879
0.145663
0.144454
0.143245
0.142031
0.140807
0.13957
0.138314
0.137035
0.135728
0.134387
0.133004
0.13157
0.130075
0.128511
0.126868
0.125138
0.123313
0.121392
0.119374
0.11726
0.115053
0.112761
0.110394
0.107965
0.10549
0.102985
0.100467
0.0979514
0.0954449
0.0929532
0.0904775
0.0880101
0.0855397
0.0830586
0.0805635
0.0780428
0.0754766
0.0728574
0.0701786
0.067428
0.0645918
0.0616539
0.0585944
0.0554032
0.052082
0.0486351
0.0450672
0.0413942
0.0376469
0.0338603
0.0300623
0.026261
0.0224341
0.0185982
0.014776
0.0109845
0.00723342
0.00352736
-0.000132092
-0.00374543
-0.00731451
-0.010842
-0.0143311
-0.0177851
-0.0212071
-0.0246005
-0.027968
-0.0313126
-0.0346368
-0.0379428
-0.0412328
-0.0445086
-0.047772
-0.0510244
-0.0542673
-0.0575018
-0.0607289
-0.0639497
-0.0671649
-0.0703753
-0.0735815
-0.0767842
-0.0799837
-0.0831807
-0.0863754
-0.0895682
-0.0927595
-0.0959495
-0.0991385
-0.102327
-0.105514
-0.108702
0.218476
0.214246
0.210017
0.205808
0.201653
0.197588
0.193639
0.18983
0.186176
0.182691
0.179387
0.176274
0.173356
0.170638
0.168118
0.165789
0.163638
0.161651
0.159811
0.158099
0.156499
0.154993
0.153566
0.152203
0.15089
0.149617
0.148371
0.147146
0.145934
0.144729
0.143525
0.142317
0.141101
0.139871
0.138624
0.137354
0.136059
0.13473
0.133361
0.131941
0.130462
0.128911
0.12728
0.125555
0.123733
0.121808
0.119782
0.117658
0.11544
0.113136
0.110758
0.108318
0.105831
0.103315
0.100789
0.0982645
0.0957514
0.0932537
0.0907703
0.0882916
0.085809
0.0833176
0.0808118
0.0782809
0.0757067
0.0730835
0.0704048
0.0676579
0.0648284
0.0619006
0.0588531
0.0556768
0.0523743
0.0489436
0.0453804
0.0417004
0.0379389
0.0341115
0.0302256
0.0263351
0.0224544
0.0185894
0.0147503
0.0109492
0.00719303
0.00348503
-0.000174328
-0.00378626
-0.00735315
-0.010878
-0.0143643
-0.0178154
-0.0212347
-0.0246254
-0.0279905
-0.0313329
-0.034655
-0.0379591
-0.0412474
-0.0445218
-0.0477838
-0.051035
-0.0542767
-0.0575102
-0.0607365
-0.0639564
-0.0671709
-0.0703806
-0.0735862
-0.0767883
-0.0799873
-0.0831838
-0.086378
-0.0895705
-0.0927613
-0.095951
-0.0991396
-0.102328
-0.105515
-0.108702
0.218485
0.214274
0.210071
0.205888
0.201755
0.197718
0.193805
0.190028
0.186406
0.182955
0.179684
0.1766
0.17371
0.171017
0.168519
0.16621
0.164078
0.162107
0.160281
0.15858
0.15699
0.155492
0.154072
0.152715
0.151408
0.150139
0.148898
0.147679
0.146474
0.145277
0.144082
0.142887
0.141684
0.140469
0.13924
0.137991
0.136718
0.135413
0.134072
0.13268
0.131228
0.129703
0.128091
0.126379
0.12456
0.122629
0.120589
0.118447
0.116207
0.11388
0.111478
0.109015
0.106505
0.103972
0.10143
0.0988918
0.0963652
0.093853
0.0913504
0.088848
0.086343
0.0838294
0.0812984
0.0787401
0.076142
0.0735057
0.0708176
0.0680624
0.0652259
0.0622929
0.059245
0.0560754
0.0527816
0.0493494
0.0457724
0.0420597
0.0382222
0.0343018
0.0303584
0.0264149
0.02247
0.0185594
0.0146915
0.0108738
0.00710918
0.00339833
-0.000260129
-0.00386876
-0.00743089
-0.0109503
-0.0144307
-0.017876
-0.0212897
-0.0246751
-0.0280354
-0.0313733
-0.0346913
-0.0379917
-0.0412767
-0.044548
-0.0478073
-0.051056
-0.0542956
-0.057527
-0.0607515
-0.0639698
-0.0671828
-0.0703912
-0.0735956
-0.0767965
-0.0799945
-0.08319
-0.0863834
-0.089575
-0.0927651
-0.095954
-0.0991419
-0.102329
-0.105516
-0.108702
0.218495
0.214307
0.210135
0.205999
0.201921
0.19793
0.19406
0.190329
0.186752
0.183344
0.180116
0.177075
0.174224
0.171568
0.169104
0.166823
0.164717
0.162768
0.160961
0.159278
0.157702
0.156218
0.154809
0.153463
0.152165
0.150904
0.149672
0.148462
0.147269
0.146086
0.144908
0.14373
0.142547
0.141355
0.140152
0.138932
0.137692
0.136423
0.135121
0.133767
0.132352
0.13086
0.129276
0.127581
0.125767
0.123829
0.12177
0.119606
0.117336
0.114976
0.112539
0.11004
0.107501
0.104944
0.102382
0.0998246
0.0972773
0.0947399
0.0922066
0.0896707
0.08713
0.0845794
0.0820099
0.0794081
0.0767724
0.0741094
0.0713969
0.068619
0.0657624
0.0628042
0.0597296
0.0565371
0.053218
0.0497568
0.0461542
0.0424201
0.0385685
0.0346186
0.0305918
0.0265168
0.022462
0.0184909
0.0145876
0.01075
0.00697617
0.00326345
-0.000391984
-0.00399445
-0.00754861
-0.0110591
-0.0145305
-0.0179668
-0.021372
-0.0247494
-0.0281023
-0.0314334
-0.0347453
-0.0380402
-0.0413201
-0.0445869
-0.0478422
-0.0510873
-0.0543235
-0.0575521
-0.0607738
-0.0639897
-0.0672005
-0.0704069
-0.0736095
-0.0768088
-0.0800052
-0.0831993
-0.0863914
-0.0895817
-0.0927707
-0.0959585
-0.0991454
-0.102332
-0.105517
-0.108703
0.218507
0.214345
0.210205
0.206115
0.202102
0.198185
0.194382
0.190711
0.187193
0.183842
0.180668
0.177679
0.174879
0.17227
0.169847
0.167602
0.165527
0.163606
0.161824
0.160162
0.158606
0.157138
0.155744
0.15441
0.153124
0.151877
0.150659
0.149465
0.148289
0.147127
0.145972
0.14482
0.143665
0.142503
0.141334
0.140151
0.138949
0.137723
0.136468
0.135163
0.133791
0.132336
0.130786
0.129113
0.127306
0.125364
0.123288
0.121102
0.118798
0.116396
0.113914
0.111373
0.108799
0.106212
0.103624
0.101042
0.0984675
0.0958973
0.0933269
0.0907487
0.0881591
0.0855555
0.0829298
0.0802734
0.0775929
0.0748861
0.0721337
0.069314
0.0664078
0.0633947
0.0602699
0.0570282
0.0536533
0.0501354
0.0464802
0.0426948
0.038788
0.0347654
0.0306546
0.0265019
0.0223805
0.0183588
0.0144227
0.0105671
0.00678669
0.00307544
-0.000573081
-0.00416527
-0.00770733
-0.011205
-0.0146635
-0.0180875
-0.021481
-0.0248477
-0.0281907
-0.0315128
-0.0348165
-0.0381041
-0.0413774
-0.0446383
-0.0478882
-0.0511285
-0.0543604
-0.057585
-0.0608032
-0.0640159
-0.0672238
-0.0704276
-0.0736278
-0.0768249
-0.0800193
-0.0832115
-0.0864019
-0.0895906
-0.092778
-0.0959644
-0.0991499
-0.102335
-0.105519
-0.108703
0.218531
0.214418
0.210333
0.206302
0.20235
0.198498
0.194765
0.191166
0.187718
0.184435
0.181325
0.178398
0.175657
0.173098
0.170721
0.168519
0.16648
0.164594
0.162842
0.161205
0.159671
0.158222
0.156845
0.155527
0.154257
0.153027
0.151828
0.150656
0.149507
0.148373
0.14725
0.146133
0.145014
0.14389
0.142761
0.141622
0.140466
0.139289
0.138087
0.136834
0.135508
0.134095
0.132577
0.130925
0.129125
0.127185
0.125094
0.12289
0.12055
0.118102
0.115572
0.112986
0.110373
0.107749
0.105127
0.102508
0.0998929
0.0972774
0.0946567
0.0920222
0.0893723
0.0867069
0.0840199
0.0813072
0.0785716
0.0758038
0.0729888
0.0701006
0.0671235
0.0640425
0.0608487
0.0575305
0.0540734
0.0504734
0.0467386
0.0428763
0.0388899
0.0347863
0.0305986
0.0263831
0.0222095
0.0181453
0.0141822
0.0103141
0.00653276
0.00282895
-0.000806757
-0.00438306
-0.00790786
-0.0113881
-0.0148296
-0.0182376
-0.0216162
-0.0249692
-0.0282998
-0.0316107
-0.0349043
-0.0381828
-0.0414479
-0.0447014
-0.0479447
-0.0511791
-0.0544057
-0.0576255
-0.0608394
-0.0640481
-0.0672525
-0.070453
-0.0736502
-0.0768446
-0.0800366
-0.0832266
-0.0864148
-0.0896015
-0.0927871
-0.0959717
-0.0991555
-0.102339
-0.105522
-0.108704
0.218572
0.214539
0.210528
0.206566
0.202682
0.198898
0.195231
0.191699
0.188321
0.185112
0.182073
0.179213
0.176533
0.174033
0.171708
0.169552
0.167554
0.165705
0.163984
0.162376
0.160866
0.159439
0.158082
0.156784
0.155537
0.154332
0.153161
0.152023
0.150909
0.149814
0.148733
0.147659
0.146584
0.145505
0.144422
0.143331
0.142226
0.141102
0.139954
0.138752
0.137471
0.136093
0.134603
0.132973
0.131183
0.129242
0.127139
0.124916
0.122538
0.120048
0.117471
0.114839
0.11218
0.109511
0.106841
0.104172
0.1015
0.0988235
0.096138
0.0934363
0.0907198
0.0879877
0.0852314
0.0824518
0.0796479
0.0768035
0.0739036
0.0709259
0.0678584
0.0646875
0.0614036
0.0579933
0.0544432
0.0507524
0.0469279
0.042976
0.0389001
0.0347153
0.0304536
0.0261709
0.0219392
0.0178356
0.0138519
0.00997966
0.00620647
0.0025189
-0.00109588
-0.00464911
-0.00815045
-0.0116079
-0.0150279
-0.018416
-0.0217764
-0.025113
-0.0284286
-0.0317262
-0.0350078
-0.0382754
-0.0415309
-0.0447757
-0.0480112
-0.0512386
-0.0544589
-0.0576731
-0.0608818
-0.064086
-0.0672862
-0.0704829
-0.0736767
-0.0768679
-0.080057
-0.0832442
-0.0864299
-0.0896144
-0.0927977
-0.0959802
-0.0991621
-0.102343
-0.105524
-0.108705
0.218616
0.21467
0.210744
0.206864
0.203058
0.199351
0.195763
0.192308
0.189003
0.185865
0.182898
0.180108
0.177494
0.175055
0.172785
0.170676
0.168721
0.166909
0.16522
0.163641
0.162158
0.160757
0.159429
0.158163
0.156951
0.155785
0.154655
0.153561
0.152495
0.151448
0.150416
0.149393
0.148368
0.147338
0.146305
0.145265
0.14421
0.143139
0.142041
0.140883
0.139646
0.1383
0.136836
0.135222
0.133443
0.131502
0.129391
0.127126
0.124707
0.122182
0.119562
0.116881
0.114167
0.111439
0.108709
0.105974
0.103233
0.100485
0.0977253
0.0949503
0.0921623
0.0893552
0.0865225
0.0836631
0.0807663
0.0778189
0.07481
0.0717217
0.0685478
0.0652759
0.0618918
0.0583834
0.0547372
0.0509507
0.047031
0.0429821
0.0388125
0.034542
0.0302033
0.0258488
0.0215519
0.0174114
0.0134165
0.00955251
0.00580046
0.00214123
-0.00144213
-0.00496356
-0.00843429
-0.0118631
-0.015257
-0.0186212
-0.0219602
-0.0252775
-0.0285759
-0.031858
-0.0351258
-0.0383811
-0.0416255
-0.0448604
-0.048087
-0.0513064
-0.0545195
-0.0577272
-0.0609302
-0.0641291
-0.0673245
-0.0705169
-0.0737068
-0.0768944
-0.0800802
-0.0832644
-0.0864472
-0.089629
-0.0928098
-0.09599
-0.0991695
-0.102349
-0.105528
-0.108706
0.218663
0.214811
0.210976
0.207184
0.203464
0.199842
0.196337
0.192965
0.189743
0.186685
0.183796
0.181079
0.178533
0.176154
0.173939
0.171879
0.169965
0.168186
0.16653
0.164984
0.163534
0.162171
0.160886
0.159667
0.158506
0.157391
0.156314
0.155274
0.154264
0.153271
0.152294
0.151326
0.150353
0.149374
0.148391
0.1474
0.146393
0.14537
0.144314
0.143195
0.141997
0.14068
0.13924
0.13764
0.135867
0.13391
0.131761
0.129448
0.127002
0.124443
0.121774
0.119045
0.11628
0.113492
0.110689
0.107874
0.105053
0.102225
0.0993866
0.0965344
0.093667
0.0907727
0.0878431
0.0848727
0.0818553
0.0787851
0.0756517
0.0724428
0.0691537
0.0657705
0.062278
0.0586648
0.0549179
0.0510342
0.047016
0.0428677
0.0386032
0.0342462
0.0298274
0.0253926
0.0210201
0.0168486
0.0128577
0.00902101
0.00530868
0.00169384
-0.00184515
-0.00532469
-0.00875705
-0.0121513
-0.0155142
-0.0188509
-0.0221654
-0.0254609
-0.0287399
-0.0320047
-0.035257
-0.0384985
-0.0417306
-0.0449545
-0.0481712
-0.0513817
-0.0545869
-0.0577874
-0.0609839
-0.064177
-0.0673671
-0.0705548
-0.0737402
-0.0769238
-0.0801059
-0.0832867
-0.0864664
-0.0896452
-0.0928233
-0.0960008
-0.0991778
-0.102355
-0.105531
-0.108707
0.218711
0.214955
0.211215
0.207517
0.203887
0.200353
0.196937
0.193657
0.190527
0.187557
0.184748
0.182106
0.179629
0.177314
0.175153
0.17314
0.171266
0.169526
0.167911
0.166405
0.165001
0.163693
0.162468
0.16131
0.160213
0.159157
0.158136
0.157156
0.156207
0.155268
0.154345
0.153429
0.152508
0.151578
0.150642
0.149697
0.148735
0.147751
0.146729
0.145642
0.144472
0.143182
0.141759
0.140167
0.13839
0.136416
0.134245
0.1319
0.12941
0.126799
0.124074
0.121292
0.118465
0.115609
0.112731
0.109837
0.106933
0.10402
0.101096
0.0981561
0.0951911
0.0921861
0.0891352
0.086037
0.0828872
0.0796797
0.076408
0.0730666
0.0696506
0.0661476
0.0625428
0.0588199
0.0549702
0.0509869
0.0468663
0.0426141
0.0382436
0.0337792
0.0292639
0.024748
0.0203006
0.0161131
0.0121535
0.00837409
0.00472784
0.00117803
-0.0023014
-0.00572815
-0.00911435
-0.0124684
-0.0157962
-0.0191021
-0.0223895
-0.025661
-0.0289188
-0.0321646
-0.0354
-0.0386265
-0.0418451
-0.0450569
-0.0482629
-0.0514637
-0.0546602
-0.0578529
-0.0610424
-0.0642292
-0.0674135
-0.0705959
-0.0737766
-0.0769559
-0.080134
-0.083311
-0.0864873
-0.0896629
-0.092838
-0.0960126
-0.0991869
-0.102361
-0.105535
-0.108709
0.218761
0.215101
0.211457
0.207855
0.204325
0.200891
0.197575
0.194393
0.19136
0.188481
0.185757
0.18319
0.180781
0.178526
0.176419
0.174454
0.172628
0.170934
0.16937
0.167921
0.166581
0.165344
0.164189
0.1631
0.162072
0.161078
0.160116
0.159193
0.1583
0.157411
0.156536
0.155668
0.154794
0.153913
0.153022
0.15212
0.151197
0.150245
0.149249
0.148188
0.147043
0.145773
0.14436
0.142774
0.140994
0.139011
0.136822
0.13444
0.131899
0.129232
0.126447
0.123597
0.120701
0.117771
0.114815
0.111837
0.108843
0.105841
0.102823
0.09978
0.0966987
0.0935672
0.0903831
0.0871469
0.0838549
0.0805021
0.0770858
0.0736031
0.070049
0.0664136
0.062684
0.0588456
0.05489
0.0508066
0.0465836
0.042225
0.0377467
0.0331613
0.0285094
0.0238732
0.0193346
0.0151578
0.0112784
0.0076038
0.00406028
0.000600697
-0.00280274
-0.00616619
-0.00949943
-0.0128087
-0.0160981
-0.0193708
-0.0226292
-0.0258751
-0.0291101
-0.0323358
-0.0355532
-0.0387636
-0.0419678
-0.0451667
-0.0483611
-0.0515516
-0.0547388
-0.0579231
-0.0611051
-0.064285
-0.0674632
-0.07064
-0.0738156
-0.0769902
-0.080164
-0.0833371
-0.0865097
-0.0896819
-0.0928537
-0.0960252
-0.0991966
-0.102368
-0.105539
-0.10871
0.21881
0.21525
0.211708
0.208213
0.204793
0.20147
0.198261
0.19518
0.192241
0.189449
0.186808
0.184318
0.181978
0.179786
0.177738
0.17583
0.174059
0.172424
0.170924
0.169546
0.168283
0.167126
0.166048
0.165031
0.164072
0.16314
0.162234
0.161361
0.160513
0.159671
0.158841
0.158016
0.157188
0.15635
0.1555
0.154638
0.153749
0.152821
0.151847
0.150806
0.149675
0.148419
0.147009
0.145423
0.143641
0.141651
0.139448
0.137039
0.134452
0.131717
0.128864
0.125935
0.122961
0.119949
0.116907
0.113842
0.110756
0.107658
0.104535
0.101379
0.0981734
0.0949102
0.0915886
0.0882085
0.0847672
0.0812629
0.0776965
0.074065
0.0703629
0.0665832
0.0627157
0.0587507
0.0546832
0.0504929
0.0461649
0.0417017
0.0371093
0.0323913
0.0275729
0.0227312
0.0180189
0.0139123
0.0102067
0.00671188
0.00331911
-2.26552e-05
-0.00333505
-0.00662711
-0.00990295
-0.0131648
-0.0164143
-0.0196525
-0.0228808
-0.0261001
-0.0293116
-0.0325161
-0.0357147
-0.0389082
-0.0420973
-0.0452826
-0.0484648
-0.0516443
-0.0548217
-0.0579972
-0.0611712
-0.0643439
-0.0675156
-0.0706865
-0.0738567
-0.0770264
-0.0801957
-0.0833646
-0.0865333
-0.0897019
-0.0928703
-0.0960386
-0.0992068
-0.102375
-0.105543
-0.108711
0.218867
0.215421
0.211995
0.208615
0.205307
0.202092
0.198989
0.196011
0.193168
0.190467
0.18791
0.185497
0.183229
0.181103
0.179119
0.177276
0.175571
0.174007
0.172581
0.171285
0.170107
0.169035
0.168036
0.167091
0.166194
0.165318
0.164464
0.163633
0.162824
0.162025
0.161236
0.16045
0.159662
0.158862
0.158051
0.157222
0.15636
0.155455
0.154496
0.153466
0.152343
0.151092
0.14968
0.148093
0.146311
0.144317
0.142103
0.13967
0.137033
0.134231
0.131304
0.128285
0.125214
0.122106
0.118968
0.115808
0.112627
0.109426
0.106193
0.102918
0.0995872
0.0961945
0.0927382
0.0892153
0.0856268
0.0819761
0.0782634
0.0744814
0.0706239
0.0666861
0.0626632
0.0585536
0.0543538
0.0500488
0.0456194
0.0410474
0.0363153
0.0314082
0.02634
0.021166
0.0161118
0.0122744
0.00893137
0.005726
0.00253682
-0.000664515
-0.00387732
-0.00709537
-0.0103134
-0.0135283
-0.0167381
-0.0199421
-0.0231403
-0.0263329
-0.0295204
-0.0327035
-0.0358827
-0.0390587
-0.0422321
-0.0454034
-0.0485729
-0.051741
-0.0549081
-0.0580744
-0.0612401
-0.0644054
-0.0675703
-0.070735
-0.0738996
-0.0770642
-0.0802287
-0.0833933
-0.086558
-0.0897227
-0.0928875
-0.0960525
-0.0992175
-0.102383
-0.105548
-0.108713
0.218923
0.215596
0.212296
0.209039
0.205849
0.202748
0.199754
0.19688
0.194137
0.19153
0.18906
0.186727
0.184534
0.182481
0.180569
0.1788
0.177173
0.175689
0.174347
0.173137
0.172047
0.171057
0.170132
0.169252
0.168408
0.167584
0.166776
0.165986
0.165213
0.164452
0.163698
0.162947
0.162194
0.161426
0.160647
0.159846
0.159007
0.158119
0.15717
0.156147
0.155027
0.153776
0.152359
0.15077
0.148985
0.146987
0.144761
0.142301
0.139621
0.136752
0.133736
0.130615
0.127433
0.124214
0.120969
0.117704
0.114418
0.111109
0.107765
0.104371
0.100919
0.0974033
0.0938243
0.0901758
0.0864581
0.0826734
0.0788163
0.0748778
0.070856
0.0667525
0.062569
0.0583087
0.053971
0.0495477
0.0450114
0.0403325
0.035465
0.0303453
0.0249155
0.019088
0.0130214
0.010169
0.00753378
0.00473287
0.00177583
-0.00128392
-0.00440287
-0.00755315
-0.0107185
-0.0138901
-0.0170628
-0.0202344
-0.0234036
-0.0265701
-0.029734
-0.0328955
-0.0360552
-0.0392136
-0.0423709
-0.0455277
-0.0486842
-0.0518407
-0.0549972
-0.058154
-0.0613111
-0.0644687
-0.0676266
-0.070785
-0.0739438
-0.0771031
-0.0802628
-0.0834229
-0.0865833
-0.0897442
-0.0929054
-0.0960668
-0.0992285
-0.10239
-0.105552
-0.108714
0.218988
0.215789
0.212613
0.20948
0.206413
0.203432
0.200554
0.197791
0.195153
0.192641
0.19026
0.188011
0.185898
0.183924
0.182092
0.180406
0.178864
0.177464
0.17621
0.175088
0.174083
0.173169
0.172308
0.171485
0.170688
0.16991
0.169145
0.168394
0.167657
0.166929
0.166208
0.165487
0.164762
0.164023
0.163268
0.162489
0.161667
0.160794
0.159853
0.158835
0.157714
0.156455
0.155034
0.153438
0.151642
0.149634
0.147392
0.144906
0.142182
0.139243
0.13613
0.132899
0.129598
0.126257
0.122892
0.119512
0.116117
0.112697
0.109241
0.105736
0.102174
0.098554
0.094869
0.0911124
0.0872829
0.0833755
0.0793771
0.0752793
0.0710859
0.0668091
0.0624619
0.0580531
0.0535818
0.0490442
0.0444124
0.0396451
0.034675
0.0293837
0.0235778
0.0167073
0.00382382
0.00792911
0.0063493
0.00391498
0.00112799
-0.00183311
-0.0048849
-0.00798391
-0.0111071
-0.0142421
-0.0173824
-0.0205246
-0.0236668
-0.0268085
-0.0299494
-0.0330899
-0.0362303
-0.039371
-0.0425122
-0.0456544
-0.0487977
-0.0519422
-0.055088
-0.0582351
-0.0613835
-0.0645332
-0.067684
-0.0708359
-0.0739888
-0.0771427
-0.0802974
-0.083453
-0.0866092
-0.0897661
-0.0929235
-0.0960814
-0.0992397
-0.102398
-0.105557
-0.108716
0.219055
0.215987
0.212941
0.209938
0.206999
0.204143
0.201383
0.198732
0.196198
0.193786
0.191498
0.189337
0.187311
0.185423
0.183681
0.182085
0.180633
0.179324
0.17816
0.177126
0.176198
0.175345
0.174537
0.173762
0.173009
0.172274
0.171551
0.170838
0.170134
0.169439
0.168746
0.168052
0.167352
0.166635
0.1659
0.165138
0.164331
0.163469
0.162536
0.161521
0.160394
0.159127
0.157697
0.156084
0.154269
0.152243
0.149981
0.147466
0.144696
0.141684
0.138472
0.135125
0.131698
0.128228
0.124736
0.121234
0.117725
0.114195
0.110635
0.107034
0.103381
0.0996724
0.0958963
0.0920441
0.088109
0.0840747
0.0799271
0.0756644
0.0712961
0.0668455
0.0623397
0.0577924
0.0532056
0.0485747
0.0438719
0.0390528
0.0340532
0.0287734
0.0231294
0.0171181
0.0112639
0.00858198
0.00612681
0.00349041
0.00066907
-0.00228052
-0.00530729
-0.00837754
-0.0114716
-0.0145784
-0.0176918
-0.0208083
-0.0239263
-0.027045
-0.0301643
-0.0332845
-0.036406
-0.0395292
-0.0426545
-0.0457821
-0.0489121
-0.0520446
-0.0551796
-0.058317
-0.0614566
-0.0645982
-0.0677418
-0.0708872
-0.0740342
-0.0771827
-0.0803324
-0.0834833
-0.0866353
-0.0897882
-0.0929418
-0.0960961
-0.099251
-0.102406
-0.105562
-0.108718
0.219121
0.216185
0.213272
0.210403
0.207597
0.204868
0.202228
0.199689
0.197261
0.19495
0.192759
0.190696
0.188766
0.186974
0.185324
0.183821
0.182462
0.181247
0.180172
0.179213
0.178347
0.177546
0.176786
0.176056
0.175348
0.174655
0.173972
0.173296
0.172627
0.171963
0.1713
0.170632
0.169954
0.16926
0.168542
0.167795
0.167002
0.166151
0.165226
0.164209
0.163073
0.161792
0.160343
0.158706
0.156869
0.154822
0.152534
0.149984
0.147158
0.14407
0.140753
0.137285
0.13373
0.130128
0.126507
0.122882
0.119258
0.115623
0.111969
0.108283
0.10455
0.10076
0.0968976
0.0929513
0.0889056
0.084735
0.0804243
0.0759807
0.0714327
0.0668235
0.0621795
0.0575164
0.0528359
0.0481365
0.0433922
0.0385623
0.0336001
0.0284524
0.0231262
0.0177716
0.0129344
0.0093205
0.00624533
0.0033059
0.000354154
-0.00264146
-0.00567489
-0.00873426
-0.0118101
-0.0148959
-0.0179875
-0.0210823
-0.0241789
-0.0272767
-0.030376
-0.033477
-0.0365805
-0.0396868
-0.0427964
-0.0459095
-0.0490264
-0.052147
-0.0552711
-0.0583987
-0.0615295
-0.0646632
-0.0677996
-0.0709385
-0.0740795
-0.0772225
-0.0803673
-0.0835136
-0.0866613
-0.0898102
-0.0929601
-0.0961108
-0.0992622
-0.102414
-0.105567
-0.108719
0.219182
0.216373
0.213592
0.210858
0.208185
0.205583
0.203065
0.200642
0.198325
0.196119
0.19403
0.192068
0.190237
0.188541
0.186988
0.185582
0.184319
0.183194
0.182197
0.181306
0.180495
0.179741
0.179026
0.17834
0.177676
0.177025
0.176383
0.175747
0.175116
0.174488
0.173857
0.17322
0.17257
0.171901
0.171205
0.170475
0.169695
0.168855
0.167932
0.16691
0.16576
0.164461
0.162991
0.161333
0.159477
0.157403
0.15508
0.152485
0.149593
0.146415
0.142987
0.139391
0.135705
0.131975
0.128229
0.124488
0.120756
0.117025
0.113283
0.109519
0.105708
0.101836
0.0978838
0.093833
0.0896527
0.0853153
0.0808168
0.0761787
0.0714521
0.0666845
0.0619153
0.0571584
0.0524106
0.0476691
0.042911
0.0381032
0.0332216
0.0282425
0.0231996
0.0182471
0.0136885
0.0097696
0.00634214
0.00316408
8.59567e-05
-0.00296264
-0.00600937
-0.00906314
-0.0121252
-0.0151941
-0.0182677
-0.0213439
-0.0244219
-0.0275012
-0.0305822
-0.0336654
-0.0367518
-0.0398419
-0.0429363
-0.0460354
-0.0491394
-0.0522482
-0.0553617
-0.0584796
-0.0616017
-0.0647275
-0.0678568
-0.0709892
-0.0741243
-0.077262
-0.0804018
-0.0835436
-0.086687
-0.0898319
-0.0929781
-0.0961253
-0.0992734
-0.102422
-0.105571
-0.108721
0.21924
0.216549
0.213894
0.211289
0.208744
0.206269
0.203874
0.201568
0.199362
0.197264
0.19528
0.193419
0.191685
0.190086
0.188631
0.18732
0.186147
0.185107
0.184184
0.183352
0.182591
0.181883
0.181214
0.180574
0.179955
0.17935
0.178755
0.178165
0.17758
0.176997
0.176409
0.175811
0.175197
0.17456
0.173892
0.173182
0.172419
0.171589
0.170671
0.169645
0.168487
0.167177
0.165696
0.164024
0.162146
0.160037
0.15767
0.155016
0.152041
0.148758
0.145207
0.141474
0.137658
0.133806
0.129949
0.126106
0.122282
0.118467
0.114647
0.110805
0.106908
0.102942
0.0988812
0.0946911
0.0903297
0.0857843
0.0810691
0.0762202
0.0712978
0.0663697
0.0614832
0.056647
0.0518512
0.0470875
0.0423386
0.037575
0.03278
0.0279448
0.0231121
0.0183773
0.0138848
0.0098175
0.00620969
0.0029063
-0.000232294
-0.00329733
-0.00633809
-0.00937708
-0.0124221
-0.0154741
-0.0185311
-0.0215912
-0.024653
-0.027716
-0.0307806
-0.0338477
-0.0369182
-0.039993
-0.043073
-0.0461585
-0.04925
-0.0523474
-0.0554504
-0.0585589
-0.0616724
-0.0647905
-0.0679128
-0.0710388
-0.0741682
-0.0773006
-0.0804355
-0.0835728
-0.0867122
-0.0898532
-0.0929957
-0.0961395
-0.0992842
-0.10243
-0.105576
-0.108722
0.219291
0.216707
0.214164
0.211675
0.209249
0.206893
0.204615
0.202425
0.200332
0.198341
0.196461
0.1947
0.193065
0.191565
0.190203
0.188981
0.187893
0.186929
0.186068
0.185292
0.184582
0.183923
0.183303
0.182712
0.182145
0.181594
0.181056
0.180526
0.18
0.179475
0.178944
0.1784
0.177836
0.177244
0.176614
0.175936
0.175198
0.174385
0.173479
0.17246
0.171307
0.169997
0.168511
0.166827
0.164925
0.162781
0.160366
0.157641
0.154567
0.15116
0.147468
0.143588
0.139648
0.135691
0.131742
0.127819
0.12392
0.120034
0.11614
0.112216
0.108223
0.104144
0.0999333
0.095542
0.0909418
0.0861398
0.0811644
0.0760718
0.0709325
0.0658275
0.060815
0.055901
0.0510692
0.0462975
0.0415681
0.0368498
0.0321244
0.0273869
0.0226664
0.0180208
0.0135192
0.00935796
0.00570638
0.00241788
-0.000675441
-0.00368895
-0.00668424
-0.0096874
-0.0127054
-0.0157367
-0.018777
-0.0218223
-0.02487
-0.027919
-0.0309693
-0.0340219
-0.0370779
-0.0401386
-0.0432049
-0.0462777
-0.0493572
-0.0524435
-0.0555364
-0.0586357
-0.0617409
-0.0648515
-0.067967
-0.0710869
-0.0742107
-0.0773379
-0.0804682
-0.0836012
-0.0867365
-0.0898738
-0.0930128
-0.0961532
-0.0992947
-0.102437
-0.10558
-0.108724
0.219332
0.216834
0.214381
0.211987
0.209661
0.207408
0.205238
0.203157
0.20117
0.199285
0.197508
0.195846
0.19431
0.192904
0.191631
0.190493
0.189481
0.188583
0.187783
0.187066
0.186412
0.185807
0.185242
0.184711
0.184207
0.183725
0.18326
0.182806
0.182358
0.18191
0.181455
0.180983
0.180487
0.179957
0.179382
0.178751
0.178051
0.177269
0.176388
0.175388
0.174248
0.172946
0.171461
0.169769
0.16785
0.165673
0.163207
0.160402
0.157216
0.153668
0.149828
0.145815
0.141773
0.137738
0.133726
0.129746
0.125792
0.121845
0.117878
0.113862
0.109754
0.105523
0.101098
0.0964411
0.0915424
0.0864228
0.0811295
0.0757357
0.070332
0.0650104
0.0598424
0.0548383
0.0499706
0.0451943
0.0404792
0.0358011
0.0311328
0.0264641
0.0218041
0.0171666
0.0125465
0.00823557
0.00469619
0.00161309
-0.00129061
-0.0041619
-0.00705998
-0.00999973
-0.0129771
-0.015982
-0.0190042
-0.0220355
-0.025071
-0.028108
-0.0311462
-0.0341861
-0.0372293
-0.0402772
-0.043331
-0.0463917
-0.0494599
-0.0525357
-0.055619
-0.0587095
-0.0618067
-0.0649101
-0.068019
-0.071133
-0.0742513
-0.0773737
-0.0804995
-0.0836283
-0.0867597
-0.0898934
-0.093029
-0.0961663
-0.0993048
-0.102444
-0.105584
-0.108725
0.219355
0.216902
0.214498
0.212164
0.20991
0.207743
0.205667
0.203684
0.2018
0.200017
0.198342
0.19678
0.195339
0.194023
0.192834
0.191774
0.190834
0.190004
0.189271
0.188619
0.188029
0.187491
0.186998
0.186543
0.186122
0.185727
0.185355
0.184997
0.184647
0.184297
0.183937
0.183557
0.183147
0.182695
0.182189
0.181616
0.180965
0.180223
0.179376
0.178406
0.177289
0.176008
0.174535
0.17285
0.170926
0.168727
0.166213
0.163317
0.160015
0.156341
0.152378
0.148271
0.14417
0.140098
0.13606
0.132054
0.128068
0.124073
0.120033
0.115915
0.111672
0.107237
0.102535
0.0975419
0.0922705
0.0867684
0.0811029
0.0753559
0.0696307
0.0640395
0.0586628
0.0535125
0.0485571
0.043744
0.0390267
0.0343807
0.0297582
0.0251263
0.0204432
0.0156769
0.010741
0.00608006
0.00299945
0.000439472
-0.0020839
-0.00471193
-0.00746122
-0.0103115
-0.0132356
-0.0162087
-0.0192111
-0.0222292
-0.0252541
-0.0282814
-0.0313095
-0.0343388
-0.0373709
-0.0404073
-0.0434498
-0.0464994
-0.0495571
-0.052623
-0.0556972
-0.0587794
-0.0618691
-0.0649656
-0.0680683
-0.0711766
-0.0742899
-0.0774075
-0.080529
-0.0836539
-0.0867817
-0.089912
-0.0930444
-0.0961786
-0.0993142
-0.102451
-0.105588
-0.108726
0.21934
0.216862
0.214445
0.212117
0.209894
0.207782
0.205782
0.20389
0.202105
0.200426
0.198855
0.197395
0.196052
0.194829
0.193729
0.192752
0.191894
0.191148
0.190499
0.18993
0.189427
0.18898
0.188583
0.18823
0.187915
0.187632
0.187375
0.187133
0.186897
0.186658
0.186403
0.186122
0.185802
0.185429
0.184991
0.184472
0.183864
0.183157
0.182339
0.181395
0.1803
0.17904
0.177588
0.175921
0.174008
0.171805
0.169262
0.166302
0.162915
0.159149
0.155122
0.151018
0.146956
0.142928
0.138928
0.134946
0.130963
0.126939
0.122834
0.118612
0.114209
0.109525
0.104494
0.0991017
0.0933851
0.0874229
0.0813109
0.0751567
0.0690647
0.0631383
0.0574745
0.0520905
0.0469498
0.0420074
0.0372179
0.0325553
0.0279481
0.0233216
0.0185596
0.0134981
0.00779562
0.00193091
0.000441636
-0.00104299
-0.00298249
-0.00529391
-0.00786505
-0.0106123
-0.0134762
-0.0164143
-0.0193964
-0.0224019
-0.025418
-0.0284376
-0.0314578
-0.0344786
-0.0375013
-0.0405279
-0.0435603
-0.0465999
-0.0496479
-0.0527048
-0.0557705
-0.0588449
-0.0619275
-0.0650175
-0.0681144
-0.0712174
-0.0743259
-0.0774391
-0.0805566
-0.0836778
-0.0868022
-0.0899293
-0.0930587
-0.0961901
-0.099323
-0.102457
-0.105592
-0.108728
0.219264
0.21664
0.214105
0.211702
0.20945
0.207355
0.205408
0.203598
0.201913
0.200345
0.198891
0.197552
0.196328
0.195222
0.194237
0.193375
0.192636
0.192011
0.191487
0.191044
0.190672
0.190358
0.190096
0.18988
0.189704
0.189559
0.189435
0.189319
0.1892
0.189063
0.188898
0.188691
0.188432
0.188105
0.187695
0.187188
0.186576
0.185858
0.185028
0.184074
0.182975
0.181715
0.180275
0.178635
0.176766
0.174611
0.172098
0.169154
0.165776
0.16204
0.158102
0.154142
0.15023
0.146347
0.142481
0.138609
0.134701
0.1307
0.126567
0.122264
0.117704
0.112763
0.10738
0.101546
0.0953302
0.0888478
0.0822217
0.075578
0.0690397
0.0627058
0.0566506
0.0508904
0.0454112
0.0401873
0.0351875
0.0303885
0.0257235
0.0210964
0.0162998
0.0109195
0.00380382
-0.00455483
-0.00260778
-0.00243434
-0.00378688
-0.00582201
-0.00823663
-0.0108884
-0.0136939
-0.0165971
-0.0195591
-0.0225531
-0.0255619
-0.0285757
-0.0315901
-0.0346043
-0.0376195
-0.0406378
-0.0436615
-0.0466923
-0.0497316
-0.0527802
-0.0558382
-0.0589054
-0.0619814
-0.0650655
-0.0681569
-0.071255
-0.074359
-0.0774682
-0.080582
-0.0836997
-0.086821
-0.0899451
-0.0930718
-0.0962006
-0.099331
-0.102463
-0.105596
-0.108729
0.219075
0.216095
0.213264
0.210649
0.208279
0.206152
0.204244
0.202527
0.200972
0.199554
0.19826
0.197083
0.196025
0.195091
0.194287
0.193617
0.193076
0.192655
0.192338
0.192106
0.19194
0.191828
0.191762
0.191735
0.191737
0.191756
0.191777
0.191781
0.191751
0.191672
0.191531
0.19132
0.19103
0.190646
0.190151
0.189535
0.188801
0.187956
0.187004
0.18594
0.184748
0.183419
0.181941
0.180312
0.178519
0.176499
0.174152
0.171399
0.168238
0.164766
0.161142
0.157506
0.153899
0.150325
0.146761
0.143158
0.139459
0.135588
0.131509
0.127195
0.122539
0.117392
0.111703
0.105468
0.098785
0.0917784
0.0846088
0.0774282
0.0703737
0.0635201
0.0569145
0.050575
0.0444948
0.0386834
0.0331841
0.0280166
0.0231533
0.0185193
0.0139292
0.00916647
0.00394945
-0.00101967
-0.00181547
-0.00274034
-0.00424345
-0.00622419
-0.00855412
-0.0111337
-0.0138874
-0.0167573
-0.0196998
-0.0226829
-0.0256857
-0.0286954
-0.0317058
-0.0347152
-0.0377246
-0.0407362
-0.0437525
-0.0467757
-0.0498074
-0.0528485
-0.0558995
-0.0589603
-0.0620303
-0.0651089
-0.0681955
-0.0712891
-0.074389
-0.0774945
-0.0806049
-0.0837195
-0.0868379
-0.0899594
-0.0930836
-0.09621
-0.0993382
-0.102468
-0.105599
-0.10873
0.218698
0.21501
0.211585
0.208537
0.20591
0.203686
0.201809
0.200219
0.198856
0.197672
0.196635
0.195733
0.194962
0.194326
0.193833
0.193486
0.193283
0.193212
0.19325
0.193361