/*--------------------------------*- C++ -*----------------------------------*\
  =========                 |
  \\      /  F ield         | OpenFOAM: The Open Source CFD Toolbox
   \\    /   O peration     | Website:  https://openfoam.org
    \\  /    A nd           | Version:  6
     \\/     M anipulation  |
\*---------------------------------------------------------------------------*/
FoamFile
{
    version     2.0;
    format      ascii;
    class       volScalarField;
    location    "1000";
    object      T;
}
// * * * * * * * * * * * * * * * * * * * * * * * * * * * * * * * * * * * * * //

dimensions      [0 0 0 1 0 0 0];

internalField   nonuniform List<scalar> 
4800
(
552.473
552.32
552.166
552.013
551.862
551.714
551.569
551.431
551.297
551.171
551.05
550.937
550.83
550.731
550.64
550.555
550.477
550.404
550.337
550.275
550.217
550.162
550.11
550.061
550.013
549.967
549.921
549.877
549.833
549.789
549.745
549.701
549.657
549.612
549.566
549.52
549.472
549.424
549.374
549.322
549.267
549.211
549.151
549.088
549.022
548.953
548.879
548.803
548.723
548.639
548.554
548.466
548.376
548.285
548.194
548.102
548.011
547.921
547.831
547.742
547.652
547.562
547.472
547.38
547.287
547.192
547.095
546.995
546.892
546.786
546.675
546.559
546.439
546.314
546.184
546.051
545.915
545.778
545.64
545.502
545.364
545.225
545.086
544.948
544.812
544.678
544.545
544.414
544.285
544.157
544.03
543.905
543.781
543.658
543.536
543.414
543.294
543.174
543.055
542.936
542.817
542.7
542.582
542.465
542.348
542.231
542.114
541.998
541.881
541.765
541.649
541.533
541.417
541.302
541.186
541.07
540.955
540.839
540.723
540.608
552.473
552.32
552.167
552.014
551.863
551.716
551.573
551.434
551.302
551.175
551.056
550.943
550.837
550.738
550.647
550.563
550.485
550.413
550.346
550.284
550.226
550.171
550.119
550.07
550.022
549.976
549.931
549.887
549.843
549.799
549.755
549.711
549.667
549.623
549.577
549.531
549.484
549.436
549.387
549.335
549.281
549.225
549.166
549.104
549.037
548.968
548.894
548.817
548.737
548.653
548.567
548.478
548.388
548.297
548.205
548.114
548.023
547.932
547.842
547.752
547.662
547.572
547.481
547.389
547.296
547.2
547.103
547.004
546.901
546.795
546.684
546.569
546.449
546.325
546.196
546.062
545.926
545.787
545.646
545.505
545.365
545.224
545.085
544.947
544.811
544.676
544.544
544.413
544.283
544.155
544.029
543.904
543.78
543.657
543.535
543.414
543.293
543.173
543.054
542.935
542.817
542.699
542.582
542.464
542.347
542.231
542.114
541.998
541.881
541.765
541.649
541.533
541.417
541.302
541.186
541.07
540.955
540.839
540.723
540.608
552.474
552.321
552.168
552.017
551.867
551.72
551.579
551.442
551.31
551.185
551.066
550.955
550.85
550.752
550.662
550.578
550.501
550.429
550.363
550.301
550.243
550.189
550.138
550.088
550.041
549.995
549.95
549.906
549.862
549.819
549.775
549.732
549.688
549.644
549.6
549.555
549.508
549.461
549.412
549.362
549.309
549.254
549.196
549.133
549.067
548.997
548.923
548.846
548.764
548.68
548.593
548.504
548.413
548.321
548.229
548.136
548.045
547.954
547.863
547.772
547.681
547.59
547.498
547.406
547.311
547.216
547.118
547.018
546.915
546.809
546.699
546.584
546.464
546.34
546.21
546.075
545.936
545.794
545.651
545.508
545.365
545.223
545.083
544.944
544.808
544.673
544.541
544.41
544.281
544.153
544.027
543.902
543.778
543.655
543.533
543.412
543.292
543.172
543.053
542.934
542.816
542.698
542.581
542.464
542.347
542.23
542.114
541.997
541.881
541.765
541.649
541.533
541.417
541.301
541.186
541.07
540.954
540.839
540.723
540.608
552.474
552.322
552.171
552.021
551.873
551.728
551.588
551.452
551.323
551.199
551.082
550.972
550.868
550.772
550.683
550.6
550.524
550.453
550.388
550.326
550.269
550.215
550.164
550.116
550.069
550.023
549.978
549.934
549.891
549.848
549.805
549.763
549.72
549.677
549.633
549.589
549.544
549.498
549.45
549.401
549.35
549.296
549.238
549.177
549.111
549.041
548.966
548.888
548.805
548.72
548.631
548.541
548.449
548.356
548.263
548.17
548.078
547.986
547.894
547.802
547.71
547.617
547.524
547.43
547.334
547.238
547.139
547.039
546.935
546.828
546.716
546.6
546.48
546.354
546.224
546.088
545.949
545.805
545.659
545.512
545.365
545.221
545.079
544.94
544.803
544.668
544.536
544.405
544.276
544.149
544.023
543.898
543.775
543.652
543.531
543.41
543.29
543.17
543.051
542.933
542.815
542.697
542.58
542.463
542.346
542.229
542.113
541.997
541.88
541.764
541.649
541.533
541.417
541.301
541.186
541.07
540.954
540.839
540.723
540.608
552.474
552.323
552.173
552.025
551.879
551.737
551.599
551.466
551.339
551.217
551.102
550.994
550.892
550.798
550.71
550.628
550.553
550.483
550.419
550.359
550.302
550.249
550.198
550.15
550.103
550.058
550.014
549.971
549.928
549.886
549.844
549.802
549.76
549.718
549.676
549.633
549.589
549.545
549.499
549.452
549.402
549.349
549.293
549.233
549.167
549.097
549.021
548.942
548.858
548.771
548.681
548.589
548.496
548.402
548.308
548.214
548.121
548.028
547.935
547.841
547.747
547.653
547.558
547.461
547.364
547.266
547.166
547.064
546.958
546.849
546.736
546.618
546.496
546.368
546.236
546.098
545.957
545.811
545.662
545.511
545.362
545.216
545.073
544.933
544.796
544.662
544.529
544.399
544.27
544.144
544.018
543.894
543.771
543.649
543.528
543.407
543.287
543.168
543.049
542.931
542.813
542.696
542.579
542.462
542.345
542.228
542.112
541.996
541.88
541.764
541.648
541.532
541.417
541.301
541.185
541.07
540.954
540.839
540.723
540.608
552.475
552.326
552.178
552.032
551.888
551.749
551.613
551.483
551.358
551.239
551.126
551.02
550.92
550.828
550.741
550.662
550.588
550.519
550.456
550.396
550.341
550.288
550.238
550.19
550.144
550.1
550.056
550.014
549.972
549.931
549.89
549.85
549.809
549.768
549.728
549.686
549.644
549.602
549.558
549.513
549.464
549.413
549.358
549.298
549.233
549.163
549.087
549.007
548.922
548.833
548.741
548.648
548.553
548.458
548.363
548.268
548.173
548.078
547.983
547.887
547.791
547.695
547.597
547.499
547.399
547.299
547.197
547.092
546.984
546.873
546.757
546.636
546.511
546.38
546.245
546.105
545.96
545.812
545.66
545.507
545.356
545.208
545.064
544.924
544.787
544.653
544.521
544.391
544.263
544.137
544.012
543.889
543.766
543.644
543.524
543.404
543.284
543.165
543.047
542.929
542.811
542.694
542.577
542.46
542.344
542.227
542.111
541.995
541.879
541.763
541.647
541.532
541.416
541.3
541.185
541.069
540.954
540.839
540.723
540.608
552.477
552.331
552.185
552.041
551.9
551.763
551.63
551.502
551.38
551.263
551.153
551.049
550.952
550.862
550.777
550.699
550.627
550.56
550.497
550.439
550.384
550.332
550.283
550.236
550.191
550.147
550.105
550.063
550.023
549.983
549.944
549.905
549.866
549.827
549.788
549.748
549.708
549.667
549.626
549.582
549.536
549.486
549.432
549.372
549.308
549.237
549.161
549.08
548.994
548.904
548.81
548.715
548.618
548.522
548.425
548.328
548.231
548.134
548.037
547.939
547.84
547.741
547.641
547.54
547.439
547.335
547.23
547.122
547.011
546.896
546.777
546.653
546.524
546.391
546.252
546.109
545.961
545.809
545.654
545.499
545.346
545.197
545.052
544.912
544.775
544.641
544.51
544.381
544.254
544.129
544.005
543.882
543.76
543.639
543.519
543.399
543.28
543.162
543.044
542.926
542.809
542.692
542.575
542.458
542.342
542.226
542.11
541.994
541.878
541.762
541.647
541.531
541.416
541.3
541.185
541.069
540.954
540.838
540.723
540.608
552.478
552.335
552.193
552.052
551.914
551.78
551.65
551.524
551.404
551.291
551.183
551.082
550.987
550.899
550.816
550.74
550.669
550.603
550.542
550.485
550.431
550.38
550.332
550.286
550.242
550.2
550.159
550.119
550.081
550.043
550.005
549.968
549.931
549.893
549.856
549.818
549.78
549.741
549.701
549.659
549.615
549.566
549.513
549.454
549.39
549.319
549.243
549.16
549.073
548.981
548.886
548.789
548.69
548.591
548.492
548.393
548.294
548.194
548.094
547.993
547.892
547.791
547.688
547.584
547.479
547.372
547.263
547.151
547.036
546.917
546.795
546.667
546.535
546.398
546.256
546.109
545.958
545.803
545.645
545.487
545.332
545.182
545.037
544.896
544.76
544.628
544.498
544.37
544.244
544.12
543.997
543.875
543.754
543.633
543.514
543.395
543.276
543.158
543.04
542.923
542.806
542.689
542.573
542.456
542.34
542.224
542.108
541.993
541.877
541.761
541.646
541.53
541.415
541.299
541.184
541.069
540.953
540.838
540.723
540.608
552.48
552.34
552.201
552.064
551.929
551.798
551.67
551.548
551.431
551.32
551.216
551.117
551.025
550.938
550.858
550.783
550.714
550.65
550.59
550.533
550.481
550.431
550.385
550.341
550.299
550.258
550.219
550.181
550.145
550.109
550.073
550.038
550.003
549.967
549.932
549.896
549.859
549.822
549.784
549.743
549.7
549.652
549.6
549.542
549.477
549.406
549.328
549.245
549.156
549.063
548.966
548.867
548.767
548.666
548.564
548.462
548.36
548.257
548.154
548.051
547.947
547.842
547.736
547.628
547.519
547.407
547.294
547.177
547.058
546.935
546.809
546.678
546.542
546.401
546.255
546.105
545.95
545.792
545.632
545.471
545.313
545.161
545.016
544.877
544.743
544.611
544.483
544.357
544.232
544.109
543.987
543.866
543.746
543.627
543.508
543.389
543.271
543.154
543.037
542.92
542.803
542.687
542.57
542.454
542.338
542.223
542.107
541.991
541.876
541.76
541.645
541.53
541.414
541.299
541.184
541.068
540.953
540.838
540.723
540.608
552.482
552.346
552.21
552.076
551.944
551.816
551.692
551.573
551.46
551.352
551.25
551.154
551.065
550.981
550.902
550.829
550.761
550.698
550.64
550.585
550.534
550.487
550.442
550.4
550.36
550.322
550.285
550.25
550.215
550.181
550.148
550.114
550.081
550.047
550.013
549.979
549.944
549.908
549.871
549.832
549.79
549.743
549.691
549.633
549.569
549.497
549.419
549.333
549.243
549.148
549.05
548.949
548.846
548.743
548.638
548.533
548.428
548.322
548.216
548.11
548.002
547.893
547.783
547.67
547.556
547.44
547.321
547.2
547.076
546.949
546.818
546.683
546.544
546.399
546.25
546.095
545.937
545.775
545.611
545.448
545.286
545.134
544.991
544.854
544.721
544.593
544.467
544.342
544.219
544.098
543.977
543.857
543.738
543.619
543.501
543.384
543.266
543.149
543.032
542.916
542.8
542.684
542.568
542.452
542.336
542.221
542.105
541.99
541.874
541.759
541.644
541.529
541.413
541.298
541.183
541.068
540.953
540.838
540.723
540.608
552.484
552.351
552.219
552.088
551.96
551.836
551.715
551.6
551.49
551.386
551.287
551.194
551.106
551.025
550.948
550.877
550.811
550.749
550.692
550.64
550.591
550.546
550.505
550.465
550.428
550.392
550.357
550.323
550.291
550.259
550.227
550.196
550.164
550.132
550.1
550.067
550.033
549.999
549.963
549.924
549.883
549.837
549.785
549.728
549.663
549.591
549.512
549.426
549.333
549.237
549.136
549.032
548.927
548.821
548.714
548.606
548.497
548.388
548.279
548.169
548.057
547.943
547.828
547.71
547.591
547.47
547.346
547.219
547.09
546.959
546.823
546.684
546.541
546.393
546.239
546.081
545.919
545.753
545.584
545.416
545.251
545.1
544.959
544.826
544.697
544.572
544.448
544.326
544.206
544.085
543.966
543.847
543.729
543.612
543.494
543.377
543.261
543.144
543.028
542.912
542.796
542.68
542.565
542.449
542.334
542.219
542.103
541.988
541.873
541.758
541.643
541.528
541.413
541.298
541.183
541.068
540.953
540.838
540.723
540.608
552.485
552.356
552.228
552.101
551.977
551.857
551.74
551.628
551.522
551.421
551.325
551.235
551.15
551.07
550.996
550.927
550.863
550.803
550.749
550.699
550.653
550.611
550.572
550.535
550.5
550.467
550.434
550.402
550.371
550.341
550.311
550.281
550.251
550.22
550.189
550.158
550.126
550.092
550.057
550.019
549.978
549.933
549.881
549.824
549.759
549.687
549.607
549.52
549.426
549.327
549.223
549.117
549.009
548.9
548.79
548.679
548.567
548.454
548.341
548.227
548.11
547.992
547.872
547.749
547.624
547.497
547.368
547.236
547.102
546.965
546.825
546.681
546.533
546.381
546.224
546.062
545.896
545.725
545.55
545.374
545.204
545.055
544.92
544.793
544.67
544.549
544.429
544.31
544.191
544.073
543.955
543.837
543.72
543.603
543.487
543.371
543.255
543.139
543.023
542.908
542.792
542.677
542.562
542.447
542.332
542.216
542.101
541.986
541.871
541.757
541.642
541.527
541.412
541.297
541.182
541.067
540.952
540.837
540.722
540.607
552.487
552.363
552.238
552.116
551.996
551.879
551.767
551.659
551.556
551.458
551.365
551.277
551.195
551.118
551.046
550.979
550.917
550.861
550.809
550.762
550.719
550.68
550.644
550.61
550.577
550.546
550.515
550.484
550.455
550.426
550.397
550.369
550.34
550.311
550.282
550.252
550.221
550.188
550.153
550.116
550.075
550.029
549.978
549.921
549.856
549.784
549.703
549.615
549.519
549.418
549.312
549.202
549.091
548.978
548.864
548.75
548.634
548.518
548.401
548.282
548.162
548.039
547.913
547.785
547.655
547.523
547.388
547.251
547.111
546.968
546.823
546.674
546.521
546.365
546.205
546.039
545.867
545.689
545.505
545.318
545.134
544.995
544.874
544.758
544.642
544.526
544.409
544.293
544.176
544.059
543.943
543.827
543.711
543.595
543.479
543.364
543.249
543.133
543.018
542.903
542.788
542.674
542.559
542.444
542.329
542.214
542.099
541.985
541.87
541.755
541.64
541.526
541.411
541.296
541.181
541.067
540.952
540.837
540.722
540.607
552.49
552.369
552.249
552.131
552.015
551.903
551.794
551.69
551.591
551.496
551.407
551.322
551.242
551.168
551.099
551.034
550.975
550.922
550.873
550.829
550.79
550.754
550.72
550.688
550.658
550.628
550.598
550.57
550.542
550.514
550.487
550.459
550.432
550.404
550.376
550.347
550.317
550.284
550.25
550.213
550.172
550.127
550.075
550.018
549.953
549.88
549.8
549.71
549.613
549.509
549.4
549.287
549.171
549.055
548.937
548.819
548.699
548.579
548.458
548.335
548.21
548.082
547.953
547.82
547.685
547.548
547.408
547.266
547.12
546.971
546.819
546.665
546.507
546.347
546.182
546.013
545.836
545.651
545.454
545.242
545.022
544.919
544.823
544.722
544.614
544.503
544.39
544.276
544.161
544.046
543.931
543.816
543.701
543.586
543.472
543.357
543.242
543.128
543.013
542.899
542.784
542.67
542.555
542.441
542.326
542.212
542.097
541.983
541.868
541.754
541.639
541.525
541.41
541.295
541.181
541.066
540.951
540.837
540.722
540.607
552.492
552.376
552.261
552.147
552.036
551.928
551.823
551.723
551.627
551.536
551.45
551.368
551.292
551.22
551.154
551.093
551.037
550.986
550.941
550.9
550.863
550.83
550.799
550.769
550.74
550.712
550.684
550.657
550.63
550.604
550.578
550.552
550.525
550.498
550.471
550.443
550.413
550.381
550.347
550.31
550.27
550.224
550.172
550.114
550.049
549.976
549.895
549.805
549.706
549.6
549.487
549.37
549.25
549.129
549.007
548.884
548.761
548.637
548.512
548.384
548.255
548.124
547.99
547.854
547.715
547.574
547.429
547.28
547.128
546.973
546.815
546.655
546.493
546.329
546.161
545.988
545.808
545.616
545.405
545.156
544.796
544.838
544.781
544.692
544.591
544.484
544.373
544.26
544.147
544.034
543.92
543.806
543.692
543.578
543.464
543.35
543.236
543.122
543.008
542.894
542.78
542.666
542.552
542.438
542.324
542.21
542.095
541.981
541.867
541.752
541.638
541.523
541.409
541.295
541.18
541.065
540.951
540.836
540.722
540.607
552.494
552.383
552.273
552.164
552.057
551.954
551.853
551.757
551.665
551.578
551.495
551.417
551.343
551.275
551.211
551.154
551.101
551.053
551.011
550.974
550.94
550.909
550.88
550.852
550.824
550.798
550.771
550.746
550.72
550.695
550.67
550.645
550.619
550.593
550.567
550.539
550.51
550.478
550.445
550.408
550.367
550.321
550.269
550.21
550.145
550.071
549.989
549.898
549.797
549.688
549.572
549.45
549.326
549.2
549.073
548.947
548.819
548.691
548.562
548.432
548.299
548.165
548.028
547.888
547.745
547.599
547.448
547.294
547.135
546.974
546.811
546.646
546.48
546.312
546.141
545.966
545.785
545.594
545.389
545.171
544.959
544.862
544.773
544.677
544.574
544.467
544.358
544.246
544.134
544.021
543.908
543.795
543.682
543.569
543.456
543.343
543.23
543.116
543.003
542.89
542.776
542.663
542.549
542.435
542.321
542.207
542.093
541.979
541.865
541.751
541.637
541.522
541.408
541.294
541.179
541.065
540.951
540.836
540.722
540.607
552.497
552.39
552.285
552.181
552.079
551.98
551.884
551.792
551.704
551.62
551.541
551.466
551.396
551.331
551.271
551.216
551.167
551.123
551.084
551.049
551.018
550.989
550.961
550.935
550.909
550.884
550.859
550.835
550.81
550.786
550.762
550.738
550.714
550.688
550.662
550.635
550.607
550.576
550.542
550.505
550.464
550.418
550.365
550.306
550.239
550.165
550.082
549.989
549.887
549.775
549.654
549.529
549.4
549.269
549.138
549.006
548.875
548.743
548.61
548.477
548.341
548.204
548.064
547.921
547.774
547.623
547.466
547.305
547.14
546.973
546.805
546.636
546.466
546.296
546.124
545.948
545.769
545.582
545.389
545.195
545.02
544.889
544.777
544.67
544.563
544.454
544.344
544.233
544.122
544.01
543.898
543.785
543.673
543.561
543.448
543.336
543.223
543.111
542.998
542.885
542.772
542.659
542.546
542.432
542.319
542.205
542.091
541.977
541.863
541.749
541.635
541.521
541.407
541.293
541.179
541.064
540.95
540.836
540.721
540.607
552.499
552.397
552.296
552.197
552.1
552.006
551.914
551.827
551.742
551.662
551.587
551.516
551.449
551.388
551.331
551.28
551.234
551.194
551.157
551.125
551.096
551.068
551.042
551.018
550.993
550.97
550.947
550.924
550.901
550.878
550.855
550.832
550.808
550.784
550.759
550.733
550.704
550.674
550.64
550.603
550.562
550.514
550.461
550.401
550.334
550.258
550.174
550.08
549.975
549.86
549.736
549.605
549.471
549.336
549.2
549.065
548.929
548.794
548.658
548.522
548.383
548.243
548.1
547.953
547.801
547.644
547.48
547.312
547.141
546.968
546.795
546.623
546.45
546.278
546.106
545.932
545.755
545.574
545.391
545.212
545.047
544.905
544.78
544.665
544.553
544.443
544.332
544.221
544.11
543.999
543.888
543.776
543.664
543.553
543.441
543.329
543.217
543.105
542.993
542.88
542.768
542.655
542.542
542.429
542.316
542.203
542.089
541.975
541.862
541.748
541.634
541.52
541.406
541.292
541.178
541.064
540.95
540.836
540.721
540.607
552.501
552.403
552.307
552.213
552.12
552.031
551.944
551.86
551.78
551.704
551.632
551.564
551.502
551.444
551.391
551.343
551.301
551.263
551.229
551.199
551.172
551.146
551.122
551.099
551.076
551.054
551.033
551.011
550.99
550.969
550.948
550.926
550.904
550.881
550.856
550.831
550.803
550.773
550.74
550.703
550.661
550.613
550.559
550.499
550.431
550.354
550.268
550.172
550.064
549.945
549.816
549.681
549.542
549.403
549.263
549.123
548.985
548.846
548.708
548.568
548.427
548.283
548.136
547.984
547.825
547.661
547.489
547.314
547.135
546.956
546.779
546.604
546.43
546.257
546.085
545.912
545.738
545.563
545.388
545.216
545.053
544.906
544.775
544.655
544.541
544.43
544.32
544.21
544.1
543.989
543.878
543.767
543.656
543.545
543.434
543.322
543.211
543.1
542.988
542.876
542.764
542.652
542.539
542.426
542.313
542.2
542.087
541.974
541.86
541.747
541.633
541.519
541.405
541.291
541.177
541.063
540.949
540.835
540.721
540.607
552.503
552.409
552.317
552.227
552.139
552.053
551.97
551.891
551.815
551.743
551.675
551.611
551.551
551.497
551.448
551.403
551.364
551.329
551.298
551.269
551.244
551.22
551.197
551.176
551.155
551.135
551.116
551.097
551.078
551.059
551.04
551.02
550.999
550.978
550.955
550.931
550.904
550.874
550.842
550.805
550.763
550.715
550.662
550.601
550.532
550.454
550.366
550.267
550.156
550.032
549.899
549.758
549.615
549.471
549.328
549.186
549.044
548.903
548.762
548.62
548.475
548.327
548.174
548.015
547.848
547.673
547.493
547.308
547.122
546.937
546.755
546.577
546.401
546.228
546.057
545.886
545.715
545.543
545.372
545.203
545.04
544.889
544.757
544.637
544.525
544.416
544.308
544.199
544.089
543.979
543.869
543.759
543.648
543.538
543.427
543.316
543.205
543.094
542.983
542.872
542.76
542.648
542.536
542.423
542.311
542.198
542.085
541.972
541.859
541.745
541.632
541.518
541.404
541.291
541.177
541.063
540.949
540.835
540.721
540.607
552.504
552.414
552.325
552.238
552.153
552.072
551.993
551.917
551.845
551.777
551.713
551.652
551.597
551.545
551.499
551.458
551.421
551.389
551.36
551.334
551.31
551.288
551.268
551.248
551.23
551.213
551.196
551.18
551.163
551.147
551.131
551.114
551.096
551.076
551.056
551.033
551.007
550.979
550.947
550.911
550.87
550.822
550.769
550.707
550.638
550.559
550.469
550.368
550.252
550.124
549.984
549.839
549.692
549.546
549.4
549.256
549.112
548.969
548.825
548.68
548.531
548.377
548.217
548.048
547.87
547.684
547.492
547.296
547.1
546.907
546.72
546.538
546.361
546.188
546.017
545.848
545.678
545.509
545.34
545.172
545.004
544.848
544.72
544.608
544.503
544.399
544.294
544.187
544.079
543.97
543.861
543.751
543.641
543.531
543.42
543.31
543.2
543.089
542.979
542.868
542.756
542.645
542.533
542.421
542.308
542.196
542.083
541.97
541.857
541.744
541.631
541.517
541.404
541.29
541.176
541.062
540.949
540.835
540.721
540.607
552.505
552.416
552.329
552.244
552.162
552.084
552.008
551.936
551.868
551.803
551.743
551.686
551.634
551.586
551.543
551.504
551.47
551.44
551.414
551.39
551.369
551.349
551.331
551.315
551.3
551.285
551.272
551.259
551.246
551.234
551.221
551.207
551.192
551.176
551.157
551.136
551.113
551.086
551.055
551.02
550.98
550.933
550.88
550.819
550.749
550.669
550.578
550.473
550.354
550.221
550.077
549.928
549.779
549.632
549.485
549.34
549.195
549.051
548.904
548.755
548.601
548.44
548.269
548.088
547.897
547.697
547.492
547.283
547.075
546.872
546.677
546.49
546.31
546.136
545.964
545.796
545.628
545.46
545.29
545.118
544.939
544.77
544.658
544.565
544.474
544.379
544.279
544.176
544.07
543.962
543.853
543.744
543.634
543.524
543.415
543.305
543.195
543.085
542.974
542.864
542.753
542.642
542.53
542.418
542.306
542.194
542.081
541.969
541.856
541.743
541.63
541.516
541.403
541.289
541.176
541.062
540.948
540.834
540.721
540.607
552.505
552.414
552.327
552.242
552.161
552.085
552.012
551.944
551.879
551.818
551.761
551.708
551.659
551.615
551.575
551.54
551.509
551.482
551.458
551.438
551.42
551.403
551.389
551.376
551.365
551.355
551.345
551.337
551.328
551.319
551.31
551.3
551.288
551.275
551.259
551.24
551.218
551.192
551.162
551.128
551.088
551.042
550.99
550.929
550.86
550.78
550.688
550.581
550.459
550.322
550.176
550.028
549.88
549.734
549.589
549.445
549.301
549.155
549.006
548.853
548.694
548.524
548.342
548.146
547.938
547.722
547.5
547.277
547.056
546.841
546.635
546.439
546.253
546.073
545.899
545.73
545.563
545.395
545.222
545.038
544.832
544.619
544.565
544.511
544.441
544.358
544.264
544.165
544.061
543.955
543.847
543.738
543.628
543.519
543.409
543.3
543.19
543.08
542.97
542.86
542.749
542.639
542.527
542.416
542.304
542.192
542.08
541.967
541.854
541.742
541.629
541.515
541.402
541.289
541.175
541.062
540.948
540.834
540.721
540.607
552.502
552.406
552.314
552.227
552.145
552.069
551.998
551.932
551.871
551.815
551.762
551.713
551.669
551.629
551.594
551.562
551.536
551.513
551.494
551.479
551.465
551.454
551.444
551.437
551.43
551.425
551.421
551.416
551.412
551.407
551.401
551.393
551.384
551.371
551.356
551.338
551.315
551.289
551.259
551.224
551.184
551.138
551.086
551.026
550.959
550.881
550.79
550.683
550.561
550.426
550.284
550.14
549.999
549.858
549.718
549.578
549.437
549.292
549.142
548.987
548.822
548.643
548.448
548.236
548.011
547.776
547.535
547.294
547.057
546.827
546.607
546.397
546.198
546.008
545.826
545.651
545.482
545.314
545.14
544.945
544.688
544.285
544.454
544.461
544.412
544.338
544.251
544.155
544.053
543.948
543.841
543.732
543.623
543.514
543.404
543.295
543.186
543.076
542.967
542.857
542.746
542.636
542.525
542.414
542.302
542.19
542.078
541.966
541.853
541.741
541.628
541.515
541.401
541.288
541.175
541.061
540.948
540.834
540.72
540.607
552.495
552.386
552.283
552.188
552.102
552.024
551.955
551.893
551.837
551.785
551.738
551.696
551.658
551.624
551.595
551.571
551.552
551.537
551.526
551.517
551.512
551.508
551.506
551.505
551.505
551.506
551.506
551.506
551.505
551.502
551.497
551.489
551.478
551.463
551.445
551.422
551.395
551.364
551.329
551.29
551.246
551.198
551.144
551.085
551.02
550.947
550.862
550.763
550.649
550.524
550.393
550.261
550.131
550.002
549.873
549.743
549.61
549.47
549.322
549.166
548.998
548.812
548.606
548.381
548.138
547.884
547.624
547.364
547.108
546.859
546.618
546.388
546.166
545.955
545.754
545.566
545.389
545.221
545.054
544.881
544.692
544.512
544.483
544.45
544.395
544.324
544.239
544.146
544.046
543.942
543.836
543.727
543.619
543.509
543.4
543.291
543.182
543.073
542.963
542.854
542.744
542.633
542.523
542.412
542.3
542.189
542.077
541.965
541.852
541.74
541.627
541.514
541.401
541.288
541.174
541.061
540.947
540.834
540.72
540.607
552.481
552.347
552.222
552.111
552.015
551.934
551.866
551.808
551.759
551.716
551.679
551.647
551.619
551.596
551.579
551.567
551.56
551.557
551.559
551.564
551.57
551.577
551.586
551.594
551.603
551.611
551.616
551.619
551.619
551.614
551.605
551.591
551.572
551.548
551.517
551.482
551.441
551.397
551.35
551.3
551.246
551.19
551.131
551.07
551.011
550.949
550.879
550.796
550.701
550.596
550.485
550.373
550.263
550.155
550.049
549.938
549.822
549.695
549.556
549.406
549.241
549.054
548.845
548.61
548.355
548.083
547.805
547.526
547.251
546.979
546.711
546.448
546.189
545.939
545.702
545.485
545.29
545.116
544.957
544.81
544.673
544.558
544.497
544.444
544.383
544.311
544.229
544.138
544.04
543.937
543.831
543.723
543.615
543.506
543.397
543.288
543.179
543.07
542.96
542.851
542.741
542.631
542.521
542.41
542.299
542.187
542.076
541.964
541.851
541.739
541.626
541.513
541.4
541.287
541.174
541.061
540.947
540.834
540.72
540.607
552.457
552.276
552.113
551.973
551.86
551.772
551.705
551.655
551.617
551.589
551.568
551.552
551.542
551.538
551.54
551.548
551.561
551.58
551.603
551.628
551.652
551.677
551.701
551.723
551.742
551.758
551.767
551.771
551.766
551.754
551.734
551.705
551.668
551.622
551.566
551.504
551.436
551.365
551.293
551.22
551.145
551.07
550.997
550.929
550.88
550.845
550.805
550.753
550.686
550.611
550.531
550.449
550.37
550.301
550.236
550.161
550.078
549.975
549.854
549.725
549.573
549.398
549.202
548.972
548.711
548.423
548.129
547.833
547.541
547.247
546.943
546.633
546.317
546.002
545.702
545.432
545.199
545.006
544.846
544.716
544.611
544.535
544.488
544.432
544.37
544.299
544.219
544.13
544.034
543.933
543.827
543.72
543.612
543.503
543.394
543.285
543.176
543.067
542.958
542.849
542.739
542.629
542.519
542.408
542.297
542.186
542.074
541.963
541.85
541.738
541.625
541.513
541.4
541.287
541.174
541.06
540.947
540.834
540.72
540.607
552.419
552.164
551.937
551.75
551.608
551.508
551.443
551.405
551.385
551.38
551.383
551.395
551.413
551.438
551.471
551.511
551.556
551.608
551.664
551.719
551.772
551.821
551.866
551.906
551.938
551.96
551.971
551.968
551.954
551.929
551.891
551.839
551.77
551.686
551.586
551.478
551.368
551.252
551.137
551.022
550.908
550.799
550.696
550.614
550.585
550.611
550.622
550.617
550.581
550.551
550.51
550.476
550.447
550.443
550.458
550.428
550.406
550.347
550.254
550.173
550.049
549.9
549.753
549.543
549.291
548.982
548.675
548.365
548.072
547.764
547.408
547.027
546.63
546.209
545.806
545.444
545.144
544.909
544.736
544.604
544.519
544.482
544.482
544.417
544.354
544.286
544.209
544.123
544.029
543.929
543.824
543.717
543.609
543.5
543.391
543.282
543.173
543.065
542.956
542.847
542.737
542.628
542.518
542.407
542.296
542.185
542.074
541.962
541.85
541.737
541.625
541.512
541.399
541.286
541.173
541.06
540.947
540.833
540.72
540.607
552.369
552.013
551.69
551.428
551.238
551.117
551.051
551.026
551.031
551.058
551.099
551.15
551.209
551.277
551.356
551.441
551.534
551.634
551.741
551.843
551.935
552.016
552.087
552.149
552.196
552.219
552.219
552.202
552.171
552.13
552.077
551.995
551.882
551.741
551.574
551.407
551.254
551.079
550.897
550.717
550.538
550.375
550.223
550.112
550.11
550.245
550.327
550.403
550.362
550.409
550.412
550.455
550.502
550.606
550.781
550.764
550.851
550.876
550.802
550.833
550.739
550.625
550.601
550.418
550.197
549.845
549.531
549.193
548.952
548.681
548.225
547.72
547.231
546.651
546.093
545.582
545.169
544.859
544.661
544.487
544.411
544.411
544.453
544.399
544.339
544.273
544.199
544.116
544.024
543.925
543.822
543.715
543.607
543.498
543.389
543.28
543.172
543.063
542.954
542.845
542.736
542.626
542.516
542.406
542.295
542.184
542.073
541.961
541.849
541.737
541.624
541.512
541.399
541.286
541.173
541.06
540.947
540.833
540.72
540.607
552.338
551.879
551.432
551.06
550.787
550.616
550.531
550.507
550.528
550.59
550.68
550.782
550.895
551.02
551.163
551.313
551.47
551.645
551.831
552.005
552.151
552.266
552.36
552.445
552.51
552.52
552.487
552.436
552.385
552.346
552.297
552.181
552.008
551.797
551.545
551.308
551.139
550.896
550.621
550.346
550.072
549.85
549.638
549.442
549.378
549.423
549.473
549.592
549.652
549.784
549.873
550.032
550.235
550.437
550.734
550.788
551.031
551.194
551.24
551.374
551.327
551.321
551.422
551.31
551.198
550.843
550.561
550.175
549.893
549.678
549.182
548.495
547.978
547.245
546.585
545.828
545.372
544.947
544.748
544.428
544.339
544.351
544.449
544.391
544.328
544.263
544.191
544.11
544.02
543.922
543.82
543.714
543.606
543.497
543.388
543.279
543.17
543.062
542.953
542.844
542.735
542.625
542.516
542.405
542.295
542.184
542.072
541.961
541.849
541.737
541.624
541.512
541.399
541.286
541.173
541.06
540.947
540.833
540.72
540.607
552.437
551.983
551.406
550.88
550.464
550.172
550.008
549.916
549.881
549.957
550.1
550.259
550.433
550.631
550.873
551.111
551.351
551.637
551.953
552.225
552.43
552.563
552.652
552.727
552.817
552.795
552.68
552.568
552.509
552.546
552.536
552.346
552.073
551.81
551.455
551.086
550.746
550.375
550.025
549.666
549.319
549.024
548.767
548.569
548.347
548.139
548.058
548.211
548.36
548.638
548.902
549.189
549.632
550.017
550.502
550.72
551.058
551.401
551.592
551.801
551.934
552.049
552.147
552.104
552.115
551.832
551.548
551.153
550.806
550.567
550.295
549.43
548.761
547.757
547.499
546.009
545.365
545.281
545.255
544.425
544.457
544.316
544.556
544.404
544.323
544.256
544.185
544.106
544.017
543.92
543.818
543.713
543.605
543.496
543.387
543.278
543.17
543.061
542.952
542.843
542.734
542.625
542.515
542.405
542.294
542.183
542.072
541.96
541.849
541.736
541.624
541.511
541.399
541.286
541.173
541.06
540.947
540.833