/*--------------------------------*- C++ -*----------------------------------*\
  =========                 |
  \\      /  F ield         | OpenFOAM: The Open Source CFD Toolbox
   \\    /   O peration     | Website:  https://openfoam.org
    \\  /    A nd           | Version:  6
     \\/     M anipulation  |
\*---------------------------------------------------------------------------*/
FoamFile
{
    version     2.0;
    format      ascii;
    class       volVectorField;
    location    "1000";
    object      U;
}
// * * * * * * * * * * * * * * * * * * * * * * * * * * * * * * * * * * * * * //

dimensions      [0 1 -1 0 0 0 0];

internalField   nonuniform List<vector> 
4800
(
(-5.66205e-05 0 -2.90354e-05)
(-1.48768e-05 0 -2.34336e-05)
(-5.38634e-05 0 -2.7667e-05)
(-8.84757e-05 0 1.36754e-05)
(-0.000116791 0 6.32307e-05)
(-0.000302469 0 -1.34611e-05)
(-0.000428376 0 -3.11525e-06)
(-0.000511214 0 6.59427e-05)
(-0.000592638 0 4.86944e-05)
(-0.000667679 0 6.95933e-05)
(-0.000757471 0 8.50698e-05)
(-0.000858462 0 5.56072e-05)
(-0.000948374 0 7.47421e-05)
(-0.00103601 0 1.09104e-05)
(-0.0011155 0 2.07177e-05)
(-0.0011878 0 1.36745e-05)
(-0.0012488 0 2.5583e-06)
(-0.00129896 0 2.67791e-05)
(-0.00134155 0 -1.79219e-05)
(-0.00137439 0 1.34348e-05)
(-0.00139283 0 -5.3471e-06)
(-0.001401 0 -1.14068e-06)
(-0.00140469 0 -6.26664e-06)
(-0.00140193 0 -2.27181e-05)
(-0.00137386 0 -3.65663e-05)
(-0.00135821 0 -3.41365e-05)
(-0.0013562 0 -4.14793e-05)
(-0.00136046 0 -4.51143e-05)
(-0.00134411 0 -2.18887e-05)
(-0.00132045 0 -2.8609e-05)
(-0.00131746 0 -4.33591e-05)
(-0.00131931 0 -3.77607e-05)
(-0.0013128 0 4.3543e-05)
(-0.00130337 0 -5.01962e-05)
(-0.00129537 0 -6.87351e-05)
(-0.00129245 0 2.44389e-07)
(-0.00127244 0 1.2152e-05)
(-0.00125279 0 -2.83169e-05)
(-0.00124063 0 -3.48779e-05)
(-0.00122125 0 -1.77117e-05)
(-0.00118766 0 -2.2173e-05)
(-0.00114405 0 -2.12788e-05)
(-0.00109569 0 -2.07154e-05)
(-0.0010506 0 -8.82661e-06)
(-0.00100689 0 -3.49395e-05)
(-0.000959517 0 4.21097e-06)
(-0.000901846 0 -1.76601e-05)
(-0.000848725 0 -1.00563e-05)
(-0.00081404 0 -5.31194e-06)
(-0.000797083 0 -3.12538e-06)
(-0.000791292 0 -1.28536e-06)
(-0.000795412 0 1.17373e-05)
(-0.000820065 0 2.42858e-05)
(-0.000836292 0 1.99783e-05)
(-0.000848135 0 1.35904e-05)
(-0.000862612 0 1.35094e-06)
(-0.000873805 0 1.24364e-06)
(-0.000856697 0 -2.70745e-05)
(-0.00080238 0 -3.71406e-05)
(-0.00077079 0 -2.47415e-05)
(-0.000743302 0 -1.93458e-05)
(-0.000681221 0 -3.27475e-05)
(-0.000596579 0 -3.81976e-05)
(-0.000528957 0 -9.95838e-06)
(-0.000491567 0 1.08729e-06)
(-0.00046184 0 2.39454e-05)
(-0.000422597 0 4.47633e-05)
(-0.000375117 0 1.50291e-05)
(-0.000327787 0 -4.31979e-07)
(-0.000295512 0 -2.86917e-05)
(-0.00031296 0 -0.000101305)
(-0.000315482 0 -0.000156231)
(-0.000387403 0 -7.90676e-05)
(-0.00036659 0 -0.000209026)
(-0.000438465 0 -9.56059e-05)
(-0.000421159 0 -0.000177687)
(-0.000442635 0 -0.000142382)
(-0.000451596 0 -0.000213168)
(-0.000667989 0 -0.000192568)
(4.38701e-06 0 -0.000205387)
(-8.76885e-14 0 -1.26233e-13)
(-8.63822e-13 0 -4.46573e-14)
(3.23472e-13 0 -2.35924e-14)
(3.62518e-13 0 -1.56444e-14)
(3.89279e-13 0 -1.18954e-14)
(4.10696e-13 0 -1.0276e-14)
(4.30173e-13 0 -9.89571e-15)
(4.49688e-13 0 -1.00512e-14)
(4.69635e-13 0 -1.03841e-14)
(4.9018e-13 0 -1.06359e-14)
(5.10999e-13 0 -1.06513e-14)
(5.31538e-13 0 -1.0352e-14)
(5.5114e-13 0 -9.71262e-15)
(5.69132e-13 0 -8.74424e-15)
(5.84875e-13 0 -7.48025e-15)
(5.97799e-13 0 -5.9666e-15)
(6.07426e-13 0 -4.25513e-15)
(6.13398e-13 0 -2.39914e-15)
(6.15477e-13 0 -4.48229e-16)
(6.13555e-13 0 1.55394e-15)
(6.07645e-13 0 3.56797e-15)
(5.97868e-13 0 5.55588e-15)
(5.84428e-13 0 7.4804e-15)
(5.67567e-13 0 9.30715e-15)
(5.47534e-13 0 1.10066e-14)
(5.2456e-13 0 1.25559e-14)
(4.98852e-13 0 1.39398e-14)
(4.70593e-13 0 1.51527e-14)
(4.39967e-13 0 1.62008e-14)
(4.07183e-13 0 1.71007e-14)
(3.72495e-13 0 1.7876e-14)
(3.36206e-13 0 1.85514e-14)
(2.98651e-13 0 1.91471e-14)
(2.60162e-13 0 1.96763e-14)
(2.21029e-13 0 2.01446e-14)
(1.81483e-13 0 2.05535e-14)
(1.41673e-13 0 2.09049e-14)
(1.01668e-13 0 2.12113e-14)
(6.14206e-14 0 2.15218e-14)
(2.06108e-14 0 2.20269e-14)
(-4.53046e-05 0 2.47557e-05)
(-2.30963e-05 0 4.41072e-05)
(-0.000105882 0 8.83174e-05)
(-0.000249758 0 5.41552e-05)
(-0.000252696 0 0.000102114)
(-0.00028286 0 0.000203829)
(-0.000417078 0 0.000104066)
(-0.000479634 0 0.000121719)
(-0.000561772 0 0.000132598)
(-0.000654276 0 0.000119363)
(-0.00074232 0 0.000104604)
(-0.000824168 0 0.000157188)
(-0.000924301 0 0.000112344)
(-0.00100565 0 0.000157985)
(-0.00109356 0 0.000119291)
(-0.0011647 0 0.000121477)
(-0.00122555 0 9.6856e-05)
(-0.00127613 0 7.6874e-05)
(-0.00131546 0 5.12899e-05)
(-0.00134457 0 3.9625e-05)
(-0.00136609 0 2.24301e-05)
(-0.00138314 0 7.39239e-06)
(-0.00139477 0 -6.76899e-06)
(-0.00139861 0 -8.7196e-06)
(-0.00139178 0 -9.60147e-06)
(-0.00137474 0 -9.71515e-06)
(-0.0013615 0 8.34507e-06)
(-0.00134697 0 1.43178e-05)
(-0.00133481 0 -1.20132e-05)
(-0.00132796 0 -3.82985e-05)
(-0.00132265 0 3.88424e-06)
(-0.00130917 0 5.11025e-05)
(-0.00129865 0 -7.51342e-05)
(-0.00129759 0 2.27287e-05)
(-0.00129673 0 2.77443e-05)
(-0.00129382 0 2.14444e-05)
(-0.00128812 0 -6.48595e-05)
(-0.00126817 0 -3.27456e-05)
(-0.00124424 0 -1.46173e-05)
(-0.00121881 0 -5.16189e-05)
(-0.00117334 0 -7.17238e-05)
(-0.00111633 0 -3.75509e-05)
(-0.00105861 0 -8.39773e-05)
(-0.00100701 0 -7.56408e-05)
(-0.000959706 0 -7.38445e-05)
(-0.000919464 0 -8.73837e-05)
(-0.000879714 0 -8.97108e-05)
(-0.000835807 0 -7.94824e-05)
(-0.000801799 0 -3.37288e-05)
(-0.000778935 0 -1.39317e-05)
(-0.00076634 0 -2.2687e-06)
(-0.000762456 0 3.72456e-06)
(-0.000786292 0 2.05184e-05)
(-0.000821442 0 2.21212e-05)
(-0.000844733 0 1.01269e-05)
(-0.000863845 0 6.11048e-06)
(-0.000874127 0 -3.63946e-06)
(-0.000861944 0 -3.96857e-05)
(-0.000787389 0 -8.40432e-05)
(-0.000745227 0 -7.57197e-05)
(-0.000731497 0 -2.76714e-05)
(-0.000694194 0 -1.49272e-05)
(-0.000583073 0 -0.000147697)
(-0.000493795 0 -9.92638e-05)
(-0.000453699 0 1.34091e-06)
(-0.000392865 0 -7.02439e-05)
(-0.000328237 0 -2.18954e-05)
(-0.000254164 0 -3.37458e-05)
(-0.000178226 0 -4.16906e-05)
(-4.2757e-05 0 -9.12933e-05)
(-6.59297e-05 0 3.919e-05)
(4.96215e-05 0 8.22284e-05)
(-4.23803e-05 0 8.12271e-05)
(0.000108858 0 0.000111746)
(3.61968e-05 0 7.27384e-05)
(5.48243e-05 0 6.46354e-05)
(-5.69832e-05 0 -4.04323e-05)
(0.000663871 0 7.96742e-05)
(-0.000682224 0 -6.6486e-05)
(5.51217e-06 0 -0.000304636)
(-3.23831e-13 0 -3.38395e-14)
(-7.74681e-13 0 -7.41624e-14)
(3.51262e-13 0 -5.8772e-14)
(3.73375e-13 0 -4.30598e-14)
(3.94178e-13 0 -3.3763e-14)
(4.12578e-13 0 -2.98363e-14)
(4.30502e-13 0 -2.92521e-14)
(4.492e-13 0 -3.01185e-14)
(4.69051e-13 0 -3.13882e-14)
(4.89913e-13 0 -3.23116e-14)
(5.11283e-13 0 -3.24525e-14)
(5.32477e-13 0 -3.15985e-14)
(5.52748e-13 0 -2.96925e-14)
(5.71364e-13 0 -2.678e-14)
(5.87653e-13 0 -2.29672e-14)
(6.01024e-13 0 -1.83906e-14)
(6.10994e-13 0 -1.32e-14)
(6.17204e-13 0 -7.5473e-15)
(6.1943e-13 0 -1.57753e-15)
(6.17571e-13 0 4.57315e-15)
(6.11647e-13 0 1.07718e-14)
(6.01781e-13 0 1.68834e-14)
(5.88179e-13 0 2.27738e-14)
(5.71093e-13 0 2.83203e-14)
(5.50783e-13 0 3.34241e-14)
(5.27494e-13 0 3.80209e-14)
(5.01449e-13 0 4.20871e-14)
(4.72854e-13 0 4.56416e-14)
(4.41915e-13 0 4.87394e-14)
(4.08858e-13 0 5.14571e-14)
(3.73946e-13 0 5.38735e-14)
(3.37477e-13 0 5.60508e-14)
(2.99776e-13 0 5.80249e-14)
(2.61159e-13 0 5.98047e-14)
(2.21907e-13 0 6.13805e-14)
(1.82243e-13 0 6.2736e-14)
(1.42331e-13 0 6.38613e-14)
(1.02285e-13 0 6.47666e-14)
(6.22362e-14 0 6.55026e-14)
(2.11158e-14 0 6.62132e-14)
(-4.81322e-05 0 4.06231e-05)
(-9.30418e-06 0 7.07978e-05)
(-6.11717e-05 0 0.000162712)
(-0.000106813 0 0.000260981)
(-0.000278875 0 0.000219506)
(-0.000356237 0 0.000165331)
(-0.000407448 0 0.000151644)
(-0.000506217 0 9.87572e-05)
(-0.000563718 0 0.000130693)
(-0.000628675 0 0.000172193)
(-0.000699342 0 0.000207763)
(-0.000788481 0 0.000177725)
(-0.000862663 0 0.000219627)
(-0.000950366 0 0.000166826)
(-0.00102144 0 0.000156163)
(-0.00108521 0 0.000151226)
(-0.00113832 0 9.6258e-05)
(-0.00117405 0 0.000108213)
(-0.00120362 0 6.60425e-05)
(-0.00122955 0 7.73459e-05)
(-0.00125843 0 4.51205e-05)
(-0.00127868 0 2.91247e-05)
(-0.00128622 0 1.71421e-05)
(-0.00128841 0 -1.28938e-05)
(-0.00129198 0 -3.75631e-05)
(-0.00129425 0 -3.56325e-05)
(-0.0012898 0 -3.06221e-05)
(-0.00128653 0 -3.13328e-05)
(-0.00129392 0 -2.18093e-05)
(-0.00130073 0 -2.15672e-05)
(-0.00128836 0 -2.45222e-05)
(-0.00127647 0 -1.67775e-05)
(-0.00127683 0 -9.5422e-06)
(-0.0012762 0 -1.90923e-05)
(-0.00126777 0 -4.20238e-05)
(-0.00126612 0 -2.22884e-05)
(-0.00126719 0 -7.46711e-06)
(-0.0012383 0 -2.36626e-05)
(-0.00119113 0 -0.000129871)
(-0.00116202 0 -6.04044e-05)
(-0.00111648 0 -9.80621e-05)
(-0.0010465 0 -0.000157161)
(-0.000974605 0 -0.000135103)
(-0.000910928 0 -0.000113118)
(-0.0008623 0 -0.000122252)
(-0.000838947 0 -0.000103768)
(-0.000820431 0 -9.20403e-05)
(-0.000785982 0 -0.000109651)
(-0.000757967 0 -7.25809e-05)
(-0.000732946 0 -4.03976e-05)
(-0.000719744 0 -1.11768e-05)
(-0.000718589 0 5.38699e-06)
(-0.000745254 0 6.29269e-05)
(-0.000780089 0 7.64287e-05)
(-0.000809308 0 4.52117e-05)
(-0.000827093 0 2.84025e-05)
(-0.000832323 0 1.30768e-05)
(-0.00083621 0 2.10417e-06)
(-0.000797529 0 -0.000193922)
(-0.000728702 0 -0.00016512)
(-0.000699179 0 -0.000108985)
(-0.000676027 0 -0.000111601)
(-0.000602825 0 -0.000182099)
(-0.000447608 0 -0.000330023)
(-0.000481397 0 -5.46728e-05)
(-0.000381639 0 -0.000121644)
(-0.000287196 0 -0.000185925)
(-0.000210352 0 -0.000184718)
(-0.000138986 0 -0.000185574)
(-8.29608e-05 0 -0.000170438)
(6.32541e-05 0 -2.59632e-05)
(0.000110647 0 1.75006e-05)
(0.000182933 0 -3.11978e-05)
(0.000274769 0 -3.09206e-05)
(0.000267816 0 0.000122576)
(0.000209651 0 0.000171287)
(0.000267433 0 1.27786e-05)
(-0.000355097 0 -8.75452e-05)
(-0.000583044 0 -0.000122351)
(5.23707e-06 0 -0.00033735)
(-4.0032e-13 0 -2.0182e-13)
(-9.11156e-13 0 -1.52127e-13)
(3.53576e-13 0 -9.49855e-14)
(3.86905e-13 0 -6.41347e-14)
(4.02246e-13 0 -5.02332e-14)
(4.15292e-13 0 -4.6083e-14)
(4.30093e-13 0 -4.69848e-14)
(4.47552e-13 0 -4.97863e-14)
(4.67442e-13 0 -5.27964e-14)
(4.89116e-13 0 -5.48787e-14)
(5.11712e-13 0 -5.54014e-14)
(5.34298e-13 0 -5.40814e-14)
(5.55959e-13 0 -5.0876e-14)
(5.75857e-13 0 -4.59008e-14)
(5.93265e-13 0 -3.93626e-14)
(6.07566e-13 0 -3.15112e-14)
(6.18269e-13 0 -2.2614e-14)
(6.2502e-13 0 -1.29406e-14)
(6.27598e-13 0 -2.75046e-15)
(6.25905e-13 0 7.71224e-15)
(6.19955e-13 0 1.82125e-14)
(6.0987e-13 0 2.85173e-14)
(5.95865e-13 0 3.84009e-14)
(5.78217e-13 0 4.76626e-14)
(5.57235e-13 0 5.61493e-14)
(5.33224e-13 0 6.37728e-14)
(5.06473e-13 0 7.05192e-14)
(4.77245e-13 0 7.64447e-14)
(4.45783e-13 0 8.16582e-14)
(4.12317e-13 0 8.62913e-14)
(3.77089e-13 0 9.04647e-14)
(3.40358e-13 0 9.42627e-14)
(3.02405e-13 0 9.77214e-14)
(2.63517e-13 0 1.00835e-13)
(2.23961e-13 0 1.03571e-13)
(1.83964e-13 0 1.05894e-13)
(1.43704e-13 0 1.07775e-13)
(1.03309e-13 0 1.09202e-13)
(6.28672e-14 0 1.10169e-13)
(2.13213e-14 0 1.10609e-13)
(-4.70326e-05 0 6.60662e-05)
(-5.99037e-06 0 0.000103377)
(-9.98447e-05 0 0.000208298)
(-8.96508e-05 0 0.000344226)
(-0.000133817 0 0.000382987)
(-0.000281477 0 0.000310039)
(-0.000413712 0 0.000191956)
(-0.000410569 0 0.000325123)
(-0.000517165 0 0.000267194)
(-0.000579391 0 0.000251541)
(-0.000640191 0 0.000288076)
(-0.000713246 0 0.000287533)
(-0.000777628 0 0.000297763)
(-0.000850062 0 0.000274341)
(-0.000921315 0 0.000218338)
(-0.000962786 0 0.000236977)
(-0.00100835 0 0.000179586)
(-0.00103406 0 0.000165912)
(-0.00106171 0 0.000123258)
(-0.00108891 0 7.57761e-05)
(-0.00110682 0 5.79927e-05)
(-0.00111504 0 3.77005e-05)
(-0.00111339 0 3.85461e-06)
(-0.00110829 0 -1.47067e-05)
(-0.00111233 0 -2.81355e-05)
(-0.00111767 0 -3.39523e-05)
(-0.00112107 0 -1.91076e-05)
(-0.0011251 0 -5.04401e-06)
(-0.00113468 0 -1.63684e-05)
(-0.00115159 0 -2.5605e-05)
(-0.00116063 0 -1.8541e-05)
(-0.0011622 0 -2.82695e-05)
(-0.0011631 0 -3.41443e-05)
(-0.00117397 0 -1.0913e-05)
(-0.00117851 0 -8.01135e-06)
(-0.00117141 0 -3.703e-05)
(-0.00114499 0 -8.5558e-05)
(-0.00112492 0 -8.82945e-05)
(-0.00109091 0 -0.00013249)
(-0.00104662 0 -0.000164148)
(-0.00100549 0 -0.000188552)
(-0.000943411 0 -0.000208073)
(-0.000837194 0 -0.000218819)
(-0.000745541 0 -0.000198684)
(-0.000701071 0 -0.000162183)
(-0.000692802 0 -0.000136202)
(-0.000702161 0 -9.99914e-05)
(-0.000685038 0 -0.000145834)
(-0.000683214 0 -6.07672e-05)
(-0.00065586 0 -4.01753e-05)
(-0.000650459 0 -1.26523e-05)
(-0.000660874 0 3.25558e-05)
(-0.000681052 0 9.52472e-05)
(-0.000707029 0 9.33113e-05)
(-0.000735959 0 7.0916e-05)
(-0.000749363 0 5.48066e-05)
(-0.000753751 0 -2.88543e-05)
(-0.000755506 0 -0.000120504)
(-0.00077226 0 -7.4021e-05)
(-0.00073134 0 -0.00016632)
(-0.000646681 0 -0.000217508)
(-0.000628031 0 -0.000156114)
(-0.000603426 0 -0.000175513)
(-0.000487187 0 -0.000335858)
(-0.000496049 0 -0.000147643)
(-0.000390519 0 -0.00020906)
(-0.000298249 0 -0.00023004)
(-0.000258839 0 -0.000200966)
(-0.000108712 0 -0.000268068)
(3.67601e-05 0 -0.000230502)
(0.000117318 0 -0.00012689)
(0.000184314 0 -5.83182e-05)
(0.000207532 0 -0.000186564)
(0.000312937 0 -7.13667e-05)
(0.000366809 0 -3.18537e-05)
(0.000376014 0 9.81229e-05)
(0.000402897 0 0.000120032)
(0.000384073 0 6.48426e-05)
(0.000161399 0 0.000206184)
(4.8567e-06 0 -0.00016051)
(-6.1294e-14 0 -3.62027e-13)
(-6.71853e-13 0 -1.99814e-13)
(4.39689e-13 0 -1.0425e-13)
(4.18562e-13 0 -6.78138e-14)
(4.12661e-13 0 -5.65485e-14)
(4.16236e-13 0 -5.68976e-14)
(4.26995e-13 0 -6.23143e-14)
(4.43388e-13 0 -6.90044e-14)
(4.63958e-13 0 -7.49684e-14)
(4.87308e-13 0 -7.89126e-14)
(5.1208e-13 0 -8.01514e-14)
(5.37002e-13 0 -7.84283e-14)
(5.60928e-13 0 -7.37863e-14)
(5.82878e-13 0 -6.64713e-14)
(6.02042e-13 0 -5.68471e-14)
(6.17772e-13 0 -4.53297e-14)
(6.29564e-13 0 -3.23537e-14)
(6.37068e-13 0 -1.83515e-14)
(6.40083e-13 0 -3.73115e-15)
(6.38534e-13 0 1.11411e-14)
(6.32452e-13 0 2.59407e-14)
(6.21969e-13 0 4.03736e-14)
(6.07325e-13 0 5.41709e-14)
(5.88842e-13 0 6.71009e-14)
(5.66893e-13 0 7.89895e-14)
(5.41863e-13 0 8.97367e-14)
(5.14121e-13 0 9.93236e-14)
(4.83993e-13 0 1.07808e-13)
(4.51762e-13 0 1.15303e-13)
(4.17665e-13 0 1.21955e-13)
(3.81917e-13 0 1.279e-13)
(3.44734e-13 0 1.33244e-13)
(3.06348e-13 0 1.38042e-13)
(2.67009e-13 0 1.42305e-13)
(2.26966e-13 0 1.4601e-13)
(1.86446e-13 0 1.49125e-13)
(1.45639e-13 0 1.5162e-13)
(1.0468e-13 0 1.53477e-13)
(6.36428e-14 0 1.54678e-13)
(2.15552e-14 0 1.55193e-13)
(-4.83806e-05 0 0.000107721)
(-6.61141e-05 0 0.000159574)
(-0.000172134 0 0.000265213)
(-0.000304308 0 0.00029964)
(-0.000242928 0 0.000394163)
(-0.000278586 0 0.000371309)
(-0.000330894 0 0.00033639)
(-0.000420565 0 0.000311446)
(-0.000451919 0 0.000363777)
(-0.000545934 0 0.000311589)
(-0.000583631 0 0.000343285)
(-0.000641616 0 0.000350333)
(-0.000696634 0 0.000341475)
(-0.000738788 0 0.000340153)
(-0.000780846 0 0.000322595)
(-0.000835551 0 0.00025621)
(-0.000874465 0 0.000204471)
(-0.000908717 0 0.000134943)
(-0.000931046 0 0.000103099)
(-0.000941337 0 9.80438e-05)
(-0.000943729 0 8.29267e-05)
(-0.000947049 0 4.78891e-05)
(-0.000954059 0 8.62543e-06)
(-0.000957976 0 -1.65309e-05)
(-0.000961762 0 -1.84929e-05)
(-0.00096365 0 -1.82642e-05)
(-0.000970455 0 -1.48053e-05)
(-0.000981594 0 -2.9457e-06)
(-0.000995981 0 1.08734e-05)
(-0.00101971 0 7.65347e-06)
(-0.00104174 0 7.82337e-06)
(-0.00105854 0 1.28873e-05)
(-0.00107209 0 1.16623e-05)
(-0.00107904 0 4.50096e-06)
(-0.00108175 0 -2.74754e-05)
(-0.0010873 0 -4.97298e-05)
(-0.00109582 0 -6.41871e-05)
(-0.00109467 0 -0.000109485)
(-0.0010409 0 -0.000145553)
(-0.000992486 0 -0.000184662)
(-0.000949847 0 -0.000236378)
(-0.000896021 0 -0.000228399)
(-0.000763689 0 -0.000272239)
(-0.000637447 0 -0.000241076)
(-0.000542647 0 -0.000211638)
(-0.00051229 0 -0.000155804)
(-0.000533128 0 -7.28532e-05)
(-0.000522173 0 -0.0001104)
(-0.000539564 0 -9.70121e-05)
(-0.000545374 0 -7.66885e-05)
(-0.000568609 0 -7.74835e-06)
(-0.000590541 0 8.05676e-05)
(-0.000604856 0 0.000104684)
(-0.000618761 0 0.000115041)
(-0.000629066 0 0.000100614)
(-0.000633205 0 4.56405e-05)
(-0.00062711 0 -1.39197e-05)
(-0.000618703 0 -7.57524e-05)
(-0.000589391 0 -0.000186938)
(-0.00058543 0 -0.00016965)
(-0.000552152 0 -0.000221567)
(-0.000467078 0 -0.000331636)
(-0.000455663 0 -0.000319151)
(-0.000533489 0 -0.000179998)
(-0.000395417 0 -0.000309764)
(-0.000362792 0 -0.000289949)
(-0.000238033 0 -0.000341231)
(-0.00015511 0 -0.000352744)
(-1.33169e-05 0 -0.00036672)
(3.92288e-05 0 -0.000321226)
(0.000135165 0 -0.00025842)
(0.000226302 0 -0.000173652)
(0.00022456 0 -0.000246458)
(0.000346941 0 -9.63409e-05)
(0.000370117 0 5.33609e-05)
(0.000371883 0 0.000112233)
(0.000394596 0 0.000154351)
(0.000403732 0 0.000119668)
(-4.24909e-05 0 7.18754e-05)
(4.88748e-06 0 4.20214e-05)
(7.79453e-14 0 1.41777e-14)
(-6.00594e-13 0 -8.6181e-14)
(4.86008e-13 0 -5.39322e-14)
(4.3504e-13 0 -4.59459e-14)
(4.13592e-13 0 -5.0932e-14)
(4.09926e-13 0 -6.2355e-14)
(4.18175e-13 0 -7.59616e-14)
(4.34898e-13 0 -8.87615e-14)
(4.57534e-13 0 -9.90183e-14)
(4.83933e-13 0 -1.05562e-13)
(5.12196e-13 0 -1.07817e-13)
(5.40663e-13 0 -1.05673e-13)
(5.67915e-13 0 -9.93516e-14)
(5.92796e-13 0 -8.93075e-14)
(6.14406e-13 0 -7.61294e-14)
(6.32059e-13 0 -6.0457e-14)
(6.45248e-13 0 -4.29353e-14)
(6.53643e-13 0 -2.41896e-14)
(6.5709e-13 0 -4.79771e-15)
(6.55576e-13 0 1.47415e-14)
(6.49188e-13 0 3.40187e-14)
(6.38101e-13 0 5.26984e-14)
(6.22592e-13 0 7.04981e-14)
(6.03036e-13 0 8.71819e-14)
(5.7987e-13 0 1.0257e-13)
(5.53558e-13 0 1.16552e-13)
(5.24543e-13 0 1.29092e-13)
(4.93225e-13 0 1.40229e-13)
(4.5993e-13 0 1.50066e-13)
(4.24914e-13 0 1.58744e-13)
(3.88378e-13 0 1.66414e-13)
(3.505e-13 0 1.73206e-13)
(3.11466e-13 0 1.79212e-13)
(2.71485e-13 0 1.84475e-13)
(2.30781e-13 0 1.89003e-13)
(1.89574e-13 0 1.92781e-13)
(1.48056e-13 0 1.95791e-13)
(1.06367e-13 0 1.98015e-13)
(6.45837e-14 0 1.99437e-13)
(2.18368e-14 0 2.00044e-13)
(-4.72577e-05 0 0.000166305)
(-7.81134e-05 0 0.000248617)
(-0.000254912 0 0.0003135)
(-0.000259155 0 0.000412784)
(-0.000294577 0 0.000429841)
(-0.000305486 0 0.000424095)
(-0.000393947 0 0.000340794)
(-0.000408898 0 0.000360825)
(-0.000392266 0 0.00043071)
(-0.000507755 0 0.000359237)
(-0.000528557 0 0.000393457)
(-0.000549324 0 0.000421023)
(-0.000587258 0 0.000416456)
(-0.000630315 0 0.000384732)
(-0.000680092 0 0.000322505)
(-0.000725669 0 0.000266463)
(-0.000752396 0 0.000240638)
(-0.000760589 0 0.000223923)
(-0.000771804 0 0.000183805)
(-0.000779918 0 0.000148705)
(-0.000789875 0 4.29304e-05)
(-0.000786137 0 6.29116e-05)
(-0.000799345 0 1.82914e-05)
(-0.000818563 0 -9.18025e-06)
(-0.000834575 0 9.11122e-06)
(-0.000862999 0 -1.2448e-05)
(-0.000897135 0 -5.85317e-06)
(-0.000924608 0 1.31553e-05)
(-0.000951839 0 8.35023e-06)
(-0.00097951 0 1.25962e-05)
(-0.000999151 0 3.29084e-05)
(-0.00101511 0 -7.57044e-06)
(-0.00103251 0 -1.32767e-07)
(-0.00104731 0 9.42392e-06)
(-0.00105482 0 -1.41838e-07)
(-0.0010596 0 -1.53886e-05)
(-0.00107522 0 -2.48013e-05)
(-0.00108603 0 -3.32574e-05)
(-0.00103224 0 -0.000288682)
(-0.000976762 0 -0.000233695)
(-0.000927185 0 -0.000269962)
(-0.000877227 0 -0.000336671)
(-0.000737451 0 -0.0005066)
(-0.000597341 0 -0.000435469)
(-0.000499974 0 -0.000261773)
(-0.000399051 0 -0.000212613)
(-0.000387457 0 -8.67009e-05)
(-0.000308878 0 -0.000140725)
(-0.000349134 0 -5.50853e-05)
(-0.000403231 0 -2.76095e-06)
(-0.000457928 0 2.16262e-05)
(-0.000479547 0 7.45443e-05)
(-0.000485692 0 0.000119035)
(-0.00048918 0 0.000122438)
(-0.000488993 0 8.50994e-05)
(-0.000476871 0 3.3199e-05)
(-0.000470319 0 -3.12024e-05)
(-0.000459433 0 -9.19246e-05)
(-0.000433096 0 -0.000180526)
(-0.000421229 0 -0.000233819)
(-0.000434061 0 -0.000229284)
(-0.000413725 0 -0.000252085)
(-0.000363151 0 -0.000302453)
(-0.000349484 0 -0.000305123)
(-0.000303767 0 -0.00032829)
(-0.000227992 0 -0.000423412)
(-0.000112832 0 -0.000498787)
(-4.27123e-05 0 -0.000476505)
(6.50197e-05 0 -0.000462547)
(0.000180146 0 -0.000406862)
(0.000270877 0 -0.000320204)
(0.000277132 0 -0.000282803)
(0.000349152 0 -0.000158249)
(0.000340343 0 -0.000124707)
(0.000343252 0 2.01213e-05)
(0.000344953 0 5.87459e-05)
(0.000366434 0 0.000109497)
(0.00035324 0 0.000205383)
(-0.000196439 0 0.000139414)
(5.1543e-06 0 0.000206811)
(4.50056e-14 0 4.95324e-13)
(-5.91777e-13 0 7.37293e-14)
(4.80369e-13 0 2.08238e-14)
(4.22001e-13 0 -1.09549e-14)
(3.96682e-13 0 -3.87642e-14)
(3.91593e-13 0 -6.55171e-14)
(4.00766e-13 0 -9.01768e-14)
(4.20331e-13 0 -1.10977e-13)
(4.47158e-13 0 -1.26679e-13)
(4.78509e-13 0 -1.36402e-13)
(5.11969e-13 0 -1.39816e-13)
(5.45468e-13 0 -1.37066e-13)
(5.77294e-13 0 -1.28656e-13)
(6.061e-13 0 -1.15332e-13)
(6.30893e-13 0 -9.79774e-14)
(6.50966e-13 0 -7.75086e-14)
(6.65832e-13 0 -5.48168e-14)
(6.75206e-13 0 -3.07421e-14)
(6.79014e-13 0 -6.04778e-15)
(6.77351e-13 0 1.86181e-14)
(6.70409e-13 0 4.27478e-14)
(6.58449e-13 0 6.59607e-14)
(6.41808e-13 0 8.79686e-14)
(6.20914e-13 0 1.08547e-13)
(5.96263e-13 0 1.27525e-13)
(5.68385e-13 0 1.44794e-13)
(5.37798e-13 0 1.60308e-13)
(5.04968e-13 0 1.74091e-13)
(4.70276e-13 0 1.86232e-13)
(4.34012e-13 0 1.9687e-13)
(3.96379e-13 0 2.06167e-13)
(3.57532e-13 0 2.14286e-13)
(3.17617e-13 0 2.21359e-13)
(2.768e-13 0 2.27476e-13)
(2.35272e-13 0 2.32685e-13)
(1.93235e-13 0 2.37003e-13)
(1.50872e-13 0 2.40427e-13)
(1.08325e-13 0 2.42949e-13)
(6.56719e-14 0 2.44558e-13)
(2.21621e-14 0 2.45245e-13)
(-4.15814e-05 0 0.000222632)
(-9.04213e-06 0 0.000307944)
(-0.000102738 0 0.000415193)
(-0.000180462 0 0.000471633)
(-0.000221838 0 0.000484877)
(-0.00023058 0 0.00048418)
(-0.000344465 0 0.000421445)
(-0.000392887 0 0.000421317)
(-0.000432114 0 0.00040392)
(-0.000429556 0 0.000441109)
(-0.000457551 0 0.000451653)
(-0.000504699 0 0.000416652)
(-0.000502732 0 0.000439758)
(-0.000508201 0 0.000447625)
(-0.000565695 0 0.000377224)
(-0.000586067 0 0.000352702)
(-0.000602409 0 0.000325444)
(-0.000645612 0 0.000151255)
(-0.000622257 0 0.000117939)
(-0.000616262 0 8.25076e-05)
(-0.000611355 0 9.09416e-05)
(-0.000624612 0 3.16115e-05)
(-0.000645129 0 6.23753e-05)
(-0.000690513 0 6.82465e-05)
(-0.000746822 0 1.84812e-05)
(-0.000817404 0 2.87431e-05)
(-0.000877485 0 4.47122e-05)
(-0.000913475 0 5.33374e-05)
(-0.000943249 0 6.26442e-05)
(-0.000974052 0 6.75779e-05)
(-0.000998899 0 4.4436e-05)
(-0.00101437 0 2.47067e-05)
(-0.00102369 0 2.85492e-05)
(-0.00103124 0 2.06375e-05)
(-0.00103641 0 -3.07207e-06)
(-0.00103768 0 -7.46412e-05)
(-0.00104022 0 -0.000101231)
(-0.00104612 0 -9.90587e-05)
(-0.0010494 0 -0.000140836)
(-0.000928863 0 -0.000484739)
(-0.000903389 0 -0.000389139)
(-0.000861445 0 -0.000438903)
(-0.000837359 0 -0.000484803)
(-0.000656835 0 -0.000553071)
(-0.000493361 0 -0.000427921)
(-0.000335123 0 -0.000368846)
(-0.000436421 0 0.000153651)
(-0.000161237 0 -0.000148204)
(-0.000171407 0 -1.92143e-05)
(-0.00020421 0 3.4557e-05)
(-0.000304095 0 8.46508e-05)
(-0.000338219 0 8.7784e-05)
(-0.000336694 0 0.000100213)
(-0.000332415 0 0.000108324)
(-0.000317027 0 8.59272e-05)
(-0.000303726 0 4.659e-05)
(-0.000308933 0 8.32505e-06)
(-0.000326679 0 -6.67053e-05)
(-0.000321798 0 -0.000152237)
(-0.00032577 0 -0.000216227)
(-0.000344179 0 -0.000239346)
(-0.000301522 0 -0.000299108)
(-0.000279794 0 -0.000318271)
(-0.000288071 0 -0.000316969)
(-0.000171022 0 -0.000410449)
(-4.27788e-05 0 -0.000517382)
(-5.67332e-06 0 -0.000613434)
(0.000145932 0 -0.000579216)
(0.00019872 0 -0.000544057)
(0.000265511 0 -0.000480205)
(0.000303279 0 -0.0004261)
(0.000387449 0 -0.000287398)
(0.000386801 0 -0.000227285)
(0.000371262 0 -0.000171064)
(0.00036548 0 4.12814e-06)
(0.000362396 0 5.96479e-05)
(0.000359608 0 0.000139339)
(0.000332258 0 0.000276009)
(-0.000136312 0 0.000310552)
(5.06347e-06 0 0.000370832)
(-6.42032e-15 0 7.43702e-13)
(-8.16456e-13 0 1.51344e-13)
(4.01787e-13 0 7.42253e-14)
(3.75897e-13 0 1.9817e-14)
(3.59461e-13 0 -2.79008e-14)
(3.58885e-13 0 -7.09768e-14)
(3.72877e-13 0 -1.08321e-13)
(3.98396e-13 0 -1.38435e-13)
(4.32109e-13 0 -1.60363e-13)
(4.70796e-13 0 -1.7353e-13)
(5.11533e-13 0 -1.77936e-13)
(5.51823e-13 0 -1.74097e-13)
(5.89649e-13 0 -1.629e-13)
(6.23475e-13 0 -1.45477e-13)
(6.5223e-13 0 -1.23076e-13)
(6.7522e-13 0 -9.69457e-14)
(6.92014e-13 0 -6.82591e-14)
(7.02412e-13 0 -3.80868e-14)
(7.0645e-13 0 -7.38685e-15)
(7.04372e-13 0 2.30304e-14)
(6.9653e-13 0 5.25376e-14)
(6.83321e-13 0 8.06902e-14)
(6.65178e-13 0 1.07187e-13)
(6.42592e-13 0 1.31821e-13)
(6.16118e-13 0 1.54453e-13)
(5.8634e-13 0 1.74995e-13)
(5.53841e-13 0 1.93415e-13)
(5.19149e-13 0 2.09742e-13)
(4.82708e-13 0 2.24064e-13)
(4.44849e-13 0 2.36526e-13)
(4.05794e-13 0 2.47309e-13)
(3.65692e-13 0 2.56607e-13)
(3.24656e-13 0 2.64598e-13)
(2.82811e-13 0 2.71421e-13)
(2.40308e-13 0 2.77171e-13)
(1.97316e-13 0 2.81902e-13)
(1.54002e-13 0 2.85639e-13)
(1.10498e-13 0 2.88384e-13)
(6.68798e-14 0 2.90134e-13)
(2.25241e-14 0 2.90886e-13)
(-2.5161e-05 0 0.000256774)
(-4.01256e-05 0 0.000343954)
(-6.38463e-05 0 0.00045361)
(-0.000138246 0 0.000503895)
(-0.000178507 0 0.00051119)
(-0.000213412 0 0.000491692)
(-0.000271379 0 0.000462568)
(-0.000306837 0 0.000488386)
(-0.000342323 0 0.00048585)
(-0.000425298 0 0.000430513)
(-0.000421292 0 0.000462668)
(-0.000447462 0 0.0004417)
(-0.000461716 0 0.000421017)
(-0.00046316 0 0.00041538)
(-0.000469947 0 0.000400457)
(-0.000503492 0 0.000332028)
(-0.000505258 0 0.0002742)
(-0.000527099 0 0.000172534)
(-0.000514713 0 0.000161928)
(-0.000513897 0 0.000153063)
(-0.000547164 0 9.51061e-05)
(-0.000570039 0 0.000162941)
(-0.000641756 0 0.000105365)
(-0.000690675 0 0.000108709)
(-0.000740341 0 0.000129126)
(-0.000816463 0 9.28434e-05)
(-0.000878147 0 0.000109336)
(-0.000919546 0 0.000104103)
(-0.000949885 0 8.19043e-05)
(-0.000971679 0 7.95751e-05)
(-0.000984216 0 6.14164e-05)
(-0.000985701 0 3.52708e-05)
(-0.000979027 0 1.5015e-05)
(-0.000977882 0 3.14965e-05)
(-0.000973506 0 1.35297e-06)
(-0.000972243 0 -1.5603e-05)
(-0.00097364 0 -5.66257e-05)
(-0.000964203 0 -0.000123726)
(-0.000940238 0 -0.000280367)
(-0.000961143 0 -0.000238427)
(-0.000865185 0 -0.00048663)
(-0.0008694 0 -0.000454933)
(-0.00082761 0 -0.00052936)
(-0.000745291 0 -0.000562671)
(-0.000637937 0 -0.000520016)
(-0.000460243 0 -0.000487885)
(-0.0001158 0 -0.000495062)
(-0.000124138 0 -0.000198146)
(-9.69165e-05 0 1.66961e-05)
(-2.60437e-05 0 9.69991e-05)
(-3.94963e-05 0 0.000128545)
(-0.000102538 0 0.000154897)
(-0.000203853 0 0.000122505)
(-0.000218136 0 9.62438e-05)
(-0.000205836 0 5.49144e-05)
(-0.000198674 0 1.79814e-05)
(-0.000198805 0 -1.10591e-05)
(-0.00021222 0 -8.23206e-05)
(-0.000229598 0 -0.000138888)
(-0.000272929 0 -0.000172263)
(-0.000245187 0 -0.000263337)
(-0.000218379 0 -0.000318251)
(-0.000214061 0 -0.000351219)
(-6.6492e-05 0 -0.000453457)
(-1.16967e-05 0 -0.000503843)
(9.60074e-05 0 -0.000561938)
(0.00011835 0 -0.000676877)
(0.000234313 0 -0.000635509)
(0.000248136 0 -0.000617541)
(0.000326557 0 -0.000546828)
(0.00038493 0 -0.000459711)
(0.000442816 0 -0.000338671)
(0.000469633 0 -0.000196157)
(0.000434053 0 -0.000121508)
(0.000410469 0 1.79078e-05)
(0.000408316 0 6.74826e-05)
(0.000358233 0 0.000211696)
(0.000332199 0 0.000342971)
(-0.000107863 0 0.0004063)
(5.25493e-06 0 0.000518393)
(-8.74409e-14 0 5.46625e-13)
(-8.76092e-13 0 1.27513e-13)
(3.49315e-13 0 1.0429e-13)
(3.20324e-13 0 4.32336e-14)
(3.06319e-13 0 -2.23071e-14)
(3.11525e-13 0 -8.27065e-14)
(3.33451e-13 0 -1.34105e-13)
(3.68289e-13 0 -1.74512e-13)
(4.12064e-13 0 -2.03064e-13)
(4.60936e-13 0 -2.19521e-13)
(5.11401e-13 0 -2.24316e-13)
(5.60504e-13 0 -2.18458e-13)
(6.05915e-13 0 -2.03342e-13)
(6.45925e-13 0 -1.80596e-13)
(6.79424e-13 0 -1.51924e-13)
(7.05783e-13 0 -1.18968e-13)
(7.2469e-13 0 -8.32257e-14)
(7.36078e-13 0 -4.60139e-14)
(7.40131e-13 0 -8.48312e-15)
(7.37275e-13 0 2.83975e-14)
(7.28068e-13 0 6.38739e-14)
(7.13098e-13 0 9.74217e-14)
(6.9294e-13 0 1.28714e-13)
(6.6818e-13 0 1.57567e-13)
(6.39436e-13 0 1.83885e-13)
(6.07347e-13 0 2.07632e-13)
(5.72545e-13 0 2.28821e-13)
(5.35617e-13 0 2.47514e-13)
(4.9706e-13 0 2.63824e-13)
(4.57257e-13 0 2.77916e-13)
(4.16461e-13 0 2.89998e-13)
(3.74821e-13 0 3.003e-13)
(3.3243e-13 0 3.09042e-13)
(2.89373e-13 0 3.16416e-13)
(2.45754e-13 0 3.22564e-13)
(2.01703e-13 0 3.27582e-13)
(1.57354e-13 0 3.31523e-13)
(1.12821e-13 0 3.34411e-13)
(6.81741e-14 0 3.36251e-13)
(2.29138e-14 0 3.37048e-13)
(-3.06412e-05 0 0.000257831)
(7.91051e-06 0 0.000374529)
(-5.11872e-05 0 0.000493769)
(-0.000114931 0 0.000547291)
(-0.000144119 0 0.000548949)
(-0.000181882 0 0.000524326)
(-0.00019544 0 0.00051068)
(-0.000288323 0 0.000502392)
(-0.000271743 0 0.000528475)
(-0.000374162 0 0.000460241)
(-0.000349116 0 0.000492204)
(-0.000359806 0 0.000487976)
(-0.000370538 0 0.000467699)
(-0.000381125 0 0.000433667)
(-0.000387878 0 0.000394655)
(-0.000373808 0 0.000371351)
(-0.00039868 0 0.000301959)
(-0.000407907 0 0.000274693)
(-0.00048697 0 0.000166882)
(-0.00051538 0 0.000160382)
(-0.00055793 0 0.000160652)
(-0.000622477 0 0.00014571)
(-0.000693914 0 0.000134588)
(-0.000734467 0 0.000148956)
(-0.000766413 0 0.000142024)
(-0.000808421 0 0.000166972)
(-0.000854531 0 0.000162264)
(-0.000883227 0 0.000115727)
(-0.000893169 0 8.58293e-05)
(-0.000897416 0 7.49299e-05)
(-0.000899286 0 5.91527e-05)
(-0.000865 0 3.83336e-07)
(-0.000838019 0 7.50847e-06)
(-0.000828093 0 5.85375e-06)
(-0.000813151 0 -2.09252e-05)
(-0.000795072 0 -5.45417e-05)
(-0.000792382 0 -6.62809e-05)
(-0.000785236 0 -0.000173203)
(-0.000777103 0 -0.000299198)
(-0.00078242 0 -0.000377314)
(-0.000755992 0 -0.000512634)
(-0.000771284 0 -0.00056817)
(-0.000704585 0 -0.000669305)
(-0.000693254 0 -0.000682043)
(-0.000598695 0 -0.000734328)
(-0.000459569 0 -0.000716134)
(-0.000378229 0 -0.000521024)
(-0.000383556 0 -0.000219664)
(-0.000179109 0 -0.00012827)
(2.71891e-05 0 -9.70595e-06)
(5.13476e-05 0 0.00015036)
(1.28656e-06 0 0.000188017)
(2.11754e-06 0 0.00018523)
(-1.28647e-05 0 0.000156574)
(-5.16532e-05 0 8.34104e-05)
(-0.000116235 0 4.02919e-05)
(-0.000129303 0 -5.90019e-06)
(-0.000149151 0 -5.27782e-05)
(-0.000153909 0 -0.000128028)