/*--------------------------------*- C++ -*----------------------------------*\
  =========                 |
  \\      /  F ield         | OpenFOAM: The Open Source CFD Toolbox
   \\    /   O peration     | Website:  https://openfoam.org
    \\  /    A nd           | Version:  6
     \\/     M anipulation  |
\*---------------------------------------------------------------------------*/
FoamFile
{
    version     2.0;
    format      ascii;
    class       volScalarField;
    location    "2700";
    object      Su;
}
// * * * * * * * * * * * * * * * * * * * * * * * * * * * * * * * * * * * * * //

dimensions      [0 0 -1 0 0 0 0];

internalField   nonuniform List<scalar> 
4800
(
0.217524
0.211394
0.205304
0.199327
0.193537
0.187983
0.182707
0.177754
0.173148
0.168892
0.164978
0.161399
0.158137
0.155169
0.152465
0.149992
0.147715
0.145602
0.143634
0.141786
0.140016
0.138299
0.13663
0.134999
0.133388
0.131798
0.130237
0.128698
0.127173
0.125671
0.124197
0.122747
0.121323
0.11993
0.11857
0.117245
0.115954
0.114695
0.113459
0.112239
0.111036
0.109843
0.108658
0.107485
0.106313
0.105139
0.103962
0.102777
0.101581
0.10037
0.0991422
0.0978936
0.0966211
0.0953221
0.0939925
0.0926261
0.091214
0.089745
0.088207
0.0865866
0.0848717
0.0830509
0.0811113
0.079038
0.0768131
0.0744141
0.0718152
0.0689897
0.0659083
0.0625392
0.058856
0.0548299
0.0504337
0.0456821
0.0406141
0.0352642
0.0296464
0.0237274
0.0174738
0.0109638
0.00488587
0.00290854
0.00130319
-0.000583361
-0.00278269
-0.00522643
-0.00784875
-0.0106005
-0.0134469
-0.0163632
-0.0193316
-0.0223392
-0.0253761
-0.0284349
-0.0315101
-0.0345973
-0.0376928
-0.0407942
-0.0438991
-0.0470061
-0.0501136
-0.0532207
-0.0563266
-0.0594306
-0.0625324
-0.0656315
-0.0687279
-0.0718214
-0.0749119
-0.0779996
-0.0810846
-0.0841669
-0.0872468
-0.0903246
-0.0934004
-0.0964745
-0.0995473
-0.102619
-0.10569
-0.10876
0.217502
0.211329
0.205193
0.199169
0.193353
0.187815
0.18258
0.177658
0.173064
0.16881
0.1649
0.16133
0.158085
0.155141
0.152465
0.150021
0.147772
0.145682
0.14373
0.141891
0.140122
0.138405
0.136732
0.135088
0.133466
0.131868
0.130296
0.128741
0.127203
0.125684
0.124187
0.122714
0.121265
0.119843
0.118453
0.117096
0.115775
0.114486
0.113229
0.111993
0.110777
0.109572
0.108372
0.107193
0.106016
0.104838
0.103657
0.102473
0.101278
0.100071
0.0988472
0.0976044
0.0963386
0.095047
0.0937247
0.0923648
0.0909587
0.0894959
0.0879641
0.08635
0.0846413
0.0828259
0.0808906
0.0788216
0.0765998
0.0742033
0.0716067
0.0687844
0.0657108
0.0623594
0.0587037
0.0547248
0.0504052
0.0457327
0.0407172
0.0354108
0.0298307
0.0239269
0.0175952
0.0102749
0.000518599
0.00251421
0.00155956
-0.000293403
-0.00255882
-0.00506657
-0.00773666
-0.0105223
-0.0133925
-0.0163258
-0.0193066
-0.022323
-0.0253665
-0.0284302
-0.031509
-0.0345987
-0.0376961
-0.0407988
-0.0439046
-0.0470121
-0.0501199
-0.0532271
-0.056333
-0.0594368
-0.0625383
-0.0656372
-0.0687332
-0.0718263
-0.0749165
-0.0780038
-0.0810883
-0.0841702
-0.0872497
-0.0903271
-0.0934025
-0.0964762
-0.0995486
-0.10262
-0.10569
-0.108761
0.217452
0.211198
0.205017
0.198982
0.193171
0.18764
0.182415
0.177505
0.17292
0.168677
0.164793
0.161262
0.158069
0.15518
0.152555
0.150158
0.147951
0.145898
0.143972
0.142137
0.140364
0.138641
0.136954
0.13529
0.133649
0.132032
0.130433
0.128846
0.127276
0.125718
0.124172
0.122646
0.121143
0.119665
0.118217
0.116803
0.115426
0.114089
0.112791
0.111521
0.110276
0.109054
0.107831
0.106632
0.105442
0.104255
0.103069
0.101883
0.10069
0.0994865
0.098269
0.0970338
0.0957775
0.0944961
0.0931843
0.0918354
0.0904412
0.088991
0.0874729
0.0858732
0.084179
0.0823788
0.0804567
0.0783988
0.0761882
0.0738027
0.071219
0.068412
0.0653575
0.0620362
0.0584255
0.0545035
0.0502533
0.0456682
0.0407582
0.0355532
0.0300735
0.024345
0.0184464
0.0125085
0.00707762
0.00479186
0.00269032
0.000386566
-0.00211294
-0.00476302
-0.00752645
-0.0103758
-0.0132907
-0.016256
-0.0192598
-0.0222933
-0.0253493
-0.0284222
-0.0315077
-0.0346024
-0.0377034
-0.0408085
-0.043916
-0.0470245
-0.0501328
-0.0532402
-0.0563458
-0.0594494
-0.0625504
-0.0656486
-0.0687439
-0.0718362
-0.0749256
-0.078012
-0.0810957
-0.0841768
-0.0872555
-0.090332
-0.0934067
-0.0964796
-0.0995513
-0.102622
-0.105692
-0.108761
0.217394
0.211044
0.204822
0.198791
0.192991
0.187462
0.18223
0.17732
0.172758
0.168562
0.164742
0.161285
0.158166
0.155347
0.152784
0.150442
0.148279
0.146262
0.144357
0.142523
0.140743
0.13901
0.137304
0.135614
0.133948
0.132302
0.130667
0.129035
0.12741
0.125787
0.124169
0.12256
0.120972
0.119408
0.117875
0.11638
0.11493
0.113526
0.112171
0.110857
0.109575
0.108322
0.107074
0.105842
0.104627
0.103421
0.102223
0.101031
0.0998378
0.0986381
0.0974265
0.0961983
0.0949507
0.0936801
0.0923806
0.0910456
0.0896678
0.0882364
0.0867395
0.0851625
0.0834918
0.0817157
0.0798179
0.0777818
0.075596
0.0732366
0.0706818
0.0679085
0.0648904
0.0616098
0.0580492
0.0541888
0.050013
0.0455223
0.0407295
0.0356634
0.0303759
0.0249638
0.0196034
0.0145501
0.0101917
0.00686679
0.00400149
0.00124139
-0.00153597
-0.00436433
-0.00724752
-0.0101801
-0.0131542
-0.0161624
-0.0191977
-0.0222543
-0.0253275
-0.0284132
-0.0315082
-0.0346097
-0.0377155
-0.0408241
-0.0439338
-0.0470436
-0.0501526
-0.05326
-0.0563654
-0.0594684
-0.0625685
-0.0656657
-0.0687599
-0.0718511
-0.0749392
-0.0780244
-0.0811069
-0.0841867
-0.0872642
-0.0903395
-0.0934129
-0.0964847
-0.0995552
-0.102625
-0.105693
-0.108761
0.217382
0.210994
0.204725
0.198658
0.192838
0.187297
0.182065
0.177175
0.172667
0.168552
0.16482
0.161455
0.158423
0.155679
0.153183
0.150893
0.148766
0.146772
0.144874
0.143041
0.141256
0.139505
0.137776
0.136057
0.134364
0.132684
0.131001
0.129309
0.127611
0.125906
0.124196
0.122486
0.120789
0.119113
0.117469
0.115866
0.114318
0.112828
0.111401
0.110029
0.108701
0.107403
0.106121
0.104858
0.103613
0.102382
0.101163
0.0999578
0.0987571
0.0975573
0.0963494
0.095127
0.093887
0.0926272
0.0913415
0.090022
0.0886627
0.0872539
0.085783
0.0842343
0.0825942
0.0808495
0.0789861
0.076984
0.0748336
0.0725135
0.0700002
0.0672762
0.0643137
0.0610864
0.0575827
0.0537946
0.0497076
0.0453262
0.0406667
0.0357658
0.0307062
0.0256312
0.020725
0.016177
0.0121188
0.00846669
0.00518851
0.0020943
-0.000926518
-0.00392855
-0.0069362
-0.00995897
-0.0129993
-0.0160564
-0.0191281
-0.0222121
-0.0253057
-0.0284066
-0.0315127
-0.0346224
-0.0377341
-0.0408466
-0.0439589
-0.0470701
-0.0501797
-0.0532871
-0.056392
-0.059494
-0.0625929
-0.0656888
-0.0687814
-0.071871
-0.0749574
-0.078041
-0.0811217
-0.0841999
-0.0872757
-0.0903494
-0.0934212
-0.0964915
-0.0995604
-0.102628
-0.105695
-0.108762
0.217355
0.210934
0.20465
0.198568
0.192734
0.187186
0.181978
0.177152
0.172728
0.16871
0.165082
0.161813
0.158864
0.156193
0.153756
0.151507
0.149408
0.14743
0.145537
0.143701
0.141904
0.14013
0.138376
0.136633
0.134911
0.13318
0.131435
0.129671
0.12789
0.126092
0.124275
0.122447
0.120622
0.118813
0.117032
0.115296
0.113624
0.112027
0.110511
0.109067
0.107682
0.106338
0.105017
0.103718
0.102439
0.101177
0.0999322
0.0987064
0.0974918
0.0962854
0.095075
0.0938551
0.0926208
0.0913702
0.0900984
0.0887956
0.0874566
0.0860722
0.0846295
0.0831113
0.0815049
0.0797969
0.0779731
0.0760145
0.07391
0.0716399
0.0691787
0.0665104
0.0636115
0.0604551
0.0570308
0.0533342
0.0493567
0.0451079
0.0406113
0.0359197
0.0311246
0.0263575
0.0217629
0.0174652
0.0134705
0.00967911
0.0061742
0.00285577
-0.00035367
-0.00350449
-0.00662652
-0.00973642
-0.012843
-0.0159504
-0.0190604
-0.0221733
-0.0252888
-0.0284061
-0.0315244
-0.0346428
-0.0377607
-0.0408774
-0.0439922
-0.0471048
-0.0502148
-0.0533219
-0.0564258
-0.0595264
-0.0626238
-0.0657178
-0.0688084
-0.0718959
-0.0749802
-0.0780616
-0.0811402
-0.0842163
-0.0872901
-0.0903617
-0.0934316
-0.0964999
-0.0995669
-0.102633
-0.105698
-0.108763
0.217322
0.210856
0.204565
0.198501
0.192704
0.187207
0.182064
0.177323
0.172999
0.169087
0.165561
0.162384
0.159515
0.156915
0.154527
0.152313
0.150237
0.148269
0.146376
0.14453
0.142715
0.140914
0.13913
0.137355
0.135588
0.133792
0.131974
0.130127
0.128249
0.12634
0.124401
0.122441
0.120473
0.118512
0.116579
0.114695
0.112886
0.111166
0.109542
0.108009
0.106554
0.105157
0.103793
0.102451
0.101134
0.0998395
0.0985672
0.0973184
0.0960852
0.0948665
0.0936494
0.0924284
0.0911978
0.0899531
0.0886902
0.0874019
0.086082
0.0847212
0.0833068
0.0818202
0.0802488
0.0785794
0.0767964
0.0748829
0.0728278
0.070612
0.0682095
0.0656045
0.0627794
0.0597078
0.0563771
0.0527844
0.0489302
0.0448335
0.0405251
0.036059
0.0315171
0.026998
0.0226123
0.0184417
0.0144502
0.0105914
0.00695642
0.00349071
0.000143128
-0.00312627
-0.00634552
-0.00953317
-0.012701
-0.0158564
-0.0190035
-0.022145
-0.0252823
-0.0284159
-0.0315463
-0.0346734
-0.0377973
-0.0409179
-0.044035
-0.0471486
-0.0502585
-0.0533647
-0.0564672
-0.059566
-0.0626612
-0.0657528
-0.068841
-0.0719258
-0.0750076
-0.0780864
-0.0811624
-0.0842359
-0.0873072
-0.0903764
-0.0934439
-0.0965099
-0.0995746
-0.102638
-0.105702
-0.108764
0.217332
0.210877
0.204595
0.198547
0.192777
0.187347
0.182311
0.177693
0.173491
0.169693
0.166267
0.163179
0.160386
0.157853
0.15551
0.153327
0.151271
0.149306
0.147404
0.145538
0.143701
0.141866
0.140045
0.13822
0.136387
0.134517
0.132613
0.130667
0.128677
0.126646
0.124575
0.122472
0.120347
0.118225
0.116133
0.114093
0.112132
0.110271
0.108522
0.106884
0.105344
0.10388
0.102467
0.101083
0.0997267
0.0983983
0.097096
0.095821
0.0945662
0.0933285
0.0920995
0.090873
0.0896447
0.0884069
0.0871519
0.085877
0.0845745
0.083233
0.0818414
0.0803822
0.0788419
0.0772072
0.0754627
0.0735923
0.0715861
0.0694263
0.067088
0.0645547
0.0618119
0.0588335
0.055612
0.0521496
0.048451
0.0445306
0.0404135
0.0361484
0.031816
0.0275058
0.0232862
0.0191772
0.0151646
0.0112655
0.00755223
0.00399011
0.000544516
-0.00281501
-0.00611241
-0.00936544
-0.0125867
-0.0157848
-0.0189658
-0.0221337
-0.0252912
-0.0284401
-0.0315816
-0.0347167
-0.0378459
-0.0409697
-0.0440883
-0.0472022
-0.0503113
-0.0534161
-0.0565165
-0.0596129
-0.0627053
-0.065794
-0.0688791
-0.0719608
-0.0750395
-0.0781151
-0.0811881
-0.0842587
-0.0873271
-0.0903935
-0.0934582
-0.0965215
-0.0995836
-0.102645
-0.105705
-0.108765
0.21735
0.21094
0.20471
0.198734
0.19307
0.187753
0.182819
0.178303
0.174211
0.170523
0.1672
0.164201
0.161482
0.159006
0.156701
0.154547
0.152506
0.150536
0.148623
0.146732
0.144867
0.142988
0.141115
0.139225
0.137316
0.13536
0.133354
0.131294
0.129174
0.127002
0.124786
0.122532
0.120247
0.117957
0.115695
0.113488
0.111362
0.109343
0.107453
0.105698
0.104064
0.102526
0.101057
0.0996268
0.0982306
0.0968667
0.0955337
0.094231
0.0929529
0.0916937
0.0904485
0.0892122
0.0879809
0.0867454
0.0854936
0.0842292
0.0829437
0.0816189
0.0802454
0.0788089
0.0772955
0.0756916
0.0739834
0.0721547
0.0701962
0.0680903
0.0658167
0.0633579
0.0607025
0.0578286
0.0547288
0.0514048
0.0478633
0.0441193
0.0401952
0.0361287
0.0319903
0.0278435
0.0237333
0.0196666
0.015655
0.0117389
0.00797957
0.00435569
0.000842821
-0.00258238
-0.00593965
-0.00924484
-0.0125101
-0.0157444
-0.0189544
-0.0221452
-0.0253203
-0.0284824
-0.0316334
-0.034775
-0.0379082
-0.0410341
-0.0441533
-0.0472665
-0.0503741
-0.0534765
-0.0565741
-0.0596673
-0.0627562
-0.0658413
-0.0689228
-0.0720008
-0.0750758
-0.0781479
-0.0812174
-0.0842845
-0.0873495
-0.0904127
-0.0934743
-0.0965345
-0.0995937
-0.102652
-0.10571
-0.108767
0.217392
0.211063
0.204915
0.199025
0.193461
0.188273
0.183484
0.179107
0.175143
0.171572
0.168351
0.165441
0.162794
0.160367
0.158097
0.155965
0.153927
0.151948
0.150021
0.148092
0.146186
0.144251
0.142315
0.14035
0.138349
0.13629
0.134171
0.131982
0.12972
0.127396
0.125022
0.122608
0.12016
0.117697
0.115253
0.112867
0.110575
0.108402
0.106367
0.104481
0.102737
0.10111
0.0995752
0.0980942
0.0966553
0.0952549
0.0938896
0.0925588
0.0912562
0.0899747
0.0887113
0.087462
0.0862227
0.0849839
0.083731
0.0824713
0.0811979
0.0798875
0.0785303
0.0771143
0.0756254
0.0740493
0.0723756
0.0705884
0.0686799
0.0666322
0.0644276
0.0620489
0.0594814
0.0567101
0.0537292
0.0505413
0.0471518
0.0435743
0.0398324
0.0359597
0.0319973
0.0279979
0.0239965
0.0199929
0.01598
0.0120406
0.0082542
0.00459325
0.00103684
-0.00243369
-0.00583444
-0.00917904
-0.0124785
-0.0157416
-0.0189751
-0.0221843
-0.0253736
-0.028546
-0.0317043
-0.0348504
-0.0379861
-0.0411126
-0.044231
-0.0473423
-0.0504472
-0.0535463
-0.0566402
-0.0597293
-0.0628141
-0.0658949
-0.068972
-0.0720458
-0.0751165
-0.0781845
-0.08125
-0.0843133
-0.0873746
-0.0904341
-0.0934922
-0.096549
-0.0996048
-0.10266
-0.105714
-0.108768
0.21747
0.211292
0.205285
0.199529
0.194089
0.189018
0.184355
0.180108
0.176269
0.172812
0.169695
0.166871
0.164287
0.161898
0.159656
0.157537
0.155496
0.153504
0.151556
0.149586
0.147632
0.145632
0.143619
0.141565
0.139459
0.137284
0.135031
0.132697
0.130283
0.1278
0.125263
0.122685
0.120074
0.117441
0.114816
0.112244
0.10977
0.10743
0.105246
0.103229
0.10137
0.0996445
0.0980318
0.0964941
0.0950106
0.0935738
0.0921754
0.0908162
0.0894872
0.0881819
0.0868989
0.0856352
0.084385
0.0831385
0.0818843
0.0806271
0.0793588
0.0780575
0.0767137
0.0753166
0.0738517
0.0723024
0.0706615
0.0689124
0.067049
0.0650544
0.0629138
0.0606145
0.058141
0.0554815
0.0526269
0.0495763
0.0463349
0.0429162
0.0393416
0.0356375
0.0318324
0.0279538
0.0240283
0.020072
0.0160943
0.0121747
0.00838662
0.00470985
0.00112902
-0.00237004
-0.0058001
-0.00917246
-0.0124968
-0.015781
-0.0190319
-0.0222549
-0.0254543
-0.0286339
-0.0317966
-0.0349449
-0.0380808
-0.0412061
-0.0443222
-0.0474302
-0.0505311
-0.0536258
-0.0567149
-0.0597991
-0.0628788
-0.0659545
-0.0690267
-0.0720956
-0.0751615
-0.0782249
-0.0812859
-0.0843449
-0.087402
-0.0904576
-0.0935118
-0.0965649
-0.0996171
-0.102669
-0.10572
-0.10877
0.217566
0.211574
0.205738
0.200138
0.194841
0.189905
0.18537
0.181258
0.177554
0.174215
0.171197
0.168446
0.165913
0.163555
0.161337
0.159225
0.157187
0.155172
0.153194
0.151175
0.149158
0.147086
0.144988
0.142829
0.1406
0.138286
0.135882
0.13339
0.13082
0.128183
0.125489
0.122748
0.119973
0.11717
0.114361
0.111595
0.108933
0.10642
0.104082
0.101931
0.0999583
0.0981372
0.0964421
0.0948421
0.0933131
0.0918392
0.0904071
0.0890193
0.0876646
0.0863361
0.0850329
0.0837534
0.08249
0.0812324
0.0799738
0.0787171
0.0774512
0.0761562
0.0748222
0.07344
0.0719956
0.0704736
0.0688676
0.0671599
0.0653464
0.0634118
0.0613389
0.0591153
0.0567282
0.0541669
0.051424
0.0485006
0.0454002
0.0421321
0.0387122
0.0351595
0.0314941
0.0277335
0.0238804
0.019965
0.0160382
0.0121637
0.00839187
0.00471508
0.00112452
-0.00238968
-0.00583716
-0.00922706
-0.0125676
-0.0158658
-0.0191281
-0.0223596
-0.0255649
-0.0287479
-0.0319119
-0.0350597
-0.0381936
-0.0413157
-0.0444275
-0.0475306
-0.0506262
-0.0537151
-0.0567984
-0.0598766
-0.0629504
-0.0660202
-0.0690866
-0.07215
-0.0752106
-0.0782688
-0.0813249
-0.0843791
-0.0874317
-0.0904829
-0.0935329
-0.096582
-0.0996302
-0.102678
-0.105725
-0.108772
0.21767
0.211874
0.206217
0.200783
0.19565
0.19089
0.18653
0.182577
0.179004
0.175769
0.17283
0.170133
0.167638
0.165307
0.163109
0.161007
0.158964
0.156909
0.154885
0.152807
0.150713
0.148568
0.146371
0.144097
0.141733
0.139268
0.136701
0.134042
0.131311
0.128521
0.125673
0.12277
0.119824
0.116844
0.11385
0.110893
0.108046
0.105366
0.102883
0.100603
0.0985145
0.0965956
0.0948183
0.0931516
0.0915751
0.090068
0.0886061
0.0871896
0.0858096
0.0844596
0.0831372
0.0818404
0.0805636
0.0792971
0.0780347
0.0767753
0.0755069
0.0742157
0.072889
0.0715186
0.0700878
0.0685837
0.067002
0.0653334
0.0635683
0.0616899
0.0596821
0.0575339
0.0552341
0.0527749
0.0501487
0.0473514
0.0443839
0.0412559
0.0379791
0.0345649
0.0310218
0.0273632
0.0235957
0.0197492
0.015876
0.0120379
0.00828754
0.00462
0.00103006
-0.00248899
-0.00594426
-0.00934297
-0.012692
-0.0159975
-0.0192652
-0.0225002
-0.0257071
-0.0288897
-0.0320516
-0.0351959
-0.0383252
-0.0414417
-0.0445474
-0.0476439
-0.0507325
-0.0538143
-0.0568905
-0.0599616
-0.0630285
-0.0660917
-0.0691516
-0.0722088
-0.0752635
-0.078316
-0.0813667
-0.0844158
-0.0874635
-0.09051
-0.0935555
-0.0966002
-0.0996443
-0.102688
-0.105731
-0.108774
0.217778
0.212195
0.206744
0.201515
0.196584
0.192004
0.187801
0.183982
0.18052
0.177382
0.174524
0.17189
0.169437
0.16713
0.164938
0.162829
0.160751
0.158658
0.156573
0.154432
0.152264
0.150037
0.147734
0.14534
0.142839
0.140218
0.137487
0.134659
0.131759
0.128802
0.125791
0.122724
0.119603
0.11644
0.113264
0.110128
0.107109
0.104269
0.101649
0.0992537
0.0970631
0.0950521
0.0931914
0.0914531
0.0898203
0.0882761
0.0867892
0.0853482
0.0839457
0.0825775
0.0812392
0.079927
0.078637
0.0773616
0.076095
0.0748325
0.0735599
0.0722687
0.0709466
0.0695874
0.0681752
0.0666984
0.065141
0.0635023
0.0617759
0.0599481
0.0580024
0.0559262
0.0537121
0.0513481
0.0488245
0.0461403
0.043297
0.0402972
0.0371469
0.0338546
0.0304246
0.0268702
0.0231963
0.0194289
0.0156154
0.0118135
0.00808762
0.00443497
0.000852758
-0.00266345
-0.00611886
-0.00951913
-0.0128699
-0.0161765
-0.0194442
-0.0226778
-0.0258818
-0.0290601
-0.0322165
-0.0353542
-0.0384761
-0.0415846
-0.044682
-0.0477699
-0.0508499
-0.0539232
-0.0569909
-0.060054
-0.063113
-0.0661686
-0.0692214
-0.0722717
-0.0753199
-0.0783663
-0.0814111
-0.0844547
-0.0874971
-0.0905386
-0.0935793
-0.0966194
-0.0996591
-0.102698
-0.105737
-0.108776
0.217902
0.212564
0.207343
0.202318
0.19758
0.193179
0.189138
0.185463
0.182125
0.179086
0.176297
0.173708
0.171282
0.168986
0.166788
0.164656
0.162533
0.160397
0.158238
0.156033
0.153784
0.151464
0.149052
0.146534
0.143889
0.141109
0.138212
0.135219
0.13215
0.129022
0.125841
0.122607
0.119312
0.115971
0.112616
0.109311
0.106136
0.103153
0.100403
0.0978923
0.0956007
0.0935061
0.0915739
0.0897733
0.0880837
0.0864916
0.0849744
0.0835126
0.0820938
0.0807124
0.0793618
0.0780373
0.0767371
0.0754553
0.0741849
0.0729186
0.0716438
0.0703522
0.069032
0.0676747
0.0662682
0.0648097
0.0632806
0.0616715
0.0599772
0.0581936
0.0563061
0.0542974
0.0521587
0.0498833
0.047462
0.044888
0.0421596
0.0392786
0.0362473
0.0330715
0.0297533
0.0263014
0.0227186
0.0190284
0.0152724
0.0115045
0.00780384
0.0041693
0.000599568
-0.00290821
-0.00635783
-0.00975371
-0.0131005
-0.0164028
-0.0196654
-0.0228928
-0.0260895
-0.0292595
-0.0324068
-0.0355347
-0.0386463
-0.0417443
-0.044831
-0.0479084
-0.0509781
-0.0540414
-0.0570994
-0.0601532
-0.0632034
-0.0662507
-0.0692955
-0.0723383
-0.0753795
-0.0784192
-0.0814578
-0.0844955
-0.0875323
-0.0905685
-0.0936042
-0.0966395
-0.0996745
-0.102709
-0.105744
-0.108778
0.218014
0.212901
0.207909
0.20312
0.198602
0.194395
0.190525
0.186991
0.183767
0.180814
0.178083
0.175533
0.173129
0.170835
0.168619
0.166447
0.164271
0.162078
0.159844
0.157561
0.155219
0.152785
0.150245
0.147586
0.144797
0.141874
0.13883
0.135677
0.132445
0.129147
0.125801
0.122398
0.118935
0.115421
0.111898
0.108438
0.105124
0.102015
0.0991478
0.0965352
0.0941585
0.0919949
0.0899982
0.0881396
0.0863987
0.0847585
0.083203
0.0817127
0.0802748
0.078882
0.0775246
0.076193
0.0748841
0.0735956
0.0723218
0.071053
0.0697773
0.0684868
0.0671722
0.0658199
0.064418
0.0629654
0.061455
0.059875
0.0582119
0.0564654
0.0546244
0.0526748
0.0506068
0.0484152
0.0460895
0.0436191
0.0410017
0.0382356
0.0353173
0.0322482
0.0290285
0.0256691
0.022176
0.0185637
0.014861
0.011122
0.00744635
0.0038315
0.000277101
-0.00321844
-0.00665784
-0.0100446
-0.0133824
-0.0166756
-0.0199283
-0.023145
-0.0263301
-0.0294879
-0.0326223
-0.0357371
-0.0388355
-0.0419204
-0.0449942
-0.048059
-0.0511165
-0.0541683
-0.0572154
-0.0602587
-0.0632991
-0.0663372
-0.0693734
-0.0724082
-0.0754418
-0.0784744
-0.0815064
-0.0845379
-0.0875689
-0.0905996
-0.09363
-0.0966603
-0.0996905
-0.102721
-0.105751
-0.10878
0.21814
0.213273
0.208518
0.203963
0.199668
0.195664
0.191964
0.188565
0.185445
0.182566
0.179882
0.177357
0.174959
0.172649
0.170398
0.168173
0.165939
0.163679
0.161372
0.159006
0.15656
0.154007
0.151331
0.148518
0.145568
0.142484
0.139282
0.135976
0.13259
0.129144
0.125638
0.122078
0.118464
0.114795
0.111119
0.10752
0.104085
0.100875
0.0979198
0.0952251
0.0927653
0.090527
0.0884714
0.0865646
0.084783
0.0831033
0.0815126
0.0799942
0.0785356
0.0771279
0.0757615
0.0744261
0.0731157
0.0718246
0.0705466
0.0692732
0.0679935
0.0667
0.0653854
0.0640361
0.0626406
0.0611955
0.0596962
0.0581358
0.0564981
0.0547836
0.0529831
0.0510839
0.0490754
0.046952
0.0447049
0.042326
0.039807
0.0371449
0.0343328
0.0313677
0.0282441
0.0249683
0.0215495
0.0180103
0.0143738
0.0106735
0.00702464
0.00342985
-0.000108241
-0.00358948
-0.00701566
-0.0103896
-0.0137144
-0.016994
-0.0202324
-0.023434
-0.0266033
-0.0297448
-0.0328627
-0.035961
-0.0390431
-0.0421121
-0.0451706
-0.0482208
-0.0512645
-0.0543032
-0.057338
-0.0603698
-0.0633995
-0.0664276
-0.0694546
-0.0724807
-0.0755063
-0.0785315
-0.0815566
-0.0845815
-0.0876065
-0.0906314
-0.0936565
-0.0966816
-0.0997068
-0.102732
-0.105757
-0.108783
0.218268
0.213655
0.209156
0.204847
0.20077
0.196954
0.193414
0.190145
0.187124
0.184312
0.181664
0.179149
0.176737
0.174394
0.172094
0.169808
0.167505
0.165171
0.162784
0.160321
0.157764
0.155088
0.152277
0.149322
0.146213
0.142956
0.139576
0.136105
0.132571
0.128979
0.12533
0.121624
0.117871
0.114079
0.110289
0.106589
0.103061
0.0997615
0.0967187
0.0939419
0.0914142
0.0891147
0.0870088
0.0850596
0.0832423
0.0815322
0.0799138
0.0783735
0.076899
0.0754799
0.0741055
0.0727654
0.0714527
0.0701587
0.0688771
0.0675983
0.0663123
0.0650123
0.0636922
0.0623403
0.0609457
0.0595028
0.0580082
0.0564594
0.0548404
0.0531497
0.0513796
0.0495196
0.0475592
0.0454951
0.0433177
0.041019
0.0385887
0.0360205
0.0333032
0.0304309
0.0273998
0.0242149
0.0208816
0.0174169
0.0138404
0.0101749
0.00655042
0.00297302
-0.000550315
-0.00401715
-0.00742852
-0.0107869
-0.0140953
-0.0173573
-0.0205771
-0.0237591
-0.0269083
-0.0300294
-0.0331269
-0.0362052
-0.039268
-0.0423184
-0.0453592
-0.0483928
-0.0514209
-0.054445
-0.0574663
-0.0604856
-0.0635038
-0.0665212
-0.0695382
-0.0725553
-0.0755725
-0.0785899
-0.0816078
-0.084626
-0.0876447
-0.0906638
-0.0936833
-0.0967032
-0.0997234
-0.102744
-0.105764
-0.108785
0.218399
0.214048
0.209807
0.205735
0.201866
0.19823
0.19484
0.191691
0.188761
0.186001
0.183371
0.180851
0.178415
0.176035
0.173681
0.171327
0.168946
0.166524
0.164035
0.161453
0.158771
0.155964
0.153016
0.149917
0.146656
0.14324
0.139698
0.136069
0.132382
0.128652
0.124874
0.121043
0.117175
0.113289
0.109429
0.105678
0.102105
0.098752
0.0956451
0.0927945
0.0901926
0.0878239
0.0856604
0.0836632
0.0818055
0.0800648
0.0784234
0.0768672
0.0753821
0.0739566
0.0725781
0.0712353
0.0699201
0.0686217
0.067334
0.0660467
0.06475
0.0634378
0.0621045
0.0607413
0.0593384
0.0578888
0.0563899
0.0548412
0.0532296
0.0515513
0.0497986
0.0479658
0.0460458
0.0440341
0.0419206
0.0396928
0.037336
0.0348434
0.0322102
0.0294301
0.0264941
0.0233985
0.0201479
0.0167634
0.0132601
0.00963869
0.00603388
0.00246811
-0.00104448
-0.00449861
-0.00789482
-0.0112357
-0.0145245
-0.017765
-0.0209618
-0.0241197
-0.0272442
-0.0303406
-0.0334138
-0.0364686
-0.0395087
-0.0425378
-0.0455587
-0.0485736
-0.0515844
-0.0545925
-0.0575991
-0.060605
-0.0636108
-0.0666169
-0.0696236
-0.0726312
-0.0756396
-0.0786491
-0.0816595
-0.0846709
-0.0876832
-0.0906964
-0.0937103
-0.0967249
-0.09974
-0.102756
-0.105771
-0.108787
0.218534
0.214449
0.21046
0.206616
0.202951
0.199488
0.196238
0.1932
0.19034
0.187604
0.184975
0.182445
0.179976
0.17755
0.175129
0.172696
0.170228
0.167717
0.16513
0.162447
0.159656
0.156724
0.153636
0.150383
0.146955
0.143367
0.139658
0.135864
0.132028
0.128167
0.12427
0.12034
0.1164
0.112471
0.108582
0.104805
0.101213
0.0978341
0.0946864
0.0917767
0.0891066
0.0866687
0.0844448
0.0824016
0.0805065
0.0787363
0.0770741
0.0755041
0.0740115
0.0725819
0.0712013
0.0698568
0.0685383
0.0672339
0.0659352
0.0646327
0.0633173
0.0619834
0.0606264
0.0592398
0.0578159
0.056347
0.0548311
0.0532671
0.0516475
0.0499673
0.0482183
0.0463961
0.0444945
0.0425081
0.0404303
0.0382544
0.0359679
0.0335592
0.0310183
0.0283308
0.0254893
0.0224923
0.0193389
0.016048
0.0126387
0.00908854
0.00548166
0.00191683
-0.00159015
-0.00503388
-0.00841501
-0.0117366
-0.0150025
-0.0182173
-0.0213862
-0.024515
-0.02761
-0.030677
-0.0337218
-0.0367492
-0.0397636
-0.0427686
-0.0457671
-0.0487615
-0.0517534
-0.0547443
-0.0577352
-0.0607268
-0.0637196
-0.0667139
-0.0697099
-0.0727076
-0.0757071
-0.0787084
-0.0817113
-0.0847157
-0.0877216
-0.0907288
-0.0937371
-0.0967464
-0.0997565
-0.102767
-0.105778
-0.10879
0.218665
0.21484
0.211093
0.207465
0.20399
0.20069
0.197567
0.194616
0.191793
0.189078
0.186453
0.183907
0.181397
0.178918
0.176431
0.173922
0.171372
0.168766
0.166074
0.16328
0.160364
0.157302
0.154082
0.150686
0.147108
0.143367
0.139493
0.135537
0.131552
0.127564
0.12356
0.119543
0.115554
0.111625
0.107778
0.104047
0.100484
0.097104
0.0939252
0.0909602
0.0882194
0.0857066
0.0834116
0.0813115
0.0793745
0.0775755
0.0758949
0.0743137
0.0728152
0.0713825
0.0699998
0.068652
0.0673262
0.06601
0.0646921
0.0633633
0.0620164
0.0606464
0.0592497
0.0578221
0.0563582
0.0548512
0.0533005
0.0517031
0.0500553
0.0483528
0.0465882
0.0447588
0.0428613
0.0408913
0.0388414
0.0367063
0.0344758
0.032138
0.0296838
0.0270987
0.024372
0.0214931
0.0184572
0.0152782
0.0119877
0.00839723
0.0048926
0.00131111
-0.0021931
-0.00562728
-0.00899268
-0.0122925
-0.0155314
-0.0187152
-0.0218504
-0.0249444
-0.0280042
-0.0310369
-0.0340487
-0.037045
-0.0400304
-0.0430086
-0.0459825
-0.0489545
-0.0519261
-0.0548987
-0.057873
-0.0608496
-0.0638289
-0.066811
-0.0697959
-0.0727837
-0.0757741
-0.0787671
-0.0817625
-0.08476
-0.0877595
-0.0907608
-0.0937635
-0.0967676
-0.0997727
-0.102779
-0.105785
-0.108792
0.218791
0.215211
0.211693
0.208269
0.204966
0.201805
0.198787
0.195904
0.193115
0.190424
0.187793
0.185218
0.182665
0.180126
0.177563
0.174963
0.17232
0.169614
0.166819
0.163925
0.160906
0.157738
0.154402
0.150875
0.147156
0.143263
0.139231
0.135126
0.131016
0.126925
0.122847
0.118801
0.114828
0.110948
0.107164
0.103495
0.0999743
0.0966117
0.0934184
0.0904077
0.0876001
0.0850107
0.0826379
0.0804683
0.0784753
0.076636
0.0749296
0.0733333
0.0718271
0.0703895
0.0690004
0.0676419
0.0662989
0.0649586
0.063607
0.0622344
0.060835
0.0594059
0.0579457
0.056452
0.0549228
0.0533518
0.0517405
0.0500865
0.0483888
0.0466447
0.0448469
0.0429959
0.0410868
0.0391166
0.0370816
0.0349782
0.0327985
0.0305341
0.0281791
0.0257049
0.0231029
0.0203608
0.0174634
0.0144096
0.0112009
0.00776686
0.00417861
0.000629355
-0.00286388
-0.0062871
-0.00963487
-0.0129089
-0.0161148
-0.0192605
-0.0223549
-0.0254069
-0.0284253
-0.0314179
-0.0343919
-0.0373531
-0.0403062
-0.043255
-0.0462023
-0.0491502
-0.0521004
-0.0550536
-0.0580107
-0.0609719
-0.0639373
-0.0669069
-0.0698807
-0.0728584
-0.0758398
-0.0788246
-0.0818125
-0.0848032
-0.0877964
-0.0907918
-0.0937892
-0.0967881
-0.0997884
-0.10279
-0.105792
-0.108794
0.218904
0.215546
0.212235
0.208994
0.205848
0.202811
0.199883
0.197056
0.194287
0.191592
0.188936
0.186329
0.183739
0.181143
0.178513
0.175836
0.173107
0.170309
0.167433
0.164459
0.161359
0.158104
0.154663
0.151017
0.147161
0.143112
0.138938
0.134732
0.130549
0.126394
0.122264
0.118207
0.114274
0.110469
0.106774
0.103186
0.0997232
0.0963913
0.0931968
0.0901581
0.0872992
0.084636
0.0821756
0.0799228
0.0778657
0.0759814
0.0742429
0.0726232
0.0711
0.0696465
0.0682364
0.0668481
0.0654667
0.0640791
0.0626679
0.0612233
0.0597392
0.0582181
0.0566613
0.0550677
0.053438
0.0517686
0.0500636
0.0483234
0.0465536
0.0447518
0.0429109
0.0410289
0.039102
0.0371235
0.0350945
0.0330141
0.030881
0.0286844
0.0264264
0.0240781
0.0216313
0.019054
0.0163224
0.0134175
0.0103196
0.00694567
0.00341101
-0.000120767
-0.00360944
-0.00702437
-0.0103523
-0.0135939
-0.0167579
-0.0198559
-0.0228999
-0.0259013
-0.0288707
-0.0318172
-0.0347482
-0.0376701
-0.0405877
-0.0435046
-0.0464234
-0.0493461
-0.0522737
-0.055207
-0.0581463
-0.0610918
-0.0640433
-0.0670005
-0.0699632
-0.0729309
-0.0759034
-0.0788801
-0.0818607
-0.0848447
-0.0878319
-0.0908217
-0.0938138
-0.0968078
-0.0998035
-0.1028
-0.105798
-0.108796
0.219004
0.215836
0.212699
0.209614
0.206598
0.203662
0.200803
0.198009
0.195265
0.192585
0.189926
0.187288
0.184643
0.181979
0.179279
0.176527
0.173714
0.170832
0.167877
0.16483
0.161662
0.158342
0.154835
0.151122
0.14719
0.143035
0.138736
0.134432
0.130188
0.126
0.121872
0.11785
0.113978
0.110255
0.106662
0.103179
0.0997941
0.0965057
0.0933257
0.0902797
0.0873866
0.0846585
0.0821228
0.079794
0.0776669
0.0757194
0.0739265
0.0722638
0.0707036
0.0692102
0.0677477
0.0662908
0.0648298
0.0633546
0.0618392
0.0602792
0.0586629
0.0570065
0.0553125
0.0535807
0.0518108
0.0499974
0.0481636
0.0463055
0.0444529
0.0425877
0.0407163
0.0388081
0.0368738
0.0348961
0.0328805
0.0308172
0.0287192
0.026567
0.0243937
0.0221745
0.0198959
0.0175079
0.0149698
0.0122462
0.00931224
0.00607397
0.00260914
-0.000935836
-0.00444338
-0.00785748
-0.0111609
-0.0143589
-0.0174672
-0.0205037
-0.023485
-0.0264254
-0.0293372
-0.0322305
-0.0351133
-0.0379918
-0.0408709
-0.0437537
-0.0466425
-0.0495389
-0.0524434
-0.0553564
-0.0582779
-0.0612077
-0.0641453
-0.0670903
-0.0700421
-0.0730001
-0.0759639
-0.0789328
-0.0819064
-0.0848841
-0.0878654
-0.0908499
-0.093837
-0.0968265
-0.0998177
-0.10281
-0.105804
-0.108798
0.219083
0.216071
0.213076
0.210112
0.207198
0.204342
0.20154
0.198787
0.196077
0.193397
0.190723
0.188058
0.185372
0.182651
0.179887
0.17707
0.174192
0.171253
0.168252
0.165164
0.161956
0.15859
0.155045
0.151304
0.147316
0.143069
0.138673
0.134316
0.130063
0.125887
0.121782
0.117801
0.113991
0.110349
0.106855
0.103484
0.100194
0.0969797
0.0938492
0.0908285
0.0879311
0.085168
0.0825832
0.0801943
0.0779995
0.0759747
0.0740997
0.0723581
0.0707236
0.0691495
0.0675787
0.0659791
0.0643652
0.0627357
0.0610448
0.0593122
0.0575022
0.0556643
0.0537909
0.0518874
0.049956
0.0479432
0.045968
0.0439531
0.0420608
0.0401395
0.038307
0.0363825
0.0344831
0.0325464
0.0305875
0.0285152
0.0264087
0.02418
0.0219719
0.0198259
0.017728
0.0156036
0.0133673
0.0109267
0.00823021
0.00519358
0.00188162
-0.00180156
-0.00539319
-0.00881814
-0.0120843
-0.0152178
-0.0182489
-0.0212051