/*--------------------------------*- C++ -*----------------------------------*\
  =========                 |
  \\      /  F ield         | OpenFOAM: The Open Source CFD Toolbox
   \\    /   O peration     | Website:  https://openfoam.org
    \\  /    A nd           | Version:  6
     \\/     M anipulation  |
\*---------------------------------------------------------------------------*/
FoamFile
{
    version     2.0;
    format      ascii;
    class       volScalarField;
    location    "2150";
    object      dmdt;
}
// * * * * * * * * * * * * * * * * * * * * * * * * * * * * * * * * * * * * * //

dimensions      [0 0 0 0 0 0 0];

internalField   nonuniform List<scalar> 
4800
(
-0.218121
-0.213191
-0.20829
-0.203452
-0.198737
-0.194197
-0.189868
-0.185807
-0.182074
-0.178684
-0.175631
-0.172895
-0.170441
-0.168233
-0.166238
-0.164418
-0.162737
-0.161169
-0.159691
-0.158284
-0.156935
-0.155634
-0.154375
-0.15315
-0.151945
-0.15075
-0.14955
-0.148338
-0.147115
-0.145876
-0.144623
-0.143354
-0.14207
-0.14077
-0.139454
-0.13812
-0.136768
-0.135398
-0.134007
-0.1326
-0.131183
-0.129759
-0.128329
-0.126896
-0.125464
-0.124028
-0.122586
-0.121133
-0.119669
-0.118194
-0.116705
-0.115197
-0.113668
-0.112112
-0.110524
-0.108899
-0.107229
-0.105505
-0.103719
-0.101861
-0.0999175
-0.0978764
-0.0957212
-0.0934337
-0.0909936
-0.0883787
-0.0855653
-0.0825245
-0.0792285
-0.0756449
-0.0717418
-0.067488
-0.0628648
-0.0579183
-0.0527584
-0.0474891
-0.0422118
-0.0370462
-0.0320414
-0.0271848
-0.0224482
-0.0178617
-0.0134529
-0.00922176
-0.00515102
-0.0012176
0.00260107
0.00632431
0.00996793
0.0135443
0.0170631
0.0205318
0.0239564
0.0273418
0.0306918
0.0340099
0.0372989
0.0405614
0.0437997
0.0470156
0.0502113
0.0533882
0.0565481
0.0596924
0.0628225
0.0659395
0.0690449
0.0721395
0.0752246
0.0783011
0.08137
0.084432
0.0874882
0.0905392
0.0935858
0.0966288
0.0996689
0.102707
0.105743
0.108778
-0.218084
-0.213081
-0.208128
-0.203265
-0.198537
-0.194012
-0.189732
-0.185727
-0.182041
-0.178696
-0.175686
-0.172984
-0.170557
-0.168368
-0.166382
-0.164561
-0.162874
-0.161299
-0.159817
-0.158406
-0.157051
-0.155742
-0.154472
-0.153231
-0.152005
-0.150786
-0.14956
-0.148329
-0.147088
-0.145831
-0.144559
-0.143272
-0.14197
-0.140653
-0.139319
-0.13797
-0.136603
-0.135217
-0.133816
-0.132399
-0.130969
-0.12953
-0.128089
-0.126643
-0.125197
-0.12375
-0.122297
-0.120835
-0.119363
-0.11788
-0.116382
-0.114866
-0.113331
-0.111772
-0.110183
-0.108558
-0.106889
-0.105168
-0.103385
-0.101529
-0.0995875
-0.0975473
-0.0953927
-0.0931061
-0.0906686
-0.0880584
-0.0852545
-0.0822273
-0.0789535
-0.0754013
-0.0715529
-0.0673938
-0.062918
-0.0581519
-0.0531348
-0.0479368
-0.0426365
-0.0373349
-0.0321561
-0.0271512
-0.0223192
-0.0176973
-0.0132882
-0.00907401
-0.00502585
-0.00111439
0.00268554
0.00639385
0.010026
0.0135936
0.0171058
0.0205695
0.0239901
0.0273723
0.0307197
0.0340355
0.0373226
0.0405833
0.0438199
0.0470344
0.0502286
0.0534043
0.0565629
0.059706
0.0628349
0.065951
0.0690553
0.072149
0.0752331
0.0783088
0.0813768
0.084438
0.0874934
0.0905437
0.0935896
0.0966319
0.0996712
0.102708
0.105744
0.108778
-0.218054
-0.212996
-0.207996
-0.203108
-0.198383
-0.193868
-0.189624
-0.185692
-0.182088
-0.178818
-0.17587
-0.173217
-0.170829
-0.168664
-0.16669
-0.16487
-0.163178
-0.161591
-0.160092
-0.158661
-0.157288
-0.155961
-0.154669
-0.153397
-0.152131
-0.15087
-0.149608
-0.14834
-0.147055
-0.145756
-0.144442
-0.143115
-0.141774
-0.14042
-0.139051
-0.13767
-0.136276
-0.134864
-0.133436
-0.131995
-0.13054
-0.129077
-0.127612
-0.126143
-0.124673
-0.123204
-0.121735
-0.120259
-0.118771
-0.117272
-0.115761
-0.114235
-0.11269
-0.111123
-0.109529
-0.107901
-0.106231
-0.10451
-0.102728
-0.100874
-0.098936
-0.0969
-0.0947507
-0.0924699
-0.0900406
-0.0874384
-0.0846517
-0.0816467
-0.0784125
-0.0749187
-0.0711506
-0.0671071
-0.0627804
-0.0581713
-0.0532921
-0.0481836
-0.0429211
-0.0375678
-0.0322131
-0.0269869
-0.0220011
-0.0173331
-0.0129416
-0.00877295
-0.00477623
-0.000911309
0.00285057
0.00652936
0.0101392
0.0136901
0.0171896
0.0206435
0.0240566
0.0274326
0.0307749
0.0340863
0.0373695
0.0406268
0.0438602
0.0470717
0.0502632
0.0534362
0.0565924
0.0597332
0.0628598
0.0659737
0.069076
0.0721678
0.0752501
0.078324
0.0813903
0.0844499
0.0875037
0.0905525
0.093597
0.0966379
0.0996758
0.102712
0.105746
0.108779
-0.218019
-0.212904
-0.20788
-0.202995
-0.198281
-0.193808
-0.189638
-0.185791
-0.18228
-0.179094
-0.176214
-0.173617
-0.171267
-0.169126
-0.167166
-0.165348
-0.163648
-0.162048
-0.160527
-0.159071
-0.157671
-0.156314
-0.154986
-0.15367
-0.152356
-0.151048
-0.149729
-0.148395
-0.147043
-0.145676
-0.144293
-0.142898
-0.141495
-0.140083
-0.13866
-0.137226
-0.135786
-0.134334
-0.132868
-0.131391
-0.129904
-0.128408
-0.126909
-0.125408
-0.123908
-0.122411
-0.120915
-0.119416
-0.11791
-0.116393
-0.114866
-0.113325
-0.111768
-0.11019
-0.108587
-0.106954
-0.105282
-0.103561
-0.101782
-0.0999318
-0.0979978
-0.0959689
-0.093827
-0.0915562
-0.0891401
-0.0865516
-0.083786
-0.08081
-0.0776225
-0.0741942
-0.0705063
-0.0665627
-0.0623493
-0.0578597
-0.053094
-0.0480726
-0.0428415
-0.0374503
-0.0319673
-0.0265374
-0.0213863
-0.0167056
-0.0123848
-0.00831262
-0.00440701
-0.000616898
0.0030875
0.0067235
0.0103018
0.0138293
0.0173113
0.0207518
0.0241542
0.0275216
0.0308566
0.0341617
0.0374393
0.0406915
0.0439202
0.0471274
0.0503147
0.0534839
0.0566364
0.0597736
0.062897
0.0660077
0.0691069
0.0721958
0.0752754
0.0783466
0.0814104
0.0844677
0.0875192
0.0905657
0.093608
0.0966468
0.0996828
0.102717
0.105749
0.10878
-0.217993
-0.212838
-0.207803
-0.20295
-0.198316
-0.193931
-0.189837
-0.186074
-0.182646
-0.179537
-0.176724
-0.174183
-0.171871
-0.169755
-0.167805
-0.165984
-0.164275
-0.16266
-0.161118
-0.159634
-0.158201
-0.156804
-0.155424
-0.154056
-0.152689
-0.151319
-0.149926
-0.148514
-0.147077
-0.145618
-0.14414
-0.14265
-0.141155
-0.139661
-0.138164
-0.13666
-0.135155
-0.133647
-0.132129
-0.130605
-0.129075
-0.127539
-0.126
-0.12446
-0.122924
-0.121394
-0.119867
-0.11834
-0.116811
-0.115273
-0.113725
-0.112167
-0.110595
-0.109004
-0.107392
-0.105751
-0.104075
-0.102354
-0.100578
-0.0987334
-0.0968044
-0.0947832
-0.0926496
-0.090392
-0.0879901
-0.0854234
-0.0826842
-0.0797404
-0.076595
-0.0732254
-0.0696107
-0.0657504
-0.0616292
-0.0572324
-0.0525518
-0.0475818
-0.0423342
-0.0368493
-0.0312015
-0.0256011
-0.0203214
-0.0157305
-0.011592
-0.00769807
-0.00393443
-0.00024856
0.00338155
0.00696485
0.0105053
0.0140053
0.0174667
0.0208912
0.0242809
0.0276376
0.0309636
0.0342608
0.0375312
0.0407768
0.0439995
0.0472009
0.0503829
0.0535469
0.0566945
0.0598272
0.0629461
0.0660526
0.0691479
0.0722329
0.0753089
0.0783766
0.0814371
0.0844911
0.0875396
0.0905832
0.0936226
0.0966586
0.0996919
0.102723
0.105753
0.108781
-0.218046
-0.212971
-0.207967
-0.203113
-0.198496
-0.194174
-0.190173
-0.186508
-0.183172
-0.180142
-0.177395
-0.174904
-0.172626
-0.170529
-0.168585
-0.166761
-0.165046
-0.163416
-0.161852
-0.160337
-0.158865
-0.157421
-0.155986
-0.154559
-0.153123
-0.151665
-0.150178
-0.148668
-0.147129
-0.145565
-0.143979
-0.142378
-0.140773
-0.139174
-0.137583
-0.135995
-0.134413
-0.132832
-0.131249
-0.129665
-0.128079
-0.126494
-0.124907
-0.123324
-0.121748
-0.12018
-0.118619
-0.117061
-0.115503
-0.113939
-0.11237
-0.110791
-0.109201
-0.107597
-0.105972
-0.104323
-0.102641
-0.100917
-0.0991415
-0.0973019
-0.0953805
-0.093367
-0.0912432
-0.0889996
-0.0866141
-0.0840726
-0.0813623
-0.0784533
-0.0753486
-0.0720321
-0.0684833
-0.0646918
-0.0606442
-0.0563206
-0.0517079
-0.046782
-0.0415288
-0.035954
-0.0301106
-0.0241919
-0.0185859
-0.0143143
-0.0105662
-0.00696519
-0.00339606
0.000163701
0.00371093
0.0072382
0.0107395
0.0142109
0.0176507
0.0210582
0.024434
0.027779
0.0310946
0.0343825
0.0376445
0.0408822
0.0440975
0.0472919
0.0504672
0.053625
0.0567666
0.0598935
0.0630069
0.0661082
0.0691985
0.0722789
0.0753503
0.0784137
0.0814701
0.0845202
0.0875648
0.0906047
0.0936407
0.0966733
0.0997032
0.102731
0.105757
0.108783
-0.218061
-0.213031
-0.208096
-0.203327
-0.1988
-0.194567
-0.19066
-0.187091
-0.183844
-0.180891
-0.178207
-0.175758
-0.173505
-0.171421
-0.169485
-0.167663
-0.16594
-0.164294
-0.162705
-0.16116
-0.159646
-0.15815
-0.156655
-0.15516
-0.15364
-0.152084
-0.150487
-0.148856
-0.147196
-0.145511
-0.143803
-0.142079
-0.140351
-0.138633
-0.136932
-0.135245
-0.133574
-0.131912
-0.130253
-0.128598
-0.126945
-0.125303
-0.123659
-0.122027
-0.120407
-0.118797
-0.117198
-0.115605
-0.114014
-0.112422
-0.110827
-0.109226
-0.107616
-0.105996
-0.104359
-0.102698
-0.101008
-0.0992812
-0.097505
-0.0956689
-0.0937572
-0.0917535
-0.0896418
-0.0874127
-0.0850462
-0.0825289
-0.0798487
-0.0769775
-0.0739135
-0.0706443
-0.067152
-0.0634217
-0.0594436
-0.0551947
-0.0506479
-0.0457678
-0.0405252
-0.0348745
-0.0287678
-0.0222118
-0.0155307
-0.0123842
-0.00940381
-0.00621173
-0.00286011
0.000576587
0.00404864
0.0075265
0.0109931
0.0144388
0.0178584
0.0212495
0.0246112
0.0279438
0.0312483
0.0345259
0.0377782
0.0410069
0.0442135
0.0473998
0.0505673
0.0537175
0.056852
0.0599721
0.0630791
0.0661742
0.0692586
0.0723333
0.0753993
0.0784576
0.0815091
0.0845545
0.0875947
0.0906303
0.093662
0.0966906
0.0997165
0.10274
0.105763
0.108785
-0.218072
-0.213081
-0.208222
-0.203559
-0.199151
-0.195045
-0.191265
-0.187805
-0.184645
-0.181767
-0.179139
-0.176727
-0.174498
-0.172426
-0.170494
-0.168671
-0.166938
-0.165272
-0.163656
-0.162075
-0.160513
-0.15896
-0.157398
-0.155823
-0.154206
-0.152538
-0.150817
-0.149055
-0.147264
-0.145448
-0.14361
-0.141755
-0.139896
-0.13805
-0.136228
-0.134431
-0.132658
-0.130904
-0.12916
-0.127427
-0.1257
-0.123991
-0.122287
-0.120598
-0.118927
-0.117269
-0.115628
-0.113996
-0.11237
-0.110746
-0.109123
-0.107499
-0.105868
-0.104231
-0.10258
-0.100908
-0.0992097
-0.0974773
-0.0956994
-0.0938657
-0.0919627
-0.0899714
-0.0878744
-0.0856611
-0.0833152
-0.0808212
-0.0781709
-0.0753389
-0.0723176
-0.0690946
-0.0656559
-0.0619902
-0.0580852
-0.0539148
-0.0494497
-0.0446512
-0.0394711
-0.0338163
-0.0274897
-0.0199255
-0.0063907
-0.0102941
-0.00846212
-0.00562849
-0.00242082
0.000942122
0.00436865
0.00781465
0.011257
0.0146829
0.0180858
0.021462
0.0248103
0.0281305
0.0314233
0.0346898
0.0379316
0.0411501
0.044347
0.0475239
0.0506825
0.0538241
0.0569504
0.0600626
0.0631621
0.06625
0.0693276
0.0723958
0.0754557
0.0785081
0.0815539
0.0845939
0.0876289
0.0906596
0.0936865
0.0967104
0.0997318
0.102751
0.10577
0.108787
-0.218134
-0.213267
-0.20853
-0.203995
-0.199712
-0.195711
-0.19202
-0.188643
-0.18556
-0.182746
-0.180167
-0.177794
-0.175589
-0.17353
-0.171601
-0.169772
-0.168028
-0.166337
-0.164692
-0.16307
-0.161456
-0.15984
-0.158203
-0.156529
-0.154797
-0.153001
-0.151146
-0.149248
-0.14732
-0.145368
-0.143395
-0.141405
-0.139409
-0.137429
-0.135478
-0.13356
-0.131676
-0.129821
-0.127986
-0.126167
-0.124362
-0.122576
-0.120806
-0.119056
-0.117329
-0.115621
-0.113934
-0.112261
-0.110598
-0.108941
-0.107289
-0.105641
-0.103988
-0.102332
-0.100666
-0.0989813
-0.0972747
-0.0955359
-0.0937547
-0.091922
-0.090025
-0.0880465
-0.0859664
-0.0837715
-0.0814486
-0.0789823
-0.0763645
-0.073575
-0.070602
-0.0674347
-0.064061
-0.0604672
-0.0566393
-0.0525565
-0.0481945
-0.0435143
-0.0384743
-0.0330219
-0.0271019
-0.0207024
-0.0143421
-0.0113834
-0.0085298
-0.00542953
-0.00214835
0.00123189
0.00465703
0.00809473
0.011526
0.01494
0.0183304
0.0216941
0.02503
0.0283379
0.0316187
0.0348735
0.0381038
0.0413111
0.0444972
0.0476637
0.0508121
0.0539441
0.0570611
0.0601644
0.0632554
0.0663353
0.0694052
0.0724661
0.0755189
0.0785647
0.0816042
0.0846382
0.0876673
0.0906924
0.0937139
0.0967326
0.099749
0.102764
0.105777
0.108789
-0.21819
-0.213446
-0.208844
-0.204436
-0.20027
-0.196387
-0.192812
-0.189542
-0.186552
-0.183811
-0.181283
-0.178944
-0.176762
-0.174718
-0.172791
-0.170955
-0.169194
-0.167478
-0.165797
-0.164128
-0.162456
-0.160767
-0.159042
-0.15726
-0.155405
-0.153471
-0.151471
-0.149426
-0.147354
-0.145262
-0.143152
-0.141022
-0.138887
-0.136769
-0.134686
-0.132641
-0.130639
-0.128673
-0.126741
-0.124832
-0.122945
-0.12108
-0.119239
-0.117424
-0.115637
-0.113878
-0.112143
-0.110426
-0.108723
-0.107032
-0.105348
-0.103673
-0.101999
-0.100324
-0.0986435
-0.0969468
-0.0952305
-0.0934851
-0.0917004
-0.089867
-0.0879734
-0.0860037
-0.0839388
-0.081764
-0.0794672
-0.0770335
-0.0744513
-0.0717065
-0.0687887
-0.0656876
-0.06239
-0.058882
-0.0551501
-0.0511771
-0.046942
-0.0424182
-0.0375839
-0.0324297
-0.027005
-0.0214778
-0.0163339
-0.0123742
-0.00885238
-0.00542193
-0.00198669
0.00146427
0.0049203
0.00836903
0.0118009
0.0152097
0.0185917
0.0219452
0.0252696
0.0285655
0.0318339
0.0350763
0.0382942
0.0414893
0.0446635
0.0478184
0.0509556
0.0540769
0.0571835
0.060277
0.0633586
0.0664295
0.0694908
0.0725435
0.0755887
0.0786271
0.0816596
0.0846868
0.0877096
0.0907285
0.0937441
0.096757
0.0997678
0.102777
0.105785
0.108792
-0.218282
-0.213709
-0.209256
-0.204982
-0.200949
-0.197202
-0.193753
-0.190578
-0.187657
-0.184968
-0.182482
-0.180173
-0.178009
-0.175974
-0.174048
-0.172208
-0.170427
-0.168681
-0.166962
-0.165245
-0.163505
-0.161728
-0.159903
-0.158007
-0.156023
-0.153945
-0.151794
-0.149598
-0.147374
-0.145133
-0.142875
-0.140599
-0.138321
-0.136064
-0.133847
-0.131678
-0.129556
-0.127478
-0.125442
-0.123439
-0.121467
-0.119522
-0.117608
-0.115726
-0.113876
-0.112061
-0.110275
-0.108513
-0.106768
-0.105039
-0.103323
-0.10162
-0.0999218
-0.0982273
-0.0965317
-0.0948256
-0.0931011
-0.0913511
-0.0895644
-0.0877292
-0.0858362
-0.0838715
-0.0818193
-0.0796651
-0.0773928
-0.0749904
-0.0724472
-0.0697533
-0.0668981
-0.0638711
-0.060658
-0.0572478
-0.0536277
-0.0497829
-0.0456974
-0.0413544
-0.03675
-0.0319016
-0.0268889
-0.0218807
-0.0171439
-0.0129362
-0.00909258
-0.00543004
-0.00185291
0.00167868
0.00517791
0.00864751
0.0120869
0.015495
0.0188713
0.0222158
0.0255293
0.028813
0.0320686
0.0352976
0.0385022
0.041684
0.0448452
0.0479873
0.0511123
0.0542217
0.057317
0.0603996
0.0634708
0.0665318
0.0695838
0.0726277
0.0756644
0.0786948
0.0817196
0.0847396
0.0877554
0.0907676
0.0937768
0.0967835
0.0997882
0.102791
0.105793
0.108795
-0.218375
-0.213979
-0.209691
-0.205571
-0.201676
-0.198046
-0.194697
-0.191608
-0.188774
-0.186162
-0.183737
-0.181466
-0.179323
-0.177296
-0.17537
-0.173524
-0.171717
-0.16994
-0.168177
-0.166395
-0.164579
-0.162713
-0.160785
-0.158771
-0.15665
-0.154425
-0.152124
-0.149774
-0.147393
-0.144991
-0.142575
-0.140148
-0.137721
-0.135322
-0.132969
-0.13067
-0.128427
-0.126239
-0.1241
-0.122002
-0.119942
-0.117917
-0.115928
-0.113976
-0.112062
-0.110188
-0.108347
-0.106535
-0.104745
-0.102975
-0.101224
-0.0994911
-0.0977684
-0.0960547
-0.094344
-0.0926292
-0.090899
-0.0891482
-0.0873635
-0.0855307
-0.0836408
-0.0816815
-0.0796382
-0.0774974
-0.0752446
-0.0728704
-0.070365
-0.0677202
-0.0649276
-0.061979
-0.0588574
-0.0555542
-0.0520563
-0.0483518
-0.0444285
-0.0402749
-0.0358997
-0.0313286
-0.0266357
-0.0219478
-0.0174067
-0.0131444
-0.0091614
-0.00536419
-0.00168619
0.00191216
0.00545173
0.0089431
0.0123917
0.0158005
0.0191718
0.0225076
0.0258099
0.0290808
0.0323225
0.0355372
0.0387272
0.0418947
0.0450415
0.0481698
0.0512813
0.0543778
0.0574607
0.0605315
0.0635914
0.0666418
0.0696836
0.0727179
0.0757455
0.0787672
0.0817839
0.084796
0.0878044
0.0908094
0.0938117
0.0968117
0.09981
0.102807
0.105803
0.108798
-0.218462
-0.214238
-0.210122
-0.206172
-0.202435
-0.198949
-0.195725
-0.192747
-0.19
-0.187443
-0.185056
-0.182813
-0.18069
-0.178673
-0.176747
-0.17489
-0.173055
-0.171246
-0.169436
-0.16759
-0.165692
-0.163728
-0.16169
-0.159552
-0.157293
-0.154923
-0.152469
-0.149963
-0.147419
-0.144847
-0.142261
-0.139672
-0.137092
-0.134548
-0.132056
-0.129623
-0.127255
-0.124954
-0.122717
-0.120529
-0.118382
-0.116276
-0.114212
-0.11219
-0.11021
-0.108272
-0.106373
-0.104508
-0.102669
-0.100855
-0.0990652
-0.0972981
-0.0955484
-0.0938138
-0.0920879
-0.0903631
-0.0886285
-0.0868789
-0.0851002
-0.0832752
-0.0813922
-0.0794408
-0.0774075
-0.0752789
-0.0730435
-0.0706935
-0.0682221
-0.0656229
-0.0628884
-0.0600127
-0.0569815
-0.0537882
-0.0504191
-0.0468629
-0.0431071
-0.0391432
-0.0349818
-0.0306471
-0.0261965
-0.0217301
-0.0173256
-0.0130847
-0.00905466
-0.00519101
-0.00145281
0.00219072
0.00575994
0.00926795
0.0127231
0.0161312
0.0194965
0.0228225
0.0261124
0.0293692
0.0325958
0.0357949
0.038969
0.0421206
0.0452519
0.0483651
0.051462
0.0545443
0.0576138
0.0606719
0.0637197
0.0667586
0.0697896
0.0728136
0.0758314
0.078844
0.0818518
0.0848557
0.0878561
0.0908536
0.0938486
0.0968416
0.0998329
0.102823
0.105812
0.108801
-0.218561
-0.214539
-0.21061
-0.206825
-0.203239
-0.199885
-0.196772
-0.193885
-0.19121
-0.188719
-0.186387
-0.184183
-0.182088
-0.180087
-0.178161
-0.176293
-0.174438
-0.172599
-0.17074
-0.168826
-0.166843
-0.16478
-0.162629
-0.160363
-0.157965
-0.155445
-0.152837
-0.150168
-0.147448
-0.144692
-0.141925
-0.139166
-0.13643
-0.13374
-0.13111
-0.128545
-0.126052
-0.123633
-0.121291
-0.119016
-0.11679
-0.114607
-0.112469
-0.110377
-0.108331
-0.10633
-0.10437
-0.102447
-0.100556
-0.0986926
-0.0968583
-0.0950527
-0.093272
-0.0915133
-0.089771
-0.0880349
-0.086296
-0.0845474
-0.0827745
-0.0809589
-0.0790873
-0.0771502
-0.0751325
-0.0730197
-0.0708031
-0.0684762
-0.0660343
-0.0634746
-0.0607926
-0.0579838
-0.0550391
-0.0519531
-0.0487119
-0.0453039
-0.0417162
-0.0379406
-0.0339802
-0.0298562
-0.0256096
-0.0213148
-0.0170277
-0.0128253
-0.00879211
-0.00490458
-0.00113804
0.00252952
0.00611517
0.00963165
0.0130883
0.016492
0.0198485
0.0231625
0.026438
0.0296789
0.0328886
0.0360703
0.0392269
0.0423611
0.0454755
0.0485722
0.0516532
0.0547205
0.0577755
0.0608199
0.0638548
0.0668814
0.0699008
0.0729139
0.0759215
0.0789243
0.081923
0.0849181
0.0879101
0.0908997
0.093887
0.0968727
0.0998569
0.10284
0.105823
0.108805
-0.218665
-0.214834
-0.211078
-0.207464
-0.204039
-0.200829
-0.197839
-0.195056
-0.192464
-0.190035
-0.187751
-0.185585
-0.183519
-0.181533
-0.179611
-0.177736
-0.175865
-0.173991
-0.172081
-0.1701
-0.168036
-0.165875
-0.163609
-0.161209
-0.158663
-0.155984
-0.153209
-0.150361
-0.147454
-0.144509
-0.14156
-0.138631
-0.135739
-0.132908
-0.130146
-0.12745
-0.124828
-0.122288
-0.119834
-0.117464
-0.115161
-0.112908
-0.110702
-0.108545
-0.106436
-0.104372
-0.10235
-0.100367
-0.0984193
-0.0965029
-0.0946192
-0.0927688
-0.090951
-0.0891634
-0.087401
-0.0856521
-0.0839073
-0.0821585
-0.0803892
-0.0785826
-0.0767238
-0.0748024
-0.0728025
-0.07071
-0.0685164
-0.0662162
-0.0638074
-0.0612891
-0.0586589
-0.0559153
-0.0530532
-0.0500659
-0.0469418
-0.0436715
-0.0402407
-0.0366424
-0.0328734
-0.0289469
-0.024889
-0.0207481
-0.0165643
-0.0124082
-0.00839456
-0.00450954
-0.000737851
0.00293589
0.00652508
0.0100409
0.0134924
0.0168869
0.0202308
0.0235296
0.026788
0.0300104
0.033201
0.0363632
0.0395004
0.0426156
0.0457114
0.0487902
0.0518542
0.0549052
0.0579448
0.0609745
0.0639957
0.0670094
0.0700166
0.0730182
0.076015
0.0790076
0.0819967
0.0849827
0.0879661
0.0909474
0.0939268
0.0969048
0.0998817
0.102858
0.105833
0.108808
-0.218757
-0.215108
-0.211536
-0.208097
-0.20483
-0.201761
-0.198895
-0.196221
-0.193719
-0.191365
-0.189135
-0.18701
-0.184972
-0.183005
-0.18109
-0.179209
-0.177323
-0.175417
-0.173458
-0.171413
-0.169265
-0.167003
-0.164615
-0.162073
-0.159364
-0.156506
-0.153541
-0.150497
-0.147392
-0.14426
-0.141141
-0.138059
-0.135028
-0.132064
-0.129173
-0.126346
-0.123597
-0.120936
-0.118367
-0.115891
-0.113499
-0.111175
-0.108907
-0.106691
-0.104524
-0.102402
-0.100321
-0.098278
-0.0962709
-0.0942981
-0.0923612
-0.0904615
-0.0886003
-0.0867775
-0.0849889
-0.083223
-0.0814686
-0.0797147
-0.0779466
-0.0761475
-0.0743013
-0.0723948
-0.0704127
-0.068343
-0.0661746
-0.0639034
-0.0615306
-0.0590557
-0.0564782
-0.0537982
-0.0510127
-0.0481175
-0.0451055
-0.0419675
-0.0386871
-0.0352548
-0.0316635
-0.0279214
-0.0240431
-0.0200515
-0.0159671
-0.0118602
-0.00787929
-0.00401382
-0.000253527
0.00341223
0.00699357
0.0104998
0.0139391
0.0173188
0.0206455
0.0239251
0.0271629
0.030364
0.0335327
0.0366731
0.0397888
0.042883
0.0459586
0.0490181
0.0520637
0.0550972
0.0581204
0.0611347
0.0641414
0.0671415
0.0701359
0.0731256
0.0761111
0.0790932
0.0820723
0.0850489
0.0880234
0.0909962
0.0939676
0.0969377
0.099907
0.102876
0.105844
0.108812
-0.21885
-0.215388
-0.211999
-0.208734
-0.205632
-0.20271
-0.19997
-0.197399
-0.194982
-0.192697
-0.190525
-0.188447
-0.186445
-0.184499
-0.182593
-0.180707
-0.178808
-0.176874
-0.174868
-0.172758
-0.170525
-0.168162
-0.165645
-0.162946
-0.160052
-0.156993
-0.15382
-0.150563
-0.147251
-0.143928
-0.140647
-0.137429
-0.134276
-0.131199
-0.128195
-0.125253
-0.122381
-0.119593
-0.116903
-0.114317
-0.111826
-0.109421
-0.107088
-0.104818
-0.102601
-0.100426
-0.0982898
-0.0961882
-0.0941204
-0.0920889
-0.090096
-0.0881446
-0.0862365
-0.0843718
-0.0825484
-0.0807578
-0.0789879
-0.0772213
-0.0754485
-0.0736541
-0.0718188
-0.0699263
-0.0679618
-0.065915
-0.063773
-0.0615334
-0.0591984
-0.0567673
-0.0542409
-0.0516243
-0.0489167
-0.0461131
-0.0432084
-0.0401943
-0.037056
-0.0337802
-0.0303549
-0.026781
-0.0230674
-0.0192268
-0.015251
-0.0111978
-0.00725984
-0.00342586
0.000311179
0.0039581
0.0075221
0.0110106
0.0144308
0.0177898
0.0210941
0.02435
0.0275634
0.0307396
0.0338834
0.0369993
0.0400911
0.0431624
0.046216
0.0492546
0.0522804
0.0552955
0.0583013
0.0612993
0.0642908
0.0672767
0.0702579
0.0732352
0.0762091
0.0791803
0.0821493
0.0851162
0.0880817
0.0910458
0.0940089
0.0969711
0.0999327
0.102894
0.105855
0.108815
-0.218944
-0.21567
-0.212465
-0.209375
-0.206432
-0.203653
-0.201038
-0.198575
-0.196249
-0.194039
-0.191927
-0.189899
-0.187933
-0.18601
-0.184116
-0.182228
-0.180321
-0.178358
-0.176306
-0.174132
-0.17182
-0.169353
-0.166699
-0.163828
-0.160731
-0.15745
-0.15405
-0.150571
-0.147046
-0.143536
-0.140099
-0.136751
-0.13349
-0.130313
-0.127212
-0.124166
-0.121178
-0.11827
-0.115464
-0.112768
-0.110177
-0.107685
-0.10528
-0.102953
-0.100687
-0.0984645
-0.0962774
-0.09412
-0.0919927
-0.0899006
-0.0878472
-0.0858385
-0.0838791
-0.0819687
-0.0801043
-0.0782777
-0.0764795
-0.0746908
-0.0729043
-0.0711046
-0.0692704
-0.0673863
-0.0654398
-0.0634187
-0.061308
-0.0591054
-0.0568121
-0.0544279
-0.0519553
-0.0494021
-0.0467713
-0.0440579
-0.0412553
-0.0383554
-0.0353453
-0.0322103
-0.0289378
-0.0255208
-0.0219587
-0.0182627
-0.0144126
-0.0104326
-0.00654792
-0.0027541
0.000951469
0.00457162
0.00811068
0.0115743
0.0149688
0.018301
0.0215775
0.0248048
0.0279893
0.0311367
0.0342523
0.0373407
0.0404061
0.0434522
0.046482
0.0494982
0.052503
0.0554984
0.0584859
0.0614669
0.0644426
0.0674138
0.0703814
0.073346
0.0763081
0.0792682
0.0822268
0.085184
0.0881402
0.0910956
0.0940504
0.0970046
0.0999585
0.102912
0.105866
0.108819
-0.219041
-0.215959
-0.212941
-0.210024
-0.207238
-0.204597
-0.202103
-0.19975
-0.197518
-0.195384
-0.193336
-0.191358
-0.189427
-0.18753
-0.185651
-0.183764
-0.181844
-0.179853
-0.17776
-0.175526
-0.173129
-0.170549
-0.167748
-0.164699
-0.161396
-0.157884
-0.154246
-0.150541
-0.146817
-0.143133
-0.139539
-0.136059
-0.132691
-0.129426
-0.126241
-0.123104
-0.120018
-0.117003
-0.114086
-0.111281
-0.108588
-0.106006
-0.103523
-0.10113
-0.0988104
-0.0965388
-0.0943015
-0.0920876
-0.0898999
-0.0877446
-0.0856279
-0.0835591
-0.0815437
-0.0795827
-0.0776741
-0.0758108
-0.0739802
-0.0721631
-0.0703509
-0.0685343
-0.0666906
-0.0648059
-0.0628687
-0.060866
-0.0587841
-0.0566177
-0.0543681
-0.052035
-0.049621
-0.0471352
-0.0445832
-0.0419599
-0.0392571
-0.0364695
-0.0335845
-0.0305823
-0.0274532
-0.0241848
-0.0207684
-0.0172136
-0.0134899
-0.00958806
-0.00575726
-0.00200705
0.00166238
0.00525046
0.00875874
0.0121913
0.0155538
0.0188531
0.0220959
0.0252894
0.0284402
0.0315546
0.0346382
0.0376959
0.0407322
0.0437508
0.0467549
0.0497471
0.0527297
0.0557044
0.0586728
0.0616362
0.0645955
0.0675517
0.0705053
0.0734569
0.0764071
0.0793561
0.0823041
0.0852516
0.0881986
0.0911452
0.0940917
0.0970379
0.0999841
0.10293
0.105876
0.108822
-0.219135
-0.216244
-0.213413
-0.210672
-0.208045
-0.205547
-0.203179
-0.200933
-0.19879
-0.196731
-0.194745
-0.192816
-0.19092
-0.189051
-0.187189
-0.185307
-0.183377
-0.181365
-0.179228
-0.176931
-0.17445
-0.171758
-0.168813
-0.165587
-0.162076
-0.158334
-0.154468
-0.150553
-0.146643
-0.142781
-0.139022
-0.135398
-0.131916
-0.128565
-0.125313
-0.122107
-0.11893
-0.115809
-0.112787
-0.109879
-0.107087
-0.10441
-0.101844
-0.0993778
-0.0969954
-0.0946657
-0.0923723
-0.0900993
-0.0878491
-0.085628
-0.0834446
-0.0813116
-0.0792356
-0.0772177
-0.0752527
-0.0733363
-0.0714604
-0.0696119
-0.0677728
-0.0659379
-0.0640849
-0.0621984
-0.0602681
-0.0582821
-0.0562304
-0.0541037
-0.0519005
-0.0496222
-0.0472692
-0.0448507
-0.0423784
-0.0398475
-0.0372437
-0.0345609
-0.031794
-0.0289182
-0.0259226
-0.0227929
-0.0195143
-0.0160947
-0.0125053
-0.00870984
-0.00490706
-0.00119356
0.0024394
0.00599263
0.0094658
0.0128618
0.0161863
0.0194463
0.0226494
0.0258032
0.0289151
0.0319918
0.0350394
0.0380631
0.0410675
0.0440563
0.0470328
0.0499995
0.0529585
0.0559117
0.0588603
0.0618055
0.0647482
0.067689
0.0706285
0.0735671
0.0765051
0.0794429
0.0823806
0.0853183
0.0882561
0.0911941
0.0941323
0.0970708
0.100009
0.102948
0.105887
0.108826
-0.219229
-0.216527
-0.213881
-0.211316
-0.20885
-0.206496
-0.204254
-0.202114
-0.200057
-0.198072
-0.196146
-0.194262
-0.192399
-0.190559
-0.188713
-0.186836
-0.184892
-0.182857
-0.180682
-0.178333
-0.175774
-0.172981
-0.169902
-0.166506
-0.162795
-0.158844
-0.154776
-0.150678
-0.146607
-0.142579
-0.138635
-0.134836
-0.131213
-0.127754
-0.124425
-0.121161
-0.117919
-0.11472
-0.111609
-0.108606
-0.105715
-0.102941
-0.100279
-0.0977223
-0.0952603
-0.0928615
-0.0905051
-0.0881703
-0.0858556
-0.0835653
-0.0813091
-0.0791046
-0.0769623
-0.0748843
-0.0728619
-0.0708893
-0.0689596
-0.0670662
-0.0651905
-0.0633278
-0.0614621
-0.0595756
-0.0576545
-0.0556873
-0.0536671
-0.0515841
-0.0494335
-0.0472211
-0.0449422
-0.0426007
-0.040208
-0.0377658
-0.0352597
-0.0326744
-0.0300105
-0.0272478
-0.0243718
-0.0213712
-0.0182244
-0.0149317
-0.0114969
-0.00763763
-0.00403005
-0.000324089
0.00327837
0.0067969
0.0102321
0.0135866
0.0168668
0.0200807
0.0232372
0.026345
0.0294123
0.0324463
0.0354537
0.0384398
0.0414093
0.0443661
0.0473131
0.050253
0.0531875
0.0561183
0.0590466
0.0619732
0.0648989
0.0678243
0.0707496
0.0736752
0.0766013
0.079528
0.0824554
0.0853835
0.0883123
0.0912418
0.094172
0.0971027
0.100034
0.102966
0.105897
0.108829
-0.219324
-0.216811
-0.214348
-0.211956
-0.209647
-0.207432
-0.205309
-0.203269
-0.201297
-0.199384
-0.197515
-0.195677
-0.193847
-0.192032
-0.1902
-0.188321
-0.18637
-0.184321
-0.182113
-0.179709
-0.177075
-0.174187
-0.170979
-0.167417
-0.163515
-0.159359
-0.15511
-0.150869
-0.146665
-0.142487
-0.138367
-0.134393
-0.130614
-0.127031
-0.123617
-0.120304
-0.117019
-0.113764
-0.110586
-0.107503
-0.10452
-0.101646
-0.0988767
-0.096212
-0.0936493
-0.0911611
-0.0887254
-0.0863181
-0.0839322
-0.0815677
-0.0792324
-0.0769448
-0.07472
-0.0725646
-0.0704706
-0.0684351
-0.0664496
-0.0645088
-0.0625974
-0.060708
-0.058829
-0.0569462
-0.0550416
-0.0531049
-0.0511273
-0.0491
-0.0470116
-0.0448754
-0.0426837
-0.0404344
-0.0381313
-0.0357775
-0.0333646
-0.0308725
-0.0282991
-0.0256368
-0.0228684
-0.019981
-0.0169563
-0.013785
-0.0104355
-0.0068081
-0.00305406
0.000603791
0.0041774
0.00766351
0.011059
0.0143671
0.0175961
0.0207563
0.0238586
0.0269132
0.0299295
0.0329155
0.0358781
0.038823
0.0417548
0.0446773
0.0475933
0.050505
0.0534141
0.056322
0.0592296
0.0621375
0.0650462
0.0679561
0.0708674
0.0737802
0.0766945
0.0796103
0.0825276
0.0854464
0.0883665
0.0912878
0.0942102
0.0971335
0.100058
0.102982
0.105907
0.108833
-0.21942
-0.217092
-0.214805
-0.212576
-0.210417
-0.208334
-0.206327
-0.204385
-0.202498
-0.200647
-0.198828
-0.197031
-0.195229
-0.193434
-0.191613
-0.18974
-0.187787
-0.185717
-0.183476
-0.181033
-0.17835
-0.175371
-0.172026
-0.168305
-0.164245
-0.159945
-0.155556
-0.151174
-0.146832
-0.14251
-0.138234
-0.134096
-0.130158
-0.126448
-0.122947
-0.119585
-0.116277
-0.112995
-0.10977
-0.106623
-0.103554
-0.100581
-0.0977
-0.0949123
-0.0922244
-0.0896199
-0.0870789
-0.0845741
-0.0820972
-0.0796438
-0.0772196
-0.0748401
-0.0725261
-0.0702871
-0.0681146
-0.0660052
-0.0639507
-0.0619489
-0.0599928
-0.0580752
-0.0561872
-0.0543174
-0.0524436
-0.0505557
-0.0486405
-0.0466874
-0.0446821
-0.0426409
-0.0405549
-0.0384152
-0.0362183
-0.0339642
-0.0316474
-0.0292481
-0.0267578
-0.024176
-0.021489
-0.0186852
-0.0157468
-0.0126504
-0.00935885
-0.00577129
-0.00206573
0.00157761
0.00513652
0.00859585
0.0119505
0.0152063
0.0183756
0.0214727
0.0245118
0.0275051
0.0304635
0.0333956
0.0363089
0.0392089
0.0421003
0.0449865
0.0478699
0.0507526
0.0536358
0.0565204
0.0594072
0.0622964
0.0651883
0.068083
0.0709805
0.0738807
0.0767836
0.079689
0.0825966
0.0855064
0.0884182
0.0913316
0.0942466
0.0971628
0.10008
0.102998
0.105917
0.108836
-0.219511
-0.21736
-0.215239
-0.213166
-0.21115
-0.209194
-0.207297
-0.205441
-0.203621
-0.201817
-0.200037
-0.198267
-0.196488
-0.194714
-0.192907
-0.191043
-0.189094
-0.187017
-0.184759
-0.182269
-0.179496
-0.176396
-0.172929
-0.169078
-0.164873
-0.160428
-0.155922
-0.151467
-0.147064
-0.142663
-0.138305
-0.134056
-0.129983
-0.126135
-0.12253
-0.119116
-0.115788
-0.112486
-0.109223
-0.106019
-0.102878
-0.0998113
-0.0968204
-0.0939056
-0.0910732
-0.0883161
-0.085625
-0.0829804
-0.0803775
-0.0778111
-0.075283
-0.0728033
-0.070393
-0.0680612
-0.0658004
-0.063606
-0.0614719
-0.0593979
-0.0573871
-0.055436
-0.053543
-0.0516995
-0.0498785
-0.0480649
-0.0462438
-0.0443951
-0.0425033
-0.0405823
-0.0386284
-0.0366234
-0.0345523
-0.0324084
-0.0301868
-0.0278734
-0.0254567
-0.0229379
-0.0203069
-0.017555
-0.0146691
-0.0116206
-0.00836417
-0.00480408
-0.00108531
0.00259226
0.00616221
0.00960375
0.0129152
0.0161096
0.0192074
0.0222295
0.0251944
0.0281172
0.0310099
0.0338821
0.0367413
0.039593
0.0424415
0.0452896
0.0481395
0.0509925
0.0538495
0.0567109
0.0595771
0.0624479
0.0653234
0.0682034
0.0710876
0.0739758
0.0768677
0.0797631
0.0826615
0.0855628
0.0884666
0.0913727
0.0942806