/*--------------------------------*- C++ -*----------------------------------*\
  =========                 |
  \\      /  F ield         | OpenFOAM: The Open Source CFD Toolbox
   \\    /   O peration     | Website:  https://openfoam.org
    \\  /    A nd           | Version:  6
     \\/     M anipulation  |
\*---------------------------------------------------------------------------*/
FoamFile
{
    version     2.0;
    format      ascii;
    class       volScalarField;
    location    "2150";
    object      T;
}
// * * * * * * * * * * * * * * * * * * * * * * * * * * * * * * * * * * * * * //

dimensions      [0 0 0 1 0 0 0];

internalField   nonuniform List<scalar> 
4800
(
552.46
552.282
552.104
551.928
551.757
551.593
551.436
551.288
551.153
551.03
550.919
550.82
550.731
550.651
550.579
550.513
550.452
550.395
550.341
550.29
550.241
550.194
550.149
550.104
550.06
550.017
549.974
549.93
549.885
549.84
549.795
549.749
549.702
549.655
549.607
549.559
549.51
549.46
549.41
549.359
549.308
549.256
549.204
549.152
549.1
549.048
548.996
548.943
548.89
548.836
548.782
548.728
548.672
548.616
548.558
548.499
548.439
548.376
548.311
548.244
548.174
548.1
548.021
547.938
547.85
547.755
547.653
547.543
547.423
547.293
547.152
546.998
546.83
546.651
546.463
546.272
546.081
545.894
545.712
545.536
545.364
545.198
545.038
544.885
544.737
544.594
544.456
544.321
544.189
544.059
543.931
543.805
543.681
543.558
543.437
543.317
543.197
543.079
542.962
542.845
542.729
542.614
542.499
542.385
542.272
542.159
542.046
541.934
541.822
541.71
541.599
541.488
541.377
541.266
541.156
541.046
540.935
540.825
540.715
540.605
552.459
552.278
552.098
551.922
551.75
551.586
551.431
551.286
551.152
551.031
550.921
550.823
550.735
550.656
550.584
550.518
550.457
550.4
550.346
550.295
550.246
550.198
550.152
550.107
550.063
550.018
549.974
549.929
549.884
549.839
549.793
549.746
549.699
549.651
549.603
549.554
549.504
549.454
549.403
549.352
549.3
549.248
549.195
549.143
549.09
549.038
548.985
548.932
548.879
548.825
548.771
548.716
548.66
548.604
548.546
548.487
548.426
548.364
548.299
548.232
548.162
548.088
548.01
547.927
547.838
547.744
547.642
547.532
547.413
547.285
547.145
546.994
546.832
546.659
546.477
546.288
546.096
545.904
545.716
545.535
545.36
545.192
545.032
544.879
544.732
544.59
544.453
544.318
544.186
544.057
543.93
543.804
543.68
543.557
543.436
543.316
543.196
543.078
542.961
542.844
542.728
542.613
542.499
542.385
542.271
542.158
542.046
541.933
541.822
541.71
541.599
541.488
541.377
541.266
541.156
541.046
540.935
540.825
540.715
540.605
552.458
552.275
552.093
551.916
551.745
551.581
551.427
551.284
551.154
551.035
550.928
550.832
550.745
550.667
550.595
550.529
550.468
550.41
550.356
550.304
550.254
550.206
550.159
550.113
550.067
550.021
549.976
549.93
549.883
549.836
549.788
549.74
549.692
549.643
549.593
549.543
549.492
549.441
549.389
549.337
549.284
549.231
549.178
549.125
549.071
549.018
548.965
548.911
548.857
548.803
548.748
548.693
548.637
548.58
548.522
548.463
548.403
548.34
548.276
548.208
548.138
548.064
547.986
547.904
547.815
547.721
547.62
547.511
547.394
547.267
547.13
546.984
546.827
546.66
546.483
546.297
546.107
545.912
545.718
545.529
545.348
545.179
545.019
544.868
544.723
544.583
544.447
544.313
544.182
544.054
543.927
543.801
543.678
543.555
543.434
543.314
543.195
543.077
542.959
542.843
542.727
542.612
542.498
542.384
542.27
542.157
542.045
541.933
541.821
541.709
541.598
541.487
541.377
541.266
541.156
541.045
540.935
540.825
540.715
540.605
552.457
552.271
552.089
551.912
551.741
551.579
551.427
551.288
551.161
551.045
550.941
550.846
550.761
550.684
550.612
550.547
550.485
550.427
550.372
550.319
550.268
550.219
550.171
550.123
550.075
550.028
549.98
549.932
549.883
549.833
549.783
549.732
549.681
549.63
549.579
549.527
549.474
549.422
549.369
549.315
549.261
549.207
549.153
549.098
549.044
548.989
548.935
548.881
548.826
548.771
548.716
548.66
548.603
548.546
548.488
548.429
548.368
548.306
548.241
548.174
548.104
548.03
547.953
547.87
547.783
547.689
547.589
547.481
547.365
547.241
547.107
546.964
546.811
546.648
546.476
546.293
546.104
545.908
545.709
545.512
545.326
545.156
544.999
544.852
544.71
544.572
544.438
544.306
544.176
544.048
543.922
543.797
543.674
543.552
543.431
543.311
543.192
543.074
542.957
542.841
542.725
542.61
542.496
542.382
542.269
542.156
542.044
541.932
541.82
541.709
541.598
541.487
541.376
541.266
541.155
541.045
540.935
540.825
540.715
540.605
552.456
552.269
552.086
551.91
551.742
551.583
551.435
551.298
551.174
551.061
550.959
550.867
550.783
550.706
550.636
550.57
550.508
550.449
550.393
550.339
550.287
550.237
550.187
550.137
550.087
550.038
549.987
549.936
549.884
549.831
549.777
549.723
549.669
549.615
549.561
549.506
549.452
549.397
549.342
549.287
549.231
549.175
549.12
549.064
549.008
548.952
548.897
548.842
548.786
548.73
548.674
548.618
548.561
548.503
548.445
548.385
548.324
548.262
548.198
548.131
548.061
547.987
547.91
547.828
547.741
547.648
547.549
547.442
547.328
547.206
547.075
546.935
546.785
546.626
546.456
546.276
546.085
545.886
545.682
545.478
545.287
545.121
544.97
544.829
544.693
544.559
544.427
544.297
544.169
544.042
543.917
543.792
543.669
543.548
543.427
543.307
543.189
543.071
542.954
542.838
542.723
542.608
542.494
542.38
542.267
542.155
542.042
541.93
541.819
541.708
541.597
541.486
541.375
541.265
541.155
541.045
540.935
540.825
540.715
540.605
552.458
552.274
552.092
551.916
551.749
551.592
551.447
551.314
551.193
551.083
550.983
550.893
550.811
550.734
550.664
550.598
550.536
550.476
550.42
550.365
550.311
550.259
550.207
550.155
550.103
550.05
549.996
549.942
549.886
549.829
549.772
549.714
549.655
549.597
549.54
549.482
549.425
549.367
549.31
549.252
549.195
549.137
549.08
549.022
548.965
548.908
548.852
548.795
548.739
548.682
548.625
548.568
548.51
548.452
548.393
548.333
548.272
548.21
548.145
548.079
548.009
547.936
547.859
547.778
547.691
547.599
547.501
547.395
547.283
547.162
547.034
546.896
546.749
546.593
546.425
546.247
546.056
545.854
545.642
545.427
545.224
545.069
544.933
544.803
544.673
544.544
544.415
544.288
544.161
544.035
543.91
543.786
543.664
543.543
543.422
543.303
543.185
543.067
542.951
542.835
542.72
542.605
542.491
542.378
542.265
542.153
542.04
541.929
541.817
541.706
541.595
541.485
541.374
541.264
541.154
541.044
540.934
540.824
540.715
540.605
552.458
552.276
552.097
551.924
551.76
551.606
551.465
551.335
551.217
551.11
551.013
550.924
550.842
550.767
550.697
550.631
550.568
550.508
550.451
550.395
550.34
550.286
550.231
550.177
550.122
550.066
550.008
549.948
549.888
549.827
549.765
549.703
549.64
549.578
549.516
549.455
549.394
549.334
549.274
549.214
549.154
549.094
549.035
548.975
548.917
548.858
548.8
548.743
548.685
548.627
548.569
548.511
548.453
548.394
548.335
548.274
548.213
548.151
548.086
548.02
547.95
547.878
547.801
547.72
547.634
547.543
547.446
547.342
547.231
547.112
546.985
546.85
546.706
546.552
546.387
546.21
546.02
545.815
545.593
545.356
545.113
544.999
544.891
544.775
544.654
544.529
544.403
544.277
544.151
544.026
543.902
543.779
543.657
543.537
543.417
543.298
543.18
543.063
542.947
542.831
542.716
542.602
542.488
542.375
542.262
542.15
542.038
541.927
541.816
541.705
541.594
541.484
541.373
541.263
541.153
541.043
540.934
540.824
540.714
540.605
552.459
552.278
552.101
551.932
551.772
551.624
551.486
551.361
551.246
551.142
551.047
550.959
550.878
550.803
550.733
550.667
550.604
550.544
550.485
550.428
550.371
550.315
550.258
550.201
550.142
550.082
550.02
549.956
549.891
549.825
549.758
549.691
549.624
549.557
549.49
549.425
549.361
549.297
549.234
549.171
549.109
549.047
548.985
548.924
548.863
548.803
548.743
548.684
548.625
548.566
548.507
548.449
548.389
548.33
548.27
548.21
548.148
548.085
548.021
547.954
547.885
547.813
547.737
547.657
547.572
547.481
547.385
547.282
547.173
547.056
546.931
546.798
546.657
546.505
546.343
546.169
545.981
545.776
545.547
545.273
544.875
544.923
544.857
544.754
544.638
544.516
544.392
544.267
544.142
544.018
543.894
543.772
543.65
543.53
543.41
543.292
543.174
543.058
542.942
542.826
542.712
542.598
542.485
542.372
542.259
542.147
542.036
541.924
541.814
541.703
541.592
541.482
541.372
541.262
541.152
541.043
540.933
540.824
540.714
540.605
552.461
552.284
552.113
551.948
551.793
551.648
551.514
551.391
551.28
551.178
551.084
550.998
550.918
550.843
550.773
550.707
550.644
550.582
550.523
550.464
550.405
550.347
550.287
550.227
550.164
550.099
550.032
549.963
549.893
549.822
549.75
549.678
549.606
549.534
549.463
549.394
549.325
549.258
549.192
549.126
549.06
548.995
548.931
548.868
548.805
548.743
548.682
548.621
548.561
548.501
548.441
548.381
548.321
548.261
548.201
548.14
548.078
548.015
547.95
547.884
547.815
547.743
547.668
547.588
547.504
547.414
547.319
547.218
547.11
546.996
546.873
546.743
546.604
546.456
546.298
546.128
545.945
545.748
545.533
545.301
545.07
544.963
544.859
544.747
544.628
544.505
544.381
544.256
544.132
544.008
543.885
543.763
543.642
543.522
543.403
543.285
543.168
543.052
542.936
542.821
542.707
542.594
542.481
542.368
542.256
542.144
542.033
541.922
541.811
541.701
541.591
541.48
541.371
541.261
541.151
541.042
540.932
540.823
540.714
540.605
552.463
552.291
552.124
551.964
551.813
551.672
551.543
551.424
551.316
551.216
551.124
551.04
550.961
550.886
550.816
550.75
550.686
550.624
550.563
550.502
550.442
550.38
550.318
550.253
550.186
550.116
550.043
549.969
549.894
549.818
549.742
549.664
549.587
549.51
549.435
549.36
549.288
549.216
549.146
549.077
549.009
548.941
548.874
548.808
548.744
548.68
548.617
548.555
548.493
548.432
548.371
548.31
548.249
548.188
548.127
548.066
548.004
547.94
547.876
547.809
547.74
547.669
547.594
547.515
547.432
547.344
547.25
547.151
547.045
546.932
546.813
546.685
546.55
546.406
546.252
546.088
545.913
545.726
545.529
545.329
545.142
544.999
544.871
544.747
544.622
544.497
544.372
544.247
544.122
543.998
543.876
543.754
543.634
543.514
543.396
543.278
543.161
543.045
542.93
542.816
542.702
542.589
542.476
542.364
542.252
542.141
542.03
541.919
541.809
541.698
541.589
541.479
541.369
541.26
541.15
541.041
540.932
540.823
540.714
540.605
552.466
552.3
552.139
551.984
551.838
551.702
551.577
551.462
551.356
551.258
551.168
551.084
551.006
550.932
550.862
550.795
550.731
550.667
550.605
550.543
550.48
550.415
550.349
550.28
550.208
550.133
550.055
549.975
549.895
549.813
549.732
549.649
549.566
549.485
549.404
549.325
549.248
549.173
549.099
549.027
548.955
548.885
548.815
548.747
548.68
548.614
548.549
548.485
548.422
548.359
548.297
548.235
548.174
548.112
548.051
547.989
547.926
547.863
547.798
547.732
547.663
547.592
547.517
547.439
547.357
547.27
547.177
547.08
546.976
546.866
546.75
546.626
546.495
546.355
546.207
546.05
545.883
545.707
545.525
545.344
545.172
545.019
544.88
544.747
544.617
544.489
544.362
544.236
544.112
543.988
543.866
543.744
543.624
543.505
543.387
543.27
543.154
543.038
542.924
542.81
542.696
542.584
542.471
542.36
542.248
542.137
542.026
541.916
541.806
541.696
541.586
541.477
541.367
541.258
541.149
541.04
540.931
540.822
540.713
540.604
552.47
552.31
552.155
552.005
551.864
551.732
551.611
551.499
551.396
551.301
551.213
551.131
551.053
550.98
550.91
550.843
550.778
550.713
550.649
550.585
550.519
550.451
550.381
550.308
550.231
550.15
550.067
549.982
549.895
549.808
549.721
549.633
549.545
549.458
549.372
549.289
549.208
549.128
549.051
548.975
548.9
548.826
548.754
548.683
548.614
548.546
548.479
548.414
548.349
548.284
548.221
548.158
548.096
548.034
547.971
547.909
547.847
547.783
547.718
547.652
547.583
547.512
547.438
547.361
547.279
547.193
547.102
547.006
546.905
546.798
546.685
546.565
546.438
546.304
546.161
546.011
545.852
545.686
545.516
545.346
545.181
545.027
544.882
544.745
544.611
544.481
544.352
544.226
544.101
543.977
543.855
543.734
543.614
543.495
543.378
543.261
543.146
543.031
542.917
542.803
542.69
542.578
542.466
542.355
542.244
542.133
542.023
541.913
541.803
541.693
541.584
541.475
541.366
541.257
541.148
541.039
540.93
540.822
540.713
540.604
552.473
552.32
552.17
552.027
551.892
551.765
551.648
551.54
551.441
551.348
551.261
551.18
551.103
551.03
550.96
550.893
550.826
550.76
550.695
550.628
550.559
550.488
550.414
550.336
550.254
550.168
550.079
549.989
549.896
549.803
549.709
549.615
549.522
549.43
549.339
549.251
549.165
549.082
549
548.921
548.843
548.767
548.692
548.619
548.547
548.477
548.408
548.34
548.273
548.208
548.143
548.079
548.015
547.952
547.89
547.827
547.764
547.701
547.636
547.57
547.502
547.431
547.357
547.28
547.199
547.114
547.024
546.93
546.831
546.726
546.616
546.501
546.378
546.25
546.113
545.97
545.819
545.661
545.5
545.338
545.178
545.025
544.878
544.738
544.603
544.471
544.341
544.214
544.089
543.965
543.843
543.722
543.603
543.485
543.368
543.252
543.137
543.022
542.909
542.796
542.684
542.572
542.461
542.35
542.239
542.129
542.019
541.909
541.8
541.691
541.582
541.473
541.364
541.255
541.146
541.038
540.929
540.821
540.713
540.604
552.476
552.331
552.188
552.051
551.921
551.799
551.686
551.581
551.484
551.394
551.31
551.23
551.154
551.081
551.011
550.944
550.876
550.81
550.742
550.673
550.601
550.526
550.448
550.366
550.279
550.187
550.093
549.996
549.897
549.797
549.697
549.597
549.498
549.4
549.305
549.212
549.121
549.034
548.949
548.866
548.786
548.706
548.629
548.553
548.479
548.406
548.335
548.265
548.197
548.129
548.063
547.997
547.933
547.869
547.806
547.743
547.68
547.616
547.552
547.486
547.418
547.348
547.275
547.198
547.118
547.033
546.945
546.852
546.755
546.653
546.546
546.434
546.317
546.193
546.063
545.926
545.782
545.633
545.479
545.323
545.168
545.015
544.869
544.728
544.591
544.458
544.328
544.201
544.075
543.952
543.83
543.71
543.591
543.474
543.357
543.242
543.127
543.014
542.901
542.788
542.677
542.566
542.455
542.344
542.234
542.124
542.015
541.906
541.797
541.688
541.579
541.47
541.362
541.253
541.145
541.037
540.929
540.82
540.712
540.604
552.48
552.341
552.205
552.074
551.95
551.833
551.725
551.624
551.53
551.442
551.359
551.281
551.206
551.134
551.064
550.996
550.928
550.86
550.791
550.719
550.644
550.566
550.483
550.396
550.304
550.207
550.106
550.003
549.898
549.791
549.684
549.578
549.473
549.37
549.27
549.172
549.077
548.985
548.896
548.81
548.726
548.645
548.565
548.486
548.41
548.335
548.262
548.19
548.119
548.05
547.981
547.914
547.848
547.784
547.72
547.656
547.593
547.53
547.465
547.4
547.332
547.263
547.19
547.114
547.035
546.951
546.864
546.773
546.677
546.578
546.474
546.366
546.252
546.134
546.009
545.879
545.742
545.6
545.453
545.302
545.151
545
544.854
544.714
544.577
544.444
544.313
544.186
544.061
543.938
543.816
543.697
543.579
543.462
543.346
543.231
543.117
543.005
542.892
542.781
542.669
542.559
542.449
542.339
542.229
542.12
542.011
541.902
541.793
541.685
541.576
541.468
541.36
541.252
541.144
541.036
540.928
540.82
540.712
540.604
552.483
552.351
552.222
552.097
551.978
551.867
551.763
551.666
551.575
551.49
551.409
551.332
551.258
551.187
551.117
551.049
550.981
550.912
550.841
550.767
550.689
550.607
550.52
550.428
550.33
550.226
550.118
550.008
549.895
549.782
549.669
549.557
549.447
549.339
549.235
549.132
549.032
548.936
548.843
548.753
548.666
548.582
548.5
548.419
548.341
548.264
548.188
548.114
548.041
547.97
547.9
547.831
547.763
547.697
547.632
547.568
547.505
547.441
547.377
547.312
547.245
547.175
547.104
547.028
546.95
546.867
546.781
546.692
546.598
546.501
546.4
546.295
546.186
546.072
545.953
545.829
545.698
545.563
545.422
545.277
545.129
544.98
544.836
544.696
544.559
544.426
544.296
544.169
544.045
543.922
543.801
543.682
543.565
543.449
543.334
543.22
543.107
542.995
542.883
542.772
542.662
542.552
542.442
542.333
542.224
542.115
542.006
541.898
541.79
541.682
541.574
541.466
541.358
541.25
541.142
541.034
540.927
540.819
540.711
540.604
552.487
552.361
552.238
552.12
552.007
551.902
551.802
551.709
551.621
551.538
551.46
551.384
551.312
551.241
551.172
551.104
551.035
550.965
550.892
550.815
550.734
550.649
550.557
550.459
550.354
550.244
550.128
550.01
549.89
549.77
549.651
549.534
549.42
549.308
549.199
549.092
548.988
548.887
548.79
548.696
548.605
548.518
548.434
548.351
548.271
548.192
548.115
548.038
547.963
547.89
547.817
547.747
547.677
547.61
547.544
547.479
547.415
547.35
547.286
547.221
547.155
547.086
547.015
546.94
546.863
546.782
546.697
546.609
546.517
546.422
546.324
546.222
546.117
546.008
545.894
545.775
545.651
545.521
545.387
545.247
545.103
544.956
544.813
544.674
544.539
544.406
544.277
544.151
544.027
543.905
543.785
543.667
543.55
543.435
543.321
543.208
543.096
542.985
542.874
542.764
542.654
542.545
542.436
542.327
542.218
542.11
542.002
541.894
541.786
541.678
541.571
541.463
541.356
541.248
541.141
541.033
540.926
540.818
540.711
540.604
552.49
552.372
552.255
552.143
552.037
551.936
551.841
551.752
551.667
551.587
551.51
551.437
551.366
551.296
551.227
551.159
551.09
551.018
550.944
550.865
550.781
550.692
550.596
550.491
550.379
550.26
550.137
550.011
549.883
549.755
549.631
549.509
549.391
549.276
549.163
549.053
548.945
548.839
548.737
548.64
548.546
548.455
548.368
548.284
548.202
548.121
548.042
547.963
547.886
547.81
547.736
547.663
547.592
547.523
547.455
547.389
547.324
547.259
547.194
547.129
547.062
546.994
546.923
546.85
546.773
546.693
546.61
546.524
546.434
546.342
546.246
546.148
546.046
545.941
545.832
545.718
545.6
545.476
545.346
545.212
545.073
544.928
544.788
544.65
544.516
544.384
544.256
544.13
544.007
543.886
543.767
543.65
543.535
543.421
543.308
543.196
543.085
542.974
542.864
542.755
542.646
542.537
542.429
542.321
542.213
542.105
541.998
541.89
541.783
541.675
541.568
541.461
541.353
541.246
541.139
541.032
540.925
540.818
540.711
540.604
552.494
552.382
552.273
552.167
552.066
551.97
551.88
551.794
551.713
551.636
551.562
551.49
551.42
551.351
551.283
551.214
551.145
551.073
550.997
550.916
550.829
550.735
550.634
550.523
550.403
550.276
550.144
550.009
549.874
549.741
549.61
549.484
549.362
549.244
549.128
549.015
548.903
548.793
548.687
548.586
548.488
548.394
548.304
548.218
548.133
548.051
547.97
547.89
547.81
547.732
547.655
547.58
547.507
547.436
547.367
547.299
547.233
547.167
547.101
547.035
546.969
546.9
546.83
546.757
546.682
546.603
546.522
546.437
546.35
546.259
546.167
546.072
545.974
545.873
545.768
545.659
545.546
545.427
545.303
545.174
545.039
544.898
544.759
544.623
544.49
544.36
544.232
544.108
543.986
543.866
543.749
543.633
543.519
543.406
543.294
543.183
543.073
542.963
542.854
542.746
542.638
542.53
542.422
542.315
542.207
542.1
541.993
541.886
541.779
541.672
541.565
541.458
541.351
541.245
541.138
541.031
540.924
540.817
540.71
540.603
552.497
552.392
552.29
552.19
552.095
552.004
551.919
551.837
551.759
551.685
551.613
551.543
551.474
551.406
551.339
551.27
551.2
551.127
551.05
550.967
550.877
550.779
550.672
550.555
550.428
550.292
550.152
550.01
549.868
549.728
549.592
549.46
549.334
549.213
549.095
548.978
548.863
548.75
548.64
548.535
548.434
548.337
548.244
548.154
548.068
547.983
547.9
547.818
547.736
547.655
547.576
547.499
547.424
547.35
547.279
547.21
547.141
547.074
547.008
546.941
546.874
546.806
546.736
546.664
546.589
546.512
546.432
546.35
546.264
546.177
546.087
545.995
545.901
545.804
545.703
545.599
545.49
545.377
545.258
545.134
545.004
544.866
544.728
544.593
544.462
544.333
544.207
544.084
543.963
543.845
543.729
543.614
543.501
543.39
543.279
543.17
543.061
542.952
542.844
542.737
542.629
542.522
542.415
542.309
542.202
542.095
541.989
541.882
541.775
541.669
541.562
541.456
541.349
541.243
541.136
541.03
540.923
540.816
540.71
540.603
552.501
552.403
552.307
552.214
552.124
552.039
551.957
551.88
551.805
551.733
551.663
551.595
551.528
551.461
551.394
551.326
551.255
551.181
551.103
551.017
550.925
550.823
550.712
550.588
550.454
550.311
550.163
550.015
549.867
549.721
549.578
549.44
549.309
549.183
549.063
548.944
548.827
548.711
548.598
548.489
548.384
548.283
548.187
548.094
548.005
547.918
547.832
547.748
547.664
547.581
547.499
547.419
547.341
547.266
547.192
547.121
547.051
546.982
546.914
546.846
546.779
546.71
546.641
546.569
546.496
546.421
546.343
546.263
546.18
546.095
546.008
545.92
545.829
545.735
545.639
545.538
545.434
545.325
545.211
545.092
544.967
544.839
544.696
544.562
544.431
544.304
544.179
544.057
543.938
543.822
543.707
543.595
543.483
543.373
543.264
543.156
543.048
542.941
542.834
542.728
542.621
542.515
542.409
542.302
542.196
542.09
541.984
541.878
541.772
541.666
541.56
541.453
541.347
541.241
541.135
541.028
540.922
540.816
540.71
540.603
552.504
552.413
552.324
552.237
552.153
552.073
551.996
551.922
551.85
551.781
551.713
551.646
551.58
551.514
551.448
551.38
551.309
551.235
551.154
551.067
550.972
550.867
550.751
550.622
550.48
550.329
550.175
550.022
549.869
549.718
549.568
549.424
549.287
549.157
549.033
548.913
548.794
548.676
548.561
548.449
548.341
548.236
548.136
548.039
547.946
547.856
547.768
547.68
547.594
547.508
547.423
547.34
547.26
547.181
547.105
547.032
546.96
546.889
546.82
546.751
546.683
546.615
546.546
546.476
546.404
546.331
546.255
546.178
546.098
546.017
545.933
545.848
545.76
545.67
545.577
545.48
545.38
545.275
545.165
545.05
544.929
544.797
544.661
544.528
544.399
544.272
544.149
544.029
543.912
543.797
543.685
543.574
543.465
543.356
543.249
543.142
543.036
542.93
542.824
542.718
542.613
542.507
542.402
542.297
542.191
542.085
541.98
541.874
541.769
541.663
541.557
541.451
541.345
541.239
541.133
541.027
540.921
540.815
540.709
540.603
552.508
552.423
552.34
552.259
552.181
552.105
552.033
551.962
551.894
551.827
551.761
551.695
551.63
551.565
551.499
551.431
551.36
551.285
551.204
551.115
551.018
550.91
550.789
550.654
550.507
550.351
550.192
550.033
549.875
549.719
549.564
549.414
549.271
549.136
549.009
548.887
548.767
548.648
548.531
548.417
548.306
548.198
548.093
547.992
547.895
547.8
547.708
547.617
547.527
547.438
547.35
547.264
547.18
547.099
547.02
546.943
546.869
546.796
546.725
546.656
546.587
546.52
546.452
546.383
546.314
546.243
546.171
546.097
546.021
545.943
545.864
545.782
545.698
545.611
545.521
545.427
545.33
545.228
545.121
545.009
544.89
544.76
544.625
544.493
544.364
544.238
544.117
543.999
543.884
543.771
543.661
543.553
543.445
543.339
543.233
543.128
543.023
542.919
542.814
542.709
542.605
542.5
542.396
542.291
542.186
542.081
541.976
541.871
541.765
541.66
541.555
541.449
541.343
541.238
541.132
541.026
540.92
540.815
540.709
540.603
552.511
552.433
552.356
552.281
552.207
552.137
552.068
552
551.934
551.869
551.804
551.74
551.676
551.611
551.546
551.478
551.407
551.332
551.25
551.16
551.059
550.947
550.821
550.682
550.529
550.368
550.205
550.044
549.884
549.724
549.566
549.412
549.265
549.125
548.994
548.87
548.75
548.63
548.511
548.395
548.281
548.17
548.061
547.956
547.853
547.753
547.655
547.559
547.465
547.372
547.28
547.19
547.103
547.018
546.936
546.856
546.779
546.704
546.631
546.56
546.492
546.425
546.359
546.293
546.227
546.16
546.092
546.022
545.951
545.879
545.803
545.726
545.645
545.561
545.473
545.382
545.287
545.187
545.082
544.972
544.854
544.725
544.59
544.456
544.327
544.202
544.082
543.966
543.853
543.744
543.636
543.53
543.425
543.321
543.218
543.114
543.011
542.908
542.804
542.701
542.597
542.493
542.389
542.285
542.181
542.077
541.972
541.867
541.762
541.657
541.552
541.447
541.342
541.236
541.131
541.025
540.92
540.814
540.708
540.603
552.514
552.442
552.37
552.3
552.231
552.164
552.099
552.034
551.97
551.905
551.842
551.778
551.714
551.65
551.585
551.519
551.448
551.373
551.29
551.199
551.097
550.981
550.851
550.706
550.549
550.384
550.22
550.06
549.901
549.742
549.584
549.428
549.275
549.13
548.994
548.866
548.743
548.622
548.502
548.385
548.268
548.154
548.042
547.932
547.823
547.717
547.612
547.509
547.409
547.311
547.215
547.121
547.03
546.941
546.856
546.772
546.692
546.613
546.538
546.466
546.397
546.332
546.269
546.207
546.145
546.084
546.02
545.957
545.892
545.825
545.755
545.681
545.603
545.52
545.434
545.344
545.25
545.152
545.048
544.938
544.82
544.693
544.559
544.419
544.286
544.162
544.043
543.93
543.821
543.715
543.611
543.508
543.405
543.304
543.202
543.1
542.999
542.897
542.795
542.692
542.59
542.487
542.384
542.28
542.176
542.072
541.968
541.864
541.759
541.655
541.55
541.445
541.34
541.235
541.13
541.024
540.919
540.814
540.708
540.603
552.516
552.449
552.382
552.316
552.251
552.187
552.123
552.06
551.997
551.933
551.869
551.805
551.741
551.678
551.614
551.549
551.48
551.406
551.323
551.231
551.127
551.007
550.872
550.723
550.563
550.398
550.236
550.08
549.925
549.771
549.618
549.465
549.309
549.154
549.008
548.873
548.747
548.625
548.504
548.385
548.266
548.149
548.035
547.921
547.807
547.694
547.583
547.472
547.365
547.261
547.16
547.06
546.965
546.872
546.782
546.696
546.611
546.53
546.451
546.377
546.308
546.245
546.186
546.129
546.073
546.017
545.961
545.905
545.847
545.786
545.719
545.647
545.566
545.48
545.392
545.303
545.211
545.118
545.017
544.909
544.793
544.669
544.546
544.383
544.242
544.117
544.001
543.892
543.787
543.685
543.584
543.485
543.385
543.286
543.187
543.087
542.987
542.887
542.786
542.685
542.583
542.481
542.378
542.275
542.172
542.069
541.965
541.861
541.757
541.653
541.548
541.443
541.339
541.234
541.129
541.024
540.918
540.813
540.708
540.603
552.518
552.454
552.39
552.326
552.263
552.201
552.138
552.075
552.012
551.947
551.882
551.816
551.752
551.689
551.627
551.565
551.5
551.428
551.347
551.256
551.15
551.028
550.889
550.737
550.576
550.412
550.253
550.103
549.956
549.813
549.672
549.529
549.374
549.206
549.047
548.896
548.761
548.636
548.515
548.393
548.271
548.15
548.035
547.919
547.804
547.687
547.571
547.454
547.341
547.233
547.125
547.017
546.914
546.817
546.721
546.632
546.546
546.462
546.379
546.303
546.235
546.179
546.122
546.071
546.017
545.969
545.919
545.874
545.822
545.762
545.689
545.607
545.513
545.415
545.327
545.247
545.156
545.08
544.989
544.883
544.769
544.644
544.503
544.336
544.186
544.064
543.954
543.851
543.751
543.654
543.558
543.462
543.366
543.269
543.173
543.075
542.977
542.878
542.778
542.678
542.577
542.475
542.373
542.271
542.168
542.065
541.962
541.858
541.755
541.651
541.546
541.442
541.337
541.233
541.128
541.023
540.918
540.813
540.708
540.603
552.518
552.455
552.391
552.328
552.264
552.201
552.137
552.072
552.007
551.94
551.872
551.804
551.737
551.675
551.618
551.564
551.505
551.437
551.358
551.27
551.168
551.045
550.909
550.762
550.6
550.436
550.28
550.137
549.999
549.872
549.748
549.634
549.487
549.294
549.124
548.934
548.782
548.647
548.526
548.402
548.272
548.14
548.029
547.912
547.804
547.688
547.581
547.455
547.343
547.236
547.121
547.002
546.888
546.785
546.674
546.592
546.502
546.428
546.342
546.272
546.201
546.16
546.095
546.052
545.988
545.949
545.903
545.863
545.813
545.754
545.644
545.502
545.406
545.311
545.243
545.205
545.031
545.059
545.025
544.814
544.633
544.539
544.458
544.249
544.109
544
543.9
543.806
543.714
543.623
543.531
543.439
543.347
543.254
543.159
543.064
542.967
542.869
542.771
542.671
542.571
542.471
542.369
542.267
542.165
542.063
541.96
541.856
541.753
541.649
541.545
541.441
541.336
541.232
541.127
541.022
540.917
540.812
540.707
540.602
552.517
552.451
552.384
552.318
552.251
552.182
552.111
552.042
551.973
551.902
551.829
551.754
551.685
551.628
551.584
551.545
551.495
551.431
551.352
551.269
551.176
551.061
550.947
550.825
550.666
550.505
550.336
550.194
550.058
549.933
549.822
549.795
549.665
549.416
549.28
548.979
548.804
548.645
548.545
548.413
548.292
548.14
548.016
547.89
547.763
547.646
547.549
547.431
547.331
547.245
547.131
547.002
546.856
546.764
546.644
546.575
546.464
546.401
546.315
546.272
546.202
546.163
546.07
546.049
545.986
545.958
545.876
545.842
545.775
545.768
545.625
545.527
545.403
545.298
545.214
545.159
545.053
545.027
544.966
544.84
544.699
544.571
544.466
544.175
544.022
543.928
543.843
543.76
543.677
543.592
543.506
543.418
543.33
543.24
543.148
543.054
542.959
542.862
542.765
542.666
542.567
542.467
542.366
542.264
542.163
542.06
541.958
541.854
541.751
541.647
541.544
541.439
541.335
541.231
541.126
541.022
540.917
540.812
540.707
540.602
552.513
552.441
552.369
552.298
552.222
552.136
552.049
551.971
551.898
551.813
551.728
551.642
551.572
551.536
551.524
551.518
551.48
551.417
551.327
551.243
551.16
551.066
551.032
550.976
550.799
550.688
550.443
550.291
550.264
550.054
549.799
549.744
549.586
549.434
549.275
548.979
548.884
548.68
548.607
548.464
548.36
548.159
548.045
547.899
547.745
547.649
547.558
547.397
547.348
547.284
547.171
547.014
546.854
546.722
546.64
546.545
546.42
546.346
546.314
546.256
546.15
546.081
546.011
545.973
545.942
545.901
545.84
545.808
545.753
545.716
545.618
545.532
545.42
545.318
545.224
545.142
545.055
544.992
544.918
544.83
544.73
544.612
544.471
544.145
543.953
543.858
543.785
543.716
543.643
543.563
543.482
543.399
543.315
543.228
543.138
543.046
542.952
542.857
542.76
542.662
542.563
542.464
542.363
542.262
542.161
542.058
541.956
541.853
541.75
541.646
541.543
541.439
541.335
541.23
541.126
541.021
540.917
540.812
540.707
540.602
552.508
552.426
552.349
552.277
552.175
552.052
551.954
551.867
551.773
551.635
551.52
551.414
551.362
551.404
551.433
551.472
551.452
551.422
551.308
551.19
551.104
551.002
551.133
551.14
550.954
550.758
550.67
550.453
550.301
550.035
549.859
549.737
549.554
549.378
549.134
548.938
548.835
548.735
548.633
548.521
548.411
548.135
548.076
547.865
547.686
547.539
547.481
547.368
547.332
547.227
547.127
546.95
546.822
546.672
546.582
546.453
546.355
546.256
546.204
546.121
546.055
545.999
545.95
545.911
545.878
545.835
545.789
545.751
545.698
545.646
545.578
545.505
545.42
545.333
545.245
545.155
545.064
544.982
544.901
544.816
544.685
544.408
544.215
544.083
543.88
543.807
543.733
543.678
543.614
543.537
543.459
543.383
543.303
543.219
543.131
543.04
542.948
542.853
542.757
542.659
542.561
542.462
542.361
542.261
542.159
542.057
541.955
541.852
541.749
541.646
541.542
541.438
541.334
541.23
541.125
541.021