/*--------------------------------*- C++ -*----------------------------------*\
  =========                 |
  \\      /  F ield         | OpenFOAM: The Open Source CFD Toolbox
   \\    /   O peration     | Website:  https://openfoam.org
    \\  /    A nd           | Version:  6
     \\/     M anipulation  |
\*---------------------------------------------------------------------------*/
FoamFile
{
    version     2.0;
    format      ascii;
    class       volVectorField;
    location    "2150";
    object      U;
}
// * * * * * * * * * * * * * * * * * * * * * * * * * * * * * * * * * * * * * //

dimensions      [0 1 -1 0 0 0 0];

internalField   nonuniform List<vector> 
4800
(
(-1.26405e-05 0 -4.88534e-05)
(8.90307e-05 0 -0.000118061)
(0.000194429 0 -0.000142388)
(0.000149527 0 -0.000343924)
(4.5025e-05 0 -0.000468433)
(-3.32641e-05 0 -0.000226425)
(-0.000302725 0 -0.000309681)
(-0.000467918 0 3.97769e-05)
(-0.000619287 0 -0.000113428)
(-0.000798309 0 -7.99368e-05)
(-0.000899846 0 0.00018837)
(-0.00102354 0 2.72344e-05)
(-0.00112697 0 6.19812e-05)
(-0.00116837 0 8.75743e-06)
(-0.00116608 0 9.46099e-06)
(-0.00115135 0 -2.96556e-05)
(-0.0011406 0 -0.000105151)
(-0.00105442 0 -0.000111144)
(-0.000968628 0 -1.65395e-05)
(-0.000912648 0 -4.37673e-05)
(-0.000894979 0 -3.893e-05)
(-0.000870437 0 -7.70408e-05)
(-0.000739103 0 -7.37479e-05)
(-0.000566577 0 -0.000112084)
(-0.000450951 0 -0.000120843)
(-9.05889e-05 0 -0.000427438)
(-5.41617e-05 0 -0.00016832)
(0.000146147 0 1.79389e-05)
(0.000222473 0 5.3873e-06)
(0.000321882 0 -3.98641e-05)
(0.00043235 0 -5.28593e-05)
(0.000535814 0 -7.20914e-06)
(0.000615064 0 -4.74344e-05)
(0.000696153 0 1.33288e-05)
(0.000774267 0 -0.000119388)
(0.000875728 0 3.09445e-05)
(0.000952311 0 1.64864e-06)
(0.00100978 0 -7.81311e-05)
(0.00107856 0 -4.2467e-05)
(0.00108809 0 -4.50432e-05)
(0.00108417 0 -6.02016e-05)
(0.00111561 0 -7.66949e-05)
(0.00120888 0 5.18768e-05)
(0.00127541 0 -7.1238e-05)
(0.00127468 0 -8.28826e-05)
(0.00129933 0 -7.03188e-05)
(0.00136321 0 -0.000102026)
(0.00144247 0 1.29505e-05)
(0.00145998 0 -6.39072e-05)
(0.00147225 0 -7.08742e-05)
(0.00149788 0 -7.47163e-05)
(0.00153414 0 -7.64242e-05)
(0.00157393 0 -3.03603e-05)
(0.00157797 0 -7.29017e-06)
(0.0015754 0 1.87173e-06)
(0.00157183 0 1.00743e-05)
(0.00156093 0 1.26711e-05)
(0.00153869 0 2.42215e-06)
(0.00151053 0 -2.05349e-05)
(0.00148821 0 -4.1358e-06)
(0.00146785 0 -1.83362e-05)
(0.00144533 0 1.12545e-06)
(0.00142174 0 -2.25271e-05)
(0.00139761 0 8.46889e-06)
(0.00136691 0 -2.34371e-05)
(0.00132385 0 3.14845e-05)
(0.0012716 0 -3.54235e-05)
(0.00120763 0 4.85945e-05)
(0.00113228 0 1.03018e-05)
(0.00104889 0 3.17447e-05)
(0.000940107 0 0.000143587)
(0.000835495 0 -3.01342e-05)
(0.000640007 0 0.000123994)
(-4.56963e-05 0 8.92754e-05)
(-0.000573861 0 -0.000445532)
(-0.000614376 0 -0.000364478)
(-0.000587877 0 -0.000278565)
(-0.000621083 0 -0.000297489)
(-0.000725574 0 -0.000279369)
(4.66973e-06 0 -0.000262515)
(-1.25445e-12 0 7.80337e-14)
(-3.67579e-12 0 -1.05245e-13)
(-2.11909e-12 0 -8.9705e-14)
(-1.96389e-12 0 -6.49121e-14)
(-1.84786e-12 0 -5.05663e-14)
(-1.75002e-12 0 -4.66649e-14)
(-1.65305e-12 0 -4.94903e-14)
(-1.54684e-12 0 -5.57987e-14)
(-1.42671e-12 0 -6.33671e-14)
(-1.29151e-12 0 -7.07885e-14)
(-1.14241e-12 0 -7.72242e-14)
(-9.81875e-13 0 -8.21977e-14)
(-8.13102e-13 0 -8.54633e-14)
(-6.39617e-13 0 -8.69306e-14)
(-4.65009e-13 0 -8.66179e-14)
(-2.92758e-13 0 -8.46192e-14)
(-1.26106e-13 0 -8.10824e-14)
(3.2038e-14 0 -7.6193e-14)
(1.79163e-13 0 -7.01624e-14)
(3.13192e-13 0 -6.32159e-14)
(4.32493e-13 0 -5.55794e-14)
(5.35873e-13 0 -4.747e-14)
(6.22566e-13 0 -3.90897e-14)
(6.92205e-13 0 -3.06239e-14)
(7.44775e-13 0 -2.22381e-14)
(7.80558e-13 0 -1.40739e-14)
(8.00088e-13 0 -6.24547e-15)
(8.04109e-13 0 1.15934e-15)
(7.93542e-13 0 8.07461e-15)
(7.69441e-13 0 1.44509e-14)
(7.32947e-13 0 2.02518e-14)
(6.85247e-13 0 2.54524e-14)
(6.27546e-13 0 3.00397e-14)
(5.6106e-13 0 3.40117e-14)
(4.87007e-13 0 3.73752e-14)
(4.06609e-13 0 4.01413e-14)
(3.21088e-13 0 4.23194e-14)
(2.31675e-13 0 4.39049e-14)
(1.39658e-13 0 4.48466e-14)
(4.65823e-14 0 4.49251e-14)
(-5.1545e-05 0 -3.85092e-05)
(-5.27684e-05 0 -1.07429e-05)
(-0.000222384 0 0.000112556)
(-0.000214907 0 0.000271059)
(-0.000406275 0 0.000237485)
(-0.000502307 0 4.41895e-05)
(-0.000464262 0 0.000494181)
(-0.000788549 0 0.000347274)
(-0.000909402 0 0.000320433)
(-0.00096254 0 0.00032759)
(-0.00108473 0 3.02267e-05)
(-0.00114335 0 9.64489e-05)
(-0.00119418 0 0.000121987)
(-0.00121375 0 8.15097e-05)
(-0.00121214 0 -0.000113438)
(-0.00121076 0 -4.58262e-05)
(-0.00122877 0 -6.491e-05)
(-0.00121517 0 -0.000102027)
(-0.00109272 0 -0.000155723)
(-0.000998229 0 -0.000113794)
(-0.000922563 0 -0.000103132)
(-0.000842827 0 -8.99736e-05)
(-0.00074059 0 -0.000140532)
(-0.00059119 0 -0.000296557)
(-0.000506789 0 -0.000222687)
(-0.000101823 0 -0.000480613)
(-0.000274077 0 -2.16842e-05)
(-3.79853e-05 0 -0.000346261)
(0.000130315 0 -0.000141819)
(0.000257715 0 -0.000111048)
(0.000364987 0 -0.000169877)
(0.000507444 0 -0.00013207)
(0.000592401 0 -0.000187311)
(0.000697432 0 -0.000145815)
(0.000778746 0 -0.000116549)
(0.000848646 0 -6.57511e-05)
(0.000909942 0 -0.000195593)
(0.00101653 0 -8.78887e-05)
(0.00105525 0 3.16368e-05)
(0.00105456 0 -2.58933e-05)
(0.00106602 0 -6.35229e-05)
(0.00110187 0 -4.00204e-05)
(0.00115618 0 2.64451e-06)
(0.00119391 0 -0.000105378)
(0.00121941 0 -0.00010119)
(0.00125275 0 -9.5272e-05)
(0.001302 0 -2.56717e-05)
(0.00134544 0 -2.14189e-05)
(0.00136703 0 -0.00015725)
(0.0013954 0 -7.502e-05)
(0.00139993 0 -2.28802e-05)
(0.00140114 0 -1.57624e-05)
(0.00140636 0 -2.1165e-06)
(0.00142084 0 -6.865e-06)
(0.00144507 0 -3.29338e-05)
(0.00146696 0 9.4116e-06)
(0.0014656 0 1.36187e-05)
(0.00146226 0 3.12816e-05)
(0.00145952 0 4.65923e-05)
(0.0014536 0 4.8529e-05)
(0.00143542 0 5.35164e-05)
(0.0014024 0 4.37007e-05)
(0.00136269 0 5.75611e-05)
(0.00132584 0 3.78563e-05)
(0.00128818 0 6.96497e-05)
(0.00124737 0 5.14275e-05)
(0.00120854 0 9.28074e-05)
(0.00115605 0 0.000108755)
(0.00109336 0 0.000107187)
(0.00100609 0 0.000176414)
(0.000944965 0 9.78084e-05)
(0.00082655 0 0.000308355)
(0.000804726 0 0.000439016)
(0.00058282 0 0.000439749)
(0.000572376 0 0.000437821)
(0.000479508 0 0.000507172)
(0.000365764 0 0.000397762)
(-0.000326011 0 -0.000245418)
(-0.000456086 0 -0.000355225)
(4.72178e-06 0 -0.000321673)
(-1.34245e-12 0 -1.64859e-13)
(-3.76997e-12 0 -4.19686e-13)
(-2.08005e-12 0 -2.78623e-13)
(-1.92552e-12 0 -1.84248e-13)
(-1.82991e-12 0 -1.41117e-13)
(-1.7489e-12 0 -1.32939e-13)
(-1.66214e-12 0 -1.44582e-13)
(-1.56072e-12 0 -1.65713e-13)
(-1.4417e-12 0 -1.89816e-13)
(-1.30537e-12 0 -2.12925e-13)
(-1.15382e-12 0 -2.3272e-13)
(-9.90114e-13 0 -2.47898e-13)
(-8.17835e-13 0 -2.57804e-13)
(-6.40772e-13 0 -2.62217e-13)
(-4.62698e-13 0 -2.6122e-13)
(-2.87222e-13 0 -2.55117e-13)
(-1.1768e-13 0 -2.4437e-13)
(4.2958e-14 0 -2.2955e-13)
(1.9214e-13 0 -2.11303e-13)
(3.27775e-13 0 -1.90312e-13)
(4.48239e-13 0 -1.67262e-13)
(5.52363e-13 0 -1.4281e-13)
(6.39412e-13 0 -1.17572e-13)
(7.09056e-13 0 -9.21097e-14)
(7.61325e-13 0 -6.69157e-14)
(7.9655e-13 0 -4.2406e-14)
(8.15321e-13 0 -1.89167e-14)
(8.18429e-13 0 3.288e-15)
(8.06833e-13 0 2.40045e-14)
(7.81618e-13 0 4.30795e-14)
(7.43948e-13 0 6.04047e-14)
(6.95034e-13 0 7.59151e-14)
(6.36106e-13 0 8.95851e-14)
(5.68396e-13 0 1.01422e-13)
(4.93137e-13 0 1.11454e-13)
(4.11553e-13 0 1.19719e-13)
(3.24851e-13 0 1.2625e-13)
(2.34202e-13 0 1.31058e-13)
(1.40678e-13 0 1.34103e-13)
(4.66609e-14 0 1.35219e-13)
(-2.78988e-05 0 -1.33103e-05)
(-2.1498e-05 0 0.000100752)
(-0.000186213 0 0.000193355)
(-0.000301097 0 0.000250028)
(-0.000431463 0 0.000376262)
(-0.000575577 0 0.000487835)
(-0.000707715 0 0.000489038)
(-0.000887252 0 0.000385397)
(-0.000972864 0 0.000363404)
(-0.00107874 0 0.000266696)
(-0.00112484 0 0.000282499)
(-0.00116723 0 0.000170624)
(-0.00118646 0 9.84188e-05)
(-0.00119784 0 8.85763e-05)
(-0.00119731 0 -1.2872e-05)
(-0.00118555 0 -1.99171e-05)
(-0.00119258 0 -5.61161e-05)
(-0.00119977 0 -7.41287e-05)
(-0.00117131 0 -0.00017037)
(-0.0010932 0 -0.000189118)
(-0.00101921 0 -0.00014343)
(-0.000933372 0 -0.000193829)
(-0.000838105 0 -0.000319003)
(-0.000648912 0 -0.000530899)
(-0.000646088 0 -0.000313249)
(-0.000422238 0 -0.000481683)
(-0.00057076 0 -3.7289e-05)
(1.31041e-05 0 -0.000531123)
(-8.62331e-05 0 -0.000357712)
(0.000169434 0 -0.000333936)
(0.000280373 0 -0.000254119)
(0.000429986 0 -0.00018252)
(0.000500693 0 -0.000278752)
(0.000653157 0 -0.000211079)
(0.000737928 0 -0.00017188)
(0.000791592 0 -0.000227708)
(0.000917341 0 -0.000141353)
(0.000998918 0 -9.7988e-05)
(0.000991812 0 -0.000103673)
(0.00100422 0 -9.89994e-05)
(0.00103892 0 -4.8256e-05)
(0.00106808 0 -9.29011e-05)
(0.00109807 0 -0.000103724)
(0.00112509 0 -0.000121867)
(0.00114905 0 -0.000154041)
(0.00118296 0 -0.000138452)
(0.00121581 0 -8.72379e-05)
(0.00124948 0 -6.70712e-05)
(0.00128503 0 -4.82018e-05)
(0.00128378 0 -5.02639e-05)
(0.00128157 0 -5.82715e-05)
(0.00128648 0 -5.91801e-05)
(0.00129931 0 -4.41418e-05)
(0.00131953 0 -3.31275e-05)
(0.00133891 0 -5.18463e-06)
(0.00134196 0 1.3836e-05)
(0.00134023 0 1.16599e-05)
(0.00133193 0 1.93576e-05)
(0.00131818 0 2.68251e-05)
(0.00130709 0 3.8199e-05)
(0.00129255 0 5.96698e-05)
(0.00127404 0 3.52805e-05)
(0.00124597 0 0.000102527)
(0.00122039 0 5.31805e-05)
(0.00118233 0 0.000154796)
(0.00114206 0 1.02807e-05)
(0.00109883 0 0.000172297)
(0.0010659 0 5.9643e-05)
(0.00101182 0 0.000152051)
(0.000969308 0 0.000208419)
(0.000939932 0 0.00016235)
(0.000836661 0 0.000389042)
(0.000873023 0 0.000434565)
(0.000869906 0 0.000535337)
(0.000807774 0 0.000536627)
(0.000796129 0 0.00036096)
(0.000459009 0 0.000474682)
(0.000483248 0 0.000262609)
(-8.34526e-05 0 -0.00021087)
(5.41193e-06 0 -0.000313833)
(-1.26585e-12 0 -1.16859e-12)
(-3.52967e-12 0 -8.19481e-13)
(-1.88473e-12 0 -4.21072e-13)
(-1.82693e-12 0 -2.52353e-13)
(-1.79663e-12 0 -1.96671e-13)
(-1.7533e-12 0 -1.99116e-13)
(-1.68575e-12 0 -2.29909e-13)
(-1.59208e-12 0 -2.72404e-13)
(-1.47392e-12 0 -3.17003e-13)
(-1.33442e-12 0 -3.58133e-13)
(-1.17738e-12 0 -3.926e-13)
(-1.00696e-12 0 -4.1865e-13)
(-8.27421e-13 0 -4.35437e-13)
(-6.43033e-13 0 -4.4274e-13)
(-4.57909e-13 0 -4.40791e-13)
(-2.75907e-13 0 -4.3016e-13)
(-1.00538e-13 0 -4.11668e-13)
(6.51046e-14 0 -3.86313e-13)
(2.184e-13 0 -3.55209e-13)
(3.57233e-13 0 -3.19528e-13)
(4.79995e-13 0 -2.8044e-13)
(5.85562e-13 0 -2.39068e-13)
(6.73266e-13 0 -1.96459e-13)
(7.42861e-13 0 -1.53555e-13)
(7.94478e-13 0 -1.11181e-13)
(8.28557e-13 0 -7.00291e-14)
(8.45781e-13 0 -3.06601e-14)
(8.4703e-13 0 6.48586e-15)
(8.33333e-13 0 4.10729e-14)
(8.05841e-13 0 7.28563e-14)
(7.65782e-13 0 1.01674e-13)
(7.14427e-13 0 1.27439e-13)
(6.53053e-13 0 1.50129e-13)
(5.82929e-13 0 1.69771e-13)
(5.05305e-13 0 1.86423e-13)
(4.21405e-13 0 2.00154e-13)
(3.32427e-13 0 2.11027e-13)
(2.39528e-13 0 2.19096e-13)
(1.43818e-13 0 2.24405e-13)
(4.76983e-14 0 2.27049e-13)
(-2.74921e-05 0 0.000104623)
(-0.000193901 0 0.000169866)
(-0.00026086 0 0.000277146)
(-0.000228468 0 0.000444649)
(-0.000672508 0 0.00026474)
(-0.000814529 0 0.00039423)
(-0.000903797 0 0.000402617)
(-0.000898352 0 0.000500647)
(-0.00101171 0 0.000368476)
(-0.00105721 0 0.000364839)
(-0.00109787 0 0.000302533)
(-0.00111318 0 0.000234227)
(-0.00115895 0 0.000119824)
(-0.00117385 0 8.41181e-05)
(-0.00113605 0 -7.00943e-05)
(-0.00111754 0 -8.83569e-05)
(-0.00111676 0 -9.78681e-05)
(-0.00111077 0 -0.000188178)
(-0.00112429 0 -0.000197628)
(-0.00112364 0 -0.000177447)
(-0.00100771 0 -0.00023008)
(-0.000925519 0 -0.000279754)
(-0.000849646 0 -0.000403391)
(-0.000654343 0 -0.000654326)
(-0.000820575 0 -0.000324567)
(-0.000326218 0 -0.000752273)
(-0.000368412 0 -0.000533787)
(-0.000337019 0 -0.000407185)
(-0.000141693 0 -0.000446997)
(9.93066e-05 0 -0.000465806)
(0.000110985 0 -0.00048463)
(0.000295478 0 -0.000419835)
(0.000390769 0 -0.000393036)
(0.000580473 0 -0.000231548)
(0.000629441 0 -0.000296289)
(0.00065546 0 -0.000405588)
(0.00080427 0 -0.000191223)
(0.000862928 0 -0.000122105)
(0.000884218 0 -0.000161988)
(0.000925945 0 -0.000100138)
(0.00096665 0 -7.16323e-05)
(0.000984224 0 -0.000174371)
(0.00101562 0 -0.000162911)
(0.00103342 0 -0.000155278)
(0.00105922 0 -0.000149283)
(0.00109722 0 -0.000122745)
(0.00110224 0 -9.88895e-05)
(0.00110832 0 -9.28416e-05)
(0.00112668 0 -0.000104197)
(0.00115112 0 -9.40647e-05)
(0.00116143 0 -5.98425e-05)
(0.00116429 0 -4.90825e-05)
(0.00116652 0 -4.5134e-05)
(0.00116993 0 -3.94071e-05)
(0.00117539 0 -4.92457e-05)
(0.0011851 0 -2.60893e-05)
(0.00119101 0 2.85344e-05)
(0.00119087 0 4.676e-05)
(0.00118779 0 3.67688e-05)
(0.00117561 0 8.30169e-05)
(0.00116154 0 5.54387e-05)
(0.00114916 0 9.23787e-05)
(0.00113836 0 9.19836e-05)
(0.0011231 0 8.2347e-05)
(0.00107763 0 0.000221083)
(0.00106196 0 4.11547e-05)
(0.000987855 0 0.000284617)
(0.000959479 0 0.000124766)
(0.000933689 0 0.000232153)
(0.000904399 0 0.000327845)
(0.000911733 0 0.000226748)
(0.000827436 0 0.000394669)
(0.000852046 0 0.000416226)
(0.000842979 0 0.000524289)
(0.000827665 0 0.000508331)
(0.000774691 0 0.000509513)
(0.000768263 0 0.000287413)
(0.000620224 0 0.000390659)
(0.00043212 0 -0.000213888)
(6.23585e-06 0 0.000353072)
(-1.05442e-12 0 -3.13809e-13)
(-2.47634e-12 0 -6.67429e-13)
(-1.51246e-12 0 -3.33959e-13)
(-1.70063e-12 0 -2.07604e-13)
(-1.7762e-12 0 -1.94278e-13)
(-1.78184e-12 0 -2.36958e-13)
(-1.73538e-12 0 -3.03691e-13)
(-1.64781e-12 0 -3.77213e-13)
(-1.52743e-12 0 -4.47891e-13)
(-1.38097e-12 0 -5.10239e-13)
(-1.21434e-12 0 -5.61139e-13)
(-1.03295e-12 0 -5.98905e-13)
(-8.41926e-13 0 -6.22797e-13)
(-6.46126e-13 0 -6.32766e-13)
(-4.50117e-13 0 -6.293e-13)
(-2.58099e-13 0 -6.13318e-13)
(-7.38323e-14 0 -5.86071e-13)
(9.94169e-14 0 -5.49045e-13)
(2.58925e-13 0 -5.03879e-13)
(4.02544e-13 0 -4.52285e-13)
(5.28698e-13 0 -3.95972e-13)
(6.36343e-13 0 -3.36568e-13)
(7.24925e-13 0 -2.75575e-13)
(7.94335e-13 0 -2.14335e-13)
(8.44851e-13 0 -1.54018e-13)
(8.77071e-13 0 -9.56022e-14)
(8.91836e-13 0 -3.98756e-14)
(8.90162e-13 0 1.25561e-14)
(8.73204e-13 0 6.12476e-14)
(8.42219e-13 0 1.05891e-13)
(7.98531e-13 0 1.46295e-13)
(7.43489e-13 0 1.8237e-13)
(6.78438e-13 0 2.14105e-13)
(6.04691e-13 0 2.41553e-13)
(5.2352e-13 0 2.64802e-13)
(4.36157e-13 0 2.83958e-13)
(3.43794e-13 0 2.99128e-13)
(2.4758e-13 0 3.10405e-13)
(1.48631e-13 0 3.17874e-13)
(4.93052e-14 0 3.21616e-13)
(-0.000236965 0 0.000224235)
(-0.000504337 0 0.000227985)
(-0.00059027 0 0.000210434)
(-0.000723781 0 0.000146576)
(-0.000410269 0 0.000755357)
(-0.000778846 0 0.000584528)
(-0.000776593 0 0.000704673)
(-0.000877505 0 0.000600701)
(-0.000948229 0 0.000481909)
(-0.00102703 0 0.000381655)
(-0.00105168 0 0.000328136)
(-0.00105911 0 0.000107005)
(-0.00103385 0 0.000169039)
(-0.00104808 0 0.000114858)
(-0.00105003 0 -0.000121123)
(-0.00104587 0 -4.17795e-05)
(-0.0010329 0 -5.0726e-05)
(-0.00102367 0 -0.000135948)
(-0.00102402 0 -0.000221722)
(-0.00102356 0 -0.000230802)
(-0.000923854 0 -0.000377343)
(-0.000848286 0 -0.000451847)
(-0.000826709 0 -0.000471371)
(-0.000793611 0 -0.000522261)
(-0.00076816 0 -0.000530328)
(-0.000149354 0 -0.000912708)
(-0.000316856 0 -0.000667719)
(-4.00366e-05 0 -0.000680314)
(-3.0236e-05 0 -0.000581737)
(0.000134388 0 -0.000512502)
(0.000201206 0 -0.00052196)
(0.000245803 0 -0.00054053)
(0.000288749 0 -0.000547194)
(0.000459049 0 -0.000411893)
(0.000512012 0 -0.000391572)
(0.000600332 0 -0.000333702)
(0.000656736 0 -0.000297254)
(0.000706707 0 -0.000172019)
(0.000734344 0 -0.000151065)
(0.000777319 0 -0.000171059)
(0.000832685 0 -0.000149617)
(0.000871803 0 -0.000154794)
(0.000907246 0 -0.00010882)
(0.000913226 0 -0.000178583)
(0.000935286 0 -0.000205313)
(0.000953613 0 -0.00014993)
(0.000953483 0 -0.000137721)
(0.000969035 0 -0.000120787)
(0.00100438 0 -8.6156e-05)
(0.00100801 0 -7.31906e-05)
(0.00100643 0 -6.92662e-05)
(0.00101065 0 -6.20066e-05)
(0.00102012 0 -4.80009e-05)
(0.00103286 0 -5.74318e-05)
(0.00104209 0 -1.43807e-05)
(0.00103902 0 -9.01116e-07)
(0.00103995 0 7.19989e-06)
(0.00105395 0 2.22934e-05)
(0.00107164 0 5.26635e-05)
(0.00107112 0 8.01252e-05)
(0.00106276 0 4.28333e-05)
(0.00103801 0 0.000127141)
(0.0010344 0 7.23035e-05)
(0.00101508 0 0.00014763)
(0.000993635 0 0.000118536)
(0.000962797 0 0.000143158)
(0.000915066 0 0.000250456)
(0.000901438 0 0.00011618)
(0.000841174 0 0.00028554)
(0.000830849 0 0.000336191)
(0.00081891 0 0.000333458)
(0.000794389 0 0.00039755)
(0.000791647 0 0.00043966)
(0.000815329 0 0.00044169)
(0.000777861 0 0.000513538)
(0.000752797 0 0.000518391)
(0.000625159 0 0.000553224)
(0.000603294 0 0.00041486)
(4.95862e-05 0 0.00023108)
(5.85151e-06 0 0.000471134)
(-9.36428e-13 0 1.12828e-12)
(-2.56674e-12 0 -1.88126e-13)
(-1.42442e-12 0 -3.97777e-14)
(-1.68675e-12 0 -4.98982e-14)
(-1.82551e-12 0 -1.35939e-13)
(-1.86243e-12 0 -2.50627e-13)
(-1.82598e-12 0 -3.70714e-13)
(-1.73628e-12 0 -4.84929e-13)
(-1.60695e-12 0 -5.87155e-13)
(-1.44767e-12 0 -6.73837e-13)
(-1.26605e-12 0 -7.42859e-13)
(-1.06862e-12 0 -7.93083e-13)
(-8.61283e-13 0 -8.24133e-13)
(-6.49535e-13 0 -8.36286e-13)
(-4.38461e-13 0 -8.30396e-13)
(-2.32679e-13 0 -8.07825e-13)
(-3.62656e-14 0 -7.70342e-13)
(1.47297e-13 0 -7.20006e-13)
(3.1516e-13 0 -6.59062e-13)
(4.6514e-13 0 -5.89837e-13)
(5.95712e-13 0 -5.1464e-13)
(7.0596e-13 0 -4.35661e-13)
(7.955e-13 0 -3.54902e-13)
(8.64418e-13 0 -2.74136e-13)
(9.13211e-13 0 -1.94886e-13)
(9.42699e-13 0 -1.18413e-13)
(9.5394e-13 0 -4.57156e-14)
(9.48153e-13 0 2.24543e-14)
(9.26668e-13 0 8.55632e-14)
(8.90889e-13 0 1.43262e-13)
(8.42261e-13 0 1.95353e-13)
(7.82237e-13 0 2.41762e-13)
(7.12236e-13 0 2.8251e-13)
(6.33626e-13 0 3.17691e-13)
(5.4771e-13 0 3.47442e-13)
(4.55731e-13 0 3.71922e-13)
(3.58874e-13 0 3.91289e-13)
(2.58274e-13 0 4.05683e-13)
(1.55029e-13 0 4.15223e-13)
(5.14398e-14 0 4.2e-13)
(-2.61863e-05 0 0.000415647)
(0.000114637 0 0.000562048)
(-0.000246828 0 0.000513628)
(-0.000245296 0 0.000727213)
(-0.00073191 0 0.000554262)
(-0.000775294 0 0.000633636)
(-0.00080035 0 0.000689328)
(-0.000846738 0 0.000639943)
(-0.000881033 0 0.000546651)
(-0.000925603 0 0.0004611)
(-0.000966035 0 0.000397238)
(-0.000983339 0 0.000153518)
(-0.000903889 0 8.91241e-05)
(-0.000894401 0 0.000103453)
(-0.000940723 0 -5.06732e-05)
(-0.000949032 0 -4.71306e-05)
(-0.000908335 0 -0.000110186)
(-0.000890732 0 -0.000140228)
(-0.000877722 0 -0.000246931)
(-0.000895693 0 -0.000237384)
(-0.000818959 0 -0.000407615)
(-0.000775389 0 -0.000450798)
(-0.000768586 0 -0.000539575)
(-0.000600377 0 -0.000739065)
(-0.000557496 0 -0.000775686)
(-0.000406578 0 -0.000857499)
(-0.000207755 0 -0.00087642)
(-6.19737e-05 0 -0.000805109)
(3.91747e-05 0 -0.000713999)
(0.000150472 0 -0.000590077)
(0.000237089 0 -0.00055968)
(0.000272127 0 -0.000582788)
(0.000286214 0 -0.000591327)
(0.000346349 0 -0.000547663)
(0.000461587 0 -0.000419209)
(0.000502961 0 -0.000373977)
(0.000554183 0 -0.000294855)
(0.000572133 0 -0.000246037)
(0.000596855 0 -0.000212945)
(0.0006562 0 -0.000148132)
(0.000694569 0 -0.000170655)
(0.00074133 0 -0.000159701)
(0.000760949 0 -0.000173392)
(0.000787632 0 -0.000182656)
(0.000818446 0 -0.000195254)
(0.000835339 0 -0.00016388)
(0.000838294 0 -0.000177988)
(0.000858366 0 -0.000141268)
(0.000870758 0 -9.59278e-05)
(0.000870665 0 -9.26181e-05)
(0.000876265 0 -8.76047e-05)
(0.000885854 0 -7.60683e-05)
(0.000894247 0 -7.21181e-05)
(0.000903021 0 -5.74218e-05)
(0.000906669 0 -3.9319e-05)
(0.000908742 0 -1.6276e-05)
(0.00091443 0 -5.2912e-07)
(0.0009238 0 8.68226e-06)
(0.000930163 0 3.33258e-05)
(0.000936349 0 8.82406e-05)
(0.00093263 0 9.36474e-05)
(0.000914039 0 0.000131834)
(0.00088997 0 0.000144205)
(0.000868705 0 0.000208715)
(0.00086135 0 0.000205122)
(0.000841664 0 0.000234292)
(0.000814318 0 0.000286419)
(0.000796239 0 0.00025936)
(0.000738582 0 0.000303095)
(0.000729386 0 0.000335531)
(0.000738989 0 0.000333375)
(0.00076697 0 0.00032616)
(0.000679599 0 0.000491077)
(0.000670541 0 0.000519543)
(0.000663131 0 0.000574347)
(0.000662391 0 0.000571014)
(0.000582465 0 0.000577028)
(0.000540955 0 0.000504002)
(3.56064e-05 0 0.000333109)
(7.20761e-06 0 0.000671834)
(-9.95032e-13 0 2.50357e-12)
(-2.00577e-12 0 4.71249e-13)
(-1.3737e-12 0 4.12921e-13)
(-1.79628e-12 0 1.83745e-13)
(-1.97645e-12 0 -4.88964e-14)
(-2.01636e-12 0 -2.58656e-13)
(-1.96966e-12 0 -4.43558e-13)
(-1.86426e-12 0 -6.04597e-13)
(-1.71633e-12 0 -7.41911e-13)
(-1.53667e-12 0 -8.5502e-13)
(-1.33358e-12 0 -9.43296e-13)
(-1.11423e-12 0 -1.00635e-12)
(-8.85129e-13 0 -1.04428e-12)
(-6.52389e-13 0 -1.05776e-12)
(-4.21657e-13 0 -1.0481e-12)
(-1.98044e-13 0 -1.0172e-12)
(1.39869e-14 0 -9.67431e-13)
(2.10697e-13 0 -9.01557e-13)
(3.89094e-13 0 -8.22529e-13)
(5.46967e-13 0 -7.33387e-13)
(6.82874e-13 0 -6.37121e-13)
(7.96081e-13 0 -5.36555e-13)
(8.8645e-13 0 -4.34244e-13)
(9.5435e-13 0 -3.32419e-13)
(1.00057e-12 0 -2.32966e-13)
(1.02624e-12 0 -1.37422e-13)
(1.0327e-12 0 -4.69762e-14)
(1.02144e-12 0 3.74952e-14)
(9.94011e-13 0 1.15397e-13)
(9.52009e-13 0 1.86367e-13)
(8.9703e-13 0 2.5023e-13)
(8.30646e-13 0 3.06957e-13)
(7.54367e-13 0 3.56631e-13)
(6.69623e-13 0 3.99413e-13)
(5.77751e-13 0 4.35513e-13)
(4.80003e-13 0 4.6516e-13)
(3.77554e-13 0 4.88578e-13)
(2.71515e-13 0 5.05966e-13)
(1.62948e-13 0 5.17486e-13)
(5.4082e-14 0 5.23254e-13)
(-0.00016255 0 0.000427109)
(-7.75357e-05 0 0.000632144)
(-0.000188682 0 0.000659547)
(-0.000301855 0 0.000794818)
(-0.000524307 0 0.000812384)
(-0.000629531 0 0.000812333)
(-0.000737192 0 0.000759956)
(-0.000762083 0 0.000723111)
(-0.000863103 0 0.000493284)
(-0.000817904 0 0.000475051)
(-0.000825739 0 0.000420309)
(-0.000895236 0 0.000193867)
(-0.000877293 0 6.1368e-05)
(-0.000853827 0 7.04425e-05)
(-0.000853291 0 8.83924e-06)
(-0.000851566 0 -6.11881e-05)
(-0.00081321 0 -0.000161774)
(-0.000773337 0 -0.000184488)
(-0.000751968 0 -0.000211319)
(-0.000751302 0 -0.000257532)
(-0.000677358 0 -0.000426296)
(-0.000448486 0 -0.000694272)
(-0.000747808 0 -0.000487354)
(-0.000369373 0 -0.000899754)
(-0.000234155 0 -0.000975874)
(-0.000292238 0 -0.000978491)
(-6.20918e-05 0 -0.00101086)
(4.75243e-05 0 -0.000894598)
(8.68661e-05 0 -0.000811041)
(0.00017679 0 -0.000678409)
(0.00022417 0 -0.000583956)
(0.000239279 0 -0.000612772)
(0.000283444 0 -0.000614012)
(0.000275592 0 -0.000596063)
(0.000374713 0 -0.000491323)
(0.000371901 0 -0.000456117)
(0.000447081 0 -0.000335097)
(0.000504123 0 -0.000226013)
(0.000505192 0 -0.000229526)
(0.000543124 0 -0.000221802)
(0.000559661 0 -0.000270783)
(0.000654257 0 -0.000144488)
(0.000636324 0 -0.000252211)
(0.000662932 0 -0.000243677)
(0.000703374 0 -0.000223738)
(0.000714475 0 -0.000233845)
(0.000740785 0 -0.000152119)
(0.000738954 0 -0.000143157)
(0.000737667 0 -0.000115397)
(0.000741278 0 -0.000104264)
(0.000751789 0 -7.78582e-05)
(0.000754937 0 -5.77381e-05)
(0.000756522 0 -5.2822e-05)
(0.000762767 0 -4.87575e-05)
(0.000767817 0 -3.97424e-05)
(0.000772319 0 -3.20413e-05)
(0.000778788 0 -1.14124e-05)
(0.000787957 0 1.13315e-05)
(0.000789256 0 3.56472e-05)
(0.000796503 0 5.74863e-05)
(0.000802739 0 9.05222e-05)
(0.000794978 0 0.0001052)
(0.000764081 0 0.000116371)
(0.000743864 0 0.000158764)
(0.000740553 0 0.000176793)
(0.000732134 0 0.000194277)
(0.000707852 0 0.00027128)
(0.000694383 0 0.000267806)
(0.00064697 0 0.000296713)
(0.000644395 0 0.000312331)
(0.000654758 0 0.000322243)
(0.00061047 0 0.000403735)
(0.000580363 0 0.000464164)
(0.000572374 0 0.000510985)
(0.000585346 0 0.000570293)
(0.000511027 0 0.00064727)
(0.000441334 0 0.000673194)
(0.00052828 0 0.000555141)
(-6.28899e-05 0 0.000461887)
(8.15015e-06 0 0.000968423)
(7.78612e-13 0 1.21323e-11)
(-1.85477e-12 0 2.25923e-12)
(-1.71133e-12 0 1.03669e-12)
(-2.14802e-12 0 4.2101e-13)
(-2.26743e-12 0 1.54633e-14)
(-2.25687e-12 0 -2.91163e-13)
(-2.17191e-12 0 -5.40089e-13)
(-2.03463e-12 0 -7.47839e-13)
(-1.85737e-12 0 -9.20734e-13)
(-1.64905e-12 0 -1.06089e-12)
(-1.41738e-12 0 -1.16879e-12)
(-1.1696e-12 0 -1.24458e-12)
(-9.12694e-13 0 -1.28869e-12)
(-6.5336e-13 0 -1.3022e-12)
(-3.97894e-13 0 -1.28688e-12)
(-1.52006e-13 0 -1.24527e-12)
(7.93738e-14 0 -1.1805e-12)
(2.92199e-13 0 -1.09616e-12)
(4.8333e-13 0 -9.96045e-13)
(6.50548e-13 0 -8.84042e-13)
(7.92544e-13 0 -7.63927e-13)
(9.08838e-13 0 -6.39234e-13)
(9.99636e-13 0 -5.1313e-13)
(1.0657e-12 0 -3.88341e-13)
(1.10821e-12 0 -2.67128e-13)
(1.12869e-12 0 -1.51291e-13)
(1.12886e-12 0 -4.21884e-14)
(1.11053e-12 0 5.92162e-14)
(1.07554e-12 0 1.52304e-13)
(1.02572e-12 0 2.3674e-13)
(9.62851e-13 0 3.12412e-13)
(8.88637e-13 0 3.79376e-13)
(8.04691e-13 0 4.37813e-13)
(7.12507e-13 0 4.87989e-13)
(6.13457e-13 0 5.30212e-13)
(5.08797e-13 0 5.64806e-13)
(3.99681e-13 0 5.9208e-13)
(2.87182e-13 0 6.12302e-13)
(1.72316e-13 0 6.25687e-13)
(5.72074e-14 0 6.32388e-13)
(-0.000272901 0 0.000514157)
(-0.000392094 0 0.000657887)
(-0.000455085 0 0.000738426)
(-0.000690984 0 0.000738829)
(-0.000803896 0 0.000742496)
(-0.000815448 0 0.000749625)
(-0.000655073 0 0.000836133)
(-0.000850634 0 0.000596763)
(-0.00074117 0 0.00057678)
(-0.000714641 0 0.000457589)
(-0.000700408 0 0.000346349)
(-0.000735367 0 0.000232345)
(-0.000793717 0 0.000122802)
(-0.000800143 0 7.00489e-05)
(-0.00077544 0 -8.48181e-05)
(-0.000761193 0 -0.000100052)
(-0.000763506 0 -9.01004e-05)
(-0.000694663 0 -0.000300141)
(-0.000658686 0 -0.000275653)
(-0.000622111 0 -0.000315761)
(-0.000627917 0 -0.000345549)
(-0.000459086 0 -0.000623166)
(-0.000547778 0 -0.000654215)
(-0.000384081 0 -0.000943985)
(-0.00011958 0 -0.00110988)
(-0.000113403 0 -0.00113266)
(4.01105e-05 0 -0.00107614)
(-2.2114e-05 0 -0.000977495)
(0.000161484 0 -0.000871576)
(0.000196538 0 -0.000737167)
(0.000234819 0 -0.000600099)
(0.000234287 0 -0.000617073)
(0.00026633 0 -0.000622351)
(0.000216855 0 -0.00062736)
(0.000315338 0 -0.000556204)
(0.000339061 0 -0.000467002)
(0.000367756 0 -0.000371014)
(0.000413979 0 -0.000285189)
(0.000426954 0 -0.000274195)
(0.000494116 0 -0.000206423)
(0.000464945 0 -0.000312379)
(0.00056602 0 -0.000165808)
(0.000535575 0 -0.000281688)
(0.000564572 0 -0.000272006)
(0.000611829 0 -0.000198689)
(0.000600299 0 -0.000202154)
(0.000606326 0 -0.000159851)
(0.000610717 0 -0.000137619)
(0.000609652 0 -0.00011976)
(0.000606954 0 -0.000100526)
(0.00060839 0 -9.59051e-05)
(0.000616774 0 -8.97979e-05)
(0.000622442 0 -0.000116423)
(0.000637845 0 -4.93632e-05)
(0.000637747 0 -3.11237e-05)
(0.000640634 0 -1.10201e-05)
(0.000651458 0 -4.42389e-05)
(0.000658164 0 2.34921e-05)
(0.000657652 0 5.16574e-05)
(0.000668285 0 6.01657e-05)
(0.000677923 0 0.000123519)
(0.000671469 0 0.000161016)
(0.000659535 0 0.000155851)
(0.000629587 0 0.000210628)
(0.000618993 0 0.000236436)
(0.000623863 0 0.000206931)
(0.000567606 0 0.000324063)
(0.000562371 0 0.000325041)
(0.000543533 0 0.000332499)
(0.000528891 0 0.000340542)
(0.00045055 0 0.000427689)
(0.000431137 0 0.00045393)
(0.00045185 0 0.000463242)
(0.000481922 0 0.000491175)
(0.000423038 0 0.000622335)
(0.000433897 0 0.000658452)
(0.000409194 0 0.000673946)
(0.00040993 0 0.000666847)
(8.39492e-05 0 0.000596483)
(0.000104403 0 0.0010664)
(4.31122e-08 0 1.44504e-07)
(-5.54905e-12 0 3.5265e-12)
(-3.21125e-12 0 1.11234e-12)
(-2.81694e-12 0 4.48312e-13)
(-2.68816e-12 0 -1.88781e-14)
(-2.57173e-12 0 -3.80996e-13)
(-2.42634e-12 0 -6.77579e-13)
(-2.2449e-12 0 -9.25726e-13)
(-2.02939e-12 0 -1.13212e-12)
(-1.78473e-12 0 -1.29887e-12)
(-1.51728e-12 0 -1.42628e-12)
(-1.23412e-12 0 -1.51435e-12)
(-9.42743e-13 0 -1.56356e-12)
(-6.50579e-13 0 -1.57526e-12)
(-3.64733e-13 0 -1.55176e-12)
(-9.1665e-14 0 -1.49632e-12)
(1.63102e-13 0 -1.41299e-12)
(3.95156e-13 0 -1.30637e-12)
(6.01209e-13 0 -1.18133e-12)
(7.79084e-13 0 -1.04274e-12)
(9.27682e-13 0 -8.95297e-13)
(1.04688e-12 0 -7.43346e-13)
(1.13734e-12 0 -5.90725e-13)
(1.20035e-12 0 -4.40692e-13)
(1.23762e-12 0 -2.9589e-13)
(1.25118e-12 0 -1.58363e-13)
(1.24321e-12 0 -2.96028e-14)
(1.21593e-12 0 8.93892e-14)
(1.17154e-12 0 1.98027e-13)
(1.11212e-12 0 2.96057e-13)
(1.03967e-12 0 3.83485e-13)
(9.56048e-13 0 4.60506e-13)
(8.6298e-13 0 5.27445e-13)
(7.62022e-13 0 5.84708e-13)
(6.54569e-13 0 6.32738e-13)
(5.41871e-13 0 6.7198e-13)
(4.25049e-13 0 7.02846e-13)
(3.05122e-13 0 7.25691e-13)
(1.83035e-13 0 7.40795e-13)
(6.0783e-14 0 7.48354e-13)
(-0.000157639 0 0.00074693)
(-3.2876e-05 0 0.000885241)
(-0.000312778 0 0.000968867)
(-0.000331029 0 0.0010672)
(-0.0003295 0 0.00108369)
(-0.000282503 0 0.00107975)
(-0.00063039 0 0.00086026)
(-0.000552062 0 0.000822973)
(-0.000596156 0 0.000652131)
(-0.000697665 0 0.000391129)
(-0.000634702 0 0.000349026)
(-0.000626565 0 0.000288155)
(-0.000679873 0 0.000144786)
(-0.000701322 0 0.000103605)
(-0.000707666 0 -2.54947e-06)
(-0.000688027 0 -8.84733e-05)
(-0.000639437 0 -0.000260375)
(-0.000671296 0 -0.000186045)
(-0.000553056 0 -0.000394808)
(-0.000506711 0 -0.000422896)
(-0.000523152 0 -0.000426036)
(-0.000439447 0 -0.000623384)
(-0.000210866 0 -0.000845518)
(-0.000382185 0 -0.00100138)
(-9.55938e-05 0 -0.0012298)
(-7.95749e-05 0 -0.0012358)
(-6.46846e-05 0 -0.00114176)
(0.000105011 0 -0.00107904)
(0.000137453 0 -0.000946575)
(0.000191788 0 -0.000774153)
(0.00025439 0 -0.000618055)
(0.000255262 0 -0.000609873)
(0.000253357 0 -0.000624091)
(0.000188378 0 -0.000641773)
(0.000300111 0 -0.000572574)
(0.000252495 0 -0.000510109)
(0.000297023 0 -0.000417583)
(0.000363192 0 -0.000306751)
(0.000375949 0 -0.00029177)
(0.000396029 0 -0.000283577)
(0.000428442 0 -0.000264458)
(0.000422553 0 -0.000296532)
(0.000446509 0 -0.000271175)
(0.00047613 0 -0.000234875)
(0.000482518 0 -0.000223872)
(0.000467116 0 -0.000239536)
(0.000475454 0 -0.000185813)
(0.000477837 0 -0.000139999)
(0.000477028 0 -0.00010429)
(0.000479938 0 -9.63726e-05)
(0.000489006 0 -9.26108e-05)
(0.000513218 0 -6.96724e-05)
(0.000512312 0 -6.58383e-05)
(0.000508312 0 -6.05807e-05)
(0.00051224 0 -5.92373e-05)
(0.000518027 0 -7.50722e-05)
(0.000532035 0 -1.77124e-06)
(0.000531729 0 -7.97472e-06)
(0.000534423 0 -7.09371e-06)
(0.00053852 0 4.50909e-05)
(0.00054285 0 9.43544e-05)
(0.000557915 0 0.000149156)
(0.000558567 0 0.000173113)
(0.000550747 0 0.000180472)
(0.000519887 0 0.000242336)
(0.000491577 0 0.000282505)
(0.000480483 0 0.000306934)