/*--------------------------------*- C++ -*----------------------------------*\
  =========                 |
  \\      /  F ield         | OpenFOAM: The Open Source CFD Toolbox
   \\    /   O peration     | Website:  https://openfoam.org
    \\  /    A nd           | Version:  6
     \\/     M anipulation  |
\*---------------------------------------------------------------------------*/
FoamFile
{
    version     2.0;
    format      ascii;
    class       volScalarField;
    location    "5000";
    object      dmdt;
}
// * * * * * * * * * * * * * * * * * * * * * * * * * * * * * * * * * * * * * //

dimensions      [0 0 0 0 0 0 0];

internalField   nonuniform List<scalar> 
4800
(
-0.218986
-0.215785
-0.212605
-0.209449
-0.206315
-0.203204
-0.200102
-0.197002
-0.193902
-0.190789
-0.187646
-0.184469
-0.18126
-0.178035
-0.174817
-0.171626
-0.168476
-0.165383
-0.162361
-0.159429
-0.156605
-0.153908
-0.151353
-0.148957
-0.146736
-0.14468
-0.142797
-0.141083
-0.139536
-0.138133
-0.136871
-0.135749
-0.134741
-0.133831
-0.13301
-0.132279
-0.131623
-0.131036
-0.13051
-0.130041
-0.129621
-0.129241
-0.128895
-0.128578
-0.128282
-0.128
-0.127727
-0.12746
-0.127197
-0.126936
-0.126676
-0.126416
-0.126155
-0.125892
-0.125627
-0.125357
-0.125081
-0.124798
-0.124504
-0.124197
-0.12387
-0.123519
-0.123136
-0.122711
-0.122228
-0.121668
-0.121
-0.120179
-0.119142
-0.117809
-0.116076
-0.113821
-0.110915
-0.10724
-0.102705
-0.0973555
-0.0913108
-0.0846732
-0.0775414
-0.0700113
-0.0621787
-0.0541418
-0.0459844
-0.0377542
-0.0294789
-0.0211425
-0.0126711
-0.0033687
-0.00142319
0.00130611
0.00418602
0.00719438
0.0103222
0.0135614
0.0169018
0.0203312
0.0238369
0.0274064
0.0310279
0.0346905
0.0383843
0.0421007
0.045832
0.0495718
0.0533144
0.0570556
0.0607917
0.06452
0.0682387
0.0719466
0.0756429
0.0793276
0.0830011
0.0866639
0.090317
0.0939616
0.097599
0.101231
0.104858
0.108483
-0.218959
-0.215704
-0.212473
-0.209273
-0.206099
-0.202942
-0.199797
-0.196653
-0.193507
-0.190351
-0.187174
-0.183975
-0.180757
-0.17753
-0.174308
-0.171109
-0.167946
-0.164836
-0.161794
-0.158842
-0.155995
-0.153272
-0.150685
-0.148246
-0.145996
-0.143907
-0.141996
-0.140253
-0.138699
-0.137296
-0.136034
-0.134932
-0.133954
-0.133072
-0.132272
-0.131572
-0.13095
-0.130397
-0.129909
-0.129476
-0.12909
-0.128742
-0.128425
-0.128137
-0.12787
-0.127613
-0.127363
-0.127117
-0.126872
-0.126627
-0.126382
-0.126137
-0.125889
-0.125639
-0.125384
-0.125124
-0.124858
-0.124583
-0.124296
-0.123995
-0.123674
-0.123329
-0.122952
-0.122533
-0.122059
-0.12151
-0.120856
-0.120056
-0.119053
-0.117769
-0.116102
-0.113938
-0.111157
-0.107643
-0.10334
-0.0982462
-0.092356
-0.0857522
-0.0785729
-0.0709717
-0.0630774
-0.0549875
-0.0467637
-0.0384488
-0.0300618
-0.0215979
-0.0130118
-0.0036406
-0.00162338
0.00114772
0.00406222
0.00709297
0.0102404
0.0134988
0.016857
0.0203021
0.0238209
0.0274008
0.0310303
0.0346989
0.038397
0.0421164
0.0458496
0.0495903
0.0533333
0.0570743
0.0608098
0.0645373
0.0682549
0.0719615
0.0756565
0.0793398
0.0830118
0.0866732
0.0903249
0.093968
0.097604
0.101234
0.10486
0.108484
-0.218913
-0.215567
-0.212246
-0.20896
-0.205699
-0.202453
-0.199221
-0.195993
-0.192761
-0.189527
-0.186291
-0.183049
-0.179804
-0.176559
-0.173315
-0.170085
-0.166885
-0.163737
-0.160651
-0.157653
-0.154758
-0.151985
-0.149341
-0.146834
-0.144528
-0.142386
-0.140431
-0.138643
-0.137076
-0.135669
-0.13442
-0.133355
-0.132428
-0.131602
-0.130856
-0.130216
-0.129658
-0.129167
-0.128743
-0.128375
-0.128054
-0.127767
-0.127507
-0.127276
-0.12706
-0.126851
-0.126644
-0.126437
-0.126226
-0.126012
-0.125796
-0.125579
-0.125357
-0.125129
-0.124896
-0.124655
-0.124406
-0.124146
-0.123872
-0.123582
-0.123271
-0.122933
-0.122563
-0.122151
-0.121686
-0.12115
-0.120515
-0.119743
-0.118783
-0.117563
-0.115994
-0.113969
-0.111366
-0.108083
-0.104049
-0.0991943
-0.0935041
-0.087082
-0.080047
-0.0725354
-0.064645
-0.0564874
-0.0481728
-0.0397355
-0.0311683
-0.0225176
-0.0139929
-0.00636416
-0.00230104
0.000828513
0.00382114
0.0068899
0.0100759
0.013374
0.0167693
0.0202463
0.0237913
0.0273919
0.0310372
0.0347174
0.0384239
0.0421488
0.0458854
0.0496279
0.0533714
0.0571119
0.0608461
0.0645718
0.0682872
0.0719913
0.0756837
0.0793642
0.0830333
0.0866918
0.0903406
0.0939808
0.0976139
0.101241
0.104865
0.108485
-0.218855
-0.215392
-0.211949
-0.20853
-0.205134
-0.201755
-0.198392
-0.19504
-0.191701
-0.188377
-0.185067
-0.181763
-0.178463
-0.175166
-0.171871
-0.168588
-0.165329
-0.162124
-0.158983
-0.155925
-0.152963
-0.150136
-0.147419
-0.144842
-0.142467
-0.140263
-0.138262
-0.136429
-0.134837
-0.133423
-0.132196
-0.13118
-0.130319
-0.129559
-0.128887
-0.128322
-0.127847
-0.127441
-0.127101
-0.126817
-0.126583
-0.126377
-0.126195
-0.126038
-0.125892
-0.125746
-0.125597
-0.125444
-0.125282
-0.125111
-0.124937
-0.124756
-0.124569
-0.124374
-0.12417
-0.123957
-0.123732
-0.123492
-0.123235
-0.122958
-0.122658
-0.122327
-0.121965
-0.121558
-0.121103
-0.120579
-0.119963
-0.119221
-0.118306
-0.117153
-0.115689
-0.113814
-0.111415
-0.108393
-0.104632
-0.100068
-0.0946848
-0.088528
-0.0816698
-0.0742546
-0.0664114
-0.0582804
-0.0499476
-0.0413955
-0.032592
-0.0235097
-0.0141776
-0.00525958
-0.00208185
0.000614898
0.00349353
0.00657954
0.00982469
0.0131883
0.0166427
0.0201689
0.023753
0.0273837
0.0310518
0.0347486
0.0384667
0.0421994
0.0459407
0.0496855
0.0534294
0.0571688
0.060901
0.0646238
0.0683358
0.0720361
0.0757244
0.0794007
0.0830656
0.0867197
0.0903641
0.094
0.0976288
0.101252
0.104871
0.108488
-0.218777
-0.215158
-0.211555
-0.207965
-0.204393
-0.200845
-0.197323
-0.193831
-0.190372
-0.186943
-0.183543
-0.180156
-0.17678
-0.173409
-0.170044
-0.166695
-0.163372
-0.160101
-0.156897
-0.153781
-0.150758
-0.147878
-0.145099
-0.142459
-0.140015
-0.137748
-0.13569
-0.133822
-0.132194
-0.130775
-0.129567
-0.128591
-0.127795
-0.12711
-0.126516
-0.126039
-0.125657
-0.125343
-0.125093
-0.124902
-0.124764
-0.12465
-0.124558
-0.124483
-0.124415
-0.12434
-0.124261
-0.124172
-0.124069
-0.123952
-0.123828
-0.123694
-0.123548
-0.123392
-0.123225
-0.123044
-0.122848
-0.122633
-0.122394
-0.122131
-0.12184
-0.121515
-0.121157
-0.120752
-0.120303
-0.119789
-0.11919
-0.118476
-0.117607
-0.116519
-0.115146
-0.113408
-0.111196
-0.108404
-0.104939
-0.100701
-0.0956392
-0.0897732
-0.0831649
-0.0759507
-0.0682375
-0.0601867
-0.0518656
-0.04325
-0.0343024
-0.0248094
-0.0140321
0.000528838
-0.00145158
0.00017322
0.00293876
0.00611521
0.00947816
0.0129466
0.016486
0.0200787
0.0237137
0.0273828
0.0310791
0.0347963
0.0385285
0.0422704
0.046017
0.049764
0.0535079
0.0572456
0.0609747
0.0646935
0.0684008
0.0720959
0.0757787
0.0794493
0.0831084
0.0867567
0.0903953
0.0940255
0.0976486
0.101266
0.104879
0.10849
-0.218681
-0.214864
-0.211056
-0.207266
-0.203501
-0.199771
-0.19608
-0.192437
-0.188845
-0.1853
-0.181796
-0.178314
-0.17485
-0.1714
-0.167962
-0.164545
-0.161156
-0.157824
-0.154565
-0.151399
-0.148329
-0.145393
-0.142572
-0.139884
-0.137383
-0.135073
-0.132955
-0.131047
-0.129372
-0.127935
-0.126743
-0.125798
-0.125049
-0.124432
-0.123913
-0.123513
-0.123223
-0.122998
-0.122836
-0.122739
-0.122696
-0.122671
-0.122671
-0.122678
-0.122687
-0.122684
-0.122677
-0.12266
-0.12262
-0.122563
-0.122496
-0.122413
-0.122315
-0.122204
-0.122079
-0.121935
-0.121772
-0.121582
-0.121362
-0.121112
-0.120827
-0.120505
-0.120145
-0.119736
-0.119288
-0.118776
-0.118189
-0.117499
-0.116668
-0.115639
-0.114357
-0.112743
-0.110702
-0.108134
-0.104939
-0.10104
-0.0963585
-0.0908641
-0.0845707
-0.0775889
-0.0700243
-0.0620762
-0.0537901
-0.0451858
-0.0362942
-0.027139
-0.0177787
-0.00873847
-0.0048347
-0.00147917
0.00194775
0.00546806
0.00904855
0.0126682
0.0163171
0.0199903
0.0236849
0.0273978
0.0311259
0.0348655
0.0386129
0.0423643
0.0461161
0.0498649
0.0536079
0.0573428
0.0610676
0.064781
0.0684822
0.0721706
0.0758464
0.0795099
0.0831617
0.0868028
0.0904342
0.0940571
0.0976731
0.101283
0.10489
0.108494
-0.218572
-0.214536
-0.210508
-0.206498
-0.202522
-0.198594
-0.194722
-0.190918
-0.187194
-0.183535
-0.179929
-0.176351
-0.172793
-0.169262
-0.165762
-0.162293
-0.158856
-0.155471
-0.15216
-0.148946
-0.145841
-0.142864
-0.140024
-0.137334
-0.134802
-0.132472
-0.130302
-0.128352
-0.126618
-0.125134
-0.12392
-0.122977
-0.122253
-0.121684
-0.121226
-0.120884
-0.120667
-0.120519
-0.120431
-0.120422
-0.120465
-0.120526
-0.120608
-0.120691
-0.120768
-0.120831
-0.120894
-0.120944
-0.120969
-0.120974
-0.120966
-0.120939
-0.120892
-0.120829
-0.120749
-0.120644
-0.120516
-0.12035
-0.120148
-0.119909
-0.119624
-0.119302
-0.118939
-0.118521
-0.118065
-0.117548
-0.116965
-0.116289
-0.115486
-0.114507
-0.113304
-0.111803
-0.109913
-0.107542
-0.104595
-0.100973
-0.0966184
-0.0914734
-0.0855293
-0.0788526
-0.0715159
-0.0636927
-0.0554261
-0.0468615
-0.0381125
-0.0293621
-0.0209066
-0.0132749
-0.0077668
-0.00325436
0.000846926
0.00476881
0.00860418
0.0123953
0.0161643
0.0199237
0.0236808
0.027439
0.0311995
0.0349616
0.0387238
0.0424841
0.04624
0.0499895
0.0537304
0.057461
0.0611801
0.0648865
0.06858
0.0722603
0.0759275
0.0795823
0.0832254
0.0868577
0.0904804
0.0940948
0.0977023
0.101304
0.104902
0.108498
-0.218456
-0.214184
-0.209918
-0.205676
-0.201477
-0.197348
-0.193304
-0.18935
-0.185488
-0.181713
-0.178011
-0.174351
-0.170722
-0.167125
-0.163568
-0.160053
-0.156579
-0.153159
-0.149821
-0.146604
-0.143534
-0.14059
-0.137772
-0.135111
-0.132568
-0.130225
-0.127999
-0.125985
-0.124166
-0.122595
-0.121305
-0.120307
-0.119554
-0.118993
-0.118567
-0.118263
-0.11809
-0.117995
-0.117962
-0.118029
-0.118145
-0.11828
-0.11843
-0.118577
-0.118709
-0.118833
-0.118961
-0.119071
-0.119155
-0.11922
-0.119271
-0.119298
-0.1193
-0.119284
-0.119249
-0.119183
-0.119088
-0.118945
-0.118755
-0.118524
-0.118235
-0.117906
-0.117536
-0.117108
-0.116639
-0.116111
-0.115524
-0.114852
-0.114065
-0.113124
-0.111983
-0.110577
-0.108819
-0.106623
-0.103889
-0.100523
-0.0964396
-0.0915855
-0.0859557
-0.0795425
-0.0723998
-0.0646632
-0.0564514
-0.0480054
-0.039458
-0.031029
-0.0229869
-0.0157403
-0.00974595
-0.00464024
-7.53562e-05
0.00417212
0.00823229
0.0121805
0.0160613
0.0199015
0.0237171
0.0275176
0.0313078
0.0350902
0.0388653
0.0426326
0.0463909
0.0501392
0.0538762
0.0576008
0.0613123
0.0650102
0.0686942
0.0723646
0.0760218
0.0796663
0.0832992
0.0869213
0.0905339
0.0941384
0.097736
0.101328
0.104917
0.108503
-0.218333
-0.213815
-0.209308
-0.204841
-0.200441
-0.196122
-0.1919
-0.187791
-0.183792
-0.179898
-0.176102
-0.172375
-0.168689
-0.16504
-0.161439
-0.157897
-0.154431
-0.151053
-0.147771
-0.144606
-0.141596
-0.13871
-0.135932
-0.1333
-0.130764
-0.128404
-0.126135
-0.124048
-0.122129
-0.120436
-0.119021
-0.117913
-0.117083
-0.11647
-0.116026
-0.115722
-0.115563
-0.115498
-0.115501
-0.115623
-0.115789
-0.115983
-0.116188
-0.116383
-0.116564
-0.116742
-0.116924
-0.117083
-0.117218
-0.117336
-0.11744
-0.117515
-0.117564
-0.117588
-0.117591
-0.11756
-0.117491
-0.117368
-0.117184
-0.116952
-0.116658
-0.116315
-0.115929
-0.115492
-0.115006
-0.114463
-0.113867
-0.113193
-0.112414
-0.1115
-0.110402
-0.109067
-0.107409
-0.105353
-0.102799
-0.0996494
-0.0958075
-0.091195
-0.0857864
-0.0795914
-0.07267
-0.0650924
-0.057009
-0.048618
-0.0401274
-0.0318258
-0.024003
-0.0169586
-0.0108405
-0.00548183
-0.000665946
0.00378716
0.00800465
0.0120706
0.0160392
0.0199446
0.0238083
0.0276436
0.0314582
0.0352567
0.0390411
0.0428123
0.0465705
0.0503152
0.054046
0.0577625
0.0614645
0.0651518
0.0688247
0.0724835
0.0761289
0.0797617
0.0833827
0.0869932
0.0905944
0.0941876
0.0977741
0.101355
0.104933
0.108508
-0.218204
-0.213438
-0.208702
-0.204025
-0.199438
-0.194962
-0.190603
-0.186364
-0.182241
-0.178231
-0.174336
-0.17053
-0.166787
-0.163105
-0.159498
-0.155987
-0.152583
-0.149294
-0.146113
-0.143039
-0.140105
-0.137291
-0.13457
-0.131961
-0.129443
-0.127058
-0.124751
-0.12258
-0.120546
-0.118706
-0.117122
-0.115849
-0.114887
-0.114177
-0.113665
-0.113319
-0.113137
-0.11308
-0.113103
-0.113246
-0.113442
-0.113678
-0.113923
-0.114154
-0.114374
-0.114596
-0.114817
-0.115014
-0.115189
-0.115351
-0.115495
-0.115613
-0.115699
-0.115757
-0.115787
-0.115778
-0.115727
-0.115613
-0.115431
-0.11519
-0.114884
-0.114522
-0.114116
-0.113662
-0.113158
-0.112598
-0.111988
-0.111307
-0.11053
-0.109637
-0.108574
-0.107293
-0.105712
-0.103761
-0.101328
-0.0983218
-0.0946632
-0.0902594
-0.0850617
-0.0790614
-0.0722908
-0.0648316
-0.05681
-0.0484219
-0.0399822
-0.0318046
-0.0241394
-0.0172312
-0.0111564
-0.00575969
-0.000867986
0.00366895
0.00796413
0.0120967
0.0161199
0.0200686
0.0239655
0.0278251
0.0316564
0.035465
0.0392541
0.0430254
0.04678
0.0505182
0.0542402
0.0579463
0.0616365
0.0653113
0.0689711
0.0726166
0.0762485
0.0798679
0.0834757
0.0870732
0.0906616
0.0942421
0.0978163
0.101385
0.104951
0.108514
-0.218071
-0.21305
-0.208089
-0.203225
-0.198483
-0.19388
-0.189416
-0.185085
-0.180873
-0.176776
-0.1728
-0.168929
-0.165151
-0.161472
-0.157905
-0.154467
-0.151162
-0.147986
-0.14492
-0.141959
-0.139109
-0.136361
-0.133696
-0.131107
-0.128597
-0.126172
-0.123808
-0.121531
-0.11936
-0.117349
-0.115579
-0.114117
-0.11298
-0.112128
-0.111507
-0.111085
-0.110849
-0.110771
-0.110794
-0.110933
-0.11114
-0.111399
-0.111668
-0.111923
-0.112172
-0.112422
-0.112668
-0.112892
-0.113095
-0.113287
-0.113459
-0.113607
-0.113722
-0.1138
-0.113842
-0.113842
-0.113794
-0.11368
-0.113491
-0.113233
-0.112906
-0.112519
-0.112086
-0.111611
-0.111086
-0.110508
-0.109883
-0.109194
-0.108416
-0.107527
-0.106491
-0.105259
-0.103739
-0.101872
-0.0995472
-0.0966637
-0.0931391
-0.0888732
-0.0837989
-0.0779008
-0.0711981
-0.0637544
-0.055727
-0.0473505
-0.0389503
-0.0308392
-0.0233257
-0.016639
-0.0107624
-0.00550136
-0.000682272
0.00382787
0.00812378
0.0122709
0.0163136
0.0202817
0.0241951
0.028067
0.0319061
0.0357179
0.0395062
0.0432731
0.0470203
0.0507487
0.054459
0.058152
0.0618281
0.0654882
0.069133
0.0727633
0.0763801
0.0799845
0.0835777
0.0871607
0.090735
0.0943017
0.0978623
0.101418
0.10497
0.108521
-0.217937
-0.212667
-0.207498
-0.202471
-0.197605
-0.192909
-0.188365
-0.183969
-0.179714
-0.17558
-0.171565
-0.167671
-0.163901
-0.160265
-0.156769
-0.153421
-0.150225
-0.147169
-0.144225
-0.141378
-0.138606
-0.135907
-0.133283
-0.130716
-0.128192
-0.125706
-0.123249
-0.120843
-0.118517
-0.116325
-0.114354
-0.11269
-0.111363
-0.110339
-0.109575
-0.109045
-0.108723
-0.108589
-0.108588
-0.108705
-0.108905
-0.109165
-0.109443
-0.109712
-0.109981
-0.110244
-0.110499
-0.110734
-0.110952
-0.11116
-0.111345
-0.111507
-0.111637
-0.11172
-0.111763
-0.111757
-0.111696
-0.111566
-0.111356
-0.111073
-0.110716
-0.110297
-0.109832
-0.10933
-0.10878
-0.108184
-0.107543
-0.106844
-0.106073
-0.105181
-0.104162
-0.102972
-0.101498
-0.0996737
-0.0973992
-0.094575
-0.0911359
-0.0869633
-0.0819693
-0.0761436
-0.0695046
-0.0621026
-0.0540758
-0.0456391
-0.0371486
-0.0289764
-0.021546
-0.0152008
-0.00971575
-0.00476499
-0.000151086
0.00423839
0.00847031
0.0125875
0.0166188
0.0205845
0.0244985
0.0283709
0.0322086
0.0360166
0.0397982
0.0435559
0.0472916
0.0510066
0.0547021
0.0583791
0.0620388
0.0656819
0.0693096
0.0729229
0.076523
0.0801109
0.083688
0.0872553
0.0908143
0.0943661
0.097912
0.101453
0.104992
0.108528
-0.217847
-0.212385
-0.207014
-0.201804
-0.196801
-0.192011
-0.187416
-0.182996
-0.178732
-0.174605
-0.170607
-0.16675
-0.163043
-0.159491
-0.156096
-0.152862
-0.149786
-0.14685
-0.144023
-0.141273
-0.138571
-0.135907
-0.133284
-0.130696
-0.128118
-0.125544
-0.122966
-0.120412
-0.117922
-0.115546
-0.113366
-0.111483
-0.109954
-0.108754
-0.107841
-0.107187
-0.106764
-0.106549
-0.106498
-0.106576
-0.106747
-0.106991
-0.107263
-0.107539
-0.107815
-0.108077
-0.108323
-0.108555
-0.108772
-0.108978
-0.109163
-0.109326
-0.10945
-0.10952
-0.109546
-0.109522
-0.109436
-0.109278
-0.109033
-0.10871
-0.108315
-0.107852
-0.10735
-0.106813
-0.106242
-0.105628
-0.104971
-0.104263
-0.103494
-0.102616
-0.101605
-0.100445
-0.0989906
-0.0971982
-0.0949733
-0.0921989
-0.0888026
-0.0846708
-0.0797183
-0.0739314
-0.0673285
-0.0599694
-0.0519734
-0.0434557
-0.0346887
-0.0261352
-0.018528
-0.012866
-0.00809645
-0.00365417
0.000642097
0.00484421
0.00896915
0.0130265
0.0170247
0.0209712
0.024873
0.0287356
0.0325636
0.0363607
0.0401298
0.0438734
0.0475933
0.0512912
0.0549687
0.058627
0.0622676
0.0658916
0.0695002
0.0730947
0.0766764
0.0802464
0.083806
0.0873564
0.0908989
0.0944346
0.0979649
0.101491
0.105014
0.108535
-0.217732
-0.212064
-0.20654
-0.201221
-0.196133
-0.191275
-0.186637
-0.182201
-0.177947
-0.173864
-0.169942
-0.166181
-0.162585
-0.159153
-0.155886
-0.152781
-0.149823
-0.146987
-0.144241
-0.141549
-0.138896
-0.136275
-0.133653
-0.131019
-0.128342
-0.125623
-0.122884
-0.120154
-0.11748
-0.114912
-0.112529
-0.110437
-0.108706
-0.107327
-0.106262
-0.105479
-0.104949
-0.104644
-0.104528
-0.104551
-0.104677
-0.104886
-0.105141
-0.105412
-0.105677
-0.105926
-0.10615
-0.106364
-0.106564
-0.106752
-0.106919
-0.107061
-0.107159
-0.107207
-0.1072
-0.107139
-0.107012
-0.106813
-0.106526
-0.106159
-0.105716
-0.105205
-0.104651
-0.104075
-0.103479
-0.102846
-0.102173
-0.101454
-0.10068
-0.0998237
-0.098834
-0.0977029
-0.0962726
-0.0944879
-0.0922506
-0.0894715
-0.0860948
-0.082003
-0.0770962
-0.0713503
-0.0647711
-0.057411
-0.049373
-0.0407154
-0.0315415
-0.0220945
-0.0133473
-0.00960214
-0.00611134
-0.00235959
0.00156696
0.0055645
0.00957212
0.0135598
0.0175147
0.0214325
0.025313
0.0291577
0.0329688
0.0367488
0.0405
0.0442245
0.0479244
0.0516016
0.0552577
0.0588945
0.0625134
0.066116
0.0697036
0.0732776
0.0768393
0.08039
0.0839309
0.0874632
0.0909882
0.0945069
0.0980207
0.101531
0.105038
0.108543
-0.217638
-0.2118
-0.206135
-0.200702
-0.195536
-0.190647
-0.186014
-0.181609
-0.177408
-0.173407
-0.169597
-0.165968
-0.162511
-0.159216
-0.15608
-0.153103
-0.150261
-0.14752
-0.144847
-0.14221
-0.139573
-0.136928
-0.134267
-0.131555
-0.128756
-0.12587
-0.122932
-0.119994
-0.117114
-0.114352
-0.11178
-0.109495
-0.107575
-0.106023
-0.10481
-0.103902
-0.103264
-0.102868
-0.102678
-0.10263
-0.102701
-0.102859
-0.103079
-0.103329
-0.103568
-0.103789
-0.103987
-0.104168
-0.104334
-0.104484
-0.104612
-0.104714
-0.104772
-0.104787
-0.104739
-0.104625
-0.104439
-0.10418
-0.103842
-0.103423
-0.102928
-0.102366
-0.101759
-0.101136
-0.100504
-0.0998485
-0.0991644
-0.0984383
-0.0976633
-0.0968235
-0.0958517
-0.0947082
-0.0932775
-0.0914968
-0.0892678
-0.0865025
-0.083137
-0.079073
-0.0742165
-0.0685313
-0.0620092
-0.0546896
-0.0466752
-0.0380069
-0.0285714
-0.0173856
-0.00154185
-0.00604154
-0.00434667
-0.00120122
0.00245859
0.00631175
0.0102307
0.0141595
0.0180725
0.0219584
0.0258123
0.0296331
0.0334215
0.0371787
0.0409068
0.0446076
0.0482834
0.0519361
0.0555677
0.0591801
0.062775
0.066354
0.0699186
0.0734704
0.0770107
0.0805407
0.0840618
0.087575
0.0910815
0.0945825
0.0980789
0.101572
0.105062
0.108551
-0.217586
-0.211639
-0.205865
-0.200347
-0.195129
-0.190223
-0.18561
-0.181268
-0.177165
-0.173277
-0.169597
-0.166105
-0.162789
-0.159638
-0.156643
-0.153785
-0.151036
-0.148362
-0.14573
-0.143104
-0.140455
-0.137778
-0.135042
-0.132195
-0.129226
-0.126153
-0.123011
-0.119865
-0.116779
-0.113821
-0.111064
-0.108605
-0.106516
-0.104805
-0.103449
-0.102417
-0.101677
-0.101196
-0.100926
-0.100811
-0.100819
-0.100916
-0.101081
-0.101286
-0.101482
-0.101663
-0.101826
-0.101963
-0.10208
-0.10218
-0.102254
-0.102302
-0.10231
-0.102269
-0.102166
-0.101993
-0.101741
-0.101419
-0.10102
-0.100544
-0.099997
-0.099387
-0.0987349
-0.0980645
-0.0973902
-0.0967018
-0.0959961
-0.0952583
-0.0944833
-0.0936545
-0.0926928
-0.0915426
-0.090104
-0.0883001
-0.0860597
-0.0833082
-0.0799496
-0.0759054
-0.0711138
-0.0655378
-0.0591709
-0.0520369
-0.0442577
-0.0359902
-0.0273617
-0.0186014
-0.0103861
-0.00711404
-0.00398755
-0.000516273
0.00319598
0.00703089
0.010915
0.0148075
0.0186866
0.0225411
0.0263656
0.0301582
0.0339186
0.037648
0.041348
0.0450207
0.0486683
0.0522929
0.0558968
0.059482
0.0630504
0.0666038
0.0701437
0.0736717
0.0771892
0.0806975
0.0841976
0.0876908
0.0911782
0.0946606
0.098139
0.101614
0.105088
0.10856
-0.217543
-0.211514
-0.205679
-0.200133
-0.194917
-0.190042
-0.18549
-0.181232
-0.177232
-0.173461
-0.169905
-0.166551
-0.163376
-0.160358
-0.157478
-0.154716
-0.152036
-0.1494
-0.146775
-0.144127
-0.141431
-0.138662
-0.135792
-0.132775
-0.129614
-0.126337
-0.123009
-0.119677
-0.116401
-0.113254
-0.110323
-0.107714
-0.105489
-0.103651
-0.102178
-0.101035
-0.100191
-0.0996103
-0.0992556
-0.0990762
-0.0990176
-0.0990485
-0.0991468
-0.0992791
-0.0994192
-0.099549
-0.0996616
-0.0997475
-0.0998128
-0.0998531
-0.0998634
-0.0998475
-0.0997924
-0.0996776
-0.0995061
-0.0992633
-0.0989449
-0.0985581
-0.0980966
-0.0975635
-0.0969659
-0.0963119
-0.0956196
-0.0949105
-0.094201
-0.0934823
-0.0927511
-0.0919967
-0.0912151
-0.0903816
-0.0894021
-0.0882302
-0.0867728
-0.0849396
-0.0826722
-0.0799237
-0.0765941
-0.0726119
-0.0679369
-0.0625302
-0.0563974
-0.0495862
-0.0422102
-0.0344854
-0.0267042
-0.0192828
-0.0127303
-0.00798844
-0.00392554
-2.8022e-05
0.00385262
0.00774033
0.0116272
0.0155013
0.0193532
0.0231771
0.0269697
0.0307298
0.0344575
0.038154
0.0418213
0.0454614
0.0490768
0.0526698
0.0562429
0.0597982
0.0633378
0.0668636
0.0703771
0.0738799
0.0773735
0.0808589
0.0843373
0.0878098
0.0912773
0.0947406
0.0982006
0.101658
0.105114
0.108568
-0.217529
-0.211476
-0.205633
-0.200105
-0.194932
-0.190118
-0.185648
-0.181488
-0.177596
-0.173937
-0.170501
-0.167266
-0.164198
-0.161276
-0.158473
-0.155761
-0.153105
-0.15047
-0.147817
-0.145106
-0.142312
-0.139404
-0.136356
-0.133149
-0.129806
-0.126358
-0.122838
-0.119313
-0.115868
-0.112578
-0.109525
-0.106804
-0.104472
-0.10253
-0.100961
-0.0997326
-0.0988038
-0.0981318
-0.0976877
-0.0974217
-0.0972838
-0.0972421
-0.0972664
-0.0973175
-0.0973923
-0.0974598
-0.0975106
-0.0975386
-0.0975459
-0.0975226
-0.0974647
-0.0973755
-0.0972472
-0.097055
-0.0968049
-0.096485
-0.0960995
-0.0956505
-0.0951297
-0.0945415
-0.0938965
-0.0932041
-0.0924762
-0.0917323
-0.090989
-0.0902393
-0.0894816
-0.0887082
-0.0879093
-0.0870521
-0.086036
-0.0848255
-0.0833348
-0.0814818
-0.079202
-0.07646
-0.0731698
-0.0692727
-0.064743
-0.0595563
-0.0537151
-0.0472755
-0.040352
-0.0331458
-0.025968
-0.0192063
-0.0132083
-0.00812645
-0.00364468
0.000526935
0.00454856
0.00849322
0.0123903
0.0162502
0.0200756
0.0238666
0.0276233
0.031346
0.0350358
0.0386944
0.042324
0.0459271
0.0495063
0.0530642
0.0566035
0.0601264
0.063635
0.0671313
0.0706169
0.0740933
0.0775618
0.0810236
0.0844796
0.0879308
0.091378
0.0948218
0.0982631
0.101702
0.10514
0.108577
-0.217544
-0.211526
-0.20573
-0.200263
-0.195166
-0.190441
-0.186072
-0.182015
-0.178229
-0.174663
-0.171319
-0.16816
-0.165151
-0.162269
-0.159487
-0.156777
-0.154098
-0.151407
-0.148677
-0.145856
-0.142917
-0.139837
-0.136606
-0.133223
-0.129705
-0.126081
-0.122398
-0.118726
-0.115155
-0.111767
-0.10864
-0.105859
-0.103461
-0.101443
-0.0997892
-0.0984781
-0.0974708
-0.0967258
-0.0962054
-0.0958495
-0.095627
-0.095505
-0.095443
-0.0954134
-0.095412
-0.0954102
-0.0953941
-0.0953605
-0.0953047
-0.0952149
-0.0950904
-0.0949268
-0.0947203
-0.094454
-0.0941221
-0.0937275
-0.0932806
-0.092767
-0.0921947
-0.0915601
-0.0908718
-0.0901468
-0.0893881
-0.0886113
-0.0878338
-0.0870513
-0.0862614
-0.0854595
-0.0846258
-0.0837237
-0.08265
-0.0813765
-0.0798332
-0.0779566
-0.0756725
-0.0729461
-0.0697108
-0.065925
-0.0615611
-0.0566105
-0.0510716
-0.0449967
-0.0384846
-0.0316956
-0.0249046
-0.0184405
-0.0127008
-0.00759644
-0.00299095
0.00128931
0.00537371
0.00934043
0.0132316
0.0170681
0.02086
0.0246119
0.0283265
0.0320057
0.0356516
0.0392666
0.0428534
0.0464148
0.0499538
0.0534733
0.0569758
0.0604638
0.0639394
0.0674046
0.070861
0.0743099
0.0777526
0.0811901
0.0846232
0.0880527
0.0914793
0.0949035
0.0983258
0.101747
0.105167
0.108586
-0.217593
-0.211674
-0.205979
-0.200609
-0.195611
-0.190992
-0.186728
-0.182759
-0.179051
-0.175552
-0.172264
-0.169125
-0.166109
-0.163199
-0.160378
-0.157609
-0.154849
-0.152049
-0.149177
-0.146207
-0.143103
-0.13985
-0.13644
-0.132887
-0.129217
-0.125467
-0.121687
-0.117941
-0.114304
-0.110858
-0.107692
-0.104882
-0.102451
-0.100392
-0.0986856
-0.097308
-0.096224
-0.0954003
-0.0947996
-0.0943568
-0.0940491
-0.0938437
-0.0936908
-0.0935795
-0.0934986
-0.0934255
-0.0933421
-0.0932463
-0.0931287
-0.0929756
-0.0927885
-0.0925577
-0.0922767
-0.0919434
-0.0915389
-0.0910761
-0.0905798
-0.0900052
-0.0893854
-0.0887183
-0.0879956
-0.0872442
-0.08646
-0.0856536
-0.0848416
-0.0840213
-0.0831881
-0.0823374
-0.0814407
-0.0804652
-0.0793143
-0.0779569
-0.0763428
-0.0744215
-0.0721227
-0.0694178
-0.0662435
-0.0625851
-0.0584054
-0.0536932
-0.0484418
-0.0426804
-0.0364815
-0.0299648
-0.0233831
-0.0170411
-0.0114761
-0.00648826
-0.00193901
0.00231347
0.00637539
0.0103148
0.0141713
0.0179668
0.0217128
0.0254157
0.0290797
0.0327077
0.0363028
0.0398679
0.0434064
0.0469215
0.0504162
0.0538937
0.0573566
0.0608074
0.0642482
0.0676809
0.071107
0.0745276
0.0779439
0.0813567
0.0847666
0.0881743
0.0915802
0.0949847
0.0983881
0.101791
0.105193
0.108595
-0.217663
-0.211888
-0.206335
-0.201098
-0.19622
-0.191705
-0.187527
-0.183629
-0.179973
-0.176502
-0.173204
-0.170022
-0.166928
-0.163929
-0.161002
-0.15811
-0.155214
-0.152268
-0.149224
-0.146065
-0.142774
-0.139338
-0.135761
-0.132067
-0.128286
-0.124462
-0.120648
-0.116894
-0.113254
-0.109798
-0.106637
-0.103837
-0.10141
-0.0993441
-0.0976175
-0.0962053
-0.0950705
-0.0941767
-0.0934896
-0.0929588
-0.0925609
-0.0922667
-0.0920254
-0.0918347
-0.0916798
-0.0915396
-0.0913956
-0.0912439
-0.0910714
-0.0908664
-0.0906259
-0.0903409
-0.0900007
-0.0896127
-0.08916
-0.0886435
-0.0880993
-0.0874821
-0.0868235
-0.086131
-0.0853872
-0.0846179
-0.0838149
-0.082982
-0.0821324
-0.0812621
-0.0803649
-0.0794355
-0.0784422
-0.0773559
-0.0761
-0.074638
-0.0729338
-0.0709523
-0.0686362
-0.0659639
-0.0628601
-0.059327
-0.0553396
-0.0508645
-0.0458686
-0.0403518
-0.0343437
-0.027914
-0.0213154
-0.0149518
-0.00958803
-0.00485519
-0.000509256
0.00360179
0.00756483
0.0114284
0.0152195
0.018953
0.0226379
0.0262796
0.0298826
0.0334504
0.0369868
0.0404953
0.0439796
0.0474432
0.0508895
0.0543217
0.0577423
0.0611539
0.0645584
0.0679574
0.0713523
0.0747441
0.0781336
0.0815216
0.0849083
0.0882942
0.0916796
0.0950647
0.0984495
0.101834
0.105219
0.108603
-0.217759
-0.212169
-0.206775
-0.20167
-0.196901
-0.192473
-0.188365
-0.184524
-0.18089
-0.177402
-0.17403
-0.170741
-0.167516
-0.16436
-0.161253
-0.158172
-0.15508
-0.151938
-0.148696
-0.145335
-0.141849
-0.138234
-0.13451
-0.130709
-0.126866
-0.123023
-0.119223
-0.115521
-0.111964
-0.108582
-0.105495
-0.102755
-0.100365
-0.0983142
-0.0965874
-0.0951582
-0.0939825
-0.0930307
-0.0922704
-0.0916576
-0.0911724
-0.0907902
-0.0904666
-0.0902033
-0.0899857
-0.0897909
-0.0896014
-0.0894084
-0.0891973
-0.0889607
-0.0886877
-0.0883708
-0.0879998
-0.0875771
-0.0870978
-0.0865575
-0.0859763
-0.0853336
-0.0846573
-0.083947
-0.0831952
-0.0824165
-0.0816002
-0.0807388
-0.0798408
-0.0788974
-0.0779011
-0.0768486
-0.0757171
-0.074479
-0.0730836
-0.0714951
-0.0696757
-0.0676127
-0.0652692
-0.0626367
-0.0596358
-0.0562452
-0.052446
-0.0482121
-0.0434587
-0.0381331
-0.0322144
-0.025676
-0.0187189
-0.012107
-0.00700922
-0.00275012
0.00123934
0.00511645
0.00892385
0.012675
0.0163753
0.0200278
0.023636
0.0272034
0.0307338
0.0342314
0.0377003
0.0411446
0.0445685
0.0479756
0.0513694
0.0547531
0.0581291
0.0614996
0.0648665
0.068231
0.0715942
0.074957
0.0783197
0.0816829
0.0850467
0.0884112
0.0917764
0.0951424
0.0985091
0.101876
0.105244
0.108612
-0.217853
-0.212445
-0.207216
-0.202244
-0.197572
-0.193214
-0.189158
-0.185333
-0.181652
-0.178063
-0.174545
-0.171089
-0.167692
-0.164336
-0.161002
-0.157679
-0.154349
-0.150978
-0.14753
-0.143975
-0.140305
-0.136525
-0.13269
-0.128855
-0.125033
-0.121248
-0.117526
-0.113922
-0.110502
-0.107263
-0.104313
-0.101685
-0.0993877
-0.0974002
-0.0956885
-0.094238
-0.0930153
-0.0919984
-0.0911567
-0.0904613
-0.0898908
-0.0894254
-0.0890308
-0.0887085
-0.0884447
-0.0882155
-0.0880033
-0.0877941
-0.0875756
-0.0873409
-0.0870743
-0.0867658
-0.0864039
-0.085983
-0.0855035
-0.0849686
-0.084384
-0.0837393
-0.083065
-0.0823529
-0.0816021
-0.0808159
-0.0799807
-0.0790744
-0.0780964
-0.0770301
-0.0758763
-0.0746438
-0.073323
-0.0718853
-0.070303
-0.0685527
-0.0666015
-0.0644547
-0.0620894
-0.0595028
-0.0566498
-0.0534957
-0.049968
-0.0460158
-0.0414788
-0.0362741
-0.030322
-0.0234233
-0.0156285
-0.00862619
-0.00379434
-0.000320844
0.00318039
0.00677969
0.0104115
0.0140357
0.017631
0.0211882
0.0247054
0.0281848
0.0316303
0.0350467
0.0384387
0.041811
0.045168
0.0485134
0.0518508
0.055183
0.0585122
0.0618403
0.0651687
0.0684982
0.0718297
0.0751635
0.0784998
0.0818387
0.08518
0.0885237
0.0918695
0.0952171
0.0985662
0.101917
0.105268
0.10862
-0.217941
-0.2127
-0.207614
-0.202743
-0.198136
-0.193806
-0.189727
-0.185809
-0.181985
-0.178224
-0.174513
-0.17085
-0.167242
-0.163663
-0.160093
-0.156526
-0.152959
-0.149357
-0.145713
-0.141987
-0.138187
-0.134314
-0.130428
-0.126628
-0.122929
-0.119324
-0.11578
-0.112309
-0.109024
-0.105964
-0.103184
-0.100709
-0.0985261
-0.0965991
-0.0949033
-0.0934398
-0.0921732
-0.0910918
-0.0901673
-0.0893836
-0.0887274
-0.0881817
-0.0877273
-0.0873646
-0.0870768
-0.0868392
-0.0866334
-0.0864486
-0.0862741
-0.0860975
-0.0859013
-0.085664
-0.0853705
-0.0850103
-0.0845751
-0.0840851
-0.083547
-0.0829451
-0.0822939
-0.0815938
-0.0808412
-0.0800267
-0.0791414
-0.0781642
-0.0770386
-0.0757516
-0.0743444
-0.0728753
-0.0713238
-0.069629
-0.067807
-0.0658566
-0.0637503
-0.0615362
-0.0592144
-0.0567412
-0.0540888
-0.0513275
-0.0482685
-0.0446083
-0.0401619
-0.0351037
-0.0291664
-0.0216574
-0.0121728
0.00178347
-1.80424e-05
0.00201657
0.0050882
0.00848574
0.011979
0.015489
0.0189779
0.0224302
0.0258431
0.0292203
0.0325676
0.0358909
0.039196
0.042488
0.0457715
0.0490504
0.0523277
0.0556058
0.0588867
0.0621714
0.0654609
0.0687556
0.0720557
0.0753611
0.0786716
0.081987
0.0853067
0.0886304
0.0919576
0.0952877
0.0986203
0.101955
0.10529
0.108627
-0.218005
-0.212882
-0.207889
-0.203083
-0.198505
-0.194145