/*--------------------------------*- C++ -*----------------------------------*\
  =========                 |
  \\      /  F ield         | OpenFOAM: The Open Source CFD Toolbox
   \\    /   O peration     | Website:  https://openfoam.org
    \\  /    A nd           | Version:  6
     \\/     M anipulation  |
\*---------------------------------------------------------------------------*/
FoamFile
{
    version     2.0;
    format      ascii;
    class       volVectorField;
    location    "5000";
    object      U;
}
// * * * * * * * * * * * * * * * * * * * * * * * * * * * * * * * * * * * * * //

dimensions      [0 1 -1 0 0 0 0];

internalField   nonuniform List<vector> 
4800
(
(-0.000139887 0 -0.000158331)
(0.000180405 0 -0.000126264)
(0.000207309 0 -0.000168878)
(0.000351384 0 -0.000115673)
(0.000467764 0 -0.000105663)
(0.000563289 0 -0.000131804)
(0.000675804 0 -9.9681e-05)
(0.000763343 0 -0.000137814)
(0.000867368 0 -0.000179154)
(0.00102898 0 -0.000164073)
(0.00111255 0 -3.88622e-05)
(0.00109838 0 -1.65935e-05)
(0.00105553 0 1.31196e-05)
(0.000973165 0 2.34144e-05)
(0.000891907 0 3.29985e-05)
(0.000865308 0 2.05404e-05)
(0.000845975 0 2.86234e-06)
(0.000812918 0 -7.32199e-06)
(0.000796214 0 5.18574e-05)
(0.000791307 0 -2.58226e-05)
(0.000788681 0 -5.69727e-05)
(0.00080412 0 -7.84307e-05)
(0.000853688 0 -8.5199e-05)
(0.000954189 0 -0.000144517)
(0.00110947 0 -9.9309e-05)
(0.0012699 0 -0.000144951)
(0.0014519 0 -0.000144913)
(0.00167767 0 -0.000276632)
(0.00198463 0 -0.000197772)
(0.00223351 0 -0.000143509)
(0.00242081 0 -0.000378367)
(0.00273197 0 7.39572e-05)
(0.00304745 0 -0.000237265)
(0.00323103 0 -0.000410008)
(0.00336932 0 -5.65249e-05)
(0.00353017 0 -6.78822e-05)
(0.00374008 0 -0.000293734)
(0.00384881 0 -0.000186927)
(0.00385048 0 -0.000152152)
(0.00389107 0 -0.000131209)
(0.00398173 0 -8.76572e-05)
(0.00408229 0 -7.4548e-05)
(0.00411607 0 -3.66431e-05)
(0.00411275 0 -4.01897e-05)
(0.00410298 0 -2.6304e-06)
(0.00406755 0 -4.75766e-05)
(0.00401105 0 4.97596e-05)
(0.00395418 0 -4.94167e-05)
(0.00390118 0 5.01453e-05)
(0.00384321 0 -2.26196e-05)
(0.0037808 0 6.13914e-05)
(0.0037198 0 2.57108e-05)
(0.0036503 0 3.66235e-05)
(0.00356499 0 7.79166e-05)
(0.00347407 0 5.84922e-06)
(0.00338394 0 0.00012035)
(0.00330445 0 4.79561e-07)
(0.0032217 0 8.50427e-05)
(0.0031364 0 -1.48763e-05)
(0.00304552 0 2.9218e-05)
(0.00294745 0 1.07017e-05)
(0.00282957 0 -7.2258e-07)
(0.00270415 0 7.26596e-05)
(0.00257584 0 -5.83317e-05)
(0.00244659 0 9.69164e-05)
(0.00231699 0 -9.34895e-05)
(0.00216956 0 8.00342e-05)
(0.00202926 0 1.92964e-05)
(0.00187276 0 -2.11803e-05)
(0.00167528 0 -2.99072e-05)
(0.00145613 0 0.000122282)
(0.00119624 0 -2.53213e-05)
(0.000838939 0 -4.56915e-05)
(0.000417139 0 0.000346571)
(0.000153765 0 0.000242042)
(-0.000771311 0 -0.000358494)
(-0.000720743 0 -0.000350421)
(-0.000726329 0 -0.000194232)
(-0.00077376 0 -0.00016763)
(-0.000756216 0 -0.00012013)
(-0.000767104 0 -9.09487e-05)
(-0.000776692 0 -0.000109974)
(-0.00069858 0 -0.000212427)
(-0.000615594 0 -0.000130693)
(-0.000441349 0 -0.000234489)
(-0.000288059 0 -0.000188791)
(-3.0256e-07 0 -0.00020353)
(9.81682e-09 0 3.45512e-08)
(-4.04891e-12 0 2.72164e-13)
(-8.09853e-12 0 6.43717e-15)
(-7.99343e-12 0 -1.1175e-13)
(-7.71147e-12 0 -1.70346e-13)
(-7.33928e-12 0 -2.01642e-13)
(-6.91731e-12 0 -2.19844e-13)
(-6.46556e-12 0 -2.31351e-13)
(-5.99484e-12 0 -2.38866e-13)
(-5.51213e-12 0 -2.43381e-13)
(-5.02313e-12 0 -2.45141e-13)
(-4.53333e-12 0 -2.44118e-13)
(-4.04828e-12 0 -2.40269e-13)
(-3.57354e-12 0 -2.33643e-13)
(-3.11461e-12 0 -2.24375e-13)
(-2.67668e-12 0 -2.12667e-13)
(-2.26439e-12 0 -1.98807e-13)
(-1.88162e-12 0 -1.83168e-13)
(-1.5315e-12 0 -1.66179e-13)
(-1.21637e-12 0 -1.48281e-13)
(-9.37739e-13 0 -1.29904e-13)
(-6.96272e-13 0 -1.11464e-13)
(-4.91778e-13 0 -9.33439e-14)
(-3.23263e-13 0 -7.58857e-14)
(-1.88989e-13 0 -5.93842e-14)
(-8.65902e-14 0 -4.40973e-14)
(-1.32191e-14 0 -3.02557e-14)
(3.43239e-14 0 -1.80641e-14)
(5.95046e-14 0 -7.69492e-15)
(6.60193e-14 0 7.17861e-16)
(5.77801e-14 0 7.07838e-15)
(3.88958e-14 0 1.13192e-14)
(1.36588e-14 0 1.33732e-14)
(-5.49323e-05 0 -0.000158352)
(0.00010972 0 -0.000141659)
(0.000149154 0 -0.000160861)
(0.000301635 0 -4.47859e-05)
(0.000398582 0 -0.000107747)
(0.000495366 0 -0.000181397)
(0.000636447 0 -9.29565e-05)
(0.000736138 0 -0.0001989)
(0.000848026 0 -0.000286189)
(0.000940195 0 -5.52533e-05)
(0.00093271 0 -3.16135e-05)
(0.000925202 0 1.92589e-05)
(0.000915508 0 8.25156e-05)
(0.000895392 0 0.00011972)
(0.000871335 0 4.26236e-05)
(0.000860602 0 5.90908e-05)
(0.000851874 0 6.30041e-05)
(0.000838154 0 4.68359e-05)
(0.000831144 0 3.52016e-05)
(0.000838171 0 8.61577e-05)
(0.000857525 0 4.76378e-05)
(0.000881224 0 -7.90109e-06)
(0.000943318 0 1.29174e-05)
(0.00100799 0 -0.000194344)
(0.00117139 0 -9.61542e-05)
(0.00131188 0 -0.000230056)
(0.00148996 0 -0.000216471)
(0.00168328 0 -0.000353066)
(0.00197691 0 -0.000278682)
(0.00224505 0 -0.000219464)
(0.00244002 0 -0.00038686)
(0.0026777 0 -0.000481295)
(0.00298708 0 -0.000111746)
(0.00322746 0 -3.96997e-05)
(0.00332409 0 -0.000376546)
(0.00349322 0 -0.000198808)
(0.00374504 0 -0.000177389)
(0.00388365 0 -0.000128283)
(0.00388552 0 -4.68933e-05)
(0.00392487 0 -5.05056e-05)
(0.00401913 0 1.0174e-05)
(0.00407621 0 1.12796e-05)
(0.00406965 0 -5.43309e-06)
(0.0040816 0 2.89402e-05)
(0.00409267 0 6.96275e-05)
(0.00407388 0 0.0001104)
(0.00402814 0 7.37586e-05)
(0.00397672 0 0.000131382)
(0.00392995 0 8.3597e-05)
(0.00387925 0 9.98993e-05)
(0.00382882 0 5.25701e-05)
(0.00377957 0 9.91138e-05)
(0.00372522 0 0.000116974)
(0.00366137 0 9.73642e-05)
(0.00359138 0 0.000134972)
(0.00351825 0 6.68131e-05)
(0.0034349 0 0.000140531)
(0.00335484 0 9.38762e-05)
(0.00327764 0 0.000115822)
(0.0032057 0 0.000146611)
(0.0031383 0 0.000132236)
(0.00305912 0 0.000218626)
(0.00299159 0 9.73939e-05)
(0.00289707 0 0.000326764)
(0.0028287 0 7.18462e-05)
(0.00272019 0 0.000294283)
(0.00263024 0 0.000160098)
(0.00251481 0 3.11842e-05)
(0.00229161 0 0.00046144)
(0.00219837 0 0.000173709)
(0.00205892 0 -1.15995e-05)
(0.00168346 0 0.000472181)
(0.0014862 0 0.000242124)
(0.00126604 0 0.000312201)
(0.000665194 0 0.000677002)
(0.000754102 0 0.000544908)
(0.000636735 0 0.000514008)
(0.000230532 0 0.000272865)
(-0.000221452 0 0.00019647)
(-0.000519669 0 6.27661e-05)
(-0.000581405 0 2.14472e-05)
(-0.000592143 0 -2.52106e-05)
(-0.000589246 0 -7.06441e-05)
(-0.000507236 0 -0.000181597)
(-0.000404976 0 -0.000297977)
(-0.000268501 0 -0.000323635)
(-8.97359e-05 0 -0.000303261)
(1.12628e-07 0 1.32139e-07)
(-4.34362e-12 0 3.37348e-13)
(-8.48239e-12 0 -1.28258e-13)
(-8.17021e-12 0 -3.94645e-13)
(-7.80136e-12 0 -5.38017e-13)
(-7.38877e-12 0 -6.17694e-13)
(-6.94702e-12 0 -6.65952e-13)
(-6.48458e-12 0 -6.97813e-13)
(-6.00687e-12 0 -7.19372e-13)
(-5.5184e-12 0 -7.32608e-13)
(-5.02387e-12 0 -7.3781e-13)
(-4.52846e-12 0 -7.34728e-13)
(-4.03781e-12 0 -7.23161e-13)
(-3.55765e-12 0 -7.0319e-13)
(-3.09363e-12 0 -6.75196e-13)
(-2.65111e-12 0 -6.39819e-13)
(-2.23489e-12 0 -5.97964e-13)
(-1.84899e-12 0 -5.50771e-13)
(-1.49661e-12 0 -4.99525e-13)
(-1.18009e-12 0 -4.45554e-13)
(-9.00922e-13 0 -3.90151e-13)
(-6.59711e-13 0 -3.34535e-13)
(-4.562e-13 0 -2.79833e-13)
(-2.89303e-13 0 -2.27073e-13)
(-1.572e-13 0 -1.77182e-13)
(-5.74618e-14 0 -1.30991e-13)
(1.28141e-14 0 -8.92278e-14)
(5.68847e-14 0 -5.25071e-14)
(7.82866e-14 0 -2.13195e-14)
(8.07926e-14 0 3.96723e-15)
(6.83815e-14 0 2.30948e-14)
(4.51906e-14 0 3.58899e-14)
(1.57128e-14 0 4.22343e-14)
(-6.7597e-05 0 -0.000152301)
(7.10773e-05 0 -0.000161029)
(9.10234e-05 0 -0.000285283)
(0.000293699 0 -0.0003262)
(0.000365921 0 -0.000402727)
(0.000504535 0 -0.000351273)
(0.000603489 0 -0.000319428)
(0.000729673 0 -0.000258221)
(0.000779608 0 -0.000141799)
(0.000761422 0 -0.000160886)
(0.000750355 0 -5.61428e-05)
(0.000736758 0 3.99693e-05)
(0.000745863 0 7.16345e-05)
(0.000791768 0 0.000104981)
(0.000826708 0 3.38048e-05)
(0.000816228 0 1.74629e-05)
(0.000771122 0 -2.20592e-05)
(0.000765295 0 3.42465e-05)
(0.000753509 0 -7.483e-05)
(0.000757832 0 -4.7905e-05)
(0.000736534 0 -0.000113713)
(0.000725993 0 -0.000218597)
(0.000853984 0 1.92313e-05)
(0.000716601 0 -0.000515764)
(0.000966939 0 -0.000307728)
(0.00103892 0 -0.000499718)
(0.00124934 0 -0.000541067)
(0.00129585 0 -0.000859372)
(0.001662 0 -0.000563292)
(0.00187259 0 -0.000602896)
(0.00205012 0 -0.000857593)
(0.00242995 0 -0.000616863)
(0.00265813 0 -0.000622679)
(0.00286227 0 -0.000360515)
(0.00301098 0 -0.000561744)
(0.00327528 0 -0.000337604)
(0.00354997 0 -0.000220793)
(0.00357385 0 -0.00039542)
(0.00357841 0 -0.000344059)
(0.0036456 0 -0.000277868)
(0.00377072 0 -0.000279398)
(0.00387398 0 -0.000177894)
(0.00389004 0 -0.000169325)
(0.00389292 0 -7.74076e-05)
(0.00389148 0 1.60031e-05)
(0.00388146 0 6.35714e-05)
(0.00385962 0 9.18567e-05)
(0.00383192 0 0.000121151)
(0.00379292 0 0.000123222)
(0.00374271 0 0.000144472)
(0.00370119 0 0.000131963)
(0.00365761 0 0.000172351)
(0.00360347 0 0.000191064)
(0.00354049 0 0.00019109)
(0.00348113 0 0.000204777)
(0.00342739 0 0.000218704)
(0.00336852 0 0.000177122)
(0.00330041 0 0.00022131)
(0.00323857 0 0.000189511)
(0.0031778 0 0.000171572)
(0.00310794 0 0.000233533)
(0.00304559 0 0.000172106)
(0.00297212 0 0.000271466)
(0.00290711 0 0.000173648)
(0.00281633 0 0.000331987)
(0.0027409 0 0.000254987)
(0.00264133 0 0.000335099)
(0.00249627 0 0.000556317)
(0.00244268 0 7.66634e-05)
(0.00225394 0 0.000474352)
(0.00201796 0 0.000811451)
(0.00202653 0 0.000253996)
(0.00177447 0 0.000612743)
(0.00148603 0 0.000899765)
(0.00129793 0 0.000812947)
(0.00111921 0 0.000714535)
(0.000732078 0 0.000735967)
(0.000412812 0 0.000552299)
(0.000123018 0 0.000379625)
(0.000107201 0 0.000312334)
(-2.4704e-05 0 0.000210105)
(-0.000353261 0 1.17187e-05)
(-0.000365211 0 -8.42207e-05)
(-0.000264275 0 -0.000197537)
(-0.000296589 0 -0.000319761)
(-0.000218683 0 -0.0004561)
(-8.12872e-05 0 -0.0005361)
(-1.74549e-07 0 -8.68152e-05)
(-4.46098e-12 0 2.46775e-13)
(-8.83041e-12 0 -4.621e-13)
(-8.40319e-12 0 -8.00105e-13)
(-7.93452e-12 0 -9.68849e-13)
(-7.46721e-12 0 -1.06469e-12)
(-6.99743e-12 0 -1.12807e-12)
(-6.51898e-12 0 -1.17425e-12)
(-6.02963e-12 0 -1.20787e-12)
(-5.53056e-12 0 -1.22948e-12)
(-5.02525e-12 0 -1.23828e-12)
(-4.51868e-12 0 -1.23332e-12)
(-4.01675e-12 0 -1.21402e-12)
(-3.52558e-12 0 -1.18042e-12)
(-3.05124e-12 0 -1.13316e-12)
(-2.59945e-12 0 -1.07334e-12)
(-2.17534e-12 0 -1.00254e-12)
(-1.78318e-12 0 -9.22698e-13)
(-1.42628e-12 0 -8.36e-13)
(-1.10699e-12 0 -7.44698e-13)
(-8.2672e-13 0 -6.50989e-13)
(-5.85953e-13 0 -5.56947e-13)
(-3.84316e-13 0 -4.64491e-13)
(-2.20612e-13 0 -3.75383e-13)
(-9.29069e-14 0 -2.91222e-13)
(1.36385e-15 0 -2.13428e-13)
(6.52646e-14 0 -1.43212e-13)
(1.02232e-13 0 -8.1566e-14)
(1.15979e-13 0 -2.92623e-14)
(1.10434e-13 0 1.31294e-14)
(8.97028e-14 0 4.52098e-14)
(5.80353e-14 0 6.67173e-14)
(2.00032e-14 0 7.75104e-14)
(-0.000125916 0 -0.000160809)
(0.000180756 0 -0.000246813)
(0.000229427 0 -0.000378679)
(0.000312569 0 -0.000483594)
(0.000454254 0 -0.000431579)
(0.000526336 0 -0.000391987)
(0.000621127 0 -0.00029636)
(0.000648414 0 -0.0002377)
(0.000639534 0 -0.000243139)
(0.000648606 0 -0.000133553)
(0.000641097 0 -1.30087e-05)
(0.000635779 0 9.86596e-06)
(0.000662962 0 4.41054e-05)
(0.000698759 0 7.90978e-05)
(0.000691953 0 8.29903e-05)
(0.000659474 0 0.000133521)
(0.000568619 0 0.000110991)
(0.000552178 0 0.000138294)
(0.000528275 0 0.000143175)
(0.00051448 0 5.95342e-05)
(0.000387181 0 -6.35674e-05)
(0.00049424 0 0.000197892)
(0.000480356 0 -0.000242142)
(0.000401957 0 -0.000407179)
(0.000622066 0 -0.000419483)
(0.000628431 0 -0.000616064)
(0.000958941 0 -0.000533649)
(0.000926846 0 -0.000880823)
(0.0012769 0 -0.000729775)
(0.0014315 0 -0.000910163)
(0.00172259 0 -0.000924257)
(0.00205283 0 -0.000819576)
(0.00233519 0 -0.000526392)
(0.0024656 0 -0.000658677)
(0.00267868 0 -0.000546967)
(0.0029314 0 -0.000486098)
(0.00309514 0 -0.000553596)
(0.00314092 0 -0.000413632)
(0.00318855 0 -0.000328701)
(0.00330309 0 -0.000318185)
(0.00346627 0 -0.000103001)
(0.0035486 0 -9.86993e-05)
(0.00356629 0 -0.000113492)
(0.00358443 0 3.26644e-05)
(0.00358162 0 6.53521e-05)
(0.00357205 0 0.000100845)
(0.00356789 0 0.000124491)
(0.00355386 0 0.000148895)
(0.00351259 0 0.000172373)
(0.0034477 0 0.000104312)
(0.00339103 0 0.000184772)
(0.00334799 0 0.000174455)
(0.00329733 0 0.000230133)
(0.00325688 0 0.00021013)
(0.00322205 0 0.000199527)
(0.00317723 0 0.00026293)
(0.00314219 0 0.000233881)
(0.00309948 0 0.000239044)
(0.0030492 0 0.000265099)
(0.00301689 0 0.000234368)
(0.00296867 0 0.000246335)
(0.00290254 0 0.00025448)
(0.00285033 0 0.000286738)
(0.00280094 0 0.000295172)
(0.00275191 0 0.000290383)
(0.00268228 0 0.000353348)
(0.00256502 0 0.000444248)
(0.00250129 0 0.000292553)
(0.00237967 0 0.000644527)
(0.00224734 0 0.000629093)
(0.0022084 0 0.000214754)
(0.0019967 0 0.000924792)
(0.00193816 0 0.000919507)
(0.00191783 0 0.000626499)
(0.00160813 0 0.000939057)
(0.00139667 0 0.00101691)
(0.00117011 0 0.000910372)
(0.000985957 0 0.000640444)
(0.000530972 0 0.000569102)
(0.000356563 0 0.000314032)
(5.70353e-05 0 0.000314479)
(-8.58027e-05 0 0.000252126)
(-8.71612e-05 0 -2.77018e-05)
(-1.10742e-05 0 -0.000183315)
(-0.000118169 0 -0.000321541)
(-0.00013204 0 -0.000524571)
(1.8637e-05 0 -0.000644173)
(-3.08979e-07 0 -5.79016e-05)
(-4.9361e-12 0 -4.92643e-13)
(-9.52914e-12 0 -1.16651e-12)
(-8.67696e-12 0 -1.37436e-12)
(-8.06595e-12 0 -1.47219e-12)
(-7.548e-12 0 -1.54387e-12)
(-7.05658e-12 0 -1.60719e-12)
(-6.56438e-12 0 -1.66305e-12)
(-6.0621e-12 0 -1.70822e-12)
(-5.54881e-12 0 -1.73901e-12)
(-5.0277e-12 0 -1.75236e-12)
(-4.5042e-12 0 -1.74612e-12)
(-3.98491e-12 0 -1.71913e-12)
(-3.47679e-12 0 -1.67138e-12)
(-2.98655e-12 0 -1.6038e-12)
(-2.52049e-12 0 -1.51808e-12)
(-2.08425e-12 0 -1.41651e-12)
(-1.68245e-12 0 -1.30191e-12)
(-1.31861e-12 0 -1.17744e-12)
(-9.95082e-13 0 -1.04639e-12)
(-7.13172e-13 0 -9.1201e-13)
(-4.73213e-13 0 -7.77355e-13)
(-2.74636e-13 0 -6.45239e-13)
(-1.16035e-13 0 -5.18206e-13)
(4.75462e-15 0 -3.98508e-13)
(9.05491e-14 0 -2.88093e-13)
(1.44676e-13 0 -1.88597e-13)
(1.70834e-13 0 -1.01348e-13)
(1.72982e-13 0 -2.73746e-14)
(1.55265e-13 0 3.25579e-14)
(1.21969e-13 0 7.79108e-14)
(7.74912e-14 0 1.08328e-13)
(2.65058e-14 0 1.23597e-13)
(-0.000133127 0 -0.000244469)
(0.000215996 0 -0.00039424)
(0.000249199 0 -0.000488948)
(0.000393208 0 -0.000484714)
(0.000403446 0 -0.000499012)
(0.000458197 0 -0.000445488)
(0.000473055 0 -0.000404891)
(0.00046599 0 -0.000366)
(0.000490181 0 -0.000266695)
(0.000479472 0 -0.0001184)
(0.000487303 0 -2.99038e-05)
(0.0004884 0 1.30406e-05)
(0.000488075 0 3.69176e-05)
(0.000468552 0 1.02663e-05)
(0.000428764 0 5.23855e-05)
(0.000383019 0 0.000118568)
(0.000267889 0 8.42062e-05)
(0.000240693 0 8.19111e-05)
(0.000139317 0 5.22823e-05)
(0.00017859 0 0.000111072)
(-4.1654e-06 0 -0.000123221)
(0.000169689 0 -5.60112e-05)
(0.000132839 0 -0.000212672)
(6.32654e-05 0 -0.00046004)
(0.000348611 0 -0.000475301)
(0.000183047 0 -0.000726363)
(0.000522833 0 -0.000782104)
(0.000598461 0 -0.000974352)
(0.00093199 0 -0.000973275)
(0.00119102 0 -0.00101297)
(0.00133426 0 -0.00122669)
(0.00165283 0 -0.00109832)
(0.00190107 0 -0.000915748)
(0.00212146 0 -0.000772342)
(0.00225275 0 -0.000932891)
(0.00247999 0 -0.000879731)
(0.00264658 0 -0.000681687)
(0.00270209 0 -0.000637849)
(0.0027946 0 -0.000581756)
(0.0029447 0 -0.000411932)
(0.00300884 0 -0.000225987)
(0.0030381 0 -0.000203722)
(0.00310249 0 -0.000219308)
(0.00317617 0 -0.000138819)
(0.00320892 0 4.2683e-05)
(0.00321871 0 9.6851e-05)
(0.00324005 0 0.000180009)
(0.00323803 0 0.000212288)
(0.00320817 0 0.000241359)
(0.00315917 0 0.000200397)
(0.0031084 0 0.000264722)
(0.00307135 0 0.000274741)
(0.003032 0 0.000262083)
(0.00299474 0 0.00029035)
(0.00297172 0 0.000305026)
(0.00294024 0 0.000206839)
(0.0028755 0 0.00031534)
(0.00282489 0 0.000297225)
(0.00276806 0 0.000205892)
(0.0026874 0 0.000385269)
(0.0026581 0 0.000358608)
(0.00263215 0 0.000213103)
(0.00254953 0 0.000464091)
(0.00252734 0 0.000306998)
(0.0025061 0 0.000393837)
(0.00246099 0 0.000491257)
(0.002423 0 0.000391618)
(0.00237717 0 0.000465256)
(0.00229723 0 0.000656404)
(0.00225043 0 0.000591408)
(0.00213233 0 0.000752316)
(0.00199118 0 0.000928165)
(0.00197569 0 0.000925687)
(0.00180153 0 0.00117498)
(0.00175996 0 0.00117512)
(0.00164036 0 0.00123444)
(0.001247 0 0.00138585)
(0.000989127 0 0.00124942)
(0.000629889 0 0.00100987)
(0.000442526 0 0.000631221)
(0.000214 0 0.000432316)
(0.000102375 0 0.000260981)
(0.000178653 0 -7.10226e-05)
(4.02358e-05 0 -0.000140773)
(6.18714e-05 0 -0.000286583)
(0.000239975 0 -0.000432538)
(5.66838e-05 0 -0.00065361)
(-7.93331e-12 0 -5.7385e-12)
(-5.99267e-12 0 -3.23395e-12)
(-9.71203e-12 0 -2.33646e-12)
(-8.70887e-12 0 -2.05835e-12)
(-8.10403e-12 0 -2.00157e-12)
(-7.60221e-12 0 -2.03143e-12)
(-7.11661e-12 0 -2.09379e-12)
(-6.62001e-12 0 -2.16255e-12)
(-6.10559e-12 0 -2.22299e-12)
(-5.5747e-12 0 -2.26605e-12)
(-5.03236e-12 0 -2.28605e-12)
(-4.48545e-12 0 -2.27958e-12)
(-3.94201e-12 0 -2.24496e-12)
(-3.41025e-12 0 -2.18214e-12)
(-2.89793e-12 0 -2.09249e-12)
(-2.41215e-12 0 -1.97847e-12)
(-1.95917e-12 0 -1.84329e-12)
(-1.54411e-12 0 -1.69079e-12)
(-1.17077e-12 0 -1.52528e-12)
(-8.41568e-13 0 -1.35122e-12)
(-5.57683e-13 0 -1.17304e-12)
(-3.19182e-13 0 -9.94916e-13)
(-1.25168e-13 0 -8.20608e-13)
(2.61193e-14 0 -6.53463e-13)
(1.37206e-13 0 -4.96376e-13)
(2.11274e-13 0 -3.51805e-13)
(2.52009e-13 0 -2.21784e-13)
(2.63455e-13 0 -1.07942e-13)
(2.49885e-13 0 -1.15358e-14)
(2.15719e-13 0 6.65062e-14)
(1.65473e-13 0 1.25531e-13)
(1.03721e-13 0 1.65107e-13)
(3.52719e-14 0 1.84968e-13)
(-7.92203e-05 0 -0.000340127)
(0.000172187 0 -0.000498691)
(0.000167331 0 -0.000617452)
(0.000249654 0 -0.000619289)
(0.000302974 0 -0.000576249)
(0.000345715 0 -0.000498487)
(0.000356303 0 -0.00039499)
(0.000303404 0 -0.000323748)
(0.000364697 0 -0.000157813)
(0.000277195 0 -0.000154564)
(0.000284857 0 -3.34092e-05)
(0.000244934 0 -3.02767e-05)
(0.000255417 0 4.65877e-05)
(0.000233395 0 0.000176679)
(0.000133597 0 0.000230432)
(-9.2841e-07 0 0.000258546)
(-0.000104738 0 0.000225608)
(-0.000147866 0 0.000207773)
(-0.000181346 0 0.000134643)
(-0.00014847 0 6.86511e-05)
(-0.000279056 0 -6.86464e-05)
(-0.000135927 0 -3.75353e-05)
(-0.000152643 0 -0.000137328)
(-0.000325621 0 -0.000397932)
(-0.000146769 0 -0.000585966)
(-0.000155442 0 -0.000731227)
(0.000133479 0 -0.000920879)
(0.000126922 0 -0.00115024)
(0.000416609 0 -0.00132158)
(0.000669742 0 -0.00145021)
(0.00111448 0 -0.00133975)
(0.00135951 0 -0.00123968)
(0.00152613 0 -0.00111852)
(0.00169228 0 -0.00106009)
(0.00183838 0 -0.00112825)
(0.00208665 0 -0.000967794)
(0.00224823 0 -0.000752059)
(0.00231759 0 -0.000647712)
(0.00238343 0 -0.000482745)
(0.00243942 0 -0.000382337)
(0.00249072 0 -0.000458743)
(0.00259363 0 -0.000438981)
(0.00269062 0 -0.000137255)
(0.00268738 0 -7.02443e-05)
(0.00270494 0 -1.21918e-06)
(0.00275771 0 -3.73367e-05)
(0.00284229 0 5.44987e-05)
(0.00286258 0 0.000214911)
(0.00284997 0 0.000225987)
(0.00283875 0 0.000259344)
(0.00284057 0 0.000279874)
(0.00283548 0 0.000293733)
(0.00281694 0 0.000301591)
(0.00278961 0 0.000275681)
(0.00274637 0 0.000367434)
(0.00270463 0 0.000379011)
(0.00266212 0 0.000299105)
(0.00257396 0 0.000421627)
(0.00250243 0 0.000374996)
(0.00243204 0 0.000281582)
(0.00231116 0 0.000451543)
(0.00227453 0 0.000430011)
(0.00227859 0 0.000287125)
(0.00222129 0 0.000280802)
(0.00216653 0 0.000505355)
(0.00219257 0 0.000349085)
(0.0021617 0 0.000485179)
(0.00212753 0 0.000619569)
(0.00208464 0 0.000751341)
(0.00207163 0 0.000793825)
(0.00205507 0 0.000790523)
(0.00192847 0 0.000999444)
(0.00188695 0 0.00108424)
(0.0018692 0 0.00112262)
(0.00173616 0 0.00135908)
(0.00174551 0 0.00133904)
(0.00164394 0 0.00134994)
(0.00157406 0 0.00117132)
(0.00113174 0 0.00117458)
(0.000924233 0 0.000839723)
(0.000269195 0 0.000806818)
(0.000429118 0 0.000251967)
(0.000468382 0 -2.59864e-05)
(0.000248927 0 -0.000196688)
(0.000263074 0 -0.000280052)
(0.000119035 0 -0.00037962)
(-5.74891e-07 0 -0.000582405)
(-2.79685e-12 0 -8.50183e-13)
(-7.11403e-12 0 -3.98722e-12)
(-8.35376e-12 0 -2.88708e-12)
(-8.34204e-12 0 -2.52124e-12)
(-8.03903e-12 0 -2.44472e-12)
(-7.64022e-12 0 -2.48704e-12)
(-7.1877e-12 0 -2.5745e-12)
(-6.69358e-12 0 -2.67074e-12)
(-6.16559e-12 0 -2.75547e-12)
(-5.61186e-12 0 -2.8165e-12)
(-5.04123e-12 0 -2.84649e-12)
(-4.46311e-12 0 -2.84126e-12)
(-3.88747e-12 0 -2.79892e-12)
(-3.32432e-12 0 -2.7196e-12)
(-2.78288e-12 0 -2.60532e-12)
(-2.27129e-12 0 -2.45956e-12)
(-1.79658e-12 0 -2.28676e-12)
(-1.36444e-12 0 -2.0921e-12)
(-9.79035e-13 0 -1.88119e-12)
(-6.4285e-13 0 -1.65987e-12)
(-3.5687e-13 0 -1.43386e-12)
(-1.20777e-13 0 -1.20854e-12)
(6.68174e-14 0 -9.88713e-13)
(2.08198e-13 0 -7.78566e-13)
(3.06412e-13 0 -5.81657e-13)
(3.65141e-13 0 -4.00939e-13)
(3.88539e-13 0 -2.38807e-13)
(3.81082e-13 0 -9.71421e-14)
(3.4743e-13 0 2.26238e-14)
(2.92332e-13 0 1.19449e-13)
(2.2057e-13 0 1.92609e-13)
(1.36928e-13 0 2.41628e-13)
(4.63666e-14 0 2.66215e-13)
(9.50547e-06 0 -0.000398259)
(9.70694e-05 0 -0.000585391)
(0.000203883 0 -0.000674214)
(0.000227184 0 -0.000649143)
(0.000274 0 -0.000589282)
(0.000248117 0 -0.000484416)
(0.000225165 0 -0.000386333)
(0.000134243 0 -0.000293689)
(0.000186383 0 -0.000188611)
(0.00016374 0 -0.000112172)
(0.000166619 0 9.32327e-06)
(0.000114969 0 8.24745e-05)
(1.30384e-05 0 0.000165295)
(-0.000111375 0 0.00021712)
(-0.000157116 0 0.000263232)
(-0.000209253 0 0.000282634)
(-0.000283823 0 0.00024563)
(-0.000336999 0 0.000211833)
(-0.000412718 0 0.000195391)
(-0.00053494 0 0.000194052)
(-0.000706688 0 0.000227954)
(-0.000851307 0 4.30002e-05)
(-0.000884314 0 -0.000210577)
(-0.000839547 0 -0.000469084)
(-0.000746165 0 -0.000771232)
(-0.000668609 0 -0.000931458)
(-0.000426816 0 -0.00130165)
(-0.000368521 0 -0.00147657)
(-4.69646e-05 0 -0.00172078)
(0.000283646 0 -0.0018466)
(0.000477985 0 -0.0018601)
(0.000877656 0 -0.00163574)
(0.00126043 0 -0.00129163)
(0.00140113 0 -0.00115585)
(0.00157081 0 -0.00109508)
(0.00170468 0 -0.00105647)
(0.0018729 0 -0.000731701)
(0.00189987 0 -0.000664536)
(0.00194641 0 -0.000705219)
(0.00202568 0 -0.000839043)
(0.00221495 0 -0.000299299)
(0.00220339 0 -0.00025831)
(0.00219302 0 -0.000215444)
(0.00220603 0 -0.000171271)
(0.00223893 0 -3.0288e-05)
(0.00231806 0 7.04872e-06)
(0.00243184 0 2.38496e-05)
(0.00247492 0 0.000166859)
(0.00249881 0 0.000196839)
(0.00253714 0 0.000174099)
(0.00257124 0 0.000258686)
(0.00257028 0 0.000297235)
(0.00256873 0 0.000280643)
(0.00255515 0 0.000308903)
(0.00252717 0 0.000331357)
(0.00248147 0 0.000329363)
(0.00239642 0 0.000512803)
(0.00234448 0 0.000400682)
(0.00224964 0 0.000481921)
(0.0021486 0 0.000605048)
(0.00209049 0 0.000399532)
(0.00197785 0 0.000512789)
(0.00194037 0 0.000607104)
(0.00195097 0 0.000369302)
(0.00189185 0 0.000483349)
(0.0018508 0 0.000533607)
(0.00184486 0 0.000554782)
(0.00182548 0 0.000616744)
(0.00181325 0 0.000702512)
(0.00188423 0 0.000645055)
(0.00182265 0 0.000898224)
(0.00183444 0 0.000976252)
(0.00178208 0 0.00113724)
(0.00178918 0 0.00119025)
(0.00168313 0 0.00140688)
(0.00162191 0 0.00155646)
(0.00158154 0 0.00159464)
(0.00154333 0 0.0015567)
(0.00132577 0 0.00149513)
(0.00129192 0 0.00111801)
(0.00066429 0 0.00112959)
(0.000899258 0 0.000441241)
(0.00070199 0 0.000218368)
(0.000330959 0 2.32609e-05)
(0.000363635 0 -0.000204885)
(0.000107227 0 -0.000359136)
(-8.12363e-07 0 -0.000532993)
(-3.73204e-12 0 -1.98887e-12)
(-8.03043e-12 0 -2.71355e-12)
(-8.24677e-12 0 -2.70431e-12)
(-8.26651e-12 0 -2.69573e-12)
(-8.06983e-12 0 -2.76987e-12)
(-7.732e-12 0 -2.89844e-12)
(-7.3003e-12 0 -3.04724e-12)
(-6.80098e-12 0 -3.19096e-12)
(-6.25135e-12 0 -3.31201e-12)
(-5.66572e-12 0 -3.3984e-12)
(-5.05712e-12 0 -3.44256e-12)
(-4.43789e-12 0 -3.44027e-12)
(-3.82034e-12 0 -3.38984e-12)
(-3.21665e-12 0 -3.29193e-12)
(-2.63789e-12 0 -3.1495e-12)
(-2.09359e-12 0 -2.96736e-12)
(-1.59171e-12 0 -2.75159e-12)
(-1.13854e-12 0 -2.50905e-12)
(-7.38536e-13 0 -2.24702e-12)
(-3.94244e-13 0 -1.9729e-12)
(-1.06359e-13 0 -1.69389e-12)
(1.25969e-13 0 -1.41666e-12)
(3.04809e-13 0 -1.14714e-12)
(4.33176e-13 0 -8.90412e-13)
(5.14833e-13 0 -6.50707e-13)
(5.54124e-13 0 -4.31446e-13)
(5.55807e-13 0 -2.3533e-13)
(5.24885e-13 0 -6.44254e-14)
(4.66476e-13 0 7.97389e-14)
(3.85704e-13 0 1.96079e-13)
(2.87652e-13 0 2.83861e-13)
(1.77327e-13 0 3.42615e-13)
(5.9859e-14 0 3.72064e-13)
(3.88287e-05 0 -0.00045131)
(8.47823e-05 0 -0.000647713)
(0.000174094 0 -0.000702388)
(0.000170757 0 -0.00066486)
(0.000110852 0 -0.000565411)
(-6.41155e-05 0 -0.00044607)
(0.000145586 0 -0.000354277)
(4.84505e-05 0 -0.000262929)
(2.69549e-05 0 -0.000208378)
(3.43001e-05 0 -0.000133736)
(5.53783e-05 0 -1.11589e-05)
(-5.4663e-05 0 0.000131364)
(-9.55554e-05 0 0.000232607)
(-0.000200049 0 0.000257497)
(-0.000271231 0 0.000316916)
(-0.000341177 0 0.000387627)
(-0.00042551 0 0.000456714)
(-0.000706704 0 0.000460225)
(-0.00100468 0 0.000401575)
(-0.00108387 0 0.00037443)
(-0.0011016 0 0.000102213)
(-0.00102614 0 -0.000142711)
(-0.000921744 0 -0.000397256)
(-0.000944839 0 -0.000491284)
(-0.000529453 0 -0.00105237)
(-0.000834595 0 -0.000923008)
(-0.000336377 0 -0.00145048)
(-0.000489217 0 -0.00156952)
(-0.000202525 0 -0.00183797)
(4.12444e-05 0 -0.00195729)
(4.74894e-05 0 -0.00205869)
(0.000608456 0 -0.0019695)
(0.000700566 0 -0.00181017)
(0.00108919 0 -0.00139372)
(0.00130613 0 -0.00122454)
(0.001355 0 -0.00114242)
(0.00146352 0 -0.000997839)
(0.00155658 0 -0.000883975)
(0.00163378 0 -0.000905931)
(0.00185164 0 -0.000448516)
(0.00181765 0 -0.000429708)
(0.00182883 0 -0.000387893)
(0.00186598 0 -0.000272773)
(0.00191953 0 -0.000124286)
(0.0019812 0 -0.000194142)
(0.00208857 0 -0.000193385)
(0.00210717 0 0.000122539)
(0.00210082 0 0.000150391)
(0.00213236 0 0.000170349)
(0.00221026 0 0.000202226)
(0.00225049 0 0.000271472)
(0.00224096 0 0.0002911)
(0.00223061 0 0.000347431)
(0.00223947 0 0.000371098)
(0.00224823 0 0.000407445)
(0.00222979 0 0.000372708)
(0.00215112 0 0.000473411)
(0.00207507 0 0.000508182)
(0.00201204 0 0.000462584)
(0.00191228 0 0.000582805)
(0.00186866 0 0.000486838)
(0.00177324 0 0.000530369)
(0.00165005 0 0.000631748)
(0.00168493 0 0.00043552)
(0.00166385 0 0.000512792)
(0.00164566 0 0.000453121)
(0.00157171 0 0.000575604)
(0.00155109 0 0.000638985)
(0.00156497 0 0.000680974)
(0.00156225 0 0.000806886)
(0.00160733 0 0.000839462)
(0.00160634 0 0.00100817)
(0.00170414 0 0.00100562)
(0.00173627 0 0.00111527)
(0.00163211 0 0.00136569)
(0.00160968 0 0.0015197)
(0.0015413 0 0.00163184)
(0.00149052 0 0.00166237)
(0.00136508 0 0.00166247)
(0.00149788 0 0.00133717)
(0.000771496 0 0.00150192)
(0.00112217 0 0.000589642)
(6.60969e-05 0 0.000792335)
(0.000574275 0 -0.000168898)
(0.000326849 0 0.000256282)
(0.000310192 0 -0.000287817)
(8.31851e-07 0 -0.000384541)
(-4.37877e-12 0 -1.59508e-12)
(-7.83019e-12 0 -2.17404e-12)
(-8.33653e-12 0 -2.52195e-12)
(-8.40762e-12 0 -2.78849e-12)
(-8.24173e-12 0 -3.04127e-12)
(-7.9176e-12 0 -3.29023e-12)
(-7.48023e-12 0 -3.52564e-12)
(-6.95835e-12 0 -3.73411e-12)
(-6.37303e-12 0 -3.90317e-12)
(-5.74241e-12 0 -4.0226e-12)
(-5.0831e-12 0 -4.08533e-12)
(-4.41038e-12 0 -4.08756e-12)
(-3.73914e-12 0 -4.0282e-12)
(-3.08399e-12 0 -3.90877e-12)
(-2.45831e-12 0 -3.73348e-12)
(-1.87338e-12 0 -3.50887e-12)
(-1.33827e-12 0 -3.2431e-12)
(-8.59872e-13 0 -2.94521e-12)
(-4.42885e-13 0 -2.6246e-12)
(-8.97196e-14 0 -2.29057e-12)
(1.99374e-13 0 -1.95201e-12)
(4.25976e-13 0 -1.61704e-12)
(5.93065e-13 0 -1.29279e-12)
(7.04629e-13 0 -9.85236e-13)
(7.65378e-13 0 -6.99277e-13)
(7.80517e-13 0 -4.38745e-13)
(7.5556e-13 0 -2.06568e-13)
(6.96151e-13 0 -4.89756e-15)
(6.07934e-13 0 1.64742e-13)
(4.96454e-13 0 3.01322e-13)
(3.67107e-13 0 4.04188e-13)
(2.25131e-13 0 4.72945e-13)
(7.58154e-14 0 5.07377e-13)
(1.98473e-05 0 -0.000549424)
(0.000100741 0 -0.000695993)
(0.000114457 0 -0.000692577)
(3.35829e-05 0 -0.000624686)
(4.77134e-05 0 -0.000493154)
(-1.98398e-06 0 -0.000357875)
(-0.000205657 0 -0.000276549)
(-0.000106605 0 -0.000232399)
(-0.000222249 0 -0.000156085)
(-0.000260036 0 -7.08279e-05)
(-0.000253582 0 6.6795e-05)
(-0.000208146 0 0.000217887)
(-0.000254942 0 0.000293298)
(-0.00033773 0 0.000397636)
(-0.000531333 0 0.000484538)
(-0.000730669 0 0.000580192)
(-0.000899891 0 0.000605207)
(-0.00105053 0 0.000608721)
(-0.00114629 0 0.000541058)
(-0.00118409 0 6.78231e-05)
(-0.00106964 0 0.000101639)
(-0.00104228 0 -9.44343e-06)
(-0.000844716 0 -0.000641235)
(-0.00101973 0 -0.000440346)
(-0.000392131 0 -0.00119277)
(-0.00100765 0 -0.000917684)
(-0.000209634 0 -0.00160976)
(-0.000593219 0 -0.00164254)
(-0.000158138 0 -0.00199676)
(-0.000282107 0 -0.00217479)
(-8.11941e-05 0 -0.00231771)
(0.000414523 0 -0.00212861)
(0.000697942 0 -0.00187013)
(0.000741636 0 -0.00170182)
(0.00101486 0 -0.00142808)
(0.00102685 0 -0.0013221)
(0.00128499 0 -0.00100287)
(0.00138238 0 -0.000873525)
(0.00129876 0 -0.0010158)
(0.00152398 0 -0.000634919)
(0.00153927 0 -0.000527388)
(0.00157461 0 -0.00043433)
(0.00161428 0 -0.000288988)
(0.00165534 0 -0.000217287)
(0.00172692 0 -0.000124757)
(0.00173653 0 -5.60484e-05)
(0.00173266 0 -4.54813e-05)
(0.00175635 0 7.03355e-07)
(0.00180911 0 5.4615e-05)
(0.00185148 0 0.0001337)
(0.00187826 0 0.000262549)
(0.00189198 0 0.000257534)
(0.00189236 0 0.000259166)
(0.00190212 0 0.000260502)
(0.00188958 0 0.000444414)
(0.00187358 0 0.000515111)
(0.00184943 0 0.000556557)
(0.00179585 0 0.000601263)
(0.0017437 0 0.000559923)
(0.00166911 0 0.000608481)
(0.00163587 0 0.000558531)
(0.00158049 0 0.000500249)
(0.00148748 0 0.000521104)
(0.00143206 0 0.000635657)
(0.00144688 0 0.000581368)
(0.00142938 0 0.000539323)
(0.00137497 0 0.00058775)
(0.00136832 0 0.000612619)
(0.00138226 0 0.000632558)
(0.001362 0 0.000742725)
(0.00134381 0 0.000880806)
(0.00129243 0 0.00112503)
(0.00147554 0 0.00106975)
(0.00137611 0 0.00134634)
(0.00151836 0 0.00134372)
(0.00168551 0 0.00133647)
(0.00150325 0 0.00162483)
(0.00143521 0 0.00167236)
(0.00135273 0 0.00165824)
(0.00117724 0 0.00162578)
(0.0011605 0 0.00133535)
(0.000922353 0 0.00102148)