0 	306.992
0.010101 	313.823
0.020202 	313.83
