0 	-3.55688e-13 	0 	1.38122e-13
0.010101 	-4.95457e-11 	0 	2.73531e-12
0.020202 	-4.61303e-10 	0 	-7.35191e-11
0.030303 	3.70753e-10 	0 	-5.99429e-12
0.040404 	2.73147e-11 	0 	1.56958e-12
