0 	-25.3235
0.010101 	-18.7278
0.020202 	-18.7278
0.030303 	-18.7278
0.040404 	-18.7278
0.0505051 	-18.7278
0.0606061 	-18.0092
0.0707071 	-17.8397
0.0808081 	-18.7278
0.0909091 	-18.7278
