0 	7.25912e-21 	0 	2.17774e-20
0.010101 	6.68607e-20 	2.02764e-22 	6.77259e-20
0.020202 	-3.50217e-20 	1.01041e-22 	7.54013e-20
0.030303 	-1.16244e-19 	3.72245e-22 	3.21946e-20
0.040404 	9.1417e-21 	3.38281e-22 	7.86428e-20
0.0505051 	-8.48616e-20 	1.01382e-22 	9.78273e-20
