0 	100004
0.010101 	100003
0.020202 	100003
0.030303 	100003
0.040404 	100000
0.0505051 	100000
