/*--------------------------------*- C++ -*----------------------------------*\
  =========                 |
  \\      /  F ield         | OpenFOAM: The Open Source CFD Toolbox
   \\    /   O peration     | Website:  https://openfoam.org
    \\  /    A nd           | Version:  6
     \\/     M anipulation  |
\*---------------------------------------------------------------------------*/
FoamFile
{
    version     2.0;
    format      ascii;
    class       surfaceScalarField;
    location    "3500";
    object      phi;
}
// * * * * * * * * * * * * * * * * * * * * * * * * * * * * * * * * * * * * * //

dimensions      [0 3 -1 0 0 0 0];

internalField   nonuniform List<scalar> 
9440
(
5.07209e-11
-5.07209e-11
8.73828e-11
-3.66632e-11
1.16341e-10
-2.89597e-11
1.87651e-10
-7.13102e-11
2.07025e-10
-1.93749e-11
8.96373e-11
1.17387e-10
-1.61287e-10
2.50924e-10
-3.71465e-10
2.10177e-10
-1.01048e-09
6.39019e-10
-1.50948e-09
4.98999e-10
-1.90397e-09
3.94487e-10
-2.27285e-09
3.68879e-10
-2.54465e-09
2.71795e-10
-2.77191e-09
2.27263e-10
-2.98361e-09
2.11702e-10
-3.16728e-09
1.83664e-10
-3.26561e-09
9.83318e-11
-3.38022e-09
1.14606e-10
-3.4256e-09
4.53736e-11
-3.48633e-09
6.07312e-11
-3.51116e-09
2.48322e-11
-3.51648e-09
5.31861e-12
-3.48726e-09
-2.92275e-11
-3.35087e-09
-1.36382e-10
-3.30615e-09
-4.47205e-11
-3.25449e-09
-5.16585e-11
-3.19507e-09
-5.94175e-11
-3.11527e-09
-7.9798e-11
-2.97113e-09
-1.44128e-10
-2.96486e-09
-6.27166e-12
-2.93612e-09
-2.87282e-11
-2.90172e-09
-3.43994e-11
-2.93553e-09
3.38118e-11
-2.79178e-09
-1.43748e-10
-2.50853e-09
-2.83249e-10
-2.27887e-09
-2.29654e-10
-2.27145e-09
-7.42195e-12
-2.05687e-09
-2.1458e-10
-1.86574e-09
-1.91129e-10
-1.89322e-09
2.74827e-11
-1.75222e-09
-1.41002e-10
-1.6997e-09
-5.2522e-11
-1.5905e-09
-1.09202e-10
-1.48832e-09
-1.02182e-10
-1.42107e-09
-6.72472e-11
-1.27331e-09
-1.4777e-10
-1.16462e-09
-1.08687e-10
-1.02648e-09
-1.38137e-10
-7.71357e-10
-2.55128e-10
-8.21078e-10
4.97204e-11
-5.04762e-10
-3.16316e-10
-4.47053e-10
-5.77091e-11
-2.94414e-10
-1.52639e-10
-1.41579e-10
-1.52835e-10
8.29793e-11
-2.24557e-10
2.27358e-10
-1.44377e-10
3.65356e-10
-1.37997e-10
5.50626e-10
-1.85267e-10
7.13275e-10
-1.62647e-10
9.66132e-10
-2.52854e-10
1.18521e-09
-2.19076e-10
1.42871e-09
-2.43496e-10
1.64796e-09
-2.1925e-10
1.84694e-09
-1.9897e-10
1.86935e-09
-2.2408e-11
2.08997e-09
-2.20614e-10
2.08446e-09
5.51322e-12
2.01295e-09
7.15243e-11
1.8807e-09
1.32254e-10
1.70249e-09
1.78208e-10
1.44345e-09
2.59049e-10
1.12302e-09
3.20435e-10
6.69184e-10
4.53836e-10
2.34453e-10
4.34733e-10
-2.26701e-10
4.61155e-10
-6.2966e-10
4.02958e-10
-9.6203e-10
3.32369e-10
-1.20043e-09
2.38397e-10
-1.40325e-09
2.02815e-10
-9.57582e-10
-4.45668e-10
-2.875e-10
-6.70082e-10
-2.47351e-14
-2.87461e-10
-3.62466e-18
3.42681e-19
-3.0317e-18
-5.92964e-19
-2.49802e-18
-5.3037e-19
-2.07191e-18
-4.29586e-19
-1.72124e-18
-3.54795e-19
-1.41264e-18
-3.11561e-19
-1.12332e-18
-2.91264e-19
-8.40692e-19
-2.83863e-19
-5.59475e-19
-2.81874e-19
-2.78947e-19
-2.80556e-19
-1.08487e-21
-2.77202e-19
2.70691e-19
-2.70426e-19
5.32338e-19
-2.59668e-19
7.79728e-19
-2.44887e-19
1.00898e-18
-2.26368e-19
1.21669e-18
-2.04594e-19
1.40006e-18
-1.80161e-19
1.55697e-18
-1.53716e-19
1.68602e-18
-1.25919e-19
1.78647e-18
-9.74027e-20
1.8582e-18
-6.87565e-20
1.90164e-18
-4.05023e-20
1.91764e-18
-1.30875e-20
1.90745e-18
1.31206e-20
1.87255e-18
3.78342e-20
1.81462e-18
6.08411e-20
1.73549e-18
8.19986e-20
1.63704e-18
1.01223e-19
1.52119e-18
1.18482e-19
1.38987e-18
1.3378e-19
1.24497e-18
1.47153e-19
1.08835e-18
1.58655e-19
9.21837e-19
1.6835e-19
7.47184e-19
1.76305e-19
5.66094e-19
1.82589e-19
3.80205e-19
1.87272e-19
1.9106e-19
1.90447e-19
1.92314e-19
6.32248e-11
-1.13947e-10
4.07842e-11
-1.42245e-11
-6.03113e-11
7.21342e-11
-1.64108e-10
3.24848e-11
-2.0791e-10
2.44259e-11
-3.52013e-10
2.61489e-10
-7.89386e-10
6.88296e-10
-1.13166e-09
5.52454e-10
-1.29234e-09
7.9969e-10
-1.74982e-09
9.5648e-10
-1.98038e-09
6.25045e-10
-2.23919e-09
6.2769e-10
-2.58997e-09
6.2257e-10
-2.77632e-09
4.13612e-10
-3.01434e-09
4.49721e-10
-3.16282e-09
3.32144e-10
-3.30889e-09
2.44399e-10
-3.4286e-09
2.34309e-10
-3.53911e-09
1.55877e-10
-3.59994e-09
1.21562e-10
-3.65184e-09
7.67345e-11
-3.66633e-09
1.9811e-11
-3.64982e-09
-4.57353e-11
-3.59634e-09
-1.89867e-10
-3.54191e-09
-9.91459e-11
-3.54015e-09
-5.34118e-11
-3.46712e-09
-1.3244e-10
-3.42678e-09
-1.20127e-10
-3.37211e-09
-1.9879e-10
-3.36107e-09
-1.73084e-11
-3.23893e-09
-1.50862e-10
-3.09373e-09
-1.7959e-10
-2.97877e-09
-8.11419e-11
-2.78259e-09
-3.39927e-10
-2.60881e-09
-4.5703e-10
-2.43699e-09
-4.01473e-10
-2.32487e-09
-1.19536e-10
-2.34184e-09
-1.97613e-10
-2.05688e-09
-4.76086e-10
-2.17999e-09
1.50591e-10
-2.00711e-09
-3.1389e-10
-1.99304e-09
-6.659e-11
-1.87212e-09
-2.30129e-10
-1.80928e-09
-1.65025e-10
-1.7367e-09
-1.39823e-10
-1.64263e-09
-2.41847e-10
-1.55973e-09
-1.91589e-10
-1.46566e-09
-2.32203e-10
-1.39312e-09
-3.27673e-10
-1.12143e-09
-2.21971e-10
-1.02902e-09
-4.08727e-10
-8.97429e-10
-1.89298e-10
-7.02556e-10
-3.47511e-10
-5.36404e-10
-3.18984e-10
-3.47769e-10
-4.13189e-10
-1.32645e-10
-3.59498e-10
7.53416e-11
-3.4598e-10
2.71064e-10
-3.80985e-10
4.39395e-10
-3.30972e-10
6.15582e-10
-4.29035e-10
8.2333e-10
-4.26816e-10
1.05799e-09
-4.78151e-10
1.2487e-09
-4.09949e-10
1.52165e-09
-4.71912e-10
1.60883e-09
-1.09574e-10
1.80078e-09
-4.12558e-10
1.78732e-09
1.89845e-11
1.76513e-09
9.3726e-11
1.69622e-09
2.01164e-10
1.54526e-09
3.29176e-10
1.36966e-09
4.34654e-10
1.053e-09
6.37101e-10
9.66622e-10
5.4022e-10
7.41024e-10
6.60332e-10
5.58426e-10
6.43753e-10
3.07331e-10
6.54052e-10
8.54186e-11
5.54278e-10
-1.55895e-10
4.79707e-10
-3.26458e-10
3.73372e-10
-5.5449e-10
-2.17648e-10
-1.01965e-10
-1.12264e-09
1.85653e-15
-3.89513e-10
-3.8536e-18
-7.51167e-20
-2.97225e-18
-1.49013e-18
-2.39863e-18
-1.11161e-18
-1.99702e-18
-8.35321e-19
-1.67801e-18
-6.76966e-19
-1.39235e-18
-5.99756e-19
-1.11591e-18
-5.69443e-19
-8.38703e-19
-5.61864e-19
-5.58157e-19
-5.62151e-19
-2.75593e-19
-5.61738e-19
5.69114e-21
-5.55996e-19
2.81448e-19
-5.42679e-19
5.47119e-19
-5.20992e-19
7.98247e-19
-4.91036e-19
1.03075e-18
-4.53481e-19
1.24112e-18
-4.0935e-19
1.4265e-18
-3.5987e-19
1.58477e-18
-3.06364e-19
1.71454e-18
-2.50167e-19
1.81512e-18
-1.92571e-19
1.88646e-18
-1.3477e-19
1.92905e-18
-7.78279e-20
1.94385e-18
-2.26559e-20
1.93216e-18
3.00011e-20
1.89555e-18
7.95649e-20
1.83578e-18
1.25617e-19
1.75472e-18
1.67882e-19
1.6543e-18
2.06213e-19
1.53649e-18
2.40565e-19
1.40324e-18
2.70971e-19
1.25647e-18
2.9752e-19
1.09805e-18
3.20336e-19
9.29793e-19
3.39557e-19
7.53468e-19
3.55326e-19
5.70778e-19
3.67777e-19
3.83379e-19
3.77026e-19
1.92927e-19
3.83168e-19
3.86236e-19
-1.13173e-11
-1.02631e-10
-3.91458e-11
1.36026e-11
-8.55665e-11
1.18554e-10
-3.83073e-10
3.29991e-10
-6.17589e-10
2.58941e-10
-6.793e-10
3.23199e-10
-1.00164e-09
1.01063e-09
-1.59698e-09
1.1478e-09
-1.81752e-09
1.02023e-09
-1.89822e-09
1.03718e-09
-2.29288e-09
1.0197e-09
-2.37638e-09
7.11198e-10
-2.52962e-09
7.75799e-10
-2.88822e-09
7.72219e-10
-2.96184e-09
5.23336e-10
-3.16541e-09
5.35708e-10
-3.31237e-09
3.91357e-10
-3.40466e-09
3.26598e-10
-3.51425e-09
2.6547e-10
-3.55508e-09
1.62389e-10
-3.60229e-09
1.23941e-10
-3.60151e-09
1.90301e-11
-3.59764e-09
-4.96021e-11
-3.65988e-09
-1.27622e-10
-3.64182e-09
-1.17211e-10
-3.58741e-09
-1.07818e-10
-3.54407e-09
-1.75779e-10
-3.44884e-09
-2.1535e-10
-3.44471e-09
-2.02908e-10
-3.39778e-09
-6.42343e-11
-3.34402e-09
-2.04624e-10
-3.22147e-09
-3.02136e-10
-3.00111e-09
-3.015e-10
-2.73722e-09
-6.03811e-10
-2.61966e-09
-5.74587e-10
-2.47916e-09
-5.41973e-10
-2.39056e-09
-2.08134e-10
-2.40066e-09
-1.87511e-10
-2.17609e-09
-7.00666e-10
-2.24761e-09
2.22118e-10
-2.12348e-09
-4.38024e-10
-2.09383e-09
-9.62445e-11
-1.95897e-09
-3.64991e-10
-1.9188e-09
-2.052e-10
-1.82629e-09
-2.32332e-10
-1.74291e-09
-3.2523e-10
-1.6521e-09
-2.82398e-10
-1.57876e-09
-3.0555e-10
-1.50134e-09
-4.05091e-10
-1.29659e-09
-4.26719e-10
-1.30396e-09
-4.01356e-10
-1.03978e-09
-4.53484e-10
-8.64484e-10
-5.22801e-10
-7.15587e-10
-4.67879e-10
-6.57007e-10
-4.71767e-10
-5.36344e-10
-4.80157e-10
-3.8071e-10
-5.0161e-10
-1.8514e-10
-5.76551e-10
6.54679e-11
-5.81575e-10
2.8572e-10
-6.49281e-10
5.31483e-10
-6.72573e-10
7.4422e-10
-6.90883e-10
9.38638e-10
-6.04359e-10
1.1246e-09
-6.57869e-10
1.39541e-09
-3.80377e-10
1.45193e-09
-4.69072e-10
1.49257e-09
-2.16466e-11
1.49087e-09
9.54341e-11
1.44507e-09
2.46967e-10
1.39865e-09
3.75607e-10
1.27331e-09
5.60001e-10
1.18344e-09
7.26974e-10
1.05469e-09
6.68972e-10
9.2589e-10
7.89134e-10
7.73436e-10
7.96207e-10
6.44375e-10
7.83111e-10
4.86565e-10
7.12086e-10
5.29262e-10
4.37007e-10
6.19945e-10
2.8269e-10
4.55137e-10
-5.28268e-11
1.41072e-10
-8.08543e-10
2.06775e-15
-2.48429e-10
-3.64791e-18
-1.39373e-18
-2.59293e-18
-2.54764e-18
-2.12155e-18
-1.58679e-18
-1.83794e-18
-1.12146e-18
-1.6008e-18
-9.15902e-19
-1.36203e-18
-8.39825e-19
-1.10834e-18
-8.23946e-19
-8.3899e-19
-8.31417e-19
-5.57744e-19
-8.4293e-19
-2.69851e-19
-8.48425e-19
1.9008e-20
-8.42857e-19
3.03135e-19
-8.24022e-19
5.77075e-19
-7.91425e-19
8.35802e-19
-7.45652e-19
1.07489e-18
-6.87993e-19
1.2906e-18
-6.20193e-19
1.48001e-18
-5.4425e-19
1.64097e-18
-4.62273e-19
1.77213e-18
-3.76358e-19
1.87292e-18
-2.88501e-19
1.9434e-18
-2.00534e-19
1.98422e-18
-1.14069e-19
1.99651e-18
-3.04736e-20
1.98173e-18
4.91479e-20
1.94161e-18
1.23948e-19
1.87804e-18
1.93321e-19
1.79305e-18
2.56881e-19
1.68865e-18
3.14432e-19
1.5669e-18
3.65929e-19
1.42979e-18
4.11444e-19
1.27929e-18
4.51131e-19
1.11727e-18
4.85192e-19
9.45562e-19
5.13854e-19
7.65919e-19
5.37342e-19
5.80027e-19
5.55865e-19
3.89521e-19
5.69602e-19
1.95995e-19
5.7869e-19
5.83211e-19
-1.73327e-10
7.06959e-11
-3.62347e-10
2.02621e-10
-5.03126e-10
2.59332e-10
-6.89232e-10
5.16097e-10
-1.13351e-09
7.0322e-10
-1.43143e-09
6.21113e-10
-1.57079e-09
1.14999e-09
-1.79602e-09
1.37303e-09
-2.07094e-09
1.29515e-09
-2.19365e-09
1.15988e-09
-2.37332e-09
1.19938e-09
-2.49204e-09
8.29908e-10
-2.64937e-09
9.33138e-10
-2.7885e-09
9.11348e-10
-2.95734e-09
6.92175e-10
-3.11062e-09
6.88986e-10
-3.25623e-09
5.36965e-10
-3.36919e-09
4.39554e-10
-3.37597e-09
2.72245e-10
-3.44696e-09
2.33384e-10
-3.46749e-09
1.44463e-10
-3.46502e-09
1.65635e-11
-3.44285e-09
-7.17741e-11
-3.4717e-09
-9.87692e-11
-3.50187e-09
-8.7047e-11
-3.51104e-09
-9.86468e-11
-3.50746e-09
-1.79349e-10
-3.5397e-09
-1.83115e-10
-3.55202e-09
-1.90585e-10
-3.4097e-09
-2.06554e-10
-3.26813e-09
-3.46185e-10
-3.17755e-09
-3.92718e-10
-3.0293e-09
-4.4974e-10
-3.02154e-09
-6.11568e-10
-2.87945e-09
-7.16681e-10
-2.72068e-09
-7.00738e-10
-2.496e-09
-4.32817e-10
-2.30137e-09
-3.82145e-10
-2.45154e-09
-5.50496e-10
-2.15994e-09
-6.94864e-11
-2.11928e-09
-4.78687e-10
-2.07461e-09
-1.40908e-10
-1.98956e-09
-4.50046e-10
-1.90738e-09
-2.8738e-10
-1.82441e-09
-3.15305e-10
-1.75966e-09
-3.89983e-10
-1.65456e-09
-3.87497e-10
-1.57975e-09
-3.80371e-10
-1.49648e-09
-4.88361e-10
-1.37016e-09
-5.53038e-10
-1.28436e-09
-4.87157e-10
-1.06238e-09
-6.75461e-10
-9.18985e-10
-6.66196e-10
-7.52465e-10
-6.34398e-10
-6.64259e-10
-5.59971e-10
-5.61671e-10
-5.82741e-10
-4.8904e-10
-5.74238e-10
-4.20632e-10
-6.44954e-10
-2.73541e-10
-7.28662e-10
-1.09076e-10
-8.13742e-10
1.39296e-10
-9.2094e-10
3.86318e-10
-9.379e-10
6.43937e-10
-8.61973e-10
7.96676e-10
-8.10602e-10
1.07899e-09
-6.62681e-10
1.07352e-09
-4.636e-10
1.17693e-09
-1.25049e-10
1.21587e-09
5.65005e-11
1.22669e-09
2.36152e-10
1.23993e-09
3.6237e-10
1.2044e-09
5.95542e-10
1.16457e-09
7.66808e-10
1.07896e-09
7.54577e-10
1.05182e-09
8.16279e-10
9.96405e-10
8.51623e-10
9.75649e-10
8.03866e-10
9.33495e-10
7.54237e-10
9.5406e-10
4.16436e-10
7.03055e-10
5.33683e-10
8.20502e-10
-1.70288e-10
5.50424e-10
-5.38466e-10
3.73139e-16
3.01994e-10
-1.69793e-18
2.11732e-18
-1.6314e-18
-2.61466e-18
-1.6555e-18
-1.56379e-18
-1.63175e-18
-1.14607e-18
-1.52472e-18
-1.02346e-18
-1.34616e-18
-1.01864e-18
-1.11581e-18
-1.05425e-18
-8.50503e-19
-1.09632e-18
-5.6324e-19
-1.12939e-18
-2.64283e-19
-1.1461e-18
3.78431e-20
-1.14313e-18
3.35733e-19
-1.11941e-18
6.22848e-19
-1.07537e-18
8.93461e-19
-1.01246e-18
1.14269e-18
-9.32892e-19
1.36655e-18
-8.3933e-19
1.56199e-18
-7.3473e-19
1.72688e-18
-6.22123e-19
1.85999e-18
-5.0447e-19
1.96089e-18
-3.84549e-19
2.02986e-18
-2.64862e-19
2.06782e-18
-1.47587e-19
2.07613e-18
-3.45416e-20
2.05653e-18
7.28275e-20
2.01098e-18
1.73428e-19
1.94161e-18
2.66498e-19
1.8506e-18
3.51571e-19
1.74015e-18
4.28429e-19
1.61241e-18
4.97053e-19
1.46948e-18
5.57581e-19
1.31335e-18
6.10256e-19
1.14593e-18
6.55381e-19
9.6905e-19
6.93288e-19
7.84441e-19
7.24305e-19
5.93764e-19
7.4873e-19
3.98609e-19
7.66821e-19
2.00516e-19
7.78773e-19
7.84719e-19
-1.79803e-10
2.50498e-10
-3.21567e-10
3.44384e-10
-4.93458e-10
4.31223e-10
-6.28121e-10
6.50759e-10
-1.10247e-09
1.17756e-09
-1.57462e-09
1.09326e-09
-1.71428e-09
1.28965e-09
-1.78101e-09
1.43976e-09
-1.85223e-09
1.36637e-09
-1.98433e-09
1.29198e-09
-2.07912e-09
1.29416e-09
-2.3839e-09
1.13469e-09
-2.64605e-09
1.19528e-09
-2.69218e-09
9.57479e-10
-2.89524e-09
8.95226e-10
-2.97275e-09
7.66497e-10
-3.07798e-09
6.42192e-10
-3.13797e-09
4.99546e-10
-3.13192e-09
2.66193e-10
-3.18298e-09
2.84442e-10
-3.19581e-09
1.57294e-10
-3.22671e-09
4.7468e-11
-3.27039e-09
-2.8097e-11
-3.33326e-09
-3.59068e-11
-3.339e-09
-8.13073e-11
-3.3256e-09
-1.12043e-10
-3.35814e-09
-1.46811e-10
-3.38285e-09
-1.58404e-10
-3.38336e-09
-1.90077e-10
-3.32166e-09
-2.68257e-10
-3.25809e-09
-4.09745e-10
-3.17101e-09
-4.79795e-10
-3.05595e-09
-5.64799e-10
-3.01077e-09
-6.56754e-10
-2.99119e-09
-7.36256e-10
-2.87875e-09
-8.13174e-10
-2.62817e-09
-6.83396e-10
-2.4666e-09
-5.43723e-10
-2.59978e-09
-4.17319e-10
-2.16814e-09
-5.0112e-10
-2.18553e-09
-4.61301e-10
-2.0581e-09
-2.68339e-10
-1.98138e-09
-5.26776e-10
-1.86887e-09
-3.99892e-10
-1.77624e-09
-4.07934e-10
-1.72631e-09
-4.39915e-10
-1.60959e-09
-5.04221e-10
-1.52116e-09
-4.68802e-10
-1.43497e-09
-5.74548e-10
-1.38996e-09
-5.98056e-10
-1.18995e-09
-6.87165e-10
-1.03938e-09
-8.26029e-10
-8.75262e-10
-8.30313e-10
-6.84948e-10
-8.2471e-10
-5.85111e-10
-6.59805e-10
-4.88217e-10
-6.79633e-10
-4.27746e-10
-6.34705e-10
-3.38945e-10
-7.33751e-10
-2.13881e-10
-8.53721e-10
-9.26675e-11
-9.34951e-10
2.89896e-12
-1.0165e-09
1.33808e-10
-1.0688e-09
3.61011e-10
-1.08917e-09
5.65089e-10
-1.01468e-09
7.42301e-10
-8.39888e-10
8.04949e-10
-5.26242e-10
8.40172e-10
-1.60267e-10
8.93529e-10
3.14851e-12
9.89077e-10
1.40609e-10
1.06091e-09
2.90544e-10
1.11939e-09
5.37063e-10
1.12149e-09
7.64713e-10
1.10103e-09
7.75035e-10
1.112e-09
8.05314e-10
1.13283e-09
8.30792e-10
1.14002e-09
7.96682e-10
1.14611e-09
7.48149e-10
1.07781e-09
4.84734e-10
1.02619e-09
5.85302e-10
8.44442e-10
1.14557e-11
6.1464e-10
-3.08666e-10
1.75831e-14
9.16616e-10
2.03203e-18
1.80508e-14
-5.79929e-19
-2.87643e-21
-1.23711e-18
-9.05587e-19
-1.50858e-18
-8.73867e-19
-1.51991e-18
-1.01142e-18
-1.38176e-18
-1.15601e-18
-1.15788e-18
-1.27725e-18
-8.83572e-19
-1.36959e-18
-5.79955e-19
-1.43178e-18
-2.61307e-19
-1.46331e-18
6.15647e-20
-1.46422e-18
3.79774e-19
-1.43536e-18
6.8575e-19
-1.37851e-18
9.73032e-19
-1.29631e-18
1.23625e-18
-1.19211e-18
1.47115e-18
-1.06977e-18
1.67459e-18
-9.33393e-19
1.84454e-18
-7.87118e-19
1.97991e-18
-6.34907e-19
2.08057e-18
-4.80408e-19
2.14714e-18
-3.26854e-19
2.18087e-18
-1.77006e-19
2.1835e-18
-3.31243e-20
2.15713e-18
1.03026e-19
2.10405e-18
2.30148e-19
2.02668e-18
3.47368e-19
1.92745e-18
4.54182e-19
1.80877e-18
5.50396e-19
1.67294e-18
6.36063e-19
1.52215e-18
7.11421e-19
1.35847e-18
7.76834e-19
1.18384e-18
8.3274e-19
1.00007e-18
8.79601e-19
8.08867e-19
9.17869e-19
6.11854e-19
9.47955e-19
4.10562e-19
9.70206e-19
2.06462e-19
9.84892e-19
9.92196e-19
-1.80279e-10
4.30777e-10
-5.2006e-10
6.84164e-10
-8.29955e-10
7.41117e-10
-9.0115e-10
7.21953e-10
-9.36559e-10
1.21297e-09
-1.38761e-09
1.54431e-09
-1.60705e-09
1.50909e-09
-1.72826e-09
1.56097e-09
-1.84419e-09
1.4823e-09
-2.07896e-09
1.52675e-09
-2.16061e-09
1.3758e-09
-2.33561e-09
1.3097e-09
-2.45913e-09
1.3188e-09
-2.5626e-09
1.06095e-09
-2.69188e-09
1.02451e-09
-2.7456e-09
8.20218e-10
-2.82303e-09
7.1962e-10
-2.82142e-09
4.97936e-10
-2.88598e-09
3.30757e-10
-2.92695e-09
3.25409e-10
-2.94288e-09
1.73223e-10
-2.94606e-09
5.06425e-11
-3.01321e-09
3.9057e-11
-3.04808e-09
-1.0465e-12
-3.05561e-09
-7.37739e-11
-3.07465e-09
-9.3009e-11
-3.10776e-09
-1.13704e-10
-3.1056e-09
-1.60563e-10
-3.09146e-09
-2.0422e-10
-3.08181e-09
-2.77901e-10
-3.09637e-09
-3.95191e-10
-3.10424e-09
-4.71921e-10
-3.0502e-09
-6.18841e-10
-2.9964e-09
-7.10551e-10
-2.93744e-09
-7.95215e-10
-2.93056e-09
-8.20054e-10
-2.79153e-09
-8.22428e-10
-2.71445e-09
-6.20796e-10
-2.52905e-09
-6.02724e-10
-2.3129e-09
-7.17268e-10
-2.21961e-09
-5.546e-10
-1.99451e-09
-4.93443e-10
-1.92107e-09
-6.00219e-10
-1.81231e-09
-5.08649e-10
-1.71341e-09
-5.06833e-10
-1.60857e-09
-5.44762e-10
-1.46841e-09
-6.44379e-10
-1.35943e-09
-5.77783e-10
-1.29564e-09
-6.38339e-10
-1.25774e-09
-6.35959e-10
-1.05522e-09
-8.89682e-10
-9.30401e-10
-9.50853e-10
-7.77967e-10
-9.82746e-10
-5.84663e-10
-1.01801e-09
-4.05836e-10
-8.3863e-10
-2.67487e-10
-8.17978e-10
-2.67223e-10
-6.34966e-10
-2.71619e-10
-7.29351e-10
-2.08682e-10
-9.16654e-10
-9.16542e-11
-1.05197e-09
4.30603e-11
-1.15121e-09
1.44056e-10
-1.1698e-09
2.27796e-10
-1.17291e-09
2.82343e-10
-1.06922e-09
3.56756e-10
-9.14298e-10
5.05165e-10
-6.74647e-10
5.92122e-10
-2.4722e-10
6.60178e-10
-6.4903e-11
7.805e-10
2.02907e-11
8.72104e-10
1.98943e-10
9.59445e-10
4.49726e-10
1.0234e-09
7.00764e-10
1.10307e-09
6.95362e-10
1.13486e-09
7.73533e-10
1.15371e-09
8.11935e-10
1.1612e-09
7.89198e-10
1.17897e-09
7.30378e-10
1.09606e-09
5.67645e-10
1.08799e-09
5.93372e-10
8.33932e-10
2.65512e-10
4.56101e-10
6.91637e-11
2.99689e-11
1.34275e-09
4.35732e-18
2.99877e-11
4.38217e-19
6.43998e-18
-1.20471e-18
7.37766e-19
-1.64566e-18
-4.31261e-19
-1.6645e-18
-9.90856e-19
-1.50301e-18
-1.31581e-18
-1.25022e-18
-1.52839e-18
-9.45762e-19
-1.67238e-18
-6.1148e-19
-1.76435e-18
-2.62214e-19
-1.81086e-18
9.04223e-20
-1.81505e-18
4.36623e-19
-1.77952e-18
7.6795e-19
-1.70738e-18
1.07723e-18
-1.60262e-18
1.35859e-18
-1.46997e-18
1.60752e-18
-1.3147e-18
1.82087e-18
-1.14235e-18
1.99675e-18
-9.58354e-19
2.13441e-18
-7.67857e-19
2.23413e-18
-5.75495e-19
2.29699e-18
-3.85295e-19
2.32475e-18
-2.00625e-19
2.31965e-18
-2.41741e-20
2.28425e-18
1.42015e-19
2.22127e-18
2.96497e-19
2.13349e-18
4.38349e-19
2.02367e-18
5.67099e-19
1.89444e-18
6.8264e-19
1.7483e-18
7.85154e-19
1.58757e-18
8.75032e-19
1.41438e-18
9.52805e-19
1.2307e-18
1.01908e-18
1.03833e-18
1.07449e-18
8.38953e-19
1.11963e-18
6.34105e-19
1.15504e-18
4.25248e-19
1.1812e-18
2.13766e-19
1.19843e-18
1.207e-18
-1.12388e-10
5.43165e-10
-3.64203e-10
9.35979e-10
-7.56389e-10
1.1333e-09
-1.13082e-09
1.09638e-09
-1.16488e-09
1.24704e-09
-1.25922e-09
1.63865e-09
-1.42746e-09
1.67733e-09
-1.56783e-09
1.70134e-09
-1.73045e-09
1.64492e-09
-1.85393e-09
1.65023e-09
-2.01709e-09
1.53896e-09
-2.19914e-09
1.49175e-09
-2.2726e-09
1.39225e-09
-2.39481e-09
1.18316e-09
-2.41396e-09
1.04366e-09
-2.43945e-09
8.457e-10
-2.45244e-09
7.32618e-10
-2.52932e-09
5.74816e-10
-2.60227e-09
4.03707e-10
-2.6219e-09
3.45033e-10
-2.63875e-09
1.90075e-10
-2.67615e-09
8.80343e-11
-2.71405e-09
7.69582e-11
-2.70949e-09
-5.61353e-12
-2.75668e-09
-2.65873e-11
-2.7836e-09
-6.60842e-11
-2.79929e-09
-9.80169e-11
-2.79399e-09
-1.65868e-10
-2.79891e-09
-1.993e-10
-2.81633e-09
-2.60482e-10
-2.84835e-09
-3.63173e-10
-2.86474e-09
-4.55532e-10
-2.88142e-09
-6.02155e-10
-2.87459e-09
-7.17379e-10
-2.86791e-09
-8.01893e-10
-2.90063e-09
-7.87336e-10
-2.89984e-09
-8.23215e-10
-2.79391e-09
-7.2673e-10
-2.48931e-09
-9.07322e-10
-2.44271e-09
-7.63877e-10
-2.12911e-09
-8.68197e-10
-1.97753e-09
-6.45025e-10
-1.88245e-09
-6.95301e-10
-1.71562e-09
-6.75487e-10
-1.56932e-09
-6.53136e-10
-1.36005e-09
-7.54035e-10
-1.18572e-09
-8.18706e-10
-1.01989e-09
-7.43612e-10
-9.18314e-10
-7.39919e-10
-8.16043e-10
-7.3823e-10
-8.04616e-10
-9.0111e-10
-7.87156e-10
-9.68313e-10
-6.59112e-10
-1.11079e-09
-4.26786e-10
-1.25034e-09
-1.44013e-10
-1.1214e-09
2.22983e-11
-9.84287e-10
-4.61683e-11
-5.66496e-10
-1.55678e-10
-6.19837e-10
-1.86231e-10
-8.86098e-10
-1.29871e-10
-1.10833e-09
-6.68102e-11
-1.21427e-09
2.93008e-12
-1.23953e-09
9.14179e-11
-1.26139e-09
1.40947e-10
-1.11874e-09
1.40605e-10
-9.13953e-10
2.30144e-10
-7.64184e-10
3.83887e-10
-4.0096e-10
4.71711e-10
-1.52724e-10
5.33571e-10
-4.15663e-11
6.48807e-10
8.37099e-11
7.16577e-10
3.81959e-10
9.40638e-10
4.76707e-10
1.07806e-09
5.5794e-10
1.10682e-09
7.44777e-10
1.09774e-09
8.21016e-10
1.1334e-09
7.5354e-10
1.14425e-09
7.19533e-10
1.05322e-09
6.58665e-10
9.55011e-10
6.91587e-10
6.88592e-10
5.31932e-10
2.62252e-10
4.95505e-10
2.28345e-10
1.37666e-09
-7.63683e-16
2.58335e-10
-2.65013e-18
1.69333e-18
-2.37295e-18
4.61503e-19
-2.20482e-18
-5.97476e-19
-1.98945e-18
-1.20407e-18
-1.71558e-18
-1.58749e-18
-1.39421e-18
-1.8476e-18
-1.03774e-18
-2.02664e-18
-6.57987e-19
-2.1419e-18
-2.66407e-19
-2.20035e-18
1.25957e-19
-2.20547e-18
5.08755e-19
-2.16041e-18
8.72713e-19
-2.06925e-18
1.20988e-18
-1.93734e-18
1.51385e-18
-1.77103e-18
1.77988e-18
-1.57735e-18
2.00486e-18
-1.36353e-18
2.18724e-18
-1.1366e-18
2.32677e-18
-9.03081e-19
2.42433e-18
-6.68736e-19
2.48166e-18
-4.38461e-19
2.5012e-18
-2.16243e-19
2.48584e-18
-5.1748e-21
2.43873e-18
1.92486e-19
2.36312e-18
3.75225e-19
2.26224e-18
5.42162e-19
2.13921e-18
6.92947e-19
1.99695e-18
8.27646e-19
1.83818e-18
9.46646e-19
1.66534e-18
1.05056e-18
1.48065e-18
1.14014e-18
1.28611e-18
1.21621e-18
1.08347e-18
1.27961e-18
8.7437e-19
1.33112e-18
6.60256e-19
1.37143e-18
4.42487e-19
1.40114e-18
2.22335e-19
1.4207e-18
1.43041e-18
-3.70487e-10
9.13652e-10
-4.24857e-10
9.90348e-10
-5.56036e-10
1.26448e-09
-9.93745e-10
1.53409e-09
-1.3695e-09
1.62279e-09
-1.44982e-09
1.71898e-09
-1.57916e-09
1.80666e-09
-1.61149e-09
1.73368e-09
-1.72696e-09
1.76038e-09
-1.80363e-09
1.72691e-09
-1.91976e-09
1.6551e-09
-2.04088e-09
1.61286e-09
-2.06514e-09
1.41651e-09
-2.048e-09
1.16603e-09
-2.13701e-09
1.13266e-09
-2.17059e-09
8.79275e-10
-2.09445e-09
6.56481e-10
-2.14088e-09
6.2124e-10
-2.22089e-09
4.83718e-10
-2.26247e-09
3.86609e-10
-2.27955e-09
2.07157e-10
-2.35947e-09
1.67951e-10
-2.42157e-09
1.39053e-10
-2.4715e-09
4.43137e-11
-2.54093e-09
4.28403e-11
-2.51054e-09
-9.64761e-11
-2.51034e-09
-9.82145e-11
-2.51892e-09
-1.57292e-10
-2.51653e-09
-2.01692e-10
-2.51013e-09
-2.66889e-10
-2.54079e-09
-3.32511e-10
-2.57265e-09
-4.23666e-10
-2.63358e-09
-5.41229e-10
-2.64626e-09
-7.04701e-10
-2.63671e-09
-8.11444e-10
-2.65259e-09
-7.71447e-10
-2.6583e-09
-8.17505e-10
-2.50035e-09
-8.84682e-10
-2.45267e-09
-9.54998e-10
-2.32533e-09
-8.91221e-10
-2.11585e-09
-1.07768e-09
-2.04219e-09
-7.18687e-10
-1.83715e-09
-9.00346e-10
-1.66298e-09
-8.49663e-10
-1.49592e-09
-8.20191e-10
-1.152e-09
-1.09796e-09
-9.09941e-10
-1.06077e-09
-6.75149e-10
-9.78405e-10
-4.9327e-10
-9.21799e-10
-3.28948e-10
-9.02552e-10
-3.41578e-10
-8.8848e-10
-3.64583e-10
-9.45308e-10
-3.43153e-10
-1.13222e-09
-2.41289e-10
-1.3522e-09
-1.7358e-11
-1.34533e-09
1.77044e-10
-1.17869e-09
1.88391e-10
-5.7784e-10
2.52399e-11
-4.56683e-10
-1.10685e-10
-7.5017e-10
-1.28558e-10
-1.09045e-09
-1.10962e-10
-1.23186e-09
-8.8879e-11
-1.26161e-09
-7.14317e-11
-1.27884e-09
-3.67377e-11
-1.15343e-09
-1.96079e-11
-9.3108e-10
-2.28327e-11
-7.60957e-10
1.27382e-10
-5.51172e-10
2.74149e-10
-2.99488e-10
3.39794e-10
-1.07209e-10
4.0816e-10
1.53467e-11
5.48083e-10
2.42039e-10
8.0126e-10
2.23533e-10
8.63796e-10
4.95406e-10
9.49279e-10
6.59296e-10
1.05895e-09
7.11344e-10
1.10403e-09
7.08464e-10
1.08626e-09
7.37302e-10
9.94597e-10
7.50333e-10
9.07647e-10
7.78538e-10
6.88553e-10
7.51029e-10
4.22821e-10
7.6124e-10
4.17375e-10
1.38211e-09
-4.47151e-16
6.75713e-10
-4.65483e-18
-9.88682e-19
-3.43113e-18
-7.60958e-19
-2.81101e-18
-1.21575e-18
-2.37287e-18
-1.64015e-18
-1.9757e-18
-1.98242e-18
-1.57325e-18
-2.24776e-18
-1.15299e-18
-2.44444e-18
-7.16442e-19
-2.5759e-18
-2.7153e-19
-2.64282e-18
1.71026e-19
-2.64585e-18
5.99912e-19
-2.58739e-18
1.00462e-18
-2.47213e-18
1.37619e-18
-2.30691e-18
1.70754e-18
-2.10008e-18
1.9937e-18
-1.86083e-18
2.23179e-18
-1.59852e-18
2.42076e-18
-1.32209e-18
2.56112e-18
-1.03969e-18
2.6546e-18
-7.58364e-19
2.70387e-18
-4.83932e-19
2.71227e-18
-2.21001e-19
2.6835e-18
2.699e-20
2.62147e-18
2.57657e-19
2.53006e-18
4.69529e-19
2.41303e-18
6.61892e-19
2.27391e-18
8.34634e-19
2.11595e-18
9.88107e-19
1.94209e-18
1.123e-18
1.75492e-18
1.24023e-18
1.55673e-18
1.34084e-18
1.3495e-18
1.42593e-18
1.13498e-18
1.49658e-18
9.14684e-19
1.55379e-18
6.89965e-19
1.59844e-18
4.62044e-19
1.63128e-18
2.32049e-19
1.65285e-18
1.66356e-18
-4.60273e-11
9.59679e-10
-2.5715e-10
1.20147e-09
-4.21627e-10
1.42896e-09
-5.68502e-10
1.68097e-09
-8.62798e-10
1.91709e-09
-1.09444e-09
1.95061e-09
-1.25296e-09
1.96518e-09
-1.44179e-09
1.9225e-09
-1.54005e-09
1.85864e-09
-1.60714e-09
1.794e-09
-1.71089e-09
1.75884e-09
-1.78641e-09
1.68839e-09
-1.75809e-09
1.38818e-09
-1.84907e-09
1.25701e-09
-1.84811e-09
1.1317e-09
-1.84665e-09
8.77818e-10
-1.87049e-09
6.80321e-10
-1.79651e-09
5.47262e-10
-1.83116e-09
5.18362e-10
-1.87842e-09
4.3387e-10
-1.97376e-09
3.02488e-10
-2.04874e-09
2.42935e-10
-2.10671e-09
1.97021e-10
-2.1793e-09
1.16903e-10
-2.21253e-09
7.60618e-11
-2.22252e-09
-8.64794e-11
-2.27166e-09
-4.90811e-11
-2.29472e-09
-1.34233e-10
-2.28107e-09
-2.15349e-10
-2.28022e-09
-2.67743e-10
-2.27853e-09
-3.34193e-10
-2.3207e-09
-3.81503e-10
-2.38802e-09
-4.73909e-10
-2.41296e-09
-6.79761e-10
-2.43723e-09
-7.87166e-10
-2.4553e-09
-7.53375e-10
-2.4392e-09
-8.3361e-10
-2.36518e-09
-9.587e-10
-2.33961e-09
-9.80567e-10
-2.11087e-09
-1.11996e-09
-2.23517e-09
-9.53383e-10
-1.93739e-09
-1.01646e-09
-1.78766e-09
-1.05008e-09
-1.59034e-09
-1.04698e-09
-1.31064e-09
-1.0999e-09
-1.01668e-09
-1.39192e-09
-7.87097e-10
-1.29035e-09
-5.08911e-10
-1.25659e-09
-2.25299e-10
-1.20541e-09
2.32619e-12
-1.13018e-09
9.546e-11
-9.81614e-10
5.74992e-11
-9.07347e-10
-1.01173e-10
-9.73545e-10
-9.67481e-11
-1.35662e-09
1.36171e-11
-1.45569e-09
1.60442e-10
-1.32551e-09
2.50386e-10
-6.67781e-10
1.14913e-10
-3.21207e-10
-4.16166e-11
-5.93636e-10
-1.42289e-10
-9.89777e-10
-1.86341e-10
-1.18781e-09
-2.11919e-10
-1.23603e-09
-2.56926e-10
-1.23383e-09
-2.59784e-10
-1.15057e-09
-1.95788e-10
-9.95074e-10
-1.56954e-10
-7.99789e-10
-8.8542e-11
-6.19582e-10
4.77469e-11
-4.35774e-10
1.67626e-10
-2.27086e-10
2.4683e-10
-6.38551e-11
4.1394e-10
7.49319e-11
5.00156e-10
1.37321e-10
6.38488e-10
3.57078e-10
7.9684e-10
5.00946e-10
9.32909e-10
5.75278e-10
9.79487e-10
6.61888e-10
9.99354e-10
7.17437e-10
9.17117e-10
8.32572e-10
8.09543e-10
8.86113e-10
5.76868e-10
9.83706e-10
3.84381e-10
9.53728e-10
4.00029e-10
1.36646e-09
-2.49793e-17
1.07574e-09
-4.79875e-18
-1.27545e-18
-3.88517e-18
-1.67342e-18
-3.23507e-18
-1.86464e-18
-2.71514e-18
-2.15866e-18
-2.24103e-18
-2.4548e-18
-1.76993e-18
-2.71699e-18
-1.28445e-18
-2.92765e-18
-7.83357e-19
-3.07444e-18
-2.74567e-19
-3.14899e-18
2.29491e-19
-3.14751e-18
7.1517e-19
-3.07107e-18
1.16984e-18
-2.9251e-18
1.58301e-18
-2.71843e-18
1.94678e-18
-2.46206e-18
2.25602e-18
-2.16801e-18
2.50821e-18
-1.84831e-18
2.70316e-18
-1.51425e-18
2.84245e-18
-1.17588e-18
2.92903e-18
-8.41643e-19
2.9668e-18
-5.1835e-19
2.96026e-18
-2.11175e-19
2.91417e-18
7.61951e-20
2.83334e-18
3.41389e-19
2.72242e-18
5.83133e-19
2.58577e-18
8.01035e-19
2.42738e-18
9.95376e-19
2.25085e-18
1.16693e-18
2.05932e-18
1.31681e-18
1.85553e-18
1.44633e-18
1.64182e-18
1.55691e-18
1.42015e-18
1.64999e-18
1.19219e-18
1.72694e-18
9.59337e-19
1.78901e-18
7.22797e-19
1.8373e-18
4.83622e-19
1.87271e-18
2.42755e-19
1.89593e-18
1.90744e-18
-1.71452e-10
1.13113e-09
-3.72267e-10
1.40229e-09
-6.08757e-10
1.66545e-09
-7.59317e-10
1.83153e-09
-8.04254e-10
1.96202e-09
-9.47637e-10
2.094e-09
-1.05254e-09
2.07009e-09
-1.26213e-09
2.13209e-09
-1.43955e-09
2.03606e-09
-1.55262e-09
1.90706e-09
-1.60228e-09
1.8085e-09
-1.49313e-09
1.57924e-09
-1.52712e-09
1.42216e-09
-1.57284e-09
1.30272e-09
-1.48929e-09
1.04816e-09
-1.44926e-09
8.37778e-10
-1.54358e-09
7.74642e-10
-1.58346e-09
5.87142e-10
-1.58466e-09
5.19561e-10
-1.58283e-09
4.32035e-10
-1.66322e-09
3.82877e-10
-1.74799e-09
3.27707e-10
-1.74615e-09
1.95178e-10
-1.88427e-09
2.5502e-10
-1.93195e-09
1.23742e-10
-2.00384e-09
-1.4595e-11
-2.06556e-09
1.26433e-11
-2.05253e-09
-1.47267e-10
-2.05218e-09
-2.15704e-10
-2.05638e-09
-2.63539e-10
-2.03518e-09
-3.55399e-10
-2.04528e-09
-3.71404e-10
-2.104e-09
-4.15191e-10
-2.16856e-09
-6.15202e-10
-2.19006e-09
-7.65668e-10
-2.21271e-09
-7.30719e-10
-2.15175e-09
-8.94567e-10
-2.10206e-09
-1.00839e-09
-2.083e-09
-9.99623e-10
-2.0892e-09
-1.11376e-09
-1.86214e-09
-1.18044e-09
-1.63674e-09
-1.24186e-09
-1.58702e-09
-1.09981e-09
-1.35404e-09
-1.27996e-09
-1.00253e-09
-1.45141e-09
-7.66792e-10
-1.62766e-09
-4.36109e-10
-1.62103e-09
-1.00294e-10
-1.59241e-09
2.79266e-10
-1.58497e-09
4.899e-10
-1.34081e-09
4.42979e-10
-9.34692e-10
3.52583e-10
-8.16951e-10
3.53309e-10
-9.7427e-10
3.07889e-10
-1.3112e-09
1.94946e-10
-1.34275e-09
1.50508e-10
-1.28107e-09
1.79175e-10
-6.96446e-10
1.7906e-12
-1.43819e-10
-1.3764e-10
-4.54203e-10
-2.53137e-10
-8.74277e-10
-3.43474e-10
-1.09747e-09
-3.85013e-10
-1.19449e-09
-3.9336e-10
-1.22548e-09
-3.66958e-10
-1.17697e-09
-3.81008e-10
-9.81022e-10
-3.25645e-10
-8.5515e-10
-2.5934e-10
-6.85886e-10
-1.64391e-10
-5.30721e-10
-4.44378e-11
-3.47037e-10
7.63777e-11
-1.84668e-10
2.07461e-10
-5.61486e-11
2.81858e-10
6.29269e-11
4.51379e-10
1.8756e-10
5.91717e-10
3.60611e-10
7.58364e-10
4.08634e-10
9.08315e-10
5.1194e-10
8.10521e-10
8.15234e-10
7.00303e-10
9.42793e-10
6.36058e-10
9.50361e-10
4.74424e-10
1.14534e-09
3.74257e-10
1.0539e-09
3.34244e-10
1.40648e-09
2.39921e-16
1.40999e-09
-4.65636e-18
-1.14352e-18
-4.07571e-18
-2.25337e-18
-3.5288e-18
-2.41129e-18
-3.01129e-18
-2.67585e-18
-2.50323e-18
-2.9621e-18
-1.98059e-18
-3.23869e-18
-1.43125e-18
-3.47538e-18
-8.57901e-19
-3.64563e-18
-2.73092e-19
-3.73133e-18
3.05932e-19
-3.72411e-18
8.61138e-19
-3.62424e-18
1.37651e-18
-3.43885e-18
1.83938e-18
-3.1799e-18
2.24084e-18
-2.86214e-18
2.57572e-18
-2.50137e-18
2.84227e-18
-2.11306e-18
3.04153e-18
-1.71137e-18