/*--------------------------------*- C++ -*----------------------------------*\
  =========                 |
  \\      /  F ield         | OpenFOAM: The Open Source CFD Toolbox
   \\    /   O peration     | Website:  https://openfoam.org
    \\  /    A nd           | Version:  6
     \\/     M anipulation  |
\*---------------------------------------------------------------------------*/
FoamFile
{
    version     2.0;
    format      ascii;
    class       volScalarField;
    location    "3500";
    object      T;
}
// * * * * * * * * * * * * * * * * * * * * * * * * * * * * * * * * * * * * * //

dimensions      [0 0 0 1 0 0 0];

internalField   nonuniform List<scalar> 
4800
(
552.483
552.348
552.214
552.082
551.952
551.824
551.7
551.581
551.468
551.362
551.264
551.177
551.098
551.029
550.967
550.912
550.864
550.821
550.782
550.747
550.715
550.685
550.657
550.63
550.604
550.578
550.552
550.526
550.499
550.472
550.443
550.413
550.383
550.35
550.316
550.28
550.241
550.2
550.156
550.11
550.061
550.009
549.955
549.899
549.839
549.777
549.713
549.646
549.577
549.505
549.43
549.353
549.274
549.192
549.107
549.021
548.931
548.84
548.746
548.65
548.552
548.452
548.349
548.242
548.131
548.014
547.892
547.762
547.624
547.477
547.322
547.158
546.984
546.803
546.615
546.423
546.228
546.033
545.84
545.654
545.474
545.301
545.135
544.977
544.827
544.685
544.549
544.418
544.29
544.165
544.042
543.92
543.8
543.68
543.561
543.442
543.324
543.206
543.088
542.97
542.852
542.734
542.616
542.498
542.381
542.263
542.145
542.027
541.909
541.791
541.673
541.555
541.437
541.318
541.2
541.082
540.964
540.846
540.727
540.609
552.482
552.347
552.213
552.079
551.948
551.82
551.696
551.577
551.465
551.361
551.265
551.179
551.101
551.032
550.971
550.917
550.869
550.826
550.788
550.753
550.721
550.691
550.663
550.637
550.611
550.585
550.559
550.533
550.506
550.479
550.451
550.422
550.391
550.359
550.325
550.289
550.25
550.209
550.165
550.119
550.07
550.019
549.964
549.908
549.848
549.786
549.722
549.654
549.585
549.512
549.437
549.36
549.28
549.197
549.111
549.024
548.933
548.841
548.746
548.649
548.55
548.448
548.344
548.236
548.124
548.007
547.884
547.755
547.617
547.472
547.317
547.155
546.984
546.805
546.62
546.431
546.237
546.043
545.85
545.66
545.475
545.297
545.127
544.969
544.821
544.68
544.546
544.415
544.288
544.163
544.04
543.919
543.799
543.679
543.56
543.442
543.323
543.205
543.087
542.97
542.852
542.734
542.616
542.498
542.38
542.263
542.145
542.027
541.909
541.791
541.673
541.555
541.436
541.318
541.2
541.082
540.964
540.846
540.727
540.609
552.482
552.345
552.21
552.075
551.944
551.815
551.692
551.574
551.463
551.361
551.268
551.183
551.107
551.039
550.979
550.926
550.878
550.836
550.798
550.764
550.733
550.704
550.676
550.65
550.624
550.598
550.573
550.547
550.521
550.494
550.467
550.438
550.408
550.376
550.343
550.307
550.268
550.227
550.184
550.138
550.089
550.038
549.984
549.927
549.868
549.805
549.74
549.673
549.602
549.529
549.453
549.375
549.293
549.209
549.122
549.032
548.939
548.844
548.747
548.648
548.546
548.443
548.336
548.227
548.113
547.995
547.872
547.742
547.605
547.461
547.309
547.149
546.981
546.806
546.625
546.438
546.247
546.054
545.86
545.666
545.473
545.286
545.11
544.953
544.808
544.67
544.538
544.41
544.284
544.16
544.038
543.917
543.797
543.677
543.559
543.44
543.322
543.205
543.087
542.969
542.851
542.734
542.616
542.498
542.38
542.262
542.144
542.027
541.909
541.791
541.673
541.555
541.436
541.318
541.2
541.082
540.964
540.846
540.727
540.609
552.481
552.343
552.206
552.071
551.939
551.811
551.689
551.573
551.465
551.365
551.274
551.191
551.117
551.05
550.991
550.939
550.893
550.852
550.815
550.781
550.75
550.722
550.695
550.669
550.644
550.619
550.594
550.569
550.543
550.517
550.49
550.462
550.433
550.402
550.369
550.333
550.295
550.255
550.212
550.166
550.118
550.067
550.013
549.957
549.897
549.835
549.77
549.701
549.63
549.556
549.479
549.399
549.316
549.229
549.139
549.046
548.951
548.852
548.752
548.649
548.544
548.437
548.328
548.216
548.1
547.98
547.856
547.725
547.589
547.446
547.296
547.139
546.975
546.803
546.626
546.443
546.254
546.062
545.866
545.666
545.464
545.264
545.077
544.925
544.788
544.657
544.528
544.402
544.278
544.155
544.034
543.913
543.794
543.675
543.557
543.439
543.321
543.203
543.086
542.968
542.851
542.733
542.615
542.498
542.38
542.262
542.144
542.026
541.908
541.79
541.672
541.554
541.436
541.318
541.2
541.082
540.964
540.846
540.727
540.609
552.481
552.342
552.205
552.07
551.938
551.811
551.689
551.576
551.47
551.373
551.284
551.203
551.131
551.066
551.009
550.958
550.913
550.872
550.836
550.804
550.774
550.746
550.719
550.694
550.669
550.645
550.621
550.597
550.572
550.547
550.521
550.494
550.466
550.436
550.403
550.368
550.331
550.291
550.249
550.204
550.156
550.106
550.053
549.996
549.937
549.875
549.809
549.741
549.669
549.593
549.514
549.432
549.347
549.258
549.165
549.069
548.969
548.867
548.762
548.655
548.546
548.434
548.321
548.205
548.086
547.964
547.838
547.707
547.571
547.429
547.281
547.126
546.965
546.797
546.623
546.442
546.256
546.064
545.866
545.66
545.447
545.227
545.013
544.884
544.763
544.641
544.517
544.394
544.271
544.149
544.029
543.909
543.79
543.672
543.554
543.437
543.319
543.202
543.084
542.967
542.85
542.732
542.615
542.497
542.379
542.262
542.144
542.026
541.908
541.79
541.672
541.554
541.436
541.318
541.2
541.082
540.964
540.846
540.727
540.609
552.48
552.342
552.204
552.07
551.94
551.814
551.695
551.583
551.48
551.385
551.298
551.219
551.149
551.086
551.03
550.981
550.937
550.898
550.863
550.831
550.802
550.774
550.749
550.724
550.7
550.677
550.654
550.631
550.607
550.583
550.559
550.533
550.505
550.476
550.445
550.411
550.375
550.336
550.294
550.25
550.204
550.154
550.101
550.045
549.986
549.924
549.859
549.79
549.717
549.64
549.559
549.475
549.387
549.294
549.198
549.098
548.994
548.887
548.777
548.665
548.551
548.435
548.317
548.196
548.074
547.948
547.82
547.687
547.551
547.409
547.263
547.11
546.952
546.786
546.615
546.437
546.252
546.061
545.861
545.653
545.43
545.184
544.87
544.839
544.743
544.628
544.507
544.385
544.264
544.143
544.023
543.904
543.786
543.669
543.551
543.434
543.317
543.2
543.083
542.966
542.849
542.731
542.614
542.496
542.379
542.261
542.144
542.026
541.908
541.79
541.672
541.554
541.436
541.318
541.2
541.082
540.964
540.845
540.727
540.609
552.481
552.343
552.207
552.073
551.944
551.821
551.704
551.595
551.493
551.4
551.316
551.239
551.171
551.11
551.056
551.008
550.966
550.928
550.894
550.862
550.834
550.808
550.783
550.759
550.736
550.714
550.692
550.67
550.648
550.625
550.601
550.577
550.551
550.523
550.493
550.46
550.425
550.388
550.348
550.305
550.259
550.21
550.158
550.103
550.045
549.983
549.918
549.848
549.774
549.696
549.613
549.526
549.434
549.338
549.238
549.134
549.024
548.912
548.796
548.679
548.559
548.438
548.315
548.19
548.063
547.934
547.803
547.669
547.531
547.389
547.243
547.092
546.935
546.772
546.602
546.426
546.243
546.053
545.855
545.648
545.433
545.211
544.996
544.866
544.745
544.623
544.5
544.377
544.256
544.136
544.017
543.899
543.782
543.665
543.548
543.431
543.315
543.198
543.081
542.964
542.847
542.73
542.613
542.496
542.378
542.261
542.143
542.025
541.908
541.79
541.672
541.554
541.436
541.318
541.2
541.082
540.964
540.845
540.727
540.609
552.482
552.345
552.211
552.079
551.952
551.83
551.716
551.609
551.51
551.42
551.338
551.263
551.197
551.138
551.086
551.039
550.998
550.961
550.928
550.898
550.87
550.845
550.821
550.798
550.776
550.755
550.734
550.713
550.692
550.671
550.649
550.626
550.601
550.575
550.546
550.515
550.482
550.446
550.407
550.366
550.321
550.273
550.222
550.168
550.11
550.049
549.984
549.914
549.839
549.758
549.673
549.583
549.488
549.388
549.283
549.173
549.059
548.941
548.82
548.696
548.571
548.445
548.317
548.187
548.056
547.923
547.789
547.652
547.512
547.369
547.223
547.072
546.915
546.754
546.586
546.411
546.23
546.041
545.846
545.644
545.438
545.234
545.044
544.889
544.75
544.619
544.493
544.37
544.248
544.129
544.011
543.893
543.777
543.66
543.544
543.428
543.312
543.196
543.079
542.963
542.846
542.729
542.612
542.495
542.378
542.26
542.143
542.025
541.907
541.79
541.672
541.554
541.436
541.318
541.2
541.082
540.964
540.845
540.727
540.609
552.483
552.349
552.217
552.088
551.963
551.844
551.732
551.628
551.531
551.443
551.363
551.291
551.227
551.17
551.119
551.074
551.034
550.998
550.965
550.936
550.909
550.884
550.861
550.84
550.819
550.799
550.779
550.76
550.74
550.72
550.7
550.678
550.655
550.631
550.604
550.575
550.543
550.509
550.472
550.432
550.389
550.342
550.292
550.239
550.182
550.121
550.056
549.985
549.908
549.826
549.738
549.644
549.545
549.441
549.331
549.216
549.096
548.972
548.846
548.717
548.587
548.455
548.322
548.188
548.052
547.916
547.778
547.638
547.496
547.352
547.203
547.051
546.895
546.733
546.566
546.393
546.213
546.026
545.833
545.636
545.438
545.243
545.061
544.897
544.75
544.614
544.485
544.36
544.24
544.121
544.003
543.887
543.771
543.656
543.54
543.425
543.309
543.194
543.077
542.961
542.845
542.728
542.611
542.494
542.377
542.26
542.142
542.025
541.907
541.789
541.671
541.554
541.436
541.318
541.2
541.082
540.963
540.845
540.727
540.609
552.484
552.353
552.224
552.097
551.976
551.86
551.751
551.649
551.555
551.469
551.391
551.322
551.259
551.204
551.155
551.111
551.072
551.037
551.005
550.977
550.951
550.927
550.905
550.884
550.864
550.845
550.827
550.809
550.791
550.773
550.754
550.733
550.712
550.689
550.665
550.638
550.608
550.576
550.541
550.503
550.461
550.416
550.367
550.315
550.259
550.198
550.132
550.059
549.981
549.897
549.805
549.708
549.605
549.497
549.382
549.261
549.135
549.005
548.873
548.74
548.605
548.469
548.331
548.193
548.054
547.913
547.772
547.629
547.484
547.337
547.186
547.032
546.875
546.712
546.545
546.372
546.193
546.007
545.817
545.623
545.43
545.24
545.059
544.892
544.741
544.603
544.473
544.349
544.23
544.112
543.996
543.881
543.766
543.651
543.537
543.422
543.307
543.191
543.076
542.96
542.843
542.727
542.61
542.493
542.376
542.259
542.142
542.024
541.907
541.789
541.671
541.553
541.435
541.317
541.199
541.081
540.963
540.845
540.727
540.609
552.486
552.357
552.231
552.108
551.99
551.877
551.771
551.672
551.581
551.498
551.422
551.355
551.294
551.24
551.193
551.15
551.112
551.078
551.047
551.019
550.994
550.971
550.95
550.93
550.911
550.894
550.877
550.86
550.844
550.827
550.809
550.791
550.771
550.75
550.728
550.703
550.676
550.645
550.612
550.576
550.536
550.493
550.445
550.394
550.338
550.276
550.209
550.135
550.055
549.967
549.872
549.771
549.665
549.553
549.433
549.307
549.175
549.039
548.903
548.766
548.627
548.487
548.345
548.203
548.06
547.916
547.771
547.624
547.476
547.326
547.173
547.016
546.856
546.692
546.523
546.349
546.17
545.986
545.797
545.606
545.414
545.225
545.043
544.874
544.722
544.585
544.458
544.336
544.218
544.103
543.988
543.874
543.761
543.647
543.533
543.419
543.304
543.189
543.074
542.958
542.842
542.726
542.609
542.492
542.375
542.258
542.141
542.024
541.906
541.789
541.671
541.553
541.435
541.317
541.199
541.081
540.963
540.845
540.727
540.609
552.487
552.363
552.24
552.121
552.006
551.897
551.794
551.698
551.609
551.528
551.455
551.389
551.331
551.279
551.232
551.191
551.153
551.12
551.09
551.063
551.039
551.017
550.996
550.977
550.96
550.944
550.928
550.913
550.898
550.882
550.867
550.85
550.832
550.813
550.792
550.77
550.745
550.717
550.686
550.651
550.613
550.571
550.525
550.474
550.418
550.356
550.288
550.212
550.128
550.037
549.938
549.834
549.725
549.609
549.485
549.353
549.215
549.075
548.935
548.795
548.653
548.509
548.364
548.218
548.071
547.923
547.775
547.625
547.474
547.32
547.164
547.004
546.841
546.674
546.503
546.328
546.148
545.963
545.774
545.583
545.39
545.199
545.014
544.841
544.692
544.56
544.438
544.321
544.206
544.093
543.98
543.868
543.756
543.643
543.529
543.416
543.302
543.187
543.072
542.956
542.841
542.725
542.608
542.492
542.375
542.258
542.141
542.023
541.906
541.788
541.671
541.553
541.435
541.317
541.199
541.081
540.963
540.845
540.727
540.609
552.49
552.37
552.252
552.136
552.024
551.918
551.818
551.725
551.639
551.56
551.489
551.426
551.369
551.318
551.273
551.232
551.196
551.164
551.135
551.109
551.085
551.064
551.044
551.027
551.01
550.995
550.98
550.967
550.953
550.939
550.925
550.91
550.894
550.877
550.859
550.838
550.815
550.79
550.761
550.729
550.693
550.652
550.607
550.557
550.501
550.438
550.368
550.289
550.203
550.108
550.006
549.898
549.786
549.665
549.535
549.398
549.256
549.113
548.971
548.828
548.683
548.536
548.388
548.239
548.089
547.937
547.785
547.632
547.477
547.319
547.159
546.997
546.83
546.66
546.486
546.307
546.125
545.939
545.749
545.555
545.359
545.162
544.968
544.786
544.648
544.528
544.415
544.304
544.194
544.084
543.973
543.862
543.751
543.639
543.526
543.413
543.299
543.185
543.07
542.955
542.839
542.723
542.607
542.491
542.374
542.257
542.14
542.023
541.905
541.788
541.67
541.553
541.435
541.317
541.199
541.081
540.963
540.845
540.727
540.609
552.492
552.377
552.263
552.151
552.043
551.94
551.843
551.752
551.669
551.593
551.524
551.462
551.407
551.358
551.314
551.275
551.239
551.208
551.18
551.155
551.132
551.112
551.094
551.077
551.062
551.048
551.034
551.022
551.01
550.998
550.985
550.972
550.958
550.943
550.927
550.908
550.888
550.865
550.838
550.808
550.774
550.735
550.691
550.642
550.585
550.521
550.449
550.369
550.279
550.181
550.076
549.965
549.848
549.722
549.587
549.445
549.3
549.155
549.011
548.866
548.719
548.57
548.419
548.266
548.112
547.957
547.801
547.644
547.485
547.324
547.16
546.993
546.822
546.649
546.471
546.29
546.105
545.916
545.723
545.526
545.324
545.116
544.903
544.693
544.589
544.493
544.393
544.289
544.183
544.075
543.967
543.857
543.747
543.636
543.524
543.411
543.297
543.183
543.069
542.954
542.838
542.723
542.606
542.49
542.373
542.257
542.139
542.022
541.905
541.788
541.67
541.552
541.435
541.317
541.199
541.081
540.963
540.845
540.727
540.609
552.494
552.383
552.272
552.165
552.061
551.961
551.868
551.78
551.7
551.626
551.559
551.499
551.446
551.398
551.355
551.317
551.283
551.253
551.226
551.202
551.181
551.161
551.144
551.129
551.114
551.102
551.09
551.079
551.068
551.058
551.047
551.036
551.024
551.011
550.997
550.981
550.963
550.942
550.918
550.89
550.858
550.822
550.779
550.73
550.673
550.608
550.535
550.452
550.359
550.257
550.149
550.035
549.913
549.781
549.641
549.497
549.35
549.203
549.058
548.911
548.761
548.61
548.456
548.3
548.143
547.984
547.823
547.662
547.498
547.332
547.164
546.992
546.818
546.64
546.459
546.274
546.086
545.895
545.699
545.499
545.292
545.073
544.827
544.499
544.527
544.465
544.376
544.277
544.174
544.068
543.961
543.853
543.743
543.633
543.521
543.409
543.296
543.182
543.068
542.953
542.837
542.722
542.606
542.489
542.373
542.256
542.139
542.022
541.905
541.787
541.67
541.552
541.434
541.317
541.199
541.081
540.963
540.845
540.727
540.609
552.496
552.389
552.283
552.179
552.079
551.983
551.893
551.808
551.73
551.659
551.595
551.536
551.485
551.438
551.397
551.36
551.328
551.299
551.273
551.25
551.23
551.212
551.196
551.182
551.169
551.157
551.147
551.137
551.128
551.12
551.111
551.102
551.093
551.083
551.071
551.058
551.042
551.024
551.002
550.977
550.948
550.913
550.872
550.824
550.767
550.701
550.626
550.54
550.444
550.34
550.229
550.111
549.984
549.847
549.704
549.556
549.407
549.258
549.111
548.962
548.81
548.656
548.499
548.34
548.179
548.016
547.851
547.684
547.515
547.344
547.171
546.994
546.816
546.634
546.449
546.262
546.071
545.877
545.68
545.479
545.274
545.064
544.852
544.657
544.56
544.468
544.372
544.271
544.168
544.064
543.957
543.85
543.741
543.631
543.52
543.408
543.295
543.181
543.067
542.952
542.837
542.721
542.605
542.489
542.372
542.255
542.139
542.021
541.904
541.787
541.669
541.552
541.434
541.316
541.199
541.081
540.963
540.845
540.727
540.609
552.498
552.395
552.293
552.194
552.097
552.005
551.917
551.836
551.76
551.692
551.629
551.573
551.523
551.478
551.439
551.403
551.372
551.345
551.32
551.299
551.28
551.264
551.249
551.237
551.226
551.216
551.207
551.199
551.192
551.185
551.179
551.173
551.166
551.158
551.15
551.139
551.126
551.111
551.092
551.07
551.044
551.011
550.972
550.924
550.868
550.801
550.724
550.636
550.537
550.43
550.316
550.193
550.062
549.921
549.775
549.624
549.472
549.322
549.172
549.021
548.866
548.709
548.549
548.386
548.221
548.053
547.882
547.71
547.535
547.358
547.179
546.998
546.814
546.629
546.441
546.25
546.057
545.862
545.664
545.465
545.266
545.07
544.883
544.719
544.59
544.478
544.373
544.269
544.165
544.061
543.955
543.848
543.739
543.63
543.519
543.407
543.294
543.18
543.066
542.951
542.836
542.72
542.604
542.488
542.372
542.255
542.138
542.021
541.904
541.787
541.669
541.552
541.434
541.316
541.199
541.081
540.963
540.845
540.727
540.609
552.5
552.401
552.304
552.208
552.115
552.026
551.941
551.863
551.79
551.723
551.663
551.609
551.561
551.518
551.48
551.447
551.417
551.391
551.369
551.349
551.332
551.318
551.305
551.294
551.285
551.277
551.27
551.264
551.259
551.255
551.252
551.248
551.245
551.24
551.235
551.228
551.218
551.207
551.191
551.172
551.148
551.118
551.081
551.035
550.978
550.91
550.831
550.741
550.639
550.529
550.411
550.285
550.15
550.006
549.856
549.702
549.548
549.395
549.242
549.088
548.93
548.769
548.605
548.438
548.268
548.094
547.918
547.738
547.557
547.373
547.188
547.001
546.813
546.623
546.432
546.239
546.045
545.849
545.652
545.457
545.264
545.078
544.903
544.743
544.604
544.483
544.373
544.268
544.163
544.058
543.953
543.846
543.738
543.629
543.518
543.406
543.294
543.18
543.066
542.951
542.836
542.72
542.604
542.488
542.371
542.255
542.138
542.021
541.904
541.786
541.669
541.551
541.434
541.316
541.198
541.081
540.963
540.845
540.727
540.609
552.502
552.407
552.313
552.221
552.132
552.046
551.965
551.889
551.819
551.755
551.697
551.645
551.599
551.558
551.522
551.49
551.463
551.439
551.418
551.401
551.386
551.374
551.363
551.355
551.348
551.342
551.338
551.335
551.333
551.331
551.331
551.331
551.331
551.331
551.329
551.326
551.32
551.312
551.3
551.285
551.264
551.236
551.201
551.155
551.099
551.03
550.95
550.857
550.752
550.638
550.517
550.388
550.25
550.103
549.949
549.792
549.635
549.478
549.321
549.163
549.002
548.837
548.669
548.497
548.32
548.14
547.957
547.77
547.58
547.389
547.197
547.005
546.811
546.617
546.422
546.227
546.031
545.836
545.641
545.449
545.262
545.081
544.909
544.746
544.598
544.478
544.369
544.265
544.161
544.057
543.952
543.845
543.737
543.628
543.518
543.406
543.293
543.18
543.065
542.951
542.835
542.72
542.604
542.487
542.371
542.254
542.137
542.02
541.903
541.786
541.669
541.551
541.434
541.316
541.198
541.081
540.963
540.845
540.727
540.609
552.504
552.413
552.323
552.235
552.149
552.066
551.988
551.915
551.847
551.786
551.73
551.68
551.636
551.597
551.563
551.534
551.509
551.487
551.469
551.455
551.442
551.433
551.425
551.42
551.415
551.413
551.411
551.412
551.413
551.415
551.419
551.423
551.427
551.431
551.434
551.435
551.434
551.43
551.421
551.409
551.39
551.365
551.332
551.287
551.23
551.161
551.078
550.982
550.874
550.756
550.632
550.5
550.36
550.211
550.054
549.892
549.731
549.571
549.41
549.248
549.083
548.914
548.741
548.563
548.38
548.193
548.001
547.806
547.608
547.408
547.208
547.008
546.809
546.609
546.411
546.213
546.016
545.821
545.628
545.438
545.253
545.074
544.901
544.73
544.562
544.458
544.36
544.26
544.158
544.055
543.951
543.844
543.737
543.628
543.517
543.406
543.293
543.18
543.065
542.95
542.835
542.719
542.603
542.487
542.371
542.254
542.137
542.02
541.903
541.786
541.669
541.551
541.434
541.316
541.198
541.08
540.963
540.845
540.727
540.609
552.506
552.42
552.333
552.249
552.166
552.087
552.012
551.941
551.876
551.817
551.764
551.717
551.675
551.638
551.606
551.579
551.557
551.538
551.523
551.511
551.502
551.496
551.492
551.489
551.489
551.49
551.492
551.496
551.502
551.509
551.517
551.525
551.534
551.543
551.551
551.557
551.56
551.56
551.555
551.545
551.529
551.505
551.472
551.428
551.37
551.299
551.214
551.116
551.004
550.881
550.754
550.62
550.478
550.327
550.166
550.001
549.837
549.673
549.509
549.344
549.175
549.002
548.824
548.64
548.451
548.255
548.055
547.85
547.642
547.433
547.224
547.015
546.808
546.602
546.399
546.198
545.999
545.804
545.612
545.424
545.241
545.062
544.885
544.708
544.458
544.429
544.351
544.256
544.157
544.054
543.95
543.844
543.736
543.627
543.517
543.405
543.293
543.179
543.065
542.95
542.835
542.719
542.603
542.487
542.37
542.254
542.137
542.02
541.903
541.786
541.668
541.551
541.433
541.316
541.198
541.08
540.963
540.845
540.727
540.609
552.509
552.426
552.345
552.264
552.185
552.11
552.038
551.971
551.909
551.852
551.801
551.756
551.717
551.683
551.653
551.629
551.609
551.593
551.581
551.572
551.567
551.564
551.564
551.566
551.569
551.575
551.582
551.59
551.6
551.612
551.624
551.638
551.652
551.667
551.679
551.691
551.698
551.702
551.7
551.691
551.676
551.653
551.619
551.574
551.514
551.441
551.353
551.251
551.135
551.007
550.875
550.739
550.595
550.442
550.28
550.114
549.947
549.781
549.616
549.448
549.277
549.101
548.919
548.73
548.533
548.33
548.121
547.906
547.688
547.468
547.248
547.029
546.812
546.599
546.389
546.183
545.982
545.785
545.592
545.404
545.219
545.039
544.866
544.698
544.528
544.444
544.354
544.257
544.156
544.053
543.949
543.843
543.735
543.627
543.516
543.405
543.293
543.179
543.065
542.95
542.835
542.719
542.603
542.487
542.37
542.254
542.137
542.02
541.903
541.785
541.668
541.551
541.433
541.316
541.198
541.08
540.962
540.845
540.727
540.609
552.511
552.434
552.358
552.282
552.208
552.137
552.069
552.006
551.947
551.894
551.846
551.804
551.768
551.736
551.71
551.688
551.671
551.657
551.648
551.643
551.641
551.642
551.646
551.651
551.659
551.669
551.68
551.693
551.707
551.723
551.741
551.759
551.779
551.798
551.815
551.831
551.843
551.85
551.85
551.842
551.826
551.801
551.765
551.717
551.654
551.577
551.486
551.379
551.258
551.126
550.989
550.848
550.702
550.549
550.388
550.222
550.057
549.892
549.727
549.56
549.389
549.211
549.026
548.832
548.629
548.418
548.2
547.975
547.746
547.514
547.282
547.05
546.823
546.6
546.382
546.171
545.966
545.766
545.571
545.383
545.2
545.026
544.862
544.71
544.573
544.464
544.362
544.26
544.157
544.052
543.947
543.841
543.734
543.625
543.516
543.404
543.292
543.179
543.065
542.95
542.835
542.719
542.603
542.487
542.37
542.253
542.137
542.02
541.903
541.785
541.668
541.551
541.433
541.316
541.198
541.08
540.962
540.845
540.727
540.609
552.515
552.444
552.374
552.304
552.236
552.171
552.109
552.051
551.997
551.949
551.907
551.869
551.837
551.81
551.787
551.769
551.754
551.743
551.737
551.734
551.734
551.737
551.743
551.751
551.761
551.773
551.787
551.803
551.82
551.839
551.859
551.881
551.903
551.926
551.947
551.966
551.981
551.99
551.991
551.983
551.965
551.937
551.897
551.843
551.777
551.696
551.6
551.488
551.363
551.227
551.086
550.942
550.794
550.642
550.484
550.321
550.16
550.001
549.841
549.677
549.508
549.33
549.142
548.942
548.732
548.513
548.285
548.05
547.81
547.566
547.321
547.077
546.837
546.603
546.377
546.16
545.951
545.749
545.554
545.365
545.186
545.017
544.86
544.718
544.591
544.478
544.37
544.263
544.157
544.051
543.946
543.839
543.732
543.624
543.514
543.403
543.291
543.178
543.065
542.95
542.835
542.719
542.603
542.487
542.37
542.253
542.136
542.02
541.902
541.785
541.668
541.551
541.433
541.315
541.198
541.08
540.962
540.845
540.727
540.609
552.518
552.454
552.391
552.329
552.27
552.213
552.16
552.111
552.067
552.028
551.994
551.966
551.942
551.922
551.906
551.892
551.882
551.874
551.868
551.865
551.864
551.866
551.87
551.876
551.884
551.893
551.904
551.917
551.931
551.948
551.966
551.986
552.007
552.03
552.051
552.071
552.086
552.096
552.097
552.088
552.068
552.036
551.992
551.934
551.863
551.779
551.681
551.568
551.441
551.304
551.162
551.017
550.869
550.72
550.569
550.413
550.261
550.111
549.96
549.803
549.636
549.456
549.262
549.054
548.833
548.601
548.362
548.117
547.865
547.609
547.351
547.094
546.842
546.599
546.366
546.146
545.935
545.734
545.54
545.353
545.175
545.009
544.856
544.719
544.599
544.49
544.377
544.266
544.157
544.05
543.943
543.837
543.73
543.622
543.512
543.402
543.29
543.178
543.064
542.95
542.834
542.719
542.603
542.486
542.37
542.253
542.136
542.019
541.902
541.785
541.668
541.55
541.433
541.315
541.198
541.08
540.962
540.845
540.727
540.609
552.52
552.461
552.405
552.353
552.306
552.263
552.225
552.193
552.165
552.143
552.127
552.115
552.108
552.102
552.098
552.094
552.091
552.087
552.082
552.074
552.066
552.059
552.052
552.046
552.041
552.037
552.033
552.031
552.031
552.034
552.04
552.047
552.058
552.071
552.086
552.1
552.113
552.122
552.123
552.115
552.095
552.063
552.017
551.959
551.888
551.808
551.715
551.607
551.487
551.356
551.219
551.08
550.94
550.802
550.662
550.515
550.376
550.242
550.105
549.954
549.783
549.594
549.386
549.161
548.918
548.665
548.409
548.149
547.884
547.616
547.346
547.077
546.812
546.564
546.331
546.113
545.907
545.713
545.527
545.343
545.163
544.994
544.841
544.71
544.599
544.508
544.384
544.268
544.157
544.048
543.94
543.833
543.726
543.619
543.51
543.4
543.289
543.177
543.063
542.949
542.834
542.719
542.603
542.486
542.37
542.253
542.136
542.019
541.902
541.785
541.668
541.55
541.433
541.315
541.198
541.08
540.962
540.845
540.727
540.609
552.518
552.459
552.407
552.367
552.337
552.317
552.304
552.3
552.301
552.309
552.323
552.341
552.363
552.384
552.403
552.419
552.431
552.437
552.432
552.416
552.393
552.364
552.332
552.298
552.262
552.223
552.183
552.144
552.109
552.079
552.052
552.028
552.01
551.997
551.991
551.99
551.992
551.998
552.001
551.997
551.984
551.959
551.923
551.873
551.815
551.755
551.686
551.602
551.504
551.394
551.275
551.153
551.034
550.925
550.806
550.671
550.549
550.437
550.322
550.173
549.976
549.757
549.519
549.262
548.976
548.683
548.395
548.118
547.835
547.557
547.277
546.995
546.712
546.465
546.236
546.032
545.841
545.665
545.504
545.332
545.149
544.971
544.812
544.686
544.584
544.505
544.384
544.269
544.155
544.045
543.937
543.829
543.723
543.616
543.508
543.398
543.288
543.176
543.063
542.949
542.834
542.719
542.603
542.486
542.37
542.253
542.136
542.019
541.902
541.785
541.668
541.55
541.433
541.315
541.198
541.08
540.962
540.845
540.727
540.609
552.513
552.444
552.393
552.365
552.361
552.374
552.401
552.438
552.484
552.538
552.598
552.663
552.73
552.795
552.855
552.909
552.953
552.98
552.982
552.956
552.908
552.844
552.766
552.681
552.588
552.486
552.377
552.266
552.163
552.066
551.974
551.888
551.811
551.744
551.691
551.653
551.634
551.634
551.641
551.648
551.65
551.649
551.641
551.616
551.595
551.587
551.571
551.54
551.492
551.426
551.348
551.265
551.193
551.143
551.068
550.944
550.848
550.755
550.672
550.518
550.24
549.954
549.666
549.361
548.995
548.644
548.289
547.997
547.693
547.416
547.127
546.835
546.501
546.274
546.05
545.878
545.699
545.543
545.456
545.322
545.135
544.933
544.756
544.648
544.556
544.483
544.383
544.27
544.155
544.042
543.933
543.825
543.719
543.612
543.505
543.396
543.286
543.175
543.062
542.948
542.834
542.718
542.603
542.486
542.37
542.253
542.136
542.019
541.902
541.785
541.668
541.55
541.433
541.315
541.198
541.08
540.962
540.845
540.727
540.609
552.513
552.442
552.394
552.385
552.413
552.469
552.543
552.627
552.721
552.827
552.943
553.064
553.19
553.315
553.439
553.561
553.669
553.737
553.763
553.737
553.665
553.553
553.41
553.249
553.073
552.882
552.668
552.44
552.216
552.005
551.801
551.606
551.424
551.264
551.122
551.013
550.956
550.948
550.959
550.98
551.008
551.052
551.102
551.124
551.178
551.258
551.324
551.371
551.415
551.407
551.409
551.4
551.416
551.475
551.48
551.357
551.318
551.267
551.137
550.904
550.526
550.179
549.852
549.44
548.96
548.575
548.111
547.778
547.38
547.085
546.764
546.535
546.169
545.937
545.734
545.617
545.418
545.325
545.268
545.15
544.958
544.846
544.664
544.602
544.523
544.52
544.399
544.276
544.155
544.04
543.929
543.821
543.715
543.609
543.502
543.394
543.285
543.174
543.061
542.948
542.834
542.718
542.603
542.486
542.37
542.253
542.136
542.019
541.902
541.785
541.668
541.55
541.433
541.315
541.198
541.08
540.962
540.845
540.727
540.609
552.582
552.587
552.575
552.593
552.652
552.735
552.828
552.917
553.021
553.149
553.299
553.459
553.632
553.82
554.024
554.267
554.483
554.614
554.704
554.712
554.64
554.486
554.27
554.02
553.75
553.485
553.175
552.779
552.352
551.948
551.576
551.218
550.866
550.565
550.284
550.048
549.941
549.931
549.921
549.956
550.016
550.122
550.264
550.36
550.521
550.686
550.821
550.987
551.135
551.188
551.355
551.529
551.785
551.978
552.062
552.043
552.043
552.029
551.823
551.387
550.793
550.443
550.069
549.524
548.937
548.62
547.932
547.6
546.985
546.613
546.277
546.099
545.715
545.558
545.404
545.363
545.048
544.866
544.722
544.756
544.675
544.696
544.54
544.595
544.511
544.558
544.42
544.282
544.155
544.037
543.925
543.818
543.712
543.606
543.5
543.392
543.283
543.173
543.061
542.948
542.833
542.718
542.603
542.486
542.37
542.253
542.136
542.019
541.902
541.785
541.668
541.55
541.433
541.315
541.198
541.08
540.962
540.845
540.727
540.609
552.975
553.371
553.468
553.476
553.496
553.494
553.476
553.414
553.392
553.44
553.544
553.655
553.805
554.006
554.261
554.716
555.067
555.239
555.481
555.609
555.606
555.446
555.192
554.875
554.52
554.33
554.111
553.534
552.705
551.95
551.397
550.892
550.265
549.77
549.314
548.881
548.713
548.744
548.591
548.647
548.664
548.667
548.968
549.158
549.51
549.782
549.999
550.381
550.519
550.582
550.993
551.462
552.065
552.399
552.56
552.688
552.775
552.836
552.613
552.097
551.08
550.631
550.093
549.632
548.994
548.678
547.649
547.494
546.663
546.191
545.922
545.624
545.23
545.235
545.161
544.934
544.681
544.722
544.525
544.603
544.558
544.746
544.522
544.69
544.529
544.836
544.445
544.28
544.151
544.033
543.922
543.815
543.709
543.604
543.498
543.391
543.283
543.172
543.061
542.948
542.833
542.718
542.603
542.487
542.37
542.254
542.137
542.02
541.903
541.785
541.668
541.551
541.433
541.316
541.198