/*--------------------------------*- C++ -*----------------------------------*\
  =========                 |
  \\      /  F ield         | OpenFOAM: The Open Source CFD Toolbox
   \\    /   O peration     | Website:  https://openfoam.org
    \\  /    A nd           | Version:  6
     \\/     M anipulation  |
\*---------------------------------------------------------------------------*/
FoamFile
{
    version     2.0;
    format      ascii;
    class       volVectorField;
    location    "3500";
    object      U;
}
// * * * * * * * * * * * * * * * * * * * * * * * * * * * * * * * * * * * * * //

dimensions      [0 1 -1 0 0 0 0];

internalField   nonuniform List<vector> 
4800
(
(-3.45724e-05 0 -3.39232e-05)
(3.25572e-05 0 -3.42576e-05)
(5.40037e-05 0 -3.87459e-05)
(6.39833e-05 0 -3.99583e-05)
(8.55082e-05 0 -3.98509e-05)
(8.5312e-05 0 -1.11677e-05)
(-2.1655e-05 0 2.04134e-05)
(-8.82707e-05 0 6.20998e-05)
(-0.000177472 0 3.30132e-05)
(-0.0004429 0 -0.000223175)
(-0.000679543 0 5.56884e-05)
(-0.000863075 0 5.86729e-05)
(-0.00097803 0 -5.597e-05)
(-0.00106984 0 4.1544e-05)
(-0.0011578 0 -0.000133475)
(-0.00123906 0 3.28433e-05)
(-0.00129446 0 -2.42432e-05)
(-0.00133299 0 -3.71808e-05)
(-0.00136205 0 -1.82313e-05)
(-0.00138664 0 -3.60362e-05)
(-0.00140298 0 -2.55356e-05)
(-0.00140725 0 -3.33115e-05)
(-0.00139042 0 -5.3745e-05)
(-0.00137207 0 -5.65867e-05)
(-0.00136516 0 -2.15307e-05)
(-0.00133 0 -7.70075e-05)
(-0.00128666 0 3.04921e-06)
(-0.00126494 0 -3.8743e-05)
(-0.00125729 0 -5.80453e-05)
(-0.00122297 0 -6.56934e-05)
(-0.00118445 0 -7.59628e-06)
(-0.00117685 0 -1.1477e-05)
(-0.0011943 0 -2.40434e-05)
(-0.00115213 0 -6.63928e-05)
(-0.00103514 0 -9.80052e-05)
(-0.000981569 0 -0.000111746)
(-0.0009485 0 -2.42782e-05)
(-0.000854386 0 -0.000107359)
(-0.000787405 0 -8.79219e-05)
(-0.00076561 0 3.79782e-06)
(-0.000739755 0 9.04642e-06)
(-0.000698625 0 1.74336e-05)
(-0.000657853 0 -1.15938e-05)
(-0.000615975 0 -1.46266e-05)
(-0.000579391 0 1.33224e-06)
(-0.00054626 0 -3.50599e-05)
(-0.000509874 0 -3.62671e-05)
(-0.00043217 0 -0.000120599)
(-0.0003245 0 -0.000188915)
(-0.000329895 0 6.92918e-05)
(-0.000276938 0 -0.00013649)
(-0.000200248 0 -7.88398e-05)
(-0.000149516 0 -5.20099e-05)
(-7.08768e-05 0 -4.92172e-05)
(-7.68506e-06 0 -4.65671e-05)
(6.29966e-05 0 -4.26593e-05)
(0.000117537 0 -4.63294e-05)
(0.000178914 0 -6.22678e-05)
(0.000261761 0 -5.26988e-05)
(0.000335804 0 -7.19107e-05)
(0.000426123 0 -6.78076e-05)
(0.000512948 0 -7.89539e-05)
(0.000599728 0 -7.57445e-05)
(0.000687795 0 -4.32494e-05)
(0.000756142 0 -4.67163e-05)
(0.000790485 0 -7.61552e-05)
(0.000834542 0 -4.24505e-06)
(0.000829951 0 1.53433e-05)
(0.000794378 0 2.71795e-05)
(0.000724235 0 2.98373e-05)
(0.000621994 0 0.000117059)
(0.000542093 0 -5.03394e-05)
(0.000412046 0 5.38929e-05)
(0.0002793 0 2.45997e-06)
(-2.74808e-05 0 5.16753e-05)
(-0.000268273 0 -9.05757e-05)
(-0.000300759 0 -3.44234e-05)
(-0.000408852 0 -0.000133522)
(-0.00046114 0 -0.000178021)
(-0.00051508 0 -0.000269569)
(-0.000714173 0 -0.000227387)
(8.68759e-06 0 -0.000177906)
(-1.11439e-12 0 5.8126e-14)
(-2.63751e-12 0 -1.18556e-13)
(-1.10596e-12 0 -1.06053e-13)
(-9.14e-13 0 -8.59095e-14)
(-7.58749e-13 0 -7.0959e-14)
(-6.26778e-13 0 -6.23122e-14)
(-5.07192e-13 0 -5.82528e-14)
(-3.92802e-13 0 -5.67726e-14)
(-2.80034e-13 0 -5.63748e-14)
(-1.67685e-13 0 -5.61112e-14)
(-5.60065e-14 0 -5.54403e-14)
(5.39212e-14 0 -5.40851e-14)
(1.60606e-13 0 -5.19336e-14)
(2.62413e-13 0 -4.89774e-14)
(3.57742e-13 0 -4.52736e-14)
(4.45134e-13 0 -4.09189e-14)
(5.2335e-13 0 -3.60323e-14)
(5.91406e-13 0 -3.07433e-14)
(6.48599e-13 0 -2.51837e-14)
(6.94499e-13 0 -1.94805e-14)
(7.28935e-13 0 -1.37513e-14)
(7.51968e-13 0 -8.10046e-15)
(7.63856e-13 0 -2.61749e-15)
(7.65019e-13 0 2.62412e-15)
(7.55999e-13 0 7.56685e-15)
(7.37434e-13 0 1.21682e-14)
(7.10023e-13 0 1.63997e-14)
(6.74506e-13 0 2.02446e-14)
(6.31647e-13 0 2.36963e-14)
(5.82213e-13 0 2.6756e-14)
(5.26968e-13 0 2.94307e-14)
(4.66664e-13 0 3.1731e-14)
(4.02038e-13 0 3.36699e-14)
(3.33804e-13 0 3.5261e-14)
(2.62656e-13 0 3.65179e-14)
(1.8926e-13 0 3.74545e-14)
(1.14253e-13 0 3.80893e-14)
(3.8212e-14 0 3.84628e-14)
(2.51804e-06 0 -4.11084e-05)
(2.41231e-05 0 -1.94031e-05)
(6.28741e-06 0 7.1939e-07)
(-2.1039e-05 0 -1.60827e-05)
(-5.09793e-05 0 7.22669e-05)
(-0.000119578 0 0.000140212)
(-0.000202109 0 0.000143221)
(-0.000442913 0 -2.14867e-05)
(-0.000410813 0 0.000289124)
(-0.000537898 0 0.000393165)
(-0.000768127 0 0.000103841)
(-0.000837175 0 0.000112713)
(-0.000959368 0 0.000222318)
(-0.00109516 0 9.75559e-05)
(-0.00116715 0 0.000212924)
(-0.00124343 0 8.525e-05)
(-0.00129497 0 8.49584e-05)
(-0.00134842 0 0.000121902)
(-0.00139698 0 4.64083e-05)
(-0.00142957 0 8.578e-05)
(-0.00145571 0 3.95481e-05)
(-0.00146476 0 2.09137e-05)
(-0.00146552 0 -9.09915e-06)
(-0.00144948 0 -0.000133703)
(-0.00143752 0 -6.55762e-05)
(-0.00141577 0 1.15201e-05)
(-0.00139267 0 -5.56386e-05)
(-0.00138576 0 -5.56023e-05)
(-0.00137652 0 -0.000158981)
(-0.00134725 0 -8.83942e-06)
(-0.00131628 0 -5.46745e-06)
(-0.00130817 0 -2.21603e-05)
(-0.00128773 0 -3.00407e-06)
(-0.00115963 0 -4.21937e-05)
(-0.00104856 0 -0.000105362)
(-0.00100265 0 -4.0734e-05)
(-0.000990055 0 3.92308e-05)
(-0.000943951 0 -0.000106043)
(-0.000886719 0 -6.8898e-05)
(-0.000866327 0 -1.74801e-05)
(-0.000838055 0 -0.000137493)
(-0.000808909 0 -6.54722e-05)
(-0.00077611 0 -8.57113e-05)
(-0.000741015 0 -8.28795e-05)
(-0.000708942 0 -5.1676e-05)
(-0.000673748 0 -8.03422e-05)
(-0.00065126 0 -4.7045e-05)
(-0.000624635 0 -3.68058e-05)
(-0.00056833 0 -8.79831e-05)
(-0.000511826 0 -6.47613e-05)
(-0.000436154 0 -0.000209581)
(-0.000390361 0 1.51373e-06)
(-0.000305369 0 -5.72941e-05)
(-0.000255846 0 -6.21359e-05)
(-0.000179696 0 -0.000140451)
(-9.97506e-05 0 -8.68388e-05)
(-2.90205e-06 0 -7.12443e-05)
(6.55984e-05 0 -8.87559e-05)
(0.000159822 0 -7.22984e-05)
(0.000193944 0 -0.000133833)
(0.000286508 0 -0.000129986)
(0.000365005 0 -0.000150314)
(0.000460485 0 -0.000146768)
(0.000537956 0 -0.000153382)
(0.000638262 0 -1.81407e-05)
(0.000669254 0 -0.000122908)
(0.000721822 0 -6.13045e-06)
(0.000719572 0 3.53369e-05)
(0.000702962 0 6.5715e-05)
(0.000657417 0 0.000102538)
(0.000602808 0 0.000100122)
(0.000494629 0 0.000235254)
(0.000440881 0 0.000154393)
(0.000378968 0 0.000179302)
(0.000221274 0 0.000190938)
(0.000189392 0 0.000230776)
(6.21049e-05 0 0.000176595)
(-2.30795e-05 0 0.000143373)
(-7.19255e-05 0 8.33289e-05)
(-0.000264616 0 -0.000314927)
(-0.000555707 0 -0.000467614)
(8.27174e-06 0 -0.000163184)
(-1.08219e-12 0 1.81446e-14)
(-2.68574e-12 0 -4.16633e-13)
(-1.07417e-12 0 -3.28405e-13)
(-8.79123e-13 0 -2.52985e-13)
(-7.34981e-13 0 -2.06352e-13)
(-6.14072e-13 0 -1.82263e-13)
(-5.01652e-13 0 -1.72141e-13)
(-3.90924e-13 0 -1.69145e-13)
(-2.79372e-13 0 -1.68805e-13)
(-1.6675e-13 0 -1.68459e-13)
(-5.39804e-14 0 -1.66639e-13)
(5.74279e-14 0 -1.62621e-13)
(1.65714e-13 0 -1.56132e-13)
(2.69073e-13 0 -1.47185e-13)
(3.658e-13 0 -1.3597e-13)
(4.54376e-13 0 -1.22789e-13)
(5.33525e-13 0 -1.08006e-13)
(6.02255e-13 0 -9.2016e-14)
(6.59862e-13 0 -7.52172e-14)
(7.05931e-13 0 -5.79948e-14)
(7.40315e-13 0 -4.07053e-14)
(7.63102e-13 0 -2.3666e-14)
(7.74581e-13 0 -7.14867e-15)
(7.75203e-13 0 8.62435e-15)
(7.65543e-13 0 2.34798e-14)
(7.46267e-13 0 3.72915e-14)
(7.18099e-13 0 4.99761e-14)
(6.81803e-13 0 6.14873e-14)
(6.38158e-13 0 7.18093e-14)
(5.87947e-13 0 8.09502e-14)
(5.31943e-13 0 8.89346e-14)
(4.70903e-13 0 9.57981e-14)
(4.05568e-13 0 1.01581e-13)
(3.36652e-13 0 1.06326e-13)
(2.64849e-13 0 1.10073e-13)
(1.90831e-13 0 1.1286e-13)
(1.15261e-13 0 1.14723e-13)
(3.85854e-14 0 1.1571e-13)
(-6.43897e-06 0 -5.50336e-05)
(-3.10933e-05 0 -6.5995e-06)
(-6.00281e-06 0 7.25214e-05)
(-1.17765e-05 0 8.92612e-05)
(-0.000220526 0 -2.34588e-06)
(-0.000315292 0 7.9495e-05)
(-0.00030135 0 0.00036861)
(-0.000529423 0 0.000402533)
(-0.000659685 0 0.000381053)
(-0.000707766 0 0.00042123)
(-0.000832175 0 0.000243353)
(-0.000853276 0 0.000203305)
(-0.00098697 0 0.000205465)
(-0.00109757 0 0.000173105)
(-0.00116532 0 0.000170289)
(-0.00123248 0 0.000175951)
(-0.00129801 0 0.000120431)
(-0.00134637 0 8.49045e-05)
(-0.0013862 0 8.54786e-05)
(-0.0014186 0 2.12725e-05)
(-0.00143461 0 2.79906e-05)
(-0.00143735 0 8.83909e-06)
(-0.00143813 0 -6.04077e-06)
(-0.00146083 0 -2.28397e-05)
(-0.00146411 0 -3.53304e-05)
(-0.00143438 0 -5.8358e-05)
(-0.00142339 0 -5.88023e-05)
(-0.00142333 0 -7.84993e-05)
(-0.00141759 0 -0.00010108)
(-0.00138948 0 -2.70056e-05)
(-0.00136004 0 -0.000123412)
(-0.00133205 0 -0.00013917)
(-0.00128474 0 -6.461e-05)
(-0.00117517 0 -0.000306499)
(-0.00107399 0 -0.000307425)
(-0.00100231 0 -0.000285558)
(-0.00100466 0 -0.000126696)
(-0.000963357 0 -5.97897e-05)
(-0.000886342 0 -0.000299318)
(-0.000914674 0 0.000117875)
(-0.000864162 0 -0.000150546)
(-0.000847787 0 -2.04127e-05)
(-0.000807753 0 -0.000116794)
(-0.000783978 0 -7.28807e-05)
(-0.000751263 0 -8.69389e-05)
(-0.000708747 0 -0.000133063)
(-0.000681919 0 -0.000110862)
(-0.000652771 0 -0.000129588)
(-0.000613958 0 -0.000152966)
(-0.000578729 0 -0.000139937)
(-0.000532261 0 -0.000152522)
(-0.000462611 0 -0.000143922)
(-0.000364911 0 -0.000219808)
(-0.000322684 0 -0.000189062)
(-0.000275813 0 -0.00018858)
(-0.000235198 0 -0.000188457)
(-0.000196291 0 -0.000194973)
(-0.000115423 0 -0.000216316)
(-1.36367e-05 0 -0.000188771)
(5.79454e-05 0 -0.000208546)
(0.00017095 0 -0.000201465)
(0.000243253 0 -0.000226363)
(0.000347711 0 -0.000183126)
(0.000386122 0 -0.000232418)
(0.000511673 0 -6.14573e-05)
(0.000522657 0 -0.000280176)
(0.000621307 0 -4.31035e-06)
(0.000612408 0 3.05719e-05)
(0.000593777 0 8.97701e-05)
(0.000571753 0 0.000144591)
(0.000544022 0 0.000196224)
(0.000495949 0 0.000240352)
(0.000468778 0 0.000195307)
(0.000383453 0 0.000309352)
(0.000343407 0 0.000309535)
(0.000288863 0 0.000299605)
(0.000215755 0 0.000259869)
(0.000176734 0 0.000226121)
(0.000136279 0 0.000114666)
(0.000389021 0 0.000190095)
(-0.000376726 0 -0.000305242)
(8.27722e-06 0 -0.000122468)
(-9.92287e-13 0 -3.79801e-13)
(-2.59089e-12 0 -8.07558e-13)
(-9.42888e-13 0 -5.39682e-13)
(-7.91891e-13 0 -3.91358e-13)
(-6.87727e-13 0 -3.18574e-13)
(-5.92567e-13 0 -2.87916e-13)
(-4.94074e-13 0 -2.78678e-13)
(-3.89465e-13 0 -2.78656e-13)
(-2.79347e-13 0 -2.81016e-13)
(-1.65519e-13 0 -2.82033e-13)
(-5.01686e-14 0 -2.79771e-13)
(6.44287e-14 0 -2.7334e-13)
(1.76042e-13 0 -2.62483e-13)
(2.82575e-13 0 -2.47338e-13)
(3.82138e-13 0 -2.28295e-13)
(4.73098e-13 0 -2.05908e-13)
(5.54123e-13 0 -1.80824e-13)
(6.24195e-13 0 -1.53727e-13)
(6.82621e-13 0 -1.25305e-13)
(7.29011e-13 0 -9.62145e-14)
(7.63263e-13 0 -6.70608e-14)
(7.85524e-13 0 -3.83795e-14)
(7.96147e-13 0 -1.06259e-14)
(7.95647e-13 0 1.58298e-14)
(7.84666e-13 0 4.07025e-14)
(7.6393e-13 0 6.37874e-14)
(7.34218e-13 0 8.49527e-14)
(6.9634e-13 0 1.04129e-13)
(6.5111e-13 0 1.21299e-13)
(5.99338e-13 0 1.36483e-13)
(5.41815e-13 0 1.4973e-13)
(4.79311e-13 0 1.61106e-13)
(4.12566e-13 0 1.70682e-13)
(3.42296e-13 0 1.78534e-13)
(2.69189e-13 0 1.84728e-13)
(1.9391e-13 0 1.89326e-13)
(1.17103e-13 0 1.92372e-13)
(3.9199e-14 0 1.93889e-13)
(-3.8122e-05 0 2.16119e-06)
(-0.000113521 0 3.8557e-05)
(-0.000196154 0 1.20519e-05)
(-0.000117951 0 0.000158352)
(-0.000356037 0 0.000175615)
(-0.000621468 0 0.00010671)
(-0.00057855 0 0.000393113)
(-0.000614054 0 0.000531071)
(-0.000706922 0 0.000489953)
(-0.000775944 0 0.000437035)
(-0.000815228 0 0.000496561)
(-0.000986318 0 0.000243085)
(-0.00102272 0 0.00028878)
(-0.00105724 0 0.000403469)
(-0.00116706 0 0.000211669)
(-0.00121482 0 0.000246907)
(-0.00128381 0 0.000181976)
(-0.00132163 0 0.000152911)
(-0.00134828 0 0.000132011)
(-0.00137239 0 9.95982e-05)
(-0.0013833 0 6.69243e-05)
(-0.0013852 0 -3.27894e-06)
(-0.00138081 0 -3.80059e-05)
(-0.00138791 0 -5.85766e-05)
(-0.00139644 0 -4.00502e-05)
(-0.00139818 0 -2.61194e-05)
(-0.00140052 0 -7.12412e-05)
(-0.00141506 0 -6.31769e-05)
(-0.00142042 0 -5.2078e-05)
(-0.00141875 0 -4.87029e-05)
(-0.00136238 0 -9.33198e-05)
(-0.00128005 0 -0.000114935)
(-0.00123524 0 -0.00013306)
(-0.00122509 0 -0.000180999)
(-0.001213 0 -0.000229046)
(-0.00110687 0 -0.000228231)
(-0.00103435 0 -5.80054e-05)
(-0.000987073 0 -9.24392e-05)
(-0.00094158 0 -0.000333739)
(-0.000926827 0 8.87334e-05)
(-0.000850525 0 -0.000175567)
(-0.000852717 0 -3.6813e-05)
(-0.000806828 0 -0.000168947)
(-0.000786772 0 -8.12507e-05)
(-0.000751617 0 -0.000102455)
(-0.00071188 0 -0.000134514)
(-0.00068209 0 -0.000130562)
(-0.00065852 0 -0.000140688)
(-0.000618825 0 -0.000194406)
(-0.000577189 0 -0.000208291)
(-0.000546449 0 -0.000161786)
(-0.000454298 0 -0.000244537)
(-0.000388459 0 -0.000237874)
(-0.000333661 0 -0.000220347)
(-0.00028594 0 -0.000214024)
(-0.000240121 0 -0.000216987)
(-0.000211659 0 -0.000224251)
(-0.00017869 0 -0.000249018)
(-0.000138566 0 -0.000280854)
(-9.18473e-05 0 -0.000315099)
(-3.54989e-06 0 -0.000346597)
(9.53443e-05 0 -0.000329426)
(0.000221586 0 -0.000285102)
(0.000282416 0 -0.000276206)
(0.000348187 0 -0.000258523)
(0.000450795 0 -0.000167523)
(0.000497113 0 -2.12455e-05)
(0.000486983 0 4.46217e-05)
(0.000486919 0 9.50163e-05)
(0.000498514 0 0.00014099)
(0.000493314 0 0.000241957)
(0.00046958 0 0.000306671)
(0.00046766 0 0.00029583)
(0.000421325 0 0.000328586)
(0.000402043 0 0.000343695)
(0.000398494 0 0.000326706)
(0.000353719 0 0.000318375)
(0.000395378 0 0.000181049)
(0.000247468 0 0.000262969)
(0.000346087 0 -9.84507e-05)
(-3.9931e-05 0 -0.00030167)
(9.19591e-06 0 9.83313e-05)
(-9.60923e-13 0 -2.76437e-13)
(-2.03227e-12 0 -1.03246e-12)
(-6.57381e-13 0 -6.30117e-13)
(-6.57446e-13 0 -4.53507e-13)
(-6.31277e-13 0 -3.87871e-13)
(-5.74176e-13 0 -3.71693e-13)
(-4.92392e-13 0 -3.75638e-13)
(-3.93262e-13 0 -3.85547e-13)
(-2.82749e-13 0 -3.94464e-13)
(-1.65505e-13 0 -3.98906e-13)
(-4.5288e-14 0 -3.97197e-13)
(7.47151e-14 0 -3.88686e-13)
(1.91716e-13 0 -3.73358e-13)
(3.03262e-13 0 -3.51623e-13)
(4.0723e-13 0 -3.24177e-13)
(5.01847e-13 0 -2.91905e-13)
(5.85706e-13 0 -2.55796e-13)
(6.57774e-13 0 -2.16879e-13)
(7.17375e-13 0 -1.76166e-13)
(7.64175e-13 0 -1.3461e-13)
(7.9815e-13 0 -9.30793e-14)
(8.19537e-13 0 -5.23314e-14)
(8.2879e-13 0 -1.3003e-14)
(8.26532e-13 0 2.43951e-14)
(8.13501e-13 0 5.94751e-14)
(7.90517e-13 0 9.19638e-14)
(7.58441e-13 0 1.21691e-13)
(7.18149e-13 0 1.48572e-13)
(6.70512e-13 0 1.72596e-13)
(6.16378e-13 0 1.93805e-13)
(5.56565e-13 0 2.12277e-13)
(4.91856e-13 0 2.28115e-13)
(4.22996e-13 0 2.41429e-13)
(3.50698e-13 0 2.52329e-13)
(2.75641e-13 0 2.60919e-13)
(1.98475e-13 0 2.67285e-13)
(1.19825e-13 0 2.71493e-13)
(4.01032e-14 0 2.73586e-13)
(-5.40659e-05 0 6.72261e-05)
(-9.92948e-05 0 0.000119513)
(-0.000147687 0 0.000198198)
(-0.000198412 0 0.000269044)
(-0.000283851 0 0.000363937)
(-0.000626884 0 0.00039078)
(-0.000658572 0 0.000527779)
(-0.000687646 0 0.000575886)
(-0.000736707 0 0.000534759)
(-0.000751298 0 0.000508554)
(-0.000773011 0 0.000553103)
(-0.000934034 0 0.000456237)
(-0.000986509 0 0.000467937)
(-0.001071 0 0.000357041)
(-0.00112755 0 0.000327862)
(-0.00117871 0 0.000284345)
(-0.00121443 0 0.000233216)
(-0.00123323 0 0.000189831)
(-0.00125697 0 6.97833e-05)
(-0.00126828 0 8.13706e-05)
(-0.00127231 0 4.47697e-05)
(-0.00127398 0 1.56017e-05)
(-0.00130602 0 -2.20558e-05)
(-0.00132783 0 -4.34049e-05)
(-0.00133224 0 -4.94502e-05)
(-0.0013305 0 -5.65822e-05)
(-0.00134028 0 -7.97681e-05)
(-0.00134883 0 -7.90984e-05)
(-0.00135094 0 -7.97445e-05)
(-0.00135299 0 -8.85867e-05)
(-0.00133764 0 -0.00014251)
(-0.00126917 0 -0.000207868)
(-0.00122902 0 -0.000232641)
(-0.00121743 0 -0.000265203)
(-0.00122577 0 -0.000275024)
(-0.00116055 0 -0.000279034)
(-0.00107648 0 -0.000269847)
(-0.00106973 0 -0.00020891)
(-0.00104125 0 -0.000104009)
(-0.000927584 0 -0.000136811)
(-0.000874249 0 -0.000203059)
(-0.000862144 0 -7.17544e-05)
(-0.000801933 0 -0.00019267)
(-0.000771861 0 -0.000147271)
(-0.00073677 0 -0.000144712)
(-0.000696059 0 -0.000172734)
(-0.000661774 0 -0.00017331)
(-0.000642832 0 -0.000168038)
(-0.000610652 0 -0.000219913)
(-0.000561867 0 -0.000259296)
(-0.000530945 0 -0.000222893)
(-0.000436023 0 -0.000314289)
(-0.000376603 0 -0.000294833)
(-0.000293033 0 -0.000288667)
(-0.000269878 0 -0.000239645)
(-0.000199597 0 -0.000253926)
(-0.000192822 0 -0.000243787)
(-0.000155399 0 -0.00028706)
(-0.000100643 0 -0.000328385)
(-7.30491e-05 0 -0.0003539)
(-1.127e-05 0 -0.00039218)
(5.49305e-06 0 -0.000421712)
(0.000103372 0 -0.000429255)
(0.000167561 0 -0.000395289)
(0.000251315 0 -0.00029649)
(0.000320856 0 -0.000172381)
(0.000343326 0 -6.52111e-05)
(0.000349276 0 -1.6277e-06)
(0.000368402 0 8.00122e-05)
(0.000415926 0 0.000126372)
(0.000450617 0 0.000224548)
(0.000451004 0 0.000312495)
(0.000446626 0 0.000319658)
(0.000440012 0 0.000332402)
(0.000443283 0 0.000344256)
(0.000458149 0 0.000325448)
(0.000438541 0 0.000326101)
(0.000470753 0 0.000201825)
(0.000370328 0 0.000283246)
(0.000437373 0 -1.17633e-05)
(-6.45987e-05 0 -0.000136294)
(1.11763e-05 0 0.000327422)
(1.06067e-14 0 5.6804e-12)
(-1.36895e-12 0 -5.71251e-13)
(-3.63415e-13 0 -4.93874e-13)
(-5.49137e-13 0 -4.03987e-13)
(-6.05685e-13 0 -4.06975e-13)
(-5.80334e-13 0 -4.34929e-13)
(-5.07929e-13 0 -4.663e-13)
(-4.08291e-13 0 -4.93183e-13)
(-2.92705e-13 0 -5.12234e-13)
(-1.68252e-13 0 -5.21883e-13)
(-3.99485e-14 0 -5.21469e-13)
(8.82678e-14 0 -5.10953e-13)
(2.13105e-13 0 -4.90775e-13)
(3.31757e-13 0 -4.61754e-13)
(4.41856e-13 0 -4.25001e-13)
(5.41479e-13 0 -3.8182e-13)
(6.29148e-13 0 -3.33625e-13)
(7.03826e-13 0 -2.81848e-13)
(7.6489e-13 0 -2.27876e-13)
(8.12097e-13 0 -1.72991e-13)
(8.45542e-13 0 -1.18343e-13)
(8.65601e-13 0 -6.49188e-14)
(8.72873e-13 0 -1.35332e-14)
(8.68126e-13 0 3.51708e-14)
(8.52235e-13 0 8.07152e-14)
(8.26145e-13 0 1.22773e-13)
(7.90827e-13 0 1.61151e-13)
(7.47245e-13 0 1.95765e-13)
(6.96343e-13 0 2.26623e-13)
(6.39019e-13 0 2.538e-13)
(5.76125e-13 0 2.77418e-13)
(5.08462e-13 0 2.97624e-13)
(4.36781e-13 0 3.14578e-13)
(3.61787e-13 0 3.28435e-13)
(2.84144e-13 0 3.39337e-13)
(2.04483e-13 0 3.47405e-13)
(1.23405e-13 0 3.52733e-13)
(4.12924e-14 0 3.55383e-13)
(-3.97818e-05 0 0.000144642)
(-8.58737e-05 0 0.000207138)
(-0.000286201 0 0.000203384)
(-0.000460903 0 0.000187277)
(-0.00023475 0 0.000540457)
(-0.000483537 0 0.000557447)
(-0.00062329 0 0.000561628)
(-0.000668558 0 0.000595678)
(-0.000723394 0 0.000580251)
(-0.000757199 0 0.000558909)
(-0.000840373 0 0.000467182)
(-0.000919081 0 0.000463311)
(-0.000938849 0 0.000520811)
(-0.001021 0 0.000407022)
(-0.00105567 0 0.000385185)
(-0.00109156 0 0.000319752)
(-0.00110924 0 0.000266704)
(-0.00112475 0 0.000193997)
(-0.00115313 0 0.000110377)
(-0.0011635 0 0.000141963)
(-0.00116754 0 8.39409e-05)
(-0.00117527 0 3.56977e-05)
(-0.00120254 0 -4.56894e-06)
(-0.00121002 0 2.28238e-05)
(-0.00121162 0 1.09548e-06)
(-0.00122803 0 -2.92064e-05)
(-0.00124148 0 -4.29415e-05)
(-0.00124273 0 -6.3792e-05)
(-0.00123795 0 -9.27922e-05)
(-0.00123492 0 -0.000134244)
(-0.00124019 0 -0.000179571)
(-0.00124292 0 -0.000190552)
(-0.00122402 0 -0.000247997)
(-0.00121339 0 -0.000284)
(-0.00120255 0 -0.000329156)
(-0.00115311 0 -0.00036057)
(-0.00113365 0 -0.000300171)
(-0.00112215 0 -0.0002512)
(-0.00106237 0 -0.000186252)
(-0.000952726 0 -0.000303354)
(-0.000907249 0 -0.000188937)
(-0.00084499 0 -0.000144215)
(-0.000777255 0 -0.000231996)
(-0.000747047 0 -0.000179567)
(-0.000708916 0 -0.000178833)
(-0.000666766 0 -0.000182209)
(-0.000600922 0 -0.000230873)
(-0.00057523 0 -0.0002024)
(-0.000542159 0 -0.000229086)
(-0.000531021 0 -0.000213063)
(-0.000447219 0 -0.000335418)
(-0.000413973 0 -0.000350889)
(-0.000328045 0 -0.000382549)
(-0.000229458 0 -0.000352451)
(-0.000232614 0 -0.0002725)
(-0.000119802 0 -0.000294061)
(-9.05866e-05 0 -0.000259616)
(-0.000133449 0 -0.00030021)
(-8.18477e-05 0 -0.000363854)
(-7.1444e-05 0 -0.000409336)
(-9.1967e-06 0 -0.000448194)
(4.06573e-05 0 -0.000458821)
(6.59557e-05 0 -0.000461511)
(8.0847e-05 0 -0.000425023)
(0.000106536 0 -0.000373782)
(0.00018109 0 -0.000247273)
(0.000238221 0 -7.46429e-05)
(0.00025149 0 -8.24081e-06)
(0.000280044 0 2.20016e-05)
(0.000328996 0 9.88014e-05)
(0.00038531 0 0.000196074)
(0.000399985 0 0.00030313)
(0.000423279 0 0.00031298)
(0.000444654 0 0.00032337)
(0.000462175 0 0.000326607)
(0.000459702 0 0.0003194)
(0.000459236 0 0.000291845)
(0.000472055 0 0.000211697)
(0.000420617 0 0.000227912)
(0.000429534 0 6.56109e-05)
(2.61958e-05 0 -5.52317e-05)
(2.92335e-05 0 0.000388192)
(2.89011e-09 0 1.18469e-08)
(-2.83856e-12 0 1.58404e-12)
(-4.89584e-13 0 -3.35624e-14)
(-5.70072e-13 0 -2.61025e-13)
(-6.62019e-13 0 -4.00455e-13)
(-6.335e-13 0 -4.94365e-13)
(-5.50646e-13 0 -5.61129e-13)
(-4.39197e-13 0 -6.08394e-13)
(-3.11448e-13 0 -6.39227e-13)
(-1.74739e-13 0 -6.54833e-13)
(-3.43583e-14 0 -6.55853e-13)
(1.05409e-13 0 -6.42975e-13)
(2.40915e-13 0 -6.17178e-13)
(3.69036e-13 0 -5.79786e-13)
(4.87164e-13 0 -5.32416e-13)
(5.93223e-13 0 -4.76895e-13)
(6.85678e-13 0 -4.15148e-13)
(7.63523e-13 0 -3.49094e-13)
(8.26232e-13 0 -2.80553e-13)
(8.73708e-13 0 -2.11181e-13)
(9.06222e-13 0 -1.4243e-13)
(9.24347e-13 0 -7.55262e-14)
(9.2888e-13 0 -1.14597e-14)
(9.2078e-13 0 4.90083e-14)
(9.01104e-13 0 1.05329e-13)
(8.70952e-13 0 1.57143e-13)
(8.31432e-13 0 2.04256e-13)
(7.83622e-13 0 2.46607e-13)
(7.28548e-13 0 2.84243e-13)
(6.67173e-13 0 3.17291e-13)
(6.00389e-13 0 3.45928e-13)
(5.29015e-13 0 3.70364e-13)
(4.53807e-13 0 3.90818e-13)
(3.75458e-13 0 4.07499e-13)
(2.94612e-13 0 4.206e-13)
(2.11871e-13 0 4.3028e-13)
(1.27803e-13 0 4.36665e-13)
(4.27532e-14 0 4.3984e-13)
(-6.15163e-05 0 0.000202058)
(-2.45992e-05 0 0.000334171)
(-0.000248528 0 0.000355257)
(-0.000368784 0 0.000425119)
(-0.000507452 0 0.000473402)
(-0.000431313 0 0.000654499)
(-0.000564632 0 0.000638655)
(-0.000584339 0 0.000672725)
(-0.000683543 0 0.000621397)
(-0.000697541 0 0.000661466)
(-0.00078013 0 0.000611319)
(-0.00084197 0 0.000570888)
(-0.000885862 0 0.000530129)
(-0.000957926 0 0.000415745)
(-0.000959812 0 0.000425034)
(-0.000971159 0 0.000342082)
(-0.000964019 0 0.00032376)
(-0.00100737 0 0.000200475)
(-0.00103339 0 0.000148408)
(-0.00104116 0 0.00012318)
(-0.00104482 0 6.17899e-05)
(-0.00106829 0 -2.46579e-05)
(-0.00107792 0 2.57772e-05)
(-0.00107819 0 -1.29942e-05)
(-0.00109534 0 -5.79792e-05)
(-0.00111203 0 -5.16204e-05)
(-0.00111701 0 -4.71876e-05)
(-0.00111678 0 -5.79704e-05)
(-0.00111649 0 -6.90716e-05)
(-0.00112547 0 -9.37962e-05)
(-0.00113576 0 -0.000144164)
(-0.00114744 0 -0.000173467)
(-0.00114865 0 -0.000241519)
(-0.00114768 0 -0.000291065)
(-0.00114944 0 -0.000306593)
(-0.00115452 0 -0.000303996)
(-0.00112464 0 -0.00035207)
(-0.00111911 0 -0.000210718)
(-0.00105757 0 -0.000267771)
(-0.000995042 0 -0.000304477)
(-0.000897973 0 -0.000256018)
(-0.000825186 0 -0.000247261)
(-0.000772626 0 -0.0002406)
(-0.000721702 0 -0.000218709)
(-0.000667559 0 -0.000226259)
(-0.000587749 0 -0.000265336)
(-0.000494821 0 -0.000293969)
(-0.000440871 0 -0.000263591)
(-0.000385232 0 -0.000277099)
(-0.000359881 0 -0.000284947)
(-0.000310731 0 -0.000366778)
(-0.00031447 0 -0.000391486)
(-0.000328669 0 -0.000401845)
(-0.000153962 0 -0.000466956)
(-0.000125244 0 -0.000371844)
(-2.7009e-05 0 -0.000330832)
(1.57984e-05 0 -0.000238819)
(-6.21409e-05 0 -0.000276538)
(-7.03852e-05 0 -0.000373086)
(-6.66399e-05 0 -0.000440882)
(-3.42081e-05 0 -0.000482409)
(-2.34131e-05 0 -0.000491843)
(1.26666e-05 0 -0.000496082)
(3.73447e-05 0 -0.000442379)
(4.26312e-05 0 -0.000368014)
(6.86509e-05 0 -0.000307989)
(0.000147645 0 -0.000119792)
(0.000174242 0 -3.47494e-05)
(0.000196784 0 -4.38542e-06)
(0.000235061 0 6.71169e-05)
(0.000283751 0 0.000166076)
(0.000319262 0 0.000257547)
(0.000406381 0 0.000232859)
(0.000451444 0 0.000280693)
(0.000443629 0 0.000325952)
(0.000440794 0 0.000321514)
(0.000451678 0 0.000290032)
(0.000455489 0 0.000240094)
(0.000402157 0 0.00024639)
(0.000378112 0 0.000170879)
(0.000138497 0 0.000114511)
(-0.000244776 0 0.000481649)
(7.25111e-06 0 2.12578e-05)
(-1.60036e-12 0 1.30345e-12)
(-2.01678e-12 0 2.39854e-13)
(-9.15541e-13 0 -2.05747e-13)
(-8.38839e-13 0 -4.38985e-13)
(-7.41008e-13 0 -5.8066e-13)
(-6.21958e-13 0 -6.75198e-13)
(-4.86388e-13 0 -7.39803e-13)
(-3.39144e-13 0 -7.81249e-13)
(-1.84879e-13 0 -8.02241e-13)
(-2.809e-14 0 -8.04105e-13)
(1.26942e-13 0 -7.87984e-13)
(2.76293e-13 0 -7.55326e-13)
(4.16519e-13 0 -7.07991e-13)
(5.44748e-13 0 -6.482e-13)
(6.58747e-13 0 -5.78411e-13)
(7.56948e-13 0 -5.01175e-13)
(8.38421e-13 0 -4.18991e-13)
(9.02803e-13 0 -3.34188e-13)
(9.5022e-13 0 -2.48846e-13)
(9.81196e-13 0 -1.64751e-13)
(9.96571e-13 0 -8.33737e-14)
(9.97408e-13 0 -5.86978e-15)
(9.84914e-13 0 6.69003e-14)
(9.6037e-13 0 1.34344e-13)
(9.25073e-13 0 1.96102e-13)
(8.8029e-13 0 2.52009e-13)
(8.27233e-13 0 3.02057e-13)
(7.67026e-13 0 3.4636e-13)
(7.00703e-13 0 3.85118e-13)
(6.29199e-13 0 4.18589e-13)
(5.53352e-13 0 4.47059e-13)
(4.73916e-13 0 4.7082e-13)
(3.91569e-13 0 4.90149e-13)
(3.06925e-13 0 5.05295e-13)
(2.20549e-13 0 5.16467e-13)
(1.32964e-13 0 5.23826e-13)
(4.4467e-14 0 5.27483e-13)
(-9.18477e-05 0 0.000279388)
(-0.000265371 0 0.000375778)
(-7.94256e-05 0 0.000533831)
(-0.000283597 0 0.000530691)
(-0.000544113 0 0.000549498)
(-0.000556894 0 0.000649064)
(-0.000615771 0 0.000659395)
(-0.000656813 0 0.000631892)
(-0.000654417 0 0.000660878)
(-0.000695681 0 0.000658433)
(-0.000754834 0 0.000633602)
(-0.000788203 0 0.000612588)
(-0.000834169 0 0.000535004)
(-0.000809505 0 0.000537609)
(-0.000860227 0 0.000421211)
(-0.000856559 0 0.000333939)
(-0.000849626 0 0.000260612)
(-0.000843189 0 0.000262564)
(-0.000873207 0 0.000189446)
(-0.000894574 0 0.000152419)
(-0.000916922 0 6.97174e-05)
(-0.000923411 0 9.00944e-05)
(-0.000940968 0 5.84687e-05)
(-0.000982997 0 4.11332e-06)
(-0.00100832 0 1.00021e-05)
(-0.00100855 0 -2.19234e-06)
(-0.00100439 0 -2.64931e-05)
(-0.00100698 0 -7.44073e-05)
(-0.00100742 0 -8.65979e-05)
(-0.00100491 0 -0.000105485)
(-0.00100438 0 -0.000137738)
(-0.00102665 0 -0.000189059)
(-0.00104745 0 -0.000233654)
(-0.00105356 0 -0.000270596)
(-0.00105006 0 -0.000332351)
(-0.00106524 0 -0.00032742)
(-0.0010623 0 -0.000338076)
(-0.00102794 0 -0.00040422)
(-0.000968002 0 -0.000521603)
(-0.00102976 0 -0.00019584)
(-0.000855126 0 -0.000425937)
(-0.000849619 0 -0.000298312)
(-0.000766712 0 -0.000317708)
(-0.000698319 0 -0.000321846)
(-0.000643115 0 -0.000287007)
(-0.000535672 0 -0.000329385)
(-0.000399312 0 -0.000380739)
(-0.000311575 0 -0.000349249)
(-0.000232475 0 -0.000333128)
(-0.000179779 0 -0.000332775)
(-0.00011421 0 -0.000379443)
(-0.000136783 0 -0.000400548)
(-0.000134618 0 -0.000479589)
(-0.000152258 0 -0.000533826)
(1.61235e-05 0 -0.000528809)
(-3.28771e-05 0 -0.000436022)
(0.000113833 0 -0.000215483)
(2.32811e-05 0 -0.000222307)
(-1.35266e-05 0 -0.000341499)
(-6.1569e-05 0 -0.00045)
(-3.86215e-05 0 -0.000494535)
(-5.14263e-05 0 -0.000504092)
(-2.73896e-05 0 -0.000507661)
(-5.38854e-05 0 -0.000449688)
(-1.54525e-05 0 -0.000364207)
(-6.83104e-06 0 -0.00030711)
(1.8612e-05 0 -0.000211103)
(9.69805e-05 0 -9.28147e-05)
(0.000124045 0 -1.92659e-05)
(0.000155168 0 1.46205e-05)
(0.000174128 0 0.000152588)
(0.000275657 0 0.000118967)
(0.000333391 0 0.000208698)
(0.000361168 0 0.00031649)
(0.000392135 0 0.000324973)
(0.000441497 0 0.000266914)
(0.000436282 0 0.000285577)
(0.000423458 0 0.000285915)
(0.000386812 0 0.00028269)
(0.000379991 0 0.000221198)
(0.000250789 0 0.000214914)
(-0.000241862 0 0.000570003)
(8.55904e-06 0 0.000360197)
(-1.47775e-12 0 1.02778e-13)
(-2.80247e-12 0 -5.98907e-14)
(-1.2484e-12 0 -3.62645e-13)
(-1.03676e-12 0 -5.68843e-13)
(-8.69713e-13 0 -7.13981e-13)
(-7.09789e-13 0 -8.19071e-13)
(-5.45248e-13 0 -8.94216e-13)
(-3.73886e-13 0 -9.4356e-13)
(-1.97594e-13 0 -9.68634e-13)
(-2.01009e-14 0 -9.70266e-13)
(1.54188e-13 0 -9.49559e-13)
(3.20907e-13 0 -9.08276e-13)
(4.76162e-13 0 -8.48849e-13)
(6.16744e-13 0 -7.74223e-13)
(7.40248e-13 0 -6.87637e-13)
(8.45099e-13 0 -5.92409e-13)
(9.3051e-13 0 -4.91738e-13)
(9.96376e-13 0 -3.88555e-13)
(1.04314e-12 0 -2.8542e-13)
(1.07169e-12 0 -1.84479e-13)
(1.08323e-12 0 -8.74488e-14)
(1.07915e-12 0 4.36305e-15)
(1.06099e-12 0 9.00287e-14)
(1.03031e-12 0 1.68951e-13)
(9.88617e-13 0 2.40811e-13)
(9.37387e-13 0 3.05516e-13)
(8.77973e-13 0 3.63151e-13)
(8.11609e-13 0 4.13929e-13)
(7.39402e-13 0 4.58158e-13)
(6.6233e-13 0 4.96196e-13)
(5.81246e-13 0 5.28429e-13)
(4.96896e-13 0 5.55239e-13)
(4.09933e-13 0 5.76981e-13)
(3.2093e-13 0 5.93975e-13)
(2.30402e-13 0 6.06483e-13)
(1.38819e-13 0 6.1471e-13)
(4.64097e-14 0 6.18794e-13)
(-7.13611e-06 0 0.000373349)
(6.24004e-06 0 0.000467858)
(-0.00017958 0 0.000567387)
(-0.000210078 0 0.0006474)
(-0.000246064 0 0.000733451)
(-0.000431637 0 0.000738373)
(-0.000470343 0 0.000781622)
(-0.000553789 0 0.000754769)
(-0.000581023 0 0.00074232)
(-0.000631769 0 0.00071691)
(-0.000678602 0 0.000686953)
(-0.000702739 0 0.000664794)
(-0.000664308 0 0.000647936)
(-0.000787711 0 0.000409203)
(-0.000717968 0 0.000456128)
(-0.000738924 0 0.000358635)
(-0.000758358 0 0.000233947)
(-0.000720929 0 0.000236915)
(-0.000720989 0 0.000204449)
(-0.000744341 0 0.000159754)
(-0.000776506 0 0.000100426)
(-0.000791407 0 8.34602e-05)
(-0.000822386 0 5.65995e-05)
(-0.000861759 0 2.41791e-05)
(-0.000875124 0 4.47301e-05)
(-0.000881372 0 -5.34783e-05)
(-0.00090447 0 -4.70201e-05)
(-0.000916315 0 -5.21048e-05)
(-0.000917476 0 -7.75361e-05)
(-0.000910771 0 -0.000112422)
(-0.000904135 0 -0.000130247)
(-0.00092316 0 -0.00015807)
(-0.00095241 0 -0.000197838)
(-0.00095404 0 -0.00027984)
(-0.000967286 0 -0.000308931)
(-0.000986622 0 -0.0002887)
(-0.00097677 0 -0.000315218)
(-0.000964744 0 -0.000330957)
(-0.000968289 0 -0.000347068)
(-0.000834298 0 -0.00058551)
(-0.000856281 0 -0.000429629)
(-0.000874507 0 -0.000220493)
(-0.000721774 0 -0.000419445)
(-0.000678391 0 -0.00035943)
(-0.000609283 0 -0.000358777)
(-0.000417513 0 -0.000492693)
(-0.000374306 0 -0.00039766)
(-0.000252944 0 -0.000382228)
(-0.000153969 0 -0.000364994)
(-5.19842e-05 0 -0.000364158)
(-7.29559e-06 0 -0.000357607)
(9.33767e-05 0 -0.000378986)
(-1.46782e-05 0 -0.000433032)
(-7.85186e-05 0 -0.000557177)
(4.41079e-05 0 -0.000571029)
(-2.84648e-05 0 -0.000517791)
(0.000122559 0 -0.000249624)
(5.88109e-05 0 -0.000156916)