0 	297.927
0.010101 	307.431
0.020202 	314.063
