/*--------------------------------*- C++ -*----------------------------------*\
  =========                 |
  \\      /  F ield         | OpenFOAM: The Open Source CFD Toolbox
   \\    /   O peration     | Website:  https://openfoam.org
    \\  /    A nd           | Version:  6
     \\/     M anipulation  |
\*---------------------------------------------------------------------------*/
FoamFile
{
    version     2.0;
    format      ascii;
    class       volScalarField;
    location    "1300";
    object      T;
}
// * * * * * * * * * * * * * * * * * * * * * * * * * * * * * * * * * * * * * //

dimensions      [0 0 0 1 0 0 0];

internalField   nonuniform List<scalar> 
4800
(
552.489
552.368
552.245
552.123
552
551.877
551.755
551.634
551.515
551.4
551.29
551.186
551.088
550.996
550.91
550.829
550.753
550.682
550.614
550.55
550.489
550.431
550.374
550.32
550.267
550.214
550.162
550.11
550.057
550.005
549.952
549.898
549.844
549.788
549.731
549.673
549.612
549.548
549.481
549.411
549.336
549.256
549.172
549.084
548.991
548.895
548.797
548.698
548.598
548.499
548.4
548.301
548.203
548.105
548.007
547.909
547.811
547.713
547.615
547.516
547.417
547.317
547.217
547.115
547.012
546.907
546.797
546.683
546.563
546.437
546.303
546.161
546.012
545.857
545.695
545.528
545.357
545.183
545.008
544.831
544.651
544.563
544.472
544.379
544.285
544.188
544.09
543.991
543.89
543.788
543.686
543.583
543.479
543.375
543.271
543.166
543.061
542.955
542.849
542.744
542.637
542.531
542.425
542.318
542.212
542.105
541.998
541.891
541.784
541.677
541.57
541.463
541.356
541.248
541.141
541.033
540.926
540.819
540.711
540.604
552.489
552.366
552.243
552.12
551.997
551.874
551.753
551.633
551.515
551.401
551.293
551.19
551.094
551.003
550.917
550.837
550.762
550.691
550.623
550.56
550.499
550.441
550.385
550.331
550.277
550.225
550.172
550.12
550.067
550.014
549.961
549.907
549.852
549.796
549.738
549.679
549.618
549.554
549.487
549.416
549.34
549.261
549.177
549.089
548.996
548.901
548.804
548.705
548.606
548.507
548.408
548.31
548.212
548.114
548.016
547.919
547.821
547.723
547.625
547.527
547.428
547.328
547.227
547.126
547.022
546.917
546.808
546.694
546.575
546.449
546.315
546.174
546.025
545.87
545.708
545.54
545.369
545.194
545.016
544.836
544.653
544.565
544.474
544.381
544.286
544.189
544.091
543.992
543.891
543.789
543.687
543.584
543.48
543.376
543.271
543.166
543.061
542.955
542.85
542.744
542.638
542.531
542.425
542.318
542.212
542.105
541.998
541.891
541.784
541.677
541.57
541.463
541.356
541.248
541.141
541.034
540.926
540.819
540.711
540.604
552.488
552.364
552.24
552.117
551.994
551.872
551.751
551.633
551.517
551.406
551.3
551.199
551.105
551.016
550.932
550.853
550.778
550.708
550.642
550.579
550.519
550.461
550.406
550.352
550.298
550.245
550.192
550.139
550.085
550.031
549.977
549.922
549.867
549.81
549.752
549.692
549.63
549.565
549.497
549.425
549.35
549.27
549.186
549.098
549.007
548.912
548.816
548.718
548.62
548.522
548.424
548.326
548.228
548.131
548.033
547.936
547.839
547.742
547.644
547.546
547.446
547.346
547.245
547.143
547.04
546.935
546.826
546.713
546.594
546.468
546.335
546.194
546.046
545.891
545.729
545.562
545.389
545.211
545.029
544.844
544.658
544.569
544.478
544.384
544.289
544.192
544.093
543.993
543.892
543.791
543.688
543.585
543.481
543.376
543.272
543.167
543.061
542.956
542.85
542.744
542.638
542.532
542.425
542.319
542.212
542.105
541.998
541.891
541.784
541.677
541.57
541.463
541.356
541.248
541.141
541.034
540.926
540.819
540.711
540.604
552.487
552.363
552.238
552.115
551.992
551.871
551.752
551.635
551.522
551.414
551.311
551.213
551.121
551.034
550.952
550.875
550.802
550.733
550.668
550.606
550.547
550.49
550.435
550.38
550.327
550.273
550.219
550.165
550.111
550.056
550.001
549.945
549.889
549.831
549.771
549.71
549.646
549.58
549.511
549.439
549.363
549.283
549.199
549.112
549.021
548.928
548.833
548.737
548.64
548.542
548.445
548.348
548.251
548.154
548.057
547.961
547.864
547.767
547.67
547.571
547.472
547.371
547.27
547.168
547.064
546.959
546.851
546.737
546.618
546.492
546.359
546.218
546.07
545.914
545.751
545.582
545.408
545.228
545.043
544.854
544.663
544.574
544.483
544.389
544.293
544.196
544.096
543.996
543.895
543.793
543.69
543.586
543.482
543.378
543.273
543.168
543.062
542.956
542.851
542.745
542.638
542.532
542.425
542.319
542.212
542.105
541.999
541.892
541.785
541.677
541.57
541.463
541.356
541.248
541.141
541.034
540.926
540.819
540.711
540.604
552.487
552.361
552.237
552.114
551.993
551.873
551.755
551.641
551.531
551.427
551.327
551.233
551.143
551.059
550.979
550.904
550.832
550.765
550.701
550.64
550.582
550.526
550.471
550.416
550.362
550.308
550.254
550.199
550.144
550.089
550.032
549.975
549.917
549.858
549.797
549.734
549.669
549.601
549.531
549.457
549.38
549.3
549.216
549.129
549.04
548.948
548.854
548.759
548.664
548.568
548.471
548.375
548.279
548.183
548.087
547.992
547.896
547.799
547.702
547.603
547.503
547.402
547.3
547.198
547.094
546.988
546.878
546.763
546.643
546.516
546.382
546.241
546.092
545.935
545.772
545.601
545.425
545.243
545.056
544.865
544.67
544.582
544.491
544.396
544.299
544.2
544.101
544
543.898
543.795
543.692
543.588
543.484
543.379
543.274
543.169
543.063
542.957
542.851
542.745
542.639
542.532
542.426
542.319
542.213
542.106
541.999
541.892
541.785
541.678
541.57
541.463
541.356
541.248
541.141
541.034
540.926
540.819
540.711
540.604
552.487
552.362
552.238
552.115
551.995
551.877
551.762
551.651
551.545
551.444
551.348
551.257
551.17
551.088
551.011
550.938
550.868
550.803
550.74
550.681
550.624
550.568
550.513
550.459
550.405
550.35
550.295
550.24
550.184
550.127
550.07
550.012
549.952
549.892
549.829
549.765
549.698
549.628
549.556
549.481
549.402
549.321
549.237
549.151
549.062
548.971
548.879
548.786
548.692
548.597
548.502
548.408
548.313
548.218
548.124
548.029
547.933
547.837
547.739
547.64
547.54
547.438
547.335
547.233
547.128
547.02
546.907
546.789
546.666
546.537
546.402
546.259
546.11
545.953
545.789
545.618
545.44
545.257
545.07
544.878
544.679
544.593
544.501
544.404
544.306
544.206
544.105
544.004
543.901
543.798
543.695
543.59
543.486
543.381
543.275
543.17
543.064
542.958
542.852
542.746
542.64
542.533
542.426
542.32
542.213
542.106
541.999
541.892
541.785
541.678
541.571
541.463
541.356
541.249
541.141
541.034
540.926
540.819
540.711
540.604
552.488
552.363
552.241
552.12
552.001
551.885
551.773
551.666
551.563
551.466
551.374
551.286
551.202
551.123
551.048
550.977
550.91
550.846
550.785
550.727
550.671
550.616
550.561
550.507
550.453
550.398
550.343
550.287
550.231
550.173
550.115
550.055
549.995
549.932
549.868
549.802
549.733
549.662
549.588
549.511
549.431
549.349
549.264
549.178
549.089
549
548.909
548.817
548.724
548.632
548.539
548.446
548.353
548.259
548.166
548.072
547.977
547.881
547.783
547.683
547.582
547.479
547.376
547.272
547.164
547.052
546.935
546.813
546.686
546.553
546.416
546.272
546.122
545.965
545.801
545.63
545.453
545.272
545.087
544.898
544.697
544.611
544.514
544.414
544.314
544.212
544.111
544.008
543.905
543.802
543.697
543.593
543.488
543.383
543.277
543.171
543.065
542.959
542.853
542.747
542.64
542.534
542.427
542.32
542.213
542.107
541.999
541.892
541.785
541.678
541.571
541.464
541.356
541.249
541.141
541.034
540.926
540.819
540.711
540.604
552.489
552.366
552.245
552.126
552.01
551.898
551.789
551.685
551.587
551.493
551.404
551.319
551.239
551.163
551.09
551.022
550.956
550.894
550.835
550.778
550.723
550.668
550.615
550.561
550.507
550.452
550.397
550.341
550.284
550.226
550.166
550.106
550.044
549.981
549.915
549.847
549.777
549.704
549.627
549.548
549.467
549.383
549.298
549.211
549.123
549.034
548.944
548.854
548.763
548.672
548.581
548.49
548.399
548.307
548.215
548.122
548.028
547.931
547.832
547.732
547.629
547.525
547.42
547.313
547.2
547.083
546.96
546.833
546.701
546.565
546.424
546.278
546.127
545.97
545.807
545.638
545.463
545.285
545.105
544.928
544.763
544.64
544.53
544.425
544.321
544.219
544.116
544.013
543.909
543.805
543.701
543.596
543.49
543.385
543.279
543.173
543.067
542.961
542.854
542.748
542.641
542.534
542.428
542.321
542.214
542.107
542
541.893
541.786
541.678
541.571
541.464
541.356
541.249
541.141
541.034
540.926
540.819
540.711
540.604
552.49
552.37
552.252
552.136
552.023
551.914
551.809
551.709
551.614
551.523
551.438
551.356
551.279
551.206
551.136
551.07
551.007
550.946
550.889
550.833
550.779
550.726
550.673
550.62
550.566
550.511
550.456
550.4
550.343
550.284
550.224
550.163
550.1
550.036
549.969
549.9
549.828
549.753
549.675
549.594
549.511
549.426
549.34
549.252
549.164
549.075
548.986
548.897
548.808
548.719
548.631
548.542
548.452
548.363
548.272
548.179
548.085
547.988
547.888
547.787
547.683
547.577
547.468
547.356
547.237
547.113
546.984
546.85
546.712
546.57
546.426
546.279
546.127
545.97
545.808
545.641
545.469
545.293
545.117
544.945
544.787
544.656
544.541
544.433
544.329
544.225
544.121
544.018
543.913
543.809
543.704
543.598
543.493
543.387
543.281
543.175
543.068
542.962
542.855
542.749
542.642
542.535
542.428
542.322
542.215
542.107
542
541.893
541.786
541.679
541.571
541.464
541.357
541.249
541.142
541.034
540.927
540.819
540.711
540.604
552.491
552.375
552.26
552.147
552.038
551.933
551.832
551.735
551.644
551.557
551.475
551.397
551.322
551.252
551.185
551.121
551.06
551.002
550.946
550.891
550.838
550.786
550.735
550.682
550.629
550.576
550.521
550.465
550.408
550.349
550.289
550.227
550.164
550.099
550.031
549.961
549.888
549.811
549.731
549.649
549.564
549.478
549.391
549.302
549.214
549.125
549.036
548.948
548.861
548.775
548.688
548.602
548.514
548.426
548.336
548.245
548.15
548.053
547.952
547.849
547.743
547.634
547.521
547.402
547.276
547.145
547.007
546.865
546.72
546.573
546.425
546.275
546.122
545.965
545.804
545.639
545.468
545.294
545.118
544.944
544.784
544.657
544.545
544.439
544.335
544.231
544.127
544.022
543.918
543.812
543.707
543.601
543.495
543.389
543.283
543.176
543.07
542.963
542.857
542.75
542.643
542.536
542.429
542.322
542.215
542.108
542.001
541.894
541.786
541.679
541.572
541.464
541.357
541.249
541.142
541.034
540.927
540.819
540.711
540.604
552.493
552.38
552.269
552.16
552.055
551.953
551.856
551.764
551.676
551.592
551.513
551.438
551.367
551.3
551.235
551.173
551.115
551.058
551.004
550.952
550.9
550.85
550.799
550.748
550.696
550.643
550.59
550.535
550.478
550.419
550.359
550.297
550.234
550.168
550.1
550.029
549.955
549.877
549.796
549.712
549.626
549.539
549.45
549.362
549.273
549.184
549.096
549.009
548.924
548.84
548.755
548.671
548.586
548.499
548.411
548.32
548.225
548.128
548.027
547.922
547.814
547.7
547.58
547.453
547.319
547.179
547.032
546.882
546.73
546.577
546.423
546.27
546.115
545.958
545.798
545.634
545.465
545.291
545.113
544.93
544.752
544.644
544.544
544.443
544.34
544.237
544.132
544.027
543.922
543.816
543.71
543.604
543.497
543.391
543.284
543.178
543.071
542.964
542.858
542.751
542.644
542.537
542.43
542.323
542.216
542.109
542.001
541.894
541.787
541.679
541.572
541.464
541.357
541.249
541.142
541.034
540.927
540.819
540.711
540.604
552.495
552.386
552.279
552.174
552.072
551.975
551.881
551.792
551.708
551.628
551.552
551.48
551.412
551.347
551.285
551.226
551.169
551.115
551.063
551.012
550.963
550.914
550.864
550.815
550.764
550.713
550.661
550.607
550.551
550.493
550.434
550.372
550.309
550.243
550.175
550.104
550.029
549.95
549.868
549.783
549.697
549.609
549.52
549.431
549.341
549.253
549.166
549.082
548.998
548.916
548.834
548.752
548.669
548.584
548.497
548.407
548.314
548.217
548.116
548.009
547.897
547.777
547.649
547.513
547.37
547.219
547.063
546.904
546.744
546.584
546.425
546.267
546.11
545.952
545.792
545.629
545.461
545.288
545.107
544.907
544.655
544.626
544.546
544.45
544.348
544.243
544.138
544.032
543.926
543.82
543.713
543.606
543.5
543.393
543.286
543.179
543.073
542.966
542.859
542.752
542.645
542.538
542.431
542.324
542.216
542.109
542.002
541.895
541.787
541.68
541.572
541.465
541.357
541.25
541.142
541.034
540.927
540.819
540.712
540.604
552.497
552.392
552.288
552.187
552.089
551.995
551.906
551.82
551.739
551.662
551.59
551.52
551.455
551.392
551.333
551.276
551.222
551.17
551.12
551.071
551.024
550.976
550.929
550.881
550.832
550.783
550.732
550.68
550.625
550.569
550.51
550.449
550.387
550.321
550.254
550.182
550.107
550.029
549.947
549.862
549.775
549.687
549.598
549.509
549.42
549.333
549.247
549.165
549.083
549.003
548.924
548.845
548.765
548.683
548.599
548.511
548.42
548.324
548.221
548.112
547.995
547.868
547.731
547.584
547.43
547.269
547.102
546.934
546.765
546.598
546.433
546.27
546.109
545.949
545.789
545.627
545.462
545.293
545.119
544.937
544.753
544.662
544.565
544.463
544.358
544.252
544.145
544.037
543.93
543.823
543.716
543.609
543.502
543.395
543.288
543.181
543.074
542.967
542.86
542.753
542.646
542.539
542.431
542.324
542.217
542.11
542.002
541.895
541.788
541.68
541.573
541.465
541.358
541.25
541.142
541.035
540.927
540.819
540.712
540.604
552.499
552.397
552.297
552.199
552.104
552.014
551.927
551.845
551.767
551.693
551.622
551.556
551.493
551.433
551.376
551.322
551.27
551.22
551.172
551.126
551.08
551.035
550.989
550.943
550.897
550.85
550.801
550.75
550.697
550.642
550.585
550.526
550.465
550.401
550.334
550.263
550.189
550.111
550.03
549.946
549.86
549.773
549.685
549.597
549.509
549.423
549.34
549.26
549.18
549.103
549.028
548.953
548.876
548.798
548.717
548.633
548.544
548.448
548.344
548.232
548.109
547.974
547.826
547.669
547.502
547.329
547.151
546.973
546.795
546.621
546.45
546.282
546.118
545.956
545.795
545.633
545.471
545.306
545.141
544.978
544.827
544.705
544.592
544.481
544.371
544.261
544.152
544.043
543.934
543.826
543.718
543.611
543.503
543.396
543.289
543.182
543.075
542.968
542.861
542.754
542.646
542.539
542.432
542.325
542.218
542.11
542.003
541.895
541.788
541.68
541.573
541.465
541.358
541.25
541.142
541.035
540.927
540.819
540.712
540.604
552.5
552.401
552.303
552.208
552.117
552.028
551.944
551.864
551.788
551.716
551.649
551.584
551.524
551.466
551.411
551.359
551.31
551.262
551.217
551.172
551.128
551.085
551.042
550.999
550.954
550.909
550.863
550.814
550.764
550.711
550.657
550.599
550.54
550.477
550.412
550.343
550.27
550.194
550.115
550.033
549.949
549.863
549.777
549.691
549.606
549.522
549.442
549.365
549.289
549.216
549.146
549.076
549.003
548.93
548.853
548.773
548.686
548.591
548.485
548.368
548.238
548.094
547.936
547.765
547.586
547.401
547.213
547.025
546.839
546.658
546.481
546.308
546.14
545.975
545.812
545.651
545.49
545.329
545.17
545.015
544.872
544.74
544.618
544.5
544.384
544.271
544.159
544.048
543.938
543.829
543.721
543.613
543.505
543.398
543.29
543.183
543.076
542.969
542.861
542.754
542.647
542.54
542.433
542.325
542.218
542.111
542.003
541.896
541.788
541.681
541.573
541.466
541.358
541.25
541.143
541.035
540.927
540.819
540.712
540.604
552.501
552.404
552.308
552.214
552.124
552.037
551.954
551.876
551.801
551.731
551.665
551.603
551.544
551.488
551.436
551.386
551.338
551.293
551.249
551.206
551.165
551.124
551.083
551.042
551
550.958
550.914
550.868
550.821
550.771
550.719
550.665
550.607
550.547
550.484
550.418
550.348
550.274
550.198
550.118
550.037
549.955
549.872
549.79
549.708
549.628
549.552
549.479
549.408
549.341
549.277
549.212
549.145
549.076
549.004
548.927
548.843
548.747
548.639
548.517
548.379
548.225
548.056
547.873
547.682
547.486
547.288
547.092
546.899
546.711
546.529
546.352
546.18
546.012
545.846
545.683
545.522
545.362
545.205
545.053
544.909
544.772
544.642
544.519
544.399
544.282
544.167
544.054
543.943
543.832
543.723
543.614
543.506
543.399
543.291
543.184
543.076
542.969
542.862
542.755
542.648
542.541
542.433
542.326
542.219
542.111
542.004
541.896
541.789
541.681
541.574
541.466
541.358
541.251
541.143
541.035
540.927
540.82
540.712
540.604
552.501
552.404
552.308
552.215
552.124
552.038
551.955
551.877
551.803
551.733
551.668
551.607
551.549
551.495
551.444
551.396
551.35
551.306
551.264
551.224
551.184
551.145
551.107
551.068
551.03
550.99
550.949
550.907
550.863
550.817
550.769
550.718
550.664
550.607
550.547
550.484
550.418
550.348
550.275
550.2
550.123
550.045
549.967
549.889
549.812
549.738
549.667
549.599
549.534
549.472
549.415
549.356
549.295
549.231
549.164
549.091
549.009
548.913
548.802
548.674
548.529
548.367
548.186
547.992
547.789
547.584
547.38
547.177
546.979
546.787
546.6
546.42
546.244
546.072
545.904
545.737
545.573
545.411
545.251
545.096
544.946
544.803
544.667
544.538
544.414
544.294
544.176
544.061
543.947
543.836
543.725
543.616
543.507
543.399
543.292
543.184
543.077
542.97
542.863
542.755
542.648
542.541
542.434
542.326
542.219
542.112
542.004
541.897
541.789
541.682
541.574
541.466
541.359
541.251
541.143
541.035
540.927
540.82
540.712
540.604
552.5
552.401
552.304
552.209
552.116
552.028
551.944
551.864
551.789
551.719
551.654
551.593
551.536
551.482
551.432
551.385
551.341
551.298
551.258
551.219
551.181
551.144
551.108
551.072
551.037
551.001
550.964
550.926
550.886
550.844
550.8
550.753
550.704
550.651
550.595
550.536
550.474
550.409
550.341
550.271
550.2
550.127
550.054
549.982
549.911
549.843
549.779
549.717
549.659
549.604
549.553
549.501
549.446
549.388
549.326
549.258
549.18
549.084
548.97
548.837
548.687
548.516
548.326
548.122
547.91
547.699
547.49
547.285
547.085
546.891
546.702
546.519
546.341
546.165
545.992
545.82
545.649
545.48
545.313
545.148
544.989
544.836
544.694
544.56
544.431
544.307
544.186
544.068
543.952
543.839
543.728
543.617
543.508
543.4
543.292
543.185
543.077
542.97
542.863
542.756
542.649
542.541
542.434
542.327
542.22
542.112
542.005
541.897
541.79
541.682
541.574
541.467
541.359
541.251
541.143
541.035
540.928
540.82
540.712
540.604
552.498
552.395
552.293
552.193
552.097
552.005
551.917
551.834
551.757
551.684
551.617
551.555
551.498
551.444
551.395
551.348
551.305
551.263
551.224
551.187
551.15
551.116
551.082
551.049
551.016
550.984
550.951
550.918
550.883
550.846
550.807
550.766
550.721
550.673
550.623
550.569
550.512
550.452
550.39
550.326
550.261
550.194
550.128
550.063
549.999
549.938
549.88
549.826
549.775
549.727
549.682
549.637
549.589
549.536
549.481
549.42
549.347
549.252
549.136
549.001
548.849
548.673
548.475
548.263
548.047
547.834
547.625
547.421
547.222
547.03
546.842
546.659
546.478
546.299
546.12
545.94
545.76
545.579
545.398
545.217
545.04
544.871
544.722
544.584
544.452
544.323
544.198
544.077
543.959
543.843
543.73
543.619
543.509
543.4
543.292
543.185
543.077
542.97
542.863
542.756
542.649
542.542
542.435
542.327
542.22
542.113
542.005
541.898
541.79
541.682
541.575
541.467
541.359
541.251
541.143
541.036
540.928
540.82
540.712
540.604
552.494
552.384
552.274
552.167
552.064
551.965
551.871
551.783
551.7
551.624
551.554
551.49
551.431
551.377
551.327
551.28
551.237
551.197
551.158
551.122
551.087
551.054
551.023
550.993
550.964
550.936
550.908
550.879
550.85
550.819
550.785
550.749
550.71
550.668
550.623
550.575
550.524
550.47
550.414
550.357
550.298
550.239
550.18
550.121
550.065
550.012
549.962
549.915
549.871
549.831
549.793
549.754
549.713
549.668
549.62
549.568
549.502
549.41
549.294
549.161
549.009
548.832
548.631
548.416
548.201
547.991
547.788
547.59
547.399
547.211
547.028
546.846
546.665
546.482
546.297
546.107
545.913
545.715
545.515
545.31
545.103
544.898
544.753
544.614
544.477
544.343
544.213
544.088
543.966
543.848
543.733
543.621
543.51
543.401
543.293
543.185
543.077
542.97
542.863
542.756
542.649
542.542
542.435
542.328
542.22
542.113
542.005
541.898
541.79
541.683
541.575
541.467
541.359
541.252
541.144
541.036
540.928
540.82
540.712
540.604
552.489
552.366
552.246
552.128
552.014
551.905
551.802
551.706
551.617
551.535
551.46
551.392
551.331
551.275
551.224
551.177
551.134
551.094
551.057
551.022
550.988
550.957
550.928
550.901
550.875
550.851
550.828
550.805
550.781
550.756
550.729
550.699
550.666
550.63
550.591
550.548
550.503
550.456
550.406
550.355
550.303
550.251
550.199
550.148
550.1
550.054
550.012
549.973
549.938
549.905
549.874
549.843
549.81
549.774
549.735
549.693
549.635
549.548
549.437
549.31
549.164
548.989
548.791
548.581
548.373
548.174
547.983
547.796
547.616
547.438
547.261
547.084
546.905
546.719
546.527
546.326
546.114
545.896
545.67
545.434
545.182
544.874
544.79
544.652
544.508
544.367
544.232
544.101
543.976
543.855
543.737
543.623
543.511
543.401
543.293
543.185
543.077
542.97
542.863
542.756
542.649
542.542
542.435
542.328
542.221
542.113
542.006
541.898
541.791
541.683
541.575
541.467
541.36
541.252
541.144
541.036
540.928
540.82
540.712
540.604
552.481
552.343
552.206
552.073
551.945
551.822
551.707
551.6
551.502
551.412
551.332
551.259
551.194
551.136
551.084
551.037
550.994
550.955
550.918
550.884
550.852
550.822
550.795
550.771
550.749
550.729
550.711
550.693
550.674
550.655
550.633
550.609
550.582
550.552
550.518
550.482
550.442
550.401
550.357
550.312
550.266
550.22
550.175
550.132
550.091
550.054
550.02
549.99
549.963
549.939
549.917
549.895
549.873
549.849
549.821
549.787
549.739
549.663
549.563
549.447
549.311
549.145
548.956
548.758
548.565
548.383
548.208
548.038
547.873
547.706
547.54
547.371
547.196
547.011
546.812
546.599
546.369
546.127
545.873
545.61
545.34
545.081
544.883
544.707
544.545
544.395
544.253
544.117
543.987
543.863
543.743
543.626
543.513
543.402
543.293
543.185
543.077
542.97
542.863
542.756
542.649
542.542
542.435
542.328
542.221
542.113
542.006
541.899
541.791
541.683
541.576
541.468
541.36
541.252
541.144
541.036
540.928
540.82
540.712
540.604
552.47
552.311
552.154
552
551.853
551.713
551.583
551.462
551.353
551.255
551.167
551.089
551.02
550.96
550.906
550.859
550.817
550.778
550.742
550.709
550.679
550.65
550.625
550.603
550.584
550.568
550.554
550.541
550.527
550.513
550.496
550.476
550.454
550.428
550.4
550.368
550.334
550.298
550.259
550.219
550.179
550.139
550.1
550.063
550.03
550.002
549.977
549.957
549.941
549.928
549.917
549.908
549.9
549.89
549.876
549.855
549.82
549.759
549.674
549.573
549.451
549.298
549.123
548.944
548.772
548.61
548.455
548.304
548.155
548.003
547.85
547.691
547.526
547.345
547.145
546.923
546.675
546.409
546.122
545.822
545.515
545.222
544.961
544.754
544.58
544.423
544.275
544.135
544.001
543.872
543.749
543.63
543.515
543.403
543.293
543.185
543.077
542.97
542.863
542.756
542.649
542.542
542.435
542.328
542.221
542.114
542.006
541.899
541.791
541.684
541.576
541.468
541.36
541.252
541.144
541.036
540.928
540.82
540.712
540.604
552.456
552.27
552.086
551.908
551.737
551.577
551.428
551.292
551.17
551.062
550.967
550.884
550.812
550.75
550.696
550.649
550.607
550.569
550.534
550.502
550.472
550.445
550.421
550.401
550.384
550.37
550.359
550.349
550.339
550.327
550.314
550.297
550.278
550.255
550.23
550.202
550.172
550.14
550.107
550.072
550.036
550.001
549.968
549.938
549.913
549.895
549.883
549.876
549.873
549.875
549.881
549.89
549.9
549.908
549.913
549.91
549.891
549.846
549.776
549.691
549.582
549.445
549.288
549.13
548.979
548.838
548.701
548.567
548.433
548.295
548.155
548.013
547.865
547.698
547.504
547.277
547.015
546.724
546.398
546.05
545.682
545.316
544.981
544.773
544.603
544.447
544.297
544.154
544.015
543.883
543.756
543.635
543.518
543.404
543.294
543.185
543.077
542.97
542.863
542.756
542.649
542.542
542.435
542.328
542.221
542.114
542.007
541.899
541.792
541.684
541.576
541.468
541.36
541.252
541.144
541.036
540.928
540.82
540.712
540.604
552.44
552.22
552.004
551.796
551.598
551.413
551.244
551.092
550.957
550.84
550.739
550.652
550.578
550.515
550.461
550.415
550.373
550.336
550.301
550.269
550.239
550.212
550.188
550.168
550.151
550.138
550.126
550.117
550.107
550.096
550.083
550.067
550.049
550.028
550.005
549.98
549.954
549.927
549.899
549.87
549.84
549.812
549.785
549.764
549.751
549.747
549.75
549.761
549.779
549.803
549.833
549.866
549.9
549.932
549.959
549.975
549.973
549.939
549.879
549.802
549.703
549.577
549.435
549.293
549.156
549.028
548.905
548.78
548.654
548.526
548.402
548.283
548.162
548.022
547.844
547.619
547.343
547.025
546.653
546.244
545.804
545.345
544.861
544.747
544.61
544.465
544.319
544.173
544.031
543.895
543.765
543.64
543.521
543.406
543.294
543.185
543.077
542.969
542.862
542.756
542.649
542.542
542.436
542.329
542.221
542.114
542.007
541.899
541.792
541.684
541.576
541.469
541.361
541.253
541.145
541.037
540.929
540.82
540.712
540.604
552.42
552.163
551.911
551.668
551.441
551.23
551.041
550.872
550.726
550.601
550.497
550.409
550.335
550.272
550.219
550.172
550.129
550.09
550.053
550.019
549.987
549.957
549.93
549.906
549.887
549.87
549.855
549.841
549.828
549.813
549.797
549.78
549.761
549.741
549.721
549.701
549.681
549.661
549.642
549.623
549.606
549.59
549.577
549.573
549.579
549.596
549.622
549.658
549.704
549.76
549.823
549.889
549.952
550.009
550.055
550.085
550.091
550.055
549.987
549.901
549.797
549.672
549.535
549.394
549.255
549.126
549.002
548.873
548.744
548.619
548.511
548.424
548.347
548.256
548.106
547.885
547.583
547.228
546.8
546.32
545.82
545.327
544.814
544.731
544.617
544.483
544.339
544.193
544.048
543.907
543.773
543.646
543.525
543.408
543.295
543.185
543.076
542.969
542.862
542.756
542.649
542.542
542.436
542.329
542.222
542.114
542.007
541.9
541.792
541.684
541.577
541.469
541.361
541.253
541.145
541.037
540.929
540.82
540.712
540.604
552.401
552.106
551.818
551.542
551.284
551.05
550.84
550.658
550.502
550.373
550.266
550.179
550.106
550.044
549.989
549.939
549.891
549.845
549.8
549.757
549.716
549.678
549.642
549.61
549.583
549.558
549.533
549.511
549.489
549.467
549.445
549.425
549.406
549.39
549.378
549.369
549.364
549.361
549.362
549.366
549.374
549.386
549.403
549.432
549.472
549.521
549.576
549.642
549.724
549.823
549.933
550.039
550.128
550.202
550.25
550.273
550.262
550.199
550.097
549.973
549.84
549.693
549.545
549.39
549.221
549.07
548.931
548.771
548.626
548.488
548.402
548.369
548.366
548.359
548.24
548.01
547.661
547.254
546.745
546.184
545.64
545.231
544.741
544.722
544.628
544.501
544.359
544.211
544.064
543.92
543.782
543.652
543.528
543.41
543.296
543.185
543.076
542.969
542.862
542.755
542.649
542.542
542.436
542.329
542.222
542.115
542.007
541.9
541.792
541.685
541.577
541.469
541.361
541.253
541.145
541.037
540.929
540.821
540.712
540.604
552.389
552.068
551.752
551.45
551.169
550.913
550.686
550.491
550.328
550.195
550.087
549.999
549.923
549.857
549.795
549.733
549.671
549.607
549.543
549.479
549.417
549.358
549.304
549.255
549.213
549.173
549.135
549.099
549.064
549.032
549.006
548.986
548.975
548.975
548.985
549.004
549.031
549.065
549.11
549.164
549.228
549.296
549.372
549.462
549.563
549.66
549.741
549.833
549.956
550.11
550.277
550.418
550.512
550.58
550.587
550.555
550.48
550.352
550.191
549.993
549.816
549.617
549.44
549.266
549.131
548.967
548.779
548.576
548.372
548.213
548.087
548.063
548.095
548.185
548.144
547.945
547.641
547.213
546.735
546.105
545.568
545.268
544.86
544.757
544.646
544.518
544.377
544.228
544.078
543.931
543.791
543.658
543.532
543.412
543.297
543.186
543.077
542.969
542.862
542.755
542.649
542.542
542.436
542.329
542.222
542.115
542.008
541.9
541.793
541.685
541.577
541.469
541.361
541.253
541.145
541.037
540.929
540.821
540.712
540.604
552.402
552.096
551.783
551.472
551.175
550.901
550.656
550.445
550.27
550.128
550.01
549.907
549.814
549.728
549.643
549.554
549.459
549.36
549.257
549.153
549.051
548.953
548.863
548.788
548.724
548.665
548.611
548.558
548.511
548.475
548.453
548.449
548.469
548.51
548.571
548.648
548.74
548.847
548.983
549.142
549.318
549.486
549.66
549.857
550.072
550.246
550.32
550.404
550.555
550.762
550.976
551.136
551.178
551.208
551.1
550.913
550.701
550.473
550.249
550.058
549.808
549.567
549.385
549.161
548.992
548.777
548.489
548.22
547.954
547.728
547.555
547.482
547.523
547.607
547.62
547.466
547.216
546.806
546.287
545.678
545.35
545.107
544.886
544.744
544.642
544.523
544.387
544.24
544.089
543.941
543.798
543.663
543.535
543.414
543.298
543.186
543.077
542.969
542.862
542.755
542.649
542.542
542.436
542.329
542.222
542.115
542.008
541.9
541.793
541.685
541.577
541.47
541.362
541.254
541.146
541.037
540.929
540.821
540.713
540.604
552.482
552.286
552.033
551.741
551.439
551.142
550.865
550.612
550.404
550.236
550.081
549.934
549.788
549.643
549.502
549.356
549.202
549.045
548.878
548.708
548.539
548.375
548.231
548.119
548.03
547.956
547.888
547.826
547.782
547.765
547.783
547.832
547.931
548.061
548.211
548.378
548.586
548.825
549.15
549.518
549.913
550.215
550.513
550.883
551.323
551.639
551.582
551.583
551.746
551.934
552.079
552.217
552.165
552.125
551.833
551.417
551.013
550.636
550.315
550.046
549.812
549.523
549.304
549.011
548.746
548.427
548.069
547.744
547.47
547.187
546.944
546.754
546.73
546.753
546.616
546.407
546.158
545.8
545.374
544.866
544.685
544.608
544.635
544.61
544.597
544.513
544.39
544.247
544.097
543.948
543.804
543.667
543.538
543.416
543.299
543.187
543.077
542.969
542.862
542.755
542.649
542.542
542.436
542.329
542.222
542.115
542.008
541.901
541.793
541.686
541.578
541.47
541.362
541.254
541.146
541.038
540.929
540.821
540.713
540.604
552.753
552.874
552.773
552.516
552.195
551.843
551.477
551.101
550.798
550.564
550.317
550.062
549.801
549.524
549.275
549.025
548.777
548.54
548.281
548.024
547.758
547.498
547.282
547.135
547.032
546.964
546.909
546.864
546.884
546.949
547.088
547.266
547.533
547.811
548.041
548.281
548.707
549.184
549.935
550.665
551.454
551.804
552.222
552.985
553.793
554.326
554.15
553.903
553.924
553.765
553.516
553.532
553.189
552.941
552.387
551.793
551.142
550.766
550.403
550.094
549.804
549.569
549.229
548.804
548.529
548.013
547.768
547.371
547.266
547.064
546.648
546.14
545.977
545.564
545.056
544.724
544.285
544.081
543.845
543.28
543.418
543.453
544.118
544.483
544.554
544.5
544.388
544.251
544.102
543.953
543.808
543.67
543.54
543.417
543.3
543.187
543.077
542.969
542.862
542.755
542.649
542.543
542.436
542.329
542.223
542.115
542.008
541.901
541.793
541.686
541.578
541.47
541.362
541.254
541.146
541.038
540.929