/*--------------------------------*- C++ -*----------------------------------*\
  =========                 |
  \\      /  F ield         | OpenFOAM: The Open Source CFD Toolbox
   \\    /   O peration     | Website:  https://openfoam.org
    \\  /    A nd           | Version:  6
     \\/     M anipulation  |
\*---------------------------------------------------------------------------*/
FoamFile
{
    version     2.0;
    format      ascii;
    class       volVectorField;
    location    "1300";
    object      U;
}
// * * * * * * * * * * * * * * * * * * * * * * * * * * * * * * * * * * * * * //

dimensions      [0 1 -1 0 0 0 0];

internalField   nonuniform List<vector> 
4800
(
(-5.99268e-05 0 -0.00010293)
(0.000128567 0 -7.75158e-05)
(0.000194746 0 -3.86287e-05)
(0.000177042 0 -7.68812e-05)
(0.000179833 0 -9.8885e-05)
(0.000163432 0 -0.000101903)
(0.000150313 0 -4.88826e-05)
(-4.93232e-05 0 5.90952e-05)
(-0.000187609 0 6.13032e-05)
(-0.000292529 0 -2.51248e-05)
(-0.000440239 0 -0.000154805)
(-0.00065652 0 2.79367e-05)
(-0.000767064 0 6.54982e-05)
(-0.000846038 0 -2.96589e-05)
(-0.000907908 0 1.10005e-05)
(-0.000962603 0 9.8429e-05)
(-0.00103172 0 -4.14452e-05)
(-0.00109651 0 2.37079e-05)
(-0.00115321 0 5.68391e-05)
(-0.0012056 0 -1.20644e-05)
(-0.00124596 0 1.12661e-05)
(-0.00126472 0 -3.04273e-06)
(-0.00126705 0 -1.13279e-05)
(-0.00123917 0 -3.45442e-05)
(-0.00117967 0 -5.86642e-05)
(-0.00112017 0 -6.66578e-05)
(-0.001054 0 -5.54732e-05)
(-0.000989075 0 -6.5143e-05)
(-0.000949289 0 -7.78479e-05)
(-0.000927796 0 -5.97889e-05)
(-0.000854833 0 1.46577e-05)
(-0.000708988 0 -9.80605e-05)
(-0.000593651 0 -7.72768e-05)
(-0.000509545 0 -4.65402e-05)
(-0.000423677 0 -8.14443e-05)
(-0.00033583 0 -9.1318e-05)
(-0.000241736 0 -9.6541e-05)
(-0.000141134 0 -9.38614e-05)
(-4.51507e-05 0 -8.91944e-05)
(-2.20731e-06 0 -4.43718e-05)
(-7.10949e-07 0 1.37569e-05)
(-9.10983e-06 0 -1.2006e-06)
(-5.89193e-05 0 2.56635e-05)
(-0.000140507 0 6.09809e-05)
(-0.000227867 0 4.93061e-05)
(-0.000313214 0 8.33952e-05)
(-0.000432998 0 7.5877e-05)
(-0.000552348 0 4.07229e-05)
(-0.000642788 0 1.42841e-05)
(-0.000699609 0 -2.61219e-05)
(-0.00072633 0 -4.70194e-05)
(-0.000731838 0 -5.50769e-05)
(-0.000727279 0 -6.86469e-05)
(-0.000729515 0 -6.83805e-05)
(-0.000745713 0 -4.77049e-05)
(-0.000760327 0 -3.9939e-05)
(-0.00077419 0 -3.97453e-05)
(-0.000789173 0 -3.44147e-05)
(-0.000802771 0 -2.90809e-05)
(-0.000809338 0 -3.19928e-05)
(-0.000809611 0 -4.04248e-05)
(-0.000770035 0 -9.36297e-05)
(-0.00070634 0 -9.4988e-05)
(-0.000640649 0 -7.05892e-05)
(-0.000559392 0 -8.50307e-05)
(-0.000484957 0 -8.05708e-05)
(-0.000412547 0 -7.25294e-05)
(-0.000342661 0 -7.44391e-05)
(-0.000296776 0 -7.37738e-05)
(-0.000272321 0 -7.78729e-05)
(-0.000265313 0 -8.33367e-05)
(-0.00027404 0 -9.40438e-05)
(-0.000291616 0 -9.27888e-05)
(-0.000316708 0 -9.19368e-05)
(-0.000344107 0 -9.43406e-05)
(-0.000369818 0 -0.000101951)
(-0.000381468 0 -0.000112362)
(-0.000367408 0 -0.000134919)
(-0.000508466 0 -0.000158512)
(6.12451e-06 0 -0.000178756)
(-8.05501e-11 0 -4.25517e-12)
(-1.4192e-12 0 -1.68234e-14)
(-6.3772e-13 0 1.48454e-14)
(-3.65778e-13 0 1.29662e-14)
(-3.83584e-13 0 4.38176e-15)
(-3.83932e-13 0 -4.51507e-15)
(-3.68018e-13 0 -1.20355e-14)
(-3.38778e-13 0 -1.79265e-14)
(-2.99207e-13 0 -2.23313e-14)
(-2.52047e-13 0 -2.54461e-14)
(-1.99708e-13 0 -2.7437e-14)
(-1.4427e-13 0 -2.84466e-14)
(-8.7551e-14 0 -2.86148e-14)
(-3.11297e-14 0 -2.80773e-14)
(2.36258e-14 0 -2.69431e-14)
(7.55695e-14 0 -2.52975e-14)
(1.23815e-13 0 -2.32316e-14)
(1.67684e-13 0 -2.08504e-14)
(2.06604e-13 0 -1.82495e-14)
(2.40116e-13 0 -1.55005e-14)
(2.67954e-13 0 -1.26694e-14)
(2.90072e-13 0 -9.82625e-15)
(3.0656e-13 0 -7.02616e-15)
(3.17588e-13 0 -4.29537e-15)
(3.23428e-13 0 -1.65431e-15)
(3.24448e-13 0 8.53392e-16)
(3.21029e-13 0 3.16783e-15)
(3.13493e-13 0 5.24647e-15)
(3.0212e-13 0 7.0837e-15)
(2.87197e-13 0 8.70131e-15)
(2.69044e-13 0 1.01277e-14)
(2.48006e-13 0 1.13868e-14)
(2.24434e-13 0 1.24944e-14)
(1.98681e-13 0 1.3457e-14)
(1.71087e-13 0 1.42716e-14)
(1.41978e-13 0 1.49335e-14)
(1.11656e-13 0 1.54478e-14)
(8.0414e-14 0 1.58312e-14)
(4.85214e-14 0 1.60978e-14)
(1.62224e-14 0 1.62409e-14)
(-2.84988e-05 0 -0.000142208)
(4.76066e-05 0 -9.96074e-05)
(0.000105164 0 7.19672e-06)
(-8.24577e-06 0 2.51337e-05)
(-2.19978e-05 0 6.30491e-05)
(-5.56463e-05 0 0.000103213)
(-0.000105659 0 0.000133668)
(-0.000146949 0 0.00017203)
(-0.000301394 0 0.000204269)
(-0.000498953 0 0.000227988)
(-0.000641144 0 0.000178632)
(-0.000691149 0 8.90773e-05)
(-0.000731147 0 3.06359e-05)
(-0.00079555 0 0.000133232)
(-0.000850612 0 0.000118833)
(-0.000920895 0 3.3247e-05)
(-0.000979335 0 0.000108731)
(-0.0010263 0 8.00121e-05)
(-0.00107252 0 3.86176e-05)
(-0.00111763 0 6.67654e-05)
(-0.0011393 0 4.34485e-05)
(-0.00113867 0 2.27162e-05)
(-0.00110805 0 -3.07813e-05)
(-0.00107085 0 -6.20289e-05)
(-0.00102622 0 -9.1458e-05)
(-0.000975262 0 -7.5838e-05)
(-0.000916162 0 -8.87291e-05)
(-0.000863988 0 -0.00012107)
(-0.000819675 0 -0.000167175)
(-0.000777542 0 -0.000169508)
(-0.00072933 0 -8.64253e-05)
(-0.000642323 0 -0.000129678)
(-0.000547657 0 -0.000168338)
(-0.000462843 0 -0.00014692)
(-0.00037811 0 -0.000160154)
(-0.000297551 0 -0.000157484)
(-0.000217253 0 -0.000125791)
(-0.000135444 0 -9.5937e-05)
(-2.04971e-05 0 -0.000134292)
(1.41994e-06 0 -6.4512e-05)
(-1.05595e-06 0 3.84454e-05)
(2.11981e-05 0 1.48489e-05)
(-2.34525e-05 0 0.000111549)
(-8.47683e-05 0 0.000155415)
(-0.00015076 0 0.000199578)
(-0.000299932 0 0.000126226)
(-0.000392887 0 0.000177624)
(-0.000482022 0 0.000162948)
(-0.000546831 0 0.00012432)
(-0.000582267 0 8.36813e-05)
(-0.000592642 0 6.43217e-05)
(-0.000591263 0 3.6574e-05)
(-0.000586415 0 3.90258e-05)
(-0.000597127 0 7.73457e-05)
(-0.000625432 0 6.81151e-05)
(-0.000638718 0 5.83341e-05)
(-0.000641033 0 5.49495e-05)
(-0.000624869 0 4.52056e-05)
(-0.000599483 0 3.62574e-05)
(-0.000576911 0 2.39665e-05)
(-0.000562737 0 -4.85199e-06)
(-0.000553604 0 -2.47581e-05)
(-0.000532635 0 -4.34078e-05)
(-0.000480986 0 -7.53208e-05)
(-0.000398605 0 -0.000117548)
(-0.000315768 0 -0.000107973)
(-0.000223912 0 -9.13735e-05)
(-0.000130085 0 -7.60127e-05)
(-6.67311e-05 0 -2.56485e-05)
(-2.7526e-05 0 2.58392e-05)
(-8.03643e-06 0 5.47137e-05)
(-1.6399e-05 0 0.000111953)
(-4.65308e-05 0 0.000111808)
(-9.9474e-05 0 0.000104999)
(-0.000164226 0 0.000106579)
(-0.000195223 0 0.000102395)
(-0.000206864 0 9.26537e-05)
(-0.000138875 0 -0.000247263)
(-0.000569022 0 -0.000188751)
(7.22169e-06 0 -0.00028647)
(-1.30621e-10 0 1.35348e-11)
(-1.38358e-12 0 6.12538e-14)
(-6.21821e-13 0 7.4466e-14)
(-3.76242e-13 0 4.5573e-14)
(-4.01066e-13 0 1.31284e-14)
(-4.0035e-13 0 -1.52761e-14)
(-3.8143e-13 0 -3.80437e-14)
(-3.49074e-13 0 -5.55312e-14)
(-3.06726e-13 0 -6.84956e-14)
(-2.57153e-13 0 -7.76278e-14)
(-2.02709e-13 0 -8.3456e-14)
(-1.45448e-13 0 -8.63939e-14)
(-8.71818e-14 0 -8.68163e-14)
(-2.94579e-14 0 -8.50837e-14)
(2.64056e-14 0 -8.15223e-14)
(7.9281e-14 0 -7.64311e-14)
(1.28262e-13 0 -7.01089e-14)
(1.72666e-13 0 -6.28541e-14)
(2.11954e-13 0 -5.49288e-14)
(2.45696e-13 0 -4.65511e-14)
(2.73628e-13 0 -3.79234e-14)
(2.95715e-13 0 -2.92406e-14)
(3.12091e-13 0 -2.06651e-14)
(3.2296e-13 0 -1.23222e-14)
(3.28577e-13 0 -4.33394e-15)
(3.29271e-13 0 3.15583e-15)
(3.25422e-13 0 1.00091e-14)
(3.17409e-13 0 1.61471e-14)
(3.05575e-13 0 2.15759e-14)
(2.90241e-13 0 2.63656e-14)
(2.7173e-13 0 3.06056e-14)
(2.50373e-13 0 3.43672e-14)
(2.26504e-13 0 3.76844e-14)
(2.00458e-13 0 4.05576e-14)
(1.72564e-13 0 4.29747e-14)
(1.43154e-13 0 4.49394e-14)
(1.12554e-13 0 4.64835e-14)
(8.1064e-14 0 4.76497e-14)
(4.89311e-14 0 4.84532e-14)
(1.63655e-14 0 4.88666e-14)
(-5.44935e-05 0 -0.000152856)
(-4.46216e-05 0 -0.000111884)
(5.78742e-05 0 2.3741e-05)
(-0.000100309 0 3.60358e-05)
(-7.50767e-05 0 7.76645e-05)
(-0.000106168 0 0.000124157)
(-0.000194317 0 0.000159762)
(-0.000240162 0 0.00029005)
(-0.000348793 0 0.000367867)
(-0.000470875 0 0.000420581)
(-0.000582642 0 0.00038166)
(-0.000658707 0 0.000279342)
(-0.000723115 0 0.000113621)
(-0.000748957 0 9.70448e-05)
(-0.000783425 0 8.90677e-05)
(-0.000829987 0 0.000124912)
(-0.000877635 0 0.000116711)
(-0.000912248 0 0.000110793)
(-0.000945703 0 9.61006e-05)
(-0.000974847 0 7.314e-05)
(-0.0009819 0 5.32907e-05)
(-0.000945814 0 -4.05478e-05)
(-0.000901202 0 -8.25096e-05)
(-0.000876276 0 -0.000103692)
(-0.000843268 0 -0.000131149)
(-0.000799634 0 -0.000123943)
(-0.000760936 0 -0.000129075)
(-0.0007419 0 -0.00013686)
(-0.000729416 0 -0.000155816)
(-0.000699322 0 -0.000182759)
(-0.000655979 0 -0.00018803)
(-0.000604166 0 -0.000214647)
(-0.000543661 0 -0.000191975)
(-0.000458309 0 -0.000176446)
(-0.000362329 0 -0.000192123)
(-0.000272993 0 -0.000212987)
(-0.000177146 0 -0.000248843)
(-0.000101703 0 -0.0002487)
(3.44041e-05 0 -0.000242265)
(2.11208e-05 0 -9.26503e-05)
(2.20884e-05 0 2.64049e-06)
(2.98858e-05 0 4.20028e-05)
(7.86386e-06 0 0.000111078)
(-2.68095e-05 0 0.000190269)
(-0.000102407 0 0.000255203)
(-0.000165258 0 0.000281026)
(-0.000344911 0 0.000234759)
(-0.000429487 0 0.000161426)
(-0.000468858 0 0.000102285)
(-0.000479219 0 5.81117e-05)
(-0.000478334 0 2.94607e-06)
(-0.0004766 0 -7.2809e-06)
(-0.000494534 0 -1.53816e-05)
(-0.000523659 0 5.42515e-06)
(-0.00053891 0 1.14911e-05)
(-0.000544045 0 7.64413e-06)
(-0.000525722 0 -2.09366e-05)
(-0.000489279 0 -3.17803e-05)
(-0.000462007 0 -3.70788e-05)
(-0.000444979 0 -4.47191e-05)
(-0.000441486 0 -4.93597e-05)
(-0.000448312 0 -6.71392e-05)
(-0.000453516 0 -8.75381e-05)
(-0.000436567 0 -0.000118912)
(-0.000349768 0 -0.000220007)
(-0.000263006 0 -0.000195731)
(-0.000154756 0 -0.000175354)
(-1.87401e-05 0 -0.000168094)
(5.5014e-05 0 -0.000113074)
(9.58495e-05 0 -4.29857e-05)
(0.000156511 0 -1.40417e-05)
(0.000183386 0 2.75257e-05)
(0.00018875 0 7.0472e-05)
(0.000186682 0 9.181e-05)
(0.000193403 0 8.39133e-05)
(0.000213122 0 6.34837e-05)
(0.000158995 0 5.42399e-05)
(0.000424317 0 5.60306e-05)
(-0.000496663 0 -7.98244e-05)
(7.71973e-06 0 -0.000308617)
(-1.41991e-10 0 7.13227e-11)
(-1.39676e-12 0 2.4107e-13)
(-6.9509e-13 0 1.62858e-13)
(-4.27116e-13 0 8.16916e-14)
(-4.44434e-13 0 1.75353e-14)
(-4.35104e-13 0 -3.20325e-14)
(-4.08273e-13 0 -6.96997e-14)
(-3.6923e-13 0 -9.80228e-14)
(-3.21303e-13 0 -1.18867e-13)
(-2.67008e-13 0 -1.33511e-13)
(-2.08474e-13 0 -1.42795e-13)
(-1.4763e-13 0 -1.47326e-13)
(-8.62409e-14 0 -1.47646e-13)
(-2.58357e-14 0 -1.4431e-13)
(3.22785e-14 0 -1.37863e-13)
(8.69829e-14 0 -1.28848e-13)
(1.37392e-13 0 -1.178e-13)
(1.82864e-13 0 -1.05228e-13)
(2.22907e-13 0 -9.15689e-14)
(2.57121e-13 0 -7.72001e-14)
(2.85264e-13 0 -6.24839e-14)
(3.0733e-13 0 -4.77659e-14)
(3.23479e-13 0 -3.33324e-14)
(3.33919e-13 0 -1.94033e-14)
(3.38907e-13 0 -6.17105e-15)
(3.38791e-13 0 6.17149e-15)
(3.3402e-13 0 1.74567e-14)
(3.2506e-13 0 2.7595e-14)
(3.12338e-13 0 3.66026e-14)
(2.96226e-13 0 4.45783e-14)
(2.77046e-13 0 5.16481e-14)
(2.55085e-13 0 5.79096e-14)
(2.30625e-13 0 6.34068e-14)
(2.03971e-13 0 6.81448e-14)
(1.75469e-13 0 7.21267e-14)
(1.45486e-13 0 7.53839e-14)
(1.14367e-13 0 7.79695e-14)
(8.23837e-14 0 7.99229e-14)
(4.97382e-14 0 8.12367e-14)
(1.66357e-14 0 8.18855e-14)
(-9.9789e-05 0 -7.32269e-05)
(-0.000109901 0 -6.87656e-06)
(8.68656e-06 0 0.000105084)
(-0.00014169 0 7.49347e-05)
(-0.000124857 0 9.93002e-05)
(-0.000189063 0 0.000133034)
(-0.000230827 0 0.000292013)
(-0.000401092 0 0.000353613)
(-0.000456459 0 0.000446442)
(-0.000516626 0 0.000438186)
(-0.000549314 0 0.000402572)
(-0.000620161 0 0.000290352)
(-0.000679685 0 0.000209686)
(-0.00067694 0 0.000285126)
(-0.000727153 0 0.000191661)
(-0.000753236 0 0.000147134)
(-0.000764248 0 0.000182894)
(-0.000792524 0 0.000172062)
(-0.000827744 0 0.000111008)
(-0.00083734 0 0.000101324)
(-0.000827871 0 3.81487e-05)
(-0.000783516 0 -6.05935e-05)
(-0.000750571 0 -9.54768e-05)
(-0.000734568 0 -0.000115198)
(-0.000722568 0 -0.000135946)
(-0.000698217 0 -0.000152539)
(-0.000673162 0 -0.000154986)
(-0.000661269 0 -0.000156077)
(-0.000654625 0 -0.000164563)
(-0.000643275 0 -0.000170735)
(-0.000627319 0 -0.000190169)
(-0.000597381 0 -0.000252705)
(-0.000511675 0 -0.000346581)
(-0.000459207 0 -0.000309087)
(-0.000388609 0 -0.000340532)
(-0.00032769 0 -0.000370197)
(-0.000229474 0 -0.000405438)
(-0.000177091 0 -0.000333916)
(-0.000167701 0 -0.000184879)
(-7.91548e-05 0 -0.000125168)
(5.96634e-05 0 -0.000120889)
(2.67164e-05 0 3.32404e-05)
(3.95125e-05 0 0.000125332)
(-2.10998e-05 0 0.000221066)
(-5.89539e-05 0 0.000304468)
(-0.000121312 0 0.000339573)
(-0.00016261 0 0.000366648)
(-0.000248541 0 0.000277511)
(-0.000295956 0 0.000209974)
(-0.000375412 0 8.05011e-05)
(-0.000398491 0 4.98425e-05)
(-0.000426995 0 3.3581e-05)
(-0.000458854 0 5.90446e-05)
(-0.000483943 0 6.1801e-05)
(-0.000493524 0 5.62184e-05)
(-0.000492527 0 2.87705e-05)
(-0.000460596 0 -4.08438e-05)
(-0.000424217 0 -5.88671e-05)
(-0.000396722 0 -5.62571e-05)
(-0.000378878 0 -5.11235e-05)
(-0.000374262 0 -4.90935e-05)
(-0.000382769 0 -5.41366e-05)
(-0.000399983 0 -9.06484e-05)
(-0.000397298 0 -0.000155738)
(-0.000314963 0 -0.000299205)
(-0.000152934 0 -0.000385204)
(-1.20105e-05 0 -0.000384886)
(0.000107724 0 -0.000295218)
(0.000256849 0 -0.000163082)
(0.000340036 0 -0.000153434)
(0.000397389 0 -4.74345e-05)
(0.000398714 0 3.30002e-05)
(0.000382597 0 5.97206e-05)
(0.000348511 0 7.61491e-05)
(0.000289746 0 0.000110392)
(0.000266139 0 5.74987e-05)
(0.000174299 0 1.57855e-05)
(0.000403098 0 -1.35392e-05)
(-0.000337167 0 -3.94366e-05)
(6.69697e-06 0 -0.000255967)
(-7.0482e-11 0 1.29646e-10)
(-1.44174e-12 0 3.22265e-13)
(-8.51643e-13 0 2.25857e-13)
(-5.21565e-13 0 1.0072e-13)
(-5.1479e-13 0 7.31689e-15)
(-4.87585e-13 0 -6.07914e-14)
(-4.4742e-13 0 -1.10952e-13)
(-3.98241e-13 0 -1.48308e-13)
(-3.42214e-13 0 -1.75812e-13)
(-2.81081e-13 0 -1.95146e-13)
(-2.16523e-13 0 -2.07272e-13)
(-1.50299e-13 0 -2.12838e-13)
(-8.4166e-14 0 -2.12469e-13)
(-1.96749e-14 0 -2.0689e-13)
(4.18676e-14 0 -1.96882e-13)
(9.93441e-14 0 -1.8324e-13)
(1.51882e-13 0 -1.66758e-13)
(1.98897e-13 0 -1.48203e-13)
(2.39982e-13 0 -1.2824e-13)
(2.74781e-13 0 -1.07431e-13)
(3.03062e-13 0 -8.63052e-14)
(3.24867e-13 0 -6.53802e-14)
(3.40454e-13 0 -4.50826e-14)
(3.50121e-13 0 -2.5689e-14)
(3.54152e-13 0 -7.36902e-15)
(3.52898e-13 0 9.72898e-15)
(3.46845e-13 0 2.54503e-14)
(3.36555e-13 0 3.96796e-14)
(3.22558e-13 0 5.23938e-14)
(3.05286e-13 0 6.36653e-14)
(2.85061e-13 0 7.36167e-14)
(2.62131e-13 0 8.23649e-14)
(2.3674e-13 0 8.99906e-14)
(2.09178e-13 0 9.65427e-14)
(1.79803e-13 0 1.02062e-13)
(1.48997e-13 0 1.06597e-13)
(1.17093e-13 0 1.10195e-13)
(8.43311e-14 0 1.1288e-13)
(5.08938e-14 0 1.14648e-13)
(1.70144e-14 0 1.15506e-13)
(-7.43859e-05 0 -7.05955e-05)
(-0.000177301 0 -4.00877e-05)
(-0.000148617 0 9.33083e-05)
(-0.00018554 0 8.67424e-05)
(-0.000147265 0 0.000157307)
(-0.000225853 0 0.000241999)
(-0.0003668 0 0.000355642)
(-0.000412532 0 0.000526336)
(-0.000542414 0 0.000486432)
(-0.000530007 0 0.000499357)
(-0.000543632 0 0.000410965)
(-0.000561354 0 0.000352512)
(-0.000643646 0 0.000207126)
(-0.000639367 0 0.000241998)
(-0.000653 0 0.000255493)
(-0.000682789 0 0.000223384)
(-0.000697986 0 0.000200451)
(-0.000715351 0 0.000161887)
(-0.000721921 0 0.000150619)
(-0.00072161 0 9.31068e-05)
(-0.00071318 0 -3.38481e-06)
(-0.000691525 0 -0.000109483)
(-0.000661607 0 -0.000151681)
(-0.000646816 0 -0.000148483)
(-0.000642059 0 -0.000150495)
(-0.000634867 0 -0.000166057)
(-0.000626184 0 -0.000172955)
(-0.000622907 0 -0.000171578)
(-0.000623227 0 -0.000174325)
(-0.000620309 0 -0.000201732)
(-0.000609255 0 -0.000241597)
(-0.000597371 0 -0.000270523)
(-0.000593476 0 -0.000277872)
(-0.000534095 0 -0.000355636)
(-0.000509915 0 -0.000346881)
(-0.000484132 0 -0.000340826)
(-0.000440269 0 -0.000339163)
(-0.000336327 0 -0.000347914)
(-0.000223495 0 -0.000317252)
(-9.55294e-05 0 -0.000268254)
(-0.000150485 0 -1.49362e-06)
(-6.78419e-05 0 3.94111e-05)
(-3.25225e-05 0 0.000160896)
(-3.1179e-05 0 0.00026799)
(-4.71184e-05 0 0.000342071)
(-9.41337e-05 0 0.000392399)
(-0.000131979 0 0.000391087)
(-0.000171813 0 0.000329269)
(-0.000219161 0 0.000249302)
(-0.000253361 0 0.000197725)
(-0.000335706 0 0.000106126)
(-0.000374356 0 7.62677e-05)
(-0.00041283 0 5.8052e-05)
(-0.000427106 0 5.84679e-05)
(-0.00043041 0 4.73566e-05)
(-0.000416362 0 -2.22661e-06)
(-0.000387254 0 -6.882e-05)
(-0.000360893 0 -6.94865e-05)
(-0.00033284 0 -6.89269e-05)
(-0.000311333 0 -5.49808e-05)
(-0.000302734 0 -4.6284e-05)
(-0.000315829 0 -3.69647e-05)
(-0.00035066 0 -0.000101467)
(-0.000348695 0 -0.000189903)
(-0.000197974 0 -0.000388633)
(-3.29647e-05 0 -0.000524155)
(5.84883e-05 0 -0.000524996)
(0.000220523 0 -0.000466419)
(0.000366804 0 -0.000344818)
(0.000477212 0 -0.000170634)
(0.000509615 0 -9.32657e-05)
(0.000523331 0 2.16401e-05)
(0.000512699 0 9.16294e-05)
(0.000480075 0 0.000134103)
(0.000411155 0 0.000155425)
(0.000342136 0 0.000140171)
(0.000219711 0 8.71441e-05)
(0.000357179 0 3.77754e-05)
(-0.000291494 0 0.000131311)
(6.27216e-06 0 -0.000223293)
(2.22744e-11 0 2.84523e-10)
(-1.45108e-12 0 4.362e-13)
(-1.0219e-12 0 2.66916e-13)
(-6.45656e-13 0 8.78994e-14)
(-6.05945e-13 0 -2.82621e-14)
(-5.53373e-13 0 -1.07564e-13)
(-4.9579e-13 0 -1.6523e-13)
(-4.3409e-13 0 -2.0868e-13)
(-3.68141e-13 0 -2.41146e-13)
(-2.98467e-13 0 -2.64096e-13)
(-2.26166e-13 0 -2.78283e-13)
(-1.52827e-13 0 -2.84225e-13)
(-8.02932e-14 0 -2.82523e-13)
(-1.02491e-14 0 -2.74014e-13)
(5.59286e-14 0 -2.59714e-13)
(1.17106e-13 0 -2.40705e-13)
(1.72429e-13 0 -2.18076e-13)
(2.21382e-13 0 -1.92876e-13)
(2.6368e-13 0 -1.66014e-13)
(2.99056e-13 0 -1.38243e-13)
(3.27315e-13 0 -1.10249e-13)
(3.48553e-13 0 -8.2704e-14)
(3.6317e-13 0 -5.61839e-14)
(3.71633e-13 0 -3.1057e-14)
(3.74325e-13 0 -7.4864e-15)
(3.71611e-13 0 1.44514e-14)
(3.63971e-13 0 3.46653e-14)
(3.52003e-13 0 5.30452e-14)
(3.36324e-13 0 6.95237e-14)
(3.17449e-13 0 8.41233e-14)
(2.95745e-13 0 9.69503e-14)
(2.71459e-13 0 1.08148e-13)
(2.44802e-13 0 1.17847e-13)
(2.16042e-13 0 1.26149e-13)
(1.85523e-13 0 1.33131e-13)
(1.5362e-13 0 1.38854e-13)
(1.2065e-13 0 1.43368e-13)
(8.68361e-14 0 1.46704e-13)
(5.23641e-14 0 1.48883e-13)
(1.7494e-14 0 1.49943e-13)
(-9.77068e-06 0 4.12739e-05)
(-0.000181579 0 8.92169e-05)
(-0.000227439 0 8.2789e-05)
(-0.000231191 0 0.000126047)
(-0.000293462 0 0.000148826)
(-0.000352873 0 0.00033139)
(-0.000449381 0 0.000452516)
(-0.000529997 0 0.000497077)
(-0.000496549 0 0.000561296)
(-0.000532587 0 0.00049684)
(-0.000526756 0 0.000425052)
(-0.000533559 0 0.000365243)
(-0.000576845 0 0.000285026)
(-0.000608774 0 0.000216554)
(-0.000619591 0 0.000173266)
(-0.000626621 0 0.000197384)
(-0.000627589 0 0.000223342)
(-0.000637994 0 0.000190452)
(-0.00063568 0 0.000122345)
(-0.000620986 0 6.80636e-05)
(-0.000620759 0 9.44394e-06)
(-0.000623469 0 -8.98861e-05)
(-0.000620494 0 -0.000126808)
(-0.000599203 0 -0.000176574)
(-0.00060064 0 -0.000147954)
(-0.000598291 0 -0.000163527)
(-0.000602588 0 -0.000173187)
(-0.000605781 0 -0.000165642)
(-0.000609434 0 -0.000158016)
(-0.00061826 0 -0.000183142)
(-0.000626865 0 -0.000237916)
(-0.000623178 0 -0.000300264)
(-0.000609776 0 -0.000346185)
(-0.000606637 0 -0.000353081)
(-0.000579754 0 -0.000388969)
(-0.00052199 0 -0.000455024)
(-0.000443515 0 -0.000513402)
(-0.00039848 0 -0.000481251)
(-0.000360283 0 -0.000393875)
(-0.000358487 0 -0.000200484)
(-0.000236172 0 -0.00016233)
(-0.000214557 0 3.99394e-05)
(-0.000167295 0 0.000118039)
(-0.000123 0 0.000248142)
(-6.57335e-05 0 0.00038053)
(-0.000137559 0 0.000398019)
(-0.000130173 0 0.000412969)
(-0.000168578 0 0.000349073)
(-0.000218907 0 0.000264167)
(-0.000231828 0 0.00022536)
(-0.000315801 0 0.000117025)
(-0.000344134 0 9.57459e-05)
(-0.000372425 0 7.29475e-05)
(-0.000378967 0 6.23608e-05)
(-0.000369083 0 4.0048e-05)
(-0.000352051 0 -3.38475e-05)
(-0.000324705 0 -9.15694e-05)
(-0.000295626 0 -0.000116027)
(-0.000262739 0 -0.000105342)
(-0.000235226 0 -8.53021e-05)
(-0.00022129 0 -6.40855e-05)
(-0.00025652 0 -2.86479e-05)
(-0.000311176 0 -6.75656e-05)
(-0.000227634 0 -0.000282435)
(9.36684e-05 0 -0.000568481)
(0.000152242 0 -0.000712309)
(0.000231581 0 -0.000665002)
(0.000356374 0 -0.000554863)
(0.000403031 0 -0.000485277)
(0.000512452 0 -0.000314386)
(0.000590493 0 -4.22135e-05)
(0.000603942 0 2.18651e-05)
(0.000595946 0 0.000130379)
(0.000554961 0 0.000184365)
(0.000475842 0 0.000223376)
(0.000397949 0 0.000207129)
(0.000248981 0 0.000181211)
(0.00029448 0 0.000202435)
(-0.000368768 0 0.000230289)
(6.0469e-06 0 -0.000256765)
(3.76206e-10 0 1.22307e-09)
(-1.54661e-12 0 7.005e-13)
(-1.36137e-12 0 2.33542e-13)
(-8.16743e-13 0 1.22881e-14)
(-7.10253e-13 0 -1.00462e-13)
(-6.24553e-13 0 -1.75604e-13)
(-5.48535e-13 0 -2.3348e-13)
(-4.74157e-13 0 -2.79761e-13)
(-3.97631e-13 0 -3.15701e-13)
(-3.18218e-13 0 -3.4142e-13)
(-2.36652e-13 0 -3.56984e-13)
(-1.54538e-13 0 -3.6263e-13)
(-7.39554e-14 0 -3.58904e-13)
(3.13356e-15 0 -3.46743e-13)
(7.51773e-14 0 -3.27383e-13)
(1.40982e-13 0 -3.02212e-13)
(1.99711e-13 0 -2.7265e-13)
(2.5096e-13 0 -2.40061e-13)
(2.94615e-13 0 -2.05612e-13)
(3.30545e-13 0 -1.70234e-13)
(3.58601e-13 0 -1.34741e-13)
(3.78932e-13 0 -9.99492e-14)
(3.92101e-13 0 -6.66077e-14)
(3.98819e-13 0 -3.52322e-14)
(3.9966e-13 0 -6.03848e-15)
(3.9505e-13 0 2.0948e-14)
(3.85439e-13 0 4.57285e-14)
(3.71413e-13 0 6.82563e-14)
(3.53636e-13 0 8.84712e-14)
(3.32713e-13 0 1.06371e-13)
(3.09085e-13 0 1.22043e-13)
(2.83028e-13 0 1.3564e-13)
(2.54741e-13 0 1.47332e-13)
(2.24461e-13 0 1.57271e-13)
(1.92508e-13 0 1.65582e-13)
(1.59235e-13 0 1.72363e-13)
(1.24943e-13 0 1.77686e-13)
(8.98458e-14 0 1.81604e-13)
(5.41329e-14 0 1.84166e-13)
(1.8074e-14 0 1.85423e-13)
(-1.70568e-05 0 0.000107607)
(-0.000157364 0 0.000152548)
(-0.000221078 0 0.000165588)
(-0.000258822 0 0.000189086)
(-0.000225788 0 0.000363981)
(-0.000381391 0 0.000437923)
(-0.000469154 0 0.00049668)
(-0.000477331 0 0.000547077)
(-0.000482234 0 0.000560153)
(-0.000510956 0 0.000495515)
(-0.000501445 0 0.000425883)
(-0.000496354 0 0.000376124)
(-0.000506887 0 0.000338445)
(-0.000539346 0 0.000285653)
(-0.000546643 0 0.000252246)
(-0.000550563 0 0.000231676)
(-0.000566659 0 0.000197259)
(-0.000566518 0 0.000175885)
(-0.000554241 0 0.00012015)
(-0.000552048 0 6.86007e-05)
(-0.000558195 0 -1.96949e-06)
(-0.000569138 0 -0.000110376)
(-0.000572338 0 -0.000138574)
(-0.000572354 0 -0.000140524)
(-0.000573173 0 -0.000155324)
(-0.00058484 0 -0.000159295)
(-0.000592922 0 -0.000170419)
(-0.000596731 0 -0.00016645)
(-0.000599921 0 -0.000160085)
(-0.000610998 0 -0.00017674)
(-0.000630285 0 -0.000226974)
(-0.000646296 0 -0.000282171)
(-0.000655769 0 -0.000337664)
(-0.000651813 0 -0.000388135)
(-0.000632948 0 -0.00043774)
(-0.000624533 0 -0.000455169)
(-0.000622737 0 -0.00045184)
(-0.00057204 0 -0.000481586)
(-0.000469625 0 -0.000507409)
(-0.000432331 0 -0.000365427)
(-0.000434329 0 -0.000105772)
(-0.000340432 0 1.46347e-05)
(-0.000279431 0 0.000105736)
(-0.00023258 0 0.000194759)
(-0.00017794 0 0.000336482)
(-0.000124846 0 0.000437256)
(-0.000151628 0 0.000428819)
(-0.000173645 0 0.000385214)
(-0.000211912 0 0.000309002)
(-0.000223883 0 0.000255515)
(-0.000268941 0 0.000190753)
(-0.000320116 0 0.000124132)
(-0.000329642 0 0.000105873)
(-0.000321677 0 7.15657e-05)
(-0.000299411 0 -8.9201e-06)
(-0.000275778 0 -4.87373e-05)
(-0.000258513 0 -0.00010653)
(-0.000226696 0 -0.000174912)
(-0.000199797 0 -0.000115587)
(-0.000158864 0 -0.000104261)
(-0.000142782 0 -7.59098e-05)
(-0.000181858 0 -4.43435e-06)
(-0.000215796 0 -7.88098e-05)
(0.000134448 0 -0.000545221)
(0.000219769 0 -0.000669245)
(0.000241152 0 -0.00080828)
(0.000288548 0 -0.000778692)
(0.000460468 0 -0.000642415)
(0.00041462 0 -0.000592805)
(0.000571956 0 -0.000290007)
(0.000545093 0 -0.000178608)
(0.00058627 0 -6.91457e-05)
(0.00059202 0 0.000166976)
(0.000564673 0 0.000243019)
(0.000504845 0 0.00028418)
(0.000398841 0 0.000320779)
(0.000274948 0 0.00028196)
(0.00029776 0 0.000272422)
(-0.0001856 0 0.000324831)
(3.0731e-06 0 -0.000239281)
(7.85066e-09 0 -2.09357e-08)
(-1.96231e-12 0 -1.2134e-12)
(-1.98778e-12 0 -1.64581e-13)
(-9.79661e-13 0 -1.71376e-13)
(-7.93837e-13 0 -2.09528e-13)
(-6.86391e-13 0 -2.59937e-13)
(-5.99946e-13 0 -3.12394e-13)
(-5.16311e-13 0 -3.60311e-13)
(-4.298e-13 0 -3.99627e-13)
(-3.3975e-13 0 -4.28044e-13)
(-2.47376e-13 0 -4.44635e-13)
(-1.54748e-13 0 -4.4935e-13)
(-6.44057e-14 0 -4.42772e-13)
(2.12725e-14 0 -4.26008e-13)
(1.0046e-13 0 -4.00566e-13)
(1.7184e-13 0 -3.68165e-13)
(2.34579e-13 0 -3.30606e-13)
(2.88419e-13 0 -2.8964e-13)
(3.33508e-13 0 -2.46742e-13)
(3.69928e-13 0 -2.03024e-13)
(3.97599e-13 0 -1.59387e-13)
(4.16686e-13 0 -1.16728e-13)
(4.27887e-13 0 -7.59476e-14)
(4.32202e-13 0 -3.77525e-14)
(4.30505e-13 0 -2.48742e-15)
(4.23378e-13 0 2.98177e-14)
(4.11279e-13 0 5.92585e-14)
(3.94746e-13 0 8.59028e-14)
(3.74439e-13 0 1.09763e-13)
(3.51021e-13 0 1.30855e-13)
(3.25014e-13 0 1.49263e-13)
(2.96747e-13 0 1.65143e-13)
(2.66434e-13 0 1.78697e-13)
(2.34293e-13 0 1.90132e-13)
(2.00615e-13 0 1.99632e-13)
(1.65723e-13 0 2.07345e-13)
(1.29891e-13 0 2.1338e-13)
(9.33162e-14 0 2.17818e-13)
(5.6183e-14 0 2.20728e-13)
(1.87508e-14 0 2.22167e-13)
(-4.33493e-05 0 0.000190203)
(-0.000134321 0 0.000223249)
(-0.000206756 0 0.000230145)
(-0.000290672 0 0.000228695)
(-0.000337044 0 0.000347547)
(-0.000415833 0 0.000446396)
(-0.000448179 0 0.00051219)
(-0.000448758 0 0.000555441)
(-0.000460137 0 0.000548805)
(-0.000460898 0 0.000496251)
(-0.000451257 0 0.000436347)
(-0.000448081 0 0.000388381)
(-0.000472255 0 0.000319428)
(-0.000474492 0 0.000291363)
(-0.000502521 0 0.000219392)
(-0.000493621 0 0.000217237)
(-0.000485689 0 0.000221367)
(-0.000480787 0 0.000198484)
(-0.000492776 0 0.000109941)
(-0.000491407 0 8.95303e-05)
(-0.000511625 0 1.18694e-05)
(-0.00052887 0 -7.43185e-05)
(-0.000533245 0 -0.000140553)
(-0.000544571 0 -0.000159278)
(-0.000567331 0 -0.000144665)
(-0.000580859 0 -0.000151469)
(-0.000589292 0 -0.000154589)
(-0.000592363 0 -0.000157855)
(-0.000595316 0 -0.000151818)
(-0.000603887 0 -0.000160786)
(-0.000627878 0 -0.000198729)
(-0.000662023 0 -0.000243448)
(-0.000673962 0 -0.000337454)
(-0.000694407 0 -0.000377015)
(-0.000696841 0 -0.000437315)
(-0.000684514 0 -0.000490359)
(-0.000666757 0 -0.000519914)
(-0.00063784 0 -0.000550263)
(-0.000675082 0 -0.000429593)
(-0.000607513 0 -0.000308869)
(-0.000507318 0 -0.000209479)
(-0.000444263 0 -1.6381e-05)
(-0.000378985 0 6.35467e-05)
(-0.00034897 0 0.000118202)
(-0.000245475 0 0.000343118)
(-0.000213678 0 0.000394717)
(-0.000168482 0 0.000446276)
(-0.000162026 0 0.000425878)
(-0.000225 0 0.000330219)
(-0.000257122 0 0.000251612)
(-0.000244101 0 0.000231228)
(-0.00028876 0 0.00015362)
(-0.000294292 0 0.000103193)
(-0.000284611 0 -2.89553e-05)
(-0.000241496 0 3.3894e-06)
(-0.000209596 0 -0.000107848)
(-0.000192668 0 -0.000121732)
(-0.000181136 0 -0.000126074)
(-0.000116419 0 -0.000194572)
(-0.000116908 0 -0.000106645)
(-8.40639e-05 0 -9.01593e-05)
(-9.15286e-05 0 -2.11127e-05)
(-5.16041e-05 0 -0.000205896)
(0.000256154 0 -0.000596875)
(0.000231563 0 -0.000753351)
(0.00030322 0 -0.000871557)
(0.000308461 0 -0.000854296)
(0.000438148 0 -0.000725608)
(0.000378344 0 -0.000647435)
(0.000558579 0 -0.000337439)
(0.0005295 0 -0.000265644)
(0.000538378 0 7.06647e-05)
(0.000534896 0 0.000149877)
(0.000529712 0 0.000275816)
(0.000472632 0 0.000375264)
(0.000455706 0 0.000355044)
(0.000300057 0 0.000387559)
(0.000315305 0 0.000393239)
(-0.000163784 0 0.000418159)
(1.35979e-05 0 -0.000100108)
(5.35387e-13 0 -4.81328e-12)
(-1.21683e-12 0 -1.60484e-12)
(-8.66946e-13 0 -4.84132e-13)
(-8.61691e-13 0 -3.22967e-13)
(-7.98814e-13 0 -3.05221e-13)
(-7.27418e-13 0 -3.41009e-13)
(-6.4891e-13 0 -3.94444e-13)
(-5.6139e-13 0 -4.48183e-13)
(-4.65364e-13 0 -4.9335e-13)
(-3.63226e-13 0 -5.25584e-13)
(-2.57959e-13 0 -5.43281e-13)
(-1.52675e-13 0 -5.46395e-13)
(-5.06131e-14 0 -5.3582e-13)
(4.53396e-14 0 -5.13052e-13)
(1.33021e-13 0 -4.80001e-13)
(2.10942e-13 0 -4.388e-13)
(2.78235e-13 0 -3.917e-13)
(3.34824e-13 0 -3.4094e-13)
(3.81232e-13 0 -2.88403e-13)
(4.179e-13 0 -2.35442e-13)
(4.44897e-13 0 -1.83014e-13)
(4.62372e-13 0 -1.31998e-13)
(4.71076e-13 0 -8.33438e-14)
(4.72279e-13 0 -3.79066e-14)
(4.67231e-13 0 3.80426e-15)
(4.56796e-13 0 4.16858e-14)
(4.41524e-13 0 7.58846e-14)
(4.21917e-13 0 1.06592e-13)
(3.98589e-13 0 1.33941e-13)
(3.72213e-13 0 1.58025e-13)
(3.43372e-13 0 1.78963e-13)
(3.12462e-13 0 1.96935e-13)
(2.7973e-13 0 2.12179e-13)
(2.45396e-13 0 2.24956e-13)
(2.0972e-13 0 2.35507e-13)
(1.72983e-13 0 2.44033e-13)
(1.35416e-13 0 2.50683e-13)
(9.71941e-14 0 2.55567e-13)
(5.84813e-14 0 2.58772e-13)
(1.95123e-14 0 2.6036e-13)
(-6.43257e-05 0 0.000275404)
(-0.000120282 0 0.000306985)
(-0.000214423 0 0.000289575)
(-0.000287133 0 0.000291024)
(-0.00030968 0 0.000398431)
(-0.000378878 0 0.000476622)
(-0.000414493 0 0.000525218)
(-0.000411341 0 0.000554561)
(-0.000411966 0 0.000551865)
(-0.000401911 0 0.000499569)
(-0.000420844 0 0.000421725)
(-0.000431619 0 0.000365325)
(-0.00039322 0 0.000363137)
(-0.00042063 0 0.000293973)
(-0.000421932 0 0.000263037)
(-0.000439722 0 0.000209667)
(-0.000427217 0 0.000212303)
(-0.000442998 0 0.000151915)
(-0.000436959 0 0.000136088)
(-0.000445887 0 8.52548e-05)
(-0.000455621 0 4.91472e-05)
(-0.000484357 0 -6.55681e-05)
(-0.000505124 0 -0.000143579)
(-0.000534329 0 -0.000140654)
(-0.000561452 0 -0.000120891)
(-0.000572603 0 -0.000139036)
(-0.000579991 0 -0.000154556)
(-0.000585079 0 -0.000152206)
(-0.000585745 0 -0.000146477)
(-0.000578395 0 -0.000174497)
(-0.000612548 0 -0.000160467)
(-0.000652667 0 -0.000252453)
(-0.000692909 0 -0.000298252)
(-0.000701733 0 -0.000385057)
(-0.000733835 0 -0.00042694)
(-0.000735391 0 -0.000492398)
(-0.000722353 0 -0.000539254)
(-0.000717281 0 -0.000554099)
(-0.000685515 0 -0.000563396)
(-0.000647443 0 -0.000452165)
(-0.000600441 0 -0.000291782)
(-0.000538703 0 -0.00018677)
(-0.000504914 0 -3.60742e-05)
(-0.000398193 0 0.000254204)
(-0.000384144 0 0.000175784)
(-0.0002658 0 0.000374742)
(-0.000255778 0 0.000410202)
(-0.000199763 0 0.00043691)
(-0.000185694 0 0.000398828)
(-0.000174468 0 0.000359558)
(-0.000289695 0 0.000184271)
(-0.000221828 0 0.000199558)