/*--------------------------------*- C++ -*----------------------------------*\
  =========                 |
  \\      /  F ield         | OpenFOAM: The Open Source CFD Toolbox
   \\    /   O peration     | Website:  https://openfoam.org
    \\  /    A nd           | Version:  6
     \\/     M anipulation  |
\*---------------------------------------------------------------------------*/
FoamFile
{
    version     2.0;
    format      ascii;
    class       surfaceScalarField;
    location    "200";
    object      phi;
}
// * * * * * * * * * * * * * * * * * * * * * * * * * * * * * * * * * * * * * //

dimensions      [0 3 -1 0 0 0 0];

internalField   nonuniform List<scalar> 
9440
(
5.55905e-10
-5.55905e-10
1.743e-09
-1.1871e-09
2.57505e-09
-8.32048e-10
2.95076e-09
-3.75708e-10
3.32105e-09
-3.70286e-10
3.43538e-09
-1.14328e-10
3.54463e-09
-1.09254e-10
3.69472e-09
-1.50088e-10
3.74313e-09
-4.84015e-11
3.71143e-09
3.16967e-11
3.65164e-09
5.97901e-11
3.62076e-09
3.08846e-11
3.58163e-09
3.9126e-11
3.59206e-09
-1.04313e-11
3.66017e-09
-6.81088e-11
3.7292e-09
-6.90331e-11
3.75345e-09
-2.42495e-11
3.6663e-09
8.71532e-11
3.59209e-09
7.42071e-11
3.51158e-09
8.05141e-11
3.46502e-09
4.65587e-11
3.47669e-09
-1.16713e-11
3.45638e-09
2.03072e-11
3.44116e-09
1.52158e-11
3.41812e-09
2.30389e-11
3.47507e-09
-5.69482e-11
3.51215e-09
-3.70801e-11
3.5894e-09
-7.72463e-11
3.67272e-09
-8.33298e-11
3.69528e-09
-2.25577e-11
3.73018e-09
-3.48954e-11
3.76501e-09
-3.48397e-11
3.8016e-09
-3.65848e-11
3.82539e-09
-2.37904e-11
3.82817e-09
-2.78211e-12
3.81855e-09
9.613e-12
3.79726e-09
2.12939e-11
3.76091e-09
3.63469e-11
3.73001e-09
3.09023e-11
3.70575e-09
2.42541e-11
3.6781e-09
2.76499e-11
3.63776e-09
4.03388e-11
3.58134e-09
5.64194e-11
3.5882e-09
-6.86246e-12
3.58924e-09
-1.03898e-12
3.61901e-09
-2.9773e-11
3.66814e-09
-4.9134e-11
3.81564e-09
-1.47494e-10
3.75484e-09
6.07954e-11
3.89078e-09
-1.35939e-10
4.23177e-09
-3.40994e-10
4.14878e-09
8.29854e-11
4.30227e-09
-1.53484e-10
4.59767e-09
-2.95407e-10
4.79493e-09
-1.97264e-10
5.01826e-09
-2.2333e-10
5.05132e-09
-3.30538e-11
5.21144e-09
-1.60121e-10
5.42768e-09
-2.16248e-10
5.49677e-09
-6.90856e-11
5.56521e-09
-6.84407e-11
5.645e-09
-7.97914e-11
5.64931e-09
-4.31718e-12
5.62094e-09
2.83736e-11
5.55093e-09
7.00042e-11
5.45248e-09
9.84449e-11
5.24221e-09
2.10275e-10
4.97612e-09
2.66088e-10
4.75795e-09
2.18163e-10
4.46425e-09
2.937e-10
4.06419e-09
4.00055e-10
3.64488e-09
4.19307e-10
3.20771e-09
4.37175e-10
2.7075e-09
5.0021e-10
2.3101e-09
3.97396e-10
1.65845e-09
6.51649e-10
9.90529e-10
6.6792e-10
6.13327e-10
3.77201e-10
3.89671e-10
2.23652e-10
2.15819e-14
3.89633e-10
3.16426e-18
2.0033e-19
2.44937e-18
7.14882e-19
1.84048e-18
6.02834e-19
1.40359e-18
4.35797e-19
1.09939e-18
3.03824e-19
8.90754e-19
2.07644e-19
7.51056e-19
1.38212e-19
6.61843e-19
8.753e-20
6.09678e-19
5.03992e-20
5.84435e-19
2.3374e-20
5.78296e-19
4.10095e-21
5.85136e-19
-9.10696e-21
6.00126e-19
-1.7527e-20
6.19444e-19
-2.21644e-20
6.40085e-19
-2.38251e-20
6.59749e-19
-2.31697e-20
6.7674e-19
-2.07519e-20
6.89859e-19
-1.7036e-20
6.98323e-19
-1.24017e-20
7.01696e-19
-7.16251e-21
6.99819e-19
-1.58705e-21
6.92718e-19
4.09362e-21
6.8053e-19
9.69079e-21
6.63461e-19
1.50662e-20
6.41779e-19
2.01276e-20
6.15802e-19
2.48168e-20
5.85881e-19
2.90989e-20
5.52382e-19
3.29571e-20
5.15671e-19
3.6393e-20
4.76122e-19
3.94244e-20
4.34121e-19
4.20822e-20
3.90064e-19
4.44002e-20
3.44343e-19
4.64099e-20
2.97319e-19
4.81344e-20
2.49308e-19
4.95914e-20
2.00559e-19
5.07959e-20
1.51258e-19
5.17703e-20
1.01506e-19
5.25622e-20
5.12539e-20
5.33042e-20
5.44443e-20
7.91223e-10
-1.34713e-09
1.03316e-09
-1.42903e-09
1.90779e-09
-1.70667e-09
2.47854e-09
-9.46458e-10
2.77923e-09
-6.7097e-10
2.97442e-09
-3.09516e-10
2.95912e-09
-9.39511e-11
3.03075e-09
-2.21719e-10
3.16898e-09
-1.86625e-10
3.26554e-09
-6.48708e-11
3.28713e-09
3.82019e-11
3.23606e-09
8.19592e-11
3.15265e-09
1.22537e-10
3.09492e-09
4.7292e-11
3.08728e-09
-6.04628e-11
3.14297e-09
-1.24722e-10
3.18693e-09
-6.82169e-11
3.20747e-09
6.66179e-11
3.19017e-09
9.15047e-11
3.14226e-09
1.28419e-10
3.08297e-09
1.05848e-10
3.05855e-09
1.27493e-11
3.02887e-09
4.99827e-11
2.98373e-09
6.03562e-11
2.98181e-09
2.49578e-11
2.97229e-09
-4.74242e-11
2.98024e-09
-4.50371e-11
2.99753e-09
-9.45384e-11
3.02913e-09
-1.14926e-10
3.11261e-09
-1.0604e-10
3.14924e-09
-7.15298e-11
3.15505e-09
-4.06508e-11
3.12169e-09
-3.23032e-12
3.11488e-09
-1.69831e-11
3.08897e-09
2.31252e-11
3.07152e-09
2.70672e-11
3.0691e-09
2.37122e-11
3.06261e-09
4.28316e-11
3.03323e-09
6.0281e-11
2.99698e-09
6.04985e-11
2.97906e-09
4.55678e-11
2.98322e-09
3.61806e-11
3.02369e-09
1.59412e-11
2.97195e-09
4.48793e-11
3.00995e-09
-3.90444e-11
3.0203e-09
-4.01274e-11
3.05743e-09
-8.62641e-11
3.15427e-09
-2.44338e-10
3.08773e-09
1.27339e-10
3.23359e-09
-2.81802e-10
3.39127e-09
-4.98678e-10
3.41574e-09
5.85108e-11
3.6693e-09
-4.07049e-10
3.88218e-09
-5.08282e-10
4.06712e-09
-3.82211e-10
4.19692e-09
-3.5313e-10
4.358e-09
-1.94138e-10
4.4501e-09
-2.52221e-10
4.64676e-09
-4.12904e-10
4.81079e-09
-2.33121e-10
4.9458e-09
-2.03453e-10
4.98257e-09
-1.16562e-10
4.94225e-09
3.59961e-11
4.88411e-09
8.65131e-11
4.77035e-09
1.83757e-10
4.65014e-09
2.18652e-10
4.53434e-09
3.26073e-10
4.36667e-09
4.33753e-10
4.17474e-09
4.10086e-10
3.92744e-09
5.41005e-10
3.6592e-09
6.68286e-10
3.32225e-09
7.56259e-10
3.00442e-09
7.55e-10
2.59081e-09
9.13821e-10
2.12677e-09
8.61429e-10
1.79402e-09
9.84395e-10
1.66985e-09
7.9209e-10
1.28767e-09
7.59379e-10
5.88861e-10
9.22478e-10
6.377e-16
9.7855e-10
3.74501e-18
4.97229e-18
2.33757e-18
2.13109e-18
1.67377e-18
1.26672e-18
1.27202e-18
8.34865e-19
1.00369e-18
5.69096e-19
8.21342e-19
3.86912e-19
7.00373e-19
2.5601e-19
6.24712e-19
1.59822e-19
5.82653e-19
8.88135e-20
5.65162e-19
3.68749e-20
5.65088e-19
-2.33324e-22
5.76716e-19
-2.5623e-20
5.95489e-19
-4.16902e-20
6.17783e-19
-5.03384e-20
6.40741e-19
-5.31059e-20
6.62167e-19
-5.1258e-20
6.80456e-19
-4.58607e-20
6.94494e-19
-3.78201e-20
7.03562e-19
-2.79092e-20
7.07271e-19
-1.67944e-20
7.05499e-19
-5.05325e-21
6.98315e-19
6.82859e-21
6.85905e-19
1.84697e-20
6.68523e-19
2.95953e-20
6.46468e-19
4.00221e-20
6.20084e-19
4.96392e-20
5.8974e-19
5.83946e-20
5.55818e-19
6.62864e-20
5.18702e-19
7.33543e-20
4.78779e-19
7.96623e-20
4.36439e-19
8.52764e-20
3.92074e-19
9.02496e-20
3.46067e-19
9.46117e-20
2.98776e-19
9.83751e-20
2.50512e-19
1.01544e-19
2.01534e-19
1.0413e-19
1.5205e-19
1.06158e-19
1.02248e-19
1.07672e-19
5.2394e-20
1.08717e-19
1.09227e-19
1.01144e-09
-2.35856e-09
1.76952e-09
-2.18711e-09
1.83791e-09
-1.77506e-09
1.85602e-09
-9.64559e-10
2.20237e-09
-1.01732e-09
2.29338e-09
-4.00528e-10
2.40672e-09
-2.07288e-10
2.34839e-09
-1.63392e-10
2.21859e-09
-5.68203e-11
2.17402e-09
-2.02982e-11
2.21829e-09
-6.06412e-12
2.26207e-09
3.81792e-11
2.30675e-09
7.78509e-11
2.30273e-09
5.13123e-11
2.2438e-09
-1.53021e-12
2.16652e-09
-4.74389e-11
2.11181e-09
-1.35127e-11
2.13857e-09
3.98586e-11
2.13787e-09
9.22063e-11
2.15148e-09
1.14805e-10
2.14897e-09
1.08357e-10
2.0974e-09
6.43166e-11
2.09197e-09
5.5411e-11
2.09746e-09
5.4869e-11
2.11379e-09
8.61765e-12
2.10584e-09
-3.94672e-11
2.11391e-09
-5.31131e-11
2.1099e-09
-9.0529e-11
2.09815e-09
-1.03172e-10
2.08711e-09
-9.50108e-11
2.08335e-09
-6.77652e-11
2.09556e-09
-5.28685e-11
2.11274e-09
-2.041e-11
2.10797e-09
-1.22109e-11
2.09386e-09
3.72328e-11
2.07855e-09
4.23754e-11
2.04882e-09
5.34414e-11
2.04887e-09
4.27776e-11
2.04144e-09
6.77037e-11
2.04376e-09
5.81821e-11
2.00259e-09
8.67345e-11
1.98068e-09
5.80919e-11
1.99539e-09
1.22663e-12
1.98044e-09
5.98292e-11
2.00271e-09
-6.13233e-11
1.99933e-09
-3.67436e-11
2.07563e-09
-1.62568e-10
2.22144e-09
-3.90148e-10
2.29572e-09
5.30613e-11
2.44508e-09
-4.31167e-10
2.6389e-09
-6.92497e-10
3.0398e-09
-3.42393e-10
3.10585e-09
-4.73098e-10
3.35818e-09
-7.60623e-10
3.60202e-09
-6.26044e-10
3.6365e-09
-3.87618e-10
3.97661e-09
-5.34247e-10
4.19156e-09
-4.67171e-10
4.1742e-09
-3.95545e-10
4.3154e-09
-3.7432e-10
4.44828e-09
-3.36338e-10
4.42735e-09
-9.56321e-11
4.44416e-09
1.91845e-11
4.39871e-09
1.31953e-10
4.32128e-09
2.6119e-10
4.15279e-09
3.87135e-10
3.88542e-09
5.93443e-10
3.9028e-09
4.16368e-10
3.63885e-09
6.74029e-10
3.41705e-09
7.62811e-10
3.11239e-09
9.72937e-10
2.80455e-09
1.0641e-09
2.5179e-09
1.04165e-09
2.27943e-09
1.15229e-09
1.94062e-09
1.20024e-09
1.7796e-09
1.14542e-09
1.28597e-09
1.28571e-09
6.50007e-10
1.39533e-09
2.75462e-10
1.29699e-09
-3.33729e-16
1.254e-09
1.38515e-18
2.81914e-18
1.47348e-18
2.04199e-18
1.24229e-18
1.49674e-18
1.0067e-18
1.0682e-18
8.22013e-19
7.50995e-19
6.90518e-19
5.15325e-19
6.04185e-19
3.39003e-19
5.53704e-19
2.0668e-19
5.30714e-19
1.07881e-19
5.28054e-19
3.53152e-20
5.39698e-19
-1.64001e-20
5.60649e-19
-5.1397e-20
5.86841e-19
-7.29721e-20
6.15016e-19
-8.38221e-20
6.42589e-19
-8.61685e-20
6.67564e-19
-8.18606e-20
6.88496e-19
-7.2472e-20
7.04405e-19
-5.93513e-20
7.14677e-19
-4.3642e-20
7.19013e-19
-2.63103e-20
7.17381e-19
-8.17834e-21
7.09956e-19
1.00621e-20
6.97031e-19
2.78603e-20
6.78949e-19
4.48152e-20
6.56085e-19
6.06649e-20
6.28839e-19
7.52616e-20
5.97631e-19
8.85429e-20
5.62886e-19
1.00514e-19
5.2501e-19
1.11227e-19
4.84394e-19
1.20768e-19
4.41412e-19
1.29224e-19
3.96436e-19
1.36671e-19
3.49831e-19
1.43162e-19
3.01945e-19
1.48728e-19
2.53098e-19
1.5339e-19
2.03562e-19
1.57174e-19
1.53564e-19
1.60118e-19
1.03293e-19
1.62268e-19
5.29043e-20
1.63658e-19
1.64281e-19
4.63648e-10
-2.82221e-09
8.40029e-10
-2.56349e-09
1.23153e-09
-2.16656e-09
1.58873e-09
-1.32175e-09
1.51931e-09
-9.47898e-10
1.52831e-09
-4.09525e-10
1.56515e-09
-2.44123e-10
1.56705e-09
-1.65296e-10
1.54222e-09
-3.1988e-11
1.51044e-09
1.14848e-11
1.48985e-09
1.45287e-11
1.48766e-09
4.03655e-11
1.50879e-09
5.67213e-11
1.50809e-09
5.20123e-11
1.46104e-09
4.55276e-11
1.38526e-09
2.83402e-11
1.30911e-09
6.26283e-11
1.29124e-09
5.77353e-11
1.26604e-09
1.17405e-10
1.26325e-09
1.17593e-10
1.26424e-09
1.07363e-10
1.2553e-09
7.32597e-11
1.2575e-09
5.32091e-11
1.25805e-09
5.43157e-11
1.25248e-09
1.41833e-11
1.21057e-09
2.44292e-12
1.18928e-09
-3.18238e-11
1.1565e-09
-5.77561e-11
1.13867e-09
-8.53414e-11
1.1287e-09
-8.50448e-11
1.10744e-09
-4.65071e-11
1.08863e-09
-3.4056e-11
1.08111e-09
-1.28867e-11
1.051e-09
1.78882e-11
1.02332e-09
6.49124e-11
1.02059e-09
4.51063e-11
9.74685e-10
9.93446e-11
9.73152e-10
4.43083e-11
9.67606e-10
7.32472e-11
9.80167e-10
4.56201e-11
9.62709e-10
1.0419e-10
1.01465e-09
6.14493e-12
1.06751e-09
-5.16306e-11
1.21739e-09
-9.00504e-11
1.35492e-09
-1.98855e-10
1.39089e-09
-7.27218e-11
1.58108e-09
-3.5276e-10
1.77997e-09
-5.89041e-10
2.09091e-09
-2.5788e-10
2.18378e-09
-5.24038e-10
2.38529e-09
-8.94007e-10
2.74691e-09
-7.04013e-10
2.79873e-09
-5.24914e-10
2.87923e-09
-8.41127e-10
3.1258e-09
-8.72618e-10
3.34188e-09
-6.03698e-10
3.50784e-09
-7.00212e-10
3.75183e-09
-7.11162e-10
3.84827e-09
-4.91988e-10
3.97498e-09
-5.01036e-10
4.02029e-09
-3.81651e-10
4.09126e-09
-1.66602e-10
4.10526e-09
5.18431e-12
4.06194e-09
1.75269e-10
4.0165e-09
3.06627e-10
3.89918e-09
5.04452e-10
3.80561e-09
6.87013e-10
3.76162e-09
4.60357e-10
3.41184e-09
1.0238e-09
3.11224e-09
1.06241e-09
2.85279e-09
1.23238e-09
2.74754e-09
1.16935e-09
2.44677e-09
1.34242e-09
2.08127e-09
1.51779e-09
1.68431e-09
1.5972e-09
1.25767e-09
1.57205e-09
8.33549e-10
1.70983e-09
5.32572e-10
1.69631e-09
2.26329e-10
1.60323e-09
9.22247e-17
1.48032e-09
9.85508e-19
3.15906e-18
9.28519e-19
2.09718e-18
8.14176e-19
1.60926e-18
6.89995e-19
1.19004e-18
5.86901e-19
8.51155e-19
5.1437e-19
5.84428e-19
4.71861e-19
3.7766e-19
4.54905e-19
2.19396e-19
4.58149e-19
1.00049e-19
4.76339e-19
1.22608e-20
5.04701e-19
-4.98376e-20
5.39074e-19
-9.10067e-20
5.75991e-19
-1.15211e-19
6.12669e-19
-1.25821e-19
6.46896e-19
-1.25687e-19
6.76953e-19
-1.17209e-19
7.01617e-19
-1.02429e-19
7.20114e-19
-8.31012e-20
7.32009e-19
-6.07102e-20
7.37145e-19
-3.64865e-20
7.35622e-19
-1.14524e-20
7.27755e-19
1.35419e-20
7.13986e-19
3.78138e-20
6.94799e-19
6.08584e-20
6.70682e-19
8.23444e-20
6.42121e-19
1.02086e-19
6.09602e-19
1.20007e-19
5.73599e-19
1.36112e-19
5.3455e-19
1.50467e-19
4.9285e-19
1.63175e-19
4.4886e-19
1.74357e-19
4.02927e-19
1.84127e-19
3.55396e-19
1.92579e-19
3.06607e-19
1.99784e-19
2.56882e-19
2.05796e-19
2.06506e-19
2.10667e-19
1.55714e-19
2.14449e-19
1.04683e-19
2.17195e-19
5.35273e-20
2.18951e-19
2.19737e-19
5.16032e-10
-3.33824e-09
9.22441e-10
-2.9699e-09
7.62786e-10
-2.00691e-09
1.02171e-09
-1.58068e-09
9.13896e-10
-8.40077e-10
1.02475e-09
-5.20379e-10
9.94661e-10
-2.1403e-10
1.02538e-09
-1.96011e-10
1.03358e-09
-4.01935e-11
1.01616e-09
2.8913e-11
9.75432e-10
5.52549e-11
9.24417e-10
9.13805e-11
8.63997e-10
1.17142e-10
8.21481e-10
9.45279e-11
7.79928e-10
8.70809e-11
7.13804e-10
9.44636e-11
6.45332e-10
1.311e-10
5.92575e-10
1.10492e-10
5.87475e-10
1.22504e-10
5.60421e-10
1.44646e-10
5.43487e-10
1.24296e-10
5.38869e-10
7.78766e-11
5.55727e-10
3.63487e-11
5.56087e-10
5.39539e-11
5.1534e-10
5.49295e-11
4.60729e-10
5.70515e-11
3.62401e-10
6.65028e-11
2.26112e-10
7.85318e-11
2.00038e-10
-5.92685e-11
1.94381e-10
-7.93901e-11
1.73187e-10
-2.53147e-11
1.88308e-10
-4.91784e-11
1.92112e-10
-1.66922e-11
2.14631e-10
-4.63304e-12
2.63242e-10
1.6299e-11
3.2299e-10
-1.46439e-11
3.34466e-10
8.7866e-11
3.86206e-10
-7.43383e-12
4.33819e-10
2.56323e-11
4.72488e-10
6.94904e-12
5.31587e-10
4.50898e-11
6.77957e-10
-1.40227e-10
7.94381e-10
-1.68057e-10
9.21473e-10
-2.17144e-10
1.19413e-09
-4.71512e-10
1.18102e-09
-5.96107e-11
1.40201e-09
-5.73757e-10
1.51319e-09
-7.00218e-10
1.85213e-09
-5.9682e-10
1.98344e-09
-6.55359e-10
2.00654e-09
-9.17108e-10
2.29564e-09
-9.93112e-10
2.5848e-09
-8.14069e-10
2.68683e-09
-9.43159e-10
2.80204e-09
-9.87837e-10
3.08569e-09
-8.87345e-10
3.16459e-09
-7.79114e-10
3.18912e-09
-7.35695e-10
3.32213e-09
-6.24995e-10
3.43916e-09
-6.18073e-10
3.46322e-09
-4.0571e-10
3.57997e-09
-2.83355e-10
3.54849e-09
3.66634e-11
3.54935e-09
1.744e-10
3.4997e-09
3.56277e-10
3.35256e-09
6.51591e-10
3.25854e-09
7.8103e-10
3.07204e-09
6.46853e-10
2.83536e-09
1.26048e-09
2.5111e-09
1.38667e-09
2.42614e-09
1.31733e-09
2.21845e-09
1.37704e-09
1.90292e-09
1.65795e-09
1.57051e-09
1.8502e-09
1.28016e-09
1.88755e-09
8.27546e-10
2.02466e-09
4.59275e-10
2.0781e-09
3.01849e-10
1.85374e-09
2.15569e-10
1.68951e-09
-8.34723e-17
1.69589e-09
4.78916e-19
2.97106e-18
4.40981e-19
2.1338e-18
3.95457e-19
1.65316e-18
3.51687e-19
1.23162e-18
3.20788e-19
8.79208e-19
3.07902e-19
5.93828e-19
3.13598e-19
3.67923e-19
3.35558e-19
1.92911e-19
3.7036e-19
6.03058e-20
4.1424e-19
-3.68498e-20
4.63532e-19
-1.04522e-19
5.1487e-19
-1.47823e-19
5.65381e-19
-1.71196e-19
6.12803e-19
-1.7857e-19
6.55375e-19
-1.73381e-19
6.91733e-19
-1.58552e-19
7.20945e-19
-1.36564e-19
7.42505e-19
-1.09542e-19
7.56232e-19
-7.92771e-20
7.62179e-19
-4.72348e-20
7.60616e-19
-1.45971e-20
7.52026e-19
1.76774e-20
7.3703e-19
4.88208e-20
7.16285e-19
7.82557e-20
6.90423e-19
1.05596e-19
6.60041e-19
1.30623e-19
6.25708e-19
1.53251e-19
5.87954e-19
1.73492e-19
5.47258e-19
1.91429e-19
5.04032e-19
2.07197e-19
4.5863e-19
2.2096e-19
4.11379e-19
2.32887e-19
3.62601e-19
2.43127e-19
3.1262e-19
2.51807e-19
2.61753e-19
2.59025e-19
2.10288e-19
2.64865e-19
1.5846e-19
2.694e-19
1.06439e-19
2.72694e-19
5.43138e-20
2.74798e-19
2.75741e-19
2.56294e-10
-3.59453e-09
5.33453e-10
-3.24705e-09
7.2115e-10
-2.1946e-09
6.70723e-10
-1.53025e-09
5.52152e-10
-7.21505e-10
6.43601e-10
-6.11827e-10
6.31208e-10
-2.01635e-10
5.97235e-10
-1.62037e-10
5.34114e-10
2.2929e-11
4.28785e-10
1.34242e-10
3.11291e-10
1.7275e-10
2.53963e-10
1.4871e-10
2.19417e-10
1.51689e-10
1.98318e-10
1.15627e-10
1.82287e-10
1.03112e-10
1.50865e-10
1.25885e-10
6.66771e-11
2.15288e-10
-9.57356e-11
2.72904e-10
-2.0782e-10
2.34587e-10
-2.54071e-10
1.90896e-10
-2.54846e-10
1.2507e-10
-2.42974e-10
6.60032e-11
-2.24597e-10
1.79697e-11
-2.2399e-10
5.3345e-11
-2.53546e-10
8.44844e-11
-2.08684e-10
1.21871e-11
-1.41947e-10
-2.35646e-13
-5.54672e-11
-7.94955e-12
-1.87372e-11
-9.60001e-11
-6.59748e-12
-9.15313e-11
-3.48254e-12
-2.84312e-11
6.57077e-12
-5.92335e-11
3.68585e-11
-4.69819e-11
4.44078e-11
-1.21845e-11
6.69905e-11
-6.28608e-12
1.00307e-10
-4.79625e-11
1.77778e-10
1.03921e-11
2.19471e-10
-4.91291e-11
2.88844e-10
-4.37425e-11
3.51733e-10
-5.59424e-11
3.96364e-10
4.57101e-13
4.83099e-10
-2.26964e-10
5.87102e-10
-2.72061e-10
7.28909e-10
-3.58953e-10
9.06001e-10
-6.48607e-10
1.22894e-09
-3.8255e-10
1.16437e-09
-5.09184e-10
1.15809e-09
-6.93948e-10
1.3787e-09
-8.17427e-10
1.64005e-09
-9.16714e-10
1.76739e-09
-1.04445e-09
1.94214e-09
-1.16786e-09
2.07588e-09
-9.47805e-10
2.27557e-09
-1.14285e-09
2.47615e-09
-1.18843e-09
2.54935e-09
-9.60547e-10
2.59734e-09
-8.27106e-10
2.64475e-09
-7.831e-10
2.78124e-09
-7.61484e-10
2.83184e-09
-6.68681e-10
2.91261e-09
-4.86479e-10
2.97217e-09
-3.42923e-10
2.97902e-09
2.9811e-11
2.91878e-09
2.34642e-10
2.81569e-09
4.59364e-10
2.76458e-09
7.02699e-10
2.71368e-09
8.31926e-10
2.50896e-09
8.51575e-10
2.35604e-09
1.41339e-09
2.27259e-09
1.47012e-09
2.09476e-09
1.49516e-09
1.70451e-09
1.76729e-09
1.50008e-09
1.86238e-09
1.38479e-09
1.96548e-09
1.23453e-09
2.03781e-09
1.11733e-09
2.14186e-09
9.634e-10
2.23203e-09
6.04926e-10
2.21221e-09
2.4659e-10
2.04785e-09
-4.4761e-16
1.94248e-09
-5.96702e-20
2.41708e-18
-3.90364e-20
2.11232e-18
-2.54282e-20
1.63857e-18
-6.05112e-23
1.20464e-18
3.60857e-20
8.40727e-19
8.24432e-20
5.44402e-19
1.38586e-19
3.08069e-19
2.02953e-19
1.24272e-19
2.73205e-19
-1.47217e-20
3.46568e-19
-1.15357e-19
4.20231e-19
-1.83514e-19
4.91497e-19
-2.24508e-19
5.58007e-19
-2.4314e-19
6.17991e-19
-2.43819e-19
6.70204e-19
-2.30531e-19
7.13721e-19
-2.06726e-19
7.47967e-19
-1.75316e-19
7.7277e-19
-1.38766e-19
7.88275e-19
-9.91446e-20
7.94816e-19
-5.81264e-20
7.9289e-19
-1.70227e-20
7.8317e-19
2.31448e-20
7.66465e-19
6.15775e-20
7.43625e-19
9.76749e-20
7.15451e-19
1.3103e-19
6.8267e-19
1.61413e-19
6.45948e-19
1.88743e-19
6.05891e-19
2.13053e-19
5.63027e-19
2.34457e-19
5.17795e-19
2.53136e-19
4.70556e-19
2.6931e-19
4.2162e-19
2.83209e-19
3.71281e-19
2.95054e-19
3.19839e-19
3.05034e-19
2.67593e-19
3.13303e-19
2.14822e-19
3.19982e-19
1.61754e-19
3.2517e-19
1.08542e-19
3.28942e-19
5.5257e-20
3.31353e-19
3.32438e-19
3.77143e-10
-3.97167e-09
4.4937e-10
-3.31928e-09
4.45228e-10
-2.19046e-09
4.02511e-10
-1.48753e-09
4.45552e-10
-7.64544e-10
4.48767e-10
-6.15041e-10
3.90647e-10
-1.43514e-10
1.81265e-10
4.73464e-11
5.76564e-11
1.46539e-10
2.72509e-11
1.64649e-10
1.52046e-11
1.84796e-10
3.06405e-12
1.60851e-10
-8.20735e-12
1.62961e-10
-3.58472e-11
1.43267e-10
-7.10911e-11
1.38356e-10
-1.14833e-10
1.69626e-10
-1.09479e-10
2.09934e-10
-1.14006e-10
2.7743e-10
-1.36943e-10
2.57523e-10
-1.52394e-10
2.06347e-10
-1.67345e-10
1.40019e-10
-1.72046e-10
7.07027e-11
-1.69809e-10
1.57316e-11
-1.65175e-10
4.87083e-11
-1.53211e-10
7.25193e-11
-1.7089e-10
2.98636e-11
-1.56541e-10
-1.45866e-11
-1.15734e-10
-4.87582e-11
-1.13501e-10
-9.82347e-11
-1.1403e-10
-9.10043e-11
-8.38151e-11
-5.86474e-11
-9.33485e-11
-4.97019e-11
-4.90252e-11
-9.13072e-11
9.06522e-13
-6.21184e-11
2.10035e-11
-2.63854e-11
2.10143e-11
-4.79759e-11
7.98158e-11
-4.84119e-11
1.26219e-10
-9.55345e-11
1.94528e-10
-1.12054e-10
2.66251e-10
-1.27668e-10
3.84138e-10
-1.17432e-10
3.7015e-10
-2.12978e-10
4.29741e-10
-3.31654e-10
4.7998e-10
-4.09193e-10
3.89204e-10
-5.57833e-10
8.31217e-10
-8.24564e-10
1.19553e-09
-8.73495e-10
1.29933e-09
-7.97752e-10
1.29302e-09
-8.11121e-10
1.28638e-09
-9.10072e-10
1.31798e-09
-1.07605e-09
1.45297e-09
-1.30286e-09
1.75456e-09
-1.24939e-09
1.73841e-09
-1.1267e-09
1.77362e-09
-1.22364e-09
1.90026e-09
-1.08718e-09
1.95014e-09
-8.76987e-10
1.99781e-09
-8.30771e-10
2.08956e-09
-8.53241e-10
2.15751e-09
-7.36633e-10
2.2346e-09
-5.63572e-10
2.29754e-09
-4.05862e-10
2.41945e-09
-9.2104e-11
2.39284e-09
2.61256e-10
2.35719e-09
4.95007e-10
2.33379e-09
7.26105e-10
2.24106e-09
9.24653e-10
1.97488e-09
1.11775e-09
1.89671e-09
1.49156e-09
1.78906e-09
1.57777e-09
1.5268e-09
1.75742e-09
1.41417e-09
1.87992e-09
1.26959e-09
2.00696e-09
1.06489e-09
2.17018e-09
8.79342e-10
2.22336e-09
7.16402e-10
2.3048e-09
5.86235e-10
2.3622e-09
4.6984e-10
2.32861e-09
2.62608e-10
2.25508e-09
-6.60902e-16
2.20509e-09
-3.63257e-19
3.49829e-18
-5.11897e-19
2.26056e-18
-4.58554e-19
1.58497e-18
-3.63218e-19
1.10848e-18
-2.59502e-19
7.35499e-19
-1.53298e-19
4.35927e-19
-4.52112e-20
1.97029e-19
6.39598e-20
1.15635e-20
1.72569e-19
-1.27453e-19
2.78411e-19
-2.25825e-19
3.79237e-19
-2.89239e-19
4.72865e-19
-3.2318e-19
5.57328e-19
-3.32782e-19
6.31279e-19
-3.22888e-19
6.94008e-19
-2.98027e-19
7.45131e-19
-2.62204e-19
7.84517e-19
-2.18784e-19
8.12391e-19
-1.70563e-19
8.29293e-19
-1.19851e-19
8.3592e-19
-6.85048e-20
8.33058e-19
-1.79395e-20
8.21603e-19
3.07969e-20
8.02563e-19
7.69318e-20
7.7698e-19
1.19906e-19
7.45834e-19
1.59348e-19
7.1e-19
1.95061e-19
6.70258e-19
2.26997e-19
6.27295e-19
2.5523e-19
5.81705e-19
2.79925e-19
5.33968e-19
3.01319e-19
4.84455e-19
3.19696e-19
4.33465e-19
3.35363e-19
3.81261e-19
3.48611e-19
3.28108e-19
3.59702e-19
2.74273e-19
3.68849e-19
2.2001e-19
3.7622e-19
1.65526e-19
3.8194e-19
1.10954e-19
3.86101e-19
5.63415e-20
3.88765e-19
3.89968e-19
1.67324e-10
-4.139e-09
2.71277e-10
-3.42323e-09
2.97263e-10
-2.21644e-09
2.69982e-10
-1.46025e-09
3.31321e-10
-8.25882e-10
2.9129e-10
-5.75009e-10
2.00013e-10
-5.22355e-11
1.22993e-10
1.24368e-10
6.73404e-11
2.02192e-10
2.84028e-11
2.03587e-10
4.71986e-12
2.0848e-10
-1.20803e-11
1.77651e-10
-2.48887e-11
1.75769e-10
-4.3483e-11
1.61861e-10
-6.42067e-11
1.59079e-10
-8.4751e-11
1.9017e-10
-8.89938e-11
2.14176e-10
-7.73252e-11
2.65761e-10
-6.27268e-11
2.42924e-10
-4.17032e-11
1.85322e-10
-1.1177e-11
1.09492e-10
-3.45883e-11
9.41127e-11
-3.76262e-11
1.87679e-11
-3.24301e-11
4.35106e-11
-1.67606e-11
5.6848e-11
-4.70281e-11
6.01293e-11
-9.3571e-11
3.19544e-11
-1.21628e-10
-2.07032e-11
-1.3419e-10
-8.56743e-11
-1.4866e-10
-7.65359e-11
-1.31849e-10
-7.54603e-11
-1.21546e-10
-6.0007e-11
-1.17032e-10
-9.58232e-11
-9.25268e-11
-8.66258e-11
-2.42091e-11
-9.47055e-11
4.77169e-12
-7.69593e-11
4.92499e-11
-9.28927e-11
9.89836e-11
-1.45271e-10
1.44125e-10
-1.57197e-10
1.9172e-10
-1.75266e-10
3.18852e-10
-2.44565e-10
3.8877e-10
-2.82898e-10
4.4212e-10
-3.85006e-10
4.53721e-10
-4.20796e-10
4.67792e-10
-5.71904e-10
3.55071e-10
-7.11845e-10
3.96936e-10
-9.15361e-10
6.33726e-10
-1.03454e-09
8.5849e-10
-1.03589e-09
9.8605e-10
-1.03763e-09
1.0199e-09
-1.1099e-09
9.26449e-10
-1.20941e-09
1.10499e-09
-1.42794e-09
1.28054e-09
-1.30225e-09
1.30669e-09
-1.2498e-09
1.37648e-09
-1.15697e-09
1.43346e-09
-9.33965e-10
1.47885e-09
-8.76163e-10
1.50216e-09
-8.76548e-10
1.51744e-09
-7.51921e-10
1.59967e-09
-6.458e-10
1.69096e-09
-4.97156e-10
1.78129e-09
-1.82433e-10
1.65785e-09
3.84694e-10
1.60932e-09
5.43534e-10
1.5236e-09
8.11823e-10
1.39205e-09
1.0562e-09
1.27693e-09
1.23287e-09
1.34674e-09
1.42174e-09
1.28514e-09
1.63937e-09
1.16354e-09
1.87903e-09
9.44936e-10
2.09851e-09
6.79043e-10
2.27285e-09
5.40738e-10
2.30848e-09
3.75635e-10
2.38846e-09
2.14751e-10
2.46568e-09
1.39956e-10
2.43699e-09
9.56646e-11
2.3729e-09
4.33359e-11
2.30741e-09
-6.16177e-16
2.24843e-09
-1.59961e-18
2.47562e-18
-1.18643e-18
1.84748e-18
-9.34141e-19
1.33299e-18
-7.35376e-19
9.0961e-19
-5.5829e-19
5.57761e-19
-3.91479e-19
2.67765e-19
-2.30677e-19
3.42115e-20
-7.50569e-20
-1.46607e-19
7.41973e-20
-2.79857e-19
2.14997e-19
-3.70428e-19
3.45297e-19
-4.23756e-19
4.63263e-19
-4.45568e-19
5.67222e-19
-4.41437e-19
6.5614e-19
-4.16679e-19
7.29832e-19
-3.76365e-19
7.8855e-19
-3.25088e-19
8.32739e-19
-2.66727e-19
8.63103e-19
-2.0442e-19
8.80639e-19
-1.40689e-19
8.86485e-19
-7.75238e-20
8.81794e-19
-1.64078e-20
8.67737e-19
4.16189e-20
8.45536e-19
9.58591e-20
8.16422e-19
1.45863e-19
7.81547e-19
1.9137e-19
7.41937e-19
2.32277e-19
6.9849e-19
2.68615e-19
6.5199e-19
3.00531e-19
6.03099e-19
3.28259e-19
5.52346e-19
3.52108e-19
5.00122e-19
3.72437e-19
4.46713e-19
3.89627e-19
3.92352e-19
4.0405e-19
3.37255e-19
4.16038e-19
2.81644e-19
4.25871e-19
2.2573e-19
4.33764e-19
1.69687e-19
4.39877e-19
1.13618e-19
4.44321e-19
5.75439e-20
4.47167e-19
4.48457e-19
2.42495e-10
-4.38149e-09
2.35691e-10
-3.41642e-09
2.37175e-10
-2.21793e-09
2.13078e-10
-1.43615e-09
2.65916e-10
-8.78719e-10
1.61447e-10
-4.70539e-10
1.80726e-10
-7.15128e-11
1.87699e-10
1.17395e-10
1.51525e-10
2.38366e-10
1.1071e-10
2.44402e-10
8.16072e-11
2.37584e-10
5.53234e-11
2.03935e-10
4.38673e-11
1.87225e-10
1.46292e-11
1.91099e-10
-1.69692e-11
1.90678e-10
-4.44397e-11
2.1764e-10
-5.34043e-11
2.2314e-10
-4.30203e-11
2.55376e-10
-2.67201e-11
2.26623e-10
-1.3555e-11
1.72156e-10
3.9897e-12
9.1946e-11
7.10522e-12
9.09961e-11
-3.05949e-12
2.89314e-11
-1.45466e-11
5.49963e-11
-2.49868e-11
6.72865e-11
-1.75129e-11
5.26537e-11
-2.50727e-11
3.95123e-11
-6.63785e-11
2.06007e-11
-1.17263e-10
-3.47919e-11
-1.49682e-10
-4.41184e-11
-1.35142e-10
-9.00022e-11
-1.21833e-10
-7.3318e-11
-1.23434e-10
-9.4224e-11
-1.30062e-10
-8e-11
-9.24153e-11
-1.32354e-10
-6.066e-11
-1.08717e-10
-1.64453e-11
-1.3711e-10
2.78011e-11
-1.8952e-10
7.07233e-11
-2.00122e-10
1.37441e-10
-2.41986e-10
1.44717e-10
-2.51843e-10
2.20418e-10
-3.58601e-10
3.04701e-10
-4.6929e-10
3.93273e-10
-5.09369e-10
4.41698e-10
-6.2033e-10
4.87929e-10
-7.58078e-10
4.64293e-10
-8.91727e-10
4.19357e-10
-9.89609e-10
4.64509e-10
-1.08104e-09
5.75165e-10
-1.14829e-09
6.81661e-10
-1.2164e-09
7.00603e-10
-1.22835e-09
5.69689e-10
-1.29702e-09
6.1957e-10
-1.35213e-09
6.77408e-10
-1.30764e-09
7.13422e-10
-1.19299e-09
8.34606e-10
-1.05515e-09
9.13317e-10
-9.54876e-10
8.73854e-10
-8.37086e-10
8.57758e-10
-7.35827e-10
8.9233e-10
-6.80372e-10
9.77779e-10
-5.82606e-10
1.13766e-09
-3.42313e-10
1.312e-09
2.10353e-10
1.35471e-09
5.00825e-10
1.28052e-09
8.86013e-10
1.23686e-09
1.09986e-09
1.12154e-09
1.3482e-09
7.85266e-10
1.75802e-09
5.66113e-10
1.85853e-09
4.80037e-10
1.96511e-09
4.40534e-10
2.13802e-09
4.35937e-10
2.27745e-09
3.15257e-10
2.42916e-09
1.77416e-10
2.5263e-09
1.00987e-10
2.54211e-09
4.11606e-11
2.49682e-09
1.12448e-11
2.40282e-09
1.49496e-11
2.30371e-09
-3.01645e-16
2.26338e-09
-2.22646e-18
1.47219e-18
-1.69984e-18
1.32134e-18
-1.35657e-18
9.90176e-19
-1.08636e-18
6.39618e-19
-8.47474e-19
3.18824e-19
-6.24257e-19
4.39724e-20
-4.11471e-19
-1.79744e-19
-2.08306e-19
-3.51343e-19
-1.63738e-20
-4.73838e-19
1.61669e-19
-5.51272e-19
3.23484e-19
-5.88968e-19
4.67393e-19
-5.93125e-19
5.9198e-19
-5.70017e-19
6.96455e-19
-5.25605e-19
7.81108e-19
-4.65539e-19
8.46912e-19
-3.95019e-19
8.95046e-19
-3.1848e-19
9.26833e-19
-2.39447e-19
9.43805e-19
-1.60632e-19
9.47602e-19
-8.40922e-20
9.39821e-19
-1.13117e-20
9.21978e-19
5.67267e-20
8.95541e-19
1.19449e-19
8.61929e-19
1.76577e-19
8.22454e-19
2.28034e-19
7.78276e-19
2.73884e-19
7.30406e-19
3.14302e-19
6.79718e-19
3.49547e-19
6.26949e-19
3.79953e-19
5.72675e-19
4.05915e-19
5.17311e-19
4.27874e-19
4.61136e-19
4.46291e-19
4.0434e-19
4.61615e-19
3.47088e-19
4.74254e-19
2.89537e-19
4.8455e-19
2.31843e-19
4.92773e-19
1.74131e-19
4.99118e-19
1.16464e-19
5.03721e-19
5.88339e-20
5.06668e-19
5.08007e-19
4.13117e-11
-4.4228e-09
8.23163e-11
-3.45743e-09
1.20427e-10
-2.25604e-09
7.92129e-11
-1.39494e-09
1.69966e-10
-9.6947e-10
1.56807e-10
-4.5738e-10
3.07067e-10
-2.21771e-10
2.70822e-10
1.53641e-10
2.59188e-10
2.50001e-10
2.18347e-10
2.85244e-10
1.69971e-10
2.85959e-10
1.2487e-10
2.49037e-10
9.71232e-11
2.14972e-10
6.35281e-11
2.24693e-10
2.90529e-11
2.25152e-10
8.81957e-12
2.37873e-10
-5.59784e-12
2.37557e-10
-4.14967e-12
2.53927e-10
-6.03535e-12
2.28507e-10
-1.56257e-11
1.81746e-10
-3.70492e-11
1.13369e-10
-4.70028e-11
1.00949e-10
-8.38796e-11
6.58072e-11
-1.05515e-10
7.66301e-11
-1.2552e-10
8.72908e-11
-1.57973e-10
8.51046e-11
-1.8051e-10
6.20478e-11
-1.75617e-10
1.57057e-11
-1.81556e-10
-2.88549e-11
-1.79907e-10
-4.57691e-11
-1.57955e-10
-1.11956e-10
-1.45124e-10
-8.61505e-11
-1.2325e-10
-1.161e-10
-1.0325e-10
-1.00002e-10
-7.68983e-11
-1.58708e-10
-5.4263e-11
-1.31354e-10
-1.70363e-11
-1.74339e-10
2.4494e-12
-2.09008e-10
1.20362e-11
-2.09711e-10
6.93765e-11
-2.99329e-10
1.35936e-10
-3.18405e-10
1.54174e-10
-3.7684e-10
1.65322e-10
-4.8044e-10
2.12555e-10
-5.56603e-10
3.03913e-10
-7.1169e-10
3.56257e-10
-8.10424e-10
3.61016e-10
-8.96487e-10
4.05141e-10
-1.03373e-09
4.04486e-10
-1.08039e-09
3.58444e-10
-1.10225e-09
3.09082e-10
-1.16704e-09
3.04059e-10
-1.22333e-09
2.40306e-10
-1.23327e-09
2.09782e-10
-1.32161e-09
2.45435e-10
-1.34329e-09
3.66352e-10
-1.31391e-09
4.37212e-10
-1.12601e-09
4.47109e-10
-9.64774e-10
4.13872e-10
-8.0385e-10
3.42495e-10
-6.64451e-10
2.13362e-10
-5.51239e-10
7.86097e-11
-4.47854e-10
-2.67877e-11
-2.36916e-10
9.30201e-11
9.0545e-11
1.05222e-10
4.88623e-10
8.92376e-11
9.01997e-10
1.33838e-10
1.05526e-09
2.84769e-10
1.19727e-09
4.17943e-10
1.62484e-09
2.79532e-10
1.99694e-09
1.12737e-10
2.1319e-09
1.77221e-11
2.23303e-09
3.38125e-12
2.29179e-09
-2.6153e-11
2.45869e-09
-9.94147e-11
2.59956e-09
-1.16336e-10
2.55903e-09
-6.77759e-11
2.44826e-09
-6.30738e-12
2.34135e-09
-2.90519e-13
2.29769e-09
7.36408e-17
2.26309e-09
-2.37613e-18
1.19228e-18
-2.02994e-18
9.75746e-19
-1.70617e-18
6.66614e-19
-1.40628e-18
3.39798e-19
-1.1215e-18
3.41759e-20
-8.47191e-19
-2.3043e-19
-5.83007e-19
-4.44487e-19
-3.30801e-19
-6.04321e-19
-9.38085e-20
-7.11776e-19
1.23973e-19
-7.70705e-19
3.19327e-19
-7.86782e-19
4.90501e-19
-7.67076e-19
6.36392e-19
-7.18984e-19
7.56521e-19
-6.49456e-19
8.51628e-19
-5.64852e-19
9.23451e-19
-4.70961e-19
9.7408e-19
-3.72768e-19
1.00565e-18
-2.74208e-19
1.02034e-18
-1.78177e-19
1.02038e-18
-8.67266e-20
1.00786e-18
-1.24234e-21
9.847e-19
7.74397e-20
9.52669e-19
1.48933e-19
9.13385e-19
2.13188e-19
8.68304e-19
2.70376e-19
8.18693e-19
3.20802e-19
7.65651e-19
3.64848e-19
7.10124e-19
4.02942e-19
6.52911e-19
4.35552e-19
5.94634e-19
4.63183e-19
5.35728e-19
4.86365e-19
4.7646e-19
5.05642e-19
4.16979e-19
5.2154e-19
3.57384e-19
5.34538e-19
2.97759e-19
5.45041e-19
2.38188e-19
5.53372e-19
1.78734e-19
5.59767e-19
1.1941e-19
5.64389e-19
6.01733e-20
5.67342e-19
5.68687e-19
7.62714e-11
-4.49907e-09
7.94394e-11
-3.46059e-09
6.81624e-11
-2.24476e-09
1.05483e-10
-1.43225e-09
1.42554e-10
-1.00654e-09
1.45996e-10
-4.60821e-10
2.7528e-10
-3.51053e-10
2.63157e-10
1.65765e-10
2.88091e-10
2.25067e-10