/*--------------------------------*- C++ -*----------------------------------*\
  =========                 |
  \\      /  F ield         | OpenFOAM: The Open Source CFD Toolbox
   \\    /   O peration     | Website:  https://openfoam.org
    \\  /    A nd           | Version:  6
     \\/     M anipulation  |
\*---------------------------------------------------------------------------*/
FoamFile
{
    version     2.0;
    format      ascii;
    class       volScalarField;
    location    "200";
    object      Su;
}
// * * * * * * * * * * * * * * * * * * * * * * * * * * * * * * * * * * * * * //

dimensions      [0 0 -1 0 0 0 0];

internalField   nonuniform List<scalar> 
4800
(
0.220191
0.219391
0.218576
0.217729
0.216839
0.215899
0.214905
0.213858
0.212756
0.211598
0.210384
0.209116
0.207796
0.206429
0.205018
0.203564
0.202066
0.200521
0.198931
0.197298
0.195627
0.193924
0.192191
0.19043
0.188644
0.186837
0.185013
0.183171
0.181315
0.179441
0.177548
0.175637
0.173707
0.171758
0.169789
0.1678
0.165794
0.163771
0.161736
0.15969
0.157639
0.155585
0.153534
0.151492
0.149464
0.147457
0.145474
0.143521
0.141598
0.139706
0.137856
0.136043
0.134257
0.132507
0.130788
0.129086
0.12739
0.12569
0.12398
0.122243
0.120458
0.1186
0.116641
0.114542
0.112263
0.109757
0.10697
0.103838
0.1003
0.0962816
0.0916992
0.0864761
0.0805472
0.0738555
0.0663653
0.0580538
0.0489363
0.0391054
0.0286617
0.0177039
0.00595654
0.00581508
0.00490604
0.00362946
0.00198109
-1.22769e-05
-0.00231126
-0.00487321
-0.00765634
-0.0106214
-0.0137321
-0.0169561
-0.0202644
-0.023632
-0.0270378
-0.0304646
-0.0338986
-0.0373292
-0.0407488
-0.044152
-0.0475356
-0.0508977
-0.0542378
-0.0575558
-0.0608528
-0.0641299
-0.0673884
-0.0706299
-0.0738559
-0.077068
-0.0802677
-0.0834564
-0.0866356
-0.0898064
-0.0929701
-0.096128
-0.0992812
-0.102431
-0.105578
-0.108723
0.22018
0.219351
0.218505
0.217634
0.216722
0.215763
0.214751
0.213685
0.212566
0.211395
0.21017
0.208891
0.20756
0.206179
0.204753
0.203285
0.201775
0.200223
0.198626
0.196987
0.195309
0.193597
0.191855
0.190086
0.188291
0.186474
0.184638
0.182785
0.180916
0.179032
0.177131
0.175212
0.173273
0.171315
0.169339
0.167345
0.165334
0.163309
0.16127
0.159221
0.157166
0.15511
0.153057
0.151012
0.14898
0.146967
0.144976
0.143015
0.141087
0.139184
0.137321
0.135504
0.13371
0.131949
0.13022
0.12851
0.12681
0.125105
0.123388
0.121649
0.119863
0.118005
0.116045
0.113944
0.111662
0.109153
0.106365
0.103238
0.0997054
0.0956966
0.0911349
0.0859458
0.0800663
0.073443
0.0660352
0.0578459
0.0488987
0.039215
0.0288325
0.0178763
0.00607549
0.00606343
0.00518566
0.00388735
0.00219464
0.000152789
-0.00219021
-0.00478871
-0.0076007
-0.0105877
-0.0137148
-0.0169504
-0.0202668
-0.0236398
-0.027049
-0.0304777
-0.0339125
-0.0373432
-0.0407624
-0.044165
-0.0475477
-0.0509089
-0.0542479
-0.057565
-0.0608611
-0.0641372
-0.0673949
-0.0706357
-0.073861
-0.0770725
-0.0802716
-0.0834598
-0.0866385
-0.0898088
-0.0929722
-0.0961297
-0.0992824
-0.102432
-0.105578
-0.108723
0.220159
0.219287
0.218393
0.217471
0.216514
0.215518
0.214473
0.213374
0.212223
0.211021
0.209769
0.208468
0.207117
0.205716
0.204267
0.202773
0.201239
0.199665
0.198052
0.196398
0.194707
0.19298
0.191224
0.189441
0.187632
0.185799
0.183945
0.182072
0.180183
0.178279
0.176361
0.174427
0.172476
0.170507
0.168522
0.166518
0.164498
0.162464
0.160419
0.158364
0.156302
0.154237
0.152175
0.150123
0.148081
0.146057
0.144052
0.142077
0.140141
0.138219
0.136336
0.134507
0.132697
0.130912
0.129166
0.127443
0.125729
0.124016
0.122289
0.120539
0.118747
0.11689
0.114932
0.112836
0.110559
0.108053
0.105266
0.102143
0.0986249
0.0946323
0.0901007
0.0849621
0.0791606
0.0726508
0.0653937
0.0573885
0.0486343
0.0391392
0.028976
0.0182086
0.00636273
0.0066414
0.00579601
0.00442403
0.00262456
0.000477528
-0.00195605
-0.00462759
-0.00749617
-0.0105258
-0.0136841
-0.016942
-0.0202738
-0.023657
-0.0270725
-0.0305045
-0.0339407
-0.0373714
-0.0407897
-0.0441907
-0.0475716
-0.0509309
-0.0542679
-0.0575831
-0.0608773
-0.0641517
-0.0674078
-0.0706471
-0.0738711
-0.0770813
-0.0802793
-0.0834665
-0.0866442
-0.0898136
-0.0929761
-0.0961328
-0.0992849
-0.102433
-0.105579
-0.108724
0.220123
0.219183
0.218227
0.217251
0.216241
0.215194
0.214103
0.212964
0.211776
0.210538
0.209251
0.207916
0.206534
0.205103
0.203626
0.202105
0.200542
0.198941
0.197302
0.195625
0.193912
0.192166
0.190391
0.188588
0.186759
0.184904
0.183027
0.18113
0.179217
0.177292
0.175353
0.173399
0.171431
0.169447
0.167448
0.165432
0.163401
0.161355
0.159299
0.157232
0.155159
0.153081
0.151007
0.148942
0.146888
0.144849
0.142821
0.140821
0.138863
0.136913
0.134993
0.13313
0.131292
0.129472
0.127692
0.125947
0.124208
0.122474
0.120735
0.118971
0.117172
0.115315
0.113363
0.111275
0.109008
0.106515
0.103744
0.100635
0.0971426
0.0931778
0.088695
0.0836382
0.0779517
0.0715824
0.0645052
0.0567221
0.0482575
0.0391514
0.0294252
0.0190119
0.00704205
0.00776587
0.00684209
0.00527262
0.00327049
0.0009496
-0.00162334
-0.00440283
-0.00735315
-0.0104434
-0.0136459
-0.016935
-0.0202882
-0.0236853
-0.0271092
-0.0305457
-0.0339835
-0.0374139
-0.0408306
-0.0442293
-0.0476074
-0.0509636
-0.0542977
-0.05761
-0.0609014
-0.0641733
-0.067427
-0.0706641
-0.0738861
-0.0770945
-0.0802908
-0.0834764
-0.0866526
-0.0898208
-0.092982
-0.0961376
-0.0992885
-0.102436
-0.105581
-0.108724
0.220086
0.219072
0.218045
0.216999
0.215928
0.214825
0.213684
0.212498
0.211267
0.209988
0.208661
0.207288
0.205868
0.204403
0.202895
0.201343
0.199751
0.19812
0.196451
0.194746
0.193007
0.191237
0.189438
0.187613
0.185761
0.183883
0.181981
0.18006
0.178121
0.176173
0.174213
0.172239
0.170253
0.168252
0.166238
0.164209
0.162165
0.160105
0.158035
0.155953
0.153863
0.151764
0.149667
0.147575
0.145492
0.143427
0.141359
0.139316
0.137311
0.135319
0.133347
0.131427
0.12955
0.12769
0.125867
0.124084
0.122313
0.120545
0.118779
0.116994
0.115184
0.113322
0.111376
0.109295
0.10704
0.104563
0.101806
0.098714
0.0952593
0.0913435
0.0869278
0.0819673
0.0764144
0.0702325
0.0634111
0.0559601
0.0479224
0.0393743
0.0303534
0.0207277
0.00881551
0.00985125
0.00844053
0.00643802
0.00410543
0.00153791
-0.00121897
-0.00413552
-0.0071874
-0.0103521
-0.0136081
-0.016935
-0.0203137
-0.0237272
-0.0271609
-0.0306022
-0.0340414
-0.0374709
-0.0408852
-0.0442805
-0.0476548
-0.051007
-0.0543371
-0.0576455
-0.0609333
-0.0642017
-0.0674523
-0.0706865
-0.0739058
-0.0771118
-0.0803059
-0.0834894
-0.0866638
-0.0898301
-0.0929898
-0.0961438
-0.0992932
-0.102439
-0.105583
-0.108725
0.220045
0.218952
0.217852
0.216737
0.215602
0.214439
0.213245
0.212008
0.210729
0.209404
0.208034
0.20662
0.205164
0.203665
0.202124
0.200544
0.198924
0.197262
0.195561
0.193826
0.192059
0.190262
0.188438
0.186589
0.184713
0.182813
0.180893
0.178954
0.176997
0.175027
0.173045
0.171049
0.169041
0.167021
0.164985
0.162934
0.160872
0.158791
0.156698
0.154593
0.152475
0.150341
0.148205
0.146069
0.143936
0.141829
0.139714
0.137612
0.135538
0.133487
0.131457
0.129468
0.127529
0.125616
0.123742
0.121911
0.120099
0.118293
0.116488
0.114677
0.112848
0.110975
0.109031
0.106957
0.104713
0.102251
0.0995161
0.0964567
0.0930507
0.0892059
0.084879
0.0800335
0.0746434
0.0687019
0.0622071
0.0551892
0.0477081
0.0398587
0.0318047
0.02386
0.0168693
0.0133462
0.0105328
0.00781705
0.00504801
0.0021844
-0.000783806
-0.00385443
-0.00701915
-0.0102659
-0.0135807
-0.0169485
-0.0203547
-0.0237857
-0.0272292
-0.0306751
-0.034115
-0.0375427
-0.0409534
-0.0443443
-0.0477137
-0.0510608
-0.0543858
-0.0576894
-0.0609726
-0.0642368
-0.0674835
-0.0707141
-0.0739301
-0.0771331
-0.0803244
-0.0835055
-0.0866775
-0.0898417
-0.0929993
-0.0961514
-0.0992991
-0.102443
-0.105585
-0.108726
0.220006
0.218834
0.217658
0.216472
0.215275
0.214054
0.212805
0.211517
0.210188
0.20882
0.20741
0.20596
0.204468
0.202936
0.201365
0.199755
0.198108
0.196424
0.1947
0.19294
0.191147
0.189323
0.187472
0.185597
0.183697
0.181771
0.179824
0.177858
0.175875
0.173879
0.171872
0.169851
0.167818
0.165774
0.163714
0.161637
0.159546
0.157437
0.155314
0.153176
0.151023
0.148848
0.146661
0.144467
0.142268
0.140089
0.137921
0.135764
0.13362
0.131491
0.129383
0.127314
0.125301
0.123325
0.121386
0.119498
0.117639
0.115786
0.113937
0.112089
0.110231
0.108338
0.10639
0.104326
0.102094
0.0996484
0.0969386
0.0939181
0.0905628
0.0867941
0.0825731
0.0778753
0.0726828
0.0669933
0.0608264
0.0542364
0.0473093
0.0401767
0.0330431
0.0262589
0.0204269
0.016044
0.0124231
0.00913242
0.00596132
0.00281026
-0.000367584
-0.00359257
-0.00687082
-0.0102003
-0.013574
-0.0169827
-0.020416
-0.0238636
-0.0273161
-0.0307654
-0.0342048
-0.0376293
-0.0410353
-0.0444205
-0.0477837
-0.0511246
-0.0544435
-0.0577413
-0.0610191
-0.0642783
-0.0675203
-0.0707467
-0.0739588
-0.0771583
-0.0803464
-0.0835244
-0.0866937
-0.0898554
-0.0930106
-0.0961605
-0.099306
-0.102448
-0.105588
-0.108726
0.219965
0.218714
0.217464
0.216211
0.214951
0.213673
0.212373
0.21104
0.209669
0.20826
0.206812
0.205325
0.203799
0.202234
0.200632
0.198993
0.197319
0.195609
0.193862
0.192078
0.190261
0.188411
0.186533
0.184631
0.182704
0.180751
0.178775
0.176779
0.174766
0.172742
0.170706
0.168658
0.166597
0.164523
0.162435
0.16033
0.158206
0.156064
0.153903
0.151724
0.149526
0.147306
0.145068
0.142815
0.14055
0.138283
0.136026
0.13379
0.131576
0.129377
0.127195
0.125041
0.122936
0.120888
0.118883
0.116928
0.115012
0.113108
0.111208
0.109313
0.107412
0.105487
0.10352
0.101458
0.0992302
0.096799
0.0941151
0.0911395
0.0878424
0.0841631
0.080067
0.0755293
0.0705411
0.0651175
0.0592938
0.053132
0.0467331
0.0402364
0.033839
0.0278029
0.0224568
0.0178814
0.0138748
0.0102128
0.00673591
0.00334526
-1.66033e-05
-0.00338116
-0.00676376
-0.0101697
-0.0135981
-0.0170443
-0.0205019
-0.0239638
-0.0274231
-0.0308739
-0.034311
-0.0377308
-0.0411306
-0.0445087
-0.0478645
-0.0511981
-0.0545099
-0.0578009
-0.0610725
-0.0643259
-0.0675625
-0.070784
-0.0739917
-0.0771871
-0.0803714
-0.0835461
-0.0867122
-0.089871
-0.0930235
-0.0961708
-0.0993139
-0.102454
-0.105591
-0.108728
0.219926
0.218597
0.217274
0.215953
0.214632
0.2133
0.211952
0.210577
0.209168
0.207721
0.206236
0.204713
0.203153
0.201556
0.199923
0.198255
0.196552
0.194815
0.193041
0.191231
0.189387
0.187511
0.185606
0.183675
0.181719
0.179739
0.177737
0.175713
0.173672
0.171618
0.169553
0.167477
0.165386
0.163281
0.16116
0.159022
0.156863
0.154682
0.15248
0.150255
0.148006
0.145733
0.143439
0.141128
0.138799
0.136462
0.134124
0.131797
0.12949
0.127207
0.124947
0.122715
0.120519
0.118379
0.116295
0.114266
0.112284
0.110323
0.108372
0.106423
0.104467
0.102494
0.100492
0.0984224
0.096202
0.0937903
0.0911369
0.0882097
0.0849727
0.0813747
0.0774004
0.0730393
0.0682876
0.0631573
0.0576859
0.0519451
0.0460346
0.0400812
0.0342436
0.0287021
0.0236313
0.0190477
0.0148741
0.0109972
0.00731292
0.00374318
0.000235086
-0.00324466
-0.00671526
-0.0101864
-0.0136612
-0.0171388
-0.0206159
-0.0240883
-0.0275515
-0.0310011
-0.0344339
-0.0378471
-0.0412389
-0.0446085
-0.0479557
-0.0512807
-0.0545844
-0.0578678
-0.0611322
-0.0643791
-0.0676098
-0.0708258
-0.0740285
-0.0772193
-0.0803995
-0.0835703
-0.0867329
-0.0898884
-0.0930379
-0.0961823
-0.0993227
-0.10246
-0.105595
-0.108729
0.219885
0.218478
0.217083
0.215696
0.214315
0.212931
0.211537
0.210122
0.208675
0.207192
0.205672
0.204114
0.20252
0.200891
0.199228
0.197531
0.1958
0.194035
0.192234
0.190396
0.188524
0.18662
0.184686
0.182725
0.180741
0.178732
0.176702
0.174653
0.172587
0.170507
0.168414
0.16631
0.16419
0.162056
0.159902
0.157729
0.155532
0.15331
0.151063
0.148789
0.14649
0.144161
0.141806
0.139429
0.137035
0.134628
0.132215
0.129807
0.127415
0.125044
0.122697
0.120383
0.118106
0.115875
0.113702
0.111589
0.109531
0.107506
0.105499
0.103494
0.101478
0.099443
0.097381
0.095267
0.0930349
0.0906301
0.0879985
0.085122
0.0819772
0.0785013
0.0746676
0.0704812
0.0659542
0.0611109
0.0559864
0.050645
0.0451776
0.0396873
0.0342854
0.0291052
0.0242341
0.0197035
0.0154737
0.0114854
0.00767362
0.00398213
0.000368061
-0.00319855
-0.006737
-0.0102587
-0.0137691
-0.01727
-0.0207606
-0.0242387
-0.0277018
-0.0311473
-0.0345731
-0.0379776
-0.0413598
-0.0447194
-0.0480566
-0.051372
-0.0546665
-0.0579414
-0.0611979
-0.0644375
-0.0676616
-0.0708716
-0.0740688
-0.0772546
-0.0804302
-0.0835968
-0.0867555
-0.0899075
-0.0930536
-0.0961949
-0.0993324
-0.102467
-0.105599
-0.10873
0.219846
0.218362
0.216894
0.215441
0.213999
0.212561
0.211118
0.209661
0.208176
0.20666
0.205107
0.203517
0.201892
0.200232
0.198539
0.196814
0.195056
0.193264
0.191437
0.189573
0.187674
0.185742
0.18378
0.181791
0.179778
0.177743
0.175687
0.173612
0.171521
0.169416
0.167295
0.165162
0.163014
0.16085
0.158664
0.156455
0.154222
0.151959
0.149667
0.147344
0.144991
0.142607
0.140192
0.137752
0.135289
0.13281
0.130322
0.127835
0.125361
0.122909
0.120485
0.118093
0.115738
0.113423
0.111159
0.108949
0.106801
0.104705
0.102639
0.100578
0.0985111
0.096423
0.0943039
0.0921359
0.0898807
0.0874693
0.0848499
0.0820031
0.0789205
0.0755623
0.0718896
0.0678953
0.0635944
0.0590214
0.0542219
0.0492506
0.0441732
0.0390689
0.0340236
0.0291176
0.024417
0.0199643
0.0157371
0.0117037
0.00782374
0.00405859
0.000375714
-0.00324962
-0.00683476
-0.0103911
-0.0139251
-0.0174401
-0.020937
-0.0244154
-0.0278742
-0.0313121
-0.0347282
-0.0381218
-0.0414925
-0.0448406
-0.0481665
-0.0514711
-0.0547556
-0.0580211
-0.061269
-0.0645007
-0.0677176
-0.070921
-0.0741123
-0.0772927
-0.0804633
-0.0836254
-0.08678
-0.0899281
-0.0930706
-0.0962086
-0.0993428
-0.102474
-0.105603
-0.108732
0.219806
0.218244
0.216703
0.215183
0.213678
0.212185
0.210692
0.20919
0.207667
0.206117
0.204534
0.202915
0.20126
0.199572
0.197853
0.196101
0.194318
0.192501
0.190649
0.188761
0.186838
0.184882
0.182895
0.180881
0.178842
0.17678
0.174697
0.172595
0.170477
0.168346
0.1662
0.16404
0.161864
0.15967
0.157454
0.155212
0.15294
0.150637
0.148302
0.145931
0.143528
0.141091
0.138621
0.136121
0.133597
0.131054
0.128499
0.125942
0.123391
0.120856
0.11835
0.115879
0.113448
0.111056
0.108713
0.106422
0.104182
0.101996
0.0998553
0.0977306
0.0956085
0.0934684
0.0912934
0.0890725
0.0867838
0.0843599
0.0817549
0.0789422
0.0759147
0.0726472
0.0691159
0.0653081
0.0612367
0.0569328
0.0524344
0.0477869
0.0430426
0.0382617
0.033508
0.0288381
0.0242806
0.019915
0.015723
0.0116869
0.00778155
0.00398081
0.000260905
-0.00339755
-0.00700914
-0.0105843
-0.0141296
-0.0176492
-0.0211451
-0.0246179
-0.0280679
-0.0314947
-0.0348984
-0.0382787
-0.0416362
-0.0449712
-0.0482846
-0.0515774
-0.0548509
-0.0581063
-0.0613449
-0.0645681
-0.0677773
-0.0709737
-0.0741586
-0.0773332
-0.0804986
-0.0836558
-0.086806
-0.0899499
-0.0930887
-0.096223
-0.0993538
-0.102482
-0.105608
-0.108733
0.219765
0.218125
0.216509
0.214918
0.213347
0.211794
0.21025
0.208703
0.20714
0.205557
0.203946
0.202301
0.200622
0.198909
0.197164
0.195389
0.193582
0.191742
0.189868
0.187962
0.186022
0.184048
0.18204
0.180003
0.177938
0.175848
0.173737
0.171607
0.169463
0.167306
0.165135
0.162949
0.160747
0.158523
0.156276
0.153999
0.151691
0.149352
0.146976
0.144563
0.142115
0.139629
0.137106
0.134551
0.131968
0.129364
0.126748
0.12413
0.121514
0.118909
0.116329
0.113781
0.111275
0.108807
0.106382
0.104013
0.101689
0.0994192
0.0971981
0.0950008
0.0928155
0.0906179
0.0883858
0.0861213
0.0837868
0.0813467
0.0787508
0.0759782
0.0730067
0.0698252
0.0664185
0.0627826
0.0589244
0.0548637
0.0506315
0.0462651
0.0418056
0.0372975
0.032787
0.0283138
0.0238918
0.0196189
0.0154819
0.0114709
0.00757067
0.00376355
3.26094e-05
-0.00363687
-0.00725673
-0.010836
-0.0143809
-0.0178958
-0.0213833
-0.024845
-0.0282816
-0.0316939
-0.0350823
-0.0384473
-0.0417896
-0.0451102
-0.0484099
-0.05169
-0.0549517
-0.0581962
-0.061425
-0.0646392
-0.0678402
-0.0710292
-0.0742074
-0.0773758
-0.0805357
-0.0836878
-0.0868333
-0.0899729
-0.0931076
-0.0962382
-0.0993655
-0.10249
-0.105613
-0.108735
0.219723
0.218002
0.216309
0.214644
0.213007
0.211393
0.209794
0.208198
0.206594
0.204976
0.203336
0.201667
0.199967
0.198232
0.196468
0.194673
0.192845
0.190986
0.189094
0.187169
0.185212
0.183223
0.1812
0.179146
0.177061
0.174947
0.172811
0.170656
0.168485
0.166302
0.164106
0.161893
0.159665
0.157414
0.155137
0.152829
0.150487
0.14811
0.145696
0.143244
0.140755
0.138227
0.135661
0.13306
0.130428
0.12777
0.125096
0.122417
0.119741
0.117078
0.114437
0.111823
0.109248
0.10671
0.104211
0.101767
0.0993653
0.0970124
0.0947085
0.0924339
0.09018
0.087922
0.0856264
0.0833197
0.0809342
0.0784758
0.0758763
0.0731391
0.0702263
0.067133
0.063846
0.0603621
0.0566872
0.0528359
0.0488322
0.0447044
0.0404846
0.0362065
0.0319026
0.0276
0.0233045
0.0191267
0.0150566
0.0110894
0.00721587
0.00342448
-0.000296805
-0.00395894
-0.00757135
-0.0111416
-0.0146755
-0.0181771
-0.0216494
-0.0250944
-0.0285136
-0.0319079
-0.0352784
-0.038626
-0.0419516
-0.0452564
-0.0485414
-0.0518078
-0.055057
-0.0582901
-0.0615084
-0.0647132
-0.0679057
-0.0710869
-0.0742581
-0.0774202
-0.0805742
-0.0837211
-0.0868616
-0.0899968
-0.0931273
-0.096254
-0.0993775
-0.102499
-0.105618
-0.108736
0.219681
0.217875
0.2161
0.21436
0.212653
0.210976
0.20932
0.207675
0.206027
0.204372
0.202703
0.201012
0.199291
0.19754
0.195759
0.193948
0.192107
0.190233
0.188327
0.186388
0.184417
0.182415
0.18038
0.178311
0.176211
0.17408
0.171923
0.169744
0.167549
0.165342
0.163121
0.160885
0.158631
0.156354
0.154049
0.15171
0.149335
0.146923
0.144472
0.14198
0.13945
0.136881
0.134273
0.131632
0.128959
0.126259
0.123538
0.120808
0.118079
0.115361
0.112666
0.109997
0.107365
0.104769
0.102208
0.0996931
0.0972237
0.0947936
0.0924125
0.0900621
0.0877358
0.0854158
0.0830609
0.0807057
0.0782747
0.0757921
0.0731939
0.0704762
0.0676147
0.0645965
0.0614125
0.0580582
0.0545395
0.0508649
0.0470529
0.0431247
0.0391048
0.035019
0.030891
0.0267385
0.0225618
0.0184793
0.0144832
0.0105722
0.00674088
0.00298179
-0.000713588
-0.00435342
-0.00794517
-0.0114952
-0.0150086
-0.0184892
-0.0219402
-0.0253637
-0.0287614
-0.0321347
-0.035485
-0.0388133
-0.0421208
-0.0454086
-0.0486779
-0.05193
-0.055166
-0.0583871
-0.0615946
-0.0647896
-0.0679732
-0.0711464
-0.0743103
-0.0774658
-0.0806139
-0.0837552
-0.0868908
-0.0900213
-0.0931476
-0.0962702
-0.0993899
-0.102507
-0.105623
-0.108738
0.219638
0.217745
0.215886
0.214066
0.212285
0.210539
0.208825
0.20713
0.205438
0.203746
0.202047
0.200333
0.198595
0.196829
0.195034
0.193211
0.191359
0.189476
0.187563
0.185618
0.18364
0.18163
0.179586
0.177509
0.175398
0.173253
0.171079
0.168881
0.166666
0.164437
0.162194
0.159935
0.157656
0.155353
0.153019
0.150649
0.148242
0.145796
0.143308
0.140779
0.138209
0.135599
0.132954
0.130274
0.127566
0.124833
0.12208
0.119318
0.116551
0.113791
0.111047
0.108326
0.105636
0.102981
0.100366
0.0977886
0.0952587
0.0927658
0.0903158
0.0878974
0.0855031
0.0831217
0.0807161
0.0783082
0.0758399
0.0733244
0.0707249
0.0680192
0.0651931
0.0622323
0.0591334
0.0558846
0.0524932
0.0489628
0.0453074
0.0415434
0.037689
0.0337632
0.0297837
0.0257631
0.0216984
0.0177096
0.0137916
0.00994502
0.00616707
0.00245277
-0.001204
-0.00480946
-0.00836964
-0.0118899
-0.0153747
-0.0188278
-0.022252
-0.0256496
-0.0290224
-0.0323722
-0.0357001
-0.0390074
-0.0422955
-0.0455653
-0.0488182
-0.0520553
-0.0552776
-0.0584864
-0.0616827
-0.0648676
-0.0680421
-0.0712071
-0.0743636
-0.0775123
-0.0806542
-0.08379
-0.0869205
-0.0900463
-0.0931681
-0.0962866
-0.0994025
-0.102516
-0.105629
-0.10874
0.219593
0.217611
0.215666
0.213763
0.211905
0.210091
0.208314
0.206565
0.204828
0.203097
0.201367
0.199629
0.197874
0.196097
0.194295
0.192468
0.190613
0.188728
0.186811
0.184861
0.18288
0.180867
0.178822
0.176742
0.174626
0.172473
0.170288
0.168076
0.165842
0.163593
0.161328
0.159046
0.156741
0.154412
0.15205
0.14965
0.147211
0.14473
0.142207
0.139643
0.137038
0.134393
0.131713
0.128996
0.126252
0.123485
0.1207
0.117906
0.115106
0.112313
0.109534
0.106775
0.104044
0.101346
0.0986854
0.0960599
0.0934745
0.0909275
0.0884157
0.0859374
0.0834817
0.081041
0.0785879
0.0761281
0.0736268
0.0710769
0.0684652
0.0657677
0.0629674
0.0600463
0.0570113
0.053844
0.0505515
0.0471352
0.0436049
0.0399734
0.0362545
0.032462
0.0286082
0.0247026
0.0207415
0.0168438
0.0130058
0.00922922
0.00551279
0.0018529
-0.00175519
-0.00531651
-0.00883614
-0.0123187
-0.0157682
-0.019188
-0.0225807
-0.0259488
-0.0292939
-0.0326176
-0.0359214
-0.0392065
-0.042474
-0.0457252
-0.048961
-0.0521825
-0.0553909
-0.058587
-0.0617719
-0.0649465
-0.0681117
-0.0712684
-0.0744173
-0.0775593
-0.080695
-0.0838251
-0.0869504
-0.0900714
-0.0931888
-0.0963032
-0.0994151
-0.102525
-0.105634
-0.108742
0.219547
0.217476
0.215443
0.213457
0.211518
0.209629
0.207786
0.205982
0.204199
0.202429
0.200667
0.198906
0.197134
0.195346
0.193538
0.191707
0.18985
0.187968
0.186057
0.184116
0.182143
0.180135
0.178093
0.176015
0.173899
0.171745
0.169556
0.167335
0.165087
0.162819
0.160533
0.158228
0.155897
0.15354
0.151148
0.148716
0.146242
0.143726
0.141168
0.138569
0.135929
0.133251
0.130538
0.12779
0.125017
0.12222
0.119405
0.116581
0.113755
0.110936
0.10813
0.105342
0.102579
0.099844
0.0971431
0.0944791
0.09185
0.0892578
0.0866971
0.0841671
0.0816592
0.0791651
0.076668
0.0741585
0.071624
0.0690444
0.0664104
0.0637099
0.0609258
0.0580325
0.0550403
0.0519322
0.048714
0.0453854
0.0419521
0.0384248
0.0348139
0.0311295
0.0273813
0.0235763
0.0197111
0.015901
0.0121438
0.00844149
0.00479306
0.0011954
-0.00235572
-0.00586478
-0.00933635
-0.0127746
-0.016183
-0.0195647
-0.0229222
-0.0262576
-0.0295725
-0.0328685
-0.0361467
-0.0394085
-0.0426547
-0.0458865
-0.0491048
-0.0523106
-0.0555047
-0.058688
-0.0618613
-0.0650256
-0.0681814
-0.0713297
-0.074471
-0.0776061
-0.0807356
-0.0838601
-0.0869802
-0.0900965
-0.0932095
-0.0963197
-0.0994278
-0.102534
-0.105639
-0.108743
0.219503
0.217344
0.215223
0.213149
0.211126
0.20916
0.207249
0.205385
0.203553
0.201743
0.199948
0.198162
0.196374
0.194577
0.192767
0.190938
0.189086
0.187208
0.185305
0.183375
0.181414
0.17942
0.177391
0.175325
0.173218
0.171069
0.168882
0.166659
0.164404
0.16212
0.159813
0.157481
0.155122
0.152734
0.150309
0.147844
0.145336
0.142784
0.14019
0.137556
0.134882
0.13217
0.129425
0.126648
0.123846
0.121024
0.118186
0.11534
0.112493
0.109651
0.106822
0.10401
0.101221
0.0984602
0.0957302
0.0930332
0.0903699
0.0877403
0.0851402
0.0825669
0.0800148
0.077473
0.0749345
0.0723826
0.0698107
0.0672042
0.0645459
0.0618308
0.0590469
0.0561703
0.0532055
0.0501379
0.0469723
0.0437089
0.040349
0.0369011
0.0333744
0.029777
0.026116
0.0223976
0.01862
0.0148941
0.0112183
0.00759403
0.00401952
0.00049111
-0.00299569
-0.00644543
-0.00986247
-0.0132507
-0.0166133
-0.0199531
-0.0232722
-0.0265724
-0.0298552
-0.033122
-0.0363736
-0.0396112
-0.0428357
-0.0460478
-0.0492483
-0.0524381
-0.0556178
-0.0587883
-0.0619501
-0.065104
-0.0682505
-0.0713904
-0.0745242
-0.0776525
-0.0807758
-0.0838947
-0.0870097
-0.0901213
-0.0932299
-0.096336
-0.0994402
-0.102543
-0.105644
-0.108745
0.219461
0.217217
0.215007
0.212843
0.210735
0.208688
0.206705
0.204779
0.202897
0.201046
0.199219
0.197408
0.195603
0.193797
0.191983
0.190155
0.188312
0.186448
0.18456
0.182646
0.180703
0.178728
0.176718
0.174671
0.172582
0.170448
0.168269
0.166047
0.163787
0.161491
0.159164
0.156805
0.154413
0.151989
0.149529
0.147028
0.144484
0.141897
0.139269
0.136603
0.133898
0.131156
0.128381
0.125576
0.122747
0.1199
0.117041
0.114174
0.111309
0.10845
0.105604
0.102776
0.0999694
0.0971875
0.0944343
0.0917123
0.0890211
0.0863608
0.083728
0.0811175
0.0785265
0.0759432
0.0733633
0.0707742
0.0681641
0.0655269
0.0628445
0.0601105
0.0573165
0.054443
0.0514926
0.0484509
0.0453196
0.0421009
0.0387945
0.0354048
0.0319405
0.0284096
0.0248182
0.0211724
0.0174742
0.0138295
0.0102366
0.00669491
0.00320075
-0.000251265
-0.00366663
-0.00705047
-0.0104072
-0.0137405
-0.0170533
-0.0203479
-0.0236261
-0.0268893
-0.0301387
-0.0333752
-0.0365996
-0.0398126
-0.043015
-0.0462072
-0.04939
-0.0525638
-0.0557293
-0.0588869
-0.0620373
-0.0651809
-0.0683183
-0.0714499
-0.0745763
-0.0776979
-0.0808152
-0.0839285
-0.0870385
-0.0901454
-0.0932498
-0.0963519
-0.0994523
-0.102551
-0.105649
-0.108747
0.219418
0.217088
0.214795
0.212545
0.210351
0.208224
0.206166
0.204174
0.202238
0.200346
0.198487
0.196651
0.194832
0.193018
0.191203
0.18938
0.187546
0.185697
0.183827
0.181935
0.180015
0.178065
0.176078
0.174051
0.17198
0.169861
0.167693
0.165475
0.163211
0.160902
0.158552
0.156165
0.153745
0.151291
0.148798
0.146263
0.143683
0.141062
0.138401
0.135701
0.132965
0.130194
0.12739
0.124561
0.121709
0.11884
0.115963
0.113082
0.110204
0.107334
0.104477
0.101638
0.0988176
0.0960213
0.0932513
0.0905097
0.0877959
0.0851088
0.0824466
0.0798032
0.0771755
0.0745546
0.0719338
0.0693071
0.0666604
0.063989
0.0612792
0.058522
0.0557139
0.0528346
0.049887
0.0468585
0.0437473
0.0405554
0.0372834
0.0339332
0.0305112
0.0270263
0.0234867
0.0199001
0.0162732
0.0127077
0.00920099
0.00574866
0.00234292
-0.00102455
-0.00436102
-0.00767249
-0.0109636
-0.0142377
-0.0174973
-0.0207442
-0.0239796
-0.0272045
-0.0304195
-0.0336252
-0.0368221
-0.0400104
-0.0431907
-0.0463632
-0.0495283
-0.0526864
-0.0558378
-0.0589829
-0.0621221
-0.0652557
-0.0683841
-0.0715076
-0.0746268
-0.0777418
-0.0808532
-0.0839612
-0.0870663
-0.0901688
-0.093269
-0.0963673
-0.099464
-0.10256
-0.105654
-0.108748
0.219379
0.216968
0.21459
0.212255
0.209977
0.207769
0.205638
0.20358
0.201589
0.199653
0.19776
0.1959
0.194066
0.192247
0.190433
0.18862
0.1868
0.184969
0.183122
0.181253
0.179359
0.177433
0.175471
0.173465
0.171412
0.169307
0.167146
0.164929
0.162657
0.160335
0.157965
0.155553
0.153104
0.150617
0.148091
0.145523
0.142913
0.140262
0.137572
0.134846
0.132083
0.129287
0.12646
0.123608
0.120736
0.117852
0.114961
0.112069
0.109182
0.106306
0.103443
0.100597
0.0977687
0.0949613
0.0921778
0.0894192
0.0866851
0.0839731
0.0812816
0.0786055
0.0759412
0.0732823
0.0706208
0.0679546
0.0652717
0.0625655
0.0598277
0.0570436
0.0542174
0.0513283
0.0483773
0.0453535
0.0422516
0.0390728
0.0358179
0.0324881
0.0290892
0.0256298
0.0221213
0.0185764
0.0150099
0.0115234
0.00811003
0.0047575
0.00145107
-0.00182206
-0.00507146
-0.00830405
-0.0115245
-0.0147356
-0.0179394
-0.0211367
-0.0243281
-0.027514
-0.0306943
-0.0338691
-0.0370384
-0.0402024
-0.0433609
-0.046514
-0.0496619
-0.0528046
-0.0559423
-0.0590752
-0.0622035
-0.0653274
-0.0684471
-0.0715629
-0.0746751
-0.0777839
-0.0808896
-0.0839925
-0.0870929
-0.090191
-0.0932873
-0.0963819
-0.0994752
-0.102567
-0.105659
-0.10875
0.219342
0.216857
0.214404
0.211992
0.209632
0.207343
0.205135
0.203009
0.200961
0.198978
0.19705
0.195166
0.193317
0.191494
0.189686
0.187887
0.186088
0.184281
0.18246
0.180617
0.178746
0.176841
0.174895
0.172903
0.170859
0.168758
0.166595
0.16437
0.162084
0.159744
0.157353
0.154918
0.152443
0.149932
0.147384
0.144796
0.142167
0.139496
0.136788
0.134042
0.131262
0.128449
0.125605
0.122736
0.11985
0.116952
0.11405
0.111151
0.10826
0.10538
0.102514
0.0996626
0.0968268
0.0940082
0.0912094
0.0884309
0.0856723
0.0829315
0.0802065
0.0774934
0.0747891
0.07209
0.0693879
0.0666819
0.0639636
0.0612246
0.0584628
0.0556571
0.0528143
0.0499161
0.0469597
0.0439362
0.0408371
0.0376608
0.0344083
0.0310801
0.0276814
0.0242219
0.0207166
0.0171883
0.013668
0.0102643
0.00695894
0.0037231
0.000530897
-0.00263608
-0.00578964
-0.00893701
-0.0120823
-0.0152275
-0.0183734
-0.0215201
-0.024667
-0.0278136
-0.0309594
-0.0341037
-0.0372461
-0.0403861
-0.0435235
-0.0466578
-0.0497891
-0.052917
-0.0560416
-0.0591628
-0.0622807
-0.0653953
-0.0685067
-0.0716151
-0.0747207
-0.0778235
-0.0809238
-0.0840219
-0.0871178
-0.0902119
-0.0933045
-0.0963956
-0.0994856
-0.102575
-0.105663
-0.108751
0.219305
0.216748
0.214226
0.211743
0.209307
0.206941
0.20466
0.202468
0.200362
0.198331
0.196369
0.194463
0.192605
0.190785
0.188991
0.187213
0.185442
0.183666
0.181872
0.180052
0.178196
0.176297
0.174349
0.172349
0.170291
0.168172
0.165991
0.163745
0.161436
0.159073
0.156662
0.154209
0.151722
0.149205
0.146655
0.144067
0.141441
0.138774
0.136067
0.133321
0.130537
0.127716
0.124865
0.121987
0.119089
0.11618
0.113269
0.110364
0.107467
0.104582
0.101708
0.0988459
0.0959942
0.0931548
0.0903302
0.0875201
0.0847245
0.081942
0.0791717
0.0764116
0.073661
0.0709195
0.0681798
0.0654404
0.0626956
0.0599349
0.0571608
0.0543495
0.0515031
0.0486059
0.0456506
0.042628
0.039528
0.0363456
0.0330806
0.0297334
0.0263078
0.0228142
0.0192724
0.0157179
0.0122146
0.00890859
0.00574118
0.00264939
-0.000408548
-0.00345597
-0.00650503
-0.0095617
-0.0126285
-0.0157058
-0.018793
-0.0218887
-0.0249913
-0.0280994
-0.0312114
-0.0343261
-0.0374424
-0.0405595
-0.0436766
-0.046793
-0.0499084
-0.0530223
-0.0561345
-0.0592447
-0.0623528
-0.0654587
-0.0685623
-0.0716638
-0.0747631
-0.0778604
-0.0809557
-0.0840491
-0.087141
-0.0902313
-0.0933203
-0.0964082
-0.0994952
-0.102582
-0.105667
-0.108753
0.219267
0.216636
0.214049
0.211504
0.209001
0.206563
0.20421
0.201953
0.199793
0.197724
0.195737
0.193822
0.191967
0.19016
0.188394
0.186652
0.184918
0.183175
0.181405
0.179593
0.177727
0.175801
0.173813
0.171766
0.169658
0.16749
0.165262
0.162975
0.160632
0.158242
0.155813
0.153356
0.150878
0.148386
0.145875
0.143336
0.140758
0.138136
0.135465
0.132744
0.129975
0.127162
0.124311
0.121428
0.118521
0.115598
0.112672
0.109753
0.106842
0.103941
0.101043
0.0981496
0.0952592
0.0923746
0.0894987
0.086632
0.0837746
0.0809274
0.0780925
0.075272
0.0724697
0.0696892
0.0669252
0.0641739
0.0614281
0.0586757
0.0559171
0.053129
0.0503044
0.0474271
0.044485
0.0414666
0.0383609
0.0351615
0.0318663
0.0284758
0.0249919
0.021421
0.0177823
0.0141251
0.0105717
0.00741832
0.00445245
0.00154764
-0.0013514
-0.00426605
-0.00720377
-0.0101663
-0.0131531
-0.0161623
-0.0191911
-0.0222367
-0.0252963
-0.0283671
-0.0314467
-0.0345332
-0.0376248
-0.0407202
-0.0438182
-0.0469179
-0.0500185
-0.0531194
-0.05622
-0.0593199
-0.0624189
-0.0655167
-0.0686132
-0.0717083
-0.0748019
-0.077894
-0.0809846
-0.084074
-0.087162
-0.0902489
-0.0933347
-0.0964197
-0.0995039
-0.102588
-0.105671
-0.108754
0.219219
0.216505
0.21385
0.211243
0.208677
0.206174
0.203758
0.201449
0.19925
0.197163
0.195177
0.193281
0.191461
0.189696
0.187974
0.18628