/*--------------------------------*- C++ -*----------------------------------*\
  =========                 |
  \\      /  F ield         | OpenFOAM: The Open Source CFD Toolbox
   \\    /   O peration     | Website:  https://openfoam.org
    \\  /    A nd           | Version:  6
     \\/     M anipulation  |
\*---------------------------------------------------------------------------*/
FoamFile
{
    version     2.0;
    format      ascii;
    class       volScalarField;
    location    "200";
    object      T;
}
// * * * * * * * * * * * * * * * * * * * * * * * * * * * * * * * * * * * * * //

dimensions      [0 0 0 1 0 0 0];

internalField   nonuniform List<scalar> 
4800
(
552.536
552.506
552.477
552.446
552.414
552.38
552.344
552.306
552.266
552.224
552.18
552.134
552.086
552.036
551.985
551.932
551.878
551.822
551.764
551.705
551.645
551.583
551.52
551.456
551.391
551.326
551.26
551.193
551.126
551.058
550.989
550.92
550.85
550.779
550.708
550.635
550.563
550.489
550.415
550.341
550.267
550.192
550.118
550.044
549.97
549.898
549.826
549.755
549.685
549.616
549.549
549.484
549.419
549.355
549.293
549.231
549.17
549.108
549.046
548.983
548.918
548.851
548.78
548.704
548.621
548.53
548.429
548.316
548.187
548.042
547.876
547.686
547.471
547.228
546.957
546.655
546.325
545.968
545.589
545.192
544.783
544.761
544.728
544.681
544.621
544.549
544.466
544.373
544.272
544.164
544.052
543.935
543.815
543.693
543.569
543.445
543.321
543.196
543.072
542.949
542.826
542.704
542.583
542.463
542.343
542.224
542.106
541.989
541.872
541.755
541.639
541.523
541.408
541.293
541.178
541.064
540.949
540.835
540.721
540.607
552.535
552.505
552.474
552.443
552.41
552.375
552.338
552.3
552.259
552.217
552.172
552.126
552.077
552.027
551.976
551.922
551.868
551.811
551.753
551.694
551.633
551.571
551.508
551.444
551.379
551.313
551.246
551.179
551.111
551.043
550.974
550.904
550.834
550.763
550.691
550.619
550.546
550.472
550.399
550.324
550.25
550.175
550.101
550.027
549.953
549.88
549.808
549.736
549.667
549.597
549.53
549.464
549.399
549.335
549.272
549.21
549.149
549.087
549.025
548.961
548.897
548.829
548.758
548.682
548.599
548.508
548.407
548.294
548.166
548.021
547.855
547.667
547.454
547.213
546.945
546.648
546.323
545.972
545.596
545.198
544.788
544.77
544.738
544.691
544.629
544.555
544.47
544.376
544.274
544.166
544.052
543.935
543.815
543.693
543.569
543.445
543.32
543.196
543.072
542.948
542.826
542.704
542.583
542.462
542.343
542.224
542.106
541.988
541.871
541.755
541.639
541.523
541.408
541.293
541.178
541.064
540.949
540.835
540.721
540.607
552.534
552.503
552.47
552.437
552.402
552.366
552.328
552.288
552.247
552.203
552.158
552.11
552.061
552.011
551.958
551.904
551.848
551.791
551.733
551.673
551.611
551.549
551.485
551.42
551.355
551.288
551.221
551.153
551.084
551.015
550.946
550.876
550.805
550.734
550.662
550.589
550.516
550.442
550.368
550.293
550.218
550.143
550.069
549.994
549.92
549.847
549.774
549.702
549.632
549.562
549.494
549.428
549.362
549.297
549.234
549.172
549.109
549.047
548.985
548.921
548.856
548.789
548.718
548.642
548.559
548.469
548.367
548.254
548.127
547.982
547.818
547.631
547.421
547.185
546.922
546.631
546.314
545.969
545.601
545.21
544.8
544.791
544.76
544.71
544.645
544.567
544.479
544.382
544.278
544.168
544.053
543.935
543.815
543.692
543.568
543.444
543.319
543.195
543.071
542.947
542.825
542.703
542.582
542.462
542.342
542.223
542.105
541.988
541.871
541.755
541.639
541.523
541.408
541.293
541.178
541.064
540.949
540.835
540.721
540.607
552.533
552.499
552.464
552.429
552.392
552.354
552.315
552.273
552.23
552.185
552.139
552.09
552.04
551.988
551.935
551.88
551.823
551.765
551.705
551.645
551.582
551.519
551.455
551.389
551.323
551.256
551.188
551.119
551.049
550.98
550.909
550.838
550.767
550.695
550.623
550.549
550.476
550.402
550.327
550.252
550.177
550.102
550.026
549.951
549.877
549.803
549.729
549.657
549.586
549.515
549.445
549.378
549.311
549.245
549.181
549.117
549.054
548.991
548.928
548.864
548.799
548.732
548.661
548.585
548.503
548.413
548.312
548.2
548.073
547.929
547.767
547.583
547.377
547.146
546.889
546.607
546.3
545.97
545.617
545.239
544.828
544.831
544.798
544.741
544.668
544.584
544.491
544.39
544.283
544.171
544.055
543.936
543.814
543.691
543.567
543.442
543.318
543.193
543.069
542.946
542.823
542.702
542.581
542.461
542.341
542.223
542.105
541.987
541.87
541.754
541.638
541.523
541.407
541.293
541.178
541.063
540.949
540.835
540.721
540.607
552.532
552.495
552.458
552.42
552.381
552.341
552.3
552.256
552.212
552.165
552.117
552.068
552.016
551.963
551.908
551.852
551.794
551.735
551.674
551.613
551.55
551.485
551.42
551.354
551.287
551.219
551.15
551.08
551.01
550.939
550.868
550.796
550.724
550.652
550.579
550.505
550.431
550.356
550.281
550.206
550.13
550.054
549.978
549.902
549.826
549.751
549.676
549.602
549.53
549.457
549.386
549.316
549.248
549.181
549.114
549.05
548.986
548.921
548.857
548.793
548.727
548.66
548.589
548.514
548.432
548.342
548.242
548.13
548.005
547.863
547.703
547.523
547.321
547.097
546.85
546.579
546.288
545.978
545.651
545.302
544.905
544.907
544.856
544.783
544.698
544.605
544.505
544.4
544.289
544.174
544.056
543.936
543.813
543.689
543.565
543.44
543.315
543.191
543.067
542.944
542.822
542.7
542.579
542.459
542.34
542.222
542.104
541.986
541.87
541.753
541.638
541.522
541.407
541.292
541.178
541.063
540.949
540.835
540.721
540.607
552.53
552.491
552.451
552.41
552.369
552.327
552.284
552.239
552.192
552.144
552.095
552.043
551.99
551.936
551.88
551.823
551.764
551.704
551.642
551.579
551.515
551.45
551.384
551.317
551.249
551.18
551.11
551.04
550.969
550.897
550.826
550.753
550.68
550.607
550.533
550.459
550.384
550.309
550.233
550.156
550.08
550.002
549.925
549.847
549.77
549.693
549.617
549.541
549.465
549.391
549.317
549.245
549.175
549.105
549.037
548.971
548.905
548.84
548.774
548.709
548.642
548.574
548.504
548.429
548.347
548.258
548.159
548.048
547.925
547.785
547.628
547.452
547.257
547.041
546.806
546.551
546.28
545.995
545.703
545.415
545.162
545.034
544.932
544.833
544.733
544.629
544.521
544.41
544.295
544.177
544.057
543.935
543.812
543.687
543.562
543.437
543.313
543.188
543.065
542.942
542.82
542.698
542.578
542.458
542.339
542.22
542.103
541.985
541.869
541.753
541.637
541.522
541.407
541.292
541.177
541.063
540.949
540.835
540.721
540.607
552.529
552.486
552.444
552.401
552.357
552.313
552.268
552.221
552.173
552.123
552.072
552.019
551.965
551.91
551.853
551.794
551.735
551.673
551.611
551.547
551.482
551.416
551.349
551.281
551.212
551.142
551.071
551
550.928
550.856
550.783
550.71
550.636
550.562
550.487
550.412
550.336
550.26
550.183
550.105
550.027
549.948
549.869
549.789
549.709
549.63
549.552
549.474
549.396
549.319
549.242
549.167
549.094
549.022
548.952
548.883
548.816
548.749
548.682
548.615
548.547
548.479
548.408
548.333
548.252
548.164
548.065
547.956
547.834
547.698
547.545
547.374
547.186
546.98
546.756
546.517
546.266
546.007
545.748
545.502
545.291
545.132
545
544.881
544.766
544.652
544.536
544.419
544.301
544.18
544.058
543.934
543.809
543.684
543.559
543.434
543.31
543.185
543.062
542.939
542.817
542.696
542.576
542.456
542.337
542.219
542.101
541.984
541.868
541.752
541.636
541.521
541.406
541.291
541.177
541.063
540.949
540.835
540.721
540.607
552.527
552.482
552.437
552.391
552.345
552.299
552.252
552.204
552.154
552.103
552.05
551.996
551.941
551.884
551.826
551.767
551.706
551.644
551.581
551.516
551.45
551.383
551.315
551.246
551.176
551.105
551.033
550.961
550.888
550.815
550.741
550.667
550.592
550.517
550.441
550.364
550.287
550.21
550.131
550.052
549.973
549.892
549.811
549.729
549.647
549.565
549.483
549.402
549.322
549.242
549.163
549.085
549.008
548.934
548.861
548.79
548.721
548.652
548.583
548.514
548.445
548.375
548.304
548.229
548.149
548.06
547.963
547.855
547.736
547.602
547.454
547.289
547.108
546.911
546.7
546.477
546.245
546.009
545.777
545.558
545.364
545.198
545.053
544.92
544.794
544.671
544.549
544.427
544.304
544.181
544.057
543.932
543.806
543.681
543.555
543.43
543.306
543.182
543.058
542.936
542.814
542.693
542.573
542.454
542.335
542.217
542.1
541.983
541.867
541.751
541.635
541.52
541.405
541.291
541.176
541.062
540.948
540.834
540.721
540.607
552.526
552.478
552.43
552.382
552.334
552.286
552.237
552.187
552.136
552.083
552.029
551.974
551.918
551.86
551.8
551.74
551.678
551.615
551.551
551.485
551.418
551.35
551.281
551.211
551.14
551.068
550.996
550.922
550.848
550.774
550.699
550.624
550.548
550.472
550.395
550.317
550.239
550.16
550.08
549.999
549.918
549.835
549.752
549.668
549.584
549.499
549.414
549.33
549.246
549.163
549.081
549
548.921
548.843
548.767
548.694
548.622
548.551
548.48
548.409
548.338
548.267
548.194
548.119
548.039
547.951
547.855
547.749
547.632
547.501
547.357
547.199
547.026
546.84
546.642
546.434
546.219
546.003
545.792
545.591
545.407
545.241
545.089
544.949
544.815
544.685
544.558
544.432
544.306
544.18
544.054
543.928
543.802
543.676
543.551
543.426
543.301
543.177
543.054
542.932
542.811
542.69
542.57
542.451
542.333
542.215
542.098
541.981
541.865
541.75
541.634
541.519
541.405
541.29
541.176
541.062
540.948
540.834
540.72
540.607
552.524
552.473
552.423
552.372
552.322
552.272
552.222
552.17
552.118
552.064
552.009
551.952
551.895
551.836
551.775
551.714
551.651
551.587
551.522
551.455
551.387
551.318
551.248
551.177
551.105
551.032
550.958
550.884
550.809
550.734
550.658
550.581
550.505
550.427
550.349
550.27
550.19
550.11
550.028
549.946
549.863
549.778
549.693
549.606
549.52
549.432
549.345
549.258
549.171
549.085
549
548.916
548.833
548.752
548.673
548.597
548.522
548.449
548.376
548.303
548.23
548.156
548.081
548.005
547.924
547.837
547.741
547.637
547.523
547.397
547.258
547.106
546.942
546.766
546.58
546.387
546.188
545.989
545.793
545.605
545.429
545.265
545.111
544.966
544.828
544.694
544.563
544.434
544.305
544.178
544.051
543.924
543.797
543.671
543.545
543.42
543.296
543.173
543.05
542.928
542.807
542.687
542.567
542.449
542.331
542.213
542.096
541.98
541.864
541.748
541.633
541.518
541.404
541.289
541.175
541.061
540.948
540.834
540.72
540.607
552.523
552.469
552.416
552.363
552.311
552.259
552.206
552.154
552.1
552.045
551.988
551.931
551.872
551.812
551.75
551.688
551.624
551.559
551.493
551.425
551.356
551.286
551.215
551.143
551.07
550.996
550.921
550.846
550.77
550.694
550.617
550.54
550.462
550.383
550.304
550.224
550.143
550.061
549.978
549.894
549.808
549.722
549.634
549.546
549.456
549.366
549.276
549.186
549.096
549.007
548.919
548.833
548.747
548.663
548.581
548.501
548.423
548.347
548.272
548.197
548.122
548.047
547.97
547.891
547.809
547.722
547.627
547.524
547.412
547.29
547.157
547.012
546.856
546.69
546.516
546.336
546.152
545.967
545.784
545.606
545.436
545.274
545.121
544.974
544.834
544.697
544.563
544.432
544.302
544.173
544.045
543.917
543.791
543.665
543.539
543.414
543.291
543.167
543.045
542.924
542.803
542.683
542.564
542.446
542.328
542.211
542.094
541.978
541.862
541.747
541.632
541.517
541.403
541.289
541.175
541.061
540.947
540.834
540.72
540.607
552.522
552.465
552.409
552.354
552.299
552.245
552.191
552.137
552.081
552.025
551.968
551.909
551.849
551.788
551.725
551.662
551.597
551.531
551.464
551.396
551.326
551.255
551.183
551.11
551.036
550.961
550.886
550.809
550.733
550.655
550.577
550.499
550.42
550.341
550.26
550.179
550.096
550.013
549.928
549.842
549.755
549.667
549.577
549.487
549.395
549.303
549.21
549.117
549.025
548.933
548.842
548.752
548.664
548.577
548.492
548.409
548.328
548.249
548.171
548.094
548.017
547.94
547.861
547.78
547.697
547.609
547.515
547.413
547.303
547.185
547.056
546.918
546.771
546.615
546.451
546.283
546.111
545.937
545.765
545.596
545.431
545.272
545.12
544.974
544.832
544.694
544.559
544.427
544.296
544.166
544.038
543.91
543.783
543.657
543.532
543.408
543.284
543.162
543.04
542.919
542.799
542.68
542.561
542.443
542.325
542.208
542.092
541.976
541.861
541.745
541.631
541.516
541.402
541.288
541.174
541.06
540.947
540.833
540.72
540.607
552.52
552.461
552.402
552.344
552.287
552.231
552.175
552.119
552.062
552.005
551.946
551.887
551.826
551.764
551.7
551.636
551.57
551.504
551.436
551.367
551.296
551.225
551.152
551.078
551.003
550.927
550.851
550.773
550.696
550.618
550.539
550.46
550.38
550.299
550.217
550.135
550.051
549.966
549.88
549.793
549.704
549.614
549.522
549.43
549.336
549.241
549.147
549.052
548.957
548.862
548.769
548.676
548.585
548.496
548.408
548.322
548.238
548.155
548.075
547.995
547.916
547.836
547.755
547.673
547.588
547.5
547.406
547.305
547.198
547.082
546.959
546.827
546.687
546.54
546.386
546.228
546.066
545.902
545.739
545.577
545.417
545.262
545.111
544.966
544.824
544.686
544.551
544.418
544.287
544.157
544.028
543.901
543.775
543.649
543.524
543.401
543.278
543.156
543.034
542.914
542.794
542.675
542.557
542.439
542.322
542.206
542.09
541.974
541.859
541.744
541.629
541.515
541.401
541.287
541.173
541.06
540.946
540.833
540.72
540.607
552.519
552.456
552.395
552.334
552.275
552.216
552.158
552.101
552.042
551.984
551.924
551.864
551.802
551.739
551.675
551.61
551.544
551.476
551.408
551.338
551.267
551.195
551.121
551.047
550.971
550.895
550.817
550.739
550.66
550.581
550.501
550.421
550.34
550.259
550.176
550.092
550.008
549.921
549.834
549.745
549.655
549.563
549.47
549.376
549.28
549.184
549.087
548.99
548.892
548.796
548.7
548.605
548.512
548.42
548.329
548.241
548.153
548.068
547.985
547.902
547.82
547.738
547.655
547.572
547.485
547.396
547.302
547.202
547.097
546.985
546.865
546.739
546.606
546.466
546.321
546.171
546.018
545.863
545.707
545.551
545.395
545.244
545.096
544.952
544.812
544.674
544.539
544.406
544.275
544.146
544.018
543.891
543.765
543.64
543.516
543.393
543.271
543.149
543.029
542.909
542.79
542.671
542.553
542.436
542.319
542.203
542.087
541.972
541.857
541.742
541.628
541.514
541.4
541.286
541.173
541.059
540.946
540.833
540.72
540.607
552.517
552.451
552.387
552.324
552.262
552.201
552.141
552.082
552.022
551.962
551.901
551.84
551.778
551.714
551.649
551.584
551.517
551.449
551.38
551.31
551.238
551.165
551.092
551.017
550.94
550.863
550.785
550.706
550.626
550.546
550.466
550.385
550.303
550.22
550.137
550.052
549.966
549.878
549.789
549.699
549.607
549.514
549.42
549.324
549.227
549.129
549.03
548.931
548.832
548.734
548.636
548.539
548.444
548.349
548.257
548.165
548.076
547.988
547.901
547.816
547.732
547.647
547.562
547.477
547.389
547.299
547.204
547.106
547.002
546.893
546.777
546.655
546.528
546.395
546.256
546.114
545.968
545.82
545.67
545.52
545.368
545.22
545.075
544.933
544.794
544.658
544.524
544.392
544.262
544.133
544.006
543.879
543.754
543.63
543.507
543.385
543.263
543.142
543.022
542.903
542.785
542.667
542.549
542.433
542.316
542.2
542.085
541.97
541.855
541.741
541.626
541.513
541.399
541.285
541.172
541.059
540.946
540.832
540.719
540.606
552.515
552.447
552.379
552.313
552.249
552.185
552.123
552.062
552
551.939
551.877
551.815
551.752
551.688
551.623
551.557
551.49
551.422
551.352
551.282
551.21
551.137
551.063
550.988
550.911
550.833
550.754
550.675
550.594
550.513
550.432
550.35
550.268
550.184
550.099
550.013
549.926
549.837
549.747
549.655
549.562
549.468
549.372
549.274
549.176
549.077
548.977
548.877
548.777
548.677
548.577
548.478
548.381
548.285
548.19
548.096
548.004
547.914
547.825
547.737
547.651
547.564
547.477
547.39
547.3
547.209
547.115
547.017
546.914
546.807
546.694
546.577
546.454
546.326
546.193
546.057
545.917
545.774
545.63
545.484
545.337
545.192
545.05
544.911
544.774
544.639
544.506
544.376
544.246
544.119
543.992
543.867
543.743
543.62
543.498
543.376
543.255
543.135
543.016
542.898
542.78
542.662
542.545
542.429
542.313
542.198
542.082
541.968
541.853
541.739
541.625
541.511
541.398
541.284
541.171
541.058
540.945
540.832
540.719
540.606
552.514
552.442
552.371
552.302
552.235
552.169
552.105
552.041
551.978
551.916
551.853
551.79
551.726
551.662
551.596
551.53
551.463
551.394
551.325
551.254
551.182
551.109
551.035
550.96
550.883
550.805
550.726
550.645
550.564
550.483
550.401
550.318
550.234
550.15
550.064
549.977
549.889
549.799
549.707
549.614
549.52
549.424
549.327
549.228
549.129
549.028
548.927
548.826
548.724
548.623
548.522
548.422
548.323
548.225
548.129
548.034
547.94
547.847
547.756
547.666
547.577
547.489
547.4
547.311
547.22
547.128
547.033
546.935
546.833
546.728
546.617
546.503
546.383
546.259
546.131
546
545.865
545.727
545.587
545.446
545.302
545.161
545.022
544.885
544.75
544.617
544.486
544.357
544.23
544.103
543.978
543.854
543.731
543.609
543.488
543.367
543.247
543.128
543.01
542.892
542.774
542.658
542.541
542.425
542.31
542.195
542.08
541.965
541.851
541.737
541.624
541.51
541.397
541.283
541.17
541.057
540.945
540.832
540.719
540.606
552.512
552.437
552.363
552.291
552.221
552.152
552.086
552.02
551.956
551.891
551.827
551.764
551.699
551.634
551.569
551.502
551.435
551.367
551.298
551.227
551.156
551.083
551.009
550.933
550.857
550.779
550.699
550.619
550.537
550.455
550.372
550.288
550.204
550.118
550.031
549.943
549.854
549.762
549.67
549.575
549.48
549.382
549.284
549.184
549.084
548.982
548.88
548.778
548.675
548.573
548.471
548.37
548.27
548.171
548.073
547.976
547.881
547.787
547.694
547.602
547.511
547.421
547.33
547.239
547.147
547.054
546.958
546.86
546.759
546.654
546.546
546.433
546.317
546.196
546.071
545.943
545.812
545.679
545.543
545.405
545.265
545.127
544.99
544.856
544.724
544.593
544.465
544.337
544.211
544.087
543.963
543.841
543.719
543.598
543.478
543.358
543.239
543.121
543.003
542.886
542.769
542.653
542.537
542.422
542.307
542.192
542.077
541.963
541.849
541.736
541.622
541.509
541.396
541.283
541.17
541.057
540.944
540.831
540.719
540.606
552.511
552.432
552.355
552.28
552.207
552.135
552.066
551.999
551.932
551.866
551.801
551.737
551.672
551.607
551.541
551.475
551.407
551.339
551.27
551.2
551.129
551.057
550.983
550.908
550.832
550.754
550.675
550.594
550.512
550.429
550.346
550.261
550.176
550.089
550.001
549.912
549.821
549.728
549.634
549.539
549.442
549.343
549.244
549.143
549.041
548.939
548.836
548.733
548.63
548.526
548.424
548.322
548.221
548.121
548.022
547.924
547.827
547.732
547.638
547.544
547.452
547.359
547.267
547.175
547.082
546.987
546.891
546.792
546.691
546.587
546.479
546.368
546.253
546.135
546.013
545.888
545.76
545.63
545.497
545.362
545.225
545.09
544.957
544.825
544.696
544.568
544.441
544.316
544.192
544.069
543.948
543.826
543.706
543.586
543.467
543.349
543.231
543.113
542.997
542.88
542.764
542.648
542.533
542.418
542.303
542.189
542.075
541.961
541.847
541.734
541.621
541.507
541.395
541.282
541.169
541.056
540.944
540.831
540.719
540.606
552.509
552.428
552.348
552.269
552.193
552.118
552.046
551.977
551.908
551.841
551.775
551.709
551.644
551.578
551.512
551.446
551.379
551.312
551.243
551.174
551.103
551.032
550.959
550.885
550.809
550.731
550.652
550.572
550.49
550.407
550.322
550.237
550.15
550.062
549.973
549.882
549.79
549.696
549.601
549.504
549.406
549.306
549.206
549.104
549.001
548.898
548.795
548.691
548.587
548.483
548.38
548.277
548.175
548.074
547.975
547.876
547.778
547.682
547.586
547.492
547.398
547.304
547.21
547.116
547.022
546.926
546.829
546.73
546.628
546.524
546.417
546.307
546.193
546.077
545.957
545.834
545.708
545.58
545.45
545.318
545.184
545.052
544.921
544.793
544.666
544.541
544.417
544.294
544.173
544.052
543.932
543.812
543.693
543.575
543.457
543.34
543.223
543.106
542.99
542.874
542.759
542.644
542.529
542.414
542.3
542.186
542.072
541.959
541.845
541.732
541.619
541.506
541.393
541.281
541.168
541.056
540.943
540.831
540.718
540.606
552.507
552.423
552.34
552.258
552.179
552.102
552.027
551.955
551.884
551.816
551.748
551.682
551.616
551.55
551.484
551.418
551.352
551.285
551.217
551.148
551.078
551.008
550.936
550.862
550.787
550.71
550.632
550.551
550.469
550.385
550.3
550.213
550.126
550.037
549.946
549.854
549.761
549.666
549.569
549.471
549.372
549.272
549.17
549.067
548.964
548.86
548.755
548.651
548.547
548.442
548.339
548.236
548.134
548.032
547.932
547.832
547.734
547.636
547.54
547.444
547.349
547.254
547.159
547.063
546.967
546.87
546.772
546.672
546.57
546.466
546.359
546.249
546.136
546.021
545.902
545.781
545.656
545.53
545.402
545.272
545.14
545.011
544.884
544.759
544.635
544.513
544.392
544.272
544.152
544.034
543.915
543.798
543.68
543.563
543.447
543.331
543.215
543.099
542.984
542.869
542.754
542.639
542.525
542.411
542.297
542.183
542.07
541.957
541.844
541.731
541.618
541.505
541.392
541.28
541.167
541.055
540.943
540.831
540.718
540.606
552.506
552.419
552.332
552.248
552.165
552.085
552.008
551.933
551.861
551.791
551.722
551.655
551.588
551.522
551.456
551.391
551.325
551.258
551.191
551.123
551.055
550.985
550.914
550.841
550.766
550.69
550.612
550.531
550.449
550.365
550.279
550.191
550.102
550.012
549.92
549.827
549.733
549.637
549.539
549.44
549.34
549.239
549.136
549.033
548.929
548.824
548.719
548.614
548.51
548.405
548.301
548.198
548.096
547.994
547.893
547.793
547.694
547.595
547.498
547.4
547.304
547.207
547.111
547.014
546.917
546.819
546.719
546.618
546.516
546.411
546.304
546.195
546.082
545.967
545.849
545.728
545.605
545.479
545.352
545.224
545.094
544.968
544.844
544.723
544.603
544.484
544.366
544.249
544.132
544.016
543.899
543.783
543.668
543.552
543.437
543.322
543.207
543.092
542.978
542.863
542.749
542.635
542.521
542.408
542.294
542.181
542.068
541.955
541.842
541.729
541.616
541.504
541.391
541.279
541.167
541.055
540.942
540.83
540.718
540.606
552.505
552.415
552.326
552.238
552.153
552.07
551.99
551.912
551.838
551.766
551.696
551.628
551.561
551.495
551.429
551.364
551.299
551.233
551.167
551.1
551.033
550.963
550.893
550.82
550.746
550.67
550.591
550.511
550.428
550.343
550.256
550.168
550.078
549.987
549.895
549.801
549.706
549.609
549.511
549.411
549.31
549.208
549.105
549.001
548.897
548.792
548.686
548.581
548.476
548.372
548.268
548.164
548.061
547.959
547.858
547.757
547.657
547.557
547.458
547.36
547.262
547.164
547.066
546.968
546.869
546.77
546.67
546.568
546.465
546.36
546.253
546.143
546.031
545.916
545.798
545.677
545.554
545.428
545.301
545.173
545.046
544.922
544.802
544.685
544.569
544.454
544.34
544.226
544.112
543.998
543.884
543.77
543.655
543.541
543.427
543.313
543.199
543.085
542.972
542.858
542.744
542.631
542.518
542.404
542.291
542.178
542.066
541.953
541.84
541.728
541.615
541.503
541.391
541.278
541.166
541.054
540.942
540.83
540.718
540.606
552.503
552.411
552.319
552.229
552.141
552.055
551.972
551.893
551.816
551.743
551.672
551.603
551.535
551.469
551.404
551.34
551.276
551.211
551.146
551.08
551.013
550.944
550.873
550.8
550.725
550.649
550.569
550.488
550.404
550.318
550.231
550.142
550.052
549.961
549.868
549.775
549.679
549.583
549.485
549.385
549.284
549.182
549.079
548.974
548.869
548.764
548.658
548.553
548.448
548.343
548.239
548.135
548.031
547.928
547.826
547.724
547.622
547.521
547.421
547.32
547.221
547.121
547.022
546.923
546.823
546.723
546.623
546.521
546.418
546.313
546.206
546.096
545.984
545.868
545.75
545.628
545.504
545.377
545.249
545.12
544.993
544.873
544.758
544.646
544.535
544.425
544.314
544.203
544.092
543.98
543.868
543.756
543.644
543.531
543.418
543.305
543.192
543.079
542.966
542.853
542.74
542.627
542.514
542.401
542.289
542.176
542.064
541.951
541.839
541.726
541.614
541.502
541.39
541.278
541.166
541.054
540.942
540.83
540.718
540.606
552.502
552.407
552.313
552.22
552.13
552.041
551.956
551.874
551.796
551.721
551.649
551.579
551.512
551.447
551.383
551.32
551.257
551.194
551.129
551.063
550.995
550.925
550.853
550.779
550.702
550.624
550.543
550.46
550.375
550.288
550.2
550.111
550.021
549.931
549.84
549.748
549.655
549.56
549.463
549.365
549.264
549.162
549.059
548.954
548.849
548.743
548.637
548.531
548.425
548.32
548.214
548.109
548.004
547.9
547.795
547.691
547.587
547.484
547.381
547.279
547.177
547.076
546.976
546.877
546.777
546.678
546.578
546.477
546.374
546.27
546.163
546.054
545.941
545.825
545.706
545.583
545.456
545.327
545.195
545.062
544.933
544.819
544.711
544.606
544.501
544.395
544.289
544.181
544.073
543.964
543.854
543.744
543.633
543.521
543.41
543.298
543.186
543.073
542.961
542.848
542.736
542.624
542.511
542.399
542.286
542.174
542.062
541.949
541.837
541.725
541.613
541.501
541.389
541.277
541.165
541.053
540.941
540.83
540.718
540.606
552.5
552.402
552.305
552.211
552.118
552.027
551.939
551.856
551.776
551.701
551.629
551.56
551.494
551.43
551.368
551.306
551.245
551.183
551.118
551.051
550.981
550.908
550.832
550.753
550.673
550.591
550.508
550.423
550.336
550.249
550.161
550.073
549.985
549.897
549.81
549.723
549.634
549.544
549.45
549.354
549.254
549.153
549.049
548.944
548.838
548.731
548.623
548.516
548.409
548.302
548.195
548.087
547.979
547.871
547.763
547.656
547.549
547.442
547.336
547.231
547.128
547.027
546.927
546.829
546.731
546.634
546.536
546.437
546.337
546.234
546.128
546.018
545.905
545.787
545.666
545.541
545.411
545.278
545.139
544.998
544.86
544.758
544.663
544.566
544.468
544.367
544.265
544.161
544.055
543.948
543.841
543.732
543.622
543.512
543.402
543.291
543.18
543.068
542.956
542.844
542.732
542.62
542.508
542.396
542.284
542.172
542.06
541.948
541.836
541.724
541.612
541.5
541.388
541.276
541.165
541.053
540.941
540.829
540.718
540.606
552.498
552.396
552.296
552.199
552.103
552.011
551.922
551.837
551.757
551.683
551.614
551.548
551.485
551.424
551.364
551.304
551.243
551.179
551.112
551.041
550.966
550.886
550.804
550.72
550.635
550.548
550.461
550.374
550.287
550.2
550.114
550.028
549.944
549.862
549.782
549.703
549.623
549.54
549.452
549.358
549.26
549.157
549.052
548.946
548.838
548.728
548.618
548.508
548.397
548.288
548.177
548.065
547.952
547.839
547.726
547.613
547.502
547.391
547.283
547.176
547.072
546.972
546.875
546.781
546.687
546.594
546.501
546.405
546.307
546.204
546.098
545.987
545.872
545.752
545.629
545.501
545.368
545.23
545.084
544.927
544.748
544.692
544.615
544.528
544.437
544.341
544.243
544.142
544.039
543.934
543.829
543.721
543.613
543.504
543.395
543.285
543.174
543.063
542.952
542.841
542.729
542.618
542.506
542.394
542.282
542.17
542.059
541.947
541.835
541.723
541.611
541.499
541.388
541.276
541.164
541.053
540.941
540.829
540.718
540.606
552.497
552.39
552.284
552.183
552.086
551.993
551.903
551.819
551.743
551.674
551.611
551.551
551.493
551.436
551.377
551.315
551.25
551.181
551.107
551.028
550.943
550.855
550.764
550.674
550.584
550.494
550.405
550.317
550.232
550.15
550.071
549.992
549.912
549.837
549.765
549.697
549.629
549.555
549.474
549.383
549.282
549.175
549.065
548.955
548.844
548.731
548.615
548.498
548.382
548.269
548.154
548.038
547.92
547.8
547.68
547.561
547.446
547.335
547.226
547.121
547.019
546.921
546.828
546.74
546.653
546.567
546.476
546.382
546.284
546.182
546.073
545.956
545.836
545.713
545.586
545.455
545.323
545.181
545.032
544.874
544.7
544.645
544.575
544.496
544.409
544.318
544.223
544.125
544.025
543.922
543.818
543.712
543.605
543.498
543.389
543.28
543.17
543.059
542.949
542.838
542.727
542.615
542.504
542.392
542.281
542.169
542.057
541.946
541.834
541.722
541.611
541.499
541.387
541.276
541.164
541.052
540.941
540.829
540.717
540.606
552.497
552.388
552.276
552.169
552.071
551.982
551.895
551.814
551.746
551.69
551.641
551.591
551.54
551.486
551.422
551.347
551.265
551.177
551.088
550.999
550.903
550.807
550.711
550.619
550.528
550.44
550.355
550.274
550.199
550.135
550.075
550.008
549.932
549.856
549.784
549.719
549.657
549.593
549.519
549.427
549.318
549.199
549.076
548.96
548.844
548.728
548.603
548.472
548.347
548.232
548.117
548.002
547.883
547.759
547.631
547.509
547.396
547.291
547.19
547.089
546.991
546.897
546.805
546.724
546.643
546.562
546.461
546.358
546.258
546.169
546.061
545.92
545.788
545.653
545.514
545.376
545.265
545.121
544.969
544.824
544.668
544.612
544.545
544.47
544.387
544.299
544.207
544.111
544.013
543.912
543.809
543.705
543.599
543.492
543.384
543.275
543.166
543.056
542.946
542.835
542.724
542.613
542.502
542.391
542.279
542.168
542.056
541.945
541.833
541.722
541.61
541.498
541.387
541.275
541.164
541.052
540.941
540.829
540.717
540.606
552.509
552.406
552.287
552.174
552.079
552
551.921
551.85
551.803
551.779
551.755
551.713
551.663
551.604
551.513
551.394
551.264
551.133
551.029
550.939
550.833
550.743
550.649
550.564
550.476
550.415
550.369
550.329
550.279
550.242
550.213
550.165
550.076
549.971
549.863
549.771
549.695
549.634
549.567
549.461
549.334
549.209
549.054
548.926
548.805
548.701
548.575
548.413
548.264
548.157
548.05
547.953
547.845
547.729
547.616
547.52
547.407
547.29
547.208
547.096
547.002
546.922
546.83
546.756
546.674
546.592
546.416
546.266
546.195
546.202
546.128
545.866
545.717
545.5
545.288
545.212
545.241
544.997
544.877
544.774
544.63
544.583
544.521
544.449
544.37
544.285
544.194
544.101
544.004
543.904
543.803
543.699
543.594
543.488
543.38
543.272
543.163
543.054
542.944
542.833
542.723
542.612
542.501
542.39
542.278
542.167
542.056
541.944
541.833
541.721
541.61
541.498
541.387
541.275
541.164
541.052
540.94
540.829
540.717
540.606
552.549
552.473
552.344
552.22
552.119
552.036
551.989
551.951
551.952
551.994
552.017
551.966
551.893
551.783
551.597
551.383
551.155
550.938
550.858
550.825
550.677
550.635
550.562
550.474
550.39
550.468
550.579
550.701
550.676
550.611
550.571
550.521
550.361
550.166
549.944
549.784
549.679
549.61
549.546
549.375
549.21
549.185
548.915
548.754
548.619
548.608
548.519
548.292
548.078
548.017
547.912
547.829
547.731
547.684
547.81
547.982
547.625
547.335
547.246
547.087
546.94
546.983
546.987
546.932
546.747
546.591
546.049
545.853
546.336
546.462
546.25
545.766
545.939
544.714
544.054
545.523
545.731
544.063
545.292
544.779
544.589
544.555
544.502
544.435
544.358
544.275
544.186
544.093
543.998
543.899
543.798
543.695
543.591
543.485
543.378
543.27
543.161
543.052
542.942
542.832
542.722
542.611
542.5
542.389
542.278
542.167
542.055
541.944
541.832
541.721
541.609
541.498
541.386
541.275