/*--------------------------------*- C++ -*----------------------------------*\
  =========                 |
  \\      /  F ield         | OpenFOAM: The Open Source CFD Toolbox
   \\    /   O peration     | Website:  https://openfoam.org
    \\  /    A nd           | Version:  6
     \\/     M anipulation  |
\*---------------------------------------------------------------------------*/
FoamFile
{
    version     2.0;
    format      ascii;
    class       volVectorField;
    location    "200";
    object      U;
}
// * * * * * * * * * * * * * * * * * * * * * * * * * * * * * * * * * * * * * //

dimensions      [0 1 -1 0 0 0 0];

internalField   nonuniform List<vector> 
4800
(
(-0.000645082 0 -0.000168898)
(0.000680097 0 -0.000425586)
(0.000849157 0 -0.000425344)
(0.00108434 0 -0.000185208)
(0.00119481 0 -0.000266644)
(0.00132551 0 -0.000216122)
(0.0014595 0 -0.000136399)
(0.0014918 0 -2.68324e-05)
(0.00148975 0 -9.71988e-06)
(0.00149133 0 -4.16349e-05)
(0.00147917 0 -7.10024e-05)
(0.00145499 0 -0.000116398)
(0.00143908 0 -0.000101663)
(0.00143314 0 -5.75174e-05)
(0.0014421 0 -3.41761e-05)
(0.00147458 0 -2.49342e-05)
(0.00150275 0 -4.27257e-05)
(0.00149534 0 -5.11613e-05)
(0.00145298 0 -0.000105212)
(0.00141111 0 -0.000131339)
(0.00139759 0 -0.000113293)
(0.00138842 0 -9.75719e-05)
(0.00138563 0 -9.77486e-05)
(0.00138197 0 -9.49378e-05)
(0.00137204 0 -7.48203e-05)
(0.00137394 0 -7.19734e-05)
(0.00139711 0 -3.47792e-05)
(0.00142824 0 -4.63917e-05)
(0.00145292 0 -5.89379e-05)
(0.00147739 0 -3.06183e-05)
(0.0014876 0 -8.11764e-05)
(0.00149377 0 -0.000114982)
(0.00151034 0 -0.000119697)
(0.00153106 0 -9.03425e-05)
(0.00153239 0 -8.189e-05)
(0.00153037 0 -7.48976e-05)
(0.00152527 0 -6.58965e-05)
(0.00151583 0 -5.95148e-05)
(0.00150256 0 -5.89099e-05)
(0.0014897 0 -5.0241e-05)
(0.0014795 0 -1.95769e-05)
(0.00146716 0 3.67304e-06)
(0.00144513 0 -1.9869e-06)
(0.00142978 0 -1.92649e-05)
(0.00143339 0 -1.99522e-05)
(0.00144693 0 -2.29774e-05)
(0.00146644 0 -2.00174e-05)
(0.0014868 0 -6.00281e-05)
(0.00153066 0 -4.88678e-05)
(0.00158002 0 -3.11486e-06)
(0.00162256 0 -9.56167e-05)
(0.00172501 0 -5.57038e-05)
(0.00186763 0 -1.7419e-05)
(0.00186825 0 -8.30039e-05)
(0.0018812 0 -5.34199e-05)
(0.00193773 0 -9.78606e-05)
(0.00205585 0 -1.7241e-05)
(0.00217729 0 -4.42549e-06)
(0.00217675 0 -9.50104e-05)
(0.00218204 0 -8.84415e-05)
(0.00219972 0 -7.81496e-05)
(0.00222605 0 -0.000124054)
(0.00226551 0 -6.6742e-05)
(0.00226261 0 -4.12484e-05)
(0.00224123 0 -2.26233e-05)
(0.00220103 0 3.60882e-06)
(0.0021455 0 1.17823e-05)
(0.0020617 0 2.92802e-05)
(0.00194925 0 2.08275e-05)
(0.00183433 0 7.7118e-05)
(0.00171682 0 0.000107795)
(0.00156725 0 5.91835e-05)
(0.00136492 0 0.000142249)
(0.0011504 0 7.01783e-05)
(0.000969391 0 8.13444e-05)
(0.000819625 0 0.000144772)
(0.000541639 0 0.00023599)
(0.000220962 0 0.000129246)
(0.000190899 0 -5.35868e-05)
(7.59381e-08 0 6.22942e-05)
(5.74008e-13 0 4.00066e-14)
(1.08191e-12 0 1.42976e-13)
(8.57972e-13 0 1.20566e-13)
(6.48814e-13 0 8.7159e-14)
(5.00596e-13 0 6.07646e-14)
(3.98022e-13 0 4.15287e-14)
(3.28362e-13 0 2.76425e-14)
(2.8258e-13 0 1.7506e-14)
(2.54304e-13 0 1.00798e-14)
(2.38823e-13 0 4.6748e-15)
(2.32546e-13 0 8.20191e-16)
(2.32686e-13 0 -1.82139e-15)
(2.37053e-13 0 -3.5054e-15)
(2.43914e-13 0 -4.43289e-15)
(2.51906e-13 0 -4.76503e-15)
(2.59967e-13 0 -4.63394e-15)
(2.67298e-13 0 -4.15038e-15)
(2.7332e-13 0 -3.40719e-15)
(2.77636e-13 0 -2.48033e-15)
(2.80004e-13 0 -1.4325e-15)
(2.80303e-13 0 -3.1741e-16)
(2.78507e-13 0 8.18723e-16)
(2.7465e-13 0 1.93816e-15)
(2.68798e-13 0 3.01325e-15)
(2.61048e-13 0 4.02553e-15)
(2.51516e-13 0 4.96336e-15)
(2.40337e-13 0 5.81978e-15)
(2.27653e-13 0 6.59141e-15)
(2.13611e-13 0 7.27861e-15)
(1.98359e-13 0 7.88489e-15)
(1.82049e-13 0 8.41643e-15)
(1.64837e-13 0 8.88004e-15)
(1.46881e-13 0 9.28198e-15)
(1.28332e-13 0 9.62688e-15)
(1.09325e-13 0 9.91827e-15)
(8.99734e-14 0 1.01592e-14)
(7.03635e-14 0 1.03541e-14)
(5.05528e-14 0 1.05124e-14)
(3.05519e-14 0 1.06608e-14)
(1.02508e-14 0 1.08889e-14)
(0.00039049 0 -0.000347355)
(-0.000183448 0 -0.000796151)
(0.000721896 0 -0.000559573)
(0.000917353 0 -0.000344329)
(0.00102932 0 -0.000226334)
(0.00114051 0 -5.75441e-05)
(0.00119532 0 -0.000111988)
(0.00121465 0 -0.000176094)
(0.0012541 0 -9.27947e-05)
(0.00129942 0 2.26357e-05)
(0.00131577 0 9.22846e-05)
(0.00131054 0 0.000103726)
(0.00128622 0 0.000104542)
(0.00124161 0 3.35815e-05)
(0.00122753 0 -3.51172e-05)
(0.00123633 0 -5.01397e-05)
(0.00127398 0 -4.60202e-07)
(0.0012892 0 0.000100615)
(0.00128375 0 0.000119214)
(0.00127079 0 0.000141495)
(0.00124605 0 0.000119331)
(0.00121876 0 6.32518e-05)
(0.00120948 0 9.66837e-05)
(0.00120306 0 9.03197e-05)
(0.00119143 0 7.91945e-05)
(0.00118734 0 1.25973e-05)
(0.00118995 0 2.35159e-06)
(0.00119308 0 -2.49706e-05)
(0.00120393 0 -2.73756e-05)
(0.00122609 0 -2.32891e-05)
(0.00125342 0 1.75137e-05)
(0.00126279 0 5.79802e-05)
(0.00125978 0 6.56623e-05)
(0.00124514 0 5.56571e-05)
(0.00123331 0 6.65658e-05)
(0.00123172 0 6.75722e-05)
(0.00122944 0 6.74401e-05)
(0.00122667 0 6.77552e-05)
(0.00122033 0 7.09311e-05)
(0.00120789 0 6.55463e-05)
(0.00119443 0 4.92678e-05)
(0.00119347 0 3.48194e-05)
(0.0011973 0 4.57591e-05)
(0.00121049 0 -1.57951e-05)
(0.00121936 0 6.4676e-06)
(0.00121367 0 1.06867e-05)
(0.00121497 0 4.7899e-06)
(0.00122088 0 -5.43356e-05)
(0.00127919 0 0.000136164)
(0.00128932 0 -5.85826e-05)
(0.00130651 0 -0.000178551)
(0.00143215 0 0.000235277)
(0.00156058 0 -3.15201e-05)
(0.00155776 0 -0.000153667)
(0.00157873 0 -0.000127198)
(0.00163831 0 -0.000109179)
(0.00172848 0 3.81329e-05)
(0.0018065 0 -8.25016e-05)
(0.00186447 0 -0.000142997)
(0.00190098 0 -2.82765e-05)
(0.00192874 0 -4.58698e-05)
(0.00198151 0 -6.69847e-06)
(0.00199276 0 3.00723e-05)
(0.00197367 0 4.72884e-05)
(0.00193669 0 6.1075e-05)
(0.00188442 0 6.53407e-05)
(0.00183034 0 0.000137767)
(0.00178307 0 0.000113582)
(0.00171486 0 0.000101268)
(0.00162454 0 0.000159904)
(0.00152202 0 0.000227135)
(0.00140996 0 0.000240732)
(0.00128256 0 0.000162581)
(0.00108794 0 0.000286763)
(0.000949117 0 0.000203093)
(0.00073749 0 0.000353087)
(0.000646976 0 0.000135682)
(0.000616326 0 5.69229e-06)
(0.000431292 0 0.000174244)
(-2.23944e-07 0 0.000263028)
(5.80004e-13 0 1.0306e-12)
(1.16711e-12 0 5.69191e-13)
(8.02268e-13 0 3.73909e-13)
(5.89158e-13 0 2.54131e-13)
(4.55141e-13 0 1.74583e-13)
(3.64999e-13 0 1.18911e-13)
(3.04343e-13 0 7.88446e-14)
(2.65017e-13 0 4.94704e-14)
(2.41473e-13 0 2.78425e-14)
(2.29563e-13 0 1.20498e-14)
(2.2605e-13 0 7.73526e-16)
(2.28361e-13 0 -6.946e-15)
(2.34441e-13 0 -1.18434e-14)
(2.42654e-13 0 -1.45006e-14)
(2.51705e-13 0 -1.53862e-14)
(2.60581e-13 0 -1.48856e-14)
(2.68525e-13 0 -1.33225e-14)
(2.7499e-13 0 -1.09712e-14)
(2.79611e-13 0 -8.06217e-15)
(2.82167e-13 0 -4.79139e-15)
(2.82554e-13 0 -1.32806e-15)
(2.80763e-13 0 2.18444e-15)
(2.76844e-13 0 5.6321e-15)
(2.70886e-13 0 8.93231e-15)
(2.62998e-13 0 1.203e-14)
(2.5331e-13 0 1.48912e-14)
(2.41965e-13 0 1.74987e-14)
(2.29111e-13 0 1.98487e-14)
(2.14904e-13 0 2.19495e-14)
(1.99496e-13 0 2.38173e-14)
(1.83044e-13 0 2.54717e-14)
(1.65703e-13 0 2.69299e-14)
(1.47628e-13 0 2.82043e-14)
(1.28969e-13 0 2.93019e-14)
(1.09858e-13 0 3.02271e-14)
(9.04092e-14 0 3.09852e-14)
(7.07168e-14 0 3.15857e-14)
(5.08596e-14 0 3.20469e-14)
(3.09283e-14 0 3.24042e-14)
(1.04788e-14 0 3.27343e-14)
(-0.000172609 0 -0.000968286)
(0.000738629 0 -0.000649443)
(0.000659695 0 -0.000683862)
(0.000765031 0 -0.000452154)
(0.000804335 0 -0.000301828)
(0.000869808 0 -0.000286252)
(0.000976659 0 -7.17237e-05)
(0.000973079 0 -2.3721e-05)
(0.000924716 0 -2.65077e-05)
(0.000866736 0 -4.24e-05)
(0.000870682 0 -3.94194e-05)
(0.000900092 0 -9.32077e-06)
(0.000923144 0 1.83621e-05)
(0.000923596 0 1.55084e-05)
(0.000911272 0 -8.70266e-06)
(0.000878853 0 -4.33017e-05)
(0.000854806 0 -4.23745e-05)
(0.000852393 0 -2.9254e-05)
(0.000859165 0 -9.87863e-06)
(0.000862814 0 6.85391e-06)
(0.000861922 0 3.98767e-06)
(0.000846926 0 -4.66564e-06)
(0.000834435 0 -1.05893e-05)
(0.000837968 0 -1.72246e-06)
(0.000842448 0 -2.32669e-05)
(0.000842098 0 -3.74963e-05)
(0.000843927 0 -4.0599e-05)
(0.000843954 0 -6.10238e-05)
(0.000842158 0 -6.97337e-05)
(0.000835789 0 -6.67993e-05)
(0.000833107 0 -6.17996e-05)
(0.000835316 0 -6.56361e-05)
(0.000844614 0 -4.67876e-05)
(0.00084347 0 -4.47399e-05)
(0.000843778 0 -2.29147e-05)
(0.000837913 0 -2.6233e-05)
(0.000828978 0 -2.02319e-05)
(0.000817388 0 -1.22618e-05)
(0.000817798 0 -1.06667e-05)
(0.000816432 0 -7.58388e-06)
(0.000815241 0 -1.15261e-05)
(0.000807646 0 -6.30493e-07)
(0.000784126 0 -1.96823e-05)
(0.000795649 0 0.000106682)
(0.000814708 0 -5.36679e-06)
(0.00081044 0 -3.90192e-05)
(0.000810961 0 -7.15962e-05)
(0.000833885 0 -0.00013224)
(0.000936514 0 -2.82356e-05)
(0.000965547 0 -0.000169077)
(0.00103114 0 -0.000184914)
(0.00118629 0 -3.83234e-05)
(0.00128484 0 -0.000203638)
(0.00133138 0 -0.000232645)
(0.00139585 0 -0.000172143)
(0.00148329 0 -0.000188952)
(0.00155213 0 -0.000133863)
(0.00162318 0 -1.6684e-05)
(0.00171494 0 -5.23593e-05)
(0.00172655 0 -7.34885e-05)
(0.00173649 0 -5.76107e-05)
(0.00177352 0 -4.59156e-05)
(0.0017827 0 2.51484e-05)
(0.00177312 0 3.04794e-05)
(0.00174542 0 8.79913e-05)
(0.0016988 0 0.000106268)
(0.00162351 0 0.000122673)
(0.00150654 0 0.000253981)
(0.00147509 0 0.000161808)
(0.00142865 0 0.00020036)
(0.00134618 0 0.000255018)
(0.00119786 0 0.000374684)
(0.0010366 0 0.000461295)
(0.000943834 0 0.00045877)
(0.000849435 0 0.00043763)
(0.000740779 0 0.000372632)
(0.000637684 0 0.000397505)
(0.000340241 0 0.000550957)
(0.000202181 0 0.000487897)
(-7.53814e-07 0 0.000436899)
(4.09197e-13 0 1.55595e-12)
(5.52351e-13 0 8.34612e-13)
(5.43154e-13 0 5.52689e-13)
(4.49798e-13 0 3.80612e-13)
(3.65743e-13 0 2.64017e-13)
(3.02501e-13 0 1.80447e-13)
(2.58939e-13 0 1.19003e-13)
(2.31578e-13 0 7.33004e-14)
(2.16884e-13 0 3.93389e-14)
(2.11754e-13 0 1.4438e-14)
(2.1355e-13 0 -3.32668e-15)
(2.20069e-13 0 -1.5404e-14)
(2.29498e-13 0 -2.29325e-14)
(2.40371e-13 0 -2.68321e-14)
(2.51521e-13 0 -2.78549e-14)
(2.62031e-13 0 -2.66237e-14)
(2.71212e-13 0 -2.36665e-14)
(2.7858e-13 0 -1.94343e-14)
(2.83816e-13 0 -1.43102e-14)
(2.86738e-13 0 -8.62094e-15)
(2.87279e-13 0 -2.64632e-15)
(2.85468e-13 0 3.37815e-15)
(2.81397e-13 0 9.266e-15)
(2.75196e-13 0 1.48821e-14)
(2.67007e-13 0 2.01374e-14)
(2.56985e-13 0 2.49802e-14)
(2.45294e-13 0 2.93875e-14)
(2.32103e-13 0 3.336e-14)
(2.17579e-13 0 3.69164e-14)
(2.01881e-13 0 4.0086e-14)
(1.85161e-13 0 4.29e-14)
(1.6757e-13 0 4.53842e-14)
(1.49253e-13 0 4.75548e-14)
(1.30355e-13 0 4.94205e-14)
(1.11009e-13 0 5.09868e-14)
(9.1332e-14 0 5.22608e-14)
(7.14253e-14 0 5.32553e-14)
(5.13714e-14 0 5.39879e-14)
(3.12394e-14 0 5.44749e-14)
(1.05809e-14 0 5.47016e-14)
(0.000382365 0 -0.00102505)
(1.53031e-05 0 -0.00107441)
(0.000433254 0 -0.000836627)
(0.000697578 0 -0.000348336)
(0.000398851 0 -0.000582159)
(0.000676904 0 -7.09267e-05)
(0.000665517 0 -5.22232e-05)
(0.000638767 0 -6.45337e-05)
(0.00063245 0 -2.19247e-06)
(0.000619333 0 2.0583e-05)
(0.000597648 0 2.72939e-05)
(0.000594646 0 2.7286e-05)
(0.000600823 0 2.86741e-05)
(0.000606065 0 1.88796e-05)
(0.000599228 0 9.48403e-06)
(0.000571497 0 6.43604e-06)
(0.000543561 0 2.34969e-05)
(0.000522387 0 3.17965e-05)
(0.000514749 0 5.2959e-05)
(0.000506775 0 6.08852e-05)
(0.000503682 0 6.08685e-05)
(0.0005003 0 4.16565e-05)
(0.000500437 0 3.46679e-05)
(0.000504452 0 2.56907e-05)
(0.000503765 0 1.53048e-05)
(0.000499943 0 2.70393e-06)
(0.000486256 0 2.99395e-06)
(0.000468681 0 -1.07365e-05)
(0.000458302 0 -1.83295e-05)
(0.000448242 0 -1.6941e-05)
(0.000448499 0 -7.23119e-06)
(0.000443771 0 3.27792e-06)
(0.000433113 0 1.66855e-05)
(0.000421122 0 2.28669e-05)
(0.000420145 0 3.6762e-05)
(0.000407718 0 4.19209e-05)
(0.000403577 0 3.58861e-05)
(0.000385477 0 3.86507e-05)
(0.000387841 0 6.37179e-05)
(0.000390933 0 4.84758e-05)
(0.000397173 0 7.52104e-05)
(0.000394369 0 3.72706e-05)
(0.000409256 0 1.2213e-05)
(0.000454262 0 -2.73424e-05)
(0.000510756 0 -2.48215e-05)
(0.00056692 0 -5.13413e-06)
(0.000601729 0 -7.08107e-05)
(0.000646112 0 -0.00018827)
(0.000794709 0 6.58137e-05)
(0.000874182 0 -0.000187597)
(0.000915164 0 -0.000356091)
(0.0010376 0 -0.000223511)
(0.00115617 0 -0.000146578)
(0.0011813 0 -0.000397868)
(0.00127096 0 -0.000286619)
(0.00139058 0 -7.02859e-06)
(0.00145113 0 -0.000263627)
(0.0014888 0 -0.000301476)
(0.00152912 0 -0.000163783)
(0.00154877 0 -0.000206573)
(0.00159507 0 -0.000247315)
(0.00164565 0 -4.43356e-05)
(0.00164229 0 -8.48636e-06)
(0.00163303 0 7.13095e-05)
(0.00161317 0 0.000107532)
(0.00157289 0 0.000181086)
(0.00147209 0 0.0003405)
(0.00138513 0 0.000107063)
(0.00129975 0 0.000367)
(0.00129813 0 0.000339672)
(0.00121467 0 0.000404951)
(0.00108051 0 0.000362271)
(0.000952531 0 0.000304776)
(0.000885984 0 0.000431949)
(0.000785012 0 0.000527095)
(0.000616342 0 0.000568546)
(0.000355579 0 0.000670922)
(0.000295344 0 0.00061234)
(0.000129551 0 0.000581092)
(-2.95328e-07 0 0.000551203)
(2.57013e-13 0 1.17706e-12)
(3.66827e-13 0 8.27826e-13)
(3.4854e-13 0 6.21197e-13)
(3.00834e-13 0 4.51646e-13)
(2.55379e-13 0 3.20429e-13)
(2.20251e-13 0 2.1995e-13)
(1.97245e-13 0 1.43333e-13)
(1.85353e-13 0 8.52152e-14)
(1.82611e-13 0 4.1586e-14)
(1.86897e-13 0 9.5152e-15)
(1.96208e-13 0 -1.32475e-14)
(2.08755e-13 0 -2.84808e-14)
(2.23013e-13 0 -3.76367e-14)
(2.37732e-13 0 -4.19286e-14)
(2.51913e-13 0 -4.23712e-14)
(2.6477e-13 0 -3.98139e-14)
(2.75714e-13 0 -3.49801e-14)
(2.84346e-13 0 -2.84905e-14)
(2.90424e-13 0 -2.08704e-14)
(2.93831e-13 0 -1.25593e-14)
(2.94553e-13 0 -3.92614e-15)
(2.92675e-13 0 4.72081e-15)
(2.88348e-13 0 1.31348e-14)
(2.81757e-13 0 2.11347e-14)
(2.73096e-13 0 2.86019e-14)
(2.6256e-13 0 3.54695e-14)
(2.50345e-13 0 4.17099e-14)
(2.3664e-13 0 4.73252e-14)
(2.2163e-13 0 5.23388e-14)
(2.0548e-13 0 5.67885e-14)
(1.88342e-13 0 6.07161e-14)
(1.70357e-13 0 6.41596e-14)
(1.51665e-13 0 6.71482e-14)
(1.32401e-13 0 6.97023e-14)
(1.12698e-13 0 7.18372e-14)
(9.26777e-14 0 7.35683e-14)
(7.24439e-14 0 7.49134e-14)
(5.20793e-14 0 7.58925e-14)
(3.1642e-14 0 7.65217e-14)
(1.07055e-14 0 7.68036e-14)
(0.000106064 0 -0.00125531)
(0.000224375 0 -0.00112013)
(0.000471653 0 -0.000814676)
(0.000160371 0 -0.000714767)
(0.000493901 0 -0.000222878)
(0.000395358 0 -0.000144468)
(0.000405932 0 -0.000121424)
(0.000407793 0 -7.73609e-05)
(0.000416954 0 -3.77451e-05)
(0.00041568 0 -2.57946e-05)
(0.000401905 0 -2.09902e-05)
(0.000376965 0 1.6763e-05)
(0.000350283 0 3.40219e-05)
(0.000332004 0 3.02689e-05)
(0.000319574 0 2.89794e-05)
(0.000301937 0 2.54634e-05)
(0.000278978 0 4.52801e-05)
(0.000251265 0 3.56936e-05)
(0.000236379 0 5.44711e-05)
(0.000223745 0 4.49087e-05)
(0.000220587 0 3.93689e-05)
(0.000214297 0 2.80071e-05)
(0.00021097 0 1.11692e-05)
(0.00021784 0 8.91799e-06)
(0.000219469 0 -8.63655e-06)
(0.000222639 0 1.41e-05)
(0.000169447 0 1.65215e-05)
(0.000103711 0 4.43164e-05)
(7.2509e-05 0 -8.96585e-06)
(6.39526e-05 0 -2.61791e-05)
(9.27971e-05 0 -7.56013e-06)
(7.31944e-05 0 -1.21487e-05)
(6.91842e-05 0 -7.18893e-06)
(8.59417e-05 0 1.7583e-05)
(0.00010618 0 3.83059e-05)
(0.000114822 0 4.30221e-06)
(0.000137085 0 5.47189e-05)
(0.000147263 0 -2.09348e-06)
(0.000162598 0 -3.94835e-06)
(0.000184659 0 1.38469e-06)
(0.000212189 0 1.18311e-05)
(0.000236125 0 -2.25302e-05)
(0.000289574 0 -5.38022e-05)
(0.000360518 0 -6.90213e-05)
(0.000405844 0 -0.000123704)
(0.000499441 0 -7.01876e-05)
(0.000528617 0 -0.000181415)
(0.00056641 0 -0.000246888)
(0.000673167 0 -0.000200749)
(0.000793632 0 -0.000201078)
(0.000823937 0 -0.000403376)
(0.000877271 0 -0.000422171)
(0.000973643 0 -0.000323054)
(0.00104852 0 -0.000294029)
(0.0010869 0 -0.00040468)
(0.00115771 0 -0.000483794)
(0.00127165 0 -0.000329434)
(0.00127817 0 -0.000296496)
(0.00129042 0 -0.000277056)
(0.00133347 0 -0.000267225)
(0.00140859 0 -0.000107779)
(0.00142139 0 -0.00010177)
(0.00142466 0 -6.88138e-06)
(0.00141926 0 5.75037e-05)
(0.00140821 0 0.000111095)
(0.00137853 0 0.000198379)
(0.00132634 0 0.000160123)
(0.00124435 0 9.68634e-05)
(0.00114725 0 0.000437783)
(0.00107287 0 0.000549772)
(0.000965771 0 0.000587751)
(0.000918891 0 0.000390537)
(0.000795048 0 0.000558765)
(0.000698 0 0.000685369)
(0.00058061 0 0.000733845)
(0.000475166 0 0.000705259)
(0.000200553 0 0.000770491)
(0.000103891 0 0.000727961)
(0.00013894 0 0.000653596)
(-2.49641e-07 0 0.000633094)
(1.41752e-13 0 1.32221e-12)
(1.7248e-13 0 8.46184e-13)
(1.67288e-13 0 6.52481e-13)
(1.49429e-13 0 4.8433e-13)
(1.34495e-13 0 3.46072e-13)
(1.25737e-13 0 2.35651e-13)
(1.24298e-13 0 1.49116e-13)
(1.29831e-13 0 8.24613e-14)
(1.41184e-13 0 3.2071e-14)
(1.5692e-13 0 -4.9178e-15)
(1.75554e-13 0 -3.08719e-14)
(1.9568e-13 0 -4.7766e-14)
(2.1605e-13 0 -5.72813e-14)
(2.35637e-13 0 -6.08782e-14)
(2.53635e-13 0 -5.98138e-14)
(2.69422e-13 0 -5.51523e-14)
(2.82536e-13 0 -4.77986e-14)
(2.9269e-13 0 -3.85286e-14)
(2.99747e-13 0 -2.79975e-14)
(3.03682e-13 0 -1.67442e-14)
(3.04559e-13 0 -5.20989e-15)
(3.02528e-13 0 6.24386e-15)
(2.97811e-13 0 1.73269e-14)
(2.90663e-13 0 2.78228e-14)
(2.81342e-13 0 3.7588e-14)
(2.70093e-13 0 4.65418e-14)
(2.5715e-13 0 5.46516e-14)
(2.42732e-13 0 6.19208e-14)
(2.27042e-13 0 6.83791e-14)
(2.10258e-13 0 7.40744e-14)
(1.92532e-13 0 7.90634e-14)
(1.74002e-13 0 8.34026e-14)
(1.54796e-13 0 8.71412e-14)
(1.35044e-13 0 9.03181e-14)
(1.14875e-13 0 9.29643e-14)
(9.44081e-14 0 9.51065e-14)
(7.37495e-14 0 9.67698e-14)
(5.29797e-14 0 9.79778e-14)
(3.21505e-14 0 9.87497e-14)
(1.08628e-14 0 9.90957e-14)
(0.000116383 0 -0.00138931)
(4.96805e-06 0 -0.00124958)
(0.00038588 0 -0.000845606)
(0.00016991 0 -0.000584322)
(0.000342401 0 -0.000281542)
(0.000202871 0 -0.000258522)
(0.000303124 0 -6.1587e-05)
(0.000258664 0 -8.44628e-05)
(0.00025123 0 2.06533e-05)
(0.000200416 0 6.63968e-05)
(0.000145778 0 6.87908e-05)
(0.000108015 0 5.42239e-05)
(9.47858e-05 0 5.64096e-05)
(8.34649e-05 0 4.34266e-05)
(7.00766e-05 0 3.79384e-05)
(6.79377e-05 0 4.19729e-05)
(6.86067e-05 0 6.42481e-05)
(1.24001e-05 0 8.26478e-05)
(-8.0153e-05 0 7.28175e-05)
(-0.000106818 0 7.45956e-05)
(-0.000100908 0 5.15658e-05)
(-9.93564e-05 0 2.38233e-05)
(-9.62545e-05 0 1.47766e-05)
(-9.17379e-05 0 4.62722e-05)
(-8.67087e-05 0 5.62454e-05)
(-9.17127e-05 0 4.17603e-06)
(-5.93411e-05 0 -2.48953e-06)
(-4.10253e-05 0 -1.01628e-05)
(-2.09881e-05 0 -5.13705e-05)
(-8.9303e-06 0 -3.24878e-05)
(1.38842e-05 0 -3.79829e-06)
(-1.00205e-05 0 -2.90751e-05)
(1.17157e-05 0 -9.84414e-06)
(2.07137e-05 0 -1.36773e-05)
(2.40382e-05 0 -2.247e-05)
(3.04738e-05 0 -1.96175e-05)
(6.14755e-05 0 1.62402e-05)
(7.58897e-05 0 -1.61841e-05)
(0.000105096 0 7.17348e-06)
(0.00012852 0 -2.80866e-06)
(0.000170865 0 1.30587e-05)
(0.000157803 0 -9.54703e-05)
(0.000214057 0 -9.73644e-05)
(0.000287527 0 -9.74128e-05)
(0.000264333 0 -0.000266052)
(0.000509628 0 9.2697e-05)
(0.000441282 0 -0.000323173)
(0.000442273 0 -0.00040183)
(0.000528633 0 -0.000384299)
(0.000590369 0 -0.000397675)
(0.000678523 0 -0.000394148)
(0.000738788 0 -0.00040128)
(0.000820132 0 -0.000337646)
(0.000831106 0 -0.000441857)
(0.000930492 0 -0.000419638)
(0.00103934 0 -0.000281835)
(0.00103731 0 -0.000274089)
(0.00104239 0 -0.000278443)
(0.00107682 0 -0.00023106)
(0.0011249 0 -0.000204802)
(0.00114955 0 -0.000187139)
(0.00116665 0 -0.000139102)
(0.0011988 0 3.8755e-05)
(0.00119037 0 9.96306e-05)
(0.00114606 0 0.000225958)
(0.00111403 0 0.000342748)
(0.00109168 0 0.00037355)
(0.00108181 0 0.000248549)
(0.00094342 0 0.000539748)
(0.000917526 0 0.000535232)
(0.000916704 0 0.000404228)
(0.000715268 0 0.000621883)
(0.000624423 0 0.000740682)
(0.000576028 0 0.000779792)
(0.000557575 0 0.000761772)
(0.000407093 0 0.000803987)
(0.000456737 0 0.000760604)
(0.000338231 0 0.000751148)
(0.000134294 0 0.000732064)
(-3.98504e-07 0 0.000712452)
(4.41612e-14 0 1.00632e-12)
(-1.9741e-14 0 8.49229e-13)
(-1.28928e-14 0 6.58345e-13)
(-5.09751e-15 0 4.87253e-13)
(7.20538e-15 0 3.43987e-13)
(2.3706e-14 0 2.27646e-13)
(4.42052e-14 0 1.35198e-13)
(6.83078e-14 0 6.34364e-14)
(9.52316e-14 0 9.11682e-15)
(1.23954e-13 0 -3.04414e-14)
(1.5336e-13 0 -5.76073e-14)
(1.82346e-13 0 -7.44662e-14)
(2.09901e-13 0 -8.28672e-14)
(2.352e-13 0 -8.44777e-14)
(2.57639e-13 0 -8.07824e-14)
(2.76785e-13 0 -7.30557e-14)
(2.92338e-13 0 -6.23761e-14)
(3.04147e-13 0 -4.96616e-14)
(3.12209e-13 0 -3.56843e-14)
(3.16618e-13 0 -2.10722e-14)
(3.17541e-13 0 -6.32396e-15)
(3.15212e-13 0 8.16444e-15)
(3.09927e-13 0 2.20797e-14)
(3.02018e-13 0 3.51861e-14)
(2.91815e-13 0 4.73251e-14)
(2.79624e-13 0 5.84072e-14)
(2.65724e-13 0 6.8399e-14)
(2.50368e-13 0 7.7309e-14)
(2.33783e-13 0 8.51773e-14)
(2.16164e-13 0 9.20667e-14)
(1.9767e-13 0 9.8054e-14)
(1.78435e-13 0 1.03219e-13)
(1.5858e-13 0 1.07636e-13)
(1.38224e-13 0 1.11368e-13)
(1.17486e-13 0 1.14466e-13)
(9.64831e-14 0 1.1697e-13)
(7.53152e-14 0 1.18914e-13)
(5.40592e-14 0 1.20327e-13)
(3.27599e-14 0 1.2123e-13)
(1.10514e-14 0 1.21636e-13)
(0.000182504 0 -0.00151446)
(7.14435e-05 0 -0.00131069)
(0.000279476 0 -0.000881338)
(4.19224e-05 0 -0.000592256)
(0.000266599 0 -0.000299092)
(0.000150967 0 -0.000223778)
(0.000214327 0 -4.48907e-05)
(0.000133345 0 1.13785e-05)
(3.39058e-05 0 5.12913e-05)
(1.63337e-05 0 6.10727e-05)
(6.99154e-06 0 6.78403e-05)
(3.89038e-06 0 5.89285e-05)
(2.16969e-06 0 5.59775e-05)
(-3.98697e-06 0 5.00732e-05)
(-2.02211e-05 0 5.24103e-05)
(-4.02729e-05 0 6.4192e-05)
(-4.314e-05 0 8.42612e-05)
(-2.29351e-05 0 0.00010324)
(-6.50157e-05 0 8.91076e-05)
(-5.15706e-05 0 6.23216e-05)
(-7.24819e-05 0 2.73725e-05)
(-7.00022e-05 0 9.96563e-07)
(-6.50122e-05 0 -1.34427e-05)
(-6.71618e-05 0 -6.11021e-06)
(-5.66159e-05 0 9.81693e-06)
(-6.29876e-05 0 -6.01552e-06)
(-7.20447e-05 0 -1.45975e-05)
(-5.21443e-05 0 -3.26738e-05)
(-4.11504e-05 0 -4.70691e-05)
(-5.00116e-05 0 -5.08789e-05)
(-3.51688e-05 0 -3.43952e-05)
(-3.44832e-05 0 -2.41459e-05)
(-3.81595e-05 0 -3.89658e-05)
(-6.44682e-06 0 -1.70284e-05)
(1.80197e-05 0 6.66991e-06)
(1.98311e-06 0 -2.16436e-05)
(1.87807e-05 0 -2.11292e-05)
(4.32189e-05 0 -2.90844e-05)
(6.42154e-05 0 -4.1573e-05)
(9.09596e-05 0 -4.68815e-05)
(0.000150179 0 -1.46124e-05)
(0.000134219 0 -0.000105856)
(0.000175387 0 -0.000123836)
(0.000179294 0 -0.00019686)
(0.00019873 0 -0.000240456)
(0.000146894 0 -0.000417649)
(0.000452839 0 -0.000178076)
(0.000536545 0 -0.000148632)
(0.000530218 0 -0.000250347)
(0.00050576 0 -0.000343159)
(0.00050571 0 -0.000435637)
(0.00051668 0 -0.000544061)
(0.000674014 0 -0.000418448)
(0.000681792 0 -0.000465632)
(0.000690005 0 -0.000504515)
(0.000748366 0 -0.000443295)
(0.000771636 0 -0.000394705)
(0.000792776 0 -0.000357625)
(0.000801142 0 -0.000364027)
(0.000844142 0 -0.000328717)
(0.000886681 0 -0.000207869)
(0.000898367 0 -0.000131779)
(0.00093923 0 -2.21076e-05)
(0.000974052 0 2.41371e-05)
(0.000954716 0 7.91105e-05)
(0.000941008 0 0.000176806)
(0.000926785 0 0.000279056)
(0.000858344 0 0.000380404)
(0.000766619 0 0.000544052)
(0.000752602 0 0.000560744)
(0.000653777 0 0.000657688)
(0.000571708 0 0.000742925)
(0.000573174 0 0.000761973)
(0.00045984 0 0.000821016)
(0.000386279 0 0.000858633)
(0.000327153 0 0.000910697)
(0.000186037 0 0.000955722)
(0.000255422 0 0.00088454)
(0.000161662 0 0.000820025)
(-1.55059e-07 0 0.000801308)
(-6.73635e-14 0 1.18308e-12)
(-1.75032e-13 0 8.74581e-13)
(-1.94089e-13 0 6.4471e-13)
(-1.64353e-13 0 4.62626e-13)
(-1.24543e-13 0 3.15246e-13)
(-8.25588e-14 0 1.96066e-13)
(-3.97005e-14 0 1.0102e-13)
(3.74972e-15 0 2.7167e-14)
(4.73058e-14 0 -2.8435e-14)
(9.0196e-14 0 -6.82364e-14)
(1.3153e-13 0 -9.45507e-14)
(1.7042e-13 0 -1.09538e-13)
(2.06039e-13 0 -1.15184e-13)
(2.37722e-13 0 -1.13341e-13)
(2.65058e-13 0 -1.05712e-13)
(2.87828e-13 0 -9.3786e-14)
(3.0593e-13 0 -7.88201e-14)
(3.19382e-13 0 -6.18658e-14)
(3.28337e-13 0 -4.37992e-14)
(3.33043e-13 0 -2.53263e-14)
(3.33796e-13 0 -6.99244e-15)
(3.30932e-13 0 1.07884e-14)
(3.24833e-13 0 2.77019e-14)
(3.15908e-13 0 4.35161e-14)
(3.04563e-13 0 5.80755e-14)
(2.91167e-13 0 7.12947e-14)
(2.76052e-13 0 8.31482e-14)
(2.59511e-13 0 9.36566e-14)
(2.418e-13 0 1.02876e-13)
(2.23135e-13 0 1.10891e-13)
(2.03685e-13 0 1.17801e-13)
(1.83584e-13 0 1.23714e-13)
(1.62945e-13 0 1.28733e-13)
(1.41874e-13 0 1.32947e-13)
(1.20476e-13 0 1.3643e-13)
(9.88565e-14 0 1.39241e-13)
(7.71071e-14 0 1.41422e-13)
(5.52959e-14 0 1.43009e-13)
(3.34591e-14 0 1.44024e-13)
(1.12683e-14 0 1.44481e-13)
(8.97193e-05 0 -0.00162472)
(-4.97583e-06 0 -0.00134556)
(0.000228934 0 -0.000876004)
(-2.06933e-05 0 -0.000582739)
(0.000234416 0 -0.000298477)
(7.63271e-05 0 -0.000223249)
(0.000133253 0 -4.06922e-05)
(6.97395e-05 0 5.01915e-05)
(2.94722e-05 0 7.17867e-05)
(2.24565e-05 0 7.18684e-05)
(4.10611e-06 0 7.84542e-05)
(6.08806e-07 0 6.95816e-05)
(-6.90257e-06 0 6.9999e-05)
(-9.62847e-06 0 6.01416e-05)
(-1.87124e-05 0 5.72708e-05)
(-3.36367e-05 0 6.97334e-05)
(-3.22492e-05 0 8.41348e-05)
(-3.35456e-05 0 0.000109948)
(-2.66717e-05 0 0.00010386)
(-2.64868e-05 0 8.18141e-05)
(-1.88885e-07 0 6.50149e-05)
(-2.16466e-05 0 4.57557e-05)
(-6.77783e-06 0 1.72009e-05)
(-1.06585e-05 0 3.09035e-05)
(-1.19605e-05 0 2.71107e-05)
(3.3759e-06 0 2.81812e-05)
(-3.95419e-05 0 4.64679e-06)
(-4.34698e-05 0 -1.00591e-05)
(-4.61235e-05 0 -3.28258e-05)
(-6.35682e-05 0 -3.12607e-05)
(-5.24135e-05 0 -2.62923e-05)
(-4.91965e-05 0 -2.12723e-05)
(-4.56846e-05 0 -4.02949e-05)
(-5.29103e-05 0 -3.76421e-05)
(-8.55819e-06 0 -2.9763e-05)
(-8.05898e-06 0 -2.36787e-05)
(1.63897e-05 0 -1.97655e-05)
(2.83422e-05 0 -4.36282e-05)
(4.72507e-05 0 -5.36323e-05)
(7.99147e-05 0 -5.39329e-05)
(8.50989e-05 0 -8.89625e-05)
(0.000160663 0 -5.94432e-05)
(0.000155906 0 -0.00014174)
(0.00021187 0 -0.000145535)
(0.000160924 0 -0.000230602)
(0.000200482 0 -0.000278553)
(0.000105025 0 -0.000463276)
(0.000197104 0 -0.000469303)
(0.000318797 0 -0.000402879)
(0.000382269 0 -0.000381197)
(0.000393085 0 -0.000428668)
(0.00040897 0 -0.000504025)
(0.000318123 0 -0.000634174)
(0.000519052 0 -0.00048205)
(0.000522528 0 -0.000479716)
(0.000513775 0 -0.000443161)
(0.000580453 0 -0.000317478)
(0.000589351 0 -0.000306737)
(0.000581309 0 -0.000333318)
(0.000602104 0 -0.000288282)
(0.000616397 0 -0.000268935)
(0.000644693 0 -0.000225257)
(0.000712146 0 -6.70807e-05)
(0.000707478 0 0.000214842)
(0.000652112 0 0.00034574)
(0.000618516 0 0.000416302)
(0.000598692 0 0.000462065)
(0.000546875 0 0.000517608)
(0.000494084 0 0.000612555)
(0.000567644 0 0.0006408)
(0.000490527 0 0.000745226)
(0.000466168 0 0.000788068)
(0.000306682 0 0.000863341)
(0.000231996 0 0.000903766)
(0.000203695 0 0.000934324)
(0.000113289 0 0.000980455)
(3.88697e-05 0 0.000984833)
(4.07843e-05 0 0.000970024)
(6.61197e-05 0 0.000927901)
(-6.61601e-07 0 0.000878334)
(-2.01446e-13 0 1.1948e-12)
(-5.572e-13 0 8.21613e-13)
(-4.2411e-13 0 5.83596e-13)
(-3.33901e-13 0 4.03621e-13)
(-2.58731e-13 0 2.58653e-13)
(-1.89952e-13 0 1.40739e-13)
(-1.24427e-13 0 4.62481e-14)
(-6.11468e-14 0 -2.70087e-14)
(-1.71906e-16 0 -8.1462e-14)
(5.78388e-14 0 -1.19251e-13)
(1.12059e-13 0 -1.42599e-13)
(1.61712e-13 0 -1.5375e-13)
(2.06097e-13 0 -1.54844e-13)
(2.44672e-13 0 -1.47914e-13)
(2.77194e-13 0 -1.34878e-13)
(3.03676e-13 0 -1.17458e-13)
(3.24258e-13 0 -9.71023e-14)
(3.39168e-13 0 -7.49965e-14)
(3.48748e-13 0 -5.21081e-14)
(3.53425e-13 0 -2.92057e-14)
(3.53656e-13 0 -6.86945e-15)
(3.49906e-13 0 1.44832e-14)
(3.42655e-13 0 3.45582e-14)
(3.32392e-13 0 5.31538e-14)
(3.19594e-13 0 7.01436e-14)
(3.04697e-13 0 8.54675e-14)
(2.88085e-13 0 9.91226e-14)
(2.70096e-13 0 1.11152e-13)
(2.51018e-13 0 1.21637e-13)
(2.31089e-13 0 1.30685e-13)
(2.10494e-13 0 1.38427e-13)
(1.89367e-13 0 1.44998e-13)
(1.67813e-13 0 1.50532e-13)
(1.45921e-13 0 1.55148e-13)
(1.2378e-13 0 1.58944e-13)
(1.01475e-13 0 1.61997e-13)
(7.90833e-14 0 1.64363e-13)
(5.66609e-14 0 1.66084e-13)
(3.42324e-14 0 1.67186e-13)
(1.15088e-14 0 1.67685e-13)
(0.000147226 0 -0.00169945)
(1.78274e-05 0 -0.0013691)
(0.000175126 0 -0.000891472)
(7.13435e-07 0 -0.000575375)
(0.000186645 0 -0.000318614)
(4.67498e-05 0 -0.000208529)
(8.06441e-05 0 4.30108e-06)
(7.83441e-05 0 5.44799e-05)
(6.41496e-05 0 8.31764e-05)
(5.61965e-05 0 8.2092e-05)
(3.87463e-05 0 8.06745e-05)
(2.93642e-05 0 6.76014e-05)
(2.03711e-05 0 6.86392e-05)
(1.25537e-05 0 6.77108e-05)
(3.65883e-06 0 6.74824e-05)
(-1.56564e-05 0 8.0955e-05)
(-1.80874e-05 0 8.78862e-05)
(-2.4204e-05 0 0.00010741)
(-9.94225e-06 0 9.84582e-05)
(-1.00533e-05 0 7.73907e-05)
(3.14637e-06 0 4.05021e-05)
(3.12829e-06 0 5.15838e-05)
(2.02881e-06 0 1.57309e-05)
(-1.77701e-06 0 1.44809e-05)
(-5.87404e-06 0 2.62049e-05)
(-5.5048e-06 0 2.80481e-05)
(-5.3038e-06 0 3.06464e-05)
(-7.10841e-06 0 2.08828e-05)
(-4.13683e-05 0 -1.78538e-05)
(-5.80513e-05 0 -2.28997e-05)
(-5.79845e-05 0 -2.78705e-05)
(-4.55369e-05 0 -2.64242e-05)
(-4.10559e-05 0 -3.42751e-05)
(-6.91678e-05 0 -3.26876e-05)
(-2.81409e-05 0 -5.50595e-05)
(-3.17864e-05 0 -4.34813e-05)
(-7.63436e-06 0 -5.00289e-05)
(-2.84944e-06 0 -7.98401e-05)
(2.25458e-05 0 -7.7929e-05)
(4.99303e-05 0 -8.55691e-05)
(7.32919e-05 0 -9.7798e-05)
(4.05044e-05 0 -0.000157597)
(0.000123554 0 -0.00017209)
(0.000150425 0 -0.000193652)
(0.000170696 0 -0.00022274)
(0.000174285 0 -0.000299072)
(0.000206304 0 -0.000330025)
(0.000174223 0 -0.000398218)
(0.000169346 0 -0.000440241)
(0.000213841 0 -0.000458892)
(0.000239885 0 -0.000473084)
(0.000311928 0 -0.000474993)
(0.00021355 0 -0.000526317)
(0.00022341 0 -0.000561279)
(0.000273401 0 -0.000538699)
(0.000255549 0 -0.000488941)
(0.00033649 0 -0.000414784)
(0.000350252 0 -0.00037489)
(0.000358392 0 -0.000342667)
(0.000331033 0 -0.000297399)
(0.000350665 0 -0.000266329)
(0.000358358 0 -0.000206409)
(0.000418498 0 -0.00014414)
(0.000502842 0 6.03449e-05)
(0.000564236 0 7.46919e-05)
(0.000557656 0 0.000255232)
(0.000490716 0 0.00039966)
(0.000481354 0 0.000472403)
(0.000432667 0 0.000599831)
(0.000225613 0 0.000729444)
(0.000228572 0 0.000778475)
(0.00014848 0 0.000861675)
(0.000199964 0 0.000910153)
(0.000180009 0 0.000936302)
(7.55546e-05 0 0.000981743)
(6.73792e-05 0 0.00099512)
(9.13822e-06 0 0.00098291)
(4.71623e-06 0 0.000963616)
(1.05408e-05 0 0.000935069)
(-4.24725e-07 0 0.000912058)
(-3.65271e-13 0 7.89569e-13)