0 	0.000674924 	0 	0.00204398
0.010101 	0.01592 	-1.53088e-06 	0.00535498
0.020202 	0.00992066 	9.55445e-07 	-0.000236467
0.030303 	8.34265e-11 	9.75551e-15 	-1.27213e-10
0.040404 	2.65339e-11 	1.16878e-15 	1.64745e-11
0.0505051 	4.74928e-12 	1.46953e-16 	4.77545e-12
