/*--------------------------------*- C++ -*----------------------------------*\
  =========                 |
  \\      /  F ield         | OpenFOAM: The Open Source CFD Toolbox
   \\    /   O peration     | Website:  https://openfoam.org
    \\  /    A nd           | Version:  6
     \\/     M anipulation  |
\*---------------------------------------------------------------------------*/
FoamFile
{
    version     2.0;
    format      ascii;
    class       surfaceScalarField;
    location    "3700";
    object      phi;
}
// * * * * * * * * * * * * * * * * * * * * * * * * * * * * * * * * * * * * * //

dimensions      [0 3 -1 0 0 0 0];

internalField   nonuniform List<scalar> 
9440
(
8.83408e-11
-8.83408e-11
1.60554e-10
-7.22169e-11
1.69998e-10
-9.44704e-12
5.23465e-11
1.17649e-10
-3.74641e-11
8.98086e-11
-2.83738e-11
-9.09168e-12
1.2589e-11
-4.09636e-11
4.46997e-11
-3.2111e-11
6.66111e-11
-2.19109e-11
1.05812e-10
-3.92003e-11
1.18268e-10
-1.24546e-11
8.90607e-11
2.92096e-11
4.55122e-11
4.35508e-11
-6.13159e-11
1.06831e-10
-1.9771e-10
1.36397e-10
-3.68606e-10
1.70899e-10
-5.55149e-10
1.86546e-10
-7.60095e-10
2.04949e-10
-9.69567e-10
2.09474e-10
-1.22827e-09
2.58705e-10
-1.64099e-09
4.12721e-10
-2.08943e-09
4.48438e-10
-2.41398e-09
3.24551e-10
-2.45892e-09
4.49393e-11
-2.58586e-09
1.26947e-10
-2.68199e-09
9.61237e-11
-2.69994e-09
1.79475e-11
-2.81287e-09
1.12929e-10
-2.92998e-09
1.17103e-10
-3.01012e-09
8.01443e-11
-3.09323e-09
8.31023e-11
-3.19062e-09
9.73865e-11
-3.28855e-09
9.79284e-11
-3.38474e-09
9.61893e-11
-3.48929e-09
1.04541e-10
-3.56934e-09
8.00503e-11
-3.63346e-09
6.41195e-11
-3.70154e-09
6.80689e-11
-3.70897e-09
7.43437e-12
-3.62612e-09
-8.28533e-11
-3.56487e-09
-6.12531e-11
-3.40773e-09
-1.57137e-10
-2.9434e-09
-4.64324e-10
-2.69791e-09
-2.45488e-10
-2.56714e-09
-1.30772e-10
-2.21346e-09
-3.53672e-10
-1.97551e-09
-2.37949e-10
-1.80936e-09
-1.66148e-10
-1.44559e-09
-3.63764e-10
-1.24651e-09
-1.99077e-10
-1.09251e-09
-1.54005e-10
-8.70366e-10
-2.22142e-10
-2.2287e-10
-6.47497e-10
8.68341e-11
-3.09706e-10
5.84609e-10
-4.97776e-10
9.89514e-10
-4.04908e-10
1.07029e-09
-8.07815e-11
1.06287e-09
7.42795e-12
9.43683e-10
1.19182e-10
7.47138e-10
1.96544e-10
4.79545e-10
2.67594e-10
2.76e-10
2.03546e-10
1.41526e-10
1.34475e-10
-1.92009e-11
1.60729e-10
-9.98698e-11
8.06711e-11
-1.50604e-10
5.07369e-11
-2.11408e-10
6.08059e-11
-2.19265e-10
7.85918e-12
-2.66093e-10
4.6829e-11
-3.48792e-10
8.27e-11
-4.6965e-10
1.20858e-10
-6.51283e-10
1.81633e-10
-8.56348e-10
2.05064e-10
-9.5967e-10
1.03319e-10
-1.0379e-09
7.82264e-11
-1.10377e-09
6.58627e-11
-1.14199e-09
3.82235e-11
-1.20028e-09
5.82833e-11
-1.21656e-09
1.62738e-11
-8.61537e-10
-3.55022e-10
-1.37389e-10
-7.24145e-10
-2.71869e-14
-1.37344e-10
-9.50873e-18
2.21407e-18
-2.46455e-18
-7.04418e-18
1.50376e-19
-2.60433e-18
6.62056e-19
-5.0816e-19
5.35102e-19
1.27932e-19
3.11933e-19
2.22875e-19
1.45907e-19
1.64403e-19
6.07851e-20
8.22507e-20
4.49088e-20
1.21337e-20
8.08171e-20
-3.99248e-20
1.53001e-19
-7.58617e-20
2.49049e-19
-9.89336e-20
3.59227e-19
-1.12006e-19
4.75864e-19
-1.17322e-19
5.92803e-19
-1.16616e-19
7.05049e-19
-1.1126e-19
8.08574e-19
-1.02369e-19
9.00247e-19
-9.0844e-20
9.77815e-19
-7.7406e-20
1.03988e-18
-6.2621e-20
1.08577e-18
-4.69499e-20
1.11545e-18
-3.07989e-20
1.12922e-18
-1.45523e-20
1.12765e-18
1.42741e-21
1.11141e-18
1.68223e-20
1.08125e-18
3.13726e-20
1.038e-18
4.48781e-20
9.82541e-19
5.71885e-20
9.15804e-19
6.82009e-20
8.38786e-19
7.78656e-20
7.52581e-19
8.61955e-20
6.58412e-19
9.32661e-20
5.57624e-19
9.92014e-20
4.51622e-19
1.04141e-19
3.41761e-19
1.08199e-19
2.29239e-19
1.11428e-19
1.15048e-19
1.13784e-19
1.15142e-19
-2.3701e-12
-8.59747e-11
-6.29758e-11
-1.16163e-11
-1.39975e-10
6.75482e-11
-1.66958e-10
1.44629e-10
-1.39391e-10
6.22401e-11
-1.35373e-10
-1.31109e-11
-1.02074e-10
-7.42627e-11
-7.10255e-11
-6.31584e-11
-8.26378e-11
-1.02968e-11
-2.4241e-11
-9.75946e-11
-6.48934e-11
2.8201e-11
-1.38778e-10
1.03098e-10
-1.96631e-10
1.01407e-10
-3.30226e-10
2.4043e-10
-5.17113e-10
3.23289e-10
-7.60292e-10
4.14082e-10
-1.10137e-09
5.27627e-10
-1.52627e-09
6.29855e-10
-1.90757e-09
5.90777e-10
-2.17274e-09
5.23878e-10
-2.33116e-09
5.71138e-10
-2.44278e-09
5.60062e-10
-2.50506e-09
3.86835e-10
-2.53386e-09
7.37353e-11
-2.61653e-09
2.09612e-10
-2.68721e-09
1.66797e-10
-2.7495e-09
8.02365e-11
-2.87739e-09
2.40818e-10
-3.00092e-09
2.40621e-10
-3.12217e-09
2.01388e-10
-3.26735e-09
2.2828e-10
-3.40028e-09
2.30313e-10
-3.53534e-09
2.32979e-10
-3.67899e-09
2.39833e-10
-3.81296e-09
2.38507e-10
-3.9163e-09
1.83383e-10
-3.95989e-09
1.07709e-10
-4.00712e-09
1.153e-10
-3.97769e-09
-2.20028e-11
-3.86763e-09
-1.92914e-10
-3.74648e-09
-1.824e-10
-3.55242e-09
-3.5119e-10
-3.24712e-09
-7.69625e-10
-2.98116e-09
-5.11445e-10
-2.63528e-09
-4.76647e-10
-2.43369e-09
-5.55257e-10
-2.29437e-09
-3.77266e-10
-1.9507e-09
-5.09809e-10
-1.69694e-09
-6.17525e-10
-1.50752e-09
-3.88499e-10
-1.23256e-09
-4.28961e-10
-8.75953e-10
-5.7875e-10
-7.58275e-10
-7.65178e-10
-4.09227e-10
-6.58757e-10
-1.87879e-10
-7.19127e-10
3.51546e-10
-9.44335e-10
7.43141e-10
-4.72379e-10
7.77765e-10
-2.71968e-11
7.76631e-10
1.20317e-10
6.98303e-10
2.74873e-10
5.56536e-10
4.09363e-10
3.81549e-10
3.78536e-10
2.05361e-10
3.10667e-10
1.00183e-10
2.65911e-10
2.32515e-11
1.57607e-10
-6.29815e-11
1.36974e-10
-1.6316e-10
1.60988e-10
-2.37485e-10
8.21864e-11
-2.87339e-10
9.66846e-11
-2.79828e-10
7.51898e-11
-2.57535e-10
9.85637e-11
-1.88052e-10
1.12147e-10
-2.27788e-10
2.44796e-10
-2.62959e-10
1.38485e-10
-2.57865e-10
7.31276e-11
-2.42801e-10
5.07923e-11
-2.06974e-10
2.3916e-12
-9.77778e-12
-1.38916e-10
4.49635e-10
-4.43141e-10
5.92041e-10
-4.97433e-10
4.04449e-10
-5.36573e-10
1.42611e-16
2.67035e-10
-1.21877e-17
-3.11993e-16
1.97474e-18
-2.12191e-17
2.24661e-18
-2.87813e-18
1.29815e-18
4.41939e-19
6.30045e-19
7.96434e-19
2.53461e-19
5.97383e-19
6.37547e-20
3.49838e-19
-9.33197e-21
1.49719e-19
-7.14965e-21
3.921e-21
4.48802e-20
-9.75463e-20
1.29929e-19
-1.65356e-19
2.35976e-19
-2.07881e-19
3.53912e-19
-2.31258e-19
4.7657e-19
-2.39974e-19
5.98159e-19
-2.37377e-19
7.13941e-19
-2.26018e-19
8.20099e-19
-2.0787e-19
9.13685e-19
-1.84476e-19
9.926e-19
-1.57076e-19
1.05555e-18
-1.26735e-19
1.10193e-18
-9.44365e-20
1.13169e-18
-6.11385e-20
1.1452e-18
-2.77653e-20
1.14305e-18
4.84082e-21
1.12596e-18
3.59668e-20
1.09476e-18
6.50572e-20
1.05031e-18
9.17195e-20
9.93553e-19
1.15727e-19
9.25468e-19
1.37022e-19
8.47116e-19
1.55698e-19
7.59652e-19
1.71968e-19
6.64347e-19
1.86095e-19
5.62564e-19
1.98314e-19
4.55681e-19
2.08768e-19
3.4499e-19
2.17469e-19
2.31596e-19
2.24301e-19
1.16406e-19
2.2905e-19
2.31408e-19
5.34901e-11
-1.39468e-10
-2.76457e-11
6.95165e-11
-2.43094e-10
2.82994e-10
-3.53091e-10
2.54624e-10
-3.46571e-10
5.57193e-11
-3.12206e-10
-4.74758e-11
-2.8819e-10
-9.82791e-11
-2.90281e-10
-6.10667e-11
-3.91995e-10
9.14185e-11
-4.96473e-10
6.88489e-12
-5.2896e-10
6.06893e-11
-5.61852e-10
1.35992e-10
-6.18851e-10
1.58409e-10
-7.09502e-10
3.31084e-10
-9.09771e-10
5.2356e-10
-1.19077e-09
6.95088e-10
-1.48756e-09
8.24411e-10
-1.79175e-09
9.34051e-10
-2.0688e-09
8.67827e-10
-2.24181e-09
6.96889e-10
-2.37378e-09
7.03108e-10
-2.49061e-09
6.76895e-10
-2.52155e-09
4.17775e-10
-2.62349e-09
1.75674e-10
-2.6525e-09
2.38619e-10
-2.72205e-09
2.36351e-10
-2.88079e-09
2.38968e-10
-2.99242e-09
3.52451e-10
-3.17167e-09
4.19859e-10
-3.36112e-09
3.90833e-10
-3.53829e-09
4.05453e-10
-3.69768e-09
3.89692e-10
-3.84008e-09
3.75378e-10
-3.95051e-09
3.50261e-10
-4.03076e-09
3.18753e-10
-4.02891e-09
1.81534e-10
-4.01617e-09
9.49636e-11
-3.97885e-09
7.79741e-11
-3.91514e-09
-8.57084e-11
-3.72484e-09
-3.83213e-10
-3.57395e-09
-3.33294e-10
-3.48081e-09
-4.44322e-10
-3.39893e-09
-8.515e-10
-3.09204e-09
-8.18332e-10
-2.77199e-09
-7.96694e-10
-2.44753e-09
-8.79717e-10
-2.2212e-09
-6.03597e-10
-1.91602e-09
-8.14991e-10
-1.82131e-09
-7.12227e-10
-1.66643e-09
-5.43381e-10
-1.45567e-09
-6.39725e-10
-1.30896e-09
-7.25454e-10
-1.25727e-09
-8.16872e-10
-9.36327e-10
-9.79704e-10
-6.69051e-10
-9.86406e-10
-3.28427e-10
-1.28496e-09
1.9303e-11
-8.2011e-10
3.31717e-10
-3.39611e-10
4.69067e-10
-1.70319e-11
4.98771e-10
2.45171e-10
4.58428e-10
4.49708e-10
3.54182e-10
4.82785e-10
2.26846e-10
4.38007e-10
1.38375e-10
3.54385e-10
5.29896e-11
2.42996e-10
-5.77004e-11
2.47667e-10
-1.65856e-10
2.69146e-10
-2.77069e-10
1.93401e-10
-3.56375e-10
1.75993e-10
-3.41119e-10
5.99336e-11
-2.84204e-10
4.16482e-11
-1.21713e-10
-5.0345e-11
5.98451e-11
6.32359e-11
1.6503e-10
3.32978e-11
1.91493e-10
4.66604e-11
1.94063e-10
4.82183e-11
2.90057e-10
-9.36056e-11
3.73094e-10
-2.21957e-10
3.54441e-10
-4.24485e-10
3.12841e-10
-4.55817e-10
-1.92805e-10
-3.08925e-11
-5.10539e-11
1.25302e-10
8.10681e-17
-5.10551e-11
2.0004e-17
3.98235e-17
5.56695e-18
1.15589e-17
1.65264e-18
4.35604e-18
4.30993e-19
2.01729e-18
5.91661e-21
1.02055e-18
-1.36365e-19
4.89126e-19
-1.5513e-19
1.64752e-19
-1.08617e-19
-4.66609e-20
-2.29295e-20
-1.87287e-19
8.74045e-20
-2.79372e-19
2.12599e-19
-3.36127e-19
3.45196e-19
-3.66152e-19
4.79168e-19
-3.75461e-19
6.09518e-19
-3.68519e-19
7.32089e-19
-3.48799e-19
8.43494e-19
-3.19091e-19
9.41084e-19
-2.81685e-19
1.02294e-18
-2.3851e-19
1.08784e-18
-1.91247e-19
1.13522e-18
-1.41427e-19
1.16507e-18
-9.04965e-20
1.17781e-18
-3.98136e-20
1.17417e-18
9.40619e-21
1.15505e-18
5.61628e-20
1.12142e-18
9.97133e-20
1.07432e-18
1.39579e-19
1.01485e-18
1.75526e-19
9.44144e-19
2.07538e-19
8.63386e-19
2.35779e-19
7.73778e-19
2.60528e-19
6.76566e-19
2.82095e-19
5.73017e-19
3.00736e-19
4.64382e-19
3.16582e-19
3.51822e-19
3.29604e-19
2.36345e-19
3.39631e-19
1.18763e-19
3.46404e-19
3.49697e-19
1.68067e-11
-1.56276e-10
-6.16237e-11
1.47946e-10
-1.6863e-10
3.9e-10
-3.13579e-10
3.99573e-10
-4.46781e-10
1.88921e-10
-4.87811e-10
-6.44497e-12
-6.16696e-10
3.06062e-11
-7.47007e-10
6.92442e-11
-7.02565e-10
4.69772e-11
-7.88066e-10
9.23857e-11
-8.40046e-10
1.12669e-10
-8.66196e-10
1.62143e-10
-1.00202e-09
2.94235e-10
-1.14102e-09
4.70084e-10
-1.3646e-09
7.47143e-10
-1.66884e-09
9.99325e-10
-1.91164e-09
1.06721e-09
-2.05842e-09
1.08083e-09
-2.20084e-09
1.01025e-09
-2.30068e-09
7.96734e-10
-2.3528e-09
7.55226e-10
-2.41397e-09
7.38067e-10
-2.53163e-09
5.35438e-10
-2.63508e-09
2.79125e-10
-2.77106e-09
3.74601e-10
-2.96116e-09
4.26446e-10
-3.1093e-09
3.87102e-10
-3.24961e-09
4.92762e-10
-3.36638e-09
5.36624e-10
-3.4748e-09
4.99254e-10
-3.6341e-09
5.64744e-10
-3.76269e-09
5.18283e-10
-3.83924e-09
4.51929e-10
-3.88764e-09
3.98655e-10
-3.92706e-09
3.58172e-10
-3.82503e-09
7.95035e-11
-3.81762e-09
8.75501e-11
-3.74753e-09
7.88855e-12
-3.66061e-09
-1.72638e-10
-3.47747e-09
-5.66352e-10
-3.33975e-09
-4.71005e-10
-3.19266e-09
-5.91418e-10
-3.16081e-09
-8.8335e-10
-2.99076e-09
-9.88378e-10
-2.74527e-09
-1.04219e-09
-2.47774e-09
-1.14724e-09
-2.18877e-09
-8.92568e-10
-2.05563e-09
-9.4813e-10
-2.07046e-09
-6.97395e-10
-2.01495e-09
-5.98894e-10
-1.86858e-09
-7.861e-10
-1.65761e-09
-9.3642e-10
-1.40813e-09
-1.06635e-09
-1.20764e-09
-1.1802e-09
-1.02858e-09
-1.16546e-09
-9.08605e-10
-1.40494e-09
-6.88097e-10
-1.04062e-09
-2.28539e-10
-7.99169e-10
9.6234e-11
-3.41803e-10
2.84935e-10
5.64719e-11
3.34057e-10
4.00588e-10
3.22792e-10
4.94053e-10
2.78127e-10
4.82676e-10
2.01438e-10
4.31078e-10
1.01653e-10
3.42785e-10
3.08848e-12
3.46235e-10
-9.18351e-11
3.64073e-10
-2.0454e-10
3.06108e-10
-3.13474e-10
2.84928e-10
-3.69462e-10
1.15923e-10
-3.4342e-10
1.56058e-11
-2.76877e-10
-1.16889e-10
-1.10759e-10
-1.02882e-10
1.10017e-10
-1.8748e-10
2.13951e-10
-5.72748e-11
3.18337e-10
-5.61705e-11
3.85409e-10
-1.6068e-10
3.99988e-10
-2.36543e-10
3.91072e-10
-4.15579e-10
1.67652e-10
-2.32409e-10
-5.37405e-10
6.74163e-10
-1.59814e-09
1.18604e-09
5.17322e-16
-1.6492e-09
-7.89367e-18
-1.53579e-18
-1.63507e-18
5.30188e-18
-6.86063e-19
3.40713e-18
-5.65747e-19
1.89624e-18
-5.25504e-19
9.78784e-19
-4.60739e-19
4.2214e-19
-3.66542e-19
6.77978e-20
-2.49243e-19
-1.67115e-19
-1.15015e-19
-3.25008e-19
3.06495e-20
-4.28734e-19
1.82575e-19
-4.91743e-19
3.35886e-19
-5.22846e-19
4.8611e-19
-5.28428e-19
6.29238e-19
-5.13486e-19
7.61797e-19
-4.82158e-19
8.80899e-19
-4.37982e-19
9.84259e-19
-3.84018e-19
1.0702e-18
-3.22934e-19
1.13766e-18
-2.57068e-19
1.18615e-18
-1.88495e-19
1.21575e-18
-1.19089e-19
1.22703e-18
-5.05418e-20
1.22093e-18
1.56775e-20
1.1986e-18
7.83856e-20
1.16128e-18
1.36728e-19
1.11027e-18
1.90171e-19
1.04686e-18
2.38468e-19
9.72386e-19
2.81606e-19
8.88134e-19
3.19755e-19
7.95346e-19
3.53199e-19
6.95208e-19
3.82262e-19
5.88863e-19
4.07215e-19
4.77404e-19
4.28208e-19
3.61849e-19
4.45234e-19
2.43118e-19
4.5815e-19
1.22056e-19
4.66752e-19
4.70897e-19
-9.70025e-11
-5.92747e-11
-2.13805e-10
2.6475e-10
-3.02877e-10
4.79072e-10
-4.3584e-10
5.32537e-10
-5.82208e-10
3.35289e-10
-7.15023e-10
1.26371e-10
-8.25597e-10
1.4118e-10
-9.8859e-10
2.32238e-10
-1.08888e-09
1.47269e-10
-1.12577e-09
1.29274e-10
-1.14535e-09
1.32243e-10
-1.19917e-09
2.15965e-10
-1.34969e-09
4.44756e-10
-1.52475e-09
6.45138e-10
-1.71149e-09
9.33888e-10
-1.88326e-09
1.17109e-09
-2.0448e-09
1.22876e-09
-2.13849e-09
1.17451e-09
-2.22819e-09
1.09995e-09
-2.32473e-09
8.93274e-10
-2.36017e-09
7.90668e-10
-2.39634e-09
7.74243e-10
-2.48206e-09
6.21153e-10
-2.62639e-09
4.23456e-10
-2.76861e-09
5.16816e-10
-2.93992e-09
5.97758e-10
-3.06688e-09
5.14067e-10
-3.22013e-09
6.4601e-10
-3.35877e-09
6.75263e-10
-3.4741e-09
6.14575e-10
-3.56615e-09
6.568e-10
-3.64635e-09
5.98473e-10
-3.66036e-09
4.65943e-10
-3.64697e-09
3.85263e-10
-3.6271e-09
3.38296e-10
-3.57169e-09
2.40987e-11
-3.47277e-09
-1.13747e-11
-3.37221e-09
-9.26706e-11
-3.27788e-09
-2.66965e-10
-3.24875e-09
-5.95481e-10
-3.171e-09
-5.48758e-10
-3.03373e-09
-7.28692e-10
-2.97475e-09
-9.42325e-10
-2.89053e-09
-1.0726e-09
-2.75157e-09
-1.18115e-09
-2.6632e-09
-1.23562e-09
-2.48213e-09
-1.07363e-09
-2.45721e-09
-9.73055e-10
-2.39653e-09
-7.58079e-10
-2.21649e-09
-7.78926e-10
-2.00447e-09
-9.9812e-10
-1.79832e-09
-1.14257e-09
-1.51574e-09
-1.34893e-09
-1.33821e-09
-1.35773e-09
-1.17363e-09
-1.33005e-09
-1.03709e-09
-1.54147e-09
-8.52029e-10
-1.22568e-09
-6.34698e-10
-1.0165e-09
-3.46665e-10
-6.29834e-10
-5.63321e-11
-2.33858e-10
1.54963e-10
1.89296e-10
1.92413e-10
4.56607e-10
2.01289e-10
4.73804e-10
2.04003e-10
4.28367e-10
1.45939e-10
4.00853e-10
8.78733e-11
4.04304e-10
5.52202e-11
3.96728e-10
1.22912e-11
3.4904e-10
-3.50895e-11
3.3231e-10
-9.47424e-11
1.75577e-10
-1.73995e-10
9.48591e-11
-2.62787e-10
-2.80956e-11
-2.16838e-10
-1.48832e-10
-2.03289e-11
-3.83989e-10
1.05961e-10
-1.83565e-10
2.39047e-10
-1.89257e-10
2.8107e-10
-2.02704e-10
2.41657e-10
-1.97129e-10
-2.27509e-11
-1.51171e-10
-2.79907e-10
2.47421e-11
-5.19667e-10
9.13921e-10
-5.39582e-10
1.20595e-09
1.93596e-15
-2.18879e-09
-5.28211e-18
3.5795e-18
-3.52909e-18
3.5493e-18
-2.19679e-18
2.07296e-18
-1.4832e-18
1.18086e-18
-1.08215e-18
5.75907e-19
-8.15081e-19
1.53053e-19
-6.01455e-19
-1.48106e-19
-4.07136e-19
-3.64035e-19
-2.18742e-19
-5.16446e-19
-3.23592e-20
-6.18625e-19
1.51472e-19
-6.79434e-19
3.30305e-19
-7.05548e-19
5.01052e-19
-7.02557e-19
6.60565e-19
-6.75436e-19
8.05974e-19
-6.28756e-19
9.34863e-19
-5.6673e-19
1.04534e-18
-4.93201e-19
1.13607e-18
-4.11616e-19
1.20624e-18
-3.24999e-19
1.25556e-18
-2.35961e-19
1.2843e-18
-1.46749e-19
1.29325e-18
-5.93023e-20
1.28364e-18
2.47442e-20
1.25694e-18
1.04092e-19
1.21473e-18
1.7781e-19
1.15856e-18
2.45321e-19
1.09e-18
3.06353e-19
1.01053e-18
3.6088e-19
9.21579e-19
4.09065e-19
8.24409e-19
4.51197e-19
7.20161e-19
4.87615e-19
6.09856e-19
5.18632e-19
4.9443e-19
5.44457e-19
3.74765e-19
5.65161e-19
2.5172e-19
5.80693e-19
1.26201e-19
5.90951e-19
5.9589e-19
-5.05867e-10
4.46592e-10
-6.77269e-10
4.36155e-10
-6.20916e-10
4.22721e-10
-5.78012e-10
4.89635e-10
-6.131e-10
3.70379e-10
-9.1013e-10
4.23401e-10
-1.13765e-09
3.687e-10
-1.16302e-09
2.57603e-10
-1.29222e-09
2.76477e-10
-1.37495e-09
2.12003e-10
-1.44486e-09
2.0215e-10
-1.61687e-09
3.87969e-10
-1.7592e-09
5.87083e-10
-1.90502e-09
7.9096e-10
-2.01445e-09
1.04332e-09
-2.05467e-09
1.21131e-09
-2.10631e-09
1.2804e-09
-2.14994e-09
1.21814e-09
-2.16933e-09
1.11934e-09
-2.25751e-09
9.81449e-10
-2.33672e-09
8.69878e-10
-2.41923e-09
8.56762e-10
-2.48551e-09
6.87426e-10
-2.62058e-09
5.58527e-10
-2.78179e-09
6.78035e-10
-2.9046e-09
7.20561e-10
-3.03161e-09
6.41076e-10
-3.16985e-09
7.84255e-10
-3.23474e-09
7.40151e-10
-3.32935e-09
7.09187e-10
-3.36563e-09
6.93074e-10
-3.36908e-09
6.01917e-10
-3.32233e-09
4.192e-10
-3.2387e-09
3.01627e-10
-3.13965e-09
2.39251e-10
-3.16446e-09
4.89034e-11
-3.07092e-09
-1.04919e-10
-2.97283e-09
-1.90761e-10
-2.93745e-09
-3.02343e-10
-3.00404e-09
-5.28897e-10
-2.98167e-09
-5.71128e-10
-2.89763e-09
-8.12734e-10
-2.79524e-09
-1.04472e-09
-2.76236e-09
-1.10549e-09
-2.72762e-09
-1.21589e-09
-2.67109e-09
-1.29216e-09
-2.59835e-09
-1.14637e-09
-2.66957e-09
-9.01839e-10
-2.60845e-09
-8.19195e-10
-2.50019e-09
-8.87187e-10
-2.15808e-09
-1.34024e-09
-1.88542e-09
-1.41522e-09
-1.52948e-09
-1.70488e-09
-1.27601e-09
-1.6112e-09
-1.07721e-09
-1.52885e-09
-1.06168e-09
-1.557e-09
-9.57171e-10
-1.33019e-09
-8.05348e-10
-1.16832e-09
-5.85971e-10
-8.49208e-10
-3.83856e-10
-4.35969e-10
-9.97388e-11
-9.48179e-11
9.4426e-11
2.62446e-10
1.40134e-10
4.281e-10
1.82458e-10
3.86046e-10
1.85471e-10
3.97843e-10
1.89856e-10
3.99922e-10
2.02665e-10
3.83922e-10
1.9489e-10
3.56816e-10
2.07679e-10
3.19523e-10
2.32593e-10
1.50665e-10
2.82569e-10
4.48846e-11
3.31593e-10
-7.71191e-11
3.73733e-10
-1.90971e-10
2.53549e-10
-2.63804e-10
2.79538e-10
-2.09555e-10
3.0826e-10
-2.17981e-10
3.16865e-10
-2.1131e-10
2.61274e-10
-1.4154e-10
1.60366e-11
9.40664e-11
-4.25178e-10
4.65955e-10
-3.3467e-10
8.2341e-10
9.14157e-11
7.79866e-10
2.14564e-15
-2.09738e-09
-9.14227e-18
-6.45956e-18
-5.00474e-18
-5.88536e-19
-3.08861e-18
1.53312e-19
-2.08815e-18
1.77114e-19
-1.505e-18
-1.00552e-20
-1.11624e-18
-2.38189e-19
-8.17384e-19
-4.49215e-19
-5.59546e-19
-6.24077e-19
-3.20921e-19
-7.57483e-19
-9.31679e-20
-8.4921e-19
1.25357e-19
-9.01297e-19
3.33296e-19
-9.171e-19
5.28172e-19
-9.00823e-19
7.07246e-19
-8.57161e-19
8.68e-19
-7.91034e-19
1.00839e-18
-7.07338e-19
1.12693e-18
-6.10738e-19
1.22269e-18
-5.05505e-19
1.29528e-18
-3.95396e-19
1.34477e-18
-2.83583e-19
1.37174e-18
-1.72681e-19
1.37729e-18
-6.48344e-20
1.36298e-18
3.82094e-20
1.33066e-18
1.35089e-19
1.28224e-18
2.24835e-19
1.2196e-18
3.06848e-19
1.14453e-18
3.80857e-19
1.05872e-18
4.46843e-19
9.6371e-19
5.04988e-19
8.60827e-19
5.55612e-19
7.51178e-19
5.99105e-19
6.35681e-19
6.3585e-19
5.15134e-19
6.66157e-19
3.90297e-19
6.90217e-19
2.61978e-19
7.08111e-19
1.3114e-19
7.19871e-19
7.25558e-19
-2.55253e-10
7.01847e-10
-6.04923e-10
7.85828e-10
-9.41194e-10
7.58995e-10
-1.04184e-09
5.90284e-10
-1.02729e-09
3.5583e-10
-1.11253e-09
5.08646e-10
-1.29511e-09
5.51279e-10
-1.41333e-09
3.75826e-10
-1.53803e-09
4.01168e-10
-1.66139e-09
3.35361e-10
-1.76779e-09
3.08554e-10
-1.90023e-09
5.20409e-10
-2.00441e-09
6.9126e-10
-2.13557e-09
9.22112e-10
-2.17796e-09
1.08571e-09
-2.16284e-09
1.19619e-09
-2.15894e-09
1.27649e-09
-2.18308e-09
1.24228e-09
-2.17662e-09
1.11289e-09
-2.22038e-09
1.02521e-09
-2.2681e-09
9.17605e-10
-2.31313e-09
9.01788e-10
-2.40814e-09
7.82437e-10
-2.57906e-09
7.29453e-10
-2.69675e-09
7.95717e-10
-2.7792e-09
8.03017e-10
-2.90059e-09
7.62462e-10
-2.98035e-09
8.64014e-10
-3.04768e-09
8.07483e-10
-3.08058e-09
7.4209e-10
-3.0549e-09
6.67393e-10
-2.96992e-09
5.16937e-10
-2.92549e-09
3.74769e-10
-2.8664e-09
2.42532e-10
-2.76021e-09
1.33055e-10
-2.71273e-09
1.4262e-12
-2.70914e-09
-1.08508e-10
-2.60985e-09
-2.9005e-10
-2.57929e-09
-3.32906e-10
-2.66291e-09
-4.4528e-10
-2.65964e-09
-5.74404e-10
-2.60013e-09
-8.72243e-10
-2.57507e-09
-1.06979e-09
-2.61179e-09
-1.06877e-09
-2.56772e-09
-1.25997e-09
-2.62854e-09
-1.23134e-09
-2.73723e-09
-1.03769e-09
-2.78918e-09
-8.49889e-10
-2.76282e-09
-8.4555e-10
-2.57793e-09
-1.07208e-09
-2.16719e-09
-1.75098e-09
-1.86695e-09
-1.71546e-09
-1.46247e-09
-2.10936e-09
-1.18196e-09
-1.8917e-09
-9.64722e-10
-1.74609e-09
-9.281e-10
-1.59362e-09
-8.66577e-10
-1.39171e-09
-8.80034e-10
-1.15486e-09
-8.39797e-10
-8.89441e-10
-6.58267e-10
-6.17496e-10
-4.30377e-10
-3.22705e-10
-1.81287e-10
1.33597e-11
1.16406e-11
2.35176e-10
1.55195e-10
2.42495e-10
1.9577e-10
3.57271e-10
2.89866e-10
3.05828e-10
3.40945e-10
3.32845e-10
4.37974e-10
2.59789e-10
4.96429e-10
2.61069e-10
5.12959e-10
1.34135e-10
5.55923e-10
1.92253e-12
5.6347e-10
-8.46652e-11
6.24698e-10
-2.52199e-10
6.32077e-10
-2.71182e-10
5.97671e-10
-1.7515e-10
5.88966e-10
-2.09276e-10
5.64541e-10
-1.86887e-10
4.98895e-10
-7.58957e-11
3.8832e-10
2.0464e-10
4.91365e-10
3.62907e-10
8.26179e-10
4.88593e-10
7.9483e-10
8.11211e-10
1.92307e-15
-1.30256e-09
-5.98638e-18
-6.78107e-18
-4.26239e-18
-2.31414e-18
-3.06445e-18
-1.04915e-18
-2.27532e-18
-6.16379e-19
-1.73314e-18
-5.55982e-19
-1.32727e-18
-6.47192e-19
-9.92246e-19
-7.86637e-19
-6.92953e-19
-9.25208e-19
-4.12648e-19
-1.03936e-18
-1.45254e-19
-1.11831e-18
1.09553e-19
-1.15833e-18
3.49574e-19
-1.15985e-18
5.71834e-19
-1.12594e-18
7.73373e-19
-1.06122e-18
9.51696e-19
-9.71116e-19
1.10499e-18
-8.61369e-19
1.23216e-18
-7.37573e-19
1.3328e-18
-6.04911e-19
1.40709e-18
-4.67943e-19
1.45567e-18
-3.30466e-19
1.47959e-18
-1.95501e-19
1.48034e-18
-6.54025e-20
1.45986e-18
5.801e-20
1.42041e-18
1.73371e-19
1.36425e-18
2.79734e-19
1.2936e-18
3.76546e-19
1.21051e-18
4.63585e-19
1.11686e-18
5.40899e-19
1.01433e-18
6.08742e-19
9.0432e-19
6.6751e-19
7.87923e-19
7.17684e-19
6.65988e-19
7.59756e-19
5.39194e-19
7.94168e-19
4.08191e-19
8.21259e-19
2.73738e-19
8.41271e-19
1.36828e-19
8.54385e-19
8.60771e-19
-1.88961e-10
8.9081e-10
-4.6362e-10
1.06049e-09
-6.67643e-10
9.63022e-10
-9.02829e-10
8.25472e-10
-1.24885e-09
7.01849e-10
-1.45717e-09
7.1697e-10
-1.5729e-09
6.67007e-10
-1.73679e-09
5.39721e-10
-1.84592e-09
5.10299e-10
-1.94029e-09
4.29727e-10
-2.0218e-09
3.90061e-10
-2.10974e-09
6.08351e-10
-2.1608e-09
7.4232e-10
-2.19857e-09
9.59882e-10
-2.21718e-09
1.10431e-09
-2.18113e-09
1.16014e-09
-2.14334e-09
1.23871e-09
-2.17705e-09
1.27599e-09
-2.17465e-09
1.11049e-09
-2.19242e-09
1.04298e-09
-2.23723e-09
9.62418e-10
-2.24748e-09
9.12034e-10
-2.33007e-09
8.65033e-10
-2.49113e-09
8.90513e-10
-2.56522e-09
8.69804e-10
-2.62131e-09
8.59108e-10
-2.7255e-09
8.66649e-10
-2.73933e-09
8.77848e-10
-2.77127e-09
8.39422e-10
-2.75222e-09
7.2304e-10
-2.69112e-09
6.06291e-10
-2.60464e-09
4.30455e-10
-2.53228e-09
3.02405e-10
-2.47311e-09
1.83364e-10
-2.43449e-09
9.44269e-11
-2.44388e-09
1.08185e-11
-2.42692e-09
-1.25465e-10
-2.3516e-09
-3.6538e-10
-2.29949e-09
-3.85013e-10
-2.28931e-09
-4.55469e-10
-2.29435e-09
-5.69367e-10
-2.37049e-09
-7.96107e-10
-2.46826e-09
-9.72019e-10
-2.56851e-09
-9.68518e-10
-2.59805e-09
-1.23044e-09
-2.67225e-09
-1.15714e-09
-2.75434e-09
-9.55599e-10
-2.76749e-09
-8.36746e-10
-2.78848e-09
-8.24557e-10
-2.48019e-09
-1.38037e-09
-2.23159e-09
-1.99958e-09
-1.85573e-09
-2.09132e-09
-1.6289e-09
-2.33619e-09
-1.30744e-09
-2.21315e-09
-9.41198e-10
-2.11233e-09
-8.29876e-10
-1.70494e-09
-8.91399e-10
-1.33018e-09
-9.85203e-10
-1.06105e-09
-1.0031e-09
-8.71541e-10
-9.18456e-10
-7.02136e-10
-7.37735e-10
-5.03423e-10
-4.69651e-10
-2.54721e-10
-1.6277e-10
-7.17032e-11
9.30422e-12
7.04236e-11
2.48877e-10
1.177e-10
3.72593e-10
1.82113e-10
5.52895e-10
1.52546e-10
6.69921e-10
1.42764e-10
7.13826e-10
2.17165e-10
7.81618e-10
6.63448e-11
8.39632e-10
-5.60907e-11
8.82654e-10
-1.27687e-10
8.45389e-10
-2.14934e-10
8.32484e-10
-2.58278e-10
8.30036e-10
-1.72703e-10
7.51248e-10
-1.3049e-10
6.88615e-10
-1.24255e-10
6.06616e-10
6.10122e-12
5.70103e-10
2.41152e-10
6.01831e-10
3.31178e-10
5.47229e-10
5.43192e-10
6.07365e-10
7.5107e-10
1.43449e-15
-6.95199e-10
-3.10093e-18
-5.44854e-18
-2.99697e-18
-2.42095e-18
-2.63131e-18
-1.41972e-18
-2.21492e-18
-1.03742e-18
-1.82435e-18
-9.50557e-19
-1.46671e-18
-1.00824e-18
-1.13082e-18
-1.12496e-18
-8.071e-19
-1.25038e-18
-4.91606e-19
-1.35554e-18
-1.85267e-19
-1.42509e-18
1.08028e-19
-1.45245e-18
3.8348e-19
-1.43678e-18
6.36562e-19
-1.38098e-18
8.63474e-19
-1.2902e-18
1.06144e-18
-1.17088e-18
1.22879e-18
-1.0299e-18
1.36482e-18
-8.74012e-19
1.46976e-18
-7.0944e-19
1.54457e-18
-5.4164e-19
1.59064e-18
-3.75111e-19
1.60969e-18
-2.13337e-19
1.60375e-18
-5.88979e-20
1.57523e-18
8.63476e-20
1.52677e-18
2.21104e-19
1.46106e-18
3.44549e-19
1.38064e-18
4.56267e-19
1.28783e-18
5.56185e-19
1.18471e-18
6.44496e-19
1.0731e-18
7.21593e-19
9.54493e-19
7.88009e-19
8.29996e-19
8.44361e-19
7.00399e-19
8.91285e-19
5.66285e-19
9.29378e-19
4.28203e-19
9.59154e-19
2.86852e-19
9.81028e-19
1.43213e-19
9.95337e-19
1.00236e-18
1.99163e-10
6.9165e-10
-5.43655e-11
1.31402e-09
-3.98229e-10
1.30689e-09
-6.96008e-10
1.12325e-09
-1.00039e-09
1.00623e-09
-1.30902e-09
1.0256e-09
-1.60558e-09
9.6357e-10
-1.80566e-09
7.39807e-10
-1.95961e-09
6.64246e-10
-2.13325e-09
6.03371e-10
-2.26473e-09
5.21534e-10
-2.28772e-09
6.31347e-10
-2.33805e-09
7.92645e-10
-2.29528e-09
9.17107e-10
-2.27238e-09
1.08142e-09
-2.23718e-09
1.12494e-09
-2.14166e-09
1.14318e-09
-2.11871e-09
1.25304e-09
-2.16214e-09
1.15392e-09
-2.15414e-09
1.03498e-09
-2.18508e-09
9.93361e-10
-2.20635e-09
9.33306e-10
-2.24421e-09
9.0289e-10
-2.34579e-09
9.92094e-10
-2.4065e-09
9.3051e-10
-2.44904e-09
9.01645e-10
-2.47623e-09
8.93848e-10
-2.45183e-09
8.53442e-10
-2.41287e-09
8.00465e-10
-2.35018e-09
6.6035e-10
-2.26063e-09
5.16735e-10
-2.22673e-09
3.96553e-10
-2.17671e-09
2.52392e-10
-2.09577e-09
1.02417e-10
-2.03291e-09
3.15635e-11
-2.01099e-09
-1.1103e-11
-2.02306e-09
-1.13395e-10
-2.08026e-09
-3.08188e-10
-2.05446e-09
-4.10817e-10
-2.03751e-09
-4.72426e-10
-2.04191e-09
-5.6497e-10
-2.01629e-09
-8.21727e-10
-2.08125e-09
-9.07066e-10
-2.22924e-09
-8.20523e-10
-2.35718e-09
-1.1025e-09
-2.55179e-09
-9.62534e-10
-2.65871e-09
-8.48678e-10
-2.6843e-09
-8.11161e-10
-2.60167e-09
-9.07189e-10
-2.27919e-09
-1.70285e-09
-2.17409e-09
-2.10468e-09
-2.02913e-09
-2.23628e-09
-1.90631e-09
-2.45901e-09
-1.56975e-09
-2.5497e-09
-1.30316e-09
-2.37891e-09
-1.24138e-09
-1.76672e-09
-1.2199e-09
-1.35167e-09
-1.22077e-09
-1.06018e-09
-1.18672e-09
-9.05591e-10
-1.1822e-09
-7.06648e-10
-1.03842e-09
-6.47206e-10
-7.9934e-10
-4.938e-10
-4.39202e-10
-4.31839e-10
-1.32273e-10
-2.36503e-10
1.82691e-10
-1.97262e-10
3.41577e-10
2.32285e-11
5.81231e-10
-8.71072e-11
7.14074e-10
9.92255e-12
9.01216e-10
3.00246e-11
9.55346e-10
1.22164e-11
9.94557e-10
-9.53015e-11
1.00227e-09
-1.35396e-10
9.54e-10
-1.66669e-10
8.94368e-10
-1.98648e-10
8.86275e-10
-1.64612e-10
8.5671e-10
-1.00927e-10
7.63602e-10
-3.11489e-11
7.08901e-10
6.07999e-11
7.26811e-10
2.2324e-10
7.46015e-10
3.11972e-10
8.77336e-10
4.11867e-10
9.38314e-10
6.90086e-10
6.13812e-16
2.43111e-10
-4.77914e-19
1.97913e-18
-1.99528e-18
-9.06815e-19
-2.24862e-18
-1.17048e-18
-2.12806e-18
-1.16176e-18
-1.88203e-18
-1.19982e-18
-1.58343e-18
-1.30985e-18
-1.25623e-18
-1.45442e-18
-9.1226e-19
-1.59544e-18
-5.61159e-19
-1.70658e-18
-2.12624e-19
-1.77291e-18
1.23691e-19
-1.78823e-18
4.39284e-19
-1.75253e-18
7.27339e-19
-1.66991e-18
9.82794e-19
-1.54707e-18
1.20242e-18
-1.39213e-18
1.38468e-18
-1.21361e-18
1.5294e-18
-1.01975e-18
1.63756e-18
-8.18006e-19
1.71109e-18
-6.14819e-19
1.75241e-18
-4.15439e-19
1.76413e-18
-2.23845e-19
1.74899e-18
-4.28433e-20
1.70998e-18
1.25713e-19
1.65021e-18
2.80693e-19
1.57278e-18
4.21518e-19
1.48056e-18
5.48043e-19
1.37614e-18
6.60461e-19
1.2618e-18
7.59215e-19
1.13952e-18
8.44923e-19
1.01084e-18
9.18321e-19
8.7692e-19
9.80209e-19
7.38492e-19
1.0314e-18
5.9606e-19
1.07268e-18
4.50077e-19
1.10474e-18
3.01161e-19
1.12819e-18
1.50231e-19
1.1435e-18
1.15106e-18
-1.56917e-10
8.4857e-10
-1.90118e-10
1.34723e-09
-3.40492e-10
1.45727e-09
-6.50198e-10
1.43296e-09
-9.73271e-10
1.32931e-09
-1.27383e-09
1.32616e-09
-1.58793e-09
1.27767e-09
-1.82501e-09
9.76882e-10
-1.99891e-09
8.3815e-10
-2.14401e-09
7.48473e-10
-2.26585e-09
6.43377e-10
-2.33471e-09
7.002e-10
-2.40121e-09
8.59146e-10
-2.37939e-09
8.95286e-10
-2.31835e-09
1.02038e-09
-2.28349e-09
1.09008e-09
-2.23669e-09
1.09638e-09
-2.17012e-09
1.18646e-09
-2.16043e-09
1.14423e-09
-2.14652e-09
1.02107e-09
-2.15343e-09
1.00027e-09
-2.16598e-09
9.45858e-10
-2.1726e-09
9.09506e-10
-2.16543e-09
9.84921e-10
-2.19551e-09
9.60594e-10
-2.2005e-09
9.06635e-10
-2.18232e-09
8.75668e-10
-2.14134e-09
8.12459e-10
-2.04928e-09
7.08406e-10
-1.92371e-09
5.34781e-10
-1.82024e-09
4.13263e-10
-1.73669e-09
3.13002e-10
-1.72446e-09
2.40161e-10
-1.74344e-09
1.21403e-10
-1.68931e-09
-2.2575e-11
-1.63338e-09
-6.70281e-11
-1.64311e-09
-1.03671e-10
-1.70576e-09
-2.45541e-10
-1.75111e-09
-3.6547e-10
-1.76657e-09
-4.56971e-10
-1.719e-09
-6.12549e-10
-1.74724e-09
-7.93488e-10
-1.92062e-09
-7.3369e-10
-1.98598e-09
-7.55163e-10
-2.11748e-09
-9.71e-10
-2.24837e-09
-8.31645e-10
-2.28377e-09
-8.13282e-10
-2.34316e-09
-7.51773e-10
-2.24125e-09
-1.0091e-09
-2.19072e-09
-1.75338e-09
-2.16624e-09
-2.12915e-09
-2.12848e-09
-2.27404e-09
-2.04462e-09
-2.54287e-09
-2.00438e-09
-2.58993e-09
-1.8865e-09
-2.4968e-09
-1.69516e-09
-1.95805e-09
-1.55758e-09
-1.48924e-09
-1.45948e-09
-1.15828e-09
-1.42079e-09
-9.44271e-10
-1.37925e-09
-7.48189e-10
-1.24275e-09
-7.83706e-10
-1.08857e-09
-6.47977e-10
-8.2729e-10
-6.93121e-10
-4.8523e-10
-5.78562e-10
-1.71421e-10
-5.1107e-10
1.60966e-10
-3.09157e-10
3.64269e-10
-2.90409e-10
5.48891e-10
-1.74698e-10
7.53525e-10
-1.74608e-10
8.76937e-10
-1.11196e-10
9.48699e-10
-1.67063e-10
9.63479e-10
-1.50177e-10
9.35284e-10
-1.38475e-10
9.00458e-10
-1.63825e-10
8.91568e-10
-1.55726e-10
8.57565e-10
-6.69263e-11
8.03269e-10
2.31437e-11
7.59163e-10
1.04904e-10
7.09397e-10
2.73004e-10
6.39355e-10
3.82011e-10
5.92521e-10
4.58697e-10
5.89106e-10
6.93497e-10
-5.97386e-17
8.32215e-10
-2.4893e-18
1.93187e-18
-2.2584e-18
-1.14025e-18
-2.2395e-18
-1.19164e-18
-2.16611e-18
-1.23691e-18
-1.99206e-18
-1.37579e-18
-1.728e-18
-1.5761e-18
-1.39726e-18
-1.78699e-18
-1.02339e-18
-1.97006e-18
-6.27494e-19
-2.10192e-18
-2.27947e-19
-2.17094e-18
1.59396e-19
-2.174e-18
5.21903e-19
-2.11404e-18
8.50175e-19
-1.99799e-18
1.13774e-18
-1.83529e-18
1.38094e-18
-1.63658e-18
1.57854e-18
-1.4127e-18
1.73114e-18
-1.17376e-18
1.84075e-18
-9.28686e-19
1.91047e-18
-6.84982e-19
1.94401e-18
-4.48632e-19
1.94513e-18
-2.24069e-19
1.91755e-18