/*--------------------------------*- C++ -*----------------------------------*\
  =========                 |
  \\      /  F ield         | OpenFOAM: The Open Source CFD Toolbox
   \\    /   O peration     | Website:  https://openfoam.org
    \\  /    A nd           | Version:  6
     \\/     M anipulation  |
\*---------------------------------------------------------------------------*/
FoamFile
{
    version     2.0;
    format      ascii;
    class       volScalarField;
    location    "3700";
    object      T;
}
// * * * * * * * * * * * * * * * * * * * * * * * * * * * * * * * * * * * * * //

dimensions      [0 0 0 1 0 0 0];

internalField   nonuniform List<scalar> 
4800
(
552.487
552.363
552.238
552.115
551.994
551.877
551.763
551.653
551.546
551.443
551.344
551.248
551.156
551.066
550.978
550.894
550.812
550.734
550.659
550.588
550.52
550.455
550.394
550.337
550.282
550.23
550.18
550.132
550.086
550.041
549.997
549.954
549.912
549.871
549.831
549.791
549.751
549.712
549.672
549.632
549.592
549.55
549.508
549.465
549.42
549.373
549.324
549.273
549.221
549.166
549.109
549.05
548.988
548.925
548.858
548.788
548.714
548.633
548.547
548.453
548.353
548.247
548.134
548.016
547.893
547.764
547.631
547.493
547.35
547.203
547.05
546.893
546.73
546.561
546.388
546.209
546.024
545.833
545.636
545.434
545.228
545.026
544.845
544.723
544.625
544.531
544.435
544.335
544.232
544.125
544.015
543.904
543.791
543.677
543.562
543.446
543.33
543.213
543.096
542.978
542.86
542.742
542.623
542.505
542.386
542.268
542.149
542.031
541.912
541.794
541.675
541.557
541.438
541.32
541.201
541.083
540.965
540.846
540.728
540.609
552.487
552.361
552.236
552.113
551.992
551.874
551.76
551.65
551.543
551.441
551.342
551.246
551.153
551.064
550.977
550.893
550.812
550.734
550.659
550.588
550.521
550.458
550.398
550.342
550.288
550.236
550.186
550.138
550.092
550.047
550.003
549.961
549.919
549.879
549.838
549.799
549.76
549.72
549.681
549.641
549.601
549.559
549.517
549.473
549.428
549.38
549.331
549.279
549.226
549.17
549.112
549.052
548.99
548.925
548.858
548.787
548.711
548.631
548.544
548.451
548.352
548.246
548.134
548.017
547.894
547.766
547.633
547.495
547.352
547.206
547.054
546.898
546.737
546.571
546.399
546.222
546.038
545.849
545.652
545.447
545.23
545.003
544.785
544.698
544.619
544.533
544.438
544.338
544.234
544.127
544.017
543.905
543.792
543.678
543.563
543.447
543.33
543.213
543.096
542.978
542.86
542.742
542.623
542.505
542.387
542.268
542.15
542.031
541.912
541.794
541.675
541.557
541.438
541.32
541.201
541.083
540.965
540.846
540.728
540.609
552.487
552.36
552.234
552.11
551.989
551.87
551.756
551.645
551.539
551.436
551.337
551.242
551.15
551.061
550.975
550.892
550.812
550.736
550.663
550.594
550.528
550.466
550.408
550.352
550.299
550.248
550.198
550.151
550.105
550.06
550.017
549.975
549.934
549.894
549.855
549.816
549.777
549.738
549.699
549.66
549.619
549.578
549.535
549.49
549.444
549.395
549.345
549.292
549.237
549.18
549.121
549.059
548.995
548.928
548.859
548.786
548.709
548.627
548.541
548.448
548.35
548.245
548.134
548.017
547.895
547.767
547.635
547.498
547.356
547.211
547.061
546.907
546.748
546.585
546.415
546.24
546.058
545.869
545.671
545.462
545.233
544.965
544.594
544.664
544.62
544.541
544.447
544.345
544.24
544.131
544.02
543.908
543.794
543.679
543.564
543.448
543.331
543.214
543.096
542.978
542.86
542.742
542.624
542.505
542.387
542.268
542.15
542.031
541.913
541.794
541.676
541.557
541.438
541.32
541.202
541.083
540.965
540.846
540.728
540.609
552.486
552.359
552.232
552.107
551.985
551.866
551.751
551.64
551.534
551.431
551.333
551.239
551.148
551.06
550.975
550.894
550.816
550.741
550.671
550.604
550.541
550.48
550.423
550.369
550.316
550.266
550.217
550.17
550.125
550.081
550.039
549.998
549.958
549.919
549.88
549.842
549.804
549.766
549.727
549.688
549.647
549.606
549.562
549.516
549.468
549.418
549.366
549.311
549.254
549.195
549.134
549.071
549.005
548.936
548.864
548.788
548.709
548.625
548.538
548.445
548.346
548.242
548.132
548.017
547.896
547.77
547.639
547.503
547.363
547.218
547.069
546.917
546.76
546.598
546.431
546.258
546.078
545.891
545.695
545.489
545.271
545.043
544.833
544.743
544.657
544.563
544.462
544.356
544.247
544.136
544.024
543.911
543.796
543.681
543.565
543.449
543.332
543.215
543.097
542.979
542.861
542.742
542.624
542.506
542.387
542.268
542.15
542.031
541.913
541.794
541.676
541.557
541.439
541.32
541.202
541.083
540.965
540.846
540.728
540.609
552.485
552.357
552.229
552.104
551.982
551.863
551.747
551.636
551.53
551.428
551.331
551.238
551.148
551.062
550.979
550.9
550.824
550.753
550.685
550.62
550.559
550.5
550.445
550.392
550.34
550.291
550.243
550.197
550.153
550.111
550.069
550.03
549.991
549.953
549.916
549.879
549.841
549.804
549.765
549.726
549.685
549.642
549.598
549.551
549.502
549.45
549.395
549.338
549.278
549.218
549.155
549.09
549.022
548.951
548.875
548.796
548.713
548.627
548.537
548.442
548.344
548.24
548.13
548.016
547.896
547.772
547.643
547.509
547.37
547.227
547.08
546.929
546.773
546.613
546.447
546.275
546.098
545.913
545.72
545.521
545.319
545.122
544.95
544.817
544.702
544.591
544.48
544.368
544.256
544.143
544.029
543.915
543.799
543.683
543.567
543.45
543.333
543.215
543.098
542.98
542.861
542.743
542.624
542.506
542.387
542.269
542.15
542.032
541.913
541.794
541.676
541.557
541.439
541.32
541.202
541.083
540.965
540.846
540.728
540.609
552.484
552.354
552.227
552.102
551.979
551.86
551.745
551.635
551.529
551.429
551.332
551.24
551.152
551.068
550.988
550.911
550.839
550.77
550.705
550.643
550.584
550.527
550.473
550.422
550.372
550.323
550.277
550.233
550.19
550.149
550.109
550.071
550.033
549.997
549.96
549.924
549.888
549.85
549.812
549.773
549.731
549.688
549.642
549.594
549.543
549.489
549.432
549.372
549.311
549.248
549.184
549.117
549.046
548.972
548.894
548.811
548.724
548.634
548.54
548.443
548.342
548.238
548.129
548.015
547.896
547.773
547.646
547.514
547.378
547.237
547.092
546.942
546.788
546.628
546.464
546.293
546.117
545.935
545.747
545.555
545.365
545.184
545.02
544.872
544.74
544.617
544.498
544.381
544.265
544.15
544.034
543.918
543.802
543.686
543.569
543.452
543.334
543.217
543.098
542.98
542.862
542.744
542.625
542.506
542.388
542.269
542.151
542.032
541.913
541.795
541.676
541.558
541.439
541.32
541.202
541.083
540.965
540.846
540.728
540.609
552.485
552.355
552.226
552.101
551.979
551.861
551.746
551.637
551.532
551.433
551.338
551.248
551.163
551.081
551.003
550.93
550.86
550.794
550.731
550.672
550.615
550.561
550.509
550.459
550.41
550.364
550.319
550.276
550.235
550.196
550.158
550.121
550.085
550.05
550.014
549.979
549.943
549.906
549.868
549.828
549.786
549.742
549.696
549.646
549.593
549.537
549.478
549.416
549.353
549.288
549.222
549.153
549.08
549.002
548.92
548.833
548.741
548.646
548.548
548.447
548.343
548.237
548.127
548.013
547.896
547.774
547.648
547.518
547.383
547.245
547.101
546.953
546.8
546.642
546.478
546.309
546.135
545.956
545.773
545.588
545.406
545.23
545.064
544.909
544.768
544.637
544.513
544.392
544.273
544.156
544.039
543.922
543.805
543.688
543.571
543.453
543.336
543.218
543.099
542.981
542.863
542.744
542.626
542.507
542.388
542.27
542.151
542.032
541.914
541.795
541.676
541.558
541.439
541.321
541.202
541.083
540.965
540.846
540.728
540.609
552.486
552.357
552.229
552.104
551.982
551.864
551.751
551.643
551.54
551.443
551.35
551.263
551.179
551.1
551.026
550.955
550.888
550.825
550.765
550.708
550.654
550.602
550.552
550.504
550.457
550.413
550.37
550.329
550.29
550.252
550.216
550.181
550.146
550.112
550.077
550.042
550.007
549.97
549.932
549.892
549.849
549.805
549.757
549.706
549.652
549.594
549.533
549.469
549.405
549.339
549.271
549.199
549.122
549.041
548.954
548.862
548.765
548.665
548.561
548.455
548.348
548.238
548.127
548.012
547.894
547.773
547.648
547.519
547.386
547.248
547.106
546.959
546.806
546.649
546.487
546.32
546.147
545.971
545.791
545.611
545.432
545.257
545.089
544.931
544.785
544.65
544.522
544.399
544.279
544.16
544.042
543.925
543.808
543.69
543.572
543.455
543.337
543.219
543.1
542.982
542.863
542.745
542.626
542.508
542.389
542.27
542.151
542.033
541.914
541.795
541.677
541.558
541.439
541.321
541.202
541.084
540.965
540.846
540.728
540.609
552.487
552.36
552.235
552.111
551.99
551.873
551.762
551.655
551.554
551.459
551.369
551.284
551.203
551.127
551.056
550.988
550.924
550.864
550.807
550.752
550.701
550.651
550.603
550.557
550.513
550.47
550.429
550.39
550.353
550.317
550.283
550.249
550.216
550.182
550.148
550.114
550.078
550.042
550.004
549.963
549.921
549.876
549.827
549.775
549.72
549.66
549.598
549.533
549.468
549.401
549.331
549.255
549.175
549.089
548.997
548.899
548.797
548.691
548.582
548.471
548.359
548.245
548.13
548.012
547.893
547.771
547.645
547.516
547.383
547.246
547.104
546.958
546.806
546.65
546.488
546.323
546.152
545.978
545.801
545.622
545.445
545.269
545.099
544.937
544.79
544.654
544.526
544.403
544.282
544.163
544.045
543.927
543.809
543.692
543.574
543.456
543.338
543.219
543.101
542.983
542.864
542.745
542.627
542.508
542.389
542.271
542.152
542.033
541.914
541.796
541.677
541.558
541.44
541.321
541.202
541.084
540.965
540.847
540.728
540.609
552.488
552.363
552.24
552.119
552
551.886
551.776
551.673
551.574
551.482
551.394
551.312
551.235
551.162
551.093
551.029
550.968
550.91
550.856
550.804
550.755
550.707
550.662
550.618
550.576
550.536
550.497
550.46
550.425
550.391
550.358
550.325
550.293
550.26
550.227
550.193
550.158
550.122
550.083
550.043
550
549.955
549.906
549.853
549.797
549.737
549.674
549.609
549.542
549.474
549.401
549.322
549.238
549.147
549.05
548.946
548.839
548.727
548.613
548.496
548.378
548.258
548.138
548.016
547.893
547.768
547.64
547.509
547.375
547.238
547.096
546.949
546.798
546.642
546.482
546.318
546.149
545.976
545.801
545.623
545.444
545.266
545.092
544.928
544.782
544.649
544.524
544.403
544.283
544.164
544.046
543.928
543.811
543.693
543.575
543.457
543.339
543.22
543.102
542.983
542.865
542.746
542.627
542.509
542.39
542.271
542.152
542.034
541.915
541.796
541.677
541.559
541.44
541.321
541.203
541.084
540.965
540.847
540.728
540.609
552.488
552.366
552.245
552.127
552.012
551.902
551.796
551.695
551.6
551.511
551.426
551.347
551.273
551.203
551.138
551.076
551.018
550.963
550.912
550.863
550.816
550.771
550.728
550.687
550.647
550.609
550.573
550.538
550.505
550.472
550.441
550.409
550.378
550.346
550.313
550.28
550.245
550.208
550.17
550.13
550.087
550.042
549.992
549.939
549.883
549.823
549.76
549.695
549.628
549.558
549.482
549.401
549.313
549.218
549.116
549.008
548.894
548.777
548.656
548.533
548.408
548.282
548.155
548.027
547.897
547.767
547.635
547.501
547.365
547.225
547.082
546.935
546.784
546.628
546.468
546.305
546.137
545.966
545.792
545.614
545.433
545.251
545.069
544.898
544.76
544.636
544.517
544.399
544.282
544.164
544.047
543.929
543.811
543.693
543.575
543.457
543.339
543.221
543.102
542.984
542.865
542.747
542.628
542.509
542.39
542.272
542.153
542.034
541.915
541.797
541.678
541.559
541.44
541.322
541.203
541.084
540.965
540.847
540.728
540.609
552.49
552.371
552.253
552.139
552.028
551.921
551.819
551.722
551.63
551.544
551.464
551.388
551.317
551.251
551.189
551.13
551.075
551.023
550.974
550.928
550.884
550.841
550.801
550.762
550.725
550.689
550.656
550.623
550.591
550.56
550.53
550.5
550.469
550.438
550.406
550.373
550.338
550.302
550.264
550.224
550.182
550.136
550.087
550.034
549.978
549.918
549.856
549.791
549.723
549.652
549.575
549.492
549.402
549.304
549.198
549.085
548.966
548.843
548.716
548.586
548.454
548.32
548.184
548.048
547.911
547.773
547.635
547.496
547.355
547.213
547.067
546.918
546.765
546.609
546.45
546.287
546.12
545.95
545.777
545.599
545.417
545.227
545.03
544.835
544.723
544.617
544.507
544.394
544.279
544.163
544.046
543.929
543.811
543.693
543.575
543.457
543.339
543.221
543.103
542.984
542.866
542.747
542.628
542.51
542.391
542.272
542.153
542.035
541.916
541.797
541.678
541.559
541.441
541.322
541.203
541.084
540.966
540.847
540.728
540.609
552.492
552.377
552.264
552.153
552.046
551.943
551.845
551.752
551.665
551.583
551.506
551.434
551.366
551.303
551.244
551.189
551.137
551.088
551.042
550.999
550.957
550.917
550.88
550.844
550.809
550.776
550.744
550.713
550.683
550.654
550.625
550.595
550.565
550.535
550.504
550.471
550.437
550.401
550.364
550.324
550.282
550.237
550.188
550.136
550.081
550.022
549.96
549.896
549.828
549.756
549.678
549.594
549.503
549.404
549.296
549.18
549.057
548.928
548.794
548.657
548.517
548.374
548.229
548.083
547.937
547.79
547.643
547.497
547.35
547.203
547.053
546.901
546.747
546.589
546.429
546.266
546.099
545.93
545.758
545.581
545.398
545.203
544.982
544.687
544.68
544.601
544.5
544.39
544.277
544.161
544.045
543.928
543.81
543.693
543.575
543.457
543.339
543.221
543.103
542.984
542.866
542.747
542.629
542.51
542.391
542.273
542.154
542.035
541.916
541.797
541.679
541.56
541.441
541.322
541.203
541.084
540.966
540.847
540.728
540.609
552.494
552.384
552.275
552.169
552.066
551.967
551.873
551.784
551.701
551.623
551.55
551.481
551.418
551.358
551.303
551.251
551.202
551.156
551.113
551.072
551.034
550.997
550.962
550.929
550.896
550.866
550.836
550.807
550.779
550.751
550.723
550.695
550.666
550.636
550.606
550.574
550.54
550.505
550.468
550.429
550.387
550.343
550.295
550.244
550.19
550.133
550.072
550.008
549.94
549.869
549.791
549.708
549.617
549.518
549.41
549.293
549.167
549.034
548.894
548.75
548.601
548.448
548.293
548.136
547.978
547.821
547.665
547.51
547.356
547.201
547.046
546.89
546.732
546.572
546.409
546.245
546.079
545.91
545.739
545.564
545.384
545.197
545.001
544.803
544.707
544.607
544.5
544.389
544.275
544.159
544.043
543.926
543.809
543.691
543.574
543.456
543.338
543.22
543.102
542.984
542.866
542.747
542.629
542.51
542.392
542.273
542.154
542.035
541.917
541.798
541.679
541.56
541.441
541.322
541.204
541.085
540.966
540.847
540.728
540.609
552.497
552.39
552.286
552.183
552.085
551.99
551.9
551.816
551.737
551.663
551.593
551.529
551.469
551.413
551.361
551.312
551.267
551.224
551.184
551.146
551.111
551.077
551.045
551.014
550.985
550.956
550.929
550.902
550.875
550.849
550.822
550.795
550.768
550.739
550.709
550.678
550.646
550.611
550.575
550.537
550.496
550.453
550.407
550.357
550.304
550.248
550.189
550.127
550.06
549.99
549.914
549.832
549.743
549.646
549.54
549.424
549.297
549.161
549.016
548.865
548.707
548.543
548.376
548.207
548.038
547.87
547.704
547.54
547.376
547.214
547.051
546.888
546.725
546.561
546.395
546.229
546.061
545.892
545.722
545.55
545.376
545.2
545.026
544.864
544.737
544.62
544.505
544.39
544.274
544.157
544.041
543.924
543.807
543.69
543.572
543.455
543.337
543.22
543.102
542.984
542.866
542.747
542.629
542.511
542.392
542.273
542.155
542.036
541.917
541.798
541.679
541.56
541.442
541.323
541.204
541.085
540.966
540.847
540.728
540.609
552.499
552.397
552.296
552.198
552.103
552.012
551.927
551.846
551.77
551.699
551.633
551.572
551.516
551.463
551.415
551.369
551.327
551.288
551.251
551.217
551.184
551.153
551.124
551.096
551.069
551.044
551.018
550.994
550.969
550.945
550.92
550.894
550.868
550.841
550.812
550.782
550.751
550.718
550.683
550.646
550.607
550.565
550.52
550.472
550.421
550.368
550.311
550.251
550.187
550.119
550.045
549.965
549.88
549.787
549.684
549.571
549.446
549.309
549.16
549.001
548.834
548.66
548.481
548.299
548.118
547.939
547.763
547.59
547.417
547.245
547.073
546.902
546.731
546.561
546.39
546.22
546.05
545.88
545.71
545.54
545.371
545.204
545.042
544.891
544.756
544.63
544.509
544.39
544.272
544.155
544.038
543.921
543.804
543.687
543.57
543.453
543.336
543.218
543.101
542.983
542.865
542.747
542.629
542.511
542.392
542.274
542.155
542.036
541.917
541.798
541.68
541.561
541.442
541.323
541.204
541.085
540.966
540.847
540.728
540.609
552.5
552.401
552.304
552.209
552.118
552.03
551.947
551.87
551.797
551.729
551.666
551.608
551.555
551.505
551.46
551.418
551.379
551.343
551.31
551.278
551.249
551.221
551.195
551.17
551.146
551.123
551.101
551.078
551.056
551.034
551.011
550.988
550.963
550.938
550.911
550.882
550.853
550.821
550.788
550.753
550.715
550.675
550.632
550.587
550.539
550.488
550.434
550.377
550.316
550.252
550.182
550.107
550.026
549.938
549.841
549.733
549.612
549.475
549.322
549.157
548.981
548.797
548.606
548.412
548.22
548.031
547.846
547.663
547.481
547.298
547.116
546.935
546.755
546.576
546.398
546.222
546.047
545.874
545.703
545.534
545.368
545.207
545.051
544.903
544.764
544.634
544.51
544.389
544.269
544.151
544.034
543.917
543.8
543.684
543.567
543.451
543.334
543.217
543.1
542.982
542.865
542.747
542.629
542.511
542.392
542.274
542.155
542.036
541.918
541.799
541.68
541.561
541.442
541.323
541.204
541.085
540.966
540.847
540.728
540.609
552.501
552.405
552.309
552.216
552.127
552.041
551.96
551.885
551.814
551.748
551.687
551.632
551.58
551.534
551.491
551.452
551.417
551.384
551.353
551.325
551.299
551.275
551.252
551.23
551.209
551.189
551.17
551.15
551.131
551.112
551.091
551.07
551.048
551.025
551.001
550.975
550.947
550.918
550.887
550.853
550.818
550.78
550.74
550.698
550.653
550.606
550.556
550.503
550.447
550.388
550.323
550.254
550.179
550.098
550.007
549.906
549.792
549.656
549.499
549.327
549.144
548.952
548.75
548.545
548.344
548.146
547.953
547.762
547.57
547.377
547.183
546.991
546.8
546.611
546.424
546.24
546.058
545.88
545.705
545.534
545.369
545.209
545.055
544.907
544.765
544.634
544.508
544.386
544.265
544.147
544.029
543.912
543.796
543.68
543.564
543.448
543.331
543.215
543.098
542.981
542.864
542.746
542.628
542.51
542.392
542.274
542.155
542.037
541.918
541.799
541.68
541.561
541.442
541.323
541.204
541.085
540.966
540.847
540.728
540.609
552.502
552.405
552.31
552.217
552.128
552.043
551.962
551.887
551.817
551.752
551.693
551.638
551.589
551.544
551.503
551.467
551.434
551.404
551.376
551.351
551.329
551.307
551.288
551.27
551.252
551.236
551.22
551.204
551.188
551.172
551.155
551.137
551.118
551.098
551.077
551.054
551.029
551.002
550.974
550.943
550.911
550.876
550.84
550.801
550.761
550.718
550.673
550.626
550.576
550.523
550.466
550.404
550.336
550.262
550.18
550.086
549.977
549.843
549.683
549.507
549.319
549.12
548.911
548.696
548.487
548.284
548.085
547.887
547.687
547.483
547.279
547.075
546.872
546.671
546.472
546.276
546.085
545.899
545.718
545.543
545.374
545.212
545.056
544.905
544.757
544.629
544.504
544.381
544.26
544.141
544.023
543.907
543.791
543.675
543.56
543.444
543.328
543.212
543.096
542.98
542.863
542.745
542.628
542.51
542.392
542.274
542.155
542.037
541.918
541.799
541.681
541.562
541.443
541.324
541.205
541.086
540.967
540.848
540.729
540.61
552.501
552.402
552.305
552.211
552.12
552.033
551.951
551.874
551.803
551.737
551.677
551.623
551.574
551.53
551.49
551.455
551.424
551.396
551.372
551.35
551.33
551.312
551.296
551.281
551.268
551.255
551.243
551.231
551.219
551.207
551.195
551.181
551.166
551.15
551.132
551.113
551.092
551.069
551.044
551.018
550.989
550.959
550.927
550.894
550.859
550.822
550.784
550.744
550.701
550.656
550.607
550.553
550.494
550.429
550.354
550.267
550.162
550.028
549.868
549.69
549.501
549.298
549.083
548.862
548.648
548.442
548.241
548.039
547.832
547.619
547.404
547.189
546.972
546.757
546.544
546.336
546.133
545.936
545.745
545.563
545.388
545.22
545.06
544.902
544.735
544.623
544.5
544.377
544.255
544.135
544.017
543.901
543.785
543.67
543.555
543.44
543.325
543.21
543.094
542.978
542.861
542.744
542.627
542.51
542.392
542.274
542.155
542.037
541.918
541.8
541.681
541.562
541.443
541.324
541.205
541.086
540.967
540.848
540.729
540.61
552.498
552.396
552.294
552.195
552.1
552.009
551.923
551.843
551.769
551.701
551.638
551.582
551.531
551.486
551.446
551.411
551.381
551.355
551.333
551.313
551.296
551.281
551.268
551.257
551.247
551.239
551.231
551.224
551.217
551.209
551.202
551.193
551.183
551.172
551.16
551.146
551.13
551.112
551.092
551.071
551.048
551.024
550.998
550.971
550.944
550.915
550.885
550.853
550.82
550.784
550.744
550.701
550.651
550.595
550.527
550.445
550.342
550.209
550.049
549.873
549.684
549.48
549.262
549.038
548.823
548.617
548.416
548.213
548.003
547.784
547.56
547.333
547.103
546.874
546.646
546.422
546.205
545.994
545.792
545.598
545.414
545.24
545.076
544.918
544.766
544.631
544.501
544.373
544.249
544.129
544.01
543.894
543.779
543.665
543.55
543.436
543.322
543.207
543.092
542.976
542.86
542.743
542.626
542.509
542.392
542.274
542.155
542.037
541.919
541.8
541.681
541.562
541.443
541.324
541.205
541.086
540.967
540.848
540.729
540.61
552.495
552.385
552.276
552.17
552.068
551.971
551.878
551.792
551.712
551.639
551.572
551.511
551.457
551.409
551.367
551.33
551.299
551.273
551.251
551.232
551.216
551.204
551.194
551.186
551.18
551.176
551.173
551.171
551.169
551.168
551.166
551.163
551.16
551.156
551.15
551.143
551.134
551.124
551.111
551.098
551.082
551.066
551.049
551.032
551.013
550.994
550.974
550.954
550.931
550.906
550.878
550.845
550.805
550.757
550.697
550.618
550.513
550.379
550.221
550.049
549.863
549.659
549.441
549.218
549.006
548.805
548.608
548.407
548.197
547.975
547.744
547.507
547.265
547.021
546.778
546.539
546.305
546.078
545.861
545.655
545.459
545.276
545.105
544.943
544.789
544.643
544.504
544.371
544.244
544.122
544.004
543.887
543.773
543.659
543.545
543.432
543.318
543.204
543.089
542.974
542.858
542.742
542.626
542.509
542.391
542.273
542.155
542.037
541.919
541.8
541.681
541.562
541.443
541.324
541.205
541.086
540.967
540.848
540.729
540.61
552.49
552.371
552.254
552.138
552.027
551.92
551.819
551.724
551.636
551.555
551.48
551.412
551.351
551.297
551.249
551.207
551.172
551.143
551.119
551.099
551.083
551.071
551.063
551.057
551.055
551.055
551.056
551.06
551.064
551.069
551.074
551.079
551.084
551.089
551.093
551.096
551.097
551.097
551.095
551.092
551.088
551.083
551.078
551.073
551.067
551.061
551.054
551.046
551.036
551.024
551.008
550.985
550.955
550.915
550.861
550.781
550.673
550.537
550.382
550.216
550.032
549.828
549.612
549.397
549.193
549.001
548.811
548.616
548.408
548.187
547.953
547.708
547.456
547.199
546.942
546.687
546.435
546.192
545.96
545.74
545.531
545.336
545.154
544.981
544.815
544.656
544.508
544.37
544.24
544.116
543.997
543.881
543.766
543.653
543.54
543.427
543.314
543.201
543.086
542.972
542.857
542.741
542.625
542.508
542.391
542.273
542.155
542.037
541.919
541.8
541.681
541.562
541.444
541.324
541.205
541.086
540.967
540.848
540.729
540.61
552.485
552.357
552.229
552.104
551.981
551.864
551.751
551.645
551.546
551.454
551.369
551.29
551.219
551.153
551.095
551.043
550.999
550.963
550.932
550.907
550.887
550.872
550.863
550.858
550.858
550.86
550.866
550.875
550.885
550.897
550.911
550.926
550.942
550.958
550.975
550.992
551.007
551.022
551.035
551.048
551.06
551.071
551.083
551.094
551.105
551.115
551.124
551.131
551.136
551.138
551.134
551.122
551.1
551.067
551.017
550.934
550.82
550.682
550.531
550.369
550.187
549.984
549.776
549.573
549.383
549.201
549.02
548.832
548.631
548.415
548.18
547.93
547.671
547.405
547.135
546.866
546.598
546.338
546.091
545.859
545.636
545.423
545.224
545.033
544.847
544.67
544.511
544.367
544.234
544.11
543.99
543.874
543.76
543.647
543.535
543.423
543.31
543.197
543.084
542.97
542.855
542.74
542.624
542.507
542.39
542.273
542.155
542.037
541.919
541.8
541.682
541.563
541.444
541.325
541.206
541.086
540.967
540.848
540.729
540.61
552.482
552.346
552.21
552.075
551.942
551.812
551.688
551.569
551.457
551.352
551.253
551.159
551.072
550.99
550.914
550.846
550.786
550.733
550.689
550.651
550.622
550.599
550.585
550.577
550.575
550.578
550.587
550.6
550.616
550.637
550.66
550.687
550.717
550.749
550.783
550.819
550.854
550.89
550.925
550.96
550.994
551.028
551.062
551.095
551.127
551.157
551.185
551.21
551.231
551.247
551.255
551.253
551.238
551.209
551.158
551.072
550.953
550.816
550.669
550.511
550.333
550.142
549.95
549.764
549.588
549.417
549.24
549.061
548.869
548.661
548.426
548.175
547.913
547.641
547.36
547.081
546.797
546.517
546.259
546.022
545.787
545.545
545.323
545.104
544.888
544.676
544.507
544.361
544.228
544.103
543.984
543.868
543.754
543.642
543.53
543.418
543.307
543.194
543.081
542.968
542.853
542.738
542.623
542.507
542.39
542.273
542.155
542.037
541.919
541.8
541.682
541.563
541.444
541.325
541.206
541.087
540.967
540.848
540.729
540.61
552.48
552.34
552.2
552.059
551.918
551.779
551.643
551.512
551.387
551.267
551.152
551.041
550.934
550.83
550.73
550.636
550.549
550.471
550.401
550.341
550.291
550.253
550.225
550.207
550.199
550.199
550.206
550.221
550.243
550.271
550.305
550.346
550.393
550.446
550.503
550.563
550.626
550.69
550.754
550.819
550.884
550.947
551.009
551.07
551.129
551.184
551.234
551.278
551.316
551.345
551.364
551.37
551.36
551.334
551.281
551.191
551.076
550.951
550.813
550.662
550.503
550.354
550.192
550.026
549.866
549.699
549.514
549.342
549.157
548.961
548.718
548.461
548.204
547.928
547.628
547.35
547.051
546.741
546.479
546.251
546.016
545.718
545.473
545.211
544.949
544.651
544.49
544.35
544.22
544.097
543.979
543.863
543.749
543.637
543.526
543.415
543.303
543.191
543.079
542.966
542.852
542.737
542.622
542.506
542.389
542.272
542.155
542.037
541.919
541.8
541.682
541.563
541.444
541.325
541.206
541.087
540.967
540.848
540.729
540.61
552.479
552.338
552.198
552.057
551.914
551.769
551.626
551.486
551.351
551.22
551.093
550.966
550.84
550.712
550.584
550.457
550.334
550.217
550.107
550.009
549.924
549.854
549.799
549.76
549.735
549.723
549.723
549.733
549.756
549.79
549.836
549.892
549.958
550.035
550.119
550.211
550.307
550.407
550.509
550.612
550.714
550.813
550.91
551.006
551.097
551.179
551.253
551.317
551.371
551.413
551.443
551.458
551.458
551.441
551.391
551.304
551.217
551.142
551.028
550.894
550.775
550.694
550.567
550.415
550.283
550.1
549.881
549.712
549.529
549.344
549.067
548.795
548.566
548.289
547.922
547.686
547.382
547.006
546.757
546.567
546.375
545.949
545.723
545.39
545.097
544.619
544.465
544.338
544.214
544.093
543.975
543.859
543.745
543.633
543.522
543.411
543.3
543.189
543.077
542.964
542.85
542.736
542.621
542.505
542.389
542.272
542.155
542.037
541.919
541.801
541.682
541.563
541.444
541.325
541.206
541.087
540.968
540.848
540.729
540.61
552.472
552.322
552.18
552.043
551.904
551.763
551.621
551.482
551.349
551.221
551.096
550.97
550.837
550.696
550.546
550.39
550.226
550.059
549.894
549.735
549.592
549.467
549.364
549.283
549.224
549.185
549.162
549.156
549.17
549.203
549.256
549.326
549.411
549.513
549.627
549.752
549.886
550.027
550.17
550.316
550.459
550.598
550.734
550.868
550.995
551.105
551.202
551.289
551.363
551.423
551.466
551.5
551.533
551.556
551.526
551.438
551.417
551.451
551.374
551.232
551.104
550.984
550.858
550.68
550.527
550.361
550.164
549.957
549.75
549.5
549.188
548.909
548.749
548.52
548.221
547.924
547.563
547.288
546.928
546.736
546.431
545.996
545.85
545.392
545.06
544.443
544.431
544.334
544.216
544.093
543.973
543.856
543.742
543.63
543.519
543.408
543.297
543.186
543.075
542.962
542.849
542.735
542.62
542.505
542.389
542.272
542.155
542.037
541.919
541.801
541.682
541.563
541.444
541.325
541.206
541.087
540.968
540.848
540.729
540.61
552.439
552.238
552.076
551.94
551.814
551.687
551.561
551.442
551.335
551.243
551.161
551.074
550.975
550.856
550.719
550.562
550.376
550.16
549.922
549.676
549.445
549.238
549.056
548.901
548.777
548.683
548.614
548.568
548.552
548.569
548.614
548.686
548.781
548.9
549.041
549.198
549.365
549.538
549.715
549.895
550.076
550.254
550.427
550.6
550.761
550.892
551.009
551.133
551.25
551.345
551.412
551.476
551.559
551.663
551.678
551.628
551.628
551.617
551.572
551.427
551.314
551.213
551.103
550.938
550.739
550.576
550.35
550.149
549.89
549.542
549.233
548.943
548.809
548.553
548.364
547.986
547.626
547.398
547.011
546.74
546.284
545.9
545.687
544.907
544.834
544.591
544.51
544.37
544.232
544.1
543.975
543.855
543.74
543.627
543.516
543.406
543.295
543.184
543.073
542.961
542.848
542.734
542.62
542.504
542.388
542.272
542.155
542.037
541.919
541.801
541.682
541.563
541.444
541.325
541.206
541.087
540.968
540.848
540.729
540.61
552.332
551.971
551.733
551.587
551.482
551.385
551.296
551.228
551.197
551.207
551.25
551.287
551.298
551.277
551.234
551.164
551.011
550.782
550.471
550.098
549.747
549.434
549.143
548.872
548.639
548.449
548.297
548.176
548.096
548.063
548.059
548.088
548.156
548.264
548.422
548.607
548.78
548.945
549.121
549.318
549.521
549.731
549.929
550.125
550.307
550.426
550.54
550.71
550.911
551.077
551.182
551.236
551.344
551.439
551.518
551.559
551.588
551.612
551.696
551.628
551.551
551.52
551.333
551.302
551.049
550.914
550.549
550.315
550.137
549.602
549.342
548.964
548.825
548.484
548.387
548.036
547.832
547.46
547.018
546.845
546.094
545.478
545.275
545.024
544.894
544.841
544.595
544.416
544.253
544.109
543.978
543.856
543.739
543.626
543.514
543.404
543.294
543.183
543.072
542.96
542.847
542.734
542.619
542.504
542.388
542.272
542.155
542.037
541.919
541.801
541.682
541.564
541.445
541.325
541.206
541.087
540.968
540.848
540.729
540.61
552.055
551.309
550.897
550.716
550.638
550.575
550.55
550.582
550.719
550.952
551.261
551.56
551.805
552.003
552.209
552.401
552.382
552.285
551.974
551.42
550.941
550.565
550.173
549.732
549.3
548.93
548.613
548.364
548.174
548.042
547.89
547.757
547.677
547.684
547.858
548.084
548.165
548.211
548.318
548.545
548.741
548.958
549.119
549.269
549.442
549.457
549.501
549.611
549.916
550.233
550.501
550.6
550.711
550.861
551.072
551.268
551.387
551.46
551.665
551.802
551.674
551.761
551.649
551.694
551.425
551.339
550.81
550.562
550.652
549.9
549.727
548.991
548.894
548.452
548.386
548.047
547.993
547.617
547.447
547.247
546.155
546.005
545.833
545.63
545.222
545.314
544.703
544.453
544.269
544.116
543.98
543.856
543.738
543.625
543.513
543.403
543.293
543.182
543.071
542.959
542.847
542.733
542.619
542.504
542.388
542.272
542.155
542.037
541.919
541.801
541.682
541.564
541.445
541.326
541.206
541.087
540.968
540.849