/*--------------------------------*- C++ -*----------------------------------*\
  =========                 |
  \\      /  F ield         | OpenFOAM: The Open Source CFD Toolbox
   \\    /   O peration     | Website:  https://openfoam.org
    \\  /    A nd           | Version:  6
     \\/     M anipulation  |
\*---------------------------------------------------------------------------*/
FoamFile
{
    version     2.0;
    format      ascii;
    class       volVectorField;
    location    "3700";
    object      U;
}
// * * * * * * * * * * * * * * * * * * * * * * * * * * * * * * * * * * * * * //

dimensions      [0 1 -1 0 0 0 0];

internalField   nonuniform List<vector> 
4800
(
(1.06436e-06 0 -4.8173e-05)
(3.9424e-05 0 -5.1701e-05)
(6.9755e-05 0 -3.25593e-05)
(7.43943e-05 0 1.19856e-05)
(1.77434e-05 0 1.86492e-05)
(-1.51469e-05 0 -5.96522e-05)
(-5.35603e-07 0 -7.80423e-05)
(7.98413e-06 0 -6.69532e-05)
(1.80242e-05 0 -5.31796e-05)
(3.03895e-05 0 -3.74405e-05)
(4.61462e-05 0 -5.22932e-05)
(3.90248e-05 0 -3.97404e-05)
(2.74617e-05 0 -4.30213e-05)
(-2.03335e-06 0 -3.10644e-05)
(-4.5518e-05 0 -2.74596e-05)
(-0.000106093 0 -1.97919e-05)
(-0.000202294 0 -4.60048e-06)
(-0.00028397 0 -1.07783e-06)
(-0.000342328 0 -5.33766e-05)
(-0.000403817 0 -0.00016459)
(-0.00053452 0 -8.21504e-05)
(-0.000789264 0 3.8365e-05)
(-0.000949366 0 5.49228e-05)
(-0.000998291 0 2.29439e-05)
(-0.00103443 0 -1.50763e-05)
(-0.00106367 0 -1.09844e-06)
(-0.00107796 0 1.74428e-06)
(-0.0011107 0 9.21552e-06)
(-0.00115107 0 9.60917e-06)
(-0.00118318 0 -2.21242e-05)
(-0.00121998 0 -2.82864e-05)
(-0.00125951 0 8.25227e-06)
(-0.00129885 0 -9.6565e-06)
(-0.00134096 0 -9.60574e-06)
(-0.00137552 0 2.07678e-05)
(-0.00140541 0 2.41287e-05)
(-0.00144519 0 1.5352e-05)
(-0.00147628 0 9.53075e-06)
(-0.00148032 0 -4.80813e-06)
(-0.00146188 0 -2.86496e-05)
(-0.00145937 0 -2.03326e-05)
(-0.00142444 0 -5.96147e-05)
(-0.00127875 0 -0.000130666)
(-0.001153 0 -5.77857e-05)
(-0.00104492 0 -9.79727e-06)
(-0.000939956 0 -9.78021e-05)
(-0.000851256 0 -0.00011901)
(-0.00075466 0 -4.70365e-05)
(-0.000627295 0 -0.000175658)
(-0.000547799 0 -0.000181158)
(-0.000518811 0 -2.45095e-05)
(-0.000376783 0 8.17376e-05)
(-0.000175858 0 -0.000192032)
(-4.78303e-05 0 -2.91867e-05)
(0.000130045 0 -0.000127449)
(0.000284657 0 -3.10034e-05)
(0.000385193 0 -1.81241e-05)
(0.000443407 0 1.51636e-05)
(0.000419232 0 2.76467e-05)
(0.000363364 0 3.79894e-05)
(0.00025697 0 4.94591e-05)
(0.000140441 0 2.23795e-05)
(8.24629e-05 0 8.67347e-06)
(1.48124e-05 0 5.70915e-05)
(-2.12978e-05 0 3.00212e-05)
(-5.6387e-05 0 2.97918e-05)
(-7.08667e-05 0 2.44901e-05)
(-7.86336e-05 0 7.45137e-06)
(-0.000102817 0 3.24298e-06)
(-0.0001365 0 3.54866e-05)
(-0.000151893 0 6.30966e-05)
(-0.000165744 0 5.16976e-05)
(-0.000325135 0 -4.11466e-05)
(-0.000379735 0 -0.000108228)
(-0.000404713 0 -0.00013325)
(-0.000439626 0 -0.000101473)
(-0.000455585 0 -0.000103009)
(-0.000459859 0 -9.66222e-05)
(-0.000436193 0 -0.000121694)
(-0.000439736 0 -0.0003449)
(-0.000686507 0 -0.000232321)
(8.65449e-06 0 5.56846e-05)
(-3.48714e-12 0 1.33151e-13)
(-3.61495e-12 0 -1.40881e-12)
(-4.62843e-13 0 -5.20864e-13)
(1.62445e-13 0 -1.01632e-13)
(2.39432e-13 0 2.55864e-14)
(1.69407e-13 0 4.45749e-14)
(9.1568e-14 0 3.28806e-14)
(4.13385e-14 0 1.64501e-14)
(2.11388e-14 0 2.42673e-15)
(2.51452e-14 0 -7.98497e-15)
(4.67637e-14 0 -1.51723e-14)
(8.04101e-14 0 -1.97867e-14)
(1.21655e-13 0 -2.24013e-14)
(1.67018e-13 0 -2.34644e-14)
(2.13734e-13 0 -2.33232e-14)
(2.59571e-13 0 -2.22521e-14)
(3.02725e-13 0 -2.04737e-14)
(3.41764e-13 0 -1.81688e-14)
(3.75612e-13 0 -1.54812e-14)
(4.03538e-13 0 -1.25242e-14)
(4.2513e-13 0 -9.38999e-15)
(4.40244e-13 0 -6.15977e-15)
(4.48934e-13 0 -2.91046e-15)
(4.51374e-13 0 2.85481e-16)
(4.47812e-13 0 3.36446e-15)
(4.38532e-13 0 6.27451e-15)
(4.23851e-13 0 8.97562e-15)
(4.04108e-13 0 1.14377e-14)
(3.79669e-13 0 1.36402e-14)
(3.50918e-13 0 1.55731e-14)
(3.18273e-13 0 1.72391e-14)
(2.82199e-13 0 1.86532e-14)
(2.43207e-13 0 1.98403e-14)
(2.01849e-13 0 2.08282e-14)
(1.58677e-13 0 2.16399e-14)
(1.142e-13 0 2.22855e-14)
(6.88574e-14 0 2.27569e-14)
(2.30095e-14 0 2.30285e-14)
(-2.76585e-06 0 -3.63388e-05)
(-2.19051e-05 0 -3.34507e-05)
(-5.55746e-05 0 -1.13909e-05)
(-3.73062e-05 0 6.08963e-05)
(-6.09233e-05 0 3.88056e-05)
(-6.17624e-05 0 2.30726e-05)
(-4.66172e-05 0 1.45972e-05)
(-4.01754e-05 0 1.6851e-05)
(-3.01003e-05 0 2.65623e-05)
(-2.34345e-05 0 1.07869e-06)
(-1.86594e-05 0 1.54973e-05)
(-3.65605e-05 0 3.29641e-05)
(-7.02079e-05 0 4.88382e-05)
(-9.99232e-05 0 8.62544e-05)
(-0.000166508 0 0.000101483)
(-0.000254148 0 0.000120542)
(-0.00037486 0 0.000124317)
(-0.000497114 0 0.000164846)
(-0.000678594 0 0.000209289)
(-0.000834608 0 0.000249508)
(-0.000914942 0 0.000221495)
(-0.000950886 0 0.000177048)
(-0.000957625 0 0.000112296)
(-0.000989769 0 -7.02664e-05)
(-0.00103223 0 6.7906e-05)
(-0.00105146 0 5.10728e-05)
(-0.00106023 0 2.07084e-06)
(-0.00110559 0 9.02786e-05)
(-0.00117463 0 9.43164e-05)
(-0.00122888 0 7.81244e-05)
(-0.00127608 0 7.66553e-05)
(-0.00132735 0 6.58799e-05)
(-0.00138701 0 7.72538e-05)
(-0.00144895 0 8.63373e-05)
(-0.00150254 0 7.45133e-05)
(-0.00154672 0 4.65849e-05)
(-0.00158291 0 4.15925e-05)
(-0.00160355 0 4.27062e-05)
(-0.00159878 0 1.34415e-05)
(-0.00155312 0 -2.98105e-05)
(-0.00154139 0 -2.4983e-05)
(-0.00153247 0 -0.000122066)
(-0.00139358 0 -0.000338017)
(-0.00126318 0 -0.000168908)
(-0.00113784 0 -0.000146216)
(-0.00103665 0 -0.000167706)
(-0.00095448 0 -8.25205e-05)
(-0.000847647 0 -8.76791e-05)
(-0.000727674 0 -0.000194537)
(-0.000644401 0 -4.40066e-05)
(-0.00052612 0 -5.04054e-05)
(-0.000430594 0 -0.000174421)
(-0.000290334 0 -0.000362679)
(-0.000275477 0 -0.000235078)
(-0.000108199 0 -0.00032307)
(-8.28083e-05 0 -0.000335536)
(0.000270713 0 -7.39985e-05)
(0.000304781 0 -2.48792e-05)
(0.000327373 0 5.45229e-05)
(0.000310348 0 0.000101487)
(0.000263102 0 0.000141084)
(0.000192193 0 0.000117439)
(0.000109494 0 8.9864e-05)
(4.80504e-05 0 8.37404e-05)
(2.13242e-05 0 4.44803e-05)
(-1.72672e-06 0 2.92655e-05)
(-3.55317e-05 0 5.15324e-05)
(-9.1794e-05 0 1.71852e-05)
(-0.000111656 0 3.5615e-05)
(-0.000107147 0 4.67141e-05)
(-0.000103827 0 3.72881e-05)
(-6.59438e-05 0 4.12866e-05)
(-7.98615e-05 0 0.000104538)
(-0.000121391 0 7.87117e-05)
(-0.000107883 0 6.26618e-05)
(-0.000111081 0 5.12958e-05)
(-7.12948e-05 0 6.19844e-05)
(-8.07669e-05 0 4.40077e-05)
(-2.96294e-06 0 -7.59399e-05)
(0.000421105 0 -6.74254e-05)
(-0.000277465 0 -0.000241389)
(9.14796e-06 0 0.000207678)
(-4.3679e-12 0 -3.14247e-12)
(-3.29988e-12 0 -5.61386e-12)
(8.44269e-13 0 -1.09649e-12)
(7.08941e-13 0 -1.32443e-14)
(3.85639e-13 0 1.84873e-13)
(1.76701e-13 0 1.64051e-13)
(6.34432e-14 0 1.02848e-13)
(1.08845e-14 0 4.63939e-14)
(-3.29632e-15 0 3.21093e-15)
(7.54611e-15 0 -2.74942e-14)
(3.49619e-14 0 -4.82435e-14)
(7.31811e-14 0 -6.13629e-14)
(1.17978e-13 0 -6.86529e-14)
(1.66096e-13 0 -7.14592e-14)
(2.14946e-13 0 -7.07985e-14)
(2.6242e-13 0 -6.74557e-14)
(3.06808e-13 0 -6.20478e-14)
(3.46757e-13 0 -5.5064e-14)
(3.81257e-13 0 -4.68964e-14)
(4.09629e-13 0 -3.78712e-14)
(4.31494e-13 0 -2.82773e-14)
(4.46724e-13 0 -1.83875e-14)
(4.55379e-13 0 -8.46352e-15)
(4.57649e-13 0 1.25365e-15)
(4.53801e-13 0 1.05578e-14)
(4.44143e-13 0 1.9286e-14)
(4.29014e-13 0 2.73195e-14)
(4.08773e-13 0 3.45832e-14)
(3.83804e-13 0 4.10445e-14)
(3.54517e-13 0 4.67127e-14)
(3.21353e-13 0 5.16327e-14)
(2.848e-13 0 5.58722e-14)
(2.45382e-13 0 5.95032e-14)
(2.03649e-13 0 6.25818e-14)
(1.60134e-13 0 6.51336e-14)
(1.15317e-13 0 6.71458e-14)
(6.96003e-14 0 6.8567e-14)
(2.32811e-14 0 6.93101e-14)
(-9.00995e-06 0 -4.83909e-05)
(3.43466e-05 0 7.85014e-06)
(-5.34045e-05 0 7.294e-05)
(-0.000118707 0 5.14843e-05)
(-0.000143649 0 -1.1748e-05)
(-0.000141971 0 -4.94937e-05)
(-0.000110681 0 -7.82998e-05)
(-9.58176e-05 0 -6.54854e-05)
(-0.000137713 0 -6.07437e-05)
(-0.000179486 0 -0.000101985)
(-0.000211748 0 2.26065e-05)
(-0.000211306 0 6.52856e-05)
(-0.000240846 0 5.60785e-05)
(-0.000245437 0 0.00013614)
(-0.00031162 0 0.000178401)
(-0.000435093 0 0.000211278)
(-0.000539383 0 0.000281077)
(-0.000631778 0 0.000317208)
(-0.000765656 0 0.000272906)
(-0.000883316 0 0.000223567)
(-0.000936607 0 0.000283565)
(-0.000961193 0 0.000293138)
(-0.000996359 0 0.000168265)
(-0.0010346 0 4.30071e-05)
(-0.00105061 0 6.74354e-05)
(-0.00106248 0 7.85773e-05)
(-0.00110043 0 4.3567e-05)
(-0.00116157 0 0.000102469)
(-0.00123099 0 0.000113666)
(-0.00130379 0 9.50143e-05)
(-0.00137099 0 0.000109356)
(-0.00143751 0 0.000113466)
(-0.00150604 0 0.000124094)
(-0.00156773 0 0.00011076)
(-0.00160023 0 0.000109893)
(-0.00160804 0 8.96876e-05)
(-0.00161082 0 3.69114e-05)
(-0.00161776 0 4.19425e-05)
(-0.00159108 0 -4.46457e-05)
(-0.00149914 0 -0.000118807)
(-0.0014602 0 -0.000107876)
(-0.00145306 0 -0.000152341)
(-0.00140171 0 -0.000289781)
(-0.00128936 0 -0.000247936)
(-0.0011577 0 -0.000290529)
(-0.00103361 0 -0.000310115)
(-0.000944221 0 -0.000191014)
(-0.000828505 0 -0.000267542)
(-0.00076529 0 -0.000224535)
(-0.000691476 0 -0.000212813)
(-0.000600675 0 -0.000298805)
(-0.000556811 0 -0.000319763)
(-0.000539023 0 -0.000277566)
(-0.000418862 0 -0.000341763)
(-0.00038917 0 -0.000313848)
(-0.000183381 0 -0.000500633)
(-0.00013855 0 -0.000356056)
(0.000113299 0 -3.57393e-05)
(0.000160102 0 1.83629e-05)
(0.000229244 0 9.77799e-05)
(0.000204518 0 0.000180563)
(0.000170883 0 0.000182105)
(0.000113537 0 0.000153137)
(6.05165e-05 0 0.000120622)
(4.21853e-05 0 7.92478e-05)
(2.50022e-06 0 7.46761e-05)
(-4.20478e-05 0 7.85099e-05)
(-0.000102976 0 4.83799e-05)
(-0.000130105 0 4.37692e-05)
(-0.000139915 0 1.33822e-05)
(-0.000134313 0 1.69688e-05)
(-8.90214e-05 0 2.20034e-05)
(1.79794e-05 0 0.000113886)
(3.97116e-05 0 9.57407e-05)
(6.60807e-05 0 7.77231e-05)
(7.1427e-05 0 6.45296e-05)
(8.65658e-05 0 1.1429e-05)
(0.000138501 0 -5.41205e-05)
(0.00014844 0 -0.000165219)
(0.000179392 0 -0.000261194)
(-0.000218869 0 -0.000185543)
(-2.45344e-05 0 4.05616e-06)
(-1.21041e-10 0 3.07675e-11)
(2.48339e-12 0 4.26215e-12)
(5.13758e-12 0 1.73613e-12)
(1.44389e-12 0 9.59592e-13)
(4.16727e-13 0 5.62744e-13)
(8.73819e-14 0 3.23586e-13)
(-2.60896e-14 0 1.67793e-13)
(-5.82989e-14 0 6.28941e-14)
(-5.27493e-14 0 -8.54799e-15)
(-2.63093e-14 0 -5.69666e-14)
(1.2895e-14 0 -8.89457e-14)
(6.00007e-14 0 -1.08802e-13)
(1.11559e-13 0 -1.19482e-13)
(1.64873e-13 0 -1.23087e-13)
(2.17737e-13 0 -1.21179e-13)
(2.68321e-13 0 -1.14963e-13)
(3.15116e-13 0 -1.05392e-13)
(3.56916e-13 0 -9.32322e-14)
(3.92805e-13 0 -7.91173e-14)
(4.22157e-13 0 -6.35964e-14)
(4.44614e-13 0 -4.71727e-14)
(4.60058e-13 0 -3.0327e-14)
(4.68575e-13 0 -1.35158e-14)
(4.70396e-13 0 2.8494e-15)
(4.65844e-13 0 1.84259e-14)
(4.55294e-13 0 3.29541e-14)
(4.39148e-13 0 4.62596e-14)
(4.17833e-13 0 5.82506e-14)
(3.91798e-13 0 6.8912e-14)
(3.61506e-13 0 7.82955e-14)
(3.27433e-13 0 8.64992e-14)
(2.90069e-13 0 9.3638e-14)
(2.49917e-13 0 9.98102e-14)
(2.0748e-13 0 1.0507e-13)
(1.63241e-13 0 1.09415e-13)
(1.17633e-13 0 1.12787e-13)
(7.10216e-14 0 1.15091e-13)
(2.37526e-14 0 1.16221e-13)
(-5.21713e-06 0 -5.56846e-05)
(-7.19813e-06 0 4.16089e-05)
(-4.42227e-05 0 0.000146819)
(-6.30165e-05 0 0.000164729)
(-0.000170584 0 7.5866e-05)
(-0.000191323 0 3.53813e-05)
(-0.000237463 0 -3.26102e-05)
(-0.000272273 0 -7.14011e-05)
(-0.000280191 0 9.62282e-05)
(-0.000309041 0 9.41164e-05)
(-0.00033539 0 3.69797e-05)
(-0.000338626 0 5.53894e-05)
(-0.000371739 0 6.44632e-05)
(-0.000419677 0 0.000122227)
(-0.000496336 0 0.000225298)
(-0.00061418 0 0.000318088)
(-0.000729922 0 0.000340958)
(-0.000788007 0 0.000358309)
(-0.0008464 0 0.00032036)
(-0.000900571 0 0.000255601)
(-0.000921815 0 0.000272792)
(-0.00093887 0 0.000283113)
(-0.000984686 0 0.000192546)
(-0.00104032 0 0.000126607)
(-0.00108063 0 0.000113989)
(-0.00112018 0 7.16205e-05)
(-0.00118481 0 0.000117134)
(-0.00126023 0 0.000146885)
(-0.00131464 0 0.000176295)
(-0.00136811 0 0.000197398)
(-0.00142563 0 0.000207274)
(-0.0014782 0 0.000194187)
(-0.00152324 0 0.000170335)
(-0.00155484 0 0.000157114)
(-0.00156713 0 0.000142209)
(-0.00154432 0 7.90416e-05)
(-0.0015236 0 5.04641e-05)
(-0.00152124 0 3.10135e-05)
(-0.00151283 0 -3.13917e-05)
(-0.00142978 0 -0.000225703)
(-0.00136012 0 -0.000192357)
(-0.00132483 0 -0.000202192)
(-0.0012798 0 -0.000355257)
(-0.00123951 0 -0.000394959)
(-0.00117804 0 -0.000359787)
(-0.00104439 0 -0.000456012)
(-0.000967915 0 -0.000362838)
(-0.000836955 0 -0.00045387)
(-0.000814768 0 -0.000350782)
(-0.000827357 0 -0.000213133)
(-0.000788124 0 -0.000262938)
(-0.000711324 0 -0.000348591)
(-0.000608615 0 -0.000396351)
(-0.000508984 0 -0.000445824)
(-0.000472093 0 -0.00045649)
(-0.000403935 0 -0.000516153)
(-0.000365105 0 -0.000343071)
(-0.000195623 0 -0.000254543)
(-8.20779e-06 0 -6.62644e-05)
(0.000113391 0 8.31603e-05)
(0.000147938 0 0.000164398)
(0.00013624 0 0.000192825)
(0.000126689 0 0.000173157)
(9.42023e-05 0 0.000144074)
(6.79635e-05 0 0.000107895)
(1.52974e-05 0 0.000109896)
(-2.55062e-05 0 0.000113663)
(-5.95358e-05 0 8.96391e-05)
(-0.000111561 0 7.73478e-05)
(-0.000140815 0 1.81976e-06)
(-0.000152117 0 -5.81236e-06)
(-0.00011411 0 -3.91506e-05)
(-6.96762e-05 0 -9.90419e-06)
(6.85496e-08 0 -2.20738e-05)
(5.30876e-05 0 -2.06906e-05)
(0.000102186 0 2.18615e-05)
(0.000147068 0 -2.85175e-05)
(0.000171093 0 -7.92659e-05)
(0.000154031 0 -0.000168796)
(0.000274462 0 -0.000118101)
(-0.000425122 0 6.30566e-05)
(-0.00061265 0 9.26719e-05)
(-3.89645e-06 0 -5.2339e-05)
(-1.61377e-12 0 6.97859e-12)
(-2.61332e-12 0 3.37218e-12)
(-4.64216e-13 0 1.55263e-12)
(-2.50362e-13 0 7.82705e-13)
(-2.1825e-13 0 3.99866e-13)
(-1.97249e-13 0 1.82253e-13)
(-1.65456e-13 0 4.65099e-14)
(-1.23157e-13 0 -4.27551e-14)
(-7.28516e-14 0 -1.02459e-13)
(-1.68731e-14 0 -1.41621e-13)
(4.26448e-14 0 -1.65574e-13)
(1.03692e-13 0 -1.778e-13)
(1.64399e-13 0 -1.80778e-13)
(2.2307e-13 0 -1.76401e-13)
(2.78207e-13 0 -1.66191e-13)
(3.28539e-13 0 -1.51414e-13)
(3.73032e-13 0 -1.33141e-13)
(4.10893e-13 0 -1.12289e-13)
(4.41574e-13 0 -8.9663e-14)
(4.64764e-13 0 -6.59845e-14)
(4.80381e-13 0 -4.19172e-14)
(4.88555e-13 0 -1.80711e-14)
(4.89591e-13 0 5.01674e-15)
(4.83906e-13 0 2.69097e-14)
(4.71977e-13 0 4.72882e-14)
(4.5431e-13 0 6.595e-14)
(4.31425e-13 0 8.27988e-14)
(4.03849e-13 0 9.78289e-14)
(3.72104e-13 0 1.11107e-13)
(3.36696e-13 0 1.22745e-13)
(2.98111e-13 0 1.32871e-13)
(2.56814e-13 0 1.4159e-13)
(2.13253e-13 0 1.48958e-13)
(1.67851e-13 0 1.54968e-13)
(1.20993e-13 0 1.59556e-13)
(7.30347e-14 0 1.62631e-13)
(2.44112e-14 0 1.64119e-13)
(-1.87725e-05 0 -2.56929e-05)
(-7.97345e-05 0 0.000127259)
(-9.99386e-05 0 0.00020878)
(-0.000134329 0 0.000174782)
(-0.000189205 0 9.0641e-05)
(-0.000296993 0 -2.75561e-05)
(-0.000315898 0 6.16759e-05)
(-0.000327576 0 0.000168432)
(-0.000429903 0 -3.97969e-06)
(-0.000447057 0 8.94289e-06)
(-0.000452459 0 4.38268e-05)
(-0.000452834 0 6.39213e-05)
(-0.00049019 0 0.000175952)
(-0.000582952 0 0.000233612)
(-0.00064933 0 0.000335805)
(-0.000713408 0 0.000464817)
(-0.000795543 0 0.00049923)
(-0.000840896 0 0.000484549)
(-0.000862183 0 0.000453479)
(-0.00091919 0 0.000326628)
(-0.000945068 0 0.000269862)
(-0.000945516 0 0.000272698)
(-0.000955349 0 0.000227209)
(-0.00103065 0 0.00010292)
(-0.00107363 0 0.000187756)
(-0.00111832 0 0.000265304)
(-0.00121163 0 0.000182211)
(-0.00126455 0 0.000246034)
(-0.0013056 0 0.000274191)
(-0.00136419 0 0.000212737)
(-0.00140835 0 0.000249055)
(-0.00144884 0 0.000215117)
(-0.00146255 0 0.000189451)
(-0.0014643 0 0.000169317)
(-0.00146786 0 0.000142967)
(-0.00144839 0 -5.16752e-05)
(-0.00139644 0 9.47861e-06)
(-0.0013627 0 -2.28547e-05)
(-0.00134861 0 -9.94354e-05)
(-0.00133281 0 -0.000234615)
(-0.00129121 0 -0.000226963)
(-0.00123755 0 -0.000295295)
(-0.00120103 0 -0.000361034)
(-0.00118258 0 -0.000399884)
(-0.00115307 0 -0.000448948)
(-0.00108639 0 -0.000439144)
(-0.00105087 0 -0.000346119)
(-0.000998084 0 -0.000356604)
(-0.000974866 0 -0.000279005)
(-0.000921593 0 -0.000310952)
(-0.000853528 0 -0.000385533)
(-0.0007717 0 -0.000410803)
(-0.000648687 0 -0.000480979)
(-0.00055979 0 -0.000512734)
(-0.000545132 0 -0.0005034)
(-0.000413234 0 -0.000604545)
(-0.000421245 0 -0.000468698)
(-0.000302759 0 -0.000376999)
(-0.000215673 0 -0.000184481)
(-7.10511e-05 0 -4.50211e-05)
(6.66267e-05 0 0.000146326)
(8.45848e-05 0 0.000193182)
(7.82853e-05 0 0.000196234)
(7.90615e-05 0 0.000175279)
(8.06706e-05 0 0.000131314)
(3.4434e-05 0 0.000137459)
(1.59337e-05 0 0.000145189)
(1.64419e-05 0 0.000122546)
(-2.45121e-05 0 0.000105966)
(-2.36855e-05 0 4.98931e-05)
(-2.85535e-05 0 3.43909e-06)
(-9.25287e-05 0 -6.17852e-05)
(-0.000101227 0 -0.000110111)
(-1.19296e-05 0 -0.000138495)
(-1.35649e-05 0 8.26564e-06)
(5.37272e-05 0 -1.76799e-05)
(0.000105399 0 -5.72348e-05)
(0.000126323 0 -7.4867e-05)
(0.000117648 0 -0.000115992)
(7.33305e-05 0 3.0764e-06)
(-0.000262845 0 0.000414122)
(-0.000715179 0 0.000555348)
(8.17265e-06 0 -0.000867182)
(-3.22956e-12 0 3.59059e-13)
(-2.76403e-12 0 1.77024e-12)
(-1.14516e-12 0 1.09602e-12)
(-7.35993e-13 0 6.15419e-13)
(-5.1307e-13 0 3.10938e-13)
(-3.79446e-13 0 1.15039e-13)
(-2.83307e-13 0 -1.60617e-14)
(-2.01718e-13 0 -1.0623e-13)
(-1.25176e-13 0 -1.68291e-13)
(-5.02202e-14 0 -2.09472e-13)
(2.38225e-14 0 -2.34235e-13)
(9.63552e-14 0 -2.45679e-13)
(1.66271e-13 0 -2.46197e-13)
(2.32323e-13 0 -2.37784e-13)
(2.93308e-13 0 -2.22183e-13)
(3.48167e-13 0 -2.00942e-13)
(3.96041e-13 0 -1.75444e-13)
(4.36283e-13 0 -1.4691e-13)
(4.68462e-13 0 -1.16413e-13)
(4.92359e-13 0 -8.48912e-14)
(5.07971e-13 0 -5.31677e-14)
(5.15509e-13 0 -2.19688e-14)
(5.15377e-13 0 8.08435e-15)
(5.08116e-13 0 3.64955e-14)
(4.94334e-13 0 6.29075e-14)
(4.74658e-13 0 8.70984e-14)
(4.49712e-13 0 1.08964e-13)
(4.20106e-13 0 1.28497e-13)
(3.86423e-13 0 1.45764e-13)
(3.49197e-13 0 1.60879e-13)
(3.08914e-13 0 1.73975e-13)
(2.66003e-13 0 1.8517e-13)
(2.20857e-13 0 1.94533e-13)
(1.73839e-13 0 2.02079e-13)
(1.25297e-13 0 2.07769e-13)
(7.55841e-14 0 2.11541e-13)
(2.52402e-14 0 2.13357e-13)
(-0.000154021 0 6.82979e-05)
(-0.000290149 0 9.38244e-05)
(-0.000283431 0 0.000138372)
(-0.000199478 0 0.000231006)
(-0.000210844 0 0.000197409)
(-0.000319578 0 0.000138151)
(-0.000418533 0 9.36648e-05)
(-0.000460266 0 9.65135e-05)
(-0.000498139 0 0.000138027)
(-0.00053385 0 8.77797e-05)
(-0.000555182 0 6.8261e-05)
(-0.000599811 0 0.000100088)
(-0.000676203 0 0.000167881)
(-0.000749664 0 0.000295335)
(-0.000780221 0 0.000423372)
(-0.000807854 0 0.000493494)
(-0.000832793 0 0.000515873)
(-0.000850507 0 0.000494288)
(-0.000855008 0 0.00046174)
(-0.000889865 0 0.000395933)
(-0.000926872 0 0.000354113)
(-0.000933613 0 0.00033851)
(-0.000963966 0 0.000256337)
(-0.00103527 0 0.000184799)
(-0.00106857 0 0.00021238)
(-0.00111555 0 0.000216276)
(-0.00118943 0 0.00022767)
(-0.00123772 0 0.00028587)
(-0.00128013 0 0.000279397)
(-0.00131958 0 0.000270913)
(-0.00134447 0 0.000266236)
(-0.00135212 0 0.000257108)
(-0.00133988 0 0.000179356)
(-0.00130417 0 0.000138222)
(-0.00128976 0 0.00012945)
(-0.00128868 0 4.53784e-05)
(-0.00124489 0 -4.36066e-05)
(-0.00119488 0 -7.21868e-05)
(-0.00118274 0 -0.000124415)
(-0.00119548 0 -0.000244453)
(-0.0012099 0 -0.00024693)
(-0.00116853 0 -0.000339838)
(-0.00113184 0 -0.000387267)
(-0.00111424 0 -0.000430861)
(-0.00110688 0 -0.00045853)
(-0.00106879 0 -0.000491784)
(-0.00105695 0 -0.000452462)
(-0.00106278 0 -0.000377383)
(-0.00105741 0 -0.000311875)
(-0.00102967 0 -0.000332691)
(-0.000933325 0 -0.000438012)
(-0.000804395 0 -0.000518017)
(-0.000657445 0 -0.000583497)
(-0.000562641 0 -0.000580613)
(-0.000510996 0 -0.000575258)
(-0.000377737 0 -0.000637833)
(-0.000440007 0 -0.000493801)
(-0.000362447 0 -0.000442516)
(-0.000291466 0 -0.000322529)
(-0.000198193 0 -0.000143713)
(-8.34599e-05 0 -4.14141e-06)
(3.42494e-05 0 0.000163825)
(5.8844e-05 0 0.00018376)
(6.03648e-05 0 0.000170424)
(6.74319e-05 0 0.000156406)
(7.18026e-05 0 0.000149663)
(7.34763e-05 0 0.000154699)
(8.22411e-05 0 0.000140308)
(4.7256e-05 0 0.000141562)
(9.46492e-05 0 6.03501e-05)
(0.000106437 0 2.4883e-05)
(0.000118016 0 -1.28174e-05)
(0.000191433 0 -9.32026e-06)
(0.000143317 0 -0.000147062)
(9.6094e-05 0 -0.000130108)
(8.9931e-05 0 -0.000136428)
(0.00012615 0 -0.000121731)
(0.000132373 0 -9.5918e-05)
(0.000104546 0 -1.07461e-05)
(0.000111593 0 0.000118271)
(-0.00019935 0 0.000436061)
(-0.000567403 0 0.000468739)
(1.02256e-05 0 -0.000682602)
(-3.3291e-12 0 -5.63001e-13)
(-3.95719e-12 0 5.92164e-13)
(-1.61864e-12 0 4.45258e-13)
(-1.03534e-12 0 2.71594e-13)
(-7.18631e-13 0 1.1317e-13)
(-5.24249e-13 0 -1.70272e-14)
(-3.86725e-13 0 -1.19464e-13)
(-2.75386e-13 0 -1.97622e-13)
(-1.76094e-13 0 -2.54786e-13)
(-8.28178e-14 0 -2.93567e-13)
(6.43779e-15 0 -3.16146e-13)
(9.17306e-14 0 -3.2453e-13)
(1.72294e-13 0 -3.20676e-13)
(2.47084e-13 0 -3.0652e-13)
(3.15049e-13 0 -2.83958e-13)
(3.75278e-13 0 -2.54814e-13)
(4.27064e-13 0 -2.20788e-13)
(4.69923e-13 0 -1.83424e-13)
(5.03593e-13 0 -1.44079e-13)
(5.28009e-13 0 -1.03909e-13)
(5.43303e-13 0 -6.38859e-14)
(5.49807e-13 0 -2.48273e-14)
(5.48055e-13 0 1.25907e-14)
(5.38729e-13 0 4.78363e-14)
(5.2258e-13 0 8.05289e-14)
(5.00367e-13 0 1.10434e-13)
(4.72824e-13 0 1.37442e-13)
(4.40649e-13 0 1.61545e-13)
(4.04486e-13 0 1.82811e-13)
(3.64908e-13 0 2.01362e-13)
(3.22401e-13 0 2.17344e-13)
(2.77372e-13 0 2.30896e-13)
(2.30163e-13 0 2.42123e-13)
(1.81086e-13 0 2.51076e-13)
(1.30455e-13 0 2.57761e-13)
(7.86236e-14 0 2.62164e-13)
(2.6228e-14 0 2.6429e-13)
(-3.30606e-05 0 0.00021634)
(-0.000200445 0 0.000264784)
(-0.000331991 0 0.000236093)
(-0.000373169 0 0.000188472)
(-0.000421389 0 8.66104e-05)
(-0.000400861 0 0.00022601)
(-0.000479965 0 0.000230653)
(-0.000576621 0 9.10762e-05)
(-0.000600059 0 0.000102849)
(-0.000638603 0 0.0001025)
(-0.000686217 0 8.7994e-05)
(-0.000737059 0 0.000159646)
(-0.000784675 0 0.00028166)
(-0.000844102 0 0.000345236)
(-0.000867393 0 0.000427171)
(-0.000865477 0 0.000476914)
(-0.000859171 0 0.000501559)
(-0.000869735 0 0.000475246)
(-0.000868538 0 0.000433827)
(-0.000878748 0 0.000402262)
(-0.000901976 0 0.000369488)
(-0.000896622 0 0.000374155)
(-0.0009492 0 0.000302141)
(-0.00101505 0 0.000275769)
(-0.0010403 0 0.000312949)
(-0.00108032 0 0.000308478)
(-0.00114889 0 0.000259455)
(-0.0011742 0 0.000336236)
(-0.00121394 0 0.000300943)
(-0.00123264 0 0.000290715)
(-0.00123287 0 0.000288401)
(-0.00120568 0 0.00023765)
(-0.00118077 0 0.000157614)
(-0.00115263 0 9.04657e-05)
(-0.00112628 0 4.939e-05)
(-0.00111639 0 -1.62891e-05)
(-0.00109437 0 -7.03868e-05)
(-0.00105 0 -6.97522e-05)
(-0.00103478 0 -0.000110698)
(-0.00105864 0 -0.000176321)
(-0.00107077 0 -0.00018928)
(-0.00104542 0 -0.000302854)
(-0.00101747 0 -0.000491996)
(-0.00104643 0 -0.000490831)
(-0.00103455 0 -0.000533574)
(-0.00101993 0 -0.00056117)
(-0.00107625 0 -0.000445789)
(-0.00112648 0 -0.000311081)
(-0.00111583 0 -0.000343781)
(-0.00109858 0 -0.000384695)
(-0.000926201 0 -0.000629206)
(-0.00083381 0 -0.000624276)
(-0.000598179 0 -0.000763216)
(-0.000524457 0 -0.000660796)
(-0.000472094 0 -0.000593155)
(-0.000383075 0 -0.000603561)
(-0.000333876 0 -0.000559272)
(-0.000360822 0 -0.000466079)
(-0.000363758 0 -0.000343878)
(-0.000315943 0 -0.000199994)
(-0.000207548 0 -6.62367e-05)
(-0.000102487 0 6.504e-05)
(-3.23301e-05 0 0.000160262)
(5.11724e-05 0 0.000132141)
(5.48212e-05 0 0.000154942)
(8.9035e-05 0 0.000165381)
(0.000127199 0 0.000145294)
(0.000151105 0 0.000144827)
(0.000177148 0 0.000109651)
(0.000205808 0 5.86127e-05)
(0.000219806 0 2.74629e-05)
(0.000241376 0 -1.20082e-05)
(0.000238149 0 -0.000116619)
(0.000265179 0 -9.34474e-05)
(0.000250535 0 -8.11189e-05)
(0.000232729 0 -6.24086e-05)
(0.000227889 0 -4.99911e-05)
(0.000229013 0 -2.57076e-05)
(0.000184947 0 3.91708e-05)
(0.000185144 0 0.000122723)
(0.000393165 0 0.000182753)
(-0.000219676 0 0.000471257)
(9.75632e-06 0 -0.000520111)
(-2.26942e-12 0 -2.63689e-12)
(-3.24261e-12 0 -5.80533e-13)
(-1.46535e-12 0 -1.79166e-13)
(-1.06794e-12 0 -8.7853e-14)
(-8.01691e-13 0 -1.13208e-13)
(-6.12081e-13 0 -1.77076e-13)
(-4.63902e-13 0 -2.4717e-13)
(-3.3704e-13 0 -3.09857e-13)
(-2.2112e-13 0 -3.59368e-13)
(-1.1158e-13 0 -3.93505e-13)
(-7.1402e-15 0 -4.11924e-13)
(9.18254e-14 0 -4.1539e-13)
(1.84282e-13 0 -4.05353e-13)
(2.69041e-13 0 -3.83676e-13)
(3.45014e-13 0 -3.5243e-13)
(4.11338e-13 0 -3.13741e-13)
(4.67431e-13 0 -2.69662e-13)
(5.12991e-13 0 -2.22083e-13)
(5.47977e-13 0 -1.72668e-13)
(5.72552e-13 0 -1.2281e-13)
(5.87053e-13 0 -7.36363e-14)
(5.91985e-13 0 -2.60474e-14)
(5.8804e-13 0 1.92439e-14)
(5.76054e-13 0 6.1692e-14)
(5.56932e-13 0 1.00914e-13)
(5.31571e-13 0 1.36679e-13)
(5.00823e-13 0 1.68888e-13)
(4.65475e-13 0 1.97548e-13)
(4.2624e-13 0 2.22746e-13)
(3.83731e-13 0 2.44625e-13)
(3.38449e-13 0 2.63358e-13)
(2.90782e-13 0 2.79121e-13)
(2.41036e-13 0 2.92065e-13)
(1.89477e-13 0 3.02295e-13)
(1.36386e-13 0 3.09876e-13)
(8.21131e-14 0 3.14851e-13)
(2.73655e-14 0 3.17266e-13)
(-5.50084e-06 0 0.000337537)
(-0.000173143 0 0.000355873)
(-0.000208608 0 0.000371747)
(-0.000291672 0 0.00031262)
(-0.000444862 0 0.000253345)
(-0.000548859 0 0.000221336)
(-0.000614665 0 0.00021909)
(-0.00067408 0 0.000202516)
(-0.000718778 0 0.000185589)
(-0.000762826 0 0.000144928)
(-0.000790124 0 0.000140348)
(-0.000810743 0 0.000252325)
(-0.000858289 0 0.000286287)
(-0.000869014 0 0.000404244)
(-0.000886992 0 0.000447128)
(-0.000879545 0 0.000479387)
(-0.000859671 0 0.000515416)
(-0.000866443 0 0.000498558)
(-0.000870325 0 0.000444382)
(-0.000869692 0 0.000413571)
(-0.000889594 0 0.00036039)
(-0.000888632 0 0.000346064)
(-0.000916065 0 0.000333306)
(-0.000979091 0 0.000319559)
(-0.00100487 0 0.00034026)
(-0.00103845 0 0.000341784)
(-0.00107615 0 0.00034073)
(-0.00109661 0 0.000340417)
(-0.00110348 0 0.000335376)
(-0.00110559 0 0.00030759)
(-0.00109655 0 0.000246988)
(-0.00107525 0 0.000151656)
(-0.00103111 0 0.000123742)
(-0.000994391 0 0.000107467)
(-0.000978997 0 6.33383e-05)
(-0.000980166 0 2.49608e-05)
(-0.000985664 0 -1.47262e-05)
(-0.000948087 0 -0.000182961)
(-0.000927785 0 -0.000163891)
(-0.000924978 0 -0.000165636)
(-0.000917311 0 -0.000247185)
(-0.000906038 0 -0.000345614)
(-0.000977758 0 -0.000327599)
(-0.00103074 0 -0.000350736)
(-0.00101278 0 -0.000481242)
(-0.00106045 0 -0.000441849)
(-0.00107792 0 -0.000418522)
(-0.00109634 0 -0.00038137)
(-0.00113877 0 -0.000326761)
(-0.00108255 0 -0.000447891)
(-0.000901413 0 -0.000763314)
(-0.000873039 0 -0.000743824)
(-0.000612306 0 -0.000931223)
(-0.000589822 0 -0.000798764)
(-0.000471581 0 -0.000734851)
(-0.000378994 0 -0.000623449)
(-0.000308652 0 -0.000557975)
(-0.000375224 0 -0.000453206)
(-0.000420559 0 -0.000349571)
(-0.000393908 0 -0.000276834)
(-0.000342004 0 -0.000172204)
(-0.000235164 0 -4.72319e-05)
(-0.000113269 0 4.50178e-05)
(-1.12906e-05 0 6.98399e-05)
(2.46478e-05 0 0.000148958)
(0.000138319 0 9.77028e-05)
(0.000156307 0 0.000143296)
(0.000243111 0 7.38438e-05)
(0.000259881 0 0.000115868)
(0.000303549 0 8.67912e-05)
(0.000335369 0 5.04918e-06)
(0.00035012 0 -4.66685e-05)
(0.00034942 0 -9.34436e-05)
(0.000335964 0 -0.000113848)
(0.00032809 0 -5.71958e-05)
(0.000293209 0 -9.44267e-05)
(0.000276225 0 -9.66703e-05)
(0.00027445 0 -4.62324e-05)
(0.000231356 0 0.000115835)
(0.000230274 0 0.000154216)
(0.000335988 0 0.000210367)
(-0.000215549 0 0.000310776)
(8.56384e-06 0 -0.000337138)
(-1.5566e-12 0 -2.44632e-12)
(-2.44439e-12 0 -9.4702e-13)
(-1.12565e-12 0 -4.93774e-13)
(-9.69228e-13 0 -3.30761e-13)
(-8.07854e-13 0 -3.01308e-13)
(-6.58211e-13 0 -3.31086e-13)
(-5.19506e-13 0 -3.82319e-13)
(-3.87583e-13 0 -4.35117e-13)
(-2.59741e-13 0 -4.78978e-13)
(-1.35375e-13 0 -5.0868e-13)
(-1.54477e-14 0 -5.22154e-13)
(9.83016e-14 0 -5.19327e-13)
(2.04008e-13 0 -5.01385e-13)
(3.00007e-13 0 -4.70284e-13)
(3.84983e-13 0 -4.28399e-13)
(4.58046e-13 0 -3.78254e-13)
(5.18722e-13 0 -3.22317e-13)
(5.66917e-13 0 -2.6287e-13)
(6.02866e-13 0 -2.01917e-13)
(6.27041e-13 0 -1.41115e-13)
(6.40065e-13 0 -8.17676e-14)
(6.42687e-13 0 -2.48601e-14)
(6.35795e-13 0 2.88715e-14)
(6.20399e-13 0 7.8895e-14)
(5.97567e-13 0 1.24857e-13)
(5.68341e-13 0 1.66563e-13)
(5.33694e-13 0 2.03954e-13)
(4.94507e-13 0 2.37079e-13)
(4.51562e-13 0 2.66067e-13)
(4.05519e-13 0 2.91104e-13)
(3.56898e-13 0 3.12409e-13)
(3.06079e-13 0 3.30208e-13)
(2.53337e-13 0 3.44709e-13)
(1.98898e-13 0 3.56083e-13)
(1.43011e-13 0 3.6446e-13)
(8.60131e-14 0 3.69945e-13)
(2.86426e-14 0 3.72625e-13)
(-6.31292e-06 0 0.000326801)
(9.97621e-05 0 0.000481218)
(-9.47164e-05 0 0.000447506)
(-0.00020875 0 0.000395391)
(-0.00035409 0 0.000361088)
(-0.000466986 0 0.000398361)
(-0.000582543 0 0.00035908)
(-0.000690913 0 0.000286737)
(-0.000769838 0 0.00024155)
(-0.000820226 0 0.000220544)
(-0.000869012 0 0.000182112)
(-0.000906781 0 0.000238896)
(-0.000929696 0 0.000295739)
(-0.000924533 0 0.000361245)
(-0.000906068 0 0.000437731)
(-0.000902031 0 0.00045483)
(-0.000887103 0 0.000479209)
(-0.000843661 0 0.000544944)
(-0.000860952 0 0.000462869)
(-0.000861429 0 0.000420147)
(-0.00086578 0 0.000403197)
(-0.000878862 0 0.000372359)
(-0.000890404 0 0.00034774)
(-0.000910947 0 0.000383495)
(-0.000952107 0 0.000349133)
(-0.000976027 0 0.000343036)
(-0.000988152 0 0.000353679)
(-0.000989113 0 0.000357157)
(-0.000979502 0 0.000336226)
(-0.000954207 0 0.000269755)
(-0.000919107 0 0.000238493)
(-0.000904233 0 0.000184378)
(-0.000888717 0 0.000104935)
(-0.000854601 0 2.30607e-05)
(-0.000819408 0 4.72824e-06)
(-0.000807468 0 -1.24031e-05)
(-0.000811766 0 -7.16402e-05)
(-0.000826449 0 -0.000103255)
(-0.000826566 0 -0.000153554)
(-0.000818133 0 -0.000214213)
(-0.000816912 0 -0.000228691)
(-0.000800308 0 -0.000290989)
(-0.000813962 0 -0.000400049)
(-0.000894559 0 -0.000383219)
(-0.000908714 0 -0.000464655)
(-0.000968685 0 -0.000436649)
(-0.00105092 0 -0.000305578)
(-0.00108226 0 -0.000288462)
(-0.0010912 0 -0.000343341)
(-0.000971961 0 -0.000652901)
(-0.00087067 0 -0.000844687)
(-0.000835469 0 -0.000907607)
(-0.0008092 0 -0.00094523)
(-0.000675176 0 -0.00102385)
(-0.000565625 0 -0.000978758)
(-0.000531735 0 -0.000721713)
(-0.000513159 0 -0.000501207)
(-0.000470499 0 -0.000425561)
(-0.000477237 0 -0.000359253)
(-0.000492129 0 -0.000284509)
(-0.000458833 0 -0.000233562)