/*--------------------------------*- C++ -*----------------------------------*\
  =========                 |
  \\      /  F ield         | OpenFOAM: The Open Source CFD Toolbox
   \\    /   O peration     | Website:  https://openfoam.org
    \\  /    A nd           | Version:  6
     \\/     M anipulation  |
\*---------------------------------------------------------------------------*/
FoamFile
{
    version     2.0;
    format      ascii;
    class       volScalarField;
    location    "1900";
    object      T;
}
// * * * * * * * * * * * * * * * * * * * * * * * * * * * * * * * * * * * * * //

dimensions      [0 0 0 1 0 0 0];

internalField   nonuniform List<scalar> 
4800
(
552.51
552.429
552.349
552.269
552.188
552.108
552.027
551.946
551.865
551.785
551.704
551.624
551.543
551.463
551.382
551.301
551.22
551.14
551.059
550.979
550.899
550.819
550.74
550.662
550.583
550.505
550.428
550.35
550.273
550.196
550.12
550.043
549.967
549.891
549.815
549.739
549.664
549.588
549.513
549.437
549.361
549.284
549.207
549.13
549.053
548.976
548.898
548.821
548.743
548.666
548.588
548.509
548.43
548.349
548.268
548.184
548.099
548.011
547.922
547.829
547.734
547.635
547.533
547.427
547.318
547.204
547.086
546.964
546.838
546.707
546.572
546.433
546.292
546.149
546.004
545.86
545.715
545.57
545.427
545.286
545.146
545.008
544.872
544.738
544.605
544.475
544.346
544.22
544.095
543.971
543.849
543.729
543.609
543.491
543.374
543.258
543.142
543.027
542.914
542.8
542.687
542.575
542.464
542.352
542.241
542.131
542.021
541.911
541.801
541.691
541.582
541.473
541.364
541.255
541.147
541.038
540.929
540.821
540.713
540.604
552.509
552.428
552.347
552.265
552.184
552.102
552.021
551.939
551.858
551.777
551.696
551.615
551.534
551.453
551.372
551.291
551.209
551.128
551.048
550.967
550.887
550.808
550.729
550.65
550.572
550.494
550.416
550.339
550.262
550.185
550.109
550.032
549.956
549.88
549.804
549.728
549.653
549.577
549.502
549.426
549.35
549.274
549.197
549.121
549.044
548.966
548.889
548.812
548.735
548.658
548.58
548.502
548.423
548.342
548.261
548.177
548.092
548.005
547.916
547.823
547.729
547.63
547.529
547.424
547.315
547.202
547.084
546.963
546.837
546.707
546.572
546.435
546.294
546.151
546.007
545.862
545.716
545.571
545.427
545.285
545.145
545.007
544.87
544.736
544.603
544.473
544.345
544.218
544.093
543.97
543.848
543.727
543.608
543.49
543.373
543.257
543.141
543.027
542.913
542.8
542.687
542.575
542.463
542.352
542.241
542.131
542.02
541.91
541.801
541.691
541.582
541.473
541.364
541.255
541.147
541.038
540.929
540.821
540.713
540.604
552.509
552.425
552.342
552.258
552.175
552.092
552.009
551.927
551.844
551.762
551.68
551.598
551.516
551.434
551.352
551.27
551.189
551.108
551.027
550.946
550.866
550.786
550.707
550.628
550.55
550.472
550.395
550.317
550.241
550.164
550.088
550.011
549.935
549.859
549.783
549.707
549.632
549.556
549.481
549.405
549.33
549.254
549.178
549.102
549.026
548.949
548.872
548.796
548.719
548.642
548.565
548.487
548.408
548.328
548.247
548.164
548.079
547.993
547.904
547.812
547.718
547.62
547.52
547.415
547.307
547.195
547.078
546.958
546.832
546.703
546.57
546.434
546.294
546.152
546.007
545.862
545.716
545.571
545.426
545.283
545.142
545.003
544.866
544.731
544.599
544.469
544.341
544.214
544.09
543.967
543.845
543.725
543.606
543.488
543.371
543.255
543.14
543.025
542.912
542.799
542.686
542.574
542.462
542.351
542.24
542.13
542.02
541.91
541.8
541.691
541.582
541.473
541.364
541.255
541.146
541.038
540.929
540.821
540.713
540.604
552.507
552.421
552.335
552.25
552.164
552.078
551.993
551.909
551.825
551.741
551.658
551.574
551.491
551.408
551.325
551.243
551.161
551.079
550.997
550.916
550.836
550.756
550.677
550.598
550.52
550.442
550.364
550.287
550.211
550.134
550.058
549.982
549.906
549.829
549.753
549.678
549.602
549.527
549.452
549.377
549.302
549.226
549.151
549.075
549
548.924
548.848
548.772
548.695
548.619
548.542
548.465
548.387
548.307
548.227
548.144
548.06
547.974
547.886
547.795
547.701
547.604
547.505
547.401
547.294
547.182
547.067
546.947
546.823
546.695
546.563
546.428
546.289
546.148
546.004
545.859
545.713
545.568
545.422
545.278
545.136
544.996
544.859
544.725
544.593
544.463
544.335
544.209
544.085
543.962
543.841
543.721
543.602
543.485
543.368
543.253
543.138
543.023
542.91
542.797
542.685
542.573
542.461
542.35
542.24
542.129
542.019
541.909
541.8
541.69
541.581
541.472
541.363
541.255
541.146
541.038
540.929
540.821
540.712
540.604
552.506
552.417
552.328
552.239
552.15
552.062
551.975
551.888
551.802
551.716
551.63
551.545
551.461
551.377
551.293
551.209
551.126
551.044
550.962
550.88
550.799
550.719
550.64
550.561
550.483
550.405
550.327
550.25
550.174
550.097
550.021
549.945
549.869
549.793
549.717
549.642
549.566
549.491
549.416
549.342
549.267
549.192
549.117
549.042
548.967
548.892
548.817
548.741
548.666
548.59
548.513
548.436
548.359
548.28
548.2
548.118
548.034
547.949
547.861
547.77
547.677
547.582
547.483
547.38
547.274
547.163
547.049
546.931
546.808
546.681
546.551
546.417
546.279
546.139
545.996
545.851
545.705
545.559
545.414
545.269
545.127
544.987
544.85
544.716
544.584
544.455
544.327
544.202
544.078
543.956
543.836
543.716
543.598
543.481
543.365
543.249
543.135
543.021
542.908
542.795
542.683
542.571
542.46
542.349
542.238
542.128
542.018
541.908
541.799
541.69
541.581
541.472
541.363
541.254
541.146
541.037
540.929
540.821
540.712
540.604
552.504
552.411
552.319
552.227
552.135
552.044
551.954
551.864
551.775
551.687
551.599
551.513
551.427
551.341
551.256
551.171
551.087
551.004
550.921
550.839
550.758
550.678
550.598
550.519
550.44
550.362
550.285
550.208
550.131
550.055
549.98
549.904
549.828
549.752
549.676
549.6
549.525
549.45
549.376
549.301
549.227
549.153
549.078
549.004
548.929
548.855
548.78
548.705
548.63
548.554
548.478
548.402
548.324
548.245
548.166
548.084
548.001
547.916
547.828
547.739
547.646
547.551
547.453
547.352
547.247
547.138
547.025
546.907
546.786
546.661
546.532
546.399
546.263
546.123
545.981
545.838
545.693
545.547
545.402
545.257
545.115
544.975
544.838
544.704
544.573
544.444
544.318
544.193
544.07
543.949
543.829
543.71
543.592
543.476
543.36
543.245
543.131
543.018
542.905
542.792
542.68
542.569
542.458
542.347
542.237
542.127
542.017
541.907
541.798
541.689
541.58
541.471
541.363
541.254
541.146
541.037
540.929
540.821
540.712
540.604
552.502
552.406
552.31
552.215
552.119
552.025
551.931
551.838
551.747
551.656
551.566
551.477
551.389
551.302
551.216
551.131
551.046
550.962
550.878
550.796
550.714
550.633
550.553
550.474
550.395
550.317
550.239
550.162
550.086
550.01
549.934
549.859
549.783
549.708
549.632
549.556
549.481
549.406
549.332
549.257
549.183
549.109
549.035
548.961
548.887
548.813
548.738
548.663
548.588
548.512
548.436
548.36
548.283
548.204
548.125
548.043
547.961
547.876
547.789
547.7
547.608
547.514
547.417
547.316
547.212
547.105
546.993
546.878
546.758
546.634
546.507
546.375
546.24
546.102
545.962
545.819
545.674
545.529
545.384
545.24
545.098
544.959
544.823
544.69
544.56
544.432
544.306
544.182
544.06
543.94
543.821
543.703
543.586
543.47
543.355
543.24
543.127
543.014
542.901
542.789
542.678
542.566
542.456
542.345
542.235
542.125
542.016
541.906
541.797
541.688
541.579
541.471
541.362
541.253
541.145
541.037
540.929
540.82
540.712
540.604
552.5
552.401
552.301
552.202
552.103
552.005
551.908
551.812
551.717
551.623
551.531
551.44
551.351
551.263
551.175
551.089
551.003
550.918
550.834
550.751
550.669
550.587
550.507
550.428
550.349
550.271
550.193
550.116
550.039
549.963
549.887
549.812
549.736
549.661
549.586
549.51
549.434
549.359
549.285
549.211
549.136
549.062
548.988
548.914
548.84
548.765
548.691
548.616
548.54
548.465
548.389
548.312
548.235
548.157
548.077
547.996
547.914
547.829
547.743
547.654
547.563
547.47
547.374
547.274
547.171
547.065
546.955
546.841
546.723
546.601
546.475
546.346
546.212
546.075
545.936
545.794
545.651
545.506
545.362
545.219
545.078
544.94
544.805
544.673
544.544
544.417
544.293
544.17
544.049
543.93
543.811
543.694
543.578
543.463
543.349
543.235
543.122
543.009
542.897
542.786
542.675
542.564
542.453
542.343
542.233
542.124
542.014
541.905
541.796
541.687
541.578
541.47
541.361
541.253
541.145
541.036
540.928
540.82
540.712
540.604
552.498
552.395
552.293
552.19
552.088
551.987
551.886
551.786
551.688
551.592
551.497
551.404
551.313
551.223
551.134
551.047
550.961
550.875
550.791
550.707
550.625
550.543
550.462
550.383
550.304
550.225
550.147
550.07
549.993
549.917
549.841
549.765
549.689
549.614
549.538
549.462
549.386
549.311
549.236
549.161
549.086
549.012
548.937
548.863
548.788
548.713
548.638
548.563
548.488
548.412
548.335
548.259
548.182
548.103
548.024
547.943
547.861
547.777
547.691
547.603
547.513
547.42
547.324
547.226
547.124
547.019
546.911
546.799
546.682
546.562
546.438
546.31
546.178
546.043
545.904
545.764
545.622
545.479
545.336
545.194
545.054
544.917
544.783
544.653
544.525
544.4
544.277
544.156
544.036
543.918
543.801
543.685
543.57
543.456
543.342
543.229
543.117
543.005
542.893
542.782
542.671
542.561
542.45
542.341
542.231
542.122
542.012
541.903
541.795
541.686
541.577
541.469
541.36
541.252
541.144
541.036
540.928
540.82
540.712
540.604
552.497
552.391
552.285
552.179
552.074
551.969
551.865
551.763
551.662
551.563
551.465
551.37
551.277
551.186
551.096
551.008
550.921
550.835
550.75
550.667
550.584
550.502
550.421
550.34
550.261
550.182
550.104
550.026
549.949
549.872
549.795
549.719
549.642
549.566
549.489
549.413
549.337
549.26
549.185
549.109
549.034
548.958
548.883
548.808
548.733
548.657
548.582
548.506
548.43
548.354
548.278
548.201
548.124
548.045
547.966
547.885
547.803
547.719
547.634
547.546
547.457
547.364
547.27
547.172
547.072
546.968
546.861
546.75
546.636
546.517
546.395
546.269
546.138
546.005
545.868
545.729
545.588
545.447
545.306
545.165
545.027
544.891
544.759
544.63
544.504
544.381
544.26
544.14
544.022
543.905
543.79
543.675
543.561
543.447
543.335
543.222
543.111
542.999
542.888
542.778
542.667
542.557
542.447
542.338
542.229
542.119
542.011
541.902
541.793
541.685
541.576
541.468
541.36
541.252
541.144
541.036
540.928
540.82
540.712
540.604
552.495
552.386
552.278
552.169
552.061
551.953
551.846
551.741
551.638
551.537
551.437
551.34
551.245
551.153
551.062
550.973
550.885
550.799
550.714
550.629
550.546
550.463
550.382
550.3
550.22
550.141
550.062
549.983
549.905
549.827
549.749
549.672
549.595
549.517
549.44
549.363
549.285
549.208
549.132
549.055
548.979
548.903
548.827
548.75
548.674
548.598
548.522
548.446
548.37
548.293
548.216
548.139
548.062
547.983
547.904
547.823
547.741
547.658
547.572
547.485
547.396
547.305
547.211
547.114
547.015
546.912
546.806
546.697
546.584
546.468
546.347
546.222
546.094
545.961
545.826
545.689
545.55
545.41
545.27
545.132
544.995
544.861
544.731
544.604
544.481
544.36
544.241
544.123
544.007
543.892
543.777
543.664
543.551
543.439
543.327
543.215
543.104
542.994
542.883
542.773
542.663
542.554
542.444
542.335
542.226
542.117
542.009
541.9
541.792
541.683
541.575
541.467
541.359
541.251
541.143
541.035
540.927
540.819
540.712
540.604
552.494
552.383
552.271
552.16
552.049
551.939
551.83
551.723
551.617
551.514
551.413
551.314
551.218
551.124
551.032
550.942
550.854
550.767
550.681
550.596
550.512
550.428
550.346
550.264
550.182
550.101
550.021
549.941
549.862
549.783
549.704
549.625
549.547
549.469
549.39
549.312
549.233
549.155
549.078
549
548.923
548.845
548.768
548.691
548.614
548.537
548.46
548.383
548.306
548.229
548.152
548.074
547.997
547.918
547.838
547.758
547.676
547.592
547.507
547.42
547.332
547.241
547.148
547.053
546.954
546.853
546.749
546.641
546.529
546.414
546.295
546.172
546.045
545.914
545.781
545.644
545.506
545.368
545.23
545.093
544.958
544.826
544.699
544.575
544.455
544.336
544.22
544.105
543.99
543.877
543.764
543.652
543.541
543.429
543.319
543.208
543.098
542.988
542.878
542.768
542.659
542.55
542.441
542.332
542.223
542.115
542.006
541.898
541.79
541.682
541.574
541.466
541.358
541.25
541.142
541.035
540.927
540.819
540.711
540.604
552.493
552.38
552.266
552.153
552.04
551.928
551.817
551.708
551.6
551.495
551.393
551.293
551.195
551.1
551.007
550.916
550.827
550.739
550.652
550.566
550.481
550.397
550.313
550.23
550.147
550.064
549.983
549.901
549.821
549.74
549.66
549.58
549.5
549.42
549.341
549.261
549.182
549.102
549.023
548.945
548.866
548.788
548.709
548.631
548.553
548.475
548.397
548.319
548.242
548.164
548.086
548.008
547.93
547.851
547.771
547.69
547.607
547.524
547.439
547.353
547.265
547.175
547.083
546.988
546.891
546.79
546.687
546.58
546.47
546.356
546.239
546.118
545.993
545.864
545.732
545.597
545.459
545.322
545.184
545.049
544.917
544.788
544.664
544.544
544.427
544.312
544.198
544.085
543.973
543.862
543.751
543.64
543.53
543.42
543.31
543.2
543.091
542.982
542.873
542.764
542.655
542.546
542.437
542.329
542.221
542.112
542.004
541.896
541.788
541.68
541.572
541.465
541.357
541.249
541.142
541.034
540.926
540.819
540.711
540.604
552.492
552.377
552.262
552.147
552.032
551.919
551.806
551.695
551.587
551.48
551.376
551.275
551.176
551.08
550.986
550.894
550.804
550.715
550.628
550.541
550.455
550.369
550.284
550.199
550.114
550.03
549.947
549.864
549.781
549.699
549.617
549.535
549.454
549.373
549.292
549.211
549.13
549.05
548.969
548.889
548.809
548.73
548.65
548.571
548.491
548.412
548.333
548.254
548.176
548.097
548.019
547.94
547.861
547.782
547.701
547.62
547.538
547.454
547.369
547.283
547.196
547.106
547.015
546.921
546.825
546.726
546.624
546.518
546.409
546.297
546.181
546.062
545.938
545.811
545.68
545.546
545.409
545.271
545.134
545
544.87
544.744
544.625
544.51
544.397
544.285
544.175
544.065
543.955
543.846
543.737
543.628
543.519
543.41
543.301
543.193
543.084
542.975
542.867
542.759
542.65
542.542
542.434
542.326
542.218
542.11
542.002
541.894
541.786
541.679
541.571
541.463
541.356
541.248
541.141
541.033
540.926
540.819
540.711
540.604
552.492
552.375
552.258
552.142
552.026
551.911
551.798
551.686
551.576
551.469
551.364
551.261
551.161
551.064
550.969
550.876
550.785
550.695
550.606
550.518
550.431
550.344
550.258
550.171
550.085
549.999
549.913
549.828
549.744
549.66
549.576
549.493
549.41
549.327
549.245
549.162
549.08
548.998
548.916
548.835
548.754
548.672
548.592
548.511
548.43
548.35
548.27
548.19
548.11
548.031
547.952
547.872
547.792
547.712
547.631
547.549
547.467
547.383
547.298
547.212
547.125
547.036
546.946
546.853
546.758
546.66
546.559
546.455
546.347
546.236
546.122
546.004
545.881
545.755
545.625
545.492
545.356
545.218
545.079
544.944
544.815
544.695
544.582
544.473
544.365
544.258
544.152
544.045
543.938
543.83
543.723
543.616
543.508
543.4
543.292
543.185
543.077
542.969
542.861
542.753
542.646
542.538
542.43
542.323
542.215
542.107
542
541.892
541.785
541.677
541.57
541.462
541.355
541.248
541.14
541.033
540.926
540.818
540.711
540.604
552.491
552.373
552.255
552.138
552.021
551.905
551.791
551.679
551.568
551.46
551.354
551.25
551.149
551.05
550.954
550.86
550.767
550.677
550.587
550.499
550.41
550.323
550.235
550.146
550.058
549.97
549.882
549.795
549.709
549.623
549.537
549.452
549.367
549.283
549.199
549.115
549.032
548.948
548.865
548.782
548.7
548.617
548.534
548.452
548.37
548.288
548.207
548.126
548.045
547.965
547.884
547.804
547.724
547.643
547.561
547.478
547.395
547.311
547.226
547.14
547.053
546.965
546.875
546.783
546.689
546.592
546.493
546.39
546.284
546.174
546.061
545.945
545.824
545.699
545.57
545.437
545.3
545.161
545.019
544.88
544.75
544.639
544.536
544.434
544.333
544.231
544.128
544.024
543.92
543.815
543.709
543.603
543.497
543.39
543.284
543.177
543.07
542.963
542.856
542.748
542.641
542.534
542.427
542.319
542.212
542.105
541.997
541.89
541.783
541.676
541.568
541.461
541.354
541.247
541.139
541.032
540.925
540.818
540.711
540.604
552.491
552.372
552.253
552.135
552.018
551.901
551.786
551.673
551.562
551.453
551.346
551.241
551.139
551.039
550.941
550.845
550.752
550.66
550.57
550.481
550.392
550.303
550.213
550.124
550.034
549.944
549.854
549.765
549.676
549.588
549.501
549.414
549.327
549.241
549.156
549.07
548.985
548.9
548.816
548.731
548.647
548.563
548.479
548.395
548.312
548.229
548.146
548.063
547.981
547.9
547.818
547.737
547.655
547.574
547.491
547.408
547.324
547.24
547.155
547.068
546.981
546.893
546.804
546.713
546.62
546.524
546.426
546.325
546.221
546.113
546.001
545.886
545.767
545.643
545.515
545.383
545.246
545.104
544.957
544.807
544.664
544.574
544.487
544.397
544.302
544.205
544.106
544.005
543.903
543.8
543.696
543.591
543.486
543.381
543.275
543.169
543.063
542.957
542.85
542.743
542.637
542.53
542.423
542.316
542.209
542.102
541.995
541.888
541.781
541.674
541.567
541.46
541.353
541.246
541.139
541.032
540.925
540.818
540.711
540.604
552.49
552.371
552.252
552.133
552.015
551.898
551.783
551.669
551.557
551.447
551.34
551.234
551.13
551.028
550.929
550.832
550.737
550.644
550.553
550.463
550.374
550.284
550.194
550.104
550.012
549.92
549.829
549.737
549.646
549.556
549.466
549.377
549.289
549.201
549.114
549.027
548.941
548.854
548.768
548.683
548.597
548.511
548.426
548.341
548.256
548.171
548.086
548.003
547.919
547.836
547.754
547.671
547.588
547.506
547.422
547.339
547.254
547.169
547.084
546.997
546.91
546.822
546.733
546.643
546.551
546.456
546.36
546.26
546.158
546.052
545.942
545.829
545.711
545.589
545.463
545.331
545.194
545.051
544.899
544.728
544.528
544.508
544.443
544.363
544.274
544.182
544.086
543.987
543.887
543.786
543.683
543.58
543.476
543.372
543.267
543.162
543.056
542.95
542.845
542.738
542.632
542.526
542.419
542.313
542.206
542.1
541.993
541.886
541.779
541.672
541.566
541.459
541.352
541.245
541.138
541.031
540.924
540.817
540.71
540.603
552.49
552.37
552.251
552.132
552.014
551.897
551.782
551.667
551.555
551.444
551.335
551.228
551.123
551.019
550.918
550.819
550.722
550.629
550.537
550.447
550.357
550.267
550.177
550.085
549.992
549.899
549.805
549.712
549.619
549.526
549.435
549.344
549.254
549.164
549.075
548.987
548.898
548.811
548.723
548.636
548.549
548.463
548.376
548.289
548.203
548.116
548.03
547.945
547.86
547.775
547.691
547.607
547.523
547.439
547.355
547.27
547.185
547.1
547.014
546.927
546.84
546.752
546.664
546.574
546.482
546.389
546.294
546.196
546.095
545.991
545.884
545.772
545.657
545.537
545.413
545.283
545.149
545.008
544.861
544.709
544.566
544.489
544.416
544.337
544.251
544.161
544.068
543.971
543.873
543.773
543.671
543.569
543.466
543.363
543.259
543.155
543.05
542.945
542.839
542.734
542.628
542.522
542.416
542.31
542.204
542.097
541.991
541.884
541.778
541.671
541.564
541.458
541.351
541.244
541.137
541.031
540.924
540.817
540.71
540.603
552.49
552.371
552.252
552.133
552.015
551.898
551.782
551.667
551.554
551.443
551.333
551.224
551.117
551.011
550.908
550.807
550.708
550.613
550.521
550.43
550.341
550.252
550.161
550.068
549.975
549.88
549.784
549.689
549.594
549.5
549.406
549.313
549.221
549.129
549.039
548.949
548.859
548.77
548.681
548.593
548.505
548.417
548.328
548.24
548.152
548.064
547.977
547.889
547.803
547.717
547.631
547.545
547.46
547.374
547.289
547.203
547.117
547.031
546.945
546.858
546.771
546.683
546.595
546.506
546.415
546.323
546.229
546.133
546.034
545.932
545.827
545.718
545.605
545.488
545.367
545.24
545.109
544.972
544.829
544.681
544.54
544.465
544.394
544.317
544.234
544.145
544.052
543.957
543.86
543.761
543.661
543.559
543.457
543.355
543.252
543.148
543.044
542.939
542.834
542.729
542.624
542.518
542.413
542.307
542.201
542.095
541.989
541.882
541.776
541.67
541.563
541.457
541.35
541.243
541.137
541.03
540.923
540.817
540.71
540.603
552.49
552.372
552.253
552.135
552.018
551.901
551.785
551.67
551.557
551.444
551.333
551.223
551.114
551.007
550.901
550.798
550.698
550.602
550.508
550.417
550.327
550.238
550.147
550.054
549.959
549.863
549.766
549.669
549.572
549.476
549.38
549.286
549.192
549.098
549.006
548.914
548.823
548.732
548.643
548.553
548.464
548.374
548.285
548.195
548.105
548.016
547.926
547.837
547.749
547.661
547.573
547.486
547.399
547.311
547.224
547.137
547.05
546.963
546.876
546.789
546.702
546.615
546.527
546.438
546.349
546.258
546.166
546.071
545.974
545.874
545.772
545.666
545.556
545.442
545.324
545.202
545.075
544.943
544.803
544.648
544.45
544.438
544.38
544.305
544.221
544.132
544.04
543.945
543.849
543.75
543.651
543.55
543.449
543.347
543.245
543.141
543.038
542.934
542.83
542.725
542.62
542.515
542.41
542.304
542.198
542.093
541.987
541.881
541.774
541.668
541.562
541.456
541.349
541.243
541.136
541.03
540.923
540.816
540.71
540.603
552.491
552.374
552.256
552.139
552.023
551.907
551.792
551.677
551.563
551.45
551.338
551.227
551.116
551.007
550.9
550.797
550.696
550.599
550.504
550.411
550.32
550.228
550.136
550.042
549.946
549.849
549.751
549.652
549.554
549.456
549.359
549.262
549.167
549.072
548.978
548.885
548.792
548.7
548.609
548.517
548.426
548.335
548.244
548.153
548.062
547.97
547.879
547.789
547.698
547.608
547.518
547.429
547.34
547.25
547.162
547.073
546.985
546.897
546.809
546.722
546.635
546.548
546.46
546.373
546.284
546.195
546.104
546.011
545.916
545.818
545.718
545.615
545.509
545.399
545.285
545.168
545.047
544.922
544.794
544.662
544.535
544.458
544.382
544.3
544.214
544.123
544.031
543.936
543.839
543.741
543.642
543.542
543.442
543.34
543.238
543.136
543.033
542.929
542.825
542.721
542.616
542.512
542.407
542.301
542.196
542.09
541.985
541.879
541.773
541.667
541.561
541.455
541.348
541.242
541.136
541.029
540.923
540.816
540.71
540.603
552.492
552.376
552.261
552.146
552.031
551.917
551.802
551.689
551.575
551.462
551.349
551.237
551.125
551.016
550.91
550.807
550.706
550.607
550.51
550.414
550.319
550.225
550.13
550.034
549.937
549.838
549.738
549.638
549.539
549.44
549.342
549.244
549.148
549.052
548.956
548.862
548.767
548.673
548.579
548.486
548.393
548.3
548.207
548.114
548.021
547.928
547.835
547.743
547.65
547.558
547.466
547.374
547.283
547.191
547.1
547.01
546.92
546.831
546.743
546.656
546.569
546.482
546.395
546.308
546.221
546.133
546.043
545.952
545.859
545.764
545.667
545.567
545.463
545.357
545.248
545.136
545.022
544.906
544.789
544.675
544.568
544.478
544.39
544.301
544.21
544.117
544.023
543.928
543.831
543.733
543.635
543.535
543.435
543.334
543.232
543.13
543.028
542.925
542.821
542.717
542.613
542.509
542.404
542.299
542.194
542.089
541.983
541.877
541.772
541.666
541.56
541.454
541.348
541.241
541.135
541.029
540.922
540.816
540.71
540.603
552.493
552.38
552.267
552.155
552.043
551.931
551.818
551.706
551.594
551.481
551.369
551.257
551.146
551.038
550.932
550.828
550.727
550.626
550.526
550.426
550.326
550.227
550.129
550.03
549.931
549.83
549.729
549.628
549.528
549.428
549.329
549.231
549.134
549.038
548.941
548.845
548.748
548.652
548.555
548.459
548.363
548.268
548.173
548.078
547.983
547.889
547.794
547.699
547.605
547.51
547.415
547.321
547.227
547.133
547.04
546.948
546.857
546.767
546.678
546.59
546.504
546.417
546.331
546.245
546.159
546.072
545.985
545.895
545.804
545.711
545.616
545.519
545.418
545.316
545.211
545.104
544.996
544.888
544.781
544.679
544.583
544.495
544.399
544.303
544.208
544.113
544.017
543.921
543.824
543.726
543.628
543.529
543.429
543.328
543.227
543.125
543.023
542.921
542.817
542.714
542.61
542.506
542.401
542.297
542.192
542.087
541.981
541.876
541.77
541.665
541.559
541.453
541.347
541.241
541.135
541.028
540.922
540.816
540.71
540.603
552.495
552.385
552.276
552.167
552.058
551.95
551.841
551.731
551.621
551.51
551.399
551.288
551.178
551.071
550.965
550.862
550.759
550.655
550.551
550.445
550.34
550.236
550.133
550.03
549.928
549.826
549.724
549.622
549.521
549.421
549.322
549.224
549.127
549.03
548.932
548.834
548.735
548.636
548.536
548.436
548.337
548.239
548.142
548.045
547.948
547.852
547.754
547.657
547.56
547.463
547.365
547.268
547.171
547.075
546.98
546.886
546.793
546.702
546.613
546.526
546.44
546.354
546.269
546.185
546.1
546.015
545.928
545.841
545.751
545.659
545.565
545.469
545.371
545.271
545.169
545.067
544.964
544.864
544.766
544.674
544.59
544.518
544.408
544.305
544.206
544.109
544.012
543.915
543.818
543.72
543.622
543.523
543.424
543.323
543.223
543.121
543.019
542.917
542.814
542.711
542.607
542.503
542.399
542.295
542.19
542.085
541.98
541.875
541.769
541.664
541.558
541.452
541.346
541.24
541.134
541.028
540.922
540.816
540.709
540.603
552.497
552.391
552.286
552.182
552.078
551.974
551.87
551.765
551.658
551.55
551.441
551.332
551.223
551.115
551.009
550.904
550.799
550.692
550.583
550.472
550.36
550.25
550.142
550.036
549.931
549.827
549.724
549.622
549.521
549.421
549.322
549.224
549.126
549.028
548.929
548.829
548.728
548.625
548.522
548.419
548.316
548.215
548.115
548.016
547.916
547.816
547.715
547.615
547.514
547.414
547.313
547.213
547.114
547.017
546.92
546.824
546.73
546.638
546.549
546.462
546.378
546.294
546.211
546.129
546.045
545.961
545.875
545.787
545.697
545.604
545.51
545.415
545.318
545.221
545.121
545.021
544.922
544.828
544.739
544.657
544.584
544.519
544.408
544.303
544.202
544.104
544.006
543.909
543.812
543.715
543.617
543.518
543.419
543.319
543.218
543.117
543.016
542.914
542.811
542.708
542.605
542.501
542.397
542.293
542.189
542.084
541.979
541.874
541.768
541.663
541.557
541.452
541.346
541.24
541.134
541.028
540.922
540.816
540.709
540.603
552.499
552.399
552.299
552.2
552.103
552.007
551.909
551.809
551.707
551.603
551.497
551.389
551.28
551.17
551.061
550.952
550.843
550.733
550.62
550.505
550.389
550.273
550.16
550.05
549.943
549.839
549.735
549.633
549.533
549.432
549.331
549.23
549.129
549.028
548.928
548.826
548.724
548.62
548.515
548.409
548.305
548.2
548.096
547.992
547.888
547.783
547.676
547.569
547.463
547.359
547.255
547.153
547.053
546.955
546.859
546.763
546.667
546.576
546.488
546.402
546.32
546.239
546.159
546.078
545.995
545.91
545.823
545.733
545.638
545.541
545.443
545.347
545.254
545.16
545.062
544.963
544.866
544.776
544.695
544.625
544.565
544.513
544.402
544.297
544.196
544.097
544
543.904
543.807
543.71
543.612
543.514
543.415
543.315
543.215
543.114
543.013
542.911
542.809
542.706
542.603
542.499
542.396
542.292
542.187
542.083
541.978
541.873
541.768
541.662
541.557
541.451
541.345
541.24
541.134
541.028
540.922
540.815
540.709
540.603
552.503
552.409
552.317
552.226
552.138
552.05
551.96
551.866
551.77
551.672
551.571
551.465
551.354
551.24
551.124
551.006
550.89
550.775
550.661
550.546
550.431
550.313
550.196
550.082
549.974
549.871
549.769
549.669
549.568
549.462
549.353
549.244
549.131
549.023
548.919
548.819
548.722
548.625
548.523
548.419
548.314
548.204
548.091
547.978
547.864
547.749
547.631
547.514
547.4
547.291
547.183
547.079
546.983
546.892
546.8
546.708
546.611
546.523
546.442
546.357
546.275
546.193
546.114
546.033
545.944
545.855
545.769
545.676
545.567
545.46
545.354
545.256
545.17
545.087
544.993
544.9
544.804
544.705
544.63
544.578
544.535
544.5
544.388
544.285
544.186
544.09
543.994
543.898
543.802
543.705
543.608
543.51
543.411
543.312
543.212
543.112
543.01
542.909
542.807
542.704
542.601
542.498
542.394
542.29
542.186
542.082
541.977
541.872
541.767
541.662
541.556
541.451
541.345
541.239
541.133
541.028
540.921
540.815
540.709
540.603
552.51
552.429
552.348
552.268
552.191
552.114
552.029
551.938
551.847
551.759
551.669
551.571
551.461
551.339
551.209
551.073
550.938
550.81
550.698
550.601
550.498
550.385
550.262
550.138
550.031
549.936
549.844
549.746
549.641
549.516
549.389
549.266
549.122
548.997
548.892
548.803
548.729
548.658
548.567
548.468
548.366
548.242
548.105
547.97
547.83
547.703
547.569
547.433
547.305
547.198
547.092
546.988
546.908
546.833
546.739
546.656
546.559
546.498
546.457
546.355
546.249
546.156
546.076
545.984
545.875
545.783
545.702
545.614
545.482
545.349
545.218
545.123
545.052
544.994
544.917
544.888
544.826
544.629
544.547
544.516
544.491
544.475
544.366
544.269
544.174
544.081
543.987
543.893
543.797
543.701
543.605
543.507
543.409
543.31
543.21
543.109
543.009
542.907
542.805
542.703
542.6
542.497
542.393
542.29
542.185
542.081
541.976
541.872
541.767
541.661
541.556
541.451
541.345
541.239
541.133
541.027
540.921
540.815
540.709
540.603
552.526
552.472
552.41
552.346
552.278
552.213
552.122
552.016
551.924
551.854
551.792
551.72
551.613
551.479
551.341
551.187
551.011
550.834
550.718
550.672
550.604
550.507
550.365
550.204
550.105
550.039
549.972
549.876
549.75
549.57
549.414
549.299
549.071
548.929
548.85
548.782
548.76
548.752
548.674
548.563
548.466
548.311
548.11
547.924
547.718
547.606
547.466
547.294
547.143
547.081
547.016
546.893
546.837
546.798
546.61
546.554
546.504
546.55
546.667
546.425
546.15
546.079
546.101
545.926
545.75
545.685
545.578
545.52
545.451
545.217
544.955
544.913
544.834
544.818
544.777
545.154
545.309
544.58
544.483
544.46
544.434
544.407
544.331
544.248
544.161
544.072
543.981
543.888
543.794
543.698
543.602
543.505
543.407
543.308
543.208
543.108
543.007
542.906
542.804
542.702
542.599
542.496
542.393
542.289
542.185
542.081
541.976
541.871
541.766
541.661
541.556
541.45
541.345
541.239
541.133
541.027
540.921
540.815
540.709
540.603
552.564
552.564
552.533
552.498
552.407
552.357
552.218
552.069
551.96
551.918
551.899
551.904
551.792
551.612
551.528
551.453
551.226
550.87
550.687
550.759
550.698
550.655
550.466
550.19
550.149
550.156
550.133
550.008
549.829
549.559
549.333
549.23
548.957
548.812
548.833
548.83
548.845
548.896
548.916
548.656
548.626
548.381
547.999
547.717
547.467
547.393
547.269
547.065
546.862
546.975
547.08
546.865
546.753
546.855
546.366
546.189
546.423
546.915
547.02
546.411
545.585
545.782
546.297
546.067
545.736
545.673
545.614
545.206
545.829
545.484
544.557
544.882
544.721
544.506
544.715
545.641
545.487
544.115
544.659
544.511
544.409
544.38
544.302
544.229
544.149
544.064
543.976
543.884
543.791
543.696
543.6
543.503
543.405
543.307
543.207
543.107
543.006
542.905
542.803
542.701
542.599
542.496
542.392
542.289
542.185
542.08
541.976
541.871
541.766
541.661
541.556
541.45
541.345
541.239
541.133
541.028
540.922
540.816
540.709