/*--------------------------------*- C++ -*----------------------------------*\
  =========                 |
  \\      /  F ield         | OpenFOAM: The Open Source CFD Toolbox
   \\    /   O peration     | Website:  https://openfoam.org
    \\  /    A nd           | Version:  6
     \\/     M anipulation  |
\*---------------------------------------------------------------------------*/
FoamFile
{
    version     2.0;
    format      ascii;
    class       volVectorField;
    location    "1900";
    object      U;
}
// * * * * * * * * * * * * * * * * * * * * * * * * * * * * * * * * * * * * * //

dimensions      [0 1 -1 0 0 0 0];

internalField   nonuniform List<vector> 
4800
(
(-0.000156942 0 0.000166956)
(0.000130745 0 -0.000228799)
(0.000189692 0 -0.000250722)
(0.000342253 0 -0.000139376)
(0.00040533 0 -3.9344e-05)
(0.000438662 0 -0.000158713)
(0.000540792 0 2.15158e-05)
(0.000626755 0 6.50476e-05)
(0.000629606 0 -3.34684e-05)
(0.000644228 0 -4.09717e-05)
(0.000701856 0 -1.94616e-05)
(0.000785919 0 -1.96354e-05)
(0.000844705 0 -0.000150639)
(0.000889954 0 -0.000186422)
(0.000906045 0 -0.000123724)
(0.000914887 0 -0.000102403)
(0.000923786 0 -0.000155834)
(0.000952619 0 -7.68065e-05)
(0.000965432 0 -8.55696e-05)
(0.000979127 0 -2.93704e-05)
(0.000995592 0 1.96432e-05)
(0.000996817 0 -2.28441e-05)
(0.000998916 0 -1.86481e-05)
(0.00100688 0 -1.92114e-05)
(0.00101936 0 -3.2781e-05)
(0.00103305 0 -6.15287e-05)
(0.00103621 0 -9.96801e-05)
(0.00103621 0 -9.97937e-05)
(0.00103618 0 -8.847e-05)
(0.00103593 0 -6.9431e-05)
(0.0010391 0 -8.24514e-05)
(0.00105946 0 1.61014e-05)
(0.00107804 0 4.02222e-06)
(0.00108345 0 -6.15022e-06)
(0.00109086 0 -1.28176e-05)
(0.00109727 0 -4.14335e-05)
(0.00109814 0 -5.49512e-05)
(0.00109723 0 -5.82183e-05)
(0.00109307 0 -5.5665e-05)
(0.00108328 0 -4.85343e-05)
(0.00106806 0 -4.91766e-05)
(0.00104966 0 -4.08863e-05)
(0.00102295 0 -2.42997e-05)
(0.000982302 0 -2.43671e-05)
(0.000930308 0 -5.96265e-06)
(0.00087881 0 2.2915e-05)
(0.00086057 0 1.92218e-05)
(0.000851818 0 1.94348e-05)
(0.000834474 0 1.35699e-05)
(0.000813521 0 5.5271e-06)
(0.000806259 0 1.97031e-06)
(0.000800098 0 -9.53475e-06)
(0.000787752 0 -1.43383e-05)
(0.000773523 0 5.21738e-06)
(0.000763423 0 1.12108e-05)
(0.000750679 0 7.67919e-06)
(0.000728109 0 -1.04954e-05)
(0.000699831 0 5.07436e-07)
(0.000668211 0 -7.2356e-05)
(0.000642641 0 -2.31011e-05)
(0.000603029 0 -9.06e-05)
(0.000561549 0 2.15846e-05)
(0.000515425 0 -6.78985e-05)
(0.000471971 0 4.5681e-05)
(0.000434434 0 -3.96468e-05)
(0.000393023 0 2.03502e-05)
(0.000351391 0 -3.67398e-05)
(0.000309565 0 -2.16995e-05)
(0.000259118 0 -5.40993e-05)
(0.000186903 0 -0.000106112)
(0.000131522 0 -4.45228e-05)
(6.2911e-05 0 -4.82921e-05)
(-2.81333e-05 0 -4.96551e-05)
(-0.000121968 0 -7.51961e-05)
(-0.000120717 0 -0.000154716)
(-0.000103423 0 -0.000175718)
(-0.000147426 0 -0.000129934)
(-0.000160193 0 -5.75182e-05)
(-8.04578e-05 0 -7.16815e-05)
(-4.78875e-05 0 -5.0529e-05)
(-1.14418e-07 0 -3.67166e-05)
(-2.04401e-13 0 5.91768e-15)
(-4.31004e-13 0 -1.01355e-14)
(-4.04447e-13 0 -1.62662e-14)
(-3.68224e-13 0 -1.97713e-14)
(-3.2586e-13 0 -2.25986e-14)
(-2.78222e-13 0 -2.50939e-14)
(-2.25947e-13 0 -2.71997e-14)
(-1.69925e-13 0 -2.8761e-14)
(-1.11307e-13 0 -2.96787e-14)
(-5.13863e-14 0 -2.9915e-14)
(8.51591e-15 0 -2.94815e-14)
(6.71355e-14 0 -2.84272e-14)
(1.23316e-13 0 -2.68283e-14)
(1.76031e-13 0 -2.47785e-14)
(2.24401e-13 0 -2.23803e-14)
(2.6771e-13 0 -1.97375e-14)
(3.05423e-13 0 -1.69448e-14)
(3.37196e-13 0 -1.40786e-14)
(3.62876e-13 0 -1.11973e-14)
(3.82496e-13 0 -8.3513e-15)
(3.96235e-13 0 -5.58857e-15)
(4.04361e-13 0 -2.94981e-15)
(4.07186e-13 0 -4.61371e-16)
(4.05051e-13 0 1.86317e-15)
(3.98316e-13 0 4.01548e-15)
(3.87352e-13 0 5.98738e-15)
(3.72521e-13 0 7.77281e-15)
(3.54182e-13 0 9.37327e-15)
(3.32703e-13 0 1.07998e-14)
(3.08474e-13 0 1.20688e-14)
(2.81892e-13 0 1.31947e-14)
(2.53324e-13 0 1.41846e-14)
(2.23077e-13 0 1.50367e-14)
(1.91378e-13 0 1.57434e-14)
(1.58396e-13 0 1.62966e-14)
(1.24283e-13 0 1.66904e-14)
(8.92341e-14 0 1.69188e-14)
(5.35531e-14 0 1.69566e-14)
(1.78011e-14 0 1.66777e-14)
(0.00011154 0 -4.94825e-05)
(7.93526e-05 0 -0.000252959)
(0.000283934 0 1.45103e-06)
(0.000317765 0 -8.00691e-05)
(0.000351877 0 -0.000106643)
(0.00038086 0 -0.000123437)
(0.000452764 0 -9.37818e-05)
(0.000504126 0 -0.000138451)
(0.000538666 0 -0.000100963)
(0.000563991 0 -8.30226e-05)
(0.000616974 0 -8.36339e-05)
(0.000710897 0 -7.68707e-05)
(0.000805143 0 9.77864e-06)
(0.000806499 0 2.83795e-05)
(0.000800173 0 4.92971e-05)
(0.000806615 0 4.97051e-05)
(0.000819072 0 0.000116504)
(0.000835052 0 1.84336e-05)
(0.000832814 0 1.59311e-06)
(0.000832586 0 -6.30003e-06)
(0.000840561 0 -1.16057e-05)
(0.000854782 0 -1.50387e-05)
(0.000868612 0 -1.24083e-05)
(0.000885786 0 -9.71781e-06)
(0.000909111 0 -1.82835e-07)
(0.000937258 0 3.40593e-05)
(0.000957014 0 7.14931e-05)
(0.000961323 0 8.06385e-05)
(0.000959337 0 7.27696e-05)
(0.000952063 0 4.97576e-05)
(0.000937135 0 4.14755e-05)
(0.000914636 0 -1.31263e-06)
(0.000910717 0 -2.4592e-05)
(0.000918581 0 -2.49359e-05)
(0.000939545 0 -9.99798e-06)
(0.000967384 0 1.35151e-05)
(0.000984926 0 3.82639e-05)
(0.000995726 0 5.23089e-05)
(0.00099858 0 5.78579e-05)
(0.000992163 0 5.53174e-05)
(0.000974308 0 5.85403e-05)
(0.000955081 0 6.51249e-05)
(0.000937227 0 7.14277e-05)
(0.000916333 0 7.89822e-05)
(0.000877901 0 8.34455e-05)
(0.000816037 0 6.39419e-05)
(0.000798631 0 3.60305e-05)
(0.000795637 0 2.46893e-05)
(0.000785693 0 1.64631e-05)
(0.00078322 0 1.55978e-05)
(0.000784624 0 2.35475e-05)
(0.00078249 0 2.81637e-05)
(0.000773396 0 2.53166e-05)
(0.00075725 0 1.12186e-05)
(0.000738711 0 2.14714e-05)
(0.000721088 0 2.06448e-05)
(0.000699592 0 3.90493e-05)
(0.000682653 0 2.09327e-05)
(0.000662592 0 9.15379e-05)
(0.000653352 0 7.4649e-05)
(0.00062773 0 0.000122703)
(0.000609517 0 7.96757e-05)
(0.000583125 0 9.33475e-05)
(0.000558454 0 8.72343e-05)
(0.000537862 0 4.69042e-05)
(0.000498111 0 0.000104785)
(0.000478541 0 3.68862e-05)
(0.000434604 0 7.43882e-05)
(0.000401014 0 9.97483e-05)
(0.000354065 0 0.000137256)
(0.000288938 0 0.000148015)
(0.000225551 0 0.00011714)
(5.57985e-05 0 0.000194484)
(0.000156201 0 1.39117e-05)
(0.000126614 0 4.21197e-05)
(9.87164e-05 0 8.47247e-05)
(7.50321e-05 0 7.69815e-05)
(-6.92466e-06 0 4.20773e-05)
(-4.69999e-05 0 -5.18895e-05)
(-3.05025e-05 0 -2.78527e-05)
(-1.25761e-07 0 -6.68155e-05)
(-2.14739e-13 0 -6.81256e-15)
(-4.52827e-13 0 -4.03999e-14)
(-4.1373e-13 0 -5.15383e-14)
(-3.7431e-13 0 -5.98917e-14)
(-3.31111e-13 0 -6.80006e-14)
(-2.82823e-13 0 -7.55686e-14)
(-2.29614e-13 0 -8.19908e-14)
(-1.72404e-13 0 -8.67189e-14)
(-1.12461e-13 0 -8.94489e-14)
(-5.11891e-14 0 -9.0083e-14)
(1.00037e-14 0 -8.86819e-14)
(6.97887e-14 0 -8.5424e-14)
(1.26965e-13 0 -8.0565e-14)
(1.80479e-13 0 -7.44004e-14)
(2.29442e-13 0 -6.72318e-14)
(2.73145e-13 0 -5.93472e-14)
(3.11082e-13 0 -5.10062e-14)
(3.42944e-13 0 -4.24275e-14)
(3.68604e-13 0 -3.37921e-14)
(3.88105e-13 0 -2.52592e-14)
(4.01636e-13 0 -1.69725e-14)
(4.09488e-13 0 -9.05195e-15)
(4.11999e-13 0 -1.58381e-15)
(4.09528e-13 0 5.37729e-15)
(4.0244e-13 0 1.17998e-14)
(3.91109e-13 0 1.76713e-14)
(3.75907e-13 0 2.29991e-14)
(3.57209e-13 0 2.78089e-14)
(3.35399e-13 0 3.21335e-14)
(3.10869e-13 0 3.59981e-14)
(2.84007e-13 0 3.94093e-14)
(2.55166e-13 0 4.23566e-14)
(2.24636e-13 0 4.48231e-14)
(1.92638e-13 0 4.68007e-14)
(1.59343e-13 0 4.8299e-14)
(1.24905e-13 0 4.93468e-14)
(8.95002e-14 0 4.99816e-14)
(5.3312e-14 0 5.02272e-14)
(1.75222e-14 0 5.00471e-14)
(3.63664e-05 0 -0.000257934)
(0.000116668 0 -0.000220193)
(0.000128402 0 -0.000258659)
(0.000171839 0 -0.00022206)
(0.000235641 0 -0.000166239)
(0.000243878 0 -0.000219165)
(0.000349054 0 -3.09412e-05)
(0.000400507 0 -3.42817e-05)
(0.000450583 0 -8.66849e-05)
(0.000488249 0 -0.000168369)
(0.000543654 0 -0.00022064)
(0.000604573 0 -0.000147125)
(0.000603419 0 -0.000145687)
(0.000602147 0 -0.000134793)
(0.000608948 0 -0.000111896)
(0.000624496 0 -8.64069e-05)
(0.000652183 0 -8.23649e-05)
(0.000685912 0 -6.41004e-05)
(0.000702502 0 -4.80376e-05)
(0.000712316 0 -3.77577e-05)
(0.000728628 0 -2.65921e-05)
(0.000752212 0 -3.03843e-05)
(0.000764791 0 -3.53685e-05)
(0.000761687 0 -3.63941e-05)
(0.000746585 0 -5.72881e-05)
(0.000742446 0 -7.313e-05)
(0.000753283 0 -7.22371e-05)
(0.000784816 0 -5.98596e-05)
(0.000822724 0 -2.6764e-05)
(0.000842893 0 -8.17786e-06)
(0.000845483 0 -1.22949e-05)
(0.000845056 0 -1.52011e-05)
(0.000839563 0 -1.88918e-05)
(0.000823761 0 -3.03939e-05)
(0.000804394 0 -3.87164e-05)
(0.000801202 0 -4.42011e-05)
(0.00080582 0 -4.7887e-05)
(0.000817 0 -6.21197e-05)
(0.000834822 0 -1.52313e-05)
(0.000835907 0 5.09749e-06)
(0.000832254 0 1.35614e-05)
(0.000824681 0 4.05454e-05)
(0.000815425 0 4.43349e-05)
(0.000796364 0 8.77268e-05)
(0.000766787 0 0.000118932)
(0.000752792 0 4.9137e-05)
(0.000750377 0 3.92548e-05)
(0.000740918 0 3.97697e-05)
(0.000727258 0 4.40136e-06)
(0.000727038 0 1.55285e-06)
(0.00072476 0 9.07237e-06)
(0.000718232 0 1.63581e-05)
(0.000718886 0 1.20863e-05)
(0.000721935 0 3.37937e-05)
(0.000718206 0 4.89145e-05)
(0.00070756 0 5.7883e-05)
(0.00069443 0 6.13721e-05)
(0.000679733 0 5.9284e-05)
(0.000668166 0 4.28349e-05)
(0.000663405 0 3.61983e-05)
(0.000657324 0 5.09569e-05)
(0.000653577 0 3.32141e-05)
(0.000639191 0 9.08899e-05)
(0.000634063 0 1.64694e-05)
(0.000599679 0 0.000123317)
(0.000586532 0 4.21611e-05)
(0.000550467 0 0.000116823)
(0.000504566 0 0.000155345)
(0.00048767 0 6.59616e-05)
(0.000392392 0 0.000209823)
(0.000399953 0 9.86637e-05)
(0.000321097 0 0.000183765)
(0.000286626 0 0.000152869)
(0.000243957 0 0.00016465)
(0.00016996 0 0.000163041)
(0.000172464 0 7.49947e-05)
(0.000129589 0 6.2144e-05)
(3.08455e-05 0 0.000100819)
(-1.62338e-05 0 6.20267e-05)
(7.0794e-06 0 -3.29272e-05)
(-1.35945e-07 0 -8.63778e-05)
(-2.30394e-13 0 -1.48175e-13)
(-4.75011e-13 0 -9.30876e-14)
(-4.23237e-13 0 -8.96384e-14)
(-3.842e-13 0 -9.9968e-14)
(-3.41399e-13 0 -1.13673e-13)
(-2.92212e-13 0 -1.27044e-13)
(-2.37097e-13 0 -1.38339e-13)
(-1.77383e-13 0 -1.4656e-13)
(-1.14671e-13 0 -1.51233e-13)
(-5.06193e-14 0 -1.52252e-13)
(1.31749e-14 0 -1.49777e-13)
(7.52523e-14 0 -1.44152e-13)
(1.3434e-13 0 -1.35839e-13)
(1.89364e-13 0 -1.25349e-13)
(2.39454e-13 0 -1.13187e-13)
(2.83935e-13 0 -9.9828e-14)
(3.22343e-13 0 -8.57029e-14)
(3.5441e-13 0 -7.11848e-14)
(3.80045e-13 0 -5.65886e-14)
(3.99316e-13 0 -4.21872e-14)
(4.12442e-13 0 -2.82235e-14)
(4.1975e-13 0 -1.4902e-14)
(4.21616e-13 0 -2.3757e-15)
(4.18434e-13 0 9.25937e-15)
(4.1061e-13 0 1.99598e-14)
(3.98551e-13 0 2.97273e-14)
(3.82658e-13 0 3.85974e-14)
(3.63316e-13 0 4.66208e-14)
(3.40892e-13 0 5.38397e-14)
(3.1575e-13 0 6.02687e-14)
(2.8825e-13 0 6.58926e-14)
(2.58738e-13 0 7.06814e-14)
(2.27521e-13 0 7.46166e-14)
(1.94854e-13 0 7.7713e-14)
(1.60942e-13 0 8.00282e-14)
(1.25966e-13 0 8.1656e-14)
(9.01145e-14 0 8.27109e-14)
(5.36186e-14 0 8.33164e-14)
(1.76209e-14 0 8.36335e-14)
(7.13402e-05 0 -0.000298435)
(6.28705e-05 0 -0.000268122)
(0.000115492 0 -0.000215055)
(0.000153241 0 -0.000190384)
(0.000181148 0 -0.000183211)
(0.000209956 0 -0.000182121)
(0.000219297 0 -0.000217749)
(0.000283126 0 -0.000195137)
(0.000351091 0 -0.000192069)
(0.000422911 0 -0.000182571)
(0.00049006 0 -0.000118904)
(0.000484361 0 -0.000135562)
(0.00049824 0 -6.24424e-05)
(0.000500248 0 -1.48113e-05)
(0.000498623 0 -9.54473e-06)
(0.000502479 0 -2.78176e-05)
(0.000515005 0 -3.54306e-05)
(0.000523423 0 -4.47164e-05)
(0.000530039 0 -4.42019e-05)
(0.000541821 0 -4.11519e-05)
(0.000563955 0 -3.28559e-05)
(0.000592868 0 -3.80213e-05)
(0.000626355 0 -2.60528e-05)
(0.000638988 0 -1.19168e-05)
(0.000639626 0 -1.10895e-05)
(0.00064144 0 -9.06833e-06)
(0.000643697 0 -1.16294e-05)
(0.000649963 0 -6.36367e-06)
(0.000662505 0 -2.42306e-05)
(0.000679272 0 -3.39624e-07)
(0.000681713 0 1.21323e-05)
(0.000683055 0 1.14796e-05)
(0.000685634 0 3.36069e-06)
(0.000686358 0 -3.76849e-06)
(0.000686472 0 -1.1158e-05)
(0.000682216 0 -2.91794e-05)
(0.000682761 0 -4.16578e-06)
(0.000683884 0 1.62252e-06)
(0.000692155 0 1.95326e-05)
(0.000689677 0 3.30656e-05)
(0.000682817 0 4.08395e-05)
(0.000672259 0 4.93021e-05)
(0.000658804 0 8.6289e-05)
(0.000642934 0 0.000105948)
(0.000643945 0 0.000103853)
(0.000667819 0 7.95906e-05)
(0.000675349 0 5.91507e-05)
(0.000658591 0 5.38252e-05)
(0.000658127 0 3.8322e-05)
(0.000675886 0 2.42628e-05)
(0.00070017 0 2.15895e-05)
(0.000699549 0 2.19044e-05)
(0.000702185 0 3.57903e-05)
(0.000716887 0 3.58602e-05)
(0.000735621 0 4.19354e-05)
(0.000734768 0 4.22921e-05)
(0.00073263 0 5.06375e-05)
(0.000730753 0 5.13578e-05)
(0.00072638 0 5.44771e-05)
(0.000720342 0 7.69171e-05)
(0.000718597 0 7.28409e-05)
(0.000708183 0 0.000105704)
(0.000699676 0 7.42058e-05)
(0.000674637 0 0.000133113)
(0.000658087 0 7.63709e-05)
(0.000621438 0 0.000125334)
(0.000591729 0 0.000104961)
(0.000558011 0 9.65851e-05)
(0.000504574 0 0.000156442)
(0.000483575 0 8.36391e-05)
(0.000427995 0 0.000188267)
(0.000410115 0 0.000188881)
(0.000394393 0 0.00017911)
(0.000366627 0 0.000155343)
(0.000276145 0 0.000194749)
(0.000296078 0 4.00283e-05)
(0.000209085 0 9.84089e-05)
(0.000186372 0 -1.5e-05)
(0.000147815 0 3.02721e-05)
(0.000138562 0 -3.83547e-05)
(1.16062e-07 0 -5.39927e-05)
(-2.57563e-13 0 -6.47965e-14)
(-3.93594e-13 0 -9.40046e-14)
(-4.19919e-13 0 -1.13753e-13)
(-3.97874e-13 0 -1.36244e-13)
(-3.58062e-13 0 -1.59376e-13)
(-3.0749e-13 0 -1.80495e-13)
(-2.4913e-13 0 -1.97784e-13)
(-1.85297e-13 0 -2.10134e-13)
(-1.18154e-13 0 -2.17058e-13)
(-4.97328e-14 0 -2.18529e-13)
(1.81042e-14 0 -2.14856e-13)
(8.3726e-14 0 -2.06585e-13)
(1.45768e-13 0 -1.94405e-13)
(2.03131e-13 0 -1.7907e-13)
(2.54963e-13 0 -1.61322e-13)
(3.00629e-13 0 -1.41865e-13)
(3.39725e-13 0 -1.21347e-13)
(3.72058e-13 0 -1.00338e-13)
(3.97601e-13 0 -7.93095e-14)
(4.1647e-13 0 -5.86537e-14)
(4.28922e-13 0 -3.87041e-14)
(4.35336e-13 0 -1.97416e-14)
(4.36161e-13 0 -1.97568e-15)
(4.31863e-13 0 1.4468e-14)
(4.22908e-13 0 2.95426e-14)
(4.09747e-13 0 4.32605e-14)
(3.928e-13 0 5.56708e-14)
(3.72451e-13 0 6.68349e-14)
(3.49047e-13 0 7.68043e-14)
(3.22922e-13 0 8.56061e-14)
(2.9442e-13 0 9.3243e-14)
(2.6389e-13 0 9.9709e-14)
(2.31667e-13 0 1.05014e-13)
(1.9805e-13 0 1.09207e-13)
(1.63286e-13 0 1.1238e-13)
(1.27588e-13 0 1.14667e-13)
(9.11607e-14 0 1.16222e-13)
(5.42346e-14 0 1.17201e-13)
(1.78392e-14 0 1.17739e-13)
(1.99255e-09 0 -0.000353474)
(5.55343e-05 0 -0.000280261)
(6.63718e-05 0 -0.000246799)
(9.71542e-05 0 -0.000229031)
(0.00012369 0 -0.000223499)
(0.000147995 0 -0.000232984)
(0.000210472 0 -0.000205142)
(0.000232347 0 -0.00020919)
(0.000285661 0 -0.000206223)
(0.000293624 0 -0.000249069)
(0.000338383 0 -0.000217576)
(0.000340308 0 -0.00019564)
(0.000359192 0 -0.000121631)
(0.000359714 0 -8.44093e-05)
(0.000360778 0 -7.30244e-05)
(0.00036806 0 -6.67047e-05)
(0.000370143 0 -6.66564e-05)
(0.000371869 0 -6.69014e-05)
(0.000377245 0 -6.80707e-05)
(0.000386862 0 -7.88009e-05)
(0.000404506 0 -8.50081e-05)
(0.000435021 0 -8.02256e-05)
(0.000471771 0 -5.31469e-05)
(0.00047469 0 -4.84252e-05)
(0.000477024 0 -5.17348e-05)
(0.000484292 0 -6.13883e-05)
(0.000493542 0 -7.28049e-05)
(0.000508813 0 -7.75567e-05)
(0.000533147 0 -3.98943e-05)
(0.000540674 0 -8.55964e-06)
(0.000536011 0 -6.43265e-06)
(0.000525406 0 -3.49324e-07)
(0.000506505 0 2.97993e-06)
(0.000497141 0 9.90084e-06)
(0.000499744 0 1.40452e-05)
(0.000501693 0 -2.44475e-05)
(0.000510602 0 -1.36443e-05)
(0.000516165 0 -8.16982e-05)
(0.000522934 0 3.42201e-05)
(0.00051855 0 3.33574e-05)
(0.000514328 0 4.63329e-05)
(0.000513144 0 7.06483e-05)
(0.000528365 0 8.99036e-05)
(0.000535549 0 9.11239e-05)
(0.000536543 0 7.52609e-05)
(0.000555394 0 6.29556e-05)
(0.000593521 0 8.57541e-05)
(0.000613945 0 -3.41028e-07)
(0.000631058 0 -2.78995e-05)
(0.000669803 0 -7.54897e-06)
(0.000705881 0 -3.82337e-06)
(0.000721427 0 -1.80156e-05)
(0.000736284 0 -3.31193e-05)
(0.000759669 0 -2.755e-05)
(0.000774215 0 2.95406e-05)
(0.000772436 0 3.87286e-05)
(0.000767698 0 6.17356e-05)
(0.000762656 0 7.0466e-05)
(0.000754672 0 6.13172e-05)
(0.000742587 0 5.83916e-05)
(0.000733523 0 8.14416e-05)
(0.000730142 0 7.83884e-05)
(0.000721087 0 9.16829e-05)
(0.000701893 0 0.000111116)
(0.000675642 0 0.000124621)
(0.000644434 0 0.000142064)
(0.000616997 0 0.000146318)
(0.000587489 0 0.000162471)
(0.000542737 0 0.000196632)
(0.000525364 0 0.000177023)
(0.000482414 0 0.000225813)
(0.000452575 0 0.000242342)
(0.000421002 0 0.000254029)
(0.000382948 0 0.000232596)
(0.000378361 0 0.000123783)
(0.000255869 0 0.000190426)
(0.000159593 0 0.000208634)
(0.000165301 0 0.000157269)
(9.31799e-05 0 0.000155951)
(8.75434e-05 0 8.82841e-05)
(-1.45097e-07 0 5.7917e-06)
(-2.61332e-13 0 -9.53778e-14)
(-5.23258e-13 0 -1.04277e-13)
(-4.64788e-13 0 -1.34813e-13)
(-4.29373e-13 0 -1.7137e-13)
(-3.85544e-13 0 -2.06776e-13)
(-3.30621e-13 0 -2.37664e-13)
(-2.66736e-13 0 -2.62175e-13)
(-1.96657e-13 0 -2.793e-13)
(-1.23066e-13 0 -2.88688e-13)
(-4.8417e-14 0 -2.90493e-13)
(2.51193e-14 0 -2.85247e-13)
(9.57028e-14 0 -2.73758e-13)
(1.61854e-13 0 -2.57006e-13)
(2.22447e-13 0 -2.36046e-13)
(2.76659e-13 0 -2.11915e-13)
(3.2391e-13 0 -1.85579e-13)
(3.63871e-13 0 -1.57933e-13)
(3.96448e-13 0 -1.29771e-13)
(4.21728e-13 0 -1.01754e-13)
(4.39921e-13 0 -7.4399e-14)
(4.51354e-13 0 -4.81179e-14)
(4.56478e-13 0 -2.32413e-14)
(4.55825e-13 0 -1.9615e-17)
(4.49953e-13 0 2.13895e-14)
(4.39403e-13 0 4.09211e-14)
(4.24679e-13 0 5.8587e-14)
(4.06233e-13 0 7.4451e-14)
(3.8445e-13 0 8.86016e-14)
(3.59664e-13 0 1.01128e-13)
(3.32189e-13 0 1.12101e-13)
(3.02353e-13 0 1.21573e-13)
(2.70509e-13 0 1.29581e-13)
(2.37019e-13 0 1.36173e-13)
(2.02219e-13 0 1.41427e-13)
(1.66402e-13 0 1.4546e-13)
(1.29808e-13 0 1.48428e-13)
(9.26493e-14 0 1.50501e-13)
(5.51363e-14 0 1.51845e-13)
(1.81589e-14 0 1.5258e-13)
(9.99738e-06 0 -0.000376108)
(2.49648e-05 0 -0.000295535)
(3.35524e-05 0 -0.000260048)
(5.85471e-05 0 -0.000242197)
(3.90165e-05 0 -0.000257864)
(9.4193e-05 0 -0.000263431)
(0.000122605 0 -0.000273178)
(0.000167889 0 -0.00025715)
(0.000193737 0 -0.000258424)
(0.000213903 0 -0.000255772)
(0.000227254 0 -0.000217106)
(0.00023388 0 -0.000155857)
(0.00023505 0 -7.28325e-05)
(0.000230405 0 -4.77198e-05)
(0.000223449 0 -5.48852e-05)
(0.000223711 0 -5.61618e-05)
(0.000223031 0 -5.90043e-05)
(0.000226224 0 -6.01e-05)
(0.000227218 0 -7.8429e-05)
(0.000231129 0 -9.81096e-05)
(0.00023724 0 -0.000119645)
(0.000267457 0 -0.000100823)
(0.000291338 0 -4.4984e-05)
(0.000285232 0 -3.56984e-05)
(0.000286165 0 -3.3273e-05)
(0.000293624 0 -3.83069e-05)
(0.000302474 0 -6.39813e-05)
(0.000320852 0 -7.92991e-05)
(0.000348221 0 -7.13252e-05)
(0.000373537 0 -1.83082e-05)
(0.000380736 0 2.77692e-06)
(0.000379977 0 8.75231e-07)
(0.000383075 0 -7.2664e-06)
(0.000385839 0 -2.41844e-05)
(0.000375564 0 -2.80082e-05)
(0.000345182 0 -2.11753e-05)
(0.000348417 0 -3.24042e-05)
(0.000376185 0 -3.35664e-05)
(0.000387332 0 6.16583e-06)
(0.000379053 0 3.02606e-05)
(0.000381831 0 4.73941e-05)
(0.000407224 0 5.73692e-06)
(0.000431688 0 8.54608e-05)
(0.000447526 0 0.000127588)
(0.000474284 0 3.7004e-05)
(0.000505526 0 2.36215e-06)
(0.000554335 0 7.41842e-05)
(0.000620168 0 1.39502e-05)
(0.000672131 0 -0.000103298)
(0.000712493 0 -6.00281e-05)
(0.00072222 0 -1.69287e-05)
(0.000731702 0 -1.78815e-05)
(0.000755345 0 7.97736e-06)
(0.00076087 0 3.88583e-05)
(0.000754308 0 4.169e-05)
(0.000751558 0 4.47551e-05)
(0.000752564 0 5.52287e-05)
(0.000750683 0 6.37052e-05)
(0.000747394 0 7.07034e-05)
(0.000740451 0 7.14961e-05)
(0.000726163 0 8.30065e-05)
(0.000715299 0 0.000100447)
(0.000705456 0 0.000130616)
(0.000692133 0 0.000140386)
(0.000667021 0 0.000158414)
(0.000641635 0 0.000169237)
(0.000609366 0 0.000211551)
(0.000580227 0 0.000228172)
(0.000552915 0 0.000233178)
(0.000509312 0 0.000269505)
(0.000482513 0 0.000253085)
(0.000448918 0 0.000252741)
(0.000395747 0 0.000287376)
(0.000412456 0 0.000186862)
(0.000327324 0 0.000238271)
(0.000218405 0 0.000267427)
(0.000275361 0 0.000120403)
(0.000233289 0 0.000138248)
(0.000235083 0 0.000100498)
(0.000177261 0 0.000118004)
(1.94759e-07 0 7.38024e-05)
(-2.88224e-13 0 -6.45195e-14)
(-4.32327e-13 0 -9.27595e-14)
(-4.86329e-13 0 -1.49544e-13)
(-4.69412e-13 0 -2.07136e-13)
(-4.24272e-13 0 -2.58431e-13)
(-3.62889e-13 0 -3.01114e-13)
(-2.90766e-13 0 -3.3394e-13)
(-2.1181e-13 0 -3.56282e-13)
(-1.29347e-13 0 -3.68086e-13)
(-4.62913e-14 0 -3.69797e-13)
(3.48385e-14 0 -3.6227e-13)
(1.11966e-13 0 -3.46664e-13)
(1.8348e-13 0 -3.24323e-13)
(2.48223e-13 0 -2.96681e-13)
(3.0543e-13 0 -2.65134e-13)
(3.54611e-13 0 -2.30961e-13)
(3.95533e-13 0 -1.9532e-13)
(4.28237e-13 0 -1.59242e-13)
(4.52973e-13 0 -1.23587e-13)
(4.70106e-13 0 -8.90134e-14)
(4.80079e-13 0 -5.60071e-14)
(4.83434e-13 0 -2.49319e-14)
(4.80792e-13 0 3.93973e-15)
(4.72804e-13 0 3.04269e-14)
(4.60106e-13 0 5.44475e-14)
(4.43277e-13 0 7.60144e-14)
(4.22815e-13 0 9.52162e-14)
(3.99128e-13 0 1.12188e-13)
(3.72547e-13 0 1.27083e-13)
(3.43367e-13 0 1.40042e-13)
(3.11899e-13 0 1.51183e-13)
(2.7849e-13 0 1.60602e-13)
(2.43513e-13 0 1.68389e-13)
(2.07337e-13 0 1.74649e-13)
(1.70287e-13 0 1.79516e-13)
(1.32629e-13 0 1.83152e-13)
(9.45782e-14 0 1.85736e-13)
(5.63138e-14 0 1.8743e-13)
(1.85744e-14 0 1.88348e-13)
(-7.67662e-06 0 -0.000388319)
(1.4973e-05 0 -0.000299244)
(2.38534e-05 0 -0.000263235)
(1.65627e-05 0 -0.00026338)
(2.10126e-05 0 -0.000262031)
(5.13512e-05 0 -0.000269397)
(7.17106e-06 0 -0.000305513)
(6.43445e-05 0 -0.000302453)
(7.16227e-05 0 -0.000294299)
(0.000121132 0 -0.000279841)
(9.74551e-05 0 -0.000222971)
(0.000109751 0 -0.000166448)
(0.000105239 0 -9.80135e-05)
(0.000100185 0 -7.10681e-05)
(9.47995e-05 0 -6.47543e-05)
(9.88323e-05 0 -5.283e-05)
(9.8955e-05 0 -5.5432e-05)
(9.54289e-05 0 -6.21154e-05)
(8.35611e-05 0 -7.60928e-05)
(8.15957e-05 0 -8.91956e-05)
(8.16864e-05 0 -0.000102518)
(8.71732e-05 0 -0.000106436)
(0.000107201 0 -8.22208e-05)
(0.000113825 0 -6.87214e-05)
(0.000116267 0 -6.11441e-05)
(0.000123586 0 -6.06461e-05)
(0.000126748 0 -7.47774e-05)
(0.000141964 0 -7.36926e-05)
(0.000149099 0 -7.22809e-05)
(0.000176325 0 -6.09927e-05)
(0.000210155 0 -1.11647e-05)
(0.000221521 0 -1.67331e-06)
(0.000221653 0 2.87317e-05)
(0.000232765 0 4.1711e-05)
(0.000202085 0 1.58896e-05)
(0.000197287 0 -3.63816e-05)
(0.000224897 0 -4.95711e-05)
(0.000276076 0 -2.91087e-05)
(0.000316524 0 2.62663e-05)
(0.000330498 0 3.10375e-06)
(0.000336319 0 2.23111e-05)
(0.000359376 0 4.40545e-05)
(0.000411944 0 5.32912e-05)
(0.00046511 0 1.35027e-05)
(0.000510264 0 -1.98835e-05)
(0.000549664 0 -2.47637e-05)
(0.000579904 0 -4.84297e-05)
(0.000628779 0 -5.6562e-05)
(0.000685566 0 -5.12557e-05)
(0.000681709 0 -5.3143e-05)
(0.000677406 0 -4.8366e-05)
(0.000685141 0 -7.22048e-05)
(0.000708181 0 -3.13573e-05)
(0.000707717 0 -1.68353e-05)
(0.000705864 0 1.70818e-05)
(0.000706844 0 3.25408e-05)
(0.000704894 0 7.2842e-05)
(0.000701914 0 8.47049e-05)
(0.000698105 0 7.1915e-05)
(0.000688462 0 0.000106964)
(0.000681851 0 7.03648e-05)
(0.000670467 0 9.84363e-05)
(0.000666773 0 0.000126943)
(0.000657558 0 0.000147672)
(0.000638572 0 0.000173774)
(0.000619598 0 0.000187051)
(0.000591169 0 0.000223851)
(0.000564853 0 0.000241771)
(0.000542472 0 0.000241974)
(0.000503348 0 0.000269003)
(0.000474016 0 0.000268561)
(0.000442871 0 0.000269369)
(0.000389406 0 0.000299275)
(0.000384168 0 0.000254564)
(0.000319724 0 0.000276056)
(0.000275111 0 0.000259065)
(0.000307168 0 0.00018132)
(0.000206293 0 0.000211353)
(5.50378e-05 0 0.000247661)
(7.56188e-05 0 0.000188065)
(-8.94386e-08 0 0.000132166)
(-2.98656e-13 0 1.29692e-13)
(-6.07574e-13 0 -5.25171e-14)
(-5.78482e-13 0 -1.63302e-13)
(-5.37864e-13 0 -2.48805e-13)
(-4.79467e-13 0 -3.1857e-13)
(-4.0613e-13 0 -3.74385e-13)
(-3.21904e-13 0 -4.16156e-13)
(-2.30802e-13 0 -4.43761e-13)
(-1.36581e-13 0 -4.57527e-13)
(-4.26018e-14 0 -4.58295e-13)
(4.82518e-14 0 -4.47356e-13)
(1.3365e-13 0 -4.26324e-13)
(2.11838e-13 0 -3.97005e-13)
(2.81636e-13 0 -3.61294e-13)
(3.42378e-13 0 -3.21024e-13)
(3.93724e-13 0 -2.7784e-13)
(4.3559e-13 0 -2.33185e-13)
(4.68181e-13 0 -1.88323e-13)
(4.91957e-13 0 -1.44311e-13)
(5.07501e-13 0 -1.01958e-13)
(5.15436e-13 0 -6.18267e-14)
(5.16425e-13 0 -2.43013e-14)
(5.11184e-13 0 1.03535e-14)
(5.00461e-13 0 4.19642e-14)
(4.8499e-13 0 7.04529e-14)
(4.65448e-13 0 9.58456e-14)
(4.42407e-13 0 1.18265e-13)
(4.16317e-13 0 1.37907e-13)
(3.87517e-13 0 1.55e-13)
(3.56289e-13 0 1.69772e-13)
(3.22913e-13 0 1.8242e-13)
(2.87715e-13 0 1.93109e-13)
(2.51065e-13 0 2.01975e-13)
(2.13346e-13 0 2.09153e-13)
(1.74905e-13 0 2.14789e-13)
(1.36028e-13 0 2.1905e-13)
(9.69273e-14 0 2.2211e-13)
(5.77484e-14 0 2.24127e-13)
(1.90768e-14 0 2.25205e-13)
(-1.47951e-05 0 -0.000391701)
(-5.83409e-08 0 -0.000294733)
(-7.65415e-05 0 -0.000253965)
(4.00352e-06 0 -0.000267068)
(-8.95621e-06 0 -0.000260959)
(-6.58072e-05 0 -0.000280912)
(4.28963e-07 0 -0.000310545)
(-1.17767e-05 0 -0.000303459)
(-4.64936e-06 0 -0.000293514)
(-0.000100818 0 -0.000296918)
(-5.70139e-05 0 -0.000208715)
(1.02386e-05 0 -0.00017256)
(1.21909e-05 0 -0.000118603)
(9.36346e-06 0 -8.28331e-05)
(-4.90791e-06 0 -6.56702e-05)
(-3.86658e-07 0 -6.69316e-05)
(1.67435e-05 0 -5.96532e-05)
(-1.07101e-06 0 -4.8932e-05)
(-4.62144e-05 0 -5.56405e-05)
(-6.4703e-05 0 -7.47515e-05)
(-7.36802e-05 0 -8.23604e-05)
(-8.79741e-05 0 -7.35773e-05)
(-9.55065e-05 0 -6.67241e-05)
(-8.21583e-05 0 -5.99237e-05)
(-5.17346e-05 0 -5.19104e-05)
(-3.71949e-05 0 -4.22718e-05)
(-3.29874e-05 0 -6.21309e-05)
(-2.76557e-05 0 -6.66097e-05)
(-2.55072e-05 0 -5.88438e-05)
(-6.07948e-06 0 -2.1053e-05)
(4.01069e-05 0 -2.30102e-05)
(6.5604e-05 0 1.43981e-05)
(0.000111985 0 -6.52591e-05)
(0.000165958 0 7.57565e-05)
(0.000186045 0 -3.85008e-05)
(0.000202473 0 -6.7811e-05)
(0.000217002 0 -0.00011331)
(0.000246777 0 -7.75305e-05)
(0.00026869 0 -7.3718e-05)
(0.000317713 0 -1.69749e-05)
(0.000353311 0 -4.24046e-05)
(0.00037652 0 -6.83396e-05)
(0.000414338 0 3.11825e-05)
(0.000479457 0 7.59779e-05)
(0.00052875 0 -7.5988e-05)
(0.00057227 0 -6.20788e-05)
(0.000599917 0 -6.31705e-05)
(0.000613801 0 -8.80777e-05)
(0.000623488 0 -9.5578e-05)
(0.000620161 0 -8.83462e-05)
(0.000620929 0 -5.9929e-05)
(0.000633694 0 -5.00322e-05)
(0.000651207 0 6.41772e-06)
(0.000644972 0 1.46198e-05)
(0.000637839 0 3.93908e-05)
(0.000637084 0 4.98316e-05)
(0.000634236 0 5.91478e-05)
(0.000633359 0 6.11045e-05)
(0.000630381 0 7.55605e-05)
(0.000628319 0 9.33839e-05)
(0.000622819 0 0.000108986)
(0.000618262 0 9.6531e-05)
(0.000599446 0 0.000167508)
(0.000590831 0 0.000180601)
(0.000581834 0 0.000193147)
(0.000567091 0 0.000221576)
(0.000559155 0 0.000223477)
(0.000534052 0 0.000251879)
(0.000514202 0 0.000261842)
(0.000485997 0 0.000284064)
(0.000448545 0 0.000312334)
(0.000426823 0 0.000309584)
(0.000383328 0 0.000323376)
(0.00034892 0 0.000325511)
(0.000351397 0 0.000286614)
(0.000313882 0 0.000281482)
(0.000187738 0 0.000316167)
(0.00016443 0 0.000264331)
(4.92766e-05 0 0.000271386)
(6.99918e-05 0 0.000215775)
(-7.19357e-08 0 0.000179996)
(-3.66566e-13 0 4.39726e-14)
(-7.24588e-13 0 -8.35647e-14)
(-6.81939e-13 0 -2.024e-13)
(-6.2432e-13 0 -3.06006e-13)
(-5.49827e-13 0 -3.9271e-13)
(-4.60475e-13 0 -4.61756e-13)
(-3.60141e-13 0 -5.12517e-13)
(-2.53181e-13 0 -5.4496e-13)
(-1.43881e-13 0 -5.59753e-13)
(-3.61204e-14 0 -5.58212e-13)
(6.68094e-14 0 -5.42202e-13)
(1.62317e-13 0 -5.13937e-13)
(2.4851e-13 0 -4.75797e-13)
(3.24205e-13 0 -4.30228e-13)
(3.88884e-13 0 -3.7958e-13)
(4.42449e-13 0 -3.25935e-13)
(4.8505e-13 0 -2.71056e-13)
(5.17112e-13 0 -2.16428e-13)
(5.39339e-13 0 -1.63286e-13)
(5.5259e-13 0 -1.12574e-13)
(5.57735e-13 0 -6.49303e-14)
(5.55615e-13 0 -2.07431e-14)
(5.47057e-13 0 1.97653e-14)
(5.32903e-13 0 5.64741e-14)
(5.13987e-13 0 8.93489e-14)
(4.91089e-13 0 1.18453e-13)
(4.64876e-13 0 1.43955e-13)
(4.35863e-13 0 1.66114e-13)
(4.04411e-13 0 1.8524e-13)
(3.70788e-13 0 2.01652e-13)
(3.35237e-13 0 2.15635e-13)
(2.98045e-13 0 2.2743e-13)
(2.59557e-13 0 2.37228e-13)
(2.20151e-13 0 2.45197e-13)
(1.80184e-13 0 2.51499e-13)
(1.3995e-13 0 2.56304e-13)
(9.96554e-14 0 2.5978e-13)
(5.94094e-14 0 2.62075e-13)
(1.96532e-14 0 2.63286e-13)
(-3.72722e-05 0 -0.000387036)
(-6.26147e-06 0 -0.000294959)
(-1.1676e-05 0 -0.000243569)
(-8.43614e-05 0 -0.000236359)
(-5.96039e-05 0 -0.000260581)
(-6.1183e-05 0 -0.000287021)
(-7.87081e-05 0 -0.000294926)
(-0.000156676 0 -0.000262314)
(-0.000185873 0 -0.00024793)
(-0.000239635 0 -0.000209735)
(-0.000267584 0 -0.000175734)
(-0.000260556 0 -0.00014284)
(-0.00024822 0 -0.000108574)
(-0.000256062 0 -7.49912e-05)
(-0.000266482 0 -5.70918e-05)
(-0.000259832 0 -4.54984e-05)
(-0.000243312 0 -3.40684e-05)
(-0.000237146 0 -4.15769e-05)
(-0.000232249 0 -6.18446e-05)
(-0.000218503 0 -8.06375e-05)
(-0.000214148 0 -8.40865e-05)
(-0.000213306 0 -8.61181e-05)
(-0.000201241 0 -8.6558e-05)
(-0.000163324 0 -9.92123e-05)
(-0.000127974 0 -9.28841e-05)
(-0.00011728 0 -5.39959e-05)
(-7.0781e-05 0 -0.000103967)
(-4.63891e-05 0 -9.31461e-05)
(-1.2998e-05 0 -0.000110833)
(3.48763e-06 0 -9.7926e-05)
(4.77175e-05 0 -9.92721e-05)
(8.89992e-05 0 -5.94283e-05)
(0.000102933 0 -0.000122458)
(0.000145975 0 5.3255e-05)
(0.000186399 0 -1.26222e-06)
(0.000234365 0 -4.91616e-05)
(0.000238825 0 -6.88736e-05)
(0.000238822 0 -7.60819e-05)
(0.00025238 0 -6.95195e-05)
(0.000280806 0 9.61315e-06)
(0.00033375 0 2.19116e-05)
(0.000374848 0 -3.25045e-05)
(0.000393894 0 -5.04832e-05)
(0.000421782 0 -9.01521e-05)
(0.000465364 0 -0.000136974)
(0.000510113 0 -6.45186e-05)
(0.000519979 0 -3.73468e-05)
(0.000526376 0 -7.36399e-05)
(0.000548461 0 -6.55058e-05)
(0.000550805 0 -5.31515e-05)
(0.000549491 0 -6.8537e-05)
(0.000564815 0 -8.02388e-05)
(0.000578257 0 -1.99705e-05)
(0.000573384 0 5.10141e-07)
(0.000575326 0 1.25957e-05)
(0.000576951 0 5.56858e-05)
(0.000573957 0 7.45581e-05)
(0.000570055 0 7.95585e-05)
(0.000566553 0 9.55843e-05)
(0.00056667 0 0.000105328)
(0.000563985 0 0.000104904)
(0.000551567 0 0.000100427)
(0.000530387 0 0.000160375)
(0.000526919 0 0.00017166)
(0.000512531 0 0.000205366)
(0.000507151 0 0.000222829)
(0.000469186 0 0.000295847)
(0.00046371 0 0.000307789)
(0.000460419 0 0.000307167)
(0.000450094 0 0.000312908)