0.010101 	-4.11355e-10 	4.21398e-13 	-3.94748e-12
0.020202 	-1.59063e-11 	4.00971e-14 	-2.31684e-13
