/*--------------------------------*- C++ -*----------------------------------*\
  =========                 |
  \\      /  F ield         | OpenFOAM: The Open Source CFD Toolbox
   \\    /   O peration     | Website:  https://openfoam.org
    \\  /    A nd           | Version:  6
     \\/     M anipulation  |
\*---------------------------------------------------------------------------*/
FoamFile
{
    version     2.0;
    format      ascii;
    class       surfaceScalarField;
    location    "1800";
    object      phi;
}
// * * * * * * * * * * * * * * * * * * * * * * * * * * * * * * * * * * * * * //

dimensions      [0 3 -1 0 0 0 0];

internalField   nonuniform List<scalar> 
9440
(
-4.97933e-14
4.97932e-14
-9.91025e-14
4.91493e-14
-1.46904e-13
4.76744e-14
-1.92396e-13
4.5369e-14
-2.34879e-13
4.23629e-14
-2.7379e-13
3.87887e-14
-3.08665e-13
3.47579e-14
-3.39202e-13
3.04174e-14
-3.65207e-13
2.58896e-14
-3.86577e-13
2.12541e-14
-4.03347e-13
1.66557e-14
-4.15596e-13
1.21388e-14
-4.23467e-13
7.76157e-15
-4.27562e-13
3.9882e-15
-4.28242e-13
5.74486e-16
-4.2637e-13
-1.97487e-15
-4.22108e-13
-4.36062e-15
-4.1405e-13
-8.15273e-15
-4.04098e-13
-1.00467e-14
-3.93567e-13
-1.06194e-14
-3.83023e-13
-1.06323e-14
-3.68578e-13
-1.45271e-14
-3.55055e-13
-1.36045e-14
-3.41235e-13
-1.38949e-14
-3.26932e-13
-1.43725e-14
-3.12683e-13
-1.43139e-14
-2.98667e-13
-1.40762e-14
-2.84904e-13
-1.38205e-14
-2.71466e-13
-1.34895e-14
-2.58354e-13
-1.31582e-14
-2.45626e-13
-1.27689e-14
-2.33255e-13
-1.24074e-14
-2.21264e-13
-1.20216e-14
-2.09601e-13
-1.16899e-14
-1.98222e-13
-1.14e-14
-1.87146e-13
-1.10889e-14
-1.76278e-13
-1.08776e-14
-1.65628e-13
-1.06568e-14
-1.55077e-13
-1.05515e-14
-1.44624e-13
-1.04491e-14
-1.34182e-13
-1.04337e-14
-1.23773e-13
-1.03956e-14
-1.13302e-13
-1.04542e-14
-1.02762e-13
-1.05161e-14
-9.21763e-14
-1.05606e-14
-8.14613e-14
-1.06859e-14
-7.06348e-14
-1.07932e-14
-5.97535e-14
-1.08438e-14
-4.87589e-14
-1.09535e-14
-3.77454e-14
-1.09689e-14
-2.67169e-14
-1.09817e-14
-1.57455e-14
-1.09214e-14
-4.89804e-15
-1.07933e-14
5.74462e-15
-1.0587e-14
1.60511e-14
-1.02492e-14
2.60455e-14
-9.93512e-15
3.55713e-14
-9.46339e-15
4.4575e-14
-8.93952e-15
5.29366e-14
-8.29637e-15
6.06161e-14
-7.61276e-15
6.75457e-14
-6.86386e-15
7.36632e-14
-6.04891e-15
7.89473e-14
-5.21371e-15
8.33519e-14
-4.33319e-15
8.68722e-14
-3.44903e-15
8.95719e-14
-2.63017e-15
9.14636e-14
-1.81817e-15
9.26064e-14
-1.07102e-15
9.31754e-14
-4.96833e-16
9.33282e-14
-7.98863e-17
9.32805e-14
1.19952e-16
9.33917e-14
-3.97633e-17
9.43615e-14
-8.97098e-16
9.77501e-14
-3.31366e-15
1.07826e-13
-1.00019e-14
1.37425e-13
-2.9526e-14
2.27325e-13
-8.98247e-14
9.59491e-14
1.31447e-13
-4.55232e-17
9.60677e-14
2.8061e-21
4.23664e-22
2.82849e-21
2.06795e-25
2.8212e-21
7.18613e-24
2.81014e-21
1.55613e-23
2.78967e-21
2.3678e-23
2.7602e-21
3.15363e-23
2.72236e-21
3.89809e-23
2.67707e-21
4.58568e-23
2.62475e-21
5.21641e-23
2.56617e-21
5.81611e-23
2.50212e-21
6.35895e-23
2.43305e-21
6.83975e-23
2.35964e-21
7.26368e-23
2.28266e-21
7.64108e-23
2.20237e-21
7.95127e-23
2.11944e-21
8.21494e-23
2.03445e-21
8.43724e-23
1.94765e-21
8.60268e-23
1.8595e-21
8.72676e-23
1.77048e-21
8.80947e-23
1.68099e-21
8.86117e-23
1.59113e-21
8.87668e-23
1.50118e-21
8.86634e-23
1.41174e-21
8.83532e-23
1.32256e-21
8.78362e-23
1.23379e-21
8.71125e-23
1.14606e-21
8.62853e-23
1.05884e-21
8.52513e-23
9.72558e-22
8.41656e-23
8.87255e-22
8.31317e-23
8.02779e-22
8.19943e-23
7.19079e-22
8.08569e-23
6.36464e-22
7.97712e-23
5.54521e-22
7.87373e-23
4.73458e-22
7.78584e-23
3.93066e-22
7.69278e-23
3.13191e-22
7.61523e-23
2.33782e-22
7.54802e-23
1.55045e-22
7.48599e-23
7.69795e-23
7.41878e-23
7.27919e-23
-5.00161e-14
9.96486e-14
-1.00695e-13
9.95744e-14
-1.49716e-13
9.64766e-14
-1.96144e-13
9.15795e-14
-2.39316e-13
8.53215e-14
-2.78744e-13
7.80053e-14
-3.1399e-13
6.97942e-14
-3.44749e-13
6.09662e-14
-3.70758e-13
5.16935e-14
-3.92015e-13
4.23092e-14
-4.08531e-13
3.29726e-14
-4.2042e-13
2.38326e-14
-4.27857e-13
1.50096e-14
-4.31456e-13
7.40085e-15
-4.31669e-13
6.07027e-16
-4.29711e-13
-4.1098e-15
-4.2452e-13
-9.72221e-15
-4.1592e-13
-1.69193e-14
-4.05649e-13
-2.04765e-14
-3.95072e-13
-2.13492e-14
-3.83604e-13
-2.22442e-14
-3.69225e-13
-2.9047e-14
-3.55421e-13
-2.75411e-14
-3.41441e-13
-2.79995e-14
-3.26884e-13
-2.90451e-14
-3.12575e-13
-2.87309e-14
-2.98447e-13
-2.83043e-14
-2.84624e-13
-2.77358e-14
-2.71105e-13
-2.70896e-14
-2.57968e-13
-2.63681e-14
-2.45223e-13
-2.55754e-14
-2.32896e-13
-2.47893e-14
-2.20894e-13
-2.407e-14
-2.09286e-13
-2.33337e-14
-1.97976e-13
-2.27375e-14
-1.86913e-13
-2.21703e-14
-1.76084e-13
-2.17141e-14
-1.65483e-13
-2.12576e-14
-1.54977e-13
-2.10484e-14
-1.44536e-13
-2.08737e-14
-1.34192e-13
-2.07555e-14
-1.23785e-13
-2.0769e-14
-1.1336e-13
-2.08404e-14
-1.0288e-13
-2.09475e-14
-9.22381e-14
-2.11462e-14
-8.15535e-14
-2.13105e-14
-7.0708e-14
-2.15697e-14
-5.97629e-14
-2.17145e-14
-4.87408e-14
-2.18937e-14
-3.76823e-14
-2.19416e-14
-2.66199e-14
-2.19547e-14
-1.56009e-14
-2.18432e-14
-4.7103e-15
-2.15851e-14
6.00173e-15
-2.1196e-14
1.64389e-14
-2.05763e-14
2.65231e-14
-1.99106e-14
3.61569e-14
-1.89862e-14
4.52178e-14
-1.78856e-14
5.36339e-14
-1.65957e-14
6.13921e-14
-1.52511e-14
6.83731e-14
-1.37239e-14
7.45522e-14
-1.21046e-14
7.98469e-14
-1.03845e-14
8.42371e-14
-8.5973e-15
8.77417e-14
-6.82647e-15
9.03658e-14
-5.12566e-15
9.2159e-14
-3.48031e-15
9.32173e-14
-2.00144e-15
9.3639e-14
-7.88178e-16
9.35678e-14
1.22362e-16
9.31267e-14
6.91532e-16
9.25404e-14
6.77007e-16
9.20214e-14
-2.47562e-16
9.15104e-14
-2.67082e-15
8.94812e-14
-7.84474e-15
7.7968e-14
-1.78791e-14
2.27125e-14
-3.44387e-14
2.83548e-14
1.25939e-13
-3.52263e-17
1.24559e-13
2.80615e-21
-2.118e-22
2.83547e-21
-1.03398e-25
2.82958e-21
1.62334e-23
2.81826e-21
3.24151e-23
2.79747e-21
4.8235e-23
2.76764e-21
6.34861e-23
2.72923e-21
7.79618e-23
2.68343e-21
9.18171e-23
2.63064e-21
1.04483e-22
2.57165e-21
1.16426e-22
2.50693e-21
1.27024e-22
2.43734e-21
1.36692e-22
2.36346e-21
1.45274e-22
2.28581e-21
1.52615e-22
2.20506e-21
1.58974e-22
2.12167e-21
1.64195e-22
2.03605e-21
1.68435e-22
1.94884e-21
1.7164e-22
1.86033e-21
1.74018e-22
1.77094e-21
1.75672e-22
1.68119e-21
1.76551e-22
1.59098e-21
1.76706e-22
1.50092e-21
1.76345e-22
1.41117e-21
1.75517e-22
1.32183e-21
1.74225e-22
1.23296e-21
1.72519e-22
1.14497e-21
1.70658e-22
1.05776e-21
1.68538e-22
9.71524e-22
1.66315e-22
8.86066e-22
1.63937e-22
8.0159e-22
1.61507e-22
7.17993e-22
1.59129e-22
6.3543e-22
1.56751e-22
5.53642e-22
1.54631e-22
4.72527e-22
1.52511e-22
3.92239e-22
1.50599e-22
3.12571e-22
1.48944e-22
2.33213e-22
1.47548e-22
1.54269e-22
1.46359e-22
7.56353e-23
1.45532e-22
1.45015e-22
-5.32806e-14
1.52802e-13
-1.04718e-13
1.50795e-13
-1.54366e-13
1.45937e-13
-2.01574e-13
1.38601e-13
-2.45604e-13
1.29168e-13
-2.85765e-13
1.17983e-13
-3.21559e-13
1.05408e-13
-3.5266e-13
9.18872e-14
-3.78895e-13
7.77534e-14
-4.00128e-13
6.33715e-14
-4.16453e-13
4.91263e-14
-4.27931e-13
3.51431e-14
-4.34989e-13
2.19037e-14
-4.37956e-13
1.02091e-14
-4.37644e-13
1.41485e-16
-4.35514e-13
-6.39029e-15
-4.28889e-13
-1.64963e-14
-4.19347e-13
-2.6601e-14
-4.08686e-13
-3.12724e-14
-3.98111e-13
-3.20568e-14
-3.84672e-13
-3.5806e-14
-3.70338e-13
-4.34985e-14
-3.56056e-13
-4.19347e-14
-3.41703e-13
-4.24598e-14
-3.26708e-13
-4.41401e-14
-3.12211e-13
-4.33205e-14
-2.97913e-13
-4.26886e-14
-2.83957e-13
-4.17704e-14
-2.70376e-13
-4.07401e-14
-2.57228e-13
-3.95812e-14
-2.44501e-13
-3.83576e-14
-2.32163e-13
-3.71744e-14
-2.20214e-13
-3.60565e-14
-2.0863e-13
-3.49453e-14
-1.97407e-13
-3.39859e-14
-1.86439e-13
-3.31525e-14
-1.75732e-13
-3.243e-14
-1.65206e-13
-3.1783e-14
-1.5477e-13
-3.14798e-14
-1.44432e-13
-3.11961e-14
-1.34127e-13
-3.10408e-14
-1.23858e-13
-3.10106e-14
-1.13477e-13
-3.1188e-14
-1.03016e-13
-3.13673e-14
-9.24246e-14
-3.16918e-14
-8.17375e-14
-3.19458e-14
-7.09007e-14
-3.23492e-14
-5.992e-14
-3.26327e-14
-4.88667e-14
-3.28807e-14
-3.7685e-14
-3.305e-14
-2.65245e-14
-3.30381e-14
-1.5348e-14
-3.29371e-14
-4.30238e-15
-3.25462e-14
6.56844e-15
-3.19793e-14
1.71441e-14
-3.10565e-14
2.74444e-14
-3.01154e-14
3.72356e-14
-2.86806e-14
4.6474e-14
-2.70249e-14
5.5074e-14
-2.50945e-14
6.29437e-14
-2.30154e-14
7.00234e-14
-2.0699e-14
7.62542e-14
-1.823e-14
8.15721e-14
-1.55951e-14
8.59771e-14
-1.28953e-14
8.94327e-14
-1.01715e-14
9.19276e-14
-7.50828e-15
9.35696e-14
-5.0107e-15
9.4416e-14
-2.73598e-15
9.4555e-14
-8.16954e-16
9.40931e-14
6.97909e-16
9.30628e-14
1.83398e-15
9.16502e-14
2.20337e-15
8.96081e-14
1.90753e-15
8.62629e-14
7.89581e-16
7.91921e-14
-6.60771e-16
6.18268e-14
-3.98802e-16
1.75386e-14
9.96334e-15
1.49115e-14
1.28681e-13
-3.33173e-17
1.39598e-13
2.80613e-21
-3.17491e-22
2.85176e-21
-1.03398e-25
2.84576e-21
2.4712e-23
2.83402e-21
4.90622e-23
2.81272e-21
7.2947e-23
2.78212e-21
9.60047e-23
2.74314e-21
1.17873e-22
2.69614e-21
1.38604e-22
2.64258e-21
1.5794e-22
2.58225e-21
1.75569e-22
2.51649e-21
1.91803e-22
2.44592e-21
2.06278e-22
2.3708e-21
2.19099e-22
2.29217e-21
2.30163e-22
2.21028e-21
2.39417e-22
2.12591e-21
2.47327e-22
2.03931e-21
2.53583e-22
1.95122e-21
2.58442e-22
1.86198e-21
2.61854e-22
1.77182e-21
2.64077e-22
1.6813e-21
2.65163e-22
1.59067e-21
2.65318e-22
1.50004e-21
2.64698e-22
1.40988e-21
2.6325e-22
1.32018e-21
2.61182e-22
1.2311e-21
2.58546e-22
1.14291e-21
2.55599e-22
1.05553e-21
2.5229e-22
9.69146e-22
2.48775e-22
8.83687e-22
2.45104e-22
7.99212e-22
2.41433e-22
7.15666e-22
2.37711e-22
6.33259e-22
2.34196e-22
5.51523e-22
2.30732e-22
4.70666e-22
2.27578e-22
3.90584e-22
2.24735e-22
3.11123e-22
2.22253e-22
2.32024e-22
2.20133e-22
1.53494e-22
2.18531e-22
7.50666e-23
2.17393e-22
2.16721e-22
-5.54712e-14
2.08151e-13
-1.09575e-13
2.04691e-13
-1.61607e-13
1.97787e-13
-2.10859e-13
1.87676e-13
-2.56561e-13
1.74691e-13
-2.98078e-13
1.59326e-13
-3.34883e-13
1.4204e-13
-3.66589e-13
1.23422e-13
-3.93016e-13
1.04012e-13
-4.14126e-13
8.43153e-14
-4.29958e-13
6.47951e-14
-4.40649e-13
4.5675e-14
-4.46949e-13
2.80462e-14
-4.48573e-13
1.16825e-14
-4.47294e-13
-1.28545e-15
-4.44641e-13
-9.18626e-15
-4.35612e-13
-2.56639e-14
-4.24659e-13
-3.76895e-14
-4.13238e-13
-4.2825e-14
-4.02933e-13
-4.24874e-14
-3.85945e-13
-5.29157e-14
-3.72009e-13
-5.75503e-14
-3.56975e-13
-5.70777e-14
-3.41891e-13
-5.76461e-14
-3.26391e-13
-5.97367e-14
-3.11618e-13
-5.81826e-14
-2.97065e-13
-5.73246e-14
-2.82947e-13
-5.59629e-14
-2.69246e-13
-5.451e-14
-2.56082e-13
-5.28068e-14
-2.43326e-13
-5.11631e-14
-2.3102e-13
-4.95272e-14
-2.19169e-13
-4.79449e-14
-2.07676e-13
-4.64661e-14
-1.96553e-13
-4.51311e-14
-1.85731e-13
-4.39898e-14
-1.75171e-13
-4.2998e-14
-1.64775e-13
-4.21787e-14
-1.54513e-13
-4.17345e-14
-1.4433e-13
-4.13655e-14
-1.34122e-13
-4.12283e-14
-1.23918e-13
-4.11878e-14
-1.13674e-13
-4.1399e-14
-1.03289e-13
-4.17139e-14
-9.27816e-14
-4.21544e-14
-8.20563e-14
-4.26195e-14
-7.12003e-14
-4.31512e-14
-6.01804e-14
-4.35904e-14
-4.90221e-14
-4.39751e-14
-3.77396e-14
-4.42615e-14
-2.63752e-14
-4.43287e-14
-1.50615e-14
-4.41721e-14
-3.76242e-15
-4.37643e-14
7.38047e-15
-4.30391e-14
1.82731e-14
-4.18609e-14
2.87919e-14
-4.05435e-14
3.88297e-14
-3.86222e-14
4.8338e-14
-3.64366e-14
5.71804e-14
-3.38389e-14
6.52785e-14
-3.10104e-14
7.25268e-14
-2.78451e-14
7.8894e-14
-2.44937e-14
8.42808e-14
-2.08748e-14
8.86626e-14
-1.7171e-14
9.20403e-14
-1.34427e-14
9.442e-14
-9.77853e-15
9.5863e-14
-6.34584e-15
9.64008e-14
-3.16191e-15
9.61113e-14
-4.20705e-16
9.50958e-14
1.8249e-15
9.35069e-14
3.53307e-15
9.13189e-14
4.50128e-15
8.85147e-14
4.82222e-15
8.46832e-14
4.73484e-15
7.91105e-14
5.02286e-15
7.15843e-14
7.23656e-15
6.72847e-14
1.4375e-14
1.16559e-14
1.84422e-13
-3.31363e-17
1.51375e-13
2.85908e-21
3.17679e-22
2.87657e-21
1.03398e-25
2.87011e-21
3.33974e-23
2.85791e-21
6.62779e-23
2.83573e-21
9.83828e-23
2.80409e-21
1.29505e-22
2.76382e-21
1.59077e-22
2.71553e-21
1.86891e-22
2.66021e-21
2.12844e-22
2.59848e-21
2.36677e-22
2.53107e-21
2.58235e-22
2.45864e-21
2.77519e-22
2.38187e-21
2.94528e-22
2.30148e-21
3.09262e-22
2.21814e-21
3.2167e-22
2.13216e-21
3.31855e-22
2.04412e-21
3.3992e-22
1.95463e-21
3.46175e-22
1.86421e-21
3.50725e-22
1.77291e-21
3.53465e-22
1.6815e-21
3.54757e-22
1.59e-21
3.54757e-22
1.49864e-21
3.53516e-22
1.40786e-21
3.51448e-22
1.31749e-21
3.4845e-22
1.22816e-21
3.44831e-22
1.1396e-21
3.40592e-22
1.05207e-21
3.3599e-22
9.65475e-22
3.31027e-22
8.80017e-22
3.26013e-22
7.95593e-22
3.20843e-22
7.12099e-22
3.1588e-22
6.29795e-22
3.10968e-22
5.48369e-22
3.06367e-22
4.67874e-22
3.02128e-22
3.88103e-22
2.98302e-22
3.08952e-22
2.94942e-22
2.30473e-22
2.92202e-22
1.52356e-22
2.9003e-22
7.43946e-23
2.88428e-22
2.87652e-22
-5.8798e-14
2.66832e-13
-1.16419e-13
2.6211e-13
-1.71779e-13
2.5297e-13
-2.23897e-13
2.39621e-13
-2.72047e-13
2.22671e-13
-3.15456e-13
2.02565e-13
-3.53597e-13
1.80015e-13
-3.86072e-13
1.55732e-13
-4.12735e-13
1.30513e-13
-4.33547e-13
1.04967e-13
-4.48567e-13
7.96611e-14
-4.58199e-13
5.51553e-14
-4.63269e-13
3.29647e-14
-4.63017e-13
1.1283e-14
-4.60981e-13
-3.46455e-15
-4.55718e-13
-1.45872e-14
-4.4449e-13
-3.70234e-14
-4.32176e-13
-5.01339e-14
-4.19809e-13
-5.53159e-14
-4.0782e-13
-5.45957e-14
-3.88564e-13
-7.22851e-14
-3.73952e-13
-7.2273e-14
-3.58025e-13
-7.31084e-14
-3.418e-13
-7.39681e-14
-3.25977e-13
-7.56546e-14
-3.10664e-13
-7.35816e-14
-2.95793e-13
-7.22746e-14
-2.81424e-13
-7.04031e-14
-2.67652e-13
-6.83471e-14
-2.54402e-13
-6.61163e-14
-2.4165e-13
-6.39657e-14
-2.29466e-13
-6.17531e-14
-2.17726e-13
-5.97215e-14
-2.06379e-13
-5.78425e-14
-1.95428e-13
-5.61055e-14
-1.84771e-13
-5.46612e-14
-1.74433e-13
-5.33424e-14
-1.64194e-13
-5.24209e-14
-1.54106e-13
-5.18183e-14
-1.44155e-13
-5.13023e-14
-1.34175e-13
-5.1189e-14
-1.24129e-13
-5.12084e-14
-1.14007e-13
-5.14884e-14
-1.037e-13
-5.19826e-14
-9.32254e-14
-5.25867e-14
-8.25384e-14
-5.32563e-14
-7.16838e-14
-5.39523e-14
-6.05661e-14
-5.46484e-14
-4.92749e-14
-5.52032e-14
-3.78154e-14
-5.56512e-14
-2.62011e-14
-5.58702e-14
-1.4599e-14
-5.56965e-14
-2.97351e-15
-5.53086e-14
8.45995e-15
-5.43888e-14
1.9706e-14
-5.30204e-14
3.06123e-14
-5.13569e-14
4.10485e-14
-4.89664e-14
5.09087e-14
-4.62003e-14
6.0105e-14
-4.29375e-14
6.84568e-14
-3.9263e-14
7.59258e-14
-3.5212e-14
8.24597e-14
-3.09246e-14
8.7922e-14
-2.62333e-14
9.23473e-14
-2.14916e-14
9.56638e-14
-1.66536e-14
9.78538e-14
-1.18621e-14
9.89816e-14
-7.36457e-15
9.91334e-14
-3.20697e-15
9.83801e-14
4.41431e-16
9.67309e-14
3.58428e-15
9.44722e-14
5.90008e-15
9.16303e-14
7.45189e-15
8.84367e-14
8.12457e-15
8.5e-14
8.28196e-15
8.16688e-14
8.46583e-15
7.93756e-14
9.64061e-15
7.61515e-14
1.77086e-14
1.13856e-14
2.49297e-13
-3.26507e-17
1.62882e-13
2.85909e-21
1.46402e-25
2.90981e-21
1.55096e-25
2.90304e-21
4.24447e-23
2.89007e-21
8.4269e-23
2.8668e-21
1.25008e-22
2.83356e-21
1.6435e-22
2.79163e-21
2.01832e-22
2.74143e-21
2.37091e-22
2.68399e-21
2.69764e-22
2.62004e-21
2.99801e-22
2.5503e-21
3.26943e-22
2.4757e-21
3.51087e-22
2.3966e-21
3.7218e-22
2.31393e-21
3.90378e-22
2.22832e-21
4.05732e-22
2.14023e-21
4.18347e-22
2.05037e-21
4.28169e-22
1.95913e-21
4.35614e-22
1.86705e-21
4.40784e-22
1.7742e-21
4.43886e-22
1.68145e-21
4.4523e-22
1.58881e-21
4.44816e-22
1.49652e-21
4.42955e-22
1.40486e-21
4.39957e-22
1.31392e-21
4.35924e-22
1.22392e-21
4.31013e-22
1.13494e-21
4.25429e-22
1.04716e-21
4.19484e-22
9.60408e-22
4.13073e-22
8.74899e-22
4.06559e-22
7.90526e-22
3.99942e-22
7.07239e-22
3.9348e-22
6.25245e-22
3.87276e-22
5.44078e-22
3.81382e-22
4.63997e-22
3.75954e-22
3.84742e-22
3.71042e-22
3.06212e-22
3.66855e-22
2.2825e-22
3.63339e-22
1.50805e-22
3.60599e-22
7.36708e-23
3.58738e-22
3.57756e-22
-6.34161e-14
3.30134e-13
-1.25527e-13
3.24026e-13
-1.85036e-13
3.12311e-13
-2.4092e-13
2.9534e-13
-2.92166e-13
2.73752e-13
-3.3799e-13
2.48226e-13
-3.77797e-13
2.19661e-13
-4.11277e-13
1.89053e-13
-4.38173e-13
1.57252e-13
-4.58479e-13
1.2512e-13
-4.72351e-13
9.33808e-14
-4.80983e-13
6.36423e-14
-4.83382e-13
3.5224e-14
-4.81463e-13
9.22488e-15
-4.79413e-13
-5.64814e-15
-4.68279e-13
-2.5852e-14
-4.55207e-13
-5.02205e-14
-4.41359e-13
-6.41078e-14
-4.28654e-13
-6.81408e-14
-4.11312e-13
-7.20515e-14
-3.92315e-13
-9.13888e-14
-3.75892e-13
-8.88014e-14
-3.5899e-13
-9.01101e-14
-3.41364e-13
-9.16873e-14
-3.25193e-13
-9.1912e-14
-3.09237e-13
-8.9619e-14
-2.94003e-13
-8.7585e-14
-2.79409e-13
-8.5068e-14
-2.65507e-13
-8.23102e-14
-2.52181e-13
-7.94979e-14
-2.39522e-13
-7.66724e-14
-2.27399e-13
-7.39185e-14
-2.15802e-13
-7.13553e-14
-2.04693e-13
-6.89792e-14
-1.93937e-13
-6.6882e-14
-1.83567e-13
-6.50432e-14
-1.73502e-13
-6.34134e-14
-1.63506e-13
-6.24192e-14
-1.53717e-13
-6.16001e-14
-1.43959e-13
-6.10484e-14
-1.34234e-13
-6.08955e-14
-1.24363e-13
-6.10544e-14
-1.14421e-13
-6.14002e-14
-1.04277e-13
-6.20923e-14
-9.3922e-14
-6.28989e-14
-8.32698e-14
-6.38624e-14
-7.23806e-14
-6.47879e-14
-6.12082e-14
-6.57629e-14
-4.97136e-14
-6.66356e-14
-3.80153e-14
-6.72837e-14
-2.61641e-14
-6.76499e-14
-1.41454e-14
-6.76388e-14
-2.11159e-15
-6.72636e-14
9.76254e-15
-6.61824e-14
2.15022e-14
-6.46743e-14
3.29063e-14
-6.26721e-14
4.37969e-14
-5.97678e-14
5.41472e-14
-5.64596e-14
6.37916e-14
-5.2489e-14
7.25652e-14
-4.794e-14
8.03161e-14
-4.28667e-14
8.70961e-14
-3.76053e-14
9.27589e-14
-3.1794e-14
9.71624e-14
-2.57941e-14
1.00372e-13
-1.97591e-14
1.02334e-13
-1.37185e-14
1.03168e-13
-8.09235e-15
1.02861e-13
-2.79406e-15
1.01454e-13
1.95818e-15
9.91546e-14
5.99015e-15
9.60131e-14
9.14662e-15
9.23649e-14
1.12103e-14
8.85383e-14
1.20579e-14
8.5214e-14
1.17163e-14
8.34212e-14
1.03672e-14
8.41154e-14
9.05669e-15
7.20822e-14
2.98515e-14
-4.03618e-16
3.21893e-13
-3.27302e-17
1.626e-13
2.96496e-21
6.354e-22
2.9521e-21
3.10193e-25
2.94487e-21
5.20607e-23
2.93086e-21
1.03191e-22
2.90609e-21
1.53028e-22
2.87109e-21
2.01057e-22
2.82689e-21
2.46655e-22
2.77421e-21
2.89513e-22
2.71398e-21
3.2927e-22
2.64719e-21
3.65614e-22
2.57455e-21
3.98288e-22
2.49679e-21
4.27394e-22
2.4147e-21
4.52623e-22
2.32929e-21
4.74388e-22
2.24088e-21
4.92534e-22
2.1501e-21
5.07165e-22
2.05782e-21
5.18591e-22
1.96435e-21
5.27017e-22
1.87015e-21
5.32704e-22
1.77554e-21
5.3591e-22
1.68109e-21
5.36892e-22
1.58695e-21
5.35961e-22
1.49347e-21
5.33325e-22
1.40083e-21
5.29137e-22
1.30901e-21
5.2376e-22
1.21833e-21
5.17453e-22
1.12895e-21
5.10422e-22
1.04075e-21
5.02719e-22
9.53894e-22
4.94757e-22
8.68281e-22
4.86589e-22
7.84116e-22
4.78421e-22
7.01036e-22
4.70407e-22
6.19352e-22
4.62808e-22
5.38701e-22
4.55518e-22
4.59085e-22
4.48901e-22
3.80555e-22
4.42955e-22
3.02748e-22
4.37785e-22
2.2551e-22
4.33546e-22
1.48944e-22
4.30289e-22
7.26368e-23
4.28066e-22
4.26877e-22
-6.93358e-14
3.9936e-13
-1.37162e-13
3.91667e-13
-2.01982e-13
3.76969e-13
-2.62523e-13
3.55723e-13
-3.1764e-13
3.28711e-13
-3.66487e-13
2.96918e-13
-4.08404e-13
2.61423e-13
-4.42957e-13
2.23456e-13
-4.69995e-13
1.84144e-13
-4.89429e-13
1.44409e-13
-5.02298e-13
1.06109e-13
-5.08889e-13
7.00945e-14
-5.07729e-13
3.39319e-14
-5.05294e-13
6.6581e-15
-5.008e-13
-1.02686e-14
-4.83747e-13
-4.30286e-14
-4.68135e-13
-6.59528e-14
-4.51968e-13
-8.03868e-14
-4.40234e-13
-7.99851e-14
-4.13422e-13
-9.8967e-14
-3.96682e-13
-1.08229e-13
-3.7785e-13
-1.0773e-13
-3.59603e-13
-1.08449e-13
-3.40439e-13
-1.10937e-13
-3.23765e-13
-1.08668e-13
-3.07211e-13
-1.06249e-13
-2.91577e-13
-1.03289e-13
-2.76747e-13
-9.99641e-14
-2.62687e-13
-9.64304e-14
-2.4943e-13
-9.28082e-14
-2.36827e-13
-8.93208e-14
-2.24867e-13
-8.59185e-14
-2.13468e-13
-8.27872e-14
-2.02594e-13
-7.98771e-14
-1.92151e-13
-7.73447e-14
-1.82068e-13
-7.51388e-14
-1.72311e-13
-7.31803e-14
-1.62707e-13
-7.20258e-14
-1.53198e-13
-7.11016e-14
-1.43777e-13
-7.04572e-14
-1.34328e-13
-7.03282e-14
-1.24731e-13
-7.06285e-14
-1.15006e-13
-7.10948e-14
-1.05108e-13
-7.19568e-14
-9.48498e-14
-7.31177e-14
-8.42772e-14
-7.43916e-14
-7.33026e-14
-7.57129e-14
-6.20238e-14
-7.69879e-14
-5.03542e-14
-7.8245e-14
-3.83784e-14
-7.91952e-14
-2.61251e-14
-7.98358e-14
-1.37087e-14
-7.99826e-14
-1.19615e-15
-7.9701e-14
1.12308e-14
-7.85299e-14
2.3634e-14
-7.69966e-14
3.55952e-14
-7.4549e-14
4.72103e-14
-7.12974e-14
5.81286e-14
-6.72873e-14
6.8342e-14
-6.26099e-14
7.75856e-14
-5.70876e-14
8.58383e-14
-5.10244e-14
9.29018e-14
-4.45694e-14
9.86843e-14
-3.74778e-14
1.03197e-13
-3.02047e-14
1.06297e-13
-2.27565e-14
1.08069e-13
-1.53892e-14
1.08508e-13
-8.42663e-15
1.07645e-13
-1.82518e-15
1.05528e-13
4.17677e-15
1.02264e-13
9.3598e-15
9.80691e-14
1.34464e-14
9.3222e-14
1.61623e-14
8.81476e-14
1.72406e-14
8.39213e-14
1.605e-14
8.20054e-14
1.23897e-14
8.42327e-14
6.93641e-15
-4.41145e-15
1.18605e-13
-3.29249e-15
3.20883e-13
-3.22737e-17
1.59426e-13
2.91204e-21
5.295e-22
3.00385e-21
3.10193e-25
2.99605e-21
6.21419e-23
2.98064e-21
1.23302e-22
2.95412e-21
1.82755e-22
2.91669e-21
2.39882e-22
2.86975e-21
2.94218e-22
2.81391e-21
3.45089e-22
2.75038e-21
3.92187e-22
2.67986e-21
4.3489e-22
2.6036e-21
4.73354e-22
2.52202e-21
5.07269e-22
2.43646e-21
5.36633e-22
2.34738e-21
5.61604e-22
2.25551e-21
5.82232e-22
2.16153e-21
5.98775e-22
2.06625e-21
6.11597e-22
1.96998e-21
6.20747e-22
1.87336e-21
6.26641e-22
1.77653e-21
6.2964e-22
1.68011e-21
6.30105e-22
1.58436e-21
6.28192e-22
1.48934e-21
6.24366e-22
1.39545e-21
6.1899e-22
1.30271e-21
6.12062e-22
1.2113e-21
6.041e-22
1.1213e-21
5.9526e-22
1.03279e-21
5.85902e-22
9.45726e-22
5.76183e-22
8.60113e-22
5.66205e-22
7.76102e-22
5.56331e-22
6.93436e-22
5.46663e-22
6.1201e-22
5.37409e-22
5.32032e-22
5.28724e-22
4.5314e-22
5.20814e-22
3.75333e-22
5.13783e-22
2.98457e-22
5.07734e-22
2.22253e-22
5.02719e-22
1.46721e-22
4.98893e-22
7.14994e-23
4.96257e-22
4.95016e-22
-7.68087e-14
4.76063e-13
-1.51785e-13
4.66469e-13
-2.23182e-13
4.48214e-13
-2.8952e-13
4.21912e-13
-3.49434e-13
3.88477e-13
-4.01938e-13
3.49276e-13
-4.46313e-13
3.05654e-13
-4.82075e-13
2.59078e-13
-5.08987e-13
2.10918e-13
-5.27625e-13
1.62913e-13
-5.39252e-13
1.17605e-13
-5.41439e-13
7.21533e-14
-5.37844e-13
3.02104e-14
-5.36325e-13
5.01926e-15
-5.21868e-13
-2.48427e-14
-5.0266e-13
-6.23486e-14
-4.83266e-13
-8.54558e-14
-4.66285e-13
-9.74744e-14
-4.48679e-13
-9.76913e-14
-4.17871e-13
-1.29873e-13
-4.00724e-13
-1.25467e-13
-3.7956e-13
-1.28982e-13
-3.59011e-13
-1.29083e-13
-3.39335e-13
-1.30693e-13
-3.21486e-13
-1.26593e-13
-3.04368e-13
-1.23437e-13
-2.8829e-13
-1.19433e-13
-2.73266e-13
-1.15048e-13
-2.5918e-13
-1.10569e-13
-2.45908e-13
-1.06132e-13
-2.33475e-13
-1.01797e-13
-2.21728e-13
-9.77017e-14
-2.10638e-13
-9.39079e-14
-2.00044e-13
-9.04943e-14
-1.89944e-13
-8.74624e-14
-1.80349e-13
-8.47435e-14
-1.70899e-13
-8.26367e-14
-1.61714e-13
-8.12116e-14
-1.52677e-13
-8.01336e-14
-1.43616e-13
-7.9509e-14
-1.34596e-13
-7.93312e-14
-1.25388e-13
-7.98147e-14
-1.15892e-13
-8.05637e-14
-1.06148e-13
-8.16669e-14
-9.6144e-14
-8.30831e-14
-8.56175e-14
-8.48749e-14
-7.46187e-14
-8.6665e-14
-6.31855e-14
-8.83683e-14
-5.13763e-14
-8.99964e-14
-3.90353e-14
-9.1477e-14
-2.63434e-14
-9.24617e-14
-1.33111e-14
-9.29455e-14
-2.47515e-16
-9.26929e-14
1.29459e-14
-9.16482e-14
2.60732e-14
-9.00434e-14
3.87809e-14
-8.71732e-14
5.11267e-14
-8.35599e-14
6.28602e-14
-7.89346e-14
7.3755e-14
-7.34168e-14
8.3644e-14
-6.68867e-14
9.24695e-14
-5.97597e-14
9.99473e-14
-5.19529e-14
1.05989e-13
-4.34226e-14
1.1055e-13
-3.46676e-14
1.13586e-13
-2.56921e-14
1.15163e-13
-1.68657e-14
1.15153e-13
-8.31451e-15
1.13606e-13
-1.79726e-16
1.10654e-13
7.23214e-15
1.06359e-13
1.37577e-14
1.00829e-13
1.90817e-14
9.42463e-14
2.28504e-14
8.69849e-14
2.46078e-14
8.00421e-14
2.30992e-14
7.70107e-14
1.55264e-14
9.05834e-14
-6.52761e-15
-3.54417e-14
2.44737e-13
-9.09544e-16
2.86455e-13
-3.16734e-17
1.58635e-13
3.07086e-21
4.2362e-22
3.06574e-21
2.58494e-25
3.05716e-21
7.30504e-23
3.04015e-21
1.44808e-22
3.01125e-21
2.14653e-22
2.97097e-21
2.81707e-22
2.92062e-21
3.45245e-22
2.86096e-21
4.0444e-22
2.79318e-21
4.59034e-22
2.71827e-21
5.08509e-22
2.63752e-21
5.5266e-22
2.55144e-21
5.91434e-22
2.46143e-21
6.24832e-22
2.36801e-21
6.52801e-22
2.27211e-21
6.75807e-22
2.17435e-21
6.93953e-22
2.0754e-21
7.07601e-22
1.97593e-21
7.17269e-22
1.87636e-21
7.23111e-22
1.77699e-21
7.25437e-22
1.67825e-21
7.2492e-22
1.58054e-21
7.2187e-22
1.48391e-21
7.16597e-22
1.38853e-21
7.09359e-22
1.2948e-21
7.00777e-22
1.20246e-21
6.90954e-22
1.11189e-21
6.80149e-22
1.02307e-21
6.68776e-22
9.358e-22
6.56988e-22
8.50238e-22
6.45201e-22
7.66383e-22
6.33517e-22
6.84182e-22
6.22092e-22
6.03428e-22
6.11183e-22
5.24122e-22
6.01102e-22
4.46161e-22
5.91796e-22
3.69336e-22
5.83576e-22
2.93442e-22
5.76493e-22
2.18427e-22
5.70755e-22
1.44085e-22
5.6636e-22
7.0207e-23
5.63465e-22
5.62069e-22
-8.60638e-14
5.62028e-13
-1.69932e-13
5.50174e-13
-2.49465e-13
5.27604e-13
-3.22906e-13
4.95214e-13
-3.8866e-13
4.54092e-13
-4.4549e-13
4.05972e-13
-4.92733e-13
3.52762e-13
-5.29589e-13
2.95803e-13
-5.56492e-13
2.37692e-13
-5.74521e-13
1.80818e-13
-5.82428e-13
1.25389e-13
-5.79745e-13
6.93541e-14
-5.76963e-13
2.73154e-14
-5.69686e-13
-2.37047e-15
-5.44989e-13
-4.96451e-14
-5.24375e-13
-8.3064e-14
-5.01465e-13
-1.08465e-13
-4.83922e-13
-1.15116e-13
-4.49295e-13
-1.32411e-13
-4.27152e-13
-1.52107e-13
-4.032e-13
-1.49506e-13
-3.80577e-13
-1.51685e-13
-3.57142e-13
-1.52597e-13
-3.37402e-13
-1.50505e-13
-3.18178e-13
-1.45887e-13
-3.00455e-13
-1.41226e-13
-2.84069e-13
-1.3588e-13
-2.68864e-13
-1.30311e-13
-2.54749e-13
-1.24733e-13
-2.41645e-13
-1.1928e-13
-2.29413e-13
-1.14071e-13
-2.1798e-13
-1.09169e-13
-2.07212e-13
-1.04705e-13
-1.97079e-13
-1.00653e-13
-1.87472e-13
-9.70878e-14
-1.78299e-13
-9.39284e-14
-1.69245e-13
-9.16968e-14
-1.6069e-13
-8.97653e-14
-1.52139e-13
-8.86808e-14
-1.43558e-13
-8.80795e-14
-1.34907e-13
-8.7966e-14
-1.26192e-13
-8.8506e-14
-1.17088e-13
-8.96414e-14
-1.0758e-13
-9.1145e-14
-9.76922e-14
-9.29356e-14
-8.73711e-14
-9.51546e-14
-7.6417e-14
-9.75733e-14
-6.48028e-14
-9.99323e-14
-5.26677e-14
-1.02077e-13
-4.00285e-14
-1.04059e-13
-2.67915e-14
-1.05637e-13
-1.31847e-14
-1.06487e-13
6.0791e-16
-1.06418e-13
1.47882e-14
-1.05757e-13
2.87181e-14
-1.039e-13
4.24452e-14
-1.00822e-13
5.57582e-14
-9.67903e-14
6.84652e-14
-9.15571e-14
8.02008e-14
-8.50694e-14
9.09922e-14
-7.75864e-14
1.00423e-13
-6.91009e-14
1.0829e-13
-5.97283e-14
1.14768e-13
-4.98075e-14
1.19456e-13
-3.92602e-14
1.2247e-13
-2.86101e-14
1.23748e-13
-1.80479e-14
1.23226e-13
-7.69354e-15
1.21039e-13
2.10661e-15
1.17133e-13
1.12399e-14
1.11686e-13
1.93057e-14
1.04649e-13
2.62185e-14
9.59968e-14
3.16051e-14
8.55671e-14
3.51385e-14
7.25854e-14
3.61835e-14
5.51608e-14
3.30553e-14
2.68919e-14
2.18463e-14
-9.05444e-15
2.80789e-13
-1.22082e-16
2.77627e-13
-3.11101e-17
1.58628e-13
3.07086e-21
1.84489e-25
3.13858e-21
2.06795e-25
3.12891e-21
8.47343e-23
3.10999e-21
1.68176e-22
3.0783e-21
2.49292e-22
3.03451e-21
3.26891e-22
2.97982e-21
4.002e-22
2.91555e-21
4.68443e-22
2.84255e-21
5.30895e-22
2.76247e-21
5.87298e-22
2.67619e-21
6.37343e-22
2.58489e-21
6.80925e-22
2.4894e-21
7.18096e-22
2.39097e-21
7.49012e-22
2.29026e-21
7.74034e-22
2.18805e-21
7.93421e-22
2.08501e-21
8.07587e-22
1.98172e-21
8.16996e-22
1.87868e-21
8.22269e-22
1.77642e-21
8.2382e-22
1.6752e-21
8.21856e-22
1.57521e-21
8.17151e-22
1.47672e-21
8.10068e-22
1.37994e-21
8.00918e-22
1.28487e-21
7.90164e-22
1.19171e-21
7.78067e-22
1.10051e-21
7.6509e-22
1.01128e-21
7.51494e-22
9.23909e-22
7.37587e-22
8.38554e-22
7.2368e-22
7.54957e-22
7.09876e-22
6.73273e-22
6.96693e-22
5.93244e-22
6.84078e-22
5.14765e-22
6.72343e-22
4.37992e-22
6.61848e-22
3.62253e-22
6.52284e-22
2.87652e-22
6.44219e-22
2.14033e-22
6.37705e-22
1.41241e-22
6.32845e-22
6.88111e-23
6.29588e-22
6.28037e-22
-9.75368e-14
6.59474e-13
-1.92299e-13
6.44787e-13
-2.81837e-13
6.1701e-13
-3.63988e-13
5.77234e-13
-4.36725e-13
5.26702e-13
-4.98636e-13
4.67754e-13
-5.49373e-13
4.03374e-13
-5.87005e-13
3.33312e-13
-6.14311e-13
2.64879e-13
-6.30262e-13
1.96653e-13
-6.30728e-13
1.25744e-13
-6.28995e-13
6.75133e-14
-6.26288e-13
2.45021e-14
-5.99158e-13
-2.96e-14
-5.7518e-13
-7.37195e-14
-5.46501e-13
-1.11836e-13
-5.28133e-13
-1.26922e-13
-4.92164e-13
-1.51169e-13
-4.56273e-13
-1.68383e-13
-4.33739e-13
-1.7472e-13
-4.0556e-13
-1.77761e-13
-3.79381e-13
-1.77934e-13
-3.5482e-13
-1.77226e-13
-3.33653e-13
-1.71737e-13
-3.13523e-13
-1.6608e-13
-2.95296e-13
-1.5951e-13
-2.78604e-13
-1.52626e-13
-2.6334e-13
-1.45627e-13
-2.49334e-13
-1.38787e-13
-2.36446e-13
-1.32211e-13
-2.24548e-13
-1.26004e-13
-2.13474e-13
-1.20277e-13
-2.03197e-13
-1.15009e-13
-1.93551e-13
-1.10318e-13
-1.84563e-13
-1.06095e-13
-1.75795e-13
-1.02706e-13
-1.67426e-13
-1.00072e-13
-1.59303e-13
-9.78892e-14
-1.51493e-13
-9.64889e-14
-1.43587e-13
-9.59767e-14
-1.35488e-13
-9.60526e-14
-1.27199e-13
-9.6775e-14
-1.18673e-13
-9.81418e-14
-1.09578e-13
-1.00214e-13
-9.98512e-14
-1.02627e-13
-8.96197e-14
-1.05348e-13
-7.86672e-14
-1.08482e-13
-6.70381e-14
-1.11515e-13
-5.4603e-14
-1.14462e-13
-4.14334e-14
-1.17173e-13
-2.76662e-14
-1.19345e-13
-1.34094e-14
-1.20682e-13
1.50668e-15
-1.21268e-13
1.66251e-14
-1.20808e-13
3.15719e-14
-1.18774e-13
4.6581e-14
-1.15756e-13
6.10768e-14
-1.1121e-13
7.49228e-14
-1.05323e-13
8.77719e-14
-9.78365e-14
9.94565e-14
-8.91887e-14
1.09731e-13
-7.92894e-14
1.1833e-13
-6.82398e-14
1.2518e-13
-5.65662e-14
1.30137e-13
-4.41283e-14
1.33095e-13
-3.14718e-14
1.34083e-13
-1.89446e-14
1.33065e-13
-6.57807e-15
1.30092e-13
5.17722e-15
1.25245e-13
1.61838e-14
1.18538e-13
2.61124e-14
1.10037e-13
3.48212e-14
9.95615e-14
4.21819e-14
8.65208e-14
4.8283e-14
6.92551e-14
5.35501e-14
4.28998e-14
5.9514e-14
-9.76057e-15
7.46084e-14
-2.05653e-15
2.7319e-13
-1.05547e-15
2.76728e-13
-3.071e-17
1.57684e-13
3.22971e-21
-1.05757e-22
3.22306e-21
5.16988e-26
3.2123e-21
9.7659e-23
3.19116e-21
1.9387e-22
3.1559e-21
2.87135e-22
3.10782e-21
3.76316e-22
3.04811e-21
4.60223e-22
2.97801e-21
5.37926e-22
2.89901e-21
6.08702e-22
2.81252e-21
6.72239e-22
2.71977e-21
7.28178e-22
2.62206e-21
7.76464e-22
2.52037e-21
8.17203e-22
2.41599e-21
8.50755e-22
2.30964e-21
8.7738e-22
2.20221e-21
8.97543e-22
2.09447e-21
9.11708e-22
1.98694e-21
9.20652e-22
1.88029e-21
9.24891e-22
1.77446e-21
9.2484e-22
1.67049e-21
9.21272e-22
1.56808e-21
9.14448e-22
1.46763e-21
9.04987e-22
1.36914e-21
8.93407e-22
1.27282e-21
8.80172e-22
1.17873e-21
8.65541e-22
1.08692e-21
8.50238e-22
9.97373e-22
8.34212e-22
9.10002e-22
8.17978e-22
8.24803e-22
8.01745e-22
7.41774e-22
7.85925e-22
6.60659e-22