0 	2.54069e-20 	0 	-5.44434e-20
0.010101 	3.57991e-21 	2.03275e-22 	-2.03765e-20
0.020202 	-2.44145e-20 	-2.02935e-22 	-1.03309e-19
0.030303 	-4.34515e-20 	-2.36729e-22 	-6.93838e-20
0.040404 	3.54317e-20 	2.36899e-22 	-5.83901e-21
0.0505051 	-1.27858e-20 	-6.77584e-23 	2.51645e-20
