/*--------------------------------*- C++ -*----------------------------------*\
  =========                 |
  \\      /  F ield         | OpenFOAM: The Open Source CFD Toolbox
   \\    /   O peration     | Website:  https://openfoam.org
    \\  /    A nd           | Version:  6
     \\/     M anipulation  |
\*---------------------------------------------------------------------------*/
FoamFile
{
    version     2.0;
    format      ascii;
    class       surfaceScalarField;
    location    "8500";
    object      phi;
}
// * * * * * * * * * * * * * * * * * * * * * * * * * * * * * * * * * * * * * //

dimensions      [0 3 -1 0 0 0 0];

internalField   nonuniform List<scalar> 
9440
(
2.27635e-13
-2.27634e-13
4.51716e-13
-2.24036e-13
6.72001e-13
-2.20249e-13
8.84619e-13
-2.12584e-13
1.08784e-12
-2.03181e-13
1.2804e-12
-1.92528e-13
1.46124e-12
-1.80803e-13
1.62972e-12
-1.68446e-13
1.78546e-12
-1.55707e-13
1.92841e-12
-1.42915e-13
2.05853e-12
-1.30085e-13
2.17595e-12
-1.17393e-13
2.28112e-12
-1.05136e-13
2.37395e-12
-9.27903e-14
2.45462e-12
-8.06375e-14
2.52284e-12
-6.8194e-14
2.57832e-12
-5.54476e-14
2.62371e-12
-4.53606e-14
2.65843e-12
-3.46814e-14
2.68183e-12
-2.33692e-14
2.69216e-12
-1.02997e-14
2.6955e-12
-3.30924e-15
2.68816e-12
7.35816e-15
2.67222e-12
1.59741e-14
2.64842e-12
2.38214e-14
2.61655e-12
3.18931e-14
2.57842e-12
3.81622e-14
2.53494e-12
4.35029e-14
2.48627e-12
4.86893e-14
2.43337e-12
5.29195e-14
2.37719e-12
5.62007e-14
2.31843e-12
5.87794e-14
2.25772e-12
6.07301e-14
2.19583e-12
6.19081e-14
2.13326e-12
6.25831e-14
2.07029e-12
6.29885e-14
2.00739e-12
6.29095e-14
1.94473e-12
6.26763e-14
1.88268e-12
6.20631e-14
1.82137e-12
6.13142e-14
1.76082e-12
6.05597e-14
1.70116e-12
5.96683e-14
1.64243e-12
5.87406e-14
1.58473e-12
5.77056e-14
1.52779e-12
5.69476e-14
1.47177e-12
5.60231e-14
1.4163e-12
5.54722e-14
1.36191e-12
5.43832e-14
1.30826e-12
5.36561e-14
1.25543e-12
5.28241e-14
1.2034e-12
5.20212e-14
1.15199e-12
5.14029e-14
1.10128e-12
5.07054e-14
1.05134e-12
4.99259e-14
1.00206e-12
4.92648e-14
9.53656e-13
4.83918e-14
9.05948e-13
4.76897e-14
8.5911e-13
4.68182e-14
8.12886e-13
4.62016e-14
7.67563e-13
4.52989e-14
7.23131e-13
4.44046e-14
6.79577e-13
4.35272e-14
6.36882e-13
4.26647e-14
5.95055e-13
4.17955e-14
5.54102e-13
4.09181e-14
5.14087e-13
3.99772e-14
4.74959e-13
3.90888e-14
4.36696e-13
3.82236e-14
3.99269e-13
3.73868e-14
3.62895e-13
3.63325e-14
3.27569e-13
3.52804e-14
2.93441e-13
3.40824e-14
2.60915e-13
3.24795e-14
2.31093e-13
2.9774e-14
2.07307e-13
2.37368e-14
2.00519e-13
6.73929e-15
2.48367e-13
-4.78982e-14
1.31384e-13
1.16931e-13
3.24072e-17
1.313e-13
1.07866e-21
-2.64693e-23
1.0819e-21
5.16988e-26
1.07766e-21
4.1359e-24
1.06701e-21
7.28953e-24
1.05403e-21
1.03398e-23
1.03889e-21
1.31832e-23
1.02183e-21
1.59749e-23
1.00228e-21
1.86633e-23
9.80778e-22
2.10931e-23
9.57358e-22
2.34196e-23
9.32078e-22
2.54358e-23
9.05194e-22
2.72453e-23
8.76915e-22
2.88479e-23
8.47395e-22
3.01404e-23
8.16893e-22
3.12261e-23
7.8515e-22
3.20533e-23
7.52941e-22
3.27253e-23
7.20009e-22
3.32423e-23
6.86767e-22
3.35525e-23
6.53318e-22
3.37076e-23
6.1961e-22
3.36559e-23
5.85851e-22
3.34491e-23
5.52247e-22
3.32423e-23
5.18694e-22
3.28804e-23
4.85348e-22
3.24668e-23
4.52364e-22
3.19499e-23
4.19484e-22
3.13812e-23
3.87017e-22
3.08125e-23
3.54912e-22
3.01404e-23
3.23221e-22
2.952e-23
2.91943e-22
2.88996e-23
2.61079e-22
2.83309e-23
2.30577e-22
2.77106e-23
2.00591e-22
2.71419e-23
1.70709e-22
2.65215e-23
1.41241e-22
2.60045e-23
1.12186e-22
2.54358e-23
8.33902e-23
2.50739e-23
5.49041e-23
2.46603e-23
2.68834e-23
2.41433e-23
2.29026e-23
2.31139e-13
-4.58726e-13
4.58148e-13
-4.50969e-13
6.79307e-13
-4.41341e-13
8.93191e-13
-4.26404e-13
1.0977e-12
-4.07623e-13
1.29117e-12
-3.85941e-13
1.47264e-12
-3.62209e-13
1.64147e-12
-3.37222e-13
1.79743e-12
-3.11598e-13
1.9403e-12
-2.85723e-13
2.07034e-12
-2.60069e-13
2.18779e-12
-2.34789e-13
2.29284e-12
-2.10126e-13
2.38552e-12
-1.85408e-13
2.46626e-12
-1.61323e-13
2.53388e-12
-1.35754e-13
2.58945e-12
-1.10961e-13
2.63489e-12
-9.07519e-14
2.66937e-12
-6.91005e-14
2.69186e-12
-4.58093e-14
2.70244e-12
-2.08278e-14
2.70484e-12
-5.66136e-15
2.69701e-12
1.52409e-14
2.68025e-12
3.27785e-14
2.65589e-12
4.8225e-14
2.62308e-12
6.47419e-14
2.58423e-12
7.70535e-14
2.53989e-12
8.78758e-14
2.49038e-12
9.82378e-14
2.43672e-12
1.06623e-13
2.37981e-12
1.13138e-13
2.32038e-12
1.18243e-13
2.25908e-12
1.22055e-13
2.19669e-12
1.24333e-13
2.13358e-12
1.25719e-13
2.07031e-12
1.26282e-13
2.00709e-12
1.2615e-13
1.94426e-12
1.2553e-13
1.882e-12
1.24336e-13
1.82059e-12
1.22747e-13
1.7599e-12
1.21268e-13
1.70031e-12
1.19265e-13
1.64161e-12
1.17452e-13
1.58379e-12
1.15533e-13
1.52693e-12
1.13816e-13
1.47098e-12
1.11977e-13
1.41562e-12
1.10826e-13
1.36115e-12
1.08851e-13
1.30766e-12
1.07138e-13
1.25482e-12
1.05654e-13
1.20282e-12
1.0401e-13
1.15139e-12
1.02814e-13
1.10064e-12
1.01434e-13
1.05074e-12
9.98091e-14
1.00146e-12
9.85108e-14
9.52977e-13
9.68421e-14
9.0528e-13
9.53535e-14
8.58364e-13
9.3695e-14
8.1217e-13
9.23519e-14
7.66812e-13
9.06124e-14
7.22362e-13
8.88036e-14
6.78862e-13
8.69713e-14
6.36174e-13
8.5297e-14
5.94354e-13
8.35534e-14
5.53437e-13
8.1772e-14
5.13438e-13
7.99075e-14
4.74196e-13
7.82589e-14
4.3588e-13
7.64639e-14
3.98528e-13
7.46613e-14
3.62076e-13
7.27042e-14
3.26547e-13
7.07258e-14
2.92058e-13
6.84888e-14
2.5865e-13
6.57988e-14
2.26245e-13
6.20908e-14
1.93986e-13
5.59074e-14
1.54562e-13
4.60709e-14
7.95905e-14
2.69822e-14
4.44899e-14
1.51943e-13
2.46887e-17
1.75694e-13
1.08528e-21
-3.30854e-23
1.08604e-21
-9.85319e-33
1.08081e-21
6.82424e-24
1.06996e-21
1.339e-23
1.05688e-21
1.98523e-23
1.04173e-21
2.6263e-23
1.02446e-21
3.226e-23
1.00477e-21
3.76367e-23
9.83053e-22
4.27549e-23
9.59375e-22
4.74078e-23
9.33835e-22
5.1492e-23
9.06849e-22
5.50592e-23
8.78207e-22
5.81611e-23
8.48429e-22
6.07461e-23
8.1772e-22
6.28657e-23
7.85822e-22
6.45201e-23
7.53407e-22
6.56575e-23
7.20319e-22
6.64329e-23
6.86974e-22
6.69499e-23
6.53214e-22
6.70533e-23
6.19403e-22
6.69499e-23
5.85592e-22
6.65363e-23
5.51988e-22
6.58126e-23
5.1828e-22
6.48303e-23
4.84831e-22
6.3848e-23
4.51796e-22
6.27623e-23
4.18915e-22
6.12631e-23
3.86345e-22
5.98155e-23
3.5424e-22
5.84196e-23
3.22652e-22
5.69204e-23
2.91374e-22
5.53694e-23
2.60459e-22
5.38184e-23
2.29956e-22
5.2526e-23
1.99971e-22
5.11818e-23
1.70244e-22
4.98893e-23
1.40672e-22
4.8752e-23
1.11824e-22
4.78214e-23
8.29766e-23
4.69425e-23
5.43354e-23
4.62187e-23
2.56426e-23
4.55983e-23
4.52364e-23
2.34733e-13
-6.93426e-13
4.67611e-13
-6.83782e-13
6.94416e-13
-6.68092e-13
9.1265e-13
-6.44583e-13
1.12033e-12
-6.1525e-13
1.31611e-12
-5.81659e-13
1.499e-12
-5.4505e-13
1.66855e-12
-5.06712e-13
1.82461e-12
-4.67605e-13
1.96741e-12
-4.28473e-13
2.097e-12
-3.8961e-13
2.21394e-12
-3.51673e-13
2.31841e-12
-3.14547e-13
2.41064e-12
-2.77594e-13
2.49092e-12
-2.41548e-13
2.55707e-12
-2.01863e-13
2.61274e-12
-1.66572e-13
2.65793e-12
-1.35899e-13
2.69172e-12
-1.02845e-13
2.71213e-12
-6.61698e-14
2.72323e-12
-3.18817e-14
2.724e-12
-6.39044e-15
2.71499e-12
2.42929e-14
2.6967e-12
5.11112e-14
2.67097e-12
7.39967e-14
2.63617e-12
9.95794e-14
2.59585e-12
1.17413e-13
2.5497e-12
1.3406e-13
2.49849e-12
1.49478e-13
2.44327e-12
1.61873e-13
2.38483e-12
1.71604e-13
2.32397e-12
1.79135e-13
2.26146e-12
1.84592e-13
2.19812e-12
1.87695e-13
2.13417e-12
1.89702e-13
2.07007e-12
1.90397e-13
2.00629e-12
1.89959e-13
1.94294e-12
1.889e-13
1.88049e-12
1.86797e-13
1.81892e-12
1.84335e-13
1.75814e-12
1.82056e-13
1.6984e-12
1.79023e-13
1.63972e-12
1.76144e-13
1.58192e-12
1.7334e-13
1.52516e-12
1.70581e-13
1.46936e-12
1.67782e-13
1.414e-12
1.6618e-13
1.35959e-12
1.63255e-13
1.30606e-12
1.6067e-13
1.25325e-12
1.58455e-13
1.20129e-12
1.55951e-13
1.14992e-12
1.54168e-13
1.09914e-12
1.52203e-13
1.04914e-12
1.49789e-13
9.99764e-13
1.47862e-13
9.51304e-13
1.45275e-13
9.03566e-13
1.43061e-13
8.56666e-13
1.40562e-13
8.10425e-13
1.38554e-13
7.6505e-13
1.35947e-13
7.20582e-13
1.33229e-13
6.76955e-13
1.3055e-13
6.34225e-13
1.27979e-13
5.92404e-13
1.25321e-13
5.51463e-13
1.22657e-13
5.1136e-13
1.19954e-13
4.72223e-13
1.17336e-13
4.33896e-13
1.14727e-13
3.96466e-13
1.12025e-13
3.59957e-13
1.09145e-13
3.24265e-13
1.06349e-13
2.89323e-13
1.03359e-13
2.54836e-13
1.00213e-13
2.20236e-13
9.66142e-14
1.83173e-13
9.28945e-14
1.38653e-13
9.05131e-14
7.07806e-14
9.47754e-14
4.05198e-14
1.82129e-13
2.2664e-17
2.16127e-13
1.09851e-21
-1.32337e-23
1.09286e-21
-4.43393e-32
1.08738e-21
1.03398e-23
1.07647e-21
2.0421e-23
1.06324e-21
3.02955e-23
1.04773e-21
3.97564e-23
1.02984e-21
4.88037e-23
1.00983e-21
5.71272e-23
9.87705e-22
6.47786e-23
9.63459e-22
7.17062e-23
9.37454e-22
7.79101e-23
9.09899e-22
8.32868e-23
8.80844e-22
8.78362e-23
8.506e-22
9.1662e-23
8.19322e-22
9.47639e-23
7.87011e-22
9.7142e-23
7.54182e-22
9.89515e-23
7.20836e-22
1.00089e-22
6.87077e-22
1.00658e-22
6.53111e-22
1.00813e-22
6.1899e-22
1.00451e-22
5.84868e-22
9.9727e-23
5.51006e-22
9.85379e-23
5.17298e-22
9.7142e-23
4.83642e-22
9.53843e-23
4.50296e-22
9.35231e-23
4.17519e-22
9.15069e-23
3.84898e-22
8.92321e-23
3.52741e-22
8.69574e-23
3.2105e-22
8.47343e-23
2.89772e-22
8.24596e-23
2.59114e-22
8.01848e-23
2.28612e-22
7.79101e-23
1.98678e-22
7.58938e-23
1.69107e-22
7.3981e-23
1.39742e-22
7.23266e-23
1.10946e-22
7.08273e-23
8.22011e-23
6.96383e-23
5.37667e-23
6.85526e-23
2.52807e-23
6.78288e-23
6.75186e-23
2.438e-13
-9.37192e-13
4.84289e-13
-9.24205e-13
7.181e-13
-9.01849e-13
9.4215e-13
-8.6858e-13
1.15423e-12
-8.27277e-13
1.35295e-12
-7.80324e-13
1.53757e-12
-7.29615e-13
1.70787e-12
-6.76964e-13
1.86404e-12
-6.23723e-13
2.00635e-12
-5.70731e-13
2.13544e-12
-5.18644e-13
2.25181e-12
-4.67994e-13
2.35525e-12
-4.17941e-13
2.44723e-12
-3.69524e-13
2.5268e-12
-3.21065e-13
2.59142e-12
-2.66439e-13
2.64735e-12
-2.22445e-13
2.69203e-12
-1.80534e-13
2.72545e-12
-1.36222e-13
2.74223e-12
-8.28995e-14
2.75465e-12
-4.42531e-14
2.75259e-12
-4.2884e-15
2.74207e-12
3.48524e-14
2.72163e-12
7.15959e-14
2.69331e-12
1.02352e-13
2.65606e-12
1.36869e-13
2.61323e-12
1.6028e-13
2.56435e-12
1.82976e-13
2.5106e-12
2.03262e-13
2.45292e-12
2.19582e-13
2.39231e-12
2.32243e-13
2.32929e-12
2.42188e-13
2.26496e-12
2.48946e-13
2.2001e-12
2.5258e-13
2.13477e-12
2.5506e-13
2.06966e-12
2.55532e-13
2.00499e-12
2.54648e-13
1.94105e-12
2.52857e-13
1.87809e-12
2.4977e-13
1.8161e-12
2.46342e-13
1.75526e-12
2.42903e-13
1.69554e-12
2.38756e-13
1.6369e-12
2.34797e-13
1.57915e-12
2.31095e-13
1.52235e-12
2.27381e-13
1.46688e-12
2.23258e-13
1.41178e-12
2.21279e-13
1.35727e-12
2.17759e-13
1.30385e-12
2.14087e-13
1.25108e-12
2.11211e-13
1.19915e-12
2.07868e-13
1.14777e-12
2.05538e-13
1.09692e-12
2.03033e-13
1.04689e-12
1.99799e-13
9.97557e-13
1.9717e-13
9.48991e-13
1.93814e-13
9.01155e-13
1.90868e-13
8.54111e-13
1.87575e-13
8.07859e-13
1.8477e-13
7.6246e-13
1.81306e-13
7.17911e-13
1.77738e-13
6.74266e-13
1.74148e-13
6.3155e-13
1.70646e-13
5.89727e-13
1.6709e-13
5.48825e-13
1.63506e-13
5.08699e-13
1.60024e-13
4.69452e-13
1.56523e-13
4.31113e-13
1.53005e-13
3.9371e-13
1.49365e-13
3.57087e-13
1.45702e-13
3.21213e-13
1.42156e-13
2.86049e-13
1.38453e-13
2.51322e-13
1.3487e-13
2.16266e-13
1.31601e-13
1.79948e-13
1.2914e-13
1.42163e-13
1.28226e-13
1.04508e-13
1.32356e-13
4.43094e-14
2.4225e-13
2.17496e-17
2.60354e-13
1.10513e-21
1.21343e-27
1.1032e-21
1.55096e-25
1.09751e-21
1.40104e-23
1.0864e-21
2.76589e-23
1.0727e-21
4.09971e-23
1.05672e-21
5.38184e-23
1.03822e-21
6.59677e-23
1.01754e-21
7.7238e-23
9.94633e-22
8.75778e-23
9.69663e-22
9.68835e-23
9.42831e-22
1.05104e-22
9.14448e-22
1.12238e-22
8.84618e-22
1.18287e-22
8.53702e-22
1.23302e-22
8.21752e-22
1.27282e-22
7.8882e-22
1.30436e-22
7.55319e-22
1.32711e-22
7.21353e-22
1.34107e-22
6.87232e-22
1.34675e-22
6.52749e-22
1.34675e-22
6.18266e-22
1.34055e-22
5.83731e-22
1.32969e-22
5.4961e-22
1.3147e-22
5.1554e-22
1.29402e-22
4.81833e-22
1.26972e-22
4.4828e-22
1.24387e-22
4.15245e-22
1.21544e-22
3.82674e-22
1.18545e-22
3.50466e-22
1.15443e-22
3.18775e-22
1.12341e-22
2.87549e-22
1.09188e-22
2.56891e-22
1.06138e-22
2.26648e-22
1.03139e-22
1.96766e-22
1.00399e-22
1.67401e-22
9.78141e-23
1.38243e-22
9.55394e-23
1.09757e-22
9.35748e-23
8.11671e-23
9.19205e-23
5.29913e-23
9.07314e-23
2.49188e-23
8.97491e-23
8.93355e-23
2.56237e-13
-1.1934e-12
5.07872e-13
-1.17577e-12
7.51332e-13
-1.14525e-12
9.83342e-13
-1.10053e-12
1.2011e-12
-1.04499e-12
1.40347e-12
-9.82639e-13
1.59006e-12
-9.16152e-13
1.761e-12
-8.47852e-13
1.9169e-12
-7.79569e-13
2.05852e-12
-7.12294e-13
2.18663e-12
-6.467e-13
2.30186e-12
-5.8318e-13
2.40442e-12
-5.20448e-13
2.4959e-12
-4.60953e-13
2.57345e-12
-3.98565e-13
2.63793e-12
-3.30872e-13
2.69385e-12
-2.78308e-13
2.73803e-12
-2.24666e-13
2.7693e-12
-1.67441e-13
2.78445e-12
-9.79973e-14
2.7962e-12
-5.5965e-14
2.7913e-12
6.64096e-16
2.77832e-12
4.788e-14
2.75529e-12
9.46625e-14
2.72309e-12
1.34598e-13
2.68277e-12
1.7723e-13
2.6364e-12
2.06688e-13
2.58387e-12
2.35542e-13
2.5265e-12
2.60664e-13
2.46571e-12
2.80409e-13
2.40188e-12
2.96104e-13
2.33604e-12
3.08058e-13
2.2693e-12
3.15711e-13
2.20231e-12
3.19598e-13
2.13519e-12
3.22205e-13
2.06874e-12
3.22006e-13
2.00286e-12
3.20544e-13
1.93821e-12
3.17527e-13
1.87476e-12
3.13232e-13
1.81242e-12
3.08704e-13
1.75137e-12
3.03958e-13
1.69162e-12
2.98524e-13
1.63302e-12
2.93404e-13
1.57539e-12
2.88731e-13
1.51882e-12
2.83958e-13
1.46339e-12
2.78686e-13
1.40894e-12
2.75734e-13
1.35429e-12
2.724e-13
1.30086e-12
2.67513e-13
1.24821e-12
2.63859e-13
1.19627e-12
2.59789e-13
1.1449e-12
2.56897e-13
1.09413e-12
2.53787e-13
1.0441e-12
2.4981e-13
9.94579e-13
2.46668e-13
9.45947e-13
2.42418e-13
8.98002e-13
2.38784e-13
8.50874e-13
2.3467e-13
8.04469e-13
2.31139e-13
7.59082e-13
2.26655e-13
7.14448e-13
2.2233e-13
6.70811e-13
2.1774e-13
6.28008e-13
2.13401e-13
5.86108e-13
2.0894e-13
5.45195e-13
2.04367e-13
5.05056e-13
2.00107e-13
4.65821e-13
1.95701e-13
4.27542e-13
1.91224e-13
3.90067e-13
1.86778e-13
3.53353e-13
1.82351e-13
3.17501e-13
1.77942e-13
2.82364e-13
1.73523e-13
2.47932e-13
1.69236e-13
2.1417e-13
1.65294e-13
1.80377e-13
1.62862e-13
1.47865e-13
1.60668e-13
1.14435e-13
1.65714e-13
4.69828e-14
3.09632e-13
2.05175e-17
3.07259e-13
1.12498e-21
1.32373e-23
1.11706e-21
2.06795e-25
1.11111e-21
1.79912e-23
1.09969e-21
3.54654e-23
1.08557e-21
5.24226e-23
1.06887e-21
6.87077e-23
1.04949e-21
8.40105e-23
1.02782e-21
9.83311e-23
1.00394e-21
1.11256e-22
9.77831e-22
1.22888e-22
9.50069e-22
1.33176e-22
9.20549e-22
1.42017e-22
8.89633e-22
1.49565e-22
8.57683e-22
1.55717e-22
8.24854e-22
1.60628e-22
7.91095e-22
1.64299e-22
7.56715e-22
1.66987e-22
7.21922e-22
1.68538e-22
6.8718e-22
1.69262e-22
6.5218e-22
1.69055e-22
6.17128e-22
1.68073e-22
5.82232e-22
1.6647e-22
5.47542e-22
1.64247e-22
5.13059e-22
1.61714e-22
4.79248e-22
1.58715e-22
4.45489e-22
1.55251e-22
4.12194e-22
1.51529e-22
3.79521e-22
1.47703e-22
3.47364e-22
1.43723e-22
3.15621e-22
1.3969e-22
2.84498e-22
1.35761e-22
2.53944e-22
1.31884e-22
2.23856e-22
1.28058e-22
1.94181e-22
1.24491e-22
1.65126e-22
1.21337e-22
1.3633e-22
1.18442e-22
1.08102e-22
1.16012e-22
7.99263e-23
1.13944e-22
5.20607e-23
1.12393e-22
2.44535e-23
1.11411e-22
1.10791e-22
2.72873e-13
-1.46623e-12
5.39707e-13
-1.44254e-12
7.96372e-13
-1.40187e-12
1.03848e-12
-1.34259e-12
1.26337e-12
-1.26982e-12
1.46993e-12
-1.18915e-12
1.65835e-12
-1.10451e-12
1.82928e-12
-1.01873e-12
1.98411e-12
-9.34341e-13
2.12434e-12
-8.52474e-13
2.25095e-12
-7.73263e-13
2.36404e-12
-6.96218e-13
2.46635e-12
-6.22705e-13
2.55656e-12
-5.51113e-13
2.63029e-12
-4.72239e-13
2.69725e-12
-3.97784e-13
2.753e-12
-3.34008e-13
2.79647e-12
-2.68088e-13
2.82263e-12
-1.93548e-13
2.84059e-12
-1.15911e-13
2.84811e-12
-6.34278e-14
2.84084e-12
7.97737e-15
2.82421e-12
6.45619e-14
2.79817e-12
1.20751e-13
2.76051e-12
1.72304e-13
2.71645e-12
2.21325e-13
2.66536e-12
2.57821e-13
2.60817e-12
2.92769e-13
2.54621e-12
3.22662e-13
2.48109e-12
3.45567e-13
2.41332e-12
3.63906e-13
2.34391e-12
3.77496e-13
2.27415e-12
3.85499e-13
2.20447e-12
3.89301e-13
2.13524e-12
3.91465e-13
2.06698e-12
3.90284e-13
1.99978e-12
3.87763e-13
1.9342e-12
3.83124e-13
1.87016e-12
3.77289e-13
1.80738e-12
3.71501e-13
1.74625e-12
3.65102e-13
1.68648e-12
3.583e-13
1.62816e-12
3.51735e-13
1.57066e-12
3.46234e-13
1.51461e-12
3.40014e-13
1.45887e-12
3.34424e-13
1.40531e-12
3.29292e-13
1.35066e-12
3.27049e-13
1.29715e-12
3.21021e-13
1.24468e-12
3.16314e-13
1.19263e-12
3.11828e-13
1.14141e-12
3.081e-13
1.09056e-12
3.04627e-13
1.04044e-12
2.99903e-13
9.90839e-13
2.9625e-13
9.42094e-13
2.91136e-13
8.94079e-13
2.8677e-13
8.468e-13
2.81917e-13
8.00323e-13
2.7758e-13
7.54698e-13
2.7224e-13
7.10039e-13
2.6695e-13
6.66374e-13
2.61362e-13
6.2361e-13
2.56122e-13
5.81729e-13
2.50771e-13
5.40808e-13
2.45238e-13
5.00659e-13
2.40205e-13
4.61444e-13
2.34863e-13
4.23136e-13
2.29476e-13
3.85627e-13
2.24228e-13
3.48923e-13
2.18994e-13
3.13061e-13
2.13742e-13
2.78083e-13
2.0844e-13
2.4421e-13
2.03045e-13
2.11616e-13
1.97822e-13
1.80147e-13
1.94266e-13
1.53129e-13
1.87618e-13
1.26031e-13
1.92744e-13
3.60902e-14
3.99506e-13
1.90637e-17
3.43277e-13
1.13491e-21
5.95591e-23
1.13484e-21
5.16988e-25
1.12853e-21
2.23856e-23
1.11669e-21
4.37889e-23
1.10186e-21
6.45718e-23
1.08423e-21
8.45275e-23
1.06375e-21
1.03242e-22
1.0408e-21
1.2051e-22
1.01557e-21
1.36226e-22
9.88171e-22
1.50237e-22
9.58858e-22
1.62489e-22
9.28045e-22
1.73036e-22
8.95785e-22
1.81876e-22
8.62594e-22
1.89269e-22
8.28525e-22
1.94956e-22
7.93732e-22
1.99195e-22
7.58318e-22
2.01935e-22
7.22697e-22
2.03642e-22
6.86974e-22
2.0421e-22
6.51198e-22
2.03797e-22
6.15578e-22
2.02452e-22
5.80112e-22
2.00333e-22
5.45009e-22
1.97541e-22
5.10112e-22
1.94026e-22
4.75732e-22
1.902e-22
4.41766e-22
1.85961e-22
4.0842e-22
1.81359e-22
3.7554e-22
1.76603e-22
3.43383e-22
1.71743e-22
3.11692e-22
1.66729e-22
2.80621e-22
1.61817e-22
2.50119e-22
1.57164e-22
2.20289e-22
1.52667e-22
1.90975e-22
1.48324e-22
1.62231e-22
1.44446e-22
1.33952e-22
1.40983e-22
1.05983e-22
1.37932e-22
7.83754e-23
1.35554e-22
5.10784e-23
1.33745e-22
2.38848e-23
1.32556e-22
1.31935e-22
2.9525e-13
-1.76145e-12
5.82429e-13
-1.72966e-12
8.56115e-13
-1.6755e-12
1.11097e-12
-1.59738e-12
1.34397e-12
-1.50277e-12
1.55459e-12
-1.39972e-12
1.74387e-12
-1.29374e-12
1.91379e-12
-1.1886e-12
2.06647e-12
-1.08697e-12
2.204e-12
-9.89946e-13
2.32743e-12
-8.96643e-13
2.43876e-12
-8.07491e-13
2.54027e-12
-7.24158e-13
2.62729e-12
-6.38076e-13
2.69957e-12
-5.44468e-13
2.76849e-12
-4.66656e-13
2.82416e-12
-3.89621e-13
2.86714e-12
-3.1102e-13
2.8871e-12
-2.13453e-13
2.91041e-12
-1.39171e-13
2.91045e-12
-6.34146e-14
2.90197e-12
1.65106e-14
2.88027e-12
8.63088e-14
2.85037e-12
1.50695e-13
2.80558e-12
2.17151e-13
2.7572e-12
2.6975e-13
2.70009e-12
3.14967e-13
2.63696e-12
3.55938e-13
2.56938e-12
3.90283e-13
2.49875e-12
4.16229e-13
2.42613e-12
4.36568e-13
2.35242e-12
4.51233e-13
2.27906e-12
4.58888e-13
2.20613e-12
4.62249e-13
2.13428e-12
4.63336e-13
2.06396e-12
4.60629e-13
1.99533e-12
4.56417e-13
1.92863e-12
4.49839e-13
1.86391e-12
4.42026e-13
1.80088e-12
4.34544e-13
1.73978e-12
4.26215e-13
1.68015e-12
4.17938e-13
1.62203e-12
4.09866e-13
1.56481e-12
4.0346e-13
1.50932e-12
3.9551e-13
1.45353e-12
3.90206e-13
1.40059e-12
3.82233e-13
1.34664e-12
3.80997e-13
1.29297e-12
3.74688e-13
1.24068e-12
3.68588e-13
1.18856e-12
3.63936e-13
1.13739e-12
3.59254e-13
1.08647e-12
3.55534e-13
1.03618e-12
3.50177e-13
9.86395e-13
3.46012e-13
9.37406e-13
3.401e-13
8.89277e-13
3.34871e-13
8.41839e-13
3.29325e-13
7.953e-13
3.24089e-13
7.49468e-13
3.18034e-13
7.04759e-13
3.11622e-13
6.60967e-13
3.05113e-13
6.18139e-13
2.98906e-13
5.76349e-13
2.92516e-13
5.35395e-13
2.86143e-13
4.95239e-13
2.8031e-13
4.5618e-13
2.73869e-13
4.17934e-13
2.67669e-13
3.80398e-13
2.6171e-13
3.43648e-13
2.55689e-13
3.07744e-13
2.49587e-13
2.72736e-13
2.4339e-13
2.39009e-13
2.36712e-13
2.07286e-13
2.29483e-13
1.79459e-13
2.22034e-13
1.5373e-13
2.13287e-13
8.42475e-14
2.62165e-13
1.96206e-14
4.64071e-13
1.73645e-17
3.6283e-13
1.15476e-21
1.72055e-22
1.15666e-21
1.24077e-24
1.14994e-21
2.71936e-23
1.13753e-21
5.28879e-23
1.12181e-21
7.78584e-23
1.10294e-21
1.0164e-22
1.08102e-21
1.23767e-22
1.05652e-21
1.44291e-22
1.02953e-21
1.62748e-22
1.00037e-21
1.79085e-22
9.69404e-22
1.93405e-22
9.36886e-22
2.05606e-22
9.03126e-22
2.15791e-22
8.68333e-22
2.24011e-22
8.32816e-22
2.30422e-22
7.96523e-22
2.35023e-22
7.60024e-22
2.38073e-22
7.23214e-22
2.39676e-22
6.8656e-22
2.39934e-22
6.49854e-22
2.39107e-22
6.13406e-22
2.37246e-22
5.77217e-22
2.34506e-22
5.41545e-22
2.30939e-22
5.06286e-22
2.26596e-22
4.71493e-22
2.2184e-22
4.37165e-22
2.16618e-22
4.03612e-22
2.11086e-22
3.70732e-22
2.05296e-22
3.38369e-22
1.99454e-22
3.06729e-22
1.93612e-22
2.75916e-22
1.87718e-22
2.45673e-22
1.82083e-22
2.15998e-22
1.76706e-22
1.87046e-22
1.71743e-22
1.58767e-22
1.67194e-22
1.30901e-22
1.63058e-22
1.03604e-22
1.59698e-22
7.65659e-23
1.56802e-22
4.98893e-23
1.54683e-22
2.32645e-23
1.53235e-22
1.5277e-22
3.25157e-13
-2.08657e-12
6.39488e-13
-2.04392e-12
9.3465e-13
-1.9706e-12
1.20498e-12
-1.86766e-12
1.44676e-12
-1.7445e-12
1.6606e-12
-1.6135e-12
1.84889e-12
-1.48197e-12
2.01559e-12
-1.35525e-12
2.16415e-12
-1.23549e-12
2.29679e-12
-1.12252e-12
2.41591e-12
-1.01571e-12
2.52599e-12
-9.17518e-13
2.62503e-12
-8.23149e-13
2.70634e-12
-7.19324e-13
2.78363e-12
-6.21704e-13
2.85177e-12
-5.34747e-13
2.90776e-12
-4.45553e-13
2.94605e-12
-3.49254e-13
2.96917e-12
-2.36518e-13
2.99077e-12
-1.60723e-13
2.98582e-12
-5.83978e-14
2.97418e-12
2.82024e-14
2.94779e-12
1.12755e-13
2.91102e-12
1.87518e-13
2.86023e-12
2.67984e-13
2.8049e-12
3.25133e-13
2.74066e-12
3.79251e-13
2.67001e-12
4.26637e-13
2.59565e-12
4.6468e-13
2.51858e-12
4.93341e-13
2.4397e-12
5.15485e-13
2.36098e-12
5.2998e-13
2.28326e-12
5.36648e-13
2.20655e-12
5.38985e-13
2.1319e-12
5.38009e-13
2.05902e-12
5.33526e-13
1.98893e-12
5.26531e-13
1.9213e-12
5.17485e-13
1.85583e-12
5.07515e-13
1.79263e-12
4.97761e-13
1.73163e-12
4.87225e-13
1.67244e-12
4.7714e-13
1.61448e-12
4.67835e-13
1.55807e-12
4.59877e-13
1.50286e-12
4.5072e-13
1.44823e-12
4.44836e-13
1.39426e-12
4.36201e-13
1.34231e-12
4.3294e-13
1.28838e-12
4.28619e-13
1.23599e-12
4.2097e-13
1.18385e-12
4.16061e-13
1.1327e-12
4.10389e-13
1.08178e-12
4.06443e-13
1.03113e-12
4.00799e-13
9.81356e-13
3.95764e-13
9.31945e-13
3.89485e-13
8.83652e-13
3.83136e-13
8.35882e-13
3.77065e-13
7.89372e-13
3.70565e-13
7.43346e-13
3.64022e-13
6.98498e-13
3.56436e-13
6.54756e-13
3.48816e-13
6.11945e-13
3.41677e-13
5.70063e-13
3.34355e-13
5.29062e-13
3.27097e-13
4.89144e-13
3.2018e-13
4.50099e-13
3.12868e-13
4.11833e-13
3.05882e-13
3.74407e-13
2.99086e-13
3.37562e-13
2.92481e-13
3.01459e-13
2.85637e-13
2.66158e-13
2.78635e-13
2.31698e-13
2.71115e-13
1.98922e-13
2.62203e-13
1.70956e-13
2.49943e-13
1.55505e-13
2.28681e-13
5.83347e-14
3.59275e-13
2.11461e-14
5.01205e-13
1.57432e-17
3.83916e-13
1.18123e-21
1.98527e-22
1.18261e-21
1.49926e-24
1.17568e-21
3.27253e-23
1.16245e-21
6.30208e-23
1.14554e-21
9.23857e-23
1.12512e-21
1.20251e-22
1.10155e-21
1.46256e-22
1.07497e-21
1.69934e-22
1.04587e-21
1.91234e-22
1.01474e-21
2.10104e-22
9.81553e-22
2.26389e-22
9.4707e-22
2.40296e-22
9.11346e-22
2.51566e-22
8.74744e-22
2.60614e-22
8.37365e-22
2.67386e-22
7.99625e-22
2.72246e-22
7.61627e-22
2.75296e-22
7.23525e-22
2.76744e-22
6.85681e-22
2.7664e-22
6.48044e-22
2.75089e-22
6.10666e-22
2.72504e-22
5.73702e-22
2.68885e-22
5.3715e-22
2.64491e-22
5.01478e-22
2.59373e-22
4.66271e-22
2.53583e-22
4.31633e-22
2.47327e-22
3.97926e-22
2.40813e-22
3.64838e-22
2.33937e-22
3.32578e-22
2.27061e-22
3.00887e-22
2.20185e-22
2.7023e-22
2.13464e-22
2.40348e-22
2.0695e-22
2.11034e-22
2.00695e-22
1.82497e-22
1.94956e-22
1.54579e-22
1.89631e-22
1.27489e-22
1.85082e-22
1.00709e-22
1.80997e-22
7.44463e-23
1.7774e-22
4.84418e-23
1.75311e-22
2.27992e-23
1.73863e-22
1.73294e-22
3.65127e-13
-2.45166e-12
7.16148e-13
-2.39488e-12
1.0389e-12
-2.2933e-12
1.32696e-12
-2.15566e-12
1.57732e-12
-1.9948e-12
1.79194e-12
-1.82807e-12
1.97575e-12
-1.66572e-12
2.13559e-12
-1.51504e-12
2.27685e-12
-1.37669e-12
2.40174e-12
-1.24735e-12
2.51688e-12
-1.13081e-12
2.62428e-12
-1.02486e-12
2.71637e-12
-9.15179e-13
2.79808e-12
-8.0098e-13
2.87926e-12
-7.02826e-13
2.94798e-12
-6.03415e-13
3.00182e-12
-4.99331e-13
3.03657e-12
-3.83957e-13
3.07081e-12
-2.70693e-13
3.08178e-12
-1.71631e-13
3.07605e-12
-5.26173e-14
3.05859e-12
4.5726e-14
3.02751e-12
1.4389e-13
2.98137e-12
2.33707e-13
2.92463e-12
3.24787e-13
2.85982e-12
3.89994e-13
2.7866e-12
4.52524e-13
2.70727e-12
5.06016e-13
2.62457e-12
5.47431e-13
2.53954e-12
5.78412e-13
2.45353e-12
6.01533e-13
2.3691e-12
6.14446e-13
2.28605e-12
6.19723e-13
2.20518e-12
6.19885e-13
2.12717e-12
6.1605e-13
2.05183e-12
6.08882e-13
1.98013e-12
5.98256e-13
1.91155e-12
5.86084e-13
1.84553e-12
5.73547e-13
1.7824e-12
5.60912e-13
1.7217e-12
5.47933e-13
1.66316e-12
5.35695e-13
1.60576e-12
5.25234e-13
1.55017e-12
5.15475e-13
1.49552e-12
5.05375e-13
1.44212e-12
4.98238e-13
1.38756e-12
4.9076e-13
1.33728e-12
4.8321e-13
1.28369e-12
4.82198e-13
1.23088e-12
4.73778e-13
1.17894e-12
4.67991e-13
1.12744e-12
4.61874e-13
1.07652e-12
4.5734e-13
1.02558e-12
4.51725e-13
9.75578e-13
4.45743e-13
9.25752e-13
4.39288e-13
8.77209e-13
4.31651e-13
8.29069e-13
4.25177e-13
7.82562e-13
4.17042e-13
7.36247e-13
4.10304e-13
6.91284e-13
4.01362e-13
6.47443e-13
3.92617e-13
6.04603e-13
3.84479e-13
5.62799e-13
3.76121e-13
5.21858e-13
3.67995e-13
4.82142e-13
3.59855e-13
4.43194e-13
3.51771e-13
4.05053e-13
3.4398e-13
3.67565e-13
3.36529e-13
3.30824e-13
3.29173e-13
2.94546e-13
3.21867e-13
2.58701e-13
3.14429e-13
2.2324e-13
3.06528e-13
1.87708e-13
2.97684e-13
1.519e-13
2.857e-13
1.10809e-13
2.69719e-13
4.01531e-14
4.29878e-13
2.23587e-14
5.18945e-13
1.36877e-17
4.0622e-13
1.21432e-21
3.63963e-22
1.21384e-21
2.68834e-24
1.20598e-21
3.88258e-23
1.19181e-21
7.43946e-23
1.17341e-21
1.08516e-22
1.15113e-21
1.40828e-22
1.12522e-21
1.70813e-22
1.09632e-21
1.97955e-22
1.06474e-21
2.22201e-22
1.03093e-21
2.4345e-22
9.9546e-22
2.61648e-22
9.58392e-22
2.76847e-22
9.20445e-22
2.89151e-22
8.81568e-22
2.98871e-22
8.42173e-22
3.06109e-22
8.02624e-22
3.10968e-22
7.63022e-22
3.1376e-22
7.23421e-22
3.14794e-22
6.8413e-22
3.14122e-22
6.45459e-22
3.11951e-22
6.07099e-22
3.08487e-22
5.69307e-22
3.03989e-22
5.32032e-22
2.98561e-22
4.95688e-22
2.92357e-22
4.60068e-22
2.85481e-22
4.25119e-22
2.78243e-22
3.9105e-22
2.70488e-22
3.57962e-22
2.62733e-22
3.25651e-22
2.54772e-22
2.94166e-22
2.4681e-22
2.63716e-22
2.39055e-22
2.34092e-22
2.31611e-22
2.05244e-22
2.24476e-22
1.77223e-22
2.1791e-22
1.5003e-22
2.12017e-22
1.23457e-22
2.06743e-22
9.75039e-23
2.02142e-22
7.20681e-23
1.98575e-22
4.69425e-23
1.95938e-22
2.22305e-23
1.94284e-22
1.9356e-22
4.20079e-13
-2.87171e-12
8.23739e-13
-2.79848e-12
1.1796e-12
-2.64911e-12
1.48316e-12
-2.45917e-12
1.7405e-12
-2.25209e-12
1.95334e-12
-2.04085e-12
2.12699e-12
-1.83931e-12
2.27385e-12
-1.66185e-12
2.40358e-12
-1.50636e-12
2.51811e-12
-1.36182e-12
2.62952e-12
-1.24216e-12
2.72799e-12
-1.12327e-12
2.8146e-12
-1.00174e-12
2.90464e-12
-8.90959e-13
2.98515e-12
-7.83275e-13
3.05582e-12
-6.74024e-13
3.10517e-12
-5.48617e-13
3.1489e-12
-4.2763e-13
3.18223e-12
-3.03958e-13
3.18892e-12
-1.78262e-13
3.18038e-12
-4.40179e-14
3.15772e-12
6.84487e-14
3.11963e-12
1.82035e-13
3.06367e-12
2.89728e-13
2.99795e-12
3.90568e-13
2.92236e-12
4.65638e-13
2.83808e-12
5.36865e-13
2.74849e-12
5.95659e-13
2.65576e-12
6.40202e-13
2.56082e-12
6.73402e-13
2.46683e-12
6.95569e-13
2.37571e-12
7.056e-13
2.28651e-12
7.08963e-13
2.20105e-12
7.05372e-13
2.11909e-12
6.98035e-13
2.04158e-12
6.8642e-13
1.96816e-12
6.71694e-13
1.89888e-12
6.5539e-13
1.8326e-12
6.3984e-13
1.7699e-12
6.23629e-13
1.70985e-12
6.07995e-13
1.65179e-12
5.93756e-13
1.5958e-12
5.81234e-13
1.54118e-12
5.70099e-13
1.48744e-12
5.59122e-13
1.43493e-12
5.50748e-13
1.38179e-12
5.43903e-13
1.33069e-12
5.34299e-13
1.27887e-12
5.34017e-13
1.22562e-12
5.27016e-13
1.17387e-12
5.19732e-13
1.12165e-12
5.14078e-13
1.07094e-12
5.08033e-13
1.01967e-12
5.02978e-13
9.69163e-13
4.96231e-13
9.1875e-13
4.89679e-13
8.69833e-13
4.80544e-13
8.21505e-13
4.73475e-13
7.74556e-13
4.63964e-13
7.28213e-13
4.56617e-13
6.82848e-13
4.46696e-13
6.38981e-13
4.36448e-13
5.96213e-13
4.27212e-13
5.54618e-13
4.17682e-13
5.138e-13
4.08774e-13
4.74169e-13
3.99448e-13
4.35441e-13
3.90459e-13
3.97477e-13
3.81901e-13
3.60158e-13
3.73805e-13
3.23471e-13
3.65817e-13
2.87063e-13
3.58233e-13
2.50804e-13
3.50643e-13
2.1394e-13
3.43346e-13
1.74996e-13
3.36583e-13
1.31345e-13
3.29304e-13
6.86053e-14
3.32412e-13
2.81534e-14
4.70283e-13
1.82996e-14
5.28755e-13
1.20457e-17
4.24471e-13
1.25402e-21
3.70584e-22
1.24997e-21
3.15363e-24
1.24144e-21
4.57534e-23
1.22599e-21
8.73193e-23
1.20572e-21
1.26921e-22
1.18106e-21
1.6404e-22
1.15237e-21
1.9811e-22
1.12052e-21
2.28922e-22
1.08604e-21
2.56064e-22
1.04912e-21
2.79587e-22
1.01061e-21
2.99595e-22
9.70748e-22
3.16086e-22
9.30113e-22
3.29321e-22
8.88806e-22
3.39351e-22
8.47033e-22
3.46692e-22
8.05415e-22
3.515e-22
7.64056e-22
3.53878e-22
7.22749e-22
3.54085e-22
6.81959e-22
3.52637e-22
6.41944e-22
3.49639e-22
6.02549e-22
3.45141e-22
5.63827e-22
3.39454e-22
5.25828e-22
3.32889e-22
4.88864e-22
3.25547e-22
4.52675e-22
3.17586e-22
4.17416e-22
3.09055e-22
3.83243e-22
3.0037e-22
3.50001e-22
2.91374e-22
3.17637e-22
2.82379e-22
2.86463e-22
2.73435e-22
2.56323e-22
2.64698e-22
2.26906e-22
2.56271e-22
1.98678e-22
2.48413e-22
1.71278e-22
2.41071e-22
1.44705e-22
2.34351e-22
1.18856e-22
2.28457e-22
9.3885e-23
2.23442e-22
6.94315e-23
2.1941e-22
4.53398e-23
2.16463e-22
2.1455e-23
2.14705e-22
2.14085e-22
4.94055e-13
-3.36573e-12
9.55664e-13
-3.26003e-12
1.36351e-12
-3.05689e-12
1.69433e-12
-2.78994e-12
1.95086e-12
-2.50856e-12
2.15274e-12
-2.24267e-12
2.31236e-12
-1.99888e-12
2.43717e-12
-1.78659e-12
2.54198e-12
-1.61111e-12
2.64381e-12
-1.46359e-12
2.74351e-12
-1.34179e-12
2.83469e-12
-1.21438e-12
2.92726e-12
-1.09425e-12
3.01788e-12
-9.81508e-13
3.10166e-12
-8.66991e-13
3.17016e-12
-7.42462e-13
3.22921e-12
-6.07612e-13
3.27829e-12
-4.76643e-13
3.3071e-12
-3.32706e-13
3.31314e-12
-1.84242e-13
3.30199e-12
-3.28031e-14
3.27279e-12
9.77068e-14
3.22589e-12
2.29001e-13
3.1577e-12
3.57985e-13
3.0814e-12
4.66928e-13
2.99284e-12
5.54256e-13
2.89524e-12
6.34529e-13
2.79291e-12