/*--------------------------------*- C++ -*----------------------------------*\
  =========                 |
  \\      /  F ield         | OpenFOAM: The Open Source CFD Toolbox
   \\    /   O peration     | Website:  https://openfoam.org
    \\  /    A nd           | Version:  6
     \\/     M anipulation  |
\*---------------------------------------------------------------------------*/
FoamFile
{
    version     2.0;
    format      ascii;
    class       volVectorField;
    location    "8500";
    object      U;
}
// * * * * * * * * * * * * * * * * * * * * * * * * * * * * * * * * * * * * * //

dimensions      [0 1 -1 0 0 0 0];

internalField   nonuniform List<vector> 
4800
(
(4.6758e-08 0 -4.42233e-08)
(1.35731e-07 0 -4.64466e-08)
(2.24248e-07 0 -4.68034e-08)
(3.11015e-07 0 -4.56031e-08)
(3.94159e-07 0 -4.36966e-08)
(4.73266e-07 0 -4.1371e-08)
(5.47926e-07 0 -3.87419e-08)
(6.17785e-07 0 -3.5941e-08)
(6.82637e-07 0 -3.30469e-08)
(7.42386e-07 0 -3.01473e-08)
(7.97013e-07 0 -2.72509e-08)
(8.46538e-07 0 -2.44145e-08)
(8.91038e-07 0 -2.17001e-08)
(9.30606e-07 0 -1.90362e-08)
(9.653e-07 0 -1.64421e-08)
(9.95133e-07 0 -1.3854e-08)
(1.02002e-06 0 -1.12196e-08)
(1.04023e-06 0 -9.10274e-09)
(1.05617e-06 0 -6.93454e-09)
(1.06781e-06 0 -4.64367e-09)
(1.07485e-06 0 -2.00166e-09)
(1.07766e-06 0 -5.8488e-10)
(1.07665e-06 0 1.57368e-09)
(1.07228e-06 0 3.29988e-09)
(1.06433e-06 0 4.90478e-09)
(1.05317e-06 0 6.51463e-09)
(1.03913e-06 0 7.78626e-09)
(1.02284e-06 0 8.85166e-09)
(1.00438e-06 0 9.89139e-09)
(9.84043e-07 0 1.0738e-08)
(9.62228e-07 0 1.13879e-08)
(9.39235e-07 0 1.19009e-08)
(9.15336e-07 0 1.22795e-08)
(8.90806e-07 0 1.25072e-08)
(8.65893e-07 0 1.26254e-08)
(8.40764e-07 0 1.26924e-08)
(8.15573e-07 0 1.26656e-08)
(7.90446e-07 0 1.26037e-08)
(7.65493e-07 0 1.2469e-08)
(7.40807e-07 0 1.23076e-08)
(7.16424e-07 0 1.21288e-08)
(6.92377e-07 0 1.19263e-08)
(6.68697e-07 0 1.17376e-08)
(6.45397e-07 0 1.15068e-08)
(6.22474e-07 0 1.13455e-08)
(5.99918e-07 0 1.11337e-08)
(5.77649e-07 0 1.1e-08)
(5.5568e-07 0 1.07647e-08)
(5.34062e-07 0 1.05974e-08)
(5.12771e-07 0 1.04166e-08)
(4.91786e-07 0 1.02331e-08)
(4.71105e-07 0 1.00826e-08)
(4.50694e-07 0 9.91013e-09)
(4.30564e-07 0 9.72517e-09)
(4.10728e-07 0 9.56423e-09)
(3.91184e-07 0 9.36006e-09)
(3.71961e-07 0 9.18422e-09)
(3.53055e-07 0 8.97515e-09)
(3.34457e-07 0 8.80325e-09)
(3.16167e-07 0 8.58921e-09)
(2.98206e-07 0 8.36747e-09)
(2.80604e-07 0 8.15069e-09)
(2.63356e-07 0 7.93772e-09)
(2.46452e-07 0 7.71695e-09)
(2.29894e-07 0 7.49237e-09)
(2.13694e-07 0 7.25868e-09)
(1.97862e-07 0 7.02626e-09)
(1.82389e-07 0 6.79423e-09)
(1.67253e-07 0 6.58073e-09)
(1.52486e-07 0 6.33201e-09)
(1.38147e-07 0 6.0816e-09)
(1.24272e-07 0 5.82493e-09)
(1.10985e-07 0 5.52168e-09)
(9.86234e-08 0 5.06655e-09)
(8.81768e-08 0 4.41655e-09)
(8.19025e-08 0 3.07459e-09)
(8.28724e-08 0 -1.16001e-08)
(7.03354e-08 0 4.37235e-09)
(2.79333e-11 0 2.55568e-08)
(4.45842e-16 0 -5.3197e-18)
(2.18336e-16 0 1.03398e-20)
(4.31912e-16 0 8.27181e-19)
(4.28935e-16 0 1.45791e-18)
(4.24209e-16 0 2.06795e-18)
(4.18584e-16 0 2.63664e-18)
(4.12143e-16 0 3.19499e-18)
(4.04822e-16 0 3.73265e-18)
(3.96612e-16 0 4.21862e-18)
(3.87627e-16 0 4.68391e-18)
(3.77887e-16 0 5.08716e-18)
(3.67454e-16 0 5.44905e-18)
(3.56422e-16 0 5.76959e-18)
(3.44862e-16 0 6.02808e-18)
(3.32858e-16 0 6.24521e-18)
(3.20408e-16 0 6.41065e-18)
(3.07618e-16 0 6.54507e-18)
(2.9459e-16 0 6.64846e-18)
(2.81355e-16 0 6.7105e-18)
(2.68017e-16 0 6.74152e-18)
(2.54586e-16 0 6.73118e-18)
(2.41092e-16 0 6.68982e-18)
(2.27619e-16 0 6.64846e-18)
(2.14188e-16 0 6.57609e-18)
(2.00808e-16 0 6.49337e-18)
(1.87543e-16 0 6.38997e-18)
(1.7437e-16 0 6.27623e-18)
(1.613e-16 0 6.1625e-18)
(1.48386e-16 0 6.02808e-18)
(1.35627e-16 0 5.904e-18)
(1.23033e-16 0 5.77993e-18)
(1.10604e-16 0 5.66619e-18)
(9.83311e-17 0 5.54211e-18)
(8.62336e-17 0 5.42837e-18)
(7.42601e-17 0 5.3043e-18)
(6.23901e-17 0 5.2009e-18)
(5.06855e-17 0 5.08716e-18)
(3.91153e-17 0 5.01478e-18)
(2.76589e-17 0 4.93206e-18)
(1.63575e-17 0 4.82867e-18)
(5.37667e-18 0 4.58051e-18)
(4.55195e-08 0 -1.36982e-07)
(1.39151e-07 0 -1.32627e-07)
(2.26548e-07 0 -1.2926e-07)
(3.14102e-07 0 -1.24577e-07)
(3.9783e-07 0 -1.19028e-07)
(4.77356e-07 0 -1.12772e-07)
(5.52321e-07 0 -1.05964e-07)
(6.22379e-07 0 -9.88135e-08)
(6.87343e-07 0 -9.14682e-08)
(7.47125e-07 0 -8.40579e-08)
(8.01727e-07 0 -7.66767e-08)
(8.51233e-07 0 -6.93597e-08)
(8.95719e-07 0 -6.22223e-08)
(9.35256e-07 0 -5.50115e-08)
(9.69904e-07 0 -4.78895e-08)
(9.9967e-07 0 -4.05119e-08)
(1.02448e-06 0 -3.29388e-08)
(1.04464e-06 0 -2.69443e-08)
(1.06056e-06 0 -2.0595e-08)
(1.07204e-06 0 -1.37744e-08)
(1.07891e-06 0 -6.0081e-09)
(1.08153e-06 0 -1.75338e-09)
(1.08032e-06 0 4.58599e-09)
(1.07568e-06 0 9.7742e-09)
(1.06742e-06 0 1.44873e-08)
(1.05597e-06 0 1.93228e-08)
(1.04161e-06 0 2.30968e-08)
(1.025e-06 0 2.63073e-08)
(1.0062e-06 0 2.94179e-08)
(9.85535e-07 0 3.19548e-08)
(9.63421e-07 0 3.39126e-08)
(9.40151e-07 0 3.54589e-08)
(9.16e-07 0 3.66165e-08)
(8.91248e-07 0 3.73184e-08)
(8.66135e-07 0 3.7741e-08)
(8.40835e-07 0 3.79428e-08)
(8.15511e-07 0 3.79113e-08)
(7.90289e-07 0 3.77491e-08)
(7.65263e-07 0 3.73953e-08)
(7.40515e-07 0 3.69461e-08)
(7.16088e-07 0 3.65117e-08)
(6.92021e-07 0 3.59356e-08)
(6.68346e-07 0 3.53994e-08)
(6.45053e-07 0 3.48049e-08)
(6.22119e-07 0 3.43391e-08)
(5.99576e-07 0 3.38029e-08)
(5.77344e-07 0 3.34638e-08)
(5.55401e-07 0 3.28531e-08)
(5.33792e-07 0 3.23735e-08)
(5.12522e-07 0 3.19207e-08)
(4.91554e-07 0 3.145e-08)
(4.7087e-07 0 3.11036e-08)
(4.50453e-07 0 3.07091e-08)
(4.30317e-07 0 3.02504e-08)
(4.10475e-07 0 2.98748e-08)
(3.90934e-07 0 2.93826e-08)
(3.71693e-07 0 2.89752e-08)
(3.52775e-07 0 2.8501e-08)
(3.34167e-07 0 2.81436e-08)
(3.15871e-07 0 2.76504e-08)
(2.97905e-07 0 2.71415e-08)
(2.80309e-07 0 2.66305e-08)
(2.63071e-07 0 2.615e-08)
(2.46176e-07 0 2.56603e-08)
(2.29621e-07 0 2.5174e-08)
(2.13432e-07 0 2.46501e-08)
(1.97589e-07 0 2.41854e-08)
(1.82079e-07 0 2.37084e-08)
(1.66933e-07 0 2.32291e-08)
(1.52171e-07 0 2.26634e-08)
(1.37773e-07 0 2.21047e-08)
(1.23761e-07 0 2.1467e-08)
(1.10152e-07 0 2.06815e-08)
(9.69286e-08 0 1.95874e-08)
(8.37777e-08 0 1.73535e-08)
(7.11734e-08 0 1.18546e-08)
(4.48261e-08 0 -3.89738e-09)
(2.93449e-08 0 5.83742e-08)
(2.22922e-11 0 5.86792e-08)
(4.41112e-16 0 -1.18916e-17)
(2.19195e-16 0 1.03398e-20)
(4.3337e-16 0 2.19203e-18)
(4.30155e-16 0 4.1359e-18)
(4.25367e-16 0 6.03842e-18)
(4.19722e-16 0 7.88924e-18)
(4.13239e-16 0 9.64699e-18)
(4.05846e-16 0 1.126e-17)
(3.97564e-16 0 1.27696e-17)
(3.88485e-16 0 1.41655e-17)
(3.78642e-16 0 1.53856e-17)
(3.68137e-16 0 1.64609e-17)
(3.57011e-16 0 1.74018e-17)
(3.45327e-16 0 1.81773e-17)
(3.3323e-16 0 1.88184e-17)
(3.20708e-16 0 1.93147e-17)
(3.07846e-16 0 1.96766e-17)
(2.94745e-16 0 1.99351e-17)
(2.81459e-16 0 2.01005e-17)
(2.68038e-16 0 2.01522e-17)
(2.54523e-16 0 2.01212e-17)
(2.40999e-16 0 1.99971e-17)
(2.27516e-16 0 1.9811e-17)
(2.14054e-16 0 1.95421e-17)
(2.00622e-16 0 1.9263e-17)
(1.87325e-16 0 1.89424e-17)
(1.74142e-16 0 1.85288e-17)
(1.61052e-16 0 1.81256e-17)
(1.48117e-16 0 1.7712e-17)
(1.35378e-16 0 1.72881e-17)
(1.22805e-16 0 1.68538e-17)
(1.10367e-16 0 1.64299e-17)
(9.8083e-17 0 1.60473e-17)
(8.59854e-17 0 1.56647e-17)
(7.4043e-17 0 1.52822e-17)
(6.21833e-17 0 1.49513e-17)
(5.04994e-17 0 1.46514e-17)
(3.89602e-17 0 1.44033e-17)
(2.74624e-17 0 1.41758e-17)
(1.59956e-17 0 1.39483e-17)
(5.12852e-18 0 1.36278e-17)
(4.56325e-08 0 -2.30457e-07)
(1.42181e-07 0 -2.27459e-07)
(2.31333e-07 0 -2.22519e-07)
(3.20947e-07 0 -2.14851e-07)
(4.06211e-07 0 -2.05213e-07)
(4.86822e-07 0 -1.94122e-07)
(5.62528e-07 0 -1.81999e-07)
(6.33012e-07 0 -1.69271e-07)
(6.98143e-07 0 -1.5626e-07)
(7.57928e-07 0 -1.43187e-07)
(8.1243e-07 0 -1.30204e-07)
(8.61752e-07 0 -1.17478e-07)
(9.06022e-07 0 -1.05088e-07)
(9.45361e-07 0 -9.26633e-08)
(9.79781e-07 0 -8.06121e-08)
(1.0093e-06 0 -6.76351e-08)
(1.03381e-06 0 -5.54021e-08)
(1.0538e-06 0 -4.52568e-08)
(1.06959e-06 0 -3.42619e-08)
(1.08068e-06 0 -2.25008e-08)
(1.08711e-06 0 -1.02806e-08)
(1.0894e-06 0 -2.43184e-09)
(1.08781e-06 0 7.98734e-09)
(1.08261e-06 0 1.68031e-08)
(1.0737e-06 0 2.45276e-08)
(1.0616e-06 0 3.28714e-08)
(1.04658e-06 0 3.89342e-08)
(1.02928e-06 0 4.43995e-08)
(1.00979e-06 0 4.95549e-08)
(9.88459e-07 0 5.37175e-08)
(9.6574e-07 0 5.69597e-08)
(9.41889e-07 0 5.9458e-08)
(9.17194e-07 0 6.13293e-08)
(8.92005e-07 0 6.23949e-08)
(8.66537e-07 0 6.30625e-08)
(8.40915e-07 0 6.33107e-08)
(8.15308e-07 0 6.31887e-08)
(7.89865e-07 0 6.28545e-08)
(7.64695e-07 0 6.2194e-08)
(7.39871e-07 0 6.1363e-08)
(7.15398e-07 0 6.06075e-08)
(6.91298e-07 0 5.96021e-08)
(6.67594e-07 0 5.86663e-08)
(6.44295e-07 0 5.77201e-08)
(6.21383e-07 0 5.68165e-08)
(5.98891e-07 0 5.58933e-08)
(5.767e-07 0 5.53319e-08)
(5.54778e-07 0 5.4364e-08)
(5.3316e-07 0 5.35196e-08)
(5.11887e-07 0 5.27688e-08)
(4.90933e-07 0 5.19469e-08)
(4.70267e-07 0 5.13385e-08)
(4.49859e-07 0 5.06518e-08)
(4.29705e-07 0 4.9851e-08)
(4.09829e-07 0 4.91871e-08)
(3.90263e-07 0 4.83503e-08)
(3.71009e-07 0 4.76016e-08)
(3.52099e-07 0 4.67439e-08)
(3.33482e-07 0 4.60596e-08)
(3.15177e-07 0 4.51841e-08)
(2.97197e-07 0 4.4273e-08)
(2.79581e-07 0 4.33577e-08)
(2.62313e-07 0 4.25074e-08)
(2.45395e-07 0 4.16294e-08)
(2.28836e-07 0 4.07353e-08)
(2.12636e-07 0 3.9811e-08)
(1.96782e-07 0 3.8941e-08)
(1.81284e-07 0 3.80372e-08)
(1.66133e-07 0 3.71247e-08)
(1.51338e-07 0 3.61591e-08)
(1.36885e-07 0 3.5196e-08)
(1.22744e-07 0 3.4156e-08)
(1.08824e-07 0 3.30105e-08)
(9.49845e-08 0 3.15213e-08)
(8.06102e-08 0 2.94233e-08)
(6.57772e-08 0 2.68458e-08)
(4.00818e-08 0 2.37441e-08)
(2.43549e-08 0 6.98154e-08)
(2.11446e-11 0 7.78876e-08)
(4.39186e-16 0 -9.2573e-18)
(2.20588e-16 0 -1.08385e-26)
(4.36048e-16 0 3.4328e-18)
(4.32771e-16 0 6.7622e-18)
(4.27942e-16 0 1.00296e-17)
(4.22193e-16 0 1.32039e-17)
(4.15514e-16 0 1.62127e-17)
(4.07934e-16 0 1.89528e-17)
(3.99508e-16 0 2.15067e-17)
(3.90233e-16 0 2.38228e-17)
(3.80183e-16 0 2.58804e-17)
(3.69471e-16 0 2.76692e-17)
(3.58149e-16 0 2.91995e-17)
(3.46289e-16 0 3.04816e-17)
(3.33985e-16 0 3.15259e-17)
(3.21267e-16 0 3.23324e-17)
(3.08239e-16 0 3.29218e-17)
(2.95004e-16 0 3.33044e-17)
(2.81583e-16 0 3.35215e-17)
(2.68038e-16 0 3.35732e-17)
(2.5442e-16 0 3.34801e-17)
(2.40772e-16 0 3.32527e-17)
(2.27175e-16 0 3.28701e-17)
(2.13661e-16 0 3.23945e-17)
(2.00188e-16 0 3.18465e-17)
(1.86788e-16 0 3.12571e-17)
(1.73563e-16 0 3.0554e-17)
(1.60483e-16 0 2.98095e-17)
(1.47528e-16 0 2.90754e-17)
(1.34758e-16 0 2.83309e-17)
(1.22164e-16 0 2.75658e-17)
(1.09777e-16 0 2.68007e-17)
(9.75453e-17 0 2.60872e-17)
(8.54581e-17 0 2.54151e-17)
(7.3557e-17 0 2.47741e-17)
(6.17697e-17 0 2.42157e-17)
(5.01375e-17 0 2.37297e-17)
(3.86293e-17 0 2.33162e-17)
(2.71936e-17 0 2.29543e-17)
(1.58095e-17 0 2.26854e-17)
(5.05614e-18 0 2.2551e-17)
(4.70553e-08 0 -3.25794e-07)
(1.47639e-07 0 -3.21396e-07)
(2.39308e-07 0 -3.13827e-07)
(3.31545e-07 0 -3.02501e-07)
(4.18886e-07 0 -2.88383e-07)
(5.0096e-07 0 -2.72272e-07)
(5.77601e-07 0 -2.54801e-07)
(6.48584e-07 0 -2.36597e-07)
(7.13886e-07 0 -2.18117e-07)
(7.73603e-07 0 -1.9968e-07)
(8.27903e-07 0 -1.81486e-07)
(8.76974e-07 0 -1.63737e-07)
(9.20975e-07 0 -1.46384e-07)
(9.60038e-07 0 -1.29167e-07)
(9.94169e-07 0 -1.12335e-07)
(1.02346e-06 0 -9.37603e-08)
(1.04764e-06 0 -7.75505e-08)
(1.06748e-06 0 -6.29748e-08)
(1.08305e-06 0 -4.7616e-08)
(1.09367e-06 0 -3.0223e-08)
(1.0994e-06 0 -1.44981e-08)
(1.10121e-06 0 -2.08909e-09)
(1.09906e-06 0 1.19558e-08)
(1.09304e-06 0 2.46544e-08)
(1.08313e-06 0 3.53366e-08)
(1.07003e-06 0 4.74182e-08)
(1.05407e-06 0 5.56107e-08)
(1.03569e-06 0 6.34412e-08)
(1.01513e-06 0 7.06314e-08)
(9.92814e-07 0 7.63691e-08)
(9.69173e-07 0 8.08276e-08)
(9.44455e-07 0 8.43043e-08)
(9.18966e-07 0 8.6755e-08)
(8.93099e-07 0 8.81016e-08)
(8.67052e-07 0 8.89876e-08)
(8.40949e-07 0 8.92272e-08)
(8.14966e-07 0 8.8951e-08)
(7.89223e-07 0 8.83815e-08)
(7.6383e-07 0 8.73496e-08)
(7.38844e-07 0 8.61546e-08)
(7.14253e-07 0 8.50333e-08)
(6.90129e-07 0 8.35941e-08)
(6.66457e-07 0 8.22142e-08)
(6.43186e-07 0 8.09021e-08)
(6.20277e-07 0 7.96012e-08)
(5.97821e-07 0 7.829e-08)
(5.75727e-07 0 7.75338e-08)
(5.53888e-07 0 7.62002e-08)
(5.32269e-07 0 7.49824e-08)
(5.11e-07 0 7.39643e-08)
(4.90081e-07 0 7.27706e-08)
(4.69406e-07 0 7.19773e-08)
(4.48981e-07 0 7.10785e-08)
(4.28818e-07 0 6.9945e-08)
(4.0892e-07 0 6.90384e-08)
(3.89361e-07 0 6.78345e-08)
(3.70077e-07 0 6.67934e-08)
(3.51115e-07 0 6.56376e-08)
(3.32447e-07 0 6.46882e-08)
(3.14143e-07 0 6.34593e-08)
(2.96155e-07 0 6.22007e-08)
(2.78512e-07 0 6.09447e-08)
(2.61232e-07 0 5.97176e-08)
(2.44324e-07 0 5.84615e-08)
(2.27777e-07 0 5.72006e-08)
(2.11574e-07 0 5.59553e-08)
(1.95698e-07 0 5.47376e-08)
(1.80176e-07 0 5.35152e-08)
(1.6502e-07 0 5.22501e-08)
(1.50214e-07 0 5.09297e-08)
(1.35705e-07 0 4.96576e-08)
(1.2149e-07 0 4.83087e-08)
(1.07499e-07 0 4.69249e-08)
(9.35797e-08 0 4.5473e-08)
(7.93424e-08 0 4.40237e-08)
(6.57345e-08 0 4.27971e-08)
(4.68432e-08 0 4.44239e-08)
(2.49973e-08 0 8.52435e-08)
(2.04089e-11 0 9.45391e-08)
(4.40027e-16 0 -2.6465e-18)
(2.22668e-16 0 3.10193e-20)
(4.40143e-16 0 4.87003e-18)
(4.36782e-16 0 9.61598e-18)
(4.31819e-16 0 1.42585e-17)
(4.25884e-16 0 1.8715e-17)
(4.18988e-16 0 2.29543e-17)
(4.1115e-16 0 2.6873e-17)
(4.02434e-16 0 3.04713e-17)
(3.92859e-16 0 3.3718e-17)
(3.82499e-16 0 3.66027e-17)
(3.71456e-16 0 3.9105e-17)
(3.59813e-16 0 4.12246e-17)
(3.47664e-16 0 4.29927e-17)
(3.35091e-16 0 4.44093e-17)
(3.22115e-16 0 4.55156e-17)
(3.08828e-16 0 4.63325e-17)
(2.95335e-16 0 4.68391e-17)
(2.81717e-16 0 4.70666e-17)
(2.67996e-16 0 4.70976e-17)
(2.54203e-16 0 4.69011e-17)
(2.40399e-16 0 4.65393e-17)
(2.26668e-16 0 4.60016e-17)
(2.1303e-16 0 4.53088e-17)
(1.99475e-16 0 4.44713e-17)
(1.86023e-16 0 4.35821e-17)
(1.72705e-16 0 4.26101e-17)
(1.59584e-16 0 4.15555e-17)
(1.46628e-16 0 4.04802e-17)
(1.33848e-16 0 3.94152e-17)
(1.21265e-16 0 3.83295e-17)
(1.08888e-16 0 3.72645e-17)
(9.67078e-17 0 3.62098e-17)
(8.46826e-17 0 3.52586e-17)
(7.28333e-17 0 3.4359e-17)
(6.11287e-17 0 3.35732e-17)
(4.95998e-17 0 3.28804e-17)
(3.81847e-17 0 3.23117e-17)
(2.68317e-17 0 3.18568e-17)
(1.5582e-17 0 3.15156e-17)
(4.98376e-18 0 3.13708e-17)
(4.92243e-08 0 -4.25528e-07)
(1.55133e-07 0 -4.19374e-07)
(2.50567e-07 0 -4.08786e-07)
(3.46381e-07 0 -3.93216e-07)
(4.36493e-07 0 -3.73885e-07)
(5.2043e-07 0 -3.52074e-07)
(5.98197e-07 0 -3.28684e-07)
(6.697e-07 0 -3.04543e-07)
(7.35077e-07 0 -2.80278e-07)
(7.946e-07 0 -2.56252e-07)
(8.48564e-07 0 -2.32721e-07)
(8.97182e-07 0 -2.10006e-07)
(9.4086e-07 0 -1.87417e-07)
(9.79509e-07 0 -1.6574e-07)
(1.01318e-06 0 -1.43873e-07)
(1.04232e-06 0 -1.18929e-07)
(1.06616e-06 0 -9.98671e-08)
(1.08593e-06 0 -8.09433e-08)
(1.10105e-06 0 -6.07198e-08)
(1.11118e-06 0 -3.55862e-08)
(1.11601e-06 0 -2.00922e-08)
(1.11732e-06 0 -6.49968e-10)
(1.11416e-06 0 1.67067e-08)
(1.10698e-06 0 3.34481e-08)
(1.09581e-06 0 4.74164e-08)
(1.08134e-06 0 6.29696e-08)
(1.06405e-06 0 7.34652e-08)
(1.04423e-06 0 8.38207e-08)
(1.02223e-06 0 9.28651e-08)
(9.98549e-07 0 1.00107e-07)
(9.73635e-07 0 1.05733e-07)
(9.47728e-07 0 1.10129e-07)
(9.21186e-07 0 1.12987e-07)
(8.9441e-07 0 1.14495e-07)
(8.67578e-07 0 1.15503e-07)
(8.40845e-07 0 1.15568e-07)
(8.14353e-07 0 1.15075e-07)
(7.88229e-07 0 1.14136e-07)
(7.6259e-07 0 1.1265e-07)
(7.37437e-07 0 1.11053e-07)
(7.12741e-07 0 1.09406e-07)
(6.88572e-07 0 1.07489e-07)
(6.64897e-07 0 1.0568e-07)
(6.41655e-07 0 1.04008e-07)
(6.18804e-07 0 1.02323e-07)
(5.9643e-07 0 1.00382e-07)
(5.74418e-07 0 9.95639e-08)
(5.52716e-07 0 9.80362e-08)
(5.31128e-07 0 9.63568e-08)
(5.09817e-07 0 9.50688e-08)
(4.88924e-07 0 9.35832e-08)
(4.68265e-07 0 9.25423e-08)
(4.47847e-07 0 9.14197e-08)
(4.27702e-07 0 8.99631e-08)
(4.07771e-07 0 8.88113e-08)
(3.88169e-07 0 8.7304e-08)
(3.68831e-07 0 8.59851e-08)
(3.49839e-07 0 8.4502e-08)
(3.31126e-07 0 8.32206e-08)
(3.12792e-07 0 8.16485e-08)
(2.94786e-07 0 8.00483e-08)
(2.77131e-07 0 7.84225e-08)
(2.59835e-07 0 7.68551e-08)
(2.42896e-07 0 7.52676e-08)
(2.26329e-07 0 7.36348e-08)
(2.10116e-07 0 7.20879e-08)
(1.9425e-07 0 7.05002e-08)
(1.78729e-07 0 6.89094e-08)
(1.63578e-07 0 6.72902e-08)
(1.48748e-07 0 6.56683e-08)
(1.34223e-07 0 6.40747e-08)
(1.20024e-07 0 6.24366e-08)
(1.06116e-07 0 6.08325e-08)
(9.24985e-08 0 5.93316e-08)
(7.89669e-08 0 5.82713e-08)
(6.66059e-08 0 5.7887e-08)
(5.03589e-08 0 6.08086e-08)
(2.572e-08 0 1.09435e-07)
(1.98925e-11 0 1.13553e-07)
(4.46138e-16 0 2.65128e-18)
(2.25475e-16 0 7.23783e-20)
(4.45633e-16 0 6.40031e-18)
(4.42159e-16 0 1.26248e-17)
(4.37051e-16 0 1.86839e-17)
(4.30889e-16 0 2.45052e-17)
(4.23672e-16 0 2.99956e-17)
(4.15462e-16 0 3.51138e-17)
(4.06353e-16 0 3.97667e-17)
(3.96354e-16 0 4.39543e-17)
(3.8558e-16 0 4.76559e-17)
(3.74123e-16 0 5.08509e-17)
(3.62036e-16 0 5.35703e-17)
(3.49463e-16 0 5.58037e-17)
(3.36507e-16 0 5.75821e-17)
(3.2319e-16 0 5.8947e-17)
(3.09562e-16 0 5.99396e-17)
(2.95727e-16 0 6.05289e-17)
(2.8182e-16 0 6.07874e-17)
(2.67872e-16 0 6.07461e-17)
(2.53862e-16 0 6.04255e-17)
(2.39872e-16 0 5.98879e-17)
(2.25955e-16 0 5.91434e-17)
(2.1212e-16 0 5.82232e-17)
(1.98461e-16 0 5.71375e-17)
(1.84947e-16 0 5.59278e-17)
(1.71537e-16 0 5.46146e-17)
(1.58343e-16 0 5.32498e-17)
(1.45377e-16 0 5.18332e-17)
(1.32597e-16 0 5.04063e-17)
(1.20024e-16 0 4.89898e-17)
(1.07689e-16 0 4.76042e-17)
(9.556e-17 0 4.62394e-17)
(8.36073e-17 0 4.4978e-17)
(7.18613e-17 0 4.38302e-17)
(6.02911e-17 0 4.27963e-17)
(4.88864e-17 0 4.19174e-17)
(3.76057e-17 0 4.11729e-17)
(2.63974e-17 0 4.06249e-17)
(1.53028e-17 0 4.0232e-17)
(4.89071e-18 0 4.00252e-17)
(5.22094e-08 0 -5.31136e-07)
(1.65157e-07 0 -5.22861e-07)
(2.65815e-07 0 -5.08617e-07)
(3.66356e-07 0 -4.87854e-07)
(4.59976e-07 0 -4.62256e-07)
(5.46166e-07 0 -4.33712e-07)
(6.25121e-07 0 -4.03553e-07)
(6.97008e-07 0 -3.72789e-07)
(7.62179e-07 0 -3.42316e-07)
(8.21194e-07 0 -3.12512e-07)
(8.74519e-07 0 -2.83585e-07)
(9.22503e-07 0 -2.55745e-07)
(9.65741e-07 0 -2.27989e-07)
(1.00372e-06 0 -2.02177e-07)
(1.03689e-06 0 -1.7463e-07)
(1.06565e-06 0 -1.44849e-07)
(1.08948e-06 0 -1.21989e-07)
(1.10937e-06 0 -9.81538e-08)
(1.12369e-06 0 -7.25665e-08)
(1.13304e-06 0 -4.18667e-08)
(1.13728e-06 0 -2.38827e-08)
(1.1378e-06 0 2.01685e-09)
(1.13334e-06 0 2.25713e-08)
(1.12461e-06 0 4.33967e-08)
(1.11188e-06 0 6.14485e-08)
(1.09558e-06 0 7.99548e-08)
(1.07657e-06 0 9.30522e-08)
(1.05489e-06 0 1.05818e-07)
(1.03103e-06 0 1.16749e-07)
(1.00557e-06 0 1.25278e-07)
(9.78991e-07 0 1.32132e-07)
(9.5159e-07 0 1.37196e-07)
(9.23729e-07 0 1.40339e-07)
(8.9582e-07 0 1.41842e-07)
(8.68011e-07 0 1.42809e-07)
(8.40506e-07 0 1.42518e-07)
(8.13392e-07 0 1.41736e-07)
(7.86811e-07 0 1.40184e-07)
(7.60854e-07 0 1.38162e-07)
(7.35509e-07 0 1.36089e-07)
(7.10713e-07 0 1.33869e-07)
(6.8651e-07 0 1.31416e-07)
(6.62889e-07 0 1.29086e-07)
(6.39732e-07 0 1.27018e-07)
(6.17005e-07 0 1.24872e-07)
(5.94692e-07 0 1.22578e-07)
(5.72777e-07 0 1.21158e-07)
(5.51185e-07 0 1.19947e-07)
(5.29726e-07 0 1.17745e-07)
(5.08363e-07 0 1.16139e-07)
(4.87483e-07 0 1.14395e-07)
(4.66848e-07 0 1.13083e-07)
(4.46421e-07 0 1.11757e-07)
(4.26277e-07 0 1.10021e-07)
(4.06292e-07 0 1.08659e-07)
(3.86654e-07 0 1.06772e-07)
(3.6727e-07 0 1.05175e-07)
(3.48252e-07 0 1.0338e-07)
(3.29476e-07 0 1.01807e-07)
(3.11097e-07 0 9.98328e-08)
(2.93031e-07 0 9.79234e-08)
(2.75366e-07 0 9.58645e-08)
(2.58055e-07 0 9.3964e-08)
(2.41145e-07 0 9.19798e-08)
(2.24587e-07 0 8.99726e-08)
(2.0836e-07 0 8.80856e-08)
(1.92487e-07 0 8.61723e-08)
(1.7698e-07 0 8.4201e-08)
(1.61818e-07 0 8.22542e-08)
(1.4697e-07 0 8.03249e-08)
(1.32456e-07 0 7.83888e-08)
(1.1829e-07 0 7.64352e-08)
(1.04524e-07 0 7.44795e-08)
(9.1278e-08 0 7.2623e-08)
(7.82383e-08 0 7.13817e-08)
(6.73151e-08 0 6.99775e-08)
(5.43055e-08 0 7.311e-08)
(2.70448e-08 0 1.36839e-07)
(1.91173e-11 0 1.3105e-07)
(4.44722e-16 0 1.46011e-17)
(2.29056e-16 0 1.44757e-19)
(4.52675e-16 0 8.07535e-18)
(4.49045e-16 0 1.58508e-17)
(4.4371e-16 0 2.33989e-17)
(4.37217e-16 0 3.0647e-17)
(4.29596e-16 0 3.74506e-17)
(4.20911e-16 0 4.37682e-17)
(4.11274e-16 0 4.94964e-17)
(4.00748e-16 0 5.46249e-17)
(3.89406e-16 0 5.91331e-17)
(3.77381e-16 0 6.30105e-17)
(3.64766e-16 0 6.62882e-17)
(3.51676e-16 0 6.89972e-17)
(3.38224e-16 0 7.11169e-17)
(3.24451e-16 0 7.26988e-17)
(3.1041e-16 0 7.37845e-17)
(2.96203e-16 0 7.44359e-17)
(2.81934e-16 0 7.46944e-17)
(2.67634e-16 0 7.45703e-17)
(2.53355e-16 0 7.41051e-17)
(2.39138e-16 0 7.33606e-17)
(2.25024e-16 0 7.23576e-17)
(2.11024e-16 0 7.11479e-17)
(1.97169e-16 0 6.9783e-17)
(1.835e-16 0 6.82424e-17)
(1.70037e-16 0 6.65777e-17)
(1.56792e-16 0 6.48613e-17)
(1.43785e-16 0 6.30932e-17)
(1.31015e-16 0 6.12837e-17)
(1.18463e-16 0 5.95157e-17)
(1.06148e-16 0 5.78096e-17)
(9.40815e-17 0 5.61449e-17)
(8.22528e-17 0 5.45629e-17)
(7.06412e-17 0 5.31567e-17)
(5.92365e-17 0 5.18849e-17)
(4.79868e-17 0 5.07889e-17)
(3.68716e-17 0 4.98997e-17)
(2.58908e-17 0 4.92276e-17)
(1.49927e-17 0 4.87933e-17)
(4.77697e-18 0 4.85452e-17)
(5.62297e-08 0 -6.44471e-07)
(1.78628e-07 0 -6.33364e-07)
(2.86129e-07 0 -6.14412e-07)
(3.92732e-07 0 -5.86991e-07)
(4.90595e-07 0 -5.53611e-07)
(5.79212e-07 0 -5.16958e-07)
(6.5914e-07 0 -4.78938e-07)
(7.31009e-07 0 -4.40832e-07)
(7.95556e-07 0 -4.03664e-07)
(8.53554e-07 0 -3.67915e-07)
(9.0563e-07 0 -3.33842e-07)
(9.53008e-07 0 -3.00099e-07)
(9.95188e-07 0 -2.68918e-07)
(1.03238e-06 0 -2.37926e-07)
(1.06554e-06 0 -2.02765e-07)
(1.09353e-06 0 -1.72403e-07)
(1.11781e-06 0 -1.44339e-07)
(1.13745e-06 0 -1.15522e-07)
(1.15132e-06 0 -8.21863e-08)
(1.15968e-06 0 -4.89836e-08)
(1.16334e-06 0 -2.57914e-08)
(1.16281e-06 0 5.5072e-09)
(1.15685e-06 0 3.02533e-08)
(1.14612e-06 0 5.47019e-08)
(1.13139e-06 0 7.76937e-08)
(1.11277e-06 0 9.86975e-08)
(1.09162e-06 0 1.14735e-07)
(1.06764e-06 0 1.29885e-07)
(1.04141e-06 0 1.428e-07)
(1.01375e-06 0 1.5249e-07)
(9.85102e-07 0 1.60225e-07)
(9.55845e-07 0 1.65867e-07)
(9.26408e-07 0 1.68981e-07)
(8.97138e-07 0 1.70391e-07)
(8.68161e-07 0 1.71062e-07)
(8.39713e-07 0 1.70263e-07)
(8.11886e-07 0 1.6891e-07)
(7.84805e-07 0 1.66667e-07)
(7.58502e-07 0 1.63926e-07)
(7.32943e-07 0 1.61275e-07)
(7.08106e-07 0 1.58331e-07)
(6.8394e-07 0 1.55295e-07)
(6.60406e-07 0 1.52379e-07)
(6.37322e-07 0 1.50006e-07)
(6.14786e-07 0 1.47173e-07)
(5.92533e-07 0 1.44982e-07)
(5.70827e-07 0 1.42381e-07)
(5.49315e-07 0 1.41715e-07)
(5.28116e-07 0 1.39164e-07)
(5.06789e-07 0 1.3709e-07)
(4.85851e-07 0 1.35212e-07)
(4.65233e-07 0 1.33565e-07)
(4.44789e-07 0 1.32111e-07)
(4.24635e-07 0 1.30088e-07)
(4.04547e-07 0 1.28534e-07)
(3.84838e-07 0 1.26324e-07)
(3.65376e-07 0 1.24415e-07)
(3.46303e-07 0 1.22314e-07)
(3.27478e-07 0 1.20414e-07)
(3.09053e-07 0 1.18095e-07)
(2.90931e-07 0 1.15791e-07)
(2.73227e-07 0 1.13378e-07)
(2.55901e-07 0 1.11067e-07)
(2.38959e-07 0 1.08738e-07)
(2.22437e-07 0 1.06317e-07)
(2.06189e-07 0 1.04194e-07)
(1.90368e-07 0 1.01816e-07)
(1.74881e-07 0 9.94841e-08)
(1.59724e-07 0 9.72472e-08)
(1.44873e-07 0 9.5007e-08)
(1.30341e-07 0 9.27447e-08)
(1.16156e-07 0 9.04573e-08)
(1.02412e-07 0 8.80591e-08)
(8.94304e-08 0 8.55531e-08)
(7.68013e-08 0 8.34077e-08)
(6.70714e-08 0 7.93533e-08)
(4.72548e-08 0 9.49073e-08)
(2.30422e-08 0 1.76598e-07)
(1.80957e-11 0 1.42033e-07)
(4.47338e-16 0 4.65359e-17)
(2.33472e-16 0 3.51552e-19)
(4.61319e-16 0 9.91583e-18)
(4.57493e-16 0 1.93353e-17)
(4.51868e-16 0 2.8486e-17)
(4.44951e-16 0 3.72335e-17)
(4.36793e-16 0 4.54019e-17)
(4.27508e-16 0 5.29602e-17)
(4.17209e-16 0 5.97948e-17)
(4.0598e-16 0 6.58643e-17)
(3.93955e-16 0 7.11789e-17)
(3.81258e-16 0 7.57284e-17)
(3.68002e-16 0 7.95334e-17)
(3.54292e-16 0 8.2656e-17)
(3.4023e-16 0 8.50755e-17)
(3.25868e-16 0 8.68436e-17)
(3.11309e-16 0 8.80017e-17)
(2.96648e-16 0 8.86634e-17)
(2.81955e-16 0 8.88289e-17)
(2.67283e-16 0 8.85807e-17)
(2.52652e-16 0 8.79396e-17)
(2.38125e-16 0 8.69677e-17)
(2.23752e-16 0 8.56959e-17)
(2.09566e-16 0 8.41243e-17)
(1.95556e-16 0 8.24079e-17)
(1.81732e-16 0 8.05157e-17)
(1.68155e-16 0 7.84891e-17)
(1.54869e-16 0 7.63798e-17)
(1.4182e-16 0 7.42395e-17)
(1.2902e-16 0 7.20681e-17)
(1.16529e-16 0 6.99071e-17)
(1.04318e-16 0 6.78495e-17)
(9.2334e-17 0 6.58746e-17)
(8.06088e-17 0 6.40134e-17)
(6.91626e-17 0 6.23281e-17)
(5.79337e-17 0 6.08081e-17)
(4.69011e-17 0 5.9526e-17)
(3.60341e-17 0 5.84713e-17)
(2.5291e-17 0 5.76855e-17)
(1.46308e-17 0 5.71582e-17)
(4.65289e-18 0 5.69411e-17)
(6.15729e-08 0 -7.68134e-07)
(1.96619e-07 0 -7.53199e-07)
(3.13056e-07 0 -7.27865e-07)
(4.27113e-07 0 -6.91706e-07)
(5.29988e-07 0 -6.48269e-07)
(6.20954e-07 0 -6.01603e-07)
(7.01351e-07 0 -5.54214e-07)
(7.72376e-07 0 -5.07958e-07)
(8.35447e-07 0 -4.63724e-07)
(8.91407e-07 0 -4.22211e-07)
(9.4216e-07 0 -3.82044e-07)
(9.88188e-07 0 -3.44075e-07)
(1.02908e-06 0 -3.08789e-07)
(1.06545e-06 0 -2.72258e-07)
(1.09862e-06 0 -2.31491e-07)
(1.12647e-06 0 -2.00032e-07)
(1.15122e-06 0 -1.66347e-07)
(1.16989e-06 0 -1.3289e-07)
(1.18432e-06 0 -8.744e-08)
(1.19129e-06 0 -6.10917e-08)
(1.1951e-06 0 -2.40169e-08)
(1.19234e-06 0 9.24094e-09)
(1.18468e-06 0 4.04011e-08)
(1.1718e-06 0 6.75145e-08)
(1.15453e-06 0 9.78416e-08)
(1.13329e-06 0 1.1895e-07)
(1.10924e-06 0 1.39056e-07)
(1.08239e-06 0 1.5668e-07)
(1.05329e-06 0 1.71238e-07)
(1.02296e-06 0 1.8212e-07)
(9.91813e-07 0 1.90483e-07)
(9.60261e-07 0 1.96418e-07)
(9.28943e-07 0 1.99271e-07)
(8.98075e-07 0 2.0035e-07)
(8.67756e-07 0 2.00398e-07)
(8.38253e-07 0 1.98885e-07)
(8.09623e-07 0 1.96725e-07)
(7.82035e-07 0 1.9356e-07)
(7.55428e-07 0 1.89954e-07)
(7.29673e-07 0 1.86554e-07)
(7.04821e-07 0 1.82766e-07)
(6.80751e-07 0 1.79125e-07)
(6.57371e-07 0 1.75539e-07)
(6.3443e-07 0 1.72793e-07)
(6.12171e-07 0 1.69287e-07)
(5.90095e-07 0 1.67218e-07)
(5.68644e-07 0 1.63416e-07)
(5.47077e-07 0 1.63337e-07)
(5.26253e-07 0 1.60638e-07)
(5.05094e-07 0 1.57921e-07)
(4.83943e-07 0 1.56135e-07)
(4.63346e-07 0 1.54041e-07)
(4.42885e-07 0 1.52517e-07)
(4.22719e-07 0 1.50271e-07)
(4.02528e-07 0 1.48501e-07)
(3.82749e-07 0 1.45977e-07)
(3.63174e-07 0 1.43709e-07)
(3.4399e-07 0 1.41332e-07)
(3.25103e-07 0 1.39071e-07)
(3.06623e-07 0 1.36491e-07)
(2.88496e-07 0 1.33653e-07)
(2.70721e-07 0 1.30872e-07)
(2.53394e-07 0 1.28196e-07)
(2.36498e-07 0 1.25419e-07)
(2.19918e-07 0 1.22738e-07)
(2.037e-07 0 1.20172e-07)
(1.87918e-07 0 1.17417e-07)
(1.7245e-07 0 1.14785e-07)
(1.57308e-07 0 1.12243e-07)
(1.42448e-07 0 1.09722e-07)
(1.2786e-07 0 1.07152e-07)
(1.13569e-07 0 1.0454e-07)
(9.96327e-08 0 1.01759e-07)
(8.62819e-08 0 9.8664e-08)
(7.44099e-08 0 9.48009e-08)
(6.37094e-08 0 8.86737e-08)
(4.19527e-08 0 1.18964e-07)
(1.82858e-08 0 1.97712e-07)
(1.71094e-11 0 1.48723e-07)
(4.58029e-16 0 7.43726e-17)
(2.38744e-16 0 5.48007e-19)
(4.71658e-16 0 1.19838e-17)
(4.67626e-16 0 2.31817e-17)
(4.61598e-16 0 3.40488e-17)
(4.54133e-16 0 4.43782e-17)
(4.45333e-16 0 5.40046e-17)
(4.35304e-16 0 6.28451e-17)
(4.24168e-16 0 7.07963e-17)
(4.12122e-16 0 7.78377e-17)
(3.99259e-16 0 8.39588e-17)
(3.85725e-16 0 8.91804e-17)
(3.71683e-16 0 9.34714e-17)
(3.57218e-16 0 9.69249e-17)
(3.42422e-16 0 9.95615e-17)
(3.27398e-16 0 1.01454e-16)
(3.1225e-16 0 1.02674e-16)
(2.9703e-16 0 1.03284e-16)
(2.81841e-16 0 1.03315e-16)
(2.66745e-16 0 1.02839e-16)
(2.51742e-16 0 1.0195e-16)
(2.36874e-16 0 1.00678e-16)
(2.2217e-16 0 9.90859e-17)
(2.07726e-16 0 9.71937e-17)
(1.9355e-16 0 9.50844e-17)
(1.79581e-16 0 9.2789e-17)
(1.65912e-16 0 9.03798e-17)
(1.52553e-16 0 8.78466e-17)
(1.39483e-16 0 8.5303e-17)
(1.26693e-16 0 8.27594e-17)
(1.14223e-16 0 8.02365e-17)
(1.02115e-16 0 7.78067e-17)
(9.02764e-17 0 7.54802e-17)
(7.87062e-17 0 7.33399e-17)
(6.74152e-17 0 7.1365e-17)
(5.64137e-17 0 6.96279e-17)
(4.56397e-17 0 6.8139e-17)
(3.50311e-17 0 6.69086e-17)
(2.45776e-17 0 6.59987e-17)
(1.42482e-17 0 6.54197e-17)
(4.55983e-18 0 6.52129e-17)
(6.87694e-08 0 -9.05699e-07)
(2.20508e-07 0 -8.85942e-07)
(3.49367e-07 0 -8.50958e-07)
(4.71994e-07 0 -8.02838e-07)
(5.80566e-07 0 -7.46195e-07)
(6.73345e-07 0 -6.87047e-07)
(7.5308e-07 0 -6.28529e-07)
(8.21752e-07 0 -5.73019e-07)
(8.81703e-07 0 -5.21798e-07)
(9.35058e-07 0 -4.73625e-07)
(9.83799e-07 0 -4.28159e-07)
(1.0276e-06 0 -3.87201e-07)
(1.06628e-06 0 -3.49004e-07)
(1.10361e-06 0 -3.02605e-07)
(1.13534e-06 0 -2.64384e-07)
(1.16458e-06 0 -2.26656e-07)
(1.18882e-06 0 -1.8972e-07)
(1.20795e-06 0 -1.46293e-07)
(1.22196e-06 0 -9.90376e-08)
(1.22938e-06 0 -6.71516e-08)
(1.2321e-06 0 -2.11876e-08)
(1.22718e-06 0 1.49751e-08)
(1.21729e-06 0 5.18753e-08)
(1.20195e-06 0 8.45534e-08)
(1.18151e-06 0 1.1893e-07)
(1.15713e-06 0 1.43252e-07)
(1.12947e-06 0 1.66642e-07)
(1.09903e-06 0 1.86904e-07)
(1.06654e-06 0 2.02647e-07)
(1.03297e-06 0 2.14581e-07)
(9.98802e-07 0 2.23624e-07)
(9.64641e-07 0 2.29092e-07)
(9.31129e-07 0 2.3136e-07)
(8.98367e-07 0 2.31948e-07)
(8.66549e-07 0 2.3091e-07)
(8.35854e-07 0 2.28627e-07)
(8.06422e-07 0 2.2507e-07)
(7.7832e-07 0 2.20821e-07)
(7.51429e-07 0 2.16305e-07)
(7.25553e-07 0 2.11828e-07)
(7.00766e-07 0 2.07111e-07)
(6.76921e-07 0 2.02648e-07)
(6.53752e-07 0 1.98725e-07)
(6.31118e-07 0 1.95118e-07)
(6.09099e-07 0 1.91283e-07)
(5.87402e-07 0 1.88728e-07)
(5.66015e-07 0 1.85512e-07)
(5.44886e-07 0 1.833e-07)
(5.23997e-07 0 1.82378e-07)
(5.03289e-07 0 1.78943e-07)
(4.81975e-07 0 1.76958e-07)
(4.61296e-07 0 1.7456e-07)
(4.40797e-07 0 1.72896e-07)
(4.20532e-07 0 1.70643e-07)
(4.00297e-07 0 1.68418e-07)
(3.80335e-07 0 1.65882e-07)
(3.60699e-07 0 1.63059e-07)
(3.41285e-07 0 1.60593e-07)
(3.22431e-07 0 1.57607e-07)
(3.03808e-07 0 1.54929e-07)
(2.85632e-07 0 1.51707e-07)
(2.67853e-07 0 1.4833e-07)
(2.50459e-07 0 1.45309e-07)
(2.3356e-07 0 1.42221e-07)
(2.17045e-07 0 1.39075e-07)
(2.00846e-07 0 1.36112e-07)
(1.85136e-07 0 1.33012e-07)
(1.69718e-07 0 1.30064e-07)
(1.54586e-07 0 1.27219e-07)
(1.39724e-07 0 1.24435e-07)
(1.25113e-07 0 1.21612e-07)
(1.10669e-07 0 1.1875e-07)
(9.63696e-08 0 1.15728e-07)
(8.21515e-08 0 1.12329e-07)
(6.85214e-08 0 1.08034e-07)
(5.14632e-08 0 1.01257e-07)
(3.74256e-08 0 1.51143e-07)
(8.61185e-09 0 2.02796e-07)
(1.60792e-11 0 1.56082e-07)
(4.61229e-16 0 1.13475e-16)
(2.45111e-16 0 8.3752e-19)
(4.83963e-16 0 1.43102e-17)
(4.79558e-16 0 2.74831e-17)
(4.73044e-16 0 4.01803e-17)
(4.64907e-16 0 5.22158e-17)
(4.5527e-16 0 6.34137e-17)
(4.4431e-16 0 7.35777e-17)