/*--------------------------------*- C++ -*----------------------------------*\
  =========                 |
  \\      /  F ield         | OpenFOAM: The Open Source CFD Toolbox
   \\    /   O peration     | Website:  https://openfoam.org
    \\  /    A nd           | Version:  6
     \\/     M anipulation  |
\*---------------------------------------------------------------------------*/
FoamFile
{
    version     2.0;
    format      ascii;
    class       volScalarField;
    location    "600";
    object      dmdt;
}
// * * * * * * * * * * * * * * * * * * * * * * * * * * * * * * * * * * * * * //

dimensions      [0 0 0 0 0 0 0];

internalField   nonuniform List<scalar> 
4800
(
-0.219436
-0.217127
-0.214818
-0.212501
-0.210175
-0.207845
-0.205522
-0.203208
-0.200909
-0.198634
-0.196383
-0.194156
-0.191955
-0.189788
-0.187656
-0.18556
-0.183499
-0.181464
-0.179462
-0.177496
-0.175565
-0.173663
-0.171787
-0.169934
-0.168099
-0.16628
-0.164477
-0.162684
-0.160895
-0.159101
-0.157298
-0.155481
-0.153644
-0.151783
-0.149891
-0.147963
-0.145995
-0.143984
-0.141926
-0.139816
-0.13765
-0.135424
-0.133136
-0.130785
-0.128373
-0.125903
-0.123385
-0.120829
-0.118238
-0.115617
-0.112972
-0.110305
-0.107613
-0.104896
-0.102151
-0.0993742
-0.0965641
-0.0937191
-0.0908382
-0.0879214
-0.0849684
-0.0819781
-0.0789485
-0.0758769
-0.0727588
-0.0695884
-0.0663572
-0.0630552
-0.0596716
-0.0561934
-0.0526094
-0.0489078
-0.0450772
-0.0411143
-0.0370206
-0.0328066
-0.0284962
-0.0241224
-0.0197511
-0.0154643
-0.0113259
-0.00736983
-0.00359546
2.02527e-05
0.0035055
0.00688773
0.0101904
0.0134322
0.0166273
0.0197859
0.0229155
0.0260215
0.0291077
0.0321766
0.0352304
0.0382705
0.0412979
0.0443136
0.0473183
0.0503127
0.0532974
0.0562729
0.0592397
0.0621985
0.0651497
0.0680938
0.0710314
0.073963
0.0768891
0.0798102
0.0827267
0.0856393
0.0885482
0.091454
0.0943571
0.097258
0.100157
0.103055
0.105951
0.108848
-0.219428
-0.217098
-0.214761
-0.212418
-0.210069
-0.20772
-0.205377
-0.203048
-0.200734
-0.198443
-0.196179
-0.19394
-0.191729
-0.189552
-0.187412
-0.185308
-0.18324
-0.181199
-0.17919
-0.177217
-0.17528
-0.173373
-0.171492
-0.169635
-0.167798
-0.165978
-0.164172
-0.162379
-0.16059
-0.158798
-0.156998
-0.155183
-0.153348
-0.15149
-0.149601
-0.147679
-0.145716
-0.14371
-0.141657
-0.139551
-0.137391
-0.135175
-0.132895
-0.130555
-0.128154
-0.125697
-0.123192
-0.120645
-0.118064
-0.115451
-0.11281
-0.110143
-0.107451
-0.104732
-0.101983
-0.0992038
-0.0963907
-0.0935426
-0.0906584
-0.0877374
-0.0847796
-0.0817839
-0.0787482
-0.0756695
-0.0725435
-0.0693641
-0.0661243
-0.0628144
-0.0594246
-0.0559429
-0.052358
-0.0486587
-0.0448325
-0.0408735
-0.0367857
-0.0325795
-0.0282785
-0.0239321
-0.0195868
-0.015306
-0.0111584
-0.00720118
-0.0034487
0.000138542
0.00359618
0.00695484
0.0102389
0.0134665
0.0166512
0.0198024
0.0229267
0.0260289
0.0291125
0.0321796
0.0352321
0.0382713
0.0412982
0.0443135
0.047318
0.0503122
0.0532968
0.0562723
0.0592391
0.0621979
0.0651492
0.0680934
0.071031
0.0739627
0.0768888
0.0798099
0.0827265
0.0856391
0.0885481
0.0914539
0.0943571
0.097258
0.100157
0.103055
0.105951
0.108848
-0.219406
-0.217032
-0.214649
-0.212259
-0.209868
-0.207483
-0.205106
-0.202747
-0.200406
-0.198089
-0.1958
-0.193539
-0.191307
-0.189107
-0.186948
-0.184825
-0.182741
-0.180689
-0.178667
-0.176677
-0.174725
-0.172806
-0.170913
-0.169048
-0.167209
-0.165388
-0.16358
-0.161783
-0.159992
-0.158202
-0.156405
-0.154595
-0.152766
-0.150914
-0.149034
-0.147122
-0.14517
-0.143175
-0.141132
-0.139038
-0.136889
-0.134685
-0.132421
-0.130099
-0.127722
-0.125292
-0.122811
-0.120286
-0.117722
-0.115123
-0.112492
-0.10983
-0.107138
-0.104416
-0.101662
-0.0988776
-0.0960587
-0.0932047
-0.0903141
-0.0873861
-0.08442
-0.0814151
-0.0783696
-0.0752804
-0.0721432
-0.0689519
-0.0657008
-0.0623812
-0.0589835
-0.0554978
-0.0519111
-0.0482135
-0.0443912
-0.0404368
-0.0363512
-0.0321472
-0.0278503
-0.0235054
-0.0191589
-0.0148783
-0.0107518
-0.00684032
-0.00314827
0.000374584
0.00377381
0.0070845
0.0103315
0.0135317
0.0166964
0.0198333
0.0229476
0.0260428
0.0291214
0.0321852
0.0352353
0.0382729
0.0412986
0.0443132
0.0473172
0.0503112
0.0532957
0.0562711
0.059238
0.0621968
0.0651481
0.0680924
0.0710302
0.073962
0.0768882
0.0798094
0.0827261
0.0856387
0.0885478
0.0914537
0.0943569
0.0972579
0.100157
0.103055
0.105951
0.108848
-0.219373
-0.216933
-0.214486
-0.212038
-0.209593
-0.207156
-0.204733
-0.202329
-0.199948
-0.197591
-0.195266
-0.192969
-0.190702
-0.188469
-0.186275
-0.184124
-0.182016
-0.179944
-0.177902
-0.175889
-0.173916
-0.171979
-0.170072
-0.168195
-0.166346
-0.164517
-0.162704
-0.160904
-0.159111
-0.157322
-0.15553
-0.153728
-0.151909
-0.150068
-0.148201
-0.146304
-0.144367
-0.14239
-0.140366
-0.13829
-0.13616
-0.133979
-0.131742
-0.129448
-0.127103
-0.124707
-0.122259
-0.119764
-0.117226
-0.114648
-0.112032
-0.10938
-0.106692
-0.10397
-0.101213
-0.0984234
-0.0955977
-0.0927356
-0.0898355
-0.0868964
-0.083918
-0.0808996
-0.0778404
-0.074738
-0.0715883
-0.0683858
-0.0651247
-0.0617977
-0.058395
-0.0549063
-0.0513189
-0.0476235
-0.0438047
-0.0398537
-0.0357662
-0.0315571
-0.027244
-0.0228661
-0.0184931
-0.0142096
-0.0101096
-0.00627166
-0.00268936
0.000723232
0.00402878
0.00726659
0.0104596
0.0136208
0.0167579
0.0198753
0.022976
0.0260616
0.0291335
0.0321926
0.0352395
0.0382749
0.0412991
0.0443127
0.0473161
0.0503097
0.053294
0.0562693
0.0592362
0.0621951
0.0651466
0.068091
0.071029
0.0739609
0.0768873
0.0798087
0.0827255
0.0856382
0.0885474
0.0914534
0.0943567
0.0972577
0.100157
0.103055
0.105951
0.108848
-0.219332
-0.216811
-0.214287
-0.211765
-0.209251
-0.206751
-0.204268
-0.201806
-0.199369
-0.196957
-0.194582
-0.192238
-0.189925
-0.187645
-0.185404
-0.183213
-0.181075
-0.178972
-0.176902
-0.174863
-0.172865
-0.170908
-0.168983
-0.167087
-0.16522
-0.163381
-0.161561
-0.159757
-0.157963
-0.156175
-0.154388
-0.152596
-0.150791
-0.148967
-0.147118
-0.145243
-0.143328
-0.141373
-0.139376
-0.137325
-0.135221
-0.13307
-0.13087
-0.128615
-0.12631
-0.123955
-0.121547
-0.11909
-0.116585
-0.114035
-0.111441
-0.108804
-0.106126
-0.103408
-0.100652
-0.097859
-0.0950275
-0.0921564
-0.0892449
-0.0862923
-0.0832993
-0.0802663
-0.0771929
-0.0740783
-0.0709182
-0.0677068
-0.0644388
-0.061107
-0.0577021
-0.0542141
-0.0506287
-0.0469375
-0.0431235
-0.039172
-0.0350805
-0.0308538
-0.0265012
-0.0220585
-0.0175995
-0.0132386
-0.00914304
-0.00545761
-0.00207018
0.00116914
0.00434156
0.00748343
0.0106092
0.0137237
0.0168285
0.0199235
0.0230084
0.0260832
0.0291474
0.0322011
0.0352443
0.0382771
0.0412996
0.044312
0.0473146
0.0503078
0.0532918
0.056267
0.059234
0.062193
0.0651446
0.0680893
0.0710274
0.0739595
0.0768861
0.0798077
0.0827247
0.0856376
0.0885468
0.091453
0.0943563
0.0972574
0.100157
0.103055
0.105951
0.108847
-0.219285
-0.216671
-0.214057
-0.211449
-0.208854
-0.206275
-0.203717
-0.201183
-0.198676
-0.196196
-0.193757
-0.191352
-0.188983
-0.186646
-0.184349
-0.182106
-0.179921
-0.177784
-0.17568
-0.173611
-0.171585
-0.169602
-0.167654
-0.165738
-0.163854
-0.161998
-0.160167
-0.158359
-0.156564
-0.15478
-0.152999
-0.15122
-0.149429
-0.147626
-0.145801
-0.14395
-0.142067
-0.140144
-0.138183
-0.136174
-0.134112
-0.132003
-0.129847
-0.127637
-0.125375
-0.123064
-0.1207
-0.118284
-0.115817
-0.113299
-0.110732
-0.108117
-0.105455
-0.102746
-0.0999928
-0.0971975
-0.0943607
-0.0914819
-0.0885604
-0.0855963
-0.0825909
-0.0795467
-0.0764631
-0.0733403
-0.0701755
-0.0669617
-0.0636932
-0.0603621
-0.0569587
-0.0534736
-0.049893
-0.0462058
-0.042399
-0.0384521
-0.0343532
-0.0300982
-0.0256941
-0.0211579
-0.0165384
-0.011963
-0.00772633
-0.00435369
-0.00131057
0.00167389
0.00467657
0.00770795
0.0107612
0.0138275
0.0168996
0.0199721
0.0230414
0.0261052
0.0291617
0.0322099
0.0352493
0.0382793
0.0412999
0.044311
0.0473128
0.0503055
0.0532892
0.0562644
0.0592314
0.0621906
0.0651423
0.0680872
0.0710255
0.0739579
0.0768847
0.0798065
0.0827237
0.0856368
0.0885462
0.0914525
0.094356
0.0972572
0.100156
0.103054
0.105951
0.108847
-0.219231
-0.216511
-0.213797
-0.211092
-0.208403
-0.205734
-0.203088
-0.200469
-0.197877
-0.195315
-0.192795
-0.190316
-0.18788
-0.18548
-0.183118
-0.180815
-0.178574
-0.176393
-0.174254
-0.17215
-0.170091
-0.168078
-0.166104
-0.164166
-0.162262
-0.16039
-0.158548
-0.156734
-0.154938
-0.153159
-0.151387
-0.149622
-0.147849
-0.14607
-0.144273
-0.142454
-0.14061
-0.138726
-0.136808
-0.134847
-0.132837
-0.130781
-0.128679
-0.126522
-0.124312
-0.122051
-0.119735
-0.117364
-0.114939
-0.112458
-0.109923
-0.107334
-0.104691
-0.101996
-0.0992492
-0.0964548
-0.0936146
-0.0907299
-0.0878015
-0.0848308
-0.0818194
-0.0787696
-0.0756822
-0.0725576
-0.069396
-0.0661905
-0.0629319
-0.0596103
-0.056215
-0.0527354
-0.0491607
-0.045478
-0.0416772
-0.0377361
-0.0336337
-0.0293642
-0.0249189
-0.020276
-0.0154069
-0.010325
-0.00538535
-0.00292557
-0.000497607
0.00215451
0.00497667
0.00790407
0.0108935
0.0139185
0.0169627
0.0200159
0.0230717
0.0261257
0.0291752
0.0322183
0.035254
0.0382814
0.0413001
0.04431
0.0473109
0.050303
0.0532865
0.0562615
0.0592285
0.0621878
0.0651398
0.0680849
0.0710235
0.0739561
0.0768832
0.0798052
0.0827226
0.0856359
0.0885455
0.0914519
0.0943555
0.0972568
0.100156
0.103054
0.105951
0.108847
-0.219172
-0.216337
-0.213511
-0.210701
-0.207909
-0.205136
-0.202387
-0.199667
-0.196977
-0.194322
-0.19171
-0.189144
-0.186629
-0.184162
-0.181737
-0.179366
-0.177062
-0.174822
-0.172636
-0.170497
-0.168404
-0.166359
-0.164359
-0.162399
-0.160477
-0.158592
-0.156737
-0.154914
-0.153117
-0.151342
-0.14958
-0.147831
-0.146078
-0.144328
-0.142563
-0.140781
-0.138982
-0.13715
-0.135286
-0.133381
-0.131429
-0.129431
-0.127387
-0.12529
-0.123138
-0.120933
-0.118671
-0.116351
-0.113971
-0.111531
-0.109032
-0.106472
-0.103853
-0.101174
-0.0984373
-0.0956477
-0.0928091
-0.0899238
-0.0869932
-0.0840189
-0.0810038
-0.0779547
-0.0748758
-0.0717655
-0.0686205
-0.0654328
-0.0621921
-0.0588872
-0.055506
-0.0520373
-0.0484703
-0.0447948
-0.0409994
-0.0370657
-0.0329745
-0.0287131
-0.0242641
-0.0195888
-0.0145555
-0.0086116
-0.000322197
-0.00146698
8.89582e-05
0.00246191
0.00516783
0.008034
0.0109856
0.0139851
0.0170111
0.020051
0.0230968
0.0261433
0.0291872
0.0322261
0.0352585
0.0382835
0.0413004
0.044309
0.0473091
0.0503006
0.0532837
0.0562586
0.0592256
0.062185
0.0651371
0.0680824
0.0710213
0.0739542
0.0768815
0.0798038
0.0827214
0.0856349
0.0885447
0.0914513
0.0943551
0.0972565
0.100156
0.103054
0.105951
0.108847
-0.219111
-0.216156
-0.213213
-0.210283
-0.207372
-0.204483
-0.20162
-0.198787
-0.195986
-0.193223
-0.190507
-0.187845
-0.185241
-0.182695
-0.180202
-0.177766
-0.175397
-0.173096
-0.170859
-0.168676
-0.166548
-0.164471
-0.162446
-0.160463
-0.158525
-0.156628
-0.154762
-0.152931
-0.151131
-0.149359
-0.147608
-0.145876
-0.144146
-0.142426
-0.1407
-0.138962
-0.137212
-0.135436
-0.133631
-0.131788
-0.129902
-0.12797
-0.125991
-0.12396
-0.121874
-0.11973
-0.117528
-0.115263
-0.112935
-0.11054
-0.10808
-0.105552
-0.102959
-0.100302
-0.0975826
-0.0948013
-0.0919626
-0.0890741
-0.0861433
-0.0831769
-0.0801771
-0.0771454
-0.0740843
-0.070993
-0.0678685
-0.0647031
-0.0614859
-0.058204
-0.0548438
-0.0513922
-0.0478384
-0.0441735
-0.0403901
-0.036477
-0.0324178
-0.0282034
-0.0238313
-0.0192988
-0.0145846
-0.00966163
-0.00482384
-0.00247505
-0.000140214
0.00243635
0.00519794
0.00807699
0.0110279
0.0140222
0.017042
0.0200758
0.0231161
0.0261578
0.0291977
0.0322333
0.035263
0.0382859
0.0413011
0.0443085
0.0473076
0.0502985
0.0532812
0.0562559
0.0592228
0.0621823
0.0651345
0.06808
0.0710191
0.0739522
0.0768798
0.0798023
0.0827202
0.0856339
0.0885439
0.0914506
0.0943546
0.0972561
0.100156
0.103054
0.105951
0.108847
-0.219046
-0.215962
-0.212889
-0.209832
-0.206793
-0.203777
-0.200789
-0.197833
-0.194914
-0.192036
-0.189208
-0.18644
-0.183739
-0.181104
-0.178535
-0.176032
-0.173601
-0.17124
-0.168949
-0.166723
-0.164557
-0.162448
-0.160395
-0.158392
-0.156438
-0.15453
-0.152655
-0.150817
-0.149013
-0.147243
-0.145501
-0.143785
-0.142084
-0.140395
-0.13871
-0.137022
-0.135324
-0.133608
-0.131867
-0.130092
-0.128278
-0.12642
-0.124513
-0.122554
-0.120539
-0.118464
-0.116326
-0.114123
-0.111849
-0.109505
-0.107089
-0.1046
-0.102036
-0.0994009
-0.0966987
-0.0939348
-0.0911143
-0.0882424
-0.0853253
-0.0823714
-0.0793861
-0.0763708
-0.0733265
-0.0702536
-0.0671506
-0.0640115
-0.0608238
-0.0575715
-0.0542377
-0.0508084
-0.0472732
-0.0436252
-0.0398619
-0.0359797
-0.0319709
-0.0278377
-0.0235926
-0.0192604
-0.0148912
-0.0105927
-0.00659915
-0.00346284
-0.000606428
0.00222912
0.00511298
0.00804959
0.0110273
0.0140334
0.0170574
0.0200917
0.0231306
0.0261701
0.0292075
0.0322406
0.0352682
0.0382891
0.0413027
0.0443088
0.0473069
0.050297
0.0532792
0.0562536
0.0592204
0.0621798
0.0651321
0.0680777
0.071017
0.0739503
0.0768781
0.0798009
0.082719
0.0856329
0.0885431
0.09145
0.0943541
0.0972557
0.100155
0.103054
0.105951
0.108847
-0.218978
-0.215758
-0.212549
-0.209355
-0.206178
-0.203024
-0.199899
-0.196811
-0.193766
-0.19077
-0.187827
-0.184946
-0.182139
-0.179409
-0.176757
-0.174182
-0.171687
-0.169271
-0.166929
-0.164659
-0.162457
-0.160317
-0.158238
-0.156213
-0.154245
-0.152325
-0.150443
-0.148602
-0.146795
-0.145023
-0.143286
-0.141582
-0.139906
-0.138252
-0.136613
-0.13498
-0.133344
-0.131695
-0.130023
-0.128322
-0.126585
-0.124804
-0.122975
-0.121094
-0.119155
-0.117155
-0.115088
-0.11295
-0.110737
-0.108447
-0.106079
-0.103633
-0.10111
-0.0985128
-0.0958431
-0.0931056
-0.0903067
-0.0874544
-0.0845561
-0.0816189
-0.0786474
-0.0756443
-0.072612
-0.0695545
-0.0664736
-0.063364
-0.0602111
-0.0569947
-0.0536928
-0.0502893
-0.046775
-0.0431464
-0.0394062
-0.0355594
-0.0316065
-0.0275578
-0.023438
-0.0192931
-0.0151955
-0.0112331
-0.00750737
-0.00416081
-0.00104338
0.00198052
0.00498101
0.00798565
0.0110018
0.0140289
0.0170637
0.0201028
0.0231431
0.0261822
0.0292181
0.0322494
0.0352749
0.0382939
0.0413059
0.0443104
0.0473074
0.0502966
0.0532781
0.056252
0.0592185
0.0621777
0.06513
0.0680756
0.071015
0.0739485
0.0768765
0.0797995
0.0827178
0.0856319
0.0885423
0.0914494
0.0943536
0.0972554
0.100155
0.103054
0.105951
0.108847
-0.218905
-0.215541
-0.212187
-0.208846
-0.205521
-0.202221
-0.198954
-0.195729
-0.192554
-0.189437
-0.186381
-0.18339
-0.180475
-0.177646
-0.174902
-0.172246
-0.16968
-0.167205
-0.164816
-0.162503
-0.160266
-0.158097
-0.155992
-0.153948
-0.151965
-0.150033
-0.148143
-0.146299
-0.144495
-0.142731
-0.141008
-0.139321
-0.137669
-0.136046
-0.134446
-0.132863
-0.131291
-0.129711
-0.128116
-0.126495
-0.124841
-0.123145
-0.1214
-0.119602
-0.117745
-0.115825
-0.113834
-0.111769
-0.109624
-0.107398
-0.10509
-0.102699
-0.100225
-0.0976713
-0.0950406
-0.0923372
-0.0895673
-0.0867389
-0.08386
-0.0809377
-0.0779766
-0.0749801
-0.0719538
-0.0689059
-0.0658439
-0.062765
-0.0596513
-0.0564753
-0.0532079
-0.0498308
-0.0463362
-0.0427248
-0.0390056
-0.0351924
-0.0312935
-0.0273238
-0.0233189
-0.0193313
-0.01542
-0.0116383
-0.00802215
-0.00461556
-0.00137436
0.00176607
0.00485408
0.0079179
0.0109716
0.0140214
0.017069
0.0201146
0.0231575
0.0261968
0.0292315
0.0322609
0.0352844
0.0383013
0.0413113
0.0443141
0.0473096
0.0502976
0.0532782
0.0562514
0.0592173
0.0621762
0.0651283
0.0680739
0.0710134
0.073947
0.0768751
0.0797982
0.0827167
0.085631
0.0885415
0.0914487
0.0943531
0.097255
0.100155
0.103053
0.105951
0.108847
-0.218828
-0.215308
-0.211799
-0.208303
-0.204825
-0.201372
-0.197958
-0.19459
-0.191279
-0.188035
-0.184864
-0.181767
-0.178751
-0.175826
-0.172997
-0.170262
-0.167621
-0.165075
-0.162625
-0.160265
-0.157992
-0.155795
-0.153667
-0.151606
-0.14961
-0.147675
-0.145788
-0.143946
-0.142149
-0.140393
-0.138683
-0.137019
-0.135394
-0.133806
-0.132247
-0.130715
-0.129205
-0.127695
-0.126176
-0.124638
-0.12307
-0.121462
-0.119807
-0.118098
-0.116329
-0.114495
-0.112589
-0.110605
-0.108538
-0.106384
-0.104142
-0.101812
-0.0993947
-0.0968922
-0.0943077
-0.0916458
-0.0889118
-0.0861125
-0.0832548
-0.0803449
-0.0773887
-0.0743915
-0.0713623
-0.0683152
-0.0652661
-0.0622178
-0.0591471
-0.0560143
-0.05278
-0.0494249
-0.0459454
-0.0423479
-0.0386482
-0.034867
-0.0310196
-0.0271277
-0.0232252
-0.0193535
-0.0155564
-0.0118699
-0.00830825
-0.00488633
-0.00158803
0.00161851
0.00476392
0.00787102
0.0109545
0.0140232
0.0170819
0.0201331
0.023178
0.0262169
0.02925
0.0322771
0.0352979
0.0383122
0.0413197
0.0443204
0.0473139
0.0503004
0.0532797
0.0562519
0.0592172
0.0621756
0.0651273
0.0680727
0.0710121
0.0739457
0.0768739
0.0797971
0.0827157
0.0856301
0.0885408
0.0914481
0.0943526
0.0972546
0.100155
0.103053
0.105951
0.108847
-0.218745
-0.215057
-0.211382
-0.207722
-0.204082
-0.200472
-0.196906
-0.193396
-0.189952
-0.186579
-0.183291
-0.18009
-0.176976
-0.173959
-0.171047
-0.16824
-0.165536
-0.162936
-0.160434
-0.158028
-0.155717
-0.153491
-0.151341
-0.149261
-0.147249
-0.145302
-0.143411
-0.14157
-0.139779
-0.138032
-0.136337
-0.134694
-0.133101
-0.131551
-0.130036
-0.128556
-0.12711
-0.12567
-0.124229
-0.122775
-0.121297
-0.119782
-0.118221
-0.116606
-0.114931
-0.113191
-0.111375
-0.109479
-0.107495
-0.10542
-0.103251
-0.100989
-0.0986346
-0.0961898
-0.0936572
-0.0910412
-0.0883472
-0.085581
-0.0827477
-0.0798509
-0.0768972
-0.0738945
-0.0708535
-0.067794
-0.0647469
-0.0617258
-0.0586969
-0.0556028
-0.0523942
-0.049052
-0.0455786
-0.0419861
-0.0382968
-0.0345394
-0.0307387
-0.0269169
-0.0230979
-0.0193108
-0.0155878
-0.0119579
-0.00843066
-0.00501052
-0.00168943
0.00155007
0.00472784
0.00786134
0.0109639
0.0140447
0.0171101
0.0201639
0.0232086
0.0262457
0.0292758
0.0322994
0.0353167
0.0383276
0.041332
0.0443298
0.047321
0.0503054
0.0532831
0.056254
0.0592182
0.0621758
0.0651271
0.0680721
0.0710112
0.0739447
0.0768729
0.0797962
0.0827148
0.0856294
0.0885401
0.0914476
0.0943522
0.0972543
0.100154
0.103053
0.10595
0.108847
-0.218653
-0.214783
-0.21093
-0.207099
-0.203294
-0.199524
-0.195805
-0.192151
-0.188572
-0.185078
-0.181675
-0.178373
-0.17517
-0.172073
-0.169087
-0.166215
-0.163451
-0.160797
-0.158247
-0.1558
-0.153451
-0.151194
-0.149022
-0.146924
-0.144897
-0.142938
-0.141041
-0.139198
-0.137412
-0.135675
-0.133995
-0.132374
-0.13081
-0.1293
-0.127832
-0.12641
-0.12503
-0.123662
-0.122299
-0.120932
-0.119546
-0.118126
-0.116662
-0.115146
-0.113571
-0.111928
-0.110209
-0.108408
-0.106514
-0.104522
-0.102433
-0.100245
-0.0979592
-0.0955763
-0.0930987
-0.090533
-0.0878851
-0.0851568
-0.0823497
-0.0794666
-0.0765124
-0.0734975
-0.0704374
-0.0673569
-0.0643041
-0.0613016
-0.0582964
-0.0552174
-0.0520144
-0.048671
-0.0451969
-0.0416064
-0.0379247
-0.0341878
-0.0304247
-0.0266556
-0.0229004
-0.0191789
-0.0155101
-0.0119179
-0.00841725
-0.00500845
-0.00168502
0.00156465
0.00475469
0.00789887
0.0110088
0.0140935
0.0171595
0.0202117
0.023253
0.0262856
0.0293109
0.0323295
0.0353419
0.0383483
0.0413486
0.0443429
0.047331
0.0503129
0.0532884
0.0562576
0.0592205
0.0621771
0.0651276
0.0680721
0.0710109
0.0739442
0.0768722
0.0797954
0.0827141
0.0856287
0.0885396
0.0914471
0.0943517
0.097254
0.100154
0.103053
0.10595
0.108847
-0.218554
-0.214488
-0.210446
-0.206433
-0.202454
-0.198522
-0.194651
-0.190856
-0.187149
-0.183537
-0.180027
-0.176628
-0.173341
-0.170171
-0.167117
-0.164185
-0.16137
-0.158671
-0.15608
-0.153597
-0.151214
-0.148927
-0.146733
-0.144617
-0.142576
-0.140606
-0.1387
-0.136853
-0.13507
-0.133345
-0.131679
-0.130079
-0.128546
-0.127074
-0.125653
-0.124292
-0.122982
-0.121688
-0.120406
-0.119128
-0.117836
-0.116514
-0.11515
-0.113737
-0.112263
-0.110723
-0.109104
-0.107401
-0.105604
-0.103706
-0.101704
-0.0995965
-0.0973845
-0.0950706
-0.0926576
-0.0901474
-0.0875433
-0.0848489
-0.0820659
-0.0791956
-0.0762435
-0.0732211
-0.0701475
-0.0670517
-0.063983
-0.0609566
-0.0579148
-0.0548016
-0.0515782
-0.0482237
-0.0447477
-0.0411578
-0.0374793
-0.0337584
-0.0300292
-0.0263078
-0.022607
-0.0189393
-0.0153147
-0.0117531
-0.0082786
-0.00488975
-0.00157914
0.00166313
0.00484867
0.00798916
0.0110949
0.0141745
0.0172344
0.0202796
0.0233136
0.0263387
0.0293566
0.0323683
0.0353743
0.0383749
0.0413702
0.04436
0.0473443
0.050323
0.053296
0.0562631
0.0592243
0.0621796
0.0651291
0.0680729
0.0710111
0.073944
0.0768719
0.0797949
0.0827136
0.0856281
0.088539
0.0914466
0.0943513
0.0972536
0.100154
0.103053
0.10595
0.108847
-0.218446
-0.21417
-0.209924
-0.205717
-0.201557
-0.197457
-0.193435
-0.189502
-0.185669
-0.181945
-0.17834
-0.174855
-0.171493
-0.168257
-0.165146
-0.162162
-0.159303
-0.156563
-0.153937
-0.151425
-0.149015
-0.146704
-0.14449
-0.142358
-0.140303
-0.138321
-0.136407
-0.134555
-0.132773
-0.131059
-0.129408
-0.12783
-0.12633
-0.124896
-0.123524
-0.122227
-0.120983
-0.119769
-0.118571
-0.117383
-0.116187
-0.114966
-0.113706
-0.112397
-0.111029
-0.109592
-0.108077
-0.106475
-0.104777
-0.102976
-0.101067
-0.0990483
-0.0969167
-0.0946736
-0.0923225
-0.0898678
-0.08731
-0.0846497
-0.0818898
-0.0790334
-0.0760875
-0.0730662
-0.0699895
-0.0668809
-0.0637651
-0.0606504
-0.0575101
-0.0543138
-0.0510387
-0.0476576
-0.0441691
-0.040577
-0.0369085
-0.0332086
-0.0295148
-0.0258393
-0.0221882
-0.0185697
-0.0149887
-0.0114594
-0.0080159
-0.00465741
-0.00137378
0.00184543
0.00501131
0.00813465
0.011225
0.0142904
0.017337
0.0203696
0.0233918
0.0264061
0.029414
0.0324165
0.0354144
0.0384078
0.0413968
0.0443813
0.0473611
0.050336
0.0533058
0.0562703
0.0592295
0.0621832
0.0651314
0.0680743
0.0710118
0.0739442
0.0768717
0.0797946
0.0827131
0.0856276
0.0885385
0.0914461
0.0943509
0.0972533
0.100154
0.103052
0.10595
0.108847
-0.218329
-0.213823
-0.209356
-0.204941
-0.200593
-0.196327
-0.192157
-0.188094
-0.184145
-0.180319
-0.176625
-0.17306
-0.169629
-0.166336
-0.163176
-0.160149
-0.157254
-0.154482
-0.151828
-0.149291
-0.146858
-0.14453
-0.142302
-0.140158
-0.138093
-0.1361
-0.134175
-0.132319
-0.130538
-0.12883
-0.127196
-0.125645
-0.12418
-0.122791
-0.121475
-0.120244
-0.119067
-0.117934
-0.116825
-0.115729
-0.114632
-0.113515
-0.112362
-0.111161
-0.109899
-0.108568
-0.107157
-0.105657
-0.104058
-0.102351
-0.100531
-0.0985988
-0.0965513
-0.0943859
-0.0921015
-0.0897014
-0.0871891
-0.0845652
-0.0818302
-0.0789877
-0.0760449
-0.073018
-0.0699294
-0.0667924
-0.0636022
-0.0603608
-0.0570794
-0.0537563
-0.050389
-0.0469492
-0.0434288
-0.0398299
-0.0361766
-0.0325027
-0.0288435
-0.0252116
-0.0216107
-0.0180428
-0.0145097
-0.0110238
-0.00762431
-0.00431036
-0.00106934
0.00211094
0.00524227
0.00833537
0.0113993
0.0144415
0.0174676
0.0204821
0.0234881
0.0264879
0.029483
0.0324743
0.0354622
0.038447
0.0414286
0.0444067
0.0473812
0.0503516
0.0533177
0.0562793
0.059236
0.0621878
0.0651346
0.0680763
0.071013
0.0739448
0.0768719
0.0797944
0.0827128
0.0856272
0.088538
0.0914456
0.0943504
0.0972529
0.100153
0.103052
0.10595
0.108847
-0.218201
-0.213443
-0.20874
-0.204109
-0.199566
-0.19513
-0.190811
-0.186619
-0.18256
-0.178643
-0.17487
-0.171238
-0.16775
-0.164406
-0.161206
-0.158143
-0.155217
-0.152421
-0.149748
-0.147195
-0.144749
-0.142409
-0.140172
-0.138023
-0.135953
-0.133955
-0.132024
-0.130166
-0.128386
-0.126685
-0.12507
-0.123549
-0.122124
-0.120788
-0.119539
-0.118378
-0.117279
-0.116229
-0.115213
-0.114215
-0.113219
-0.112208
-0.111164
-0.110071
-0.108917
-0.107692
-0.106386
-0.104988
-0.103487
-0.101873
-0.100143
-0.098292
-0.0963201
-0.0942255
-0.0920048
-0.0896548
-0.0871775
-0.0845779
-0.0818595
-0.0790284
-0.076092
-0.0730584
-0.0699415
-0.0667474
-0.0634557
-0.0600634
-0.0566108
-0.0531263
-0.0496242
-0.0460904
-0.0425198
-0.038904
-0.0352611
-0.0316138
-0.0279945
-0.0244095
-0.0208589
-0.0173432
-0.0138647
-0.010436
-0.00709706
-0.00384561
-0.000665642
0.00245816
0.00553937
0.00858908
0.0116159
0.0146262
0.0176251
0.020616
0.0236015
0.0265835
0.0295631
0.032541
0.0355173
0.0384921
0.0414651
0.044436
0.0474044
0.0503698
0.0533317
0.0562899
0.0592439
0.0621935
0.0651385
0.0680789
0.0710146
0.0739456
0.0768722
0.0797943
0.0827124
0.0856267
0.0885375
0.0914451
0.0943499
0.0972524
0.100153
0.103052
0.10595
0.108847
-0.218066
-0.213041
-0.208086
-0.203227
-0.198484
-0.193873
-0.189404
-0.185089
-0.180929
-0.176928
-0.173084
-0.169393
-0.165856
-0.162472
-0.159238
-0.156149
-0.153201
-0.150388
-0.147704
-0.145142
-0.142691
-0.140347
-0.138107
-0.135959
-0.133891
-0.131896
-0.129969
-0.128115
-0.126343
-0.124658
-0.12307
-0.121586
-0.120209
-0.118935
-0.117761
-0.116677
-0.115667
-0.11471
-0.113791
-0.112896
-0.112006
-0.111103
-0.110169
-0.109184
-0.108136
-0.107013
-0.105807
-0.104506
-0.103097
-0.101572
-0.0999243
-0.0981501
-0.0962459
-0.0942095
-0.0920387
-0.0897327
-0.0872924
-0.084719
-0.0820137
-0.079181
-0.0762299
-0.0731696
-0.0700031
-0.0667224
-0.063299
-0.0597313
-0.0560863
-0.0524246
-0.0487672
-0.0451129
-0.0414671
-0.0378132
-0.0341668
-0.0305365
-0.0269482
-0.0234075
-0.0199096
-0.0164523
-0.0130391
-0.00968351
-0.00642518
-0.003259
-0.000163061
0.00288381
0.00589807
0.00889109
0.0118704
0.014841
0.0178064
0.0207689
0.0237302
0.0266914
0.0296531
0.0326156
0.0355788
0.0385424
0.0415059
0.0444688
0.0474304
0.0503902
0.0533475
0.0563018
0.0592528
0.0622
0.0651431
0.0680819
0.0710165
0.0739466
0.0768725
0.0797943
0.082712
0.0856261
0.0885368
0.0914444
0.0943492
0.0972518
0.100152
0.103051
0.10595
0.108847
-0.217919
-0.212608
-0.207386
-0.202291
-0.197345
-0.192562
-0.187953
-0.183523
-0.179268
-0.175186
-0.171277
-0.167532
-0.163953
-0.160537
-0.157278
-0.154173
-0.151215
-0.148395
-0.145709
-0.143147
-0.140698
-0.138357
-0.13612
-0.133977
-0.13192
-0.129938
-0.128024
-0.126188
-0.124435
-0.122779
-0.121231
-0.119797
-0.118483
-0.117285
-0.116196
-0.115202
-0.114288
-0.113435
-0.112622
-0.111835
-0.111054
-0.110259
-0.109431
-0.108551
-0.107606
-0.106583
-0.10547
-0.104256
-0.10293
-0.101483
-0.0999072
-0.0981967
-0.0963474
-0.0943569
-0.0922246
-0.0899507
-0.0875345
-0.084975
-0.0822738
-0.0794336
-0.0764567
-0.0733445
-0.0700928
-0.0666884
-0.0631019
-0.0593425
-0.0554944
-0.0516385
-0.0478114
-0.0440202
-0.0402775
-0.0365613
-0.0328882
-0.0292622
-0.0256987
-0.0221981
-0.0187538
-0.0153605
-0.0120221
-0.00875359
-0.0055964
-0.00254572
0.000435851
0.00338112
0.00631024
0.00923359
0.0121561
0.0150802
0.0180069
0.0209371
0.0238711
0.0268092
0.0297511
0.0326968
0.0356456
0.0385969
0.04155
0.0445042
0.0474585
0.0504122
0.0533646
0.0563148
0.0592625
0.062207
0.065148
0.0680852
0.0710185
0.0739477
0.0768728
0.0797941
0.0827115
0.0856254
0.0885359
0.0914434
0.0943483
0.097251
0.100152
0.103051
0.105949
0.108847
-0.217761
-0.212143
-0.20664
-0.201306
-0.196162
-0.191219
-0.186478
-0.181937
-0.177588
-0.17343
-0.16946
-0.165667
-0.162056
-0.158617
-0.155343
-0.152232
-0.149274
-0.14646
-0.143783
-0.141231
-0.138793
-0.136463
-0.134235
-0.132103
-0.130061
-0.128099
-0.126213
-0.124409
-0.122694
-0.121085
-0.119596
-0.118233
-0.117
-0.115894
-0.114902
-0.11401
-0.113202
-0.112459
-0.111759
-0.111082
-0.11041
-0.109722
-0.108996
-0.108217
-0.107369
-0.106437
-0.105409
-0.104272
-0.103013
-0.101627
-0.100104
-0.098441
-0.0966313
-0.094672
-0.0925608
-0.0902996
-0.0878916
-0.0853367
-0.0826319
-0.0797722
-0.0767534
-0.0735689
-0.070203
-0.0666402
-0.0628556
-0.0588825
-0.054828
-0.0507759
-0.0467678
-0.0428242
-0.0389696
-0.0351776
-0.0314588
-0.0278139
-0.0242578
-0.0207867
-0.01739
-0.0140597
-0.0107991
-0.00762609
-0.00458881
-0.00170065
0.00112292
0.00393673
0.00676242
0.00960499
0.0124637
0.0153363
0.0182209
0.0211161
0.0240208
0.0269339
0.0298547
0.0327824
0.0357159
0.0386543
0.0415965
0.0445415
0.0474881
0.0504354
0.0533825
0.0563284
0.0592726
0.0622143
0.065153
0.0680885
0.0710204
0.0739486
0.076873
0.0797936
0.0827107
0.0856243
0.0885347
0.0914422
0.0943472
0.0972499
0.100151
0.10305
0.105949
0.108847
-0.217611
-0.211699
-0.205925
-0.200347
-0.194998
-0.189885
-0.185005
-0.180349
-0.175906
-0.171675
-0.167649
-0.163817
-0.160181
-0.156731
-0.153455
-0.150351
-0.147407
-0.144613
-0.141956
-0.139425
-0.137008
-0.134695
-0.132483
-0.130367
-0.128344
-0.126411
-0.124565
-0.122812
-0.121157
-0.119622
-0.118217
-0.116949
-0.115819
-0.114821
-0.113941
-0.113164
-0.112473
-0.111846
-0.111261
-0.110693
-0.110121
-0.109528
-0.108895
-0.108207
-0.107445
-0.106593
-0.105636
-0.104561
-0.103357
-0.102018
-0.100535
-0.0988998
-0.0971079
-0.095157
-0.093046
-0.090777
-0.0883547
-0.0857834
-0.0830604
-0.0801733
-0.077102
-0.0738239
-0.0703152
-0.066556
-0.0625374
-0.0583285
-0.0540504
-0.0497906
-0.0456028
-0.0415043
-0.0375161
-0.0336236
-0.0298468
-0.0261752
-0.0226164
-0.0191633
-0.0158064
-0.0125347
-0.00934108
-0.00626418
-0.00335339
-0.000722346
0.00187603
0.00452545
0.00723358
0.00998934
0.0127811
0.0156005
0.0184416
0.0213006
0.0241748
0.0270622
0.0299612
0.0328703
0.035788
0.0387131
0.041644
0.0445795
0.0475182
0.050459
0.0534006
0.0563422
0.0592827
0.0622215
0.065158
0.0680916
0.0710221
0.0739492
0.0768727
0.0797928
0.0827095
0.0856228
0.0885331
0.0914406
0.0943456
0.0972485
0.10015
0.103049
0.105948
0.108846
-0.217473
-0.21129
-0.205254
-0.199431
-0.193866
-0.188575
-0.183548
-0.178775
-0.174241
-0.169938
-0.165863
-0.162003
-0.158355
-0.154909
-0.151648
-0.148567
-0.145653
-0.142893
-0.140271
-0.137771
-0.135381
-0.133091
-0.130896
-0.128798
-0.126799
-0.124902
-0.12311
-0.121429
-0.119867
-0.118436
-0.117148
-0.116005
-0.115002
-0.114131
-0.113379
-0.11273
-0.112163
-0.111655
-0.111176
-0.110704
-0.110217
-0.1097
-0.10914
-0.108522
-0.107827
-0.10704
-0.106144
-0.105119
-0.103956
-0.102647
-0.101182
-0.0995539
-0.09776
-0.0957955
-0.0936601
-0.0913601
-0.0889042
-0.0862987
-0.0835418
-0.0806141
-0.077473
-0.0740803
-0.0704038
-0.0664184
-0.0621398
-0.0576732
-0.0531579
-0.0486858
-0.0443061
-0.0400376
-0.0358978
-0.0318766
-0.0280277
-0.0243394
-0.0207906
-0.0173486
-0.0140096
-0.0107971
-0.00762025
-0.00460295
-0.00175604
0.000362764
0.00263854
0.00510266
0.00769407
0.0103672
0.0130953
0.0158632
0.0186616
0.0214848
0.0243287
0.0271904
0.0300675
0.032958
0.0358599
0.0387716
0.0416913
0.0446173
0.0475481
0.0504822
0.0534184
0.0563555
0.0592924
0.0622283
0.0651624
0.0680942
0.0710232
0.0739492
0.0768719
0.0797914
0.0827076
0.0856208
0.0885309
0.0914384
0.0943436
0.0972467
0.100148
0.103048
0.105948
0.108846
-0.217343
-0.210899
-0.204607