/*--------------------------------*- C++ -*----------------------------------*\
  =========                 |
  \\      /  F ield         | OpenFOAM: The Open Source CFD Toolbox
   \\    /   O peration     | Website:  https://openfoam.org
    \\  /    A nd           | Version:  6
     \\/     M anipulation  |
\*---------------------------------------------------------------------------*/
FoamFile
{
    version     2.0;
    format      ascii;
    class       surfaceScalarField;
    location    "600";
    object      phi;
}
// * * * * * * * * * * * * * * * * * * * * * * * * * * * * * * * * * * * * * //

dimensions      [0 3 -1 0 0 0 0];

internalField   nonuniform List<scalar> 
9440
(
1.00743e-10
-1.00743e-10
3.63944e-10
-2.63202e-10
6.05105e-10
-2.41162e-10
7.7936e-10
-1.74255e-10
8.56184e-10
-7.68242e-11
9.36547e-10
-8.03634e-11
1.09604e-09
-1.59496e-10
1.10992e-09
-1.38777e-11
1.20698e-09
-9.70641e-11
1.34226e-09
-1.35272e-10
1.44705e-09
-1.04793e-10
1.48966e-09
-4.26115e-11
1.51213e-09
-2.24695e-11
1.68808e-09
-1.75951e-10
1.63324e-09
5.4841e-11
1.89184e-09
-2.58601e-10
1.90073e-09
-8.89334e-12
1.89716e-09
3.56709e-12
1.9907e-09
-9.35335e-11
2.1134e-09
-1.22706e-10
2.18977e-09
-7.63653e-11
2.27229e-09
-8.25205e-11
2.38224e-09
-1.09948e-10
2.47842e-09
-9.61875e-11
2.44218e-09
3.62483e-11
2.52493e-09
-8.27519e-11
2.60509e-09
-8.01657e-11
2.68409e-09
-7.89952e-11
2.69924e-09
-1.51506e-11
2.72146e-09
-2.22198e-11
2.73501e-09
-1.35573e-11
2.74546e-09
-1.04508e-11
2.75252e-09
-7.05858e-12
2.74411e-09
8.40852e-12
2.74635e-09
-2.23225e-12
2.69853e-09
4.78193e-11
2.63566e-09
6.28673e-11
2.64029e-09
-4.62686e-12
2.56252e-09
7.77682e-11
2.56441e-09
-1.89386e-12
2.48491e-09
7.94997e-11
2.37189e-09
1.13026e-10
2.27814e-09
9.37472e-11
2.18257e-09
9.55662e-11
1.99197e-09
1.90602e-10
1.8183e-09
1.73674e-10
1.6806e-09
1.37702e-10
1.57008e-09
1.10521e-10
1.45656e-09
1.13518e-10
1.37447e-09
8.2087e-11
1.34557e-09
2.88985e-11
1.33571e-09
9.86298e-12
1.33943e-09
-3.72161e-12
1.34968e-09
-1.02486e-11
1.36262e-09
-1.29398e-11
1.36532e-09
-2.69801e-12
1.3664e-09
-1.08267e-12
1.36367e-09
2.73606e-12
1.35436e-09
9.30714e-12
1.36139e-09
-7.02578e-12
1.37396e-09
-1.25643e-11
1.39367e-09
-1.97163e-11
1.42202e-09
-2.8347e-11
1.4681e-09
-4.60757e-11
1.51608e-09
-4.79765e-11
1.59522e-09
-7.91388e-11
1.63953e-09
-4.4308e-11
1.7144e-09
-7.48652e-11
1.74581e-09
-3.14071e-11
1.75972e-09
-1.39026e-11
1.76538e-09
-5.66139e-12
1.73167e-09
3.37181e-11
1.64331e-09
8.83638e-11
1.57961e-09
6.36984e-11
1.41502e-09
1.64598e-10
1.2494e-09
1.65619e-10
1.03724e-09
2.12167e-10
5.03836e-10
5.33408e-10
2.05664e-10
2.98175e-10
-3.54246e-11
2.41094e-10
-8.34759e-15
-3.5408e-11
2.023e-19
-3.01996e-19
1.95342e-19
6.95884e-21
1.62402e-19
3.819e-20
1.46118e-19
2.0101e-20
1.52943e-19
-3.28655e-21
1.80412e-19
-2.37993e-20
2.24446e-19
-4.02933e-20
2.81012e-19
-5.28401e-20
3.4641e-19
-6.16815e-20
4.17265e-19
-6.70973e-20
4.90514e-19
-6.94046e-20
5.63425e-19
-6.89576e-20
6.33614e-19
-6.61378e-20
6.99069e-19
-6.1341e-20
7.58146e-19
-5.49617e-20
8.09562e-19
-4.73781e-20
8.5237e-19
-3.89397e-20
8.85942e-19
-2.99599e-20
9.09933e-19
-2.07114e-20
9.24255e-19
-1.1425e-20
9.29039e-19
-2.29207e-21
9.24596e-19
6.53396e-21
9.11381e-19
1.49347e-20
8.89952e-19
2.28227e-20
8.60935e-19
3.01389e-20
8.24991e-19
3.68477e-20
7.82796e-19
4.29336e-20
7.35015e-19
4.83979e-20
6.82293e-19
5.32539e-20
6.25244e-19
5.75247e-20
5.64445e-19
6.12395e-20
5.00434e-19
6.44306e-20
4.33711e-19
6.7132e-20
3.64737e-19
6.9377e-20
2.93941e-19
7.11972e-20
2.21721e-19
7.26216e-20
1.48445e-19
7.36778e-20
7.44484e-20
7.43987e-20
7.4851e-20
2.64325e-10
-3.65068e-10
3.9015e-10
-3.89028e-10
5.84282e-10
-4.35294e-10
6.65693e-10
-2.55666e-10
7.66763e-10
-1.77895e-10
8.29094e-10
-1.42695e-10
9.01397e-10
-2.318e-10
9.73486e-10
-8.59671e-11
1.01199e-09
-1.35569e-10
1.11684e-09
-2.40125e-10
1.20603e-09
-1.93979e-10
1.24009e-09
-7.66731e-11
1.33132e-09
-1.137e-10
1.4184e-09
-2.63032e-10
1.49989e-09
-2.66508e-11
1.76358e-09
-5.22296e-10
1.71192e-09
4.27714e-11
1.77064e-09
-5.51559e-11
1.83113e-09
-1.54024e-10
1.97633e-09
-2.6791e-10
2.1259e-09
-2.25936e-10
2.1935e-09
-1.50114e-10
2.27334e-09
-1.89793e-10
2.32554e-09
-1.48383e-10
2.35692e-09
4.86581e-12
2.35763e-09
-8.34619e-11
2.44324e-09
-1.65784e-10
2.53812e-09
-1.73868e-10
2.60883e-09
-8.58609e-11
2.65887e-09
-7.22619e-11
2.66637e-09
-2.10621e-11
2.6585e-09
-2.57641e-12
2.66857e-09
-1.71264e-11
2.6314e-09
4.55708e-11
2.60254e-09
2.66287e-11
2.59225e-09
5.81102e-11
2.52105e-09
1.34069e-10
2.49315e-09
2.32735e-11
2.46929e-09
1.01626e-10
2.36298e-09
1.04415e-10
2.36595e-09
7.65268e-11
2.31644e-09
1.62536e-10
2.21415e-09
1.96042e-10
2.09255e-09
2.1716e-10
1.93246e-09
3.50696e-10
1.75705e-09
3.49081e-10
1.6243e-09
2.70455e-10
1.52073e-09
2.14097e-10
1.42854e-09
2.05704e-10
1.35197e-09
1.58654e-10
1.29994e-09
8.09361e-11
1.27004e-09
3.97565e-11
1.26323e-09
3.08963e-12
1.26552e-09
-1.25308e-11
1.27094e-09
-1.83599e-11
1.27241e-09
-4.1698e-12
1.27147e-09
-1.38901e-13
1.26852e-09
5.69283e-12
1.26225e-09
1.55757e-11
1.25897e-09
-3.74552e-12
1.26523e-09
-1.88154e-11
1.2778e-09
-3.22879e-11
1.29417e-09
-4.47096e-11
1.31949e-09
-7.13932e-11
1.34286e-09
-7.13434e-11
1.37495e-09
-1.11223e-10
1.41307e-09
-8.24232e-11
1.43182e-09
-9.36014e-11
1.4708e-09
-7.0388e-11
1.45902e-09
-2.11312e-12
1.50503e-09
-5.16688e-11
1.47446e-09
6.42918e-11
1.45849e-09
1.04346e-10
1.3403e-09
1.81898e-10
1.31355e-09
1.91355e-10
1.12401e-09
3.55161e-10
9.17449e-10
4.18735e-10
9.29952e-10
5.20913e-10
6.72586e-10
5.55548e-10
4.70842e-10
4.4284e-10
-1.84087e-15
4.35426e-10
5.11901e-19
9.1323e-19
2.27195e-19
2.91915e-19
1.44313e-19
1.26933e-19
1.2273e-19
4.85167e-20
1.3243e-19
-6.21701e-21
1.63918e-19
-4.86665e-20
2.11899e-19
-8.17172e-20
2.7217e-19
-1.06551e-19
3.40994e-19
-1.23887e-19
4.14958e-19
-1.34343e-19
4.90961e-19
-1.3857e-19
5.66244e-19
-1.37293e-19
6.38411e-19
-1.31298e-19
7.05448e-19
-1.21401e-19
7.6573e-19
-1.08408e-19
8.18e-19
-9.30844e-20
8.6135e-19
-7.61285e-20
8.95191e-19
-5.81571e-20
9.1922e-19
-3.97003e-20
9.33388e-19
-2.12036e-20
9.37865e-19
-3.03281e-21
9.32997e-19
1.45183e-20
9.19269e-19
3.12217e-20
8.97268e-19
4.69078e-20
8.67644e-19
6.14599e-20
8.31077e-19
7.48068e-20
7.8826e-19
8.69163e-20
7.39871e-19
9.77892e-20
6.86564e-19
1.07451e-19
6.28959e-19
1.15946e-19
5.67636e-19
1.23332e-19
5.03136e-19
1.29674e-19
4.35956e-19
1.35041e-19
3.66557e-19
1.39498e-19
2.95365e-19
1.43108e-19
2.22777e-19
1.45929e-19
1.49166e-19
1.48008e-19
7.49007e-20
1.49382e-19
1.50066e-19
2.19916e-10
-5.84984e-10
4.22104e-10
-5.91216e-10
4.62759e-10
-4.7595e-10
4.96978e-10
-2.89886e-10
5.76399e-10
-2.57317e-10
6.54378e-10
-2.20675e-10
6.79904e-10
-2.57325e-10
8.14144e-10
-2.20208e-10
8.44144e-10
-1.65569e-10
9.84959e-10
-3.8094e-10
1.06408e-09
-2.73096e-10
1.11145e-09
-1.24052e-10
1.26383e-09
-2.66073e-10
1.22963e-09
-2.28832e-10
1.57796e-09
-3.74983e-10
1.4832e-09
-4.27542e-10
1.64487e-09
-1.18896e-10
1.74836e-09
-1.58645e-10
1.76797e-09
-1.73633e-10
1.85512e-09
-3.55065e-10
1.97101e-09
-3.41828e-10
2.01806e-09
-1.97159e-10
2.0569e-09
-2.28639e-10
2.10729e-09
-1.98767e-10
2.29115e-09
-1.78995e-10
2.38556e-09
-1.77871e-10
2.46048e-09
-2.40708e-10
2.46278e-09
-1.76163e-10
2.50144e-09
-1.24521e-10
2.54498e-09
-1.15807e-10
2.55717e-09
-3.32549e-11
2.54988e-09
4.71858e-12
2.51598e-09
1.67749e-11
2.51111e-09
5.0441e-11
2.51449e-09
2.32486e-11
2.44303e-09
1.29568e-10
2.46938e-09
1.07721e-10
2.36941e-09
1.23239e-10
2.31127e-09
1.59772e-10
2.24944e-09
1.66238e-10
2.17931e-09
1.46657e-10
2.04481e-09
2.9704e-10
1.93315e-09
3.07704e-10
1.80973e-09
3.40575e-10
1.72708e-09
4.33348e-10
1.62773e-09
4.48434e-10
1.52946e-09
3.6872e-10
1.42276e-09
3.20796e-10
1.34846e-09
2.80007e-10
1.28471e-09
2.22411e-10
1.23655e-09
1.29093e-10
1.17914e-09
9.71681e-11
1.16516e-09
1.70683e-11
1.1112e-09
4.14311e-11
1.10459e-09
-1.17479e-11
1.08755e-09
1.28702e-11
1.08307e-09
4.33803e-12
1.07921e-09
9.56347e-12
1.08403e-09
1.07528e-11
1.09046e-09
-1.01764e-11
1.09902e-09
-2.73706e-11
1.11875e-09
-5.2008e-11
1.1376e-09
-6.35549e-11
1.15621e-09
-9.00045e-11
1.17536e-09
-9.04863e-11
1.16944e-09
-1.05299e-10
1.1971e-09
-1.10076e-10
1.18922e-09
-8.57234e-11
1.20634e-09
-8.75003e-11
1.22252e-09
-1.82859e-11
1.23528e-09
-6.44211e-11
1.23946e-09
6.01121e-11
1.21242e-09
1.31393e-10
1.14229e-09
2.52027e-10
1.07012e-09
2.63537e-10
8.95195e-10
5.30089e-10
8.47928e-10
4.66007e-10
7.65358e-10
6.03489e-10
4.93096e-10
8.27819e-10
1.25544e-10
8.10406e-10
-1.20969e-15
5.60979e-10
-1.08701e-19
-4.88213e-19
6.28116e-20
1.23177e-19
6.58972e-20
1.28805e-19
6.79968e-20
5.17917e-20
8.9981e-20
-2.28465e-20
1.30867e-19
-8.43218e-20
1.87065e-19
-1.32789e-19
2.54834e-19
-1.69259e-19
3.30539e-19
-1.94558e-19
4.10731e-19
-2.09494e-19
4.92238e-19
-2.14996e-19
5.72239e-19
-2.12147e-19
6.48308e-19
-2.02149e-19
7.18441e-19
-1.86262e-19
7.81054e-19
-1.65738e-19
8.34956e-19
-1.41769e-19
8.79321e-19
-1.15437e-19
9.13647e-19
-8.76959e-20
9.37717e-19
-5.93529e-20
9.51559e-19
-3.10792e-20
9.55416e-19
-3.41807e-21
9.497e-19
2.3202e-20
9.34955e-19
4.84536e-20
9.11821e-19
7.20986e-20
8.80991e-19
9.3977e-20
8.43187e-19
1.13997e-19
7.99133e-19
1.32122e-19
7.49533e-19
1.48365e-19
6.95059e-19
1.62774e-19
6.36345e-19
1.75422e-19
5.73979e-19
1.86402e-19
5.08502e-19
1.95818e-19
4.40413e-19
2.03775e-19
3.70168e-19
2.10375e-19
2.98186e-19
2.15716e-19
2.24856e-19
2.19882e-19
1.5054e-19
2.22945e-19
7.55846e-20
2.24957e-19
2.25952e-19
2.20982e-10
-8.05967e-10
2.8424e-10
-6.54475e-10
3.45831e-10
-5.37541e-10
4.14544e-10
-3.586e-10
4.83773e-10
-3.26546e-10
5.44467e-10
-2.8137e-10
5.98857e-10
-3.11716e-10
7.18623e-10
-3.39975e-10
7.81327e-10
-2.28274e-10
9.55715e-10
-5.55329e-10
9.78925e-10
-2.96307e-10
1.08621e-09
-2.31335e-10
1.17541e-09
-3.5528e-10
1.22784e-09
-2.81263e-10
1.46689e-09
-6.14032e-10
1.42313e-09
-3.83775e-10
1.58195e-09
-2.77719e-10
1.69677e-09
-2.73463e-10
1.74099e-09
-2.17858e-10
1.80574e-09
-4.19817e-10
1.84855e-09
-3.84639e-10
1.91271e-09
-2.61318e-10
1.95028e-09
-2.66204e-10
2.0849e-09
-3.33389e-10
2.20227e-09
-2.96369e-10
2.25684e-09
-2.32436e-10
2.28701e-09
-2.70878e-10
2.31273e-09
-2.01892e-10
2.36358e-09
-1.75372e-10
2.37692e-09
-1.29142e-10
2.39947e-09
-5.58062e-11
2.39693e-09
7.25983e-12
2.37089e-09
4.28181e-11
2.35125e-09
7.00752e-11
2.32698e-09
4.75195e-11
2.23314e-09
2.23409e-10
2.24532e-09
9.5536e-11
2.23409e-09
1.34474e-10
2.14925e-09
2.44613e-10
2.07117e-09
2.44312e-10
1.97452e-09
2.43314e-10
1.92885e-09
3.4271e-10
1.76905e-09
4.67498e-10
1.64058e-09
4.69043e-10
1.58428e-09
4.89655e-10
1.52762e-09
5.05095e-10
1.44778e-09
4.48555e-10
1.36397e-09
4.04611e-10
1.29846e-09
3.45515e-10
1.24378e-09
2.77093e-10
1.1839e-09
1.88976e-10
1.12214e-09
1.58927e-10
1.07589e-09
6.33219e-11
1.02081e-09
9.65027e-11
9.97324e-10
1.17441e-11
9.67611e-10
4.25848e-11
9.53285e-10
1.86664e-11
9.46022e-10
1.68278e-11
9.42214e-10
1.45631e-11
9.40546e-10
-8.50539e-12
9.37819e-10
-2.46407e-11
9.28455e-10
-4.26416e-11
9.37016e-10
-7.21125e-11
9.32931e-10
-8.59151e-11
9.35678e-10
-9.32291e-11
9.39163e-10
-1.08781e-10
9.44193e-10
-1.15101e-10
9.63157e-10
-1.04683e-10
9.7365e-10
-9.79893e-11
9.74435e-10
-1.90664e-11
1.00571e-09
-9.569e-11
9.90817e-10
7.5008e-11
9.92186e-10
1.30028e-10
9.54017e-10
2.902e-10
8.10099e-10
4.0746e-10
8.14083e-10
5.2611e-10
6.43534e-10
6.3656e-10
4.49567e-10
7.9746e-10
3.93164e-10
8.84225e-10
3.24567e-10
8.79008e-10
-9.83319e-16
8.85551e-10
5.0331e-19
1.67876e-18
6.89623e-20
5.60323e-19
-1.11158e-20
2.1318e-19
-6.64149e-21
5.18659e-20
2.85058e-20
-5.34347e-20
8.24001e-20
-1.33763e-19
1.50596e-19
-1.96679e-19
2.29535e-19
-2.44039e-19
3.15602e-19
-2.76592e-19
4.05229e-19
-2.95172e-19
4.95087e-19
-3.00937e-19
5.82237e-19
-2.95348e-19
6.64195e-19
-2.80067e-19
7.38965e-19
-2.56857e-19
8.05023e-19
-2.27474e-19
8.61287e-19
-1.93587e-19
9.07063e-19
-1.56713e-19
9.4199e-19
-1.1817e-19
9.6599e-19
-7.90691e-20
9.7922e-19
-4.03126e-20
9.82036e-19
-2.61648e-21
9.74951e-19
3.34689e-20
9.586e-19
6.75353e-20
9.33699e-19
9.9297e-20
9.0101e-19
1.28572e-19
8.61313e-19
1.55267e-19
8.15376e-19
1.7936e-19
7.63941e-19
2.00889e-19
7.07707e-19
2.19938e-19
6.47326e-19
2.36619e-19
5.83394e-19
2.5107e-19
5.16458e-19
2.63437e-19
4.47013e-19
2.73868e-19
3.75508e-19
2.82508e-19
3.02352e-19
2.89488e-19
2.27918e-19
2.94925e-19
1.52553e-19
2.98915e-19
7.65792e-20
3.01533e-19
3.02826e-19
1.20057e-10
-9.26024e-10
2.51255e-10
-7.85674e-10
2.63394e-10
-5.49681e-10
3.0059e-10
-3.95796e-10
3.7855e-10
-4.04506e-10
4.73465e-10
-3.76286e-10
5.67986e-10
-4.06237e-10
6.51382e-10
-4.23372e-10
7.64245e-10
-3.41137e-10
8.74578e-10
-6.65662e-10
9.24532e-10
-3.46262e-10
1.10503e-09
-4.11834e-10
1.06627e-09
-3.16522e-10
1.26983e-09
-4.84822e-10
1.18651e-09
-5.30717e-10
1.44486e-09
-6.42124e-10
1.55793e-09
-3.90788e-10
1.59074e-09
-3.06276e-10
1.69527e-09
-3.2238e-10
1.68941e-09
-4.13959e-10
1.7533e-09
-4.48532e-10
1.85777e-09
-3.65784e-10
1.91446e-09
-3.229e-10
1.93506e-09
-3.53986e-10
2.00568e-09
-3.66989e-10
2.13243e-09
-3.59183e-10
2.16286e-09
-3.01308e-10
2.16843e-09
-2.0747e-10
2.16591e-09
-1.72847e-10
2.1518e-09
-1.15037e-10
2.18402e-09
-8.80254e-11
2.18532e-09
5.9609e-12
2.19056e-09
3.75827e-11
2.17304e-09
8.75943e-11
2.13459e-09
8.59702e-11
2.17274e-09
1.85257e-10
2.04074e-09
2.27534e-10
2.01327e-09
1.61945e-10
1.88875e-09
3.69128e-10
1.68611e-09
4.46951e-10
1.54107e-09
3.88357e-10
1.46407e-09
4.19713e-10
1.40474e-09
5.26828e-10
1.3501e-09
5.23683e-10
1.32845e-09
5.113e-10
1.31798e-09
5.15567e-10
1.28427e-09
4.82265e-10
1.24427e-09
4.44613e-10
1.20031e-09
3.89477e-10
1.16248e-09
3.14916e-10
1.10436e-09
2.47101e-10
1.05752e-09
2.05762e-10
9.76405e-10
1.44443e-10
9.52443e-10
1.20465e-10
9.06152e-10
5.80371e-11
8.97045e-10
5.16931e-11
8.72875e-10
4.28381e-11
8.43555e-10
4.61501e-11
8.15473e-10
4.26466e-11
7.75454e-10
3.15165e-11
7.51898e-10
-1.08191e-12
7.10206e-10
-9.46702e-13
6.98477e-10
-6.038e-11
6.88881e-10
-7.6316e-11
6.6991e-10
-7.42542e-11
6.57578e-10
-9.64446e-11
6.54607e-10
-1.12126e-10
6.67791e-10
-1.17863e-10
6.85886e-10
-1.1608e-10
7.29067e-10
-6.22434e-11
7.20193e-10
-8.68123e-11
7.98501e-10
-3.29569e-12
7.41278e-10
1.87255e-10
6.73892e-10
3.57589e-10
6.56792e-10
4.24564e-10
5.98707e-10
5.84198e-10
3.62308e-10
8.72963e-10
1.6729e-10
9.92482e-10
-2.2291e-11
1.07381e-09
-8.84727e-11
9.45193e-10
-6.86495e-16
7.97082e-10
-6.14414e-19
1.17388e-19
-2.77737e-19
2.25928e-19
-1.7243e-19
1.11244e-19
-1.11942e-19
-5.03007e-21
-5.18224e-20
-1.09899e-19
1.94836e-20
-2.0145e-19
1.03236e-19
-2.76935e-19
1.96981e-19
-3.34462e-19
2.97023e-19
-3.73501e-19
3.99464e-19
-3.94653e-19
5.00677e-19
-3.9931e-19
5.97517e-19
-3.89383e-19
6.87406e-19
-3.67088e-19
7.68348e-19
-3.34769e-19
8.3891e-19
-2.94764e-19
8.98162e-19
-2.49287e-19
9.45605e-19
-2.00339e-19
9.81092e-19
-1.49651e-19
1.00475e-18
-9.86567e-20
1.01692e-18
-4.85014e-20
1.01812e-18
-6.72681e-23
1.00902e-18
4.59905e-20
9.90362e-19
8.92075e-20
9.62974e-19
1.29278e-19
9.27705e-19
1.66025e-19
8.85406e-19
1.99381e-19
8.36905e-19
2.29362e-19
7.82989e-19
2.56052e-19
7.24389e-19
2.79585e-19
6.61777e-19
3.0013e-19
5.95761e-19
3.17877e-19
5.2689e-19
3.33025e-19
4.55653e-19
3.45771e-19
3.82488e-19
3.56306e-19
3.07789e-19
3.64801e-19
2.31909e-19
3.71407e-19
1.5517e-19
3.76249e-19
7.78727e-20
3.79421e-19
3.80987e-19
1.57822e-10
-1.08385e-09
1.81287e-10
-8.09138e-10
2.09917e-10
-5.78311e-10
2.90049e-10
-4.75929e-10
3.39272e-10
-4.5373e-10
4.1244e-10
-4.49454e-10
5.06422e-10
-5.00219e-10
5.69971e-10
-4.86921e-10
7.52847e-10
-5.24014e-10
7.6622e-10
-6.79036e-10
9.13533e-10
-4.93575e-10
1.03996e-09
-5.38257e-10
1.08978e-09
-3.66349e-10
1.11565e-09
-5.10688e-10
1.22849e-09
-6.43562e-10
1.25578e-09
-6.69414e-10
1.45211e-09
-5.87113e-10
1.46919e-09
-3.23354e-10
1.50468e-09
-3.57878e-10
1.62111e-09
-5.3039e-10
1.6636e-09
-4.91018e-10
1.69095e-09
-3.93133e-10
1.76804e-09
-3.99996e-10
1.83929e-09
-4.25231e-10
1.86406e-09
-3.91765e-10
1.87122e-09
-3.66336e-10
1.88505e-09
-3.15139e-10
1.9007e-09
-2.23127e-10
1.90831e-09
-1.80454e-10
1.90475e-09
-1.11477e-10
1.94125e-09
-1.24523e-10
1.90619e-09
4.10209e-11
1.92181e-09
2.19567e-11
1.92508e-09
8.43289e-11
1.85819e-09
1.52863e-10
1.84698e-09
1.9646e-10
1.79262e-09
2.81897e-10
1.69951e-09
2.55056e-10
1.65504e-09
4.13595e-10
1.55632e-09
5.45673e-10
1.47765e-09
4.67023e-10
1.40157e-09
4.958e-10
1.29551e-09
6.32887e-10
1.24071e-09
5.78477e-10
1.20169e-09
5.50322e-10
1.18194e-09
5.35319e-10
1.14799e-09
5.16218e-10
1.11671e-09
4.75893e-10
1.0951e-09
4.1108e-10
1.06687e-09
3.43146e-10
1.02048e-09
2.935e-10
9.84914e-10
2.41325e-10
9.17027e-10
2.12332e-10
8.76602e-10
1.60892e-10
8.21353e-10
1.13288e-10
7.89139e-10
8.39085e-11
7.57913e-10
7.40663e-11
7.21597e-10
8.24674e-11
6.72205e-10
9.20415e-11
6.04845e-10
9.8879e-11
5.50026e-10
5.37396e-11
5.13838e-10
3.5244e-11
4.73083e-10
-1.96217e-11
4.68444e-10
-7.16733e-11
4.3091e-10
-3.67173e-11
4.06872e-10
-7.24033e-11
4.02589e-10
-1.0784e-10
4.02395e-10
-1.17665e-10
4.13481e-10
-1.27163e-10
4.86228e-10
-1.34987e-10
4.80924e-10
-8.15048e-11
5.63922e-10
-8.6291e-11
5.54021e-10
1.97159e-10
5.65995e-10
3.45618e-10
4.84239e-10
5.06323e-10
2.92079e-10
7.7636e-10
1.47452e-10
1.01759e-09
-8.39677e-11
1.2239e-09
-2.4268e-10
1.23252e-09
-9.51395e-11
7.97654e-10
-6.58443e-16
7.01945e-10
-5.05279e-19
9.47776e-19
-3.92113e-19
1.14524e-19
-2.88703e-19
1.06975e-20
-2.16811e-19
-7.39527e-20
-1.43374e-19
-1.80354e-19
-5.60009e-20
-2.85872e-19
4.57091e-20
-3.75788e-19
1.57942e-19
-4.43999e-19
2.75871e-19
-4.88953e-19
3.94806e-19
-5.11352e-19
5.10603e-19
-5.1309e-19
6.19812e-19
-4.96726e-19
7.19725e-19
-4.6517e-19
8.08353e-19
-4.21467e-19
8.84387e-19
-3.68625e-19
9.4711e-19
-3.09477e-19
9.96294e-19
-2.46568e-19
1.03209e-18
-1.82083e-19
1.0549e-18
-1.17808e-19
1.06535e-18
-5.51382e-20
1.06418e-18
4.88475e-21
1.05223e-18
6.1522e-20
1.03043e-18
1.14282e-19
9.99721e-19
1.62874e-19
9.61061e-19
2.07163e-19
9.15387e-19
2.47138e-19
8.63595e-19
2.82884e-19
8.06522e-19
3.14556e-19
7.44934e-19
3.42362e-19
6.79524e-19
3.66542e-19
6.10909e-19
3.87353e-19
5.39637e-19
4.05059e-19
4.66188e-19
4.19913e-19
3.90983e-19
4.32156e-19
3.14395e-19
4.42006e-19
2.3675e-19
4.4965e-19
1.58342e-19
4.55243e-19
7.94396e-20
4.58902e-19
4.60709e-19
8.56164e-11
-1.16946e-09
1.39786e-10
-8.63308e-10
1.57143e-10
-5.95669e-10
1.83543e-10
-5.02329e-10
2.52446e-10
-5.22633e-10
3.60619e-10
-5.57627e-10
4.6695e-10
-6.06552e-10
5.75313e-10
-5.95284e-10
6.88236e-10
-6.36938e-10
6.72862e-10
-6.63662e-10
8.12524e-10
-6.33238e-10
8.70026e-10
-5.9576e-10
1.03623e-09
-5.32549e-10
9.48469e-10
-4.22931e-10
1.01187e-09
-7.06967e-10
1.04584e-09
-7.03377e-10
1.14231e-09
-6.83589e-10
1.35374e-09
-5.34777e-10
1.46422e-09
-4.68365e-10
1.42481e-09
-4.90977e-10
1.4465e-09
-5.1271e-10
1.52821e-09
-4.74844e-10
1.54683e-09
-4.1861e-10
1.53313e-09
-4.11537e-10
1.53693e-09
-3.9556e-10
1.53672e-09
-3.66127e-10
1.55111e-09
-3.29531e-10
1.57062e-09
-2.42635e-10
1.59162e-09
-2.0146e-10
1.59202e-09
-1.11878e-10
1.6131e-09
-1.45597e-10
1.57396e-09
8.01573e-11
1.61817e-09
-2.22562e-11
1.56518e-09
1.3732e-10
1.5363e-09
1.81741e-10
1.55331e-09
1.79459e-10
1.45335e-09
3.81854e-10
1.30741e-09
4.00992e-10
1.23459e-09
4.8642e-10
1.22642e-09
5.53844e-10
1.17224e-09
5.21202e-10
1.13796e-09
5.30077e-10
1.11926e-09
6.51591e-10
1.08993e-09
6.07805e-10
1.06399e-09
5.76263e-10
1.04902e-09
5.50286e-10
1.01929e-09
5.45947e-10
9.94356e-10
5.00827e-10
9.77327e-10
4.28109e-10
9.5283e-10
3.67644e-10
9.19302e-10
3.27029e-10
8.82985e-10
2.77644e-10
8.36538e-10
2.58779e-10
7.85518e-10
2.11913e-10
7.3194e-10
1.66868e-10
6.71453e-10
1.44397e-10
6.07133e-10
1.38389e-10
5.41673e-10
1.4793e-10
4.84551e-10
1.49165e-10
4.5302e-10
1.30413e-10
4.06444e-10
1.00319e-10
3.50627e-10
9.10642e-11
2.53646e-10
7.73616e-11
1.78713e-10
3.26254e-12
1.7062e-10
-2.86214e-11
1.83963e-10
-8.57432e-11
2.00003e-10
-1.23877e-10
2.20934e-10
-1.38593e-10
2.46284e-10
-1.52511e-10
2.70118e-10
-1.58818e-10
3.23972e-10
-1.35357e-10
3.18909e-10
-8.12253e-11
4.28e-10
8.80697e-11
3.9071e-10
3.82909e-10
2.62994e-10
6.3404e-10
1.8387e-10
8.55487e-10
3.95368e-11
1.16193e-09
-2.86397e-10
1.54984e-09
-7.63664e-10
1.70979e-09
-5.97806e-10
6.31798e-10
-6.8268e-17
1.04139e-10
-1.33798e-18
-4.39129e-18
-4.95774e-19
-7.2648e-19
-3.73354e-19
-1.09772e-19
-3.23212e-19
-1.21834e-19
-2.48891e-19
-2.52264e-19
-1.45917e-19
-3.86368e-19
-2.25022e-20
-4.96738e-19
1.12989e-19
-5.77124e-19
2.53472e-19
-6.27258e-19
3.93068e-19
-6.49037e-19
5.26967e-19
-6.45386e-19
6.51369e-19
-6.19806e-19
7.63428e-19
-5.76104e-19
8.61195e-19
-5.18165e-19
9.43535e-19
-4.4977e-19
1.01002e-18
-3.74446e-19
1.06078e-18
-2.95338e-19
1.09636e-18
-2.15121e-19
1.11757e-18
-1.35955e-19
1.12537e-18
-5.94902e-20
1.12082e-18
1.30858e-20
1.105e-18
8.09768e-20
1.07902e-18
1.43702e-19
1.04401e-18
2.01024e-19
1.00104e-18
2.52894e-19
9.51132e-19
2.99397e-19
8.95268e-19
3.40724e-19
8.34328e-19
3.77132e-19
7.69114e-19
4.08929e-19
7.00335e-19
4.36445e-19
6.28614e-19
4.60022e-19
5.54491e-19
4.79999e-19
4.78431e-19
4.96698e-19
4.00833e-19
5.10417e-19
3.22039e-19
5.21421e-19
2.42343e-19
5.2994e-19
1.62002e-19
5.36161e-19
8.12462e-20
5.40226e-19
5.42231e-19
4.20834e-11
-1.21155e-09
-1.26395e-12
-8.19961e-10
5.48033e-11
-6.51736e-10
1.87442e-10
-6.34968e-10
2.60237e-10
-5.95429e-10
3.29113e-10
-6.26504e-10
3.96545e-10
-6.73984e-10
5.11312e-10
-7.10051e-10
5.88264e-10
-7.1389e-10
6.59303e-10
-7.34702e-10
7.19808e-10
-6.93742e-10
7.62706e-10
-6.38658e-10
8.76911e-10
-6.46754e-10
1.03458e-09
-5.80599e-10
9.58437e-10
-6.30826e-10
1.0023e-09
-7.47244e-10
1.02245e-09
-7.03739e-10
1.08623e-09
-5.98558e-10
1.18243e-09
-5.64563e-10
1.24347e-09
-5.52016e-10
1.2324e-09
-5.01635e-10
1.25426e-09
-4.96706e-10
1.26241e-09
-4.26758e-10
1.27426e-09
-4.23389e-10
1.28592e-09
-4.07219e-10
1.21538e-09
-2.95589e-10
1.19445e-09
-3.08604e-10
1.21329e-09
-2.61474e-10
1.24412e-09
-2.3229e-10
1.26964e-09
-1.37401e-10
1.23816e-09
-1.14117e-10
1.26066e-09
5.76574e-11
1.26585e-09
-2.74412e-11
1.22647e-09
1.767e-10
1.19556e-09
2.12647e-10
1.12911e-09
2.45915e-10
1.11758e-09
3.9338e-10
1.0985e-09
4.2007e-10
1.07465e-09
5.10274e-10
1.05946e-09
5.69032e-10
1.01269e-09
5.67972e-10
9.47622e-10
5.95148e-10
9.48402e-10
6.50812e-10
9.38442e-10
6.17765e-10
9.2049e-10
5.94214e-10
8.96343e-10
5.74433e-10
8.8483e-10
5.57461e-10
8.79702e-10
5.05955e-10
8.61392e-10
4.46419e-10
8.31508e-10
3.97528e-10
8.13471e-10
3.45067e-10
7.70372e-10
3.20744e-10
7.23787e-10
3.05366e-10
6.4329e-10
2.9241e-10
5.55925e-10
2.54235e-10
5.2365e-10
1.76674e-10
5.06295e-10
1.55746e-10
4.76009e-10
1.78218e-10
4.02941e-10
2.22236e-10
2.46642e-10
2.86714e-10
8.72455e-11
2.59718e-10
9.56632e-12
1.68746e-10
5.01672e-12
8.19137e-11
1.98581e-11
-1.15764e-11
6.18642e-11
-7.06251e-11
1.02754e-10
-1.2663e-10
1.34126e-10
-1.55247e-10
1.62906e-10
-1.67371e-10
1.82966e-10
-1.72569e-10
2.00945e-10
-1.76796e-10
2.20027e-10
-1.54438e-10
2.47135e-10
-1.08332e-10
2.56889e-10
7.83167e-11
1.84337e-10
4.55464e-10
1.10749e-10
7.0763e-10
-4.53692e-11
1.01161e-09
-2.71345e-10
1.3879e-09
-3.70118e-10
1.64861e-09
-2.59351e-10
1.59903e-09
-1.04118e-10
4.76567e-10
1.20687e-17
2.12443e-14
2.32703e-18
5.3512e-18
1.20977e-19
1.48054e-18
-3.85416e-19
3.98073e-19
-4.53643e-19
-5.18673e-20
-3.82994e-19
-3.2093e-19
-2.56288e-19
-5.10912e-19
-1.02888e-19
-6.47871e-19
6.28539e-20
-7.40582e-19
2.31693e-19
-7.93906e-19
3.9672e-19
-8.12091e-19
5.52547e-19
-7.9957e-19
6.95071e-19
-7.61076e-19
8.21367e-19
-7.01515e-19
9.29589e-19
-6.25772e-19
1.01886e-18
-5.38517e-19
1.08913e-18
-4.44044e-19
1.141e-18
-3.46143e-19
1.17553e-18
-2.48001e-19
1.19404e-18
-1.52155e-19
1.19795e-18
-6.05007e-20
1.18871e-18
2.56528e-20
1.16772e-18
1.05489e-19
1.13635e-18
1.78581e-19
1.09588e-18
2.44797e-19
1.04754e-18
3.04221e-19
9.92459e-19
3.57085e-19
9.31676e-19
4.03722e-19
8.66124e-19
4.44533e-19
7.9663e-19
4.7995e-19
7.23912e-19
5.10421e-19
6.48591e-19
5.36391e-19
5.7119e-19
5.58286e-19
4.9215e-19
5.76507e-19
4.11838e-19
5.91415e-19
3.30558e-19
6.03331e-19
2.48564e-19
6.12528e-19
1.66067e-19
6.19228e-19
8.32512e-20
6.23598e-19
6.25752e-19
2.86654e-11
-1.24021e-09
8.91499e-11
-8.80446e-10
1.51959e-10
-7.14545e-10
1.53591e-10
-6.366e-10
2.18725e-10
-6.60563e-10
3.01629e-10
-7.09408e-10
3.88676e-10
-7.61032e-10
4.47413e-10
-7.68788e-10
4.8097e-10
-7.47447e-10
4.66753e-10
-7.20485e-10
5.07715e-10
-7.34704e-10
5.93849e-10
-7.24793e-10
6.63845e-10
-7.1675e-10
7.90722e-10
-7.07477e-10
8.45643e-10
-6.85748e-10
8.08356e-10
-7.09956e-10
7.85754e-10
-6.81138e-10
8.63015e-10
-6.75818e-10
8.83877e-10
-5.85426e-10
8.88681e-10
-5.5682e-10
9.07721e-10
-5.20674e-10
9.44598e-10
-5.33583e-10
9.36655e-10
-4.18816e-10
9.31381e-10
-4.18115e-10
9.28401e-10
-4.04239e-10
8.81052e-10
-2.48239e-10
8.72057e-10
-2.99609e-10
8.69527e-10
-2.58944e-10
8.78969e-10
-2.41732e-10
9.0236e-10
-1.60792e-10
8.76127e-10
-8.78847e-11
9.11838e-10
2.19458e-11
8.52352e-10
3.20454e-11
8.71359e-10
1.57692e-10
8.47562e-10
2.36443e-10
8.15361e-10
2.78116e-10
8.59317e-10
3.49423e-10
8.46798e-10
4.32588e-10
8.19863e-10
5.37209e-10
8.20595e-10
5.68299e-10
8.07088e-10
5.81479e-10
7.69091e-10
6.33145e-10
7.87655e-10
6.32249e-10
7.95114e-10
6.10306e-10
7.86988e-10
6.0234e-10
7.76554e-10
5.84867e-10
7.77447e-10
5.56568e-10
7.75072e-10
5.0833e-10
7.57749e-10
4.63742e-10
7.30591e-10
4.24687e-10
6.70446e-10
4.05212e-10
6.10524e-10
3.80667e-10
5.86713e-10
3.29179e-10
5.62064e-10
3.17061e-10
5.13164e-10
3.03136e-10
3.54119e-10
3.35721e-10
1.49067e-10
3.608e-10
-2.835e-11
3.55638e-10
-1.35571e-10
3.29459e-10
-1.53785e-10
3.04931e-10
-1.57107e-10
2.63042e-10
-1.46232e-10
1.57873e-10
-1.10959e-10
4.66429e-11
-7.38074e-11
-4.8726e-11
-1.94537e-11
-1.24977e-10
2.62753e-11
-1.72358e-10
6.55774e-11
-1.94547e-10
1.07577e-10
-2.0937e-10
1.44822e-10
-2.09813e-10
1.61432e-10
-1.93404e-10
1.6155e-10
-1.54555e-10
1.51644e-10
-9.84244e-11
1.30533e-10
9.94286e-11
9.70685e-11
4.88929e-10
-3.61145e-12
8.08311e-10
-2.01758e-10
1.20975e-09
-3.48562e-10
1.53471e-09
-3.14991e-10
1.61505e-09
-1.78456e-10
1.46249e-09
-2.15214e-14
2.98133e-10
-5.37818e-18
-6.7369e-19
-1.54311e-18
1.51613e-18
-9.61482e-19
8.99823e-19
-8.35356e-19
2.73078e-19
-7.22706e-19
-1.63159e-19
-5.72976e-19
-4.69035e-19
-3.93247e-19
-6.88758e-19
-1.95598e-19
-8.43421e-19
9.5294e-21
-9.43453e-19
2.13508e-19
-9.95565e-19
4.0924e-19
-1.00558e-18
5.9104e-19
-9.79379e-19
7.54632e-19
-9.23077e-19
8.9711e-19
-8.42885e-19
1.01684e-18
-7.44869e-19
1.11333e-18
-6.34723e-19
1.18703e-18
-5.17586e-19
1.23914e-18
-3.97919e-19
1.27137e-18
-2.79419e-19
1.28569e-18
-1.64975e-19
1.2841e-18
-5.66882e-20
1.26854e-18
4.40563e-20
1.24081e-18
1.36475e-19
1.20256e-18
2.20253e-19
1.1553e-18
2.95426e-19
1.1004e-18
3.62265e-19
1.0391e-18
4.21203e-19
9.72487e-19
4.72767e-19
9.01541e-19
5.17532e-19
8.27101e-19
5.56094e-19
7.49882e-19
5.89042e-19
6.70486e-19
6.16943e-19
5.8941e-19
6.40326e-19
5.07058e-19
6.59678e-19
4.23754e-19
6.75434e-19
3.39755e-19
6.87974e-19
2.55263e-19
6.97617e-19
1.70437e-19
7.0462e-19
8.54049e-20
7.09178e-19
7.11422e-19
1.85572e-11
-1.25877e-09
2.14942e-11
-8.83384e-10
6.35033e-11
-7.56555e-10
1.16946e-10
-6.90043e-10
1.80978e-10
-7.24596e-10
2.57093e-10
-7.85523e-10
3.35019e-10
-8.38957e-10
3.75401e-10
-8.09171e-10
3.61221e-10
-7.33268e-10
3.41735e-10
-7.00999e-10
3.58939e-10
-7.51908e-10
4.38084e-10
-8.03938e-10
5.19016e-10
-7.97683e-10
5.71514e-10
-7.59975e-10
6.32002e-10
-7.46236e-10
6.51277e-10
-7.29232e-10
6.42024e-10
-6.71884e-10
6.21757e-10
-6.55552e-10
6.34033e-10
-5.97702e-10
6.46874e-10
-5.69662e-10
6.46431e-10
-5.20232e-10
6.02777e-10
-4.89929e-10
6.0418e-10
-4.20219e-10
6.11326e-10
-4.2526e-10
5.62536e-10
-3.55449e-10
5.66409e-10
-2.52113e-10
5.40948e-10
-2.74147e-10
5.22275e-10
-2.40271e-10
5.12193e-10
-2.31651e-10
5.37385e-10
-1.85984e-10
5.75561e-10
-1.26061e-10
6.35731e-10
-3.82242e-11
6.02087e-10
6.56895e-11
5.93251e-10
1.66528e-10
5.83168e-10
2.46525e-10
5.58305e-10
3.02978e-10
5.22459e-10
3.85269e-10
4.90924e-10
4.64123e-10
5.44828e-10
4.83304e-10
5.90924e-10
5.22203e-10
5.96514e-10
5.75889e-10
6.13167e-10
6.16494e-10
6.54842e-10
5.90574e-10
6.51253e-10
6.13896e-10
6.57867e-10
5.95727e-10
6.69222e-10
5.73511e-10
6.76172e-10
5.49618e-10
6.69914e-10
5.14588e-10
6.58482e-10
4.75173e-10
6.39743e-10
4.43426e-10
5.96085e-10
4.4887e-10
5.16033e-10
4.60719e-10
3.65678e-10
4.79535e-10
2.09434e-10
4.73307e-10
7.84024e-11
4.34169e-10
-1.55328e-11
4.29658e-10
-7.71867e-11
4.22456e-10
-1.70152e-10
4.48606e-10
-2.60912e-10
4.20221e-10
-2.91592e-10
3.35613e-10
-2.66963e-10
2.38416e-10
-2.30574e-10
1.21487e-10
-1.93222e-10
9.29202e-12
-1.54425e-10
-8.75213e-11
-9.78374e-11
-1.81563e-10
-3.48332e-11
-2.35361e-10
3.26277e-11
-2.62008e-10
8.44117e-11
-2.61154e-10
1.19792e-10
-2.45193e-10
1.43309e-10
-2.16921e-10
1.4526e-10
-1.56507e-10
1.19781e-10
-7.29442e-11
9.73714e-11
1.21839e-10
6.05291e-11
5.25773e-10
-1.81936e-11
8.87035e-10
-8.13839e-11
1.27295e-09
-1.42293e-10
1.59562e-09
-2.29905e-10
1.70266e-09
-1.18202e-10
1.35079e-09
-3.96233e-16
1.79932e-10
-3.18799e-18
-1.2902e-19
-2.15892e-18
4.87336e-19
-1.58816e-18
3.2988e-19
-1.27159e-18
-4.26498e-20
-1.02858e-18
-4.05204e-19
-7.927e-19
-7.0372e-19
-5.47909e-19
-9.32074e-19
-2.9563e-19
-1.09394e-18
-4.25828e-20
-1.19446e-18
2.03494e-19
-1.23936e-18
4.35441e-19
-1.2351e-18
6.47342e-19
-1.18891e-18
8.34824e-19
-1.10847e-18
9.95126e-19
-1.00156e-18
1.12699e-18
-8.75687e-19
1.23047e-18
-7.37732e-19
1.30669e-18
-5.93771e-19
1.35764e-18
-4.48949e-19
1.38582e-18
-3.0743e-19
1.39398e-18
-1.72391e-19
1.38485e-18
-4.6057e-20
1.36096e-18
7.01936e-20
1.32459e-18
1.75691e-19
1.27774e-18
2.70313e-19
1.22214e-18
3.54332e-19
1.15934e-18
4.28277e-19
1.09066e-18
4.92839e-19
1.01725e-18
5.48787e-19
9.40104e-19
5.96919e-19
8.60049e-19
6.38023e-19
7.77783e-19
6.72856e-19
6.93869e-19
7.02126e-19
6.08762e-19
7.26481e-19
5.22814e-19
7.46503e-19
4.36294e-19
7.62707e-19
3.49398e-19
7.75533e-19
2.62266e-19
7.85351e-19
1.74995e-19
7.92454e-19
8.76487e-20
7.97065e-19
7.9933e-19
1.58272e-11
-1.2746e-09
6.78636e-11
-9.3542e-10
1.04666e-10
-7.93358e-10
1.49583e-10
-7.3496e-10
1.82499e-10
-7.57512e-10
2.3693e-10
-8.39955e-10
2.44633e-10
-8.4666e-10