/*--------------------------------*- C++ -*----------------------------------*\
  =========                 |
  \\      /  F ield         | OpenFOAM: The Open Source CFD Toolbox
   \\    /   O peration     | Website:  https://openfoam.org
    \\  /    A nd           | Version:  6
     \\/     M anipulation  |
\*---------------------------------------------------------------------------*/
FoamFile
{
    version     2.0;
    format      ascii;
    class       volVectorField;
    location    "600";
    object      U;
}
// * * * * * * * * * * * * * * * * * * * * * * * * * * * * * * * * * * * * * //

dimensions      [0 1 -1 0 0 0 0];

internalField   nonuniform List<vector> 
4800
(
(-0.000118375 0 9.69713e-05)
(0.000134634 0 -0.000114922)
(0.000187751 0 -0.000114866)
(0.000253072 0 -0.00013072)
(0.000339935 0 -8.07604e-05)
(0.000388319 0 -6.98479e-05)
(0.000422123 0 -6.55845e-05)
(0.000483485 0 -2.55485e-05)
(0.000532752 0 -5.00185e-05)
(0.000533459 0 -4.3038e-05)
(0.000546934 0 -3.6977e-05)
(0.000583208 0 -3.1535e-05)
(0.000614838 0 -4.3311e-06)
(0.000634541 0 -6.15481e-05)
(0.000678878 0 -2.27941e-06)
(0.000711849 0 -5.0755e-05)
(0.000757145 0 -4.64378e-05)
(0.000792045 0 -5.49953e-06)
(0.000795434 0 -2.04591e-05)
(0.000814212 0 -3.89235e-05)
(0.000869293 0 -5.90997e-05)
(0.00094878 0 -4.28276e-05)
(0.000967284 0 -4.4543e-05)
(0.000974934 0 -2.66897e-05)
(0.00100115 0 -2.62996e-05)
(0.00101889 0 -3.77719e-05)
(0.00102887 0 -7.74157e-06)
(0.00105547 0 7.59268e-06)
(0.00108449 0 -1.97309e-05)
(0.00108628 0 -2.96166e-05)
(0.00108784 0 -2.82664e-05)
(0.00109472 0 -3.09366e-05)
(0.00110332 0 -2.42538e-05)
(0.00110155 0 -2.00476e-05)
(0.00109622 0 -1.34094e-05)
(0.00108735 0 -5.68397e-06)
(0.00106433 0 -2.71772e-05)
(0.00103451 0 -3.22557e-05)
(0.00101812 0 1.6425e-05)
(0.00098 0 -0.000117922)
(0.000968565 0 -4.74832e-05)
(0.000966851 0 -1.8368e-05)
(0.000942473 0 -2.69354e-05)
(0.000889871 0 -1.42688e-05)
(0.000823825 0 5.33281e-05)
(0.000758831 0 5.7214e-05)
(0.000701296 0 2.41856e-05)
(0.000652107 0 1.65451e-05)
(0.000603642 0 2.34678e-05)
(0.000559028 0 1.28211e-05)
(0.000539055 0 -1.40292e-07)
(0.000535596 0 -5.44279e-06)
(0.000535103 0 -7.4695e-06)
(0.000536838 0 -9.79934e-06)
(0.000542495 0 -1.2743e-05)
(0.000547169 0 -1.55581e-05)
(0.000546877 0 -1.5322e-05)
(0.000545507 0 -1.50197e-05)
(0.000543605 0 -1.90899e-05)
(0.000543259 0 -2.13305e-05)
(0.000545675 0 -1.91257e-05)
(0.000552829 0 -2.15328e-05)
(0.000563167 0 -2.43675e-05)
(0.000577311 0 -1.81733e-05)
(0.000595861 0 -1.368e-05)
(0.000617485 0 -9.80725e-06)
(0.000643048 0 -1.67052e-05)
(0.00066713 0 -6.11724e-06)
(0.000692361 0 4.01674e-06)
(0.000705519 0 -1.53385e-05)
(0.000705237 0 -1.31201e-05)
(0.000699028 0 -2.57154e-05)
(0.000680015 0 1.23558e-05)
(0.000647695 0 -3.86742e-05)
(0.000605631 0 4.30372e-05)
(0.00054815 0 -3.29911e-05)
(0.000474068 0 2.6934e-05)
(0.000407288 0 0.000122254)
(0.000252778 0 -0.000298813)
(-0.000226691 0 -0.000210476)
(2.2926e-07 0 -0.000124907)
(-2.48994e-14 0 -6.04004e-14)
(7.95282e-14 0 1.39177e-15)
(7.15469e-14 0 7.638e-15)
(6.1704e-14 0 4.02019e-15)
(5.98122e-14 0 -6.5731e-16)
(6.66711e-14 0 -4.75985e-15)
(8.09716e-14 0 -8.05865e-15)
(1.01092e-13 0 -1.0568e-14)
(1.25484e-13 0 -1.23363e-14)
(1.52735e-13 0 -1.34195e-14)
(1.81556e-13 0 -1.38809e-14)
(2.10788e-13 0 -1.37915e-14)
(2.39408e-13 0 -1.32276e-14)
(2.66537e-13 0 -1.22682e-14)
(2.91443e-13 0 -1.09923e-14)
(3.13542e-13 0 -9.47561e-15)
(3.32386e-13 0 -7.78794e-15)
(3.47662e-13 0 -5.99199e-15)
(3.59175e-13 0 -4.14228e-15)
(3.66838e-13 0 -2.28501e-15)
(3.70659e-13 0 -4.58414e-16)
(3.70727e-13 0 1.30679e-15)
(3.67195e-13 0 2.98694e-15)
(3.60267e-13 0 4.56454e-15)
(3.50177e-13 0 6.02777e-15)
(3.37185e-13 0 7.36953e-15)
(3.21557e-13 0 8.58672e-15)
(3.03562e-13 0 9.67957e-15)
(2.83462e-13 0 1.06508e-14)
(2.61507e-13 0 1.15049e-14)
(2.37938e-13 0 1.22479e-14)
(2.12976e-13 0 1.28861e-14)
(1.86829e-13 0 1.34264e-14)
(1.5969e-13 0 1.38754e-14)
(1.31736e-13 0 1.42394e-14)
(1.03132e-13 0 1.45243e-14)
(7.4033e-14 0 1.47356e-14)
(4.45786e-14 0 1.48797e-14)
(1.48897e-14 0 1.49702e-14)
(-3.52496e-06 0 -0.000125786)
(0.000110936 0 -0.000164704)
(0.000173938 0 -0.000158897)
(0.00025068 0 -9.2092e-05)
(0.000296158 0 -4.41325e-05)
(0.000327229 0 -4.27404e-05)
(0.000343958 0 -8.54073e-05)
(0.000395845 0 3.36689e-05)
(0.000422862 0 -3.14634e-05)
(0.000428986 0 -7.38965e-05)
(0.000456526 0 -6.1364e-05)
(0.000494913 0 -1.75208e-05)
(0.000523646 0 -2.07753e-05)
(0.000542917 0 -9.43075e-05)
(0.000600827 0 3.59568e-05)
(0.000637276 0 -0.000151824)
(0.000709735 0 -1.69046e-05)
(0.0007274 0 -2.23748e-05)
(0.000722114 0 -5.9063e-05)
(0.000742411 0 -6.51503e-05)
(0.000810234 0 -3.9269e-05)
(0.00089449 0 -6.42718e-05)
(0.000910091 0 -6.1207e-05)
(0.000915501 0 -6.92197e-05)
(0.000940636 0 2.36518e-05)
(0.000959892 0 -6.79426e-05)
(0.000975911 0 -0.00010333)
(0.00099869 0 -0.000110749)
(0.00102555 0 -2.6337e-05)
(0.00104429 0 -1.69862e-05)
(0.00106514 0 -1.44315e-06)
(0.00106757 0 9.61544e-06)
(0.00106577 0 1.34838e-05)
(0.00106192 0 1.46064e-05)
(0.00104881 0 9.74079e-06)
(0.00103489 0 4.9631e-05)
(0.00102271 0 4.4315e-05)
(0.000994199 0 1.22337e-06)
(0.000972252 0 4.60542e-05)
(0.000960179 0 8.78406e-05)
(0.000939904 0 0.000123387)
(0.000924664 0 0.000115943)
(0.000908977 0 7.33823e-05)
(0.000866864 0 5.54576e-05)
(0.000794709 0 9.42187e-05)
(0.000722169 0 8.14294e-05)
(0.000669233 0 6.8738e-05)
(0.000631032 0 4.98835e-05)
(0.000590038 0 5.42174e-05)
(0.000550151 0 4.59708e-05)
(0.000525461 0 1.93987e-05)
(0.000513304 0 8.89856e-06)
(0.000505794 0 -2.60761e-07)
(0.000504899 0 -2.71596e-06)
(0.00050639 0 -4.49888e-06)
(0.000509938 0 9.08903e-06)
(0.00050988 0 1.1564e-05)
(0.000508703 0 1.60879e-05)
(0.000506777 0 2.59427e-05)
(0.000503915 0 1.40663e-05)
(0.000504224 0 7.80739e-06)
(0.00050782 0 2.51445e-06)
(0.000514957 0 -5.3994e-06)
(0.000521914 0 -2.23693e-05)
(0.000531299 0 -2.03756e-05)
(0.000540259 0 -4.66926e-05)
(0.000555919 0 -1.22043e-05)
(0.000563382 0 -5.13297e-05)
(0.000573399 0 -1.90457e-05)
(0.000583746 0 2.53868e-06)
(0.000592274 0 7.86744e-06)
(0.000593255 0 4.61086e-05)
(0.000588622 0 5.46947e-05)
(0.000569229 0 6.70297e-05)
(0.000534935 0 9.69073e-05)
(0.000492133 0 0.000131422)
(0.000443651 0 0.000101501)
(0.000384923 0 0.000173715)
(0.000283929 0 0.000270106)
(0.000236285 0 0.000193759)
(2.42943e-07 0 0.000162038)
(-7.06498e-14 0 1.22248e-13)
(1.47816e-13 0 5.97749e-14)
(7.42996e-14 0 3.30246e-14)
(5.34088e-14 0 1.37235e-14)
(5.10322e-14 0 -1.90071e-15)
(5.92697e-14 0 -1.44932e-14)
(7.51634e-14 0 -2.44021e-14)
(9.68138e-14 0 -3.18782e-14)
(1.22633e-13 0 -3.71137e-14)
(1.5119e-13 0 -4.0288e-14)
(1.81184e-13 0 -4.15949e-14)
(2.11441e-13 0 -4.12501e-14)
(2.40931e-13 0 -3.94872e-14)
(2.68772e-13 0 -3.65484e-14)
(2.94236e-13 0 -3.2674e-14)
(3.16746e-13 0 -2.80925e-14)
(3.3587e-13 0 -2.30136e-14)
(3.51308e-13 0 -1.76234e-14)
(3.62882e-13 0 -1.20823e-14)
(3.70522e-13 0 -6.52572e-15)
(3.74251e-13 0 -1.06498e-15)
(3.74172e-13 0 4.21046e-15)
(3.70453e-13 0 9.23128e-15)
(3.63308e-13 0 1.39461e-14)
(3.52982e-13 0 1.83198e-14)
(3.39744e-13 0 2.23309e-14)
(3.23867e-13 0 2.597e-14)
(3.05626e-13 0 2.92374e-14)
(2.85287e-13 0 3.21409e-14)
(2.63105e-13 0 3.46941e-14)
(2.39319e-13 0 3.69143e-14)
(2.14154e-13 0 3.8821e-14)
(1.87818e-13 0 4.04345e-14)
(1.60503e-13 0 4.17749e-14)
(1.32384e-13 0 4.28611e-14)
(1.03628e-13 0 4.37101e-14)
(7.43885e-14 0 4.43371e-14)
(4.48132e-14 0 4.47562e-14)
(1.49801e-14 0 4.49834e-14)
(-5.57423e-05 0 -0.000246857)
(0.000172096 0 -0.000188131)
(0.000153471 0 -0.000187065)
(0.000199421 0 -0.000117074)
(0.000214625 0 -0.000100922)
(0.000246923 0 -7.47191e-05)
(0.000266322 0 -8.93329e-05)
(0.000298021 0 -7.73482e-05)
(0.000335066 0 -7.37611e-05)
(0.000361837 0 -0.000120888)
(0.000413464 0 -9.10473e-05)
(0.000447908 0 -3.74319e-05)
(0.000469881 0 -6.39585e-05)
(0.000496542 0 -0.000131151)
(0.000566091 0 -2.43681e-05)
(0.000596695 0 -0.000318443)
(0.000682987 0 9.12788e-05)
(0.000687172 0 7.02824e-08)
(0.000699779 0 -7.05664e-05)
(0.000728135 0 -0.000146914)
(0.00078288 0 -0.000112123)
(0.000817383 0 -1.9362e-05)
(0.000823087 0 -5.90755e-05)
(0.000839904 0 -1.58521e-05)
(0.000879631 0 -1.67879e-05)
(0.000941568 0 -2.98248e-05)
(0.000986965 0 -2.63756e-05)
(0.000986696 0 -2.27171e-05)
(0.000988259 0 -2.54135e-05)
(0.00100469 0 -2.21685e-05)
(0.00102605 0 -6.10769e-06)
(0.00102401 0 -2.41448e-06)
(0.0010137 0 -1.65329e-05)
(0.00100064 0 4.13684e-05)
(0.000992766 0 1.10043e-05)
(0.00097884 0 2.16459e-06)
(0.000936142 0 0.000142216)
(0.000931102 0 -1.37556e-05)
(0.000932087 0 -1.19068e-05)
(0.000914868 0 8.05422e-06)
(0.000878649 0 -7.54876e-06)
(0.000829206 0 8.73018e-05)
(0.000789697 0 0.000151384)
(0.000757688 0 0.000162898)
(0.000701302 0 0.000207011)
(0.000652828 0 0.000205602)
(0.000628336 0 0.000157283)
(0.000593037 0 0.000137541)
(0.00054839 0 0.000127538)
(0.000518563 0 8.87371e-05)
(0.000503306 0 4.57517e-05)
(0.00048592 0 2.68092e-05)
(0.000466117 0 1.47956e-05)
(0.000454595 0 5.13825e-07)
(0.000443919 0 -2.19249e-06)
(0.000437412 0 -7.98824e-06)
(0.000434205 0 -8.82504e-06)
(0.000432396 0 -1.09053e-05)
(0.000432685 0 -1.13334e-05)
(0.000434885 0 -1.46054e-05)
(0.000438475 0 -2.12818e-05)
(0.000443101 0 -2.53465e-05)
(0.000450556 0 -3.07956e-05)
(0.000457968 0 -4.02512e-05)
(0.00046548 0 -4.48013e-05)
(0.000468654 0 -5.1698e-05)
(0.000470752 0 -6.37321e-05)
(0.000475887 0 -4.55568e-05)
(0.000475326 0 -5.41544e-05)
(0.000481329 0 -2.36643e-05)
(0.000481908 0 -7.44592e-05)
(0.000493857 0 3.95561e-06)
(0.000491436 0 2.19074e-05)
(0.00047566 0 7.38178e-05)
(0.000460357 0 3.54925e-05)
(0.000417808 0 0.000145983)
(0.000355674 0 0.00016655)
(0.000336667 0 0.000202312)
(0.00027709 0 0.000266764)
(0.000146357 0 0.000282668)
(-2.87722e-07 0 0.000193816)
(2.50535e-14 0 8.50018e-14)
(-9.17638e-15 0 8.30183e-14)
(2.57412e-14 0 5.11475e-14)
(2.67788e-14 0 2.00617e-14)
(3.15956e-14 0 -5.8127e-15)
(4.41697e-14 0 -2.65977e-14)
(6.35866e-14 0 -4.29013e-14)
(8.83799e-14 0 -5.51619e-14)
(1.17075e-13 0 -6.3689e-14)
(1.48254e-13 0 -6.87674e-14)
(1.80594e-13 0 -7.07131e-14)
(2.12895e-13 0 -6.9888e-14)
(2.44109e-13 0 -6.66895e-14)
(2.7335e-13 0 -6.15326e-14)
(2.99899e-13 0 -5.48292e-14)
(3.23202e-13 0 -4.69706e-14)
(3.42855e-13 0 -3.83132e-14)
(3.58594e-13 0 -2.91706e-14)
(3.70273e-13 0 -1.98106e-14)
(3.77855e-13 0 -1.04565e-14)
(3.81395e-13 0 -1.29018e-15)
(3.81023e-13 0 7.54407e-15)
(3.76931e-13 0 1.59351e-14)
(3.69355e-13 0 2.38013e-14)
(3.58562e-13 0 3.10874e-14)
(3.44836e-13 0 3.77607e-14)
(3.28464e-13 0 4.38077e-14)
(3.09733e-13 0 4.92309e-14)
(2.88918e-13 0 5.40449e-14)
(2.66281e-13 0 5.82736e-14)
(2.42065e-13 0 6.19469e-14)
(2.16496e-13 0 6.50985e-14)
(1.89783e-13 0 6.7763e-14)
(1.62116e-13 0 6.99745e-14)
(1.33671e-13 0 7.17648e-14)
(1.04608e-13 0 7.31621e-14)
(7.50791e-14 0 7.41905e-14)
(4.52249e-14 0 7.48679e-14)
(1.51169e-14 0 7.52036e-14)
(0.000128442 0 -0.00027588)
(5.97582e-05 0 -0.000271647)
(0.000107004 0 -0.000207317)
(0.000169799 0 -0.000123134)
(0.000183601 0 -0.000106056)
(0.000205223 0 -9.56406e-05)
(0.000225426 0 -0.000113452)
(0.000255414 0 -0.000119792)
(0.000315935 0 -7.32894e-05)
(0.000327163 0 -0.000172041)
(0.000393918 0 -0.000130162)
(0.000438713 0 -5.4749e-05)
(0.000439786 0 -0.0001437)
(0.000512215 0 -2.42378e-05)
(0.000495165 0 -0.000307406)
(0.000622252 0 8.35109e-06)
(0.000639136 0 -0.000128252)
(0.000655262 0 -0.000117807)
(0.000695027 0 -7.56122e-05)
(0.000730669 0 -0.000143235)
(0.000746239 0 -0.000133786)
(0.000756945 0 -0.000121112)
(0.000781064 0 -0.000123953)
(0.000810571 0 -0.000165339)
(0.000855974 0 -6.79168e-05)
(0.000899976 0 -2.29453e-05)
(0.00091277 0 -0.000130772)
(0.000921602 0 -0.000103201)
(0.0009331 0 -7.47488e-05)
(0.000947726 0 -6.71682e-05)
(0.000957968 0 -1.65579e-05)
(0.000958447 0 2.72707e-06)
(0.000953396 0 2.13064e-05)
(0.00094106 0 -8.97082e-07)
(0.000929277 0 3.89692e-05)
(0.00090859 0 0.000117447)
(0.000896123 0 -2.16657e-05)
(0.000826992 0 0.000207281)
(0.000841703 0 0.000148218)
(0.000842018 0 9.01884e-05)
(0.000810459 0 6.03044e-05)
(0.00074958 0 6.51027e-05)
(0.000702 0 5.94671e-05)
(0.000678442 0 8.52002e-05)
(0.000650425 0 0.000118309)
(0.000617048 0 0.000151968)
(0.000590787 0 0.000150515)
(0.000558714 0 0.000132366)
(0.000526798 0 9.77685e-05)
(0.00050524 0 8.57458e-05)
(0.000487244 0 5.76484e-05)
(0.000460676 0 5.28581e-05)
(0.000436461 0 -6.63388e-06)
(0.000419829 0 3.04597e-05)
(0.000405291 0 -7.90348e-06)
(0.000393218 0 2.26765e-05)
(0.000385773 0 1.39594e-05)
(0.000380344 0 2.09922e-05)
(0.00037836 0 2.09654e-05)
(0.00037757 0 1.4749e-05)
(0.000376685 0 8.42604e-06)
(0.00037451 0 -2.26733e-06)
(0.00037197 0 7.01918e-06)
(0.000371162 0 -1.86975e-05)
(0.000372842 0 -2.11959e-05)
(0.000374419 0 -2.67007e-05)
(0.000375769 0 -2.58545e-05)
(0.000379299 0 -2.16144e-05)
(0.000384337 0 -2.26319e-05)
(0.000393919 0 9.29683e-06)
(0.000391751 0 3.40832e-05)
(0.000396414 0 3.54977e-05)
(0.000396635 0 8.05313e-05)
(0.000389742 0 0.000107433)
(0.000375127 0 0.000132608)
(0.000302928 0 0.000240512)
(0.00032114 0 0.00019969)
(0.0002182 0 0.000290461)
(0.00013092 0 0.00035544)
(0.000217028 0 0.000311701)
(-1.27096e-07 0 0.000276541)
(-7.71062e-15 0 2.38114e-13)
(1.1445e-13 0 1.36701e-13)
(1.15688e-14 0 6.83969e-14)
(-3.55146e-15 0 2.07315e-14)
(4.37286e-15 0 -1.52562e-14)
(2.21812e-14 0 -4.36169e-14)
(4.65992e-14 0 -6.58937e-14)
(7.60261e-14 0 -8.26596e-14)
(1.09027e-13 0 -9.42301e-14)
(1.44166e-13 0 -1.00933e-13)
(1.80063e-13 0 -1.03187e-13)
(2.15465e-13 0 -1.01499e-13)
(2.49286e-13 0 -9.64433e-14)
(2.80632e-13 0 -8.86237e-14)
(3.08798e-13 0 -7.86423e-14)
(3.33262e-13 0 -6.70711e-14)
(3.5367e-13 0 -5.443e-14)
(3.69811e-13 0 -4.11732e-14)
(3.81596e-13 0 -2.76844e-14)
(3.89042e-13 0 -1.42784e-14)
(3.92251e-13 0 -1.20691e-15)
(3.91398e-13 0 1.13342e-14)
(3.8671e-13 0 2.31978e-14)
(3.7846e-13 0 3.42791e-14)
(3.66942e-13 0 4.45098e-14)
(3.52465e-13 0 5.38527e-14)
(3.35338e-13 0 6.22964e-14)
(3.15863e-13 0 6.98509e-14)
(2.9433e-13 0 7.65422e-14)
(2.71007e-13 0 8.24082e-14)
(2.46144e-13 0 8.74945e-14)
(2.19971e-13 0 9.1851e-14)
(1.92694e-13 0 9.55286e-14)
(1.64504e-13 0 9.85765e-14)
(1.35572e-13 0 1.01041e-13)
(1.06054e-13 0 1.02961e-13)
(7.60942e-14 0 1.04372e-13)
(4.58264e-14 0 1.05298e-13)
(1.53158e-14 0 1.05756e-13)
(-4.47901e-06 0 -0.000359213)
(7.01158e-05 0 -0.00029133)
(8.93573e-05 0 -0.000214336)
(0.000125959 0 -0.000156085)
(0.000133155 0 -0.000157204)
(0.000175335 0 -0.000130961)
(0.000205662 0 -0.000131052)
(0.000235394 0 -0.000144713)
(0.000313751 0 -8.73649e-05)
(0.000274979 0 -0.000269419)
(0.000399106 0 -0.000105236)
(0.000418523 0 -0.000125465)
(0.000434661 0 -0.00015327)
(0.000457697 0 -0.000192185)
(0.0004975 0 -0.0002063)
(0.000536914 0 -0.000242653)
(0.000612211 0 -0.000138794)
(0.000637864 0 -0.000128333)
(0.000663741 0 -7.03223e-05)
(0.000673565 0 -0.000168454)
(0.000703597 0 -0.000189227)
(0.000733124 0 -0.000115561)
(0.000759213 0 -7.58047e-05)
(0.000782282 0 -0.000134591)
(0.000789937 0 -0.000202783)
(0.000816317 0 -0.000207689)
(0.000862835 0 -0.000131616)
(0.000873087 0 -8.31294e-05)
(0.000868044 0 -6.85323e-05)
(0.000860282 0 -4.25586e-05)
(0.000863462 0 -3.80551e-05)
(0.000876079 0 -3.56653e-06)
(0.000876237 0 7.94436e-06)
(0.000869639 0 4.14301e-05)
(0.000854314 0 -7.26031e-06)
(0.000842606 0 5.57802e-05)
(0.000827556 0 8.97787e-05)
(0.000793645 0 5.47835e-05)
(0.000701752 0 0.000226165)
(0.000695868 0 0.000208118)
(0.000671629 0 0.000188622)
(0.000593454 0 0.000221284)
(0.000553693 0 0.000267239)
(0.00055306 0 0.000259336)
(0.000538453 0 0.000251298)
(0.000521147 0 0.000230947)
(0.000513228 0 0.000185003)
(0.000502004 0 0.000164468)
(0.00048828 0 0.00015673)
(0.000475084 0 0.000132021)
(0.000455061 0 9.72871e-05)
(0.000429822 0 7.58723e-05)
(0.000405532 0 5.02517e-05)
(0.000384451 0 4.57183e-05)
(0.000370211 0 8.56636e-06)
(0.000361715 0 6.10306e-06)
(0.000354211 0 -3.41005e-06)
(0.000345232 0 -1.07419e-05)
(0.000334231 0 -8.47426e-06)
(0.000321335 0 -2.54621e-05)
(0.000308886 0 -2.64165e-05)
(0.000296197 0 -3.57839e-05)
(0.000280035 0 -4.60292e-05)
(0.000273381 0 -3.92481e-05)
(0.000271674 0 -5.28542e-05)
(0.000265569 0 -5.88653e-05)
(0.000260366 0 -6.34777e-05)
(0.000261685 0 -6.41402e-05)
(0.000265582 0 -5.54218e-05)
(0.000279988 0 -2.36559e-05)
(0.000272695 0 -0.000120345)
(0.000296364 0 4.10501e-05)
(0.000316727 0 3.69112e-05)
(0.000291234 0 0.000142071)
(0.000230168 0 0.000214235)
(0.000291984 0 0.000185621)
(0.000167488 0 0.000320232)
(0.000124565 0 0.00035918)
(4.4356e-05 0 0.000398683)
(-4.45415e-05 0 0.000389931)
(-3.55089e-07 0 0.000335577)
(-4.56376e-14 0 3.59227e-13)
(-1.78426e-13 0 1.5725e-13)
(-9.00318e-14 0 6.48847e-14)
(-5.68743e-14 0 9.36717e-15)
(-3.27529e-14 0 -3.26667e-14)
(-6.46775e-15 0 -6.70426e-14)
(2.45439e-14 0 -9.47228e-14)
(6.00435e-14 0 -1.157e-13)
(9.88009e-14 0 -1.30019e-13)
(1.39297e-13 0 -1.37965e-13)
(1.80028e-13 0 -1.40049e-13)
(2.19639e-13 0 -1.36946e-13)
(2.56985e-13 0 -1.29431e-13)
(2.91151e-13 0 -1.18325e-13)
(3.21452e-13 0 -1.04448e-13)
(3.47414e-13 0 -8.85749e-14)
(3.68753e-13 0 -7.14103e-14)
(3.85339e-13 0 -5.35642e-14)
(3.97168e-13 0 -3.55452e-14)
(4.04333e-13 0 -1.77628e-14)
(4.07008e-13 0 -5.3675e-16)
(4.05428e-13 0 1.58919e-14)
(3.99876e-13 0 3.13486e-14)
(3.90667e-13 0 4.57149e-14)
(3.78136e-13 0 5.89194e-14)
(3.62622e-13 0 7.09294e-14)
(3.44462e-13 0 8.17443e-14)
(3.23979e-13 0 9.13882e-14)
(3.01476e-13 0 9.99045e-14)
(2.77233e-13 0 1.0735e-13)
(2.51508e-13 0 1.13789e-13)
(2.2453e-13 0 1.19292e-13)
(1.96508e-13 0 1.23928e-13)
(1.67628e-13 0 1.27763e-13)
(1.38055e-13 0 1.30858e-13)
(1.0794e-13 0 1.33266e-13)
(7.74158e-14 0 1.35033e-13)
(4.66086e-14 0 1.36191e-13)
(1.55745e-14 0 1.36763e-13)
(7.88307e-05 0 -0.00040605)
(3.81694e-05 0 -0.000324287)
(7.34575e-05 0 -0.000227316)
(0.000113743 0 -0.000154567)
(0.000124475 0 -0.000159284)
(0.000153657 0 -0.000168518)
(0.000173624 0 -0.000192315)
(0.000221058 0 -0.000190951)
(0.000273541 0 -0.000193137)
(0.000269294 0 -0.00027798)
(0.000382472 0 -0.000148901)
(0.000370379 0 -0.000213266)
(0.000453501 0 -9.8113e-05)
(0.000427717 0 -0.00022835)
(0.000489461 0 -0.000170785)
(0.000465767 0 -0.000316421)
(0.000553127 0 -0.000158227)
(0.00059482 0 -0.000112151)
(0.00059862 0 -0.000232089)
(0.000642902 0 -0.000172859)
(0.000659857 0 -0.000154251)
(0.000663914 0 -0.00016646)
(0.000678182 0 -0.000190773)
(0.000724414 0 -0.000163686)
(0.000750147 0 -0.000107859)
(0.000746852 0 -9.40604e-05)
(0.000746178 0 -0.000107116)
(0.000760081 0 -8.07516e-05)
(0.000763431 0 -7.18561e-05)
(0.000762989 0 -4.60889e-05)
(0.000766094 0 -2.63309e-05)
(0.000772044 0 9.84948e-06)
(0.000764214 0 3.20418e-05)
(0.000752155 0 4.99061e-05)
(0.000742735 0 6.32976e-05)
(0.000735506 0 7.76782e-05)
(0.000723548 0 9.29535e-05)
(0.000695754 0 2.8427e-05)
(0.000646385 0 2.62322e-05)
(0.00061777 0 0.000122376)
(0.000604276 0 0.000101844)
(0.000558657 0 0.000126138)
(0.000515336 0 0.00019594)
(0.000504071 0 0.000202144)
(0.000492121 0 0.000190913)
(0.000471904 0 0.00019182)
(0.000460566 0 0.000197071)
(0.000452239 0 0.000193985)
(0.000442083 0 0.000170453)
(0.000431468 0 0.000133967)
(0.000418606 0 0.000108309)
(0.000401448 0 9.37045e-05)
(0.000381296 0 7.35164e-05)
(0.000358241 0 5.54453e-05)
(0.000336563 0 4.78366e-05)
(0.000322306 0 4.39073e-05)
(0.00031074 0 4.86858e-05)
(0.000297896 0 5.38447e-05)
(0.000281854 0 4.29693e-05)
(0.000256537 0 5.25852e-05)
(0.00023046 0 3.47738e-05)
(0.000210872 0 4.45473e-05)
(0.000201282 0 1.42261e-05)
(0.000183275 0 1.47204e-06)
(0.000176208 0 6.95536e-06)
(0.000161756 0 -1.55139e-05)
(0.000159087 0 -2.6771e-05)
(0.000159917 0 -3.20425e-05)
(0.000160849 0 -4.04961e-05)
(0.000170611 0 -4.2042e-05)
(0.000187602 0 5.43728e-06)
(0.000191477 0 -8.70296e-05)
(0.000211486 0 8.3983e-05)
(0.000223829 0 0.000120739)
(0.000260507 0 0.000123046)
(0.000130955 0 0.000289445)
(9.45585e-05 0 0.000375276)
(1.37135e-05 0 0.000439815)
(-5.23826e-05 0 0.000473978)
(-5.77827e-05 0 0.00046303)
(-4.69222e-07 0 0.000326903)
(3.35371e-15 0 2.13036e-13)
(-1.79476e-13 0 6.80902e-14)
(-1.36162e-13 0 2.43883e-14)
(-1.01103e-13 0 -1.57966e-14)
(-7.20369e-14 0 -5.80506e-14)
(-3.9875e-14 0 -9.74644e-14)
(-2.05836e-15 0 -1.30545e-13)
(4.07302e-14 0 -1.55692e-13)
(8.67627e-14 0 -1.72491e-13)
(1.34136e-13 0 -1.81201e-13)
(1.81082e-13 0 -1.8248e-13)
(2.26083e-13 0 -1.77222e-13)
(2.67907e-13 0 -1.66452e-13)
(3.05616e-13 0 -1.51247e-13)
(3.38548e-13 0 -1.32678e-13)
(3.66299e-13 0 -1.11753e-13)
(3.88681e-13 0 -8.93815e-14)
(4.05676e-13 0 -6.63468e-14)
(4.17398e-13 0 -4.32929e-14)
(4.2405e-13 0 -2.07279e-14)
(4.25906e-13 0 9.63497e-16)
(4.23283e-13 0 2.15025e-14)
(4.16533e-13 0 4.0698e-14)
(4.06031e-13 0 5.84304e-14)
(3.92156e-13 0 7.46376e-14)
(3.75289e-13 0 8.93038e-14)
(3.55796e-13 0 1.02449e-13)
(3.34024e-13 0 1.14122e-13)
(3.10291e-13 0 1.24389e-13)
(2.84892e-13 0 1.33334e-13)
(2.58086e-13 0 1.41046e-13)
(2.30109e-13 0 1.47617e-13)
(2.01165e-13 0 1.53137e-13)
(1.71434e-13 0 1.57692e-13)
(1.41076e-13 0 1.61361e-13)
(1.10229e-13 0 1.64211e-13)
(7.90185e-14 0 1.66298e-13)
(4.75564e-14 0 1.67665e-13)
(1.58879e-14 0 1.68339e-13)
(1.91343e-05 0 -0.000453675)
(2.49898e-05 0 -0.000333751)
(9.38353e-05 0 -0.000217342)
(6.05715e-05 0 -0.000201714)
(8.18677e-05 0 -0.000203857)
(0.000130413 0 -0.000205995)
(0.0001591 0 -0.000226145)
(0.000224774 0 -0.000209498)
(0.000237509 0 -0.000244062)
(0.00028034 0 -0.000254818)
(0.000299227 0 -0.000278364)
(0.000338328 0 -0.000236583)
(0.000381835 0 -0.000196607)
(0.000424574 0 -0.000194287)
(0.000329528 0 -0.000392288)
(0.000444084 0 -0.000261318)
(0.000425658 0 -0.000307557)
(0.000510708 0 -0.000182823)
(0.000585656 0 -7.41535e-05)
(0.000553611 0 -0.000247522)
(0.000559188 0 -0.000267726)
(0.000600119 0 -0.000181477)
(0.000624072 0 -0.000143747)
(0.000616686 0 -0.000172946)
(0.000612165 0 -0.000191045)
(0.000612651 0 -0.000189667)
(0.000617093 0 -0.000144684)
(0.000625364 0 -9.6851e-05)
(0.00063069 0 -7.47429e-05)
(0.00064119 0 -5.07236e-05)
(0.000637481 0 -7.97772e-05)
(0.000642073 0 2.38588e-05)
(0.000634138 0 -1.87707e-06)
(0.000626553 0 4.06868e-05)
(0.000609735 0 9.42144e-05)
(0.000589316 0 0.000112225)
(0.000567734 0 0.000145341)
(0.000537032 0 0.000162607)
(0.000500909 0 0.000228417)
(0.000490372 0 0.000250306)
(0.00048481 0 0.00022776)
(0.000457672 0 0.000213709)
(0.00041733 0 0.000258866)
(0.000433362 0 0.000228718)
(0.000431351 0 0.000220256)
(0.000423323 0 0.000213747)
(0.000411129 0 0.000212382)
(0.000398064 0 0.000191963)
(0.000389758 0 0.000157605)
(0.000386488 0 0.000133789)
(0.000376394 0 0.000124051)
(0.000363142 0 0.000104348)
(0.000343686 0 0.000102446)
(0.000324942 0 7.62e-05)
(0.000301542 0 4.39177e-05)
(0.000280189 0 2.19126e-05)
(0.000259877 0 1.98912e-05)
(0.000234167 0 3.88816e-05)
(0.0002014 0 6.32627e-05)
(0.00018515 0 3.8487e-05)
(0.000173482 0 1.11312e-05)
(0.000156624 0 -9.94473e-06)
(0.000128753 0 -2.23859e-05)
(7.87147e-05 0 -4.01789e-05)
(6.46412e-05 0 -2.40982e-05)
(6.86521e-05 0 -3.68606e-05)
(7.55744e-05 0 -5.36919e-05)
(8.44911e-05 0 -5.42283e-05)
(9.21636e-05 0 -5.2566e-05)
(9.83816e-05 0 -5.03823e-05)
(0.000114384 0 -3.99882e-05)
(0.000115144 0 7.10028e-06)
(0.000136158 0 5.55972e-05)
(0.000169979 0 0.000146389)
(0.000130065 0 0.000240348)
(8.78084e-05 0 0.000324775)
(5.81105e-05 0 0.000430544)
(-5.2469e-05 0 0.000538643)
(-0.000229509 0 0.000559987)
(-0.000268316 0 0.000383296)
(-1.26853e-06 0 8.46091e-05)
(1.91399e-14 0 -6.88724e-13)
(-3.66744e-13 0 -1.22392e-13)
(-1.73825e-13 0 -1.98149e-14)
(-1.39313e-13 0 -3.91574e-14)
(-1.14421e-13 0 -8.65237e-14)
(-7.89616e-14 0 -1.34448e-13)
(-3.36839e-14 0 -1.74505e-13)
(1.80973e-14 0 -2.04225e-13)
(7.32921e-14 0 -2.23242e-13)
(1.29308e-13 0 -2.32078e-13)
(1.84007e-13 0 -2.31695e-13)
(2.35667e-13 0 -2.23306e-13)
(2.82959e-13 0 -2.08255e-13)
(3.24924e-13 0 -1.87926e-13)
(3.60946e-13 0 -1.63679e-13)
(3.90711e-13 0 -1.36785e-13)
(4.14159e-13 0 -1.08381e-13)
(4.31428e-13 0 -7.94409e-14)
(4.42787e-13 0 -5.07526e-14)
(4.48589e-13 0 -2.29257e-14)
(4.49238e-13 0 3.59411e-15)
(4.45162e-13 0 2.84998e-14)
(4.36804e-13 0 5.15969e-14)
(4.24607e-13 0 7.27798e-14)
(4.09009e-13 0 9.20114e-14)
(3.90434e-13 0 1.09307e-13)
(3.6928e-13 0 1.24722e-13)
(3.45919e-13 0 1.38338e-13)
(3.20688e-13 0 1.50258e-13)
(2.9389e-13 0 1.60597e-13)
(2.6579e-13 0 1.69475e-13)
(2.36621e-13 0 1.77012e-13)
(2.06584e-13 0 1.83322e-13)
(1.75853e-13 0 1.88515e-13)
(1.44574e-13 0 1.92685e-13)
(1.12876e-13 0 1.95918e-13)
(8.08689e-14 0 1.98281e-13)
(4.86496e-14 0 1.99826e-13)
(1.62492e-14 0 2.00588e-13)
(1.74489e-05 0 -0.000476334)
(1.86876e-05 0 -0.000332253)
(-2.9742e-05 0 -0.000257339)
(8.18642e-05 0 -0.000224366)
(9.9182e-05 0 -0.000219907)
(0.000112614 0 -0.000237714)
(0.000146621 0 -0.000256791)
(0.000182475 0 -0.000271529)
(0.000213688 0 -0.000279729)
(0.000248271 0 -0.000287678)
(0.000289821 0 -0.00024788)
(0.000299005 0 -0.000235603)
(0.000308501 0 -0.000243712)
(0.000392273 0 -0.000169783)
(0.000412 0 -0.000221876)
(0.000390471 0 -0.000295195)
(0.000410869 0 -0.000253607)
(0.000431438 0 -0.000213119)
(0.000417762 0 -0.000277158)
(0.000490793 0 -0.000197724)
(0.000507943 0 -0.000158345)
(0.000495254 0 -0.000175714)
(0.000499768 0 -0.000178519)
(0.000506862 0 -0.000166124)
(0.000510942 0 -0.000147646)
(0.000511373 0 -0.000124223)
(0.000484305 0 -0.000119934)
(0.000476718 0 -9.21443e-05)
(0.000484714 0 -8.43971e-05)
(0.00050743 0 -4.97961e-05)
(0.000503934 0 -7.13098e-05)
(0.000508567 0 1.6543e-05)
(0.000494228 0 -6.17141e-05)
(0.00049419 0 4.12644e-05)
(0.000486535 0 4.84376e-05)
(0.00047513 0 2.86738e-05)
(0.000443864 0 0.000133413)
(0.000435742 0 0.000158552)
(0.000437766 0 0.000181211)
(0.000426292 0 0.000215729)
(0.000418441 0 0.000213742)
(0.000392884 0 0.000219043)
(0.000371091 0 0.000249978)
(0.000375202 0 0.000247559)
(0.000374618 0 0.000240862)
(0.000365814 0 0.000234081)
(0.000350749 0 0.000226012)
(0.000347155 0 0.000198282)
(0.000348167 0 0.000174447)
(0.000341023 0 0.000158736)
(0.000328723 0 0.000138909)
(0.000319432 0 0.000112204)
(0.000302797 0 0.000102783)
(0.000274909 0 0.000101743)
(0.00023803 0 0.000104165)
(0.000209195 0 0.00010093)
(0.000207414 0 6.93765e-05)
(0.000198003 0 5.72068e-05)
(0.00018057 0 6.26039e-05)
(0.000150771 0 9.61719e-05)
(5.59858e-05 0 9.6302e-05)
(7.60928e-06 0 8.49122e-05)
(-1.17107e-06 0 6.55523e-05)
(5.45266e-06 0 1.56131e-05)
(1.58343e-05 0 -1.17494e-05)
(3.16582e-05 0 -3.96756e-05)
(4.65267e-05 0 -5.11882e-05)
(6.17773e-05 0 -5.72334e-05)
(6.76953e-05 0 -6.44777e-05)
(7.29795e-05 0 -6.79152e-05)
(8.19556e-05 0 -5.65764e-05)
(8.54269e-05 0 -3.58472e-05)
(9.52811e-05 0 4.85153e-05)
(6.26276e-05 0 0.000189508)
(9.15199e-05 0 0.00026742)
(2.40357e-05 0 0.00037127)
(-3.07149e-05 0 0.000506244)
(-0.000174834 0 0.000616234)
(-0.000206374 0 0.000637791)
(-8.02016e-05 0 7.26684e-05)
(-6.44859e-09 0 6.15844e-09)
(4.68155e-13 0 1.91983e-13)
(4.89592e-13 0 1.50813e-13)
(-5.28879e-14 0 5.76601e-14)
(-1.67812e-13 0 -3.47403e-14)
(-1.67327e-13 0 -1.14639e-13)
(-1.27856e-13 0 -1.79456e-13)
(-7.18351e-14 0 -2.28922e-13)
(-8.00677e-15 0 -2.63541e-13)
(5.89094e-14 0 -2.84233e-13)
(1.25683e-13 0 -2.92226e-13)
(1.89853e-13 0 -2.88991e-13)
(2.49523e-13 0 -2.76177e-13)
(3.03287e-13 0 -2.55524e-13)
(3.50191e-13 0 -2.28787e-13)
(3.8969e-13 0 -1.97657e-13)
(4.21597e-13 0 -1.63698e-13)
(4.46024e-13 0 -1.28296e-13)
(4.63305e-13 0 -9.26244e-14)
(4.73913e-13 0 -5.76221e-14)
(4.78397e-13 0 -2.39982e-14)
(4.77331e-13 0 7.74773e-15)
(4.71286e-13 0 3.72931e-14)
(4.60813e-13 0 6.44565e-14)
(4.46445e-13 0 8.91643e-14)
(4.28684e-13 0 1.11423e-13)
(4.08e-13 0 1.31296e-13)
(3.84827e-13 0 1.48889e-13)
(3.5956e-13 0 1.64333e-13)
(3.32551e-13 0 1.77776e-13)
(3.04108e-13 0 1.89373e-13)
(2.74501e-13 0 1.99283e-13)
(2.43956e-13 0 2.07657e-13)
(2.12668e-13 0 2.14641e-13)
(1.80797e-13 0 2.20366e-13)
(1.48479e-13 0 2.2495e-13)
(1.15824e-13 0 2.28494e-13)
(8.29261e-14 0 2.31078e-13)
(4.98636e-14 0 2.32765e-13)
(1.66502e-14 0 2.33597e-13)
(3.5402e-06 0 -0.000491914)
(5.30663e-06 0 -0.000343662)
(7.84554e-05 0 -0.000268514)
(5.66995e-05 0 -0.000251171)
(7.2271e-05 0 -0.00025395)
(0.00010461 0 -0.000269663)
(0.000143034 0 -0.000287306)
(0.000159861 0 -0.000303984)
(0.000200985 0 -0.000289642)
(0.000184093 0 -0.000294071)
(0.000185463 0 -0.000305241)
(0.000226293 0 -0.000282364)
(0.000258229 0 -0.000267069)
(0.000270058 0 -0.000283944)
(0.000346847 0 -0.000246489)
(0.000335614 0 -0.000284712)
(0.000323213 0 -0.000296009)
(0.000313115 0 -0.000284002)
(0.000352985 0 -0.000221273)
(0.000355854 0 -0.000229163)
(0.000366265 0 -0.000222604)
(0.00035356 0 -0.000227291)
(0.000379074 0 -0.000168786)
(0.000371746 0 -0.000160308)
(0.000358495 0 -0.000159887)
(0.000375108 0 -0.000106102)
(0.00034409 0 -0.000138044)
(0.000340466 0 -0.000119927)
(0.000349426 0 -9.38686e-05)
(0.000360771 0 -4.61923e-05)
(0.000356323 0 -2.48997e-06)
(0.000360047 0 3.77398e-05)
(0.000359148 0 1.68152e-05)
(0.000347163 0 8.03705e-05)
(0.000343234 0 0.00010401)
(0.000331098 0 0.000132978)
(0.000332118 0 0.00015042)
(0.000351734 0 0.000160899)
(0.000338739 0 0.00021958)
(0.00032857 0 0.000235564)
(0.000327956 0 0.000233078)
(0.000311618 0 0.000248914)
(0.000304941 0 0.000265593)
(0.000319024 0 0.000249586)
(0.000318197 0 0.000241986)
(0.000311649 0 0.000231341)
(0.000307294 0 0.0002194)
(0.000309098 0 0.000205236)
(0.000309051 0 0.000186234)
(0.00029929 0 0.000166406)
(0.000285682 0 0.000147324)
(0.000255475 0 0.000162674)
(0.00024036 0 0.000149385)
(0.000225432 0 0.000126434)
(0.000208169 0 9.23853e-05)
(0.000203934 0 6.90694e-05)
(9.8514e-05 0 0.000106202)
(9.16884e-06 0 0.000124306)
(-4.08238e-05 0 0.000124994)
(-6.22104e-05 0 0.000124273)
(-5.1534e-05 0 0.000101401)
(-6.80555e-05 0 5.85007e-05)
(-5.40579e-05 0 1.50694e-05)
(-3.69592e-05 0 -1.49985e-05)
(-1.87827e-05 0 -4.13038e-05)
(1.79094e-06 0 -6.43088e-05)
(1.95996e-05 0 -7.3688e-05)
(3.2286e-05 0 -7.97984e-05)
(4.85059e-05 0 -7.79213e-05)
(6.1575e-05 0 -7.42161e-05)
(6.16604e-05 0 -6.42797e-05)
(6.81194e-05 0 -4.44391e-05)
(3.83596e-05 0 3.99497e-05)