/*--------------------------------*- C++ -*----------------------------------*\
  =========                 |
  \\      /  F ield         | OpenFOAM: The Open Source CFD Toolbox
   \\    /   O peration     | Website:  https://openfoam.org
    \\  /    A nd           | Version:  6
     \\/     M anipulation  |
\*---------------------------------------------------------------------------*/
FoamFile
{
    version     2.0;
    format      ascii;
    class       volScalarField;
    location    "50";
    object      T;
}
// * * * * * * * * * * * * * * * * * * * * * * * * * * * * * * * * * * * * * //

dimensions      [0 0 0 1 0 0 0];

internalField   nonuniform List<scalar> 
4800
(
552.53
552.491
552.452
552.412
552.372
552.332
552.291
552.249
552.207
552.164
552.12
552.075
552.029
551.982
551.933
551.883
551.832
551.779
551.725
551.669
551.611
551.551
551.489
551.425
551.359
551.291
551.221
551.148
551.073
550.996
550.916
550.833
550.748
550.659
550.568
550.474
550.377
550.276
550.172
550.064
549.952
549.836
549.716
549.591
549.461
549.327
549.187
549.041
548.89
548.732
548.569
548.401
548.228
548.053
547.879
547.712
547.554
547.405
547.267
547.137
547.014
546.894
546.777
546.661
546.545
546.428
546.309
546.187
546.063
545.936
545.807
545.676
545.544
545.411
545.279
545.148
545.018
544.89
544.765
544.64
544.513
544.38
544.246
544.11
543.973
543.837
543.702
543.568
543.436
543.306
543.178
543.053
542.93
542.809
542.692
542.577
542.465
542.357
542.251
542.148
542.048
541.951
541.857
541.766
541.677
541.591
541.507
541.426
541.347
541.271
541.196
541.123
541.052
540.982
540.913
540.846
540.779
540.713
540.648
540.582
552.53
552.491
552.452
552.412
552.372
552.332
552.291
552.25
552.208
552.165
552.121
552.076
552.03
551.983
551.934
551.884
551.833
551.78
551.726
551.67
551.612
551.552
551.491
551.427
551.361
551.293
551.223
551.15
551.075
550.998
550.918
550.836
550.75
550.662
550.571
550.477
550.38
550.279
550.175
550.068
549.956
549.841
549.721
549.596
549.467
549.333
549.194
549.049
548.899
548.743
548.581
548.415
548.245
548.073
547.903
547.738
547.582
547.436
547.3
547.171
547.049
546.929
546.811
546.695
546.579
546.461
546.341
546.219
546.093
545.965
545.835
545.703
545.57
545.437
545.304
545.171
545.039
544.908
544.78
544.652
544.521
544.387
544.251
544.114
543.977
543.84
543.705
543.57
543.438
543.308
543.18
543.054
542.931
542.81
542.693
542.578
542.466
542.357
542.251
542.148
542.048
541.951
541.857
541.766
541.677
541.591
541.508
541.427
541.348
541.271
541.196
541.123
541.052
540.982
540.913
540.846
540.779
540.713
540.648
540.583
552.53
552.491
552.452
552.413
552.373
552.333
552.292
552.251
552.209
552.166
552.122
552.077
552.032
551.985
551.936
551.887
551.836
551.783
551.729
551.673
551.615
551.556
551.494
551.431
551.365
551.297
551.227
551.155
551.08
551.003
550.923
550.841
550.756
550.668
550.577
550.484
550.387
550.287
550.183
550.076
549.965
549.85
549.731
549.607
549.479
549.346
549.208
549.065
548.917
548.764
548.606
548.443
548.277
548.111
547.946
547.788
547.637
547.494
547.36
547.234
547.111
546.991
546.873
546.756
546.638
546.518
546.396
546.271
546.143
546.013
545.882
545.749
545.614
545.48
545.345
545.209
545.074
544.939
544.805
544.672
544.536
544.398
544.26
544.121
543.983
543.846
543.709
543.575
543.442
543.311
543.182
543.056
542.933
542.812
542.694
542.58
542.468
542.359
542.253
542.15
542.05
541.952
541.858
541.767
541.678
541.592
541.508
541.427
541.348
541.271
541.196
541.123
541.052
540.982
540.913
540.846
540.779
540.713
540.648
540.583
552.531
552.492
552.453
552.414
552.374
552.334
552.293
552.252
552.211
552.168
552.124
552.08
552.034
551.988
551.94
551.89
551.84
551.787
551.733
551.678
551.62
551.561
551.499
551.436
551.371
551.303
551.233
551.161
551.087
551.01
550.931
550.849
550.764
550.676
550.586
550.493
550.397
550.297
550.194
550.087
549.977
549.863
549.745
549.623
549.496
549.365
549.229
549.089
548.944
548.794
548.64
548.483
548.324
548.164
548.007
547.854
547.709
547.571
547.442
547.317
547.196
547.075
546.956
546.837
546.717
546.594
546.467
546.338
546.207
546.073
545.938
545.802
545.665
545.528
545.39
545.252
545.113
544.975
544.836
544.697
544.555
544.414
544.273
544.132
543.992
543.854
543.716
543.581
543.447
543.316
543.187
543.06
542.936
542.815
542.697
542.582
542.47
542.361
542.254
542.151
542.051
541.954
541.859
541.768
541.679
541.593
541.509
541.428
541.349
541.272
541.197
541.124
541.052
540.982
540.914
540.846
540.779
540.713
540.648
540.583
552.531
552.492
552.453
552.414
552.375
552.335
552.295
552.254
552.213
552.171
552.127
552.083
552.038
551.992
551.944
551.895
551.845
551.793
551.739
551.684
551.626
551.567
551.506
551.443
551.378
551.311
551.242
551.17
551.096
551.019
550.94
550.859
550.775
550.688
550.598
550.505
550.41
550.311
550.208
550.103
549.994
549.881
549.764
549.643
549.519
549.39
549.256
549.119
548.977
548.832
548.684
548.533
548.38
548.229
548.08
547.936
547.798
547.665
547.538
547.415
547.293
547.172
547.051
546.93
546.806
546.679
546.548
546.415
546.278
546.14
546.001
545.861
545.72
545.579
545.438
545.296
545.153
545.011
544.867
544.724
544.578
544.433
544.289
544.146
544.004
543.864
543.725
543.589
543.454
543.322
543.192
543.065
542.941
542.819
542.701
542.585
542.473
542.363
542.257
542.154
542.053
541.956
541.861
541.769
541.681
541.594
541.51
541.429
541.35
541.273
541.198
541.125
541.053
540.983
540.914
540.846
540.78
540.713
540.648
540.583
552.531
552.493
552.454
552.416
552.377
552.337
552.298
552.257
552.216
552.174
552.131
552.088
552.043
551.997
551.949
551.901
551.851
551.799
551.746
551.691
551.634
551.576
551.515
551.453
551.388
551.321
551.252
551.181
551.107
551.031
550.952
550.871
550.788
550.701
550.612
550.52
550.425
550.327
550.226
550.122
550.014
549.902
549.787
549.668
549.545
549.419
549.289
549.155
549.017
548.876
548.733
548.589
548.444
548.3
548.159
548.022
547.889
547.762
547.638
547.516
547.395
547.274
547.151
547.027
546.9
546.768
546.633
546.494
546.353
546.21
546.067
545.922
545.777
545.632
545.486
545.34
545.193
545.046
544.899
544.753
544.603
544.454
544.307
544.162
544.018
543.876
543.736
543.598
543.462
543.329
543.199
543.071
542.946
542.824
542.705
542.589
542.477
542.367
542.26
542.156
542.056
541.958
541.863
541.771
541.682
541.596
541.512
541.43
541.351
541.274
541.199
541.125
541.054
540.984
540.915
540.847
540.78
540.714
540.648
540.583
552.531
552.493
552.455
552.417
552.379
552.34
552.3
552.26
552.22
552.178
552.136
552.093
552.048
552.003
551.956
551.908
551.858
551.807
551.755
551.7
551.644
551.586
551.526
551.464
551.399
551.333
551.264
551.193
551.12
551.045
550.967
550.886
550.803
550.718
550.629
550.538
550.444
550.347
550.247
550.144
550.037
549.927
549.814
549.697
549.576
549.453
549.325
549.195
549.061
548.926
548.788
548.649
548.51
548.373
548.239
548.107
547.98
547.856
547.735
547.615
547.494
547.373
547.248
547.121
546.989
546.854
546.714
546.571
546.426
546.28
546.132
545.984
545.835
545.685
545.535
545.385
545.234
545.084
544.933
544.783
544.629
544.477
544.327
544.179
544.033
543.889
543.748
543.609
543.472
543.338
543.207
543.078
542.953
542.83
542.71
542.594
542.481
542.371
542.264
542.16
542.059
541.961
541.866
541.774
541.684
541.598
541.514
541.432
541.352
541.275
541.2
541.126
541.055
540.984
540.915
540.847
540.78
540.714
540.648
540.583
552.531
552.494
552.457
552.419
552.381
552.343
552.304
552.264
552.224
552.183
552.141
552.099
552.055
552.01
551.964
551.916
551.867
551.817
551.765
551.711
551.655
551.597
551.538
551.476
551.412
551.346
551.278
551.208
551.135
551.06
550.983
550.903
550.821
550.736
550.649
550.558
550.465
550.369
550.27
550.168
550.063
549.955
549.844
549.729
549.611
549.49
549.366
549.239
549.109
548.978
548.845
548.712
548.579
548.447
548.318
548.191
548.067
547.946
547.827
547.707
547.586
547.464
547.337
547.208
547.073
546.935
546.792
546.646
546.498
546.348
546.196
546.044
545.891
545.738
545.583
545.429
545.275
545.12
544.966
544.812
544.655
544.5
544.348
544.198
544.05
543.904
543.761
543.62
543.482
543.347
543.215
543.086
542.959
542.836
542.716
542.599
542.486
542.375
542.268
542.163
542.062
541.964
541.869
541.776
541.687
541.6
541.515
541.434
541.354
541.277
541.201
541.127
541.056
540.985
540.916
540.848
540.781
540.714
540.648
540.583
552.532
552.495
552.458
552.421
552.384
552.346
552.308
552.269
552.229
552.189
552.148
552.106
552.063
552.018
551.973
551.926
551.878
551.828
551.776
551.723
551.668
551.611
551.551
551.49
551.427
551.362
551.294
551.224
551.152
551.078
551.001
550.922
550.841
550.757
550.67
550.581
550.489
550.394
550.296
550.196
550.092
549.986
549.876
549.764
549.648
549.53
549.409
549.285
549.16
549.033
548.904
548.776
548.647
548.52
548.395
548.271
548.15
548.03
547.911
547.792
547.67
547.547
547.419
547.287
547.151
547.01
546.865
546.716
546.565
546.412
546.258
546.102
545.946
545.789
545.632
545.474
545.315
545.157
544.999
544.842
544.682
544.525
544.369
544.217
544.067
543.919
543.775
543.633
543.493
543.357
543.224
543.094
542.967
542.843
542.722
542.605
542.491
542.38
542.272
542.167
542.066
541.967
541.872
541.779
541.689
541.602
541.518
541.436
541.356
541.278
541.203
541.129
541.057
540.986
540.917
540.848
540.781
540.715
540.649
540.583
552.532
552.496
552.46
552.423
552.387
552.35
552.312
552.274
552.235
552.196
552.155
552.114
552.071
552.028
551.983
551.937
551.889
551.84
551.789
551.736
551.682
551.625
551.567
551.506
551.443
551.378
551.311
551.242
551.171
551.097
551.021
550.943
550.862
550.779
550.693
550.605
550.514
550.421
550.324
550.225
550.123
550.019
549.911
549.801
549.688
549.572
549.454
549.334
549.212
549.089
548.964
548.84
548.715
548.592
548.469
548.348
548.228
548.109
547.99
547.87
547.748
547.623
547.494
547.361
547.223
547.08
546.934
546.783
546.631
546.475
546.318
546.16
546
545.84
545.679
545.518
545.356
545.194
545.033
544.872
544.709
544.549
544.391
544.236
544.084
543.935
543.789
543.645
543.505
543.368
543.234
543.103
542.975
542.85
542.729
542.611
542.496
542.385
542.277
542.172
542.07
541.971
541.875
541.782
541.692
541.605
541.52
541.438
541.358
541.28
541.204
541.13
541.058
540.987
540.918
540.849
540.782
540.715
540.649
540.583
552.532
552.497
552.462
552.426
552.39
552.354
552.317
552.28
552.242
552.203
552.163
552.123
552.081
552.038
551.994
551.949
551.902
551.854
551.803
551.751
551.697
551.642
551.584
551.523
551.461
551.397
551.33
551.262
551.191
551.118
551.042
550.965
550.885
550.803
550.718
550.631
550.541
550.449
550.354
550.256
550.156
550.053
549.948
549.839
549.729
549.616
549.501
549.384
549.265
549.145
549.025
548.903
548.782
548.661
548.541
548.422
548.303
548.184
548.065
547.944
547.821
547.695
547.564
547.43
547.29
547.147
546.999
546.847
546.693
546.535
546.376
546.215
546.052
545.889
545.725
545.56
545.396
545.231
545.065
544.902
544.736
544.573
544.413
544.256
544.102
543.951
543.803
543.658
543.517
543.378
543.243
543.112
542.983
542.858
542.736
542.617
542.502
542.39
542.282
542.176
542.074
541.975
541.879
541.786
541.695
541.608
541.523
541.44
541.36
541.282
541.206
541.132
541.059
540.988
540.918
540.85
540.782
540.715
540.649
540.583
552.533
552.498
552.464
552.429
552.394
552.359
552.323
552.286
552.249
552.211
552.173
552.133
552.092
552.05
552.007
551.962
551.916
551.869
551.819
551.768
551.715
551.659
551.602
551.542
551.48
551.416
551.35
551.282
551.212
551.139
551.065
550.988
550.909
550.828
550.744
550.658
550.569
550.478
550.385
550.289
550.19
550.089
549.985
549.879
549.771
549.661
549.548
549.434
549.319
549.202
549.084
548.966
548.847
548.729
548.61
548.492
548.374
548.255
548.135
548.014
547.89
547.762
547.631
547.495
547.355
547.21
547.061
546.908
546.752
546.593
546.431
546.267
546.102
545.936
545.768
545.601
545.433
545.265
545.097
544.93
544.761
544.596
544.434
544.275
544.119
543.967
543.817
543.671
543.529
543.389
543.253
543.121
542.991
542.865
542.743
542.624
542.508
542.396
542.287
542.181
542.078
541.979
541.882
541.789
541.698
541.61
541.525
541.442
541.362
541.284
541.207
541.133
541.06
540.989
540.919
540.851
540.783
540.716
540.649
540.583
552.533
552.5
552.467
552.433
552.399
552.364
552.329
552.294
552.258
552.221
552.183
552.144
552.104
552.063
552.021
551.977
551.932
551.885
551.836
551.786
551.733
551.678
551.621
551.562
551.501
551.437
551.371
551.304
551.234
551.162
551.088
551.012
550.934
550.854
550.771
550.686
550.599
550.509
550.417
550.322
550.225
550.126
550.024
549.92
549.814
549.706
549.596
549.485
549.372
549.258
549.143
549.027
548.911
548.794
548.677
548.56
548.442
548.323
548.203
548.081
547.955
547.827
547.694
547.557
547.416
547.27
547.12
546.966
546.808
546.647
546.483
546.318
546.15
545.98
545.81
545.639
545.467
545.296
545.125
544.956
544.786
544.618
544.454
544.293
544.136
543.982
543.831
543.684
543.54
543.4
543.263
543.129
543
542.873
542.75
542.631
542.514
542.402
542.292
542.186
542.083
541.983
541.886
541.793
541.702
541.613
541.528
541.445
541.364
541.286
541.209
541.135
541.062
540.99
540.92
540.852
540.784
540.716
540.65
540.583
552.534
552.502
552.469
552.437
552.404
552.37
552.337
552.302
552.267
552.231
552.194
552.156
552.117
552.077
552.036
551.993
551.949
551.903
551.855
551.805
551.753
551.698
551.642
551.583
551.522
551.458
551.393
551.326
551.257
551.185
551.112
551.037
550.96
550.88
550.798
550.714
550.628
550.54
550.449
550.355
550.26
550.162
550.063
549.961
549.857
549.751
549.644
549.535
549.424
549.313
549.2
549.086
548.972
548.857
548.741
548.625
548.507
548.388
548.268
548.144
548.018
547.888
547.754
547.616
547.474
547.327
547.176
547.02
546.861
546.699
546.533
546.365
546.195
546.023
545.85
545.675
545.5
545.325
545.153
544.982
544.809
544.639
544.473
544.31
544.151
543.996
543.844
543.696
543.551
543.41
543.272
543.138
543.008
542.881
542.757
542.637
542.52
542.407
542.297
542.191
542.087
541.987
541.89
541.796
541.705
541.616
541.531
541.447
541.366
541.288
541.211
541.136
541.063
540.992
540.921
540.852
540.784
540.717
540.65
540.583
552.535
552.504
552.473
552.441
552.409
552.377
552.345
552.311
552.277
552.242
552.207
552.17
552.132
552.093
552.052
552.01
551.967
551.922
551.874
551.825
551.773
551.719
551.663
551.604
551.543
551.48
551.415
551.348
551.279
551.209
551.136
551.062
550.985
550.906
550.826
550.743
550.658
550.57
550.481
550.389
550.295
550.199
550.101
550.001
549.899
549.795
549.69
549.584
549.476
549.366
549.256
549.144
549.032
548.918
548.803
548.687
548.57
548.451
548.329
548.205
548.078
547.947
547.812
547.673
547.53
547.382
547.229
547.072
546.912
546.747
546.58
546.41
546.237
546.063
545.887
545.711
545.534
545.358
545.182
545.006
544.83
544.658
544.49
544.326
544.166
544.009
543.856
543.707
543.561
543.419
543.281
543.147
543.015
542.888
542.764
542.643
542.526
542.413
542.303
542.196
542.092
541.992
541.894
541.8
541.708
541.62
541.534
541.45
541.369
541.29
541.213
541.138
541.065
540.993
540.922
540.853
540.785
540.717
540.65
540.583
552.535
552.506
552.476
552.446
552.416
552.385
552.353
552.321
552.289
552.255
552.22
552.184
552.147
552.109
552.07
552.029
551.986
551.942
551.895
551.846
551.795
551.741
551.685
551.626
551.565
551.502
551.437
551.371
551.302
551.232
551.16
551.086
551.01
550.932
550.852
550.77
550.686
550.6
550.512
550.421
550.329
550.234
550.138
550.04
549.94
549.839
549.736
549.631
549.525
549.418
549.31
549.2
549.089
548.977
548.863
548.748
548.63
548.511
548.389
548.264
548.136
548.004
547.868
547.728
547.583
547.434
547.28
547.122
546.96
546.794
546.624
546.452
546.277
546.101
545.923
545.744
545.565
545.385
545.206
545.027
544.849
544.675
544.505
544.34
544.178
544.021
543.867
543.717
543.571
543.428
543.289
543.154
543.023
542.895
542.771
542.65
542.532
542.418
542.308
542.201
542.097
541.996
541.898
541.803
541.712
541.623
541.536
541.453
541.371
541.292
541.215
541.14
541.066
540.994
540.924
540.854
540.786
540.718
540.65
540.583
552.536
552.508
552.48
552.451
552.423
552.393
552.363
552.332
552.301
552.268
552.235
552.2
552.164
552.127
552.088
552.048
552.006
551.963
551.917
551.868
551.817
551.763
551.707
551.648
551.587
551.524
551.459
551.392
551.324
551.254
551.182
551.109
551.034
550.957
550.878
550.797
550.714
550.629
550.541
550.452
550.361
550.268
550.174
550.078
549.98
549.88
549.779
549.677
549.573
549.468
549.362
549.254
549.144
549.033
548.92
548.805
548.688
548.569
548.447
548.321
548.192
548.059
547.922
547.781
547.635
547.485
547.33
547.17
547.006
546.838
546.666
546.492
546.315
546.135
545.955
545.773
545.591
545.409
545.226
545.044
544.864
544.689
544.518
544.351
544.189
544.03
543.876
543.726
543.579
543.436
543.297
543.162
543.03
542.901
542.777
542.656
542.538
542.424
542.313
542.205
542.101
542
541.902
541.807
541.715
541.626
541.539
541.455
541.374
541.294
541.217
541.141
541.068
540.995
540.925
540.855
540.786
540.718
540.651
540.584
552.537
552.511
552.484
552.457
552.43
552.402
552.374
552.345
552.314
552.283
552.251
552.217
552.182
552.146
552.108
552.068
552.027
551.984
551.939
551.89
551.839
551.785
551.729
551.669
551.608
551.544
551.479
551.412
551.344
551.274
551.203
551.13
551.055
550.979
550.901
550.821
550.739
550.655
550.569
550.481
550.392
550.3
550.207
550.113
550.017
549.92
549.821
549.721
549.619
549.516
549.412
549.306
549.198
549.088
548.976
548.862
548.745
548.625
548.503
548.377
548.247
548.113
547.975
547.833
547.686
547.534
547.377
547.216
547.051
546.881
546.707
546.53
546.35
546.167
545.984
545.799
545.614
545.428
545.242
545.058
544.877
544.7
544.528
544.36
544.197
544.038
543.884
543.733
543.586
543.443
543.304
543.168
543.036
542.907
542.783
542.661
542.543
542.429
542.318
542.21
542.105
542.004
541.906
541.81
541.718
541.629
541.542
541.458
541.376
541.296
541.219
541.143
541.069
540.997
540.926
540.856
540.787
540.719
540.651
540.584
552.538
552.514
552.489
552.464
552.439
552.412
552.386
552.358
552.329
552.299
552.267
552.235
552.2
552.165
552.128
552.089
552.048
552.006
551.96
551.912
551.861
551.806
551.749
551.689
551.626
551.562
551.497
551.43
551.361
551.292
551.221
551.148
551.074
550.999
550.922
550.843
550.762
550.679
550.594
550.507
550.419
550.33
550.239
550.146
550.052
549.957
549.861
549.763
549.663
549.563
549.46
549.356
549.249
549.141
549.03
548.916
548.8
548.68
548.558
548.431
548.301
548.166
548.027
547.884
547.736
547.583
547.425
547.262
547.094
546.922
546.746
546.566
546.382
546.197
546.01
545.822
545.633
545.444
545.255
545.069
544.886
544.708
544.535
544.367
544.203
544.044
543.89
543.739
543.592
543.449
543.309
543.174
543.042
542.913
542.788
542.666
542.548
542.433
542.322
542.214
542.109
542.008
541.909
541.814
541.721
541.632
541.545
541.46
541.378
541.298
541.22
541.145
541.07
540.998
540.927
540.857
540.787
540.719
540.651
540.584
552.539
552.517
552.494
552.471
552.448
552.423
552.398
552.372
552.344
552.315
552.285
552.253
552.22
552.185
552.148
552.109
552.069
552.027
551.981
551.932
551.88
551.825
551.766
551.705
551.642
551.577
551.511
551.444
551.375
551.306
551.235
551.163
551.089
551.015
550.938
550.86
550.78
550.698
550.615
550.53
550.443
550.355
550.266
550.176
550.084
549.991
549.897
549.802
549.705
549.607
549.506
549.404
549.3
549.193
549.083
548.97
548.854
548.735
548.612
548.486
548.355
548.22
548.08
547.935
547.786
547.632
547.472
547.308
547.138
546.963
546.784
546.601
546.414
546.225
546.033
545.841
545.648
545.455
545.264
545.075
544.891
544.712
544.539
544.37
544.207
544.048
543.893
543.743
543.596
543.453
543.314
543.179
543.046
542.918
542.793
542.671
542.553
542.438
542.326
542.218
542.113
542.011
541.913
541.817
541.724
541.634
541.547
541.463
541.38
541.3
541.222
541.146
541.072
540.999
540.928
540.857
540.788
540.72
540.652
540.584
552.54
552.52
552.5
552.479
552.457
552.435
552.411
552.387
552.36
552.333
552.303
552.272
552.239
552.204
552.168
552.129
552.089
552.046
551.999
551.949
551.895
551.839
551.78
551.718
551.654
551.589
551.522
551.454
551.385
551.315
551.244
551.172
551.099
551.025
550.949
550.872
550.793
550.713
550.631
550.548
550.463
550.377
550.29
550.202
550.113
550.023
549.932
549.839
549.745
549.649
549.551
549.452
549.349
549.244
549.136
549.024
548.909
548.791
548.668
548.541
548.41
548.274
548.134
547.988
547.838
547.682
547.521
547.355
547.183
547.005
546.823
546.637
546.446
546.252
546.056
545.857
545.657
545.46
545.267
545.079
544.893
544.713
544.539
544.371
544.208
544.049
543.895
543.746
543.599
543.457
543.318
543.183
543.051
542.922
542.797
542.675
542.557
542.442
542.33
542.222
542.117
542.015
541.916
541.82
541.727
541.637
541.55
541.465
541.382
541.302
541.224
541.148
541.073
541
540.929
540.858
540.789
540.72
540.652
540.584
552.541
552.524
552.506
552.487
552.468
552.447
552.425
552.402
552.377
552.351
552.322
552.292
552.259
552.224
552.187
552.148
552.106
552.061
552.013
551.961
551.906
551.848
551.788
551.725
551.661
551.595
551.527
551.458
551.389
551.318
551.247
551.175
551.102
551.028
550.954
550.878
550.8
550.722
550.642
550.56
550.478
550.395
550.31
550.225
550.139
550.051
549.963
549.874
549.783
549.69
549.596
549.498
549.398
549.295
549.189
549.079
548.965
548.847
548.725
548.599
548.468
548.332
548.191
548.044
547.893
547.735
547.573
547.404
547.229
547.049
546.864
546.674
546.479
546.282
546.081
545.879
545.677
545.476
545.277
545.081
544.891
544.709
544.535
544.367
544.205
544.048
543.895
543.746
543.601
543.459
543.321
543.186
543.054
542.926
542.801
542.679
542.561
542.445
542.334
542.225
542.12
542.018
541.919
541.823
541.73
541.64
541.552
541.467
541.384
541.304
541.226
541.149
541.074
541.001
540.93
540.859
540.789
540.72
540.652
540.584
552.542
552.527
552.512
552.495
552.478
552.459
552.439
552.418
552.394
552.369
552.341
552.311
552.278
552.243
552.205
552.164
552.12
552.073
552.021
551.967
551.91
551.851
551.79
551.727
551.662
551.595
551.526
551.456
551.385
551.314
551.242
551.169
551.096
551.023
550.949
550.874
550.799
550.722
550.645
550.566
550.487
550.407
550.325
550.243
550.161
550.077
549.993
549.907
549.82
549.731
549.64
549.546
549.449
549.348
549.244
549.136
549.024
548.907
548.786
548.661
548.53
548.394
548.252
548.105
547.952
547.792
547.628
547.456
547.279
547.095
546.906
546.713
546.515
546.313
546.109
545.903
545.696
545.489
545.283
545.079
544.882
544.698
544.525
544.36
544.2
544.045
543.893
543.746
543.601
543.46
543.323
543.188
543.057
542.929
542.804
542.682
542.564
542.449
542.337
542.228
542.123
542.021
541.922
541.826
541.732
541.642
541.554
541.469
541.386
541.306
541.227
541.15
541.076
541.002
540.93
540.86
540.79
540.721
540.652
540.584
552.544
552.531
552.518
552.504
552.488
552.472
552.453
552.433
552.411
552.386
552.359
552.329
552.296
552.259
552.22
552.177
552.13
552.079
552.025
551.968
551.909
551.848
551.786
551.722
551.656
551.588
551.518
551.447
551.374
551.301
551.227
551.153
551.08
551.007
550.934
550.861
550.788
550.714
550.64
550.565
550.489
550.413
550.336
550.258
550.18
550.1
550.02
549.939
549.856
549.772
549.685
549.595
549.501
549.404
549.302
549.197
549.086
548.972
548.852
548.728
548.598
548.462
548.32
548.172
548.016
547.855
547.687
547.512
547.331
547.144
546.952
546.754
546.552
546.346
546.137
545.925
545.711
545.495
545.279
545.065
544.861
544.679
544.51
544.348
544.192
544.039
543.89
543.744
543.601
543.461
543.324
543.19
543.059
542.931
542.806
542.685
542.567
542.452
542.34
542.231
542.126
542.024
541.924
541.828
541.735
541.644
541.556
541.471
541.388
541.307
541.228
541.152
541.077
541.003
540.931
540.86
540.79
540.721
540.652
540.584
552.545
552.534
552.523
552.511
552.498
552.483
552.466
552.447
552.426
552.402
552.375
552.345
552.311
552.273
552.232
552.186
552.136
552.082
552.024
551.964
551.902
551.839
551.775
551.709
551.643
551.573
551.502
551.429
551.355
551.279
551.203
551.128
551.053
550.98
550.908
550.837
550.767
550.697
550.627
550.556
550.486
550.415
550.343
550.27
550.197
550.122
550.047
549.971
549.894
549.815
549.733
549.648
549.559
549.465
549.366
549.263
549.155
549.043
548.925
548.802
548.673
548.538
548.395
548.245
548.088
547.923
547.751
547.572
547.386
547.195
546.999
546.797
546.591
546.381
546.165
545.946
545.722
545.495
545.266
545.038
544.82
544.648
544.488
544.333
544.181
544.032
543.885
543.741
543.599
543.46
543.324
543.191
543.06
542.933
542.808
542.687
542.569
542.454
542.342
542.234
542.128
542.026
541.927
541.83
541.737
541.646
541.558
541.472
541.389
541.308
541.23
541.153
541.078
541.004
540.932
540.861
540.791
540.721
540.653
540.584
552.546
552.537
552.528
552.518
552.506
552.492
552.477
552.459
552.439
552.415
552.388
552.357
552.323
552.283
552.239
552.19
552.136
552.078
552.017
551.954
551.889
551.824
551.758
551.691
551.622
551.552
551.479
551.404
551.328
551.25
551.173
551.095
551.019
550.946
550.874
550.805
550.738
550.672
550.607
550.543
550.478
550.413
550.347
550.281
550.214
550.145
550.076
550.006
549.934
549.861
549.786
549.707
549.624
549.536
549.441
549.34
549.235
549.125
549.009
548.886
548.758
548.622
548.478
548.326
548.166
547.997
547.819
547.635
547.444
547.247
547.047
546.841
546.631
546.415
546.193
545.967
545.735
545.497
545.253
545.001
544.731
544.605
544.463
544.317
544.17
544.024
543.88
543.737
543.597
543.459
543.324
543.191
543.061
542.934
542.81
542.689
542.571
542.456
542.345
542.236
542.13
542.028
541.929
541.832
541.739
541.648
541.56
541.474
541.391
541.31
541.231
541.154
541.079
541.005
540.933
540.861
540.791
540.722
540.653
540.584
552.547
552.54
552.532
552.523
552.512
552.5
552.485
552.468
552.448
552.424
552.396
552.364
552.328
552.286
552.238
552.185
552.127
552.066
552.003
551.938
551.871
551.804
551.736
551.667
551.597
551.524
551.45
551.375
551.299
551.221
551.143
551.065
550.989
550.916
550.846
550.778
550.714
550.652
550.59
550.53
550.471
550.412
550.354
550.295
550.236
550.174
550.11
550.046
549.98
549.913
549.845
549.776
549.702
549.621
549.532
549.436
549.334
549.224
549.109
548.986
548.855
548.716
548.569
548.413
548.247
548.072
547.888
547.697
547.501
547.3
547.096
546.886
546.671
546.45
546.223
545.99
545.75
545.501
545.244
544.978
544.701
544.577
544.442
544.301
544.159
544.016
543.874
543.734
543.595
543.458
543.323
543.191
543.062
542.935
542.812
542.691
542.573
542.458
542.346
542.238
542.132
542.03
541.93
541.834
541.74
541.649
541.561
541.475
541.392
541.311
541.232
541.155
541.079
541.006
540.933
540.862
540.792
540.722
540.653
540.584
552.547
552.541
552.535
552.527
552.517
552.505
552.491
552.473
552.452
552.427
552.397
552.362
552.323
552.278
552.226
552.17
552.11
552.048
551.985
551.92
551.852
551.782
551.713
551.642
551.569
551.494
551.422
551.355
551.285
551.21
551.133
551.057
550.984
550.914
550.846
550.781
550.719
550.656
550.594
550.532
550.475
550.424
550.375
550.327
550.28
550.224
550.164
550.104
550.043
549.979
549.915
549.858
549.798
549.731
549.653
549.562
549.464
549.356
549.242
549.114
548.979
548.832
548.675
548.507
548.33
548.146
547.955
547.756
547.555
547.352
547.148
546.936
546.717
546.489
546.257
546.019
545.774
545.515
545.246
544.967
544.688
544.559
544.426
544.289
544.149
544.009
543.869
543.73
543.592
543.457
543.323
543.191
543.062
542.936
542.813
542.692
542.574
542.46
542.348
542.239
542.134
542.031
541.932
541.835
541.742
541.651
541.562
541.476
541.393
541.312
541.233
541.156
541.08
541.006
540.934
540.862
540.792
540.722
540.653
540.584
552.548
552.543
552.538
552.532
552.523
552.511
552.496
552.477
552.453
552.424
552.389
552.35
552.306
552.256
552.199
552.14
552.085
552.033
551.977
551.912
551.841
551.771
551.702
551.628
551.552
551.476
551.416
551.377
551.329
551.262
551.183
551.111
551.051
550.991
550.928
550.868
550.807
550.734
550.657
550.581
550.519
550.477
550.441
550.408
550.383
550.334
550.273
550.217
550.159
550.093
550.015
549.963
549.916
549.873
549.816
549.733
549.644
549.537
549.434
549.301
549.164
549.006
548.825
548.632
548.437
548.234
548.031
547.813
547.605
547.398
547.196
546.981
546.755
546.529
546.297
546.06
545.821
545.56
545.274
544.968
544.679
544.545
544.413
544.278
544.141
544.003
543.865
543.727
543.59
543.455
543.322
543.191
543.063
542.937
542.813
542.693
542.575
542.461
542.349
542.241
542.135
542.033
541.933
541.836
541.743
541.652
541.563
541.477
541.394
541.313
541.233
541.156
541.081
541.007
540.934
540.863
540.792
540.722
540.653
540.584
552.548
552.545
552.544
552.547
552.542
552.528
552.51
552.488
552.458
552.42
552.378
552.331
552.283
552.226
552.159
552.101
552.068
552.052
552.02
551.953
551.864
551.795
551.734
551.653
551.574
551.5
551.468
551.486
551.475
551.414
551.314
551.25
551.223
551.188
551.131
551.086
551.023
550.923
550.813
550.694
550.614
550.6
550.575
550.563
550.59
550.544
550.472
550.416
550.363
550.311
550.153
550.077
550.01
550.007
549.991
549.917
549.848
549.75
549.682
549.564
549.453
549.309
549.076
548.855
548.657
548.403
548.166
547.874
547.657
547.407
547.185
546.935
546.695
546.508
546.269
546.078
545.957
545.694
545.33
545.007
544.665
544.531
544.402
544.27
544.135
543.998
543.861
543.724
543.588
543.454
543.321
543.191
543.063
542.937
542.814
542.694
542.576
542.462
542.35
542.241
542.136
542.033
541.934
541.837
541.743
541.652
541.564
541.478
541.394
541.313
541.234
541.157
541.081
541.007
540.934
540.863
540.792
540.723
540.653
540.584
552.549
552.55
552.564
552.596
552.602
552.583
552.553
552.526
552.485
552.434
552.382
552.322
552.272
552.207
552.134
552.081
552.093
552.149
552.161
552.08
551.917
551.867
551.835
551.691
551.615
551.572
551.574
551.582
551.562
551.512
551.338
551.281
551.331
551.342
551.308
551.285
551.167
551.021
550.892
550.715
550.596
550.607
550.602
550.64
550.714
550.644
550.582
550.513
550.487
550.417
550.173
550.018
549.812
549.85
549.951
549.888
549.882
549.806
549.756
549.743
549.743
549.819
549.49
549.395
549.165
548.719
548.404
547.875
547.821
547.234
546.793
546.464
546.457
546.212
545.688
545.8
546.508
545.794
545.006
545.319
544.63
544.523
544.394
544.264
544.13
543.995
543.859
543.722
543.587
543.453
543.321
543.191
543.063
542.937
542.814
542.694
542.577
542.462
542.351
542.242
542.137
542.034
541.935
541.838
541.744
541.653
541.564
541.479
541.395
541.314
541.234
541.157
541.081