/*--------------------------------*- C++ -*----------------------------------*\
  =========                 |
  \\      /  F ield         | OpenFOAM: The Open Source CFD Toolbox
   \\    /   O peration     | Website:  https://openfoam.org
    \\  /    A nd           | Version:  6
     \\/     M anipulation  |
\*---------------------------------------------------------------------------*/
FoamFile
{
    version     2.0;
    format      ascii;
    class       volVectorField;
    location    "50";
    object      U;
}
// * * * * * * * * * * * * * * * * * * * * * * * * * * * * * * * * * * * * * //

dimensions      [0 1 -1 0 0 0 0];

internalField   nonuniform List<vector> 
4800
(
(4.15011e-07 0 -2.89153e-07)
(1.01322e-06 0 -5.52747e-07)
(1.76364e-06 0 -6.77319e-07)
(2.57499e-06 0 -7.49011e-07)
(3.49163e-06 0 -8.0966e-07)
(4.54172e-06 0 -8.70732e-07)
(5.74741e-06 0 -9.35247e-07)
(7.12559e-06 0 -1.00375e-06)
(8.68812e-06 0 -1.07499e-06)
(1.04385e-05 0 -1.14295e-06)
(1.23725e-05 0 -1.20931e-06)
(1.4484e-05 0 -1.27203e-06)
(1.67529e-05 0 -1.32649e-06)
(1.91551e-05 0 -1.36746e-06)
(2.16545e-05 0 -1.39042e-06)
(2.42117e-05 0 -1.3943e-06)
(2.67763e-05 0 -1.36605e-06)
(2.92894e-05 0 -1.32439e-06)
(3.17203e-05 0 -1.26388e-06)
(3.40044e-05 0 -1.15272e-06)
(3.60744e-05 0 -1.04701e-06)
(3.79176e-05 0 -9.23092e-07)
(3.94902e-05 0 -7.48267e-07)
(4.06821e-05 0 -5.15726e-07)
(4.14927e-05 0 -3.5933e-07)
(4.19523e-05 0 -1.69519e-07)
(4.19986e-05 0 5.578e-08)
(4.16206e-05 0 2.6669e-07)
(4.08014e-05 0 4.98735e-07)
(3.95046e-05 0 7.49415e-07)
(3.76932e-05 0 1.01515e-06)
(3.53458e-05 0 1.29022e-06)
(3.24233e-05 0 1.58944e-06)
(2.88502e-05 0 1.925e-06)
(2.45779e-05 0 2.27644e-06)
(1.9524e-05 0 2.67873e-06)
(1.35769e-05 0 3.13393e-06)
(6.61499e-06 0 3.66444e-06)
(-1.52105e-06 0 4.29693e-06)
(-1.10198e-05 0 5.04089e-06)
(-2.21824e-05 0 5.84802e-06)
(-3.52966e-05 0 6.79583e-06)
(-5.07825e-05 0 7.94397e-06)
(-6.92106e-05 0 9.36133e-06)
(-9.13471e-05 0 1.1116e-05)
(-0.000118212 0 1.32309e-05)
(-0.000151362 0 1.53322e-05)
(-0.00019222 0 2.02681e-05)
(-0.000243043 0 2.76467e-05)
(-0.000308312 0 3.88189e-05)
(-0.000393696 0 5.68993e-05)
(-0.00049594 0 7.54297e-05)
(-0.000646586 0 5.46466e-05)
(-0.000904139 0 0.000225127)
(-0.00122628 0 0.000312218)
(-0.00150943 0 0.000140528)
(-0.00173544 0 9.99032e-05)
(-0.00193958 0 6.96843e-05)
(-0.00204032 0 -1.10082e-05)
(-0.00204044 0 -5.53325e-05)
(-0.00193666 0 -0.000101964)
(-0.00192261 0 -7.48008e-05)
(-0.00190874 0 -0.000156511)
(-0.00176489 0 -0.000292022)
(-0.00166758 0 -0.000131986)
(-0.00156726 0 -0.000154224)
(-0.00144335 0 -0.000200881)
(-0.00131222 0 -0.000186374)
(-0.00126666 0 -0.000173297)
(-0.00121992 0 -0.00021205)
(-0.00120433 0 -0.000220223)
(-0.00119856 0 -0.000222004)
(-0.00120386 0 -0.000225724)
(-0.00119411 0 -0.000214811)
(-0.00115812 0 -0.00024429)
(-0.00113172 0 -0.000246299)
(-0.00113356 0 -0.000294385)
(-0.000978603 0 -0.000411013)
(-0.000744409 0 -0.000364351)
(2.44943e-07 0 -0.000493193)
(1.96037e-12 0 2.28145e-12)
(1.36361e-12 0 8.14882e-13)
(1.28163e-12 0 3.13895e-13)
(8.33066e-13 0 1.34871e-13)
(6.35756e-13 0 6.24333e-14)
(5.44026e-13 0 2.93883e-14)
(5.02165e-13 0 1.2697e-14)
(4.86136e-13 0 3.63979e-15)
(4.84289e-13 0 -1.43697e-15)
(4.90327e-13 0 -4.22545e-15)
(5.00485e-13 0 -5.57679e-15)
(5.12326e-13 0 -5.95417e-15)
(5.24215e-13 0 -5.65201e-15)
(5.35024e-13 0 -4.88838e-15)
(5.43898e-13 0 -3.81307e-15)
(5.50184e-13 0 -2.5172e-15)
(5.53474e-13 0 -1.07718e-15)
(5.53581e-13 0 4.26185e-16)
(5.50419e-13 0 1.93461e-15)
(5.43963e-13 0 3.4278e-15)
(5.34296e-13 0 4.89702e-15)
(5.21625e-13 0 6.32049e-15)
(5.06207e-13 0 7.67141e-15)
(4.88297e-13 0 8.93695e-15)
(4.68145e-13 0 1.01163e-14)
(4.45993e-13 0 1.12077e-14)
(4.22059e-13 0 1.22058e-14)
(3.96532e-13 0 1.31074e-14)
(3.69577e-13 0 1.39126e-14)
(3.41349e-13 0 1.46187e-14)
(3.11991e-13 0 1.52179e-14)
(2.81634e-13 0 1.57048e-14)
(2.50412e-13 0 1.60861e-14)
(2.18476e-13 0 1.63827e-14)
(1.85975e-13 0 1.66215e-14)
(1.53023e-13 0 1.68216e-14)
(1.19664e-13 0 1.69863e-14)
(8.58917e-14 0 1.71029e-14)
(5.17176e-14 0 1.71508e-14)
(1.72677e-14 0 1.71054e-14)
(4.05593e-07 0 -9.84846e-07)
(9.8822e-07 0 -8.25178e-07)
(1.68195e-06 0 -8.5183e-07)
(2.45384e-06 0 -9.78719e-07)
(3.33874e-06 0 -1.16568e-06)
(4.3638e-06 0 -1.39696e-06)
(5.55053e-06 0 -1.66278e-06)
(6.91645e-06 0 -1.95327e-06)
(8.4738e-06 0 -2.25751e-06)
(1.02269e-05 0 -2.55596e-06)
(1.21702e-05 0 -2.85952e-06)
(1.4301e-05 0 -3.1331e-06)
(1.65981e-05 0 -3.37561e-06)
(1.90369e-05 0 -3.57042e-06)
(2.15799e-05 0 -3.70523e-06)
(2.41866e-05 0 -3.7747e-06)
(2.68048e-05 0 -3.73408e-06)
(2.93715e-05 0 -3.65568e-06)
(3.18584e-05 0 -3.50931e-06)
(3.41992e-05 0 -3.20272e-06)
(3.63167e-05 0 -2.91144e-06)
(3.82061e-05 0 -2.57195e-06)
(3.98152e-05 0 -2.00996e-06)
(4.1027e-05 0 -1.3874e-06)
(4.1867e-05 0 -9.11328e-07)
(4.23616e-05 0 -3.45275e-07)
(4.24287e-05 0 3.1441e-07)
(4.20691e-05 0 9.37366e-07)
(4.12746e-05 0 1.6184e-06)
(4.00083e-05 0 2.35796e-06)
(3.8234e-05 0 3.14685e-06)
(3.59313e-05 0 3.97164e-06)
(3.30665e-05 0 4.86724e-06)
(2.95671e-05 0 5.89772e-06)
(2.53836e-05 0 6.98216e-06)
(2.04399e-05 0 8.23627e-06)
(1.46323e-05 0 9.66475e-06)
(7.83987e-06 0 1.13053e-05)
(-1.01263e-07 0 1.31542e-05)
(-9.32629e-06 0 1.54302e-05)
(-2.01183e-05 0 1.8126e-05)
(-3.2757e-05 0 2.13752e-05)
(-4.7605e-05 0 2.5373e-05)
(-6.51476e-05 0 3.03867e-05)
(-8.60244e-05 0 3.67631e-05)
(-0.000111139 0 4.51104e-05)
(-0.000141381 0 5.66509e-05)
(-0.000179585 0 6.94522e-05)
(-0.000227026 0 8.6275e-05)
(-0.000286574 0 0.000107667)
(-0.000365274 0 0.000135905)
(-0.000459696 0 0.000204474)
(-0.000558909 0 0.000356624)
(-0.000788304 0 0.000382397)
(-0.00102925 0 0.000435102)
(-0.00127312 0 0.000396385)
(-0.00155734 0 0.00011022)
(-0.00171755 0 9.27689e-05)
(-0.00178024 0 9.21337e-05)
(-0.00171577 0 -8.89077e-05)
(-0.00155783 0 -0.00014186)
(-0.00152752 0 -0.000118343)
(-0.00154058 0 -7.81896e-05)
(-0.00140459 0 -0.000121669)
(-0.00121472 0 -0.000303498)
(-0.00109315 0 -0.000251389)
(-0.00101731 0 8.05345e-05)
(-0.000807014 0 -0.000184559)
(-0.000750507 0 8.67521e-05)
(-0.000688694 0 8.21899e-05)
(-0.000672031 0 0.000166763)
(-0.000670635 0 0.000152212)
(-0.000685839 0 0.000143541)
(-0.0006659 0 0.000114667)
(-0.000656472 0 0.000109686)
(-0.00066054 0 -8.20969e-05)
(-0.000766332 0 -1.83252e-05)
(-0.000677527 0 -0.000358594)
(-0.000605303 0 -0.000601203)
(-2.53394e-07 0 -0.000952802)
(1.2034e-12 0 2.94478e-12)
(-7.34929e-13 0 1.36882e-12)
(6.01618e-13 0 6.19464e-13)
(5.81605e-13 0 2.98195e-13)
(5.30273e-13 0 1.48123e-13)
(4.94289e-13 0 7.19781e-14)
(4.76417e-13 0 3.05768e-14)
(4.72003e-13 0 7.01267e-15)
(4.76424e-13 0 -6.56523e-15)
(4.86188e-13 0 -1.40934e-14)
(4.98757e-13 0 -1.76908e-14)
(5.1225e-13 0 -1.85853e-14)
(5.25281e-13 0 -1.75771e-14)
(5.36863e-13 0 -1.52471e-14)
(5.46269e-13 0 -1.2005e-14)
(5.5292e-13 0 -8.12605e-15)
(5.56418e-13 0 -3.832e-15)
(5.56593e-13 0 6.73368e-16)
(5.53421e-13 0 5.24065e-15)
(5.46925e-13 0 9.79468e-15)
(5.37189e-13 0 1.42908e-14)
(5.24399e-13 0 1.86678e-14)
(5.08823e-13 0 2.28528e-14)
(4.90742e-13 0 2.67901e-14)
(4.70416e-13 0 3.04517e-14)
(4.48082e-13 0 3.38249e-14)
(4.23959e-13 0 3.68991e-14)
(3.98239e-13 0 3.96616e-14)
(3.71088e-13 0 4.20971e-14)
(3.42654e-13 0 4.41909e-14)
(3.13077e-13 0 4.59374e-14)
(2.82502e-13 0 4.73499e-14)
(2.5109e-13 0 4.84649e-14)
(2.19011e-13 0 4.93345e-14)
(1.86414e-13 0 5.00134e-14)
(1.53388e-13 0 5.05438e-14)
(1.19945e-13 0 5.0947e-14)
(8.60562e-14 0 5.1222e-14)
(5.17201e-14 0 5.13608e-14)
(1.72223e-14 0 5.1378e-14)
(3.44014e-07 0 -1.65447e-06)
(8.36484e-07 0 -1.73489e-06)
(1.50053e-06 0 -1.90426e-06)
(2.23588e-06 0 -2.15047e-06)
(3.08175e-06 0 -2.46435e-06)
(4.07017e-06 0 -2.83831e-06)
(5.22707e-06 0 -3.26112e-06)
(6.57283e-06 0 -3.7223e-06)
(8.12193e-06 0 -4.20614e-06)
(9.88232e-06 0 -4.68083e-06)
(1.18446e-05 0 -5.15371e-06)
(1.40079e-05 0 -5.59336e-06)
(1.63554e-05 0 -5.98325e-06)
(1.8861e-05 0 -6.29268e-06)
(2.14848e-05 0 -6.50335e-06)
(2.41851e-05 0 -6.60803e-06)
(2.69071e-05 0 -6.51956e-06)
(2.95764e-05 0 -6.38899e-06)
(3.2173e-05 0 -6.11889e-06)
(3.46211e-05 0 -5.59645e-06)
(3.68324e-05 0 -5.08881e-06)
(3.88094e-05 0 -4.52038e-06)
(4.04957e-05 0 -3.50305e-06)
(4.17429e-05 0 -2.51963e-06)
(4.26388e-05 0 -1.69864e-06)
(4.31986e-05 0 -7.21934e-07)
(4.33047e-05 0 3.65483e-07)
(4.29786e-05 0 1.41818e-06)
(4.22265e-05 0 2.55245e-06)
(4.10146e-05 0 3.77454e-06)
(3.93071e-05 0 5.08589e-06)
(3.70831e-05 0 6.44193e-06)
(3.43196e-05 0 7.90265e-06)
(3.09514e-05 0 9.58535e-06)
(2.69245e-05 0 1.1358e-05)
(2.21734e-05 0 1.33597e-05)
(1.66092e-05 0 1.56803e-05)
(1.01172e-05 0 1.8319e-05)
(2.53276e-06 0 2.13349e-05)
(-6.22147e-06 0 2.49556e-05)
(-1.64244e-05 0 2.91726e-05)
(-2.83228e-05 0 3.41848e-05)
(-4.22117e-05 0 4.02783e-05)
(-5.84923e-05 0 4.78713e-05)
(-7.7711e-05 0 5.73073e-05)
(-0.00010059 0 6.92289e-05)
(-0.000127421 0 8.48393e-05)
(-0.000158381 0 0.000107483)
(-0.000198642 0 0.000134209)
(-0.0002474 0 0.000172335)
(-0.000307544 0 0.000227175)
(-0.000387884 0 0.000304244)
(-0.000468795 0 0.000452081)
(-0.000587913 0 0.000593532)
(-0.000830297 0 0.000491502)
(-0.000937248 0 0.000392137)
(-0.00100658 0 0.000487662)
(-0.00119136 0 0.000460015)
(-0.0013109 0 0.000221164)
(-0.00132859 0 -2.58404e-05)
(-0.00123044 0 -0.00035334)
(-0.00121746 0 -0.000269159)
(-0.00123223 0 -6.26637e-05)
(-0.00100207 0 -0.000390377)
(-0.000913341 0 -0.000337563)
(-0.00072835 0 -0.000519053)
(-0.000767818 0 -0.000255545)
(-0.000460334 0 -0.000481422)
(-0.000507384 0 -0.000231283)
(-0.000352487 0 -0.000221304)
(-0.00030764 0 -0.000119539)
(-0.00020306 0 -0.000126896)
(-0.000173265 0 -4.91097e-05)
(-7.81891e-05 0 -7.74523e-05)
(-6.28586e-05 0 -1.78155e-05)
(-6.92422e-05 0 1.44043e-05)
(-0.000206624 0 6.00513e-05)
(-0.000245686 0 -3.37462e-05)
(-0.000536756 0 -0.000413905)
(3.13246e-06 0 -0.00120293)
(1.30939e-13 0 4.54138e-13)
(-1.33362e-12 0 7.80472e-13)
(2.11009e-13 0 4.96819e-13)
(3.61725e-13 0 2.90423e-13)
(4.09539e-13 0 1.59941e-13)
(4.2648e-13 0 7.97695e-14)
(4.372e-13 0 3.04694e-14)
(4.48994e-13 0 1.68609e-16)
(4.63183e-13 0 -1.80473e-14)
(4.79202e-13 0 -2.8249e-14)
(4.95993e-13 0 -3.29094e-14)
(5.12439e-13 0 -3.35978e-14)
(5.27554e-13 0 -3.14017e-14)
(5.40596e-13 0 -2.7143e-14)
(5.51019e-13 0 -2.14305e-14)
(5.58357e-13 0 -1.46983e-14)
(5.62274e-13 0 -7.29681e-15)
(5.62654e-13 0 4.59957e-16)
(5.59541e-13 0 8.32668e-15)
(5.53013e-13 0 1.61535e-14)
(5.43169e-13 0 2.38465e-14)
(5.30187e-13 0 3.13111e-14)
(5.14329e-13 0 3.84401e-14)
(4.95896e-13 0 4.51381e-14)
(4.7518e-13 0 5.13432e-14)
(4.5244e-13 0 5.70228e-14)
(4.27896e-13 0 6.21578e-14)
(4.0173e-13 0 6.67287e-14)
(3.74106e-13 0 7.07157e-14)
(3.45189e-13 0 7.41113e-14)
(3.1515e-13 0 7.6932e-14)
(2.84161e-13 0 7.92204e-14)
(2.52397e-13 0 8.10388e-14)
(2.20024e-13 0 8.2458e-14)
(1.87185e-13 0 8.35481e-14)
(1.53957e-13 0 8.43722e-14)
(1.20342e-13 0 8.49789e-14)
(8.63055e-14 0 8.54018e-14)
(5.18737e-14 0 8.56734e-14)
(1.7285e-14 0 8.58516e-14)
(3.01861e-07 0 -2.13122e-06)
(6.94955e-07 0 -2.24784e-06)
(1.26151e-06 0 -2.47971e-06)
(1.90694e-06 0 -2.82345e-06)
(2.67338e-06 0 -3.26831e-06)
(3.59323e-06 0 -3.80287e-06)
(4.69443e-06 0 -4.41413e-06)
(6.00078e-06 0 -5.08076e-06)
(7.53155e-06 0 -5.78584e-06)
(9.29755e-06 0 -6.4855e-06)
(1.12873e-05 0 -7.17339e-06)
(1.35019e-05 0 -7.82598e-06)
(1.59292e-05 0 -8.4082e-06)
(1.85404e-05 0 -8.87007e-06)
(2.12915e-05 0 -9.19521e-06)
(2.41385e-05 0 -9.36772e-06)
(2.70249e-05 0 -9.2422e-06)
(2.9856e-05 0 -9.09955e-06)
(3.26314e-05 0 -8.68568e-06)
(3.52393e-05 0 -7.97698e-06)
(3.76042e-05 0 -7.23484e-06)
(3.97091e-05 0 -6.44862e-06)
(4.15263e-05 0 -4.86322e-06)
(4.28184e-05 0 -3.61758e-06)
(4.37982e-05 0 -2.4546e-06)
(4.44448e-05 0 -1.03072e-06)
(4.46062e-05 0 4.78194e-07)
(4.43301e-05 0 1.96074e-06)
(4.36378e-05 0 3.52647e-06)
(4.25028e-05 0 5.20779e-06)
(4.08956e-05 0 7.02712e-06)
(3.8791e-05 0 8.89743e-06)
(3.6174e-05 0 1.08908e-05)
(3.30056e-05 0 1.32103e-05)
(2.92244e-05 0 1.56435e-05)
(2.47566e-05 0 1.83601e-05)
(1.95518e-05 0 2.15352e-05)
(1.34656e-05 0 2.51343e-05)
(6.44559e-06 0 2.9237e-05)
(-1.59119e-06 0 3.39847e-05)
(-1.09622e-05 0 3.98538e-05)
(-2.16908e-05 0 4.64898e-05)
(-3.41552e-05 0 5.46147e-05)
(-4.84677e-05 0 6.46634e-05)
(-6.52422e-05 0 7.71857e-05)
(-8.48883e-05 0 9.26344e-05)
(-0.000107161 0 0.000112233)
(-0.00013526 0 0.000136089)
(-0.000162546 0 0.000173035)
(-0.000197794 0 0.000219248)
(-0.000238266 0 0.000282141)
(-0.000281951 0 0.000373156)
(-0.000318192 0 0.000524867)
(-0.00032637 0 0.000724347)
(-0.000394602 0 0.000810939)
(-0.000680645 0 0.000653927)
(-0.000913959 0 0.00026043)
(-0.00094609 0 0.000138559)
(-0.000951039 0 -1.04686e-05)
(-0.000816598 0 -0.000310599)
(-0.000819248 0 -0.000205284)
(-0.000824251 0 -0.000137341)
(-0.000744533 0 -0.000306776)
(-0.000647883 0 -0.000357402)
(-0.000502367 0 -0.000497551)
(-0.000494926 0 -0.000407031)
(-0.00040435 0 -0.000462722)
(-0.000354091 0 -0.000345091)
(-0.000318862 0 -0.000255747)
(-0.000219058 0 -0.000197079)
(-0.000160346 0 -0.000154297)
(-0.000107766 0 -0.00012523)
(-8.57434e-05 0 -9.05287e-05)
(-1.25666e-05 0 -9.32936e-05)
(2.10654e-05 0 -0.000125287)
(0.000123049 0 -0.00010018)
(9.38682e-06 0 -7.0737e-05)
(0.000409411 0 -0.000112841)
(-0.000318956 0 -0.000151653)
(6.65542e-06 0 -0.00130356)
(-4.89063e-13 0 -6.04172e-13)
(-1.25169e-12 0 3.168e-13)
(1.11569e-13 0 2.96985e-13)
(2.44727e-13 0 2.06503e-13)
(3.1962e-13 0 1.21079e-13)
(3.64818e-13 0 5.62366e-14)
(3.96816e-13 0 1.08454e-14)
(4.23486e-13 0 -1.93449e-14)
(4.48006e-13 0 -3.81996e-14)
(4.71325e-13 0 -4.8655e-14)
(4.93408e-13 0 -5.28326e-14)
(5.13758e-13 0 -5.22374e-14)
(5.31736e-13 0 -4.80048e-14)
(5.46834e-13 0 -4.10861e-14)
(5.58714e-13 0 -3.22535e-14)
(5.67053e-13 0 -2.20744e-14)
(5.71576e-13 0 -1.10085e-14)
(5.72216e-13 0 5.03705e-16)
(5.69114e-13 0 1.20765e-14)
(5.62445e-13 0 2.34544e-14)
(5.52347e-13 0 3.44976e-14)
(5.38993e-13 0 4.51013e-14)
(5.2265e-13 0 5.51496e-14)
(5.03645e-13 0 6.45295e-14)
(4.823e-13 0 7.31596e-14)
(4.58897e-13 0 8.09957e-14)
(4.33665e-13 0 8.80195e-14)
(4.06797e-13 0 9.42256e-14)
(3.78471e-13 0 9.96175e-14)
(3.4887e-13 0 1.04212e-13)
(3.18186e-13 0 1.08043e-13)
(2.86609e-13 0 1.11171e-13)
(2.54328e-13 0 1.13675e-13)
(2.2152e-13 0 1.15651e-13)
(1.88328e-13 0 1.17192e-13)
(1.54819e-13 0 1.18383e-13)
(1.20975e-13 0 1.19281e-13)
(8.67507e-14 0 1.19928e-13)
(5.217e-14 0 1.20364e-13)
(1.74006e-14 0 1.20626e-13)
(2.42981e-07 0 -2.51536e-06)
(4.98068e-07 0 -2.66859e-06)
(9.3044e-07 0 -2.97406e-06)
(1.44904e-06 0 -3.42947e-06)
(2.10249e-06 0 -4.02226e-06)
(2.92594e-06 0 -4.73693e-06)
(3.94994e-06 0 -5.55485e-06)
(5.20111e-06 0 -6.45684e-06)
(6.70225e-06 0 -7.41091e-06)
(8.47378e-06 0 -8.36122e-06)
(1.05059e-05 0 -9.28629e-06)
(1.27884e-05 0 -1.01847e-05)
(1.53226e-05 0 -1.09936e-05)
(1.80793e-05 0 -1.16327e-05)
(2.10056e-05 0 -1.21015e-05)
(2.40577e-05 0 -1.23571e-05)
(2.71713e-05 0 -1.22045e-05)
(3.02313e-05 0 -1.20687e-05)
(3.32597e-05 0 -1.14774e-05)
(3.60797e-05 0 -1.05913e-05)
(3.86671e-05 0 -9.59466e-06)
(4.0933e-05 0 -8.54668e-06)
(4.29144e-05 0 -6.33624e-06)
(4.42719e-05 0 -4.86724e-06)
(4.53738e-05 0 -3.34596e-06)
(4.61187e-05 0 -1.42457e-06)
(4.63367e-05 0 4.98482e-07)
(4.61219e-05 0 2.42391e-06)
(4.55022e-05 0 4.39972e-06)
(4.4455e-05 0 6.51542e-06)
(4.29738e-05 0 8.82318e-06)
(4.10248e-05 0 1.1173e-05)
(3.85886e-05 0 1.36839e-05)
(3.56798e-05 0 1.64778e-05)
(3.21916e-05 0 1.96638e-05)
(2.81148e-05 0 2.29546e-05)
(2.33098e-05 0 2.69432e-05)
(1.77787e-05 0 3.13724e-05)
(1.14862e-05 0 3.64027e-05)
(4.26248e-06 0 4.21945e-05)
(-3.98685e-06 0 4.93166e-05)
(-1.3372e-05 0 5.73402e-05)
(-2.3993e-05 0 6.70044e-05)
(-3.601e-05 0 7.89958e-05)
(-5.00779e-05 0 9.36658e-05)
(-6.44254e-05 0 0.000111623)
(-8.16284e-05 0 0.000134307)
(-9.94574e-05 0 0.000164009)
(-0.000121014 0 0.000199987)
(-0.000140943 0 0.000249841)
(-0.000158702 0 0.000316735)
(-0.000166325 0 0.000406954)
(-0.000154299 0 0.000530031)
(-0.000117665 0 0.00070055)
(-3.76826e-05 0 0.00084988)
(6.67556e-05 0 0.000881597)
(-5.58403e-05 0 0.00073747)
(-4.95549e-05 0 0.000485989)
(-8.75866e-05 0 0.000273375)
(-0.000121891 0 6.16065e-05)
(-0.000284446 0 -0.000146615)
(-0.000295085 0 -0.000262525)
(-0.000302852 0 -0.000320559)
(-0.000242795 0 -0.00044851)
(-0.00026528 0 -0.000467065)
(-0.000159344 0 -0.000487612)
(-0.000178037 0 -0.000432775)
(-0.000108483 0 -0.000391425)
(-0.000125289 0 -0.000330179)
(-8.03759e-05 0 -0.000246191)
(-4.35061e-05 0 -0.000188631)
(-3.4147e-05 0 -0.00015582)
(1.32274e-05 0 -0.000145651)
(8.40293e-05 0 -0.000126134)
(4.74924e-05 0 -0.000132362)
(0.000117642 0 -0.000113539)
(1.09568e-05 0 -0.000101351)
(0.000528599 0 -0.000151121)
(-0.000565292 0 -5.83136e-05)
(9.26728e-06 0 -0.00132422)
(-8.61707e-13 0 -5.84508e-13)
(-1.11672e-12 0 1.81558e-13)
(1.00712e-13 0 1.67591e-13)
(1.85819e-13 0 1.1718e-13)
(2.59272e-13 0 6.12494e-14)
(3.16246e-13 0 1.28768e-14)
(3.61618e-13 0 -2.43315e-14)
(3.9995e-13 0 -5.05554e-14)
(4.33873e-13 0 -6.71615e-14)
(4.64569e-13 0 -7.57664e-14)
(4.92411e-13 0 -7.78962e-14)
(5.17267e-13 0 -7.48181e-14)
(5.38705e-13 0 -6.75804e-14)
(5.56347e-13 0 -5.71653e-14)
(5.7003e-13 0 -4.44756e-14)
(5.79602e-13 0 -3.02201e-14)
(5.84852e-13 0 -1.49577e-14)
(5.85739e-13 0 7.73129e-16)
(5.82491e-13 0 1.64487e-14)
(5.75434e-13 0 3.16748e-14)
(5.64816e-13 0 4.62399e-14)
(5.50839e-13 0 6.0042e-14)
(5.33757e-13 0 7.2993e-14)
(5.13906e-13 0 8.49916e-14)
(4.91646e-13 0 9.5951e-14)
(4.673e-13 0 1.05827e-13)
(4.41126e-13 0 1.14616e-13)
(4.13328e-13 0 1.22338e-13)
(3.84092e-13 0 1.29023e-13)
(3.53615e-13 0 1.34715e-13)
(3.22109e-13 0 1.39474e-13)
(2.89793e-13 0 1.43388e-13)
(2.56876e-13 0 1.46568e-13)
(2.23541e-13 0 1.49128e-13)
(1.89917e-13 0 1.51172e-13)
(1.56045e-13 0 1.52776e-13)
(1.21887e-13 0 1.53989e-13)
(8.73886e-14 0 1.54853e-13)
(5.25719e-14 0 1.55414e-13)
(1.75471e-14 0 1.55718e-13)
(1.61018e-07 0 -2.7588e-06)
(2.34844e-07 0 -2.95941e-06)
(4.99815e-07 0 -3.35111e-06)
(8.58745e-07 0 -3.93005e-06)
(1.36682e-06 0 -4.68386e-06)
(2.06382e-06 0 -5.5944e-06)
(2.98519e-06 0 -6.63905e-06)
(4.16068e-06 0 -7.79202e-06)
(5.6171e-06 0 -9.02822e-06)
(7.38217e-06 0 -1.02788e-05)
(9.46319e-06 0 -1.14617e-05)
(1.18378e-05 0 -1.26434e-05)
(1.45035e-05 0 -1.37304e-05)
(1.74444e-05 0 -1.45812e-05)
(2.05978e-05 0 -1.52343e-05)
(2.39206e-05 0 -1.55807e-05)
(2.73311e-05 0 -1.54471e-05)
(3.06994e-05 0 -1.53294e-05)
(3.40725e-05 0 -1.45162e-05)
(3.71714e-05 0 -1.34778e-05)
(4.00553e-05 0 -1.21973e-05)
(4.25103e-05 0 -1.07955e-05)
(4.46776e-05 0 -7.97647e-06)
(4.6158e-05 0 -6.20208e-06)
(4.74116e-05 0 -4.27619e-06)
(4.82373e-05 0 -1.91904e-06)
(4.85073e-05 0 4.60689e-07)
(4.83421e-05 0 2.82974e-06)
(4.7798e-05 0 5.20409e-06)
(4.68475e-05 0 7.71118e-06)
(4.55014e-05 0 1.04578e-05)
(4.37355e-05 0 1.32957e-05)
(4.15358e-05 0 1.62175e-05)
(3.88993e-05 0 1.94606e-05)
(3.57512e-05 0 2.33215e-05)
(3.21502e-05 0 2.71699e-05)
(2.7782e-05 0 3.17138e-05)
(2.29453e-05 0 3.70214e-05)
(1.74283e-05 0 4.27698e-05)
(1.12042e-05 0 4.92948e-05)
(4.03341e-06 0 5.75495e-05)
(-3.75599e-06 0 6.65231e-05)
(-1.23895e-05 0 7.72797e-05)
(-2.26622e-05 0 9.07292e-05)
(-3.23013e-05 0 0.000106178)
(-4.33112e-05 0 0.000125152)
(-5.47694e-05 0 0.00014909)
(-6.65926e-05 0 0.00017886)
(-7.68606e-05 0 0.000216259)
(-8.37347e-05 0 0.000264018)
(-8.40528e-05 0 0.000324996)
(-7.25773e-05 0 0.00040273)
(-3.30446e-05 0 0.000498338)
(4.80001e-05 0 0.000606239)
(0.000147633 0 0.000722288)
(0.000265399 0 0.000789636)
(0.000357805 0 0.000680806)
(0.000294664 0 0.000545748)
(0.000246262 0 0.000334441)
(0.000266511 0 0.000129674)
(0.000154618 0 -5.12156e-05)
(0.000241585 0 -0.000193951)
(0.000157861 0 -0.000285361)
(0.000130624 0 -0.000429965)
(0.000256784 0 -0.000493985)
(0.000221177 0 -0.000471855)
(0.000200863 0 -0.000433472)
(0.000187844 0 -0.000372092)
(9.32376e-05 0 -0.000316978)
(4.02795e-05 0 -0.00025943)
(6.17857e-05 0 -0.000219748)
(3.42624e-05 0 -0.000182566)
(5.5931e-05 0 -0.000160554)
(6.56113e-05 0 -0.000147487)
(6.78342e-05 0 -0.000125302)
(8.93163e-05 0 -0.000125346)
(4.7121e-06 0 -0.000103344)
(0.000289666 0 -7.95692e-05)
(-0.000577775 0 -8.46283e-06)
(9.05782e-06 0 -0.00125841)
(-7.3406e-13 0 -5.0853e-13)
(-1.26281e-12 0 1.26516e-13)
(4.71904e-14 0 7.42969e-14)
(1.38385e-13 0 3.30909e-14)
(2.15317e-13 0 -6.35459e-15)
(2.79237e-13 0 -4.17769e-14)
(3.33384e-13 0 -7.05043e-14)
(3.80656e-13 0 -9.12939e-14)
(4.22795e-13 0 -1.04016e-13)
(4.60591e-13 0 -1.09251e-13)
(4.94356e-13 0 -1.07978e-13)
(5.24074e-13 0 -1.01244e-13)
(5.49389e-13 0 -9.00057e-14)
(5.69939e-13 0 -7.52413e-14)
(5.85659e-13 0 -5.79595e-14)
(5.96571e-13 0 -3.90165e-14)
(6.02569e-13 0 -1.90723e-14)
(6.03623e-13 0 1.27328e-15)
(6.00016e-13 0 2.14017e-14)
(5.92236e-13 0 4.07804e-14)
(5.80714e-13 0 5.90874e-14)
(5.65746e-13 0 7.61943e-14)
(5.476e-13 0 9.20544e-14)
(5.26603e-13 0 1.06619e-13)
(5.03136e-13 0 1.19832e-13)
(4.77561e-13 0 1.31662e-13)
(4.50176e-13 0 1.42118e-13)
(4.21205e-13 0 1.51246e-13)
(3.90848e-13 0 1.59113e-13)
(3.59321e-13 0 1.65805e-13)
(3.26859e-13 0 1.71426e-13)
(2.93703e-13 0 1.76098e-13)
(2.60067e-13 0 1.79951e-13)
(2.26125e-13 0 1.83104e-13)
(1.91976e-13 0 1.85647e-13)
(1.57636e-13 0 1.8764e-13)
(1.23052e-13 0 1.89126e-13)
(8.81751e-14 0 1.90154e-13)
(5.30359e-14 0 1.90794e-13)
(1.77055e-14 0 1.91112e-13)
(5.668e-08 0 -2.80305e-06)
(-9.61194e-08 0 -3.05255e-06)
(-4.15527e-08 0 -3.53874e-06)
(1.1884e-07 0 -4.25368e-06)
(4.43932e-07 0 -5.18591e-06)
(9.79291e-07 0 -6.31525e-06)
(1.76657e-06 0 -7.61515e-06)
(2.84174e-06 0 -9.05499e-06)
(4.23616e-06 0 -1.05989e-05)
(5.98381e-06 0 -1.22084e-05)
(8.09885e-06 0 -1.37292e-05)
(1.05975e-05 0 -1.52097e-05)
(1.34191e-05 0 -1.66389e-05)
(1.65904e-05 0 -1.77506e-05)
(2.00286e-05 0 -1.86691e-05)
(2.3691e-05 0 -1.9122e-05)
(2.74998e-05 0 -1.90446e-05)
(3.1246e-05 0 -1.89719e-05)
(3.50844e-05 0 -1.78817e-05)
(3.85558e-05 0 -1.66983e-05)
(4.17712e-05 0 -1.51914e-05)
(4.45362e-05 0 -1.30435e-05)
(4.68365e-05 0 -9.83655e-06)
(4.84987e-05 0 -7.73292e-06)
(4.99407e-05 0 -5.28252e-06)
(5.08012e-05 0 -2.49095e-06)
(5.11136e-05 0 4.25868e-07)
(5.09734e-05 0 3.15221e-06)
(5.04976e-05 0 5.94136e-06)
(4.96514e-05 0 8.81358e-06)
(4.84385e-05 0 1.19174e-05)
(4.68688e-05 0 1.51261e-05)
(4.4927e-05 0 1.86043e-05)
(4.26267e-05 0 2.21332e-05)
(3.98489e-05 0 2.63075e-05)
(3.66462e-05 0 3.11331e-05)
(3.29998e-05 0 3.59943e-05)
(2.88389e-05 0 4.16707e-05)
(2.41176e-05 0 4.8198e-05)
(1.87892e-05 0 5.56783e-05)
(1.29976e-05 0 6.41049e-05)
(6.67625e-06 0 7.41588e-05)
(-6.50917e-07 0 8.59415e-05)
(-7.12609e-06 0 9.90817e-05)
(-1.43279e-05 0 0.000115004)
(-2.16538e-05 0 0.000134506)
(-2.81089e-05 0 0.000158032)
(-3.23314e-05 0 0.000187127)
(-3.48282e-05 0 0.00022169)
(-3.19205e-05 0 0.00026411)
(-2.02915e-05 0 0.000315682)
(5.06021e-06 0 0.000376485)
(4.87143e-05 0 0.000446079)
(0.00012675 0 0.000515125)
(0.000242175 0 0.000568235)
(0.000367077 0 0.0006084)
(0.000487984 0 0.000580503)
(0.000587448 0 0.000420422)
(0.000562201 0 0.000352524)
(0.000639627 0 2.38758e-05)
(0.000543552 0 -2.80857e-05)
(0.000513742 0 -0.000179484)
(0.000551509 0 -0.000143697)
(0.000395109 0 -0.00043089)
(0.000337831 0 -0.000451831)
(0.000202263 0 -0.000481746)
(0.000100973 0 -0.000444515)
(6.5781e-05 0 -0.000385257)
(8.27566e-05 0 -0.000295879)
(9.34048e-05 0 -0.000229439)
(7.72644e-05 0 -0.000215483)
(0.000110279 0 -0.00016397)
(0.000108259 0 -0.000139722)
(5.87188e-05 0 -0.000155848)
(0.000106677 0 -0.000109113)
(8.01838e-05 0 -0.000129364)
(-3.56591e-05 0 -0.000115597)
(0.000448618 0 -0.000105905)
(-0.000531701 0 -1.41939e-05)
(8.46975e-06 0 -0.00120818)
(-5.1829e-13 0 -6.747e-13)
(-1.34938e-12 0 9.39135e-16)
(7.28723e-15 0 -3.02636e-14)
(1.05167e-13 0 -5.28533e-14)
(1.84404e-13 0 -7.79471e-14)
(2.52097e-13 0 -1.02986e-13)
(3.12101e-13 0 -1.24329e-13)
(3.66437e-13 0 -1.39632e-13)
(4.15916e-13 0 -1.47801e-13)
(4.60607e-13 0 -1.487e-13)
(5.00417e-13 0 -1.42934e-13)
(5.3524e-13 0 -1.31449e-13)
(5.64708e-13 0 -1.15204e-13)
(5.88394e-13 0 -9.5209e-14)
(6.06255e-13 0 -7.25801e-14)
(6.18489e-13 0 -4.8332e-14)
(6.25141e-13 0 -2.32353e-14)
(6.26213e-13 0 2.07842e-15)
(6.21998e-13 0 2.69575e-14)
(6.1312e-13 0 5.07708e-14)
(6.0023e-13 0 7.30693e-14)
(5.83806e-13 0 9.36539e-14)
(5.64182e-13 0 1.12494e-13)
(5.41684e-13 0 1.29609e-13)
(5.16689e-13 0 1.45007e-13)
(4.89586e-13 0 1.58698e-13)
(4.6071e-13 0 1.70725e-13)
(4.30323e-13 0 1.81164e-13)
(3.98651e-13 0 1.90128e-13)
(3.65927e-13 0 1.97752e-13)
(3.32402e-13 0 2.0418e-13)
(2.98319e-13 0 2.09563e-13)
(2.63883e-13 0 2.1404e-13)
(2.29237e-13 0 2.17721e-13)
(1.94453e-13 0 2.20684e-13)
(1.59524e-13 0 2.22979e-13)
(1.24401e-13 0 2.24657e-13)
(8.90566e-14 0 2.25789e-13)
(5.35294e-14 0 2.26471e-13)
(1.78653e-14 0 2.26791e-13)
(-6.82737e-08 0 -2.59541e-06)
(-4.98125e-07 0 -2.89728e-06)
(-7.03547e-07 0 -3.4914e-06)
(-7.8739e-07 0 -4.35889e-06)
(-6.87468e-07 0 -5.48917e-06)
(-3.54928e-07 0 -6.86326e-06)
(2.60247e-07 0 -8.45147e-06)
(1.20316e-06 0 -1.02175e-05)
(2.51571e-06 0 -1.21215e-05)
(4.22363e-06 0 -1.41196e-05)
(6.37139e-06 0 -1.60847e-05)
(8.98822e-06 0 -1.79446e-05)
(1.20091e-05 0 -1.97276e-05)
(1.54544e-05 0 -2.12223e-05)
(1.92278e-05 0 -2.24611e-05)
(2.33446e-05 0 -2.30053e-05)
(2.76223e-05 0 -2.3166e-05)
(3.19102e-05 0 -2.30717e-05)
(3.63153e-05 0 -2.17672e-05)
(4.03026e-05 0 -2.02719e-05)
(4.37889e-05 0 -1.86768e-05)
(4.7128e-05 0 -1.50917e-05)
(4.94004e-05 0 -1.22701e-05)
(5.14205e-05 0 -9.41192e-06)
(5.29618e-05 0 -6.34874e-06)
(5.37851e-05 0 -3.06883e-06)
(5.41379e-05 0 3.75086e-07)
(5.40153e-05 0 3.47173e-06)
(5.35711e-05 0 6.54141e-06)
(5.28192e-05 0 9.80755e-06)
(5.17501e-05 0 1.32278e-05)
(5.03647e-05 0 1.67767e-05)
(4.87337e-05 0 2.03493e-05)
(4.66363e-05 0 2.47884e-05)
(4.43816e-05 0 2.91043e-05)
(4.18008e-05 0 3.40731e-05)
(3.86998e-05 0 3.9646e-05)
(3.52351e-05 0 4.59105e-05)
(3.12885e-05 0 5.27729e-05)
(2.70592e-05 0 6.06249e-05)
(2.21829e-05 0 6.99331e-05)
(1.75356e-05 0 7.99832e-05)
(1.28002e-05 0 9.15897e-05)
(7.82769e-06 0 0.000105008)
(3.15444e-06 0 0.00012098)
(-4.93119e-07 0 0.00013979)
(-2.75043e-06 0 0.0001618)
(-2.71047e-06 0 0.000188138)
(1.68751e-06 0 0.000219173)
(1.12851e-05 0 0.000254792)
(2.94707e-05 0 0.000295939)
(6.00948e-05 0 0.000341275)
(0.000107736 0 0.000387519)
(0.000171726 0 0.000431305)
(0.000262717 0 0.000458143)
(0.00037493 0 0.0004547)
(0.000490644 0 0.000429765)
(0.000584443 0 0.000365304)
(0.00065451 0 0.000197116)
(0.000668234 0 9.59689e-05)
(0.000649483 0 8.1148e-06)
(0.000592847 0 -0.00022932)
(0.000575407 0 -0.000235753)
(0.000501704 0 -0.000327284)
(0.000421197 0 -0.000375043)
(0.000367459 0 -0.000354351)
(0.000341676 0 -0.00028718)
(0.000201831 0 -0.000324449)
(0.000183418 0 -0.000260891)
(0.000180579 0 -0.000200146)
(0.00015964 0 -0.000174027)
(0.000132619 0 -0.00015048)
(0.000132442 0 -0.000121932)
(7.19911e-05 0 -0.000145413)
(8.15103e-05 0 -0.000117069)
(7.09459e-05 0 -0.000128066)
(-3.64676e-05 0 -0.000133784)
(0.000357408 0 -0.000123713)
(-0.000632611 0 1.93755e-05)
(8.14476e-06 0 -0.00117565)
(-4.66437e-13 0 -1.30412e-12)
(-1.46558e-12 0 -2.12886e-13)
(-6.60208e-15 0 -1.43505e-13)
(9.07019e-14 0 -1.36214e-13)
(1.65184e-13 0 -1.49417e-13)
(2.32855e-13 0 -1.67673e-13)
(2.96737e-13 0 -1.83903e-13)
(3.57184e-13 0 -1.94631e-13)
(4.13727e-13 0 -1.98233e-13)
(4.65457e-13 0 -1.94224e-13)
(5.11607e-13 0 -1.83055e-13)
(5.51804e-13 0 -1.65744e-13)
(5.85629e-13 0 -1.43401e-13)
(6.12562e-13 0 -1.17167e-13)
(6.32536e-13 0 -8.83011e-14)
(6.45916e-13 0 -5.8007e-14)
(6.52979e-13 0 -2.71996e-14)
(6.53816e-13 0 3.46207e-15)
(6.48708e-13 0 3.33583e-14)
(6.38348e-13 0 6.18386e-14)
(6.23597e-13 0 8.8358e-14)
(6.05171e-13 0 1.12617e-13)
(5.83555e-13 0 1.34557e-13)
(5.59115e-13 0 1.54244e-13)
(5.32225e-13 0 1.71775e-13)
(5.03279e-13 0 1.87241e-13)
(4.72641e-13 0 2.00743e-13)
(4.40609e-13 0 2.12406e-13)
(4.07436e-13 0 2.22386e-13)
(3.73373e-13 0 2.30857e-13)
(3.38671e-13 0 2.38001e-13)
(3.03563e-13 0 2.43988e-13)
(2.68225e-13 0 2.48964e-13)
(2.32768e-13 0 2.53039e-13)
(1.97234e-13 0 2.56288e-13)
(1.61609e-13 0 2.58769e-13)
(1.25862e-13 0 2.60552e-13)
(8.9989e-14 0 2.61736e-13)
(5.40371e-14 0 2.62438e-13)
(1.80254e-14 0 2.62761e-13)
(-2.18041e-07 0 -2.10054e-06)
(-9.65722e-07 0 -2.45645e-06)
(-1.46767e-06 0 -3.15703e-06)
(-1.87871e-06 0 -4.19281e-06)
(-2.04794e-06 0 -5.54813e-06)
(-1.96905e-06 0 -7.19481e-06)
(-1.5729e-06 0 -9.10796e-06)
(-8.00797e-07 0 -1.12448e-05)
(3.88596e-07 0 -1.35695e-05)
(2.03372e-06 0 -1.60136e-05)
(4.2134e-06 0 -1.84637e-05)
(6.93872e-06 0 -2.08884e-05)
(1.01689e-05 0 -2.30585e-05)
(1.39796e-05 0 -2.50589e-05)
(1.81232e-05 0 -2.6631e-05)
(2.27882e-05 0 -2.74247e-05)
(2.76529e-05 0 -2.79635e-05)
(3.27346e-05 0 -2.76837e-05)
(3.781e-05 0 -2.62755e-05)
(4.23892e-05 0 -2.45041e-05)
(4.63114e-05 0 -2.23873e-05)
(5.01868e-05 0 -1.76996e-05)
(5.26749e-05 0 -1.47461e-05)
(5.49817e-05 0 -1.12147e-05)
(5.65392e-05 0 -7.36769e-06)
(5.72476e-05 0 -3.60903e-06)
(5.75379e-05 0 1.63795e-07)
(5.74331e-05 0 3.96392e-06)
(5.70071e-05 0 7.0688e-06)
(5.62893e-05 0 1.06761e-05)
(5.53395e-05 0 1.44036e-05)
(5.41626e-05 0 1.81598e-05)
(5.26819e-05 0 2.22309e-05)
(5.11219e-05 0 2.65667e-05)
(4.9491e-05 0 3.11212e-05)
(4.72873e-05 0 3.67026e-05)
(4.47923e-05 0 4.2682e-05)
(4.20796e-05 0 4.91257e-05)
(3.89084e-05 0 5.65868e-05)
(3.55213e-05 0 6.47744e-05)
(3.21546e-05 0 7.38392e-05)
(2.8594e-05 0 8.413e-05)
(2.53637e-05 0 9.5739e-05)
(2.21817e-05 0 0.000109152)
(2.03989e-05 0 0.000123971)
(1.91617e-05 0 0.000141585)
(2.00877e-05 0 0.000161653)
(2.40366e-05 0 0.000184464)
(3.18915e-05 0 0.000210999)
(4.58531e-05 0 0.000240011)
(6.70717e-05 0 0.000271455)
(9.78844e-05 0 0.00030425)
(0.000141472 0 0.000335013)
(0.000200196 0 0.000358125)
(0.000269673 0 0.000369566)
(0.000349654 0 0.000360068)
(0.000439265 0 0.000317606)
(0.000514893 0 0.000275409)
(0.000589322 0 0.000151485)
(0.000603266 0 7.78288e-05)
(0.000597409 0 -5.86546e-05)
(0.000579734 0 -0.000115993)
(0.00051994 0 -0.000212673)
(0.000462092 0 -0.000260856)
(0.000386263 0 -0.000304057)
(0.000315452 0 -0.000296404)
(0.000235374 0 -0.000291954)
(0.000177053 0 -0.000272799)
(0.000140618 0 -0.000245599)