0 	-13.5629
0.010101 	-8.35838
0.020202 	-6.98157
0.030303 	-6.48765
0.040404 	-8.35838
