0 	0 	0 	0
0.010101 	-1.34675e-22 	-8.94581e-28 	-6.38402e-24
0.020202 	-2.31064e-24 	-1.51932e-28 	-1.19146e-25
