0.010101 	9.82301e-11 	-5.07103e-15 	1.5591e-12
0.020202 	3.24942e-12 	-9.20749e-16 	6.32228e-14
