/*--------------------------------*- C++ -*----------------------------------*\
  =========                 |
  \\      /  F ield         | OpenFOAM: The Open Source CFD Toolbox
   \\    /   O peration     | Website:  https://openfoam.org
    \\  /    A nd           | Version:  6
     \\/     M anipulation  |
\*---------------------------------------------------------------------------*/
FoamFile
{
    version     2.0;
    format      ascii;
    class       volScalarField;
    location    "4100";
    object      dmdt;
}
// * * * * * * * * * * * * * * * * * * * * * * * * * * * * * * * * * * * * * //

dimensions      [0 0 0 0 0 0 0];

internalField   nonuniform List<scalar> 
4800
(
-0.218292
-0.213696
-0.209102
-0.204522
-0.199968
-0.195458
-0.191015
-0.186667
-0.182441
-0.178366
-0.174464
-0.17075
-0.167244
-0.163959
-0.160888
-0.158019
-0.155326
-0.152772
-0.150328
-0.147974
-0.145686
-0.143447
-0.141238
-0.139039
-0.136833
-0.134602
-0.132336
-0.130024
-0.127656
-0.125229
-0.122734
-0.120165
-0.117522
-0.114808
-0.112027
-0.109181
-0.106275
-0.103316
-0.100312
-0.0972808
-0.0942397
-0.0912084
-0.0882071
-0.0852601
-0.0823879
-0.0796034
-0.0769148
-0.0743258
-0.071837
-0.0694454
-0.067145
-0.064929
-0.0627881
-0.060712
-0.0586927
-0.056723
-0.0547959
-0.0528935
-0.0509958
-0.0490995
-0.0472006
-0.0452893
-0.043359
-0.0414063
-0.0394292
-0.0374275
-0.0354019
-0.03335
-0.0312662
-0.0291458
-0.0269877
-0.0247869
-0.0225312
-0.0202099
-0.0178145
-0.0153396
-0.0127845
-0.0101512
-0.00744398
-0.00466954
-0.00184368
0.00100636
0.00386454
0.00672969
0.0096
0.0124736
0.0153489
0.0182243
0.0210987
0.0239711
0.0268407
0.0297071
0.0325697
0.0354284
0.0382831
0.0411338
0.0439807
0.0468238
0.0496634
0.0524997
0.055333
0.0581635
0.0609915
0.0638174
0.0666412
0.0694634
0.0722841
0.0751034
0.0779217
0.0807391
0.0835557
0.0863717
0.0891872
0.0920023
0.0948171
0.0976316
0.100446
0.10326
0.106074
0.108888
-0.218287
-0.21368
-0.209074
-0.204479
-0.199912
-0.195394
-0.190949
-0.186603
-0.182384
-0.178319
-0.174432
-0.170746
-0.167272
-0.164015
-0.160968
-0.158113
-0.155424
-0.152868
-0.150421
-0.148062
-0.145768
-0.143522
-0.141305
-0.139099
-0.136886
-0.134652
-0.132383
-0.130069
-0.127701
-0.125269
-0.122766
-0.120188
-0.117537
-0.114816
-0.112028
-0.109177
-0.106268
-0.103307
-0.100303
-0.0972707
-0.0942289
-0.091201
-0.0882099
-0.085274
-0.082411
-0.0796332
-0.0769468
-0.0743578
-0.0718684
-0.0694754
-0.0671738
-0.0649565
-0.0628143
-0.0607369
-0.0587154
-0.0567426
-0.0548096
-0.0528993
-0.0510002
-0.0491066
-0.0472088
-0.0452984
-0.0433693
-0.0414178
-0.0394409
-0.0374373
-0.0354073
-0.0333507
-0.0312645
-0.0291444
-0.0269841
-0.0247781
-0.0225188
-0.0201956
-0.0177991
-0.0153223
-0.0127633
-0.0101231
-0.00740993
-0.00463676
-0.00181646
0.00103043
0.00388778
0.00675272
0.0096229
0.0124963
0.0153713
0.0182463
0.0211201
0.0239919
0.0268608
0.0297263
0.0325881
0.0354459
0.0382998
0.0411496
0.0439955
0.0468377
0.0496764
0.0525118
0.0553443
0.058174
0.0610012
0.0638263
0.0666494
0.0694709
0.0722909
0.0751096
0.0779273
0.0807441
0.0835602
0.0863757
0.0891906
0.0920052
0.0948195
0.0976336
0.100448
0.103261
0.106075
0.108889
-0.218278
-0.213652
-0.209027
-0.204416
-0.199838
-0.195318
-0.190876
-0.186539
-0.182337
-0.178298
-0.174446
-0.1708
-0.16737
-0.164151
-0.161131
-0.15829
-0.155599
-0.153037
-0.150584
-0.148215
-0.145911
-0.143655
-0.141427
-0.13921
-0.136989
-0.134751
-0.132481
-0.130166
-0.127796
-0.125358
-0.122845
-0.120256
-0.11759
-0.114852
-0.112049
-0.109186
-0.106269
-0.103304
-0.100301
-0.0972717
-0.0942354
-0.0912157
-0.0882363
-0.0853145
-0.082464
-0.0796953
-0.0770158
-0.0744307
-0.0719419
-0.0695481
-0.0672449
-0.065024
-0.0628757
-0.0607916
-0.0587628
-0.0567802
-0.0548329
-0.0529104
-0.0510094
-0.0491171
-0.0472187
-0.0453079
-0.0433791
-0.0414279
-0.0394509
-0.0374459
-0.0354115
-0.0333479
-0.0312552
-0.0291313
-0.0269678
-0.0247565
-0.022492
-0.0201656
-0.0177674
-0.0152892
-0.0127273
-0.0100834
-0.00736629
-0.00459045
-0.00177055
0.00107584
0.0039333
0.00679841
0.00966858
0.0125417
0.0154161
0.0182902
0.021163
0.0240335
0.026901
0.0297649
0.032625
0.0354811
0.0383331
0.0411811
0.0440252
0.0468656
0.0497025
0.0525361
0.0553669
0.0581949
0.0610206
0.0638441
0.0666658
0.0694859
0.0723045
0.075122
0.0779385
0.0807541
0.0835691
0.0863835
0.0891975
0.0920111
0.0948244
0.0976376
0.100451
0.103263
0.106076
0.108889
-0.218266
-0.213616
-0.208973
-0.204351
-0.19977
-0.195252
-0.190822
-0.186508
-0.182337
-0.178336
-0.174529
-0.170929
-0.167542
-0.164358
-0.161358
-0.158521
-0.155824
-0.153254
-0.150789
-0.148406
-0.14609
-0.143821
-0.141579
-0.139349
-0.137121
-0.13488
-0.132611
-0.130299
-0.127928
-0.125486
-0.122968
-0.120367
-0.117683
-0.114923
-0.112098
-0.109217
-0.106287
-0.103316
-0.100314
-0.0972919
-0.0942673
-0.0912611
-0.0882956
-0.0853892
-0.0825532
-0.0797963
-0.0771281
-0.0745525
-0.0720699
-0.0696789
-0.0673743
-0.0651471
-0.0629891
-0.0608938
-0.0588525
-0.0568548
-0.0548888
-0.0529504
-0.0510371
-0.0491346
-0.0472304
-0.045317
-0.0433869
-0.0414332
-0.0394537
-0.0374469
-0.0354098
-0.0333407
-0.0312398
-0.0291065
-0.0269355
-0.0247188
-0.0224496
-0.0201194
-0.017719
-0.0152404
-0.0126773
-0.0100299
-0.00730843
-0.00452981
-0.00170825
0.00114061
0.00399986
0.00686601
0.00973653
0.0126094
0.015483
0.018356
0.0212273
0.0240959
0.0269613
0.0298229
0.0326805
0.035534
0.0383833
0.0412285
0.0440698
0.0469074
0.0497416
0.0525726
0.0554008
0.0582264
0.0610496
0.0638709
0.0666904
0.0695083
0.072325
0.0751406
0.0779552
0.0807691
0.0835824
0.0863952
0.0892077
0.0920198
0.0948317
0.0976435
0.100455
0.103267
0.106078
0.10889
-0.218254
-0.213583
-0.208927
-0.204299
-0.199722
-0.195216
-0.190805
-0.186519
-0.182386
-0.178432
-0.174675
-0.171122
-0.167771
-0.16461
-0.161622
-0.158788
-0.156086
-0.153501
-0.151016
-0.148615
-0.146281
-0.143995
-0.14174
-0.139503
-0.137271
-0.135025
-0.132753
-0.130437
-0.128064
-0.125621
-0.123098
-0.120491
-0.117795
-0.115017
-0.112171
-0.109271
-0.106325
-0.103342
-0.100334
-0.0973181
-0.0943129
-0.0913327
-0.0883918
-0.0855066
-0.0826888
-0.0799491
-0.0772966
-0.0747343
-0.0722618
-0.0698755
-0.0675694
-0.0653362
-0.0631689
-0.0610599
-0.0590014
-0.0569837
-0.0549958
-0.0530372
-0.0511029
-0.0491794
-0.0472599
-0.0453371
-0.0434007
-0.0414421
-0.0394578
-0.0374466
-0.0354055
-0.0333315
-0.0312237
-0.0290809
-0.0269003
-0.0246751
-0.0223986
-0.0200628
-0.0176585
-0.0151782
-0.0126159
-0.0099712
-0.00725019
-0.00446393
-0.00163218
0.00122326
0.0040864
0.00695465
0.00982605
0.0126989
0.0155718
0.0184434
0.0213127
0.024179
0.0270416
0.0299002
0.0327545
0.0356044
0.0384501
0.0412917
0.0441293
0.0469632
0.0497938
0.0526213
0.055446
0.0582682
0.0610883
0.0639065
0.066723
0.0695382
0.0723522
0.0751652
0.0779774
0.080789
0.0836001
0.0864108
0.0892212
0.0920314
0.0948414
0.0976513
0.100461
0.103271
0.106081
0.108891
-0.218246
-0.213561
-0.2089
-0.20428
-0.199713
-0.195224
-0.19084
-0.186589
-0.1825
-0.178592
-0.174881
-0.171367
-0.168043
-0.164895
-0.16191
-0.159072
-0.15636
-0.153759
-0.151255
-0.148836
-0.14649
-0.144193
-0.141926
-0.139679
-0.137434
-0.135177
-0.132893
-0.130568
-0.128188
-0.125739
-0.123212
-0.1206
-0.117899
-0.115114
-0.112257
-0.109343
-0.10639
-0.103407
-0.100404
-0.0973959
-0.0944027
-0.0914414
-0.0885244
-0.0856632
-0.0828696
-0.0801554
-0.0775256
-0.0749814
-0.0725224
-0.0701428
-0.0678368
-0.0655992
-0.0634226
-0.0612988
-0.0592198
-0.0571775
-0.0551658
-0.0531838
-0.0512223
-0.0492725
-0.0473303
-0.0453874
-0.0434356
-0.0414669
-0.0394745
-0.037456
-0.0354091
-0.0333305
-0.0312182
-0.0290682
-0.0268781
-0.0246421
-0.0223528
-0.0200057
-0.0175938
-0.0151074
-0.0125412
-0.00989417
-0.00717134
-0.00438218
-0.00154192
0.00132338
0.00419205
0.0070634
0.00993628
0.0128094
0.0156817
0.0185518
0.021419
0.0242825
0.0271418
0.0299967
0.0328469
0.0356925
0.0385337
0.0413707
0.0442036
0.047033
0.049859
0.052682
0.0555024
0.0583204
0.0611365
0.0639508
0.0667636
0.0695753
0.0723859
0.0751958
0.078005
0.0808137
0.083622
0.0864301
0.089238
0.0920457
0.0948534
0.0976611
0.100469
0.103276
0.106084
0.108892
-0.218242
-0.213557
-0.2089
-0.204289
-0.19974
-0.195274
-0.190924
-0.186715
-0.18267
-0.178808
-0.175138
-0.171655
-0.168347
-0.165205
-0.162218
-0.15937
-0.156646
-0.154033
-0.151519
-0.149089
-0.146723
-0.144402
-0.142114
-0.139847
-0.137582
-0.135307
-0.133008
-0.130669
-0.128276
-0.125817
-0.123283
-0.120666
-0.117963
-0.115179
-0.112321
-0.109405
-0.106449
-0.103471
-0.100484
-0.0974979
-0.0945275
-0.0915888
-0.0886982
-0.0858672
-0.083105
-0.0804208
-0.077817
-0.0752934
-0.0728483
-0.070477
-0.0681756
-0.0659352
-0.0637479
-0.0616097
-0.0595116
-0.0574486
-0.0554152
-0.0534056
-0.0514126
-0.0494325
-0.0474594
-0.045487
-0.0435098
-0.0415215
-0.039515
-0.0374868
-0.0354337
-0.0333511
-0.0312339
-0.0290763
-0.0268746
-0.0246251
-0.0223216
-0.0199592
-0.0175329
-0.0150339
-0.0124572
-0.00980361
-0.00707669
-0.0042821
-0.00143328
0.00144109
0.00431578
0.00719092
0.0100659
0.0129399
0.0158118
0.0186807
0.0215456
0.0244061
0.0272617
0.0301122
0.0329577
0.0357982
0.038634
0.0414654
0.0442928
0.0471166
0.0499371
0.0527547
0.0555698
0.0583828
0.061194
0.0640037
0.0668121
0.0696196
0.0724262
0.0752322
0.0780378
0.080843
0.0836481
0.086453
0.0892579
0.0920627
0.0948676
0.0976726
0.100478
0.103283
0.106088
0.108893
-0.218246
-0.213567
-0.20892
-0.204324
-0.199799
-0.195367
-0.191055
-0.186889
-0.182891
-0.179073
-0.175438
-0.171979
-0.168685
-0.165546
-0.162553
-0.159694
-0.156958
-0.154332
-0.151801
-0.149344
-0.146946
-0.144591
-0.142271
-0.139971
-0.137675
-0.135374
-0.133055
-0.1307
-0.128293
-0.125824
-0.123284
-0.120666
-0.117969
-0.115195
-0.11235
-0.109446
-0.106503
-0.103539
-0.100569
-0.0976072
-0.094669
-0.0917671
-0.0889124
-0.0861155
-0.0833872
-0.0807358
-0.078162
-0.0756635
-0.0732357
-0.0708755
-0.0685799
-0.0663395
-0.0641461
-0.0619976
-0.0598843
-0.0578023
-0.0557446
-0.053707
-0.0516835
-0.0496699
-0.047662
-0.0456556
-0.0436464
-0.0416304
-0.0396026
-0.0375583
-0.0354933
-0.0334014
-0.0312751
-0.029109
-0.0268972
-0.0246329
-0.022311
-0.0199272
-0.0174793
-0.0149624
-0.0123724
-0.00970969
-0.00697476
-0.00416959
-0.00130966
0.00157409
0.00445536
0.00733513
0.0102133
0.0130889
0.0159612
0.0188291
0.021692
0.0245493
0.0274008
0.0302465
0.0330866
0.0359212
0.0387508
0.0415758
0.0443967
0.0472139
0.050028
0.0528393
0.0556483
0.0584553
0.0612608
0.0640651
0.0668683
0.0696708
0.0724728
0.0752743
0.0780757
0.0808769
0.0836782
0.0864794
0.0892808
0.0920823
0.094884
0.0976859
0.100488
0.10329
0.106092
0.108894
-0.218259
-0.213603
-0.208975
-0.204396
-0.199897
-0.195503
-0.191235
-0.187115
-0.183159
-0.179379
-0.175775
-0.172336
-0.169055
-0.16592
-0.162919
-0.160047
-0.157294
-0.154643
-0.152077
-0.149579
-0.147136
-0.144736
-0.142372
-0.140028
-0.137694
-0.135358
-0.133007
-0.130627
-0.128206
-0.12573
-0.123191
-0.120582
-0.117901
-0.115149
-0.112329
-0.109452
-0.106534
-0.103596
-0.100656
-0.0977285
-0.0948285
-0.0919674
-0.0891542
-0.0863979
-0.0837099
-0.0810964
-0.0785563
-0.0760871
-0.0736834
-0.0713398
-0.0690525
-0.0668154
-0.0646211
-0.0624669
-0.0603417
-0.0582432
-0.0561631
-0.0540982
-0.0520429
-0.0499949
-0.0479516
-0.045909
-0.0438641
-0.0418148
-0.0397592
-0.0376923
-0.0356075
-0.0334978
-0.0313555
-0.0291729
-0.0269417
-0.0246557
-0.0223115
-0.0199051
-0.0174333
-0.0148945
-0.0122866
-0.00960876
-0.0068597
-0.00404329
-0.00117432
0.00171874
0.00460733
0.00749308
0.0103758
0.0132545
0.0161282
0.018996
0.0218571
0.0247115
0.0275588
0.0303993
0.0332334
0.0360615
0.038884
0.0417017
0.0445152
0.0473249
0.0501315
0.0529356
0.0557375
0.0585377
0.0613367
0.0641347
0.066932
0.0697288
0.0725254
0.0753219
0.0781185
0.0809152
0.0837121
0.0865092
0.0893067
0.0921044
0.0949025
0.0977008
0.100499
0.103298
0.106097
0.108896
-0.218261
-0.213619
-0.209029
-0.204501
-0.200044
-0.195686
-0.191458
-0.187382
-0.183472
-0.179729
-0.176149
-0.172725
-0.169452
-0.166317
-0.163311
-0.160422
-0.157643
-0.154953
-0.152337
-0.149785
-0.147285
-0.144827
-0.142403
-0.140002
-0.137616
-0.135235
-0.132847
-0.13044
-0.128003
-0.125526
-0.122996
-0.120406
-0.117752
-0.115032
-0.112248
-0.109408
-0.10653
-0.103634
-0.100734
-0.097848
-0.0949911
-0.0921754
-0.0894116
-0.0867068
-0.084067
-0.0814955
-0.0789926
-0.0765564
-0.0741816
-0.071861
-0.0695898
-0.0673629
-0.0651754
-0.0630229
-0.060893
-0.0587828
-0.0566842
-0.0545959
-0.052514
-0.0504347
-0.048354
-0.0462708
-0.0441848
-0.0420965
-0.040006
-0.0379089
-0.0357967
-0.0336609
-0.0314919
-0.0292823
-0.0270236
-0.0247093
-0.0223362
-0.0199009
-0.0174003
-0.0148336
-0.0122013
-0.00950141
-0.00673282
-0.00390579
-0.0010315
0.00186976
0.00476694
0.00766091
0.0105506
0.0134344
0.0163112
0.0191799
0.0220402
0.0248918
0.027735
0.0305701
0.0333978
0.0362186
0.0390334
0.0418429
0.044648
0.0474493
0.0502475
0.0530433
0.0558372
0.0586298
0.0614213
0.0642123
0.0670029
0.0697933
0.0725839
0.0753748
0.0781659
0.0809575
0.0837496
0.0865422
0.0893352
0.0921288
0.0949228
0.0977172
0.100512
0.103307
0.106102
0.108898
-0.218288
-0.213691
-0.209128
-0.204627
-0.20021
-0.195903
-0.191725
-0.187693
-0.183821
-0.180111
-0.176557
-0.173149
-0.169881
-0.166743
-0.163724
-0.160811
-0.157993
-0.155247
-0.152564
-0.14994
-0.147363
-0.144831
-0.142336
-0.139871
-0.137429
-0.134997
-0.132567
-0.130134
-0.127686
-0.12521
-0.122692
-0.120127
-0.117506
-0.114823
-0.112083
-0.109292
-0.106465
-0.103619
-0.100774
-0.0979458
-0.0951478
-0.0923905
-0.0896831
-0.087033
-0.084446
-0.0819234
-0.0794643
-0.077067
-0.0747267
-0.0724367
-0.0701922
-0.0679866
-0.0658147
-0.0636705
-0.0615424
-0.0594274
-0.0573215
-0.0552201
-0.0531169
-0.0510078
-0.0488906
-0.0467658
-0.0446356
-0.0425038
-0.0403723
-0.0382364
-0.0360864
-0.0339132
-0.0317073
-0.0294599
-0.0271611
-0.0248064
-0.0223935
-0.0199201
-0.0173834
-0.0147828
-0.0121199
-0.00939415
-0.00660818
-0.00377223
-0.000891289
0.00201917
0.00492806
0.00783418
0.0107344
0.0136262
0.0165082
0.0193795
0.0222398
0.0250894
0.0279287
0.0307583
0.0335792
0.0363923
0.0391986
0.0419991
0.0447948
0.0475867
0.0503756
0.0531622
0.0559472
0.0587311
0.0615144
0.0642975
0.0670806
0.0698641
0.072648
0.0754325
0.0782178
0.0810038
0.0837905
0.0865781
0.0893664
0.0921553
0.094945
0.0977352
0.100526
0.103317
0.106108
0.1089
-0.218314
-0.213767
-0.209248
-0.204787
-0.200415
-0.196154
-0.192023
-0.188034
-0.184198
-0.180518
-0.176986
-0.173593
-0.17033
-0.167188
-0.16415
-0.161201
-0.158327
-0.155512
-0.152749
-0.150036
-0.147371
-0.144752
-0.142175
-0.139633
-0.137122
-0.134635
-0.132168
-0.12971
-0.127252
-0.124777
-0.122277
-0.119742
-0.117163
-0.114529
-0.111841
-0.109106
-0.106339
-0.103556
-0.100778
-0.0980194
-0.0952915
-0.0926026
-0.0899599
-0.0873707
-0.0848417
-0.0823745
-0.079967
-0.0776164
-0.0753184
-0.0730672
-0.070859
-0.0686855
-0.0665395
-0.0644128
-0.0622986
-0.0601927
-0.0580891
-0.0559806
-0.0538614
-0.051727
-0.0495763
-0.0474117
-0.0452379
-0.0430611
-0.0408838
-0.0387013
-0.036504
-0.0342827
-0.0320271
-0.0297278
-0.027375
-0.024966
-0.0224997
-0.0199746
-0.0173894
-0.0147451
-0.0120451
-0.00929354
-0.00649253
-0.00364731
-0.000760779
0.00215741
0.00508399
0.00800863
0.0109243
0.0138276
0.0167174
0.0195931
0.0224549
0.0253033
0.0281391
0.0309633
0.0337772
0.036582
0.0393791
0.0421698
0.0449554
0.047737
0.0505155
0.053292
0.0560671
0.0588414
0.0616156
0.06439
0.067165
0.0699407
0.0727173
0.0754949
0.0782737
0.0810536
0.0838346
0.0866167
0.0893998
0.0921838
0.0949687
0.0977544
0.100541
0.103327
0.106114
0.108902
-0.21834
-0.213845
-0.209379
-0.204972
-0.20065
-0.196436
-0.192349
-0.188402
-0.184602
-0.180947
-0.177431
-0.174048
-0.170785
-0.16763
-0.164566
-0.16157
-0.158627
-0.155731
-0.152876
-0.15006
-0.147291
-0.144568
-0.141895
-0.139269
-0.136689
-0.134149
-0.131643
-0.129164
-0.126701
-0.124235
-0.121758
-0.119257
-0.116724
-0.114146
-0.111521
-0.108854
-0.106157
-0.103449
-0.100748
-0.0980672
-0.0954162
-0.0928033
-0.0902353
-0.0877179
-0.0852557
-0.0828507
-0.0805017
-0.0782062
-0.07596
-0.0737577
-0.0715955
-0.0694639
-0.0673544
-0.0652588
-0.0631707
-0.0610839
-0.0589917
-0.0568858
-0.0547588
-0.0526051
-0.0504255
-0.0482243
-0.0460089
-0.0437873
-0.0415619
-0.0393266
-0.0370725
-0.0347906
-0.0324707
-0.0301037
-0.0276811
-0.0252016
-0.0226653
-0.020073
-0.017425
-0.0147267
-0.0119855
-0.0092035
-0.00638222
-0.00352975
-0.000646967
0.0022696
0.00522881
0.00818178
0.0111185
0.014037
0.0169373
0.0198194
0.0226842
0.0255324
0.0283654
0.0311844
0.0339911
0.0367873
0.0395746
0.0423547
0.0451292
0.0478995
0.0506667
0.053432
0.0561963
0.0589602
0.0617245
0.0644894
0.0672554
0.0700226
0.0727913
0.0755616
0.0783333
0.0811067
0.0838815
0.0866577
0.0894353
0.0922141
0.094994
0.0977748
0.100556
0.103338
0.106121
0.108904
-0.218366
-0.213926
-0.209516
-0.205162
-0.200894
-0.196733
-0.192694
-0.18879
-0.185024
-0.181389
-0.177881
-0.174494
-0.17122
-0.168043
-0.164941
-0.161893
-0.158881
-0.155895
-0.152933
-0.149995
-0.147101
-0.14426
-0.141481
-0.138764
-0.13611
-0.133518
-0.130979
-0.128482
-0.126019
-0.123572
-0.121128
-0.118671
-0.116196
-0.113686
-0.111134
-0.108546
-0.105933
-0.10331
-0.100693
-0.0980944
-0.0955259
-0.0929956
-0.090509
-0.0880709
-0.0856848
-0.0833515
-0.08107
-0.0788391
-0.0766555
-0.0745141
-0.0724089
-0.0703296
-0.0682679
-0.0662144
-0.0641622
-0.0621043
-0.0600328
-0.0579369
-0.0558083
-0.0536421
-0.0514398
-0.0492068
-0.0469526
-0.0446866
-0.0424098
-0.040116
-0.0377974
-0.0354447
-0.0330473
-0.0305972
-0.0280884
-0.0255217
-0.0228988
-0.0202236
-0.0175029
-0.0147482
-0.0119653
-0.00915345
-0.00631362
-0.00344787
-0.000565574
0.00215576
0.00536402
0.00835593
0.0113173
0.0142535
0.0171665
0.0200572
0.0229266
0.0257759
0.0286067
0.0314209
0.0342205
0.0370077
0.0397846
0.0425533
0.0453158
0.0480737
0.0508287
0.0535819
0.0563343
0.059087
0.0618404
0.064595
0.0673514
0.0701096
0.0728697
0.075632
0.0783963
0.0811626
0.0839309
0.086701
0.0894727
0.0922459
0.0950205
0.0977961
0.100573
0.10335
0.106128
0.108906
-0.218395
-0.214013
-0.209662
-0.205363
-0.201143
-0.197026
-0.193028
-0.189157
-0.185415
-0.181796
-0.178292
-0.174896
-0.171599
-0.168382
-0.165223
-0.1621
-0.158997
-0.155912
-0.152844
-0.149791
-0.146773
-0.143809
-0.140918
-0.138108
-0.135383
-0.13274
-0.13017
-0.127664
-0.125211
-0.122792
-0.120391
-0.11799
-0.115581
-0.113148
-0.110679
-0.10818
-0.10566
-0.103131
-0.100609
-0.0981046
-0.095628
-0.093187
-0.0907875
-0.088434
-0.0861298
-0.0838761
-0.0816722
-0.0795165
-0.0774066
-0.0753361
-0.0732969
-0.071279
-0.0692745
-0.0672734
-0.0652674
-0.0632478
-0.0612056
-0.0591283
-0.0570059
-0.0548328
-0.0526115
-0.0503494
-0.0480586
-0.0457484
-0.0434181
-0.0410605
-0.0386698
-0.0362363
-0.0337501
-0.0312055
-0.0285991
-0.0259334
-0.0232129
-0.0204449
-0.0176451
-0.0148283
-0.0119969
-0.00914885
-0.00628144
-0.00339164
-0.000474589
0.00249834
0.00553176
0.00854044
0.0115218
0.0144762
0.0174039
0.0203052
0.0231812
0.0260331
0.0288627
0.0316724
0.0344648
0.0372426
0.0400084
0.042765
0.0455145
0.0482592
0.0510008
0.0537408
0.0564806
0.0592209
0.0619627
0.0647064
0.0674523
0.0702008
0.072952
0.0757057
0.0784622
0.0812211
0.0839824
0.086746
0.0895116
0.092279
0.095048
0.0978184
0.10059
0.103362
0.106135
0.108909
-0.218419
-0.214088
-0.20979
-0.205547
-0.201379
-0.197307
-0.193343
-0.189493
-0.185763
-0.182147
-0.178636
-0.175219
-0.171883
-0.168608
-0.165373
-0.162161
-0.158962
-0.15577
-0.15259
-0.149425
-0.146287
-0.143205
-0.140208
-0.137312
-0.134521
-0.131835
-0.129246
-0.126741
-0.124308
-0.121924
-0.119575
-0.117237
-0.1149
-0.11255
-0.11017
-0.107767
-0.105348
-0.102922
-0.100502
-0.0980994
-0.0957225
-0.0933792
-0.0910749
-0.0888141
-0.0866003
-0.0844342
-0.0823156
-0.0802422
-0.0782134
-0.0762201
-0.0742538
-0.0723051
-0.0703644
-0.0684217
-0.0664679
-0.0644941
-0.0624892
-0.0604372
-0.0583265
-0.0561519
-0.0539156
-0.0516281
-0.049303
-0.0469482
-0.0445614
-0.042135
-0.0396649
-0.0371418
-0.034557
-0.0319069
-0.0291924
-0.0264208
-0.0236002
-0.0207424
-0.0178657
-0.014981
-0.0120896
-0.00918989
-0.00627718
-0.00334247
-0.000376034
0.00264549
0.00569623
0.00872517
0.0117283
0.0147032
0.0176483
0.020563
0.0234477
0.0263037
0.0291331
0.0319387
0.0347238
0.0374918
0.0402458
0.0429892
0.0457248
0.0484551
0.0511823
0.0539082
0.0566342
0.0593615
0.0620908
0.0648227
0.0675576
0.0702958
0.0730374
0.0757823
0.0785304
0.0812816
0.0840357
0.0867924
0.0895516
0.092313
0.0950763
0.0978412
0.100607
0.103375
0.106143
0.108911
-0.218438
-0.214148
-0.2099
-0.205708
-0.201585
-0.197547
-0.193606
-0.189769
-0.186039
-0.182411
-0.178877
-0.175423
-0.172028
-0.168674
-0.165347
-0.162034
-0.158728
-0.155429
-0.152143
-0.148871
-0.14563
-0.142454
-0.139375
-0.136412
-0.133572
-0.130858
-0.12826
-0.125765
-0.123357
-0.121015
-0.118724
-0.116454
-0.114192
-0.111928
-0.109643
-0.107342
-0.10503
-0.102714
-0.100403
-0.098107
-0.0958353
-0.0935953
-0.0913917
-0.0892289
-0.0871092
-0.0850339
-0.0830041
-0.0810157
-0.07907
-0.0771557
-0.0752642
-0.0733858
-0.0715112
-0.0696295
-0.0677302
-0.0658043
-0.0638383
-0.0618134
-0.0597173
-0.057545
-0.0552981
-0.0529899
-0.0506338
-0.0482352
-0.0457902
-0.0432914
-0.040737
-0.0381183
-0.0354298
-0.0326704
-0.0298457
-0.026967
-0.024047
-0.0211012
-0.018145
-0.0151849
-0.012224
-0.00925925
-0.00628645
-0.00329955
-0.000288093
0.00276991
0.00584823
0.00890381
0.0119335
0.0149332
0.0178997
0.0208309
0.0237267
0.0265884
0.0294184
0.0322202
0.0349977
0.0377551
0.0404964
0.0432256
0.045946
0.0486608
0.0513725
0.0540832
0.0567945
0.0595077
0.0622237
0.0649432
0.0676665
0.0703939
0.0731254
0.0758609
0.0786004
0.0813435
0.0840901
0.0868399
0.0895926
0.0923478
0.0951052
0.0978645
0.100625
0.103387
0.10615
0.108914
-0.218454
-0.214198
-0.209985
-0.205828
-0.201735
-0.197719
-0.193792
-0.189957
-0.186213
-0.182554
-0.17897
-0.175451
-0.17198
-0.168539
-0.165115
-0.161701
-0.15829
-0.154888
-0.151505
-0.148147
-0.144832
-0.141595
-0.138468
-0.135471
-0.132611
-0.129888
-0.127299
-0.124827
-0.122453
-0.120157
-0.117924
-0.115723
-0.113539
-0.111361
-0.109174
-0.106975
-0.104769
-0.102562
-0.100363
-0.098177
-0.0960124
-0.0938746
-0.0917693
-0.0897007
-0.0876717
-0.0856837
-0.0837369
-0.081828
-0.0799594
-0.0781177
-0.0762957
-0.0744833
-0.0726714
-0.0708479
-0.0690024
-0.0671233
-0.0651925
-0.0631897
-0.061104
-0.0589316
-0.0566758
-0.0543513
-0.0519681
-0.0495279
-0.0470251
-0.044452
-0.0418097
-0.0390933
-0.0363019
-0.0334366
-0.0305066
-0.0275266
-0.0245133
-0.0214831
-0.0184468
-0.0154103
-0.0123776
-0.00934568
-0.00630933
-0.00326331
-0.000203022
0.00288543
0.0059892
0.00907598
0.0121378
0.0151676
0.0181597
0.0211109
0.0240202
0.0268889
0.02972
0.0325177
0.0352869
0.0380326
0.04076
0.0434736
0.0461775
0.0488755
0.0515704
0.0542647
0.0569603
0.0596585
0.0623605
0.0650669
0.067778
0.0704941
0.0732151
0.075941
0.0786716
0.0814065
0.0841454
0.0868881
0.089634
0.0923829
0.0951344
0.097888
0.100643
0.1034
0.106158
0.108916
-0.218466
-0.214233
-0.21004
-0.2059
-0.20182
-0.19781
-0.193877
-0.190026
-0.186251
-0.182545
-0.1789
-0.175303
-0.171742
-0.168205
-0.164685
-0.161175
-0.157672
-0.154185
-0.150728
-0.147314
-0.143964
-0.140711
-0.13758
-0.13459
-0.131745
-0.129045
-0.126488
-0.124058
-0.121732
-0.119491
-0.117315
-0.115179
-0.113066
-0.110968
-0.108871
-0.106768
-0.104663
-0.10256
-0.100463
-0.0983798
-0.0963152
-0.0942729
-0.0922557
-0.0902672
-0.0883107
-0.0863893
-0.084506
-0.0826605
-0.0808517
-0.0790664
-0.0772983
-0.0755373
-0.0737747
-0.0719967
-0.0701923
-0.0683474
-0.0664421
-0.0644559
-0.0623789
-0.0602076
-0.0579454
-0.0556063
-0.0531963
-0.050714
-0.0481516
-0.0455033
-0.0427726
-0.0399593
-0.0370674
-0.0341025
-0.0310784
-0.0280109
-0.0249167
-0.0218097
-0.0186991
-0.0155927
-0.0124947
-0.00940478
-0.00632019
-0.00323527
-0.000138466
0.00298375
0.00612157
0.00924565
0.0123456
0.0154109
0.0184333
0.0214075
0.0243321
0.0272085
0.0300403
0.032833
0.0355924
0.0383249
0.0410364
0.0437327
0.0464185
0.0490981
0.0517749
0.0544516
0.0571305
0.059813
0.0625002
0.0651928
0.0678913
0.0705956
0.0733059
0.0760219
0.0787433
0.0814698
0.0842009
0.0869363
0.0896755
0.0924181
0.0951636
0.0979115
0.100661
0.103413
0.106165
0.108919
-0.218474
-0.214253
-0.210063
-0.205918
-0.20183
-0.197808
-0.193857
-0.189973
-0.186151
-0.182384
-0.178663
-0.174981
-0.171328
-0.1677
-0.164095
-0.160507
-0.156938
-0.153398
-0.149907
-0.146484
-0.143151
-0.139938
-0.136865
-0.133938
-0.131155
-0.128518
-0.126021
-0.123648
-0.121381
-0.119195
-0.117072
-0.114992
-0.11294
-0.110907
-0.108882
-0.106859
-0.104836
-0.102817
-0.100808
-0.0988105
-0.0968248
-0.0948501
-0.092889
-0.0909462
-0.089028
-0.0871414
-0.0852901
-0.0834754
-0.0816939
-0.0799355
-0.0781923
-0.076455
-0.0747152
-0.0729587
-0.0711736
-0.0693421
-0.067445
-0.0654642
-0.0633912
-0.0612213
-0.0589571
-0.0566061
-0.0541703
-0.0516461
-0.0490251
-0.0463018
-0.0434813
-0.0405729
-0.0375863
-0.0345326
-0.0314285
-0.0282909
-0.0251339
-0.021968
-0.0188026
-0.0156476
-0.0125077
-0.00938611
-0.00628071
-0.00317578
-5.72634e-05
0.00308729
0.00625774
0.00942224
0.0125655
0.0156716
0.0187283
0.021728
0.0246687
0.0275521
0.0303832
0.0331685
0.0359157
0.0386324
0.0413258
0.0440024
0.0466681
0.0493276
0.0519848
0.0546428
0.0573038
0.0599697
0.0626415
0.0653199
0.0680052
0.0706975
0.0733968
0.0761027
0.0788148
0.0815328
0.0842561
0.0869843
0.0897167
0.092453
0.0951925
0.0979348
0.100679
0.103426
0.106173
0.108921
-0.218472
-0.214242
-0.210036
-0.205871
-0.201764
-0.197715
-0.193726
-0.189794
-0.185912
-0.182074
-0.178275
-0.17451
-0.170777
-0.167077
-0.163411
-0.159783
-0.156194
-0.15266
-0.1492
-0.145839
-0.142598
-0.139496
-0.136538
-0.133721
-0.131041
-0.128501
-0.126097
-0.123805
-0.121607
-0.119483
-0.117414
-0.115382
-0.113374
-0.11138
-0.109393
-0.107413
-0.105439
-0.103474
-0.101519
-0.0995719
-0.0976244
-0.0956721
-0.0937155
-0.0917617
-0.0898244
-0.0879154
-0.0860403
-0.0842026
-0.0823988
-0.0806204
-0.0788581
-0.077103
-0.075346
-0.0735741
-0.0717734
-0.0699256
-0.0680129
-0.0660226
-0.0639461
-0.061776
-0.0595088
-0.057145
-0.0546832
-0.05212
-0.0494483
-0.0466605
-0.0437592
-0.0407629
-0.037694
-0.0345708
-0.0314074
-0.0282193
-0.0250208
-0.0218214
-0.0186306
-0.0154606
-0.0123191
-0.00920931
-0.00612491
-0.00304077
6.41357e-05
0.0032145
0.00641177
0.00961755
0.0128091
0.0159616
0.0190562
0.0220827
0.0250385
0.0279265
0.0307534
0.0335277
0.0362588
0.0389561
0.041628
0.0442822
0.0469253
0.0495627
0.0521986
0.0548365
0.0574788
0.0601273
0.062783
0.0654467
0.0681186
0.0707987
0.0734868
0.0761826
0.0788854
0.0815949
0.0843104
0.0870314
0.0897572
0.0924872
0.0952208
0.0979575
0.100697
0.103438
0.10618
0.108924
-0.21846
-0.214203
-0.209967
-0.205767
-0.201617
-0.197522
-0.193482
-0.18949
-0.185544
-0.181639
-0.177773
-0.173945
-0.170158
-0.166421
-0.162743
-0.159134
-0.155604
-0.152167
-0.148836
-0.145632
-0.142571
-0.139661
-0.136901
-0.134261
-0.131727
-0.129315
-0.127032
-0.124838
-0.122714
-0.120649
-0.118623
-0.116617
-0.114622
-0.11263
-0.110637
-0.108647
-0.106663
-0.104693
-0.102733
-0.100772
-0.098795
-0.0967898
-0.0947551
-0.092703
-0.090659
-0.088641
-0.0866621
-0.084727
-0.0828317
-0.0809688
-0.0791274
-0.0772986
-0.0754733
-0.0736386
-0.0717797
-0.0698822
-0.067931
-0.0659128
-0.063816
-0.0616331
-0.0593551
-0.0569781
-0.0544953
-0.0519034
-0.0491974
-0.0463684
-0.0434029
-0.0403226
-0.0371743
-0.0339973
-0.0307999
-0.0275906
-0.0243812
-0.0211864
-0.0180135
-0.0148772
-0.0117908
-0.00875721
-0.00576003
-0.00276388
0.000272033
0.00339097
0.00659496
0.00984119
0.0130892
0.0162957
0.0194321
0.0224851
0.0254526
0.0283401
0.0311568
0.0339141
0.0366237
0.0392965
0.0419427
0.044571
0.0471887
0.0498017
0.0524147
0.0550312
0.0576537
0.0602841
0.0629233
0.065572
0.0682303
0.0708981
0.073575
0.0762606
0.0789543
0.0816554
0.0843632
0.0870771
0.0897964
0.0925203
0.0952483
0.0979796
0.100714
0.10345
0.106187
0.108926
-0.218431
-0.214116
-0.209823
-0.205571
-0.201371
-0.197225
-0.19313
-0.189082
-0.185078
-0.181121
-0.177214
-0.173361
-0.169572
-0.165863
-0.162254
-0.158762
-0.155403
-0.152185
-0.149121
-0.146219
-0.14347
-0.140864
-0.138388
-0.135968
-0.133593
-0.131337
-0.129218
-0.127129
-0.125046
-0.123012
-0.121001
-0.11899
-0.116972
-0.114934
-0.11287
-0.110784
-0.108697
-0.106625
-0.104561
-0.102489
-0.100383
-0.0982161
-0.0959823
-0.0937021
-0.0914262
-0.0891842
-0.0869991
-0.0848764
-0.0828059
-0.0807775
-0.0787795
-0.0768011
-0.0748391
-0.0728828
-0.0709164
-0.0689312
-0.0669152
-0.0648537
-0.0627241
-0.0605185
-0.0582194
-0.0558216
-0.0533133
-0.0506954
-0.0479594
-0.0450966
-0.0420759
-0.0389377
-0.035746
-0.0325559
-0.0293592
-0.0261651
-0.0229829
-0.0198424
-0.0167426
-0.0137032
-0.0107412
-0.00786708
-0.00504959
-0.00223834
0.000634566
0.00363957
0.00679901
0.0100918
0.0134171
0.0166922
0.0198751
0.022952
0.0259244
0.0288025
0.0316
0.0343317
0.037012
0.0396541
0.0422693
0.0448674
0.0474564
0.0500426
0.0526308
0.0552247
0.0578266
0.0604383
0.0630607
0.0656942
0.0683389
0.0709944
0.0736603
0.076336
0.0790206
0.0817135
0.0844139
0.087121
0.0898339
0.092552
0.0952745
0.0980006
0.10073
0.103461
0.106194
0.108928
-0.21839
-0.213995
-0.209626
-0.205303
-0.20104
-0.196834
-0.192686
-0.188595
-0.184561
-0.18059
-0.17669
-0.172877
-0.169169
-0.165594
-0.162178
-0.158946
-0.155916
-0.153095
-0.150483
-0.148062
-0.145766
-0.143581
-0.141474
-0.139306
-0.137089
-0.134975
-0.133048
-0.131061
-0.128943
-0.126891
-0.124858
-0.122806
-0.120725
-0.118585
-0.11635
-0.114031
-0.111695
-0.109373
-0.107049
-0.10472
-0.102351
-0.0998726
-0.0972671
-0.0945807
-0.0919167
-0.0893148
-0.0868134
-0.0844122
-0.0820753
-0.0797907
-0.0775405
-0.0753164
-0.0731374
-0.0709984
-0.0688764
-0.0667689
-0.0646666
-0.0625541
-0.06038
-0.0581348
-0.0557869
-0.0533516
-0.0508088
-0.0481802
-0.0454304
-0.0425627
-0.0395074
-0.0363317
-0.0331153
-0.0299597
-0.0267989
-0.0236566
-0.0205327
-0.0175013
-0.0145446
-0.0116888
-0.00894211
-0.00635151
-0.00385783
-0.00139093
0.00117467
0.00393603
0.00695127
0.0103446
0.0138046
0.0171756
0.0204105
0.0235044
0.0264694
0.0293242
0.0320892
0.0347836
0.0374249