/*--------------------------------*- C++ -*----------------------------------*\
  =========                 |
  \\      /  F ield         | OpenFOAM: The Open Source CFD Toolbox
   \\    /   O peration     | Website:  https://openfoam.org
    \\  /    A nd           | Version:  6
     \\/     M anipulation  |
\*---------------------------------------------------------------------------*/
FoamFile
{
    version     2.0;
    format      ascii;
    class       surfaceScalarField;
    location    "4100";
    object      phi;
}
// * * * * * * * * * * * * * * * * * * * * * * * * * * * * * * * * * * * * * //

dimensions      [0 3 -1 0 0 0 0];

internalField   nonuniform List<scalar> 
9440
(
3.52658e-11
-3.52658e-11
5.32911e-11
-1.80233e-11
5.9279e-11
-5.98634e-12
5.97266e-11
-4.46075e-13
3.39656e-11
2.57626e-11
-5.80312e-11
9.19982e-11
-1.61308e-10
1.03279e-10
-2.89153e-10
1.27846e-10
-4.45561e-10
1.56409e-10
-5.70533e-10
1.24973e-10
-7.65228e-10
1.94697e-10
-1.05479e-09
2.89567e-10
-1.29684e-09
2.42044e-10
-1.4358e-09
1.3896e-10
-1.54173e-09
1.0593e-10
-1.46582e-09
-7.59077e-11
-1.27566e-09
-1.9016e-10
-1.17316e-09
-1.02491e-10
-1.00577e-09
-1.67394e-10
-8.55419e-10
-1.50351e-10
-6.72488e-10
-1.82931e-10
-4.85468e-10
-1.8702e-10
-2.704e-10
-2.15068e-10
-7.97746e-11
-1.90625e-10
6.67866e-11
-1.46561e-10
1.56392e-10
-8.96054e-11
2.67301e-10
-1.10909e-10
2.85458e-10
-1.81579e-11
3.11014e-10
-2.55559e-11
4.31094e-10
-1.2008e-10
4.73614e-10
-4.25202e-11
4.84879e-10
-1.12653e-11
4.97511e-10
-1.26326e-11
4.84476e-10
1.30347e-11
4.63843e-10
2.0632e-11
4.41635e-10
2.22078e-11
3.78241e-10
6.33937e-11
2.82048e-10
9.61917e-11
1.59466e-10
1.22581e-10
3.69689e-11
1.22497e-10
-9.04136e-11
1.27382e-10
-2.76281e-10
1.85867e-10
-5.30893e-10
2.54611e-10
-7.08843e-10
1.7795e-10
-8.72346e-10
1.63502e-10
-9.83332e-10
1.10985e-10
-1.0506e-09
6.72711e-11
-1.10043e-09
4.98278e-11
-1.1154e-09
1.49635e-11
-1.10914e-09
-6.25306e-12
-1.09837e-09
-1.07763e-11
-1.04746e-09
-5.09103e-11
-1.00029e-09
-4.71705e-11
-9.62697e-10
-3.75931e-11
-9.00854e-10
-6.18442e-11
-8.36546e-10
-6.43079e-11
-5.12228e-10
-3.24319e-10
-3.48859e-10
-1.6337e-10
-4.32322e-10
8.34628e-11
-3.3665e-10
-9.56732e-11
-2.76993e-10
-5.96581e-11
-2.34381e-10
-4.26129e-11
-2.39522e-10
5.1402e-12
-2.25859e-10
-1.3663e-11
-2.36686e-10
1.08257e-11
-2.07515e-10
-2.91711e-11
-1.25318e-10
-8.21976e-11
-4.03226e-11
-8.4996e-11
-9.51443e-12
-3.08087e-11
-3.83163e-11
2.88014e-11
9.97911e-11
-1.38108e-10
2.26762e-10
-1.26971e-10
3.02949e-10
-7.61871e-11
3.66472e-10
-6.35234e-11
3.77168e-10
-1.06961e-11
3.89107e-10
-1.19398e-11
3.9363e-10
-4.52276e-12
4.16202e-10
-2.25723e-11
3.85355e-10
3.0847e-11
2.0763e-10
1.77725e-10
4.28147e-17
2.0763e-10
-3.77146e-18
6.64543e-20
-3.75793e-18
-1.35234e-20
-3.72085e-18
-3.71775e-20
-3.65617e-18
-6.48135e-20
-3.56065e-18
-9.56976e-20
-3.43202e-18
-1.28839e-19
-3.26946e-18
-1.62814e-19
-3.07367e-18
-1.96085e-19
-2.84679e-18
-2.27216e-19
-2.59221e-18
-2.54962e-19
-2.31433e-18
-2.78314e-19
-2.0183e-18
-2.96504e-19
-1.7098e-18
-3.09014e-19
-1.39478e-18
-3.15563e-19
-1.07926e-18
-3.16099e-19
-7.69079e-19
-3.10781e-19
-4.69739e-19
-2.99957e-19
-1.86239e-19
-2.84129e-19
7.70515e-20
-2.63925e-19
3.16472e-19
-2.40057e-19
5.29124e-19
-2.13285e-19
7.12882e-19
-1.84383e-19
8.66375e-19
-1.54106e-19
9.88943e-19
-1.23166e-19
1.08058e-18
-9.22117e-20
1.14184e-18
-6.1816e-20
1.17377e-18
-3.24682e-20
1.17784e-18
-4.57297e-21
1.15582e-18
2.15463e-20
1.10973e-18
4.56417e-20
1.04178e-18
6.75322e-20
9.54289e-19
8.7093e-20
8.49676e-19
1.04246e-19
7.30384e-19
1.18948e-19
5.9888e-19
1.31182e-19
4.57628e-19
1.40947e-19
3.09088e-19
1.48249e-19
1.55718e-19
1.53091e-19
1.55445e-19
3.47628e-11
-7.00266e-11
3.3599e-11
-1.68563e-11
6.88908e-12
2.07263e-11
-7.08644e-11
7.73101e-11
-1.79528e-10
1.34429e-10
-2.90293e-10
2.02765e-10
-4.35593e-10
2.48581e-10
-5.75047e-10
2.67302e-10
-7.52188e-10
3.33553e-10
-9.74831e-10
3.47618e-10
-1.16877e-09
3.88639e-10
-1.31917e-09
4.39969e-10
-1.44503e-09
3.67904e-10
-1.49317e-09
1.87104e-10
-1.47205e-09
8.48084e-11
-1.31624e-09
-2.31716e-10
-1.12136e-09
-3.85045e-10
-1.0497e-09
-1.74143e-10
-8.48844e-10
-3.68255e-10
-7.1285e-10
-2.86344e-10
-5.69144e-10
-3.26637e-10
-4.14213e-10
-3.41952e-10
-2.32715e-10
-3.96566e-10
-9.57643e-11
-3.27577e-10
3.04118e-11
-2.72738e-10
1.10381e-10
-1.69575e-10
1.71129e-10
-1.71658e-10
2.07291e-10
-5.43197e-11
3.12498e-10
-1.30764e-10
3.3105e-10
-1.38633e-10
3.24266e-10
-3.57372e-11
3.21175e-10
-8.17519e-12
3.33183e-10
-2.4641e-11
3.44067e-10
2.14933e-12
3.44476e-10
2.02228e-11
3.30173e-10
3.65095e-11
2.84488e-10
1.09078e-10
1.92435e-10
1.88244e-10
6.25476e-11
2.52468e-10
-1.09733e-10
2.94776e-10
-3.1212e-10
3.29768e-10
-4.67088e-10
3.40834e-10
-5.94449e-10
3.81971e-10
-7.69088e-10
3.52588e-10
-8.5956e-10
2.53973e-10
-9.60618e-10
2.12043e-10
-1.1009e-09
2.07553e-10
-1.15035e-09
9.92721e-11
-1.18991e-09
5.45243e-11
-1.20166e-09
5.50055e-12
-1.19039e-09
-2.20526e-11
-1.12516e-09
-1.16141e-10
-1.03407e-09
-1.3826e-10
-9.57891e-10
-1.13775e-10
-8.83562e-10
-1.36175e-10
-7.30777e-10
-2.17094e-10
-4.51282e-10
-6.03816e-10
-4.55639e-10
-1.59014e-10
-3.54145e-10
-1.80325e-11
-2.54027e-10
-1.95792e-10
-1.7151e-10
-1.42177e-10
-1.30295e-10
-8.38291e-11
-8.86045e-11
-3.65512e-11
-6.51261e-11
-3.71424e-11
-6.91439e-11
1.48424e-11
-8.67824e-11
-1.15335e-11
-6.78579e-11
-1.01123e-10
-9.63232e-12
-1.43222e-10
6.12628e-11
-1.01705e-10
1.50373e-10
-6.03092e-11
1.49331e-10
-1.37067e-10
2.55708e-10
-2.33349e-10
3.16804e-10
-1.37284e-10
3.93165e-10
-1.39885e-10
4.0154e-10
-1.9071e-11
3.94003e-10
-4.40278e-12
3.57248e-10
3.22319e-11
2.35537e-10
9.91382e-11
1.70125e-10
9.62586e-11
1.32878e-10
2.14972e-10
3.14145e-17
3.40508e-10
-3.78598e-18
1.79638e-19
-3.78159e-18
-1.80565e-20
-3.74849e-18
-7.0523e-20
-3.68706e-18
-1.26551e-19
-3.59379e-18
-1.89342e-19
-3.46599e-18
-2.57085e-19
-3.30273e-18
-3.26607e-19
-3.1048e-18
-3.94624e-19
-2.87454e-18
-4.58164e-19
-2.61557e-18
-5.14701e-19
-2.33252e-18
-5.62199e-19
-2.03081e-18
-5.99126e-19
-1.71635e-18
-6.24447e-19
-1.39532e-18
-6.37613e-19
-1.07394e-18
-6.38538e-19
-7.58254e-19
-6.27564e-19
-4.53911e-19
-6.05415e-19
-1.66035e-19
-5.73132e-19
1.0092e-19
-5.32008e-19
3.43244e-19
-4.83503e-19
5.58026e-19
-4.29174e-19
7.43159e-19
-3.706e-19
8.97314e-19
-3.09318e-19
1.0199e-18
-2.46772e-19
1.11097e-18
-1.84272e-19
1.17119e-18
-1.2297e-19
1.20167e-18
-6.38468e-20
1.20396e-18
-7.71083e-21
1.17991e-18
4.47978e-20
1.13162e-18
9.31911e-20
1.06134e-18
1.37116e-19
9.71442e-19
1.76334e-19
8.64378e-19
2.10698e-19
7.42618e-19
2.40132e-19
6.08645e-19
2.64611e-19
4.6493e-19
2.84142e-19
3.1393e-19
2.98748e-19
1.58072e-19
3.08458e-19
3.13304e-19
2.32703e-11
-9.32953e-11
1.15601e-11
-5.14343e-12
-5.90859e-11
9.13747e-11
-1.79601e-10
1.97827e-10
-3.00148e-10
2.54979e-10
-4.00322e-10
3.02941e-10
-5.73123e-10
4.21384e-10
-7.75561e-10
4.69742e-10
-9.42109e-10
5.00102e-10
-1.15608e-09
5.61587e-10
-1.30559e-09
5.38156e-10
-1.37682e-09
5.112e-10
-1.41106e-09
4.02144e-10
-1.36954e-09
1.45582e-10
-1.26505e-09
-1.96766e-11
-1.10288e-09
-3.93888e-10
-1.05951e-09
-4.28411e-10
-8.70962e-10
-3.62693e-10
-7.26015e-10
-5.13202e-10
-5.97968e-10
-4.14392e-10
-4.51489e-10
-4.73116e-10
-2.95002e-10
-4.98439e-10
-1.33362e-10
-5.58206e-10
-3.35806e-11
-4.27358e-10
9.74639e-11
-4.03783e-10
1.77007e-10
-2.49119e-10
2.3236e-10
-2.27011e-10
3.31349e-10
-1.53309e-10
3.70771e-10
-1.70187e-10
3.45686e-10
-1.13548e-10
3.33202e-10
-2.32545e-11
3.19598e-10
5.42809e-12
2.93693e-10
1.26311e-12
2.65227e-10
3.06152e-11
2.48582e-10
3.6867e-11
2.27268e-10
5.78223e-11
1.97348e-10
1.38998e-10
1.17767e-10
2.67824e-10
-1.61214e-12
3.71846e-10
-1.70106e-10
4.6327e-10
-3.7662e-10
5.36281e-10
-5.38272e-10
5.02485e-10
-6.4598e-10
4.89679e-10
-7.73967e-10
4.80574e-10
-8.75932e-10
3.55937e-10
-9.83883e-10
3.19992e-10
-1.08985e-09
3.1352e-10
-1.19365e-09
2.0307e-10
-1.26617e-09
1.27043e-10
-1.29644e-09
3.57669e-11
-1.25436e-09
-6.41317e-11
-1.21002e-09
-1.6048e-10
-1.14213e-09
-2.06157e-10
-1.04862e-09
-2.07285e-10
-9.54338e-10
-2.30455e-10
-8.00815e-10
-3.70619e-10
-7.26697e-10
-6.77934e-10
-6.69738e-10
-2.15975e-10
-3.10335e-10
-3.77436e-10
-1.8718e-10
-3.18948e-10
-1.04178e-10
-2.2518e-10
-4.99785e-11
-1.38029e-10
1.88272e-12
-8.84134e-11
4.32894e-11
-7.855e-11
7.97037e-11
-2.15729e-11
6.22614e-11
5.90801e-12
2.76984e-11
-6.65607e-11
2.52596e-11
-1.40784e-10
8.01491e-11
-1.56595e-10
2.34418e-10
-2.14579e-10
2.55797e-10
-1.58446e-10
2.98515e-10
-2.76068e-10
3.51437e-10
-1.90206e-10
4.20748e-10
-2.09196e-10
4.39191e-10
-3.75146e-11
4.23796e-10
1.09918e-11
3.65639e-10
9.03888e-11
2.9131e-10
1.73467e-10
1.80407e-10
2.07162e-10
1.15297e-10
2.80082e-10
1.70986e-17
4.55804e-10
-3.85269e-18
2.21838e-19
-3.83405e-18
-3.67963e-20
-3.80451e-18
-1.00239e-19
-3.74985e-18
-1.81445e-19
-3.66153e-18
-2.77943e-19
-3.53552e-18
-3.83451e-19
-3.37075e-18
-4.91793e-19
-3.16834e-18
-5.97519e-19
-2.93107e-18
-6.95985e-19
-2.66306e-18
-7.83336e-19
-2.36945e-18
-8.56506e-19
-2.05613e-18
-9.13198e-19
-1.72951e-18
-9.51875e-19
-1.39624e-18
-9.7174e-19
-1.06297e-18
-9.72709e-19
-7.36105e-19
-9.55355e-19
-4.21629e-19
-9.20839e-19
-1.2491e-19
-8.70813e-19
1.49425e-19
-8.07309e-19
3.97573e-19
-7.32614e-19
6.166e-19
-6.49154e-19
8.04441e-19
-5.59376e-19
9.59861e-19
-4.65651e-19
1.0824e-18
-3.70193e-19
1.17228e-18
-2.75e-19
1.23031e-18
-1.81817e-19
1.25781e-18
-9.21187e-20
1.25647e-18
-7.10792e-21
1.22831e-18
7.22706e-20
1.17554e-18
1.45308e-19
1.10055e-18
2.11499e-19
1.00581e-18
2.70515e-19
8.93812e-19
3.22161e-19
7.67097e-19
3.66348e-19
6.28175e-19
4.03061e-19
4.79536e-19
4.3233e-19
3.2364e-19
4.54209e-19
1.62918e-19
4.68754e-19
4.76016e-19
-3.43537e-14
-9.32594e-11
-6.28709e-11
5.76956e-11
-1.64459e-10
1.92965e-10
-2.67665e-10
3.01036e-10
-3.86745e-10
3.7406e-10
-5.43848e-10
4.60046e-10
-6.53472e-10
5.31009e-10
-8.40359e-10
6.56632e-10
-9.89322e-10
6.49066e-10
-1.15558e-09
7.2785e-10
-1.26865e-09
6.5122e-10
-1.31928e-09
5.61839e-10
-1.2623e-09
3.45161e-10
-1.1658e-09
4.9078e-11
-1.05426e-09
-1.31215e-10
-1.07636e-09
-3.71785e-10
-1.03918e-09
-4.65587e-10
-7.96974e-10
-6.04901e-10
-6.97795e-10
-6.12381e-10
-5.41149e-10
-5.71038e-10
-3.92332e-10
-6.21933e-10
-1.92622e-10
-6.9815e-10
-1.57714e-10
-5.93114e-10
-1.2058e-10
-4.64492e-10
3.39747e-11
-5.58338e-10
1.96349e-10
-4.11493e-10
3.39355e-10
-3.70018e-10
4.91424e-10
-3.05379e-10
5.31605e-10
-2.10369e-10
5.64959e-10
-1.46903e-10
5.68156e-10
-2.64524e-11
4.7798e-10
9.56028e-11
3.50494e-10
1.28748e-10
2.57525e-10
1.23584e-10
2.05095e-10
8.92966e-11
1.69236e-10
9.36798e-11
1.29704e-10
1.7853e-10
9.64209e-11
3.01106e-10
3.63693e-11
4.31896e-10
-1.06057e-10
6.05695e-10
-3.15174e-10
7.45398e-10
-5.37937e-10
7.25246e-10
-7.00046e-10
6.51787e-10
-7.9224e-10
5.72768e-10
-9.23766e-10
4.87461e-10
-1.05247e-09
4.487e-10
-1.1261e-09
3.87148e-10
-1.2107e-09
2.87662e-10
-1.2636e-09
1.79945e-10
-1.27954e-09
5.17102e-11
-1.23085e-09
-1.12825e-10
-1.24231e-09
-1.49026e-10
-1.20943e-09
-2.39032e-10
-1.10737e-09
-3.09349e-10
-9.91045e-10
-3.46783e-10
-8.49601e-10
-5.12064e-10
-8.78963e-10
-6.48574e-10
-7.04195e-10
-3.90744e-10
-4.69052e-10
-6.1258e-10
-2.71879e-10
-5.16122e-10
-1.54542e-10
-3.42518e-10
-7.24766e-12
-2.85325e-10
5.36435e-11
-1.49305e-10
6.211e-11
-8.70173e-11
1.06138e-10
-6.56012e-11
1.41982e-10
-2.99369e-11
1.43128e-10
-6.77076e-11
1.10761e-10
-1.08418e-10
1.10308e-10
-1.56143e-10
1.7206e-10
-2.76331e-10
2.44315e-10
-2.30701e-10
2.92452e-10
-3.24206e-10
3.74366e-10
-2.7212e-10
4.13314e-10
-2.48145e-10
4.56471e-10
-8.06719e-11
4.72804e-10
-5.34062e-12
3.78926e-10
1.84266e-10
2.27543e-10
3.24849e-10
8.93988e-11
3.45307e-10
1.13231e-10
2.5625e-10
2.21123e-18
5.69035e-10
-3.91999e-18
1.22058e-19
-3.8975e-18
-5.93749e-20
-3.88572e-18
-1.12149e-19
-3.84635e-18
-2.20998e-19
-3.76704e-18
-3.57482e-19
-3.64386e-18
-5.06927e-19
-3.47647e-18
-6.59533e-19
-3.2668e-18
-8.07615e-19
-3.01843e-18
-9.44857e-19
-2.73623e-18
-1.06609e-18
-2.42614e-18
-1.16723e-18
-2.09481e-18
-1.24523e-18
-1.74938e-18
-1.29806e-18
-1.39721e-18
-1.32471e-18
-1.04561e-18
-1.32515e-18
-7.01589e-19
-1.30026e-18
-3.71603e-19
-1.25173e-18
-6.14052e-20
-1.18193e-18
2.2412e-19
-1.09376e-18
4.81033e-19
-9.90454e-19
7.06378e-19
-8.75417e-19
8.98165e-19
-7.52066e-19
1.05532e-18
-6.23686e-19
1.17759e-18
-4.9332e-19
1.26546e-18
-3.63691e-19
1.32001e-18
-2.37155e-19
1.34282e-18
-1.1568e-19
1.33585e-18
-8.51945e-22
1.30134e-18
1.06104e-19
1.24174e-18
2.04287e-19
1.15957e-18
2.93075e-19
1.05745e-18
3.7208e-19
9.37999e-19
4.41095e-19
8.0381e-19
5.0005e-19
6.57445e-19
5.48965e-19
5.01415e-19
5.8792e-19
3.38186e-19
6.17014e-19
1.7018e-19
6.36346e-19
6.45992e-19
-5.9074e-11
-3.4184e-11
-1.48554e-10
1.47178e-10
-2.29813e-10
2.74226e-10
-3.96194e-10
4.67418e-10
-4.56806e-10
4.34674e-10
-6.25556e-10
6.28799e-10
-7.98097e-10
7.03552e-10
-9.42776e-10
8.01312e-10
-1.10398e-09
8.1027e-10
-1.17419e-09
7.98063e-10
-1.22546e-09
7.02488e-10
-1.20609e-09
5.42477e-10
-1.15902e-09
2.98091e-10
-1.12378e-09
1.38315e-11
-1.01426e-09
-2.40724e-10
-9.49019e-10
-4.3703e-10
-8.98872e-10
-5.15734e-10
-8.40488e-10
-6.63285e-10
-7.76586e-10
-6.76283e-10
-6.75483e-10
-6.7214e-10
-5.99889e-10
-6.97527e-10
-5.41811e-10
-7.56229e-10
-4.60029e-10
-6.74896e-10
-2.52667e-10
-6.71854e-10
-5.68474e-11
-7.54158e-10
1.32104e-10
-6.00446e-10
3.11556e-10
-5.4947e-10
4.87481e-10
-4.81305e-10
5.95236e-10
-3.18124e-10
6.43264e-10
-1.94932e-10
6.81806e-10
-6.49947e-11
6.53292e-10
1.24116e-10
4.97324e-10
2.84716e-10
3.33472e-10
2.87435e-10
1.98695e-10
2.24073e-10
1.19282e-10
1.73093e-10
4.11176e-13
2.97399e-10
-1.75538e-10
4.77054e-10
-3.4029e-10
5.96647e-10
-4.12529e-10
6.77933e-10
-4.35894e-10
7.68762e-10
-5.12037e-10
8.01388e-10
-6.49059e-10
7.88808e-10
-7.35732e-10
6.5944e-10
-9.01724e-10
6.53452e-10
-1.02552e-09
5.72496e-10
-1.11027e-09
4.71895e-10
-1.17954e-09
3.56932e-10
-1.20587e-09
2.06277e-10
-1.21813e-09
6.39624e-11
-1.21748e-09
-1.13476e-10
-1.19883e-09
-1.67673e-10
-1.152e-09
-2.85864e-10
-1.08888e-09
-3.72473e-10
-9.53972e-10
-4.81689e-10
-8.32386e-10
-6.33651e-10
-9.0256e-10
-5.78401e-10
-6.56004e-10
-6.373e-10
-5.3421e-10
-7.34376e-10
-4.11518e-10
-6.38815e-10
-2.38384e-10
-5.15654e-10
-3.14488e-11
-4.9226e-10
8.31612e-11
-2.63916e-10
1.12165e-10
-1.16022e-10
1.45844e-10
-9.92807e-11
1.89225e-10
-7.33186e-11
2.00875e-10
-7.93578e-11
1.7321e-10
-8.0754e-11
1.49593e-10
-1.32526e-10
1.5394e-10
-2.80678e-10
2.14162e-10
-2.90924e-10
2.56343e-10
-3.66386e-10
3.64328e-10
-3.80106e-10
4.17907e-10
-3.01724e-10
4.55563e-10
-1.18328e-10
4.95886e-10
-4.56639e-11
4.51735e-10
2.28417e-10
4.28596e-10
3.47988e-10
3.02989e-10
4.70914e-10
1.07143e-10
4.52095e-10
-1.27472e-17
6.76178e-10
-3.85253e-18
2.55247e-19
-3.95027e-18
3.83096e-20
-3.99457e-18
-6.79326e-20
-3.98283e-18
-2.32864e-19
-3.91649e-18
-4.24004e-19
-3.79646e-18
-6.27182e-19
-3.62456e-18
-8.31731e-19
-3.40404e-18
-1.02849e-18
-3.13966e-18
-1.20967e-18
-2.83737e-18
-1.36888e-18
-2.50414e-18
-1.50103e-18
-2.14764e-18
-1.60236e-18
-1.77603e-18
-1.67036e-18
-1.39765e-18
-1.70384e-18
-1.02072e-18
-1.70288e-18
-6.53058e-19
-1.66876e-18
-3.01806e-19
-1.60384e-18
2.67656e-20
-1.51139e-18
3.27427e-19
-1.39532e-18
5.9607e-19
-1.25999e-18
8.29729e-19
-1.10997e-18
1.02655e-18
-9.49761e-19
1.18569e-18
-7.83684e-19
1.30722e-18
-6.15688e-19
1.39199e-18
-4.49269e-19
1.44148e-18
-2.87413e-19
1.45764e-18
-1.32577e-19
1.4428e-18
1.32918e-20
1.39953e-18
1.48724e-19
1.33052e-18
2.72672e-19
1.23857e-18
3.84445e-19
1.12647e-18
4.83645e-19
9.96953e-19
5.70099e-19
8.52726e-19
6.43797e-19
6.96399e-19
7.04838e-19
5.30509e-19
7.53377e-19
3.57517e-19
7.89587e-19
1.79826e-19
8.13627e-19
8.25617e-19
-8.36686e-11
4.9486e-11
-2.17237e-10
2.80749e-10
-2.94184e-10
3.51174e-10
-3.50802e-10
5.24038e-10
-5.19157e-10
6.03031e-10
-6.4272e-10
7.52363e-10
-8.24766e-10
8.856e-10
-9.47461e-10
9.24008e-10
-1.06063e-09
9.23436e-10
-1.14547e-09
8.8291e-10
-1.16966e-09
7.26678e-10
-1.11512e-09
4.87935e-10
-1.11323e-09
2.96204e-10
-1.11698e-09
1.75836e-11
-1.06561e-09
-2.92094e-10
-9.89699e-10
-5.12941e-10
-9.8422e-10
-5.21212e-10
-1.04128e-09
-6.06221e-10
-1.08614e-09
-6.31424e-10
-1.01545e-09
-7.42835e-10
-7.66206e-10
-9.46769e-10
-5.86976e-10
-9.35459e-10
-4.01835e-10
-8.60038e-10
-2.11413e-10
-8.62277e-10
-7.05108e-12
-9.58521e-10
1.5532e-10
-7.62817e-10
3.18409e-10
-7.1256e-10
4.87541e-10
-6.50438e-10
6.25939e-10
-4.56523e-10
7.15484e-10
-2.84478e-10
7.77824e-10
-1.27336e-10
7.62921e-10
1.39018e-10
6.82862e-10
3.64774e-10
5.24031e-10
4.46265e-10
3.26465e-10
4.21638e-10
2.06317e-10
2.9324e-10
1.44575e-10
3.5914e-10
4.48509e-11
5.76778e-10
-1.37073e-10
7.7857e-10
-3.42074e-10
8.82934e-10
-4.67495e-10
8.94182e-10
-5.43906e-10
8.77798e-10
-6.45599e-10
8.905e-10
-8.00272e-10
8.14112e-10
-9.14267e-10
7.67446e-10
-9.79126e-10
6.37355e-10
-1.04292e-09
5.35685e-10
-1.07978e-09
3.93793e-10
-1.05939e-09
1.85886e-10
-1.08888e-09
9.34571e-11
-1.12316e-09
-7.91996e-11
-1.03988e-09
-2.50956e-10
-1.00124e-09
-3.24501e-10
-9.24894e-10
-4.48823e-10
-8.86577e-10
-5.20007e-10
-8.78967e-10
-6.41262e-10
-8.47267e-10
-6.10102e-10
-6.25601e-10
-8.58966e-10
-5.69487e-10
-7.9049e-10
-4.2968e-10
-7.78623e-10
-2.33902e-10
-7.11432e-10
-8.94409e-11
-6.36722e-10
9.21406e-11
-4.45498e-10
1.94982e-10
-2.18864e-10
2.20272e-10
-1.24571e-10
2.48025e-10
-1.01072e-10
2.47095e-10
-7.84277e-11
2.39726e-10
-7.33854e-11
2.73259e-10
-1.66059e-10
2.39965e-10
-2.47384e-10
3.38256e-10
-3.89216e-10
3.40767e-10
-3.68897e-10
3.51436e-10
-3.90775e-10
4.25304e-10
-3.75592e-10
4.97661e-10
-1.90684e-10
4.98342e-10
-4.63445e-11
5.01576e-10
2.25182e-10
4.07239e-10
4.42325e-10
3.49769e-10
5.28384e-10
2.15281e-10
5.86583e-10
-2.23732e-17
8.91459e-10
-3.76552e-18
1.23759e-18
-4.05651e-18
3.29263e-19
-4.1595e-18
3.5019e-20
-4.17397e-18
-2.18468e-19
-4.11966e-18
-4.7843e-19
-4.00101e-18
-7.46004e-19
-3.82131e-18
-1.01166e-18
-3.58523e-18
-1.26485e-18
-3.29887e-18
-1.49637e-18
-2.96953e-18
-1.69863e-18
-2.60546e-18
-1.86559e-18
-2.21564e-18
-1.99274e-18
-1.80951e-18
-2.07711e-18
-1.39669e-18
-2.11735e-18
-9.86604e-19
-2.1137e-18
-5.88142e-19
-2.068e-18
-2.09349e-19
-1.98345e-18
1.42836e-19
-1.86441e-18
4.62751e-19
-1.71608e-18
7.46096e-19
-1.5442e-18
9.89934e-19
-1.35466e-18
1.19262e-18
-1.15329e-18
1.35368e-18
-9.45573e-19
1.47364e-18
-7.36453e-19
1.55385e-18
-5.30261e-19
1.59632e-18
-3.30628e-19
1.60351e-18
-1.40489e-19
1.57824e-18
3.78893e-20
1.52348e-18
2.02845e-19
1.4423e-18
3.53247e-19
1.33777e-18
4.88401e-19
1.21292e-18
6.07967e-19
1.07065e-18
7.11867e-19
9.13767e-19
8.00211e-19
7.44938e-19
8.7322e-19
5.66719e-19
9.31169e-19
3.81558e-19
9.74337e-19
1.91816e-19
1.00297e-18
1.01724e-18
-1.38765e-10
1.88253e-10
-1.86718e-10
3.28704e-10
-3.14579e-10
4.79036e-10
-3.72765e-10
5.82225e-10
-5.40944e-10
7.71212e-10
-6.95662e-10
9.07083e-10
-8.03747e-10
9.93686e-10
-9.38009e-10
1.05827e-09
-1.04708e-09
1.03251e-09
-1.11532e-09
9.51155e-10
-1.101e-09
7.12358e-10
-1.09972e-09
4.86658e-10
-1.15617e-09
3.52651e-10
-1.19098e-09
5.23966e-11
-1.19341e-09
-2.89659e-10
-1.2215e-09
-4.84859e-10
-1.24542e-09
-4.97289e-10
-1.21853e-09
-6.33115e-10
-1.08759e-09
-7.62363e-10
-9.05107e-10
-9.25316e-10
-7.10921e-10
-1.14095e-09
-6.03332e-10
-1.04305e-09
-3.79754e-10
-1.08362e-09
-1.24265e-10
-1.11777e-09
4.74632e-11
-1.13025e-09
2.54892e-10
-9.70246e-10
4.38988e-10
-8.96657e-10
5.94677e-10
-8.06128e-10
6.88224e-10
-5.50071e-10
7.57448e-10
-3.53702e-10
8.25484e-10
-1.95373e-10
7.60516e-10
2.03985e-10
7.07595e-10
4.17694e-10
5.65196e-10
5.88663e-10
3.86705e-10
6.00129e-10
1.7137e-10
5.08573e-10
2.29047e-11
5.07605e-10
-5.50104e-11
6.54692e-10
-9.84208e-11
8.2198e-10
-2.06495e-10
9.91007e-10
-3.7753e-10
1.06522e-09
-5.56104e-10
1.05637e-09
-6.33524e-10
9.67919e-10
-7.29225e-10
9.09813e-10
-8.0197e-10
8.40191e-10
-8.39504e-10
6.74888e-10
-8.93326e-10
5.89506e-10
-9.32766e-10
4.33232e-10
-9.50913e-10
2.04032e-10
-9.51248e-10
9.37911e-11
-8.918e-10
-1.38648e-10
-8.88868e-10
-2.53889e-10
-8.92715e-10
-3.20655e-10
-8.07869e-10
-5.33669e-10
-8.15487e-10
-5.1239e-10
-7.22971e-10
-7.33779e-10
-5.88845e-10
-7.44229e-10
-5.65046e-10
-8.82765e-10
-4.59134e-10
-8.96403e-10
-3.29113e-10
-9.08644e-10
-2.16996e-10
-8.23549e-10
-1.08844e-10
-7.44874e-10
4.55831e-11
-5.99926e-10
1.65869e-10
-3.3915e-10
2.14992e-10
-1.73694e-10
2.93264e-10
-1.79345e-10
3.52216e-10
-1.3738e-10
4.1648e-10
-1.37649e-10
4.48838e-10
-1.98418e-10
4.21622e-10
-2.20168e-10
4.08803e-10
-3.76397e-10
4.44434e-10
-4.04529e-10
4.57344e-10
-4.03685e-10
5.00756e-10
-4.19005e-10
5.73002e-10
-2.6293e-10
5.1652e-10
1.01374e-11
4.77708e-10
2.63994e-10
3.94711e-10
5.25322e-10
3.77737e-10
5.45358e-10
2.28531e-10
7.35789e-10
-2.4408e-17
1.11999e-09
-4.32049e-18
1.10315e-18
-4.35076e-18
3.59516e-19
-4.41299e-18
9.72418e-20
-4.43393e-18
-1.97562e-19
-4.38724e-18
-5.25199e-19
-4.26666e-18
-8.66698e-19
-4.07451e-18
-1.20397e-18
-3.81675e-18
-1.52282e-18
-3.50112e-18
-1.81227e-18
-3.13649e-18
-2.0636e-18
-2.73261e-18
-2.26988e-18
-2.30001e-18
-2.42582e-18
-1.84975e-18
-2.52793e-18
-1.39305e-18
-2.57466e-18
-9.40903e-19
-2.56652e-18
-5.03591e-19
-2.50603e-18
-9.03074e-20
-2.39749e-18
2.91162e-19
-2.24667e-18
6.34638e-19
-2.06037e-18
9.3563e-19
-1.846e-18
1.1913e-18
-1.61115e-18
1.40034e-18
-1.36315e-18
1.5628e-18
-1.10883e-18
1.67983e-18
-8.54262e-19
1.75348e-18
-6.04666e-19
1.78646e-18
-3.64325e-19
1.78189e-18
-1.36617e-19
1.74319e-18
7.59285e-20
1.67388e-18
2.71539e-19
1.57745e-18
4.49084e-19
1.45734e-18
6.07958e-19
1.31682e-18
7.47966e-19
1.159e-18
8.69204e-19
9.86775e-19
9.7197e-19
8.02887e-19
1.05667e-18
6.09887e-19
1.12375e-18
4.10187e-19
1.17363e-18
2.06085e-19
1.20667e-18
1.22313e-18
-1.55275e-10
3.43529e-10
-2.81563e-10
4.54994e-10
-3.66069e-10
5.63544e-10
-4.64884e-10
6.81042e-10
-5.61156e-10
8.67485e-10
-7.19943e-10
1.06587e-09
-8.7218e-10
1.14592e-09
-9.70678e-10
1.15677e-09
-1.02862e-09
1.09045e-09
-1.04288e-09
9.65413e-10
-1.07723e-09
7.46714e-10
-1.11319e-09
5.22617e-10
-1.17682e-09
4.16276e-10
-1.29292e-09
1.68505e-10
-1.31161e-09
-2.70975e-10
-1.3773e-09
-4.19169e-10
-1.35644e-09
-5.18143e-10
-1.22339e-09
-7.66173e-10
-1.06076e-09
-9.24993e-10
-9.32326e-10
-1.05375e-09
-8.09228e-10
-1.26405e-09
-6.42857e-10
-1.20942e-09
-4.20649e-10
-1.30582e-09
-2.01036e-10
-1.33738e-09
-8.5197e-11
-1.24609e-09
2.20724e-10
-1.27617e-09
4.88547e-10
-1.16448e-09
6.25361e-10
-9.42943e-10
7.38941e-10
-6.63651e-10
7.75063e-10
-3.89825e-10
7.82659e-10
-2.0297e-10
7.26906e-10
2.59737e-10
6.57608e-10
4.86991e-10
5.64662e-10
6.81609e-10
3.97211e-10
7.67579e-10
2.18353e-10
6.87431e-10
8.06554e-11
6.45301e-10
-3.07588e-11
7.66106e-10
-1.83936e-10
9.75156e-10
-2.89977e-10
1.09705e-09
-3.60892e-10
1.13613e-09
-4.34797e-10
1.13028e-09
-5.36228e-10
1.06935e-09
-6.3438e-10
1.00796e-09
-7.21433e-10
9.27243e-10
-7.46051e-10
6.99505e-10
-7.51589e-10
5.95043e-10
-7.6876e-10
4.50403e-10
-8.46997e-10
2.82268e-10
-8.26304e-10
7.30972e-11
-7.87052e-10
-1.77901e-10
-7.344e-10
-3.06541e-10
-7.64491e-10
-2.90565e-10
-6.73663e-10
-6.24497e-10
-6.32983e-10
-5.53071e-10
-5.71171e-10
-7.9559e-10
-4.93427e-10
-8.21974e-10
-4.09459e-10
-9.66734e-10
-3.00316e-10
-1.00555e-09
-2.26615e-10
-9.82345e-10
-1.25988e-10
-9.24176e-10
-4.67867e-11
-8.24076e-10
6.05092e-11
-7.07222e-10
1.67885e-10
-4.46525e-10
2.48926e-10
-2.54735e-10
3.17117e-10
-2.47536e-10
4.27666e-10
-2.47928e-10
5.22658e-10
-2.32641e-10
5.52268e-10
-2.28028e-10
6.45423e-10
-3.13324e-10
6.97844e-10
-4.28818e-10
7.11282e-10
-4.17966e-10
6.83321e-10
-3.75724e-10
6.31409e-10
-3.67092e-10
6.38746e-10
-2.70267e-10
5.86738e-10
6.2146e-11
5.41029e-10
3.09703e-10
5.18412e-10
5.47939e-10
4.88264e-10
5.75506e-10
2.3233e-10
9.91724e-10
-2.39532e-17
1.35232e-09
-4.66643e-18
1.66984e-19
-4.61303e-18
3.06123e-19
-4.70779e-18
1.92002e-19
-4.76157e-18
-1.43813e-19
-4.72874e-18
-5.58086e-19
-4.60394e-18
-9.91586e-19
-4.39335e-18
-1.41467e-18
-4.10619e-18
-1.81013e-18
-3.75246e-18
-2.16619e-18
-3.34277e-18
-2.47355e-18
-2.88855e-18
-2.72443e-18
-2.40212e-18
-2.91266e-18
-1.89648e-18
-3.03404e-18
-1.38492e-18
-3.08676e-18
-8.80413e-19
-3.07163e-18
-3.95049e-19
-2.99206e-18
6.05201e-20
-2.85376e-18
4.77461e-19
-2.66434e-18
8.49e-19
-2.43266e-18
1.17049e-18
-2.16826e-18
1.4393e-18
-1.88074e-18
1.65467e-18
-1.57928e-18
1.81736e-18
-1.27228e-18
1.92943e-18
-9.67069e-19
1.99382e-18
-6.69785e-19
2.01416e-18
-3.85361e-19
1.99444e-18
-1.17558e-19
1.9388e-18
1.30926e-19
1.85142e-18
3.58318e-19
1.73633e-18
5.63609e-19
1.59735e-18
7.464e-19
1.43806e-18
9.06747e-19
1.26176e-18
1.04503e-18
1.07148e-18
1.16181e-18
8.69966e-19
1.25775e-18
6.59769e-19
1.33354e-18
4.43228e-19
1.38978e-18
2.2254e-19
1.42697e-18
1.44548e-18
7.28761e-12
3.36242e-10
-7.57291e-11
5.38012e-10
-3.05719e-10
7.93535e-10
-5.63165e-10
9.3849e-10
-6.36217e-10
9.40537e-10
-7.41889e-10
1.17154e-09
-8.18166e-10
1.2222e-09
-9.20987e-10
1.25959e-09
-1.04526e-09
1.21472e-09
-1.0711e-09
9.91256e-10
-1.0986e-09
7.74214e-10
-1.15765e-09
5.81671e-10
-1.13344e-09
3.9206e-10
-1.28408e-09
3.19153e-10
-1.41716e-09
-1.37893e-10
-1.46291e-09
-3.73427e-10
-1.37978e-09
-6.01272e-10
-1.29155e-09
-8.544e-10
-1.19429e-09
-1.02225e-09
-1.08674e-09
-1.16129e-09
-1.00513e-09
-1.34566e-09
-8.16382e-10
-1.39817e-09
-5.48471e-10
-1.57374e-09
-3.48205e-10
-1.53765e-09
-1.21472e-10
-1.47282e-09
1.03866e-10
-1.50151e-09
2.74622e-10
-1.33524e-09
4.78905e-10
-1.14723e-09
5.75225e-10
-7.59972e-10
6.39014e-10
-4.53615e-10
6.25876e-10
-1.89832e-10
6.07701e-10
2.77911e-10
5.73922e-10
5.20769e-10
5.20523e-10
7.35007e-10
4.07819e-10
8.80282e-10
2.49352e-10
8.45896e-10
7.32913e-11
8.21362e-10
-5.3147e-11
8.92543e-10
-1.56734e-10
1.07874e-09
-2.24827e-10
1.16514e-09
-2.8136e-10
1.19266e-09
-3.27026e-10
1.17594e-09
-4.37326e-10
1.17965e-09
-5.62534e-10
1.13317e-09
-6.01349e-10
9.66058e-10
-6.17549e-10
7.15704e-10
-6.0555e-10
5.83044e-10
-5.86125e-10
4.30977e-10
-5.91804e-10
2.87946e-10
-6.22668e-10
1.03961e-10
-6.42111e-10
-1.58459e-10
-5.82917e-10
-3.65736e-10
-5.81603e-10
-2.91879e-10
-5.55104e-10
-6.50996e-10
-4.95474e-10
-6.12701e-10
-4.60131e-10
-8.30934e-10
-3.77643e-10
-9.04462e-10
-3.40656e-10
-1.00372e-09
-3.11577e-10
-1.03463e-09
-2.28117e-10
-1.0658e-09
-1.06345e-10
-1.04595e-09
4.8004e-12
-9.35222e-10
8.67444e-11
-7.89166e-10
1.97922e-10
-5.57703e-10
3.01242e-10
-3.58055e-10
4.00423e-10
-3.46716e-10
4.87637e-10
-3.35143e-10
5.84311e-10
-3.29314e-10
6.86873e-10
-3.3059e-10
7.67847e-10
-3.94297e-10
7.73674e-10
-4.34644e-10
7.72195e-10
-4.16486e-10
7.79706e-10
-3.83235e-10
7.39555e-10
-3.26942e-10
7.02971e-10
-2.33683e-10
6.63342e-10
1.01775e-10
6.21964e-10
3.51082e-10
6.01742e-10
5.68161e-10
5.05353e-10
6.71896e-10
2.57766e-10
1.23931e-09
-1.08967e-17
1.61009e-09
-4.09624e-18
1.84855e-18
-4.72715e-18
9.37043e-19
-5.04361e-18
5.08433e-19
-5.17584e-18
-1.16315e-20
-5.16224e-18
-5.7176e-19
-5.02702e-18
-1.12689e-18
-4.78882e-18
-1.65296e-18
-4.46225e-18
-2.1368e-18
-4.05981e-18
-2.56877e-18
-3.59365e-18
-2.93989e-18
-3.07678e-18
-3.24154e-18
-2.5235e-18
-3.46626e-18
-1.9492e-18
-3.60873e-18
-1.36979e-18
-3.66664e-18
-8.00837e-19
-3.64112e-18
-2.56753e-19
-3.53673e-18
2.49942e-19
-3.36109e-18
7.09139e-19
-3.12421e-18
1.1134e-18
-2.83762e-18
1.45801e-18
-2.51358e-18
1.74075e-18
-2.16421e-18
1.96167e-18
-1.80092e-18
2.12258e-18
-1.43392e-18
2.22671e-18
-1.07191e-18
2.27825e-18
-7.2201e-19
2.28197e-18
-3.89745e-19
2.24292e-18
-7.91529e-20
2.1662e-18
2.07042e-19
2.05671e-18
4.67219e-19
1.91912e-18
7.00653e-19
1.75769e-18
9.07301e-19
1.57634e-18
1.08761e-18
1.37854e-18
1.24236e-18
1.16742e-18
1.37249e-18
9.45751e-19
1.479e-18
7.16007e-19
1.56288e-18
4.80423e-19
1.62497e-18
2.41048e-19
1.66597e-18
1.68634e-18
-3.30071e-10
6.66314e-10
-4.8104e-10
6.88982e-10
-3.57822e-10
6.70317e-10
-3.70376e-10
9.51045e-10
-5.75096e-10
1.14526e-09
-7.56732e-10
1.35318e-09
-8.83134e-10
1.34861e-09
-9.47442e-10
1.3239e-09
-9.63356e-10
1.23064e-09
-1.02119e-09
1.04909e-09
-1.11895e-09
8.71974e-10
-1.22946e-09
6.92181e-10
-1.26419e-09
4.26791e-10
-1.34028e-09
3.95243e-10
-1.47572e-09
-2.45334e-12
-1.47998e-09
-3.69167e-10
-1.40392e-09
-6.77329e-10
-1.3886e-09
-8.6972e-10
-1.28305e-09
-1.12781e-09
-1.1328e-09
-1.31154e-09
-9.76577e-10
-1.50189e-09
-7.90925e-10
-1.58382e-09
-6.37761e-10
-1.7269e-09
-5.21296e-10
-1.65411e-09
-2.97775e-10
-1.69634e-09
-6.93164e-11
-1.72997e-09
1.05519e-10
-1.51007e-09
1.90611e-10
-1.23232e-09
3.20078e-10
-8.8944e-10
4.45807e-10
-5.79346e-10
4.82662e-10
-2.26689e-10
5.06205e-10
2.54366e-10
5.20652e-10
5.06321e-10
5.22168e-10
7.33489e-10
4.35401e-10
9.67048e-10
3.17195e-10
9.64101e-10
2.13332e-10
9.25224e-10
1.05904e-10
9.9997e-10
-3.19594e-11
1.2166e-09
-1.60653e-10
1.29383e-09
-2.69292e-10
1.3013e-09
-3.65216e-10
1.27186e-09
-3.64487e-10
1.17892e-09
-3.93885e-10
1.16257e-09
-4.29855e-10
1.00203e-09
-4.74691e-10
7.6054e-10
-4.6616e-10
5.74512e-10
-4.46021e-10
4.10837e-10
-4.02705e-10
2.4463e-10
-4.35165e-10
1.36421e-10
-4.81717e-10
-1.11908e-10
-4.96715e-10
-3.50738e-10
-3.90757e-10
-3.97838e-10
-4.04385e-10
-6.37369e-10
-2.8607e-10
-7.31016e-10
-2.9301e-10
-8.23995e-10
-3.11904e-10
-8.85568e-10
-2.96199e-10
-1.01943e-09
-2.10554e-10
-1.12027e-09
-1.32825e-10
-1.14353e-09
-7.726e-11
-1.10151e-09
6.53558e-12
-1.01902e-09
7.28238e-11
-8.55453e-10
1.68878e-10
-6.53756e-10
2.85876e-10
-4.75052e-10
4.06724e-10
-4.67564e-10
5.38624e-10
-4.67042e-10
6.58107e-10
-4.48796e-10
7.17122e-10
-3.89605e-10
8.17618e-10
-4.94793e-10
8.57272e-10
-4.74297e-10
8.81429e-10
-4.40643e-10
8.84153e-10
-3.85959e-10
8.65442e-10
-3.0823e-10
7.96845e-10
-1.65086e-10
7.27828e-10
1.70792e-10
7.0041e-10
3.785e-10
5.90132e-10
6.78439e-10
3.75258e-10
8.86771e-10
2.51226e-10
1.36334e-09
-1.35074e-17
1.86131e-09
-4.55996e-18
2.25354e-18
-5.15576e-18
1.53284e-18
-5.56367e-18
9.16284e-19
-5.73597e-18
1.60558e-19
-5.71736e-18
-5.90487e-19
-5.55309e-18
-1.29127e-18
-5.27266e-18
-1.93349e-18
-4.89422e-18
-2.51534e-18
-4.43093e-18
-3.03217e-18
-3.8953e-18
-3.47565e-18
-3.3015e-18
-3.83552e-18
-2.66597e-18
-4.10202e-18
-2.00712e-18
-4.2679e-18
-1.34427e-18
-4.32988e-18
-6.96446e-19
-4.28941e-18
-8.1115e-20
-4.15259e-18
4.86827e-19
-3.92961e-18
9.95722e-19
-3.63371e-18
1.43745e-18