/*--------------------------------*- C++ -*----------------------------------*\
  =========                 |
  \\      /  F ield         | OpenFOAM: The Open Source CFD Toolbox
   \\    /   O peration     | Website:  https://openfoam.org
    \\  /    A nd           | Version:  6
     \\/     M anipulation  |
\*---------------------------------------------------------------------------*/
FoamFile
{
    version     2.0;
    format      ascii;
    class       volScalarField;
    location    "4100";
    object      T;
}
// * * * * * * * * * * * * * * * * * * * * * * * * * * * * * * * * * * * * * //

dimensions      [0 0 0 1 0 0 0];

internalField   nonuniform List<scalar> 
4800
(
552.467
552.3
552.133
551.967
551.802
551.639
551.477
551.32
551.166
551.019
550.877
550.742
550.615
550.496
550.385
550.281
550.183
550.091
550.002
549.917
549.834
549.752
549.672
549.593
549.512
549.432
549.349
549.266
549.18
549.092
549.001
548.908
548.812
548.714
548.613
548.51
548.404
548.297
548.188
548.078
547.968
547.858
547.749
547.642
547.538
547.437
547.339
547.245
547.155
547.068
546.985
546.905
546.827
546.752
546.678
546.607
546.537
546.468
546.399
546.331
546.262
546.192
546.122
546.052
545.98
545.907
545.834
545.759
545.684
545.607
545.529
545.449
545.367
545.283
545.196
545.106
545.014
544.918
544.82
544.719
544.617
544.513
544.41
544.306
544.202
544.098
543.993
543.889
543.785
543.681
543.577
543.473
543.369
543.265
543.162
543.058
542.955
542.852
542.749
542.646
542.543
542.441
542.338
542.236
542.133
542.031
541.929
541.826
541.724
541.622
541.52
541.418
541.316
541.213
541.111
541.009
540.907
540.805
540.703
540.601
552.466
552.299
552.132
551.966
551.8
551.636
551.475
551.317
551.164
551.017
550.876
550.742
550.616
550.498
550.388
550.284
550.187
550.094
550.005
549.92
549.837
549.755
549.675
549.595
549.514
549.433
549.351
549.267
549.181
549.093
549.002
548.909
548.813
548.714
548.613
548.509
548.404
548.297
548.188
548.078
547.967
547.857
547.749
547.643
547.539
547.438
547.341
547.247
547.156
547.07
546.986
546.906
546.828
546.753
546.679
546.608
546.538
546.468
546.4
546.331
546.262
546.193
546.123
546.052
545.98
545.908
545.834
545.759
545.684
545.607
545.529
545.449
545.367
545.282
545.195
545.106
545.013
544.917
544.819
544.718
544.616
544.513
544.409
544.305
544.201
544.097
543.992
543.888
543.784
543.68
543.576
543.472
543.368
543.264
543.161
543.058
542.954
542.851
542.748
542.646
542.543
542.44
542.338
542.235
542.133
542.031
541.928
541.826
541.724
541.622
541.52
541.417
541.315
541.213
541.111
541.009
540.907
540.805
540.703
540.601
552.466
552.298
552.131
551.963
551.797
551.633
551.472
551.315
551.163
551.016
550.877
550.744
550.62
550.503
550.394
550.291
550.193
550.1
550.011
549.925
549.842
549.76
549.679
549.599
549.518
549.437
549.355
549.271
549.185
549.096
549.005
548.911
548.815
548.715
548.614
548.51
548.404
548.296
548.188
548.078
547.968
547.858
547.75
547.644
547.541
547.44
547.343
547.249
547.159
547.072
546.989
546.908
546.83
546.755
546.681
546.609
546.539
546.469
546.4
546.331
546.262
546.193
546.123
546.052
545.981
545.908
545.834
545.759
545.683
545.606
545.528
545.448
545.366
545.281
545.194
545.104
545.011
544.916
544.817
544.716
544.614
544.511
544.407
544.303
544.199
544.095
543.991
543.887
543.782
543.678
543.574
543.471
543.367
543.263
543.16
543.056
542.953
542.85
542.747
542.645
542.542
542.439
542.337
542.235
542.132
542.03
541.928
541.826
541.723
541.621
541.519
541.417
541.315
541.213
541.111
541.009
540.907
540.805
540.703
540.601
552.466
552.297
552.129
551.961
551.795
551.631
551.47
551.314
551.163
551.018
550.88
550.749
550.626
550.511
550.402
550.299
550.201
550.108
550.019
549.932
549.848
549.766
549.685
549.604
549.523
549.442
549.359
549.275
549.189
549.101
549.01
548.915
548.818
548.718
548.615
548.511
548.405
548.297
548.188
548.078
547.969
547.86
547.752
547.647
547.544
547.444
547.347
547.254
547.164
547.077
546.993
546.913
546.834
546.758
546.684
546.612
546.541
546.47
546.401
546.332
546.263
546.193
546.123
546.053
545.981
545.908
545.834
545.759
545.683
545.606
545.527
545.446
545.364
545.28
545.193
545.103
545.01
544.914
544.815
544.714
544.612
544.509
544.405
544.301
544.197
544.093
543.988
543.884
543.78
543.676
543.572
543.468
543.365
543.261
543.158
543.055
542.952
542.849
542.746
542.643
542.541
542.438
542.336
542.234
542.131
542.029
541.927
541.825
541.723
541.621
541.519
541.417
541.315
541.213
541.111
541.009
540.907
540.805
540.703
540.601
552.465
552.296
552.127
551.959
551.793
551.63
551.47
551.314
551.164
551.021
550.885
550.756
550.634
550.52
550.411
550.309
550.211
550.117
550.027
549.94
549.855
549.772
549.69
549.609
549.528
549.447
549.364
549.28
549.194
549.106
549.014
548.92
548.822
548.721
548.618
548.513
548.406
548.298
548.189
548.079
547.97
547.862
547.756
547.651
547.549
547.449
547.353
547.26
547.171
547.084
547
546.919
546.841
546.764
546.69
546.617
546.544
546.473
546.403
546.334
546.264
546.194
546.124
546.053
545.981
545.908
545.834
545.759
545.682
545.605
545.526
545.445
545.362
545.278
545.19
545.1
545.007
544.912
544.813
544.712
544.609
544.506
544.402
544.298
544.194
544.089
543.985
543.881
543.777
543.673
543.569
543.466
543.362
543.259
543.156
543.052
542.95
542.847
542.744
542.642
542.539
542.437
542.335
542.232
542.13
542.028
541.926
541.824
541.722
541.62
541.518
541.416
541.314
541.212
541.11
541.009
540.907
540.805
540.703
540.601
552.465
552.295
552.126
551.958
551.793
551.63
551.471
551.317
551.169
551.027
550.892
550.765
550.644
550.53
550.422
550.319
550.221
550.126
550.035
549.948
549.863
549.779
549.697
549.616
549.534
549.452
549.369
549.285
549.199
549.11
549.018
548.924
548.826
548.725
548.621
548.515
548.408
548.3
548.191
548.082
547.974
547.866
547.76
547.657
547.555
547.457
547.362
547.269
547.18
547.094
547.01
546.929
546.85
546.773
546.698
546.624
546.551
546.479
546.408
546.337
546.267
546.196
546.125
546.054
545.982
545.908
545.834
545.759
545.682
545.604
545.525
545.444
545.361
545.276
545.188
545.098
545.005
544.909
544.81
544.709
544.606
544.502
544.398
544.294
544.19
544.085
543.981
543.877
543.773
543.669
543.566
543.462
543.359
543.256
543.152
543.05
542.947
542.844
542.742
542.639
542.537
542.435
542.333
542.231
542.129
542.027
541.925
541.823
541.721
541.619
541.517
541.415
541.314
541.212
541.11
541.008
540.906
540.805
540.703
540.601
552.465
552.295
552.126
551.959
551.794
551.632
551.474
551.321
551.175
551.035
550.902
550.775
550.655
550.541
550.433
550.33
550.231
550.136
550.045
549.957
549.871
549.787
549.704
549.622
549.539
549.457
549.374
549.289
549.202
549.113
549.021
548.926
548.828
548.727
548.623
548.518
548.41
548.302
548.194
548.086
547.978
547.872
547.767
547.664
547.564
547.467
547.372
547.281
547.192
547.106
547.022
546.941
546.862
546.784
546.708
546.634
546.56
546.487
546.415
546.343
546.271
546.2
546.128
546.056
545.983
545.91
545.835
545.76
545.683
545.605
545.525
545.443
545.36
545.274
545.186
545.095
545.002
544.906
544.807
544.705
544.602
544.498
544.393
544.289
544.185
544.081
543.977
543.872
543.769
543.665
543.561
543.458
543.355
543.252
543.149
543.046
542.944
542.841
542.739
542.637
542.535
542.433
542.331
542.229
542.127
542.025
541.923
541.822
541.72
541.618
541.516
541.415
541.313
541.211
541.11
541.008
540.906
540.804
540.703
540.601
552.465
552.295
552.127
551.96
551.796
551.635
551.479
551.328
551.183
551.044
550.912
550.787
550.667
550.554
550.445
550.341
550.242
550.147
550.055
549.966
549.879
549.794
549.709
549.626
549.543
549.459
549.375
549.29
549.203
549.113
549.021
548.926
548.828
548.728
548.624
548.519
548.412
548.305
548.197
548.09
547.983
547.878
547.774
547.673
547.574
547.478
547.385
547.294
547.206
547.12
547.037
546.956
546.876
546.799
546.722
546.646
546.572
546.498
546.425
546.352
546.279
546.206
546.133
546.06
545.986
545.912
545.837
545.762
545.684
545.606
545.526
545.443
545.359
545.273
545.184
545.093
544.999
544.902
544.803
544.701
544.597
544.493
544.388
544.284
544.18
544.075
543.971
543.867
543.763
543.66
543.556
543.453
543.35
543.247
543.145
543.042
542.94
542.838
542.736
542.634
542.532
542.43
542.328
542.227
542.125
542.023
541.922
541.82
541.718
541.617
541.515
541.414
541.312
541.211
541.109
541.007
540.906
540.804
540.702
540.601
552.465
552.297
552.129
551.963
551.8
551.64
551.485
551.336
551.192
551.055
550.925
550.8
550.681
550.567
550.458
550.354
550.254
550.158
550.065
549.974
549.886
549.799
549.713
549.628
549.543
549.459
549.373
549.287
549.199
549.11
549.017
548.923
548.826
548.726
548.624
548.519
548.414
548.307
548.2
548.094
547.989
547.885
547.783
547.683
547.586
547.491
547.399
547.309
547.222
547.137
547.054
546.973
546.894
546.816
546.739
546.662
546.587
546.512
546.438
546.363
546.289
546.215
546.141
546.067
545.992
545.917
545.842
545.765
545.687
545.608
545.527
545.444
545.359
545.272
545.182
545.09
544.996
544.899
544.799
544.697
544.593
544.488
544.383
544.278
544.174
544.069
543.965
543.861
543.757
543.654
543.551
543.448
543.345
543.242
543.14
543.038
542.936
542.834
542.732
542.63
542.529
542.427
542.326
542.224
542.123
542.021
541.92
541.818
541.717
541.616
541.514
541.413
541.311
541.21
541.108
541.007
540.905
540.804
540.702
540.601
552.465
552.297
552.131
551.966
551.805
551.647
551.493
551.346
551.204
551.068
550.938
550.814
550.695
550.581
550.472
550.368
550.267
550.169
550.074
549.982
549.891
549.802
549.714
549.627
549.54
549.454
549.367
549.28
549.192
549.102
549.01
548.916
548.82
548.722
548.621
548.518
548.413
548.308
548.203
548.099
547.995
547.893
547.793
547.695
547.599
547.506
547.415
547.326
547.24
547.156
547.074
546.993
546.914
546.836
546.759
546.682
546.606
546.53
546.455
546.379
546.304
546.228
546.153
546.077
546.001
545.925
545.849
545.771
545.692
545.612
545.53
545.446
545.36
545.272
545.181
545.088
544.993
544.895
544.794
544.692
544.587
544.482
544.377
544.272
544.167
544.063
543.958
543.854
543.751
543.647
543.544
543.441
543.339
543.236
543.134
543.032
542.931
542.829
542.728
542.626
542.525
542.424
542.322
542.221
542.12
542.019
541.918
541.816
541.715
541.614
541.513
541.411
541.31
541.209
541.108
541.006
540.905
540.803
540.702
540.601
552.466
552.3
552.134
551.971
551.811
551.655
551.503
551.357
551.216
551.082
550.953
550.829
550.711
550.597
550.487
550.382
550.279
550.18
550.082
549.987
549.894
549.802
549.711
549.622
549.534
549.445
549.357
549.269
549.18
549.091
548.999
548.906
548.811
548.714
548.615
548.513
548.411
548.308
548.205
548.102
548.001
547.901
547.802
547.706
547.613
547.521
547.432
547.345
547.26
547.177
547.096
547.016
546.937
546.859
546.782
546.706
546.629
546.553
546.477
546.4
546.324
546.246
546.169
546.092
546.015
545.937
545.859
545.78
545.7
545.619
545.535
545.45
545.362
545.273
545.181
545.086
544.99
544.891
544.79
544.687
544.582
544.477
544.371
544.266
544.161
544.056
543.951
543.847
543.743
543.64
543.537
543.434
543.332
543.23
543.128
543.027
542.925
542.824
542.723
542.622
542.521
542.42
542.319
542.218
542.117
542.016
541.915
541.814
541.713
541.612
541.511
541.41
541.309
541.208
541.107
541.006
540.904
540.803
540.702
540.601
552.467
552.303
552.139
551.977
551.818
551.664
551.514
551.369
551.23
551.097
550.968
550.845
550.727
550.613
550.503
550.396
550.291
550.189
550.089
549.991
549.894
549.799
549.706
549.613
549.522
549.432
549.343
549.254
549.164
549.075
548.984
548.892
548.799
548.703
548.606
548.507
548.406
548.306
548.205
548.105
548.006
547.908
547.813
547.719
547.627
547.537
547.45
547.365
547.282
547.2
547.12
547.041
546.963
546.886
546.81
546.733
546.657
546.581
546.504
546.426
546.348
546.27
546.191
546.112
546.033
545.954
545.874
545.794
545.712
545.629
545.543
545.456
545.366
545.275
545.181
545.085
544.987
544.887
544.786
544.682
544.578
544.472
544.366
544.26
544.154
544.049
543.944
543.839
543.736
543.632
543.529
543.427
543.325
543.223
543.122
543.021
542.92
542.819
542.718
542.617
542.517
542.416
542.315
542.215
542.114
542.014
541.913
541.812
541.711
541.61
541.51
541.409
541.308
541.207
541.106
541.005
540.904
540.803
540.702
540.601
552.468
552.305
552.143
551.983
551.827
551.674
551.526
551.382
551.245
551.112
550.984
550.862
550.743
550.629
550.518
550.409
550.302
550.197
550.094
549.991
549.891
549.792
549.695
549.6
549.507
549.414
549.324
549.234
549.144
549.055
548.965
548.875
548.783
548.689
548.594
548.498
548.4
548.302
548.204
548.106
548.01
547.916
547.823
547.731
547.642
547.555
547.47
547.386
547.305
547.225
547.147
547.069
546.993
546.917
546.841
546.766
546.69
546.614
546.536
546.458
546.379
546.299
546.219
546.139
546.058
545.977
545.895
545.812
545.728
545.642
545.554
545.464
545.372
545.278
545.182
545.084
544.985
544.884
544.782
544.678
544.574
544.468
544.36
544.253
544.147
544.041
543.936
543.831
543.727
543.624
543.521
543.419
543.317
543.216
543.115
543.014
542.913
542.813
542.712
542.612
542.512
542.412
542.311
542.211
542.111
542.011
541.91
541.81
541.709
541.609
541.508
541.407
541.307
541.206
541.105
541.004
540.903
540.802
540.701
540.6
552.469
552.308
552.148
551.99
551.836
551.685
551.538
551.397
551.26
551.128
551.001
550.878
550.759
550.644
550.531
550.421
550.311
550.203
550.096
549.989
549.884
549.781
549.68
549.582
549.485
549.392
549.299
549.209
549.12
549.031
548.942
548.853
548.764
548.673
548.58
548.486
548.392
548.297
548.202
548.108
548.014
547.923
547.832
547.744
547.658
547.573
547.49
547.409
547.33
547.253
547.176
547.101
547.026
546.952
546.877
546.803
546.728
546.652
546.574
546.496
546.416
546.335
546.253
546.171
546.089
546.005
545.921
545.836
545.749
545.66
545.569
545.476
545.381
545.284
545.185
545.085
544.984
544.882
544.779
544.675
544.571
544.466
544.356
544.247
544.14
544.033
543.927
543.823
543.719
543.615
543.513
543.41
543.309
543.208
543.107
543.007
542.907
542.807
542.707
542.607
542.507
542.407
542.307
542.207
542.107
542.007
541.907
541.807
541.707
541.607
541.506
541.406
541.305
541.205
541.104
541.003
540.903
540.802
540.701
540.6
552.47
552.311
552.154
551.998
551.845
551.695
551.55
551.41
551.274
551.143
551.016
550.892
550.773
550.656
550.541
550.428
550.316
550.204
550.092
549.982
549.872
549.765
549.66
549.558
549.459
549.363
549.27
549.179
549.09
549.003
548.916
548.829
548.741
548.653
548.564
548.473
548.382
548.29
548.199
548.108
548.018
547.93
547.843
547.757
547.674
547.592
547.512
547.434
547.358
547.282
547.209
547.135
547.063
546.99
546.917
546.844
546.77
546.695
546.618
546.539
546.459
546.376
546.293
546.21
546.125
546.04
545.953
545.865
545.774
545.682
545.588
545.491
545.392
545.292
545.19
545.088
544.985
544.882
544.778
544.673
544.567
544.459
544.349
544.24
544.132
544.025
543.919
543.814
543.709
543.606
543.503
543.401
543.3
543.199
543.099
542.999
542.899
542.8
542.7
542.601
542.502
542.402
542.303
542.203
542.104
542.004
541.904
541.804
541.704
541.604
541.504
541.404
541.304
541.203
541.103
541.002
540.902
540.801
540.701
540.6
552.471
552.314
552.158
552.004
551.853
551.705
551.562
551.422
551.287
551.155
551.028
550.904
550.783
550.664
550.547
550.43
550.314
550.198
550.083
549.968
549.855
549.743
549.634
549.529
549.428
549.331
549.237
549.146
549.058
548.971
548.886
548.802
548.717
548.632
548.545
548.458
548.371
548.283
548.195
548.108
548.022
547.937
547.853
547.771
547.691
547.612
547.536
547.46
547.387
547.315
547.243
547.173
547.102
547.032
546.961
546.889
546.817
546.742
546.666
546.587
546.506
546.423
546.338
546.253
546.166
546.078
545.989
545.897
545.804
545.707
545.609
545.508
545.406
545.302
545.198
545.093
544.989
544.883
544.778
544.671
544.564
544.454
544.344
544.234
544.125
544.017
543.91
543.804
543.7
543.596
543.493
543.392
543.291
543.19
543.09
542.991
542.892
542.793
542.694
542.595
542.496
542.397
542.298
542.199
542.1
542.001
541.901
541.802
541.702
541.602
541.502
541.402
541.302
541.202
541.102
541.002
540.901
540.801
540.701
540.6
552.472
552.316
552.162
552.01
551.861
551.714
551.571
551.432
551.297
551.165
551.037
550.911
550.788
550.667
550.546
550.426
550.306
550.186
550.067
549.948
549.831
549.716
549.604
549.497
549.394
549.295
549.201
549.111
549.024
548.939
548.856
548.773
548.691
548.609
548.526
548.443
548.359
548.275
548.191
548.108
548.026
547.945
547.865
547.786
547.709
547.634
547.561
547.488
547.418
547.348
547.28
547.212
547.144
547.075
547.007
546.937
546.865
546.792
546.716
546.637
546.556
546.472
546.386
546.299
546.211
546.12
546.027
545.933
545.835
545.735
545.632
545.528
545.422
545.315
545.208
545.101
544.993
544.886
544.778
544.67
544.561
544.45
544.338
544.227
544.117
544.008
543.901
543.795
543.69
543.586
543.483
543.382
543.281
543.181
543.081
542.982
542.884
542.785
542.687
542.589
542.49
542.392
542.293
542.195
542.096
541.997
541.898
541.799
541.699
541.6
541.5
541.401
541.301
541.201
541.101
541.001
540.901
540.801
540.7
540.6
552.472
552.318
552.165
552.014
551.866
551.72
551.578
551.439
551.303
551.17
551.04
550.912
550.787
550.662
550.537
550.414
550.29
550.167
550.044
549.922
549.802
549.685
549.571
549.463
549.359
549.261
549.167
549.077
548.991
548.908
548.827
548.747
548.668
548.589
548.51
548.43
548.35
548.27
548.19
548.111
548.032
547.955
547.878
547.803
547.73
547.658
547.587
547.518
547.45
547.383
547.317
547.251
547.186
547.119
547.052
546.984
546.914
546.842
546.766
546.687
546.605
546.521
546.435
546.346
546.255
546.162
546.066
545.968
545.866
545.762
545.656
545.548
545.439
545.329
545.219
545.109
544.999
544.889
544.779
544.668
544.557
544.445
544.333
544.221
544.11
544
543.891
543.784
543.679
543.575
543.472
543.371
543.27
543.171
543.072
542.973
542.875
542.777
542.68
542.582
542.484
542.386
542.288
542.19
542.092
541.993
541.895
541.796
541.697
541.598
541.498
541.399
541.299
541.2
541.1
541
540.9
540.8
540.7
540.6
552.473
552.319
552.167
552.017
551.869
551.724
551.581
551.441
551.304
551.17
551.038
550.907
550.778
550.65
550.522
550.395
550.268
550.141
550.016
549.892
549.771
549.653
549.54
549.431
549.328
549.231
549.138
549.05
548.965
548.884
548.805
548.728
548.651
548.575
548.499
548.423
548.346
548.27
548.194
548.118
548.044
547.969
547.896
547.824
547.753
547.683
547.615
547.548
547.482
547.417
547.353
547.289
547.225
547.161
547.095
547.028
546.959
546.887
546.812
546.733
546.651
546.566
546.479
546.389
546.296
546.2
546.101
545.999
545.894
545.786
545.677
545.565
545.453
545.341
545.228
545.115
545.003
544.891
544.779
544.667
544.555
544.442
544.328
544.215
544.102
543.991
543.882
543.774
543.668
543.563
543.461
543.359
543.259
543.16
543.062
542.964
542.867
542.769
542.672
542.575
542.478
542.381
542.283
542.186
542.088
541.99
541.891
541.793
541.694
541.595
541.496
541.397
541.298
541.198
541.099
540.999
540.899
540.8
540.7
540.6
552.473
552.32
552.168
552.018
551.869
551.724
551.58
551.439
551.301
551.164
551.029
550.895
550.763
550.631
550.501
550.371
550.241
550.113
549.987
549.863
549.742
549.626
549.515
549.409
549.308
549.212
549.122
549.036
548.953
548.874
548.797
548.722
548.647
548.573
548.5
548.426
548.353
548.28
548.207
548.134
548.062
547.99
547.919
547.849
547.779
547.711
547.643
547.577
547.513
547.449
547.385
547.322
547.259
547.195
547.13
547.064
546.995
546.923
546.848
546.769
546.687
546.602
546.513
546.422
546.327
546.228
546.126
546.02
545.912
545.801
545.689
545.575
545.461
545.346
545.231
545.117
545.003
544.89
544.777
544.665
544.552
544.438
544.323
544.208
544.094
543.982
543.871
543.762
543.655
543.551
543.448
543.347
543.247
543.149
543.051
542.954
542.858
542.761
542.665
542.568
542.472
542.375
542.278
542.181
542.084
541.986
541.888
541.79
541.692
541.593
541.494
541.395
541.296
541.197
541.098
540.998
540.899
540.799
540.7
540.6
552.473
552.32
552.167
552.016
551.867
551.72
551.575
551.433
551.292
551.153
551.015
550.879
550.743
550.609
550.476
550.345
550.215
550.087
549.962
549.84
549.723
549.611
549.504
549.402
549.305
549.212
549.125
549.042
548.962
548.885
548.81
548.736
548.663
548.591
548.519
548.447
548.375
548.304
548.233
548.162
548.091
548.02
547.949
547.878
547.808
547.738
547.67
547.603
547.538
547.473
547.409
547.345
547.281
547.217
547.152
547.084
547.015
546.943
546.867
546.789
546.706
546.621
546.531
546.438
546.341
546.24
546.135
546.026
545.915
545.802
545.687
545.572
545.456
545.34
545.225
545.11
544.996
544.883
544.772
544.66
544.547
544.433
544.317
544.201
544.085
543.971
543.859
543.749
543.642
543.537
543.435
543.334
543.235
543.137
543.04
542.944
542.848
542.753
542.657
542.561
542.465
542.369
542.273
542.176
542.08
541.982
541.885
541.787
541.689
541.591
541.492
541.394
541.295
541.196
541.097
540.997
540.898
540.799
540.699
540.6
552.473
552.318
552.165
552.012
551.862
551.713
551.567
551.422
551.279
551.137
550.997
550.858
550.721
550.586
550.453
550.322
550.194
550.07
549.949
549.834
549.723
549.618
549.518
549.422
549.331
549.243
549.16
549.081
549.004
548.929
548.855
548.782
548.709
548.637
548.565
548.492
548.42
548.348
548.277
548.206
548.134
548.061
547.987
547.912
547.838
547.765
547.693
547.622
547.553
547.485
547.418
547.352
547.286
547.219
547.151
547.082
547.011
546.938
546.862
546.783
546.7
546.614
546.524
546.43
546.332
546.229
546.121
546.01
545.896
545.781
545.665
545.548
545.432
545.317
545.202
545.088
544.976
544.867
544.758
544.65
544.54
544.427
544.311
544.193
544.075
543.959
543.845
543.735
543.627
543.522
543.42
543.32
543.222
543.125
543.029
542.934
542.839
542.744
542.649
542.554
542.459
542.364
542.268
542.172
542.076
541.979
541.882
541.784
541.687
541.589
541.49
541.392
541.293
541.195
541.096
540.997
540.897
540.798
540.699
540.6
552.472
552.315
552.159
552.005
551.853
551.702
551.554
551.407
551.262
551.119
550.977
550.838
550.7
550.566
550.436
550.309
550.188
550.072
549.961
549.856
549.757
549.663
549.574
549.486
549.4
549.318
549.241
549.165
549.089
549.015
548.942
548.869
548.795
548.721
548.646
548.57
548.494
548.419
548.343
548.268
548.191
548.112
548.031
547.948
547.865
547.784
547.704
547.627
547.552
547.478
547.405
547.333
547.262
547.191
547.119
547.047
546.974
546.899
546.822
546.742
546.658
546.571
546.48
546.385
546.286
546.182
546.072
545.959
545.843
545.727
545.612
545.496
545.381
545.267
545.155
545.045
544.938
544.834
544.732
544.63
544.526
544.418
544.303
544.184
544.063
543.945
543.829
543.718
543.61
543.505
543.404
543.305
543.208
543.112
543.017
542.923
542.829
542.735
542.641
542.547
542.453
542.358
542.263
542.168
542.072
541.975
541.879
541.782
541.684
541.587
541.489
541.39
541.292
541.193
541.095
540.996
540.897
540.798
540.699
540.6
552.47
552.311
552.152
551.995
551.841
551.688
551.538
551.39
551.244
551.1
550.959
550.821
550.687
550.557
550.434
550.317
550.208
550.106
550.012
549.925
549.842
549.763
549.687
549.609
549.528
549.451
549.381
549.309
549.232
549.157
549.083
549.008
548.932
548.854
548.773
548.688
548.603
548.518
548.433
548.348
548.262
548.172
548.077
547.979
547.882
547.788
547.697
547.61
547.525
547.442
547.36
547.279
547.199
547.122
547.044
546.968
546.892
546.815
546.736
546.654
546.569
546.481
546.388
546.293
546.193
546.089
545.978
545.863
545.747
545.632
545.518
545.404
545.291
545.181
545.074
544.971
544.872
544.778
544.688
544.599
544.507
544.407
544.298
544.175
544.049
543.927
543.81
543.698
543.59
543.487
543.386
543.289
543.193
543.098
543.005
542.912
542.819
542.726
542.634
542.54
542.447
542.353
542.258
542.163
542.068
541.972
541.876
541.779
541.682
541.585
541.487
541.389
541.291
541.192
541.094
540.995
540.896
540.797
540.699
540.6
552.468
552.305
552.143
551.984
551.827
551.672
551.521
551.372
551.226
551.084
550.947
550.814
550.688
550.569
550.459
550.359
550.27
550.191
550.123
550.062
550
549.94
549.879
549.81
549.734
549.66
549.598
549.528
549.443
549.364
549.286
549.208
549.129
549.045
548.952
548.851
548.749
548.647
548.543
548.442
548.34
548.231
548.114
547.993
547.877
547.764
547.658
547.559
547.461
547.365
547.27
547.176
547.086
547
546.916
546.834
546.754
546.675
546.594
546.51
546.421
546.331
546.237
546.143
546.042
545.937
545.826
545.711
545.594
545.484
545.371
545.26
545.149
545.045
544.946
544.854
544.766
544.69
544.618
544.551
544.478
544.396
544.302
544.167
544.032
543.905
543.786
543.674
543.567
543.465
543.367
543.271
543.177
543.084
542.992
542.901
542.809
542.718
542.626
542.534
542.441
542.348
542.254
542.159
542.064
541.969
541.873
541.777
541.68
541.583
541.485
541.388
541.29
541.191
541.093
540.994
540.896
540.797
540.698
540.599
552.466
552.299
552.133
551.97
551.811
551.655
551.504
551.358
551.216
551.08
550.951
550.83
550.718
550.617
550.529
550.454
550.394
550.35
550.319
550.296
550.259
550.218
550.172
550.11
550.035
549.961
549.906
549.834
549.733
549.642
549.557
549.474
549.392
549.3
549.185
549.057
548.927
548.797
548.661
548.535
548.413
548.277
548.124
547.967
547.829
547.693
547.572
547.462
547.347
547.236
547.123
547.009
546.907
546.814
546.723
546.637
546.552
546.474
546.386
546.3
546.205
546.115
546.018
545.932
545.822
545.712
545.598
545.489
545.368
545.266
545.153
545.051
544.935
544.842
544.747
544.677
544.604
544.558
544.509
544.48
544.438
544.384
544.344
544.158
544.007
543.875
543.755
543.644
543.54
543.441
543.345
543.252
543.16
543.07
542.98
542.89
542.8
542.71
542.619
542.527
542.435
542.343
542.249
542.155
542.061
541.966
541.87
541.774
541.678
541.581
541.484
541.386
541.288
541.19
541.092
540.994
540.895
540.797
540.698
540.599
552.463
552.291
552.121
551.955
551.795
551.641
551.494
551.354
551.222
551.099
550.985
550.883
550.794
550.72
550.663
550.623
550.603
550.607
550.631
550.662
550.652
550.625
550.592
550.53
550.447
550.368
550.313
550.23
550.104
549.994
549.89
549.796
549.714
549.611
549.467
549.298
549.128
548.957
548.759
548.606
548.466
548.287
548.075
547.862
547.72
547.543
547.418
547.311
547.162
547.036
546.902
546.751
546.644
546.547
546.454
546.359
546.274
546.209
546.099
546.017
545.913
545.829
545.718
545.672
545.517
545.385
545.262
545.184
545.035
544.952
544.815
544.766
544.618
544.561
544.439
544.419
544.343
544.375
544.324
544.377
544.381
544.343
544.267
544.112
543.963
543.834
543.717
543.609
543.509
543.414
543.322
543.232
543.143
543.055
542.967
542.879
542.791
542.702
542.612
542.522
542.43
542.338
542.246
542.152
542.058
541.963
541.868
541.772
541.676
541.579
541.482
541.385
541.288
541.19
541.092
540.993
540.895
540.796
540.698
540.599
552.46
552.282
552.108
551.94
551.781
551.633
551.496
551.373
551.261
551.161
551.072
550.998
550.941
550.903
550.887
550.893
550.92
550.986
551.09
551.191
551.209
551.189
551.167
551.087
550.991
550.896
550.822
550.707
550.538
550.406
550.263
550.152
550.078
549.965
549.774
549.552
549.347
549.091
548.869
548.66
548.441
548.207
547.987
547.81
547.639
547.436
547.231
547.086
546.947
546.835
546.706
546.588
546.463
546.321
546.225
546.089
546
545.909
545.816
545.7
545.627
545.492
545.402
545.287
545.157
545.024
544.893
544.745
544.639
544.534
544.432
544.393
544.311
544.279
544.245
544.19
544.161
544.118
544.178
544.215
544.29
544.293
544.238
544.02
543.898
543.783
543.668
543.567
543.474
543.384
543.297
543.211
543.126
543.041
542.955
542.869
542.782
542.695
542.606
542.516
542.426
542.334
542.242
542.149
542.055
541.961
541.866
541.771
541.675
541.578
541.481
541.384
541.287
541.189
541.091
540.993
540.895
540.796
540.698
540.599
552.456
552.27
552.092
551.925
551.772
551.638
551.524
551.43
551.358
551.3
551.251
551.214
551.193
551.198
551.234
551.297
551.362
551.503
551.716
551.91
551.955
551.929
551.918
551.773
551.696
551.578
551.426
551.25
551.074
550.942
550.769
550.651
550.503
550.319
550.044
549.756
549.503
549.197
548.924
548.662
548.395
548.106
547.87
547.657
547.451
547.259
547.062
546.911
546.756
546.628
546.5
546.393
546.274
546.157
546.054
545.9
545.793
545.646
545.522
545.365
545.252
545.158
545.036
544.926
544.778
544.7
544.62
544.591
544.552
544.513
544.486
544.436
544.367
544.317
544.266
544.23
544.2
544.188
544.216
544.245
544.288
544.289
544.229
543.99
543.856
543.705
543.605
543.518
543.435
543.353
543.272
543.19
543.109
543.027
542.944
542.86
542.775
542.689
542.601
542.512
542.422
542.331
542.239
542.147
542.053
541.959
541.865
541.769
541.673
541.577
541.48
541.383
541.286
541.188
541.091
540.993
540.894
540.796
540.698
540.599
552.451
552.258
552.078
551.915
551.773
551.663
551.593
551.543
551.545
551.562
551.575
551.589
551.594
551.641
551.747
551.949
551.955
552.161
552.499
552.816
552.942
552.847
552.872
552.651
552.698
552.481
552.167
551.903
551.646
551.493
551.25
551.047
550.83
550.61
550.281
549.949
549.655
549.296
548.979
548.66
548.364
548.002
547.733
547.452
547.206
546.991
546.827
546.695
546.603
546.497
546.393
546.278
546.163
546.02
545.888
545.716
545.604
545.455
545.396
545.285
545.236
545.111
545.004
544.92
544.843
544.787
544.726
544.675
544.634
544.585
544.544
544.487
544.431
544.381
544.341
544.309
544.283
544.271
544.272
544.282
544.29
544.267
544.194
543.85
543.766
543.645
543.539
543.464
543.395
543.323
543.247
543.17
543.093
543.015
542.935
542.853
542.769
542.684
542.597
542.508
542.419
542.329
542.237
542.145
542.052
541.958
541.863
541.768
541.672
541.576
541.48
541.383
541.286
541.188
541.09
540.992
540.894
540.796
540.698
540.599
552.443
552.242
552.062
551.906
551.783
551.719
551.773
551.709
551.837
551.973
552.109
552.221
552.209
552.286
552.494
553.331
552.794
553.046
553.396
553.849
554.088
553.874
553.915
553.61
553.56
553.359
552.929
552.665
552.356
552.119
551.809
551.471
551.182
550.882
550.497
550.11
549.814
549.446
549.13
548.726
548.424
547.975
547.62
547.167
546.999
546.83
546.759
546.751
546.696
546.608
546.492
546.377
546.242
546.096
545.945
545.789
545.67
545.541
545.449
545.321
545.249
545.137
545.057
544.967
544.902
544.843
544.792
544.744
544.704
544.662
544.62
544.573
544.523
544.475
544.43
544.391
544.359
544.335
544.318
544.303
544.27
544.145
544.003
543.815
543.677
543.572
543.497
543.415
543.36
543.298
543.224
543.15
543.079
543.005
542.928
542.847
542.765
542.68
542.594
542.506
542.417
542.327
542.236
542.144
542.051
541.957
541.862
541.767
541.672
541.576
541.479
541.382
541.285
541.188
541.09
540.992
540.894
540.796
540.698