/*--------------------------------*- C++ -*----------------------------------*\
  =========                 |
  \\      /  F ield         | OpenFOAM: The Open Source CFD Toolbox
   \\    /   O peration     | Website:  https://openfoam.org
    \\  /    A nd           | Version:  6
     \\/     M anipulation  |
\*---------------------------------------------------------------------------*/
FoamFile
{
    version     2.0;
    format      ascii;
    class       volVectorField;
    location    "4100";
    object      U;
}
// * * * * * * * * * * * * * * * * * * * * * * * * * * * * * * * * * * * * * //

dimensions      [0 1 -1 0 0 0 0];

internalField   nonuniform List<vector> 
4800
(
(-2.61092e-05 0 -2.57276e-05)
(2.32196e-05 0 -1.78759e-05)
(2.05106e-05 0 -1.56458e-05)
(1.83817e-05 0 -2.09625e-05)
(1.41846e-05 0 -1.61963e-05)
(3.33971e-06 0 -1.91414e-05)
(-2.63294e-05 0 -6.24979e-05)
(-5.00863e-05 0 -8.1944e-05)
(-0.000187816 0 -8.50165e-05)
(-0.000194973 0 -0.000144917)
(-0.000263463 0 -3.41927e-05)
(-0.000368169 0 6.7086e-05)
(-0.000471943 0 3.86847e-05)
(-0.00056912 0 -1.05659e-05)
(-0.000612895 0 2.23909e-05)
(-0.000611783 0 -4.95392e-06)
(-0.000537847 0 -3.40027e-05)
(-0.000480105 0 -4.34274e-05)
(-0.000427995 0 -6.18981e-05)
(-0.00037695 0 -5.70904e-05)
(-0.000310599 0 -7.16836e-05)
(-0.000230977 0 -6.29865e-05)
(-0.000143116 0 -7.42755e-05)
(-6.17672e-05 0 -8.21154e-05)
(-1.26624e-06 0 -7.57875e-05)
(3.37249e-05 0 -6.09661e-05)
(8.12433e-05 0 -7.98963e-05)
(0.000114858 0 -6.19746e-05)
(0.000128029 0 -3.10781e-05)
(0.000128918 0 -7.78993e-05)
(0.000178658 0 -4.8397e-05)
(0.000200851 0 -2.1277e-05)
(0.000195226 0 -1.29429e-05)
(0.000193314 0 -4.71647e-06)
(0.000188564 0 -1.46687e-05)
(0.000182199 0 -1.00367e-05)
(0.000168106 0 -3.5607e-06)
(0.000141018 0 4.59081e-06)
(9.81798e-05 0 1.66638e-05)
(4.78599e-05 0 1.32744e-05)
(3.99758e-06 0 -6.27534e-06)
(-4.25595e-05 0 -9.37289e-06)
(-0.000150759 0 -5.11665e-06)
(-0.000270814 0 -5.33104e-05)
(-0.000337928 0 3.34525e-05)
(-0.000381816 0 2.0411e-05)
(-0.00041402 0 -1.42617e-05)
(-0.00043329 0 5.37362e-06)
(-0.000443763 0 -1.99755e-06)
(-0.000450305 0 -5.63376e-07)
(-0.000451456 0 -2.127e-06)
(-0.000418138 0 -8.01141e-06)
(-0.000398656 0 -9.91729e-06)
(-0.000396034 0 -1.51801e-05)
(-0.000404498 0 -2.84197e-05)
(-0.000343481 0 -3.36945e-05)
(-0.000238733 0 -3.4622e-06)
(-0.000178508 0 -1.03254e-05)
(-0.000165962 0 -3.80664e-05)
(-0.000149712 0 -4.08401e-05)
(-0.00012204 0 -4.90461e-05)
(-0.000100828 0 -5.67652e-05)
(-9.48142e-05 0 -4.63363e-05)
(-9.18836e-05 0 -4.00611e-05)
(-9.42032e-05 0 -3.64982e-05)
(-7.96978e-05 0 -3.54024e-05)
(-5.87364e-05 0 -4.75612e-05)
(-3.62138e-05 0 -1.80391e-05)
(-8.85632e-06 0 -4.41358e-06)
(3.36491e-06 0 -3.81487e-05)
(-2.55539e-06 0 -9.5927e-05)
(6.13934e-05 0 -5.5164e-05)
(0.000109228 0 -3.53764e-05)
(0.00014585 0 -4.50437e-05)
(0.000150095 0 -4.84843e-05)
(0.00015061 0 -4.76563e-05)
(0.000160347 0 -3.96546e-05)
(8.79621e-05 0 -4.11675e-05)
(0.000397966 0 -2.29325e-05)
(-0.000414613 0 -5.88687e-05)
(4.57336e-06 0 9.80132e-06)
(-8.72895e-13 0 1.36899e-14)
(-2.34001e-12 0 -2.70469e-15)
(-1.49576e-12 0 -7.4355e-15)
(-1.4754e-12 0 -1.29627e-14)
(-1.44336e-12 0 -1.91395e-14)
(-1.39853e-12 0 -2.57678e-14)
(-1.3403e-12 0 -3.25627e-14)
(-1.26862e-12 0 -3.92171e-14)
(-1.18409e-12 0 -4.54432e-14)
(-1.0878e-12 0 -5.09925e-14)
(-9.81309e-13 0 -5.56628e-14)
(-8.66526e-13 0 -5.93009e-14)
(-7.4562e-13 0 -6.18029e-14)
(-6.20916e-13 0 -6.31126e-14)
(-4.94809e-13 0 -6.32198e-14)
(-3.69668e-13 0 -6.21563e-14)
(-2.47763e-13 0 -5.99914e-14)
(-1.31196e-13 0 -5.68259e-14)
(-2.18374e-14 0 -5.27851e-14)
(7.87047e-14 0 -4.80114e-14)
(1.69119e-13 0 -4.2657e-14)
(2.48401e-13 0 -3.68765e-14)
(3.15851e-13 0 -3.08211e-14)
(3.71064e-13 0 -2.46331e-14)
(4.13904e-13 0 -1.84423e-14)
(4.44483e-13 0 -1.23632e-14)
(4.63122e-13 0 -6.49364e-15)
(4.70323e-13 0 -9.14594e-16)
(4.66732e-13 0 4.30925e-15)
(4.53109e-13 0 9.12834e-15)
(4.30301e-13 0 1.35064e-14)
(3.99213e-13 0 1.74186e-14)
(3.60793e-13 0 2.08492e-14)
(3.16012e-13 0 2.37896e-14)
(2.65853e-13 0 2.62364e-14)
(2.11302e-13 0 2.81894e-14)
(1.53343e-13 0 2.96499e-14)
(9.29613e-14 0 3.06182e-14)
(3.11436e-14 0 3.1089e-14)
(-1.26035e-05 0 -2.32897e-05)
(1.91684e-05 0 -1.15654e-05)
(5.52525e-06 0 -5.29501e-07)
(-1.04503e-07 0 1.36032e-05)
(-4.64471e-05 0 4.16263e-05)
(-0.000107774 0 7.13375e-05)
(-0.000130963 0 8.81378e-05)
(-0.000152137 0 0.000103603)
(-0.000269037 0 0.000141633)
(-0.000355881 0 0.000157495)
(-0.00043346 0 9.72546e-05)
(-0.000496119 0 0.000123534)
(-0.000570929 0 9.8935e-05)
(-0.000602158 0 7.5375e-05)
(-0.000605165 0 4.937e-05)
(-0.000553028 0 -4.01819e-05)
(-0.00048185 0 -0.000107496)
(-0.000435852 0 -6.94539e-05)
(-0.000365533 0 -9.31339e-05)
(-0.000311954 0 -9.18552e-05)
(-0.000255251 0 -0.000103951)
(-0.000193959 0 -0.00011399)
(-0.000119841 0 -0.000119871)
(-5.61549e-05 0 -0.000102398)
(-1.16273e-05 0 -6.98384e-05)
(1.76717e-05 0 -3.5269e-05)
(5.92713e-05 0 -3.59894e-05)
(6.70287e-05 0 1.84275e-05)
(0.00010673 0 -2.39949e-05)
(0.00013374 0 -4.97356e-05)
(0.000126426 0 -1.0931e-05)
(0.000125342 0 -4.42349e-06)
(0.000130104 0 -1.316e-05)
(0.000134511 0 -1.31263e-06)
(0.000136418 0 9.3624e-06)
(0.000130839 0 7.46829e-06)
(0.000126383 0 3.79138e-05)
(0.000104036 0 5.47366e-05)
(6.53638e-05 0 6.83621e-05)
(6.98129e-06 0 7.90764e-05)
(-7.45204e-05 0 9.08259e-05)
(-0.000150207 0 0.00011085)
(-0.000222625 0 0.000140114)
(-0.000289869 0 0.000110074)
(-0.000328452 0 5.81637e-05)
(-0.000374 0 6.175e-05)
(-0.000425191 0 5.28161e-05)
(-0.000451929 0 2.93836e-05)
(-0.00046913 0 1.25644e-05)
(-0.000485239 0 -7.15854e-06)
(-0.000490124 0 -1.40244e-05)
(-0.000450684 0 -4.19193e-05)
(-0.000418339 0 -3.40348e-05)
(-0.000409652 0 -2.38399e-05)
(-0.000394258 0 -1.31829e-05)
(-0.00034194 0 -1.48324e-05)
(-0.000193861 0 -0.00026247)
(-0.000175762 0 -0.000127781)
(-0.000181884 0 0.000122665)
(-0.000116979 0 -3.60312e-05)
(-8.48317e-05 0 -2.92886e-06)
(-6.11562e-05 0 4.10271e-06)
(-4.23515e-05 0 3.19624e-05)
(-3.02119e-05 0 1.63792e-05)
(-2.87128e-05 0 1.90214e-05)
(-3.10493e-05 0 -2.53212e-05)
(-3.41053e-05 0 -5.41943e-05)
(-4.40323e-06 0 -5.86904e-05)
(7.31623e-06 0 -8.96394e-06)
(4.43817e-05 0 5.25262e-05)
(4.36361e-05 0 -6.41546e-05)
(8.01172e-05 0 -7.71774e-05)
(0.000114636 0 -2.09976e-05)
(0.000136637 0 -9.69512e-06)
(0.000165421 0 2.47318e-05)
(0.000162772 0 3.1623e-05)
(0.000153168 0 3.5538e-05)
(7.60632e-05 0 3.39013e-05)
(0.000262118 0 3.51499e-05)
(-0.00046396 0 0.000112173)
(4.53344e-06 0 0.000110281)
(-9.13805e-13 0 4.99069e-14)
(-2.34707e-12 0 -6.316e-15)
(-1.50601e-12 0 -2.15401e-14)
(-1.48711e-12 0 -3.82729e-14)
(-1.45617e-12 0 -5.70079e-14)
(-1.41196e-12 0 -7.71849e-14)
(-1.35374e-12 0 -9.78841e-14)
(-1.2815e-12 0 -1.18142e-13)
(-1.19587e-12 0 -1.37076e-13)
(-1.09802e-12 0 -1.53933e-13)
(-9.89618e-13 0 -1.68103e-13)
(-8.72667e-13 0 -1.79126e-13)
(-7.49431e-13 0 -1.86692e-13)
(-6.22333e-13 0 -1.90635e-13)
(-4.93852e-13 0 -1.90927e-13)
(-3.66439e-13 0 -1.87669e-13)
(-2.42433e-13 0 -1.81074e-13)
(-1.23989e-13 0 -1.71452e-13)
(-1.30229e-14 0 -1.59187e-13)
(8.88328e-14 0 -1.44712e-13)
(1.80254e-13 0 -1.28492e-13)
(2.60237e-13 0 -1.10997e-13)
(3.28095e-13 0 -9.26848e-14)
(3.83442e-13 0 -7.39875e-14)
(4.26174e-13 0 -5.52966e-14)
(4.56432e-13 0 -3.69571e-14)
(4.74571e-13 0 -1.9263e-14)
(4.81126e-13 0 -2.45676e-15)
(4.76775e-13 0 1.32688e-14)
(4.62307e-13 0 2.77666e-14)
(4.38591e-13 0 4.09297e-14)
(4.06556e-13 0 5.26854e-14)
(3.67164e-13 0 6.29888e-14)
(3.21399e-13 0 7.18161e-14)
(2.70253e-13 0 7.91587e-14)
(2.14715e-13 0 8.50178e-14)
(1.55772e-13 0 8.93994e-14)
(9.44005e-14 0 9.23097e-14)
(3.16145e-14 0 9.37498e-14)
(-9.33024e-06 0 -3.83381e-05)
(7.99916e-06 0 -1.24055e-05)
(-8.43524e-06 0 1.39754e-05)
(-3.54943e-05 0 5.72593e-05)
(-9.23385e-05 0 7.77401e-05)
(-0.000148375 0 0.000117566)
(-0.000193794 0 0.000140885)
(-0.000248299 0 0.000154365)
(-0.000321769 0 0.000186548)
(-0.000440201 0 0.000173054)
(-0.000501044 0 0.000221688)
(-0.000547382 0 0.000197019)
(-0.000556786 0 0.000181446)
(-0.000559522 0 9.10789e-05)
(-0.000544274 0 2.08115e-05)
(-0.00051118 0 -0.00019767)
(-0.000422713 0 -0.000250134)
(-0.000417679 0 -6.90993e-05)
(-0.000294357 0 -0.000216756)
(-0.000270974 0 -0.000134987)
(-0.000211162 0 -0.00014996)
(-0.000161735 0 -0.000159234)
(-6.71304e-05 0 -0.00019771)
(-3.42003e-05 0 -0.000159935)
(2.8339e-05 0 -0.000139669)
(2.89841e-05 0 -8.82755e-05)
(0.000107309 0 -7.76036e-05)
(9.17872e-05 0 -2.63153e-05)
(0.000144908 0 -5.90443e-05)
(0.000148215 0 -4.36537e-05)
(0.000129384 0 -5.94946e-06)
(0.000122454 0 2.04602e-06)
(0.000127194 0 -9.11098e-06)
(0.000112599 0 -1.31811e-06)
(9.93867e-05 0 1.31912e-06)
(9.02287e-05 0 1.25754e-05)
(8.5947e-05 0 4.37189e-05)
(7.25789e-05 0 9.08635e-05)
(3.23299e-05 0 0.000118398)
(-1.29447e-05 0 0.000143392)
(-9.52434e-05 0 0.000173598)
(-0.000201131 0 0.000172119)
(-0.000258531 0 0.000168512)
(-0.000284974 0 0.000178905)
(-0.00033189 0 0.000132378)
(-0.000380863 0 9.62593e-05)
(-0.000413829 0 0.000131241)
(-0.000465495 0 6.48992e-05)
(-0.000498572 0 3.73713e-05)
(-0.000514979 0 1.29036e-05)
(-0.000518478 0 -2.54661e-06)
(-0.000498015 0 -6.17539e-05)
(-0.000463454 0 -9.30055e-05)
(-0.000433447 0 -6.19429e-05)
(-0.00039665 0 -7.23498e-05)
(-0.000360325 0 -0.000133094)
(-0.000293928 0 -0.000244862)
(-0.000292432 0 -3.70005e-05)
(-0.0001788 0 -0.000110942)
(-0.000113871 0 -9.33383e-05)
(-5.55111e-05 0 -8.97705e-05)
(-3.40331e-05 0 -5.68475e-05)
(-9.80967e-06 0 -4.71561e-05)
(7.71272e-06 0 -3.5104e-05)
(2.43874e-05 0 -1.88305e-07)
(3.03467e-05 0 1.0104e-05)
(2.07377e-05 0 -3.58457e-05)
(1.09211e-05 0 -6.97153e-05)
(3.40073e-05 0 -7.36903e-05)
(4.09704e-05 0 -8.53984e-05)
(0.000109674 0 -2.73599e-05)
(0.000102435 0 -0.000103425)
(0.000134057 0 -8.71625e-05)
(0.000145599 0 -9.30142e-05)
(0.000178223 0 -2.5694e-05)
(0.000177048 0 -2.22915e-05)
(0.00016703 0 1.14339e-05)
(6.81659e-05 0 5.40542e-05)
(0.000308301 0 6.27598e-05)
(-0.000471877 0 9.9782e-05)
(4.60154e-06 0 0.00017132)
(-9.57064e-13 0 8.08009e-14)
(-2.37084e-12 0 -1.09706e-14)
(-1.52771e-12 0 -3.41525e-14)
(-1.51087e-12 0 -6.15992e-14)
(-1.48228e-12 0 -9.3457e-14)
(-1.43941e-12 0 -1.28107e-13)
(-1.38125e-12 0 -1.6368e-13)
(-1.30782e-12 0 -1.98429e-13)
(-1.21988e-12 0 -2.3083e-13)
(-1.11883e-12 0 -2.59607e-13)
(-1.0065e-12 0 -2.83741e-13)
(-8.85116e-13 0 -3.02465e-13)
(-7.57129e-13 0 -3.15264e-13)
(-6.25151e-13 0 -3.21871e-13)
(-4.91842e-13 0 -3.22249e-13)
(-3.59815e-13 0 -3.16584e-13)
(-2.31547e-13 0 -3.05251e-13)
(-1.09308e-13 0 -2.88789e-13)
(4.90299e-15 0 -2.67863e-13)
(1.094e-13 0 -2.43223e-13)
(2.02835e-13 0 -2.15666e-13)
(2.84208e-13 0 -1.85995e-13)
(3.5286e-13 0 -1.54994e-13)
(4.08452e-13 0 -1.23393e-13)
(4.50935e-13 0 -9.18543e-14)
(4.80517e-13 0 -6.09573e-14)
(4.97623e-13 0 -3.11931e-14)
(5.02855e-13 0 -2.96375e-15)
(4.96956e-13 0 2.34137e-14)
(4.8077e-13 0 4.76998e-14)
(4.5522e-13 0 6.97231e-14)
(4.21272e-13 0 8.93698e-14)
(3.79924e-13 0 1.06572e-13)
(3.32182e-13 0 1.21296e-13)
(2.79054e-13 0 1.33534e-13)
(2.21542e-13 0 1.43294e-13)
(1.60635e-13 0 1.50591e-13)
(9.73117e-14 0 1.55442e-13)
(3.25837e-14 0 1.57864e-13)
(-1.12965e-05 0 -4.06349e-05)
(-6.98805e-06 0 9.19247e-06)
(-6.26669e-05 0 6.54964e-05)
(-7.10992e-05 0 0.00010452)
(-0.000114038 0 0.000138104)
(-0.000211421 0 0.000122818)
(-0.000228418 0 0.000209387)
(-0.00028274 0 0.000252032)
(-0.00037524 0 0.000226995)
(-0.000415778 0 0.000287585)
(-0.000503256 0 0.000239181)
(-0.000525312 0 0.000224816)
(-0.000528145 0 0.000152713)
(-0.00047434 0 2.94981e-05)
(-0.000439393 0 -2.22919e-05)
(-0.000431771 0 -0.000113172)
(-0.000437751 0 -0.000135798)
(-0.000351897 0 -0.000250383)
(-0.000295699 0 -0.000198081)
(-0.00024474 0 -0.000194104)
(-0.000191623 0 -0.000234599)
(-0.000137593 0 -0.00026783)
(-2.2245e-05 0 -0.000290325)
(-8.81052e-05 0 -0.000189892)
(4.5134e-06 0 -0.000198754)
(1.25761e-05 0 -0.000140971)
(0.00013092 0 -0.000131332)
(0.000167128 0 -9.94984e-05)
(0.000195194 0 -6.37224e-05)
(0.000224554 0 -2.61159e-05)
(0.000227236 0 7.24794e-06)
(0.000212227 0 1.53763e-05)
(0.000170763 0 2.91781e-05)
(0.000116473 0 3.04973e-05)
(8.93619e-05 0 2.39146e-05)
(7.21662e-05 0 3.11172e-05)
(5.52675e-05 0 5.88726e-05)
(4.92971e-05 0 0.00011328)
(3.94698e-05 0 0.000175529)
(3.32225e-06 0 0.000230789)
(-5.97415e-05 0 0.000270905)
(-0.000201147 0 0.000236692)
(-0.000254771 0 0.000215534)
(-0.000287105 0 0.000208963)
(-0.000360203 0 0.000149544)
(-0.000395867 0 0.000144894)
(-0.000437265 0 0.000110208)
(-0.000477217 0 8.87809e-05)
(-0.0005022 0 5.89799e-05)
(-0.000506009 0 2.16794e-05)
(-0.000498005 0 -2.2305e-05)
(-0.000505354 0 -5.14201e-05)
(-0.000503864 0 -7.31029e-05)
(-0.00044839 0 -0.000116029)
(-0.000418222 0 -0.000123553)
(-0.000388617 0 -0.000184617)
(-0.000318697 0 -0.00027425)
(-0.00034277 0 -9.19749e-05)
(-0.000210445 0 -0.000207233)
(-0.000154249 0 -0.00016607)
(-9.45015e-05 0 -0.000103534)
(-2.98086e-05 0 -5.427e-05)
(9.19495e-06 0 -3.16273e-05)
(2.2652e-05 0 -3.22469e-05)
(3.90469e-05 0 -2.33394e-05)
(5.4478e-05 0 -6.54425e-07)
(5.97883e-05 0 -1.77383e-05)
(5.32906e-05 0 -4.97011e-05)
(5.51077e-05 0 -6.90598e-05)
(5.19902e-05 0 -0.000100806)
(8.72738e-05 0 -9.00434e-05)
(9.21262e-05 0 -0.000128476)
(0.000143862 0 -8.63793e-05)
(0.000151483 0 -9.77491e-05)
(0.000177863 0 -1.55025e-05)
(0.000189257 0 2.58577e-05)
(0.000182173 0 5.22319e-05)
(7.33906e-05 0 9.41002e-05)
(0.000251687 0 0.000106768)
(-0.000454692 0 0.000120844)
(4.70369e-06 0 0.000211988)
(-1.00006e-12 0 6.90557e-14)
(-2.39762e-12 0 -1.92342e-14)
(-1.55664e-12 0 -4.24776e-14)
(-1.54641e-12 0 -8.04887e-14)
(-1.52268e-12 0 -1.27085e-13)
(-1.48218e-12 0 -1.78076e-13)
(-1.42407e-12 0 -2.30265e-13)
(-1.34865e-12 0 -2.81027e-13)
(-1.25705e-12 0 -3.28168e-13)
(-1.15093e-12 0 -3.69885e-13)
(-1.03248e-12 0 -4.04747e-13)
(-9.0419e-13 0 -4.31685e-13)
(-7.68837e-13 0 -4.49986e-13)
(-6.29318e-13 0 -4.5929e-13)
(-4.88565e-13 0 -4.59572e-13)
(-3.49441e-13 0 -4.51123e-13)
(-2.14638e-13 0 -4.34514e-13)
(-8.66017e-14 0 -4.10549e-13)
(3.25429e-14 0 -3.80214e-13)
(1.41031e-13 0 -3.44613e-13)
(2.37482e-13 0 -3.04914e-13)
(3.20909e-13 0 -2.62288e-13)
(3.90697e-13 0 -2.17867e-13)
(4.46582e-13 0 -1.72703e-13)
(4.8861e-13 0 -1.27738e-13)
(5.17093e-13 0 -8.37944e-14)
(5.32565e-13 0 -4.15597e-14)
(5.35733e-13 0 -1.59197e-15)
(5.27439e-13 0 3.56749e-14)
(5.08616e-13 0 6.99189e-14)
(4.80261e-13 0 1.00915e-13)
(4.43404e-13 0 1.28519e-13)
(3.9909e-13 0 1.52651e-13)
(3.48362e-13 0 1.73279e-13)
(2.92251e-13 0 1.90405e-13)
(2.31772e-13 0 2.0405e-13)
(1.6792e-13 0 2.14245e-13)
(1.01673e-13 0 2.2102e-13)
(3.40359e-14 0 2.24402e-13)
(-2.12098e-05 0 -2.61506e-05)
(-4.45001e-05 0 4.55237e-05)
(-8.47167e-05 0 0.000116069)
(-0.000105799 0 0.000143657)
(-0.000191362 0 0.000141982)
(-0.000177031 0 0.000237712)
(-0.000294302 0 0.000241629)
(-0.000343867 0 0.000290696)
(-0.000415681 0 0.000280753)
(-0.000460404 0 0.000274767)
(-0.000483306 0 0.000265434)
(-0.000491825 0 0.000231681)
(-0.000487699 0 0.000116528)
(-0.000458596 0 -1.94514e-05)
(-0.000419979 0 -9.26742e-05)
(-0.00039228 0 -0.000159087)
(-0.000374477 0 -0.000200871)
(-0.000351064 0 -0.000241363)
(-0.000304811 0 -0.000307783)
(-0.000285118 0 -0.000290412)
(-0.000245025 0 -0.000286914)
(-0.00021356 0 -0.000276358)
(-0.000242689 0 -0.000197704)
(-0.000150881 0 -0.000226981)
(-2.75298e-05 0 -0.000263336)
(-8.9315e-07 0 -0.00018759)
(9.24093e-05 0 -0.000170103)
(0.000164918 0 -0.000161367)
(0.000221779 0 -9.31099e-05)
(0.000236818 0 -7.85864e-05)
(0.000273812 0 -1.18565e-05)
(0.000267597 0 8.20352e-05)
(0.000244053 0 8.52598e-05)
(0.000171391 0 9.63893e-05)
(9.89797e-05 0 7.36436e-05)
(6.01108e-05 0 6.11302e-05)
(2.25871e-05 0 9.87937e-05)
(-6.68413e-06 0 0.000155509)
(-0.00011345 0 0.000189694)
(-0.000156274 0 0.000238344)
(-0.000171133 0 0.00028336)
(-0.000178416 0 0.000310312)
(-0.000212644 0 0.000297934)
(-0.000287806 0 0.000249744)
(-0.00033715 0 0.000246363)
(-0.000393317 0 0.000217974)
(-0.000431637 0 0.000182765)
(-0.000463942 0 0.000130903)
(-0.000480876 0 7.94438e-05)
(-0.000486347 0 7.18247e-06)
(-0.000482592 0 -9.44566e-05)
(-0.000489548 0 -6.84623e-05)
(-0.00047692 0 -9.99883e-05)
(-0.000438335 0 -0.000126452)
(-0.000410794 0 -0.000153599)
(-0.000369897 0 -0.000239912)
(-0.000333787 0 -0.000271917)
(-0.000322082 0 -0.000226668)
(-0.000224624 0 -0.000290603)
(-0.000178511 0 -0.000254029)
(-0.000171684 0 -0.000166262)
(-4.0465e-05 0 -0.000169115)
(9.06706e-06 0 -7.36876e-05)
(4.49002e-05 0 -4.10928e-05)
(5.11872e-05 0 -4.21156e-05)
(7.20425e-05 0 -2.69059e-05)
(7.80979e-05 0 -3.01765e-05)
(7.9775e-05 0 -3.24538e-05)
(7.77348e-05 0 -5.27577e-05)
(3.9458e-05 0 -0.000126962)
(6.57424e-05 0 -0.000114279)
(8.17255e-05 0 -0.000132865)
(0.000128216 0 -0.000120668)
(0.000161615 0 -8.76103e-05)
(0.000174566 0 -3.75076e-05)
(0.000192985 0 -2.03398e-05)
(0.000193924 0 8.87279e-05)
(8.33309e-05 0 0.000139557)
(0.000417574 0 0.000174113)
(-0.000454853 0 0.000125537)
(4.76413e-06 0 0.000245864)
(-1.00867e-12 0 7.55034e-14)
(-2.39621e-12 0 -4.21307e-15)
(-1.58897e-12 0 -3.60163e-14)
(-1.59548e-12 0 -9.07724e-14)
(-1.57986e-12 0 -1.56297e-13)
(-1.54259e-12 0 -2.26822e-13)
(-1.4842e-12 0 -2.98253e-13)
(-1.40572e-12 0 -3.6722e-13)
(-1.30874e-12 0 -4.30905e-13)
(-1.19541e-12 0 -4.86993e-13)
(-1.0683e-12 0 -5.33652e-13)
(-9.30355e-13 0 -5.69517e-13)
(-7.84734e-13 0 -5.93683e-13)
(-6.34737e-13 0 -6.0571e-13)
(-4.83675e-13 0 -6.05606e-13)
(-3.34756e-13 0 -5.93804e-13)
(-1.90973e-13 0 -5.71114e-13)
(-5.50081e-14 0 -5.38664e-13)
(7.08385e-14 0 -4.97815e-13)
(1.84699e-13 0 -4.50089e-13)
(2.8516e-13 0 -3.97077e-13)
(3.71255e-13 0 -3.40365e-13)
(4.42446e-13 0 -2.81474e-13)
(4.98581e-13 0 -2.21802e-13)
(5.39843e-13 0 -1.62592e-13)
(5.66695e-13 0 -1.04914e-13)
(5.79825e-13 0 -4.96515e-14)
(5.8009e-13 0 2.48797e-15)
(5.68466e-13 0 5.09657e-14)
(5.4601e-13 0 9.53918e-14)
(5.1382e-13 0 1.35504e-13)
(4.73008e-13 0 1.71145e-13)
(4.24684e-13 0 2.02239e-13)
(3.69936e-13 0 2.28769e-13)
(3.09825e-13 0 2.50761e-13)
(2.45382e-13 0 2.68259e-13)
(1.77605e-13 0 2.8132e-13)
(1.07469e-13 0 2.89995e-13)
(3.59652e-14 0 2.94322e-13)
(-3.1863e-05 0 9.02726e-06)
(-4.54997e-05 0 9.14701e-05)
(-0.000156983 0 0.000101755)
(-7.03337e-05 0 0.000221972)
(-0.000186981 0 0.000218484)
(-0.000204343 0 0.000287155)
(-0.000300373 0 0.000317999)
(-0.000361693 0 0.000348924)
(-0.000413367 0 0.000359419)
(-0.000442111 0 0.000348719)
(-0.000467016 0 0.000292569)
(-0.000460857 0 0.000198875)
(-0.000448034 0 0.00011899)
(-0.000453408 0 3.10307e-05)
(-0.000435706 0 -0.000111529)
(-0.000395337 0 -0.000196365)
(-0.000392943 0 -0.000200911)
(-0.000405912 0 -0.000261654)
(-0.000436566 0 -0.00023009)
(-0.000419519 0 -0.00023475)
(-0.000361897 0 -0.000249568)
(-0.00024323 0 -0.000324649)
(-0.000203665 0 -0.000284469)
(-0.000171596 0 -0.000260545)
(3.66798e-06 0 -0.000326962)
(3.43324e-05 0 -0.000254758)
(8.4441e-05 0 -0.000222039)
(0.000168384 0 -0.000211717)
(0.000211636 0 -0.000168949)
(0.000268643 0 -7.92191e-05)
(0.000292083 0 -2.6641e-05)
(0.000316999 0 3.09773e-05)
(0.000287769 0 0.000155108)
(0.000267168 0 0.000146059)
(0.000169614 0 0.000140931)
(9.37161e-05 0 0.000107933)
(5.78675e-05 0 0.000144436)
(4.58274e-05 0 0.000211547)
(8.22989e-06 0 0.000286002)
(-0.000115002 0 0.000320218)
(-0.000170036 0 0.000340633)
(-0.00019806 0 0.00034278)
(-0.000210125 0 0.000341869)
(-0.000318089 0 0.000263712)
(-0.000344628 0 0.00025681)
(-0.000378965 0 0.000233399)
(-0.000413004 0 0.000191625)
(-0.000426573 0 0.000156217)
(-0.000424302 0 9.89884e-05)
(-0.000433082 0 4.7877e-05)
(-0.00044647 0 -1.41662e-05)
(-0.000434469 0 -7.94618e-05)
(-0.000403917 0 -0.000145196)
(-0.000384735 0 -0.000178333)
(-0.000354214 0 -0.000240199)
(-0.000346926 0 -0.000257712)
(-0.000382472 0 -0.000185819)
(-0.000266228 0 -0.000311953)
(-0.00023076 0 -0.000314717)
(-0.00020738 0 -0.000277754)
(-0.000148266 0 -0.000264429)
(-5.89571e-05 0 -0.000235353)
(-1.05209e-05 0 -0.00014994)
(6.74341e-05 0 -6.23953e-05)
(7.89202e-05 0 -4.39671e-05)
(9.89597e-05 0 -2.45728e-05)
(9.31335e-05 0 -3.854e-05)
(0.000105418 0 -3.19133e-05)
(9.60201e-05 0 -5.78382e-05)
(8.9964e-05 0 -0.000119284)
(0.000145479 0 -0.000102463)
(0.000130603 0 -0.000126797)
(0.000127888 0 -0.000158828)
(0.000150011 0 -0.000142916)
(0.000187407 0 -6.19233e-05)
(0.000203496 0 -2.94343e-05)
(0.00020212 0 9.37551e-05)
(0.000117915 0 0.000154725)
(0.000341014 0 0.000196603)
(-0.00027589 0 0.000219886)
(4.50634e-06 0 0.000312571)
(-9.68755e-13 0 2.98886e-13)
(-2.4023e-12 0 7.35145e-14)
(-1.6432e-12 0 -6.58272e-15)
(-1.66669e-12 0 -9.02664e-14)
(-1.65873e-12 0 -1.80487e-13)
(-1.62414e-12 0 -2.74637e-13)
(-1.56446e-12 0 -3.68677e-13)
(-1.48131e-12 0 -4.58667e-13)
(-1.37682e-12 0 -5.41208e-13)
(-1.25368e-12 0 -6.13501e-13)
(-1.115e-12 0 -6.73325e-13)
(-9.6422e-13 0 -7.19019e-13)
(-8.05031e-13 0 -7.49494e-13)
(-6.41241e-13 0 -7.64237e-13)
(-4.76659e-13 0 -7.63316e-13)
(-3.14949e-13 0 -7.47352e-13)
(-1.59498e-13 0 -7.17459e-13)
(-1.33026e-14 0 -6.75159e-13)
(1.21117e-13 0 -6.2228e-13)
(2.41769e-13 0 -5.60838e-13)
(3.47206e-13 0 -4.92925e-13)
(4.36511e-13 0 -4.20611e-13)
(5.09261e-13 0 -3.45851e-13)
(5.65464e-13 0 -2.70428e-13)
(6.05498e-13 0 -1.95906e-13)
(6.30033e-13 0 -1.23608e-13)
(6.39966e-13 0 -5.46133e-14)
(6.3635e-13 0 1.02362e-14)
(6.20343e-13 0 7.0314e-14)
(5.93154e-13 0 1.25184e-13)
(5.56014e-13 0 1.74569e-13)
(5.10139e-13 0 2.18322e-13)
(4.56714e-13 0 2.56393e-13)
(3.96884e-13 0 2.88802e-13)
(3.31741e-13 0 3.15612e-13)
(2.62331e-13 0 3.36909e-13)
(1.89655e-13 0 3.52785e-13)
(1.14675e-13 0 3.63319e-13)
(3.83631e-14 0 3.68571e-13)
(-8.9054e-05 0 4.80089e-05)
(-6.55387e-05 0 0.000128284)
(-9.34238e-05 0 0.000190416)
(-0.000125632 0 0.000235594)
(-0.000166107 0 0.000290051)
(-0.00026478 0 0.000315517)
(-0.000287202 0 0.000394045)
(-0.000355901 0 0.000406314)
(-0.000406272 0 0.000396852)
(-0.000439161 0 0.000369092)
(-0.000445035 0 0.000293657)
(-0.000438379 0 0.000190359)
(-0.000448189 0 0.000123745)
(-0.000471273 0 6.16552e-06)
(-0.000471419 0 -8.97134e-05)
(-0.00046851 0 -0.000197372)
(-0.000494521 0 -0.000212837)
(-0.000504008 0 -0.000219899)
(-0.000471687 0 -0.000259674)
(-0.000414167 0 -0.000339322)
(-0.000263296 0 -0.000465025)
(-0.000259397 0 -0.000383421)
(-0.000184981 0 -0.000379913)
(-0.000139804 0 -0.000378029)
(1.44801e-05 0 -0.000407546)
(5.51349e-05 0 -0.000345291)
(0.000157699 0 -0.000317186)
(0.000197462 0 -0.00027664)
(0.000272428 0 -0.000189314)
(0.00026853 0 -0.000133461)
(0.000308249 0 -7.20867e-05)
(0.000321761 0 6.76968e-05)
(0.000313144 0 0.000135824)
(0.000259899 0 0.000213164)
(0.000207924 0 0.000211421)
(0.000124524 0 0.000176968)
(6.19458e-06 0 0.000185226)
(-1.70243e-05 0 0.000260053)
(-3.20332e-05 0 0.000327647)
(-4.55454e-05 0 0.000385313)
(-0.000115217 0 0.000400303)
(-0.000181434 0 0.000383646)
(-0.000255111 0 0.000350389)
(-0.000278906 0 0.000350389)
(-0.000296368 0 0.000335166)
(-0.00033586 0 0.000274679)
(-0.000352339 0 0.000236401)
(-0.000380606 0 0.000146313)
(-0.000389173 0 1.55608e-05)
(-0.000376741 0 2.31725e-05)
(-0.000370637 0 -2.32056e-05)
(-0.000352992 0 -0.000126122)
(-0.000358727 0 -0.000125)
(-0.000327969 0 -0.000194318)
(-0.000338538 0 -0.000199063)
(-0.00029607 0 -0.00026987)
(-0.000273853 0 -0.000297148)
(-0.000202418 0 -0.00035338)
(-0.000238331 0 -0.000316304)
(-0.000120264 0 -0.000357232)
(-0.000129952 0 -0.000304276)
(-6.41005e-05 0 -0.000273453)
(-2.82862e-05 0 -0.000213865)
(3.83612e-05 0 -0.000120595)
(8.64144e-05 0 -5.76059e-05)
(9.22155e-05 0 -6.12085e-05)
(0.000134872 0 -2.50231e-05)
(0.000149458 0 -3.62289e-05)
(0.000158165 0 -7.10398e-05)
(0.000233997 0 -5.69125e-05)
(0.000164941 0 -0.000190816)
(0.000165229 0 -0.000190978)
(0.000182371 0 -0.000173728)
(0.000180654 0 -0.000164969)
(0.000222535 0 -8.75169e-05)
(0.000218971 0 -4.35991e-06)
(0.000209339 0 9.4109e-05)
(0.000102525 0 0.00019791)
(0.000343417 0 0.000224803)
(-0.000250611 0 0.000268102)
(4.10118e-06 0 0.000397592)
(-9.19717e-13 0 4.69017e-13)
(-2.57435e-12 0 1.37756e-13)
(-1.75275e-12 0 2.64522e-14)
(-1.76938e-12 0 -8.32061e-14)
(-1.76423e-12 0 -2.00726e-13)
(-1.73078e-12 0 -3.22541e-13)
(-1.66823e-12 0 -4.43125e-13)
(-1.57825e-12 0 -5.57534e-13)
(-1.46357e-12 0 -6.61728e-13)
(-1.32752e-12 0 -7.52446e-13)
(-1.17382e-12 0 -8.27095e-13)
(-1.00652e-12 0 -8.83712e-13)
(-8.29952e-13 0 -9.21007e-13)
(-6.4856e-13 0 -9.38401e-13)
(-4.66791e-13 0 -9.36046e-13)
(-2.88899e-13 0 -9.14807e-13)
(-1.1878e-13 0 -8.76189e-13)
(4.01709e-14 0 -8.22215e-13)
(1.8516e-13 0 -7.5529e-13)
(3.14054e-13 0 -6.7804e-13)
(4.25386e-13 0 -5.93162e-13)
(5.18329e-13 0 -5.03289e-13)
(5.92629e-13 0 -4.1088e-13)
(6.48526e-13 0 -3.18143e-13)
(6.86663e-13 0 -2.26985e-13)
(7.07988e-13 0 -1.38991e-13)
(7.1367e-13 0 -5.54212e-14)
(7.05017e-13 0 2.27636e-14)
(6.83414e-13 0 9.48768e-14)
(6.50266e-13 0 1.60466e-13)
(6.06958e-13 0 2.19272e-13)
(5.54832e-13 0 2.71186e-13)
(4.95163e-13 0 3.16214e-13)
(4.29154e-13 0 3.54436e-13)
(3.57932e-13 0 3.85978e-13)
(2.82555e-13 0 4.10984e-13)
(2.04015e-13 0 4.29594e-13)
(1.23254e-13 0 4.41928e-13)
(4.1217e-14 0 4.48073e-13)
(-4.55979e-05 0 0.00011341)
(-0.00011396 0 0.000157614)
(-0.000108497 0 0.000216613)
(-0.000166856 0 0.000254099)
(-0.000215225 0 0.0003227)
(-0.000221243 0 0.000415785)
(-0.000337848 0 0.000415643)
(-0.000375954 0 0.000431888)
(-0.000404833 0 0.000420835)
(-0.000405404 0 0.000406434)
(-0.000433446 0 0.000287498)
(-0.000437575 0 0.000204631)
(-0.000447733 0 0.000160802)
(-0.000496037 0 3.64377e-05)
(-0.000520053 0 -0.000115042)
(-0.0005443 0 -0.000178877)
(-0.000556111 0 -0.000190606)
(-0.000509346 0 -0.000282025)
(-0.000460403 0 -0.000345071)
(-0.00042168 0 -0.000407269)
(-0.000320877 0 -0.000484111)
(-0.000280082 0 -0.000464232)
(-0.000218486 0 -0.000484153)
(-0.000116485 0 -0.000502672)
(-4.32687e-05 0 -0.000466404)
(-7.88692e-06 0 -0.000426194)
(0.000151497 0 -0.000399372)
(0.000243226 0 -0.000341415)
(0.000294634 0 -0.000224694)
(0.00027678 0 -0.000137344)
(0.000302813 0 -9.79253e-05)
(0.00031055 0 8.98688e-05)
(0.000286806 0 0.000182383)
(0.000252333 0 0.000260203)
(0.000200065 0 0.000276664)
(0.000145792 0 0.000246049)
(3.66646e-05 0 0.000234558)
(1.63882e-05 0 0.000294709)
(-5.27876e-05 0 0.000368429)
(-0.000101789 0 0.000412878)
(-0.000133461 0 0.000430907)
(-0.000147406 0 0.000431313)
(-0.000203426 0 0.000407284)
(-0.000228305 0 0.00039702)
(-0.000276801 0 0.00035152)
(-0.000307126 0 0.000262407)
(-0.000296834 0 0.000228215)
(-0.000303979 0 0.000193585)
(-0.000332858 0 0.000128149)
(-0.000341019 0 3.74103e-05)
(-0.000307096 0 -0.000104613)
(-0.000312204 0 -7.37179e-05)
(-0.00030457 0 -0.000158183)
(-0.000253307 0 -0.000246676)
(-0.000297267 0 -0.000206702)
(-0.000201719 0 -0.000321672)
(-0.000239225 0 -0.000310473)
(-0.000169794 0 -0.000371806)
(-0.00013382 0 -0.000393341)
(-9.92273e-05 0 -0.000383448)
(-5.11257e-05 0 -0.000366976)
(-4.04808e-05 0 -0.000316466)
(-2.07554e-05 0 -0.000266402)
(2.88301e-05 0 -0.000156231)
(9.68454e-05 0 -8.51386e-05)
(0.000113384 0 -8.1886e-05)
(0.000141303 0 -7.93856e-05)
(0.00018167 0 -6.66971e-05)
(0.000221011 0 -7.32173e-05)
(0.000224948 0 -0.000140266)
(0.000285582 0 -0.000150008)
(0.000289998 0 -0.000145062)
(0.000283277 0 -0.000138123)
(0.00024798 0 -0.000156079)
(0.00025553 0 -0.000110337)
(0.000246607 0 2.08518e-05)
(0.000233506 0 0.000116424)
(0.000128296 0 0.000217333)
(0.000429704 0 0.000218329)
(-0.000306487 0 0.00030632)
(3.99406e-06 0 0.000495153)
(-9.32931e-13 0 2.55332e-13)
(-2.69832e-12 0 1.33128e-13)
(-1.86416e-12 0 5.78487e-14)
(-1.89387e-12 0 -6.8275e-14)
(-1.89806e-12 0 -2.16657e-13)
(-1.86653e-12 0 -3.71657e-13)
(-1.79946e-12 0 -5.23728e-13)
(-1.69991e-12 0 -6.6659e-13)
(-1.57173e-12 0 -7.95692e-13)
(-1.41905e-12 0 -9.07429e-13)
(-1.24626e-12 0 -9.98861e-13)
(-1.05813e-12 0 -1.0677e-12)
(-8.59719e-13 0 -1.11239e-12)
(-6.56279e-13 0 -1.13228e-12)
(-4.53066e-13 0 -1.12763e-12)
(-2.55092e-13 0 -1.09962e-12)
(-6.69057e-14 0 -1.05025e-12)
(1.07596e-13 0 -9.82201e-13)
(2.65292e-13 0 -8.98605e-13)
(4.03897e-13 0 -8.02852e-13)
(5.21957e-13 0 -6.98377e-13)
(6.18793e-13 0 -5.88487e-13)
(6.94406e-13 0 -4.76222e-13)
(7.49358e-13 0 -3.64266e-13)
(7.8465e-13 0 -2.5489e-13)
(8.01598e-13 0 -1.49937e-13)
(8.0172e-13 0 -5.0835e-14)
(7.86648e-13 0 4.1371e-14)
(7.58045e-13 0 1.25971e-13)
(7.1755e-13 0 2.02538e-13)
(6.66735e-13 0 2.70872e-13)
(6.07081e-13 0 3.30943e-13)
(5.39964e-13 0 3.82846e-13)
(4.66647e-13 0 4.26755e-13)
(3.88288e-13 0 4.62884e-13)
(3.05947e-13 0 4.91457e-13)
(2.20599e-13 0 5.12681e-13)
(1.33154e-13 0 5.26728e-13)
(4.4508e-14 0 5.33721e-13)
(-7.26934e-06 0 0.00014504)
(1.3939e-06 0 0.000228912)
(-5.64045e-05 0 0.000286819)
(-0.000196261 0 0.000292938)
(-0.000228626 0 0.000377552)
(-0.00028215 0 0.000448322)
(-0.000321295 0 0.000485297)
(-0.000343904 0 0.000495044)
(-0.000382455 0 0.000464084)
(-0.000435616 0 0.0003751)
(-0.000431919 0 0.000304358)
(-0.000455764 0 0.000212818)
(-0.000446734 0 0.000194519)
(-0.000468009 0 0.000127551)
(-0.000561816 0 -8.97113e-05)
(-0.000586261 0 -0.000151853)
(-0.000574925 0 -0.000216501)
(-0.000525751 0 -0.000329148)
(-0.000494403 0 -0.00038654)
(-0.000481059 0 -0.000406389)
(-0.000399435 0 -0.000488553)
(-0.000381486 0 -0.0004865)
(-0.000260086 0 -0.000571244)
(-0.000132322 0 -0.000571072)
(-0.000126468 0 -0.000524635)
(4.95075e-05 0 -0.000553236)
(-2.48697e-05 0 -0.000493303)
(0.000220561 0 -0.000407027)
(0.000208886 0 -0.000294828)
(0.000208156 0 -0.000189314)
(0.000247429 0 -0.000102185)
(0.00026655 0 0.000108075)
(0.000246685 0 0.000210412)
(0.000218934 0 0.000286399)
(0.000191222 0 0.000326993)
(0.000175475 0 0.000301648)
(4.54323e-05 0 0.000285527)
(1.04356e-07 0 0.000324209)
(-5.14819e-05 0 0.000412721)
(-8.7217e-05 0 0.000459035)
(-9.81997e-05 0 0.00047679)
(-0.000119058 0 0.000472234)
(-0.000134055 0 0.000460385)
(-0.000218602 0 0.0004143)
(-0.000239081 0 0.000370459)
(-0.000268522 0 0.000273575)
(-0.000239182 0 0.000233153)
(-0.000234052 0 0.000174397)
(-0.000240388 0 0.000121499)
(-0.000258666 0 1.84947e-05)
(-0.000243037 0 -5.49678e-05)
(-0.000211174 0 -0.000183438)