/*--------------------------------*- C++ -*----------------------------------*\
  =========                 |
  \\      /  F ield         | OpenFOAM: The Open Source CFD Toolbox
   \\    /   O peration     | Website:  https://openfoam.org
    \\  /    A nd           | Version:  6
     \\/     M anipulation  |
\*---------------------------------------------------------------------------*/
FoamFile
{
    version     2.0;
    format      ascii;
    class       volScalarField;
    location    "2200";
    object      dmdt;
}
// * * * * * * * * * * * * * * * * * * * * * * * * * * * * * * * * * * * * * //

dimensions      [0 0 0 0 0 0 0];

internalField   nonuniform List<scalar> 
4800
(
-0.217709
-0.211955
-0.206261
-0.200719
-0.195422
-0.190431
-0.185803
-0.181572
-0.177731
-0.174256
-0.171115
-0.168274
-0.165702
-0.163373
-0.161257
-0.159324
-0.157545
-0.155896
-0.154352
-0.152894
-0.151505
-0.150178
-0.148907
-0.147678
-0.146463
-0.145257
-0.144071
-0.142897
-0.141726
-0.14056
-0.139398
-0.138244
-0.137103
-0.135978
-0.134871
-0.13378
-0.132699
-0.131623
-0.130543
-0.129445
-0.12832
-0.127162
-0.125969
-0.124739
-0.123472
-0.122169
-0.120829
-0.119452
-0.118037
-0.116584
-0.115093
-0.113564
-0.111997
-0.110389
-0.108739
-0.107041
-0.105289
-0.103478
-0.101601
-0.0996525
-0.0976276
-0.0955188
-0.0933166
-0.0910087
-0.0885793
-0.0860109
-0.0832817
-0.0803645
-0.0772285
-0.0738339
-0.0701385
-0.0661034
-0.061704
-0.056962
-0.0519632
-0.0468122
-0.0416149
-0.0365026
-0.0315484
-0.0267679
-0.0221733
-0.0178165
-0.0137069
-0.00981464
-0.00609242
-0.00249363
0.00101993
0.00447647
0.00789561
0.0112903
0.0146689
0.0180363
0.0213952
0.024747
0.0280922
0.0314305
0.0347616
0.0380847
0.0413993
0.0447045
0.0479997
0.0512844
0.0545583
0.0578209
0.0610722
0.064312
0.0675406
0.0707581
0.0739649
0.0771615
0.0803484
0.0835263
0.086696
0.0898582
0.0930138
0.0961637
0.099309
0.102451
0.10559
0.108727
-0.217688
-0.211901
-0.206183
-0.200626
-0.195334
-0.190389
-0.185816
-0.181619
-0.1778
-0.174341
-0.171214
-0.168382
-0.165816
-0.16349
-0.161375
-0.159442
-0.157664
-0.156014
-0.154471
-0.153013
-0.151622
-0.15029
-0.149007
-0.147755
-0.14652
-0.145301
-0.144094
-0.142894
-0.141701
-0.140512
-0.139327
-0.138148
-0.136979
-0.135825
-0.134689
-0.133576
-0.132476
-0.131383
-0.130291
-0.129184
-0.128054
-0.126892
-0.125694
-0.124459
-0.123187
-0.121879
-0.120534
-0.119151
-0.117731
-0.116274
-0.114778
-0.113244
-0.111672
-0.110061
-0.10841
-0.106714
-0.104965
-0.103158
-0.101286
-0.0993434
-0.097323
-0.0952178
-0.0930196
-0.0907164
-0.0882941
-0.0857342
-0.0830151
-0.080111
-0.0769942
-0.0736279
-0.0699778
-0.06602
-0.0617382
-0.0571449
-0.0522724
-0.0471744
-0.0419349
-0.0366765
-0.031537
-0.0266005
-0.0219151
-0.0175423
-0.0134627
-0.00961774
-0.00594219
-0.00238182
0.001103
0.00453918
0.00794438
0.0113297
0.014702
0.0180651
0.021421
0.0247706
0.0281141
0.0314511
0.034781
0.0381031
0.0414165
0.0447207
0.048015
0.0512988
0.0545717
0.0578333
0.0610837
0.0643226
0.0675503
0.070767
0.0739729
0.0771687
0.0803548
0.083532
0.0867009
0.0898624
0.0930173
0.0961666
0.0993113
0.102452
0.105591
0.108727
-0.217656
-0.211825
-0.2061
-0.200568
-0.195323
-0.190418
-0.185886
-0.181733
-0.17795
-0.17452
-0.171414
-0.1686
-0.166053
-0.163745
-0.161643
-0.159718
-0.157943
-0.156294
-0.154749
-0.153286
-0.151887
-0.150539
-0.149231
-0.147943
-0.146669
-0.145414
-0.144167
-0.142925
-0.141688
-0.140449
-0.139211
-0.137977
-0.136751
-0.135542
-0.134353
-0.133194
-0.132058
-0.130935
-0.12982
-0.128695
-0.127553
-0.126382
-0.125178
-0.123936
-0.122657
-0.12134
-0.119985
-0.118593
-0.117162
-0.115693
-0.114185
-0.112639
-0.111057
-0.109437
-0.10778
-0.106082
-0.104335
-0.102532
-0.100668
-0.0987343
-0.096723
-0.0946256
-0.092436
-0.0901441
-0.0877354
-0.0851936
-0.082497
-0.0796185
-0.0765344
-0.0732155
-0.0696343
-0.0657752
-0.0616194
-0.0571589
-0.0523955
-0.0473625
-0.0421288
-0.0367652
-0.0313883
-0.0261804
-0.0213244
-0.0169483
-0.0129575
-0.00922492
-0.00565019
-0.002168
0.00126065
0.00465818
0.00803738
0.0114054
0.0147661
0.0181213
0.0214717
0.0248173
0.0281577
0.0314921
0.0348197
0.0381396
0.041451
0.0447533
0.0480456
0.0513274
0.0545984
0.0578582
0.0611066
0.0643438
0.0675697
0.0707846
0.0739889
0.0771831
0.0803676
0.0835433
0.0867107
0.0898708
0.0930243
0.0961723
0.0993157
0.102455
0.105592
0.108728
-0.217649
-0.211818
-0.20613
-0.200645
-0.19544
-0.190575
-0.18608
-0.181961
-0.178211
-0.174816
-0.171744
-0.168964
-0.16645
-0.164171
-0.162089
-0.160174
-0.158402
-0.15675
-0.155197
-0.153719
-0.152297
-0.150919
-0.149572
-0.148233
-0.146906
-0.145597
-0.144294
-0.142992
-0.14169
-0.140383
-0.139073
-0.137762
-0.136453
-0.135159
-0.133888
-0.132658
-0.131467
-0.130301
-0.129155
-0.128006
-0.126843
-0.125657
-0.12444
-0.12319
-0.121902
-0.120575
-0.119211
-0.117807
-0.116364
-0.114881
-0.113358
-0.111796
-0.110197
-0.108563
-0.106893
-0.105185
-0.103434
-0.101632
-0.0997726
-0.0978466
-0.0958465
-0.0937623
-0.0915862
-0.0893117
-0.0869218
-0.0844021
-0.0817329
-0.0788873
-0.0758478
-0.072592
-0.0690842
-0.0653128
-0.0612581
-0.0569048
-0.0522394
-0.04727
-0.0420185
-0.0365209
-0.0308813
-0.0253356
-0.0202348
-0.0159439
-0.0121686
-0.00864871
-0.00523982
-0.00187477
0.00147495
0.00482045
0.00816563
0.0115114
0.0148572
0.0182024
0.0215457
0.024886
0.0282222
0.0315529
0.0348773
0.0381941
0.0415026
0.0448018
0.0480912
0.0513702
0.0546383
0.0578952
0.0611409
0.0643753
0.0675986
0.0708109
0.0740127
0.0772045
0.0803867
0.0835601
0.0867254
0.0898833
0.0930348
0.0961808
0.0993222
0.10246
0.105595
0.108729
-0.217627
-0.211776
-0.206126
-0.200728
-0.195607
-0.190813
-0.186384
-0.182321
-0.178621
-0.175275
-0.172247
-0.169507
-0.167028
-0.164778
-0.162715
-0.160809
-0.159038
-0.157376
-0.155806
-0.154297
-0.152835
-0.151411
-0.150005
-0.1486
-0.147206
-0.145825
-0.144446
-0.143066
-0.141683
-0.140297
-0.138902
-0.137498
-0.13609
-0.134691
-0.133319
-0.131995
-0.130726
-0.129504
-0.128316
-0.127137
-0.125948
-0.124738
-0.123503
-0.122239
-0.120938
-0.119599
-0.118223
-0.116807
-0.115351
-0.113853
-0.112315
-0.110736
-0.109118
-0.107465
-0.10578
-0.104061
-0.102301
-0.100495
-0.0986361
-0.0967159
-0.0947265
-0.0926577
-0.0904988
-0.0882434
-0.0858748
-0.0833809
-0.080743
-0.0779364
-0.0749438
-0.0717471
-0.0683116
-0.0646233
-0.0606574
-0.0563887
-0.0517956
-0.0468562
-0.0415594
-0.0359031
-0.0299326
-0.0238851
-0.0183164
-0.0143993
-0.0111002
-0.00793701
-0.00476071
-0.00154106
0.0017184
0.0050075
0.00831699
0.0116397
0.0149704
0.0183051
0.0216409
0.0249753
0.0283066
0.0316331
0.0349533
0.0382663
0.0415709
0.0448663
0.0481518
0.0514269
0.0546912
0.0579444
0.0611864
0.0644172
0.0676369
0.0708458
0.0740443
0.0772328
0.0804119
0.0835823
0.0867447
0.0898999
0.0930487
0.0961921
0.0993309
0.102466
0.105599
0.10873
-0.217691
-0.211928
-0.206311
-0.200947
-0.195887
-0.191165
-0.186811
-0.182823
-0.179191
-0.175904
-0.172925
-0.17023
-0.16779
-0.165568
-0.16352
-0.161617
-0.159839
-0.158161
-0.156565
-0.155011
-0.153494
-0.152004
-0.150521
-0.149035
-0.147556
-0.146087
-0.144619
-0.143149
-0.141671
-0.140183
-0.138684
-0.137175
-0.13566
-0.134151
-0.132664
-0.131228
-0.129859
-0.128559
-0.127317
-0.126102
-0.124881
-0.123645
-0.122389
-0.121106
-0.119788
-0.118433
-0.117042
-0.115611
-0.11414
-0.112628
-0.111075
-0.10948
-0.107846
-0.106177
-0.104477
-0.102745
-0.100975
-0.0991617
-0.0972999
-0.0953821
-0.0933998
-0.0913424
-0.089199
-0.0869615
-0.0846148
-0.0821485
-0.0795456
-0.0767807
-0.0738371
-0.0706993
-0.0673364
-0.0637255
-0.059838
-0.0556473
-0.051122
-0.0462145
-0.0408718
-0.0350267
-0.0286235
-0.0216928
-0.014724
-0.0122115
-0.00987204
-0.00721491
-0.00430093
-0.00122277
0.00195649
0.00519806
0.00847825
0.0117822
0.0151003
0.0184261
0.021755
0.0250839
0.0284101
0.0317318
0.0350474
0.0383557
0.0416556
0.0449463
0.0482271
0.0514974
0.054757
0.0580055
0.0612428
0.0644691
0.0676844
0.0708891
0.0740834
0.0772679
0.0804432
0.0836099
0.0867687
0.0899204
0.0930659
0.096206
0.0993416
0.102474
0.105603
0.108732
-0.217753
-0.212114
-0.206601
-0.201311
-0.196319
-0.191674
-0.187392
-0.183477
-0.179921
-0.176701
-0.173778
-0.171131
-0.168728
-0.16653
-0.164495
-0.162592
-0.160799
-0.159096
-0.157458
-0.155845
-0.154259
-0.152687
-0.151113
-0.149536
-0.14796
-0.146385
-0.144815
-0.143241
-0.141649
-0.140039
-0.138416
-0.136784
-0.135145
-0.133509
-0.131899
-0.130347
-0.128875
-0.127484
-0.126171
-0.124907
-0.123649
-0.122384
-0.121108
-0.119807
-0.118472
-0.1171
-0.115691
-0.114243
-0.112754
-0.111228
-0.109659
-0.108049
-0.106401
-0.104719
-0.103006
-0.10126
-0.0994789
-0.0976568
-0.0957889
-0.0938689
-0.0918892
-0.0898393
-0.0877088
-0.085489
-0.0831658
-0.0807289
-0.0781633
-0.0754453
-0.0725587
-0.0694837
-0.0661892
-0.0626516
-0.0588433
-0.0547332
-0.0502777
-0.0454241
-0.0401052
-0.0342107
-0.0274865
-0.0191855
-0.00382625
-0.00982093
-0.00893759
-0.00672671
-0.00398203
-0.000981887
0.00215592
0.00537327
0.00863828
0.0119321
0.0152428
0.0185627
0.0218865
0.0252105
0.0285319
0.0318486
0.0351592
0.0384621
0.0417566
0.0450417
0.0483168
0.0515814
0.0548353
0.0580781
0.06131
0.0645308
0.0677409
0.0709404
0.0741298
0.0773096
0.0804803
0.0836425
0.0867971
0.0899447
0.0930862
0.0962224
0.0993543
0.102483
0.105609
0.108733
-0.21781
-0.212286
-0.206891
-0.201715
-0.196831
-0.192288
-0.188103
-0.184278
-0.180803
-0.177654
-0.174793
-0.172197
-0.169832
-0.167657
-0.16563
-0.16372
-0.161906
-0.160168
-0.158477
-0.156796
-0.15513
-0.153468
-0.151794
-0.150114
-0.148425
-0.146727
-0.145026
-0.143307
-0.141568
-0.139809
-0.138043
-0.136275
-0.134505
-0.132744
-0.131008
-0.129339
-0.12776
-0.126275
-0.12488
-0.123557
-0.122255
-0.12096
-0.119665
-0.118348
-0.116998
-0.115612
-0.114188
-0.112723
-0.111216
-0.109671
-0.108086
-0.10646
-0.104797
-0.103102
-0.101375
-0.0996162
-0.0978223
-0.0959898
-0.0941143
-0.0921904
-0.0902115
-0.0881683
-0.0860507
-0.0838496
-0.0815524
-0.0791482
-0.0766229
-0.0739552
-0.0711276
-0.0681166
-0.0648951
-0.0614396
-0.0577214
-0.0537018
-0.0493415
-0.044593
-0.0394011
-0.0336934
-0.0273875
-0.0204609
-0.0134219
-0.0114631
-0.00930729
-0.00675011
-0.00389589
-0.000855536
0.00229888
0.00552349
0.00879145
0.0120858
0.0153957
0.0187135
0.0220344
0.0253546
0.0286715
0.0319832
0.0352882
0.0385852
0.0418734
0.045152
0.0484205
0.0516785
0.0549257
0.0581621
0.0613875
0.064602
0.067806
0.0709996
0.0741833
0.0773575
0.0805229
0.0836801
0.0868297
0.0899726
0.0931095
0.0962413
0.0993689
0.102493
0.105615
0.108735
-0.217861
-0.21245
-0.207184
-0.202143
-0.197397
-0.192987
-0.188922
-0.185207
-0.181827
-0.178759
-0.175965
-0.173418
-0.171087
-0.16893
-0.166906
-0.164981
-0.163136
-0.161354
-0.159603
-0.15785
-0.156097
-0.154334
-0.152548
-0.150745
-0.14892
-0.147072
-0.145202
-0.143302
-0.141382
-0.139455
-0.137532
-0.13562
-0.133718
-0.131833
-0.129979
-0.128196
-0.126513
-0.124937
-0.12346
-0.122064
-0.120711
-0.11938
-0.118062
-0.116729
-0.115367
-0.11397
-0.112534
-0.111054
-0.109532
-0.107969
-0.106366
-0.104723
-0.103044
-0.101334
-0.0995933
-0.0978211
-0.0960146
-0.0941712
-0.0922883
-0.0903609
-0.0883836
-0.0863482
-0.0842449
-0.0820641
-0.0797949
-0.0774258
-0.0749429
-0.0723265
-0.0695599
-0.066619
-0.063481
-0.0601131
-0.0564928
-0.0525825
-0.0483474
-0.0437597
-0.038793
-0.0334373
-0.0277491
-0.0219602
-0.01674
-0.0131358
-0.0100621
-0.00704998
-0.0039737
-0.000820542
0.00239419
0.00565241
0.00893943
0.0122444
0.0155594
0.0188789
0.0221988
0.0255162
0.028829
0.0321355
0.0354344
0.0387247
0.0420058
0.0452771
0.048538
0.0517884
0.0550281
0.0582569
0.0614749
0.0646823
0.0678793
0.0710662
0.0742434
0.0774114
0.0805709
0.0837223
0.0868664
0.0900039
0.0931357
0.0962625
0.0993852
0.102505
0.105622
0.108738
-0.217929
-0.212658
-0.207541
-0.202656
-0.198069
-0.193806
-0.189874
-0.186273
-0.182988
-0.179996
-0.177269
-0.174771
-0.172469
-0.170321
-0.168292
-0.166345
-0.164462
-0.162627
-0.160806
-0.158972
-0.157123
-0.15525
-0.153341
-0.151398
-0.14941
-0.147377
-0.145298
-0.143187
-0.141065
-0.138952
-0.136863
-0.134805
-0.132771
-0.130767
-0.128805
-0.126919
-0.125137
-0.123468
-0.121908
-0.120434
-0.119025
-0.117655
-0.116307
-0.114952
-0.113578
-0.112173
-0.110728
-0.109238
-0.107702
-0.106122
-0.104502
-0.102843
-0.101148
-0.099424
-0.0976687
-0.0958836
-0.0940663
-0.0922142
-0.090326
-0.0883976
-0.086424
-0.084398
-0.0823109
-0.0801527
-0.0779131
-0.0755808
-0.0731415
-0.0705785
-0.0678758
-0.0650105
-0.0619615
-0.0586944
-0.0551839
-0.0513999
-0.0473181
-0.0429271
-0.0382222
-0.033235
-0.0280714
-0.0229453
-0.0182464
-0.0142707
-0.0107379
-0.00739299
-0.00410619
-0.000824687
0.00246806
0.00577394
0.00908999
0.0124122
0.0157367
0.0190604
0.0223808
0.0256961
0.0290047
0.0323055
0.0355977
0.0388806
0.0421537
0.0454165
0.048669
0.0519107
0.0551418
0.0583622
0.061572
0.0647713
0.0679605
0.0711399
0.0743099
0.077471
0.0806238
0.0837688
0.0869068
0.0900385
0.0931646
0.0962859
0.0994033
0.102518
0.10563
0.10874
-0.218017
-0.212914
-0.20796
-0.203246
-0.198826
-0.19471
-0.190911
-0.187423
-0.184239
-0.181337
-0.178681
-0.17623
-0.17395
-0.171804
-0.169762
-0.167786
-0.165859
-0.163966
-0.162068
-0.160147
-0.158188
-0.156188
-0.154133
-0.15202
-0.149841
-0.147601
-0.1453
-0.142955
-0.140614
-0.138308
-0.136049
-0.133842
-0.131676
-0.129555
-0.127492
-0.125512
-0.12364
-0.121881
-0.12024
-0.118685
-0.117213
-0.115797
-0.114412
-0.113029
-0.111636
-0.110222
-0.10877
-0.107271
-0.105725
-0.104132
-0.102496
-0.100823
-0.0991158
-0.0973791
-0.0956116
-0.0938157
-0.0919908
-0.0901336
-0.0882435
-0.086317
-0.08435
-0.0823361
-0.0802673
-0.0781342
-0.0759263
-0.0736331
-0.0712406
-0.0687356
-0.0660996
-0.0633125
-0.0603503
-0.0571851
-0.0537934
-0.0501567
-0.0462509
-0.04207
-0.037626
-0.0329636
-0.0281839
-0.0234595
-0.0190078
-0.0149479
-0.011205
-0.00765582
-0.00421097
-0.000817913
0.00255029
0.00590597
0.0092541
0.0125961
0.0159319
0.0192609
0.0225822
0.0258952
0.0291992
0.0324936
0.0357782
0.0390526
0.0423166
0.0455701
0.0488129
0.052045
0.0552665
0.0584774
0.061678
0.0648685
0.0680491
0.0712202
0.0743823
0.0775358
0.0806813
0.0838194
0.0869507
0.0900759
0.0931959
0.0963112
0.0994228
0.102531
0.105638
0.108743
-0.218107
-0.213197
-0.208442
-0.203913
-0.199654
-0.195686
-0.192021
-0.188663
-0.185593
-0.182772
-0.18017
-0.177755
-0.175491
-0.173346
-0.171287
-0.169283
-0.167308
-0.16535
-0.163365
-0.161346
-0.159268
-0.157127
-0.154908
-0.152602
-0.150209
-0.147737
-0.145193
-0.142612
-0.140053
-0.137551
-0.135118
-0.132752
-0.130451
-0.128218
-0.12606
-0.123997
-0.122044
-0.120203
-0.118476
-0.116839
-0.115293
-0.11382
-0.112392
-0.110975
-0.109558
-0.108127
-0.106667
-0.105161
-0.103607
-0.102004
-0.100359
-0.0986751
-0.0969585
-0.0952121
-0.0934363
-0.0916337
-0.0898048
-0.0879467
-0.0860581
-0.0841366
-0.0821787
-0.0801791
-0.0781308
-0.0760251
-0.0738521
-0.071602
-0.0692607
-0.0668151
-0.0642469
-0.0615399
-0.0586712
-0.0556195
-0.0523594
-0.0488739
-0.0451452
-0.0411732
-0.0369753
-0.0325923
-0.028107
-0.0236531
-0.0193546
-0.0152891
-0.0114554
-0.0077915
-0.00424153
-0.000764554
0.00266586
0.00606541
0.0094431
0.0128038
0.0161503
0.0194839
0.0228054
0.0261151
0.0294134
0.0327004
0.0359761
0.0392408
0.0424945
0.0457373
0.0489693
0.0521907
0.0554015
0.0586021
0.0617926
0.0649733
0.0681445
0.0713066
0.0744601
0.0776053
0.080743
0.0838736
0.0869977
0.0901161
0.0932294
0.0963383
0.0994437
0.102546
0.105647
0.108746
-0.218218
-0.213523
-0.208971
-0.204626
-0.200532
-0.19672
-0.193203
-0.189968
-0.186989
-0.184242
-0.181697
-0.179319
-0.177072
-0.174926
-0.172847
-0.170812
-0.168784
-0.166754
-0.164682
-0.162556
-0.160353
-0.158062
-0.155668
-0.15316
-0.150538
-0.147818
-0.145021
-0.142203
-0.139424
-0.136721
-0.134109
-0.131584
-0.129142
-0.126791
-0.124539
-0.122393
-0.120355
-0.11843
-0.116623
-0.114915
-0.113299
-0.111758
-0.110277
-0.108818
-0.107367
-0.105912
-0.104437
-0.102923
-0.101362
-0.0997546
-0.0981039
-0.0964142
-0.0946923
-0.0929407
-0.0911615
-0.0893567
-0.087527
-0.0856711
-0.083787
-0.0818728
-0.0799262
-0.0779431
-0.075917
-0.0738407
-0.0717051
-0.0695005
-0.0672136
-0.06483
-0.0623336
-0.059708
-0.0569325
-0.0539892
-0.0508579
-0.0475253
-0.0439769
-0.0402087
-0.0362375
-0.0320982
-0.0278534
-0.0235984
-0.0194168
-0.015377
-0.0115123
-0.00779022
-0.00417705
-0.00064355
0.00283227
0.00626564
0.00966677
0.0130423
0.0163967
0.0197328
0.0230525
0.0263573
0.0296483
0.0329261
0.0361915
0.039445
0.042687
0.0459178
0.0491378
0.0523472
0.0555463
0.0587355
0.061915
0.065085
0.0682461
0.0713985
0.0745427
0.0776792
0.0808084
0.083931
0.0870475
0.0901585
0.0932648
0.096367
0.0994657
0.102562
0.105656
0.108749
-0.218336
-0.21387
-0.20953
-0.205375
-0.201453
-0.197796
-0.194408
-0.191283
-0.188405
-0.185741
-0.183253
-0.180907
-0.178675
-0.176526
-0.174426
-0.172354
-0.17027
-0.168166
-0.166003
-0.163768
-0.161437
-0.158992
-0.156417
-0.153701
-0.150849
-0.14788
-0.144837
-0.14179
-0.138796
-0.135893
-0.133097
-0.130401
-0.127804
-0.125318
-0.122957
-0.120722
-0.118602
-0.116595
-0.114701
-0.112917
-0.111233
-0.109628
-0.108087
-0.106583
-0.105093
-0.103608
-0.102111
-0.100585
-0.0990169
-0.0974051
-0.0957523
-0.0940615
-0.0923386
-0.0905855
-0.0888067
-0.0870034
-0.0851765
-0.0833253
-0.0814481
-0.0795433
-0.0776098
-0.0756443
-0.0736416
-0.0715958
-0.0694996
-0.0673428
-0.0651135
-0.0627956
-0.0603751
-0.0578341
-0.0551561
-0.0523271
-0.0493266
-0.0461402
-0.0427588
-0.0391782
-0.0354113
-0.0314862
-0.0274453
-0.0233559
-0.0192731
-0.0152681
-0.0114026
-0.00765734
-0.00401144
-0.000444627
0.00306011
0.00651593
0.00993264
0.0133174
0.0166755
0.0200106
0.0233258
0.0266232
0.0299046
0.0331713
0.0364244
0.039665
0.0428936
0.0461109
0.0493175
0.0525138
0.0557001
0.0588769
0.0620444
0.0652031
0.0683533
0.0714953
0.0746297
0.0777568
0.0808771
0.0839912
0.0870997
0.090203
0.0933019
0.0963969
0.0994888
0.102578
0.105666
0.108752
-0.21846
-0.214235
-0.210117
-0.20616
-0.202415
-0.198911
-0.195657
-0.19265
-0.189866
-0.187268
-0.184823
-0.182503
-0.180281
-0.178124
-0.176004
-0.173895
-0.171762
-0.169585
-0.167334
-0.164991
-0.162531
-0.159933
-0.157178
-0.15426
-0.151188
-0.147994
-0.144728
-0.141454
-0.138241
-0.135127
-0.132127
-0.129242
-0.126476
-0.12384
-0.121349
-0.119003
-0.116792
-0.114706
-0.112736
-0.110878
-0.109122
-0.107451
-0.105849
-0.104294
-0.102762
-0.101242
-0.0997205
-0.098177
-0.0965998
-0.0949848
-0.093332
-0.0916422
-0.0899199
-0.0881681
-0.0863928
-0.0845938
-0.0827728
-0.080929
-0.0790599
-0.0771664
-0.0752484
-0.0733023
-0.0713242
-0.0693086
-0.0672495
-0.0651394
-0.0629685
-0.0607188
-0.0583758
-0.0559213
-0.053339
-0.0506181
-0.0477408
-0.0446958
-0.0414736
-0.0380681
-0.0344893
-0.0307573
-0.0268987
-0.0229562
-0.0189644
-0.0149978
-0.0111489
-0.00740293
-0.00374605
-0.000164339
0.0033548
0.00682197
0.0102458
0.0136333
0.0169899
0.02032
0.023627
0.0269138
0.0301829
0.0334359
0.0366746
0.0399002
0.0431137
0.046316
0.0495078
0.0526897
0.055862
0.0590254
0.0621801
0.0653266
0.0684652
0.0715962
0.0747202
0.0778375
0.0809485
0.0840537
0.0871538
0.0902491
0.0933403
0.096428
0.0995127
0.102595
0.105676
0.108756
-0.218584
-0.214597
-0.210698
-0.206942
-0.203378
-0.200033
-0.196918
-0.194022
-0.191322
-0.188786
-0.186386
-0.184091
-0.181878
-0.179716
-0.177578
-0.175433
-0.173248
-0.171002
-0.16867
-0.166224
-0.163641
-0.1609
-0.15798
-0.154873
-0.151596
-0.148189
-0.144708
-0.141217
-0.137776
-0.13443
-0.13121
-0.128128
-0.125186
-0.122393
-0.119763
-0.117296
-0.114978
-0.112797
-0.110743
-0.108812
-0.106985
-0.10525
-0.10359
-0.101983
-0.100408
-0.098852
-0.0973024
-0.0957382
-0.094148
-0.0925259
-0.0908703
-0.089181
-0.0874605
-0.0857123
-0.0839425
-0.0821505
-0.0803384
-0.0785056
-0.0766477
-0.0747649
-0.0728592
-0.0709307
-0.0689772
-0.0669923
-0.0649693
-0.0629034
-0.0607868
-0.0586046
-0.0563394
-0.0539711
-0.0514824
-0.0488645
-0.0461042
-0.0431898
-0.0401131
-0.0368702
-0.0334634
-0.0299038
-0.0262063
-0.0223988
-0.0185041
-0.0145874
-0.0107684
-0.00703737
-0.00338538
0.000196906
0.00371827
0.00718676
0.0106096
0.013993
0.0173424
0.0206625
0.0239572
0.0272299
0.0304834
0.03372
0.0369417
0.0401502
0.0433466
0.0465322
0.0497077
0.0528738
0.0560311
0.0591801
0.0623211
0.0654547
0.068581
0.0717005
0.0748136
0.0779206
0.0810219
0.084118
0.0872094
0.0902964
0.0933797
0.0964598
0.0995372
0.102612
0.105686
0.108759
-0.2187
-0.214942
-0.211257
-0.207702
-0.204323
-0.201141
-0.198161
-0.195373
-0.192761
-0.190293
-0.18794
-0.185672
-0.183467
-0.181298
-0.179141
-0.176959
-0.174726
-0.172417
-0.170005
-0.167465
-0.164774
-0.161908
-0.158845
-0.155577
-0.152112
-0.148494
-0.144798
-0.141091
-0.137411
-0.133822
-0.130373
-0.127086
-0.123965
-0.121015
-0.11824
-0.11564
-0.113199
-0.110909
-0.108761
-0.106749
-0.10485
-0.103051
-0.101333
-0.0996743
-0.0980552
-0.0964625
-0.0948834
-0.0932963
-0.0916914
-0.0900613
-0.0884021
-0.0867123
-0.0849934
-0.0832489
-0.0814838
-0.0796982
-0.0778941
-0.0760717
-0.0742279
-0.0723622
-0.0704739
-0.0685635
-0.0666311
-0.0646733
-0.0626827
-0.0606544
-0.0585835
-0.056461
-0.0542697
-0.0519858
-0.0495918
-0.0470757
-0.0444266
-0.0416358
-0.0386968
-0.0356041
-0.0323542
-0.0289526
-0.0254068
-0.0217295
-0.0179256
-0.0140537
-0.0102729
-0.00656941
-0.00293473
0.000636845
0.00415043
0.00761144
0.0110255
0.0143981
0.0177344
0.0210394
0.0243172
0.0275716
0.030806
0.034023
0.037225
0.0404139
0.0435913
0.0467583
0.0499159
0.053065
0.0562061
0.0593398
0.0624664
0.0655863
0.0686998
0.0718073
0.0749091
0.0780055
0.0810968
0.0841835
0.087266
0.0903446
0.0934198
0.0964921
0.0995621
0.10263
0.105697
0.108763
-0.218814
-0.215279
-0.211807
-0.208449
-0.205247
-0.20222
-0.199374
-0.196696
-0.194172
-0.191771
-0.189462
-0.187217
-0.185022
-0.182851
-0.180678
-0.178464
-0.176185
-0.173815
-0.171331
-0.168708
-0.165923
-0.162949
-0.159763
-0.156356
-0.15273
-0.14893
-0.145029
-0.141093
-0.137174
-0.133333
-0.129647
-0.126151
-0.122846
-0.119727
-0.116794
-0.114051
-0.111483
-0.109077
-0.106824
-0.104718
-0.102737
-0.100867
-0.0990902
-0.0973812
-0.0957213
-0.0940941
-0.092486
-0.0908752
-0.0892536
-0.0876146
-0.0859518
-0.0842627
-0.0825473
-0.0808087
-0.0790505
-0.0772729
-0.0754777
-0.0736659
-0.0718356
-0.0699854
-0.0681145
-0.0662246
-0.0643132
-0.0623792
-0.0604172
-0.0584217
-0.0563881
-0.0543121
-0.0521827
-0.0499766
-0.0476718
-0.0452545
-0.0427159
-0.0400448
-0.0372355
-0.034283
-0.0311776
-0.0279163
-0.0245013
-0.0209388
-0.0172214
-0.0133897
-0.00966247
-0.00600327
-0.00239849
0.0011527
0.00465021
0.00809613
0.0114943
0.0148495
0.0181667
0.0214509
0.0247068
0.0279386
0.0311499
0.034344
0.0375233
0.0406902
0.0438462
0.0469929
0.0501312
0.0532619
0.0563858
0.0595032
0.0626146
0.0657203
0.0688206
0.0719157
0.0750059
0.0780914
0.0811725
0.0842496
0.087323
0.0903931
0.0934601
0.0965247
0.0995871
0.102648
0.105707
0.108766
-0.218923
-0.215602
-0.212338
-0.209175
-0.206147
-0.203271
-0.200551
-0.19798
-0.195542
-0.193206
-0.190933
-0.18871
-0.186532
-0.184364
-0.182177
-0.179934
-0.177611
-0.175188
-0.172641
-0.169947
-0.167081
-0.164015
-0.16073
-0.157212
-0.153462
-0.149512
-0.145417
-0.141253
-0.137083
-0.13298
-0.129043
-0.125322
-0.12182
-0.118522
-0.115418
-0.112517
-0.109808
-0.107278
-0.104916
-0.102713
-0.10065
-0.0987086
-0.0968712
-0.095114
-0.0934157
-0.0917579
-0.0901245
-0.088494
-0.0868579
-0.0852105
-0.0835447
-0.0818571
-0.0801465
-0.0784147
-0.0766646
-0.0748969
-0.0731122
-0.0713108
-0.0694927
-0.067657
-0.0658016
-0.06393
-0.0620382
-0.0601258
-0.0581899
-0.0562254
-0.0542284
-0.0521952
-0.0501156
-0.0479727
-0.0457499
-0.0434271
-0.0409952
-0.0384369
-0.0357433
-0.0329151
-0.0299443
-0.0268164
-0.0235199
-0.0200528
-0.0163853
-0.0125417
-0.00891397
-0.00533605
-0.00177938
0.00174192
0.00521634
0.0086406
0.0120163
0.0153476
0.0186394
0.0218971
0.0251258
0.0283301
0.0315142
0.0346816
0.0378352
0.0409773
0.0441099
0.0472344
0.0503518
0.053463
0.0565686
0.0596691
0.0627647
0.0658556
0.0689422
0.0720246
0.0751029
0.0781774
0.0812483
0.0843157
0.08738
0.0904414
0.0935004
0.0965571
0.099612
0.102665
0.105718
0.10877
-0.219025
-0.215908
-0.212843
-0.209867
-0.207007
-0.204278
-0.201682
-0.199212
-0.196853
-0.194573
-0.192344
-0.190158
-0.188001
-0.185835
-0.18363
-0.181355
-0.178992
-0.17652
-0.173915
-0.171155
-0.168219
-0.165084
-0.161722
-0.158117
-0.154264
-0.150182
-0.145915
-0.141545
-0.137142
-0.132794
-0.128591
-0.124619
-0.1209
-0.117419
-0.114145
-0.111079
-0.108219
-0.105556
-0.10308
-0.100774
-0.0986231
-0.0966034
-0.0946991
-0.0928917
-0.091154
-0.0894692
-0.0878151
-0.0861711
-0.0845263
-0.0828746
-0.0812091
-0.0795256
-0.0778223
-0.0760994
-0.0743582
-0.0726001
-0.0708254
-0.0690335
-0.0672249
-0.0654006
-0.0635574
-0.0617014
-0.0598275
-0.0579358
-0.0560244
-0.0540895
-0.0521285
-0.0501402
-0.0481114
-0.0460226
-0.0438659
-0.0416213
-0.0392819
-0.0368266
-0.0342437
-0.0315269
-0.0286691
-0.0256557
-0.0224631
-0.0190608
-0.0153595
-0.0113036
-0.0079715
-0.00456257
-0.00108082
0.00240184
0.0058478
0.00924476
0.0125918
0.0158925
0.0191523
0.0223772
0.0255729
0.0287447
0.0318971
0.035034
0.0381586
0.0412734
0.0443802
0.0474807
0.0505759
0.0536664
0.0567529
0.0598357
0.062915
0.0659909
0.0690635
0.072133
0.0751994
0.0782628
0.0813233
0.0843811
0.0874363
0.0904892
0.0935401
0.0965891
0.0996365
0.102683
0.105728
0.108773
-0.219123
-0.216201
-0.213326
-0.210528
-0.207829
-0.205241
-0.202764
-0.200391
-0.198106
-0.195878
-0.193698
-0.191542
-0.189401
-0.187229
-0.185002
-0.182697
-0.180295
-0.177778
-0.175127
-0.172312
-0.169322
-0.166132
-0.162706
-0.159025
-0.155086
-0.1509
-0.146501
-0.141973
-0.137382
-0.132803
-0.128336
-0.124087
-0.120125
-0.116449
-0.113011
-0.109783
-0.106769
-0.10396
-0.101353
-0.0989332
-0.0966864
-0.0945888
-0.092617
-0.0907539
-0.0889752
-0.0872611
-0.08559
-0.0839377
-0.0822911
-0.0806417
-0.0789816
-0.0773049
-0.0756102
-0.0738968
-0.072165
-0.0704166
-0.0686495
-0.0668631
-0.0650597
-0.0632423
-0.0614081
-0.0595644
-0.0577082
-0.0558392
-0.0539554
-0.0520524
-0.0501286
-0.0481827
-0.0462031
-0.0441686
-0.0420727
-0.0398957
-0.037636
-0.0352676
-0.0327806
-0.0301615
-0.0274048
-0.0244922
-0.0213858
-0.0180154
-0.0141489
-0.00875781
-0.00684881
-0.0037195
-0.000317997
0.00312812
0.00654412
0.00990919
0.0132211
0.0164842
0.0197049
0.0228902
0.0260466
0.0291803
0.0322963
0.0353987
0.038491
0.0415757
0.0446548
0.0477297
0.0508012
0.0538702
0.0569368
0.0600014
0.063064
0.0661246
0.0691832
0.0722397
0.0752942
0.0783466
0.0813968
0.0844451
0.0874914
0.0905359
0.0935788
0.0966203
0.0996605
0.1027
0.105738
0.108776
-0.219219
-0.216488
-0.213797
-0.211168
-0.20862
-0.206163
-0.203794
-0.201507
-0.199289
-0.197116
-0.194981
-0.192843
-0.190704
-0.188521
-0.186273
-0.183938
-0.181503
-0.178944
-0.176249
-0.173391
-0.170362
-0.167127
-0.163651
-0.159916
-0.155917
-0.151657
-0.147172
-0.142537
-0.137804
-0.133024
-0.128283
-0.123745
-0.119524
-0.115639
-0.112029
-0.10863
-0.105451
-0.102493
-0.099753
-0.0972211
-0.0948749
-0.0926936
-0.0906549
-0.0887333
-0.0869137
-0.0851711
-0.0834863
-0.0818315
-0.0801907
-0.0785503
-0.076901
-0.0752341
-0.0735493
-0.0718455
-0.0701204
-0.068378
-0.0666152
-0.0648304
-0.0630277
-0.0612122
-0.0593849
-0.0575531
-0.0557178
-0.0538778
-0.0520302
-0.050168
-0.0482871
-0.0463844
-0.0444503
-0.0424659
-0.0404251
-0.0383086
-0.0361185
-0.0338274
-0.0314264
-0.0288926
-0.0262179
-0.0233875
-0.0203725
-0.0171379
-0.0135895
-0.00966411
-0.00635698
-0.00297328
0.000476731
0.00391654
0.00730676
0.0106359
0.0139057
0.017123
0.0202963
0.0234342
0.0265446
0.0296342
0.0327088
0.0357727
0.0388294
0.0418815
0.0449307
0.0479785
0.0510254
0.0540719
0.0571182
0.0601643
0.0632101
0.0662553
0.0692999
0.0723436
0.0753863
0.0784278
0.0814681
0.084507
0.0875447
0.090581
0.0936163
0.0966504
0.0996836
0.102716
0.105748
0.10878
-0.219311
-0.21676
-0.214239
-0.211768
-0.209361
-0.207024
-0.204756
-0.202548
-0.200392
-0.198262
-0.196156
-0.194031
-0.191888
-0.18969
-0.187417
-0.185053
-0.182583
-0.179988
-0.177254
-0.174365
-0.17131
-0.168054
-0.164551
-0.160779
-0.156725
-0.152393
-0.147833
-0.14312
-0.138298
-0.133379
-0.128418
-0.123616
-0.119144
-0.115053
-0.111261
-0.107677
-0.104314
-0.101192
-0.0983077
-0.0956543
-0.0932067
-0.0909392
-0.0888302
-0.0868528
-0.0849902
-0.0832238
-0.0815278
-0.0798767
-0.0782485
-0.076624
-0.0749916
-0.0733391
-0.0716653
-0.0699728
-0.0682553
-0.0665162
-0.0647532
-0.0629644
-0.0611578
-0.0593426
-0.0575249
-0.055713
-0.0539111
-0.0521153
-0.0503193
-0.0485131
-0.0466843
-0.0448271
-0.042934
-0.0409898
-0.038993
-0.0369258
-0.0347925
-0.0325666
-0.030237
-0.0277743
-0.0251656
-0.0223981
-0.019453
-0.0163083
-0.0129303
-0.00928476
-0.00569396
-0.00215811
0.00134113
0.00477995
0.0081429
0.0114294
0.0146476
0.0178089
0.0209251
0.0240068
0.0270635
0.0301028
0.0331307
0.0361519
0.0391699
0.0421869
0.0452047
0.0482241
0.0512455
0.0542692
0.0572949
0.0603224
0.0633514
0.0663815
0.0694123
0.0724435
0.0754747
0.0785057
0.0815362
0.0845662
0.0875955
0.0906241
0.0936519
0.0966791
0.0997056
0.102732
0.105757
0.108783
-0.219395
-0.217009
-0.214645
-0.212316
-0.210035
-0.207804
-0.205626
-0.203494
-0.201393
-0.199299
-0.197211
-0.195086
-0.192929
-0.190713
-0.188417
-0.186025
-0.183525
-0.180899
-0.178135
-0.175229
-0.172158
-0.168874
-0.165337
-0.161525
-0.15742
-0.153031
-0.148425
-0.14368
-0.138822
-0.133817
-0.1287
-0.123664
-0.118934
-0.114606
-0.110629
-0.106872
-0.103329
-0.100039
-0.0970127
-0.0942372
-0.0916886
-0.0893359
-0.0871513
-0.0851117
-0.0831999
-0.0814077
-0.0797039
-0.0780641
-0.0764581
-0.0748588
-0.0732499
-0.0716184
-0.0699616
-0.0682852
-0.0665826
-0.0648503
-0.0630878
-0.0612946
-0.0594871
-0.0576814
-0.0558886
-0.0541174
-0.052373
-0.0506457
-0.0489232
-0.0471938
-0.0454263
-0.0436193
-0.0417662
-0.0398393
-0.0378661
-0.0358188
-0.0337289
-0.0315727
-0.0293135
-0.026908
-0.0243335
-0.021582
-0.0186504
-0.015534
-0.0122069
-0.00858956
-0.00484797
-0.00123079
0.00230074
0.00573496
0.00906384
0.0122964
0.0154498
0.018542
0.0215891
0.0246045
0.027599
0.0305811
0.0335571
0.0365317
0.039508
0.042488
0.0454729
0.0484631
0.0514587
0.0544593
0.0574645
0.0604737
0.0634862