/*--------------------------------*- C++ -*----------------------------------*\
  =========                 |
  \\      /  F ield         | OpenFOAM: The Open Source CFD Toolbox
   \\    /   O peration     | Website:  https://openfoam.org
    \\  /    A nd           | Version:  6
     \\/     M anipulation  |
\*---------------------------------------------------------------------------*/
FoamFile
{
    version     2.0;
    format      ascii;
    class       volVectorField;
    location    "2200";
    object      U;
}
// * * * * * * * * * * * * * * * * * * * * * * * * * * * * * * * * * * * * * //

dimensions      [0 1 -1 0 0 0 0];

internalField   nonuniform List<vector> 
4800
(
(7.88323e-06 0 -4.95661e-05)
(-1.60153e-05 0 -3.13599e-05)
(-3.527e-05 0 -0.000145747)
(-6.30459e-05 0 -0.000434574)
(-0.000334138 0 -0.000252862)
(-0.000553165 0 0.000149354)
(-0.000679635 0 -0.000226225)
(-0.000776077 0 8.30008e-05)
(-0.000835468 0 -7.41683e-05)
(-0.000877046 0 -8.79414e-05)
(-0.000926939 0 3.57096e-05)
(-0.000994381 0 -5.46204e-05)
(-0.00105418 0 5.99994e-05)
(-0.00107162 0 4.16696e-05)
(-0.00107404 0 3.99605e-05)
(-0.00108216 0 -7.02376e-06)
(-0.00109238 0 -2.00038e-05)
(-0.00103464 0 -3.01562e-05)
(-0.000975978 0 -2.02267e-05)
(-0.000963922 0 -2.10441e-05)
(-0.00100705 0 -7.01602e-05)
(-0.00101506 0 -0.000134684)
(-0.000743165 0 -0.000365234)
(-0.000494294 0 -0.000321282)
(-0.000434864 0 5.02139e-06)
(-0.000377382 0 3.81737e-05)
(-0.000223279 0 -0.000280426)
(-2.32593e-05 0 -4.21468e-05)
(0.000119824 0 -1.50614e-05)
(0.000232823 0 -5.55202e-05)
(0.000365532 0 -5.29319e-05)
(0.000483177 0 -0.000138395)
(0.000629857 0 -0.000137248)
(0.000797924 0 -0.000109028)
(0.000963562 0 -0.000169754)
(0.00117354 0 -0.000117517)
(0.00132623 0 -0.000155051)
(0.00146528 0 -0.00011299)
(0.00162709 0 -7.88589e-05)
(0.00175685 0 -5.86994e-05)
(0.00175974 0 -5.19118e-05)
(0.0017455 0 -4.67329e-05)
(0.00173868 0 -1.60055e-05)
(0.00173412 0 -2.23428e-05)
(0.00172583 0 -2.80135e-05)
(0.00171495 0 -3.35899e-05)
(0.00170106 0 -5.06316e-05)
(0.00168192 0 -6.45998e-05)
(0.00166175 0 -7.03013e-05)
(0.00164701 0 -5.97602e-05)
(0.00163276 0 -6.09966e-05)
(0.00161739 0 -5.70485e-05)
(0.00160226 0 -3.96269e-05)
(0.00158216 0 -5.94861e-05)
(0.00156315 0 -8.43803e-05)
(0.00154438 0 -6.35672e-05)
(0.00150922 0 -5.52262e-05)
(0.00145901 0 -5.92648e-05)
(0.00141029 0 -2.51741e-05)
(0.00136053 0 -2.40758e-05)
(0.00130818 0 -3.04608e-05)
(0.00126573 0 7.89843e-06)
(0.00123077 0 -2.13232e-05)
(0.00119453 0 -5.5725e-06)
(0.00115146 0 -1.28311e-06)
(0.00110707 0 4.04134e-05)
(0.00107472 0 3.94785e-05)
(0.00103807 0 6.04193e-05)
(0.000994293 0 2.4287e-05)
(0.000942414 0 3.86605e-05)
(0.000865689 0 7.53018e-05)
(0.000765408 0 3.202e-05)
(0.000638268 0 4.93334e-05)
(8.28706e-05 0 0.000123126)
(-0.000525255 0 -0.000422007)
(-0.000516762 0 -0.000446296)
(-0.000450176 0 -0.000286146)
(-0.000550419 0 -0.000290109)
(-0.000689575 0 -0.000299344)
(5.0315e-06 0 -0.000255638)
(-1.79001e-12 0 6.70921e-14)
(-4.06488e-12 0 -1.83197e-13)
(-2.41764e-12 0 -1.56696e-13)
(-2.14343e-12 0 -1.17187e-13)
(-1.93868e-12 0 -8.71087e-14)
(-1.78161e-12 0 -6.94683e-14)
(-1.64972e-12 0 -6.18952e-14)
(-1.52621e-12 0 -6.10159e-14)
(-1.40066e-12 0 -6.39827e-14)
(-1.2675e-12 0 -6.86676e-14)
(-1.12479e-12 0 -7.36258e-14)
(-9.7292e-13 0 -7.79362e-14)
(-8.13748e-13 0 -8.10491e-14)
(-6.49957e-13 0 -8.26713e-14)
(-4.84623e-13 0 -8.26866e-14)
(-3.20924e-13 0 -8.11019e-14)
(-1.61928e-13 0 -7.80104e-14)
(-1.04558e-14 0 -7.35653e-14)
(1.31016e-13 0 -6.79588e-14)
(2.60408e-13 0 -6.14048e-14)
(3.76063e-13 0 -5.41253e-14)
(4.76754e-13 0 -4.63398e-14)
(5.61666e-13 0 -3.82568e-14)
(6.30369e-13 0 -3.00662e-14)
(6.82775e-13 0 -2.19341e-14)
(7.19104e-13 0 -1.40007e-14)
(7.39844e-13 0 -6.38101e-15)
(7.457e-13 0 8.33675e-16)
(7.37554e-13 0 7.57286e-15)
(7.16417e-13 0 1.37849e-14)
(6.83387e-13 0 1.94353e-14)
(6.39619e-13 0 2.45039e-14)
(5.863e-13 0 2.89827e-14)
(5.24629e-13 0 3.28729e-14)
(4.55798e-13 0 3.61814e-14)
(3.80983e-13 0 3.89191e-14)
(3.01328e-13 0 4.10983e-14)
(2.17944e-13 0 4.27329e-14)
(1.31895e-13 0 4.38418e-14)
(4.41669e-14 0 4.44709e-14)
(1.70377e-05 0 -1.77433e-05)
(-5.51559e-05 0 0.000174681)
(-0.000162448 0 0.000219979)
(-0.000281129 0 0.000441877)
(-0.000614978 0 0.000207998)
(-0.000701861 0 0.000104333)
(-0.000691561 0 0.000311793)
(-0.000812536 0 4.23913e-05)
(-0.000847259 0 0.000184258)
(-0.000885223 0 0.000139452)
(-0.000919179 0 8.26632e-05)
(-0.000989343 0 0.000108976)
(-0.00106243 0 4.12739e-05)
(-0.00111706 0 1.56686e-05)
(-0.00117608 0 -4.07991e-05)
(-0.00122147 0 -1.50778e-05)
(-0.00123837 0 -2.03307e-05)
(-0.00123398 0 -4.39291e-05)
(-0.00116942 0 -5.75032e-05)
(-0.00113614 0 -5.2188e-05)
(-0.00112938 0 -9.8306e-06)
(-0.00109253 0 -4.52227e-05)
(-0.000926889 0 -0.000228543)
(-0.000678877 0 -0.000442208)
(-0.000678643 0 -4.52073e-05)
(-0.000558446 0 -0.000124429)
(-0.000242783 0 -0.000464653)
(-0.000301596 0 -0.000188924)
(-0.000134095 0 -0.000236027)
(9.41764e-05 0 -0.000258182)
(0.000254573 0 -0.000155249)
(0.000389023 0 -0.00012484)
(0.000506304 0 -0.000185544)
(0.00066962 0 -0.000198877)
(0.000776418 0 -0.000367621)
(0.00101288 0 -0.000143738)
(0.00113594 0 -0.000314312)
(0.00129395 0 -0.000260322)
(0.00143828 0 -0.000150344)
(0.00153544 0 -9.66746e-05)
(0.00157078 0 1.10253e-05)
(0.00156685 0 2.51584e-05)
(0.00155041 0 3.49837e-05)
(0.00152876 0 4.42372e-05)
(0.00150349 0 3.2822e-05)
(0.00147954 0 3.9302e-05)
(0.00146516 0 5.52321e-05)
(0.00145831 0 6.31995e-05)
(0.00145161 0 5.82415e-05)
(0.00144839 0 7.26267e-05)
(0.00144515 0 7.54175e-05)
(0.00143694 0 6.98184e-05)
(0.00142473 0 8.21713e-05)
(0.00142059 0 9.80797e-05)
(0.00142964 0 0.000106632)
(0.00143364 0 0.000105267)
(0.00141868 0 0.00010447)
(0.00138534 0 0.000105742)
(0.00134622 0 0.000112092)
(0.00130612 0 0.000112535)
(0.00126478 0 8.55456e-05)
(0.00122062 0 6.97023e-05)
(0.00118152 0 8.13143e-05)
(0.00114879 0 5.64697e-05)
(0.00110637 0 8.95106e-05)
(0.00106528 0 1.69264e-05)
(0.00103023 0 4.56113e-05)
(0.000986255 0 2.7323e-05)
(0.000949095 0 3.50638e-05)
(0.000914641 0 9.78816e-05)
(0.00087406 0 0.000105823)
(0.000769974 0 0.000249872)
(0.000735313 0 0.000380863)
(0.000547447 0 0.000406272)
(0.00050973 0 0.000440746)
(0.000491589 0 0.000500079)
(0.000284506 0 0.000347417)
(-0.000302804 0 -0.000276709)
(-0.000489731 0 -0.000340589)
(4.7708e-06 0 -0.000196805)
(-1.78498e-12 0 -2.9326e-13)
(-4.13931e-12 0 -6.59338e-13)
(-2.35275e-12 0 -4.8319e-13)
(-2.07454e-12 0 -3.42188e-13)
(-1.8913e-12 0 -2.48889e-13)
(-1.75643e-12 0 -1.9825e-13)
(-1.64119e-12 0 -1.78791e-13)
(-1.5283e-12 0 -1.79046e-13)
(-1.40831e-12 0 -1.90113e-13)
(-1.27715e-12 0 -2.05654e-13)
(-1.13406e-12 0 -2.21487e-13)
(-9.80343e-13 0 -2.34995e-13)
(-8.18483e-13 0 -2.44642e-13)
(-6.51594e-13 0 -2.49626e-13)
(-4.83054e-13 0 -2.49655e-13)
(-3.16248e-13 0 -2.44786e-13)
(-1.54392e-13 0 -2.35331e-13)
(-4.04207e-16 0 -2.21773e-13)
(1.43177e-13 0 -2.04711e-13)
(2.74241e-13 0 -1.84803e-13)
(3.91128e-13 0 -1.62732e-13)
(4.92622e-13 0 -1.39167e-13)
(5.7794e-13 0 -1.14738e-13)
(6.46691e-13 0 -9.00161e-14)
(6.9884e-13 0 -6.54961e-14)
(7.34657e-13 0 -4.15959e-14)
(7.54678e-13 0 -1.86577e-14)
(7.59654e-13 0 3.04639e-15)
(7.50505e-13 0 2.3308e-14)
(7.28279e-13 0 4.1977e-14)
(6.94106e-13 0 5.89543e-14)
(6.49166e-13 0 7.41845e-14)
(5.94669e-13 0 8.76461e-14)
(5.31828e-13 0 9.93423e-14)
(4.61845e-13 0 1.09293e-13)
(3.859e-13 0 1.17526e-13)
(3.05142e-13 0 1.24074e-13)
(2.20688e-13 0 1.28972e-13)
(1.33633e-13 0 1.32254e-13)
(4.4796e-14 0 1.33967e-13)
(-0.000118404 0 7.78242e-05)
(-0.000281675 0 0.000160499)
(-0.000267512 0 0.000367773)
(-0.00060238 0 0.000239054)
(-0.000581697 0 0.00039973)
(-0.00071287 0 0.000268746)
(-0.000790501 0 0.000138789)
(-0.000833855 0 0.00019118)
(-0.000882267 0 0.000144761)
(-0.000917045 0 0.000115814)
(-0.000994057 0 9.45924e-05)
(-0.00107569 0 0.000228834)
(-0.0011628 0 0.000189358)
(-0.00122485 0 0.000156453)
(-0.00126506 0 0.000103511)
(-0.00128568 0 4.25738e-05)
(-0.00129878 0 -3.62362e-05)
(-0.00131387 0 -2.77465e-05)
(-0.00125814 0 -0.000108976)
(-0.00111905 0 -0.000113199)
(-0.00105288 0 2.61378e-06)
(-0.0010028 0 -0.000178617)
(-0.000875748 0 -0.0004178)
(-0.000654484 0 -0.000508326)
(-0.000703926 0 -0.000129843)
(-0.000481089 0 -0.00035781)
(-0.000429839 0 -0.000310447)
(-0.000219453 0 -0.000408837)
(-0.000110606 0 -0.000386886)
(5.51127e-05 0 -0.000359169)
(0.000151806 0 -0.000352453)
(0.000239461 0 -0.000390606)
(0.000284736 0 -0.000500135)
(0.000582641 0 -0.000364707)
(0.000663933 0 -0.000447973)
(0.000846226 0 -0.000453784)
(0.00106178 0 -0.000352536)
(0.00119619 0 -0.000415455)
(0.00130233 0 -0.000169098)
(0.00132296 0 -0.000182812)
(0.00137532 0 -8.76475e-05)
(0.00139851 0 1.8607e-05)
(0.00139487 0 3.42273e-05)
(0.00138521 0 4.97278e-05)
(0.00136718 0 5.3255e-05)
(0.00134211 0 3.55394e-05)
(0.00131271 0 2.79767e-05)
(0.00128621 0 3.46297e-05)
(0.00126498 0 1.14591e-05)
(0.0012465 0 -8.9529e-06)
(0.0012297 0 -1.02448e-05)
(0.00121317 0 -2.61042e-05)
(0.00121088 0 -3.31117e-05)
(0.00121383 0 -6.85352e-05)
(0.00123025 0 -8.66501e-05)
(0.0012419 0 1.64313e-05)
(0.00124136 0 3.64681e-05)
(0.00123918 0 5.69827e-05)
(0.00122974 0 8.87545e-05)
(0.00121246 0 7.91465e-05)
(0.00118377 0 0.000111224)
(0.00114319 0 7.4436e-05)
(0.00108746 0 9.26595e-05)
(0.00105666 0 8.71522e-05)
(0.0010334 0 0.000107214)
(0.00101841 0 9.07147e-05)
(0.000996966 0 0.000135247)
(0.000961762 0 8.11933e-05)
(0.000924846 0 7.20934e-05)
(0.000885912 0 0.000179771)
(0.000867511 0 0.000149086)
(0.000792818 0 0.000317333)
(0.000812138 0 0.000365684)
(0.000787709 0 0.00049033)
(0.000742812 0 0.000464749)
(0.000657018 0 0.000451561)
(0.000411045 0 0.000417319)
(0.000475916 0 0.000252095)
(-0.000197849 0 -0.000186129)
(5.41029e-06 0 -0.000147196)
(-1.71755e-12 0 -5.72159e-13)
(-3.75969e-12 0 -1.13949e-12)
(-2.10146e-12 0 -7.74553e-13)
(-1.90967e-12 0 -5.19551e-13)
(-1.79491e-12 0 -3.68083e-13)
(-1.7114e-12 0 -2.95836e-13)
(-1.63039e-12 0 -2.75815e-13)
(-1.53753e-12 0 -2.86178e-13)
(-1.42727e-12 0 -3.1168e-13)
(-1.29888e-12 0 -3.4225e-13)
(-1.15413e-12 0 -3.71562e-13)
(-9.96075e-13 0 -3.95787e-13)
(-8.28379e-13 0 -4.12748e-13)
(-6.5497e-13 0 -4.21372e-13)
(-4.79783e-13 0 -4.21342e-13)
(-3.066e-13 0 -4.12879e-13)
(-1.38915e-13 0 -3.96585e-13)
(2.01642e-14 0 -3.73337e-13)
(1.67986e-13 0 -3.44183e-13)
(3.02387e-13 0 -3.10268e-13)
(4.21699e-13 0 -2.72763e-13)
(5.24747e-13 0 -2.32811e-13)
(6.10817e-13 0 -1.91482e-13)
(6.79611e-13 0 -1.49738e-13)
(7.31195e-13 0 -1.08411e-13)
(7.65943e-13 0 -6.81992e-14)
(7.84486e-13 0 -2.96699e-14)
(7.87666e-13 0 6.73018e-15)
(7.76485e-13 0 4.06644e-14)
(7.52063e-13 0 7.18944e-14)
(7.15594e-13 0 1.00267e-13)
(6.68311e-13 0 1.25701e-13)
(6.11458e-13 0 1.48167e-13)
(5.46276e-13 0 1.67675e-13)
(4.73982e-13 0 1.84262e-13)
(3.95765e-13 0 1.97976e-13)
(3.12774e-13 0 2.0887e-13)
(2.26124e-13 0 2.16995e-13)
(1.3689e-13 0 2.22393e-13)
(4.58795e-14 0 2.25078e-13)
(-4.82497e-05 0 0.000193861)
(-0.000232207 0 0.000403077)
(-0.000109783 0 0.00063247)
(-0.000322052 0 0.000602888)
(-0.000606808 0 0.000414807)
(-0.000638959 0 0.0004081)
(-0.000769369 0 0.000304365)
(-0.000887587 0 0.000239157)
(-0.000954108 0 0.000214934)
(-0.00101593 0 0.000155277)
(-0.00108564 0 0.000238246)
(-0.00115983 0 0.000201571)
(-0.00119358 0 0.000182006)
(-0.00121162 0 0.000127551)
(-0.00122416 0 8.32283e-05)
(-0.0012439 0 3.57996e-05)
(-0.0012611 0 -3.62491e-05)
(-0.00127577 0 -7.47067e-05)
(-0.00121774 0 -0.000166081)
(-0.00104326 0 -0.000250224)
(-0.000956833 0 -0.000233215)
(-0.000910288 0 -0.000290998)
(-0.000746239 0 -0.000602481)
(-0.000569862 0 -0.000566461)
(-0.000619758 0 -0.000303824)
(-0.000379217 0 -0.000506488)
(-0.000268093 0 -0.000549588)
(-7.4549e-05 0 -0.000569721)
(9.35182e-05 0 -0.000512872)
(0.000127658 0 -0.000426086)
(0.000245786 0 -0.000428965)
(0.000327804 0 -0.000439402)
(0.000347491 0 -0.000499162)
(0.00056365 0 -0.000437564)
(0.000453734 0 -0.000713426)
(0.000722461 0 -0.00068377)
(0.000993453 0 -0.000456733)
(0.00106022 0 -0.000507328)
(0.00116984 0 -0.000321944)
(0.00119099 0 -0.000222152)
(0.0012052 0 -7.19804e-05)
(0.00120883 0 -1.4307e-05)
(0.0012318 0 2.72432e-05)
(0.00124722 0 6.01749e-05)
(0.00124115 0 5.95736e-05)
(0.00123011 0 5.45657e-05)
(0.00121624 0 5.32645e-05)
(0.00119705 0 5.18874e-05)
(0.00117286 0 6.05182e-05)
(0.00114579 0 6.64796e-05)
(0.00112026 0 6.08157e-05)
(0.00109227 0 7.09342e-05)
(0.00107198 0 7.31623e-05)
(0.00107271 0 6.80997e-05)
(0.00106829 0 6.02643e-05)
(0.00105931 0 5.35437e-05)
(0.0010625 0 6.82586e-05)
(0.00106103 0 9.5037e-05)
(0.00105846 0 0.000110118)
(0.00105222 0 0.000117871)
(0.00103559 0 0.000138801)
(0.00100608 0 0.000154513)
(0.000983633 0 7.85738e-05)
(0.000964099 0 0.000148783)
(0.000956736 0 8.19919e-05)
(0.000944007 0 7.40339e-05)
(0.00092903 0 0.0001232)
(0.000909755 0 7.05601e-05)
(0.000887742 0 8.11939e-05)
(0.000856565 0 0.000223124)
(0.000855055 0 0.000182593)
(0.000789451 0 0.000327467)
(0.000784696 0 0.000386489)
(0.000785795 0 0.000476976)
(0.000769807 0 0.00049298)
(0.000770196 0 0.000431955)
(0.000651864 0 0.000400024)
(0.000603796 0 0.000287405)
(1.96866e-05 0 -0.000178264)
(5.55581e-06 0 0.000142379)
(-1.67716e-12 0 -4.60396e-13)
(-3.35849e-12 0 -1.52038e-12)
(-1.73246e-12 0 -9.56119e-13)
(-1.6677e-12 0 -5.9353e-13)
(-1.66721e-12 0 -4.0823e-13)
(-1.66386e-12 0 -3.41294e-13)
(-1.63143e-12 0 -3.42472e-13)
(-1.56416e-12 0 -3.78246e-13)
(-1.46438e-12 0 -4.2817e-13)
(-1.33703e-12 0 -4.80004e-13)
(-1.18759e-12 0 -5.26527e-13)
(-1.02153e-12 0 -5.63565e-13)
(-8.44068e-13 0 -5.88854e-13)
(-6.60188e-13 0 -6.01401e-13)
(-4.74561e-13 0 -6.01096e-13)
(-2.91491e-13 0 -5.88475e-13)
(-1.1485e-13 0 -5.64543e-13)
(5.19985e-14 0 -5.30649e-13)
(2.06246e-13 0 -4.88362e-13)
(3.45661e-13 0 -4.39366e-13)
(4.68584e-13 0 -3.85363e-13)
(5.73903e-13 0 -3.28006e-13)
(6.61013e-13 0 -2.68832e-13)
(7.29763e-13 0 -2.0922e-13)
(7.80379e-13 0 -1.50358e-13)
(8.13399e-13 0 -9.3233e-14)
(8.29608e-13 0 -3.86363e-14)
(8.29988e-13 0 1.28198e-14)
(8.1567e-13 0 6.06839e-14)
(7.87882e-13 0 1.04644e-13)
(7.47912e-13 0 1.44508e-13)
(6.97066e-13 0 1.8018e-13)
(6.36644e-13 0 2.11637e-13)
(5.67923e-13 0 2.3891e-13)
(4.92145e-13 0 2.62064e-13)
(4.10507e-13 0 2.8118e-13)
(3.24161e-13 0 2.96344e-13)
(2.34211e-13 0 3.07635e-13)
(1.41716e-13 0 3.15118e-13)
(4.74811e-14 0 3.18833e-13)
(-0.000192386 0 0.000363276)
(-0.000663767 0 0.000294346)
(-0.000509836 0 0.000534809)
(-0.000470023 0 0.000621849)
(-0.000627477 0 0.000492751)
(-0.000631581 0 0.000470345)
(-0.00077013 0 0.000357801)
(-0.000874811 0 0.000380524)
(-0.000942788 0 0.000350442)
(-0.0010001 0 0.000257134)
(-0.00109139 0 0.000245879)
(-0.00114364 0 0.000307741)
(-0.00117196 0 0.000257386)
(-0.00118258 0 0.000132168)
(-0.00117218 0 9.49376e-05)
(-0.00117439 0 6.91665e-05)
(-0.00118677 0 -5.62634e-05)
(-0.0012022 0 -0.000100187)
(-0.00114071 0 -0.000281105)
(-0.00100209 0 -0.000335103)
(-0.000936403 0 -0.000259199)
(-0.000872094 0 -0.000344431)
(-0.000716076 0 -0.000607274)
(-0.000567591 0 -0.000586221)
(-0.000527089 0 -0.000527764)
(-0.00035718 0 -0.000638824)
(-0.00022696 0 -0.000644471)
(-0.000108491 0 -0.000619419)
(2.21526e-06 0 -0.000619935)
(0.000236552 0 -0.000577346)
(0.000351615 0 -0.000502236)
(0.000395314 0 -0.000476771)
(0.000487217 0 -0.000448079)
(0.00035448 0 -0.000623819)
(0.000357891 0 -0.000800131)
(0.000711042 0 -0.000726103)
(0.00082086 0 -0.000748867)
(0.000957504 0 -0.000551251)
(0.00106303 0 -0.000356803)
(0.00109013 0 -0.000225095)
(0.00106338 0 -0.000103299)
(0.00105513 0 -3.54632e-05)
(0.00106545 0 2.023e-06)
(0.00107795 0 5.55654e-05)
(0.00107646 0 6.33438e-05)
(0.00107749 0 6.64288e-05)
(0.0010797 0 7.28032e-05)
(0.00107374 0 7.95354e-05)
(0.00105569 0 8.06122e-05)
(0.00102632 0 8.2434e-05)
(0.00099378 0 0.000102827)
(0.000962971 0 7.53338e-05)
(0.000929588 0 5.88336e-06)
(0.000905703 0 -2.10375e-05)
(0.000891721 0 -3.87024e-06)
(0.000881444 0 3.41828e-05)
(0.000871795 0 7.34257e-05)
(0.000866904 0 9.21302e-05)
(0.000869719 0 0.000111894)
(0.000874471 0 0.000132992)
(0.000872534 0 0.000157117)
(0.000878351 0 0.000154988)
(0.000887237 0 0.000134257)
(0.000887751 0 0.000132214)
(0.000886461 0 0.000115516)
(0.000877553 0 0.000121951)
(0.000861489 0 0.00015629)
(0.000843539 0 0.000156616)
(0.000829012 0 0.000119832)
(0.000786072 0 0.000278669)
(0.000769779 0 0.000300837)
(0.000749569 0 0.000356052)
(0.000758746 0 0.000370412)
(0.000761935 0 0.000430642)
(0.000713968 0 0.00053091)
(0.0007152 0 0.000511125)
(0.000587686 0 0.000581418)
(0.000648822 0 0.000347082)
(0.000181355 0 0.000220089)
(6.79936e-06 0 0.000384725)
(-2.02203e-12 0 1.73923e-12)
(-2.49577e-12 0 -1.72904e-12)
(-1.1743e-12 0 -9.3609e-13)
(-1.36144e-12 0 -4.90309e-13)
(-1.54232e-12 0 -3.30119e-13)
(-1.64536e-12 0 -3.18652e-13)
(-1.66724e-12 0 -3.74496e-13)
(-1.62323e-12 0 -4.56168e-13)
(-1.52903e-12 0 -5.4269e-13)
(-1.39723e-12 0 -6.2293e-13)
(-1.23769e-12 0 -6.9076e-13)
(-1.0584e-12 0 -7.42799e-13)
(-8.66215e-13 0 -7.77354e-13)
(-6.67212e-13 0 -7.93898e-13)
(-4.66857e-13 0 -7.92779e-13)
(-2.70047e-13 0 -7.75021e-13)
(-8.10902e-14 0 -7.42167e-13)
(9.63449e-14 0 -6.96145e-13)
(2.5927e-13 0 -6.39139e-13)
(4.05386e-13 0 -5.73448e-13)
(5.33059e-13 0 -5.01378e-13)
(6.41278e-13 0 -4.2514e-13)
(7.29602e-13 0 -3.46779e-13)
(7.98085e-13 0 -2.68116e-13)
(8.47182e-13 0 -1.90711e-13)
(8.77665e-13 0 -1.15846e-13)
(8.90539e-13 0 -4.45313e-14)
(8.86986e-13 0 2.24662e-14)
(8.68309e-13 0 8.45981e-14)
(8.35888e-13 0 1.415e-13)
(7.9113e-13 0 1.92962e-13)
(7.35439e-13 0 2.38897e-13)
(6.70189e-13 0 2.7931e-13)
(5.96703e-13 0 3.14272e-13)
(5.16252e-13 0 3.43895e-13)
(4.30044e-13 0 3.68309e-13)
(3.39229e-13 0 3.87644e-13)
(2.44897e-13 0 4.02021e-13)
(1.48087e-13 0 4.11537e-13)
(4.95944e-14 0 4.16259e-13)
(-3.80172e-05 0 0.000644414)
(-9.82094e-05 0 0.000723177)
(-0.000505692 0 0.000646788)
(-0.000590538 0 0.000655182)
(-0.00063714 0 0.000624529)
(-0.000721155 0 0.000520407)
(-0.000840771 0 0.000374972)
(-0.000854212 0 0.000481026)
(-0.000902363 0 0.000452163)
(-0.00101685 0 0.000228338)
(-0.00106402 0 0.000309623)
(-0.00109906 0 0.000323451)
(-0.00111738 0 0.000266102)
(-0.00111493 0 0.00013879)
(-0.00110346 0 0.000124767)
(-0.00110463 0 8.0264e-05)
(-0.00112048 0 -4.67526e-05)
(-0.00112376 0 -0.000101842)
(-0.00103407 0 -0.000384018)
(-0.000965858 0 -0.000396673)
(-0.000864671 0 -0.000508319)
(-0.000775428 0 -0.000622129)
(-0.000721811 0 -0.000681122)
(-0.000611349 0 -0.000692383)
(-0.000524295 0 -0.000710475)
(-0.000436607 0 -0.000736852)
(-0.000212071 0 -0.000776638)
(-0.000142994 0 -0.000757095)
(8.27528e-05 0 -0.000779293)
(0.000208434 0 -0.000734589)
(0.00035997 0 -0.000631521)
(0.000442602 0 -0.000554347)
(0.000481414 0 -0.000555279)
(0.000515477 0 -0.000669597)
(0.000717871 0 -0.00075028)
(0.000655623 0 -0.000925879)
(0.000721871 0 -0.000871001)
(0.000802167 0 -0.000757148)
(0.000944127 0 -0.00046241)
(0.00100058 0 -0.000173956)
(0.000966376 0 -5.90029e-05)
(0.000953002 0 2.19077e-06)
(0.00094885 0 -7.11113e-06)
(0.00093963 0 5.16312e-05)
(0.000931279 0 5.45859e-05)
(0.0009213 0 4.92164e-05)
(0.000914441 0 8.98799e-05)
(0.000910425 0 8.90924e-05)
(0.000897906 0 0.000102876)
(0.000883809 0 9.42727e-05)
(0.000859275 0 0.000105406)
(0.000826965 0 0.000108885)
(0.000806769 0 8.62826e-05)
(0.000790897 0 6.47752e-05)
(0.000769046 0 5.12279e-05)
(0.000751299 0 5.02866e-05)
(0.000743544 0 6.22667e-05)
(0.000743091 0 7.10343e-05)
(0.000746968 0 9.08333e-05)
(0.000756675 0 0.000109416)
(0.000773269 0 0.000116373)
(0.00079263 0 0.00012587)
(0.000803152 0 0.000111362)
(0.000801777 0 0.000129004)
(0.000800608 0 0.000103775)
(0.000787347 0 0.0001255)
(0.000770298 0 0.000171924)
(0.000761353 0 0.000163807)
(0.000729103 0 0.000182495)
(0.000684674 0 0.000290339)
(0.000691947 0 0.000290285)
(0.000719349 0 0.000290718)
(0.00066364 0 0.000429031)
(0.000662699 0 0.000466664)
(0.000685913 0 0.000484215)
(0.000677968 0 0.000522109)
(0.000616405 0 0.000542443)
(0.000521918 0 0.000554849)
(-0.000242087 0 0.000359732)
(6.85689e-06 0 0.000807922)
(-2.5622e-12 0 5.75904e-12)
(-2.81036e-12 0 -2.93303e-12)
(-4.93466e-13 0 -5.6893e-13)
(-1.06141e-12 0 -1.0159e-13)
(-1.49521e-12 0 -1.03391e-13)
(-1.70798e-12 0 -2.28708e-13)
(-1.76886e-12 0 -3.80692e-13)
(-1.73236e-12 0 -5.29293e-13)
(-1.63114e-12 0 -6.635e-13)
(-1.4851e-12 0 -7.78224e-13)
(-1.30746e-12 0 -8.70683e-13)
(-1.10812e-12 0 -9.39347e-13)
(-8.95167e-13 0 -9.83627e-13)
(-6.75614e-13 0 -1.00377e-12)
(-4.55684e-13 0 -1.00078e-12)
(-2.40879e-13 0 -9.76329e-13)
(-3.59741e-14 0 -9.3265e-13)
(1.55027e-13 0 -8.7238e-13)
(3.28943e-13 0 -7.98431e-13)
(4.83422e-13 0 -7.13827e-13)
(6.16893e-13 0 -6.21561e-13)
(7.28502e-13 0 -5.24472e-13)
(8.18036e-13 0 -4.25157e-13)
(8.8583e-13 0 -3.25909e-13)
(9.3265e-13 0 -2.28671e-13)
(9.59579e-13 0 -1.35021e-13)
(9.6792e-13 0 -4.6183e-14)
(9.59117e-13 0 3.69431e-14)
(9.34704e-13 0 1.13736e-13)
(8.96246e-13 0 1.83808e-13)
(8.45309e-13 0 2.46965e-13)
(7.83413e-13 0 3.03156e-13)
(7.12019e-13 0 3.52447e-13)
(6.32509e-13 0 3.94974e-13)
(5.46182e-13 0 4.30919e-13)
(4.54256e-13 0 4.60479e-13)
(3.57874e-13 0 4.83849e-13)
(2.58104e-13 0 5.012e-13)
(1.55954e-13 0 5.12671e-13)
(5.2203e-14 0 5.1836e-13)
(-0.000194504 0 0.000780713)
(1.3444e-05 0 0.000805803)
(-0.000273893 0 0.000816861)
(-0.000426694 0 0.000814188)
(-0.0005441 0 0.000770844)
(-0.000608628 0 0.000723276)
(-0.000804975 0 0.000562697)
(-0.000833252 0 0.000555797)
(-0.000854616 0 0.000538723)
(-0.000980242 0 0.00033059)
(-0.000998717 0 0.000373311)
(-0.00101725 0 0.000353176)
(-0.00104901 0 0.000250162)
(-0.00106322 0 4.09272e-05)
(-0.0010169 0 7.6226e-05)
(-0.0010064 0 4.95914e-05)
(-0.00101823 0 -3.41182e-05)
(-0.00100321 0 -0.000185842)
(-0.000927959 0 -0.000432215)
(-0.000970601 0 -0.00035114)
(-0.000876647 0 -0.000546537)
(-0.000788043 0 -0.00068598)
(-0.000798662 0 -0.00068621)
(-0.000726379 0 -0.000722883)
(-0.000562975 0 -0.000808093)
(-0.000464207 0 -0.000840666)
(-0.000355867 0 -0.000938765)
(6.43196e-05 0 -0.00102822)
(0.000319942 0 -0.000958803)
(0.000418153 0 -0.000873579)
(0.000543396 0 -0.000737417)
(0.000638785 0 -0.000577633)
(0.000642611 0 -0.000579631)
(0.000667209 0 -0.000673492)
(0.000673848 0 -0.000894525)
(0.00072824 0 -0.000948889)
(0.0007939 0 -0.000867356)
(0.00078997 0 -0.000763305)
(0.000812919 0 -0.000533749)
(0.000874542 0 -0.00017426)
(0.000844864 0 -5.23805e-05)
(0.000851028 0 -4.68268e-05)
(0.000869894 0 2.89271e-05)
(0.000861225 0 6.78051e-05)
(0.000840712 0 8.75912e-05)
(0.00081873 0 7.02019e-05)
(0.000793569 0 6.48771e-05)
(0.000766046 0 0.000117602)
(0.000752877 0 7.58708e-05)
(0.000734109 0 0.000136208)
(0.000721502 0 0.000132465)
(0.000713237 0 8.40003e-05)
(0.000715039 0 5.01496e-05)
(0.000712453 0 4.43124e-05)
(0.000703122 0 4.2969e-05)
(0.000688969 0 6.95847e-05)
(0.000683449 0 9.02747e-05)
(0.000683253 0 9.47422e-05)
(0.000682815 0 0.000102819)
(0.000687126 0 0.000107617)
(0.000697889 0 0.000118261)
(0.000709959 0 0.000120007)
(0.00071112 0 0.000115631)
(0.000706211 0 0.000133915)
(0.000703463 0 0.000124984)
(0.000693833 0 0.000129166)
(0.000673203 0 0.00019115)
(0.00067151 0 0.000189483)
(0.000652182 0 0.000218934)
(0.000644301 0 0.000241598)
(0.00066195 0 0.000240651)
(0.000595534 0 0.000395038)
(0.000581403 0 0.000435231)
(0.000573454 0 0.000473503)
(0.000610752 0 0.000497385)
(0.000550393 0 0.000610811)
(0.000491796 0 0.000642709)
(0.000560996 0 0.000544698)
(7.91502e-05 0 0.000489055)
(5.87481e-05 0 0.000860398)
(-1.85793e-10 0 4.38274e-10)
(-2.09388e-12 0 3.98347e-12)
(1.65726e-12 0 1.59226e-12)
(-8.95581e-13 0 7.56134e-13)
(-1.66908e-12 0 2.46732e-13)
(-1.92241e-12 0 -1.12125e-13)
(-1.96776e-12 0 -3.90355e-13)
(-1.90604e-12 0 -6.16967e-13)
(-1.77796e-12 0 -8.03946e-13)
(-1.60442e-12 0 -9.55924e-13)
(-1.39881e-12 0 -1.07451e-12)
(-1.17135e-12 0 -1.16034e-12)
(-9.30635e-13 0 -1.21404e-12)
(-6.8436e-13 0 -1.23669e-12)
(-4.39419e-13 0 -1.23008e-12)
(-2.01922e-13 0 -1.19666e-12)
(2.28588e-14 0 -1.13948e-12)
(2.30564e-13 0 -1.06206e-12)
(4.17823e-13 0 -9.68188e-13)
(5.82255e-13 0 -8.61736e-13)
(7.22415e-13 0 -7.465e-13)
(8.37683e-13 0 -6.2603e-13)
(9.28165e-13 0 -5.03532e-13)
(9.9457e-13 0 -3.81799e-13)
(1.03807e-12 0 -2.63163e-13)
(1.06015e-12 0 -1.49491e-13)
(1.0625e-12 0 -4.21974e-14)
(1.0469e-12 0 5.77121e-14)
(1.01517e-12 0 1.4958e-13)
(9.69116e-13 0 2.33037e-13)
(9.10478e-13 0 3.07942e-13)
(8.40922e-13 0 3.74328e-13)
(7.62007e-13 0 4.32351e-13)
(6.75175e-13 0 4.82249e-13)
(5.81757e-13 0 5.24301e-13)
(4.82974e-13 0 5.58796e-13)
(3.7995e-13 0 5.86009e-13)
(2.7372e-13 0 6.0618e-13)
(1.65248e-13 0 6.19501e-13)
(5.52838e-14 0 6.26104e-13)
(-0.000229053 0 0.000799679)
(2.67959e-06 0 0.000938895)
(-0.000261345 0 0.00091501)
(-0.000363631 0 0.000909598)
(-0.00046905 0 0.000871057)
(-0.000576342 0 0.000787767)
(-0.00071437 0 0.000668767)
(-0.000780522 0 0.000610445)
(-0.000815792 0 0.000552832)
(-0.000942775 0 0.000325476)
(-0.000951614 0 0.00034542)
(-0.000946077 0 0.000355792)
(-0.00093935 0 0.000311026)
(-0.000959898 0 0.000200303)
(-0.000931062 0 5.28751e-06)
(-0.000876208 0 4.37269e-05)
(-0.000870778 0 -4.45474e-06)
(-0.000860799 0 -0.000240051)
(-0.000787632 0 -0.000494602)
(-0.000853294 0 -0.000468622)
(-0.000871256 0 -0.00051901)
(-0.000745434 0 -0.000735862)
(-0.00073515 0 -0.00076019)
(-0.000612613 0 -0.000857308)
(-0.000482392 0 -0.000932038)
(-0.000324497 0 -0.00103483)
(-6.53474e-05 0 -0.00136361)
(0.000241435 0 -0.00129047)
(0.00044874 0 -0.00113326)
(0.000518677 0 -0.000996063)
(0.000603093 0 -0.000819756)
(0.000652876 0 -0.000622415)
(0.000676558 0 -0.000601365)
(0.000703514 0 -0.000679918)
(0.000717547 0 -0.000890379)
(0.000720607 0 -0.000977129)
(0.000784429 0 -0.000882465)
(0.000641237 0 -0.000796219)
(0.000610224 0 -0.000581815)
(0.0006989 0 -0.000158811)
(0.000711034 0 -9.37921e-05)
(0.000743733 0 -7.86207e-05)
(0.00079754 0 3.98482e-05)
(0.000794281 0 6.93964e-05)
(0.0007706 0 8.61309e-05)
(0.000742308 0 0.000123596)
(0.000722137 0 0.000120649)
(0.000696182 0 0.000115575)
(0.000664337 0 0.000115719)
(0.000638185 0 0.000131767)
(0.000636074 0 0.000136656)
(0.000643286 0 0.000125637)
(0.000650074 0 9.61013e-05)
(0.000650521 0 7.04181e-05)
(0.000641431 0 7.02223e-05)
(0.000630504 0 6.43799e-05)
(0.000623781 0 6.31495e-05)
(0.000616867 0 8.12589e-05)
(0.000615333 0 9.01509e-05)
(0.000615203 0 9.91144e-05)
(0.000617349 0 0.000108977)
(0.00062239 0 0.000118767)
(0.000623842 0 0.000121501)
(0.000621373 0 0.000129084)
(0.000617435 0 0.000137454)
(0.000606527 0 0.000161677)
(0.000601835 0 0.000183684)
(0.000609222 0 0.000186946)
(0.000615199 0 0.00020148)
(0.000578586 0 0.000295969)
(0.000564109 0 0.000336579)
(0.000543412 0 0.000373557)
(0.000545623 0 0.000399083)
(0.000535894 0 0.000460212)
(0.000515634 0 0.000548837)
(0.000490071 0 0.000633388)
(0.000409967 0 0.000687779)
(0.000376953 0 0.000699127)
(4.21938e-05 0 0.000607799)
(-8.45378e-05 0 0.0010183)
(6.14313e-06 0 3.8535e-05)
(-4.82417e-12 0 6.26174e-12)
(-3.58714e-12 0 2.95313e-12)
(-2.40653e-12 0 1.28698e-12)
(-2.36308e-12 0 4.46168e-13)
(-2.34481e-12 0 -7.62155e-14)
(-2.27365e-12 0 -4.51791e-13)
(-2.14595e-12 0 -7.44529e-13)
(-1.9701e-12 0 -9.79685e-13)
(-1.75567e-12 0 -1.16733e-12)
(-1.51188e-12 0 -1.31145e-12)
(-1.24764e-12 0 -1.41381e-12)
(-9.71513e-13 0 -1.47577e-12)
(-6.91655e-13 0 -1.49909e-12)
(-4.15652e-13 0 -1.48629e-12)
(-1.50286e-13 0 -1.44074e-12)
(9.86186e-14 0 -1.36648e-12)
(3.26323e-13 0 -1.26807e-12)
(5.29271e-13 0 -1.15037e-12)
(7.05109e-13 0 -1.01829e-12)
(8.52599e-13 0 -8.76561e-13)
(9.71469e-13 0 -7.2955e-13)
(1.06227e-12 0 -5.81134e-13)
(1.1262e-12 0 -4.34632e-13)
(1.16496e-12 0 -2.92766e-13)
(1.18054e-12 0 -1.57665e-13)
(1.17512e-12 0 -3.0896e-14)
(1.15089e-12 0 8.64759e-14)
(1.11003e-12 0 1.93809e-13)
(1.05461e-12 0 2.90807e-13)
(9.86599e-13 0 3.77435e-13)
(9.07822e-13 0 4.53858e-13)
(8.1994e-13 0 5.20371e-13)
(7.24458e-13 0 5.7735e-13)
(6.22729e-13 0 6.25204e-13)
(5.15965e-13 0 6.64344e-13)
(4.05258e-13 0 6.95145e-13)
(2.91595e-13 0 7.17931e-13)
(1.75877e-13 0 7.32958e-13)
(5.88059e-14 0 7.40402e-13)
(-0.000227989 0 0.000843369)
(-0.000148598 0 0.00104069)
(-0.000362842 0 0.00102689)
(-0.000446965 0 0.00101074)
(-0.000455472 0 0.000970722)
(-0.000660159 0 0.000781834)
(-0.000671525 0 0.00072577)
(-0.000810355 0 0.000557389)
(-0.000768697 0 0.000579115)
(-0.000800638 0 0.000526832)
(-0.000850466 0 0.000443469)
(-0.000858801 0 0.00034141)
(-0.000843217 0 0.000202021)
(-0.000812659 0 9.86349e-05)
(-0.000773662 0 5.32229e-05)
(-0.000738774 0 -1.6582e-05)
(-0.000724173 0 -5.146e-05)
(-0.000713819 0 -0.000189853)
(-0.000639414 0 -0.000441672)
(-0.000677645 0 -0.000494709)
(-0.000686061 0 -0.000611729)
(-0.000557113 0 -0.000793433)
(-0.00063162 0 -0.000825437)
(-0.000477486 0 -0.000968151)
(-0.000454337 0 -0.00101848)
(-7.41214e-05 0 -0.0012097)
(0.000106146 0 -0.00170689)
(0.000304991 0 -0.00154358)
(0.000434626 0 -0.00128417)
(0.000519627 0 -0.00105499)
(0.00057208 0 -0.000858807)
(0.000593833 0 -0.000650471)
(0.000625268 0 -0.0006359)
(0.00069056 0 -0.000700745)
(0.000707796 0 -0.000906146)
(0.000672175 0 -0.000978721)
(0.000592245 0 -0.000921833)
(0.000566161 0 -0.000663165)
(0.000582062 0 -0.000394505)
(0.000566952 0 -0.000227674)
(0.000597089 0 -0.000175633)
(0.000652697 0 -0.000150779)
(0.000714553 0 2.3745e-06)
(0.000710685 0 0.000110837)
(0.000707031 0 0.000111685)
(0.000691064 0 0.00012766)
(0.000657548 0 0.000167492)
(0.000631298 0 0.000163951)
(0.000608635 0 0.000163531)
(0.000599702 0 0.000148458)
(0.000600675 0 0.00011722)
(0.000595829 0 9.13141e-05)
(0.000585228 0 5.75589e-05)
(0.000584078 0 6.66218e-05)
(0.000582293 0 6.22606e-05)
(0.000569193 0 8.65915e-05)
(0.000551941 0 9.56531e-05)
(0.000538206 0 9.59502e-05)
(0.000535941 0 9.99715e-05)
(0.000534748 0 9.95454e-05)
(0.000534297 0 0.000104674)
(0.000535845 0 0.000113596)
(0.000539261 0 0.000122866)
(0.000538677 0 0.000132897)
(0.0005344 0 0.00014453)
(0.000533342 0 0.000153728)
(0.000537202 0 0.000174489)
(0.00055402 0 0.00017114)
(0.000524497 0 0.00026037)
(0.000516683 0 0.000283271)
(0.000498137 0 0.000339751)