/*--------------------------------*- C++ -*----------------------------------*\
  =========                 |
  \\      /  F ield         | OpenFOAM: The Open Source CFD Toolbox
   \\    /   O peration     | Website:  https://openfoam.org
    \\  /    A nd           | Version:  6
     \\/     M anipulation  |
\*---------------------------------------------------------------------------*/
FoamFile
{
    version     2.0;
    format      ascii;
    class       volScalarField;
    location    "3200";
    object      Su;
}
// * * * * * * * * * * * * * * * * * * * * * * * * * * * * * * * * * * * * * //

dimensions      [0 0 -1 0 0 0 0];

internalField   nonuniform List<scalar> 
4800
(
0.218818
0.21527
0.211719
0.208179
0.204669
0.201207
0.197819
0.194539
0.191404
0.188457
0.185734
0.183263
0.181044
0.179066
0.177305
0.175735
0.174325
0.173045
0.171865
0.170761
0.169712
0.168699
0.167706
0.166723
0.165739
0.164747
0.16374
0.162715
0.161667
0.160594
0.15949
0.158355
0.157189
0.155991
0.154764
0.153508
0.152226
0.150919
0.149588
0.148234
0.146853
0.145443
0.144001
0.142522
0.141005
0.139456
0.137866
0.13622
0.134513
0.132751
0.130924
0.129022
0.127044
0.124984
0.122833
0.120597
0.118276
0.115863
0.113356
0.110758
0.108062
0.105262
0.102354
0.0993364
0.096209
0.0929716
0.0896218
0.0861546
0.0825573
0.0788118
0.0749036
0.0708211
0.0665603
0.0621231
0.0575217
0.0527845
0.0479575
0.0431046
0.0382914
0.0335891
0.0290296
0.0245925
0.020252
0.016031
0.0119393
0.00797464
0.00412404
0.000370085
-0.00330511
-0.00691768
-0.0104813
-0.0140068
-0.0175029
-0.0209759
-0.0244308
-0.0278712
-0.0312996
-0.0347181
-0.0381281
-0.0415305
-0.0449261
-0.0483154
-0.051699
-0.0550772
-0.0584502
-0.0618184
-0.0651821
-0.0685414
-0.0718968
-0.0752484
-0.0785966
-0.0819417
-0.0852841
-0.0886239
-0.0919616
-0.0952975
-0.098632
-0.101965
-0.105298
-0.10863
0.218803
0.215224
0.211641
0.208071
0.204537
0.201062
0.197673
0.194405
0.191293
0.188375
0.185694
0.183266
0.18109
0.179146
0.177411
0.175862
0.174467
0.173198
0.172025
0.170927
0.169882
0.168871
0.167881
0.1669
0.165919
0.164929
0.163925
0.162901
0.161853
0.160777
0.159672
0.158538
0.157372
0.156177
0.154953
0.153703
0.152426
0.151124
0.149798
0.148446
0.147065
0.145653
0.144208
0.142724
0.141202
0.139644
0.138037
0.136367
0.13464
0.132856
0.131001
0.129074
0.12707
0.124981
0.122809
0.120554
0.118215
0.115788
0.113271
0.110663
0.107958
0.10515
0.102236
0.0992129
0.0960812
0.0928393
0.0894831
0.0860061
0.0823997
0.0786505
0.0747452
0.070675
0.0664371
0.0620412
0.0574953
0.0528205
0.0480502
0.0432257
0.0384045
0.0336486
0.0290104
0.0245025
0.0201154
0.0158766
0.0117863
0.00783412
0.00400066
0.000264544
-0.00339422
-0.00699265
-0.0105445
-0.0140604
-0.0175487
-0.0210154
-0.0244651
-0.0279011
-0.0313259
-0.0347413
-0.0381485
-0.0415485
-0.0449421
-0.0483296
-0.0517116
-0.0550883
-0.05846
-0.0618271
-0.0651897
-0.0685481
-0.0719026
-0.0752535
-0.078601
-0.0819455
-0.0852873
-0.0886266
-0.0919638
-0.0952993
-0.0986333
-0.101966
-0.105298
-0.10863
0.218777
0.215151
0.211531
0.207928
0.204368
0.200885
0.197503
0.194256
0.19119
0.188337
0.185722
0.183357
0.181236
0.179339
0.177646
0.176129
0.174759
0.173509
0.172351
0.171264
0.170228
0.169224
0.168239
0.167264
0.166286
0.165298
0.164296
0.163273
0.162224
0.161147
0.160043
0.158909
0.157747
0.156558
0.155342
0.154103
0.152839
0.15155
0.150236
0.148893
0.147516
0.146105
0.144654
0.143157
0.14162
0.140041
0.138396
0.136685
0.13492
0.13309
0.13118
0.129199
0.127138
0.124998
0.122781
0.120484
0.118107
0.115652
0.11311
0.110479
0.107755
0.104932
0.102003
0.0989671
0.0958233
0.0925703
0.0892032
0.0857134
0.0820941
0.0783388
0.0744384
0.0703887
0.0661879
0.061839
0.0573518
0.0527404
0.0480278
0.0432494
0.0384461
0.0336534
0.028915
0.0242855
0.0198144
0.0155495
0.0114705
0.00754934
0.00375411
5.57294e-05
-0.00356944
-0.00713957
-0.0106682
-0.0141655
-0.0176386
-0.021093
-0.0245326
-0.0279602
-0.0313779
-0.0347871
-0.0381891
-0.0415845
-0.044974
-0.0483579
-0.0517366
-0.0551105
-0.0584796
-0.0618443
-0.0652048
-0.0685614
-0.0719142
-0.0752636
-0.0786097
-0.081953
-0.0852936
-0.0886319
-0.0919682
-0.0953028
-0.098636
-0.101968
-0.105299
-0.10863
0.218749
0.215068
0.211402
0.207764
0.204176
0.200682
0.197324
0.194131
0.191136
0.188369
0.18584
0.183553
0.181499
0.179661
0.178015
0.176537
0.1752
0.173973
0.172836
0.171767
0.170745
0.169752
0.168778
0.167811
0.166841
0.165859
0.164862
0.163843
0.162797
0.161724
0.160624
0.159495
0.158342
0.157164
0.155962
0.154739
0.153493
0.152221
0.150921
0.149587
0.148215
0.146802
0.145341
0.143828
0.142269
0.140653
0.138958
0.137196
0.135375
0.133475
0.131493
0.129433
0.127289
0.125072
0.122786
0.120427
0.117991
0.115482
0.112894
0.110221
0.10746
0.104606
0.101653
0.0985971
0.095436
0.0921673
0.0887856
0.0852839
0.0816566
0.0779006
0.0740106
0.0699841
0.0658183
0.0615133
0.0570761
0.052519
0.0478569
0.0431069
0.038291
0.0334408
0.0286032
0.0238542
0.0192939
0.0150153
0.0109746
0.00711599
0.00338773
-0.00024946
-0.0038229
-0.00735099
-0.0108461
-0.0143166
-0.0177683
-0.0212054
-0.0246307
-0.0280463
-0.0314538
-0.0348544
-0.0382487
-0.0416374
-0.045021
-0.0483996
-0.0517736
-0.0551432
-0.0585086
-0.0618699
-0.0652274
-0.0685811
-0.0719315
-0.0752786
-0.0786227
-0.0819641
-0.0853031
-0.0886399
-0.0919747
-0.095308
-0.0986399
-0.101971
-0.105301
-0.108631
0.218722
0.214995
0.211297
0.207645
0.204057
0.200571
0.197241
0.194109
0.191192
0.188511
0.186074
0.18387
0.181888
0.180111
0.178518
0.177084
0.175782
0.174585
0.173472
0.172426
0.171421
0.170445
0.169487
0.168533
0.167574
0.166602
0.165615
0.164604
0.163568
0.162505
0.161414
0.160299
0.15916
0.158
0.156818
0.155615
0.154388
0.153132
0.151844
0.150518
0.14915
0.147732
0.146258
0.144726
0.143135
0.141472
0.139727
0.137905
0.136012
0.134027
0.131955
0.129797
0.127561
0.125255
0.122877
0.12043
0.117914
0.115328
0.11267
0.109933
0.107115
0.104211
0.101218
0.0981307
0.0949465
0.0916603
0.088266
0.0847567
0.0811278
0.0773762
0.0734989
0.0694935
0.0653557
0.061085
0.0566842
0.0521603
0.0475208
0.0427684
0.0379139
0.0329764
0.0280102
0.0231321
0.0184813
0.0142251
0.0102779
0.0065333
0.00291119
-0.00063768
-0.00414125
-0.00761514
-0.0110683
-0.0145059
-0.0179316
-0.0213475
-0.0247554
-0.0281564
-0.0315514
-0.0349411
-0.0383259
-0.0417061
-0.0450821
-0.048454
-0.051822
-0.0551861
-0.0585466
-0.0619034
-0.0652569
-0.0686071
-0.0719542
-0.0752983
-0.0786398
-0.0819788
-0.0853156
-0.0886503
-0.0919833
-0.0953148
-0.0986451
-0.101974
-0.105303
-0.108631
0.218699
0.21493
0.211204
0.207551
0.203991
0.200553
0.197274
0.194203
0.19137
0.188777
0.186426
0.184302
0.182393
0.180679
0.179141
0.177753
0.176491
0.175325
0.174241
0.173222
0.172239
0.171284
0.170345
0.169408
0.168464
0.167506
0.166533
0.165537
0.164515
0.163468
0.162396
0.161301
0.160184
0.159048
0.157888
0.156706
0.1555
0.15426
0.152982
0.151662
0.150294
0.148867
0.147378
0.145822
0.144193
0.142484
0.140684
0.138795
0.136819
0.134745
0.132581
0.130325
0.127991
0.12558
0.123101
0.120551
0.11793
0.115242
0.112489
0.109667
0.106776
0.103809
0.100762
0.0976322
0.0944165
0.0911089
0.087702
0.0841876
0.0805589
0.0768128
0.0729475
0.0689578
0.0648385
0.0605894
0.0562105
0.0517007
0.0470591
0.0422778
0.0373538
0.0322925
0.0271485
0.0220688
0.0172653
0.0131099
0.00936298
0.00581323
0.00234705
-0.00108559
-0.00450413
-0.00791545
-0.0113217
-0.0147233
-0.0181205
-0.0215133
-0.024902
-0.0282867
-0.0316675
-0.0350448
-0.0384186
-0.041789
-0.0451561
-0.04852
-0.0518807
-0.0552384
-0.0585929
-0.0619444
-0.065293
-0.0686388
-0.0719819
-0.0753225
-0.0786608
-0.0819968
-0.0853308
-0.0886631
-0.0919938
-0.0953232
-0.0986515
-0.101979
-0.105306
-0.108632
0.218688
0.214889
0.211131
0.207467
0.203932
0.200559
0.197373
0.194399
0.191657
0.189152
0.186884
0.184839
0.183001
0.18135
0.179864
0.178523
0.177301
0.176169
0.175116
0.174125
0.173168
0.172239
0.17132
0.170405
0.169479
0.16854
0.167587
0.166611
0.16561
0.164585
0.163538
0.162468
0.161377
0.160267
0.159133
0.157973
0.156785
0.155558
0.154289
0.152976
0.151609
0.150172
0.148667
0.147085
0.145421
0.143666
0.14181
0.139858
0.137804
0.135649
0.133389
0.131034
0.128596
0.126082
0.123494
0.120833
0.118101
0.115301
0.112431
0.109497
0.106504
0.103457
0.100346
0.0971662
0.0939109
0.0905742
0.0871491
0.0836267
0.0799976
0.0762567
0.0723981
0.068415
0.0643048
0.0600667
0.0556982
0.0511899
0.0465321
0.0417054
0.0366872
0.0314589
0.0260403
0.0205686
0.0153911
0.0115697
0.00823737
0.00499899
0.00174038
-0.00155619
-0.00488339
-0.00823093
-0.0115906
-0.0149568
-0.0183259
-0.0216957
-0.0250649
-0.0284327
-0.0317987
-0.0351627
-0.0385246
-0.0418841
-0.0452414
-0.0485964
-0.0519489
-0.0552991
-0.0586469
-0.0619922
-0.0653353
-0.068676
-0.0720145
-0.0753509
-0.0786853
-0.0820179
-0.0853488
-0.0886782
-0.0920062
-0.0953331
-0.0986591
-0.101984
-0.105309
-0.108633
0.218698
0.214919
0.211179
0.20753
0.204023
0.200699
0.197587
0.1947
0.192043
0.189621
0.187432
0.185461
0.183691
0.182099
0.180664
0.179366
0.178182
0.177084
0.176065
0.175102
0.174174
0.173268
0.172373
0.171482
0.170579
0.169663
0.168734
0.167782
0.166807
0.165809
0.164789
0.163747
0.162685
0.161602
0.160493
0.159356
0.158187
0.156975
0.155717
0.15441
0.153042
0.151601
0.150086
0.148483
0.146791
0.144997
0.143095
0.14109
0.138972
0.13674
0.134396
0.131947
0.129405
0.12678
0.124075
0.121295
0.118441
0.115516
0.112523
0.10947
0.106367
0.103221
0.100033
0.0967933
0.0934917
0.0901191
0.0866684
0.0831312
0.079497
0.0757547
0.0718963
0.0679171
0.0638147
0.0595844
0.0552194
0.0507066
0.046028
0.0411534
0.0360361
0.0306111
0.0247985
0.0185426
0.0121458
0.0095217
0.00700586
0.00419912
0.00116887
-0.00199807
-0.00524488
-0.00853814
-0.0118584
-0.0151941
-0.0185384
-0.0218873
-0.0252382
-0.0285898
-0.0319412
-0.0352918
-0.0386413
-0.0419895
-0.0453364
-0.0486817
-0.0520254
-0.0553674
-0.0587077
-0.0620462
-0.065383
-0.0687181
-0.0720514
-0.0753831
-0.0787132
-0.0820419
-0.0853692
-0.0886953
-0.0920203
-0.0953443
-0.0986676
-0.10199
-0.105313
-0.108635
0.218701
0.214948
0.211262
0.207672
0.204223
0.200958
0.197909
0.195094
0.192517
0.190174
0.188059
0.186154
0.184442
0.182902
0.181513
0.180253
0.179103
0.178038
0.177048
0.176111
0.175209
0.174327
0.173459
0.172592
0.171714
0.170824
0.16992
0.168995
0.168048
0.167079
0.16609
0.165079
0.164046
0.16299
0.161906
0.160793
0.159645
0.158451
0.157209
0.155913
0.154554
0.153118
0.151598
0.149986
0.148274
0.146454
0.144521
0.142479
0.140315
0.138026
0.135611
0.133076
0.130438
0.127707
0.124887
0.121983
0.119
0.115945
0.112825
0.109647
0.106424
0.103168
0.0998867
0.0965736
0.0932159
0.0898023
0.0863209
0.0827609
0.0791106
0.0753565
0.071492
0.0675131
0.0634155
0.0591921
0.054833
0.0503215
0.0456313
0.0407281
0.0355488
0.0299808
0.0237969
0.0163079
0.00369812
0.00734827
0.00605793
0.00362366
0.000738761
-0.00235447
-0.0055552
-0.00881534
-0.0121095
-0.0154235
-0.0187489
-0.0220808
-0.0254162
-0.0287532
-0.0320909
-0.0354286
-0.038766
-0.0421029
-0.045439
-0.0487743
-0.0521087
-0.0554421
-0.0587744
-0.0621056
-0.0654356
-0.0687645
-0.0720922
-0.0754187
-0.0787441
-0.0820685
-0.0853918
-0.0887143
-0.0920359
-0.0953568
-0.0986771
-0.101997
-0.105317
-0.108636
0.218706
0.214971
0.211328
0.207811
0.204448
0.201266
0.198294
0.195552
0.193045
0.190772
0.188722
0.186878
0.18522
0.183727
0.182377
0.181151
0.18003
0.178994
0.178027
0.177113
0.176233
0.175374
0.174528
0.173684
0.17283
0.171965
0.171087
0.17019
0.169273
0.168336
0.167378
0.166398
0.165395
0.164367
0.16331
0.162223
0.1611
0.15993
0.158711
0.157435
0.156093
0.154671
0.153158
0.151546
0.149831
0.148006
0.146066
0.144011
0.141824
0.139498
0.137029
0.134427
0.131707
0.128879
0.12595
0.122926
0.119816
0.116628
0.113372
0.110065
0.106722
0.103357
0.0999767
0.0965803
0.0931569
0.0896919
0.0861704
0.0825775
0.0789002
0.0751271
0.0712495
0.0672642
0.063168
0.058952
0.0546024
0.0501
0.0454159
0.0405143
0.0353417
0.0298269
0.0238866
0.0174709
0.0109563
0.00870267
0.00626125
0.00351068
0.000530646
-0.00258982
-0.00579391
-0.00904823
-0.0123329
-0.0156359
-0.0189497
-0.0222697
-0.0255931
-0.0289182
-0.032244
-0.03557
-0.038896
-0.0422218
-0.0455474
-0.0488727
-0.0521976
-0.055522
-0.058846
-0.0621695
-0.0654924
-0.0688147
-0.0721363
-0.0754573
-0.0787777
-0.0820973
-0.0854164
-0.0887349
-0.0920529
-0.0953704
-0.0986875
-0.102004
-0.105321
-0.108637
0.218747
0.215084
0.211495
0.208025
0.204721
0.201615
0.198725
0.196061
0.193626
0.191416
0.18942
0.187622
0.186002
0.184543
0.183222
0.182022
0.180922
0.179905
0.178956
0.178058
0.177195
0.176354
0.175527
0.174701
0.173869
0.173029
0.172176
0.171307
0.17042
0.169514
0.168588
0.16764
0.166668
0.165672
0.164646
0.16359
0.162498
0.16136
0.160171
0.158924
0.157609
0.156212
0.154722
0.153132
0.151434
0.149624
0.147699
0.145655
0.143472
0.141136
0.13864
0.135994
0.133211
0.130303
0.127277
0.124143
0.12091
0.117591
0.114201
0.110765
0.107301
0.103823
0.100344
0.0968635
0.0933718
0.0898529
0.0862885
0.0826586
0.0789474
0.0751448
0.0712446
0.0672463
0.0631458
0.0589323
0.0545886
0.0500929
0.045418
0.0405338
0.0354128
0.0300452
0.024473
0.018863
0.0137963
0.010054
0.00680223
0.00365146
0.000484812
-0.00272114
-0.00596346
-0.0092336
-0.0125231
-0.0158252
-0.0191348
-0.0224485
-0.025764
-0.0290802
-0.0323965
-0.0357126
-0.0390284
-0.042344
-0.0456595
-0.048975
-0.0522904
-0.055606
-0.0589215
-0.062237
-0.0655525
-0.068868
-0.0721833
-0.0754984
-0.0788134
-0.0821282
-0.0854427
-0.088757
-0.0920711
-0.0953849
-0.0986986
-0.102012
-0.105325
-0.108639
0.218791
0.215216
0.211713
0.208322
0.205087
0.202042
0.199207
0.196594
0.19421
0.192051
0.1901
0.188338
0.186746
0.185308
0.184004
0.182818
0.181731
0.180726
0.179785
0.178895
0.178041
0.177211
0.176397
0.175587
0.174774
0.173955
0.173125
0.172282
0.171423
0.170549
0.169656
0.168742
0.167806
0.166845
0.165855
0.164837
0.163784
0.162687
0.16154
0.160335
0.159061
0.157705
0.156255
0.154703
0.153043
0.151271
0.149386
0.14738
0.145226
0.142909
0.140419
0.13776
0.134942
0.131976
0.128872
0.125642
0.1223
0.118859
0.115341
0.111776
0.108185
0.104594
0.101015
0.0974497
0.0938899
0.0903177
0.0867114
0.0830454
0.0793009
0.0754649
0.0715348
0.0675136
0.063396
0.0591708
0.054819
0.0503174
0.0456413
0.0407725
0.0357048
0.0304716
0.0251542
0.0199219
0.0151212
0.0109663
0.00727815
0.0038355
0.000502244
-0.00279278
-0.00608191
-0.00937687
-0.0126796
-0.0159881
-0.0192998
-0.0226125
-0.0259246
-0.0292355
-0.0325449
-0.0358531
-0.0391603
-0.0424669
-0.0457732
-0.0490794
-0.0523859
-0.0556926
-0.0589997
-0.0623073
-0.0656153
-0.0689237
-0.0722325
-0.0755416
-0.078851
-0.0821606
-0.0854703
-0.0887802
-0.0920902
-0.0954002
-0.0987103
-0.10202
-0.10533
-0.10864
0.218829
0.215332
0.211913
0.208607
0.205449
0.20247
0.19969
0.197126
0.194783
0.192653
0.190724
0.188981
0.187406
0.18598
0.184683
0.183499
0.18241
0.181402
0.180459
0.179568
0.178716
0.177889
0.177081
0.17628
0.175481
0.174679
0.173871
0.173053
0.172223
0.17138
0.170522
0.169646
0.16875
0.167831
0.166886
0.165916
0.164913
0.163868
0.162775
0.161625
0.160405
0.159104
0.157713
0.156222
0.154626
0.152919
0.1511
0.149156
0.147058
0.144789
0.142335
0.139693
0.136871
0.133877
0.130721
0.127418
0.123983
0.120436
0.116802
0.113112
0.109398
0.105694
0.102019
0.0983705
0.0947376
0.0911034
0.0874467
0.0837397
0.07996
0.076088
0.0721245
0.0680735
0.063929
0.0596788
0.0553027
0.0507778
0.0460819
0.0412078
0.0361604
0.0309852
0.0257639
0.0206404
0.0158238
0.011449
0.00752981
0.0039257
0.000497619
-0.00285049
-0.00617094
-0.00948644
-0.0128038
-0.0161228
-0.0194415
-0.0227579
-0.0260709
-0.0293801
-0.0326859
-0.0359887
-0.0392892
-0.0425883
-0.0458865
-0.0491844
-0.0524823
-0.0557806
-0.0590796
-0.0623793
-0.0656798
-0.0689811
-0.0722833
-0.0755863
-0.0788899
-0.0821942
-0.0854991
-0.0888044
-0.0921101
-0.0954161
-0.0987224
-0.102029
-0.105335
-0.108642
0.218868
0.215448
0.212102
0.208869
0.205779
0.202862
0.200135
0.197612
0.195298
0.19319
0.191275
0.189535
0.187954
0.186517
0.185207
0.184008
0.182904
0.181882
0.180925
0.180023
0.179161
0.17833
0.17752
0.176724
0.175934
0.175147
0.174358
0.173564
0.172763
0.171954
0.171133
0.1703
0.169451
0.168583
0.167694
0.166783
0.165841
0.164863
0.163838
0.162758
0.16161
0.160385
0.159074
0.157667
0.156156
0.154538
0.152811
0.150955
0.148942
0.146752
0.144365
0.141766
0.138965
0.135971
0.132793
0.129444
0.125946
0.122321
0.118594
0.114797
0.110975
0.107178
0.103416
0.0996846
0.0959706
0.0922556
0.0885231
0.0847491
0.0809119
0.0769935
0.0729945
0.0689108
0.0647345
0.0604501
0.0560368
0.051472
0.0467357
0.0418222
0.036736
0.03152
0.0262457
0.0210378
0.0160529
0.0114736
0.00745164
0.00382685
0.000409204
-0.00292785
-0.00624632
-0.00956821
-0.0128965
-0.0162276
-0.019557
-0.0228815
-0.0261996
-0.029511
-0.0328163
-0.0361165
-0.0394127
-0.042706
-0.0459975
-0.049288
-0.0525783
-0.0558688
-0.05916
-0.0624521
-0.0657452
-0.0690396
-0.0723352
-0.0756319
-0.0789298
-0.0822287
-0.0855286
-0.0888292
-0.0921306
-0.0954325
-0.0987349
-0.102038
-0.105341
-0.108644
0.218909
0.215565
0.212283
0.209104
0.206064
0.20319
0.2005
0.198006
0.195707
0.193599
0.191674
0.189919
0.188319
0.186858
0.185523
0.184298
0.183166
0.182116
0.181134
0.180208
0.179327
0.178483
0.177666
0.176869
0.176085
0.17531
0.174539
0.17377
0.172999
0.172227
0.17145
0.170666
0.169873
0.169068
0.168247
0.167408
0.166543
0.165645
0.164705
0.163714
0.16266
0.161533
0.160325
0.159024
0.157624
0.156121
0.154508
0.152766
0.150871
0.148791
0.14649
0.143954
0.141195
0.138221
0.135044
0.131681
0.128155
0.124489
0.120701
0.116824
0.112923
0.109055
0.105217
0.101411
0.097621
0.0938226
0.0900007
0.086132
0.0822013
0.0782071
0.074154
0.0700285
0.0658139
0.061486
0.0570227
0.0524004
0.0475998
0.0426097
0.0374264
0.0320765
0.0266069
0.021117
0.0157706
0.0108743
0.00690338
0.00346102
0.000202912
-0.00303681
-0.00631069
-0.00962134
-0.0129558
-0.0162999
-0.0196436
-0.0229805
-0.026308
-0.0296255
-0.0329337
-0.0362342
-0.0395284
-0.0428179
-0.0461044
-0.0493888
-0.0526724
-0.0559559
-0.0592398
-0.0625247
-0.0658108
-0.0690984
-0.0723875
-0.0756781
-0.0789702
-0.0822637
-0.0855585
-0.0888545
-0.0921514
-0.0954492
-0.0987477
-0.102047
-0.105346
-0.108646
0.218931
0.215635
0.212404
0.209272
0.206274
0.203434
0.200765
0.198277
0.195972
0.193847
0.191893
0.190105
0.18847
0.18697
0.185591
0.184322
0.183148
0.182058
0.18104
0.180081
0.179175
0.178311
0.177483
0.176682
0.175902
0.175138
0.174386
0.173644
0.172909
0.17218
0.171454
0.17073
0.170003
0.169272
0.168533
0.167782
0.167011
0.166213
0.165379
0.164498
0.163559
0.162552
0.161469
0.160299
0.159034
0.157671
0.156198
0.154601
0.15285
0.150892
0.148688
0.146228
0.143523
0.140588
0.137436
0.134082
0.130556
0.126887
0.123079
0.119165
0.115214
0.111295
0.107393
0.103525
0.0996644
0.0957825
0.0918673
0.0878964
0.0838631
0.0797765
0.0756404
0.0714459
0.0671724
0.0627854
0.058256
0.0535573
0.0486662
0.0435625
0.0382304
0.0326696
0.026878
0.0208824
0.0148025
0.00919381
0.00567294
0.00278671
-0.000105188
-0.0031543
-0.00634738
-0.00963588
-0.0129759
-0.0163365
-0.0196989
-0.0230528
-0.026394
-0.0297215
-0.0330361
-0.0363398
-0.0396345
-0.0429224
-0.0462055
-0.0494854
-0.0527634
-0.0560407
-0.0593181
-0.0625963
-0.0658758
-0.0691568
-0.0724396
-0.0757242
-0.0790106
-0.0822988
-0.0855886
-0.0888798
-0.0921724
-0.095466
-0.0987605
-0.102056
-0.105351
-0.108647
0.218947
0.21568
0.212472
0.209364
0.206384
0.203551
0.20088
0.198376
0.196043
0.193881
0.191886
0.190048
0.188356
0.186798
0.185361
0.184034
0.182808
0.181671
0.18061
0.179616
0.178679
0.177795
0.176954
0.17615
0.175375
0.174626
0.173897
0.173188
0.172494
0.171816
0.171151
0.170498
0.169853
0.169213
0.168574
0.167928
0.167271
0.166593
0.165885
0.165135
0.164333
0.16347
0.162536
0.16152
0.160417
0.159216
0.157909
0.156478
0.154879
0.153053
0.15096
0.148591
0.145958
0.143075
0.139956
0.136623
0.133112
0.129462
0.125671
0.121757
0.11779
0.113844
0.109904
0.105986
0.102056
0.0980925
0.0940904
0.0900217
0.0858816
0.081686
0.0774418
0.0731518
0.0687938
0.0643284
0.0597156
0.0549189
0.0499094
0.0446671
0.0391651
0.0333645
0.027171
0.0204193
0.0128462
0.00515227
0.00355735
0.00191762
-0.000393674
-0.00320563
-0.00631829
-0.00959442
-0.0129495
-0.0163343
-0.0197216
-0.0230976
-0.0264568
-0.029798
-0.0331222
-0.0364319
-0.0397296
-0.0430181
-0.0462996
-0.0495763
-0.05285
-0.0561221
-0.0593938
-0.062666
-0.0659393
-0.0692142
-0.072491
-0.0757698
-0.0790507
-0.0823336
-0.0856185
-0.0889051
-0.0921932
-0.0954827
-0.0987733
-0.102065
-0.105357
-0.108649
0.21895
0.215683
0.212467
0.209346
0.206352
0.203501
0.200805
0.198268
0.195888
0.193667
0.191604
0.189694
0.187928
0.1863
0.1848
0.183414
0.182133
0.180946
0.179841
0.17881
0.177847
0.176945
0.176098
0.175296
0.174533
0.173805
0.173107
0.172439
0.171798
0.171183
0.170593
0.170026
0.169479
0.168946
0.168424
0.167904
0.167379
0.166841
0.166279
0.165682
0.16504
0.164342
0.163579
0.16274
0.161816
0.160797
0.159673
0.158419
0.15698
0.155287
0.153306
0.151029
0.148469
0.145636
0.142545
0.139236
0.135753
0.132139
0.128397
0.124523
0.120581
0.11663
0.112673
0.10871
0.104719
0.100686
0.0966039
0.0924385
0.088189
0.0838756
0.0795075
0.0751037
0.0706367
0.0660653
0.0613455
0.0564324
0.0512943
0.0459148
0.0402606
0.0342592
0.0277154
0.0201204
0.00881596
-0.0031767
0.00113138
0.00144475
-0.000372157
-0.00306908
-0.00617679
-0.00948131
-0.0128731
-0.0162939
-0.0197131
-0.0231161
-0.026497
-0.0298549
-0.0331916
-0.0365099
-0.039813
-0.0431039
-0.0463857
-0.0496608
-0.0529314
-0.0561994
-0.0594662
-0.0627331
-0.0660007
-0.0692699
-0.072541
-0.0758143
-0.0790899
-0.0823678
-0.0856478
-0.0889299
-0.0922138
-0.0954992
-0.0987859
-0.102074
-0.105362
-0.108651
0.218924
0.215611
0.212357
0.209197
0.206159
0.203257
0.200502
0.1979
0.195448
0.193144
0.190994
0.188998
0.187154
0.185453
0.183887
0.182443
0.181113
0.179884
0.178746
0.177692
0.176716
0.175811
0.17497
0.174184
0.173448
0.172756
0.172105
0.171494
0.170921
0.170385
0.169887
0.169422
0.168988
0.168579
0.16819
0.167812
0.167436
0.167054
0.166655
0.166227
0.165761
0.165245
0.164668
0.164019
0.163288
0.162464
0.161533
0.160464
0.159184
0.157621
0.155749
0.153558
0.151056
0.148248
0.145162
0.141859
0.138393
0.134826
0.131159
0.127366
0.123481
0.119553
0.115588
0.11159
0.107553
0.103468
0.0993154
0.0950616
0.0907098
0.0862764
0.0817758
0.077234
0.0726183
0.0678959
0.0630295
0.0579778
0.052711
0.0472133
0.0414548
0.0353762
0.0288502
0.0216693
0.013642
0.00622875
0.00455291
0.0027666
0.000297443
-0.00266336
-0.00590885
-0.0093004
-0.0127542
-0.0162224
-0.0196791
-0.0231121
-0.026517
-0.0298939
-0.0332451
-0.0365739
-0.0398842
-0.0431794
-0.046463
-0.0497379
-0.0530068
-0.0562717
-0.0595346
-0.0627968
-0.0660595
-0.0693235
-0.0725893
-0.0758575
-0.079128
-0.082401
-0.0856764
-0.0889541
-0.0922338
-0.0955153
-0.0987982
-0.102082
-0.105367
-0.108653
0.218874
0.215463
0.212121
0.208877
0.205753
0.202762
0.199914
0.197214
0.194664
0.192265
0.190019
0.187933
0.186009
0.184238
0.182616
0.18113
0.179771
0.178525
0.17738
0.176329
0.175367
0.174488
0.173682
0.17294
0.172256
0.171626
0.171046
0.170516
0.170034
0.1696
0.169212
0.168869
0.168565
0.168294
0.168049
0.167822
0.167605
0.167386
0.167157
0.166905
0.16662
0.16629
0.165904
0.165449
0.164916
0.164292
0.163559
0.16267
0.161536
0.160091
0.158315
0.156193
0.153722
0.150902
0.147784
0.144458
0.141005
0.13749
0.133909
0.130223
0.126428
0.122522
0.11854
0.11451
0.110438
0.106316
0.102112
0.0977891
0.093347
0.0888008
0.0841668
0.0794556
0.0746398
0.0696979
0.0646121
0.059373
0.0539646
0.0483681
0.0425615
0.0365183
0.0302107
0.0236425
0.0170442
0.0114074
0.00761368
0.00441079
0.00120398
-0.00213392
-0.00558118
-0.00908906
-0.0126163
-0.0161353
-0.0196299
-0.0230927
-0.0265216
-0.0299178
-0.0332842
-0.0366248
-0.0399436
-0.0432445
-0.0465313
-0.0498073
-0.0530755
-0.0563385
-0.0595983
-0.0628567
-0.066115
-0.0693743
-0.0726354
-0.0758987
-0.0791645
-0.0824329
-0.085704
-0.0889774
-0.0922532
-0.0955308
-0.0988101
-0.102091
-0.105372
-0.108654
0.218797
0.215233
0.211739
0.20835
0.205086
0.201962
0.198989
0.196165
0.193496
0.190987
0.188645
0.186472
0.184479
0.182659
0.181007
0.179512
0.178162
0.176941
0.175835
0.174835
0.173936
0.173131
0.172407
0.171755
0.171168
0.170641
0.17017
0.169756
0.169398
0.169093
0.168841
0.168637
0.168477
0.168354
0.16826
0.168186
0.168124
0.168062
0.167993
0.167906
0.16779
0.167634
0.167427
0.167154
0.166807
0.166371
0.165819
0.165088
0.164072
0.162716
0.161012
0.158927
0.156442
0.153561
0.150369
0.146993
0.143531
0.140047
0.136557
0.132996
0.129307
0.125411
0.121405
0.117343
0.113245
0.109097
0.104858
0.10049
0.0959823
0.0913383
0.0865622
0.0816496
0.0765806
0.0713435
0.0659545
0.0604477
0.0548276
0.0490964
0.0432539
0.0373027
0.0312603
0.0251855
0.0192756
0.0140467
0.0096204
0.00569812
0.00198141
-0.00166677
-0.00529268
-0.00890364
-0.0124936
-0.0160543
-0.0195798
-0.0230673
-0.0265169
-0.0299306
-0.0333117
-0.0366641
-0.039992
-0.0432995
-0.0465906
-0.0498688
-0.0531374
-0.0563993
-0.0596569
-0.0629122
-0.0661669
-0.0694221
-0.0726788
-0.0759377
-0.0791992
-0.0824633
-0.0857302
-0.0889997
-0.0922716
-0.0955457
-0.0988215
-0.102099
-0.105377
-0.108656
0.218684
0.214895
0.211181
0.20758
0.204118
0.200813
0.197675
0.194705
0.191903
0.189279
0.186845
0.184606
0.182572
0.18074
0.179103
0.177651
0.176368
0.175235
0.174235
0.173359
0.172597
0.171937
0.171368
0.170876
0.170452
0.170089
0.169784
0.169537
0.169347
0.169212
0.169129
0.169093
0.169097
0.169129
0.169185
0.169255
0.169328
0.169399
0.169459
0.169503
0.169522
0.169503
0.169435
0.169306
0.169106
0.168818
0.168402
0.16777
0.166812
0.165489
0.163811
0.161708
0.159147
0.156151
0.152856
0.149415
0.145938
0.142483
0.139057
0.135555
0.131899
0.12799
0.123969
0.119889
0.115783
0.111627
0.107375
0.102989
0.0984447
0.0937264
0.0888139
0.0836797
0.0783077
0.0727042
0.0669273
0.0610464
0.0551187
0.0491658
0.0432316
0.0373532
0.0315417
0.0258304
0.0203324
0.0152696
0.0106871
0.00644246
0.00244018
-0.00139711
-0.00513117
-0.00880012
-0.012422
-0.016003
-0.0195444
-0.0230465
-0.0265101
-0.0299373
-0.0333308
-0.036694
-0.0400309
-0.0433454
-0.0466413
-0.0499225
-0.0531924
-0.056454
-0.0597102
-0.0629631
-0.0662147
-0.0694664
-0.0727193
-0.0759742
-0.0792316
-0.0824918
-0.0857549
-0.0890207
-0.092289
-0.0955597
-0.0988322
-0.102106
-0.105382
-0.108657
0.218531
0.21444
0.210431
0.20655
0.202832
0.199298
0.195961
0.192825
0.189883
0.187149
0.184641
0.182366
0.180331
0.178537
0.176971
0.175624
0.174479
0.173513
0.172708
0.172049
0.171523
0.171111
0.170797
0.170562
0.170395
0.170287
0.170235
0.170235
0.170285
0.170383
0.170523
0.170696
0.170889
0.171093
0.171297
0.171492
0.171671
0.17183
0.171969
0.172086
0.172178
0.17223
0.172229
0.172168
0.172039
0.171818
0.171442
0.170796
0.16978
0.168385
0.166639
0.164431
0.161713
0.158557
0.155144
0.151623
0.148096
0.144587
0.141089
0.137496
0.133774
0.129885
0.125897
0.121852
0.117772
0.113625
0.109377
0.105002
0.100471
0.0957296
0.0907197
0.0853828
0.0796893
0.073654
0.0673813
0.0610141
0.054654
0.0483636
0.0422276
0.0363393
0.030711
0.0253365
0.0202237
0.0154552
0.0110427
0.00666158
0.00251386
-0.00140029
-0.0051572
-0.00882219
-0.012432
-0.0160024
-0.0195384
-0.0230404
-0.0265084
-0.0299428
-0.0333449
-0.0367169
-0.0400618
-0.043383
-0.0466841
-0.0499687
-0.0532404
-0.0565025
-0.0597579
-0.0630091
-0.0662582
-0.0695069
-0.0727565
-0.0760078
-0.0792617
-0.0825182
-0.0857778
-0.0890401
-0.0923052
-0.0955727
-0.0988422
-0.102113
-0.105386
-0.108659
0.218344
0.213882
0.209511
0.205291
0.201268
0.197469
0.19391
0.190599
0.187528
0.184704
0.182148
0.179868
0.17787
0.176153
0.174708
0.173522
0.172581
0.171861
0.171342
0.171005
0.170828
0.170789
0.170859
0.171016
0.171241
0.171518
0.17184
0.172202
0.172603
0.173035
0.173487
0.173944
0.174388
0.1748
0.175169
0.175483
0.175735
0.175932
0.176081
0.176193
0.176276
0.176307
0.176267
0.176158
0.175974
0.175681
0.17518
0.174323
0.173042
0.171391
0.169408
0.166941
0.163949
0.16056
0.156966
0.153286
0.14959
0.145872
0.142109
0.138276
0.134411
0.130569
0.126721
0.122797
0.118797
0.114698
0.110481
0.106146
0.101674
0.0969893
0.0919753
0.0865093
0.0805236
0.0740533
0.0672025
0.060178
0.05325
0.0464946
0.0400164
0.034
0.0285247
0.0235806
0.0190202
0.0148254
0.0111036
0.00646274
0.00219193
-0.00171115
-0.0054037
-0.00899604
-0.0125435
-0.0160675
-0.0195727
-0.0230572
-0.0265177
-0.0299515
-0.0333573
-0.0367351
-0.0400864
-0.0434136
-0.0467196
-0.0500079
-0.0532819
-0.0565449
-0.0598001
-0.0630501
-0.0662972
-0.0695434
-0.0727901
-0.0760384
-0.079289
-0.0825424
-0.0857987
-0.089058
-0.0923201
-0.0955847
-0.0988514
-0.10212
-0.10539
-0.10866
0.218144
0.213284
0.208529
0.203948
0.199601
0.195528
0.191747
0.188271
0.18509
0.182203
0.179624
0.177359
0.175414
0.173787
0.172471
0.171461
0.170746
0.170311
0.170138
0.170207
0.170488
0.170951
0.171557
0.172268
0.173052
0.173883
0.174747
0.17564
0.176556
0.177483
0.178401
0.179282
0.180095
0.180815
0.181418
0.181883
0.182205
0.182401
0.182499
0.182528
0.182515
0.182422
0.182209
0.181897
0.181482
0.180921
0.180044
0.17867
0.176798
0.174605
0.172118
0.169148
0.165685
0.161905
0.157945
0.153876
0.149748
0.145593
0.141395
0.137201
0.133138
0.129382
0.125811
0.122108
0.118312
0.114354
0.110219
0.105974
0.101624
0.0970568
0.0921154
0.0866269
0.0804296
0.0735564
0.0660826
0.0582871
0.0506915
0.0434083
0.0365092
0.0302863
0.024925
0.0204702
0.0165723
0.0133531
0.0115489
0.0058367
0.00142389
-0.00234937
-0.00587841
-0.00932742
-0.0127624
-0.0162039
-0.0196527
-0.0231016
-0.0265421
-0.0299668
-0.0333706
-0.0367507
-0.0401063
-0.0434383
-0.0467487
-0.0500406
-0.053317
-0.0565813
-0.0598366
-0.0630859
-0.0663316
-0.0695758
-0.0728201
-0.0760658
-0.0793136
-0.0825641
-0.0858176
-0.0890741
-0.0923334
-0.0955954
-0.0988597
-0.102126
-0.105393
-0.108661
0.217976
0.212783
0.207706
0.202823
0.198208
0.193917
0.189975
0.186387
0.183145
0.180233
0.177647
0.175385
0.173451
0.171846
0.170575
0.169647
0.16907
0.168851
0.168986
0.169462
0.170253
0.171313
0.172592
0.174023
0.17555
0.177134
0.178752
0.180399
0.182065
0.183733
0.185367
0.186912
0.188315
0.189536
0.190535
0.191277
0.19174