/*--------------------------------*- C++ -*----------------------------------*\
  =========                 |
  \\      /  F ield         | OpenFOAM: The Open Source CFD Toolbox
   \\    /   O peration     | Website:  https://openfoam.org
    \\  /    A nd           | Version:  6
     \\/     M anipulation  |
\*---------------------------------------------------------------------------*/
FoamFile
{
    version     2.0;
    format      ascii;
    class       volVectorField;
    location    "3200";
    object      U;
}
// * * * * * * * * * * * * * * * * * * * * * * * * * * * * * * * * * * * * * //

dimensions      [0 1 -1 0 0 0 0];

internalField   nonuniform List<vector> 
4800
(
(-5.13137e-06 0 -9.62404e-05)
(0.000100028 0 -7.41261e-05)
(0.000149793 0 -9.30784e-05)
(0.000174167 0 -0.000110325)
(0.000201461 0 -0.000101685)
(0.000189991 0 -8.35649e-05)
(0.000156924 0 -2.46287e-05)
(2.63364e-05 0 -6.85247e-05)
(-0.000142973 0 -8.06744e-06)
(-0.000223639 0 -0.000179962)
(-0.000480738 0 -3.86649e-05)
(-0.000661429 0 -0.00022856)
(-0.000861675 0 0.000113238)
(-0.00100767 0 -6.64436e-05)
(-0.00111389 0 -7.14679e-06)
(-0.00117858 0 1.83087e-05)
(-0.00121699 0 2.44523e-05)
(-0.0012386 0 -2.29378e-05)
(-0.00124538 0 -7.81695e-06)
(-0.00122809 0 -5.81558e-05)
(-0.00118242 0 -7.99839e-05)
(-0.00115551 0 -8.23269e-05)
(-0.00113385 0 -4.08032e-05)
(-0.00110203 0 -4.76574e-05)
(-0.00108326 0 -3.81033e-05)
(-0.00107906 0 -3.76341e-05)
(-0.00107835 0 -5.63369e-06)
(-0.00105257 0 2.49713e-05)
(-0.00102889 0 -8.04124e-05)
(-0.000994325 0 -0.00021975)
(-0.000968221 0 0.000145372)
(-0.000908715 0 -8.6781e-05)
(-0.000894339 0 -6.50477e-05)
(-0.000898372 0 -6.13229e-05)
(-0.000906105 0 -6.3148e-05)
(-0.000923873 0 -5.20644e-05)
(-0.000941605 0 -4.22522e-05)
(-0.000947717 0 -3.68072e-05)
(-0.000934067 0 -1.26841e-05)
(-0.000911764 0 -2.88189e-05)
(-0.000878005 0 -7.54657e-05)
(-0.00081187 0 -3.36703e-05)
(-0.000770848 0 -6.93755e-05)
(-0.000767604 0 -8.49739e-05)
(-0.000708523 0 -0.000158788)
(-0.000543385 0 -9.46103e-05)
(-0.000390411 0 -3.40014e-05)
(-0.000288985 0 -3.49576e-05)
(-0.000206419 0 -1.81821e-05)
(-6.77121e-05 0 -9.36602e-05)
(8.39635e-05 0 -1.06106e-05)
(0.000166177 0 -2.44626e-05)
(0.000263704 0 -7.66801e-05)
(0.000367252 0 -8.70339e-05)
(0.000453643 0 2.23431e-05)
(0.000470487 0 -0.000103662)
(0.000520661 0 -3.89233e-05)
(0.000573572 0 -1.632e-05)
(0.000570432 0 -1.34993e-05)
(0.0005778 0 -1.4039e-05)
(0.000601838 0 1.51646e-05)
(0.000618769 0 7.60116e-06)
(0.000612649 0 3.54953e-06)
(0.000598082 0 5.29846e-07)
(0.000584945 0 -8.75236e-06)
(0.000572777 0 -1.7164e-05)
(0.000570406 0 -1.78089e-05)
(0.000582578 0 -1.4328e-05)
(0.00062364 0 -1.49935e-05)
(0.000630329 0 -1.28608e-05)
(0.000614613 0 -6.42197e-06)
(0.000573594 0 1.94515e-05)
(0.000511175 0 8.10561e-07)
(0.000429064 0 7.68333e-05)
(0.000341821 0 -5.18534e-05)
(0.00013831 0 7.06256e-05)
(-0.000261647 0 -0.000126228)
(-0.00018167 0 -9.43954e-05)
(-0.000297969 0 -0.000140934)
(-0.000407349 0 -0.000185779)
(-0.000627561 0 -0.000203243)
(9.15236e-06 0 -0.00018806)
(-1.4969e-12 0 1.01501e-13)
(-1.49976e-12 0 -5.50304e-14)
(-1.36239e-13 0 -5.82964e-14)
(-2.96094e-14 0 -4.83421e-14)
(5.64868e-14 0 -3.76304e-14)
(1.23213e-13 0 -2.89706e-14)
(1.75155e-13 0 -2.25596e-14)
(2.16278e-13 0 -1.81109e-14)
(2.50081e-13 0 -1.51442e-14)
(2.79038e-13 0 -1.31839e-14)
(3.04753e-13 0 -1.18342e-14)
(3.28142e-13 0 -1.07957e-14)
(3.49603e-13 0 -9.8581e-15)
(3.69182e-13 0 -8.8893e-15)
(3.86689e-13 0 -7.81598e-15)
(4.01804e-13 0 -6.60642e-15)
(4.14183e-13 0 -5.25876e-15)
(4.23528e-13 0 -3.78968e-15)
(4.29626e-13 0 -2.22514e-15)
(4.32356e-13 0 -5.9526e-16)
(4.31666e-13 0 1.07001e-15)
(4.27553e-13 0 2.74434e-15)
(4.20051e-13 0 4.40459e-15)
(4.09227e-13 0 6.02694e-15)
(3.95187e-13 0 7.58449e-15)
(3.78073e-13 0 9.04917e-15)
(3.58061e-13 0 1.03975e-14)
(3.35358e-13 0 1.1615e-14)
(3.102e-13 0 1.26976e-14)
(2.8285e-13 0 1.36491e-14)
(2.53583e-13 0 1.44763e-14)
(2.22678e-13 0 1.51854e-14)
(1.90407e-13 0 1.5781e-14)
(1.57031e-13 0 1.62654e-14)
(1.22802e-13 0 1.66402e-14)
(8.7965e-14 0 1.69038e-14)
(5.27739e-14 0 1.70395e-14)
(1.75616e-14 0 1.69721e-14)
(6.23666e-05 0 -0.000119198)
(3.03009e-05 0 -6.79887e-05)
(0.000104028 0 -6.38191e-06)
(5.61525e-06 0 7.76535e-06)
(-7.07583e-05 0 2.05536e-05)
(9.43449e-06 0 9.14048e-05)
(-0.000182391 0 0.000121356)
(-0.000222251 0 0.000189308)
(-0.000400039 0 0.00024684)
(-0.000635783 0 0.000293363)
(-0.000813868 0 0.000267423)
(-0.000907263 0 0.000249482)
(-0.00101926 0 4.22732e-05)
(-0.0011021 0 0.000139694)
(-0.0011717 0 0.000191895)
(-0.0012298 0 3.37695e-05)
(-0.00125064 0 4.85612e-05)
(-0.00126506 0 2.62217e-05)
(-0.00127309 0 6.75167e-06)
(-0.0012778 0 -8.20851e-06)
(-0.00127567 0 -2.81128e-05)
(-0.00124998 0 -3.59441e-05)
(-0.00122646 0 1.40058e-05)
(-0.00119848 0 -5.57293e-05)
(-0.00117154 0 -2.38459e-05)
(-0.00114261 0 -4.07946e-05)
(-0.00110981 0 -5.65547e-05)
(-0.00108659 0 -4.89062e-05)
(-0.00107166 0 -4.34483e-05)
(-0.00103756 0 -2.09025e-05)
(-0.000994762 0 -3.6233e-05)
(-0.000979419 0 -7.21994e-06)
(-0.000974548 0 4.22329e-05)
(-0.000972479 0 5.03877e-05)
(-0.000975592 0 6.69032e-05)
(-0.000985916 0 6.4953e-05)
(-0.00100834 0 5.94444e-05)
(-0.00102905 0 3.12278e-05)
(-0.001034 0 -1.40379e-05)
(-0.00103442 0 -4.41754e-05)
(-0.00103022 0 -3.38658e-05)
(-0.000964929 0 -8.49184e-05)
(-0.000904139 0 -0.000105378)
(-0.000868055 0 -4.73957e-05)
(-0.000807665 0 -2.19464e-05)
(-0.000650833 0 -0.000278261)
(-0.00046341 0 -0.000329224)
(-0.000395945 0 -0.000131074)
(-0.000328166 0 -3.63712e-05)
(-0.000149188 0 -0.000303101)
(-4.32124e-05 0 -0.000162502)
(0.0001164 0 -0.000115181)
(0.000193313 0 -0.000232546)
(0.000313246 0 -8.66005e-05)
(0.000357608 0 -6.18792e-05)
(0.000422258 0 -4.84621e-05)
(0.000471314 0 -0.000104015)
(0.000535619 0 6.94957e-05)
(0.000547099 0 -6.98208e-05)
(0.00056514 0 -3.05613e-05)
(0.000585345 0 -3.47185e-05)
(0.000601669 0 -1.34051e-05)
(0.000606608 0 9.81724e-06)
(0.000601845 0 1.66581e-05)
(0.000596054 0 1.49787e-05)
(0.00059589 0 1.83836e-05)
(0.000596407 0 -1.05008e-05)
(0.000594451 0 -5.74851e-05)
(0.000600838 0 -1.26869e-05)
(0.00060086 0 1.8975e-05)
(0.000588975 0 3.40258e-05)
(0.000552017 0 8.25834e-05)
(0.00049703 0 9.01634e-05)
(0.000435675 0 8.63745e-05)
(0.000375093 0 0.000204429)
(0.000335407 0 0.000179292)
(0.000235877 0 0.000257011)
(0.000120318 0 0.000195098)
(6.89909e-05 0 0.000145381)
(-0.000249139 0 -0.000229739)
(-0.000490505 0 -0.000263045)
(8.84207e-06 0 -0.000144506)
(-1.46972e-12 0 6.23843e-14)
(-1.58133e-12 0 -2.28592e-13)
(-1.30678e-13 0 -1.88278e-13)
(-9.58268e-15 0 -1.45934e-13)
(7.56637e-14 0 -1.10921e-13)
(1.38384e-13 0 -8.4484e-14)
(1.86026e-13 0 -6.5521e-14)
(2.23694e-13 0 -5.26386e-14)
(2.55008e-13 0 -4.41921e-14)
(2.82348e-13 0 -3.86895e-14)
(3.07141e-13 0 -3.49303e-14)
(3.30118e-13 0 -3.20294e-14)
(3.51509e-13 0 -2.93804e-14)
(3.71224e-13 0 -2.6604e-14)
(3.88972e-13 0 -2.34886e-14)
(4.04361e-13 0 -1.99383e-14)
(4.17e-13 0 -1.59443e-14)
(4.26561e-13 0 -1.15586e-14)
(4.32821e-13 0 -6.86584e-15)
(4.35652e-13 0 -1.96234e-15)
(4.35006e-13 0 3.05747e-15)
(4.30888e-13 0 8.10679e-15)
(4.23333e-13 0 1.31035e-14)
(4.12406e-13 0 1.79635e-14)
(3.98209e-13 0 2.26011e-14)
(3.80886e-13 0 2.69383e-14)
(3.60627e-13 0 3.09183e-14)
(3.37658e-13 0 3.45132e-14)
(3.12234e-13 0 3.77203e-14)
(2.84628e-13 0 4.05524e-14)
(2.55119e-13 0 4.30263e-14)
(2.23983e-13 0 4.51554e-14)
(1.91487e-13 0 4.69486e-14)
(1.5789e-13 0 4.84123e-14)
(1.23441e-13 0 4.95525e-14)
(8.83642e-14 0 5.03724e-14)
(5.28422e-14 0 5.0861e-14)
(1.74942e-14 0 5.09609e-14)
(4.79915e-05 0 -0.000145514)
(-6.91901e-05 0 -9.23142e-05)
(0.000107473 0 5.7318e-05)
(-4.81649e-05 0 3.07314e-05)
(-0.000154359 0 7.71637e-05)
(1.79007e-05 0 0.00027776)
(-0.000280351 0 0.00025819)
(-0.000440394 0 0.000329111)
(-0.000544986 0 0.000506571)
(-0.000728224 0 0.00052067)
(-0.000882374 0 0.000459278)
(-0.00100442 0 0.000335825)
(-0.00106344 0 0.000311112)
(-0.00112677 0 0.000246987)
(-0.00118747 0 0.000131823)
(-0.00122047 0 0.000132717)
(-0.00123905 0 6.70936e-05)
(-0.00125827 0 4.25268e-05)
(-0.00128601 0 -2.97889e-06)
(-0.0012921 0 -3.25716e-05)
(-0.00129168 0 -4.40723e-05)
(-0.00128608 0 -7.20313e-05)
(-0.00127939 0 -4.47011e-05)
(-0.00127607 0 -5.42884e-05)
(-0.00127301 0 -6.5712e-05)
(-0.00124877 0 -6.44987e-05)
(-0.00122808 0 -7.84385e-05)
(-0.00121739 0 -0.000101136)
(-0.0012104 0 -0.000113282)
(-0.00120371 0 -8.40971e-05)
(-0.00120195 0 -7.2912e-05)
(-0.00120277 0 -6.17287e-05)
(-0.00119268 0 -2.70656e-05)
(-0.00119103 0 -2.38305e-05)
(-0.00120287 0 -1.1052e-05)
(-0.00120719 0 -9.79203e-06)
(-0.00120335 0 5.35979e-06)
(-0.00118606 0 2.22744e-05)
(-0.00114818 0 -2.1558e-05)
(-0.00111218 0 -7.7671e-05)
(-0.00108348 0 -7.22149e-05)
(-0.00103373 0 -0.000149036)
(-0.000949432 0 -0.000245667)
(-0.000900097 0 -0.000135046)
(-0.000854189 0 -0.000115451)
(-0.000687325 0 -0.000457408)
(-0.000559109 0 -0.000410698)
(-0.000554981 0 -0.000182014)
(-0.000418674 0 -0.000317418)
(-0.000187712 0 -0.000449667)
(-0.000210597 0 -0.000245735)
(-5.228e-05 0 -0.00036008)
(8.02149e-05 0 -0.000295423)
(0.000161901 0 -0.000132295)
(0.000237805 0 -0.000116226)
(0.000301439 0 -0.000119261)
(0.000342421 0 -0.000160628)
(0.000456287 0 -3.05741e-06)
(0.000488121 0 -0.000118495)
(0.000533863 0 -5.19109e-05)
(0.000569825 0 -9.20611e-05)
(0.00062495 0 -3.23567e-05)
(0.000629681 0 7.99171e-06)
(0.000618309 0 1.75797e-05)
(0.000602977 0 2.46527e-06)
(0.000603926 0 -3.77155e-06)
(0.000610553 0 -1.17321e-05)
(0.000606084 0 -1.65469e-05)
(0.000577518 0 -5.02668e-05)
(0.000541749 0 3.67219e-05)
(0.000525939 0 4.77354e-05)
(0.000491455 0 0.000143397)
(0.000474568 0 0.000129614)
(0.000426622 0 0.000168737)
(0.000403402 0 0.000228217)
(0.00038145 0 0.0002852)
(0.000328992 0 0.000298951)
(0.000242419 0 0.000280633)
(0.000212098 0 0.000201635)
(0.000314357 0 0.000152997)
(-0.000247607 0 -0.000133333)
(9.14679e-06 0 -9.24113e-05)
(-1.40849e-12 0 -2.13191e-13)
(-1.49584e-12 0 -4.51474e-13)
(-5.44835e-14 0 -3.20504e-13)
(4.73313e-14 0 -2.36428e-13)
(1.17965e-13 0 -1.7586e-13)
(1.68829e-13 0 -1.32438e-13)
(2.07016e-13 0 -1.02448e-13)
(2.37607e-13 0 -8.27875e-14)
(2.6403e-13 0 -7.03464e-14)
(2.883e-13 0 -6.24881e-14)
(3.11413e-13 0 -5.71906e-14)
(3.33692e-13 0 -5.30219e-14)
(3.55028e-13 0 -4.9039e-14)
(3.75074e-13 0 -4.46711e-14)
(3.93354e-13 0 -3.96145e-14)
(4.09348e-13 0 -3.37448e-14)
(4.22562e-13 0 -2.70699e-14)
(4.32606e-13 0 -1.96921e-14)
(4.39223e-13 0 -1.1767e-14)
(4.4228e-13 0 -3.47112e-15)
(4.41736e-13 0 5.01887e-15)
(4.37599e-13 0 1.35363e-14)
(4.29907e-13 0 2.19254e-14)
(4.18724e-13 0 3.00386e-14)
(4.04161e-13 0 3.77401e-14)
(3.8639e-13 0 4.49183e-14)
(3.65636e-13 0 5.14993e-14)
(3.4216e-13 0 5.745e-14)
(3.16239e-13 0 6.27696e-14)
(2.88156e-13 0 6.74746e-14)
(2.58186e-13 0 7.15853e-14)
(2.266e-13 0 7.51203e-14)
(1.93664e-13 0 7.80954e-14)
(1.59635e-13 0 8.05264e-14)
(1.24762e-13 0 8.24303e-14)
(8.92735e-14 0 8.38243e-14)
(5.33625e-14 0 8.4725e-14)
(1.76615e-14 0 8.51622e-14)
(1.74281e-05 0 -0.000143527)
(-8.94814e-05 0 -4.03949e-05)
(-4.17984e-05 0 2.74926e-05)
(-0.000122261 0 0.000143674)
(-0.000328803 0 0.000150706)
(-0.000496849 0 7.97158e-05)
(-0.000472564 0 0.000391981)
(-0.000619046 0 0.000493793)
(-0.000789083 0 0.000499246)
(-0.00083002 0 0.000556158)
(-0.000912938 0 0.000474125)
(-0.000989954 0 0.000357193)
(-0.00105054 0 0.000313068)
(-0.00110802 0 0.000315439)
(-0.00116853 0 0.000220299)
(-0.0011886 0 0.000174671)
(-0.00121409 0 8.40414e-06)
(-0.00125844 0 1.19417e-05)
(-0.00128199 0 3.19931e-05)
(-0.00128283 0 -2.2187e-05)
(-0.00129462 0 -4.04841e-05)
(-0.00131444 0 -4.80217e-05)
(-0.00131119 0 -5.77972e-05)
(-0.0012968 0 -8.42339e-05)
(-0.00129305 0 -7.02393e-05)
(-0.00128716 0 -4.48707e-05)
(-0.00127899 0 -8.21665e-05)
(-0.00127819 0 -8.25106e-05)
(-0.00128134 0 -4.29469e-05)
(-0.00128028 0 -4.61451e-05)
(-0.00129114 0 -2.61962e-05)
(-0.00130648 0 -1.75435e-06)
(-0.00131167 0 1.02429e-05)
(-0.00131354 0 2.06488e-05)
(-0.00130277 0 9.90753e-05)
(-0.00128151 0 3.7916e-05)
(-0.00125738 0 1.35845e-05)
(-0.00123971 0 -7.54604e-06)
(-0.0012026 0 -0.000123809)
(-0.00113076 0 -0.000158733)
(-0.00108149 0 -9.31207e-05)
(-0.00103247 0 -0.000178158)
(-0.000955818 0 -0.000255574)
(-0.00088074 0 -0.000197677)
(-0.000831886 0 -0.000229504)
(-0.000683401 0 -0.000521136)
(-0.000648166 0 -0.000388629)
(-0.000616895 0 -0.000261246)
(-0.000437259 0 -0.000450609)
(-0.000284629 0 -0.000478731)
(-0.000302704 0 -0.000344128)
(-5.7024e-05 0 -0.000470396)
(-8.17326e-05 0 -0.000275151)
(-6.14228e-05 0 -0.000277743)
(8.3116e-05 0 -0.000275385)
(0.000160872 0 -0.000199739)
(0.000218623 0 -0.000209145)
(0.000316631 0 -0.000131247)
(0.000379586 0 -0.000110658)
(0.000419777 0 -0.000149248)
(0.000489345 0 -8.54734e-05)
(0.000548123 0 -2.80747e-05)
(0.000571666 0 1.81477e-05)
(0.000570926 0 2.21909e-05)
(0.000568379 0 2.59136e-05)
(0.000564482 0 1.41479e-05)
(0.00055627 0 6.0544e-06)
(0.000541889 0 9.11905e-06)
(0.000511947 0 2.7306e-05)
(0.000478703 0 3.55369e-05)
(0.000449569 0 9.88732e-05)
(0.000434812 0 0.00014709)
(0.000427223 0 0.000177617)
(0.000400708 0 0.00022547)
(0.000384375 0 0.00025806)
(0.000378162 0 0.000285371)
(0.000373032 0 0.0003228)
(0.000386119 0 0.000295966)
(0.000305299 0 0.000319577)
(0.000399971 0 7.71997e-05)
(-0.000140191 0 -0.000192463)
(9.61286e-06 0 0.000135015)
(-1.37737e-12 0 8.50997e-14)
(-1.2076e-12 0 -5.32112e-13)
(8.48385e-14 0 -4.06056e-13)
(1.35533e-13 0 -3.03656e-13)
(1.80118e-13 0 -2.23945e-13)
(2.12031e-13 0 -1.67093e-13)
(2.35683e-13 0 -1.29467e-13)
(2.55795e-13 0 -1.06203e-13)
(2.75307e-13 0 -9.24359e-14)
(2.95504e-13 0 -8.4261e-14)
(3.16608e-13 0 -7.88566e-14)
(3.3827e-13 0 -7.4334e-14)
(3.5986e-13 0 -6.95225e-14)
(3.80649e-13 0 -6.37669e-14)
(3.99898e-13 0 -5.67668e-14)
(4.16906e-13 0 -4.84471e-14)
(4.31052e-13 0 -3.88883e-14)
(4.41864e-13 0 -2.82794e-14)
(4.49042e-13 0 -1.68734e-14)
(4.52437e-13 0 -4.95063e-15)
(4.52013e-13 0 7.20858e-15)
(4.47794e-13 0 1.93441e-14)
(4.39836e-13 0 3.12279e-14)
(4.28221e-13 0 4.26643e-14)
(4.13089e-13 0 5.34881e-14)
(3.94645e-13 0 6.35675e-14)
(3.73159e-13 0 7.28109e-14)
(3.48928e-13 0 8.11699e-14)
(3.22259e-13 0 8.86328e-14)
(2.93444e-13 0 9.52126e-14)
(2.62765e-13 0 1.00936e-13)
(2.30493e-13 0 1.05835e-13)
(1.96893e-13 0 1.09945e-13)
(1.62225e-13 0 1.13301e-13)
(1.26738e-13 0 1.15937e-13)
(9.0659e-14 0 1.17883e-13)
(5.41802e-14 0 1.19163e-13)
(1.79314e-14 0 1.19794e-13)
(-0.000100295 0 -0.000113294)
(-5.99713e-05 0 1.31874e-05)
(-0.000109731 0 8.468e-05)
(-4.46385e-05 0 0.000284931)
(-0.000372244 0 0.000251262)
(-0.000399639 0 0.000474433)
(-0.000728707 0 0.000387801)
(-0.000619406 0 0.000735393)
(-0.000895574 0 0.000576192)
(-0.000862946 0 0.000648279)
(-0.000913106 0 0.000558959)
(-0.000944336 0 0.000481085)
(-0.00104448 0 0.000304743)
(-0.00105837 0 0.000358462)
(-0.00109257 0 0.000321319)
(-0.00112864 0 0.00020545)
(-0.00118263 0 0.00011748)
(-0.00122708 0 0.000115379)
(-0.00123745 0 8.65715e-05)
(-0.00124545 0 -1.70408e-05)
(-0.00128164 0 -6.58401e-05)
(-0.0012953 0 -1.71887e-06)
(-0.00129637 0 -5.92372e-05)
(-0.00129791 0 -7.53202e-05)
(-0.00129339 0 -8.60829e-05)
(-0.00129135 0 -7.44737e-05)
(-0.00129137 0 -8.02156e-05)
(-0.00128198 0 -9.2158e-05)
(-0.00127648 0 -6.08543e-05)
(-0.00127681 0 -5.69219e-05)
(-0.00129686 0 -4.24586e-05)
(-0.00131787 0 -3.09226e-05)
(-0.00132582 0 -2.68425e-05)
(-0.00131546 0 -1.10828e-05)
(-0.00127987 0 2.5353e-06)
(-0.00124596 0 -2.02625e-05)
(-0.0012097 0 -4.39373e-05)
(-0.00119252 0 -5.00113e-05)
(-0.00118263 0 -5.17181e-05)
(-0.00110906 0 -0.000129325)
(-0.00101718 0 -0.000240769)
(-0.00094786 0 -0.00028412)
(-0.000885031 0 -0.000270472)
(-0.000807285 0 -0.00031479)
(-0.000755313 0 -0.000381116)
(-0.000723412 0 -0.000447617)
(-0.000588008 0 -0.000534085)
(-0.000598389 0 -0.000433492)
(-0.00044276 0 -0.000562674)
(-0.000326354 0 -0.000590858)
(-0.000322454 0 -0.000522285)
(-0.000256175 0 -0.000453824)
(-0.000279943 0 -0.000327921)
(-3.3377e-05 0 -0.000386159)
(-0.000144988 0 -0.000276475)
(-2.62018e-05 0 -0.000307463)
(9.95466e-05 0 -0.00030686)
(0.000179848 0 -0.00022894)
(0.000263877 0 -0.000183557)
(0.000309169 0 -0.000182693)
(0.000370702 0 -0.000127823)
(0.000411246 0 -8.50464e-05)
(0.000431038 0 -2.93274e-05)
(0.000447892 0 1.97748e-05)
(0.00045835 0 1.31415e-05)
(0.000463406 0 4.87671e-06)
(0.000463221 0 4.61233e-06)
(0.000450053 0 1.82608e-05)
(0.000428593 0 3.98456e-05)
(0.000409894 0 8.40968e-05)
(0.000384496 0 0.000134986)
(0.000374435 0 0.000167264)
(0.000378668 0 0.000190067)
(0.000374205 0 0.000233451)
(0.000349433 0 0.000279688)
(0.000350261 0 0.000293498)
(0.000362992 0 0.000312947)
(0.000381341 0 0.000284267)
(0.000345231 0 0.000275934)
(0.000393877 0 9.5259e-05)
(-5.38731e-05 0 -2.59917e-06)
(9.65734e-06 0 0.000255986)
(-1.44834e-12 0 7.44392e-13)
(-1.20671e-12 0 -5.51246e-13)
(1.7442e-13 0 -4.6798e-13)
(2.29889e-13 0 -3.48267e-13)
(2.54959e-13 0 -2.49311e-13)
(2.63515e-13 0 -1.82536e-13)
(2.67907e-13 0 -1.42413e-13)
(2.74639e-13 0 -1.20475e-13)
(2.85972e-13 0 -1.0934e-13)
(3.01879e-13 0 -1.03716e-13)
(3.2134e-13 0 -1.00121e-13)
(3.43026e-13 0 -9.64115e-14)
(3.65596e-13 0 -9.13802e-14)
(3.8783e-13 0 -8.44518e-14)
(4.08674e-13 0 -7.54597e-14)
(4.27227e-13 0 -6.4478e-14)
(4.4273e-13 0 -5.17323e-14)
(4.54621e-13 0 -3.75527e-14)
(4.62551e-13 0 -2.23296e-14)
(4.66362e-13 0 -6.47424e-15)
(4.6603e-13 0 9.61447e-15)
(4.61619e-13 0 2.55786e-14)
(4.53228e-13 0 4.11211e-14)
(4.40984e-13 0 5.60062e-14)
(4.25065e-13 0 7.00476e-14)
(4.05713e-13 0 8.30979e-14)
(3.83239e-13 0 9.50482e-14)
(3.57982e-13 0 1.05833e-13)
(3.30282e-13 0 1.15428e-13)
(3.00459e-13 0 1.23848e-13)
(2.68808e-13 0 1.31135e-13)
(2.35609e-13 0 1.37346e-13)
(2.0113e-13 0 1.42542e-13)
(1.65627e-13 0 1.46784e-13)
(1.29345e-13 0 1.50123e-13)
(9.2499e-14 0 1.52598e-13)
(5.52726e-14 0 1.54235e-13)
(1.82924e-14 0 1.55044e-13)
(-0.000131393 0 -7.16875e-05)
(-7.15759e-05 0 5.38731e-05)
(-0.000213937 0 0.000121827)
(-0.000107443 0 0.00038927)
(-0.000330758 0 0.000467561)
(-0.000192862 0 0.000729203)
(-0.000641183 0 0.000631009)
(-0.000749209 0 0.000653507)
(-0.000790257 0 0.000719909)
(-0.00083942 0 0.000682823)
(-0.000882239 0 0.000604241)
(-0.000898859 0 0.000552922)
(-0.000992047 0 0.000397515)
(-0.0010113 0 0.000361102)
(-0.0010282 0 0.000292713)
(-0.00103596 0 0.000243134)
(-0.00107508 0 0.000131079)
(-0.00112995 0 7.80499e-05)
(-0.0011521 0 9.05221e-05)
(-0.00118253 0 -0.000120377)
(-0.00120862 0 2.54084e-05)
(-0.00121369 0 -6.01222e-05)
(-0.00122254 0 -7.35364e-05)
(-0.00122442 0 -6.63051e-05)
(-0.00122546 0 -7.75208e-05)
(-0.00124613 0 -7.67555e-05)
(-0.00125559 0 -9.29839e-05)
(-0.00126006 0 -8.61743e-05)
(-0.00126095 0 -7.4177e-05)
(-0.00125927 0 -4.89438e-05)
(-0.00125781 0 -1.43978e-05)
(-0.0012567 0 1.44002e-05)
(-0.00125749 0 3.88084e-05)
(-0.00124594 0 -2.56493e-05)
(-0.0012248 0 -2.49198e-05)
(-0.00118264 0 -9.52416e-06)
(-0.00111486 0 -0.000143234)
(-0.0010603 0 -0.00016664)
(-0.00102678 0 -0.000187642)
(-0.000993846 0 -0.00025254)
(-0.000947911 0 -0.000293639)
(-0.00088141 0 -0.000321868)
(-0.000812409 0 -0.000334429)
(-0.000757732 0 -0.000373473)
(-0.000723906 0 -0.000424561)
(-0.000690356 0 -0.000492013)
(-0.000599697 0 -0.000565464)
(-0.000558843 0 -0.000576293)
(-0.000494818 0 -0.000616396)
(-0.000582651 0 -0.000508956)
(-0.000254146 0 -0.000679091)
(-0.000444642 0 -0.000433615)
(-0.000158906 0 -0.000521536)
(-0.000323624 0 -0.000343065)
(-0.000161462 0 -0.00037317)
(-8.52568e-05 0 -0.000361226)
(-0.000101461 0 -0.000324658)
(-1.69581e-05 0 -0.000335137)
(2.15749e-05 0 -0.000336983)
(0.000156731 0 -0.000278542)
(0.000234626 0 -0.000172546)
(0.000294669 0 -8.15757e-05)
(0.000305738 0 -3.08003e-05)
(0.000312772 0 -2.09537e-05)
(0.000333941 0 -8.46254e-06)
(0.000360597 0 -1.11245e-05)
(0.000380065 0 3.00488e-05)
(0.000379317 0 4.72559e-05)
(0.000371157 0 6.07037e-05)
(0.000343981 0 0.000109217)
(0.00033801 0 0.000127526)
(0.000348255 0 0.000137568)
(0.000347538 0 0.000178389)
(0.000339243 0 0.000222975)
(0.000309194 0 0.000276541)
(0.000331483 0 0.000258165)
(0.000322233 0 0.000299595)
(0.000344267 0 0.000268878)
(0.000337959 0 0.000244584)
(0.000367917 0 0.000137365)
(-0.000102137 0 9.36887e-05)
(1.02985e-05 0 0.000441337)
(-1.72581e-12 0 1.20381e-12)
(-1.2329e-12 0 -7.45049e-13)
(2.88239e-13 0 -5.66178e-13)
(3.54623e-13 0 -3.71945e-13)
(3.46236e-13 0 -2.42389e-13)
(3.19106e-13 0 -1.71187e-13)
(2.97744e-13 0 -1.37291e-13)
(2.88868e-13 0 -1.2412e-13)
(2.92066e-13 0 -1.20963e-13)
(3.04723e-13 0 -1.21432e-13)
(3.23912e-13 0 -1.21848e-13)
(3.47011e-13 0 -1.20203e-13)
(3.7182e-13 0 -1.15535e-13)
(3.96569e-13 0 -1.07558e-13)
(4.19872e-13 0 -9.63941e-14)
(4.40633e-13 0 -8.23886e-14)
(4.57978e-13 0 -6.60049e-14)
(4.71267e-13 0 -4.77791e-14)
(4.8012e-13 0 -2.82821e-14)
(4.84382e-13 0 -8.08034e-15)
(4.84066e-13 0 1.2297e-14)
(4.79301e-13 0 3.23894e-14)
(4.70263e-13 0 5.18286e-14)
(4.57148e-13 0 7.03385e-14)
(4.4018e-13 0 8.77145e-14)
(4.19646e-13 0 1.03801e-13)
(3.95893e-13 0 1.1848e-13)
(3.69308e-13 0 1.31679e-13)
(3.40275e-13 0 1.43372e-13)
(3.09152e-13 0 1.53586e-13)
(2.76262e-13 0 1.62384e-13)
(2.41899e-13 0 1.69852e-13)
(2.06331e-13 0 1.76086e-13)
(1.69806e-13 0 1.81171e-13)
(1.32553e-13 0 1.85177e-13)
(9.47708e-14 0 1.88152e-13)
(5.66258e-14 0 1.90122e-13)
(1.87406e-14 0 1.911e-13)
(-0.000108117 0 5.82083e-05)
(-0.000138597 0 0.000166512)
(-0.000433248 0 0.000194763)
(-0.000527865 0 0.000319004)
(-0.000643422 0 0.000425036)
(-0.000620833 0 0.000595852)
(-0.000693553 0 0.000677098)
(-0.000698725 0 0.00074958)
(-0.000774269 0 0.000734185)
(-0.000800355 0 0.0007169)
(-0.000837133 0 0.000639002)
(-0.000859618 0 0.000565991)
(-0.000884041 0 0.00051405)
(-0.000941838 0 0.000390938)
(-0.000941875 0 0.000350602)
(-0.000950983 0 0.000297444)
(-0.00100589 0 8.94456e-05)
(-0.0010044 0 0.000242428)
(-0.00105431 0 0.000118871)
(-0.00107414 0 6.51888e-05)
(-0.00108292 0 4.41476e-05)
(-0.00109596 0 8.8775e-06)
(-0.00110649 0 6.35892e-06)
(-0.00110445 0 -7.76456e-05)
(-0.00113141 0 -7.70759e-05)
(-0.00116072 0 -6.05665e-05)
(-0.0011676 0 -7.09057e-05)
(-0.00116951 0 -9.26143e-05)
(-0.001173 0 -6.57856e-05)
(-0.00116585 0 -2.1828e-05)
(-0.00114244 0 -3.60438e-05)
(-0.00112167 0 -3.07396e-05)
(-0.00110462 0 -3.66067e-05)
(-0.00108833 0 -6.26986e-05)
(-0.00106018 0 -9.29909e-05)
(-0.00101334 0 -0.000114547)
(-0.000970359 0 -0.000119333)
(-0.000936004 0 -0.000150284)
(-0.000918745 0 -0.000179209)
(-0.000911417 0 -0.000217452)
(-0.000846457 0 -0.000401718)
(-0.000832276 0 -0.000312099)
(-0.000743352 0 -0.000410674)
(-0.000711666 0 -0.00043722)
(-0.000674537 0 -0.000490175)
(-0.000638357 0 -0.000551381)
(-0.000641462 0 -0.000551958)
(-0.000574256 0 -0.000630033)
(-0.000609686 0 -0.000604503)
(-0.000464502 0 -0.00070719)
(-0.000539517 0 -0.000585641)
(-0.000386417 0 -0.000577051)
(-0.000395762 0 -0.000494958)
(-0.000284242 0 -0.000489533)
(-0.000200456 0 -0.000475612)
(-0.000182426 0 -0.000417481)
(-8.57258e-05 0 -0.000410757)
(-3.23382e-05 0 -0.000385618)
(1.37233e-05 0 -0.000346744)
(9.11758e-07 0 -0.000335656)
(5.30457e-05 0 -0.000274376)
(0.000175847 0 -0.000122737)
(0.000189517 0 -4.8761e-05)
(0.000211065 0 -2.59532e-05)
(0.00023028 0 -4.52938e-05)
(0.000259157 0 -3.06043e-05)
(0.000284625 0 -4.96248e-06)
(0.0003091 0 2.85157e-05)
(0.000306956 0 8.8294e-05)
(0.000302854 0 0.000110004)
(0.000320483 0 0.000115389)
(0.000290572 0 0.000196519)
(0.000282609 0 0.000218806)
(0.000253113 0 0.000259334)
(0.000243636 0 0.000284927)
(0.000262434 0 0.000272276)
(0.000270669 0 0.000277022)
(0.000277491 0 0.000271441)
(0.000286779 0 0.000242043)
(0.000321383 0 0.000175628)
(-0.000133524 0 0.000187415)
(1.10985e-05 0 0.000648251)
(-2.20412e-12 0 2.10673e-12)
(-1.16879e-12 0 -1.24542e-12)
(5.47889e-13 0 -6.79432e-13)
(5.54063e-13 0 -3.30562e-13)
(4.56056e-13 0 -1.76765e-13)
(3.68757e-13 0 -1.22226e-13)
(3.14975e-13 0 -1.11368e-13)
(2.90967e-13 0 -1.17722e-13)
(2.8866e-13 0 -1.28953e-13)
(3.00993e-13 0 -1.39222e-13)
(3.22569e-13 0 -1.45713e-13)
(3.49339e-13 0 -1.47171e-13)
(3.78241e-13 0 -1.43232e-13)
(4.06971e-13 0 -1.34116e-13)
(4.33843e-13 0 -1.20395e-13)
(4.57616e-13 0 -1.02803e-13)
(4.7734e-13 0 -8.21395e-14)
(4.92344e-13 0 -5.92177e-14)
(5.0225e-13 0 -3.48363e-14)
(5.06941e-13 0 -9.74445e-15)
(5.065e-13 0 1.53872e-14)
(5.0115e-13 0 3.99912e-14)
(4.91177e-13 0 6.36248e-14)
(4.7687e-13 0 8.59695e-14)
(4.58527e-13 0 1.06806e-13)
(4.36479e-13 0 1.25983e-13)
(4.11117e-13 0 1.43392e-13)
(3.82874e-13 0 1.58972e-13)
(3.52189e-13 0 1.72714e-13)
(3.1947e-13 0 1.84664e-13)
(2.85074e-13 0 1.94913e-13)
(2.49311e-13 0 2.03583e-13)
(2.12448e-13 0 2.108e-13)
(1.74718e-13 0 2.16676e-13)
(1.36325e-13 0 2.21301e-13)
(9.74444e-14 0 2.24734e-13)
(5.8221e-14 0 2.2701e-13)
(1.92702e-14 0 2.28142e-13)
(-6.56467e-05 0 0.000111935)
(-3.51763e-05 0 0.000325009)
(-0.000174122 0 0.000414966)
(-0.000464637 0 0.000501265)
(-0.000571209 0 0.000673827)
(-0.000712445 0 0.000689538)
(-0.000644417 0 0.000824021)
(-0.000691516 0 0.000820323)
(-0.000726515 0 0.000797394)
(-0.000766112 0 0.000746294)
(-0.000851397 0 0.000588548)
(-0.000821668 0 0.000556836)
(-0.000829558 0 0.000482676)
(-0.000853451 0 0.000392509)
(-0.00085831 0 0.000349655)
(-0.000877942 0 0.000282136)
(-0.000921732 0 0.000171849)
(-0.000924037 0 0.000183895)
(-0.000926916 0 0.000144082)
(-0.000940621 0 -4.90257e-06)
(-0.000950173 0 2.01465e-05)
(-0.000983033 0 -6.53645e-05)
(-0.000994089 0 -3.87146e-05)
(-0.000996218 0 -8.99874e-05)
(-0.00100859 0 -5.48723e-05)
(-0.00102024 0 7.58583e-07)
(-0.00102368 0 -8.90849e-05)
(-0.00103055 0 -6.37653e-05)
(-0.00103121 0 -6.93382e-05)
(-0.00103049 0 -6.98913e-05)
(-0.00101768 0 -6.44989e-05)
(-0.000991337 0 -3.39962e-05)
(-0.000955168 0 -3.94148e-05)
(-0.00092091 0 -8.06893e-05)
(-0.000897003 0 -7.87569e-05)
(-0.000863144 0 -0.000116201)
(-0.000818038 0 -0.000181824)
(-0.000790875 0 -0.000200215)
(-0.000780077 0 -0.00022049)
(-0.000760275 0 -0.000307676)
(-0.000767087 0 -0.00032637)
(-0.000738699 0 -0.000385562)
(-0.000676465 0 -0.000450255)
(-0.000695546 0 -0.000413029)
(-0.000644435 0 -0.000497697)
(-0.000605176 0 -0.000576264)
(-0.000634709 0 -0.00057442)
(-0.000594543 0 -0.00064389)
(-0.000571681 0 -0.000678089)
(-0.000584305 0 -0.000670994)
(-0.000536854 0 -0.000660133)
(-0.000473615 0 -0.000615321)
(-0.000441737 0 -0.00055775)
(-0.000361566 0 -0.000550226)
(-0.000356292 0 -0.000490643)
(-0.00026399 0 -0.000487287)
(-0.000192479 0 -0.000468692)
(-0.000165807 0 -0.000423253)
(-0.00012194 0 -0.000381968)
(-0.000116435 0 -0.000332665)
(-6.57848e-05 0 -0.000287817)
(-3.40422e-06 0 -0.000203041)
(6.26706e-05 0 -0.000109419)
(0.000122618 0 -7.10854e-05)
(0.000146317 0 -5.88966e-05)
(0.000176316 0 -4.17398e-05)
(0.000195424 0 -3.56805e-05)
(0.000224682 0 1.96224e-05)
(0.000249286 0 4.12682e-05)
(0.000289625 0 3.81955e-05)
(0.000276052 0 0.000149036)
(0.000256028 0 0.000186633)
(0.000223989 0 0.000227915)
(0.000238355 0 0.000229837)
(0.000209527 0 0.000274423)
(0.000213522 0 0.000269281)
(0.000222816 0 0.000258019)
(0.000230325 0 0.000260649)
(0.00024134 0 0.000243735)
(0.000301602 0 0.000217597)
(-0.000209377 0 0.00026822)
(1.21437e-05 0 0.000957421)
(-2.98773e-12 0 3.35033e-12)
(-1.02453e-12 0 -2.66202e-12)
(1.20336e-12 0 -5.75358e-13)
(8.57634e-13 0 -9.37606e-14)
(5.54865e-13 0 -1.13902e-14)
(3.84613e-13 0 -2.9105e-14)
(3.02248e-13 0 -6.79232e-14)
(2.71283e-13 0 -1.06178e-13)
(2.70567e-13 0 -1.37647e-13)
(2.87962e-13 0 -1.60526e-13)
(3.15963e-13 0 -1.74375e-13)
(3.49492e-13 0 -1.79365e-13)
(3.84874e-13 0 -1.76059e-13)
(4.19406e-13 0 -1.65351e-13)
(4.51185e-13 0 -1.48378e-13)
(4.78888e-13 0 -1.26373e-13)
(5.01563e-13 0 -1.00555e-13)
(5.1857e-13 0 -7.20846e-14)
(5.29593e-13 0 -4.20364e-14)
(5.34605e-13 0 -1.13714e-14)
(5.33802e-13 0 1.90851e-14)
(5.27539e-13 0 4.86568e-14)
(5.16241e-13 0 7.68284e-14)
(5.00329e-13 0 1.03242e-13)
(4.80194e-13 0 1.27673e-13)
(4.56232e-13 0 1.49988e-13)
(4.28883e-13 0 1.70112e-13)
(3.9863e-13 0 1.88021e-13)
(3.65966e-13 0 2.03741e-13)
(3.31351e-13 0 2.17351e-13)
(2.95182e-13 0 2.28979e-13)
(2.57785e-13 0 2.38777e-13)
(2.19423e-13 0 2.46905e-13)
(1.80308e-13 0 2.53504e-13)
(1.40612e-13 0 2.58686e-13)
(1.0048e-13 0 2.62526e-13)
(6.00332e-14 0 2.65068e-13)
(1.98728e-14 0 2.66335e-13)
(-0.000207554 0 0.000119764)
(-0.000174265 0 0.000398627)
(-1.50135e-06 0 0.000580307)
(-0.000267932 0 0.000655472)
(-0.000413194 0 0.000777661)
(-0.000499276 0 0.000863353)
(-0.000605626 0 0.00085148)
(-0.000663488 0 0.000838473)
(-0.000662471 0 0.000849906)
(-0.000668853 0 0.000827774)
(-0.000670116 0 0.000752794)
(-0.000715077 0 0.000637557)
(-0.000767829 0 0.000502262)
(-0.000756398 0 0.000443089)
(-0.000759113 0 0.000383514)
(-0.000777746 0 0.00032457)
(-0.000831524 0 0.000204836)
(-0.000835366 0 0.000202066)
(-0.000840738 0 0.000139481)
(-0.000846809 0 9.59851e-05)
(-0.000875147 0 -1.47491e-05)
(-0.000887855 0 6.08758e-05)
(-0.000891865 0 -1.84061e-06)
(-0.000886715 0 -5.182e-05)
(-0.000880986 0 -2.43746e-05)
(-0.0008707 0 -4.63904e-05)
(-0.000873701 0 -6.78584e-05)
(-0.000892027 0 -8.51762e-05)
(-0.000902513 0 -7.48505e-05)
(-0.000905502 0 -6.97794e-05)
(-0.000888599 0 -7.51008e-05)
(-0.000848812 0 -7.3294e-05)
(-0.000814525 0 -6.70499e-05)
(-0.000785117 0 -9.99801e-05)
(-0.000765754 0 -0.00012431)
(-0.000744227 0 -0.000159356)
(-0.000708588 0 -0.000215102)
(-0.000683313 0 -0.0002135)
(-0.000667861 0 -0.000229084)
(-0.00065609 0 -0.000289461)
(-0.000646209 0 -0.000355674)
(-0.000640954 0 -0.00038231)
(-0.00061138 0 -0.000442299)
(-0.000545357 0 -0.000546181)
(-0.000526721 0 -0.000585101)
(-0.000584671 0 -0.000559152)
(-0.000619504 0 -0.000579393)
(-0.000595819 0 -0.00064473)
(-0.000582931 0 -0.000680537)
(-0.000577862 0 -0.000697411)
(-0.000514073 0 -0.000712817)
(-0.000516728 0 -0.00063784)
(-0.000469716 0 -0.000610907)
(-0.000440427 0 -0.000584576)
(-0.000363789 0 -0.000583079)
(-0.000332459 0 -0.000542129)
(-0.000298463 0 -0.000503809)
(-0.000229164 0 -0.000477351)
(-0.000206617 0 -0.000405967)
(-0.000148852 0 -0.000368433)
(-0.000154994 0 -0.000301655)