0 	1.08887e-20 	0 	-2.17774e-20
0.010101 	-1.5902e-20 	3.04657e-22 	-6.18632e-20
0.020202 	3.97447e-20 	-3.34534e-23 	-6.0133e-20
0.030303 	-6.9268e-20 	3.39644e-23 	-8.72077e-20
0.040404 	9.63439e-21 	2.03105e-22 	-4.13481e-20
0.0505051 	-2.53415e-20 	-1.70326e-25 	-1.69359e-20
