/*--------------------------------*- C++ -*----------------------------------*\
  =========                 |
  \\      /  F ield         | OpenFOAM: The Open Source CFD Toolbox
   \\    /   O peration     | Website:  https://openfoam.org
    \\  /    A nd           | Version:  6
     \\/     M anipulation  |
\*---------------------------------------------------------------------------*/
FoamFile
{
    version     2.0;
    format      ascii;
    class       surfaceScalarField;
    location    "4800";
    object      phi;
}
// * * * * * * * * * * * * * * * * * * * * * * * * * * * * * * * * * * * * * //

dimensions      [0 3 -1 0 0 0 0];

internalField   nonuniform List<scalar> 
9440
(
-2.07594e-10
2.07594e-10
-3.5621e-10
1.48616e-10
-2.58023e-10
-9.81873e-11
-3.10528e-11
-2.2697e-10
3.25702e-10
-3.56755e-10
6.48177e-10
-3.22474e-10
8.44198e-10
-1.96021e-10
2.60491e-09
-1.76071e-09
2.76542e-09
-1.6051e-10
3.16904e-09
-4.03622e-10
3.83923e-09
-6.70194e-10
4.45509e-09
-6.15857e-10
4.88354e-09
-4.28444e-10
5.1597e-09
-2.76169e-10
5.35084e-09
-1.91137e-10
5.53024e-09
-1.79397e-10
5.53277e-09
-2.5303e-12
5.61309e-09
-8.03222e-11
5.76523e-09
-1.52138e-10
5.68479e-09
8.04431e-11
5.70314e-09
-1.83494e-11
5.84096e-09
-1.37819e-10
6.17213e-09
-3.31172e-10
6.60456e-09
-4.32427e-10
6.98441e-09
-3.7985e-10
7.14615e-09
-1.61744e-10
7.39953e-09
-2.53374e-10
7.67452e-09
-2.74996e-10
7.77402e-09
-9.94943e-11
8.13215e-09
-3.5813e-10
8.50904e-09
-3.76892e-10
8.73197e-09
-2.22925e-10
8.9765e-09
-2.44526e-10
9.14998e-09
-1.73478e-10
9.23874e-09
-8.87675e-11
9.40897e-09
-1.70228e-10
9.63672e-09
-2.2774e-10
9.91463e-09
-2.77915e-10
1.01855e-08
-2.70909e-10
1.04654e-08
-2.7988e-10
1.07736e-08
-3.08188e-10
1.10166e-08
-2.4303e-10
1.12324e-08
-2.1577e-10
1.14349e-08
-2.02507e-10
1.15759e-08
-1.40991e-10
1.15888e-08
-1.28978e-11
1.15383e-08
5.0557e-11
1.14823e-08
5.59828e-11
1.12962e-08
1.86026e-10
1.1093e-08
2.03197e-10
1.08797e-08
2.13307e-10
1.04552e-08
4.2453e-10
9.98096e-09
4.74252e-10
9.42741e-09
5.53548e-10
8.76631e-09
6.61103e-10
8.33202e-09
4.34288e-10
7.93457e-09
3.97452e-10
7.63321e-09
3.01355e-10
7.41524e-09
2.17973e-10
7.29292e-09
1.22314e-10
7.14074e-09
1.52186e-10
6.97543e-09
1.65309e-10
7.00451e-09
-2.90816e-11
6.743e-09
2.61505e-10
6.7267e-09
1.63028e-11
6.51685e-09
2.09851e-10
6.33848e-09
1.78367e-10
6.16477e-09
1.73707e-10
5.82376e-09
3.41009e-10
5.41666e-09
4.07099e-10
4.71288e-09
7.03788e-10
3.86107e-09
8.51808e-10
2.85615e-09
1.00492e-09
2.08189e-09
7.74257e-10
1.31979e-09
7.62103e-10
2.6616e-10
1.05363e-09
-1.1053e-10
3.76689e-10
4.19977e-11
-1.52528e-10
3.41042e-10
-2.99045e-10
3.05408e-10
3.56336e-11
-3.49927e-11
3.404e-10
-2.43794e-10
2.088e-10
-3.64021e-10
1.20227e-10
-1.84151e-10
-1.79871e-10
1.47388e-10
-3.31539e-10
3.95756e-10
-2.48369e-10
3.66459e-16
3.95755e-10
-1.01741e-18
1.39677e-18
-1.45857e-18
4.41165e-19
-1.57332e-18
1.13844e-19
-1.55195e-18
-2.21847e-20
-1.45937e-18
-9.29337e-20
-1.32102e-18
-1.38189e-19
-1.14901e-18
-1.71446e-19
-9.50801e-19
-1.97421e-19
-7.32912e-19
-2.17005e-19
-5.00878e-19
-2.31097e-19
-2.60302e-19
-2.39568e-19
-1.69244e-20
-2.4224e-19
2.23522e-19
-2.39051e-19
4.55442e-19
-2.30143e-19
6.73467e-19
-2.15842e-19
8.72631e-19
-1.96612e-19
1.04858e-18
-1.73063e-19
1.19766e-18
-1.45955e-19
1.31691e-18
-1.16138e-19
1.40417e-18
-8.44502e-20
1.45821e-18
-5.16705e-20
1.47876e-18
-1.85386e-20
1.46631e-18
1.42252e-20
1.42202e-18
4.59446e-20
1.34758e-18
7.60322e-20
1.24522e-18
1.04007e-19
1.11757e-18
1.29467e-19
9.67604e-19
1.52038e-19
7.98446e-19
1.7135e-19
6.13415e-19
1.87052e-19
4.16057e-19
1.98868e-19
2.10219e-19
2.06659e-19
2.10479e-19
-1.31885e-10
3.39479e-10
-1.26769e-10
1.43501e-10
-2.29012e-12
-2.22667e-10
1.85455e-10
-4.14715e-10
8.58345e-10
-1.02965e-09
1.62806e-09
-1.09219e-09
2.56588e-09
-1.13385e-09
3.06946e-09
-2.26428e-09
3.57356e-09
-6.6461e-10
4.01076e-09
-8.40822e-10
4.63105e-09
-1.29049e-09
5.38452e-09
-1.36932e-09
5.6461e-09
-6.90024e-10
6.05264e-09
-6.82714e-10
6.46146e-09
-5.99955e-10
6.78659e-09
-5.04527e-10
7.02378e-09
-2.39716e-10
7.21804e-09
-2.74588e-10
7.11002e-09
-4.41178e-11
7.03283e-09
1.57641e-10
7.11594e-09
-1.0146e-10
7.17413e-09
-1.96015e-10
7.30714e-09
-4.64177e-10
7.49049e-09
-6.15779e-10
7.66394e-09
-5.53297e-10
7.95628e-09
-4.54086e-10
8.24018e-09
-5.37269e-10
8.56595e-09
-6.00765e-10
8.86449e-09
-3.98032e-10
8.99919e-09
-4.92828e-10
9.08209e-09
-4.59785e-10
9.29352e-09
-4.34357e-10
9.46447e-09
-4.15471e-10
9.62059e-09
-3.29601e-10
9.85828e-09
-3.26457e-10
1.00837e-08
-3.95661e-10
1.03203e-08
-4.64342e-10
1.05541e-08
-5.11642e-10
1.07188e-08
-4.35684e-10
1.08844e-08
-4.45465e-10
1.10552e-08
-4.78991e-10
1.12466e-08
-4.34412e-10
1.13849e-08
-3.54034e-10
1.14267e-08
-2.44299e-10
1.14589e-08
-1.73266e-10
1.14061e-08
3.99164e-11
1.13249e-08
1.31828e-10
1.1196e-08
1.84866e-10
1.10344e-08
3.47608e-10
1.07829e-08
4.54653e-10
1.05584e-08
4.37819e-10
1.02867e-08
6.96235e-10
1.01253e-08
6.35689e-10
9.94611e-09
7.32718e-10
9.80953e-09
7.97679e-10
9.66567e-09
5.78142e-10
9.47e-09
5.93129e-10
9.27808e-09
4.93268e-10
9.00462e-09
4.91432e-10
8.7862e-09
3.40733e-10
8.42734e-09
5.11044e-10
8.29446e-09
2.98185e-10
8.08313e-09
1.82255e-10
7.90847e-09
4.36156e-10
7.75592e-09
1.68853e-10
7.58538e-09
3.80399e-10
7.35022e-09
4.13525e-10
6.94446e-09
5.79464e-10
6.61753e-09
6.67942e-10
6.3328e-09
6.91823e-10
5.81318e-09
1.22341e-09
5.4508e-09
1.21419e-09
4.88497e-09
1.57075e-09
3.98527e-09
1.67396e-09
3.03298e-09
1.71439e-09
2.30673e-09
1.77988e-09
1.38202e-09
1.3014e-09
6.45685e-10
5.83806e-10
4.41547e-10
-9.49082e-11
2.10941e-10
2.66238e-10
7.9359e-11
4.71981e-10
-1.76958e-10
4.65117e-10
-2.61813e-10
2.0508e-10
-1.85518e-10
-2.56167e-10
-3.43971e-11
-4.82662e-10
1.70353e-10
-4.53121e-10
2.85148e-16
5.66104e-10
-1.97185e-18
5.07854e-19
-1.78489e-18
2.52821e-19
-1.70841e-18
3.63283e-20
-1.62182e-18
-1.09006e-19
-1.50378e-18
-2.10394e-19
-1.35346e-18
-2.87282e-19
-1.17419e-18
-3.49044e-19
-9.70369e-19
-3.99306e-19
-7.47004e-19
-4.38275e-19
-5.09349e-19
-4.66437e-19
-2.62975e-19
-4.8327e-19
-1.37361e-20
-4.88361e-19
2.3243e-19
-4.816e-19
4.69743e-19
-4.63272e-19
6.92696e-19
-4.34063e-19
8.96181e-19
-3.95014e-19
1.07569e-18
-3.47444e-19
1.22748e-18
-2.92843e-19
1.3486e-18
-2.32777e-19
1.43695e-18
-1.68833e-19
1.49135e-18
-1.02605e-19
1.51152e-18
-3.56496e-20
1.49803e-18
3.05719e-20
1.45211e-18
9.47443e-20
1.37555e-18
1.55696e-19
1.27068e-18
2.12363e-19
1.14015e-18
2.63765e-19
9.86916e-19
3.09018e-19
8.14148e-19
3.47391e-19
6.2523e-19
3.78354e-19
4.23848e-19
4.01608e-19
2.14038e-19
4.17067e-19
4.2483e-19
1.22473e-11
3.27231e-10
4.19098e-10
-2.6335e-10
8.45149e-10
-6.48717e-10
1.29938e-09
-8.68943e-10
1.80423e-09
-1.5345e-09
2.56262e-09
-1.85057e-09
3.38332e-09
-1.95455e-09
4.02789e-09
-2.90885e-09
4.57158e-09
-1.20831e-09
5.13388e-09
-1.40312e-09
5.48538e-09
-1.64199e-09
6.1231e-09
-2.00705e-09
6.56578e-09
-1.1327e-09
6.782e-09
-8.98935e-10
7.18686e-09
-1.00481e-09
7.57345e-09
-8.91121e-10
7.71292e-09
-3.79182e-10
8.03665e-09
-5.98316e-10
8.26943e-09
-2.76898e-10
8.24859e-09
1.78482e-10
8.35898e-09
-2.11848e-10
8.45372e-09
-2.90758e-10
8.4045e-09
-4.14953e-10
8.4803e-09
-6.91579e-10
8.66233e-09
-7.35331e-10
8.88693e-09
-6.78682e-10
8.95597e-09
-6.06313e-10
9.07409e-09
-7.1888e-10
9.25752e-09
-5.81456e-10
9.33901e-09
-5.7432e-10
9.37586e-09
-4.96637e-10
9.50359e-09
-5.62081e-10
9.63761e-09
-5.49484e-10
9.71992e-09
-4.11916e-10
9.84372e-09
-4.50252e-10
9.95227e-09
-5.04214e-10
1.00663e-08
-5.78328e-10
1.02301e-08
-6.7547e-10
1.0402e-08
-6.07612e-10
1.0552e-08
-5.95428e-10
1.07004e-08
-6.274e-10
1.07547e-08
-4.88701e-10
1.07429e-08
-3.42276e-10
1.07539e-08
-2.55224e-10
1.08151e-08
-2.34531e-10
1.08101e-08
4.49499e-11
1.07378e-08
2.04066e-10
1.06252e-08
2.97556e-10
1.05064e-08
4.66343e-10
1.0377e-08
5.84053e-10
1.01747e-08
6.40101e-10
1.00561e-08
8.14855e-10
9.86755e-09
8.24262e-10
9.76998e-09
8.30289e-10
9.67898e-09
8.88681e-10
9.51531e-09
7.41811e-10
9.40737e-09
7.01059e-10
9.14351e-09
7.57129e-10
9.07606e-09
5.58882e-10
8.86157e-09
5.55224e-10
8.75481e-09
6.17801e-10
8.64592e-09
4.07078e-10
8.42254e-09
4.05627e-10
8.38835e-09
4.70348e-10
8.08927e-09
4.6793e-10
8.04123e-09
4.2844e-10
7.69769e-09
7.57067e-10
7.36551e-09
9.11643e-10
7.16747e-09
8.65985e-10
6.82109e-09
1.0382e-09
6.43798e-09
1.60652e-09
6.01836e-09
1.6338e-09
5.79047e-09
1.79865e-09
5.12511e-09
2.33931e-09
4.7692e-09
2.07031e-09
4.52308e-09
2.026e-09
3.47497e-09
2.3495e-09
2.73517e-09
1.32361e-09
1.66001e-09
9.80251e-10
4.99587e-10
1.42666e-09
2.01925e-10
7.69641e-10
1.63896e-10
5.03145e-10
9.33593e-11
2.75617e-10
-5.59703e-11
-1.06838e-10
-1.60727e-11
-5.2256e-10
7.57103e-11
-5.44904e-10
-1.46621e-16
6.41814e-10
-2.22579e-18
1.47473e-19
-2.0004e-18
2.68362e-20
-1.85284e-18
-1.11001e-19
-1.72234e-18
-2.38644e-19
-1.57984e-18
-3.51447e-19
-1.41442e-18
-4.50708e-19
-1.22368e-18
-5.37311e-19
-1.00933e-18
-6.10814e-19
-7.75166e-19
-6.69342e-19
-5.26182e-19
-7.12121e-19
-2.68066e-19
-7.3788e-19
-6.97509e-21
-7.4578e-19
2.50758e-19
-7.35569e-19
4.98952e-19
-7.07661e-19
7.31746e-19
-6.63094e-19
9.43751e-19
-6.03412e-19
1.13029e-18
-5.30571e-19
1.28755e-18
-4.46847e-19
1.41254e-18
-3.54701e-19
1.50318e-18
-2.56647e-19
1.5583e-18
-1.55155e-19
1.57775e-18
-5.26036e-20
1.5622e-18
4.87646e-20
1.51306e-18
1.46874e-19
1.43222e-18
2.39837e-19
1.32208e-18
3.25966e-19
1.1854e-18
4.03787e-19
1.02529e-18
4.72073e-19
8.45111e-19
5.29877e-19
6.48484e-19
5.76552e-19
4.39306e-19
6.11734e-19
2.21801e-19
6.35286e-19
6.47169e-19
2.17095e-10
1.10136e-10
8.68857e-10
-9.15111e-10
1.31306e-09
-1.09292e-09
1.90599e-09
-1.46187e-09
2.43093e-09
-2.05944e-09
3.21991e-09
-2.63955e-09
3.8374e-09
-2.57204e-09
4.21948e-09
-3.29093e-09
5.17196e-09
-2.16079e-09
5.76485e-09
-1.99601e-09
6.16237e-09
-2.03951e-09
6.74359e-09
-2.58827e-09
7.25986e-09
-1.64897e-09
7.54613e-09
-1.1852e-09
7.80958e-09
-1.26827e-09
8.09888e-09
-1.18042e-09
8.27555e-09
-5.55854e-10
8.4337e-09
-7.56459e-10
8.63265e-09
-4.75855e-10
8.76247e-09
4.86677e-11
8.84444e-09
-2.9382e-10
8.90673e-09
-3.53041e-10
8.98803e-09
-4.96253e-10
8.95863e-09
-6.62186e-10
8.95285e-09
-7.29548e-10
9.02157e-09
-7.47394e-10
9.03106e-09
-6.15802e-10
9.14601e-09
-8.33834e-10
9.2383e-09
-6.73739e-10
9.23896e-09
-5.74979e-10
9.22003e-09
-4.77713e-10
9.20369e-09
-5.45735e-10
9.26114e-09
-6.0693e-10
9.29417e-09
-4.44949e-10
9.34053e-09
-4.96612e-10
9.40819e-09
-5.71871e-10
9.45142e-09
-6.2155e-10
9.44232e-09
-6.66369e-10
9.47151e-09
-6.36799e-10
9.50723e-09
-6.31149e-10
9.52163e-09
-6.41803e-10
9.57531e-09
-5.42372e-10
9.64974e-09
-4.16706e-10
9.75956e-09
-3.6505e-10
9.79043e-09
-2.65394e-10
9.82328e-09
1.20992e-11
9.86486e-09
1.62486e-10
9.84404e-09
3.18375e-10
9.72565e-09
5.84732e-10
9.62635e-09
6.83353e-10
9.53009e-09
7.3636e-10
9.50159e-09
8.43358e-10
9.44579e-09
8.80062e-10
9.40592e-09
8.70151e-10
9.36333e-09
9.31274e-10
9.249e-09
8.56139e-10
9.12077e-09
8.29287e-10
9.06111e-09
8.16789e-10
8.92292e-09
6.97073e-10
8.76624e-09
7.11905e-10
8.68782e-09
6.96215e-10
8.55211e-09
5.42787e-10
8.40608e-09
5.51657e-10
8.22111e-09
6.55319e-10
8.00556e-09
6.83483e-10
7.92653e-09
5.0747e-10
7.71146e-09
9.72133e-10
7.44041e-09
1.1827e-09
7.18456e-09
1.12183e-09
6.92872e-09
1.29405e-09
6.71399e-09
1.82125e-09
6.34986e-09
1.99793e-09
5.84031e-09
2.3082e-09
5.66378e-09
2.51584e-09
5.19082e-09
2.54327e-09
3.58808e-09
3.62873e-09
2.9139e-09
3.02369e-09
2.21102e-09
2.02649e-09
1.31801e-09
1.87325e-09
1.25767e-09
1.487e-09
1.15335e-09
8.73965e-10
7.64429e-10
8.92066e-10
3.2929e-10
7.10756e-10
1.08956e-10
1.13496e-10
3.15584e-12
-4.1676e-10
-4.80513e-11
-4.93697e-10
-4.53754e-16
5.93764e-10
-2.34538e-18
-1.83762e-19
-2.13731e-18
-1.81213e-19
-1.97962e-18
-2.67339e-19
-1.83432e-18
-3.81999e-19
-1.67831e-18
-5.04996e-19
-1.50025e-18
-6.25793e-19
-1.29648e-18
-7.37628e-19
-1.06786e-18
-8.35516e-19
-8.17945e-19
-9.15043e-19
-5.51941e-19
-9.73763e-19
-2.75966e-19
-1.00945e-18
3.23667e-21
-1.02072e-18
2.78666e-19
-1.00709e-18
5.43519e-19
-9.69015e-19
7.91428e-19
-9.07874e-19
1.01659e-18
-8.25791e-19
1.21402e-18
-7.2549e-19
1.37969e-18
-6.10138e-19
1.5106e-18
-4.83184e-19
1.60467e-18
-3.48183e-19
1.66085e-18
-2.08647e-19
1.67911e-18
-6.79503e-20
1.66031e-18
7.07483e-20
1.60602e-18
2.04564e-19
1.51835e-18
3.30933e-19
1.3999e-18
4.47634e-19
1.25368e-18
5.52805e-19
1.08309e-18
6.44947e-19
8.91787e-19
7.22927e-19
6.83666e-19
7.85962e-19
4.62858e-19
8.33581e-19
2.33684e-19
8.65534e-19
8.81675e-19
2.84927e-10
-1.74791e-10
1.08264e-09
-1.71282e-09
1.78746e-09
-1.79774e-09
2.57323e-09
-2.24765e-09
3.20591e-09
-2.69212e-09
3.58957e-09
-3.02321e-09
4.5328e-09
-3.51527e-09
4.81443e-09
-3.57256e-09
5.45959e-09
-2.80595e-09
6.11277e-09
-2.64918e-09
6.55571e-09
-2.48245e-09
6.80422e-09
-2.83677e-09
7.29239e-09
-2.13715e-09
7.69833e-09
-1.59114e-09
7.92585e-09
-1.49579e-09
8.10817e-09
-1.36274e-09
8.35596e-09
-8.03638e-10
8.43803e-09
-8.38531e-10
8.50134e-09
-5.39163e-10
8.77877e-09
-2.28765e-10
8.82404e-09
-3.39085e-10
8.94079e-09
-4.69787e-10
8.94041e-09
-4.9588e-10
8.8389e-09
-5.60672e-10
8.73819e-09
-6.2883e-10
8.7881e-09
-7.97309e-10
8.69503e-09
-5.22731e-10
8.74266e-09
-8.81457e-10
8.80294e-09
-7.34026e-10
8.76698e-09
-5.39016e-10
8.74274e-09
-4.53472e-10
8.59596e-09
-3.9895e-10
8.4245e-09
-4.35465e-10
8.35563e-09
-3.76083e-10
8.24642e-09
-3.874e-10
8.21112e-09
-5.3656e-10
8.19738e-09
-6.07812e-10
8.15549e-09
-6.24476e-10
8.1314e-09
-6.12708e-10
8.12032e-09
-6.20065e-10
8.10313e-09
-6.24617e-10
8.12284e-09
-5.62077e-10
8.18809e-09
-4.81957e-10
8.24889e-09
-4.25848e-10
8.25129e-09
-2.67796e-10
8.36208e-09
-9.86916e-11
8.51367e-09
1.08974e-11
8.57785e-09
2.54192e-10
8.60148e-09
5.61104e-10
8.62526e-09
6.59571e-10
8.65173e-09
7.09893e-10
8.68794e-09
8.07144e-10
8.7037e-09
8.64305e-10
8.69459e-09
8.79263e-10
8.69785e-09
9.28007e-10
8.67572e-09
8.78268e-10
8.63797e-09
8.67037e-10
8.61427e-09
8.40495e-10
8.54013e-09
7.71207e-10
8.44613e-09
8.05906e-10
8.2845e-09
8.57847e-10
8.15628e-09
6.71004e-10
7.98097e-09
7.26969e-10
7.7661e-09
8.70189e-10
7.60532e-09
8.44258e-10
7.44602e-09
6.66766e-10
7.36352e-09
1.05463e-09
7.22302e-09
1.3232e-09
7.03157e-09
1.31328e-09
6.85046e-09
1.47516e-09
6.57536e-09
2.09635e-09
6.25491e-09
2.31838e-09
5.86032e-09
2.70279e-09
5.67101e-09
2.70515e-09
5.06908e-09
3.14519e-09
4.74361e-09
3.95421e-09
4.64035e-09
3.12694e-09
3.53296e-09
3.13388e-09
2.74023e-09
2.66599e-09
2.55758e-09
1.66965e-09
1.79673e-09
1.63482e-09
1.02881e-09
1.65999e-09
4.21059e-10
1.3185e-09
6.66514e-11
4.67904e-10
-1.53672e-10
-1.96436e-10
-2.70848e-10
-3.7652e-10
-3.93482e-16
3.22917e-10
-2.34191e-18
-1.18013e-19
-2.22261e-18
-2.99842e-19
-2.09349e-18
-3.94725e-19
-1.95655e-18
-5.16628e-19
-1.79835e-18
-6.60321e-19
-1.61135e-18
-8.09437e-19
-1.39373e-18
-9.51442e-19
-1.14739e-18
-1.07755e-18
-8.76666e-19
-1.18111e-18
-5.87624e-19
-1.25805e-18
-2.87239e-19
-1.30511e-18
1.68676e-20
-1.32034e-18
3.16739e-19
-1.30299e-18
6.0466e-19
-1.25358e-18
8.73511e-19
-1.17387e-18
1.11689e-18
-1.0667e-18
1.32937e-18
-9.35705e-19
1.50665e-18
-7.85146e-19
1.6456e-18
-6.19654e-19
1.7442e-18
-4.44016e-19
1.80155e-18
-2.62962e-19
1.81781e-18
-8.09887e-20
1.79413e-18
9.77684e-20
1.73239e-18
2.6962e-19
1.63505e-18
4.31371e-19
1.50507e-18
5.80327e-19
1.34583e-18
7.14282e-19
1.16107e-18
8.3149e-19
9.54822e-19
9.30636e-19
7.31284e-19
1.0108e-18
4.94811e-19
1.07139e-18
2.49825e-19
1.11206e-18
1.13258e-18
4.34431e-10
-6.09222e-10
1.0379e-09
-2.31629e-09
1.66091e-09
-2.42075e-09
2.36895e-09
-2.95569e-09
3.43488e-09
-3.75804e-09
3.9186e-09
-3.50692e-09
4.69744e-09
-4.29411e-09
5.02148e-09
-3.8966e-09
5.53591e-09
-3.32038e-09
6.07559e-09
-3.18886e-09
6.4411e-09
-2.84797e-09
6.70798e-09
-3.10364e-09
7.05491e-09
-2.48409e-09
7.37702e-09
-1.91325e-09
7.69197e-09
-1.81073e-09
7.73424e-09
-1.40502e-09
7.86468e-09
-9.34076e-10
7.99799e-09
-9.71843e-10
8.12481e-09
-6.65985e-10
8.32967e-09
-4.33622e-10
8.36522e-09
-3.74639e-10
8.32942e-09
-4.33982e-10
8.33283e-09
-4.99294e-10
8.298e-09
-5.25844e-10
8.20428e-09
-5.35105e-10
8.07619e-09
-6.69221e-10
7.92265e-09
-3.69181e-10
7.711e-09
-6.69814e-10
7.64292e-09
-6.6594e-10
7.58226e-09
-4.78354e-10
7.55418e-09
-4.2539e-10
7.45169e-09
-2.96459e-10
7.30681e-09
-2.90582e-10
7.10831e-09
-1.7758e-10
6.95837e-09
-2.37454e-10
6.86594e-09
-4.44131e-10
6.81348e-09
-5.55354e-10
6.7885e-09
-5.9949e-10
6.7784e-09
-6.02606e-10
6.78048e-09
-6.22151e-10
6.78559e-09
-6.29721e-10
6.81294e-09
-5.89424e-10
6.81455e-09
-4.83564e-10
6.78655e-09
-3.97853e-10
6.8303e-09
-3.11544e-10
6.95077e-09
-2.19157e-10
7.03473e-09
-7.30618e-11
7.14117e-09
1.47748e-10
7.31859e-09
3.83687e-10
7.42698e-09
5.5118e-10
7.50578e-09
6.31092e-10
7.56022e-09
7.527e-10
7.62956e-09
7.94963e-10
7.66393e-09
8.44897e-10
7.7222e-09
8.69739e-10
7.75251e-09
8.47952e-10
7.75355e-09
8.66002e-10
7.7382e-09
8.55842e-10
7.64661e-09
8.62798e-10
7.5409e-09
9.11615e-10
7.46155e-09
9.37196e-10
7.25732e-09
8.75234e-10
7.18423e-09
8.00064e-10
7.02777e-09
1.02664e-09
6.85778e-09
1.01425e-09
6.49062e-09
1.03393e-09
6.62376e-09
9.21492e-10
6.55508e-09
1.39188e-09
6.43912e-09
1.42924e-09
6.2775e-09
1.63677e-09
6.1412e-09
2.23265e-09
5.80947e-09
2.65011e-09
5.57221e-09
2.94005e-09
5.1509e-09
3.12646e-09
4.62691e-09
3.66918e-09
4.72012e-09
3.86099e-09
3.94141e-09
3.90565e-09
3.29233e-09
3.78296e-09
2.79513e-09
3.16319e-09
1.43304e-09
3.03174e-09
7.69551e-10
2.2983e-09
7.24561e-10
1.70498e-09
5.69937e-10
1.47313e-09
2.14845e-10
8.22997e-10
-5.25547e-11
7.09644e-11
-2.26457e-10
-2.02617e-10
-2.01334e-16
9.64616e-11
-2.52301e-18
-9.98555e-19
-2.3168e-18
-5.04963e-19
-2.21469e-18
-4.95302e-19
-2.09952e-18
-6.29855e-19
-1.94675e-18
-8.10591e-19
-1.75266e-18
-1.00058e-18
-1.51927e-18
-1.18152e-18
-1.25095e-18
-1.34208e-18
-9.53604e-19
-1.47419e-18
-6.3469e-19
-1.57248e-18
-3.02469e-19
-1.63277e-18
3.42193e-20
-1.65254e-18
3.6615e-19
-1.6308e-18
6.84367e-19
-1.56823e-18
9.80686e-19
-1.46709e-18
1.24789e-18
-1.33112e-18
1.47993e-18
-1.16513e-18
1.67214e-18
-9.7474e-19
1.82124e-18
-7.66001e-19
1.92526e-18
-5.45134e-19
1.98352e-18
-3.18233e-19
1.99657e-18
-9.10191e-20
1.96598e-18
1.31335e-19
1.89414e-18
3.44314e-19
1.78401e-18
5.44099e-19
1.63902e-18
7.27541e-19
1.46303e-18
8.92113e-19
1.26022e-18
1.03585e-18
1.03499e-18
1.15728e-18
7.91877e-19
1.25538e-18
5.35481e-19
1.32949e-18
2.70348e-19
1.37918e-18
1.4042e-18
4.94282e-10
-1.1035e-09
1.01403e-09
-2.83604e-09
2.09404e-09
-3.50077e-09
2.85028e-09
-3.71192e-09
3.50549e-09
-4.41325e-09
3.98539e-09
-3.98683e-09
4.52842e-09
-4.83714e-09
5.13634e-09
-4.50452e-09
5.64979e-09
-3.83384e-09
6.13854e-09
-3.6776e-09
6.22348e-09
-2.93291e-09
6.48555e-09
-3.36571e-09
6.37071e-09
-2.36925e-09
6.67995e-09
-2.22248e-09
6.64298e-09
-1.77377e-09
6.70389e-09
-1.46592e-09
6.92859e-09
-1.15878e-09
6.9701e-09
-1.01335e-09
6.93833e-09
-6.34222e-10
7.06884e-09
-5.64125e-10
7.17124e-09
-4.77042e-10
7.14115e-09
-4.03889e-10
7.13462e-09
-4.92762e-10
7.07046e-09
-4.6168e-10
6.95966e-09
-4.24305e-10
6.77753e-09
-4.87096e-10
6.72362e-09
-3.1527e-10
6.38215e-09
-3.28338e-10
6.13845e-09
-4.22241e-10
6.00834e-09
-3.48247e-10
5.896e-09
-3.13038e-10
5.8662e-09
-2.66657e-10
5.82897e-09
-2.53351e-10
5.86224e-09
-2.10856e-10
5.87826e-09
-2.53465e-10
5.83312e-09
-3.98988e-10
5.7585e-09
-4.80733e-10
5.70804e-09
-5.49035e-10
5.6721e-09
-5.66664e-10
5.64146e-09
-5.91509e-10
5.58377e-09
-5.72027e-10
5.52558e-09
-5.3123e-10
5.50796e-09
-4.65952e-10
5.50857e-09
-3.98455e-10
5.53153e-09
-3.34503e-10
5.56105e-09
-2.48676e-10
5.58605e-09
-9.80642e-11
5.66891e-09
6.48879e-11
5.81203e-09
2.4057e-10
5.95083e-09
4.12371e-10
6.07485e-09
5.07072e-10
6.19818e-09
6.29374e-10
6.30354e-09
6.89601e-10
6.36342e-09
7.85019e-10
6.42191e-09
8.11248e-10
6.44954e-09
8.20318e-10
6.42935e-09
8.86199e-10
6.40096e-09
8.84231e-10
6.31798e-09
9.45772e-10
6.18115e-09
1.04845e-09
6.14757e-09
9.70774e-10
5.91939e-09
1.10342e-09
5.6523e-09
1.06716e-09
5.69939e-09
9.79549e-10
5.58085e-09
1.13279e-09
5.36316e-09
1.25162e-09
5.28579e-09
9.98853e-10
5.23745e-09
1.44022e-09
5.19779e-09
1.4689e-09
5.19081e-09
1.64375e-09
5.49814e-09
1.92531e-09
5.40742e-09
2.74083e-09
5.12498e-09
3.22248e-09
4.87763e-09
3.37382e-09
4.49326e-09
4.05355e-09
4.09872e-09
4.25554e-09
3.66404e-09
4.34032e-09
3.41443e-09
4.03258e-09
2.89072e-09
3.6869e-09
2.42216e-09
3.5003e-09
1.99537e-09
2.72509e-09
1.19509e-09
2.50525e-09
6.71716e-10
1.9965e-09
3.71144e-10
1.12357e-09
1.89904e-11
4.23118e-10
-9.64616e-11
-8.71652e-11
-9.96421e-19
1.23482e-18
-2.02913e-18
3.41539e-20
-2.30665e-18
-2.26854e-19
-2.34863e-18
-4.52505e-19
-2.2796e-18
-6.97748e-19
-2.13606e-18
-9.52401e-19
-1.93292e-18
-1.20153e-18
-1.67935e-18
-1.43264e-18
-1.38305e-18
-1.63551e-18
-1.05189e-18
-1.80186e-18
-6.94987e-19
-1.92545e-18
-3.22233e-19
-2.00127e-18
5.59536e-20
-2.02621e-18
4.28726e-19
-1.99912e-18
7.85502e-19
-1.92092e-18
1.11666e-18
-1.7946e-18
1.41387e-18
-1.62502e-18
1.67032e-18
-1.41851e-18
1.88088e-18
-1.18237e-18
2.0421e-18
-9.24391e-19
2.15216e-18
-6.52464e-19
2.21074e-18
-3.74227e-19
2.21892e-18
-9.67523e-20
2.17896e-18
1.7367e-19
2.09392e-18
4.31653e-19
1.96745e-18
6.72733e-19
1.8036e-18
8.93321e-19
1.60677e-18
1.09061e-18
1.38165e-18
1.26246e-18
1.13309e-18
1.40734e-18
8.6598e-19
1.52417e-18
5.85173e-19
1.61229e-18
2.9537e-19
1.67128e-18
1.70091e-18
8.21124e-10
-1.92463e-09
1.58511e-09
-3.60002e-09
2.06527e-09
-3.98093e-09
2.93487e-09
-4.58152e-09
3.63189e-09
-5.11027e-09
4.51181e-09
-4.86675e-09
4.56354e-09
-4.88887e-09
5.01466e-09
-4.95564e-09
5.51313e-09
-4.33231e-09
5.70506e-09
-3.86953e-09
5.46714e-09
-2.69499e-09
5.74699e-09
-3.64556e-09
5.17514e-09
-1.7974e-09
5.6056e-09
-2.65294e-09
5.58768e-09
-1.75585e-09
5.49085e-09
-1.36909e-09
5.61146e-09
-1.27939e-09
5.51815e-09
-9.20034e-10
5.55217e-09
-6.68246e-10
5.66134e-09
-6.7329e-10
5.76892e-09
-5.84622e-10
5.81784e-09
-4.52816e-10
5.75081e-09
-4.25727e-10
5.57424e-09
-2.85107e-10
5.41651e-09
-2.6658e-10
5.3025e-09
-3.73082e-10
5.25477e-09
-2.67542e-10
5.13347e-09
-2.07031e-10
4.96315e-09
-2.51921e-10
4.86443e-09
-2.49524e-10
4.79127e-09
-2.39874e-10
4.78245e-09
-2.57836e-10
4.80656e-09
-2.77467e-10
4.88375e-09
-2.88041e-10
4.93429e-09
-3.04005e-10
4.91005e-09
-3.7474e-10
4.86969e-09
-4.40373e-10
4.78665e-09
-4.65999e-10
4.67807e-09
-4.58079e-10
4.59646e-09
-5.09898e-10
4.51823e-09
-4.93791e-10
4.45048e-09
-4.63483e-10
4.43293e-09
-4.48398e-10
4.41088e-09
-3.76408e-10
4.3964e-09
-3.20019e-10
4.37651e-09
-2.28782e-10
4.38115e-09
-1.02702e-10
4.40771e-09
3.83192e-11
4.48033e-09
1.67953e-10
4.60447e-09
2.88236e-10
4.69661e-09
4.14932e-10
4.78202e-09
5.43963e-10
4.83333e-09
6.38289e-10
4.85105e-09
7.67298e-10
4.85823e-09
8.04065e-10
4.85539e-09
8.2316e-10
4.82262e-09
9.18966e-10
4.75311e-09
9.53741e-10
4.69344e-09
1.00545e-09
4.57451e-09
1.16737e-09
4.44598e-09
1.09931e-09
4.45918e-09
1.09021e-09
4.29471e-09
1.23162e-09
4.2262e-09
1.04806e-09
4.10969e-09
1.2493e-09
4.13298e-09
1.22832e-09
3.9092e-09
1.22264e-09
3.94692e-09
1.40249e-09
3.85009e-09
1.56574e-09
3.89834e-09
1.5955e-09
3.85658e-09
1.96707e-09
4.02852e-09
2.56889e-09
4.41331e-09
2.8377e-09
4.31085e-09
3.47627e-09
3.77359e-09
4.59081e-09
3.44318e-09
4.58595e-09
3.22398e-09
4.55952e-09
2.74497e-09
4.51158e-09
2.23323e-09
4.19864e-09
2.14252e-09
3.59101e-09
1.60048e-09
3.26713e-09
1.26256e-09
2.84317e-09
9.66563e-10
2.2925e-09
6.34903e-10
1.45523e-09
3.21838e-10
7.36182e-10
4.60709e-16
2.34672e-10
-1.80105e-18
1.29212e-18
-2.29017e-18
5.23446e-19
-2.5319e-18
1.50623e-20
-2.5933e-18
-3.90595e-19
-2.53361e-18
-7.56704e-19
-2.38453e-18
-1.1002e-18
-2.16339e-18
-1.42083e-18
-1.88182e-18
-1.71216e-18
-1.54941e-18
-1.96562e-18
-1.17548e-18
-2.17284e-18
-7.70805e-19
-2.32659e-18
-3.47173e-19
-2.42086e-18
8.30376e-20
-2.45184e-18
5.06925e-19
-2.4182e-18
9.11827e-19
-2.32124e-18
1.28624e-18
-2.16488e-18
1.62038e-18
-1.9555e-18
1.90646e-18
-1.70134e-18
2.13886e-18
-1.41182e-18
2.31403e-18
-1.09689e-18
2.4304e-18
-7.66454e-19
2.48821e-18
-4.2996e-19
2.48934e-18
-9.59978e-20
2.43694e-18
2.27921e-19
2.335e-18
5.35491e-19
2.18804e-18
8.2161e-19
2.00088e-18
1.08229e-18
1.77862e-18
1.31451e-18
1.52653e-18
1.5161e-18
1.24992e-18
1.68552e-18
9.54098e-19
1.8218e-18
6.44168e-19
1.92437e-18
3.24999e-19
1.9929e-18
2.02723e-18
8.98207e-10
-2.82283e-09
1.73315e-09
-4.43496e-09
2.22225e-09
-4.47004e-09
3.12783e-09
-5.4871e-09
3.48047e-09
-5.4629e-09
4.15757e-09
-5.54385e-09
4.39783e-09
-5.12913e-09
4.40235e-09
-4.96016e-09
4.6058e-09
-4.53576e-09
4.6246e-09
-3.88833e-09
4.87654e-09
-2.94693e-09
4.22406e-09
-2.99308e-09
4.33152e-09
-1.90486e-09
4.65834e-09
-2.97976e-09
4.46727e-09
-1.56478e-09
4.54209e-09
-1.44391e-09
4.47934e-09
-1.21664e-09
4.45159e-09
-8.92277e-10
4.48295e-09
-6.99611e-10
4.51885e-09
-7.09189e-10
4.49248e-09
-5.58254e-10
4.48896e-09
-4.49293e-10
4.3888e-09
-3.25563e-10
4.35514e-09
-2.5145e-10
4.3002e-09
-2.11643e-10
4.17623e-09
-2.4911e-10
4.11127e-09
-2.02582e-10
4.04753e-09
-1.43286e-10
4.00658e-09
-2.10964e-10
4.0032e-09
-2.46146e-10
4.00735e-09
-2.44019e-10
4.0207e-09
-2.71194e-10
4.03255e-09
-2.8931e-10
4.02642e-09
-2.81907e-10
4.02024e-09
-2.97825e-10
3.99247e-09
-3.46971e-10
3.94201e-09
-3.89913e-10
3.86589e-09
-3.89869e-10
3.78745e-09
-3.79637e-10
3.67946e-09
-4.01912e-10
3.59128e-09
-4.05608e-10
3.4832e-09
-3.55403e-10
3.43361e-09
-3.98805e-10
3.36798e-09
-3.10784e-10
3.32651e-09
-2.78549e-10
3.27117e-09
-1.73437e-10
3.2146e-09
-4.61304e-11
3.22921e-09
2.37017e-11
3.23488e-09
1.62286e-10
3.27011e-09
2.53011e-10
3.31822e-09
3.66812e-10
3.35281e-09
5.09376e-10
3.46963e-09
5.2147e-10
3.51912e-09
7.17805e-10
3.48897e-09
8.3422e-10
3.46746e-09
8.44673e-10
3.44824e-09
9.38187e-10
3.39756e-09
1.00441e-09
3.35483e-09
1.04817e-09
3.39425e-09
1.12796e-09
3.33958e-09
1.15398e-09
3.31974e-09
1.11005e-09
3.24812e-09
1.30324e-09
3.15328e-09
1.14291e-09
3.14567e-09
1.2569e-09
3.01609e-09
1.3579e-09
2.94759e-09
1.29114e-09
3.01815e-09
1.33193e-09
3.2041e-09
1.37979e-09
3.39258e-09
1.40703e-09
3.23278e-09
2.12687e-09
3.10549e-09
2.69617e-09
2.88628e-09
3.0569e-09
2.58616e-09
3.77639e-09
2.99216e-09
4.18481e-09
2.9765e-09
4.60161e-09
2.60728e-09
4.92874e-09
2.09353e-09
5.02532e-09
1.59089e-09
4.70129e-09
1.00143e-09
4.18047e-09
6.64475e-10
3.60409e-09
6.33018e-10
2.87463e-09
6.1863e-10
2.30689e-09
4.37844e-10
1.63602e-09
2.17914e-10
9.56111e-10
1.45395e-16
4.52585e-10
-2.56929e-18
1.38466e-18
-2.79816e-18
7.52042e-19
-2.93704e-18
1.54583e-19
-2.9588e-18
-3.67575e-19
-2.87646e-18
-8.37712e-19
-2.70452e-18
-1.27047e-18
-2.4541e-18
-1.66896e-18
-2.13496e-18
-2.02881e-18
-1.75663e-18
-2.34142e-18
-1.32923e-18
-2.59729e-18
-8.65073e-19
-2.78734e-18
-3.78152e-19
-2.90392e-18
1.16676e-19
-2.94218e-18
6.03891e-19
-2.90049e-18
1.06818e-18
-2.78068e-18
1.49562e-18
-2.588e-18
1.87454e-18
-2.33076e-18
2.19598e-18
-2.01969e-18
2.45379e-18
-1.66695e-18
2.64446e-18
-1.2852e-18
2.76689e-18
-8.86861e-19
2.82217e-18
-4.83529e-19
2.81326e-18
-8.55466e-20
2.74451e-18
2.98248e-19
2.62112e-18
6.60615e-19
2.44872e-18
9.95866e-19
2.23311e-18
1.29972e-18
1.98021e-18
1.56911e-18
1.69595e-18
1.80192e-18
1.38621e-18
1.99685e-18
1.05666e-18
2.15315e-18
7.12699e-19
2.27047e-18
3.59329e-19
2.34868e-18
2.38777e-18
8.32313e-10
-3.65515e-09
1.49794e-09
-5.10058e-09
2.54909e-09
-5.52119e-09
3.19173e-09
-6.12974e-09
3.66227e-09
-5.93345e-09
3.93952e-09
-5.82109e-09
4.19844e-09
-5.38805e-09
4.07745e-09
-4.83917e-09
3.70058e-09
-4.15889e-09
3.61702e-09
-3.80478e-09
3.7754e-09
-3.10531e-09
3.44654e-09
-2.66422e-09
3.81263e-09
-2.27095e-09
3.44504e-09
-2.61217e-09
3.31129e-09
-1.43103e-09
3.55315e-09
-1.68577e-09
3.43216e-09
-1.09565e-09
3.41286e-09
-8.72981e-10
3.5561e-09
-8.42842e-10
3.52629e-09
-6.79386e-10
3.49553e-09
-5.27487e-10
3.42703e-09
-3.80801e-10
3.31221e-09
-2.10735e-10
3.30352e-09
-2.42759e-10
3.32037e-09
-2.28489e-10
3.29605e-09
-2.24794e-10
3.27523e-09
-1.81759e-10
3.27519e-09
-1.4325e-10
3.26557e-09
-2.01343e-10
3.25593e-09
-2.36502e-10
3.2537e-09
-2.41789e-10
3.25242e-09
-2.69906e-10
3.23984e-09
-2.76736e-10
3.21051e-09
-2.52575e-10
3.17896e-09
-2.66271e-10
3.15353e-09
-3.21536e-10
3.09534e-09
-3.31723e-10
3.03909e-09
-3.33623e-10
2.99672e-09
-3.37262e-10
2.91969e-09
-3.24878e-10
2.82611e-09
-3.12031e-10
2.74217e-09
-2.71467e-10
2.6749e-09
-3.31532e-10
2.63957e-09
-2.75447e-10
2.61746e-09
-2.56441e-10
2.61526e-09
-1.71237e-10
2.62786e-09
-5.87283e-11
2.67575e-09
-2.41931e-11
2.68303e-09
1.55007e-10
2.69388e-09
2.42165e-10
2.72089e-09
3.39801e-10
2.7708e-09
4.59471e-10
2.79819e-09
4.94077e-10
2.79648e-09
7.19513e-10
2.81409e-09
8.16612e-10
2.86459e-09
7.94168e-10
2.85045e-09
9.52331e-10
2.82762e-09
1.02724e-09
2.79668e-09
1.07911e-09
2.79274e-09
1.1319e-09
2.74012e-09
1.2066e-09
2.67663e-09
1.17355e-09
2.72011e-09
1.25976e-09
2.64556e-09
1.21746e-09
2.61175e-09
1.29072e-09
2.52628e-09
1.44337e-09
2.5647e-09
1.25272e-09
2.49639e-09
1.40024e-09
2.50503e-09
1.37114e-09
2.48027e-09
1.43178e-09
2.82258e-09
1.78456e-09
3.22946e-09
2.28929e-09
2.81768e-09
3.46867e-09
2.35401e-09
4.24006e-09
2.133e-09
4.40583e-09
1.75815e-09
4.97646e-09
1.56219e-09
5.1247e-09
1.42793e-09
5.15958e-09
1.1323e-09
4.99692e-09
9.63053e-10
4.34972e-09
7.78971e-10
3.78817e-09
5.93197e-10
3.0604e-09
5.42069e-10
2.35801e-09
4.32587e-10
1.7455e-09
2.30048e-10
1.15865e-09
-1.73105e-16
6.82633e-10
-3.20099e-18
2.04853e-18
-3.39489e-18
9.45925e-19
-3.45851e-18
2.19838e-19
-3.42826e-18
-3.95176e-19
-3.30855e-18
-9.54763e-19
-3.10238e-18
-1.47404e-18
-2.81335e-18
-1.9549e-18
-2.44732e-18
-2.39152e-18
-2.0125e-18
-2.77306e-18
-1.51928e-18
-3.0872e-18
-9.81658e-19
-3.32152e-18
-4.16405e-19
-3.46565e-18
1.58364e-19
-3.51292e-18
7.23697e-19
-3.46122e-18
1.26087e-18
-3.31314e-18
1.75286e-18
-3.07572e-18
2.18561e-18
-2.76002e-18
2.54873e-18
-2.38002e-18
2.83554e-18
-1.95143e-18
3.0428e-18
-1.49042e-18
3.17022e-18
-1.01252e-18
3.22016e-18
-5.31933e-19
3.19706e-18
-6.10199e-20
3.10688e-18
3.8996e-19
2.95637e-18
8.12869e-19
2.75257e-18
1.20157e-18
2.50249e-18
1.55168e-18
2.21302e-18
1.86028e-18
1.89088e-18
2.1256e-18
1.5425e-18
2.34673e-18
1.17398e-18
2.52336e-18
7.90911e-19
2.65552e-18
3.98418e-19
2.74342e-18
2.78726e-18
1.2541e-09
-4.90924e-09
1.87093e-09
-5.71741e-09