/*--------------------------------*- C++ -*----------------------------------*\
  =========                 |
  \\      /  F ield         | OpenFOAM: The Open Source CFD Toolbox
   \\    /   O peration     | Website:  https://openfoam.org
    \\  /    A nd           | Version:  6
     \\/     M anipulation  |
\*---------------------------------------------------------------------------*/
FoamFile
{
    version     2.0;
    format      ascii;
    class       volScalarField;
    location    "4800";
    object      Su;
}
// * * * * * * * * * * * * * * * * * * * * * * * * * * * * * * * * * * * * * //

dimensions      [0 0 -1 0 0 0 0];

internalField   nonuniform List<scalar> 
4800
(
0.219519
0.217395
0.21533
0.213342
0.211441
0.209623
0.207883
0.206229
0.20463
0.203054
0.201522
0.200035
0.19858
0.197146
0.195729
0.19433
0.192946
0.191575
0.190218
0.188877
0.187553
0.186261
0.185011
0.183807
0.182649
0.181533
0.180458
0.179426
0.178434
0.17748
0.176565
0.175685
0.174837
0.174021
0.173234
0.172477
0.171753
0.171064
0.17041
0.169791
0.169206
0.168652
0.168126
0.167624
0.167141
0.166671
0.166207
0.165743
0.165272
0.164788
0.164286
0.163762
0.163213
0.162638
0.162038
0.16142
0.160788
0.160146
0.159499
0.158847
0.158193
0.157532
0.156864
0.15618
0.155467
0.154707
0.15387
0.152914
0.151777
0.150374
0.148589
0.146287
0.143323
0.139576
0.134966
0.129467
0.123188
0.116309
0.108934
0.101111
0.0929324
0.0845856
0.0762717
0.0681562
0.0603488
0.0528892
0.0457783
0.0390502
0.0327788
0.0268538
0.0211877
0.0157149
0.0103951
0.00520712
0.000140237
-0.00481214
-0.00965655
-0.0144011
-0.0190554
-0.0236297
-0.0281343
-0.0325791
-0.0369727
-0.041323
-0.0456365
-0.0499187
-0.0541743
-0.0584071
-0.0626203
-0.0668165
-0.0709979
-0.0751666
-0.0793242
-0.0834723
-0.0876123
-0.0917456
-0.0958734
-0.099997
-0.104118
-0.108236
0.219519
0.217395
0.215323
0.213321
0.2114
0.209564
0.207803
0.206101
0.204459
0.202853
0.201288
0.199774
0.198303
0.196856
0.195436
0.194038
0.19266
0.191295
0.189943
0.188602
0.187275
0.185974
0.184707
0.183482
0.182305
0.181176
0.180091
0.179049
0.178051
0.177088
0.176162
0.175272
0.174417
0.173595
0.172803
0.17204
0.171309
0.170613
0.169955
0.169331
0.168742
0.168188
0.167665
0.167166
0.166689
0.166228
0.165773
0.165319
0.16486
0.164387
0.163897
0.163387
0.162853
0.162295
0.161714
0.161111
0.160494
0.159865
0.159227
0.158583
0.157935
0.15728
0.156617
0.155941
0.155235
0.154485
0.153661
0.152721
0.151608
0.150243
0.148521
0.146313
0.143481
0.139883
0.135417
0.130057
0.123855
0.116916
0.109395
0.101413
0.0931217
0.084678
0.0762318
0.0679369
0.0599221
0.0522985
0.0451433
0.0384611
0.0322918
0.0264831
0.0209189
0.0155232
0.0102566
0.00510327
5.82521e-05
-0.00488037
-0.00971588
-0.0144543
-0.019104
-0.0236745
-0.0281758
-0.0326174
-0.0370082
-0.0413557
-0.0456666
-0.0499463
-0.0541995
-0.05843
-0.062641
-0.066835
-0.0710144
-0.0751811
-0.0793368
-0.0834831
-0.0876214
-0.0917529
-0.095879
-0.100001
-0.10412
-0.108237
0.219513
0.217378
0.21529
0.213254
0.211278
0.209371
0.207533
0.205751
0.204046
0.202378
0.20075
0.199178
0.197674
0.196203
0.194761
0.193354
0.191977
0.190614
0.189275
0.187946
0.186618
0.185308
0.184022
0.182771
0.181569
0.180418
0.179313
0.178251
0.177238
0.176263
0.175326
0.174423
0.173556
0.172725
0.171921
0.171145
0.170402
0.169695
0.169029
0.168401
0.167811
0.16726
0.166742
0.166253
0.165788
0.165344
0.164909
0.164475
0.164037
0.163586
0.163117
0.16263
0.162117
0.161582
0.161025
0.160444
0.159849
0.159241
0.158623
0.157998
0.157368
0.156728
0.15608
0.155418
0.154727
0.153993
0.153191
0.152279
0.151203
0.149894
0.148254
0.14616
0.143483
0.140089
0.13586
0.130735
0.124688
0.117793
0.110172
0.101983
0.0934876
0.0848505
0.0761472
0.0674898
0.0590548
0.0510697
0.0437698
0.0371951
0.0312744
0.0257305
0.0203848
0.015147
0.00998597
0.00489986
-0.000103257
-0.00501561
-0.00983403
-0.0145606
-0.0192011
-0.0237641
-0.0282587
-0.0326942
-0.0370792
-0.0414212
-0.0457269
-0.0500016
-0.0542499
-0.0584758
-0.0626823
-0.0668721
-0.0710474
-0.0752102
-0.0793621
-0.0835047
-0.0876394
-0.0917675
-0.0958903
-0.100009
-0.104125
-0.108239
0.219491
0.217309
0.215162
0.21305
0.210978
0.208958
0.206998
0.205095
0.203292
0.20154
0.199829
0.198177
0.196621
0.195117
0.193644
0.192217
0.190835
0.189468
0.188134
0.186818
0.185492
0.184176
0.18288
0.181611
0.180386
0.179211
0.178088
0.177006
0.175979
0.174995
0.174049
0.173134
0.172254
0.171412
0.170595
0.169805
0.169049
0.168331
0.167658
0.167026
0.166436
0.16589
0.165383
0.164907
0.164459
0.164037
0.163626
0.16322
0.162811
0.162388
0.161946
0.161486
0.161002
0.160495
0.159968
0.159418
0.158852
0.158275
0.157685
0.157089
0.156484
0.155867
0.15524
0.154598
0.153925
0.153209
0.152434
0.151554
0.150516
0.149264
0.147709
0.145727
0.143192
0.139972
0.135941
0.13097
0.125042
0.118245
0.110652
0.102481
0.0939238
0.0850408
0.0759269
0.0667253
0.0576302
0.0489803
0.0413376
0.0350558
0.0296598
0.0245976
0.0196085
0.0146093
0.00959934
0.0046064
-0.000339493
-0.00521591
-0.0100106
-0.0147201
-0.0193473
-0.023899
-0.0283836
-0.0328098
-0.037186
-0.0415197
-0.0458174
-0.0500845
-0.0543255
-0.0585444
-0.0627442
-0.0669276
-0.0710968
-0.0752536
-0.0793999
-0.083537
-0.0876665
-0.0917894
-0.0959072
-0.100021
-0.104132
-0.108241
0.219441
0.217156
0.214899
0.212665
0.210455
0.208279
0.206159
0.204111
0.202167
0.200293
0.198479
0.196726
0.195095
0.193543
0.192036
0.190585
0.189194
0.187823
0.18649
0.185182
0.183863
0.18255
0.181253
0.179979
0.178743
0.177553
0.176419
0.17532
0.174283
0.173295
0.172346
0.171426
0.170536
0.169683
0.168853
0.16805
0.167284
0.16656
0.165883
0.165251
0.164663
0.164124
0.163626
0.163163
0.162733
0.162331
0.161945
0.161569
0.161194
0.160802
0.160392
0.159964
0.159514
0.159042
0.158551
0.158039
0.157512
0.156973
0.156421
0.155862
0.155291
0.154702
0.154102
0.153484
0.152832
0.152134
0.151381
0.150529
0.149527
0.148324
0.146841
0.144955
0.142544
0.139476
0.135623
0.130877
0.125203
0.118574
0.111062
0.102886
0.0941669
0.0849844
0.075445
0.0656056
0.0555695
0.0457045
0.0371247
0.0317433
0.0274292
0.0231546
0.0186622
0.0139609
0.00912714
0.00423905
-0.000642895
-0.00547837
-0.0102449
-0.0149333
-0.0195434
-0.0240801
-0.0285511
-0.0329647
-0.037329
-0.0416513
-0.0459382
-0.050195
-0.0544263
-0.0586358
-0.0628266
-0.0670014
-0.0711624
-0.0753114
-0.0794501
-0.0835799
-0.0877023
-0.0918185
-0.0959296
-0.100037
-0.104141
-0.108244
0.219363
0.216909
0.214474
0.212054
0.209658
0.207299
0.204981
0.202761
0.200652
0.198631
0.196695
0.194832
0.193109
0.191489
0.189939
0.188465
0.187057
0.185681
0.184352
0.183046
0.18174
0.180437
0.17915
0.177888
0.176658
0.175467
0.174333
0.173226
0.172179
0.171189
0.170239
0.169323
0.168435
0.167578
0.166742
0.165931
0.165158
0.164432
0.163756
0.163126
0.162544
0.162011
0.161522
0.161071
0.160655
0.160269
0.159904
0.159556
0.159211
0.158853
0.158478
0.158086
0.157675
0.157244
0.156795
0.156328
0.155848
0.155355
0.154851
0.154336
0.153805
0.153252
0.152683
0.152092
0.15146
0.150777
0.150032
0.149199
0.148219
0.147051
0.145623
0.143815
0.141504
0.138554
0.134848
0.130285
0.124768
0.11827
0.110874
0.102677
0.0938375
0.0845339
0.0747521
0.0643504
0.0531456
0.0410423
0.0292429
0.027009
0.0248169
0.0216388
0.0176996
0.0132875
0.00861332
0.00381867
-0.00100456
-0.00579996
-0.0105366
-0.0152009
-0.0197902
-0.0243082
-0.0287619
-0.0331593
-0.0375084
-0.0418163
-0.0460895
-0.0503332
-0.0545521
-0.0587497
-0.0629293
-0.0670933
-0.071244
-0.0753831
-0.0795124
-0.0836332
-0.0877468
-0.0918545
-0.0959574
-0.100057
-0.104153
-0.108248
0.219257
0.216581
0.213916
0.211262
0.208619
0.206026
0.203475
0.201052
0.198765
0.196585
0.194518
0.192528
0.190708
0.188996
0.187396
0.185893
0.184465
0.183086
0.181756
0.180451
0.179162
0.177883
0.176616
0.175377
0.174168
0.172992
0.17187
0.170774
0.169725
0.168731
0.167781
0.166868
0.165985
0.165134
0.164302
0.163494
0.162723
0.162
0.161326
0.1607
0.160124
0.159598
0.159117
0.158676
0.158271
0.157898
0.157552
0.157226
0.156906
0.15658
0.156242
0.155891
0.155523
0.15514
0.154741
0.154326
0.1539
0.153461
0.15301
0.152546
0.152058
0.151548
0.151009
0.150441
0.14983
0.14916
0.148412
0.147579
0.146603
0.145446
0.144049
0.142305
0.140073
0.137223
0.133637
0.129189
0.123804
0.117466
0.11022
0.102167
0.0934322
0.0840946
0.074143
0.063402
0.0512686
0.0359618
0.00994242
0.0218253
0.0228032
0.0205529
0.0169499
0.0126909
0.00810203
0.00336352
-0.00141788
-0.00617918
-0.0108863
-0.0155241
-0.020089
-0.0245844
-0.0290169
-0.0333944
-0.0377246
-0.0420148
-0.0462712
-0.050499
-0.0547028
-0.0588861
-0.063052
-0.0672031
-0.0713414
-0.0754687
-0.0795867
-0.0836966
-0.0877998
-0.0918974
-0.0959905
-0.10008
-0.104167
-0.108253
0.219128
0.216183
0.213223
0.210266
0.207339
0.204483
0.201685
0.199018
0.196527
0.194181
0.191982
0.189859
0.187952
0.18613
0.184492
0.182957
0.181503
0.180121
0.178791
0.177488
0.176217
0.174968
0.173735
0.172528
0.171346
0.170192
0.169088
0.168015
0.166976
0.165984
0.165034
0.164122
0.163242
0.162394
0.161571
0.160773
0.160013
0.159298
0.158632
0.158013
0.157444
0.156925
0.15645
0.156018
0.155624
0.155265
0.154936
0.154628
0.154331
0.154036
0.153736
0.153429
0.153111
0.152783
0.152439
0.152083
0.151718
0.151339
0.150946
0.150536
0.150095
0.149627
0.149124
0.148574
0.14798
0.147316
0.14656
0.145711
0.144719
0.143548
0.142146
0.14042
0.138235
0.135462
0.131963
0.127599
0.12232
0.116094
0.10896
0.101048
0.0924669
0.0833018
0.0735933
0.06325
0.0520854
0.0399793
0.0280111
0.0257798
0.0236084
0.0204684
0.0165788
0.0122236
0.00761012
0.00287783
-0.00188323
-0.00661791
-0.0112961
-0.0159048
-0.0204415
-0.0249099
-0.0293169
-0.0336704
-0.037978
-0.0422469
-0.0464832
-0.0506921
-0.054878
-0.0590444
-0.0631944
-0.0673302
-0.0714541
-0.0755677
-0.0796725
-0.0837699
-0.087861
-0.0919469
-0.0960286
-0.100107
-0.104183
-0.108258
0.218964
0.215684
0.212383
0.20908
0.205826
0.20266
0.199608
0.196697
0.193983
0.191465
0.18914
0.186911
0.184909
0.182989
0.181316
0.179745
0.178272
0.176886
0.175554
0.174257
0.173004
0.171785
0.170589
0.169416
0.168264
0.167136
0.166048
0.164993
0.163966
0.162978
0.162031
0.161119
0.160242
0.159399
0.158584
0.157799
0.157053
0.156352
0.155699
0.155091
0.154533
0.154022
0.153554
0.153133
0.152751
0.152408
0.152097
0.151809
0.151538
0.151275
0.151016
0.150757
0.150492
0.150226
0.149946
0.149654
0.149354
0.149039
0.148707
0.148352
0.147961
0.147532
0.147065
0.146535
0.14595
0.145283
0.144514
0.143635
0.142614
0.141415
0.139997
0.138256
0.136061
0.133296
0.129842
0.125561
0.120362
0.114225
0.107198
0.0994025
0.0909996
0.0821249
0.0728515
0.0631905
0.053233
0.0433439
0.0345958
0.0292384
0.0249776
0.0207867
0.0163986
0.0118147
0.00710574
0.00234513
-0.0024101
-0.00712209
-0.01177
-0.0163457
-0.0208493
-0.0252858
-0.0296626
-0.0339876
-0.0382686
-0.0425125
-0.0467254
-0.0509123
-0.0550775
-0.0592244
-0.0633559
-0.0674744
-0.0715817
-0.0756797
-0.0797695
-0.0838526
-0.08793
-0.0920027
-0.0960716
-0.100138
-0.104202
-0.108264
0.218761
0.215075
0.21138
0.207695
0.204089
0.200601
0.197283
0.194152
0.191233
0.188535
0.186067
0.183759
0.181655
0.179665
0.177941
0.17632
0.174839
0.173444
0.172109
0.170825
0.169594
0.168405
0.167242
0.166096
0.164968
0.163862
0.162789
0.161744
0.160724
0.159738
0.158792
0.157882
0.157011
0.156175
0.155371
0.1546
0.153871
0.153187
0.152549
0.151958
0.151414
0.150917
0.150461
0.150053
0.149686
0.149362
0.149072
0.148808
0.148571
0.148346
0.148131
0.147924
0.147717
0.147516
0.147304
0.14708
0.14685
0.146601
0.146329
0.146027
0.145686
0.145297
0.144858
0.144347
0.143767
0.143093
0.142298
0.141381
0.14031
0.139061
0.137606
0.135846
0.133656
0.130885
0.127408
0.123126
0.117966
0.111934
0.105071
0.0974879
0.0893454
0.0807806
0.0719318
0.0629042
0.0538652
0.0451687
0.0374061
0.0311973
0.0259043
0.0209829
0.0161613
0.011347
0.00653156
0.00173623
-0.00301399
-0.00770028
-0.0123129
-0.0168498
-0.0213143
-0.0257132
-0.0300545
-0.0343462
-0.0385962
-0.0428112
-0.0469972
-0.0511589
-0.0553005
-0.0594253
-0.063536
-0.0676348
-0.0717236
-0.075804
-0.0798772
-0.0839444
-0.0880065
-0.0920645
-0.0961192
-0.100171
-0.104222
-0.108271
0.218532
0.21438
0.210209
0.20608
0.202091
0.19829
0.194717
0.19139
0.188315
0.185464
0.182854
0.180449
0.178248
0.176212
0.174428
0.172751
0.17126
0.16985
0.168511
0.167239
0.166025
0.164863
0.163731
0.162607
0.161495
0.160398
0.15933
0.158287
0.157268
0.156284
0.155339
0.154432
0.153569
0.152745
0.151953
0.151199
0.150488
0.149823
0.149204
0.148632
0.148109
0.147631
0.147195
0.146806
0.14646
0.146157
0.145893
0.14566
0.145461
0.14528
0.145116
0.144966
0.144823
0.144686
0.144542
0.14439
0.14423
0.144046
0.143834
0.143585
0.14329
0.142936
0.14252
0.142023
0.14144
0.140748
0.13992
0.138956
0.137828
0.136516
0.134984
0.133158
0.13093
0.128153
0.124697
0.120415
0.115287
0.10934
0.102636
0.0952688
0.0873761
0.0791123
0.0706588
0.062144
0.0537321
0.0456977
0.0383382
0.0318944
0.0261405
0.0208063
0.0157009
0.0107236
0.00583386
0.00102191
-0.00371071
-0.00836106
-0.0129293
-0.0174194
-0.0218377
-0.0261925
-0.0304925
-0.0347459
-0.0389604
-0.0431425
-0.0472979
-0.0514312
-0.0555462
-0.0596462
-0.0637337
-0.0678108
-0.0718791
-0.0759401
-0.0799949
-0.0840446
-0.08809
-0.0921319
-0.0961711
-0.100208
-0.104244
-0.108278
0.218241
0.213529
0.208839
0.204244
0.199861
0.195746
0.191924
0.188395
0.18517
0.182212
0.179495
0.177007
0.174739
0.172667
0.170818
0.169093
0.16757
0.166134
0.164794
0.163525
0.16232
0.161179
0.160067
0.158961
0.157861
0.156763
0.15569
0.15464
0.153616
0.152631
0.151688
0.150787
0.149936
0.149125
0.148349
0.147614
0.146926
0.146283
0.145685
0.145136
0.144638
0.144186
0.143778
0.143418
0.1431
0.142825
0.142593
0.142397
0.14224
0.142111
0.142003
0.141913
0.141837
0.141764
0.141689
0.14161
0.141516
0.141394
0.14124
0.141039
0.140783
0.140461
0.14006
0.139567
0.138975
0.138256
0.137386
0.136368
0.135179
0.133798
0.132197
0.130317
0.128027
0.125177
0.121686
0.117396
0.112295
0.106425
0.0998426
0.092646
0.0849983
0.0770494
0.0689648
0.0608767
0.0529099
0.0452504
0.0381022
0.0316273
0.0257039
0.0201847
0.0149418
0.00988913
0.00497738
0.000181317
-0.00451197
-0.00911071
-0.0136226
-0.0180559
-0.0224198
-0.0267236
-0.0309762
-0.035186
-0.0393602
-0.0435052
-0.0476264
-0.051728
-0.0558136
-0.0598862
-0.0639482
-0.0680013
-0.0720472
-0.076087
-0.0801219
-0.0841526
-0.08818
-0.0922045
-0.0962269
-0.100248
-0.104267
-0.108286
0.217903
0.212553
0.207308
0.202236
0.197457
0.193045
0.189014
0.185316
0.181931
0.178864
0.176044
0.173473
0.171143
0.169034
0.167127
0.165368
0.163796
0.162329
0.160971
0.159697
0.158494
0.157368
0.156268
0.155172
0.154072
0.152968
0.151882
0.150818
0.149784
0.148796
0.147856
0.146963
0.146131
0.145336
0.144579
0.143867
0.143207
0.142591
0.142021
0.141501
0.141034
0.140616
0.140244
0.13992
0.139638
0.1394
0.139206
0.139055
0.138946
0.138872
0.138824
0.138798
0.138787
0.138779
0.138773
0.138763
0.138729
0.138663
0.138561
0.138402
0.138179
0.137879
0.137487
0.136982
0.136366
0.135608
0.13469
0.13361
0.132346
0.130873
0.129167
0.12719
0.124813
0.121899
0.11836
0.114064
0.108996
0.103196
0.0967346
0.0897097
0.0822835
0.0746026
0.0668105
0.0590231
0.0513638
0.0439864
0.0370167
0.0306089
0.0246783
0.0191292
0.0138685
0.00882425
0.0039469
-0.000795419
-0.00542337
-0.00995194
-0.0143935
-0.0187593
-0.0230599
-0.0273052
-0.0315042
-0.0356649
-0.0397942
-0.043898
-0.0479812
-0.0520479
-0.0561013
-0.060144
-0.0641781
-0.0682053
-0.0722269
-0.076244
-0.0802573
-0.0842678
-0.0882757
-0.0922818
-0.0962863
-0.10029
-0.104292
-0.108294
0.217561
0.211542
0.205685
0.200111
0.194938
0.190233
0.186004
0.182163
0.178636
0.175454
0.172544
0.169883
0.167486
0.165325
0.163362
0.161567
0.159943
0.158441
0.15705
0.155759
0.154555
0.153434
0.152341
0.151246
0.150137
0.14902
0.147917
0.146836
0.145789
0.144796
0.143864
0.142985
0.142176
0.141406
0.140676
0.139994
0.139366
0.138785
0.138253
0.137771
0.137342
0.136963
0.136632
0.136351
0.136113
0.13592
0.135774
0.135673
0.135618
0.135602
0.135616
0.135653
0.135704
0.135759
0.135817
0.135869
0.135889
0.135871
0.135808
0.135682
0.135483
0.135194
0.134799
0.134279
0.133629
0.132816
0.131832
0.130678
0.129342
0.127791
0.125987
0.123902
0.121423
0.118422
0.11481
0.110478
0.105415
0.0996665
0.0933136
0.0864534
0.0792284
0.0717704
0.0642106
0.0566629
0.049245
0.0420752
0.0352624
0.0289824
0.0231492
0.0176801
0.0124962
0.00753311
0.00274291
-0.00190827
-0.00644439
-0.0108836
-0.0152405
-0.0195276
-0.023756
-0.0279353
-0.0320744
-0.0361806
-0.0402602
-0.0443188
-0.0483605
-0.0523892
-0.0564075
-0.0604178
-0.064422
-0.0684213
-0.0724169
-0.0764097
-0.0804003
-0.0843891
-0.0883766
-0.0923631
-0.0963488
-0.100334
-0.104319
-0.108303
0.217201
0.210495
0.204028
0.197951
0.19239
0.187396
0.182953
0.178963
0.175304
0.171989
0.168988
0.166244
0.163772
0.161551
0.159533
0.157691
0.156011
0.154465
0.15303
0.151709
0.150497
0.149374
0.148282
0.147183
0.146062
0.144931
0.143811
0.142713
0.141653
0.140658
0.13974
0.138887
0.138104
0.137368
0.136678
0.136035
0.135451
0.134914
0.134429
0.133994
0.13361
0.133276
0.132991
0.132757
0.13257
0.132428
0.132336
0.132292
0.132295
0.132339
0.132413
0.132509
0.132618
0.13273
0.13284
0.13294
0.133007
0.133024
0.132988
0.132889
0.132709
0.132416
0.131999
0.131448
0.130753
0.129884
0.128828
0.12759
0.126171
0.12455
0.122662
0.120456
0.117853
0.114741
0.111031
0.106657
0.101603
0.0958974
0.0896336
0.0829091
0.0758482
0.0685717
0.0611938
0.0538178
0.0465638
0.0395629
0.0329263
0.0268351
0.0211846
0.0158837
0.0108538
0.0060333
0.00137653
-0.00314959
-0.0075692
-0.0119008
-0.0161593
-0.020357
-0.0245044
-0.0286106
-0.0326837
-0.0367301
-0.0407557
-0.044765
-0.0487619
-0.0527495
-0.0567302
-0.0607059
-0.0646781
-0.0686478
-0.072616
-0.0765831
-0.0805496
-0.0845158
-0.0884819
-0.0924479
-0.0964139
-0.10038
-0.104346
-0.108312
0.216841
0.209442
0.202354
0.195749
0.18977
0.184482
0.179835
0.175707
0.171947
0.16852
0.165416
0.162584
0.160021
0.157719
0.155635
0.153737
0.151999
0.150395
0.14891
0.147546
0.146312
0.145175
0.14408
0.142974
0.141848
0.140714
0.139584
0.138476
0.137406
0.136414
0.135514
0.134697
0.133952
0.133263
0.132627
0.132039
0.131512
0.131032
0.130603
0.130222
0.129889
0.129606
0.129373
0.129192
0.129059
0.128974
0.128937
0.128952
0.129013
0.129116
0.129246
0.129398
0.129558
0.129716
0.129863
0.129994
0.13009
0.13013
0.130105
0.130016
0.129843
0.129539
0.129096
0.128506
0.12775
0.126806
0.125671
0.124351
0.122848
0.121153
0.119185
0.116861
0.114121
0.110887
0.10706
0.102613
0.0975539
0.0918942
0.085705
0.0791035
0.0721799
0.06503
0.0577624
0.0504818
0.0433222
0.0364574
0.0300385
0.0242161
0.018837
0.0137853
0.00897613
0.00435024
-0.000133987
-0.00450608
-0.00878775
-0.0129957
-0.0171434
-0.0212417
-0.0253002
-0.0293267
-0.033328
-0.0373099
-0.0412772
-0.0452337
-0.0491826
-0.0531264
-0.0570671
-0.0610061
-0.0649445
-0.0688831
-0.0728224
-0.0767627
-0.0807041
-0.0846467
-0.0885905
-0.0925353
-0.0964811
-0.100428
-0.104374
-0.108322
0.216498
0.208422
0.200697
0.19354
0.187119
0.181512
0.176653
0.172383
0.168526
0.165009
0.161808
0.158891
0.156239
0.153838
0.151671
0.149705
0.147901
0.146234
0.144695
0.14328
0.141997
0.140824
0.139721
0.138608
0.137491
0.136375
0.135263
0.134173
0.13312
0.132149
0.131274
0.130491
0.129787
0.129153
0.12858
0.128061
0.1276
0.127188
0.126826
0.126509
0.126236
0.126011
0.125835
0.12571
0.125634
0.125605
0.125624
0.125692
0.125807
0.125961
0.126138
0.126335
0.126535
0.126725
0.126895
0.127042
0.127148
0.127197
0.12717
0.127067
0.126876
0.126548
0.126074
0.12544
0.124622
0.123597
0.122368
0.120963
0.119383
0.117622
0.115568
0.113124
0.110237
0.10688
0.102957
0.0984336
0.0933374
0.0877096
0.0815851
0.0750776
0.0682601
0.0611865
0.0539476
0.0466589
0.0394806
0.0326863
0.0265775
0.0211518
0.0161539
0.0114332
0.00690404
0.00251553
-0.00176499
-0.00596005
-0.0100865
-0.0141576
-0.018184
-0.0221747
-0.0261372
-0.030078
-0.0340026
-0.0379156
-0.0418207
-0.0457211
-0.0496191
-0.0535167
-0.0574153
-0.0613158
-0.0652189
-0.0691251
-0.0730344
-0.0769469
-0.0808624
-0.0847808
-0.0887017
-0.0926248
-0.0965497
-0.100476
-0.104403
-0.108331
0.21617
0.207441
0.199096
0.191407
0.184571
0.178635
0.173507
0.169045
0.165066
0.161457
0.158162
0.155147
0.152403
0.149913
0.147669
0.145627
0.143751
0.14202
0.140429
0.138962
0.137613
0.136387
0.135257
0.134128
0.133021
0.131935
0.130862
0.12982
0.128818
0.127901
0.127076
0.126346
0.1257
0.12513
0.124628
0.124185
0.123798
0.123462
0.123172
0.122926
0.122721
0.122559
0.122441
0.122371
0.122349
0.122371
0.122437
0.122548
0.122703
0.122893
0.123099
0.123326
0.12355
0.123758
0.123938
0.124087
0.124186
0.124225
0.124183
0.124049
0.123823
0.123451
0.122937
0.122252
0.121378
0.120278
0.118958
0.11746
0.115798
0.113965
0.111826
0.109272
0.106245
0.102737
0.0987219
0.0941565
0.0890473
0.0834386
0.0773682
0.0709207
0.0641688
0.0571321
0.0498568
0.0424228
0.0349945
0.0280361
0.0224755
0.0176769
0.0132008
0.00889029
0.00468782
0.000567024
-0.00348834
-0.00749045
-0.0114494
-0.0153738
-0.0192709
-0.0231471
-0.0270079
-0.0308581
-0.0347016
-0.0385418
-0.0423815
-0.046223
-0.0500677
-0.0539171
-0.0577718
-0.0616323
-0.065499
-0.0693716
-0.0732501
-0.077134
-0.0810231
-0.0849167
-0.0888143
-0.0927153
-0.0966191
-0.100525
-0.104433
-0.108341
0.215862
0.206514
0.197575
0.189353
0.182061
0.175772
0.170382
0.165712
0.161585
0.157871
0.154495
0.151375
0.148527
0.145929
0.143593
0.141465
0.139519
0.137726
0.136091
0.134573
0.133166
0.131894
0.130727
0.129589
0.128495
0.127444
0.126426
0.125453
0.124533
0.123698
0.122952
0.122298
0.121734
0.121247
0.12083
0.120474
0.120172
0.119919
0.11971
0.11954
0.119405
0.119308
0.119247
0.119227
0.119249
0.119309
0.119409
0.119547
0.119723
0.119931
0.120144
0.12038
0.12061
0.120821
0.12099
0.12113
0.121207
0.12122
0.121146
0.120967
0.120689
0.120261
0.119698
0.118956
0.118026
0.116863
0.115469
0.113887
0.112148
0.110236
0.108001
0.105348
0.102238
0.0986136
0.0945023
0.0898923
0.0847851
0.0791925
0.0731837
0.0667908
0.0600819
0.0530535
0.0456771
0.0379212
0.0297951
0.0218167
0.0176661
0.0139087
0.0100978
0.00624539
0.00238927
-0.00145201
-0.00527291
-0.0090741
-0.0128586
-0.01663
-0.0203924
-0.0241492
-0.0279039
-0.0316594
-0.0354184
-0.0391828
-0.0429545
-0.0467347
-0.0505243
-0.0543237
-0.0581332
-0.0619526
-0.0657818
-0.0696202
-0.0734673
-0.0773223
-0.0811845
-0.0850531
-0.0889272
-0.092806
-0.0966886
-0.100574
-0.104462
-0.108351
0.215553
0.205593
0.196042
0.18724
0.179467
0.172827
0.167205
0.162356
0.158086
0.154257
0.150807
0.147584
0.144647
0.14195
0.139516
0.137294
0.135265
0.133397
0.131715
0.13014
0.12869
0.127382
0.126185
0.125051
0.123986
0.122982
0.122033
0.121147
0.120328
0.119595
0.118952
0.118401
0.117939
0.117556
0.11724
0.116983
0.11678
0.116621
0.116499
0.116409
0.116345
0.11631
0.116298
0.116316
0.116366
0.116445
0.116557
0.116702
0.116877
0.117078
0.117274
0.117496
0.117714
0.117913
0.118056
0.118171
0.118218
0.118189
0.11807
0.11784
0.117498
0.117013
0.116398
0.1156
0.114615
0.113406
0.111956
0.110292
0.108471
0.10648
0.10416
0.101413
0.0982513
0.0945828
0.0904255
0.0857968
0.0807249
0.0751708
0.0692205
0.0628962
0.0562254
0.0491888
0.0417066
0.033585
0.0242611
0.0110482
0.0125302
0.0102315
0.00705657
0.00361207
7.51519e-05
-0.00349782
-0.00708762
-0.0106875
-0.0142955
-0.0179114
-0.0215359
-0.0251703
-0.0288159
-0.032474
-0.0361458
-0.0398322
-0.0435338
-0.0472511
-0.050984
-0.0547324
-0.0584957
-0.0622734
-0.0660646
-0.0698684
-0.0736838
-0.0775097
-0.081345
-0.0851886
-0.0890393
-0.0928959
-0.0967575
-0.100623
-0.104491
-0.10836
0.2152
0.204572
0.194397
0.185011
0.176739
0.16972
0.16387
0.158903
0.154546
0.150625
0.147073
0.143757
0.140722
0.137926
0.135396
0.133091
0.130988
0.129057
0.127331
0.1257
0.124221
0.12289
0.121685
0.120571
0.11955
0.118611
0.117746
0.116961
0.11626
0.115649
0.115131
0.114706
0.114369
0.114108
0.113911
0.113769
0.113677
0.113622
0.113592
0.11358
0.113583
0.1136
0.113625
0.113661
0.113717
0.113786
0.113884
0.114013
0.114163
0.114329
0.114485
0.114672
0.114859
0.11503
0.11514
0.115217
0.115229
0.115149
0.11498
0.1147
0.114298
0.11376
0.113095
0.112248
0.111215
0.109967
0.108487
0.106768
0.104867
0.102786
0.100407
0.0976051
0.0944052
0.0907484
0.0866212
0.0820255
0.077022
0.0715641
0.0656912
0.0594206
0.0527618
0.0457245
0.0382755
0.0303757
0.0221554
0.0143141
0.0106337
0.00747368
0.00430685
0.00107881
-0.00220507
-0.00553561
-0.00890548
-0.0123091
-0.0157425
-0.0192029
-0.0226888
-0.0261994
-0.0297342
-0.0332931
-0.0368761
-0.040483
-0.0441133
-0.0477666
-0.051442
-0.0551387
-0.0588555
-0.0625911
-0.0663443
-0.0701135
-0.0738973
-0.0776943
-0.0815029
-0.0853218
-0.0891493
-0.0929842
-0.0968251
-0.10067
-0.104519
-0.10837
0.214792
0.203397
0.192578
0.182681
0.174006
0.16667
0.160574
0.15545
0.150999
0.147025
0.143386
0.139996
0.136845
0.133936
0.1313
0.128901
0.126721
0.124739
0.122972
0.121307
0.11981
0.118474
0.117284
0.116211
0.115251
0.114395
0.113631
0.112961
0.112389
0.111913
0.111538
0.111259
0.111065
0.110946
0.110887
0.110877
0.11091
0.110966
0.111028
0.111089
0.111148
0.111201
0.111239
0.111269
0.1113
0.111328
0.111379
0.111462
0.111562
0.11167
0.111767
0.111901
0.112044
0.112174
0.112247
0.112285
0.11226
0.112133
0.111924
0.111607
0.11116
0.110589
0.109882
0.109001
0.10793
0.106649
0.105148
0.103404
0.101444
0.099279
0.0968654
0.0940742
0.0909129
0.0873332
0.0833365
0.0788848
0.0740214
0.0686934
0.0628831
0.0566084
0.0498868
0.0427696
0.035276
0.0274878
0.0197329
0.0128887
0.00827692
0.00476182
0.00163922
-0.00139222
-0.00444263
-0.00754536
-0.0107057
-0.0139199
-0.0171829
-0.0204902
-0.0238385
-0.0272252
-0.0306488
-0.0341079
-0.0376013
-0.0411278
-0.0446863
-0.0482751
-0.0518929
-0.0555379
-0.0592082
-0.0629021
-0.0666175
-0.0703525
-0.0741053
-0.0778739
-0.0816564
-0.085451
-0.0892561
-0.0930698
-0.0968905
-0.100717
-0.104547
-0.108379
0.214343
0.202106
0.190661
0.180377
0.171411
0.163796
0.157445
0.152086
0.147464
0.143388
0.139662
0.136214
0.132977
0.129984
0.127258
0.124768
0.12252
0.120495
0.118695
0.117031
0.115529
0.114207
0.113052
0.11204
0.11116
0.1104
0.109747
0.109201
0.108763
0.108433
0.108211
0.108095
0.108063
0.108105
0.108204
0.108345
0.108516
0.108689
0.108842
0.108966
0.10906
0.109119
0.109137
0.109125
0.109096
0.109051
0.109025
0.109031
0.109056
0.109092
0.109117
0.109183
0.109266
0.109345
0.109382
0.109393
0.109343
0.109191
0.108965
0.108633
0.108169
0.107591
0.10687
0.105978
0.104892
0.103588
0.102068
0.100321
0.0983468
0.0961488
0.0937358
0.0910112
0.0879583
0.0845307
0.0807266
0.0765023
0.071848
0.0666706
0.0609264
0.0546068
0.0477207
0.0403616
0.0325753
0.0245008
0.0163617
0.00925414
0.00485653
0.00168699
-0.0011018
-0.00383932
-0.00663367
-0.00951101
-0.0124702
-0.0155032
-0.0186019
-0.02176
-0.0249727
-0.0282368
-0.0315496
-0.0349089
-0.0383127
-0.0417591
-0.0452458
-0.0487706
-0.0523312
-0.0559251
-0.0595497
-0.0632025
-0.066881
-0.0705827
-0.0743053
-0.0780463
-0.0818036
-0.0855749
-0.0893583
-0.0931517
-0.0969532
-0.100761
-0.104573
-0.108388
0.213846
0.200847
0.189004
0.178443
0.16918
0.161252
0.154623
0.149049
0.144227
0.139981
0.136119
0.132556
0.129202
0.126129
0.123322
0.120753
0.118441
0.116382
0.114568
0.112939
0.111455
0.110168
0.109065
0.108128
0.10734
0.106683
0.106146
0.105726
0.105424
0.105244
0.105185
0.105241
0.105389
0.105613
0.105893
0.106206
0.106528
0.106819
0.107054
0.107223
0.107324
0.107354
0.107311
0.107214
0.107086
0.106942
0.106815
0.106721
0.106654
0.106598
0.106536
0.106509
0.106514
0.106534
0.106547
0.106554
0.106514
0.106381
0.106164
0.105845
0.105404
0.10487
0.104193
0.103342
0.102294
0.101009
0.0994854
0.09775
0.0958119
0.0936464
0.0912591
0.0886545
0.0857979
0.0826561
0.0791687
0.075253
0.0707564
0.0655538
0.0596681
0.0532111
0.0459809
0.0381496
0.0299196
0.0213354
0.0118028
0.00282789
0.000191438
-0.00175831
-0.00388244
-0.00622692
-0.00874908
-0.0114099
-0.0141812
-0.0170439
-0.0199859
-0.0229997
-0.0260801
-0.0292233
-0.0324264
-0.0356868
-0.0390018
-0.0423687
-0.0457847
-0.0492465
-0.0527511
-0.0562951
-0.0598753
-0.0634884
-0.0671313
-0.070801
-0.0744947
-0.0782094
-0.0819427
-0.0856919
-0.0894548
-0.0932289
-0.0970122
-0.100802
-0.104598
-0.108396
0.213944
0.200955
0.188651
0.177364
0.167482
0.159115
0.152122
0.146254
0.141196
0.136761
0.132761
0.129078
0.125605
0.122445
0.119556
0.11692
0.114543
0.11246
0.110664
0.109103
0.107674
0.106444
0.105408
0.104551
0.103856
0.103301
0.102876
0.102577
0.102412
0.102389
0.102509
0.102756
0.1031
0.103525
0.104007
0.104507
0.104981
0.105378
0.10567
0.105851
0.105922
0.105888
0.105747
0.105535
0.105288
0.105035
0.104802
0.104596
0.104405
0.104227
0.104039
0.103869
0.10375
0.103704
0.103714
0.103781
0.103815
0.103743
0.103554
0.103276
0.10293
0.102553
0.102036
0.101356
0.100491
0.0993285
0.0978967
0.0961619
0.0942829
0.0921268
0.0897251
0.0872529
0.0847575
0.0820257
0.0789996
0.0754631
0.0703688
0.0640248
0.0581682
0.0528017
0.0440441
0.0351328
0.0282708
0.0189167
0.00630294
-0.00524956
-0.00524872
-0.00504908
-0.00644188
-0.00843791
-0.010735
-0.013215
-0.0158223
-0.0185295
-0.0213239
-0.0241987
-0.02715
-0.0301744
-0.0332693
-0.036432
-0.0396596
-0.0429486
-0.0462954
-0.0496962
-0.0531466
-0.0566428
-0.0601805
-0.0637558
-0.067365
-0.0710046
-0.074671
-0.0783611
-0.0820719
-0.0858005
-0.0895442
-0.0933005
-0.0970669
-0.100841
-0.104621
-0.108403
0.213641
0.200015
0.187248
0.175897
0.16607
0.157607
0.150373
0.144192
0.138813
0.134078
0.129853
0.125981
0.122364
0.119073
0.116071
0.113349
0.110901
0.108804
0.107068
0.105624
0.104309
0.103152
0.102185
0.101402
0.100793
0.100336
0.100023
0.0998502
0.0998259
0.1
0.10034
0.100794
0.10134
0.101977
0.102664
0.10333
0.103908
0.104351
0.10464
0.10479
0.104815
0.1047
0.104471
0.10417
0.103843
0.103518
0.103197
0.102852
0.102444
0.102042
0.101672
0.101256
0.100906
0.10076
0.100845
0.101154
0.101356
0.101323
0.101118
0.100904
0.10083
0.100829
0.10063
0.100333
0.100002
0.0991701
0.0979712
0.0960578
0.0941863
0.0914792
0.0885845
0.0863383
0.0841472
0.0807118
0.0775255
0.0721695
0.0604795
0.0511625
0.0531753
0.0437352
0.0146235
0.0149732
0.0282422
0.00481845
0.000168014
-0