/*--------------------------------*- C++ -*----------------------------------*\
  =========                 |
  \\      /  F ield         | OpenFOAM: The Open Source CFD Toolbox
   \\    /   O peration     | Website:  https://openfoam.org
    \\  /    A nd           | Version:  6
     \\/     M anipulation  |
\*---------------------------------------------------------------------------*/
FoamFile
{
    version     2.0;
    format      ascii;
    class       volScalarField;
    location    "4800";
    object      T;
}
// * * * * * * * * * * * * * * * * * * * * * * * * * * * * * * * * * * * * * //

dimensions      [0 0 0 1 0 0 0];

internalField   nonuniform List<scalar> 
4800
(
552.511
552.434
552.359
552.287
552.218
552.152
552.089
552.029
551.971
551.914
551.859
551.805
551.752
551.7
551.649
551.598
551.548
551.498
551.449
551.4
551.352
551.305
551.26
551.216
551.174
551.134
551.095
551.057
551.021
550.987
550.953
550.922
550.891
550.861
550.833
550.805
550.779
550.754
550.73
550.708
550.686
550.666
550.647
550.629
550.611
550.594
550.577
550.561
550.544
550.526
550.508
550.489
550.469
550.448
550.426
550.404
550.381
550.358
550.334
550.311
550.287
550.263
550.239
550.214
550.188
550.161
550.13
550.096
550.054
550.003
549.939
549.855
549.748
549.612
549.445
549.245
549.018
548.768
548.501
548.217
547.921
547.618
547.316
547.022
546.738
546.468
546.21
545.966
545.739
545.524
545.318
545.12
544.927
544.739
544.555
544.376
544.2
544.028
543.859
543.693
543.53
543.369
543.209
543.051
542.895
542.74
542.585
542.432
542.279
542.127
541.975
541.824
541.673
541.523
541.373
541.223
541.073
540.923
540.774
540.625
552.511
552.434
552.359
552.286
552.217
552.15
552.086
552.025
551.965
551.907
551.85
551.795
551.742
551.69
551.638
551.587
551.537
551.488
551.439
551.39
551.342
551.295
551.249
551.205
551.162
551.121
551.081
551.044
551.007
550.972
550.939
550.907
550.876
550.846
550.817
550.789
550.763
550.737
550.713
550.691
550.669
550.649
550.63
550.612
550.595
550.578
550.562
550.545
550.529
550.511
550.494
550.475
550.456
550.436
550.415
550.393
550.37
550.348
550.325
550.301
550.278
550.254
550.23
550.205
550.18
550.153
550.123
550.089
550.048
549.999
549.936
549.856
549.754
549.623
549.461
549.267
549.042
548.79
548.518
548.228
547.927
547.621
547.315
547.014
546.723
546.446
546.187
545.945
545.721
545.51
545.309
545.113
544.922
544.735
544.552
544.373
544.198
544.026
543.857
543.691
543.528
543.367
543.208
543.05
542.894
542.739
542.584
542.431
542.278
542.126
541.975
541.823
541.673
541.522
541.372
541.222
541.073
540.923
540.774
540.625
552.511
552.434
552.358
552.284
552.212
552.143
552.077
552.012
551.95
551.89
551.831
551.774
551.719
551.666
551.614
551.563
551.513
551.463
551.415
551.367
551.318
551.271
551.224
551.179
551.135
551.093
551.053
551.015
550.978
550.943
550.909
550.876
550.844
550.814
550.785
550.757
550.73
550.704
550.68
550.657
550.636
550.616
550.597
550.579
550.562
550.546
550.53
550.515
550.499
550.482
550.465
550.448
550.429
550.41
550.39
550.369
550.347
550.325
550.303
550.28
550.257
550.234
550.21
550.186
550.161
550.135
550.106
550.073
550.034
549.986
549.927
549.851
549.754
549.631
549.477
549.291
549.072
548.822
548.546
548.249
547.941
547.627
547.312
546.997
546.691
546.402
546.137
545.899
545.684
545.483
545.289
545.099
544.912
544.728
544.546
544.368
544.193
544.022
543.854
543.688
543.525
543.364
543.205
543.048
542.892
542.737
542.583
542.429
542.277
542.125
541.973
541.822
541.672
541.522
541.372
541.222
541.072
540.923
540.774
540.625
552.51
552.431
552.353
552.277
552.201
552.128
552.057
551.988
551.923
551.859
551.797
551.737
551.681
551.626
551.573
551.521
551.471
551.422
551.373
551.326
551.277
551.23
551.183
551.137
551.092
551.05
551.009
550.97
550.932
550.897
550.862
550.829
550.797
550.766
550.737
550.708
550.681
550.655
550.63
550.607
550.586
550.566
550.548
550.53
550.514
550.499
550.484
550.469
550.454
550.439
550.423
550.406
550.389
550.37
550.351
550.331
550.311
550.29
550.269
550.247
550.225
550.203
550.18
550.157
550.132
550.106
550.078
550.046
550.009
549.963
549.907
549.835
549.743
549.626
549.48
549.3
549.085
548.839
548.563
548.267
547.956
547.634
547.303
546.97
546.64
546.326
546.048
545.821
545.625
545.442
545.261
545.08
544.898
544.717
544.538
544.361
544.187
544.016
543.848
543.683
543.521
543.36
543.201
543.044
542.888
542.734
542.58
542.427
542.274
542.123
541.972
541.821
541.67
541.52
541.371
541.221
541.072
540.923
540.774
540.625
552.508
552.425
552.344
552.263
552.183
552.104
552.027
551.952
551.882
551.814
551.748
551.685
551.626
551.569
551.515
551.462
551.412
551.362
551.314
551.266
551.218
551.171
551.124
551.078
551.033
550.99
550.948
550.908
550.871
550.835
550.8
550.767
550.735
550.704
550.674
550.645
550.617
550.59
550.566
550.543
550.521
550.502
550.484
550.467
550.451
550.437
550.423
550.409
550.396
550.381
550.367
550.351
550.335
550.318
550.3
550.281
550.262
550.243
550.223
550.203
550.182
550.161
550.139
550.116
550.093
550.067
550.04
550.009
549.973
549.929
549.875
549.807
549.72
549.608
549.469
549.297
549.091
548.851
548.578
548.282
547.965
547.632
547.286
546.929
546.565
546.207
545.896
545.701
545.544
545.389
545.226
545.056
544.881
544.704
544.527
544.351
544.179
544.008
543.841
543.677
543.515
543.355
543.196
543.039
542.884
542.73
542.576
542.423
542.272
542.12
541.969
541.819
541.669
541.519
541.369
541.22
541.071
540.922
540.773
540.624
552.505
552.416
552.328
552.24
552.154
552.068
551.984
551.903
551.827
551.754
551.684
551.616
551.553
551.495
551.439
551.385
551.334
551.284
551.236
551.189
551.141
551.094
551.047
551.002
550.957
550.914
550.873
550.832
550.794
550.758
550.724
550.691
550.659
550.627
550.597
550.568
550.54
550.513
550.489
550.466
550.445
550.425
550.407
550.391
550.376
550.362
550.349
550.336
550.324
550.311
550.297
550.283
550.268
550.253
550.236
550.219
550.202
550.184
550.166
550.147
550.128
550.108
550.087
550.066
550.043
550.018
549.991
549.961
549.925
549.883
549.831
549.766
549.682
549.575
549.441
549.275
549.075
548.84
548.571
548.274
547.953
547.616
547.261
546.883
546.477
546.038
545.61
545.529
545.449
545.334
545.191
545.032
544.862
544.688
544.514
544.34
544.168
543.999
543.832
543.668
543.507
543.347
543.19
543.033
542.879
542.725
542.572
542.419
542.268
542.117
541.966
541.816
541.666
541.517
541.368
541.219
541.07
540.921
540.773
540.624
552.502
552.405
552.308
552.212
552.116
552.022
551.929
551.841
551.759
551.679
551.605
551.532
551.466
551.404
551.346
551.292
551.24
551.19
551.142
551.095
551.048
551.001
550.955
550.911
550.867
550.824
550.783
550.743
550.705
550.669
550.635
550.602
550.57
550.539
550.509
550.479
550.451
550.425
550.4
550.378
550.357
550.338
550.32
550.304
550.29
550.276
550.263
550.252
550.24
550.228
550.216
550.203
550.19
550.176
550.162
550.147
550.131
550.116
550.099
550.082
550.065
550.046
550.027
550.006
549.984
549.96
549.932
549.902
549.867
549.825
549.774
549.711
549.63
549.527
549.397
549.235
549.04
548.81
548.548
548.256
547.939
547.6
547.239
546.849
546.409
545.853
544.958
545.341
545.376
545.295
545.164
545.01
544.844
544.672
544.499
544.326
544.155
543.987
543.821
543.658
543.498
543.339
543.182
543.026
542.872
542.719
542.566
542.414
542.263
542.113
541.963
541.813
541.664
541.515
541.366
541.217
541.069
540.92
540.772
540.624
552.497
552.39
552.283
552.176
552.069
551.966
551.864
551.768
551.677
551.592
551.513
551.436
551.366
551.3
551.241
551.185
551.133
551.082
551.034
550.987
550.941
550.896
550.851
550.807
550.764
550.722
550.682
550.643
550.606
550.57
550.535
550.502
550.47
550.439
550.409
550.381
550.353
550.327
550.303
550.28
550.26
550.241
550.224
550.208
550.194
550.181
550.169
550.157
550.147
550.136
550.125
550.114
550.103
550.091
550.078
550.066
550.052
550.039
550.024
550.009
549.993
549.977
549.958
549.938
549.917
549.893
549.865
549.834
549.798
549.756
549.705
549.643
549.563
549.463
549.336
549.178
548.986
548.761
548.502
548.215
547.904
547.571
547.219
546.843
546.438
545.999
545.565
545.484
545.405
545.292
545.151
544.993
544.826
544.654
544.482
544.31
544.14
543.973
543.809
543.647
543.487
543.329
543.173
543.018
542.864
542.712
542.56
542.409
542.258
542.108
541.959
541.809
541.661
541.512
541.364
541.215
541.067
540.919
540.772
540.624
552.491
552.372
552.252
552.133
552.014
551.9
551.789
551.683
551.585
551.494
551.409
551.329
551.256
551.186
551.126
551.069
551.015
550.965
550.917
550.87
550.824
550.78
550.737
550.694
550.652
550.611
550.572
550.534
550.496
550.461
550.426
550.393
550.361
550.331
550.301
550.273
550.246
550.22
550.196
550.174
550.154
550.135
550.119
550.103
550.089
550.077
550.066
550.055
550.046
550.036
550.027
550.017
550.008
549.998
549.988
549.977
549.967
549.955
549.943
549.93
549.916
549.901
549.884
549.864
549.843
549.819
549.791
549.759
549.722
549.679
549.627
549.564
549.484
549.384
549.259
549.104
548.915
548.693
548.438
548.155
547.85
547.528
547.192
546.841
546.48
546.121
545.804
545.61
545.455
545.303
545.144
544.978
544.807
544.635
544.463
544.292
544.123
543.957
543.794
543.633
543.474
543.317
543.162
543.008
542.855
542.704
542.553
542.402
542.252
542.103
541.954
541.805
541.657
541.509
541.361
541.213
541.066
540.918
540.771
540.624
552.484
552.35
552.216
552.082
551.951
551.825
551.705
551.591
551.485
551.387
551.298
551.214
551.138
551.066
551.003
550.944
550.891
550.84
550.792
550.745
550.701
550.657
550.615
550.574
550.533
550.493
550.454
550.416
550.379
550.343
550.309
550.276
550.244
550.214
550.185
550.157
550.13
550.105
550.082
550.061
550.041
550.023
550.006
549.992
549.978
549.967
549.956
549.947
549.938
549.93
549.922
549.915
549.907
549.9
549.892
549.884
549.876
549.867
549.857
549.846
549.834
549.819
549.804
549.785
549.764
549.739
549.711
549.677
549.639
549.593
549.54
549.477
549.397
549.297
549.171
549.016
548.829
548.61
548.361
548.086
547.79
547.48
547.158
546.831
546.503
546.187
545.906
545.681
545.489
545.311
545.136
544.961
544.787
544.613
544.441
544.271
544.103
543.939
543.777
543.617
543.46
543.304
543.15
542.997
542.846
542.695
542.544
542.395
542.246
542.097
541.949
541.801
541.653
541.506
541.358
541.211
541.064
540.917
540.77
540.623
552.475
552.325
552.173
552.024
551.879
551.741
551.611
551.491
551.379
551.276
551.181
551.094
551.014
550.94
550.876
550.815
550.761
550.71
550.661
550.615
550.571
550.529
550.488
550.447
550.407
550.367
550.328
550.29
550.253
550.218
550.183
550.15
550.119
550.089
550.061
550.033
550.007
549.983
549.961
549.94
549.921
549.904
549.888
549.874
549.861
549.85
549.841
549.832
549.825
549.819
549.813
549.807
549.802
549.797
549.792
549.787
549.781
549.774
549.766
549.757
549.747
549.734
549.719
549.701
549.68
549.654
549.624
549.589
549.548
549.501
549.445
549.379
549.298
549.198
549.072
548.917
548.731
548.516
548.273
548.005
547.719
547.419
547.112
546.803
546.498
546.207
545.94
545.706
545.498
545.304
545.119
544.939
544.761
544.587
544.415
544.247
544.081
543.918
543.758
543.6
543.444
543.29
543.137
542.985
542.835
542.685
542.536
542.387
542.239
542.091
541.943
541.796
541.649
541.502
541.355
541.209
541.062
540.916
540.769
540.623
552.465
552.294
552.124
551.957
551.798
551.649
551.51
551.382
551.265
551.158
551.059
550.969
550.887
550.812
550.745
550.682
550.627
550.575
550.526
550.48
550.437
550.395
550.355
550.315
550.275
550.235
550.196
550.158
550.121
550.085
550.051
550.018
549.987
549.958
549.93
549.903
549.878
549.855
549.833
549.813
549.795
549.779
549.764
549.751
549.74
549.73
549.721
549.714
549.708
549.704
549.7
549.697
549.694
549.691
549.689
549.686
549.682
549.678
549.672
549.665
549.656
549.644
549.63
549.612
549.59
549.564
549.532
549.496
549.452
549.402
549.344
549.276
549.193
549.09
548.963
548.808
548.623
548.41
548.171
547.91
547.633
547.344
547.051
546.758
546.468
546.191
545.932
545.697
545.482
545.282
545.092
544.908
544.73
544.556
544.386
544.22
544.056
543.895
543.737
543.581
543.427
543.274
543.123
542.972
542.823
542.674
542.526
542.378
542.231
542.084
541.937
541.791
541.644
541.498
541.352
541.206
541.06
540.914
540.769
540.623
552.452
552.258
552.068
551.884
551.711
551.551
551.404
551.27
551.148
551.036
550.934
550.841
550.756
550.68
550.611
550.547
550.49
550.437
550.388
550.341
550.298
550.257
550.217
550.177
550.137
550.097
550.058
550.019
549.982
549.946
549.912
549.88
549.849
549.821
549.793
549.767
549.743
549.721
549.7
549.682
549.665
549.649
549.636
549.624
549.614
549.605
549.598
549.593
549.589
549.586
549.585
549.584
549.583
549.583
549.583
549.583
549.581
549.579
549.575
549.569
549.561
549.55
549.536
549.518
549.495
549.468
549.435
549.395
549.35
549.296
549.234
549.163
549.076
548.971
548.843
548.687
548.503
548.293
548.058
547.804
547.534
547.256
546.973
546.69
546.413
546.145
545.893
545.66
545.445
545.244
545.053
544.87
544.693
544.521
544.353
544.189
544.028
543.87
543.714
543.56
543.407
543.257
543.107
542.958
542.81
542.662
542.515
542.369
542.222
542.076
541.931
541.785
541.639
541.494
541.349
541.203
541.058
540.913
540.768
540.623
552.44
552.222
552.009
551.807
551.619
551.448
551.295
551.156
551.028
550.913
550.807
550.711
550.624
550.545
550.474
550.409
550.35
550.296
550.245
550.198
550.155
550.114
550.075
550.035
549.995
549.954
549.914
549.875
549.837
549.801
549.767
549.735
549.706
549.678
549.652
549.627
549.604
549.583
549.564
549.546
549.531
549.517
549.505
549.495
549.486
549.479
549.474
549.47
549.468
549.468
549.468
549.47
549.472
549.474
549.476
549.478
549.478
549.478
549.475
549.471
549.464
549.453
549.439
549.42
549.396
549.367
549.331
549.289
549.241
549.184
549.119
549.043
548.953
548.845
548.714
548.557
548.373
548.165
547.934
547.686
547.424
547.153
546.879
546.605
546.336
546.076
545.829
545.601
545.39
545.191
545.003
544.823
544.649
544.481
544.316
544.155
543.997
543.842
543.688
543.537
543.387
543.238
543.09
542.943
542.796
542.65
542.504
542.359
542.214
542.069
541.924
541.779
541.634
541.49
541.345
541.2
541.056
540.911
540.767
540.622
552.427
552.184
551.949
551.728
551.527
551.346
551.184
551.04
550.907
550.787
550.678
550.578
550.489
550.408
550.335
550.268
550.207
550.151
550.099
550.052
550.008
549.967
549.927
549.887
549.847
549.806
549.765
549.725
549.687
549.651
549.618
549.587
549.558
549.532
549.507
549.483
549.462
549.443
549.425
549.409
549.396
549.383
549.373
549.365
549.358
549.353
549.349
549.348
549.348
549.35
549.352
549.356
549.36
549.364
549.368
549.372
549.374
549.375
549.373
549.37
549.363
549.352
549.337
549.317
549.292
549.26
549.222
549.177
549.126
549.067
548.998
548.918
548.824
548.711
548.577
548.418
548.235
548.028
547.801
547.557
547.301
547.037
546.769
546.502
546.239
545.985
545.745
545.523
545.318
545.126
544.944
544.769
544.6
544.436
544.275
544.118
543.964
543.812
543.661
543.512
543.365
543.218
543.072
542.927
542.782
542.637
542.493
542.348
542.204
542.06
541.916
541.773
541.629
541.485
541.341
541.197
541.053
540.91
540.766
540.622
552.414
552.145
551.888
551.649
551.432
551.24
551.071
550.921
550.785
550.661
550.548
550.446
550.353
550.269
550.194
550.125
550.062
550.004
549.95
549.9
549.856
549.815
549.775
549.735
549.694
549.653
549.612
549.572
549.533
549.497
549.464
549.435
549.408
549.383
549.36
549.339
549.319
549.302
549.287
549.273
549.261
549.25
549.242
549.235
549.231
549.228
549.226
549.227
549.229
549.233
549.238
549.243
549.249
549.255
549.26
549.265
549.268
549.27
549.269
549.265
549.259
549.248
549.232
549.21
549.183
549.149
549.107
549.06
549.005
548.944
548.872
548.788
548.689
548.571
548.433
548.271
548.088
547.883
547.658
547.419
547.168
546.909
546.645
546.381
546.121
545.872
545.64
545.428
545.233
545.05
544.876
544.708
544.545
544.387
544.231
544.079
543.928
543.78
543.632
543.486
543.341
543.197
543.053
542.91
542.766
542.623
542.48
542.338
542.195
542.052
541.909
541.766
541.623
541.48
541.337
541.194
541.051
540.908
540.765
540.622
552.401
552.108
551.828
551.568
551.335
551.132
550.956
550.801
550.661
550.533
550.417
550.312
550.215
550.128
550.05
549.979
549.913
549.853
549.797
549.746
549.699
549.657
549.617
549.576
549.536
549.495
549.455
549.416
549.378
549.342
549.311
549.282
549.257
549.234
549.213
549.194
549.178
549.163
549.15
549.138
549.128
549.12
549.114
549.109
549.107
549.106
549.106
549.109
549.113
549.119
549.125
549.132
549.139
549.146
549.152
549.158
549.161
549.163
549.162
549.158
549.151
549.139
549.122
549.099
549.069
549.032
548.988
548.937
548.879
548.815
548.741
548.652
548.548
548.426
548.284
548.12
547.935
547.731
547.509
547.273
547.026
546.769
546.507
546.242
545.982
545.736
545.514
545.317
545.136
544.965
544.8
544.641
544.486
544.334
544.184
544.037
543.891
543.746
543.602
543.459
543.317
543.175
543.033
542.892
542.75
542.609
542.468
542.326
542.185
542.043
541.901
541.759
541.617
541.475
541.333
541.191
541.049
540.906
540.764
540.621
552.39
552.073
551.77
551.491
551.243
551.028
550.842
550.68
550.535
550.404
550.285
550.176
550.076
549.986
549.905
549.831
549.763
549.7
549.642
549.589
549.54
549.496
549.455
549.414
549.374
549.334
549.296
549.258
549.222
549.188
549.159
549.132
549.109
549.088
549.07
549.054
549.04
549.028
549.017
549.008
549.001
548.995
548.991
548.988
548.988
548.988
548.991
548.995
549
549.007
549.015
549.023
549.031
549.039
549.045
549.051
549.054
549.055
549.054
549.049
549.041
549.027
549.008
548.984
548.952
548.912
548.864
548.81
548.749
548.683
548.605
548.513
548.403
548.276
548.13
547.965
547.779
547.576
547.356
547.122
546.877
546.622
546.358
546.089
545.819
545.567
545.365
545.191
545.029
544.872
544.72
544.571
544.423
544.278
544.135
543.992
543.851
543.711
543.57
543.431
543.291
543.152
543.013
542.874
542.734
542.595
542.455
542.315
542.175
542.034
541.893
541.753
541.612
541.47
541.329
541.188
541.046
540.904
540.763
540.621
552.378
552.039
551.715
551.416
551.152
550.924
550.728
550.559
550.409
550.274
550.152
550.039
549.936
549.841
549.757
549.68
549.609
549.544
549.485
549.43
549.379
549.333
549.291
549.249
549.21
549.172
549.135
549.1
549.066
549.036
549.009
548.985
548.965
548.947
548.932
548.919
548.909
548.899
548.892
548.886
548.881
548.877
548.875
548.874
548.875
548.877
548.881
548.886
548.892
548.9
548.908
548.916
548.925
548.932
548.938
548.943
548.946
548.946
548.944
548.937
548.927
548.912
548.891
548.864
548.83
548.788
548.737
548.68
548.617
548.548
548.467
548.37
548.258
548.126
547.977
547.81
547.625
547.422
547.204
546.972
546.729
546.474
546.207
545.925
545.631
545.341
545.191
545.055
544.916
544.777
544.637
544.497
544.359
544.221
544.084
543.947
543.81
543.674
543.538
543.402
543.265
543.129
542.992
542.855
542.718
542.58
542.442
542.303
542.164
542.025
541.886
541.746
541.606
541.465
541.325
541.184
541.043
540.903
540.762
540.621
552.367
552.006
551.659
551.34
551.058
550.817
550.613
550.437
550.282
550.143
550.018
549.901
549.795
549.697
549.609
549.528
549.455
549.387
549.326
549.269
549.217
549.169
549.126
549.085
549.046
549.01
548.976
548.944
548.914
548.887
548.864
548.844
548.828
548.814
548.802
548.793
548.786
548.78
548.776
548.772
548.77
548.769
548.768
548.769
548.771
548.774
548.778
548.783
548.789
548.796
548.804
548.812
548.82
548.827
548.832
548.836
548.838
548.837
548.832
548.824
548.811
548.794
548.771
548.742
548.707
548.663
548.61
548.55
548.484
548.411
548.327
548.228
548.113
547.98
547.829
547.662
547.478
547.276
547.061
546.831
546.589
546.334
546.063
545.768
545.43
544.973
545.005
544.921
544.806
544.681
544.553
544.423
544.293
544.162
544.032
543.9
543.769
543.637
543.505
543.372
543.239
543.105
542.971
542.836
542.701
542.565
542.429
542.292
542.154
542.016
541.878
541.739
541.6
541.461
541.321
541.181
541.041
540.901
540.761
540.62
552.354
551.969
551.599
551.259
550.958
550.704
550.492
550.311
550.153
550.011
549.882
549.762
549.652
549.551
549.459
549.376
549.3
549.23
549.167
549.108
549.055
549.006
548.963
548.922
548.886
548.852
548.82
548.792
548.767
548.744
548.726
548.71
548.698
548.689
548.682
548.677
548.673
548.671
548.67
548.67
548.67
548.67
548.671
548.673
548.675
548.677
548.681
548.685
548.691
548.697
548.702
548.709
548.716
548.722
548.726
548.729
548.729
548.726
548.72
548.71
548.695
548.676
548.652
548.621
548.583
548.538
548.484
548.422
548.353
548.277
548.191
548.09
547.974
547.841
547.691
547.525
547.343
547.146
546.933
546.705
546.464
546.208
545.938
545.652
545.354
545.069
544.936
544.821
544.706
544.589
544.47
544.349
544.227
544.104
543.979
543.854
543.727
543.6
543.472
543.343
543.213
543.082
542.95
542.818
542.684
542.55
542.416
542.28
542.144
542.007
541.87
541.732
541.594
541.456
541.317
541.178
541.039
540.899
540.759
540.62
552.339
551.926
551.533
551.174
550.859
550.593
550.372
550.186
550.025
549.881
549.749
549.626
549.512
549.406
549.311
549.224
549.145
549.073
549.009
548.949
548.895
548.846
548.803
548.765
548.73
548.699
548.671
548.647
548.626
548.609
548.596
548.586
548.579
548.574
548.572
548.572
548.573
548.575
548.577
548.58
548.582
548.583
548.585
548.586
548.587
548.588
548.59
548.593
548.596
548.6
548.604
548.609
548.614
548.619
548.621
548.623
548.622
548.617
548.609
548.598
548.582
548.561
548.535
548.503
548.464
548.418
548.363
548.3
548.229
548.15
548.063
547.962
547.847
547.717
547.572
547.411
547.235
547.042
546.831
546.603
546.359
546.101
545.829
545.547
545.266
545.018
544.85
544.723
544.609
544.5
544.389
544.276
544.162
544.045
543.927
543.807
543.685
543.563
543.438
543.313
543.186
543.058
542.929
542.799
542.668
542.536
542.403
542.269
542.134
541.999
541.862
541.726
541.589
541.451
541.313
541.175
541.036
540.897
540.758
540.62
552.323
551.879
551.464
551.09
550.765
550.489
550.259
550.064
549.896
549.749
549.614
549.489
549.371
549.263
549.164
549.074
548.992
548.919
548.854
548.794
548.74
548.692
548.65
548.613
548.582
548.554
548.531
548.511
548.495
548.483
548.475
548.471
548.47
548.471
548.475
548.48
548.486
548.493
548.498
548.503
548.506
548.508
548.509
548.508
548.507
548.505
548.504
548.505
548.506
548.507
548.508
548.51
548.513
548.516
548.517
548.518
548.516
548.51
548.502
548.49
548.473
548.452
548.426
548.394
548.354
548.307
548.252
548.188
548.117
548.037
547.95
547.851
547.74
547.616
547.478
547.325
547.156
546.968
546.759
546.53
546.28
546.013
545.731
545.438
545.143
544.885
544.726
544.611
544.51
544.411
544.309
544.205
544.098
543.988
543.875
543.761
543.644
543.526
543.406
543.284
543.16
543.036
542.909
542.781
542.652
542.522
542.39
542.258
542.124
541.99
541.855
541.72
541.583
541.447
541.309
541.172
541.034
540.896
540.758
540.619
552.305
551.834
551.404
551.021
550.684
550.397
550.156
549.954
549.779
549.625
549.485
549.356
549.234
549.123
549.021
548.928
548.845
548.77
548.705
548.646
548.592
548.546
548.506
548.472
548.443
548.42
548.4
548.385
548.374
548.368
548.366
548.368
548.373
548.381
548.392
548.403
548.414
548.425
548.433
548.439
548.443
548.444
548.442
548.439
548.434
548.429
548.424
548.421
548.418
548.416
548.414
548.413
548.413
548.414
548.415
548.415
548.413
548.408
548.401
548.389
548.373
548.354
548.329
548.299
548.261
548.214
548.159
548.096
548.026
547.947
547.86
547.766
547.663
547.549
547.423
547.28
547.115
546.926
546.714
546.479
546.214
545.932
545.638
545.323
544.977
544.652
544.557
544.486
544.409
544.324
544.233
544.136
544.036
543.932
543.825
543.716
543.604
543.49
543.374
543.256
543.136
543.013
542.89
542.764
542.637
542.508
542.379
542.247
542.115
541.982
541.848
541.714
541.578
541.442
541.306
541.169
541.032
540.894
540.757
540.619
552.309
551.837
551.391
550.981
550.623
550.319
550.066
549.853
549.669
549.508
549.363
549.23
549.104
548.989
548.885
548.789
548.703
548.628
548.563
548.507
548.455
548.411
548.373
548.342
548.317
548.297
548.282
548.271
548.265
548.265
548.269
548.278
548.291
548.306
548.324
548.342
548.359
548.373
548.383
548.389
548.392
548.391
548.385
548.378
548.369
548.36
548.352
548.344
548.337
548.33
548.323
548.317
548.313
548.311
548.312
548.315
548.316
548.313
548.306
548.296
548.284
548.27
548.252
548.227
548.196
548.154
548.102
548.04
547.971
547.892
547.805
547.717
547.626
547.527
547.416
547.281
547.09
546.875
546.675
546.444
546.109
545.846
545.612
545.224
544.78
544.178
544.359
544.367
544.316
544.244
544.161
544.071
543.976
543.878
543.777
543.672
543.565
543.456
543.343
543.229
543.112
542.992
542.871
542.748
542.623
542.496
542.367
542.238
542.107
541.975
541.842
541.708
541.574
541.438
541.303
541.166
541.03
540.893
540.756
540.619
552.298
551.803
551.34
550.928
550.572
550.265
550.002
549.778
549.583
549.411
549.258
549.118
548.987
548.867
548.758
548.66
548.571
548.496
548.433
548.381
548.334
548.292
548.257
548.228
548.207
548.19
548.179
548.173
548.173
548.179
548.192
548.208
548.228
548.251
548.275
548.299
548.319
548.335
548.345
548.351
548.352
548.348
548.34
548.329
548.318
548.306
548.294
548.281
548.266
548.251
548.237
548.222
548.209
548.204
548.208
548.22
548.226
548.224
548.217
548.21
548.208
548.208
548.201
548.19
548.179
548.152
548.112
548.042
547.974
547.883
547.796
547.726
547.655
547.554
547.458
547.256
546.889
546.828
546.896
546.126
545.117
546.053
546.52
544.817
544.705
544.312
544.327
544.303
544.245
544.174
544.095
544.009
543.919
543.826
543.73
543.631
543.528
543.423
543.314
543.203
543.089
542.973
542.854
542.733
542.609
542.484
542.357
542.229
542.099
541.968
541.836
541.703
541.569
541.435
541.3
541.164
541.028
540.892
540.755
540.618
552.284
551.773
551.311
550.905
550.549
550.237
549.966
549.732
549.525
549.342
549.179
549.031
548.894
548.768
548.651
548.545
548.453
548.378
548.32
548.274
548.234
548.195
548.162
548.136
548.117
548.106
548.101
548.102
548.11
548.128
548.149
548.171
548.194
548.223
548.253
548.277
548.295
548.307
548.316
548.322
548.324
548.321
548.314
548.305
548.296
548.285
548.267
548.242
548.208
548.175
548.149
548.12
548.09
548.081
548.1
548.132
548.143
548.134
548.125
548.121
548.149
548.174
548.17
548.179
548.217
548.223
548.201
548.091
547.97
547.834
547.868
547.878
547.698
547.501
547.628
547.167
546.423
546.626
547.077
546.305
545.504
545.645
545.866
545.177
544.741
544.353
544.314
544.25
544.185
544.114
544.035
543.951
543.865
543.777
543.686
543.591
543.493
543.392
543.287
543.18
543.069
542.955
542.838
542.719
542.597
542.474
542.348
542.221
542.092
541.962
541.831
541.699
541.566
541.432
541.297
541.162
541.026
540.89
540.754
540.618
552.289
551.782
551.316
550.907
550.549
550.235
549.96
549.719
549.504
549.31
549.138
548.986
548.847
548.711
548.581
548.46
548.357
548.286
548.235
548.194
548.16
548.123
548.091
548.066
548.052
548.052
548.066
548.081
548.105
548.137
548.165
548.176
548.192
548.22
548.248
548.258
548.262
548.271
548.285
548.306
548.32
548.328
548.331
548.33
548.33
548.317
548.277
548.221
548.154
548.078
548.026
547.974
547.91
547.918
547.986
548.022
547.998
548.001
548.021
547.982
548.098
548.137
548.056
548.146
548.29
548.33
548.48
548.182
547.823
547.728
547.934
547.986
547.741
547.52
547.577
547.363
546.837
546.598
546.616
546.356
545.873
545.617
545.502
545.192
544.797
544.392
544.304
544.243
544.129
544.054
543.978
543.895
543.812
543.729
543.643
543.554
543.461
543.364
543.263
543.158
543.05
542.939
542.824
542.707
542.587
542.465
542.34
542.214
542.086
541.957
541.826
541.695
541.562
541.429
541.295
541.16
541.025
540.89
540.754
540.618
552.286
551.776
551.315
550.914
550.567
550.258
549.983
549.735
549.514
549.318
549.138
548.98
548.862
548.714
548.564
548.41
548.28
548.223
548.189
548.137
548.104
548.058
548.022
547.982
547.955
547.961
548.019
548.081
548.132
548.173
548.189
548.163
548.142
548.14
548.153
548.129
548.116
548.145
548.214
548.307
548.353
548.393
548.443
548.46
548.459
548.402
548.271
548.173
548.129
547.964
547.86
547.83
547.695
547.968
548.169
547.81
547.619
548.011
548.123
547.845
547.987
548.08
547.92
548.04
548.212
548.194
548.219
548.124
547.896
547.735
547.749
547.765
547.659
547.532
547.455
547.317
547.005
546.704
546.49
546.259
545.923
545.604
545.331
545.084
544.802
544.524
544.373
544.261
544.135
544.014
543.914
543.836
543.76
543.684
543.604
543.519
543.431
543.338
543.241
543.14
543.035
542.926
542.813
542.697
542.578
542.457
542.334
542.208
542.081
541.953
541.823
541.692
541.56
541.427
541.293
541.159
541.024
540.889
540.753
540.618
552.287
551.783
551.333
550.946
550.612
550.317
550.042
549.779
549.541
549.353
549.166
548.983
548.838
548.696
548.572
548.424
548.291
548.23
548.178
548.119
548.062
548.001
547.946
547.894
547.838
547.803
547.804
547.834
547.892
547.955
548.017
548.06
547.989
547.882
547.832
547.722
547.694
547.797
548.004
548.278
548.344
548.367
548.518
548.601
548.632
548.411
548.052
547.981
548.28
548.133
547.906
547.751
547.571
547.842
548.002
547.908
547.801
547.987
548.015
547.884
547.957
548.041
547.971
548.013
548.101
548.074
548.028
547.987
547.882
547.753
547.681
547.627
547.546
547.451
547.337
547.198
547
546.714
546.421
546.155
545.884
545.561
545.231
544.952
544.726
544.543
544.369
544.233
544.095
543.928
543.873
543.774
543.706
543.641
543.568
543.488
543.404
543.315
543.223
543.125
543.022
542.915
542.804
542.689
542.572
542.451
542.329
542.204
542.078
541.949
541.82
541.689
541.558
541.425
541.292
541.158
541.023
540.888
540.753
540.618
552.281
551.795
551.387
551.043
550.702
550.406
550.133
549.832
549.541
549.316
549.142
548.959
548.828
548.71
548.564
548.445
548.351
548.171
548.015
547.881
547.78
547.745
547.715
547.677
547.584
547.578
547.704
547.842
547.968
547.98
547.987
548.136
547.934
547.553
547.432
547.24
547.251
547.531
547.891
548.386
548.625
548.374
548.36
548.527
548.719
548.565
548.222
548.057
548.229
548.084
548.035
547.939
547.788
547.874
547.903
547.948
547.952
547.948
547.962
547.937
547.972
548.006
548.003
548.008
548.002
547.967
547.912
547.861
547.796
547.714
547.635
547.562
547.484
547.392
547.244
547.073
546.952
546.682
546.29
545.946
545.705
545.45
545.174
544.893
544.643
544.449
544.288
544.157
544.038
543.916
543.8
543.73
543.656
543.603
543.54
543.461
543.379
543.297
543.209
543.114
543.013
542.907
542.798
542.684
542.567
542.447
542.325
542.201
542.075
541.947
541.818
541.688