/*--------------------------------*- C++ -*----------------------------------*\
  =========                 |
  \\      /  F ield         | OpenFOAM: The Open Source CFD Toolbox
   \\    /   O peration     | Website:  https://openfoam.org
    \\  /    A nd           | Version:  6
     \\/     M anipulation  |
\*---------------------------------------------------------------------------*/
FoamFile
{
    version     2.0;
    format      ascii;
    class       volVectorField;
    location    "4800";
    object      U;
}
// * * * * * * * * * * * * * * * * * * * * * * * * * * * * * * * * * * * * * //

dimensions      [0 1 -1 0 0 0 0];

internalField   nonuniform List<vector> 
4800
(
(-0.000137722 0 -0.000137989)
(-0.000168453 0 -5.96254e-05)
(-0.000180922 0 -0.000126534)
(2.733e-05 0 -0.000242355)
(0.000113845 0 -0.000184445)
(0.000129748 0 3.61045e-05)
(0.000394627 0 -8.36908e-05)
(0.000517432 0 -0.00104823)
(0.00114943 0 3.38741e-05)
(0.00128713 0 -5.98375e-05)
(0.00137734 0 -0.000241607)
(0.00157282 0 -0.000393074)
(0.00184067 0 -0.000632772)
(0.00210662 0 -0.000435362)
(0.00212146 0 -0.000345085)
(0.00215952 0 -0.000289869)
(0.0022331 0 -8.54829e-05)
(0.00228031 0 -0.000150963)
(0.00230534 0 -0.000250857)
(0.00232106 0 2.32807e-05)
(0.00233702 0 -4.54807e-05)
(0.00236869 0 -0.000493387)
(0.00255244 0 -0.00061505)
(0.00265895 0 -0.000262986)
(0.00270691 0 -0.00018255)
(0.00282573 0 -7.09369e-05)
(0.00294299 0 -0.000252389)
(0.00305644 0 -0.000300095)
(0.00319738 0 -0.000145039)
(0.00331295 0 -0.000203071)
(0.00337798 0 -0.000164277)
(0.00344134 0 -0.000120546)
(0.00352714 0 -0.000160766)
(0.00363525 0 -0.000114637)
(0.00372773 0 -7.96651e-05)
(0.00375848 0 -0.000193666)
(0.00379486 0 -0.000220562)
(0.00387817 0 -0.000218198)
(0.00400936 0 -0.000164966)
(0.00414461 0 -0.000110391)
(0.00425868 0 -0.000112843)
(0.0043708 0 -3.74063e-05)
(0.00448001 0 -9.97247e-05)
(0.00455251 0 -0.000177448)
(0.0046034 0 -0.000140373)
(0.00463551 0 -9.57527e-05)
(0.00463204 0 -7.47811e-05)
(0.00460906 0 -0.000119056)
(0.00456651 0 -8.6008e-05)
(0.00449209 0 -0.000102606)
(0.00439328 0 -4.87528e-05)
(0.00427484 0 -7.23937e-05)
(0.00410265 0 -3.14813e-05)
(0.00386603 0 -0.000124763)
(0.00362709 0 -2.94892e-05)
(0.00340808 0 -0.000142798)
(0.00322369 0 -0.000204752)
(0.00310974 0 -3.94262e-05)
(0.00300186 0 -0.000261358)
(0.00292939 0 -5.09545e-05)
(0.00287164 0 -0.000125273)
(0.0028242 0 -2.07557e-05)
(0.00279056 0 -2.42505e-05)
(0.00275325 0 -1.53429e-05)
(0.00269872 0 2.86362e-05)
(0.00263234 0 -7.32282e-05)
(0.0025813 0 3.07392e-05)
(0.00250663 0 -6.1095e-05)
(0.00240291 0 -0.000167969)
(0.00227705 0 -0.000130016)
(0.002093 0 -4.5912e-05)
(0.0018129 0 -9.23316e-05)
(0.00142249 0 -3.45177e-05)
(0.00095602 0 -0.000205908)
(0.000512861 0 -0.000203942)
(0.000228142 0 4.3929e-05)
(3.8124e-05 0 -4.02992e-05)
(-4.17108e-05 0 -0.000326307)
(9.68051e-05 0 -0.000343643)
(0.000161971 0 -0.000247416)
(-1.21039e-05 0 1.32505e-05)
(-0.000120229 0 -0.000101943)
(-0.000142947 0 -8.78167e-05)
(-8.18492e-05 0 -0.000150033)
(1.74959e-05 0 -0.000194725)
(7.86565e-05 0 -0.000173894)
(4.89914e-07 0 1.90379e-05)
(-3.89163e-13 0 2.79357e-13)
(-4.95202e-13 0 8.82335e-14)
(-6.06379e-13 0 2.2769e-14)
(-6.25052e-13 0 -4.43695e-15)
(-6.02263e-13 0 -1.85868e-14)
(-5.56077e-13 0 -2.76378e-14)
(-4.94005e-13 0 -3.42893e-14)
(-4.19949e-13 0 -3.94842e-14)
(-3.36742e-13 0 -4.34011e-14)
(-2.46758e-13 0 -4.62193e-14)
(-1.52236e-13 0 -4.79135e-14)
(-5.54453e-14 0 -4.8448e-14)
(4.13195e-14 0 -4.78103e-14)
(1.35793e-13 0 -4.60287e-14)
(2.25782e-13 0 -4.31684e-14)
(3.0922e-13 0 -3.93224e-14)
(3.84243e-13 0 -3.46125e-14)
(4.4925e-13 0 -2.9191e-14)
(5.02915e-13 0 -2.32276e-14)
(5.44216e-13 0 -1.689e-14)
(5.72476e-13 0 -1.03341e-14)
(5.87395e-13 0 -3.70773e-15)
(5.89014e-13 0 2.84504e-15)
(5.77666e-13 0 9.18892e-15)
(5.5392e-13 0 1.52064e-14)
(5.18559e-13 0 2.08015e-14)
(4.72558e-13 0 2.58935e-14)
(4.17036e-13 0 3.04077e-14)
(3.5321e-13 0 3.427e-14)
(2.82372e-13 0 3.74105e-14)
(2.05894e-13 0 3.97736e-14)
(1.25255e-13 0 4.13318e-14)
(4.20438e-14 0 4.20957e-14)
(-0.000101553 0 0.000121685)
(-0.000106308 0 4.56473e-05)
(-5.90393e-05 0 -6.23704e-05)
(1.61378e-05 0 -9.42784e-05)
(0.000295606 0 -0.000286049)
(0.000487042 0 -0.000409781)
(0.0008693 0 -0.000162116)
(0.00109886 0 -0.00078752)
(0.00146633 0 -0.000224238)
(0.00154785 0 -0.000189192)
(0.00167713 0 -0.000338671)
(0.00196036 0 -0.000202572)
(0.00226309 0 0.000105766)
(0.00244111 0 0.000107394)
(0.00253167 0 0.000111787)
(0.00266076 0 6.22814e-05)
(0.00278148 0 8.53565e-05)
(0.00286903 0 9.1264e-05)
(0.00287299 0 0.000114357)
(0.00283426 0 7.48361e-05)
(0.00283265 0 -1.43598e-05)
(0.0028955 0 0.000102276)
(0.00300978 0 -5.44337e-06)
(0.00301255 0 -0.000160848)
(0.00303228 0 -0.000131787)
(0.00312038 0 -7.97136e-05)
(0.00328443 0 -0.00015017)
(0.00345166 0 -0.000172184)
(0.00353997 0 -5.21794e-05)
(0.00358748 0 -0.000209021)
(0.00363297 0 -0.000283089)
(0.00368528 0 -0.000138239)
(0.00375311 0 -7.68876e-05)
(0.00384624 0 -6.11108e-05)
(0.00393707 0 -4.25312e-05)
(0.0040079 0 -4.62152e-05)
(0.00407577 0 -6.78484e-05)
(0.00416116 0 -8.10111e-05)
(0.00425625 0 -8.85891e-05)
(0.00432305 0 -0.000119212)
(0.00437504 0 -0.000145355)
(0.00444499 0 -0.000181007)
(0.0045437 0 -0.000109278)
(0.00457835 0 -1.72936e-05)
(0.00457692 0 7.63486e-06)
(0.00457451 0 7.18343e-05)
(0.00455251 0 0.000105463)
(0.00450541 0 0.000126397)
(0.00444674 0 0.000178272)
(0.00436819 0 0.000185125)
(0.00427374 0 0.000125872)
(0.00416267 0 0.000295704)
(0.00407137 0 0.000257009)
(0.00400105 0 0.00035671)
(0.0039478 0 0.000401306)
(0.00389731 0 0.000314736)
(0.00382011 0 0.000366009)
(0.00374981 0 0.000201649)
(0.00364349 0 0.00037075)
(0.00355216 0 0.000107425)
(0.00343694 0 0.000200656)
(0.00332561 0 0.000149154)
(0.00325999 0 -3.53726e-05)
(0.00319228 0 0.000220868)
(0.00312521 0 -8.49068e-06)
(0.0030241 0 0.000255094)
(0.00294156 0 0.000162399)
(0.00281296 0 0.000238787)
(0.0026696 0 0.000391405)
(0.00261534 0 0.000306398)
(0.00250471 0 0.000409941)
(0.00229098 0 0.000478886)
(0.00202024 0 0.000453921)
(0.00177156 0 0.000387304)
(0.0013942 0 0.000515132)
(0.000886254 0 0.00061899)
(0.000831927 0 0.000174174)
(0.000542502 0 0.000305655)
(3.34564e-05 0 0.000206771)
(0.000104091 0 0.000148018)
(2.87528e-05 0 0.000135413)
(-4.4538e-05 0 0.000150778)
(-0.000112844 0 8.05606e-05)
(-4.90286e-05 0 -0.000159697)
(-4.23289e-06 0 -0.000180835)
(-1.67735e-05 0 -0.000177012)
(3.65718e-07 0 0.000131883)
(-4.83632e-13 0 3.80925e-13)
(-7.51343e-13 0 1.38797e-13)
(-6.98658e-13 0 3.00345e-14)
(-6.66044e-13 0 -2.62382e-14)
(-6.25117e-13 0 -6.06656e-14)
(-5.71445e-13 0 -8.50943e-14)
(-5.05526e-13 0 -1.04098e-13)
(-4.28897e-13 0 -1.19345e-13)
(-3.43474e-13 0 -1.31056e-13)
(-2.51271e-13 0 -1.39507e-13)
(-1.54465e-13 0 -1.44567e-13)
(-5.53421e-14 0 -1.4612e-13)
(4.37388e-14 0 -1.4413e-13)
(1.40435e-13 0 -1.38683e-13)
(2.32488e-13 0 -1.29981e-13)
(3.17775e-13 0 -1.18325e-13)
(3.94375e-13 0 -1.04101e-13)
(4.60635e-13 0 -8.77596e-14)
(5.15216e-13 0 -6.9783e-14)
(5.57109e-13 0 -5.06567e-14)
(5.85659e-13 0 -3.0855e-14)
(6.00574e-13 0 -1.08376e-14)
(6.01911e-13 0 8.95942e-15)
(5.90027e-13 0 2.81378e-14)
(5.65532e-13 0 4.63457e-14)
(5.29246e-13 0 6.32741e-14)
(4.82164e-13 0 7.86464e-14)
(4.25412e-13 0 9.22113e-14)
(3.60213e-13 0 1.03748e-13)
(2.87876e-13 0 1.13081e-13)
(2.09816e-13 0 1.20095e-13)
(1.27577e-13 0 1.24745e-13)
(4.28077e-14 0 1.27062e-13)
(-8.52759e-05 0 0.000165186)
(2.43076e-05 0 2.46985e-05)
(0.000250634 0 -0.000197573)
(0.000473916 0 -0.000194449)
(0.000627908 0 -0.000460441)
(0.000955355 0 -0.000434088)
(0.00111459 0 -0.000736976)
(0.00149211 0 -0.000839832)
(0.00187889 0 -0.000209722)
(0.00196006 0 -0.00047582)
(0.00209261 0 -0.000586641)
(0.00228169 0 -0.000716025)
(0.00256917 0 -0.000454451)
(0.00275147 0 -0.000603141)
(0.00289409 0 -0.000536241)
(0.00299558 0 -0.00043821)
(0.00307958 0 -0.000252236)
(0.00315452 0 -0.00025077)
(0.00327254 0 -0.000153482)
(0.00336159 0 -5.70558e-05)
(0.00334765 0 -6.31097e-05)
(0.00335298 0 -0.000120863)
(0.00338679 0 -0.000219308)
(0.00342117 0 -0.000375408)
(0.00344866 0 -0.000363507)
(0.00349348 0 -0.000307289)
(0.00356334 0 -0.000248607)
(0.003624 0 -0.000268672)
(0.00367391 0 -0.000281909)
(0.0037324 0 -0.000268054)
(0.00379792 0 -0.000160012)
(0.00380402 0 -0.000225787)
(0.00381377 0 -0.00024356)
(0.00386415 0 -0.000183593)
(0.00393096 0 -0.000184305)
(0.00397417 0 -0.000195893)
(0.00401248 0 -0.000240543)
(0.00406428 0 -0.000300324)
(0.00413023 0 -0.000247027)
(0.00418106 0 -0.000248215)
(0.0042351 0 -0.000263437)
(0.00430414 0 -0.000189384)
(0.00430789 0 -0.000170815)
(0.00429776 0 -0.00015371)
(0.00430615 0 -0.000126613)
(0.00432858 0 -4.06417e-05)
(0.0043181 0 -2.7441e-05)
(0.00427761 0 4.62146e-06)
(0.004226 0 0.000100494)
(0.00417653 0 0.000185829)
(0.00411815 0 0.000246192)
(0.00404049 0 0.000329911)
(0.00397395 0 0.000334912)
(0.00392296 0 0.000336978)
(0.00387981 0 0.000342669)
(0.0038369 0 0.000265406)
(0.00378232 0 0.000225516)
(0.00371217 0 0.000270717)
(0.00363823 0 0.000119661)
(0.00357497 0 0.000182022)
(0.00351937 0 0.000213851)
(0.00346517 0 5.23937e-05)
(0.00340337 0 0.000170688)
(0.00334616 0 0.00014215)
(0.00327929 0 0.000143087)
(0.00319359 0 0.000120863)
(0.0031153 0 0.000214267)
(0.00300971 0 0.000266291)
(0.00284799 0 0.000243555)
(0.0027652 0 0.000253833)
(0.00266119 0 0.000507463)
(0.0025487 0 0.000421597)
(0.00234891 0 0.000570541)
(0.00211214 0 0.000829053)
(0.00197424 0 0.000746226)
(0.0018047 0 0.000637529)
(0.00159355 0 0.00059628)
(0.00137112 0 -5.63316e-06)
(0.00101524 0 -0.000183429)
(0.000159582 0 0.000292758)
(7.24769e-05 0 0.000338058)
(4.77116e-05 0 0.000217818)
(6.67646e-05 0 1.65615e-05)
(5.24793e-05 0 -0.000116501)
(1.23126e-05 0 -0.000223927)
(-5.30592e-05 0 -0.000231185)
(3.41235e-07 0 0.000239837)
(-5.32325e-13 0 1.31065e-13)
(-8.45231e-13 0 5.5931e-14)
(-7.70644e-13 0 -1.49349e-14)
(-7.15034e-13 0 -6.95303e-14)
(-6.60434e-13 0 -1.12368e-13)
(-5.9885e-13 0 -1.47598e-13)
(-5.27618e-13 0 -1.77271e-13)
(-4.46589e-13 0 -2.02024e-13)
(-3.569e-13 0 -2.21523e-13)
(-2.6027e-13 0 -2.35712e-13)
(-1.5885e-13 0 -2.4423e-13)
(-5.50082e-14 0 -2.46828e-13)
(4.87566e-14 0 -2.43434e-13)
(1.49942e-13 0 -2.34187e-13)
(2.4614e-13 0 -2.19431e-13)
(3.35099e-13 0 -1.99685e-13)
(4.14809e-13 0 -1.75603e-13)
(4.83568e-13 0 -1.47938e-13)
(5.40018e-13 0 -1.17496e-13)
(5.83144e-13 0 -8.5096e-14)
(6.12295e-13 0 -5.15519e-14)
(6.27209e-13 0 -1.76506e-14)
(6.2799e-13 0 1.58673e-14)
(6.15052e-13 0 4.83237e-14)
(5.89056e-13 0 7.91066e-14)
(5.5086e-13 0 1.07666e-13)
(5.01495e-13 0 1.3351e-13)
(4.42137e-13 0 1.56218e-13)
(3.7408e-13 0 1.75454e-13)
(2.98719e-13 0 1.90981e-13)
(2.17558e-13 0 2.02669e-13)
(1.32222e-13 0 2.10471e-13)
(4.43603e-14 0 2.144e-13)
(-0.000106326 0 0.000121331)
(0.000220552 0 -0.00016928)
(0.000439498 0 -0.000276045)
(0.00065087 0 -0.000531054)
(0.000906671 0 -0.00079612)
(0.00110494 0 -0.0010454)
(0.00155985 0 -0.000852921)
(0.00151955 0 -0.00140769)
(0.00201121 0 -0.000706867)
(0.0021685 0 -0.000667353)
(0.00236284 0 -0.00078277)
(0.00255639 0 -0.00101402)
(0.00283889 0 -0.000683366)
(0.00302893 0 -0.000336506)
(0.00311581 0 -0.0004087)
(0.00319418 0 -0.000358738)
(0.00329315 0 -0.000178104)
(0.00336933 0 -0.000358626)
(0.00344562 0 -0.000111098)
(0.00351723 0 0.00027292)
(0.00354299 0 -0.00015378)
(0.00354509 0 -0.000178035)
(0.00356417 0 -0.000188953)
(0.00359931 0 -0.000223655)
(0.0035908 0 -0.000237945)
(0.0035898 0 -0.000246458)
(0.00360773 0 -0.000244862)
(0.0036408 0 -0.000327435)
(0.00369169 0 -0.000177532)
(0.00369779 0 -0.000120306)
(0.00369623 0 -6.15105e-05)
(0.00368957 0 -0.000126067)
(0.00369139 0 -0.000163712)
(0.0037135 0 -0.000131153)
(0.00373041 0 -0.000201297)
(0.00374461 0 -0.000248659)
(0.00377155 0 -0.000260224)
(0.00378362 0 -0.000268136)
(0.00378434 0 -0.000264224)
(0.00378988 0 -0.000260409)
(0.00380424 0 -0.000259074)
(0.00382233 0 -0.000194303)
(0.00384108 0 -0.000108831)
(0.00387107 0 -8.64075e-05)
(0.00391728 0 -0.000115594)
(0.00394422 0 6.06146e-05)
(0.00393901 0 0.000214758)
(0.00394179 0 0.000246713)
(0.00392533 0 0.000276895)
(0.00387472 0 0.000319432)
(0.0038252 0 0.000314006)
(0.00379734 0 0.000331766)
(0.00378623 0 0.000316174)
(0.00377142 0 0.000298673)
(0.00374375 0 0.000334878)
(0.00371567 0 0.000294673)
(0.00367561 0 0.00029824)
(0.00362784 0 0.000311555)
(0.00358822 0 0.000257819)
(0.00354024 0 0.000244101)
(0.00348082 0 0.000264323)
(0.00343336 0 0.000208599)
(0.00338543 0 0.000121318)
(0.00331484 0 0.000209296)
(0.00322715 0 0.000246475)
(0.00315974 0 0.000142315)
(0.00310187 0 0.000320968)
(0.00303095 0 0.000425269)
(0.0029271 0 0.000398321)
(0.0027906 0 0.000534455)
(0.00270647 0 0.000694898)
(0.00263124 0 0.000777798)
(0.00251062 0 0.000854595)
(0.00224311 0 0.00113605)
(0.00219364 0 0.00106607)
(0.00193954 0 0.00122475)
(0.0010689 0 0.00181337)
(0.00110612 0 0.00121226)
(0.000678873 0 0.000760315)
(0.000265563 0 0.000669377)
(0.000574497 0 0.000218632)
(0.000375099 0 0.000232466)
(0.000127563 0 0.000195215)
(0.000122193 0 -2.16428e-05)
(7.62059e-05 0 -0.00018914)
(-9.27535e-05 0 -0.000187272)
(2.72697e-07 0 0.000308887)
(-5.40163e-13 0 -7.25985e-15)
(-8.96534e-13 0 -3.08764e-14)
(-8.23384e-13 0 -7.56687e-14)
(-7.62787e-13 0 -1.24129e-13)
(-7.02524e-13 0 -1.71289e-13)
(-6.3571e-13 0 -2.153e-13)
(-5.59342e-13 0 -2.54988e-13)
(-4.72853e-13 0 -2.89266e-13)
(-3.77161e-13 0 -3.16877e-13)
(-2.73977e-13 0 -3.37177e-13)
(-1.65581e-13 0 -3.49465e-13)
(-5.45459e-14 0 -3.533e-13)
(5.63805e-14 0 -3.48531e-13)
(1.64437e-13 0 -3.35335e-13)
(2.66989e-13 0 -3.14194e-13)
(3.61604e-13 0 -2.85841e-13)
(4.46122e-13 0 -2.51212e-13)
(5.18742e-13 0 -2.11397e-13)
(5.78058e-13 0 -1.67577e-13)
(6.23053e-13 0 -1.20966e-13)
(6.53104e-13 0 -7.27604e-14)
(6.67993e-13 0 -2.41108e-14)
(6.67885e-13 0 2.39026e-14)
(6.53267e-13 0 7.02876e-14)
(6.24874e-13 0 1.14154e-13)
(5.8365e-13 0 1.5472e-13)
(5.30717e-13 0 1.91318e-13)
(4.67356e-13 0 2.23404e-13)
(3.94976e-13 0 2.50561e-13)
(3.15091e-13 0 2.72503e-13)
(2.29305e-13 0 2.89063e-13)
(1.39308e-13 0 3.00164e-13)
(4.67368e-14 0 3.05769e-13)
(-6.49485e-05 0 2.2445e-05)
(0.000228272 0 -0.000417823)
(0.000587824 0 -0.000467016)
(0.000916732 0 -0.000548814)
(0.00115454 0 -0.000831681)
(0.00136754 0 -0.00110444)
(0.00164065 0 -0.00122874)
(0.00193616 0 -0.00126747)
(0.00214407 0 -0.000981751)
(0.00227497 0 -0.000890261)
(0.00250101 0 -0.000894282)
(0.00266257 0 -0.00121874)
(0.00292457 0 -0.0006855)
(0.00300461 0 -0.000513409)
(0.00309179 0 -0.000541732)
(0.00319623 0 -0.000587805)
(0.00332891 0 -0.000289301)
(0.00341579 0 -0.00029132)
(0.00341067 0 -0.000234365)
(0.00343132 0 -0.000169672)
(0.00350132 0 -0.000106492)
(0.00357845 0 -0.000153847)
(0.00358625 0 -0.000222039)
(0.00357084 0 -0.000260203)
(0.00352212 0 -0.000293994)
(0.00348121 0 -0.000312598)
(0.00350427 0 -0.000262194)
(0.00349822 0 -0.000362813)
(0.00350088 0 -0.000377617)
(0.00351583 0 -0.000368479)
(0.00351141 0 -0.000362827)
(0.00348391 0 -0.000353594)
(0.00341999 0 -0.000351582)
(0.00334246 0 -0.000293697)
(0.00329864 0 -0.000228063)
(0.00328825 0 -0.000213641)
(0.00328006 0 -0.000227865)
(0.00326701 0 -0.000263075)
(0.00325521 0 -0.000253478)
(0.00324478 0 -0.000240575)
(0.00324148 0 -0.000246907)
(0.00324335 0 -0.000245279)
(0.00325543 0 -0.00023084)
(0.00328638 0 -0.000207924)
(0.00331384 0 -9.85793e-05)
(0.00333129 0 -5.31388e-05)
(0.00337695 0 -8.97815e-05)
(0.00344084 0 2.25676e-05)
(0.00343998 0 0.000225345)
(0.00344001 0 0.000246875)
(0.00344993 0 0.000278031)
(0.00346839 0 0.000334312)
(0.00348271 0 0.000384764)
(0.0034816 0 0.000394489)
(0.00347722 0 0.000403207)
(0.00347264 0 0.000385759)
(0.00346349 0 0.00037305)
(0.00345106 0 0.000339454)
(0.00343007 0 0.000321579)
(0.00339772 0 0.000326965)
(0.00335435 0 0.000282411)
(0.00328573 0 0.000281499)
(0.00322069 0 0.000309359)
(0.00316081 0 0.000276435)
(0.00307664 0 0.000267076)
(0.00298883 0 0.000227959)
(0.00294277 0 0.000417101)
(0.00291337 0 0.000498947)
(0.00286309 0 0.000458846)
(0.0027773 0 0.00048095)
(0.00265659 0 0.000788302)
(0.00258249 0 0.000885284)
(0.00243416 0 0.00103184)
(0.00231306 0 0.000980208)
(0.00222792 0 0.00103834)
(0.00178291 0 0.00159042)
(0.00208636 0 0.000544292)
(0.00175224 0 0.000667635)
(0.000966513 0 0.000911499)
(0.00109631 0 0.000455495)
(0.000926117 0 0.00041732)
(0.000486854 0 0.00045787)
(0.000217607 0 0.000407191)
(8.65568e-05 0 0.000138965)
(2.62775e-05 0 -0.000114631)
(-0.000119394 0 -0.000145634)
(2.37578e-08 0 0.000244396)
(-4.75382e-13 0 -6.03545e-14)
(-9.12901e-13 0 -9.62118e-14)
(-8.63219e-13 0 -1.32413e-13)
(-8.10007e-13 0 -1.79726e-13)
(-7.50978e-13 0 -2.33064e-13)
(-6.81938e-13 0 -2.87046e-13)
(-6.01011e-13 0 -3.37814e-13)
(-5.08208e-13 0 -3.82613e-13)
(-4.04811e-13 0 -4.1923e-13)
(-2.92858e-13 0 -4.46362e-13)
(-1.74973e-13 0 -4.62912e-13)
(-5.40742e-14 0 -4.68213e-13)
(6.67212e-14 0 -4.62016e-13)
(1.8428e-13 0 -4.44519e-13)
(2.95634e-13 0 -4.1635e-13)
(3.98081e-13 0 -3.78498e-13)
(4.89253e-13 0 -3.32239e-13)
(5.67203e-13 0 -2.79057e-13)
(6.30449e-13 0 -2.20568e-13)
(6.77961e-13 0 -1.5844e-13)
(7.09151e-13 0 -9.43219e-14)
(7.23872e-13 0 -2.97878e-14)
(7.22388e-13 0 3.37033e-14)
(7.05304e-13 0 9.48369e-14)
(6.73488e-13 0 1.52461e-13)
(6.28024e-13 0 2.05592e-13)
(5.70179e-13 0 2.53418e-13)
(5.0138e-13 0 2.95288e-13)
(4.23179e-13 0 3.30713e-13)
(3.37221e-13 0 3.59352e-13)
(2.45219e-13 0 3.80995e-13)
(1.48927e-13 0 3.95519e-13)
(4.9965e-14 0 4.02852e-13)
(0.000123912 0 -0.000120906)
(5.22157e-05 0 -0.000893792)
(0.000728518 0 -0.000880539)
(0.000821725 0 -0.00109081)
(0.00110742 0 -0.0011714)
(0.00153392 0 -0.0011608)
(0.00168181 0 -0.00148824)
(0.00200285 0 -0.00151251)
(0.00222174 0 -0.00128387)
(0.00228458 0 -0.00127349)
(0.00248231 0 -0.00119021)
(0.00271319 0 -0.00115488)
(0.00280763 0 -0.000928885)
(0.00286828 0 -0.000763865)
(0.00297185 0 -0.000628856)
(0.00310023 0 -0.000475159)
(0.00317065 0 -0.000336529)
(0.00321587 0 -0.000329684)
(0.00327626 0 -0.000266172)
(0.00329885 0 -0.000113704)
(0.00332703 0 -0.000127469)
(0.00334625 0 -0.000153613)
(0.00333475 0 -0.000141343)
(0.00331206 0 -0.000216926)
(0.00329838 0 -0.000273165)
(0.00325507 0 -0.000366297)
(0.00321942 0 -0.000138093)
(0.00311374 0 -0.000332297)
(0.00303689 0 -0.000191645)
(0.00303267 0 -6.03077e-05)
(0.0030319 0 -1.12781e-05)
(0.00301721 0 2.06623e-05)
(0.00296106 0 -1.87758e-05)
(0.00287298 0 3.01476e-05)
(0.00279548 0 -2.31312e-05)
(0.00275646 0 -0.00017722)
(0.00273396 0 -0.000238662)
(0.00271575 0 -0.000226431)
(0.00271174 0 -0.000233846)
(0.00271083 0 -0.000250265)
(0.00271221 0 -0.000244618)
(0.00271883 0 -0.000198558)
(0.00272533 0 -0.000157986)
(0.00271957 0 -0.000137025)
(0.00271791 0 -0.000114794)
(0.00274243 0 -7.48922e-05)
(0.00279622 0 -8.16914e-06)
(0.00283921 0 8.40685e-05)
(0.00288404 0 0.000156858)
(0.00294769 0 0.00021502)
(0.00299809 0 0.000238142)
(0.00301895 0 0.000292462)
(0.00303395 0 0.000308133)
(0.00305384 0 0.000308019)
(0.00307509 0 0.000336366)
(0.00309747 0 0.00031626)
(0.00310358 0 0.000319203)
(0.0030998 0 0.000328353)
(0.00308569 0 0.000284029)
(0.00304388 0 0.000318826)
(0.00299374 0 0.00038947)
(0.00294969 0 0.000199304)
(0.00283666 0 0.000328725)
(0.00278157 0 0.000419611)
(0.00277648 0 0.000332142)
(0.00270713 0 0.000275141)
(0.00259723 0 0.000494352)
(0.00262298 0 0.00052217)
(0.00261714 0 0.000517906)
(0.00255623 0 0.000609299)
(0.00247426 0 0.000859967)
(0.00241255 0 0.00101005)
(0.00226653 0 0.00121976)
(0.00218811 0 0.00119947)
(0.00193102 0 0.00146344)
(0.00188007 0 0.00144065)
(0.00169061 0 0.00151297)
(0.00154527 0 0.00134959)
(0.00123569 0 0.00113385)
(0.00089377 0 0.000997092)
(0.000206024 0 0.000982473)
(0.000282318 0 0.000768348)
(0.000236103 0 0.000585871)
(0.000180556 0 0.000252219)
(1.35e-05 0 -5.00452e-05)
(-4.03561e-05 0 -0.00016102)
(-2.44508e-07 0 7.69419e-05)
(-4.45217e-13 0 -2.23325e-13)
(-9.67966e-13 0 -1.60961e-13)
(-9.06302e-13 0 -1.78005e-13)
(-8.62844e-13 0 -2.29297e-13)
(-8.09254e-13 0 -2.94182e-13)
(-7.39879e-13 0 -3.62004e-13)
(-6.54379e-13 0 -4.26592e-13)
(-5.5403e-13 0 -4.83926e-13)
(-4.4091e-13 0 -5.31059e-13)
(-3.17659e-13 0 -5.66105e-13)
(-1.87432e-13 0 -5.87577e-13)
(-5.365e-14 0 -5.94576e-13)
(8.00738e-14 0 -5.86759e-13)
(2.10103e-13 0 -5.64361e-13)
(3.33011e-13 0 -5.28193e-13)
(4.45715e-13 0 -4.79563e-13)
(5.45563e-13 0 -4.20168e-13)
(6.30413e-13 0 -3.51977e-13)
(6.98675e-13 0 -2.77131e-13)
(7.49299e-13 0 -1.9783e-13)
(7.81756e-13 0 -1.16239e-13)
(7.96018e-13 0 -3.44015e-14)
(7.9251e-13 0 4.58206e-14)
(7.72024e-13 0 1.22787e-13)
(7.3563e-13 0 1.95094e-13)
(6.84607e-13 0 2.61574e-13)
(6.20412e-13 0 3.21279e-13)
(5.44651e-13 0 3.73468e-13)
(4.59041e-13 0 4.17583e-13)
(3.65372e-13 0 4.53237e-13)
(2.65472e-13 0 4.80176e-13)
(1.61166e-13 0 4.98248e-13)
(5.40697e-14 0 5.07357e-13)
(-6.15204e-05 0 -0.000231479)
(8.73643e-06 0 -0.00107953)
(0.000821411 0 -0.00122995)
(0.0011862 0 -0.00123325)
(0.00112545 0 -0.00157607)
(0.00157866 0 -0.00148869)
(0.00153904 0 -0.00191986)
(0.00201667 0 -0.00170499)
(0.00222958 0 -0.00147943)
(0.00231807 0 -0.00136241)
(0.00254357 0 -0.00113432)
(0.0025522 0 -0.00114962)
(0.0025744 0 -0.00105651)
(0.00260548 0 -0.000820219)
(0.00262666 0 -0.000808946)
(0.00269603 0 -0.000694394)
(0.00275745 0 -0.000416837)
(0.00276277 0 -0.000458171)
(0.00279696 0 -0.000217604)
(0.00279782 0 -0.000191899)
(0.00283882 0 -0.000177714)
(0.0028788 0 -0.000206852)
(0.00285728 0 -0.000251013)
(0.0028285 0 -0.000180904)
(0.00280761 0 -0.000116222)
(0.00276273 0 -0.000106363)
(0.00269764 0 -8.10759e-05)
(0.00260598 0 -0.00011957)
(0.00250115 0 -0.000228029)
(0.0024161 0 -0.000234086)
(0.00236467 0 -0.000227897)
(0.00234981 0 -0.000173507)
(0.00233991 0 -0.000140094)
(0.0023341 0 -0.000121287)
(0.00233791 0 -0.000146292)
(0.00234166 0 -0.000182744)
(0.00232622 0 -0.000202298)
(0.00228389 0 -0.00023398)
(0.00226601 0 -0.000232666)
(0.0022619 0 -0.00024627)
(0.00224966 0 -0.000261532)
(0.00222105 0 -0.00026181)
(0.00220133 0 -0.000205693)
(0.00220058 0 -0.000165136)
(0.00220462 0 -0.000135724)
(0.00221643 0 -8.33103e-05)
(0.00223005 0 -6.10252e-06)
(0.00224947 0 6.77243e-05)
(0.00228878 0 0.000166554)
(0.00234889 0 0.000242926)
(0.00240953 0 0.000268306)
(0.00246169 0 0.000291575)
(0.00250153 0 0.000311011)
(0.00253298 0 0.00035589)
(0.00255938 0 0.000349126)
(0.00257241 0 0.000353817)
(0.00257641 0 0.000365831)
(0.00257051 0 0.000358137)
(0.00254413 0 0.00040625)
(0.00250937 0 0.000387002)
(0.00245359 0 0.000402508)
(0.00239201 0 0.000526028)
(0.00236331 0 0.00030779)
(0.00223795 0 0.000489002)
(0.00221624 0 0.000514864)
(0.00219098 0 0.000515035)
(0.00217002 0 0.000180407)
(0.00207156 0 0.00065003)
(0.00207618 0 0.000662988)
(0.00207791 0 0.000703666)
(0.00210771 0 0.00083831)
(0.00222026 0 0.000939554)
(0.00218577 0 0.0010125)
(0.00198087 0 0.00129973)
(0.00187917 0 0.00144288)
(0.00174573 0 0.00158106)
(0.00151868 0 0.00172291)
(0.00133475 0 0.00163331)
(0.00146801 0 0.001218)
(0.000818514 0 0.00129706)
(0.000952465 0 0.000775729)
(0.000579126 0 0.000808758)
(0.000223359 0 0.000727989)
(0.000202154 0 0.000415202)
(0.000159662 0 0.000108425)
(-7.6953e-05 0 -3.82396e-05)
(-4.42175e-13 0 3.26291e-13)
(-5.69952e-13 0 -1.92868e-13)
(-8.67173e-13 0 -1.46361e-13)
(-9.31064e-13 0 -1.8956e-13)
(-9.25649e-13 0 -2.6552e-13)
(-8.83132e-13 0 -3.52598e-13)
(-8.13795e-13 0 -4.40422e-13)
(-7.22446e-13 0 -5.22831e-13)
(-6.12468e-13 0 -5.95518e-13)
(-4.86989e-13 0 -6.5521e-13)
(-3.49376e-13 0 -6.99585e-13)
(-2.03444e-13 0 -7.26808e-13)
(-5.32559e-14 0 -7.35749e-13)
(9.69359e-14 0 -7.25985e-13)
(2.42845e-13 0 -6.9783e-13)
(3.80432e-13 0 -6.52338e-13)
(5.06107e-13 0 -5.91227e-13)
(6.16839e-13 0 -5.16729e-13)
(7.1024e-13 0 -4.31422e-13)
(7.84596e-13 0 -3.38078e-13)
(8.38853e-13 0 -2.3952e-13)
(8.72579e-13 0 -1.38492e-13)
(8.85932e-13 0 -3.75543e-14)
(8.79577e-13 0 6.1001e-14)
(8.54577e-13 0 1.55193e-13)
(8.12275e-13 0 2.43366e-13)
(7.54209e-13 0 3.24172e-13)
(6.82073e-13 0 3.96544e-13)
(5.97684e-13 0 4.59662e-13)
(5.02948e-13 0 5.12923e-13)
(3.99814e-13 0 5.55911e-13)
(2.90231e-13 0 5.88355e-13)
(1.76109e-13 0 6.10092e-13)
(5.90741e-14 0 6.21022e-13)
(-0.000457628 0 -0.000423926)
(0.000619649 0 -0.000999498)
(0.000868174 0 -0.00138259)
(0.00107083 0 -0.00169593)
(0.00121542 0 -0.00197012)
(0.00179744 0 -0.00167402)
(0.00170435 0 -0.00194571)
(0.00188156 0 -0.00189897)
(0.00218854 0 -0.00155376)
(0.00221056 0 -0.00148163)
(0.00241465 0 -0.00106742)
(0.00197645 0 -0.00160836)
(0.00229335 0 -0.000991978)
(0.00212902 0 -0.000935965)
(0.00222591 0 -0.000725147)
(0.00225685 0 -0.000592131)
(0.00221986 0 -0.000563661)
(0.00221468 0 -0.000408331)
(0.0022238 0 -0.000304963)
(0.00223138 0 -0.000283348)
(0.00228014 0 -0.000235807)
(0.00233476 0 -0.000120268)
(0.00232043 0 -0.000121355)
(0.00226869 0 -0.000116074)
(0.00220279 0 -0.000137365)
(0.00214811 0 -0.000180841)
(0.00211518 0 -0.000104327)
(0.00208321 0 -7.6195e-05)
(0.00203238 0 -9.531e-05)
(0.00195767 0 -9.73057e-05)
(0.00191882 0 -7.97851e-05)
(0.0019163 0 -7.65296e-05)
(0.00191881 0 -9.37847e-05)
(0.00193339 0 -9.76844e-05)
(0.00196329 0 -0.000102668)
(0.00197291 0 -0.000150102)
(0.00196102 0 -0.000178952)
(0.00193336 0 -0.000194366)
(0.00189564 0 -0.000193301)
(0.00185079 0 -0.000199916)
(0.00181914 0 -0.00019359)
(0.00179594 0 -0.000185248)
(0.00177406 0 -0.000189781)
(0.00176594 0 -0.000168156)
(0.00175999 0 -0.00014124)
(0.0017526 0 -0.000123307)
(0.00175106 0 -8.39124e-05)
(0.0017545 0 -4.12197e-05)
(0.00177362 0 7.83478e-06)
(0.00181312 0 7.5668e-05)
(0.00186154 0 0.000118383)
(0.00190214 0 0.000204602)
(0.00192665 0 0.000232695)
(0.00194073 0 0.000278917)
(0.00194163 0 0.000309666)
(0.00194255 0 0.000304771)
(0.00193532 0 0.000344599)
(0.00191885 0 0.000349226)
(0.00188775 0 0.00036536)
(0.00183798 0 0.000471627)
(0.00181801 0 0.000380596)
(0.00177502 0 0.00042926)
(0.0017204 0 0.000555983)
(0.00171761 0 0.000358568)
(0.00162427 0 0.000497538)
(0.00162656 0 0.000527787)
(0.00161026 0 0.000513325)
(0.00158598 0 0.000436018)
(0.00154341 0 0.000544821)
(0.00151284 0 0.000716479)
(0.00157889 0 0.000936604)
(0.00154758 0 0.00136216)
(0.0016413 0 0.00140445)
(0.00199293 0 0.0011396)
(0.0015515 0 0.00171528)
(0.00145528 0 0.00179378)
(0.0013687 0 0.00178699)
(0.00116902 0 0.00175328)
(0.000951989 0 0.0017046)
(0.00087605 0 0.00146663)
(0.000600433 0 0.00126411)
(0.000487414 0 0.00103913)
(0.000399138 0 0.00087127)
(0.000294396 0 0.000573634)
(0.000258271 0 0.000297043)
(1.63641e-08 0 4.06269e-05)
(-4.24095e-13 0 4.60982e-13)
(-8.18246e-13 0 1.11516e-13)
(-9.64421e-13 0 -4.23588e-14)
(-1.02505e-12 0 -1.6862e-13)
(-1.02539e-12 0 -2.9089e-13)
(-9.83629e-13 0 -4.1052e-13)
(-9.09583e-13 0 -5.24472e-13)
(-8.09031e-13 0 -6.28961e-13)
(-6.86232e-13 0 -7.20225e-13)
(-5.44977e-13 0 -7.94941e-13)
(-3.89257e-13 0 -8.50408e-13)
(-2.23596e-13 0 -8.84425e-13)
(-5.2827e-14 0 -8.95609e-13)
(1.17992e-13 0 -8.83465e-13)
(2.8375e-13 0 -8.48432e-13)
(4.39614e-13 0 -7.91896e-13)
(5.81324e-13 0 -7.16104e-13)
(7.05368e-13 0 -6.2397e-13)
(8.09064e-13 0 -5.18838e-13)
(8.90577e-13 0 -4.04255e-13)
(9.48885e-13 0 -2.83784e-13)
(9.83722e-13 0 -1.60837e-13)
(9.95511e-13 0 -3.855e-14)
(9.85258e-13 0 8.03183e-14)
(9.5439e-13 0 1.93429e-13)
(9.04609e-13 0 2.98868e-13)
(8.37784e-13 0 3.95122e-13)
(7.55902e-13 0 4.81024e-13)
(6.6103e-13 0 5.55712e-13)
(5.5529e-13 0 6.18571e-13)
(4.40804e-13 0 6.69194e-13)
(3.19653e-13 0 7.07331e-13)
(1.93833e-13 0 7.32836e-13)
(6.49998e-14 0 7.45628e-13)
(-0.000157257 0 -0.00111858)
(0.000536955 0 -0.00148856)
(0.000987142 0 -0.00167792)
(0.00102722 0 -0.00203478)
(0.00147216 0 -0.00207231)
(0.00145828 0 -0.00221462)
(0.00179511 0 -0.00197407)
(0.00173534 0 -0.00198726)
(0.00177176 0 -0.00186803)
(0.00184892 0 -0.00162331)
(0.00201744 0 -0.00116853)
(0.00146739 0 -0.00163408)
(0.0021024 0 -0.000480978)
(0.00141413 0 -0.00133719)
(0.00183233 0 -0.000524282)
(0.00185205 0 -0.000451087)
(0.00181657 0 -0.000434956)
(0.00178862 0 -0.000281362)
(0.00178929 0 -0.000217639)
(0.00179206 0 -0.000223888)
(0.00180563 0 -0.000198261)
(0.00180565 0 -0.000185568)
(0.00179525 0 -0.000144459)
(0.00175884 0 -7.76209e-05)
(0.00172301 0 -0.000103359)
(0.00169359 0 -0.000161343)
(0.00165926 0 -0.000131399)
(0.00162847 0 -0.000103531)
(0.0016077 0 -0.000117042)
(0.00159957 0 -0.000114223)
(0.00160168 0 -0.000113115)
(0.00160554 0 -0.000127157)
(0.00160881 0 -0.000129088)
(0.00161215 0 -0.000131897)
(0.00161265 0 -0.00013026)
(0.00160478 0 -0.000139413)
(0.00158562 0 -0.00017686)
(0.00156633 0 -0.00018864)
(0.00153802 0 -0.000178224)
(0.00149116 0 -0.000200498)
(0.001449 0 -0.000168137)
(0.00141441 0 -0.000156502)
(0.0013814 0 -0.000144144)
(0.0013611 0 -0.000116352)
(0.00133909 0 -8.98287e-05)
(0.00131713 0 -3.5374e-05)
(0.00129913 0 2.09027e-05)
(0.00128391 0 9.6249e-05)
(0.00128614 0 0.000130528)
(0.00130063 0 0.000154721)
(0.00131364 0 0.000212867)
(0.00133887 0 0.000221968)
(0.00135774 0 0.000290036)
(0.00140255 0 0.000324551)
(0.00141338 0 0.000319636)
(0.00138807 0 0.00035963)
(0.0013794 0 0.000395407)
(0.00137329 0 0.000412202)
(0.00135069 0 0.000434573)
(0.00134573 0 0.000455641)
(0.00134019 0 0.000482239)
(0.00134348 0 0.000436142)
(0.00130123 0 0.000509304)
(0.00125628 0 0.000564786)
(0.00127135 0 0.000520938)
(0.00126002 0 0.000493742)
(0.00116459 0 0.000603032)
(0.00114611 0 0.000668602)
(0.00123471 0 0.000585716)
(0.00131781 0 0.000483143)
(0.00133298 0 0.000694455)
(0.00131518 0 0.0010534)
(0.00136875 0 0.00133293)
(0.00100318 0 0.0018309)
(0.00116751 0 0.00189641)
(0.00125535 0 0.0018464)
(0.00121371 0 0.00184466)
(0.000886341 0 0.00191094)
(0.000767819 0 0.00178911)
(0.000516898 0 0.00160297)
(0.000169524 0 0.00143862)
(0.000254902 0 0.00121309)
(0.000277162 0 0.000947771)
(0.000231863 0 0.000665428)
(0.000181347 0 0.000340023)
(-1.6523e-07 0 9.93913e-05)
(-4.93667e-13 0 5.35368e-13)
(-1.07348e-12 0 2.55099e-13)
(-1.14704e-12 0 3.39288e-14)
(-1.17917e-12 0 -1.51634e-13)
(-1.16705e-12 0 -3.18883e-13)
(-1.1162e-12 0 -4.74133e-13)
(-1.03172e-12 0 -6.1796e-13)
(-9.17796e-13 0 -7.48196e-13)