/*--------------------------------*- C++ -*----------------------------------*\
  =========                 |
  \\      /  F ield         | OpenFOAM: The Open Source CFD Toolbox
   \\    /   O peration     | Website:  https://openfoam.org
    \\  /    A nd           | Version:  6
     \\/     M anipulation  |
\*---------------------------------------------------------------------------*/
FoamFile
{
    version     2.0;
    format      ascii;
    class       surfaceScalarField;
    location    "8000";
    object      phi;
}
// * * * * * * * * * * * * * * * * * * * * * * * * * * * * * * * * * * * * * //

dimensions      [0 3 -1 0 0 0 0];

internalField   nonuniform List<scalar> 
9440
(
1.45867e-13
-1.45867e-13
2.90333e-13
-1.43962e-13
4.32839e-13
-1.42104e-13
5.71586e-13
-1.38362e-13
7.05816e-13
-1.33852e-13
8.34994e-13
-1.28801e-13
9.58579e-13
-1.23215e-13
1.07637e-12
-1.17424e-13
1.18815e-12
-1.11424e-13
1.29399e-12
-1.05493e-13
1.39389e-12
-9.95521e-14
1.4879e-12
-9.36803e-14
1.57629e-12
-8.80647e-14
1.65878e-12
-8.21771e-14
1.73524e-12
-7.61605e-14
1.80515e-12
-6.96235e-14
1.86828e-12
-6.28546e-14
1.92659e-12
-5.80523e-14
1.97853e-12
-5.16934e-14
2.02288e-12
-4.41259e-14
2.05859e-12
-3.54932e-14
2.09021e-12
-3.14259e-14
2.11357e-12
-2.31734e-14
2.12907e-12
-1.53478e-14
2.13774e-12
-8.51622e-15
2.13926e-12
-1.39644e-15
2.13376e-12
5.60959e-15
2.12181e-12
1.20356e-14
2.10346e-12
1.8429e-14
2.07937e-12
2.4148e-14
2.05013e-12
2.92685e-14
2.01624e-12
3.39144e-14
1.97826e-12
3.79879e-14
1.93689e-12
4.13555e-14
1.89266e-12
4.41986e-14
1.84593e-12
4.66876e-14
1.7973e-12
4.85675e-14
1.7471e-12
5.01174e-14
1.69589e-12
5.11179e-14
1.64396e-12
5.18248e-14
1.59154e-12
5.22984e-14
1.53892e-12
5.24902e-14
1.48631e-12
5.24701e-14
1.43396e-12
5.21929e-14
1.38173e-12
5.20593e-14
1.3299e-12
5.16583e-14
1.27824e-12
5.14668e-14
1.22742e-12
5.06224e-14
1.17711e-12
5.01122e-14
1.12745e-12
4.9438e-14
1.07852e-12
4.87154e-14
1.03012e-12
4.81651e-14
9.82463e-13
4.74273e-14
9.35607e-13
4.66161e-14
8.89489e-13
4.58713e-14
8.44334e-13
4.49043e-14
7.99957e-13
4.41213e-14
7.56594e-13
4.31037e-14
7.1397e-13
4.23602e-14
6.72405e-13
4.12985e-14
6.31897e-13
4.02373e-14
5.92404e-13
3.92211e-14
5.5395e-13
3.81786e-14
5.16511e-13
3.71598e-14
4.80105e-13
3.61262e-14
4.44792e-13
3.503e-14
4.10503e-13
3.40044e-14
3.7722e-13
3.29962e-14
3.44902e-13
3.20297e-14
3.13753e-13
3.08601e-14
2.83771e-13
2.96907e-14
2.55092e-13
2.83877e-14
2.28113e-13
2.6688e-14
2.04009e-13
2.38093e-14
1.8613e-13
1.75856e-14
1.85577e-13
2.58171e-16
2.40884e-13
-5.56018e-14
1.26091e-13
1.14496e-13
1.83753e-16
1.2561e-13
1.18454e-21
-1.2441e-21
1.19259e-21
-7.08273e-24
1.19093e-21
7.75482e-25
1.17031e-21
3.67061e-24
1.15262e-21
6.51405e-24
1.13737e-21
9.66767e-24
1.1231e-21
1.30798e-23
1.10847e-21
1.64402e-23
1.0926e-21
1.98523e-23
1.07508e-21
2.30577e-23
1.05543e-21
2.60562e-23
1.03367e-21
2.87962e-23
1.00963e-21
3.12778e-23
9.83466e-22
3.34491e-23
9.55239e-22
3.52586e-23
9.2515e-22
3.68095e-23
8.93303e-22
3.82054e-23
8.59958e-22
3.9136e-23
8.25371e-22
3.99115e-23
7.89647e-22
4.05319e-23
7.52941e-22
4.0842e-23
7.15511e-22
4.09971e-23
6.77461e-22
4.09454e-23
6.38842e-22
4.07386e-23
6.00016e-22
4.04802e-23
5.60984e-22
4.01183e-23
5.22106e-22
3.9653e-23
4.83229e-22
3.9136e-23
4.44403e-22
3.85156e-23
4.0568e-22
3.78435e-23
3.67268e-22
3.71714e-23
3.29011e-22
3.64993e-23
2.91219e-22
3.5879e-23
2.53634e-22
3.52069e-23
2.16411e-22
3.45865e-23
1.79498e-22
3.40178e-23
1.42792e-22
3.36042e-23
1.06448e-22
3.31906e-23
7.02587e-23
3.27253e-23
3.45865e-23
3.21566e-23
3.1071e-23
1.48035e-13
-2.93399e-13
2.93545e-13
-2.88671e-13
4.36071e-13
-2.83933e-13
5.75204e-13
-2.76817e-13
7.09964e-13
-2.6794e-13
8.39485e-13
-2.57658e-13
9.63352e-13
-2.46429e-13
1.08126e-12
-2.34688e-13
1.19318e-12
-2.22723e-13
1.29898e-12
-2.10681e-13
1.39887e-12
-1.98856e-13
1.49304e-12
-1.87275e-13
1.58151e-12
-1.75975e-13
1.6641e-12
-1.64237e-13
1.74086e-12
-1.52413e-13
1.81056e-12
-1.3884e-13
1.8743e-12
-1.26127e-13
1.93308e-12
-1.164e-13
1.98518e-12
-1.03396e-13
2.0294e-12
-8.7972e-14
2.06596e-12
-7.17038e-14
2.09739e-12
-6.25345e-14
2.1208e-12
-4.63013e-14
2.1362e-12
-3.04908e-14
2.14487e-12
-1.69654e-14
2.14618e-12
-2.5113e-15
2.14032e-12
1.16325e-14
2.12797e-12
2.45104e-14
2.10915e-12
3.73451e-14
2.08457e-12
4.87903e-14
2.0548e-12
5.90725e-14
2.02034e-12
6.83708e-14
1.98179e-12
7.65184e-14
1.9399e-12
8.31853e-14
1.89503e-12
8.89868e-14
1.84787e-12
9.37325e-14
1.79877e-12
9.75189e-14
1.74823e-12
1.00493e-13
1.69666e-12
1.025e-13
1.64444e-12
1.03826e-13
1.59168e-12
1.04822e-13
1.53897e-12
1.04938e-13
1.48623e-12
1.04938e-13
1.43361e-12
1.04506e-13
1.38135e-12
1.03999e-13
1.32949e-12
1.03189e-13
1.27786e-12
1.02744e-13
1.22688e-12
1.01229e-13
1.17664e-12
9.9968e-14
1.12693e-12
9.87502e-14
1.07796e-12
9.7283e-14
1.02953e-12
9.61701e-14
9.81804e-13
9.47271e-14
9.34942e-13
9.30383e-14
8.88792e-13
9.15741e-14
8.43531e-13
8.97095e-14
7.99174e-13
8.80143e-14
7.55706e-13
8.60998e-14
7.1311e-13
8.44786e-14
6.71507e-13
8.24142e-14
6.30959e-13
8.02961e-14
5.91538e-13
7.81452e-14
5.53077e-13
7.6143e-14
5.15649e-13
7.40835e-14
4.79286e-13
7.19852e-14
4.43987e-13
6.98205e-14
4.09587e-13
6.78913e-14
3.76266e-13
6.58037e-14
3.44036e-13
6.37432e-14
3.12824e-13
6.15541e-14
2.82629e-13
5.93682e-14
2.53577e-13
5.69134e-14
2.25701e-13
5.404e-14
1.98853e-13
5.01301e-14
1.7213e-13
4.37802e-14
1.38198e-13
3.3663e-14
6.75965e-14
1.44702e-14
3.89538e-14
1.42609e-13
1.41824e-16
1.64006e-13
1.19446e-21
-2.22349e-21
1.20039e-21
-1.29764e-23
1.19373e-21
-3.72231e-24
1.17315e-21
4.96308e-24
1.15588e-21
1.35968e-23
1.14073e-21
2.20754e-23
1.12647e-21
3.02955e-23
1.11189e-21
3.81537e-23
1.09581e-21
4.54949e-23
1.07807e-21
5.21641e-23
1.05817e-21
5.82128e-23
1.0361e-21
6.35378e-23
1.01185e-21
6.81907e-23
9.85276e-22
7.22749e-23
9.5679e-22
7.56353e-23
9.26494e-22
7.8272e-23
8.94182e-22
8.03916e-23
8.60785e-22
8.2046e-23
8.2594e-22
8.308e-23
7.89958e-22
8.37003e-23
7.53096e-22
8.38554e-23
7.15511e-22
8.3752e-23
6.77202e-22
8.32351e-23
6.38635e-22
8.24079e-23
5.99603e-22
8.13222e-23
5.60518e-22
8.01848e-23
5.21537e-22
7.88924e-23
4.8266e-22
7.73931e-23
4.43679e-22
7.57904e-23
4.05008e-22
7.42395e-23
3.66544e-22
7.26368e-23
3.28391e-22
7.10341e-23
2.90547e-22
6.94832e-23
2.53014e-22
6.79839e-23
2.15946e-22
6.65363e-23
1.79033e-22
6.5399e-23
1.42378e-22
6.42616e-23
1.05983e-22
6.34861e-23
6.97934e-23
6.27623e-23
3.34491e-23
6.21419e-23
6.17801e-23
1.48765e-13
-4.41762e-13
2.97566e-13
-4.36777e-13
4.43323e-13
-4.29086e-13
5.84865e-13
-4.17769e-13
7.21286e-13
-4.0378e-13
8.5199e-13
-3.8779e-13
9.7654e-13
-3.70414e-13
1.09472e-12
-3.52314e-13
1.20656e-12
-3.34018e-13
1.31226e-12
-3.15849e-13
1.41186e-12
-2.97934e-13
1.50575e-12
-2.80669e-13
1.594e-12
-2.63737e-13
1.6766e-12
-2.46375e-13
1.75334e-12
-2.28705e-13
1.82245e-12
-2.07531e-13
1.88723e-12
-1.90504e-13
1.9466e-12
-1.75383e-13
1.99886e-12
-1.55308e-13
2.0426e-12
-1.31377e-13
2.08094e-12
-1.09737e-13
2.11225e-12
-9.35717e-14
2.13554e-12
-6.93375e-14
2.15084e-12
-4.55689e-14
2.15943e-12
-2.53612e-14
2.16007e-12
-2.97448e-15
2.1536e-12
1.82462e-14
2.14034e-12
3.78793e-14
2.12057e-12
5.72033e-14
2.09498e-12
7.44328e-14
2.06401e-12
9.0076e-14
2.02833e-12
1.04064e-13
1.98866e-12
1.16167e-13
1.94572e-12
1.26072e-13
1.8998e-12
1.34841e-13
1.85157e-12
1.4187e-13
1.80158e-12
1.47387e-13
1.75017e-12
1.51759e-13
1.69801e-12
1.54497e-13
1.64526e-12
1.56386e-13
1.59207e-12
1.57815e-13
1.53886e-12
1.57919e-13
1.48581e-12
1.57746e-13
1.43295e-12
1.57113e-13
1.38057e-12
1.56103e-13
1.32864e-12
1.54831e-13
1.27678e-12
1.54291e-13
1.22569e-12
1.52007e-13
1.17528e-12
1.50042e-13
1.1255e-12
1.48196e-13
1.07649e-12
1.45939e-13
1.02803e-12
1.44265e-13
9.80191e-13
1.42195e-13
9.33207e-13
1.39641e-13
8.86899e-13
1.37496e-13
8.4162e-13
1.34591e-13
7.97186e-13
1.32046e-13
7.53719e-13
1.2916e-13
7.11043e-13
1.26745e-13
6.69416e-13
1.23625e-13
6.28857e-13
1.20431e-13
5.89294e-13
1.17284e-13
5.50793e-13
1.14213e-13
5.13378e-13
1.11061e-13
4.77007e-13
1.0792e-13
4.41619e-13
1.04768e-13
4.0735e-13
1.0172e-13
3.74027e-13
9.86822e-14
3.41733e-13
9.55902e-14
3.10474e-13
9.23644e-14
2.80154e-13
8.92394e-14
2.50638e-13
8.59788e-14
2.21692e-13
8.25326e-14
1.92651e-13
7.87168e-14
1.61185e-13
7.47916e-14
1.22122e-13
7.22703e-14
5.93371e-14
7.68007e-14
3.51749e-14
1.66313e-13
1.3367e-16
1.98681e-13
1.20439e-21
-3.24259e-21
1.2097e-21
-1.90769e-23
1.20246e-21
-5.42837e-24
1.18178e-21
8.01331e-24
1.16436e-21
2.15584e-23
1.14895e-21
3.46899e-23
1.13432e-21
4.73044e-23
1.11918e-21
5.91951e-23
1.10253e-21
7.02587e-23
1.08407e-21
8.03399e-23
1.06355e-21
8.93872e-23
1.04075e-21
9.72971e-23
1.01588e-21
1.04121e-22
9.88636e-22
1.09912e-22
9.59478e-22
1.14875e-22
9.28665e-22
1.18804e-22
8.95837e-22
1.21699e-22
8.61871e-22
1.24077e-22
8.26612e-22
1.25473e-22
7.90164e-22
1.263e-22
7.5289e-22
1.26455e-22
7.14994e-22
1.26042e-22
6.76427e-22
1.25111e-22
6.37446e-22
1.23819e-22
5.98414e-22
1.22061e-22
5.59278e-22
1.20148e-22
5.2009e-22
1.18028e-22
4.81006e-22
1.15754e-22
4.42128e-22
1.13324e-22
4.03406e-22
1.10791e-22
3.64942e-22
1.08206e-22
3.26891e-22
1.05827e-22
2.88996e-22
1.03398e-22
2.5167e-22
1.01226e-22
2.14757e-22
9.921e-23
1.77896e-22
9.72454e-23
1.41551e-22
9.56945e-23
1.0531e-22
9.42986e-23
6.9173e-23
9.32129e-23
3.30872e-23
9.24891e-23
9.21272e-23
1.53309e-13
-5.94685e-13
3.05654e-13
-5.88439e-13
4.54746e-13
-5.77588e-13
5.99072e-13
-5.61517e-13
7.37587e-13
-5.41721e-13
8.69653e-13
-5.19292e-13
9.94885e-13
-4.95092e-13
1.11332e-12
-4.702e-13
1.22505e-12
-4.45216e-13
1.33033e-12
-4.20613e-13
1.42966e-12
-3.9676e-13
1.52337e-12
-3.73883e-13
1.61117e-12
-3.51061e-13
1.69416e-12
-3.28906e-13
1.77091e-12
-3.05018e-13
1.83972e-12
-2.75924e-13
1.90612e-12
-2.5651e-13
1.96628e-12
-2.35169e-13
2.01945e-12
-2.08131e-13
2.06201e-12
-1.73617e-13
2.10357e-12
-1.50993e-13
2.13439e-12
-1.24114e-13
2.15775e-12
-9.24553e-14
2.1731e-12
-6.06941e-14
2.18126e-12
-3.33332e-14
2.18108e-12
-2.61851e-15
2.17366e-12
2.5805e-14
2.15903e-12
5.26168e-14
2.13786e-12
7.8465e-14
2.1106e-12
1.01747e-13
2.07798e-12
1.22728e-13
2.0404e-12
1.4165e-13
1.99898e-12
1.57567e-13
1.95438e-12
1.70631e-13
1.90679e-12
1.82363e-13
1.8571e-12
1.91473e-13
1.80569e-12
1.98681e-13
1.75317e-12
2.04139e-13
1.69993e-12
2.07573e-13
1.64617e-12
2.09967e-13
1.59238e-12
2.11409e-13
1.53867e-12
2.11408e-13
1.48519e-12
2.10993e-13
1.43193e-12
2.10125e-13
1.37914e-12
2.08618e-13
1.32724e-12
2.06447e-13
1.27536e-12
2.05874e-13
1.22392e-12
2.03141e-13
1.17347e-12
2.0017e-13
1.12356e-12
1.97773e-13
1.07442e-12
1.94731e-13
1.02582e-12
1.92511e-13
9.77827e-13
1.89825e-13
9.30724e-13
1.86374e-13
8.84406e-13
1.83434e-13
8.38962e-13
1.7965e-13
7.94383e-13
1.76235e-13
7.50724e-13
1.72421e-13
7.08017e-13
1.69048e-13
6.66346e-13
1.64888e-13
6.25689e-13
1.60677e-13
5.86116e-13
1.5644e-13
5.47639e-13
1.5227e-13
5.10233e-13
1.48045e-13
4.73903e-13
1.43826e-13
4.38499e-13
1.39745e-13
4.04155e-13
1.35632e-13
3.70855e-13
1.3155e-13
3.38614e-13
1.27396e-13
3.07263e-13
1.2328e-13
2.76769e-13
1.19296e-13
2.47111e-13
1.15197e-13
2.17945e-13
1.11257e-13
1.88524e-13
1.07696e-13
1.57903e-13
1.0497e-13
1.25826e-13
1.03903e-13
9.40523e-14
1.08131e-13
3.85266e-14
2.21394e-13
1.30744e-16
2.36722e-13
1.21432e-21
-4.33448e-21
1.2234e-21
-2.54875e-23
1.2159e-21
-6.77254e-24
1.19533e-21
1.17356e-23
1.17749e-21
2.99853e-23
1.16157e-21
4.78731e-23
1.14627e-21
6.49337e-23
1.13019e-21
8.09603e-23
1.11261e-21
9.56945e-23
1.09317e-21
1.09033e-22
1.07141e-21
1.20975e-22
1.04762e-21
1.31625e-22
1.02167e-21
1.40776e-22
9.93496e-22
1.48427e-22
9.63459e-22
1.54838e-22
9.31561e-22
1.59853e-22
8.98215e-22
1.6373e-22
8.63266e-22
1.6647e-22
8.27439e-22
1.6828e-22
7.90268e-22
1.69003e-22
7.52579e-22
1.69107e-22
7.1396e-22
1.6828e-22
6.75135e-22
1.66987e-22
6.35792e-22
1.65023e-22
5.96501e-22
1.62851e-22
5.57106e-22
1.60111e-22
5.17763e-22
1.57113e-22
4.78627e-22
1.53856e-22
4.39595e-22
1.50547e-22
4.00821e-22
1.47135e-22
3.62512e-22
1.43826e-22
3.2441e-22
1.40466e-22
2.86825e-22
1.3726e-22
2.49602e-22
1.34365e-22
2.12792e-22
1.31573e-22
1.76396e-22
1.2904e-22
1.40155e-22
1.26869e-22
1.04121e-22
1.25008e-22
6.85009e-23
1.23612e-22
3.2777e-23
1.22681e-22
1.22216e-22
1.59481e-13
-7.53782e-13
3.17115e-13
-7.454e-13
4.70711e-13
-7.30598e-13
6.18828e-13
-7.0906e-13
7.59997e-13
-6.82324e-13
8.93638e-13
-6.5237e-13
1.01967e-12
-6.20575e-13
1.13817e-12
-5.88158e-13
1.24955e-12
-5.56067e-13
1.35434e-12
-5.24881e-13
1.45308e-12
-4.94997e-13
1.54622e-12
-4.66536e-13
1.63382e-12
-4.38184e-13
1.71707e-12
-4.11705e-13
1.79315e-12
-3.80665e-13
1.8633e-12
-3.45656e-13
1.9312e-12
-3.24022e-13
1.9925e-12
-2.96099e-13
2.04597e-12
-2.61255e-13
2.08972e-12
-2.17047e-13
2.1331e-12
-1.94076e-13
2.16432e-12
-1.55052e-13
2.1876e-12
-1.15487e-13
2.20332e-12
-7.61934e-14
2.21079e-12
-4.0615e-14
2.20949e-12
-1.15165e-15
2.20078e-12
3.46562e-14
2.18432e-12
6.91909e-14
2.16104e-12
1.01836e-13
2.13174e-12
1.31107e-13
2.09655e-12
1.57949e-13
2.05652e-12
1.81694e-13
2.01271e-12
2.01356e-13
1.96572e-12
2.17578e-13
1.91587e-12
2.32149e-13
1.86422e-12
2.43027e-13
1.81092e-12
2.51869e-13
1.75689e-12
2.58036e-13
1.70232e-12
2.61983e-13
1.64743e-12
2.64681e-13
1.59266e-12
2.65978e-13
1.53822e-12
2.65636e-13
1.48415e-12
2.64832e-13
1.43045e-12
2.63574e-13
1.37741e-12
2.61397e-13
1.32516e-12
2.58415e-13
1.27356e-12
2.57186e-13
1.22159e-12
2.54804e-13
1.1709e-12
2.50543e-13
1.1209e-12
2.47443e-13
1.0716e-12
2.43686e-13
1.02288e-12
2.40882e-13
9.74821e-13
2.37527e-13
9.27603e-13
2.33224e-13
8.81011e-13
2.29654e-13
8.3544e-13
2.2484e-13
7.90685e-13
2.20606e-13
7.46895e-13
2.15818e-13
7.04019e-13
2.11527e-13
6.62314e-13
2.06192e-13
6.21559e-13
2.01026e-13
5.81993e-13
1.95597e-13
5.43433e-13
1.90416e-13
5.05973e-13
1.85088e-13
4.69664e-13
1.79717e-13
4.34292e-13
1.74696e-13
3.99988e-13
1.69512e-13
3.66783e-13
1.64329e-13
3.34505e-13
1.59246e-13
3.0311e-13
1.54245e-13
2.72682e-13
1.49293e-13
2.4306e-13
1.44389e-13
2.14237e-13
1.39648e-13
1.86157e-13
1.35342e-13
1.58138e-13
1.32553e-13
1.31517e-13
1.30088e-13
1.03977e-13
1.35235e-13
4.0835e-14
2.84098e-13
1.27455e-16
2.77081e-13
1.23748e-21
-5.40653e-21
1.24206e-21
-3.18465e-23
1.23441e-21
-7.96161e-24
1.21353e-21
1.57681e-23
1.19533e-21
3.91877e-23
1.17873e-21
6.19352e-23
1.16219e-21
8.34936e-23
1.14497e-21
1.03708e-22
1.12595e-21
1.22216e-22
1.10501e-21
1.39121e-22
1.08206e-21
1.54011e-22
1.05678e-21
1.6709e-22
1.02932e-21
1.78309e-22
9.99906e-22
1.87873e-22
9.68473e-22
1.95628e-22
9.35438e-22
2.01729e-22
9.00903e-22
2.06382e-22
8.65076e-22
2.09535e-22
8.28163e-22
2.11551e-22
7.90319e-22
2.12275e-22
7.51752e-22
2.12068e-22
7.12668e-22
2.11034e-22
6.7317e-22
2.09173e-22
6.33569e-22
2.0664e-22
5.93761e-22
2.03486e-22
5.54108e-22
2.00023e-22
5.14558e-22
1.96042e-22
4.75215e-22
1.91906e-22
4.36234e-22
1.87667e-22
3.97512e-22
1.83221e-22
3.59203e-22
1.7893e-22
3.21256e-22
1.74794e-22
2.8393e-22
1.70709e-22
2.4681e-22
1.66884e-22
2.10259e-22
1.63368e-22
1.74173e-22
1.60318e-22
1.38346e-22
1.57578e-22
1.02829e-22
1.55355e-22
6.74669e-23
1.53752e-22
3.23634e-23
1.52563e-22
1.5215e-22
1.67482e-13
-9.20886e-13
3.32459e-13
-9.09707e-13
4.92423e-13
-8.89978e-13
6.45319e-13
-8.61386e-13
7.89863e-13
-8.26307e-13
9.25441e-13
-7.87392e-13
1.05215e-12
-7.46731e-13
1.17025e-12
-7.05723e-13
1.28071e-12
-6.66006e-13
1.38457e-12
-6.28223e-13
1.48235e-12
-5.92286e-13
1.57409e-12
-5.57792e-13
1.66223e-12
-5.25848e-13
1.74486e-12
-4.93895e-13
1.81907e-12
-4.54438e-13
1.89368e-12
-4.19857e-13
1.96292e-12
-3.92872e-13
2.02535e-12
-3.58164e-13
2.07764e-12
-3.13203e-13
2.12732e-12
-2.66408e-13
2.1699e-12
-2.36351e-13
2.20233e-12
-1.87213e-13
2.22569e-12
-1.38604e-13
2.24205e-12
-9.23268e-14
2.24846e-12
-4.6834e-14
2.24587e-12
1.60473e-15
2.23535e-12
4.53162e-14
2.21658e-12
8.80717e-14
2.19054e-12
1.27958e-13
2.15826e-12
1.6345e-13
2.11994e-12
1.96301e-13
2.0767e-12
2.24946e-13
2.02979e-12
2.48248e-13
1.97969e-12
2.67641e-13
1.92706e-12
2.84709e-13
1.87271e-12
2.97283e-13
1.8171e-12
3.07373e-13
1.76109e-12
3.13914e-13
1.70486e-12
3.18053e-13
1.6485e-12
3.20869e-13
1.59269e-12
3.21598e-13
1.53733e-12
3.20789e-13
1.48272e-12
3.19213e-13
1.42846e-12
3.17591e-13
1.37525e-12
3.14337e-13
1.32222e-12
3.11176e-13
1.27114e-12
3.07971e-13
1.21874e-12
3.06906e-13
1.16765e-12
3.01326e-13
1.11761e-12
2.97159e-13
1.06797e-12
2.92991e-13
1.01925e-12
2.89261e-13
9.70965e-13
2.85458e-13
9.23517e-13
2.80312e-13
8.76719e-13
2.76084e-13
8.30952e-13
2.70233e-13
7.86049e-13
2.6513e-13
7.42053e-13
2.5943e-13
6.99055e-13
2.54135e-13
6.57098e-13
2.47757e-13
6.16313e-13
2.41411e-13
5.76709e-13
2.34799e-13
5.38201e-13
2.28517e-13
5.00765e-13
2.22115e-13
4.6447e-13
2.156e-13
4.2914e-13
2.09615e-13
3.94921e-13
2.03315e-13
3.61723e-13
1.9711e-13
3.2947e-13
1.91081e-13
2.98147e-13
1.8515e-13
2.67775e-13
1.79243e-13
2.38359e-13
1.73384e-13
2.10104e-13
1.67479e-13
1.83226e-13
1.61796e-13
1.57589e-13
1.57764e-13
1.36608e-13
1.50644e-13
1.14918e-13
1.565e-13
2.94539e-14
3.69135e-13
1.24074e-16
3.06071e-13
1.26064e-21
-6.43225e-21
1.266e-21
-3.8102e-23
1.25814e-21
-8.6337e-24
1.237e-21
2.06278e-23
1.21802e-21
4.93723e-23
1.20034e-21
7.71346e-23
1.1824e-21
1.03449e-22
1.16348e-21
1.27955e-22
1.14285e-21
1.5034e-22
1.12e-21
1.70606e-22
1.09508e-21
1.88597e-22
1.06799e-21
2.04262e-22
1.03889e-21
2.176e-22
1.00766e-21
2.28715e-22
9.74574e-22
2.37608e-22
9.40091e-22
2.4469e-22
9.04108e-22
2.49964e-22
8.6704e-22
2.53583e-22
8.28938e-22
2.55599e-22
7.90113e-22
2.56271e-22
7.50666e-22
2.55651e-22
7.10807e-22
2.54048e-22
6.70688e-22
2.51411e-22
6.30467e-22
2.48051e-22
5.90297e-22
2.44225e-22
5.50179e-22
2.39831e-22
5.1037e-22
2.35023e-22
4.71028e-22
2.29905e-22
4.31788e-22
2.24476e-22
3.93221e-22
2.19255e-22
3.55016e-22
2.13878e-22
3.17224e-22
2.08708e-22
2.80052e-22
2.039e-22
2.43295e-22
1.99195e-22
2.0726e-22
1.95008e-22
1.71381e-22
1.91234e-22
1.36123e-22
1.87977e-22
1.01123e-22
1.85288e-22
6.63813e-23
1.83324e-22
3.18465e-23
1.81928e-22
1.81359e-22
1.78244e-13
-1.09875e-12
3.53042e-13
-1.08384e-12
5.21298e-13
-1.05766e-12
6.8034e-13
-1.01987e-12
8.28785e-13
-9.74193e-13
9.66173e-13
-9.2423e-13
1.09296e-12
-8.72969e-13
1.21016e-12
-8.22389e-13
1.31904e-12
-7.74367e-13
1.42093e-12
-7.29605e-13
1.51639e-12
-6.8725e-13
1.60724e-12
-6.48165e-13
1.69527e-12
-6.13417e-13
1.77592e-12
-5.74097e-13
1.85046e-12
-5.28556e-13
1.92912e-12
-4.98107e-13
2.00029e-12
-4.6366e-13
2.06459e-12
-4.221e-13
2.11532e-12
-3.63591e-13
2.17405e-12
-3.24825e-13
2.21449e-12
-2.76497e-13
2.24888e-12
-2.21328e-13
2.2728e-12
-1.62285e-13
2.28949e-12
-1.08795e-13
2.29462e-12
-5.17706e-14
2.29065e-12
5.73702e-15
2.27772e-12
5.83898e-14
2.25595e-12
1.09952e-13
2.22656e-12
1.57434e-13
2.19033e-12
1.99739e-13
2.14808e-12
2.38593e-13
2.10085e-12
2.72186e-13
2.0501e-12
2.98977e-13
1.99607e-12
3.21636e-13
1.93988e-12
3.4084e-13
1.8823e-12
3.54776e-13
1.82394e-12
3.6562e-13
1.76543e-12
3.72297e-13
1.70713e-12
3.76201e-13
1.64922e-12
3.7861e-13
1.59221e-12
3.78421e-13
1.53588e-12
3.76912e-13
1.48048e-12
3.74389e-13
1.42569e-12
3.72144e-13
1.3723e-12
3.67472e-13
1.31862e-12
3.64579e-13
1.2677e-12
3.58618e-13
1.21556e-12
3.58745e-13
1.16391e-12
3.52672e-13
1.11377e-12
3.46981e-13
1.06384e-12
3.42583e-13
1.01498e-12
3.37786e-13
9.66425e-13
3.33671e-13
9.18671e-13
3.27713e-13
8.71582e-13
3.22812e-13
8.25461e-13
3.15988e-13
7.80373e-13
3.09844e-13
7.36153e-13
3.03273e-13
6.93029e-13
2.96877e-13
6.50831e-13
2.89568e-13
6.0998e-13
2.81874e-13
5.70251e-13
2.74136e-13
5.31709e-13
2.66663e-13
4.94383e-13
2.59041e-13
4.58112e-13
2.51469e-13
4.22853e-13
2.44473e-13
3.88812e-13
2.3695e-13
3.55743e-13
2.29772e-13
3.23533e-13
2.22884e-13
2.92233e-13
2.16043e-13
2.61862e-13
2.09202e-13
2.3249e-13
2.02343e-13
2.04441e-13
1.95113e-13
1.78497e-13
1.87329e-13
1.56559e-13
1.79289e-13
1.36606e-13
1.70182e-13
7.05314e-14
2.22161e-13
1.34603e-14
4.25794e-13
1.20692e-16
3.1908e-13
1.29373e-21
-7.41827e-21
1.29552e-21
-4.45127e-23
1.2874e-21
-8.7371e-24
1.26569e-21
2.6263e-23
1.24579e-21
6.07461e-23
1.22666e-21
9.37816e-23
1.20691e-21
1.25111e-22
1.18587e-21
1.54166e-22
1.16312e-21
1.80636e-22
1.13794e-21
2.04159e-22
1.11075e-21
2.25097e-22
1.08138e-21
2.43139e-22
1.04995e-21
2.58442e-22
1.01661e-21
2.71057e-22
9.81708e-22
2.81345e-22
9.45261e-22
2.89151e-22
9.07727e-22
2.94838e-22
8.69108e-22
2.98561e-22
8.29559e-22
3.00422e-22
7.89492e-22
3.00784e-22
7.49064e-22
2.99698e-22
7.08222e-22
2.97371e-22
6.6738e-22
2.9427e-22
6.26538e-22
2.90082e-22
5.85902e-22
2.85222e-22
5.45371e-22
2.79639e-22
5.05252e-22
2.73849e-22
4.65599e-22
2.67696e-22
4.26567e-22
2.61441e-22
3.87844e-22
2.54978e-22
3.49897e-22
2.48671e-22
3.12312e-22
2.42467e-22
2.75451e-22
2.36677e-22
2.39159e-22
2.31249e-22
2.03383e-22
2.26182e-22
1.68176e-22
2.21736e-22
1.33435e-22
2.18014e-22
9.91583e-23
2.15015e-22
6.49854e-23
2.12637e-22
3.13295e-23
2.1119e-22
2.10517e-22
1.92616e-13
-1.291e-12
3.80475e-13
-1.27104e-12
5.59227e-13
-1.23584e-12
7.25797e-13
-1.18588e-12
8.78614e-13
-1.12646e-12
1.01758e-12
-1.06266e-12
1.14349e-12
-9.98342e-13
1.25851e-12
-9.36883e-13
1.36445e-12
-8.79786e-13
1.46274e-12
-8.27385e-13
1.55503e-12
-7.79053e-13
1.64545e-12
-7.38115e-13
1.73152e-12
-6.99024e-13
1.80838e-12
-6.50519e-13
1.88963e-12
-6.0938e-13
1.96882e-12
-5.76896e-13
2.04274e-12
-5.37203e-13
2.10684e-12
-4.85835e-13
2.16496e-12
-4.21371e-13
2.22577e-12
-3.85325e-13
2.26853e-12
-3.18966e-13
2.30407e-12
-2.56603e-13
2.33025e-12
-1.88215e-13
2.3462e-12
-1.24532e-13
2.35024e-12
-5.56165e-14
2.34459e-12
1.15517e-14
2.32871e-12
7.44091e-14
2.30303e-12
1.3574e-13
2.26949e-12
1.91068e-13
2.22843e-12
2.40857e-13
2.1809e-12
2.86159e-13
2.12895e-12
3.24155e-13
2.0733e-12
3.54608e-13
2.01453e-12
3.80365e-13
1.95416e-12
4.01152e-13
1.89243e-12
4.16428e-13
1.83092e-12
4.27022e-13
1.76966e-12
4.33428e-13
1.7089e-12
4.36816e-13
1.64921e-12
4.38134e-13
1.59083e-12
4.36616e-13
1.53358e-12
4.3396e-13
1.47719e-12
4.30564e-13
1.42223e-12
4.26871e-13
1.36832e-12
4.21132e-13
1.31502e-12
4.17617e-13
1.26254e-12
4.10824e-13
1.21212e-12
4.08876e-13
1.15964e-12
4.04857e-13
1.10911e-12
3.97197e-13
1.05895e-12
3.92421e-13
1.00991e-12
3.86503e-13
9.61191e-13
3.82053e-13
9.12921e-13
3.75638e-13
8.65715e-13
3.69665e-13
8.19039e-13
3.62307e-13
7.73692e-13
3.54829e-13
7.29051e-13
3.47549e-13
6.85919e-13
3.39637e-13
6.43458e-13
3.31651e-13
6.02438e-13
3.22514e-13
5.62776e-13
3.13415e-13
5.24239e-13
3.04814e-13
4.86896e-13
2.95997e-13
4.50633e-13
2.8734e-13
4.15645e-13
2.79067e-13
3.81712e-13
2.70491e-13
3.48749e-13
2.6234e-13
3.16718e-13
2.54518e-13
2.85411e-13
2.46951e-13
2.54926e-13
2.3929e-13
2.25306e-13
2.31564e-13
1.96589e-13
2.23428e-13
1.69594e-13
2.13924e-13
1.4737e-13
2.01112e-13
1.37898e-13
1.79253e-13
4.34927e-14
3.16162e-13
1.52377e-14
4.5365e-13
1.15789e-16
3.33885e-13
1.32681e-21
-8.1859e-21
1.33119e-21
-4.99927e-23
1.32246e-21
-8.11671e-24
1.30012e-21
3.33974e-23
1.27892e-21
7.39293e-23
1.25794e-21
1.126e-22
1.23591e-21
1.48996e-22
1.21234e-21
1.826e-22
1.18669e-21
2.13154e-22
1.15888e-21
2.40296e-22
1.12884e-21
2.64026e-22
1.09669e-21
2.84447e-22
1.06262e-21
3.01611e-22
1.02679e-21
3.15621e-22
9.89515e-22
3.2684e-22
9.50999e-22
3.35163e-22
9.11398e-22
3.4116e-22
8.70918e-22
3.44779e-22
8.29869e-22
3.46434e-22
7.88458e-22
3.4633e-22
7.46737e-22
3.44624e-22
7.05068e-22
3.41574e-22
6.63244e-22
3.37231e-22
6.21626e-22
3.32113e-22
5.80422e-22
3.26168e-22
5.3958e-22
3.19705e-22
4.99152e-22
3.12726e-22
4.59344e-22
3.05436e-22
4.20156e-22
2.97992e-22
3.81537e-22
2.90547e-22
3.43694e-22
2.83154e-22
3.06522e-22
2.7602e-22
2.69971e-22
2.69247e-22
2.34092e-22
2.6294e-22
1.98989e-22
2.57253e-22
1.64454e-22
2.52032e-22
1.30436e-22
2.47792e-22
9.67801e-23
2.44277e-22
6.35895e-23
2.4164e-22
3.06057e-23
2.39934e-22
2.39159e-22
2.11859e-13
-1.50249e-12
4.17078e-13
-1.47561e-12
6.09355e-13
-1.42755e-12
7.84939e-13
-1.36091e-12
9.4226e-13
-1.28324e-12
1.0818e-12
-1.20166e-12
1.20517e-12
-1.12118e-12
1.31615e-12
-1.04734e-12
1.41672e-12
-9.79848e-13
1.50933e-12
-9.19501e-13
1.59877e-12
-8.68012e-13
1.68716e-12
-8.26028e-13
1.76722e-12
-7.78635e-13
1.84566e-12
-7.28524e-13
1.93231e-12
-6.95611e-13
2.0132e-12
-6.57397e-13
2.08788e-12
-6.11502e-13
2.15454e-12
-5.5214e-13
2.2275e-12
-4.94e-13
2.28282e-12
-4.40334e-13
2.33232e-12
-3.68175e-13
2.36952e-12
-2.93539e-13
2.39834e-12
-2.16801e-13
2.41346e-12
-1.39431e-13
2.41634e-12
-5.83045e-14
2.40853e-12
1.9528e-14
2.38871e-12
9.43633e-14
2.35858e-12
1.65985e-13
2.31966e-12
2.30077e-13
2.27251e-12
2.88071e-13
2.2188e-12
3.39907e-13
2.16104e-12
3.81926e-13
2.09918e-12
4.16464e-13
2.03482e-12
4.4468e-13
1.96919e-12
4.66728e-13
1.90294e-12
4.82599e-13
1.83761e-12
4.92254e-13
1.77313e-12
4.9778e-13
1.70969e-12
5.00119e-13
1.64812e-12
4.9954e-13
1.58824e-12
4.96317e-13
1.53007e-12
4.91938e-13
1.47294e-12
4.87479e-13
1.41766e-12
4.81918e-13
1.36346e-12
4.75088e-13
1.31055e-12
4.70273e-13
1.25698e-12
4.64126e-13
1.20779e-12
4.57782e-13
1.15519e-12
4.5717e-13
1.10388e-12
4.48204e-13
1.05371e-12
4.42276e-13
1.0041e-12
4.35797e-13
9.55227e-13
4.30599e-13
9.06486e-13
4.24043e-13
8.58883e-13
4.16925e-13
8.11644e-13
4.09198e-13
7.65937e-13
4.00183e-13
7.20883e-13
3.92245e-13
6.77673e-13
3.82484e-13
6.34859e-13
3.74097e-13
5.9372e-13
3.63284e-13
5.53947e-13
3.52817e-13
5.15448e-13
3.42941e-13
4.78206e-13
3.32861e-13
4.42061e-13
3.23107e-13
4.07375e-13
3.13372e-13
3.73655e-13
3.0383e-13
3.40898e-13
2.94715e-13
3.08942e-13
2.86093e-13
2.77832e-13
2.77676e-13
2.47269e-13
2.69469e-13
2.17207e-13
2.61238e-13
1.87539e-13
2.5271e-13
1.57759e-13
2.43317e-13
1.27633e-13
2.30851e-13
9.18175e-14
2.14679e-13
2.6837e-14
3.80753e-13
1.65267e-14
4.63573e-13
1.11376e-16
3.49992e-13
1.36652e-21
-8.93368e-21
1.37317e-21
-5.61966e-23
1.36392e-21
-6.72084e-24
1.34065e-21
4.17209e-23
1.31765e-21
8.89219e-23
1.29428e-21
1.33745e-22
1.26962e-21
1.75621e-22
1.24284e-21
2.14085e-22
1.21384e-21
2.48619e-22
1.18261e-21
2.79329e-22
1.14921e-21
3.05902e-22
1.1138e-21
3.28442e-22
1.07668e-21
3.47209e-22
1.03801e-21
3.62512e-22
9.9789e-22
3.74299e-22
9.56945e-22
3.8314e-22
9.15069e-22
3.88982e-22
8.72624e-22
3.92446e-22
8.29714e-22
3.93686e-22
7.86752e-22
3.92859e-22
7.43739e-22
3.90326e-22
7.00725e-22
3.86293e-22
6.58074e-22
3.80968e-22
6.15681e-22
3.74609e-22
5.7396e-22
3.67578e-22
5.32549e-22
3.59824e-22
4.91862e-22
3.51655e-22
4.51847e-22
3.43228e-22
4.1266e-22
3.34595e-22
3.74092e-22
3.25961e-22
3.36507e-22
3.17637e-22
2.99801e-22
3.09417e-22
2.63664e-22
3.01662e-22
2.28405e-22
2.94476e-22
1.93767e-22
2.87962e-22
1.60163e-22
2.82379e-22
1.26921e-22
2.77364e-22
9.41435e-23
2.73435e-22
6.18318e-23
2.7054e-22
2.98302e-23
2.68679e-22
2.67955e-22
2.37511e-13
-1.73963e-12
4.67006e-13
-1.70447e-12
6.76715e-13
-1.6367e-12
8.62112e-13
-1.54576e-12
1.02364e-12
-1.44423e-12
1.16196e-12
-1.33944e-12
1.27958e-12
-1.23828e-12
1.38403e-12
-1.15128e-12
1.47497e-12
-1.07029e-12
1.56083e-12
-1.00486e-12
1.64786e-12
-9.54571e-13
1.72658e-12
-9.0429e-13
1.80234e-12
-8.53954e-13
1.89015e-12
-8.15901e-13
1.97577e-12
-7.8082e-13
2.06029e-12
-7.4153e-13
2.13451e-12
-6.85351e-13
2.21512e-12
-6.32401e-13
2.29133e-12
-5.69882e-13
2.35171e-12
-5.00412e-13
2.40491e-12
-4.21086e-13
2.44738e-12
-3.35754e-13
2.47734e-12
-2.4652e-13
2.4931e-12
-1.54978e-13
2.49427e-12
-5.92886e-14
2.48361e-12
3.03502e-14
2.45891e-12
1.19205e-13
2.42342e-12
2.01588e-13
2.37772e-12
2.75865e-13
2.32269e-12
3.43157e-13
2.26189e-12
4.00751e-13
2.19685e-12
4.46981e-13
2.1274e-12
4.85908e-13
2.05638e-12
5.15665e-13
1.98435e-12
5.38699e-13
1.91316e-12
5.53716e-13
1.84318e-12
5.62139e-13
1.77523e-12
5.6561e-13
1.70894e-12
5.66274e-13
1.64544e-12
5.62883e-13
1.58406e-12
5.5752e-13
1.52463e-12
5.51181e-13
1.46747e-12
5.44438e-13
1.41188e-12
5.37279e-13
1.35758e-12
5.29153e-13
1.30484e-12
5.22767e-13
1.25203e-12
5.16674e-13
1.20149e-12
5.08048e-13
1.15048e-12
5.079e-13
1.09834e-12
5.00052e-13
1.04809e-12
4.92227e-13
9.97551e-13
4.8602e-13
9.48779e-13
4.79052e-13
8.9949e-13
4.73007e-13
8.51195e-13
4.6489e-13
8.0324e-13
4.56818e-13
7.57072e-13
4.46007e-13
7.11685e-13
4.37286e-13
6.67936e-13
4.25883e-13
6.25094e-13
4.16588e-13
5.83512e-13
4.04508e-13
5.43763e-13
3.92208e-13
5.05343e-13
3.80999e-13
4.68361e-13
3.6948e-13
4.3246e-13
3.58644e-13
3.97969e-13
3.47496e-13
3.64578e-13
3.36854e-13
3.32124e-13
3.26801e-13
3.00486e-13
3.17363e-13
2.6957e-13
3.08221e-13
2.39036e-13
2.99633e-13
2.08681e-13
2.91224e-13
1.77713e-13
2.83302e-13
1.44641e-13
2.76016e-13
1.06629e-13
2.68491e-13
4.89143e-14
2.72021e-13
1.61196e-14
4.13174e-13
1.23411e-14
4.6698e-13
1.06296e-16
3.6193e-13
1.41615e-21
-9.30425e-21
1.42265e-21
-6.1108e-23
1.41236e-21
-4.03251e-24
1.3878e-21
5.20607e-23
1.36252e-21
1.06293e-22
1.33616e-21
1.57836e-22
1.30803e-21
2.05606e-22
1.27748e-21
2.4893e-22
1.24449e-21
2.87704e-22
1.20918e-21
3.21722e-22
1.17186e-21
3.51087e-22
1.13257e-21
3.75747e-22
1.09193e-21
3.96013e-22
1.04985e-21
4.12194e-22
1.00668e-21
4.24447e-22
9.62838e-22
4.33339e-22
9.18481e-22
4.39026e-22
8.73865e-22
4.4187e-22
8.28938e-22
4.4218e-22
7.84219e-22
4.40474e-22
7.39655e-22
4.36803e-22
6.95452e-22
4.31788e-22
6.51818e-22
4.25274e-22
6.0865e-22
4.17726e-22
5.66153e-22
4.09403e-22
5.24484e-22
4.00407e-22
4.83332e-22
3.90843e-22
4.43265e-22
3.81124e-22
4.04078e-22
3.71301e-22
3.65769e-22
3.61478e-22
3.28339e-22
3.52017e-22
2.91995e-22
3.4297e-22
2.56478e-22
3.34181e-22
2.21891e-22
3.26168e-22
1.88132e-22
3.18826e-22
1.55251e-22
3.12364e-22
1.2294e-22
3.06884e-22
9.12484e-23
3.02438e-22
5.99706e-23
2.99233e-22
2.91581e-23
2.97268e-22
2.96493e-22
2.73324e-13
-2.0126e-12
5.32336e-13
-1.96285e-12
7.66045e-13
-1.86987e-12
9.64654e-13
-1.74384e-12
1.12813e-12
-1.60717e-12
1.2622e-12
-1.47299e-12
1.37061e-12
-1.34618e-12
1.45923e-12
-1.2394e-12
1.53922e-12
-1.14978e-12
1.61917e-12
-1.08433e-12
1.69206e-12
-1.02699e-12
1.76271e-12
-9.74487e-13
1.84454e-12
-9.35347e-13
1.93147e-12
-9.02414e-13
2.02025e-12
-8.69194e-13
2.10456e-12
-8.25452e-13
2.19266e-12
-7.73092e-13
2.28144e-12
-7.20845e-13
2.36024e-12
-6.48351e-13
2.43037e-12
-5.70248e-13
2.49007e-12
-4.80502e-13
2.53762e-12
-3.83052e-13
2.56935e-12
-2.78016e-13
2.58634e-12
-1.71756e-13
2.58583e-12
-5.85877e-14