/*--------------------------------*- C++ -*----------------------------------*\
  =========                 |
  \\      /  F ield         | OpenFOAM: The Open Source CFD Toolbox
   \\    /   O peration     | Website:  https://openfoam.org
    \\  /    A nd           | Version:  6
     \\/     M anipulation  |
\*---------------------------------------------------------------------------*/
FoamFile
{
    version     2.0;
    format      ascii;
    class       volVectorField;
    location    "8000";
    object      U;
}
// * * * * * * * * * * * * * * * * * * * * * * * * * * * * * * * * * * * * * //

dimensions      [0 1 -1 0 0 0 0];

internalField   nonuniform List<vector> 
4800
(
(3.02315e-08 0 -2.81965e-08)
(8.70044e-08 0 -3.08335e-08)
(1.44302e-07 0 -3.15819e-08)
(2.00644e-07 0 -3.11152e-08)
(2.55203e-07 0 -3.01371e-08)
(3.07848e-07 0 -2.88814e-08)
(3.58382e-07 0 -2.74308e-08)
(4.06649e-07 0 -2.58971e-08)
(4.52566e-07 0 -2.43115e-08)
(4.961e-07 0 -2.27494e-08)
(5.37258e-07 0 -2.12025e-08)
(5.7605e-07 0 -1.9712e-08)
(6.1251e-07 0 -1.83161e-08)
(6.4666e-07 0 -1.69359e-08)
(6.78452e-07 0 -1.55678e-08)
(7.07776e-07 0 -1.41562e-08)
(7.345e-07 0 -1.27065e-08)
(7.58832e-07 0 -1.16487e-08)
(7.80855e-07 0 -1.03501e-08)
(8.00123e-07 0 -8.79872e-09)
(8.16376e-07 0 -7.04387e-09)
(8.29853e-07 0 -6.20985e-09)
(8.40763e-07 0 -4.53303e-09)
(8.48682e-07 0 -2.95542e-09)
(8.53486e-07 0 -1.55202e-09)
(8.55486e-07 0 -1.17924e-10)
(8.54683e-07 0 1.29857e-09)
(8.512e-07 0 2.59559e-09)
(8.4512e-07 0 3.88456e-09)
(8.36628e-07 0 5.03857e-09)
(8.2598e-07 0 6.06632e-09)
(8.13351e-07 0 7.00265e-09)
(7.98974e-07 0 7.81488e-09)
(7.831e-07 0 8.4867e-09)
(7.65967e-07 0 9.04635e-09)
(7.47754e-07 0 9.53678e-09)
(7.28669e-07 0 9.9043e-09)
(7.0889e-07 0 1.0202e-08)
(6.88603e-07 0 1.0391e-08)
(6.67964e-07 0 1.05201e-08)
(6.47081e-07 0 1.05888e-08)
(6.2607e-07 0 1.06048e-08)
(6.05023e-07 0 1.05932e-08)
(5.84016e-07 0 1.0513e-08)
(5.6311e-07 0 1.0477e-08)
(5.42335e-07 0 1.03674e-08)
(5.21658e-07 0 1.03045e-08)
(5.01168e-07 0 1.0116e-08)
(4.80936e-07 0 9.99054e-09)
(4.60947e-07 0 9.83737e-09)
(4.41216e-07 0 9.66775e-09)
(4.21757e-07 0 9.52925e-09)
(4.02556e-07 0 9.34756e-09)
(3.83655e-07 0 9.15478e-09)
(3.65066e-07 0 8.97477e-09)
(3.46804e-07 0 8.74915e-09)
(3.28899e-07 0 8.55517e-09)
(3.11353e-07 0 8.31428e-09)
(2.94171e-07 0 8.11611e-09)
(2.77352e-07 0 7.86801e-09)
(2.60927e-07 0 7.61074e-09)
(2.44924e-07 0 7.36359e-09)
(2.29336e-07 0 7.11158e-09)
(2.14157e-07 0 6.85826e-09)
(1.99386e-07 0 6.60026e-09)
(1.85036e-07 0 6.33255e-09)
(1.71112e-07 0 6.0705e-09)
(1.57603e-07 0 5.80931e-09)
(1.44484e-07 0 5.56834e-09)
(1.31785e-07 0 5.29349e-09)
(1.19559e-07 0 5.01778e-09)
(1.07842e-07 0 4.73792e-09)
(9.67497e-08 0 4.4111e-09)
(8.66304e-08 0 3.90825e-09)
(7.85053e-08 0 3.16935e-09)
(7.46492e-08 0 1.69085e-09)
(7.83962e-08 0 -1.32087e-08)
(6.67192e-08 0 3.74789e-09)
(1.21013e-10 0 2.45583e-08)
(8.24911e-16 0 -2.50085e-16)
(2.41274e-16 0 -1.41655e-18)
(4.76704e-16 0 1.55096e-19)
(4.72248e-16 0 7.34123e-19)
(4.64586e-16 0 1.30281e-18)
(4.58e-16 0 1.93353e-18)
(4.52096e-16 0 2.61596e-18)
(4.46316e-16 0 3.28804e-18)
(4.40215e-16 0 3.97047e-18)
(4.33536e-16 0 4.61153e-18)
(4.26101e-16 0 5.21124e-18)
(4.17819e-16 0 5.75925e-18)
(4.08658e-16 0 6.25555e-18)
(3.98618e-16 0 6.68982e-18)
(3.87741e-16 0 7.05172e-18)
(3.76078e-16 0 7.36191e-18)
(3.63691e-16 0 7.64108e-18)
(3.50652e-16 0 7.8272e-18)
(3.37066e-16 0 7.98229e-18)
(3.23004e-16 0 8.10637e-18)
(3.08518e-16 0 8.16841e-18)
(2.93691e-16 0 8.19943e-18)
(2.78594e-16 0 8.18909e-18)
(2.63261e-16 0 8.14773e-18)
(2.47772e-16 0 8.09603e-18)
(2.322e-16 0 8.02365e-18)
(2.16618e-16 0 7.93059e-18)
(2.01067e-16 0 7.8272e-18)
(1.85526e-16 0 7.70312e-18)
(1.70017e-16 0 7.5687e-18)
(1.5459e-16 0 7.43429e-18)
(1.39256e-16 0 7.29987e-18)
(1.24046e-16 0 7.17579e-18)
(1.08971e-16 0 7.04138e-18)
(9.40091e-17 0 6.9173e-18)
(7.91819e-17 0 6.80356e-18)
(6.44581e-17 0 6.72084e-18)
(4.9848e-17 0 6.63813e-18)
(3.53413e-17 0 6.54507e-18)
(2.0969e-17 0 6.43133e-18)
(6.9173e-18 0 6.21419e-18)
(2.96818e-08 0 -8.74729e-08)
(8.88399e-08 0 -8.40623e-08)
(1.45332e-07 0 -8.20463e-08)
(2.01966e-07 0 -7.97362e-08)
(2.56736e-07 0 -7.71693e-08)
(3.09543e-07 0 -7.43346e-08)
(3.602e-07 0 -7.12724e-08)
(4.08548e-07 0 -6.80988e-08)
(4.54516e-07 0 -6.48454e-08)
(4.98072e-07 0 -6.15844e-08)
(5.39224e-07 0 -5.83516e-08)
(5.78044e-07 0 -5.51413e-08)
(6.14558e-07 0 -5.20056e-08)
(6.48762e-07 0 -4.86768e-08)
(6.80605e-07 0 -4.52484e-08)
(7.09986e-07 0 -4.14204e-08)
(7.36811e-07 0 -3.74538e-08)
(7.61294e-07 0 -3.46514e-08)
(7.83467e-07 0 -3.08978e-08)
(8.02787e-07 0 -2.63417e-08)
(8.19149e-07 0 -2.12471e-08)
(8.32719e-07 0 -1.877e-08)
(8.43683e-07 0 -1.38531e-08)
(8.51557e-07 0 -9.13975e-09)
(8.56337e-07 0 -5.04053e-09)
(8.58298e-07 0 -7.62903e-10)
(8.57386e-07 0 3.46385e-09)
(8.53749e-07 0 7.31944e-09)
(8.4749e-07 0 1.11536e-08)
(8.38808e-07 0 1.45856e-08)
(8.27954e-07 0 1.7653e-08)
(8.15105e-07 0 2.04425e-08)
(8.00502e-07 0 2.28841e-08)
(7.84406e-07 0 2.48938e-08)
(7.67048e-07 0 2.66246e-08)
(7.48617e-07 0 2.80763e-08)
(7.29345e-07 0 2.92175e-08)
(7.0941e-07 0 3.01304e-08)
(6.8898e-07 0 3.07397e-08)
(6.68211e-07 0 3.11607e-08)
(6.47209e-07 0 3.14623e-08)
(6.26106e-07 0 3.15282e-08)
(6.05003e-07 0 3.15396e-08)
(5.83939e-07 0 3.13995e-08)
(5.62968e-07 0 3.13001e-08)
(5.42168e-07 0 3.10708e-08)
(5.21492e-07 0 3.09463e-08)
(5.0099e-07 0 3.04824e-08)
(4.80735e-07 0 3.0141e-08)
(4.60741e-07 0 2.97771e-08)
(4.41003e-07 0 2.93612e-08)
(4.21526e-07 0 2.90445e-08)
(4.02312e-07 0 2.86299e-08)
(3.8339e-07 0 2.81548e-08)
(3.64784e-07 0 2.77321e-08)
(3.4651e-07 0 2.71864e-08)
(3.28583e-07 0 2.67237e-08)
(3.11023e-07 0 2.61702e-08)
(2.93824e-07 0 2.57325e-08)
(2.76997e-07 0 2.51446e-08)
(2.60563e-07 0 2.45433e-08)
(2.44565e-07 0 2.39441e-08)
(2.28988e-07 0 2.3366e-08)
(2.13816e-07 0 2.2787e-08)
(1.9905e-07 0 2.22086e-08)
(1.84713e-07 0 2.15967e-08)
(1.70778e-07 0 2.10508e-08)
(1.57235e-07 0 2.04867e-08)
(1.44113e-07 0 1.9931e-08)
(1.31423e-07 0 1.92981e-08)
(1.1914e-07 0 1.86755e-08)
(1.07282e-07 0 1.79732e-08)
(9.58686e-08 0 1.71309e-08)
(8.48677e-08 0 1.59531e-08)
(7.39476e-08 0 1.36682e-08)
(6.34807e-08 0 8.04983e-09)
(3.93735e-08 0 -7.8485e-09)
(2.55349e-08 0 5.62297e-08)
(9.26088e-11 0 5.52526e-08)
(7.51288e-16 0 -6.92935e-16)
(2.42887e-16 0 -4.01183e-18)
(4.78824e-16 0 -5.89366e-19)
(4.73375e-16 0 1.72674e-18)
(4.65806e-16 0 4.02217e-18)
(4.59323e-16 0 6.34861e-18)
(4.5344e-16 0 8.67506e-18)
(4.4767e-16 0 1.09188e-17)
(4.41539e-16 0 1.30695e-17)
(4.34777e-16 0 1.50443e-17)
(4.27249e-16 0 1.68538e-17)
(4.18853e-16 0 1.84668e-17)
(4.09589e-16 0 1.98937e-17)
(3.99425e-16 0 2.11448e-17)
(3.88413e-16 0 2.21788e-17)
(3.76657e-16 0 2.30163e-17)
(3.64135e-16 0 2.37194e-17)
(3.50993e-16 0 2.42364e-17)
(3.37345e-16 0 2.45983e-17)
(3.23179e-16 0 2.48464e-17)
(3.08611e-16 0 2.49395e-17)
(2.93722e-16 0 2.49498e-17)
(2.78543e-16 0 2.48361e-17)
(2.63168e-16 0 2.46293e-17)
(2.47648e-16 0 2.43605e-17)
(2.32024e-16 0 2.40606e-17)
(2.16411e-16 0 2.37091e-17)
(2.00839e-16 0 2.33058e-17)
(1.85268e-16 0 2.28612e-17)
(1.69737e-16 0 2.24166e-17)
(1.54311e-16 0 2.19616e-17)
(1.38987e-16 0 2.15067e-17)
(1.23788e-16 0 2.10724e-17)
(1.08712e-16 0 2.06382e-17)
(9.3792e-17 0 2.02246e-17)
(7.89958e-17 0 1.98834e-17)
(6.42823e-17 0 1.95732e-17)
(4.96722e-17 0 1.93353e-17)
(3.51552e-17 0 1.90975e-17)
(2.06485e-17 0 1.88597e-17)
(6.68982e-18 0 1.85702e-17)
(2.95799e-08 0 -1.4713e-07)
(8.99493e-08 0 -1.4563e-07)
(1.47522e-07 0 -1.43267e-07)
(2.05305e-07 0 -1.39591e-07)
(2.60892e-07 0 -1.34991e-07)
(3.1426e-07 0 -1.29692e-07)
(3.65288e-07 0 -1.23909e-07)
(4.13825e-07 0 -1.17873e-07)
(4.59834e-07 0 -1.11751e-07)
(5.03351e-07 0 -1.05633e-07)
(5.44428e-07 0 -9.96055e-08)
(5.83138e-07 0 -9.37575e-08)
(6.19561e-07 0 -8.8075e-08)
(6.53729e-07 0 -8.21754e-08)
(6.85527e-07 0 -7.62629e-08)
(7.149e-07 0 -6.93571e-08)
(7.41796e-07 0 -6.32205e-08)
(7.66519e-07 0 -5.82981e-08)
(7.88866e-07 0 -5.16507e-08)
(8.08242e-07 0 -4.39595e-08)
(8.24774e-07 0 -3.60564e-08)
(8.38589e-07 0 -3.12277e-08)
(8.4967e-07 0 -2.31038e-08)
(8.57442e-07 0 -1.51771e-08)
(8.62146e-07 0 -8.39129e-09)
(8.63995e-07 0 -1.06785e-09)
(8.6283e-07 0 6.01698e-09)
(8.58875e-07 0 1.25074e-08)
(8.52245e-07 0 1.89416e-08)
(8.43168e-07 0 2.46846e-08)
(8.31884e-07 0 2.98615e-08)
(8.18554e-07 0 3.44956e-08)
(8.0347e-07 0 3.85709e-08)
(7.86943e-07 0 4.18726e-08)
(7.69167e-07 0 4.47794e-08)
(7.50318e-07 0 4.71349e-08)
(7.30649e-07 0 4.89871e-08)
(7.10358e-07 0 5.04569e-08)
(6.89636e-07 0 5.14025e-08)
(6.6864e-07 0 5.20306e-08)
(6.47447e-07 0 5.25195e-08)
(6.2617e-07 0 5.25616e-08)
(6.04905e-07 0 5.25203e-08)
(5.83719e-07 0 5.23011e-08)
(5.62671e-07 0 5.19952e-08)
(5.41834e-07 0 5.15865e-08)
(5.21114e-07 0 5.13722e-08)
(5.00549e-07 0 5.06205e-08)
(4.80226e-07 0 4.99877e-08)
(4.60186e-07 0 4.93595e-08)
(4.40424e-07 0 4.86194e-08)
(4.20931e-07 0 4.80499e-08)
(4.01691e-07 0 4.73322e-08)
(3.82728e-07 0 4.64897e-08)
(3.64071e-07 0 4.5746e-08)
(3.45753e-07 0 4.48024e-08)
(3.27798e-07 0 4.3944e-08)
(3.10236e-07 0 4.29599e-08)
(2.93018e-07 0 4.21403e-08)
(2.76174e-07 0 4.10952e-08)
(2.59727e-07 0 4.00247e-08)
(2.43706e-07 0 3.89507e-08)
(2.28096e-07 0 3.79324e-08)
(2.12905e-07 0 3.68886e-08)
(1.98142e-07 0 3.58331e-08)
(1.83799e-07 0 3.4757e-08)
(1.69861e-07 0 3.37446e-08)
(1.56337e-07 0 3.26975e-08)
(1.43214e-07 0 3.16551e-08)
(1.30497e-07 0 3.05719e-08)
(1.18169e-07 0 2.95009e-08)
(1.06187e-07 0 2.83619e-08)
(9.44635e-08 0 2.71151e-08)
(8.28407e-08 0 2.55443e-08)
(7.07022e-08 0 2.33427e-08)
(5.80221e-08 0 2.06533e-08)
(3.45816e-08 0 1.75966e-08)
(2.08748e-08 0 6.45815e-08)
(8.67739e-11 0 7.19783e-08)
(7.3351e-16 0 -1.09304e-15)
(2.4478e-16 0 -6.41065e-18)
(4.82432e-16 0 -1.83014e-18)
(4.76849e-16 0 2.59528e-18)
(4.69229e-16 0 7.03104e-18)
(4.62663e-16 0 1.13531e-17)
(4.56655e-16 0 1.552e-17)
(4.507e-16 0 1.94698e-17)
(4.44341e-16 0 2.31507e-17)
(4.3732e-16 0 2.65008e-17)
(4.29524e-16 0 2.952e-17)
(4.20859e-16 0 3.2167e-17)
(4.11326e-16 0 3.44624e-17)
(4.00903e-16 0 3.64373e-17)
(3.89623e-16 0 3.8102e-17)
(3.77629e-16 0 3.94152e-17)
(3.649e-16 0 4.04181e-17)
(3.51541e-16 0 4.12246e-17)
(3.37697e-16 0 4.17106e-17)
(3.23355e-16 0 4.20001e-17)
(3.08611e-16 0 4.20621e-17)
(2.93577e-16 0 4.19587e-17)
(2.78284e-16 0 4.16692e-17)
(2.62775e-16 0 4.12453e-17)
(2.47172e-16 0 4.06766e-17)
(2.31538e-16 0 4.00666e-17)
(2.15873e-16 0 3.93841e-17)
(2.00219e-16 0 3.86293e-17)
(1.84627e-16 0 3.78228e-17)
(1.69107e-16 0 3.7006e-17)
(1.53669e-16 0 3.61685e-17)
(1.38367e-16 0 3.53723e-17)
(1.23178e-16 0 3.45762e-17)
(1.08133e-16 0 3.3842e-17)
(9.32853e-17 0 3.31493e-17)
(7.85305e-17 0 3.25289e-17)
(6.38894e-17 0 3.19912e-17)
(4.93723e-17 0 3.15569e-17)
(3.48967e-17 0 3.11951e-17)
(2.0452e-17 0 3.09262e-17)
(6.61745e-18 0 3.07815e-17)
(3.03315e-08 0 -2.07056e-07)
(9.26032e-08 0 -2.04953e-07)
(1.51376e-07 0 -2.01302e-07)
(2.10416e-07 0 -1.95847e-07)
(2.6699e-07 0 -1.89084e-07)
(3.21045e-07 0 -1.81382e-07)
(3.72482e-07 0 -1.73043e-07)
(4.21205e-07 0 -1.64421e-07)
(4.6724e-07 0 -1.55741e-07)
(5.10657e-07 0 -1.47164e-07)
(5.51595e-07 0 -1.38795e-07)
(5.90186e-07 0 -1.30736e-07)
(6.26527e-07 0 -1.22856e-07)
(6.60663e-07 0 -1.14819e-07)
(6.92457e-07 0 -1.06608e-07)
(7.21967e-07 0 -9.67782e-08)
(7.49066e-07 0 -8.91169e-08)
(7.74194e-07 0 -8.1855e-08)
(7.96824e-07 0 -7.26169e-08)
(8.16428e-07 0 -6.12987e-08)
(8.33157e-07 0 -5.14462e-08)
(8.47408e-07 0 -4.3535e-08)
(8.58649e-07 0 -3.23089e-08)
(8.66327e-07 0 -2.11123e-08)
(8.70932e-07 0 -1.16536e-08)
(8.72583e-07 0 -1.0457e-09)
(8.71049e-07 0 8.91517e-09)
(8.66621e-07 0 1.81406e-08)
(8.5944e-07 0 2.72283e-08)
(8.49753e-07 0 3.5312e-08)
(8.37807e-07 0 4.26148e-08)
(8.23766e-07 0 4.91849e-08)
(8.07954e-07 0 5.47994e-08)
(7.9074e-07 0 5.93889e-08)
(7.72294e-07 0 6.34802e-08)
(7.52818e-07 0 6.67144e-08)
(7.32579e-07 0 6.92495e-08)
(7.11776e-07 0 7.12198e-08)
(6.90616e-07 0 7.24546e-08)
(6.69223e-07 0 7.32922e-08)
(6.47686e-07 0 7.38834e-08)
(6.26181e-07 0 7.39006e-08)
(6.04746e-07 0 7.37801e-08)
(5.83399e-07 0 7.34717e-08)
(5.62188e-07 0 7.29627e-08)
(5.41259e-07 0 7.23404e-08)
(5.20528e-07 0 7.20713e-08)
(4.99927e-07 0 7.10285e-08)
(4.79518e-07 0 7.00827e-08)
(4.59426e-07 0 6.92334e-08)
(4.3963e-07 0 6.81505e-08)
(4.20071e-07 0 6.74001e-08)
(4.00774e-07 0 6.64405e-08)
(3.81764e-07 0 6.52348e-08)
(3.63059e-07 0 6.42234e-08)
(3.44726e-07 0 6.28736e-08)
(3.26718e-07 0 6.16744e-08)
(3.09083e-07 0 6.03349e-08)
(2.91803e-07 0 5.91888e-08)
(2.74954e-07 0 5.77183e-08)
(2.58489e-07 0 5.62371e-08)
(2.42439e-07 0 5.47583e-08)
(2.26822e-07 0 5.32977e-08)
(2.11645e-07 0 5.18122e-08)
(1.96896e-07 0 5.03313e-08)
(1.82551e-07 0 4.88769e-08)
(1.686e-07 0 4.74501e-08)
(1.55066e-07 0 4.60275e-08)
(1.41951e-07 0 4.45806e-08)
(1.29232e-07 0 4.31009e-08)
(1.16853e-07 0 4.16755e-08)
(1.04816e-07 0 4.01933e-08)
(9.30393e-08 0 3.86821e-08)
(8.13545e-08 0 3.71338e-08)
(6.93865e-08 0 3.5616e-08)
(5.7995e-08 0 3.43736e-08)
(4.16196e-08 0 3.60763e-08)
(2.14287e-08 0 7.78678e-08)
(8.40524e-11 0 8.62913e-08)
(7.35662e-16 0 -1.5157e-15)
(2.47548e-16 0 -8.91287e-18)
(4.87861e-16 0 -2.44018e-18)
(4.82246e-16 0 3.94979e-18)
(4.74564e-16 0 1.03087e-17)
(4.67812e-16 0 1.65126e-17)
(4.61567e-16 0 2.24476e-17)
(4.55291e-16 0 2.80311e-17)
(4.48559e-16 0 3.31906e-17)
(4.41156e-16 0 3.78745e-17)
(4.32915e-16 0 4.20725e-17)
(4.23806e-16 0 4.57845e-17)
(4.13859e-16 0 4.89794e-17)
(4.03033e-16 0 5.16678e-17)
(3.91391e-16 0 5.39425e-17)
(3.79004e-16 0 5.57313e-17)
(3.65955e-16 0 5.70858e-17)
(3.52296e-16 0 5.81094e-17)
(3.38141e-16 0 5.87505e-17)
(3.23541e-16 0 5.90607e-17)
(3.08569e-16 0 5.91124e-17)
(2.93308e-16 0 5.88642e-17)
(2.77819e-16 0 5.84196e-17)
(2.62185e-16 0 5.77682e-17)
(2.46458e-16 0 5.69824e-17)
(2.30721e-16 0 5.60518e-17)
(2.14974e-16 0 5.50282e-17)
(1.99278e-16 0 5.39218e-17)
(1.83644e-16 0 5.27741e-17)
(1.68083e-16 0 5.15851e-17)
(1.52667e-16 0 5.04063e-17)
(1.37384e-16 0 4.92586e-17)
(1.22247e-16 0 4.81316e-17)
(1.07285e-16 0 4.71183e-17)
(9.24788e-17 0 4.61567e-17)
(7.78377e-17 0 4.52571e-17)
(6.33103e-17 0 4.45127e-17)
(4.88554e-17 0 4.38613e-17)
(3.45245e-17 0 4.33649e-17)
(2.02556e-17 0 4.30341e-17)
(6.55541e-18 0 4.28686e-17)
(3.14659e-08 0 -2.69231e-07)
(9.6252e-08 0 -2.66267e-07)
(1.56807e-07 0 -2.61128e-07)
(2.17535e-07 0 -2.53619e-07)
(2.75415e-07 0 -2.44335e-07)
(3.30314e-07 0 -2.33888e-07)
(3.82228e-07 0 -2.2272e-07)
(4.31122e-07 0 -2.11291e-07)
(4.77102e-07 0 -1.99901e-07)
(5.2035e-07 0 -1.88762e-07)
(5.61065e-07 0 -1.7802e-07)
(5.994e-07 0 -1.67857e-07)
(6.35668e-07 0 -1.57599e-07)
(6.69674e-07 0 -1.47784e-07)
(7.0143e-07 0 -1.37027e-07)
(7.31356e-07 0 -1.23812e-07)
(7.58723e-07 0 -1.15922e-07)
(7.84441e-07 0 -1.06219e-07)
(8.07393e-07 0 -9.37648e-08)
(8.27546e-07 0 -7.76508e-08)
(8.44445e-07 0 -6.92164e-08)
(8.59416e-07 0 -5.56696e-08)
(8.70642e-07 0 -4.14744e-08)
(8.7831e-07 0 -2.71842e-08)
(8.8286e-07 0 -1.47263e-08)
(8.84204e-07 0 -6.40684e-10)
(8.82149e-07 0 1.21921e-08)
(8.77105e-07 0 2.44857e-08)
(8.69147e-07 0 3.61414e-08)
(8.58616e-07 0 4.66758e-08)
(8.45739e-07 0 5.61952e-08)
(8.30712e-07 0 6.47529e-08)
(8.13926e-07 0 7.1839e-08)
(7.95752e-07 0 7.77023e-08)
(7.76379e-07 0 8.29556e-08)
(7.56055e-07 0 8.69596e-08)
(7.35048e-07 0 9.01489e-08)
(7.13567e-07 0 9.24997e-08)
(6.91833e-07 0 9.39634e-08)
(6.69947e-07 0 9.49793e-08)
(6.47995e-07 0 9.55199e-08)
(6.2615e-07 0 9.545e-08)
(6.04446e-07 0 9.52053e-08)
(5.82892e-07 0 9.47787e-08)
(5.61534e-07 0 9.405e-08)
(5.40501e-07 0 9.29704e-08)
(5.19714e-07 0 9.27787e-08)
(4.99098e-07 0 9.15813e-08)
(4.7858e-07 0 9.01817e-08)
(4.58367e-07 0 8.90966e-08)
(4.38532e-07 0 8.77322e-08)
(4.18927e-07 0 8.67336e-08)
(3.99582e-07 0 8.55254e-08)
(3.80539e-07 0 8.39608e-08)
(3.61761e-07 0 8.26624e-08)
(3.43353e-07 0 8.09549e-08)
(3.25268e-07 0 7.94193e-08)
(3.0758e-07 0 7.76981e-08)
(2.90242e-07 0 7.61533e-08)
(2.7335e-07 0 7.42712e-08)
(2.56856e-07 0 7.23747e-08)
(2.40791e-07 0 7.0453e-08)
(2.25158e-07 0 6.85832e-08)
(2.09956e-07 0 6.66852e-08)
(1.95198e-07 0 6.47641e-08)
(1.80859e-07 0 6.29455e-08)
(1.66932e-07 0 6.10807e-08)
(1.53413e-07 0 5.92367e-08)
(1.40317e-07 0 5.73877e-08)
(1.27588e-07 0 5.55607e-08)
(1.15212e-07 0 5.37716e-08)
(1.03201e-07 0 5.19584e-08)
(9.1517e-08 0 5.01938e-08)
(8.01546e-08 0 4.85643e-08)
(6.89196e-08 0 4.73859e-08)
(5.88417e-08 0 4.69159e-08)
(4.51112e-08 0 4.98137e-08)
(2.20615e-08 0 1.00108e-07)
(8.12242e-11 0 1.02883e-07)
(7.40239e-16 0 -1.95001e-15)
(2.5134e-16 0 -1.14668e-17)
(4.95295e-16 0 -2.94683e-18)
(4.89588e-16 0 5.50075e-18)
(4.81771e-16 0 1.38346e-17)
(4.74812e-16 0 2.19616e-17)
(4.68184e-16 0 2.96854e-17)
(4.61432e-16 0 3.69336e-17)
(4.54184e-16 0 4.35821e-17)
(4.46192e-16 0 4.96308e-17)
(4.37413e-16 0 5.49972e-17)
(4.27766e-16 0 5.97431e-17)
(4.1722e-16 0 6.3817e-17)
(4.05846e-16 0 6.72601e-17)
(3.93676e-16 0 7.00932e-17)
(3.80782e-16 0 7.23163e-17)
(3.67268e-16 0 7.40223e-17)
(3.53196e-16 0 7.52011e-17)
(3.38648e-16 0 7.59662e-17)
(3.23696e-16 0 7.62557e-17)
(3.08414e-16 0 7.6235e-17)
(2.92884e-16 0 7.58628e-17)
(2.77168e-16 0 7.52321e-17)
(2.61348e-16 0 7.43325e-17)
(2.45466e-16 0 7.32675e-17)
(2.29574e-16 0 7.20268e-17)
(2.13733e-16 0 7.06309e-17)
(1.97955e-16 0 6.91523e-17)
(1.8229e-16 0 6.76427e-17)
(1.66749e-16 0 6.60711e-17)
(1.51343e-16 0 6.45511e-17)
(1.36092e-16 0 6.30518e-17)
(1.21037e-16 0 6.15939e-17)
(1.06148e-16 0 6.02498e-17)
(9.14138e-17 0 5.89883e-17)
(7.68864e-17 0 5.78716e-17)
(6.25038e-17 0 5.68894e-17)
(4.8235e-17 0 5.60725e-17)
(3.40592e-17 0 5.54728e-17)
(1.99661e-17 0 5.50489e-17)
(6.47269e-18 0 5.48731e-17)
(3.29768e-08 0 -3.34337e-07)
(1.01048e-07 0 -3.30396e-07)
(1.64156e-07 0 -3.2349e-07)
(2.27143e-07 0 -3.1348e-07)
(2.86681e-07 0 -3.01146e-07)
(3.42635e-07 0 -2.87403e-07)
(3.95059e-07 0 -2.72946e-07)
(4.44019e-07 0 -2.58294e-07)
(4.89742e-07 0 -2.43975e-07)
(5.32609e-07 0 -2.30184e-07)
(5.72888e-07 0 -2.1706e-07)
(6.10846e-07 0 -2.04711e-07)
(6.46987e-07 0 -1.92168e-07)
(6.80611e-07 0 -1.80998e-07)
(7.12345e-07 0 -1.67375e-07)
(7.42708e-07 0 -1.52149e-07)
(7.7086e-07 0 -1.43025e-07)
(7.97302e-07 0 -1.30583e-07)
(8.20465e-07 0 -1.15197e-07)
(8.41415e-07 0 -9.58394e-08)
(8.59059e-07 0 -8.61185e-08)
(8.74602e-07 0 -6.8304e-08)
(8.85845e-07 0 -5.072e-08)
(8.93617e-07 0 -3.34075e-08)
(8.9813e-07 0 -1.73285e-08)
(8.99033e-07 0 2.27583e-10)
(8.96326e-07 0 1.61881e-08)
(8.90464e-07 0 3.15944e-08)
(8.81497e-07 0 4.60366e-08)
(8.69824e-07 0 5.90005e-08)
(8.55713e-07 0 7.09829e-08)
(8.39427e-07 0 8.14134e-08)
(8.21379e-07 0 9.00188e-08)
(8.01968e-07 0 9.71053e-08)
(7.81402e-07 0 1.03453e-07)
(7.59992e-07 0 1.0813e-07)
(7.3799e-07 0 1.11931e-07)
(7.1564e-07 0 1.14447e-07)
(6.9317e-07 0 1.16072e-07)
(6.70675e-07 0 1.17165e-07)
(6.48221e-07 0 1.17576e-07)
(6.25969e-07 0 1.17335e-07)
(6.03977e-07 0 1.16869e-07)
(5.82204e-07 0 1.16269e-07)
(5.60696e-07 0 1.15225e-07)
(5.39484e-07 0 1.13882e-07)
(5.18625e-07 0 1.13194e-07)
(4.97983e-07 0 1.12388e-07)
(4.77422e-07 0 1.10409e-07)
(4.57048e-07 0 1.09023e-07)
(4.37147e-07 0 1.07401e-07)
(4.17484e-07 0 1.06108e-07)
(3.98071e-07 0 1.04665e-07)
(3.78971e-07 0 1.02781e-07)
(3.60085e-07 0 1.01218e-07)
(3.416e-07 0 9.90734e-08)
(3.23439e-07 0 9.72118e-08)
(3.05696e-07 0 9.51126e-08)
(2.88275e-07 0 9.31945e-08)
(2.71324e-07 0 9.08416e-08)
(2.54767e-07 0 8.85536e-08)
(2.38688e-07 0 8.61204e-08)
(2.23043e-07 0 8.3845e-08)
(2.07873e-07 0 8.14804e-08)
(1.93128e-07 0 7.91163e-08)
(1.78791e-07 0 7.68862e-08)
(1.64881e-07 0 7.46265e-08)
(1.51395e-07 0 7.23483e-08)
(1.38306e-07 0 7.01171e-08)
(1.25585e-07 0 6.79337e-08)
(1.13245e-07 0 6.57583e-08)
(1.01288e-07 0 6.35967e-08)
(8.97587e-08 0 6.14499e-08)
(7.87747e-08 0 5.94297e-08)
(6.80534e-08 0 5.80291e-08)
(5.94776e-08 0 5.64768e-08)
(4.88268e-08 0 5.96807e-08)
(2.31406e-08 0 1.25693e-07)
(7.85219e-11 0 1.17643e-07)
(7.45479e-16 0 -2.37146e-15)
(2.56197e-16 0 -1.39897e-17)
(5.04828e-16 0 -3.31906e-18)
(4.99028e-16 0 7.27919e-18)
(4.91004e-16 0 1.7712e-17)
(4.83673e-16 0 2.7814e-17)
(4.76549e-16 0 3.73886e-17)
(4.69177e-16 0 4.63325e-17)
(4.61267e-16 0 5.45112e-17)
(4.52571e-16 0 6.19455e-17)
(4.43017e-16 0 6.85216e-17)
(4.32616e-16 0 7.42705e-17)
(4.21376e-16 0 7.91819e-17)
(4.0931e-16 0 8.33178e-17)
(3.96447e-16 0 8.66472e-17)
(3.82933e-16 0 8.92838e-17)
(3.6884e-16 0 9.1269e-17)
(3.5423e-16 0 9.26236e-17)
(3.39196e-16 0 9.34301e-17)
(3.2381e-16 0 9.37092e-17)
(3.08156e-16 0 9.35438e-17)
(2.92295e-16 0 9.30165e-17)
(2.76299e-16 0 9.21169e-17)
(2.60231e-16 0 9.09382e-17)
(2.44153e-16 0 8.95423e-17)
(2.28095e-16 0 8.79707e-17)
(2.1211e-16 0 8.62129e-17)
(1.9628e-16 0 8.43621e-17)
(1.80563e-16 0 8.24286e-17)
(1.65002e-16 0 8.0495e-17)
(1.49647e-16 0 7.85615e-17)
(1.34448e-16 0 7.67003e-17)
(1.19455e-16 0 7.49219e-17)
(1.04669e-16 0 7.32158e-17)
(9.0111e-17 0 7.16752e-17)
(7.57284e-17 0 7.03104e-17)
(6.15009e-17 0 6.91109e-17)
(4.74492e-17 0 6.81287e-17)
(3.35008e-17 0 6.74152e-17)
(1.96455e-17 0 6.68982e-17)
(6.36929e-18 0 6.67018e-17)
(3.50143e-08 0 -4.03154e-07)
(1.07488e-07 0 -3.97912e-07)
(1.73956e-07 0 -3.88738e-07)
(2.39891e-07 0 -3.75482e-07)
(3.01456e-07 0 -3.5937e-07)
(3.58551e-07 0 -3.41637e-07)
(4.11341e-07 0 -3.23304e-07)
(4.60151e-07 0 -3.05028e-07)
(5.05383e-07 0 -2.87489e-07)
(5.47487e-07 0 -2.71007e-07)
(5.86844e-07 0 -2.55734e-07)
(6.24546e-07 0 -2.40556e-07)
(6.59943e-07 0 -2.27446e-07)
(6.93185e-07 0 -2.13566e-07)
(7.25419e-07 0 -1.96079e-07)
(7.55859e-07 0 -1.83154e-07)
(7.8538e-07 0 -1.70962e-07)
(8.12327e-07 0 -1.55878e-07)
(8.36379e-07 0 -1.35941e-07)
(8.58089e-07 0 -1.16296e-07)
(8.7706e-07 0 -1.03027e-07)
(8.93145e-07 0 -8.14326e-08)
(9.04535e-07 0 -5.99405e-08)
(9.12446e-07 0 -4.0009e-08)
(9.16884e-07 0 -1.96105e-08)
(9.17213e-07 0 1.74215e-09)
(9.13754e-07 0 2.09061e-08)
(9.06805e-07 0 3.97769e-08)
(8.96575e-07 0 5.7286e-08)
(8.8345e-07 0 7.27565e-08)
(8.67762e-07 0 8.71074e-08)
(8.49875e-07 0 9.95484e-08)
(8.30266e-07 0 1.0955e-07)
(8.09309e-07 0 1.17942e-07)
(7.87247e-07 0 1.25218e-07)
(7.64472e-07 0 1.30496e-07)
(7.41267e-07 0 1.34682e-07)
(7.17878e-07 0 1.37325e-07)
(6.94501e-07 0 1.38917e-07)
(6.71259e-07 0 1.39967e-07)
(6.48258e-07 0 1.40076e-07)
(6.25576e-07 0 1.39596e-07)
(6.03244e-07 0 1.38786e-07)
(5.81194e-07 0 1.38017e-07)
(5.59556e-07 0 1.36423e-07)
(5.38153e-07 0 1.35207e-07)
(5.17259e-07 0 1.33385e-07)
(4.96554e-07 0 1.33244e-07)
(4.76072e-07 0 1.30818e-07)
(4.5558e-07 0 1.2894e-07)
(4.35535e-07 0 1.27179e-07)
(4.1581e-07 0 1.25509e-07)
(3.96302e-07 0 1.23906e-07)
(3.7712e-07 0 1.21676e-07)
(3.58083e-07 0 1.19862e-07)
(3.39483e-07 0 1.17319e-07)
(3.2121e-07 0 1.15081e-07)
(3.03384e-07 0 1.12604e-07)
(2.85889e-07 0 1.10283e-07)
(2.68871e-07 0 1.07505e-07)
(2.52248e-07 0 1.04734e-07)
(2.36129e-07 0 1.01871e-07)
(2.20474e-07 0 9.90958e-08)
(2.05283e-07 0 9.63072e-08)
(1.90588e-07 0 9.34521e-08)
(1.76257e-07 0 9.0911e-08)
(1.62419e-07 0 8.81206e-08)
(1.48971e-07 0 8.54302e-08)
(1.35915e-07 0 8.28525e-08)
(1.23219e-07 0 8.03086e-08)
(1.10883e-07 0 7.77676e-08)
(9.89312e-08 0 7.52358e-08)
(8.74513e-08 0 7.26233e-08)
(7.67477e-08 0 6.99177e-08)
(6.64478e-08 0 6.75453e-08)
(5.92038e-08 0 6.33047e-08)
(4.09348e-08 0 7.969e-08)
(1.89163e-08 0 1.63559e-07)
(7.54682e-11 0 1.25785e-07)
(7.57586e-16 0 -2.77642e-15)
(2.6221e-16 0 -1.65229e-17)
(5.16585e-16 0 -3.47416e-18)
(5.10619e-16 0 9.37816e-18)
(5.02295e-16 0 2.20237e-17)
(4.94489e-16 0 3.41832e-17)
(4.86713e-16 0 4.57121e-17)
(4.78555e-16 0 5.64241e-17)
(4.69797e-16 0 6.61951e-17)
(4.60212e-16 0 7.49529e-17)
(4.49738e-16 0 8.27387e-17)
(4.38426e-16 0 8.94803e-17)
(4.26267e-16 0 9.52085e-17)
(4.13311e-16 0 9.99544e-17)
(3.99663e-16 0 1.0379e-16)
(3.85394e-16 0 1.06768e-16)
(3.70598e-16 0 1.0896e-16)
(3.55367e-16 0 1.10429e-16)
(3.39733e-16 0 1.11204e-16)
(3.2381e-16 0 1.11411e-16)
(3.07711e-16 0 1.1107e-16)
(2.91457e-16 0 1.10284e-16)
(2.7512e-16 0 1.09136e-16)
(2.58783e-16 0 1.07627e-16)
(2.42488e-16 0 1.05889e-16)
(2.26255e-16 0 1.03894e-16)
(2.10125e-16 0 1.01774e-16)
(1.9417e-16 0 9.95202e-17)
(1.78433e-16 0 9.71834e-17)
(1.62882e-16 0 9.48466e-17)
(1.47548e-16 0 9.25098e-17)
(1.32442e-16 0 9.02351e-17)
(1.17553e-16 0 8.81154e-17)
(1.02922e-16 0 8.60888e-17)
(8.85083e-17 0 8.4238e-17)
(7.43118e-17 0 8.2594e-17)
(6.03222e-17 0 8.11981e-17)
(4.65186e-17 0 8.00608e-17)
(3.28287e-17 0 7.91922e-17)
(1.9263e-17 0 7.86235e-17)
(6.26589e-18 0 7.83754e-17)
(3.7728e-08 0 -4.76924e-07)
(1.16075e-07 0 -4.69915e-07)
(1.86912e-07 0 -4.5766e-07)
(2.56525e-07 0 -4.40146e-07)
(3.205e-07 0 -4.19179e-07)
(3.7877e-07 0 -3.96485e-07)
(4.31709e-07 0 -3.73437e-07)
(4.79929e-07 0 -3.5108e-07)
(5.24111e-07 0 -3.30059e-07)
(5.64673e-07 0 -3.11067e-07)
(6.03197e-07 0 -2.92789e-07)
(6.39975e-07 0 -2.7629e-07)
(6.74323e-07 0 -2.61859e-07)
(7.07165e-07 0 -2.45569e-07)
(7.40234e-07 0 -2.25773e-07)
(7.71187e-07 0 -2.14947e-07)
(8.01857e-07 0 -1.99558e-07)
(8.29105e-07 0 -1.82177e-07)
(8.55638e-07 0 -1.54819e-07)
(8.7744e-07 0 -1.43571e-07)
(8.9893e-07 0 -1.18347e-07)
(9.14773e-07 0 -9.54358e-08)
(9.27051e-07 0 -6.9484e-08)
(9.3526e-07 0 -4.66508e-08)
(9.39458e-07 0 -2.11886e-08)
(9.39064e-07 0 3.74992e-09)
(9.34733e-07 0 2.67796e-08)
(9.26431e-07 0 4.93214e-08)
(9.1459e-07 0 6.99464e-08)
(8.99651e-07 0 8.82962e-08)
(8.81965e-07 0 1.05026e-07)
(8.62042e-07 0 1.19462e-07)
(8.4052e-07 0 1.30869e-07)
(8.17654e-07 0 1.40505e-07)
(7.93783e-07 0 1.48527e-07)
(7.69358e-07 0 1.54304e-07)
(7.44693e-07 0 1.5868e-07)
(7.20102e-07 0 1.61238e-07)
(6.95708e-07 0 1.62662e-07)
(6.71604e-07 0 1.63459e-07)
(6.47979e-07 0 1.63095e-07)
(6.24833e-07 0 1.62279e-07)
(6.02137e-07 0 1.60989e-07)
(5.7982e-07 0 1.59938e-07)
(5.58086e-07 0 1.57776e-07)
(5.36582e-07 0 1.56626e-07)
(5.15608e-07 0 1.53638e-07)
(4.94745e-07 0 1.54105e-07)
(4.74476e-07 0 1.51434e-07)
(4.53937e-07 0 1.48846e-07)
(4.33592e-07 0 1.47137e-07)
(4.13816e-07 0 1.44963e-07)
(3.9422e-07 0 1.4326e-07)
(3.74952e-07 0 1.40745e-07)
(3.55759e-07 0 1.38641e-07)
(3.37037e-07 0 1.35716e-07)
(3.18603e-07 0 1.3304e-07)
(3.00631e-07 0 1.30219e-07)
(2.83049e-07 0 1.27445e-07)
(2.65957e-07 0 1.24318e-07)
(2.49305e-07 0 1.20919e-07)
(2.33113e-07 0 1.17597e-07)
(2.17462e-07 0 1.14375e-07)
(2.02326e-07 0 1.11056e-07)
(1.87598e-07 0 1.07856e-07)
(1.73318e-07 0 1.04781e-07)
(1.59543e-07 0 1.01557e-07)
(1.46158e-07 0 9.84974e-08)
(1.33156e-07 0 9.55647e-08)
(1.20481e-07 0 9.26865e-08)
(1.08125e-07 0 8.98038e-08)
(9.60934e-08 0 8.69123e-08)
(8.44409e-08 0 8.38952e-08)
(7.33928e-08 0 8.05606e-08)
(6.38406e-08 0 7.64667e-08)
(5.54736e-08 0 7.01911e-08)
(3.52837e-08 0 1.0222e-07)
(1.39023e-08 0 1.80248e-07)
(7.14915e-11 0 1.29886e-07)
(7.5718e-16 0 -3.13069e-15)
(2.69478e-16 0 -1.89011e-17)
(5.30729e-16 0 -3.37076e-18)
(5.24515e-16 0 1.19321e-17)
(5.15809e-16 0 2.69351e-17)
(5.07372e-16 0 4.12763e-17)
(4.98769e-16 0 5.48214e-17)
(4.8965e-16 0 6.73532e-17)
(4.79806e-16 0 7.87579e-17)
(4.69115e-16 0 8.88909e-17)
(4.57545e-16 0 9.78245e-17)
(4.45106e-16 0 1.05517e-16)
(4.31861e-16 0 1.12011e-16)
(4.17881e-16 0 1.17336e-16)
(4.03261e-16 0 1.21637e-16)
(3.88103e-16 0 1.24863e-16)
(3.72479e-16 0 1.272e-16)
(3.56463e-16 0 1.28668e-16)
(3.40157e-16 0 1.29371e-16)
(3.23665e-16 0 1.29423e-16)
(3.07039e-16 0 1.28864e-16)
(2.90361e-16 0 1.27789e-16)
(2.73662e-16 0 1.263e-16)
(2.56974e-16 0 1.24439e-16)
(2.4041e-16 0 1.22278e-16)
(2.24001e-16 0 1.19869e-16)
(2.07746e-16 0 1.17315e-16)
(1.91699e-16 0 1.14627e-16)
(1.759e-16 0 1.11887e-16)
(1.60339e-16 0 1.09105e-16)
(1.45046e-16 0 1.06365e-16)
(1.30043e-16 0 1.03697e-16)
(1.15299e-16 0 1.01185e-16)
(1.00813e-16 0 9.88378e-17)
(8.66162e-17 0 9.66871e-17)
(7.26885e-17 0 9.47535e-17)
(5.8978e-17 0 9.31612e-17)
(4.54432e-17 0 9.18584e-17)
(3.20739e-17 0 9.08555e-17)
(1.8839e-17 0 9.02247e-17)
(6.12114e-18 0 8.99352e-17)
(4.13543e-08 0 -5.57347e-07)
(1.27535e-07 0 -5.4793e-07)
(2.04146e-07 0 -5.31308e-07)
(2.78296e-07 0 -5.0806e-07)
(3.45058e-07 0 -4.80717e-07)
(4.04296e-07 0 -4.51731e-07)
(4.56924e-07 0 -4.22898e-07)
(5.03776e-07 0 -3.95823e-07)
(5.45795e-07 0 -3.71293e-07)
(5.84535e-07 0 -3.48956e-07)
(6.21728e-07 0 -3.28242e-07)
(6.56611e-07 0 -3.11506e-07)
(6.89088e-07 0 -2.96669e-07)
(7.23266e-07 0 -2.74408e-07)
(7.55486e-07 0 -2.60497e-07)
(7.88508e-07 0 -2.45968e-07)
(8.19159e-07 0 -2.30503e-07)
(8.48783e-07 0 -2.07055e-07)
(8.76991e-07 0 -1.80896e-07)
(9.01116e-07 0 -1.65972e-07)
(9.23706e-07 0 -1.3672e-07)
(9.40413e-07 0 -1.09685e-07)
(9.53677e-07 0 -8.06129e-08)
(9.62372e-07 0 -5.24962e-08)
(9.66172e-07 0 -2.24671e-08)
(9.65025e-07 0 6.53788e-09)
(9.59529e-07 0 3.40348e-08)
(9.49565e-07 0 6.06906e-08)
(9.35733e-07 0 8.44253e-08)
(9.1852e-07 0 1.06006e-07)
(8.98385e-07 0 1.25438e-07)
(8.76029e-07 0 1.41409e-07)
(8.52121e-07 0 1.54297e-07)
(8.2689e-07 0 1.65194e-07)
(8.00849e-07 0 1.7368e-07)
(7.74463e-07 0 1.79976e-07)
(7.48124e-07 0 1.83975e-07)
(7.22139e-07 0 1.86363e-07)
(6.96574e-07 0 1.87488e-07)
(6.71524e-07 0 1.87629e-07)
(6.47229e-07 0 1.86674e-07)
(6.23623e-07 0 1.85279e-07)
(6.00569e-07 0 1.8374e-07)
(5.78062e-07 0 1.81798e-07)
(5.56182e-07 0 1.79313e-07)
(5.34711e-07 0 1.77698e-07)
(5.13559e-07 0 1.75124e-07)
(4.92883e-07 0 1.73365e-07)
(4.72453e-07 0 1.72633e-07)
(4.52149e-07 0 1.69069e-07)
(4.31516e-07 0 1.67093e-07)
(4.11597e-07 0 1.64558e-07)
(3.91882e-07 0 1.62676e-07)
(3.72448e-07 0 1.60071e-07)
(3.53138e-07 0 1.57424e-07)
(3.34177e-07 0 1.54426e-07)
(3.15617e-07 0 1.51107e-07)
(2.97395e-07 0 1.48106e-07)
(2.7982e-07 0 1.445e-07)
(2.62553e-07 0 1.41215e-07)
(2.45844e-07 0 1.37308e-07)
(2.29637e-07 0 1.33289e-07)
(2.13934e-07 0 1.29632e-07)
(1.98815e-07 0 1.25897e-07)
(1.84166e-07 0 1.22143e-07)
(1.69937e-07 0 1.18594e-07)
(1.56277e-07 0 1.1495e-07)
(1.42982e-07 0 1.11503e-07)
(1.30032e-07 0 1.08218e-07)
(1.17404e-07 0 1.05029e-07)
(1.05062e-07 0 1.01862e-07)
(9.29181e-08 0 9.8695e-08)
(8.09354e-08 0 9.54212e-08)
(6.90312e-08 0 9.17889e-08)
(5.76659e-08 0 8.72716e-08)
(4.28715e-08 0 8.02687e-08)
(3.08206e-08 0 1.32926e-07)
(4.84808e-09 0 1.81924e-07)
(6.78761e-11 0 1.34825e-07)
(7.64035e-16 0 -3.43876e-15)
(2.78063e-16 0 -2.12379e-17)
(5.47418e-16 0 -2.96751e-18)
(5.40914e-16 0 1.50237e-17)
(5.3166e-16 0 3.25702e-17)
(5.22385e-16 0 4.92689e-17)