/*--------------------------------*- C++ -*----------------------------------*\
  =========                 |
  \\      /  F ield         | OpenFOAM: The Open Source CFD Toolbox
   \\    /   O peration     | Website:  https://openfoam.org
    \\  /    A nd           | Version:  6
     \\/     M anipulation  |
\*---------------------------------------------------------------------------*/
FoamFile
{
    version     2.0;
    format      ascii;
    class       volScalarField;
    location    "1450";
    object      dmdt;
}
// * * * * * * * * * * * * * * * * * * * * * * * * * * * * * * * * * * * * * //

dimensions      [0 0 0 0 0 0 0];

internalField   nonuniform List<scalar> 
4800
(
-0.218223
-0.213503
-0.208842
-0.204284
-0.199868
-0.195623
-0.191551
-0.187651
-0.183908
-0.180301
-0.176806
-0.173393
-0.17004
-0.166729
-0.163445
-0.16018
-0.156933
-0.153702
-0.150492
-0.147307
-0.144157
-0.14105
-0.137992
-0.134988
-0.132043
-0.129161
-0.126344
-0.123592
-0.120905
-0.118289
-0.115757
-0.113316
-0.110968
-0.108711
-0.106533
-0.104429
-0.102394
-0.100424
-0.0985129
-0.0966557
-0.0948456
-0.0930746
-0.0913352
-0.0896199
-0.0879223
-0.0862356
-0.0845506
-0.0828526
-0.0811295
-0.0793692
-0.0775632
-0.0757088
-0.073799
-0.0718343
-0.0698195
-0.06776
-0.0656648
-0.0635437
-0.0614034
-0.0592487
-0.057084
-0.054906
-0.0527048
-0.0504764
-0.0482173
-0.0459165
-0.0435603
-0.0411415
-0.0386629
-0.0361265
-0.0335334
-0.0308882
-0.0282025
-0.0254913
-0.0227693
-0.0200472
-0.0173311
-0.0146261
-0.0119233
-0.00919961
-0.00642582
-0.00359823
-0.000731359
0.00216509
0.00508444
0.0080219
0.0109737
0.0139368
0.0169086
0.019887
0.0228701
0.0258563
0.0288444
0.0318332
0.0348218
0.0378094
0.0407955
0.0437797
0.0467615
0.0497407
0.0527171
0.0556907
0.0586613
0.0616291
0.064594
0.0675562
0.0705158
0.0734728
0.0764275
0.0793799
0.0823304
0.0852791
0.0882261
0.0911716
0.0941159
0.0970591
0.100001
0.102943
0.105884
0.108825
-0.218219
-0.213499
-0.20885
-0.204312
-0.199919
-0.195685
-0.191614
-0.187708
-0.183957
-0.180338
-0.176826
-0.173398
-0.17003
-0.166707
-0.16342
-0.160158
-0.156915
-0.153691
-0.150488
-0.147312
-0.144171
-0.14107
-0.138016
-0.135015
-0.132073
-0.129194
-0.126382
-0.12364
-0.120966
-0.118366
-0.115851
-0.113431
-0.111105
-0.108863
-0.106698
-0.104605
-0.102582
-0.100624
-0.0987247
-0.0968769
-0.0950744
-0.0933103
-0.0915777
-0.0898698
-0.0881808
-0.0865033
-0.0848291
-0.0831387
-0.0814207
-0.0796621
-0.0778547
-0.0759943
-0.0740708
-0.0720883
-0.0700495
-0.0679624
-0.0658371
-0.0636842
-0.0615135
-0.0593326
-0.0571442
-0.0549464
-0.0527375
-0.0505138
-0.0482647
-0.045975
-0.0436338
-0.0412366
-0.0387792
-0.0362603
-0.0336805
-0.0310461
-0.0283713
-0.0256718
-0.0229584
-0.0202384
-0.0175131
-0.0147794
-0.0120364
-0.00927599
-0.00647556
-0.00363302
-0.000757115
0.00214529
0.00506891
0.00800964
0.0109641
0.0139293
0.016903
0.0198829
0.0228673
0.0258547
0.0288437
0.0318332
0.0348224
0.0378106
0.0407971
0.0437815
0.0467635
0.0497428
0.0527194
0.055693
0.0586636
0.0616313
0.0645962
0.0675583
0.0705177
0.0734746
0.0764292
0.0793815
0.0823318
0.0852803
0.0882272
0.0911726
0.0941167
0.0970597
0.100002
0.102943
0.105884
0.108825
-0.218224
-0.213525
-0.208909
-0.204405
-0.200036
-0.195812
-0.191742
-0.187831
-0.184065
-0.180423
-0.176884
-0.173426
-0.17003
-0.166686
-0.163386
-0.160119
-0.156879
-0.153664
-0.150475
-0.147315
-0.144189
-0.141103
-0.13806
-0.135068
-0.132134
-0.129264
-0.126463
-0.123737
-0.121091
-0.118528
-0.116055
-0.113672
-0.111376
-0.109161
-0.10702
-0.104955
-0.10296
-0.101026
-0.0991485
-0.0973211
-0.0955369
-0.0937905
-0.0920755
-0.0903863
-0.088717
-0.0870601
-0.085407
-0.0837331
-0.0820277
-0.0802737
-0.0784644
-0.0765939
-0.0746481
-0.0726346
-0.0705555
-0.0684218
-0.0662463
-0.0640421
-0.0618211
-0.0595913
-0.0573564
-0.0551187
-0.0528806
-0.0506404
-0.0483854
-0.0460971
-0.0437691
-0.0413947
-0.0389639
-0.0364745
-0.0339282
-0.0313277
-0.0286802
-0.025996
-0.0232831
-0.0205494
-0.0177977
-0.0150239
-0.0122245
-0.00940538
-0.00656327
-0.0036967
-0.000805577
0.00210733
0.00503878
0.00798569
0.0109452
0.0139147
0.016892
0.019875
0.022862
0.0258515
0.0288423
0.0318334
0.0348238
0.0378129
0.0408002
0.0437852
0.0467676
0.0497472
0.0527239
0.0556975
0.0586681
0.0616358
0.0646005
0.0675624
0.0705216
0.0734783
0.0764326
0.0793846
0.0823347
0.0852829
0.0882294
0.0911745
0.0941183
0.0970611
0.100003
0.102944
0.105885
0.108825
-0.218272
-0.21364
-0.209049
-0.204558
-0.200202
-0.195989
-0.191925
-0.188008
-0.184225
-0.180559
-0.176987
-0.173493
-0.170064
-0.16669
-0.163364
-0.160081
-0.156836
-0.153628
-0.150453
-0.147313
-0.144207
-0.14114
-0.138116
-0.135142
-0.132227
-0.129379
-0.126605
-0.12391
-0.121305
-0.118792
-0.116372
-0.114039
-0.111789
-0.109614
-0.107513
-0.105487
-0.103531
-0.101633
-0.0997899
-0.0979937
-0.09624
-0.0945226
-0.0928364
-0.0911767
-0.0895378
-0.0879138
-0.0862924
-0.0846448
-0.082957
-0.0812125
-0.0794022
-0.0775192
-0.0755443
-0.0734885
-0.0713565
-0.0691618
-0.0669204
-0.06465
-0.0623631
-0.0600682
-0.0577721
-0.0554811
-0.0531981
-0.0509172
-0.0486249
-0.0463137
-0.043979
-0.0416077
-0.0391926
-0.0367283
-0.0342096
-0.0316312
-0.0289992
-0.0263219
-0.0236039
-0.0208519
-0.0180675
-0.0152531
-0.0124112
-0.00954938
-0.00667132
-0.00378053
-0.000872194
0.00205373
0.00499553
0.00795099
0.0109177
0.0138934
0.016876
0.0198635
0.0228543
0.0258471
0.0288406
0.0318339
0.0348261
0.0378166
0.040805
0.0437908
0.0467738
0.0497538
0.0527307
0.0557044
0.058675
0.0616425
0.064607
0.0675686
0.0705275
0.0734838
0.0764377
0.0793893
0.0823389
0.0852867
0.0882328
0.0911774
0.0941208
0.0970631
0.100005
0.102945
0.105886
0.108826
-0.218286
-0.213695
-0.209163
-0.204726
-0.200404
-0.196211
-0.192156
-0.188231
-0.184428
-0.180734
-0.177128
-0.173595
-0.170128
-0.166718
-0.163361
-0.160055
-0.1568
-0.153591
-0.150426
-0.147303
-0.14422
-0.141179
-0.138183
-0.13524
-0.132359
-0.129549
-0.126818
-0.124173
-0.121619
-0.119163
-0.116803
-0.114531
-0.112339
-0.110221
-0.108176
-0.106203
-0.104298
-0.102448
-0.10065
-0.0988967
-0.0971848
-0.0955069
-0.0938604
-0.0922396
-0.0906408
-0.089058
-0.0874737
-0.0858608
-0.0841979
-0.0824656
-0.0806586
-0.0787629
-0.076755
-0.0746486
-0.0724524
-0.0701825
-0.0678604
-0.0655091
-0.0631424
-0.0607702
-0.058404
-0.0560511
-0.0537093
-0.0513709
-0.0490267
-0.0466716
-0.0442972
-0.0418953
-0.0394667
-0.0370026
-0.0344908
-0.0319207
-0.0292957
-0.0266178
-0.0238901
-0.0211193
-0.0183103
-0.0154659
-0.0125864
-0.00969082
-0.00678822
-0.00387775
-0.000953023
0.00198685
0.0049407
0.00790662
0.0108825
0.0138661
0.0168555
0.0198489
0.0228448
0.0258418
0.0288388
0.0318349
0.0348295
0.0378219
0.0408117
0.0437986
0.0467823
0.0497627
0.0527399
0.0557137
0.0586842
0.0616514
0.0646156
0.0675769
0.0705353
0.0734911
0.0764444
0.0793955
0.0823446
0.0852918
0.0882373
0.0911813
0.0941241
0.0970658
0.100007
0.102947
0.105886
0.108826
-0.218312
-0.213776
-0.209297
-0.204904
-0.200616
-0.196447
-0.1924
-0.188467
-0.184642
-0.180917
-0.177276
-0.173708
-0.170205
-0.16676
-0.163373
-0.160045
-0.156777
-0.153566
-0.150409
-0.147302
-0.144242
-0.141231
-0.13827
-0.135368
-0.132533
-0.129775
-0.127102
-0.124522
-0.122036
-0.119649
-0.117356
-0.115153
-0.113033
-0.110985
-0.109009
-0.107103
-0.105262
-0.103471
-0.101729
-0.100029
-0.0983663
-0.0967354
-0.0951352
-0.093558
-0.0920026
-0.0904613
-0.0889164
-0.0873424
-0.0857096
-0.0839907
-0.0821931
-0.0802847
-0.0782441
-0.0760844
-0.0738162
-0.0714613
-0.069048
-0.0666041
-0.0641457
-0.0616874
-0.0592436
-0.0568191
-0.0544071
-0.052003
-0.0495949
-0.0471758
-0.0447412
-0.0422902
-0.039818
-0.0373154
-0.0347765
-0.0321949
-0.0295619
-0.0268696
-0.0241234
-0.0213299
-0.0184969
-0.015628
-0.0127283
-0.00982197
-0.0069095
-0.00398543
-0.00104601
0.00190824
0.00487549
0.00785359
0.0108403
0.0138335
0.0168313
0.0198319
0.0228339
0.025836
0.0288373
0.031837
0.0348344
0.037829
0.0408205
0.0438086
0.0467931
0.0497741
0.0527515
0.0557253
0.0586957
0.0616627
0.0646265
0.0675872
0.070545
0.0735002
0.0764529
0.0794033
0.0823516
0.085298
0.0882428
0.0911861
0.0941281
0.0970691
0.100009
0.102949
0.105888
0.108826
-0.218349
-0.213882
-0.209463
-0.205116
-0.200855
-0.1967
-0.192654
-0.188713
-0.184868
-0.181109
-0.177428
-0.17382
-0.17028
-0.166806
-0.163396
-0.160052
-0.156775
-0.153565
-0.150416
-0.147327
-0.144293
-0.141317
-0.1384
-0.13555
-0.132775
-0.130082
-0.127477
-0.124967
-0.122557
-0.120247
-0.118035
-0.115913
-0.113875
-0.111911
-0.110015
-0.108187
-0.10642
-0.104698
-0.10302
-0.101379
-0.0997699
-0.0981894
-0.096637
-0.0951046
-0.0935919
-0.0920913
-0.0905894
-0.0890529
-0.0874467
-0.0857413
-0.0839477
-0.0820256
-0.0799511
-0.077737
-0.0753923
-0.0729464
-0.0704343
-0.0678923
-0.0653411
-0.0627972
-0.060273
-0.0577715
-0.0552817
-0.0528024
-0.0503189
-0.0478275
-0.0453255
-0.0428112
-0.0402738
-0.0377091
-0.0351111
-0.0324814
-0.0298155
-0.0270973
-0.0243242
-0.0214995
-0.0186279
-0.0157298
-0.0128352
-0.00994887
-0.0070394
-0.00410523
-0.00115133
0.0018184
0.0048007
0.00779278
0.0107921
0.0137966
0.0168041
0.0198132
0.0228223
0.0258305
0.0288368
0.0318405
0.0348411
0.0378382
0.0408316
0.0438211
0.0468066
0.0497881
0.0527657
0.0557395
0.0587096
0.0616762
0.0646395
0.0675996
0.0705567
0.0735111
0.076463
0.0794125
0.08236
0.0853055
0.0882494
0.0911918
0.094133
0.097073
0.100012
0.102951
0.105889
0.108827
-0.218384
-0.213983
-0.209619
-0.205313
-0.201083
-0.196944
-0.192899
-0.188947
-0.185077
-0.181284
-0.177567
-0.173924
-0.170353
-0.166854
-0.163429
-0.160079
-0.156803
-0.153599
-0.150462
-0.14739
-0.144385
-0.141448
-0.138581
-0.135792
-0.133083
-0.130463
-0.127937
-0.12551
-0.123186
-0.120965
-0.118843
-0.116814
-0.114868
-0.112996
-0.111191
-0.109448
-0.107762
-0.106116
-0.104505
-0.102924
-0.101371
-0.099841
-0.0983368
-0.0968508
-0.0953818
-0.0939224
-0.0924586
-0.0909492
-0.0893576
-0.0876637
-0.085865
-0.0839219
-0.0818062
-0.0795353
-0.0771109
-0.0745727
-0.0719646
-0.0693276
-0.0666835
-0.0640554
-0.0614512
-0.0588739
-0.0563069
-0.05375
-0.0511871
-0.0486195
-0.0460432
-0.0434537
-0.0408407
-0.0382004
-0.035529
-0.0328307
-0.030103
-0.0273368
-0.024529
-0.0216815
-0.0188
-0.0159005
-0.0130034
-0.0101121
-0.00719187
-0.0042422
-0.00127059
0.00171722
0.00471688
0.00772505
0.0107389
0.0137562
0.016775
0.0197936
0.022811
0.0258259
0.0288378
0.031846
0.0348501
0.03785
0.0408454
0.0438363
0.0468227
0.0498048
0.0527826
0.0557563
0.0587261
0.0616921
0.0646547
0.067614
0.0705703
0.0735237
0.0764746
0.0794232
0.0823696
0.0853141
0.088257
0.0911984
0.0941385
0.0970776
0.100016
0.102953
0.10589
0.108827
-0.218415
-0.214073
-0.209761
-0.205499
-0.201302
-0.197182
-0.19314
-0.189174
-0.185277
-0.18145
-0.177696
-0.174017
-0.170418
-0.166903
-0.163473
-0.160127
-0.156861
-0.153669
-0.150549
-0.147502
-0.144531
-0.141639
-0.138831
-0.136109
-0.133477
-0.130939
-0.128499
-0.126162
-0.12393
-0.121804
-0.11978
-0.117852
-0.116007
-0.114236
-0.112529
-0.110877
-0.109273
-0.107705
-0.10616
-0.104638
-0.103137
-0.101656
-0.100198
-0.0987565
-0.0973267
-0.0958985
-0.0944564
-0.0929592
-0.0913713
-0.0896809
-0.0878672
-0.0858899
-0.0837319
-0.0814067
-0.0789038
-0.0762734
-0.0735704
-0.0708402
-0.0681095
-0.0654031
-0.0627227
-0.060072
-0.0574304
-0.0548043
-0.0521745
-0.0495386
-0.0468876
-0.0442186
-0.0415245
-0.0388014
-0.0360487
-0.0332715
-0.0304691
-0.0276403
-0.024788
-0.0219138
-0.0190259
-0.0161318
-0.0132289
-0.0103185
-0.00737266
-0.00439935
-0.00140487
0.00160477
0.00462478
0.00765148
0.0106819
0.0137137
0.0167451
0.0197744
0.0228007
0.0258231
0.0288411
0.0318541
0.034862
0.0378648
0.0408622
0.0438546
0.0468419
0.0498244
0.0528022
0.0557757
0.058745
0.0617104
0.0646721
0.0676305
0.0705857
0.0735381
0.0764879
0.0794353
0.0823805
0.0853239
0.0882656
0.0912058
0.0941448
0.0970827
0.10002
0.102956
0.105892
0.108828
-0.218445
-0.214161
-0.209901
-0.205684
-0.201518
-0.197412
-0.193369
-0.189388
-0.185466
-0.18161
-0.177824
-0.174118
-0.170499
-0.166973
-0.16354
-0.160198
-0.156943
-0.153767
-0.150672
-0.147658
-0.144731
-0.141893
-0.139148
-0.1365
-0.133949
-0.1315
-0.129154
-0.126916
-0.124787
-0.122765
-0.120846
-0.119027
-0.117289
-0.115623
-0.114017
-0.112457
-0.110935
-0.109441
-0.107958
-0.106489
-0.105035
-0.103598
-0.10218
-0.100773
-0.0993686
-0.0979553
-0.0965175
-0.095018
-0.0934231
-0.0917151
-0.0898669
-0.0878405
-0.085625
-0.0832287
-0.0806507
-0.0779431
-0.0751658
-0.0723607
-0.0695591
-0.0667857
-0.0640413
-0.0613286
-0.0586291
-0.0559458
-0.0532573
-0.0505593
-0.047841
-0.0450961
-0.0423204
-0.0395126
-0.0366738
-0.0338093
-0.0309237
-0.0280235
-0.0251149
-0.0221976
-0.0192783
-0.0163759
-0.0134806
-0.0105599
-0.00758104
-0.00457677
-0.00155379
0.00148198
0.00452567
0.00757353
0.0106226
0.0136706
0.0167158
0.0197568
0.0227929
0.0258232
0.0288475
0.0318656
0.0348774
0.037883
0.0408825
0.0438762
0.0468643
0.0498471
0.0528248
0.0557978
0.0587664
0.061731
0.0646917
0.067649
0.070603
0.0735541
0.0765026
0.0794487
0.0823927
0.0853347
0.0882751
0.091214
0.0941517
0.0970883
0.100024
0.102959
0.105894
0.108828
-0.218472
-0.21424
-0.21003
-0.205851
-0.201713
-0.197619
-0.193576
-0.189583
-0.185646
-0.181771
-0.177966
-0.174241
-0.170607
-0.167072
-0.163637
-0.1603
-0.157052
-0.153893
-0.15083
-0.14786
-0.144987
-0.142213
-0.139541
-0.136972
-0.134509
-0.132154
-0.12991
-0.127778
-0.125757
-0.123845
-0.122037
-0.120332
-0.118708
-0.117148
-0.115645
-0.114176
-0.112731
-0.111303
-0.109877
-0.108453
-0.107038
-0.105634
-0.104242
-0.102852
-0.101458
-0.100045
-0.0985988
-0.0970816
-0.095462
-0.0937166
-0.0918216
-0.0897396
-0.0874557
-0.0849809
-0.0823268
-0.0795399
-0.0766985
-0.0738368
-0.0709843
-0.0681633
-0.0653748
-0.0626185
-0.05988
-0.0571542
-0.054419
-0.0516655
-0.0488852
-0.0460721
-0.0432221
-0.0403344
-0.0374118
-0.0344594
-0.0314882
-0.0285108
-0.0255408
-0.022587
-0.0196601
-0.0167544
-0.0138216
-0.0108442
-0.00781586
-0.00477269
-0.00171556
0.00135073
0.00442156
0.00749326
0.010563
0.0136287
0.0166889
0.0197424
0.0227887
0.0258273
0.0288582
0.0318813
0.034897
0.0379053
0.0409067
0.0439015
0.0468902
0.049873
0.0528504
0.0558227
0.0587905
0.0617539
0.0647135
0.0676694
0.0706221
0.0735718
0.0765188
0.0794634
0.0824059
0.0853465
0.0882854
0.0912229
0.0941592
0.0970944
0.100029
0.102963
0.105896
0.108829
-0.218494
-0.214308
-0.21014
-0.205996
-0.20188
-0.1978
-0.193758
-0.189761
-0.185817
-0.181933
-0.178117
-0.174381
-0.17074
-0.167201
-0.163763
-0.160427
-0.157193
-0.154059
-0.151031
-0.148112
-0.145301
-0.1426
-0.14001
-0.13753
-0.135162
-0.132906
-0.130766
-0.128744
-0.126839
-0.125043
-0.12335
-0.12176
-0.120251
-0.1188
-0.117397
-0.116016
-0.114641
-0.113271
-0.111892
-0.110501
-0.109111
-0.107726
-0.106342
-0.104952
-0.103546
-0.102112
-0.100635
-0.0990773
-0.0974166
-0.0956285
-0.0936775
-0.091526
-0.0891618
-0.086606
-0.0838784
-0.0810167
-0.0781202
-0.0752219
-0.0723449
-0.0694972
-0.0666839
-0.063906
-0.0611474
-0.0583942
-0.0556249
-0.0528279
-0.0499971
-0.0471268
-0.0442127
-0.0412561
-0.0382601
-0.0352296
-0.0321744
-0.0291124
-0.0260668
-0.0230519
-0.0200727
-0.0171127
-0.0141366
-0.0111316
-0.00806705
-0.00498281
-0.00188699
0.00121402
0.00431534
0.00741343
0.0105057
0.0135905
0.0166664
0.019733
0.0227897
0.0258367
0.0288741
0.0319022
0.0349214
0.0379322
0.0409352
0.0439308
0.0469197
0.0499023
0.052879
0.0558505
0.0588171
0.0617792
0.0647373
0.0676917
0.0706428
0.0735909
0.0765363
0.0794793
0.0824202
0.0853592
0.0882966
0.0912325
0.0941673
0.097101
0.100034
0.102966
0.105898
0.10883
-0.218514
-0.214366
-0.210233
-0.206118
-0.202025
-0.197959
-0.193925
-0.189931
-0.185988
-0.182101
-0.178279
-0.174538
-0.170896
-0.167358
-0.163925
-0.160598
-0.157381
-0.154281
-0.151297
-0.148432
-0.145689
-0.143065
-0.140558
-0.13817
-0.135901
-0.133751
-0.131722
-0.129815
-0.128028
-0.12635
-0.124776
-0.123301
-0.121905
-0.120561
-0.11925
-0.117952
-0.116641
-0.115319
-0.11397
-0.112598
-0.111217
-0.10983
-0.108437
-0.107026
-0.10559
-0.104119
-0.102596
-0.100987
-0.0992709
-0.0974215
-0.0953972
-0.0931668
-0.0907195
-0.0880774
-0.0852738
-0.0823556
-0.0794291
-0.0765145
-0.0736275
-0.0707745
-0.0679605
-0.0651801
-0.0624185
-0.0596561
-0.0568692
-0.0540451
-0.051178
-0.0482599
-0.0452937
-0.0422844
-0.0392305
-0.0361342
-0.0330026
-0.0298584
-0.0267295
-0.0236382
-0.0205948
-0.0175713
-0.0145302
-0.0114623
-0.00833982
-0.00520504
-0.0020644
0.00107579
0.00421085
0.00733761
0.010454
0.0135586
0.0166509
0.0197306
0.0227979
0.025853
0.0288965
0.0319291
0.0349514
0.0379643
0.0409684
0.0439645
0.0469532
0.0499351
0.0529109
0.0558811
0.0588462
0.0618068
0.0647632
0.0677159
0.0706652
0.0736115
0.0765551
0.0794964
0.0824355
0.0853728
0.0883084
0.0912427
0.0941758
0.097108
0.100039
0.10297
0.1059
0.10883
-0.218531
-0.214417
-0.210313
-0.206225
-0.202154
-0.198105
-0.194085
-0.190101
-0.186164
-0.182283
-0.178467
-0.174731
-0.171094
-0.167564
-0.164146
-0.16084
-0.157647
-0.154582
-0.151648
-0.148842
-0.146169
-0.143625
-0.14121
-0.138919
-0.136751
-0.134705
-0.132785
-0.130991
-0.129321
-0.127761
-0.126304
-0.124933
-0.123639
-0.122396
-0.12117
-0.119943
-0.118687
-0.117403
-0.116077
-0.114707
-0.113318
-0.111913
-0.110494
-0.109044
-0.107562
-0.106039
-0.104458
-0.10279
-0.101016
-0.099099
-0.0969907
-0.0946668
-0.0921271
-0.0894021
-0.0865353
-0.0835819
-0.0806417
-0.0777264
-0.0748424
-0.0719962
-0.0691951
-0.0664333
-0.0636912
-0.0609394
-0.0581544
-0.0553238
-0.0524402
-0.049492
-0.0464809
-0.0434196
-0.0403185
-0.0371683
-0.0339637
-0.0307304
-0.027502
-0.024311
-0.0211743
-0.0180635
-0.0149514
-0.0118154
-0.00862717
-0.0054339
-0.00224237
0.000941301
0.00411298
0.0072702
0.0104116
0.0135367
0.0166453
0.0197379
0.022815
0.0258777
0.0289267
0.0319631
0.034988
0.0380022
0.0410068
0.0440027
0.0469907
0.0499715
0.0529459
0.0559145
0.0588779
0.0618366
0.064791
0.0677417
0.070689
0.0736334
0.076575
0.0795144
0.0824516
0.085387
0.0883209
0.0912534
0.0941848
0.0971153
0.100045
0.102974
0.105903
0.108831
-0.218547
-0.214464
-0.21039
-0.206329
-0.202283
-0.198259
-0.194262
-0.190298
-0.186379
-0.182515
-0.178718
-0.175002
-0.171382
-0.167865
-0.164457
-0.16117
-0.158015
-0.154993
-0.152107
-0.149364
-0.146763
-0.144299
-0.141972
-0.139776
-0.137708
-0.135767
-0.133955
-0.132273
-0.130718
-0.129271
-0.127922
-0.126645
-0.12544
-0.124285
-0.123132
-0.121965
-0.120751
-0.119489
-0.118175
-0.116793
-0.115384
-0.113949
-0.11249
-0.110991
-0.109452
-0.107863
-0.106215
-0.104482
-0.10264
-0.100636
-0.0984275
-0.0960014
-0.0933717
-0.0905832
-0.0876799
-0.0847256
-0.0817977
-0.0788978
-0.0760302
-0.0732093
-0.0704349
-0.0676997
-0.0649834
-0.0622497
-0.0594736
-0.0566414
-0.0537435
-0.0507692
-0.0477296
-0.0446443
-0.0415085
-0.0383017
-0.0350181
-0.0316922
-0.028362
-0.0250646
-0.0218184
-0.0186045
-0.0154055
-0.0121861
-0.00892242
-0.00566214
-0.0024137
0.0008173
0.00402781
0.00721655
0.0103833
0.0135284
0.0166527
0.0197573
0.0228434
0.0259126
0.028966
0.0320053
0.0350317
0.0380465
0.0410508
0.0440458
0.0470325
0.0500117
0.0529842
0.0559507
0.0589119
0.0618684
0.0648206
0.0677691
0.0707142
0.0736564
0.0765959
0.0795332
0.0824684
0.0854019
0.0883339
0.0912645
0.0941941
0.0971228
0.100051
0.102978
0.105905
0.108832
-0.218563
-0.21451
-0.210467
-0.206438
-0.202426
-0.198436
-0.194473
-0.190543
-0.186654
-0.182817
-0.179045
-0.175352
-0.171751
-0.168252
-0.164869
-0.161612
-0.158495
-0.15552
-0.152693
-0.150016
-0.147488
-0.145105
-0.142865
-0.140762
-0.138792
-0.136953
-0.135245
-0.13367
-0.13222
-0.130879
-0.12963
-0.128437
-0.127307
-0.12622
-0.12513
-0.124008
-0.122824
-0.121575
-0.120259
-0.118851
-0.117405
-0.115926
-0.114412
-0.112852
-0.111245
-0.10958
-0.107855
-0.106051
-0.104127
-0.102018
-0.0996971
-0.0971682
-0.0944654
-0.0916417
-0.0887342
-0.0857972
-0.0828792
-0.0799941
-0.0771572
-0.0743819
-0.0716567
-0.068969
-0.0662973
-0.063598
-0.0608442
-0.058022
-0.0551241
-0.0521425
-0.049086
-0.0459674
-0.0427827
-0.0395156
-0.0361527
-0.032739
-0.0293119
-0.0259129
-0.022557
-0.0192281
-0.0159115
-0.0125773
-0.00921803
-0.00588027
-0.00256918
0.00071209
0.0039626
0.00718287
0.0103742
0.0135382
0.0166767
0.0197917
0.0228853
0.0259594
0.0290159
0.0320566
0.0350833
0.0380975
0.0411006
0.0440939
0.0470785
0.0500554
0.0530255
0.0559895
0.0589482
0.0619021
0.0648518
0.0677978
0.0707405
0.0736803
0.0766176
0.0795527
0.0824858
0.0854172
0.0883472
0.091276
0.0942037
0.0971306
0.100057
0.102983
0.105908
0.108833
-0.218579
-0.21456
-0.210551
-0.206558
-0.202584
-0.198634
-0.194714
-0.190831
-0.18699
-0.183201
-0.179476
-0.175826
-0.17226
-0.168793
-0.165442
-0.162225
-0.159146
-0.156214
-0.153439
-0.150823
-0.148361
-0.146053
-0.143895
-0.141882
-0.140009
-0.138268
-0.136658
-0.135186
-0.133836
-0.132589
-0.131424
-0.1303
-0.12923
-0.128193
-0.127153
-0.126066
-0.124902
-0.123652
-0.122306
-0.120858
-0.11936
-0.117822
-0.116242
-0.114611
-0.112926
-0.111181
-0.109375
-0.107496
-0.105474
-0.103249
-0.100811
-0.0981902
-0.0954401
-0.0926075
-0.0897186
-0.0868141
-0.0839284
-0.0810838
-0.0782933
-0.075567
-0.0728976
-0.0702718
-0.0676616
-0.0650073
-0.0622795
-0.059469
-0.0565728
-0.053582
-0.0505022
-0.0473426
-0.0441
-0.0407574
-0.0373084
-0.0338108
-0.0302946
-0.0267991
-0.0233317
-0.0198809
-0.0164336
-0.0129671
-0.00949726
-0.00607448
-0.00269722
0.000635509
0.00392569
0.00717616
0.0103901
0.0135707
0.0167211
0.0198442
0.0229429
0.0260198
0.0290774
0.0321179
0.0351434
0.0381558
0.0411565
0.0441471
0.0471288
0.0501028
0.0530698
0.0560308
0.0589865
0.0619375
0.0648844
0.0678277
0.0707678
0.0737051
0.0766399
0.0795727
0.0825036
0.0854329
0.0883608
0.0912876
0.0942134
0.0971385
0.100063
0.102987
0.10591
0.108834
-0.218598
-0.214617
-0.210648
-0.206697
-0.202771
-0.198873
-0.195006
-0.191178
-0.187395
-0.183665
-0.179998
-0.176405
-0.172893
-0.169478
-0.166176
-0.163005
-0.159971
-0.15709
-0.154367
-0.151807
-0.149406
-0.147165
-0.145082
-0.143152
-0.141371
-0.139725
-0.138206
-0.136826
-0.135561
-0.13439
-0.133289
-0.132222
-0.131197
-0.130192
-0.129181
-0.128111
-0.126947
-0.125673
-0.124278
-0.122781
-0.121226
-0.119626
-0.117974
-0.116262
-0.114494
-0.112666
-0.110781
-0.108823
-0.106693
-0.10435
-0.101816
-0.0991417
-0.0963749
-0.093548
-0.0906839
-0.0878124
-0.0849728
-0.0821845
-0.0794619
-0.0768109
-0.0742198
-0.0716657
-0.0691133
-0.0665002
-0.0637934
-0.0609903
-0.0580905
-0.0550833
-0.0519702
-0.0487553
-0.0454389
-0.0420047
-0.038457
-0.0348641
-0.0312579
-0.0276665
-0.0240896
-0.0205193
-0.0169331
-0.0133222
-0.00973546
-0.00622701
-0.00278425
0.000598554
0.00392619
0.00720397
0.0104372
0.013631
0.0167898
0.0199177
0.0230185
0.0260955
0.0291518
0.03219
0.0352125
0.0382214
0.0412185
0.0442053
0.0471832
0.0501534
0.0531168
0.0560742
0.0590265
0.0619743
0.0649181
0.0678584
0.0707957
0.0737303
0.0766626
0.079593
0.0825216
0.0854487
0.0883745
0.0912993
0.0942232
0.0971464
0.100069
0.102991
0.105913
0.108835
-0.218621
-0.214685
-0.210761
-0.206859
-0.202984
-0.199143
-0.195342
-0.191585
-0.187875
-0.184218
-0.180622
-0.177094
-0.173648
-0.170297
-0.167059
-0.163946
-0.160967
-0.158141
-0.155474
-0.152971
-0.15063
-0.148455
-0.146443
-0.144593
-0.142895
-0.141332
-0.139886
-0.13858
-0.137381
-0.136264
-0.135206
-0.134181
-0.133182
-0.132193
-0.131183
-0.130105
-0.12892
-0.127604
-0.126155
-0.124602
-0.122994
-0.121338
-0.119613
-0.117814
-0.115958
-0.114049
-0.112087
-0.110047
-0.107812
-0.105375
-0.102785
-0.100087
-0.0973166
-0.0945016
-0.0916709
-0.0888505
-0.0860843
-0.0833766
-0.0807388
-0.0781732
-0.0756654
-0.0731797
-0.0706744
-0.0680915
-0.0653939
-0.0625881
-0.0596736
-0.0566375
-0.0534772
-0.0501918
-0.0467864
-0.0432489
-0.0395992
-0.0359005
-0.032184
-0.0284664
-0.0247498
-0.0210427
-0.0173283
-0.0135942
-0.00989799
-0.00631627
-0.0028154
0.00061291
0.00397376
0.00727421
0.0105219
0.0137239
0.0168864
0.0200149
0.023114
0.0261878
0.0292399
0.0322733
0.0352907
0.0382945
0.0412864
0.0442683
0.0472414
0.050207
0.0531661
0.0561195
0.0590679
0.0620121
0.0649525
0.0678897
0.070824
0.0737558
0.0766855
0.0796133
0.0825395
0.0854644
0.0883882
0.0913109
0.0942329
0.0971542
0.100075
0.102995
0.105916
0.108836
-0.218646
-0.214761
-0.21089
-0.207044
-0.20323
-0.199456
-0.195727
-0.192049
-0.188422
-0.184851
-0.18134
-0.177895
-0.174527
-0.171249
-0.168081
-0.165035
-0.162119
-0.159355
-0.156749
-0.154305
-0.152026
-0.149916
-0.147971
-0.146191
-0.144565
-0.14307
-0.141683
-0.140428
-0.139272
-0.138185
-0.137153
-0.13615
-0.135159
-0.134167
-0.133136
-0.13203
-0.130807
-0.12944
-0.127931
-0.126319
-0.124672
-0.122963
-0.12116
-0.11927
-0.117325
-0.115342
-0.113318
-0.111212
-0.108903
-0.106407
-0.10378
-0.101065
-0.0983017
-0.0955235
-0.0927536
-0.0900067
-0.0873272
-0.0847113
-0.0821677
-0.0796961
-0.0772651
-0.0748303
-0.0723572
-0.069788
-0.0670858
-0.0642638
-0.061318
-0.0582308
-0.054999
-0.0516229
-0.0481145
-0.0444654
-0.0407035
-0.0368814
-0.033039
-0.0291848
-0.0253208
-0.0214666
-0.0176148
-0.0137543
-0.00992991
-0.00631667
-0.00277513
0.00069078
0.0040785
0.00739507
0.0106505
0.0138543
0.0170146
0.0201383
0.023231
0.0262976
0.0293421
0.0323679
0.035378
0.0383746
0.0413599
0.0443355
0.0473029
0.0502631
0.0532172
0.056166
0.0591103
0.0620505
0.0649873
0.0679211
0.0708523
0.0737812
0.0767082
0.0796335
0.0825573
0.08548
0.0884016
0.0913223
0.0942424
0.0971618
0.100081
0.103
0.105918
0.108836
-0.218673
-0.214844
-0.211032
-0.207249
-0.203505
-0.199809
-0.196163
-0.192571
-0.189035
-0.185556
-0.182139
-0.178785
-0.175508
-0.172317
-0.169229
-0.166258
-0.163416
-0.160721
-0.158179
-0.155797
-0.15358
-0.15153
-0.149647
-0.147924
-0.146355
-0.144906
-0.143563
-0.142335
-0.141198
-0.140125
-0.139103
-0.138104
-0.137105
-0.136093
-0.135029
-0.133884
-0.132615
-0.131194
-0.129623
-0.127959
-0.126282
-0.124514
-0.122626
-0.12064
-0.118611
-0.11657
-0.114517
-0.112375
-0.110026
-0.107503
-0.10487
-0.102169
-0.0994388
-0.0967121
-0.0940089
-0.0913443
-0.0887622
-0.086253
-0.0838042
-0.0814183
-0.0790412
-0.0766362
-0.0741732
-0.0715898
-0.0688622
-0.0660014
-0.0630028
-0.0598468
-0.0565282
-0.0530431
-0.0494114
-0.0456318
-0.0417354
-0.0377738
-0.0337978
-0.0298069
-0.0258044
-0.0218077
-0.0178006
-0.013784
-0.0095753
-0.00621035
-0.00265127
0.000844692
0.00425125
0.00757497
0.0108292
0.0140265
0.0171772
0.0202896
0.0233705
0.0264253
0.0294584
0.0324736
0.0354737
0.0384613
0.0414384
0.0444065
0.047367
0.0503211
0.0532696
0.0562134
0.0591531
0.0620891
0.0650221
0.0679524
0.0708803
0.0738063
0.0767305
0.0796532
0.0825747
0.0854951
0.0884146
0.0913334
0.0942515
0.0971692
0.100087
0.103004
0.10592
0.108837
-0.218703
-0.214934
-0.211186
-0.207475
-0.20381
-0.200195
-0.196636
-0.193136
-0.189696
-0.186317
-0.183001
-0.179748
-0.176569
-0.173474
-0.170474
-0.167584
-0.164819
-0.162198
-0.159723
-0.157405
-0.15525
-0.153259
-0.151427
-0.149748
-0.14822
-0.146801
-0.145486
-0.14427
-0.143134
-0.142061
-0.141035
-0.140027
-0.139008
-0.137966
-0.136864
-0.135675
-0.134356
-0.132875
-0.131245
-0.129534
-0.127822
-0.125991
-0.124015
-0.121945
-0.11985
-0.117783
-0.115741
-0.113603
-0.111263
-0.108748
-0.106138
-0.103469
-0.100786
-0.0981217
-0.0955015
-0.0929412
-0.0904717
-0.08807
-0.0857056
-0.0833934
-0.0810465
-0.0786392
-0.076144
-0.0735115
-0.0707351
-0.0678162
-0.0647393
-0.0614778
-0.0580343
-0.0544128
-0.0506347
-0.046704
-0.0426583
-0.0385544
-0.0344467
-0.0303362
-0.0262258
-0.0221238
-0.0180221
-0.0139549
-0.00993365
-0.00611902
-0.00244834
0.00108758
0.00450386
0.00782239
0.0110636
0.0142439
0.0173761
0.0204698
0.0235326
0.0265705
0.0295883
0.0325895
0.0355771
0.0385536
0.0415208
0.0444802
0.047433
0.0503802
0.0533226
0.0562609
0.0591957
0.0621274
0.0650564
0.067983
0.0709077
0.0738306
0.0767521
0.0796722
0.0825913
0.0855096
0.088427
0.0913439
0.0942602
0.0971762
0.100092
0.103007
0.105923
0.108838
-0.218735
-0.215031
-0.211354
-0.207717
-0.204129
-0.200598
-0.197129
-0.193724
-0.190385
-0.18711
-0.183901
-0.180755
-0.17768
-0.174686
-0.171782
-0.168982
-0.166298
-0.163746
-0.161337
-0.159082
-0.156984
-0.155047
-0.15326
-0.151618
-0.150111
-0.148711
-0.147408
-0.146194
-0.145056
-0.143976
-0.142942
-0.141917
-0.140874
-0.139797
-0.138654
-0.137419
-0.136042
-0.134501
-0.132811
-0.131058
-0.12931
-0.127424
-0.125373
-0.123244
-0.121118
-0.119064
-0.117061
-0.114955
-0.112658
-0.110183
-0.107622
-0.105009
-0.102388
-0.0998033
-0.0972862
-0.0948499
-0.0925027
-0.0902068
-0.087922
-0.0856629
-0.0833081
-0.0808564
-0.0782861
-0.0755677
-0.0726993
-0.0696692
-0.0664631
-0.0630619
-0.0594719
-0.0556958
-0.0517547
-0.0476634
-0.0434616
-0.0392199
-0.0349947
-0.0307831
-0.0265829
-0.0223928
-0.0181933
-0.0140049
-0.00985235
-0.00585397
-0.00210472
0.00144663
0.00485034
0.00814487
0.0113577
0.0145085
0.0176118
0.0206783
0.0237164
0.026732
0.0297301
0.032714
0.0356867
0.0386501
0.0416059
0.0445555
0.0474997
0.0504394
0.0533753
0.0563078
0.0592375
0.0621646
0.0650896
0.0680126
0.0709339
0.0738539
0.0767726
0.0796903
0.0826071
0.0855232
0.0884387
0.0913537
0.0942683
0.0971827
0.100097
0.103011
0.105925
0.108839
-0.218766
-0.215128
-0.21152
-0.20796
-0.204454
-0.201008
-0.197628
-0.194319
-0.19108
-0.18791
-0.184807
-0.181771
-0.178804
-0.175915
-0.173111
-0.170403
-0.167802
-0.165324
-0.162985
-0.160792
-0.158753
-0.156866
-0.155115
-0.153493
-0.151992
-0.150604
-0.149303
-0.148092
-0.146952
-0.145866
-0.144821
-0.143776
-0.142702
-0.14159
-0.140404
-0.13912
-0.137689
-0.136088
-0.134346
-0.132565
-0.130798
-0.128884
-0.126794
-0.124647
-0.122532
-0.120517
-0.118574
-0.116538
-0.114331
-0.111926
-0.109425
-0.10686
-0.104299
-0.101806
-0.0994139
-0.0971273
-0.0949141
-0.0927204
-0.0905105
-0.0882753
-0.0858701
-0.08332
-0.0806134
-0.0777476
-0.0747232
-0.0715251
-0.0681464
-0.0645684
-0.0608069
-0.0568629
-0.0527579
-0.0485095
-0.0441619
-0.0397998
-0.0354699
-0.0311616
-0.0268603
-0.0225583
-0.0182259
-0.0138548
-0.00950656
-0.00533613
-0.00156733
0.00194666
0.00530077
0.00854597
0.0117121
0.0148193
0.0178826
0.0209132
0.0239194
0.0269074
0.0298816
0.0328451
0.0358003
0.0387489
0.0416921
0.0446309
0.0475659
0.0504977
0.0534267
0.0563533
0.0592777
0.0622003
0.0651211
0.0680405
0.0709587