/*--------------------------------*- C++ -*----------------------------------*\
  =========                 |
  \\      /  F ield         | OpenFOAM: The Open Source CFD Toolbox
   \\    /   O peration     | Website:  https://openfoam.org
    \\  /    A nd           | Version:  6
     \\/     M anipulation  |
\*---------------------------------------------------------------------------*/
FoamFile
{
    version     2.0;
    format      ascii;
    class       surfaceScalarField;
    location    "1450";
    object      phi;
}
// * * * * * * * * * * * * * * * * * * * * * * * * * * * * * * * * * * * * * //

dimensions      [0 3 -1 0 0 0 0];

internalField   nonuniform List<scalar> 
9440
(
-8.37355e-11
8.37355e-11
-2.58895e-10
1.75162e-10
-4.71982e-10
2.13088e-10
-7.33463e-10
2.61482e-10
-8.66492e-10
1.33031e-10
-9.06227e-10
3.97364e-11
-9.01308e-10
-4.91784e-12
-8.03894e-10
-9.74124e-11
-6.69895e-10
-1.33998e-10
-4.97612e-10
-1.72282e-10
-2.85092e-10
-2.12519e-10
-1.36108e-10
-1.48982e-10
1.60165e-11
-1.52124e-10
1.08861e-10
-9.28441e-11
8.47225e-11
2.41398e-11
4.41805e-11
4.05427e-11
-2.51125e-11
6.92936e-11
-1.15198e-10
9.00861e-11
-2.40704e-10
1.25507e-10
-3.73578e-10
1.32874e-10
-4.89732e-10
1.16154e-10
-5.86383e-10
9.66515e-11
-6.66239e-10
7.98559e-11
-7.36421e-10
7.01816e-11
-8.04442e-10
6.80215e-11
-8.70593e-10
6.61504e-11
-9.40841e-10
7.02477e-11
-1.05703e-09
1.16193e-10
-1.25178e-09
1.94741e-10
-1.47614e-09
2.24367e-10
-1.66906e-09
1.92913e-10
-1.89723e-09
2.2817e-10
-2.02897e-09
1.31742e-10
-2.07244e-09
4.34676e-11
-2.18395e-09
1.11512e-10
-2.29796e-09
1.14014e-10
-2.37856e-09
8.05983e-11
-2.49159e-09
1.13027e-10
-2.56345e-09
7.18635e-11
-2.59482e-09
3.13646e-11
-2.60918e-09
1.43637e-11
-2.61708e-09
7.89587e-12
-2.61245e-09
-4.62654e-12
-2.63835e-09
2.58933e-11
-2.63455e-09
-3.8009e-12
-2.59687e-09
-3.76807e-11
-2.48685e-09
-1.10022e-10
-2.39927e-09
-8.75803e-11
-2.23552e-09
-1.63742e-10
-2.12583e-09
-1.09698e-10
-2.02462e-09
-1.01211e-10
-1.76991e-09
-2.54708e-10
-1.66182e-09
-1.08089e-10
-1.46413e-09
-1.97684e-10
-1.27987e-09
-1.84263e-10
-1.11759e-09
-1.62284e-10
-9.33763e-10
-1.83825e-10
-7.13827e-10
-2.19936e-10
-5.38168e-10
-1.75659e-10
-3.84354e-10
-1.53814e-10
-1.43668e-10
-2.40686e-10
5.85447e-11
-2.02213e-10
1.96798e-12
5.65769e-11
9.12235e-12
-7.15423e-12
-1.14533e-11
2.05758e-11
1.83525e-11
-2.98056e-11
-1.55983e-10
1.74336e-10
-3.51524e-10
1.95541e-10
-4.91731e-10
1.40207e-10
-5.99467e-10
1.07736e-10
-7.28807e-10
1.29341e-10
-8.77334e-10
1.48527e-10
-1.05281e-09
1.75481e-10
-1.20509e-09
1.5228e-10
-1.29012e-09
8.50289e-11
-1.30753e-09
1.74078e-11
-1.24131e-09
-6.62181e-11
-8.43637e-10
-3.97675e-10
-4.18588e-10
-4.25048e-10
-1.7743e-16
-4.18588e-10
-7.7933e-18
-2.17132e-19
-7.63727e-18
-1.5603e-19
-7.41198e-18
-2.25162e-19
-7.1112e-18
-3.00696e-19
-6.73731e-18
-3.73867e-19
-6.29664e-18
-4.40706e-19
-5.79792e-18
-4.98813e-19
-5.25152e-18
-5.46523e-19
-4.66896e-18
-5.82716e-19
-4.06236e-18
-6.06802e-19
-3.44391e-18
-6.18689e-19
-2.82542e-18
-6.18751e-19
-2.21796e-18
-6.07753e-19
-1.63152e-18
-5.86771e-19
-1.07477e-18
-5.57108e-19
-5.54931e-19
-5.20207e-19
-7.77439e-20
-4.77573e-19
3.5255e-19
-4.307e-19
7.33121e-19
-3.81014e-19
1.06245e-18
-3.29824e-19
1.34016e-18
-2.78295e-19
1.56692e-18
-2.27424e-19
1.74419e-18
-1.78037e-19
1.8741e-18
-1.30788e-19
1.9593e-18
-8.61752e-20
2.00277e-18
-4.45479e-20
2.00774e-18
-6.13179e-21
1.97754e-18
2.89557e-20
1.91554e-18
6.06836e-20
1.82507e-18
8.90897e-20
1.70936e-18
1.14262e-19
1.57153e-18
1.36324e-19
1.41456e-18
1.5542e-19
1.24127e-18
1.71701e-19
1.05432e-18
1.8532e-19
8.56245e-19
1.96417e-19
6.49447e-19
2.05113e-19
4.36246e-19
2.11499e-19
2.18939e-19
2.15591e-19
2.17217e-19
-2.23517e-10
3.07254e-10
-4.7593e-10
4.27578e-10
-6.68227e-10
4.05387e-10
-8.13193e-10
4.0645e-10
-8.25475e-10
1.45315e-10
-8.86166e-10
1.00429e-10
-9.07294e-10
1.62129e-11
-8.45015e-10
-1.59689e-10
-7.0758e-10
-2.71431e-10
-5.60366e-10
-3.19494e-10
-3.88104e-10
-3.84779e-10
-2.22403e-10
-3.14682e-10
-1.46293e-10
-2.28232e-10
-5.2254e-11
-1.86882e-10
1.85319e-12
-2.99663e-11
3.18231e-11
1.05738e-11
-1.03117e-11
1.11429e-10
-9.85657e-11
1.78341e-10
-1.97345e-10
2.24287e-10
-3.15878e-10
2.51407e-10
-4.25191e-10
2.25467e-10
-5.41938e-10
2.13399e-10
-6.44394e-10
1.82312e-10
-7.43889e-10
1.69677e-10
-8.43068e-10
1.672e-10
-9.22508e-10
1.45589e-10
-9.88036e-10
1.35775e-10
-1.07687e-09
2.05023e-10
-1.27533e-09
3.932e-10
-1.59423e-09
5.43272e-10
-1.82451e-09
4.23194e-10
-1.88235e-09
2.86e-10
-1.92702e-09
1.76414e-10
-1.99034e-09
1.06786e-10
-2.14797e-09
2.69139e-10
-2.29585e-09
2.61896e-10
-2.39796e-09
1.82712e-10
-2.45277e-09
1.67827e-10
-2.54542e-09
1.64516e-10
-2.61059e-09
9.654e-11
-2.67463e-09
7.83987e-11
-2.72715e-09
6.04136e-11
-2.78185e-09
5.00737e-11
-2.82555e-09
6.95872e-11
-2.85487e-09
2.55279e-11
-2.8738e-09
-1.87601e-11
-2.67161e-09
-3.12212e-10
-2.65497e-09
-1.04216e-10
-2.49313e-09
-3.25581e-10
-2.37118e-09
-2.31646e-10
-2.24377e-09
-2.2863e-10
-2.04083e-09
-4.57641e-10
-1.93327e-09
-2.15653e-10
-1.79356e-09
-3.37393e-10
-1.68456e-09
-2.93267e-10
-1.58449e-09
-2.62352e-10
-1.49654e-09
-2.71772e-10
-1.42089e-09
-2.95586e-10
-1.3009e-09
-2.9565e-10
-1.11984e-09
-3.34874e-10
-9.3314e-10
-4.27386e-10
-7.92858e-10
-3.42495e-10
-5.43219e-10
-1.93061e-10
-3.20953e-10
-2.2942e-10
-8.91009e-11
-2.11276e-10
-3.98615e-11
-7.90445e-11
-6.11169e-12
1.40586e-10
-1.77481e-11
2.07178e-10
-8.66986e-11
2.09158e-10
-2.13051e-10
2.34089e-10
-4.30464e-10
3.46755e-10
-6.94605e-10
4.12669e-10
-8.33538e-10
3.14415e-10
-8.83141e-10
2.01884e-10
-8.40729e-10
4.26172e-11
-7.14407e-10
-1.08914e-10
-5.96744e-10
-1.83881e-10
-5.89655e-10
-4.04762e-10
-2.88605e-10
-7.26098e-10
-1.51296e-16
-7.07192e-10
-7.83851e-18
-4.1189e-19
-7.70639e-18
-2.88073e-19
-7.48746e-18
-4.43953e-19
-7.18437e-18
-6.03757e-19
-6.80415e-18
-7.54161e-19
-6.35475e-18
-8.90272e-19
-5.84562e-18
-1.00819e-18
-5.28771e-18
-1.10476e-18
-4.69305e-18
-1.17777e-18
-4.07425e-18
-1.22605e-18
-3.44397e-18
-1.24948e-18
-2.81442e-18
-1.24886e-18
-2.19698e-18
-1.22581e-18
-1.60186e-18
-1.18255e-18
-1.03787e-18
-1.12179e-18
-5.12297e-19
-1.0465e-18
-3.08708e-20
-9.59775e-19
4.02236e-19
-8.64655e-19
7.8431e-19
-7.64037e-19
1.11397e-18
-6.6057e-19
1.39104e-18
-5.56594e-19
1.61631e-18
-4.54106e-19
1.79143e-18
-3.54752e-19
1.91871e-18
-2.59829e-19
2.00093e-18
-1.70316e-19
2.04119e-18
-8.68971e-20
2.04283e-18
-1.00015e-20
2.00927e-18
6.01539e-20
1.94395e-18
1.23527e-19
1.85024e-18
1.80211e-19
1.73142e-18
2.30397e-19
1.59063e-18
2.74347e-19
1.43085e-18
3.12359e-19
1.25489e-18
3.44748e-19
1.06542e-18
3.71828e-19
8.64942e-19
3.93888e-19
6.55832e-19
4.11186e-19
4.40339e-19
4.23933e-19
2.20564e-19
4.32295e-19
4.36434e-19
-5.42902e-10
8.50158e-10
-6.72805e-10
5.57483e-10
-6.77077e-10
4.09661e-10
-6.95172e-10
4.24547e-10
-7.12767e-10
1.62912e-10
-7.95112e-10
1.82777e-10
-8.39051e-10
6.01536e-11
-7.43445e-10
-2.55294e-10
-6.81444e-10
-3.3343e-10
-5.82924e-10
-4.18012e-10
-4.42699e-10
-5.25002e-10
-3.64449e-10
-3.92932e-10
-3.16738e-10
-2.75942e-10
-2.38605e-10
-2.65014e-10
-1.32037e-10
-1.36533e-10
-8.68751e-11
-3.45872e-11
-8.82247e-11
1.12779e-10
-1.34732e-10
2.24849e-10
-2.07673e-10
2.97228e-10
-2.8667e-10
3.30405e-10
-3.70625e-10
3.09422e-10
-4.70288e-10
3.13062e-10
-5.90167e-10
3.02191e-10
-7.19901e-10
2.99411e-10
-8.63846e-10
3.11145e-10
-1.01887e-09
3.00609e-10
-1.17342e-09
2.90325e-10
-1.34239e-09
3.73992e-10
-1.47545e-09
5.26259e-10
-1.59778e-09
6.65601e-10
-1.74396e-09
5.69375e-10
-1.86634e-09
4.08377e-10
-1.97075e-09
2.80831e-10
-2.10508e-09
2.41109e-10
-2.21292e-09
3.76979e-10
-2.31488e-09
3.63859e-10
-2.37226e-09
2.40087e-10
-2.48826e-09
2.83826e-10
-2.54329e-09
2.19545e-10
-2.6463e-09
1.99552e-10
-2.73233e-09
1.6443e-10
-2.79938e-09
1.2746e-10
-2.87077e-09
1.2146e-10
-2.90042e-09
9.92451e-11
-2.94364e-09
6.87379e-11
-2.97932e-09
1.69286e-11
-2.87373e-09
-4.17803e-10
-2.69738e-09
-2.80574e-10
-2.6201e-09
-4.02855e-10
-2.44901e-09
-4.02745e-10
-2.32223e-09
-3.55403e-10
-2.15653e-09
-6.23348e-10
-1.992e-09
-3.80178e-10
-1.90698e-09
-4.22416e-10
-1.82916e-09
-3.71085e-10
-1.76905e-09
-3.22466e-10
-1.74124e-09
-2.99579e-10
-1.70664e-09
-3.30182e-10
-1.62289e-09
-3.79407e-10
-1.53043e-09
-4.27335e-10
-1.46367e-09
-4.9414e-10
-1.3528e-09
-4.53367e-10
-1.1906e-09
-3.55263e-10
-8.21583e-10
-5.98435e-10
-4.37296e-10
-5.95563e-10
-3.33184e-10
-1.83156e-10
-5.03996e-11
-1.42197e-10
9.19194e-11
6.48593e-11
1.16228e-10
1.8485e-10
1.12342e-10
2.37975e-10
1.60866e-10
2.98232e-10
1.81315e-10
3.9222e-10
1.50582e-10
3.45148e-10
1.46464e-10
2.06002e-10
7.81334e-11
1.10948e-10
1.14033e-10
-1.44813e-10
1.92576e-10
-2.62423e-10
1.43704e-10
-3.5589e-10
-5.65895e-11
-5.25804e-10
-1.64381e-16
-7.63781e-10
-7.90966e-18
1.95471e-20
-7.86173e-18
-3.35948e-19
-7.64712e-18
-6.58428e-19
-7.33477e-18
-9.16099e-19
-6.94026e-18
-1.14878e-18
-6.47267e-18
-1.35807e-18
-5.94219e-18
-1.53898e-18
-5.36072e-18
-1.68662e-18
-4.74133e-18
-1.79759e-18
-4.09768e-18
-1.8702e-18
-3.44335e-18
-1.90434e-18
-2.79136e-18
-1.90143e-18
-2.15373e-18
-1.86406e-18
-1.5411e-18
-1.79582e-18
-9.62579e-19
-1.70099e-18
-4.25568e-19
-1.58423e-18
6.42497e-20
-1.45034e-18
5.02854e-19
-1.30406e-18
8.87777e-19
-1.14984e-18
1.21795e-18
-9.91721e-19
1.49352e-18
-8.33262e-19
1.71566e-18
-6.77475e-19
1.88636e-18
-5.26818e-19
2.00823e-18
-3.83215e-19
2.08434e-18
-2.48091e-19
2.11808e-18
-1.22426e-19
2.11299e-18
-6.81469e-21
2.07265e-18
9.84689e-20
2.00063e-18
1.9341e-19
1.90043e-18
2.78193e-19
1.77537e-18
3.53146e-19
1.62864e-18
4.18693e-19
1.46324e-18
4.75316e-19
1.28197e-18
5.2351e-19
1.08748e-18
5.63765e-19
8.82239e-19
5.96536e-19
6.68579e-19
6.22225e-19
4.48701e-19
6.41172e-19
2.24703e-19
6.53644e-19
6.59843e-19
2.54812e-10
5.95347e-10
-4.3225e-11
8.55522e-10
-4.13722e-10
7.8016e-10
-5.9979e-10
6.10617e-10
-6.78662e-10
2.41786e-10
-7.45606e-10
2.49723e-10
-7.51889e-10
6.64377e-11
-6.82017e-10
-3.25164e-10
-5.93524e-10
-4.21921e-10
-5.04737e-10
-5.06798e-10
-4.3846e-10
-5.91277e-10
-3.67202e-10
-4.64189e-10
-3.08878e-10
-3.34266e-10
-2.70678e-10
-3.03212e-10
-2.362e-10
-1.7101e-10
-2.50995e-10
-1.97919e-11
-2.09222e-10
7.10075e-11
-2.00201e-10
2.15828e-10
-2.08418e-10
3.05446e-10
-2.52524e-10
3.74512e-10
-3.48005e-10
4.04902e-10
-4.54944e-10
4.20002e-10
-5.91108e-10
4.38354e-10
-7.55823e-10
4.64125e-10
-9.27787e-10
4.83109e-10
-1.1046e-09
4.77419e-10
-1.30563e-09
4.91353e-10
-1.47022e-09
5.38586e-10
-1.56921e-09
6.25248e-10
-1.59256e-09
6.88947e-10
-1.66892e-09
6.45735e-10
-1.78263e-09
5.22086e-10
-1.89316e-09
3.91364e-10
-2.07541e-09
4.23357e-10
-2.18696e-09
4.88525e-10
-2.27348e-09
4.50378e-10
-2.34579e-09
3.12403e-10
-2.44245e-09
3.80478e-10
-2.51094e-09
2.88039e-10
-2.62298e-09
3.11593e-10
-2.69527e-09
2.3672e-10
-2.78538e-09
2.17567e-10
-2.85173e-09
1.87806e-10
-2.89772e-09
1.45239e-10
-2.93561e-09
1.0663e-10
-2.89052e-09
-2.81697e-11
-2.87246e-09
-4.35861e-10
-2.62608e-09
-5.26954e-10
-2.55619e-09
-4.72747e-10
-2.37785e-09
-5.81088e-10
-2.23035e-09
-5.02899e-10
-2.09899e-09
-7.54706e-10
-1.92718e-09
-5.51991e-10
-1.85956e-09
-4.90039e-10
-1.78958e-09
-4.41057e-10
-1.74457e-09
-3.67477e-10
-1.73933e-09
-3.04826e-10
-1.71604e-09
-3.53466e-10
-1.67654e-09
-4.1891e-10
-1.65586e-09
-4.48011e-10
-1.6704e-09
-4.79599e-10
-1.58602e-09
-5.37756e-10
-1.37008e-09
-5.71202e-10
-1.20429e-09
-7.64224e-10
-1.02798e-09
-7.71867e-10
-7.34126e-10
-4.77011e-10
-3.54646e-10
-5.21677e-10
-9.64772e-11
-1.93309e-10
1.3852e-10
-5.01458e-11
3.21088e-10
5.54074e-11
4.75235e-10
1.44085e-10
4.3848e-10
4.28976e-10
4.30786e-10
3.52842e-10
4.21903e-10
2.14886e-10
3.6925e-10
1.63602e-10
3.34404e-10
-1.09967e-10
2.25526e-10
-1.53545e-10
1.60445e-10
-2.90808e-10
6.95404e-11
-4.34899e-10
-1.93798e-16
-6.9424e-10
-8.52813e-18
-1.0015e-18
-8.18368e-18
-6.80349e-19
-7.90465e-18
-9.37337e-19
-7.56745e-18
-1.25333e-18
-7.14955e-18
-1.56687e-18
-6.65357e-18
-1.85436e-18
-6.08984e-18
-2.10315e-18
-5.47169e-18
-2.30529e-18
-4.81393e-18
-2.45594e-18
-4.13183e-18
-2.55294e-18
-3.44043e-18
-2.59641e-18
-2.754e-18
-2.58857e-18
-2.08549e-18
-2.53331e-18
-1.44627e-18
-2.43583e-18
-8.45816e-19
-2.30226e-18
-2.91684e-19
-2.1392e-18
2.10531e-19
-1.95343e-18
6.57078e-19
-1.75152e-18
1.0459e-18
-1.53961e-18
1.37641e-18
-1.32326e-18
1.64931e-18
-1.10729e-18
1.86632e-18
-8.95717e-19
2.02996e-18
-6.91817e-19
2.14335e-18
-4.98092e-19
2.21001e-18
-3.16366e-19
2.2337e-18
-1.47852e-19
2.21827e-18
6.75402e-21
2.16759e-18
1.47185e-19
2.08542e-18
2.73514e-19
1.97538e-18
3.8607e-19
1.84092e-18
4.85367e-19
1.68526e-18
5.72036e-19
1.51143e-18
6.46771e-19
1.32222e-18
7.10283e-19
1.12025e-18
7.63259e-19
9.07929e-19
8.06338e-19
6.87526e-19
8.40082e-19
4.61173e-19
8.6496e-19
2.30902e-19
8.81341e-19
8.89478e-19
-2.18875e-10
8.14223e-10
-3.47579e-10
9.84229e-10
-4.24319e-10
8.56902e-10
-4.1855e-10
6.04849e-10
-5.54332e-10
3.7757e-10
-5.32377e-10
2.2777e-10
-5.34843e-10
6.89046e-11
-5.3097e-10
-3.29035e-10
-4.33396e-10
-5.19493e-10
-3.29958e-10
-6.10234e-10
-3.1408e-10
-6.07154e-10
-2.9859e-10
-4.79678e-10
-2.67749e-10
-3.65106e-10
-3.03234e-10
-2.67726e-10
-3.00328e-10
-1.73915e-10
-3.14712e-10
-5.40685e-12
-3.14128e-10
7.04245e-11
-3.33758e-10
2.35458e-10
-3.49029e-10
3.20717e-10
-3.63623e-10
3.89106e-10
-4.23242e-10
4.64522e-10
-5.16242e-10
5.13002e-10
-6.46846e-10
5.68959e-10
-8.0286e-10
6.20139e-10
-9.61291e-10
6.41539e-10
-1.11069e-09
6.26815e-10
-1.29315e-09
6.73815e-10
-1.47052e-09
7.1596e-10
-1.62842e-09
7.83144e-10
-1.66225e-09
7.22778e-10
-1.69751e-09
6.80987e-10
-1.79463e-09
6.19214e-10
-1.88592e-09
4.82648e-10
-2.01722e-09
5.54662e-10
-2.13146e-09
6.02762e-10
-2.22058e-09
5.39489e-10
-2.30582e-09
3.97649e-10
-2.37056e-09
4.45215e-10
-2.4657e-09
3.83182e-10
-2.52288e-09
3.68767e-10
-2.57761e-09
2.91453e-10
-2.651e-09
2.90959e-10
-2.66987e-09
2.06672e-10
-2.70424e-09
1.79606e-10
-2.68527e-09
8.76603e-11
-2.56775e-09
-1.45688e-10
-2.6114e-09
-3.92211e-10
-2.42142e-09
-7.16933e-10
-2.13567e-09
-7.58503e-10
-2.11838e-09
-5.98373e-10
-1.85216e-09
-7.69119e-10
-1.73573e-09
-8.71137e-10
-1.62053e-09
-6.672e-10
-1.55539e-09
-5.55177e-10
-1.53571e-09
-4.60732e-10
-1.54709e-09
-3.561e-10
-1.5917e-09
-2.60211e-10
-1.6073e-09
-3.3787e-10
-1.61464e-09
-4.11573e-10
-1.65457e-09
-4.08083e-10
-1.66139e-09
-4.72777e-10
-1.55639e-09
-6.42752e-10
-1.41425e-09
-7.13344e-10
-1.36365e-09
-8.14828e-10
-1.17863e-09
-9.56879e-10
-8.41036e-10
-8.14608e-10
-7.32817e-10
-6.29896e-10
-5.02451e-10
-4.23674e-10
-1.57271e-10
-3.95325e-10
2.13243e-10
-3.15106e-10
4.65985e-10
-1.08656e-10
4.82731e-10
4.12231e-10
5.75368e-10
2.60206e-10
5.72695e-10
2.1756e-10
5.62772e-10
1.73526e-10
4.99985e-10
-4.71789e-11
5.01613e-10
-1.55174e-10
4.14983e-10
-2.04177e-10
6.50571e-11
-8.49719e-11
-2.30338e-16
-6.29182e-10
-8.51266e-18
-9.12439e-19
-8.44017e-18
-7.52808e-19
-8.2205e-18
-1.15689e-18
-7.88099e-18
-1.59293e-18
-7.43705e-18
-2.01108e-18
-6.90237e-18
-2.38948e-18
-6.29197e-18
-2.71414e-18
-5.62235e-18
-2.97562e-18
-4.91092e-18
-3.16816e-18
-4.17531e-18
-3.2894e-18
-3.43259e-18
-3.34001e-18
-2.69873e-18
-3.32335e-18
-1.98801e-18
-3.24498e-18
-1.31269e-18
-3.11215e-18
-6.82762e-19
-2.9332e-18
-1.05911e-19
-2.71709e-18
4.12444e-19
-2.47283e-18
8.6898e-19
-2.20911e-18
1.26224e-18
-1.93396e-18
1.59239e-18
-1.65453e-18
1.86088e-18
-1.37697e-18
2.07022e-18
-1.10633e-18
2.22368e-18
-8.46656e-19
2.32508e-18
-6.0097e-19
2.37852e-18
-3.71413e-19
2.3883e-18
-1.59344e-19
2.3587e-18
3.45315e-20
2.29392e-18
2.10043e-19
2.19797e-18
3.67434e-19
2.07468e-18
5.07253e-19
1.92759e-18
6.30265e-19
1.76e-18
7.37363e-19
1.57494e-18
8.29501e-19
1.3752e-18
9.07642e-19
1.16333e-18
9.72703e-19
9.41672e-19
1.02553e-18
7.12405e-19
1.06685e-18
4.77553e-19
1.0973e-18
2.39039e-19
1.11733e-18
1.12728e-18
-2.15324e-10
1.02955e-09
-3.25925e-10
1.09483e-09
-4.68843e-10
9.99821e-10
-4.90563e-10
6.26571e-10
-5.43521e-10
4.3053e-10
-4.65402e-10
1.49653e-10
-4.30321e-10
3.38242e-11
-5.04508e-10
-2.54846e-10
-4.05155e-10
-6.18846e-10
-3.41427e-10
-6.73961e-10
-2.75753e-10
-6.72827e-10
-2.12189e-10
-5.4324e-10
-2.20586e-10
-3.56708e-10
-2.92222e-10
-1.96089e-10
-3.57451e-10
-1.08686e-10
-3.99702e-10
3.68446e-11
-4.43922e-10
1.14645e-10
-4.3232e-10
2.23857e-10
-4.65771e-10
3.54168e-10
-5.08025e-10
4.3136e-10
-5.61559e-10
5.18056e-10
-6.74512e-10
6.25954e-10
-8.21676e-10
7.16123e-10
-9.6403e-10
7.62492e-10
-1.13435e-09
8.11863e-10
-1.3129e-09
8.05363e-10
-1.40759e-09
7.68499e-10
-1.47749e-09
7.85862e-10
-1.56298e-09
8.68635e-10
-1.66533e-09
8.2512e-10
-1.73968e-09
7.55337e-10
-1.8088e-09
6.88341e-10
-1.90721e-09
5.81057e-10
-1.98329e-09
6.30739e-10
-2.06768e-09
6.87145e-10
-2.14032e-09
6.12133e-10
-2.20372e-09
4.61044e-10
-2.2377e-09
4.79194e-10
-2.29453e-09
4.40019e-10
-2.32348e-09
3.97713e-10
-2.35428e-09
3.22255e-10
-2.37539e-09
3.12063e-10
-2.36793e-09
1.99216e-10
-2.38072e-09
1.92392e-10
-2.3511e-09
5.80431e-11
-2.35334e-09
-1.43453e-10
-2.31999e-09
-4.25558e-10
-2.25455e-09
-7.82375e-10
-1.88649e-09
-1.12656e-09
-1.72911e-09
-7.55755e-10
-1.42303e-09
-1.0752e-09
-1.21761e-09
-1.07655e-09
-1.08213e-09
-8.02679e-10
-1.01462e-09
-6.22696e-10
-1.04126e-09
-4.34084e-10
-1.11221e-09
-2.85153e-10
-1.19074e-09
-1.81678e-10
-1.30495e-09
-2.23667e-10
-1.4445e-09
-2.72022e-10
-1.54368e-09
-3.08907e-10
-1.57716e-09
-4.39288e-10
-1.53342e-09
-6.86494e-10
-1.4642e-09
-7.82564e-10
-1.29806e-09
-9.80967e-10
-1.22676e-09
-1.02818e-09
-1.03425e-09
-1.00712e-09
-9.69794e-10
-6.94355e-10
-7.03108e-10
-6.90359e-10
-5.01573e-10
-5.96859e-10
-2.65681e-10
-5.50998e-10
6.54101e-11
-4.39746e-10
4.27429e-10
5.02133e-11
4.67929e-10
2.19706e-10
4.64466e-10
2.21023e-10
4.60773e-10
1.7722e-10
4.21543e-10
-7.94784e-12
5.68701e-10
-3.02331e-10
4.25511e-10
-6.09862e-11
-1.78979e-12
3.4233e-10
-2.86795e-16
-6.30971e-10
-8.69305e-18
3.46324e-19
-8.84377e-18
-6.02062e-19
-8.65639e-18
-1.34415e-18
-8.29914e-18
-1.95029e-18
-7.81544e-18
-2.49516e-18
-7.22703e-18
-2.97845e-18
-6.55344e-18
-3.38848e-18
-5.81489e-18
-3.71508e-18
-5.03216e-18
-3.95192e-18
-4.22592e-18
-4.09675e-18
-3.41593e-18
-4.15115e-18
-2.62036e-18
-4.12012e-18
-1.85518e-18
-4.0114e-18
-1.13375e-18
-3.83484e-18
-4.6665e-19
-3.60158e-18
1.38348e-19
-3.32338e-18
6.76164e-19
-3.01193e-18
1.14413e-18
-2.67834e-18
1.54167e-18
-2.33276e-18
1.86996e-18
-1.98408e-18
2.13151e-18
-1.63981e-18
2.3299e-18
-1.30606e-18
2.46937e-18
-9.87544e-19
2.55463e-18
-6.87732e-19
2.59059e-18
-4.08964e-19
2.58218e-18
-1.52622e-19
2.53421e-18
8.07077e-20
2.45131e-18
2.91065e-19
2.33779e-18
4.78972e-19
2.19769e-18
6.45296e-19
2.03469e-18
7.91132e-19
1.85214e-18
9.17705e-19
1.65308e-18
1.02629e-18
1.44026e-18
1.11814e-18
1.21615e-18
1.19444e-18
9.83e-19
1.25627e-18
7.42848e-19
1.30457e-18
4.97587e-19
1.3401e-18
2.48987e-19
1.36347e-18
1.37506e-18
-8.7958e-11
1.11751e-09
-1.63108e-10
1.16998e-09
-1.84287e-10
1.021e-09
-2.64629e-10
7.06914e-10
-3.5506e-10
5.20962e-10
-3.70417e-10
1.65012e-10
-3.33315e-10
-3.27694e-12
-2.9352e-10
-2.9464e-10
-2.67491e-10
-6.44874e-10
-2.46271e-10
-6.9518e-10
-2.32161e-10
-6.86937e-10
-2.48864e-10
-5.26536e-10
-2.83367e-10
-3.22204e-10
-3.07491e-10
-1.71963e-10
-3.89292e-10
-2.68842e-11
-4.77832e-10
1.25385e-10
-5.43891e-10
1.80704e-10
-5.67856e-10
2.47823e-10
-5.89478e-10
3.7579e-10
-6.22285e-10
4.64167e-10
-6.74776e-10
5.70547e-10
-7.59199e-10
7.10377e-10
-8.8541e-10
8.42334e-10
-1.01868e-09
8.95763e-10
-1.11563e-09
9.08811e-10
-1.24896e-09
9.38696e-10
-1.38753e-09
9.07064e-10
-1.51803e-09
9.16361e-10
-1.60615e-09
9.56756e-10
-1.66936e-09
8.88332e-10
-1.74525e-09
8.31223e-10
-1.82011e-09
7.632e-10
-1.87038e-09
6.31328e-10
-1.89375e-09
6.54109e-10
-1.92281e-09
7.16197e-10
-1.97824e-09
6.67567e-10
-2.00547e-09
4.88268e-10
-2.00263e-09
4.76357e-10
-2.00825e-09
4.45637e-10
-1.99731e-09
3.86778e-10
-2.01285e-09
3.37793e-10
-2.01387e-09
3.13083e-10
-2.02145e-09
2.06788e-10
-2.02128e-09
1.9222e-10
-2.06655e-09
1.03314e-10
-2.13263e-09
-7.73743e-11
-1.99857e-09
-5.59616e-10
-1.87102e-09
-9.09928e-10
-1.73097e-09
-1.26661e-09
-1.36588e-09
-1.12084e-09
-1.13143e-09
-1.30965e-09
-7.76205e-10
-1.43178e-09
-5.17864e-10
-1.06102e-09
-3.81259e-10
-7.59302e-10
-4.29117e-10
-3.86226e-10
-5.64973e-10
-1.49297e-10
-7.84208e-10
3.75564e-11
-9.68858e-10
-3.90171e-11
-1.10255e-09
-1.38334e-10
-1.22308e-09
-1.88373e-10
-1.30652e-09
-3.55844e-10
-1.33836e-09
-6.54656e-10
-1.36857e-09
-7.52356e-10
-1.27713e-09
-1.07241e-09
-1.22851e-09
-1.0768e-09
-1.14107e-09
-1.09455e-09
-9.30491e-10
-9.04937e-10
-7.7091e-10
-8.4994e-10
-6.47004e-10
-7.20764e-10
-4.69119e-10
-7.28882e-10
-4.03203e-10
-5.05662e-10
-4.36577e-11
-3.09331e-10
2.18149e-10
-4.20992e-11
2.64466e-10
1.74707e-10
2.52804e-10
1.88883e-10
7.60322e-11
1.68825e-10
-3.56126e-10
1.29828e-10
-5.97113e-10
1.80002e-10
-2.99835e-10
4.50526e-11
-3.68214e-16
-9.30805e-10
-1.00257e-17
-1.25374e-18
-9.58537e-18
-1.04233e-18
-9.26238e-18
-1.66694e-18
-8.84401e-18
-2.36876e-18
-8.29873e-18
-3.04088e-18
-7.63706e-18
-3.64079e-18
-6.88004e-18
-4.14641e-18
-6.05173e-18
-4.54452e-18
-5.17699e-18
-4.82795e-18
-4.28033e-18
-4.99481e-18
-3.3849e-18
-5.04805e-18
-2.51165e-18
-4.99488e-18
-1.67861e-18
-4.84599e-18
-9.00488e-19
-4.61455e-18
-1.88447e-19
-4.31522e-18
4.498e-19
-3.96322e-18
1.00975e-18
-3.57344e-18
1.48971e-18
-3.15982e-18
1.89035e-18
-2.73488e-18
2.21422e-18
-2.3094e-18
2.46527e-18
-1.89229e-18
2.64841e-18
-1.49065e-18
2.76918e-18
-1.1098e-18
2.8334e-18
-7.53485e-19
2.84693e-18
-4.24098e-19
2.81551e-18
-1.22871e-19
2.74457e-18
1.49886e-19
2.63921e-18
3.94581e-19
2.50412e-18
6.12148e-19
2.34352e-18
8.03887e-19
2.16126e-18
9.71325e-19
1.96072e-18
1.1161e-18
1.74493e-18
1.23988e-18
1.51656e-18
1.34425e-18
1.27798e-18
1.43072e-18
1.0313e-18
1.50062e-18
7.78382e-19
1.55512e-18
5.20951e-19
1.59515e-18
2.60582e-19
1.62144e-18
1.63448e-18
-4.85415e-11
1.16605e-09
-8.18365e-11
1.20328e-09
-1.42602e-10
1.08177e-09
-2.44537e-10
8.0885e-10
-2.91484e-10
5.6791e-10
-3.3871e-10
2.12239e-10
-3.26785e-10
-1.52013e-11
-2.69936e-10
-3.51489e-10
-2.89435e-10
-6.25373e-10
-2.81543e-10
-7.03072e-10
-2.61962e-10
-7.06516e-10
-2.58923e-10
-5.29575e-10
-3.01914e-10
-2.79213e-10
-3.58358e-10
-1.15519e-10
-4.61477e-10
7.62354e-11
-5.18391e-10
1.82299e-10
-5.51951e-10
2.14265e-10
-6.08749e-10
3.0462e-10
-6.69814e-10
4.36856e-10
-7.53406e-10
5.47759e-10
-8.25642e-10
6.42783e-10
-9.2102e-10
8.05755e-10
-1.0166e-09
9.37909e-10
-1.13299e-09
1.01215e-09
-1.27222e-09
1.04805e-09
-1.39175e-09
1.05822e-09
-1.49849e-09
1.0138e-09
-1.58416e-09
1.00203e-09
-1.62612e-09
9.98716e-10
-1.69022e-09
9.52423e-10
-1.73118e-09
8.72186e-10
-1.74899e-09
7.8101e-10
-1.81377e-09
6.96109e-10
-1.81461e-09
6.54945e-10
-1.7825e-09
6.84086e-10
-1.78334e-09
6.68411e-10
-1.76193e-09
4.66853e-10
-1.70348e-09
4.17909e-10
-1.65046e-09
3.92618e-10
-1.61586e-09
3.5217e-10
-1.59137e-09
3.13309e-10
-1.57682e-09
2.98523e-10
-1.56734e-09
1.9731e-10
-1.52562e-09
1.50499e-10
-1.46555e-09
4.32437e-11
-1.39725e-09
-1.45669e-10
-1.31917e-09
-6.377e-10
-1.18358e-09
-1.04552e-09
-1.21994e-09
-1.23025e-09
-9.37589e-10
-1.40319e-09
-6.15372e-10
-1.63187e-09
-3.11911e-10
-1.73524e-09
-7.09446e-11
-1.30199e-09
1.72591e-10
-1.00284e-09
1.42229e-10
-3.55865e-10
-1.6571e-11
9.50262e-12
-1.94655e-10
2.1564e-10
-4.23633e-10
1.89961e-10
-6.93404e-10
1.31437e-10
-7.82518e-10
-9.92591e-11
-9.43468e-10
-1.94894e-10
-9.50335e-10
-6.47788e-10
-1.03089e-09
-6.71801e-10
-1.08784e-09
-1.01546e-09
-1.1727e-09
-9.91933e-10
-1.14492e-09
-1.12233e-09
-9.71537e-10
-1.07832e-09
-8.51845e-10
-9.69631e-10
-7.29781e-10
-8.42827e-10
-6.49399e-10
-8.09263e-10
-5.62836e-10
-5.92224e-10
-4.05376e-10
-4.6679e-10
-2.09146e-10
-2.38328e-10
-1.27071e-10
9.26327e-11
-1.1032e-10
1.72133e-10
-1.49186e-10
2.07692e-10
-3.32176e-10
3.12819e-10
-4.54446e-10
3.02273e-10
-3.55557e-10
-5.38348e-11
-4.53447e-16
-1.28636e-09
-1.02445e-17
-1.38804e-18
-1.02095e-17
-1.07727e-18
-9.96404e-18
-1.91212e-18
-9.51613e-18
-2.81663e-18
-8.89865e-18
-3.65877e-18
-8.14268e-18
-4.39751e-18
-7.27815e-18
-5.01196e-18
-6.33516e-18
-5.48881e-18
-5.34385e-18
-5.82078e-18
-4.33357e-18
-6.00677e-18
-3.33174e-18
-6.05166e-18
-2.36276e-18
-5.96572e-18
-1.44717e-18
-5.76349e-18
-6.01162e-19
-5.4625e-18
1.63558e-19
-5.08189e-18
8.3958e-19
-4.64117e-18
1.42336e-18
-4.1591e-18
1.91465e-18
-3.65293e-18
2.31584e-18
-3.13782e-18
2.63133e-18
-2.62657e-18
2.86691e-18
-2.12951e-18
3.02926e-18
-1.6546e-18
3.12549e-18
-1.20761e-18
3.16279e-18
-7.92381e-19
3.14816e-18
-4.11104e-19
3.08826e-18
-6.46526e-20
2.98926e-18
2.47151e-19
2.85678e-18
5.25265e-19
2.69585e-18
7.71203e-19
2.51096e-18
9.8684e-19
2.30604e-18
1.17425e-18
2.08449e-18
1.33558e-18
1.84931e-18
1.47294e-18
1.60303e-18
1.58835e-18
1.34789e-18
1.68364e-18
1.08579e-18
1.76046e-18
8.18415e-19
1.82021e-18
5.47244e-19
1.86402e-18
2.73623e-19
1.89275e-18
1.90699e-18
-5.02363e-11
1.21629e-09
-9.86304e-11
1.25167e-09
-1.76395e-10
1.15953e-09
-2.38904e-10
8.71359e-10
-2.46644e-10
5.7565e-10
-2.54515e-10
2.20111e-10
-2.23306e-10
-4.64095e-11
-2.3002e-10
-3.44774e-10
-2.79816e-10
-5.75577e-10
-3.00578e-10
-6.82309e-10
-3.47339e-10
-6.59754e-10
-4.26419e-10
-4.50495e-10
-4.77827e-10
-2.27804e-10
-5.17295e-10
-7.60509e-11
-5.43984e-10
1.02925e-10
-5.13026e-10
1.51342e-10
-5.24351e-10
2.2559e-10
-6.1367e-10
3.93939e-10
-6.76478e-10
4.99664e-10
-7.7705e-10
6.48329e-10
-9.04579e-10
7.70312e-10
-9.82694e-10
8.83869e-10
-1.05771e-09
1.01292e-09
-1.12912e-09
1.08356e-09
-1.205e-09
1.12393e-09
-1.30453e-09
1.15775e-09
-1.42659e-09
1.13587e-09
-1.54986e-09
1.12529e-09
-1.62914e-09
1.078e-09
-1.69446e-09
1.01774e-09
-1.75415e-09
9.31877e-10
-1.73111e-09
7.57969e-10
-1.75884e-09
7.2384e-10
-1.70949e-09
6.05596e-10
-1.58845e-09
5.63042e-10
-1.53071e-09
6.10671e-10
-1.52828e-09
4.64424e-10
-1.38455e-09
2.74174e-10
-1.31693e-09
3.24991e-10
-1.24156e-09
2.76804e-10
-1.1841e-09
2.55852e-10
-1.12645e-09
2.40868e-10
-1.08213e-09
1.52987e-10
-9.42198e-10
1.05713e-11
-7.78955e-10
-1.20001e-10
-6.33872e-10
-2.90752e-10
-5.95092e-10
-6.76481e-10
-5.82077e-10
-1.05854e-09
-5.72388e-10
-1.23994e-09
-3.68854e-10
-1.60673e-09
-4.63225e-11
-1.9544e-09
1.50767e-10
-1.93233e-09
5.78219e-10
-1.72944e-09
1.0224e-09
-1.44701e-09
1.03274e-09
-3.66208e-10
7.22791e-10
3.1945e-10
3.92943e-10
5.45488e-10
7.1944e-11
5.1096e-10
-2.33674e-10
4.37054e-10
-4.27333e-10
9.43995e-11
-5.87866e-10
-3.43598e-11
-7.50108e-10
-4.85547e-10
-9.16981e-10
-5.04928e-10
-9.8274e-10
-9.49699e-10
-9.67138e-10
-1.00753e-09
-9.8718e-10
-1.10229e-09
-9.56606e-10
-1.10889e-09
-8.33869e-10
-1.09237e-09
-7.54715e-10
-9.2198e-10
-7.13592e-10
-8.50385e-10
-6.2485e-10
-6.80965e-10
-5.12861e-10
-5.78778e-10
-4.08728e-10
-3.4246e-10
-3.40474e-10
2.43804e-11
-2.63191e-10
9.48507e-11
-2.27706e-10
1.72209e-10
-3.48137e-11
1.19928e-10
-4.323e-13
2.67893e-10
-2.34119e-10
1.79853e-10
-5.35409e-16
-1.52048e-09
-1.04254e-17
1.97451e-18
-1.1044e-17
-4.58581e-19
-1.08684e-17
-2.08724e-18
-1.03583e-17
-3.32648e-18
-9.63738e-18
-4.37988e-18
-8.75712e-18
-5.27844e-18
-7.755e-18
-6.01513e-18
-6.66714e-18
-6.57806e-18
-5.52983e-18
-6.95977e-18
-4.37846e-18
-7.16005e-18
-3.24579e-18
-7.18638e-18
-2.16053e-18
-7.05314e-18
-1.14618e-18
-6.78006e-18
-2.2056e-19
-6.39039e-18
6.0428e-19
-5.90903e-18
1.32165e-18
-5.36081e-18
1.92953e-18
-4.76921e-18
2.42976e-18
-4.1553e-18
2.82709e-18
-3.5372e-18
3.12839e-18
-2.92981e-18
3.34182e-18
-2.34481e-18
3.47625e-18
-1.79083e-18
3.54073e-18
-1.27383e-18
3.54406e-18
-7.97426e-19
3.49461e-18
-3.63347e-19
3.40007e-18
2.81907e-20
3.26738e-18
3.78111e-19
3.10272e-18
6.88156e-19
2.91149e-18
9.60611e-19
2.69837e-18
1.19808e-18
2.46736e-18
1.40333e-18
2.22186e-18
1.57909e-18
1.96471e-18
1.72804e-18
1.69833e-18
1.85264e-18
1.42471e-18
1.95512e-18
1.14554e-18
2.03747e-18
8.62222e-19
2.10132e-18
5.75978e-19
2.14804e-18
2.87864e-19
2.17864e-18
2.19379e-18
-1.23966e-11
1.22868e-09
-5.90184e-11
1.2983e-09
-8.13531e-11
1.18187e-09
-1.01973e-10
8.91979e-10
-1.28244e-10
6.01922e-10
-1.44552e-10
2.36418e-10
-1.41723e-10
-4.92383e-11
-2.0585e-10
-2.80647e-10
-2.86053e-10
-4.95374e-10
-3.74384e-10
-5.93978e-10
-4.72712e-10
-5.61427e-10
-5.3801e-10
-3.85197e-10
-5.89228e-10
-1.76586e-10
-5.95217e-10
-7.00623e-11
-6.11685e-10
1.19393e-10
-5.82614e-10
1.2227e-10
-5.81652e-10
2.24629e-10
-6.31543e-10
4.4383e-10
-7.37584e-10
6.05704e-10
-8.60081e-10
7.70826e-10
-9.50213e-10
8.60443e-10
-1.08306e-09
1.01672e-09
-1.14015e-09
1.07001e-09
-1.21493e-09
1.15835e-09
-1.30125e-09
1.21024e-09
-1.38225e-09
1.23875e-09
-1.4694e-09
1.22302e-09
-1.53943e-09
1.19532e-09
-1.59764e-09
1.13621e-09
-1.63832e-09
1.05842e-09
-1.71011e-09
1.00366e-09
-1.68318e-09
7.31034e-10
-1.65694e-09
6.97599e-10
-1.65693e-09
6.05587e-10
-1.5033e-09
4.09413e-10
-1.3191e-09
4.26475e-10
-1.26067e-09
4.05986e-10
-1.17512e-09
1.88624e-10
-1.03357e-09
1.83439e-10
-9.54768e-10
1.98004e-10
-8.66973e-10
1.68056e-10
-7.72535e-10
1.46429e-10
-6.06643e-10
-1.29062e-11
-4.55625e-10
-1.40447e-10
-2.90522e-10
-2.85104e-10
-1.55679e-10
-4.25595e-10
-1.04287e-10
-7.27873e-10
-8.8796e-11
-1.07403e-09
2.37284e-11
-1.35246e-09
4.78634e-11
-1.63086e-09
1.33534e-10
-2.04007e-09
3.21151e-10
-2.11995e-09
5.31329e-10
-1.93962e-09
8.21297e-10
-1.73698e-09
1.2206e-09
-7.65514e-10
1.13931e-09
4.00741e-10
8.63691e-10
8.21108e-10
4.9514e-10
8.79512e-10
1.70579e-10
7.61615e-10
-1.43673e-10
4.08652e-10
-3.35727e-10
1.57695e-10
-5.72371e-10
-2.48903e-10
-6.96622e-10
-3.80676e-10
-8.60166e-10
-7.86154e-10
-8.82669e-10
-9.85031e-10
-8.5987e-10
-1.12509e-09
-8.20764e-10
-1.148e-09
-8.15019e-10
-1.09811e-09
-7.41688e-10
-9.95311e-10
-7.56187e-10
-8.35884e-10
-7.06125e-10
-7.31026e-10
-7.00919e-10
-5.83983e-10
-6.38473e-10
-4.04904e-10
-5.6898e-10
-4.51117e-11
-5.44839e-10
7.07112e-11
-6.79655e-10
3.07027e-10
-1.0299e-09
4.7018e-10
-6.58501e-10
-1.03509e-10
-1.23348e-10
-3.55298e-10
-6.26417e-16
-1.64382e-09
-1.34195e-17
-5.76828e-19
-1.26722e-17
-1.20561e-18
-1.21075e-17
-2.6514e-18
-1.14117e-17
-4.02182e-18
-1.05359e-17
-5.25553e-18
-9.49382e-18
-6.32095e-18
-8.31794e-18
-7.19187e-18
-7.04884e-18
-7.84847e-18
-5.73011e-18
-8.28021e-18
-4.40479e-18
-8.48737e-18
-3.11255e-18
-8.48084e-18
-1.88745e-18
-8.28062e-18
-7.56512e-19
-7.91349e-18