/*--------------------------------*- C++ -*----------------------------------*\
  =========                 |
  \\      /  F ield         | OpenFOAM: The Open Source CFD Toolbox
   \\    /   O peration     | Website:  https://openfoam.org
    \\  /    A nd           | Version:  6
     \\/     M anipulation  |
\*---------------------------------------------------------------------------*/
FoamFile
{
    version     2.0;
    format      ascii;
    class       volVectorField;
    location    "1450";
    object      U;
}
// * * * * * * * * * * * * * * * * * * * * * * * * * * * * * * * * * * * * * //

dimensions      [0 1 -1 0 0 0 0];

internalField   nonuniform List<vector> 
4800
(
(-1.67192e-05 0 -0.000199911)
(-3.61219e-05 0 -0.00012915)
(-0.000132793 0 -2.32832e-05)
(-0.000299572 0 -3.92322e-05)
(-0.000334349 0 5.23253e-05)
(-0.000362443 0 -2.13246e-05)
(-0.000371035 0 -1.25006e-05)
(-0.000338431 0 -0.000102322)
(-0.000288091 0 -5.76078e-05)
(-0.000226217 0 -5.58008e-05)
(-0.000146233 0 -7.05994e-05)
(-8.31788e-05 0 -2.13039e-05)
(-1.38841e-05 0 -5.04731e-05)
(2.83153e-05 0 -3.626e-05)
(3.85896e-05 0 -1.52008e-05)
(2.59666e-05 0 -1.48196e-05)
(6.1139e-06 0 -4.77588e-06)
(-2.2668e-05 0 -2.1737e-06)
(-6.61564e-05 0 3.31646e-06)
(-0.000121883 0 9.70655e-06)
(-0.000175326 0 2.60921e-05)
(-0.000220626 0 1.60031e-05)
(-0.000250672 0 2.9723e-06)
(-0.000275354 0 -1.32797e-05)
(-0.000304238 0 -2.72037e-05)
(-0.000336521 0 -1.77038e-05)
(-0.000362291 0 -9.81423e-06)
(-0.000390005 0 -4.16311e-06)
(-0.000460178 0 -5.57704e-05)
(-0.000543602 0 -0.000167855)
(-0.000616143 0 -0.000155894)
(-0.000736022 0 1.58665e-05)
(-0.000798722 0 2.81474e-05)
(-0.000823894 0 -4.68433e-06)
(-0.000838404 0 2.61001e-06)
(-0.000855602 0 -1.60941e-05)
(-0.00090604 0 -4.47177e-05)
(-0.000969137 0 8.91075e-06)
(-0.00101018 0 -1.37453e-06)
(-0.00103287 0 -2.78152e-06)
(-0.00104351 0 -5.22807e-06)
(-0.00104586 0 -9.55754e-06)
(-0.00104361 0 -1.43984e-05)
(-0.00104652 0 -2.01828e-05)
(-0.00105868 0 -2.62842e-05)
(-0.00106593 0 -2.09947e-05)
(-0.00104085 0 4.98723e-05)
(-0.000975426 0 3.4965e-07)
(-0.00092265 0 -5.89206e-05)
(-0.000882632 0 -4.8328e-08)
(-0.000833175 0 -3.72132e-05)
(-0.000766409 0 -4.70191e-05)
(-0.000700637 0 -3.03809e-05)
(-0.00063191 0 -6.28372e-05)
(-0.000561023 0 -6.30928e-05)
(-0.000496405 0 -3.88142e-05)
(-0.000423568 0 -2.22705e-05)
(-0.000344265 0 -2.70708e-05)
(-0.000260005 0 -7.76568e-06)
(-0.000173709 0 -8.15829e-06)
(-0.000115039 0 -5.05396e-05)
(-3.53185e-05 0 -0.000133008)
(2.5898e-05 0 3.49211e-05)
(-9.40367e-06 0 1.58571e-05)
(8.5221e-06 0 1.94328e-05)
(3.71591e-06 0 3.4691e-05)
(-1.28867e-05 0 3.64457e-05)
(-9.04777e-05 0 1.60238e-05)
(-0.000165927 0 -1.62876e-05)
(-0.000221405 0 -3.42118e-05)
(-0.000263242 0 1.59269e-05)
(-0.000317691 0 1.61897e-05)
(-0.000406364 0 -1.7979e-05)
(-0.000468257 0 -6.00099e-05)
(-0.000496904 0 -9.90735e-05)
(-0.000506812 0 -0.000110391)
(-0.000468708 0 -0.000176941)
(-0.000418866 0 -0.000227386)
(-0.00055339 0 -0.000178033)
(3.78736e-06 0 -0.00018453)
(-1.52725e-12 0 -4.51466e-14)
(-3.90449e-12 0 -3.12076e-14)
(-3.00985e-12 0 -4.50326e-14)
(-2.90464e-12 0 -6.01392e-14)
(-2.7697e-12 0 -7.47735e-14)
(-2.60679e-12 0 -8.81412e-14)
(-2.41891e-12 0 -9.97627e-14)
(-2.20989e-12 0 -1.09305e-13)
(-1.9841e-12 0 -1.16543e-13)
(-1.74626e-12 0 -1.2136e-13)
(-1.50125e-12 0 -1.23738e-13)
(-1.25387e-12 0 -1.2375e-13)
(-1.00868e-12 0 -1.21551e-13)
(-7.69897e-13 0 -1.17354e-13)
(-5.41258e-13 0 -1.11422e-13)
(-3.2594e-13 0 -1.04041e-13)
(-1.26535e-13 0 -9.55147e-14)
(5.49612e-14 0 -8.61401e-14)
(2.17134e-13 0 -7.62028e-14)
(3.59113e-13 0 -6.59649e-14)
(4.80522e-13 0 -5.5659e-14)
(5.81417e-13 0 -4.54849e-14)
(6.62221e-13 0 -3.56074e-14)
(7.23657e-13 0 -2.61577e-14)
(7.66679e-13 0 -1.7235e-14)
(7.92414e-13 0 -8.90958e-15)
(8.02103e-13 0 -1.22636e-15)
(7.97057e-13 0 5.79114e-15)
(7.78617e-13 0 1.21367e-14)
(7.48122e-13 0 1.78179e-14)
(7.06886e-13 0 2.28525e-14)
(6.56179e-13 0 2.72649e-14)
(5.9722e-13 0 3.10839e-14)
(5.31167e-13 0 3.43402e-14)
(4.59118e-13 0 3.70639e-14)
(3.82113e-13 0 3.92833e-14)
(3.01138e-13 0 4.10227e-14)
(2.17139e-13 0 4.22997e-14)
(1.31037e-13 0 4.31183e-14)
(4.37877e-14 0 4.34434e-14)
(-9.61877e-05 0 0.000156848)
(-0.000102433 0 0.000179241)
(-0.000246791 0 0.000100944)
(-0.000283554 0 0.000138933)
(-0.000334976 0 3.15152e-05)
(-0.000345442 0 4.50733e-05)
(-0.000363944 0 9.50153e-08)
(-0.000364042 0 -2.09762e-05)
(-0.000309252 0 -0.000113508)
(-0.00024316 0 -0.000137335)
(-0.000181221 0 -0.000137419)
(-0.00012626 0 -0.000127142)
(-7.52989e-05 0 -0.000118243)
(-4.0002e-05 0 -8.16765e-05)
(-1.10799e-05 0 -3.02706e-07)
(7.77286e-06 0 2.39316e-05)
(8.21959e-06 0 3.9456e-05)
(-1.8026e-05 0 5.2946e-05)
(-5.46081e-05 0 7.51257e-05)
(-9.67749e-05 0 8.33384e-05)
(-0.000150427 0 6.71024e-05)
(-0.000199737 0 5.37422e-05)
(-0.000237763 0 4.55298e-05)
(-0.000274299 0 4.58744e-05)
(-0.000318539 0 5.00664e-05)
(-0.000359454 0 4.3799e-05)
(-0.000384087 0 5.134e-05)
(-0.000401068 0 9.82146e-05)
(-0.000456139 0 0.000192488)
(-0.000589202 0 0.000264988)
(-0.000706482 0 0.000196696)
(-0.000748779 0 0.000104451)
(-0.000757144 0 5.47412e-05)
(-0.000761576 0 5.36743e-05)
(-0.000825322 0 0.00011685)
(-0.000897974 0 8.63022e-05)
(-0.000939027 0 4.31302e-05)
(-0.000968266 0 5.34315e-05)
(-0.00100497 0 5.00016e-05)
(-0.00103647 0 2.28986e-05)
(-0.0010576 0 1.43684e-05)
(-0.00107717 0 2.03753e-05)
(-0.00110122 0 7.65942e-06)
(-0.00112559 0 2.23264e-05)
(-0.00114469 0 4.40947e-06)
(-0.00114967 0 -2.43514e-05)
(-0.00110489 0 -0.000115155)
(-0.00106195 0 -5.43567e-05)
(-0.0010203 0 -7.54453e-05)
(-0.000968869 0 -0.000119617)
(-0.000919596 0 -7.52036e-05)
(-0.000847193 0 -0.000173823)
(-0.00080303 0 -7.15849e-05)
(-0.000746866 0 -0.00011822)
(-0.0006959 0 -0.000114488)
(-0.000650774 0 -0.000109173)
(-0.000611429 0 -0.000121927)
(-0.000577371 0 -0.000130329)
(-0.000543005 0 -0.000118761)
(-0.000495804 0 -0.000144105)
(-0.000421615 0 -0.000203584)
(-0.00036274 0 -0.00012325)
(-0.000265105 0 -4.52916e-05)
(-0.000162945 0 -5.39996e-05)
(-6.16463e-05 0 4.11177e-05)
(-5.43153e-05 0 -3.83107e-05)
(1.72311e-05 0 5.40318e-05)
(7.33622e-06 0 8.20408e-05)
(-2.41885e-05 0 8.03147e-05)
(-5.51695e-05 0 8.14523e-05)
(-7.57131e-05 0 9.5848e-05)
(-0.000259923 0 9.92678e-05)
(-0.000328862 0 8.50055e-05)
(-0.00035895 0 7.31154e-05)
(-0.00035826 0 3.03879e-05)
(-0.000291795 0 -6.42447e-05)
(-0.000244509 0 -0.000115577)
(-0.000194993 0 -0.00018306)
(-0.000512966 0 -0.0002636)
(4.54996e-06 0 -0.000270193)
(-1.71315e-12 0 -1.301e-13)
(-3.93359e-12 0 -8.88199e-14)
(-3.03872e-12 0 -1.33823e-13)
(-2.93435e-12 0 -1.80891e-13)
(-2.7977e-12 0 -2.25606e-13)
(-2.63178e-12 0 -2.66196e-13)
(-2.44007e-12 0 -3.01401e-13)
(-2.22667e-12 0 -3.30257e-13)
(-1.99615e-12 0 -3.52097e-13)
(-1.75346e-12 0 -3.66571e-13)
(-1.50364e-12 0 -3.73634e-13)
(-1.25168e-12 0 -3.73523e-13)
(-1.00228e-12 0 -3.66712e-13)
(-7.59768e-13 0 -3.53864e-13)
(-5.27945e-13 0 -3.3578e-13)
(-3.10033e-13 0 -3.13342e-13)
(-1.08634e-13 0 -2.8747e-13)
(7.42731e-14 0 -2.59071e-13)
(2.37309e-13 0 -2.2901e-13)
(3.79657e-13 0 -1.98079e-13)
(5.01002e-13 0 -1.66978e-13)
(6.01468e-13 0 -1.36306e-13)
(6.81548e-13 0 -1.06558e-13)
(7.42029e-13 0 -7.81236e-14)
(7.83928e-13 0 -5.12983e-14)
(8.08423e-13 0 -2.6289e-14)
(8.16804e-13 0 -3.22665e-15)
(8.10421e-13 0 1.78219e-14)
(7.90644e-13 0 3.68421e-14)
(7.58838e-13 0 5.38601e-14)
(7.16332e-13 0 6.89319e-14)
(6.6441e-13 0 8.21342e-14)
(6.04295e-13 0 9.35556e-14)
(5.37147e-13 0 1.0329e-13)
(4.64061e-13 0 1.1143e-13)
(3.86072e-13 0 1.18061e-13)
(3.04155e-13 0 1.2326e-13)
(2.19234e-13 0 1.27086e-13)
(1.32181e-13 0 1.29577e-13)
(4.41128e-14 0 1.3073e-13)
(-0.000208549 0 0.000211875)
(-0.000293954 0 0.000161153)
(-0.000258271 0 0.00017047)
(-0.000250643 0 0.000184393)
(-0.000301361 0 8.23563e-05)
(-0.000319608 0 4.40077e-05)
(-0.000333033 0 1.17552e-05)
(-0.000311919 0 -9.03372e-05)
(-0.000288105 0 -0.000104314)
(-0.000258696 0 -0.000135702)
(-0.000184412 0 -0.000195007)
(-0.000159239 0 -0.000151371)
(-0.000149249 0 -9.64053e-05)
(-0.000102015 0 -9.14585e-05)
(-7.99597e-05 0 -4.31801e-05)
(-3.86785e-05 0 -3.53559e-05)
(-3.59895e-05 0 3.16476e-05)
(-3.77546e-05 0 7.67413e-05)
(-6.51415e-05 0 9.31034e-05)
(-9.62253e-05 0 0.000105448)
(-0.000135835 0 9.98749e-05)
(-0.000164416 0 0.000108682)
(-0.000209417 0 0.000100841)
(-0.000260067 0 9.76842e-05)
(-0.00031494 0 0.000102)
(-0.000371658 0 9.48043e-05)
(-0.00043629 0 7.94794e-05)
(-0.000513031 0 6.84742e-05)
(-0.000561587 0 0.000136032)
(-0.000606366 0 0.000222014)
(-0.000679894 0 0.000199336)
(-0.000727446 0 0.000145326)
(-0.000747115 0 0.000102503)
(-0.000792932 0 3.88404e-05)
(-0.000859589 0 8.68746e-05)
(-0.000903113 0 0.000118955)
(-0.000934306 0 0.000107618)
(-0.000968966 0 6.03951e-05)
(-0.0010032 0 7.67189e-05)
(-0.00104178 0 5.03923e-05)
(-0.00107453 0 5.61501e-05)
(-0.00110785 0 3.7918e-05)
(-0.00113459 0 3.58764e-05)
(-0.00115511 0 4.24338e-05)
(-0.00117704 0 2.219e-05)
(-0.00118824 0 8.72738e-06)
(-0.00115276 0 -0.000173269)
(-0.00110813 0 -1.96658e-05)
(-0.00104687 0 -0.000199197)
(-0.00101362 0 -6.98014e-05)
(-0.000952983 0 -0.000136253)
(-0.000875975 0 -0.000213617)
(-0.000836264 0 -0.000107044)
(-0.000781412 0 -0.000166114)
(-0.000746784 0 -0.000134854)
(-0.000718348 0 -0.000118101)
(-0.000702219 0 -0.000115145)
(-0.00068874 0 -0.000119084)
(-0.000672435 0 -0.000128188)
(-0.000656017 0 -0.000135039)
(-0.000628238 0 -0.000154297)
(-0.000568492 0 -0.00015578)
(-0.000499542 0 -8.23123e-05)
(-0.000424297 0 -0.000108289)
(-0.00025528 0 -0.000273318)
(-0.000143192 0 -9.79107e-05)
(-5.81604e-05 0 6.95284e-05)
(1.44063e-05 0 0.000107224)
(4.25465e-05 0 0.000101156)
(5.269e-05 0 0.000110473)
(5.91553e-05 0 0.000151054)
(6.75959e-05 0 0.00018551)
(4.65647e-05 0 0.000153987)
(5.03687e-05 0 0.000111009)
(3.88893e-05 0 6.09731e-05)
(5.51484e-05 0 3.05985e-05)
(-2.54149e-05 0 -4.15012e-05)
(0.000307772 0 -8.20106e-05)
(-0.000452553 0 -0.000225703)
(5.41549e-06 0 -0.000300221)
(-1.85496e-12 0 -8.27264e-14)
(-3.9885e-12 0 -1.24804e-13)
(-3.10172e-12 0 -2.20476e-13)
(-2.99636e-12 0 -3.03971e-13)
(-2.85501e-12 0 -3.80588e-13)
(-2.68259e-12 0 -4.49669e-13)
(-2.48297e-12 0 -5.09434e-13)
(-2.26058e-12 0 -5.58276e-13)
(-2.02041e-12 0 -5.95073e-13)
(-1.7678e-12 0 -6.19249e-13)
(-1.50821e-12 0 -6.30765e-13)
(-1.24694e-12 0 -6.30058e-13)
(-9.89018e-13 0 -6.17973e-13)
(-7.38965e-13 0 -5.95675e-13)
(-5.00736e-13 0 -5.64557e-13)
(-2.77629e-13 0 -5.26147e-13)
(-7.22636e-14 0 -4.82024e-13)
(1.13421e-13 0 -4.33744e-13)
(2.78126e-13 0 -3.82775e-13)
(4.21145e-13 0 -3.30458e-13)
(5.42295e-13 0 -2.77971e-13)
(6.41837e-13 0 -2.26316e-13)
(7.20404e-13 0 -1.76314e-13)
(7.78916e-13 0 -1.28609e-13)
(8.18514e-13 0 -8.36814e-14)
(8.40486e-13 0 -4.18646e-14)
(8.46214e-13 0 -3.36323e-15)
(8.37126e-13 0 3.17246e-14)
(8.14656e-13 0 6.33874e-14)
(7.80212e-13 0 9.16807e-14)
(7.3516e-13 0 1.16709e-13)
(6.80802e-13 0 1.38608e-13)
(6.18375e-13 0 1.57535e-13)
(5.49041e-13 0 1.73652e-13)
(4.73889e-13 0 1.87119e-13)
(3.93944e-13 0 1.98085e-13)
(3.10164e-13 0 2.06682e-13)
(2.23456e-13 0 2.13021e-13)
(1.34681e-13 0 2.17188e-13)
(4.49406e-14 0 2.19255e-13)
(6.12509e-05 0 0.000306536)
(0.000142618 0 0.000338044)
(-0.000157984 0 0.000261079)
(-0.000199646 0 0.000187965)
(-0.000294098 0 1.99529e-05)
(-0.000300501 0 5.96115e-05)
(-0.000307758 0 2.60872e-05)
(-0.000281552 0 -0.000104827)
(-0.000254988 0 -0.00013777)
(-0.000225017 0 -0.000175674)
(-0.000174478 0 -0.000219188)
(-0.000159238 0 -0.000164599)
(-0.000144306 0 -0.000116599)
(-0.000104585 0 -0.000114982)
(-0.000108572 0 -6.82325e-05)
(-0.000102901 0 -1.20353e-05)
(-9.35849e-05 0 4.36177e-05)
(-8.11709e-05 0 8.5718e-05)
(-7.68411e-05 0 0.000128495)
(-8.67534e-05 0 0.000147652)
(-0.000117445 0 0.000146188)
(-0.000157149 0 0.000142534)
(-0.000207239 0 0.000141609)
(-0.000268704 0 0.000139328)
(-0.000333542 0 0.000141205)
(-0.000399426 0 0.000138832)
(-0.000482775 0 0.000134198)
(-0.000571034 0 0.000209318)
(-0.000613085 0 0.000257292)
(-0.000614982 0 0.000277544)
(-0.000648662 0 0.000232971)
(-0.000686862 0 0.000180002)
(-0.000725255 0 0.00013134)
(-0.000796704 0 0.000143228)
(-0.000852987 0 0.000198092)
(-0.000892186 0 0.000171893)
(-0.000931022 0 9.63335e-05)
(-0.00095158 0 0.000159449)
(-0.000995314 0 9.41661e-05)
(-0.00103012 0 0.000102234)
(-0.00106786 0 7.40801e-05)
(-0.00110027 0 5.98861e-05)
(-0.00112534 0 6.59101e-05)
(-0.00115264 0 4.41197e-05)
(-0.00117443 0 3.49438e-05)
(-0.00117855 0 9.33637e-06)
(-0.00114101 0 -0.00014777)
(-0.00108679 0 -0.0001639)
(-0.00103924 0 -0.000128188)
(-0.000967089 0 -0.000244044)
(-0.000937631 0 -0.000128347)
(-0.000840214 0 -0.000280092)
(-0.000805465 0 -0.00020198)
(-0.00076214 0 -0.00017915)
(-0.000726843 0 -0.000165163)
(-0.000709434 0 -0.000142801)
(-0.000703198 0 -0.000129508)
(-0.000689821 0 -0.000151499)
(-0.000675978 0 -0.000167468)
(-0.000672407 0 -0.000179547)
(-0.000674707 0 -0.000196123)
(-0.000644734 0 -0.0001844)
(-0.000602031 0 -0.000179995)
(-0.000494146 0 -0.00034566)
(-0.000475394 0 -0.00016294)
(-0.000354943 0 -4.12886e-05)
(-0.000193398 0 -0.000161117)
(-0.000113968 0 -4.22101e-05)
(2.71541e-05 0 5.09836e-05)
(8.62221e-05 0 8.00901e-05)
(0.000179713 0 8.68943e-05)
(0.000184275 0 0.000154791)
(0.000158555 0 0.00017013)
(0.000173284 0 0.000110833)
(0.000133669 0 0.000113004)
(0.000161261 0 -5.42221e-05)
(5.35666e-05 0 -9.60212e-05)
(0.000268556 0 -0.000176847)
(-0.000447066 0 -0.000229846)
(5.42336e-06 0 -0.000273142)
(-1.89627e-12 0 -1.98725e-13)
(-4.18537e-12 0 -2.03259e-13)
(-3.21762e-12 0 -3.19153e-13)
(-3.0944e-12 0 -4.33886e-13)
(-2.9434e-12 0 -5.43129e-13)
(-2.76063e-12 0 -6.42487e-13)
(-2.54868e-12 0 -7.28426e-13)
(-2.31231e-12 0 -7.98381e-13)
(-2.05712e-12 0 -8.50707e-13)
(-1.78915e-12 0 -8.84626e-13)
(-1.51445e-12 0 -9.00152e-13)
(-1.23889e-12 0 -8.98e-13)
(-9.67898e-13 0 -8.79474e-13)
(-7.06352e-13 0 -8.46331e-13)
(-4.58416e-13 0 -8.00649e-13)
(-2.275e-13 0 -7.44686e-13)
(-1.62306e-14 0 -6.80755e-13)
(1.73522e-13 0 -6.11116e-13)
(3.40595e-13 0 -5.37891e-13)
(4.84461e-13 0 -4.62997e-13)
(6.05144e-13 0 -3.88109e-13)
(7.03126e-13 0 -3.14638e-13)
(7.79256e-13 0 -2.43727e-13)
(8.34662e-13 0 -1.76261e-13)
(8.70672e-13 0 -1.12891e-13)
(8.88741e-13 0 -5.40556e-14)
(8.90393e-13 0 -1.21341e-17)
(8.77171e-13 0 4.91308e-14)
(8.506e-13 0 9.33848e-14)
(8.12159e-13 0 1.32853e-13)
(7.6326e-13 0 1.67703e-13)
(7.05236e-13 0 1.98146e-13)
(6.39339e-13 0 2.24417e-13)
(5.66731e-13 0 2.46759e-13)
(4.88495e-13 0 2.65405e-13)
(4.05636e-13 0 2.80575e-13)
(3.19091e-13 0 2.92461e-13)
(2.2974e-13 0 3.01227e-13)
(1.38415e-13 0 3.06997e-13)
(4.61804e-14 0 3.09864e-13)
(-8.9978e-05 0 0.000299277)
(-0.000101344 0 0.000352985)
(-0.000200863 0 0.000306651)
(-0.0001219 0 0.00027671)
(-0.000236451 0 0.00015323)
(-0.000204294 0 0.000133682)
(-0.000228433 0 1.95623e-05)
(-0.00021274 0 -0.000193037)
(-0.000190824 0 -0.000224001)
(-0.000154752 0 -0.000250806)
(-0.000103593 0 -0.000262095)
(-0.000124832 0 -0.000193131)
(-0.000118477 0 -0.000138365)
(-0.000102592 0 -0.000118195)
(-0.000126 0 -6.18803e-05)
(-0.000131538 0 -1.16939e-06)
(-0.000125518 0 7.41782e-06)
(-0.000130846 0 7.46487e-05)
(-0.000136352 0 9.90405e-05)
(-0.000140324 0 0.000133951)
(-0.00015211 0 0.000159283)
(-0.000183336 0 0.000175979)
(-0.000233568 0 0.000191605)
(-0.000286673 0 0.00021479)
(-0.000350132 0 0.000230776)
(-0.000418944 0 0.000234305)
(-0.000464507 0 0.000270963)
(-0.000558945 0 0.000261187)
(-0.000634902 0 0.000267177)
(-0.00066225 0 0.000265558)
(-0.00066624 0 0.000261755)
(-0.000688413 0 0.000215971)
(-0.000722649 0 0.000155845)
(-0.000778548 0 0.00020335)
(-0.000838614 0 0.000207674)
(-0.00087238 0 0.000198205)
(-0.000905211 0 0.000154092)
(-0.000935257 0 0.000149964)
(-0.000970768 0 0.00012337)
(-0.000996127 0 0.000138035)
(-0.00102603 0 0.000101336)
(-0.0010471 0 9.84603e-05)
(-0.00106383 0 6.71363e-05)
(-0.00107806 0 5.38509e-05)
(-0.00108129 0 5.0544e-05)
(-0.00107147 0 -2.72639e-05)
(-0.00105248 0 -0.000222417)
(-0.000967419 0 -0.000258995)
(-0.000897592 0 -0.000237756)
(-0.00085379 0 -0.000250041)
(-0.000784832 0 -0.00026804)
(-0.000691153 0 -0.000323176)
(-0.000670132 0 -0.00024647)
(-0.000632328 0 -0.000208396)
(-0.000614661 0 -0.00018292)
(-0.000619562 0 -0.00014898)
(-0.000639192 0 -0.00011551)
(-0.000636735 0 -0.000129429)
(-0.000638812 0 -0.000175786)
(-0.000664836 0 -0.000187139)
(-0.000672358 0 -0.000190722)
(-0.000631136 0 -0.000241905)
(-0.00060029 0 -0.000284216)
(-0.000583858 0 -0.00032597)
(-0.000458517 0 -0.000407475)
(-0.000423501 0 -0.000272195)
(-0.000303816 0 -0.000272834)
(-0.000268538 0 -0.000116995)
(-0.000137276 0 -8.44514e-05)
(1.28977e-05 0 -2.58621e-05)
(0.000144775 0 4.96409e-05)
(0.000176726 0 0.000179484)
(0.000228844 0 0.000111279)
(0.000228459 0 7.96621e-05)
(0.000221374 0 6.00185e-05)
(0.000221814 0 -2.073e-05)
(0.000100635 0 -5.94813e-05)
(0.000475913 0 -6.54733e-05)
(-0.000509651 0 -6.64952e-05)
(5.73372e-06 0 -0.000246432)
(-1.95236e-12 0 -3.82817e-13)
(-4.24004e-12 0 -2.86631e-13)
(-3.33208e-12 0 -4.18846e-13)
(-3.22027e-12 0 -5.69252e-13)
(-3.06361e-12 0 -7.1559e-13)
(-2.86788e-12 0 -8.48769e-13)
(-2.63887e-12 0 -9.63459e-13)
(-2.38286e-12 0 -1.05618e-12)
(-2.10665e-12 0 -1.12482e-12)
(-1.81725e-12 0 -1.16847e-12)
(-1.52158e-12 0 -1.18729e-12)
(-1.22627e-12 0 -1.18239e-12)
(-9.37349e-13 0 -1.15566e-12)
(-6.60141e-13 0 -1.1096e-12)
(-3.9909e-13 0 -1.04709e-12)
(-1.57735e-13 0 -9.71258e-13)
(6.13066e-14 0 -8.85252e-13)
(2.56285e-13 0 -7.92125e-13)
(4.26245e-13 0 -6.94715e-13)
(5.70927e-13 0 -5.9556e-13)
(6.90653e-13 0 -4.9685e-13)
(7.8622e-13 0 -4.0041e-13)
(8.58781e-13 0 -3.07695e-13)
(9.09752e-13 0 -2.19812e-13)
(9.4072e-13 0 -1.37556e-13)
(9.53365e-13 0 -6.14393e-14)
(9.494e-13 0 8.25711e-15)
(9.30523e-13 0 7.14457e-14)
(8.98377e-13 0 1.2819e-13)
(8.5453e-13 0 1.78665e-13)
(8.00453e-13 0 2.23126e-13)
(7.37517e-13 0 2.6188e-13)
(6.66988e-13 0 2.95255e-13)
(5.90028e-13 0 3.23585e-13)
(5.07706e-13 0 3.47192e-13)
(4.21e-13 0 3.66373e-13)
(3.30815e-13 0 3.81387e-13)
(2.37992e-13 0 3.92452e-13)
(1.43318e-13 0 3.99735e-13)
(4.78078e-14 0 4.03352e-13)
(-0.000101703 0 0.000335052)
(-0.000146081 0 0.000381419)
(-4.26206e-05 0 0.000395868)
(-0.000248955 0 0.000212333)
(-0.000217596 0 0.000123779)
(-0.000188142 0 4.23899e-05)
(-0.000183032 0 2.31277e-05)
(-0.000203668 0 -9.16886e-05)
(-0.000178913 0 -0.000210996)
(-0.000142138 0 -0.000250069)
(-0.000127601 0 -0.000244975)
(-9.38715e-05 0 -0.000213668)
(-7.34796e-05 0 -0.000162837)
(-0.000105223 0 -9.65899e-05)
(-0.000125061 0 -5.6748e-05)
(-0.000159826 0 1.28649e-05)
(-0.000174796 0 6.55785e-05)
(-0.000178914 0 0.000131713)
(-0.000178288 0 0.000161797)
(-0.000197437 0 0.000169027)
(-0.00020751 0 0.000200902)
(-0.000245103 0 0.000216761)
(-0.000295318 0 0.000243276)
(-0.000353023 0 0.000263623)
(-0.000414482 0 0.000269381)
(-0.000491877 0 0.000248006)
(-0.000549301 0 0.000238784)
(-0.000583153 0 0.000270228)
(-0.000597924 0 0.000348556)
(-0.000651539 0 0.000322789)
(-0.000688533 0 0.000283275)
(-0.000701705 0 0.000261134)
(-0.000722504 0 0.000221214)
(-0.000771876 0 0.000233075)
(-0.000804958 0 0.000259177)
(-0.000835953 0 0.000222771)
(-0.00087164 0 0.00015317)
(-0.000888215 0 0.000183486)
(-0.000904661 0 0.000176266)
(-0.000923609 0 0.000151555)
(-0.000941927 0 0.000126019)
(-0.000947528 0 0.000127221)
(-0.000946973 0 9.15463e-05)
(-0.000942405 0 8.54126e-05)
(-0.000946546 0 -7.98007e-07)
(-0.000964737 0 -0.000110392)
(-0.000980717 0 -0.000138938)
(-0.000862312 0 -0.000390902)
(-0.00079076 0 -0.000344087)
(-0.000762836 0 -0.000254642)
(-0.000612334 0 -0.000383873)
(-0.000496235 0 -0.000387226)
(-0.000458249 0 -0.000289802)
(-0.000409368 0 -0.000236268)
(-0.00040965 0 -0.000182136)
(-0.000430225 0 -0.000125912)
(-0.000484215 0 -7.01047e-05)
(-0.000499018 0 -0.000122485)
(-0.000559656 0 -0.000134561)
(-0.000611898 0 -0.000140731)
(-0.000624162 0 -0.000182552)
(-0.000604588 0 -0.000276299)
(-0.000608215 0 -0.000294974)
(-0.000594101 0 -0.00033349)
(-0.00048187 0 -0.000443074)
(-0.000411407 0 -0.000409516)
(-0.000440876 0 -0.000218759)
(-0.000332217 0 -0.000208679)
(-0.000230075 0 -0.000228335)
(-0.000149755 0 -0.000213479)
(-0.000135496 0 -0.00016844)
(0.000171171 0 0.000143386)
(0.000187343 0 0.000103871)
(0.000187455 0 9.05746e-05)
(0.000185283 0 7.36174e-05)
(0.000189193 0 -1.04076e-05)
(6.89029e-05 0 -8.42558e-05)
(0.000546265 0 -9.24218e-05)
(-0.00057832 0 7.98735e-05)
(5.48125e-06 0 -0.000239074)
(-1.99486e-12 0 -1.10566e-13)
(-4.36027e-12 0 -2.70974e-13)
(-3.49998e-12 0 -5.00208e-13)
(-3.39108e-12 0 -7.08645e-13)
(-3.22292e-12 0 -9.01249e-13)
(-3.00849e-12 0 -1.07359e-12)
(-2.75609e-12 0 -1.22053e-12)
(-2.47367e-12 0 -1.33814e-12)
(-2.16941e-12 0 -1.42402e-12)
(-1.85162e-12 0 -1.47723e-12)
(-1.52837e-12 0 -1.49823e-12)
(-1.20726e-12 0 -1.48869e-12)
(-8.95108e-13 0 -1.45128e-12)
(-5.97784e-13 0 -1.3894e-12)
(-3.20079e-13 0 -1.30696e-12)
(-6.56604e-14 0 -1.20809e-12)
(1.62902e-13 0 -1.09695e-12)
(3.64059e-13 0 -9.77491e-13)
(5.3716e-13 0 -8.53345e-13)
(6.82326e-13 0 -7.27723e-13)
(8.00294e-13 0 -6.03356e-13)
(8.92282e-13 0 -4.82478e-13)
(9.59853e-13 0 -3.6684e-13)
(1.0048e-12 0 -2.5774e-13)
(1.02905e-12 0 -1.56075e-13)
(1.03455e-12 0 -6.23932e-14)
(1.02328e-12 0 2.30478e-14)
(9.97104e-13 0 1.00222e-13)
(9.57819e-13 0 1.69281e-13)
(9.07096e-13 0 2.3051e-13)
(8.46475e-13 0 2.84279e-13)
(7.77364e-13 0 3.31014e-13)
(7.01044e-13 0 3.71158e-13)
(6.18668e-13 0 4.05156e-13)
(5.31283e-13 0 4.33429e-13)
(4.3983e-13 0 4.5636e-13)
(3.4517e-13 0 4.74285e-13)
(2.48087e-13 0 4.87481e-13)
(1.49315e-13 0 4.9616e-13)
(4.97973e-14 0 5.00469e-13)
(-7.64474e-05 0 0.000429838)
(-8.27274e-05 0 0.000473648)
(3.64869e-05 0 0.000413722)
(-0.0001883 0 0.000275721)
(-9.03795e-05 0 0.000222046)
(-0.000167113 0 6.87562e-05)
(-0.000146143 0 -6.963e-07)
(-0.000132767 0 -9.16774e-05)
(-9.03076e-05 0 -0.000262839)
(-0.000107438 0 -0.000275208)
(-8.739e-05 0 -0.000277163)
(-9.95283e-05 0 -0.000210029)
(-0.000105467 0 -0.000124865)
(-0.000119172 0 -6.58843e-05)
(-0.000126874 0 -4.44634e-05)
(-0.000183357 0 7.43324e-06)
(-0.000211868 0 2.51155e-05)
(-0.000224957 0 5.41481e-05)
(-0.000234992 0 0.000141559)
(-0.000240991 0 0.000207731)
(-0.000268608 0 0.000236146)
(-0.000285923 0 0.00029296)
(-0.000315389 0 0.000342012)
(-0.00039028 0 0.000347177)
(-0.000432574 0 0.000366837)
(-0.000457543 0 0.000396259)
(-0.00052572 0 0.000378916)
(-0.00058612 0 0.000354714)
(-0.000625922 0 0.000342535)
(-0.000660941 0 0.00033206)
(-0.000681412 0 0.000321831)
(-0.000697567 0 0.000300382)
(-0.000733526 0 0.000244544)
(-0.000753105 0 0.000265511)
(-0.000761561 0 0.000290535)
(-0.000781187 0 0.000257382)
(-0.00080009 0 0.000206251)
(-0.000801895 0 0.000201626)
(-0.000802256 0 0.000169515)
(-0.00079895 0 0.000159313)
(-0.000805612 0 0.00012683)
(-0.000808867 0 0.00011848)
(-0.000804507 0 6.14593e-05)
(-0.00079633 0 5.81914e-05)
(-0.000827626 0 2.01893e-05)
(-0.000864607 0 -1.17574e-05)
(-0.000841239 0 -0.000178128)
(-0.000791524 0 -0.000277122)
(-0.000592196 0 -0.000590351)
(-0.000680682 0 -0.000300699)
(-0.000482878 0 -0.000471603)
(-0.000361049 0 -0.000450092)
(-0.000249662 0 -0.000348945)
(-0.000156623 0 -0.000254795)
(-0.00016406 0 -0.0001586)
(-0.000197278 0 -9.26442e-05)
(-0.000277576 0 -4.66959e-05)
(-0.000314464 0 -6.61526e-05)
(-0.000408458 0 -8.78002e-05)
(-0.000478239 0 -0.00012652)
(-0.000509638 0 -0.00019321)
(-0.000508424 0 -0.000301495)
(-0.000550717 0 -0.000316239)
(-0.000516649 0 -0.000406254)
(-0.000549077 0 -0.00037617)
(-0.000422038 0 -0.000454022)
(-0.000430474 0 -0.000335785)
(-0.00032385 0 -0.000338998)
(-0.000305985 0 -0.000264759)
(-0.000220576 0 -0.000268485)
(-0.000194703 0 -0.000184903)
(-0.000144671 0 -9.29759e-05)
(8.43051e-05 0 6.14705e-05)
(0.000103104 0 8.74489e-05)
(0.000103947 0 7.13152e-05)
(8.0562e-05 0 3.13729e-05)
(1.59016e-05 0 -5.09095e-05)
(-0.000203788 0 5.12777e-05)
(-0.000662221 0 6.12384e-05)
(4.29116e-06 0 -0.000271462)
(-2.07147e-12 0 -1.78603e-13)
(-4.77614e-12 0 -3.28878e-13)
(-3.7695e-12 0 -6.02217e-13)
(-3.62125e-12 0 -8.6381e-13)
(-3.42855e-12 0 -1.10721e-12)
(-3.18716e-12 0 -1.32385e-12)
(-2.90342e-12 0 -1.50698e-12)
(-2.58635e-12 0 -1.65192e-12)
(-2.24574e-12 0 -1.75597e-12)
(-1.89146e-12 0 -1.81831e-12)
(-1.53305e-12 0 -1.83984e-12)
(-1.17931e-12 0 -1.823e-12)
(-8.38052e-13 0 -1.77148e-12)
(-5.1582e-13 0 -1.68988e-12)
(-2.17787e-13 0 -1.58336e-12)
(5.22706e-14 0 -1.45732e-12)
(2.9191e-13 0 -1.31707e-12)
(4.99891e-13 0 -1.16763e-12)
(6.76013e-13 0 -1.01353e-12)
(8.20915e-13 0 -8.58696e-13)
(9.35898e-13 0 -7.06422e-13)
(1.02274e-12 0 -5.59342e-13)
(1.08352e-12 0 -4.19468e-13)
(1.12052e-12 0 -2.88243e-13)
(1.13607e-12 0 -1.66613e-13)
(1.13249e-12 0 -5.50986e-14)
(1.11202e-12 0 4.61188e-14)
(1.07676e-12 0 1.37129e-13)
(1.02867e-12 0 2.18224e-13)
(9.69528e-13 0 2.89837e-13)
(9.00957e-13 0 3.52492e-13)
(8.24396e-13 0 4.06761e-13)
(7.4113e-13 0 4.53233e-13)
(6.52299e-13 0 4.92478e-13)
(5.5891e-13 0 5.25032e-13)
(4.61856e-13 0 5.51379e-13)
(3.61936e-13 0 5.71938e-13)
(2.59867e-13 0 5.87051e-13)
(1.56307e-13 0 5.96983e-13)
(5.21165e-14 0 6.0191e-13)
(-4.22582e-05 0 0.00048978)
(-2.82329e-05 0 0.000493045)
(7.5566e-06 0 0.000417322)
(-0.000141852 0 0.000302428)
(-7.6779e-05 0 0.00021745)
(-0.000157363 0 5.50364e-05)
(-0.000131468 0 -7.31714e-06)
(-0.000108849 0 -0.000138294)
(-9.8422e-05 0 -0.000240636)
(-0.000116794 0 -0.000276514)
(-0.000109243 0 -0.000281676)
(-0.000105926 0 -0.000226545)
(-0.000107863 0 -0.000142001)
(-0.000126162 0 -7.30422e-05)
(-0.000163738 0 1.97542e-05)
(-0.000199977 0 7.92726e-05)
(-0.000218019 0 0.000101067)
(-0.00023353 0 0.000127581)
(-0.000251722 0 0.000159943)
(-0.000296368 0 0.000169896)
(-0.000320528 0 0.000239547)
(-0.000346538 0 0.000308598)
(-0.000385445 0 0.00035576)
(-0.000426915 0 0.000394651)
(-0.000488538 0 0.000385894)
(-0.000525562 0 0.000382127)
(-0.000578283 0 0.00036678)
(-0.000619797 0 0.000378342)
(-0.000636349 0 0.000401664)
(-0.000669202 0 0.000369943)
(-0.000683407 0 0.000345454)
(-0.000690472 0 0.000317239)
(-0.000718265 0 0.000265177)
(-0.00072789 0 0.000258183)
(-0.000722191 0 0.000272841)
(-0.000715545 0 0.000270955)
(-0.000719047 0 0.00018243)
(-0.000693956 0 0.000168807)
(-0.000665561 0 0.000182085)
(-0.000652308 0 0.000143885)
(-0.000641126 0 0.000139126)
(-0.000639005 0 0.000128154)
(-0.000629968 0 0.000103152)
(-0.000611622 0 8.28792e-05)
(-0.000604567 0 3.87714e-05)
(-0.000622087 0 -7.43877e-05)
(-0.000564636 0 -0.000306054)
(-0.000494716 0 -0.000432709)
(-0.000468463 0 -0.000462515)
(-0.000413145 0 -0.000545801)
(-0.000388171 0 -0.00050713)
(-7.36721e-05 0 -0.000606878)
(-0.000114066 0 -0.000398088)
(5.1732e-05 0 -0.000256769)
(5.13317e-05 0 -8.20524e-05)
(1.36636e-05 0 -4.06693e-06)
(-6.79882e-05 0 7.89697e-05)
(-0.000124226 0 1.33936e-05)
(-0.000231547 0 -4.38758e-06)
(-0.000308273 0 -1.59952e-05)
(-0.000360215 0 -0.000138202)
(-0.000360227 0 -0.000278232)
(-0.000424795 0 -0.000350868)
(-0.000370222 0 -0.000475683)
(-0.000468324 0 -0.000426106)
(-0.000510398 0 -0.000370941)
(-0.0003921 0 -0.000426929)
(-0.000369221 0 -0.000362388)
(-0.000325412 0 -0.000325941)
(-0.000262287 0 -0.000312886)
(-0.000270443 0 -0.000220226)
(-0.000200424 0 -0.000156661)
(-0.000133286 0 -8.13408e-05)
(-4.95033e-05 0 3.61138e-05)
(-3.68161e-05 0 6.0533e-05)
(-4.96697e-05 0 7.29944e-05)
(-6.04009e-05 0 8.55013e-05)
(-0.000100046 0 6.80043e-05)
(-0.000672766 0 -2.28656e-05)
(5.61563e-06 0 -0.000445124)
(-2.53013e-12 0 -5.2762e-13)
(-4.94859e-12 0 -4.2392e-13)
(-4.03466e-12 0 -7.15812e-13)
(-3.896e-12 0 -1.03708e-12)
(-3.68296e-12 0 -1.33993e-12)
(-3.40827e-12 0 -1.60766e-12)
(-3.08417e-12 0 -1.83167e-12)
(-2.72266e-12 0 -2.00666e-12)
(-2.3358e-12 0 -2.12975e-12)
(-1.93548e-12 0 -2.20032e-12)
(-1.53306e-12 0 -2.21994e-12)
(-1.1389e-12 0 -2.19212e-12)
(-7.61985e-13 0 -2.1219e-12)
(-4.09666e-13 0 -2.01541e-12)
(-8.75207e-14 0 -1.87942e-12)
(2.00628e-13 0 -1.72088e-12)
(4.52588e-13 0 -1.54651e-12)
(6.67602e-13 0 -1.36255e-12)
(8.46098e-13 0 -1.17454e-12)
(9.89433e-13 0 -9.87193e-13)
(1.09965e-12 0 -8.04361e-13)
(1.17924e-12 0 -6.29051e-13)
(1.23095e-12 0 -4.63482e-13)
(1.25766e-12 0 -3.09173e-13)
(1.26219e-12 0 -1.67041e-13)
(1.24729e-12 0 -3.75048e-14)
(1.21551e-12 0 7.94074e-14)
(1.16921e-12 0 1.83969e-13)
(1.11053e-12 0 2.7667e-13)
(1.04136e-12 0 3.58145e-13)
(9.634e-13 0 4.29115e-13)
(8.78106e-13 0 4.90336e-13)
(7.8676e-13 0 5.42563e-13)
(6.90468e-13 0 5.86519e-13)
(5.90184e-13 0 6.22872e-13)
(4.86736e-13 0 6.52217e-13)
(3.80841e-13 0 6.75065e-13)
(2.73132e-13 0 6.91833e-13)
(1.64174e-13 0 7.02839e-13)
(5.47247e-14 0 7.08295e-13)
(-3.65275e-05 0 0.000481801)
(-1.9977e-05 0 0.00048841)
(-3.66149e-05 0 0.000432648)
(-0.000121564 0 0.000328267)
(-9.9613e-05 0 0.000214848)
(-0.000110658 0 9.07017e-05)
(-8.51128e-05 0 5.6374e-06)
(-7.35181e-05 0 -0.000126577)
(-9.51686e-05 0 -0.000232364)
(-0.000123277 0 -0.000278252)
(-0.000117501 0 -0.000282996)
(-0.000160332 0 -0.000196853)
(-0.000191647 0 -0.000100424)
(-0.000198199 0 -4.3498e-05)
(-0.000214656 0 2.32585e-05)
(-0.000205947 0 6.92433e-05)
(-0.000202874 0 8.75683e-05)
(-0.000230286 0 0.000123822)
(-0.000270136 0 0.000179938)
(-0.000281437 0 0.000257775)
(-0.000351209 0 0.000267935)
(-0.00038595 0 0.000329469)
(-0.000399586 0 0.000396672)
(-0.000443398 0 0.0004213)
(-0.000467202 0 0.000456811)
(-0.000496498 0 0.000466801)
(-0.000543084 0 0.000450919)
(-0.000592912 0 0.000438172)
(-0.000641441 0 0.000415358)
(-0.00066509 0 0.000396972)
(-0.000691152 0 0.000347345)
(-0.000698729 0 0.000297481)
(-0.00070227 0 0.000281937)
(-0.000693979 0 0.000270178)
(-0.000646501 0 0.000295017)
(-0.000634889 0 0.000264288)
(-0.00063122 0 0.000168874)
(-0.000573851 0 0.000169845)
(-0.00054219 0 0.000128616)
(-0.000502441 0 0.000145034)
(-0.000483858 0 0.000124969)
(-0.000471684 0 0.000122315)
(-0.00046072 0 4.68727e-05)
(-0.000396617 0 4.00964e-05)
(-0.000342233 0 -1.87747e-06)
(-0.000320368 0 -5.60721e-05)
(-0.00030113 0 -0.000266986)
(-0.000212806 0 -0.000451168)
(-0.000224858 0 -0.00051133)
(-0.000222899 0 -0.000636578)
(-2.46983e-05 0 -0.000810088)