0 	1.08887e-20 	0 	-1.08887e-20
0.010101 	3.31482e-20 	1.70329e-25 	-3.56506e-20
0.020202 	-2.47218e-21 	-1.688e-22 	-8.0334e-20
0.030303 	-1.48885e-20 	-2.03105e-22 	-5.83806e-20
0.040404 	-3.58498e-20 	-6.75881e-23 	-6.77465e-20
0.0505051 	-4.1508e-21 	-3.41347e-23 	4.62822e-20
