/*--------------------------------*- C++ -*----------------------------------*\
  =========                 |
  \\      /  F ield         | OpenFOAM: The Open Source CFD Toolbox
   \\    /   O peration     | Website:  https://openfoam.org
    \\  /    A nd           | Version:  6
     \\/     M anipulation  |
\*---------------------------------------------------------------------------*/
FoamFile
{
    version     2.0;
    format      ascii;
    class       volVectorField;
    location    "7200";
    object      U;
}
// * * * * * * * * * * * * * * * * * * * * * * * * * * * * * * * * * * * * * //

dimensions      [0 1 -1 0 0 0 0];

internalField   nonuniform List<vector> 
4800
(
(9.70207e-09 0 -7.94468e-09)
(2.57234e-08 0 -1.09413e-08)
(4.28489e-08 0 -1.20439e-08)
(5.98445e-08 0 -1.21721e-08)
(7.65506e-08 0 -1.19529e-08)
(9.30818e-08 0 -1.15991e-08)
(1.095e-07 0 -1.11843e-08)
(1.25885e-07 0 -1.0787e-08)
(1.42351e-07 0 -1.04393e-08)
(1.59042e-07 0 -1.01988e-08)
(1.76113e-07 0 -1.00442e-08)
(1.93721e-07 0 -1.00347e-08)
(2.12033e-07 0 -1.01696e-08)
(2.3118e-07 0 -1.03834e-08)
(2.51216e-07 0 -1.06607e-08)
(2.72146e-07 0 -1.09617e-08)
(2.94018e-07 0 -1.13337e-08)
(3.17215e-07 0 -1.2075e-08)
(3.41621e-07 0 -1.2494e-08)
(3.66686e-07 0 -1.2705e-08)
(3.92494e-07 0 -1.28852e-08)
(4.19255e-07 0 -1.37446e-08)
(4.46667e-07 0 -1.35871e-08)
(4.74154e-07 0 -1.36237e-08)
(5.01639e-07 0 -1.36319e-08)
(5.29017e-07 0 -1.34345e-08)
(5.55916e-07 0 -1.31041e-08)
(5.82064e-07 0 -1.26605e-08)
(6.07226e-07 0 -1.20675e-08)
(6.31164e-07 0 -1.13879e-08)
(6.53666e-07 0 -1.06015e-08)
(6.74518e-07 0 -9.71578e-09)
(6.9356e-07 0 -8.7649e-09)
(7.10635e-07 0 -7.73322e-09)
(7.25629e-07 0 -6.67276e-09)
(7.38457e-07 0 -5.55717e-09)
(7.49053e-07 0 -4.44174e-09)
(7.57381e-07 0 -3.29321e-09)
(7.6344e-07 0 -2.1713e-09)
(7.67242e-07 0 -1.04997e-09)
(7.6883e-07 0 2.97643e-11)
(7.68226e-07 0 1.12108e-09)
(7.655e-07 0 2.14966e-09)
(7.60744e-07 0 3.11938e-09)
(7.54032e-07 0 4.10847e-09)
(7.4544e-07 0 4.99771e-09)
(7.34988e-07 0 5.88935e-09)
(7.22902e-07 0 6.60862e-09)
(7.09273e-07 0 7.37733e-09)
(6.94159e-07 0 8.05116e-09)
(6.77701e-07 0 8.67265e-09)
(6.5999e-07 0 9.26724e-09)
(6.41124e-07 0 9.76457e-09)
(6.21243e-07 0 1.02145e-08)
(6.00442e-07 0 1.06175e-08)
(5.78843e-07 0 1.09291e-08)
(5.56565e-07 0 1.12285e-08)
(5.33694e-07 0 1.14325e-08)
(5.10326e-07 0 1.16437e-08)
(4.86543e-07 0 1.17524e-08)
(4.62461e-07 0 1.18225e-08)
(4.38176e-07 0 1.18584e-08)
(4.13745e-07 0 1.18648e-08)
(3.89227e-07 0 1.18316e-08)
(3.64689e-07 0 1.17651e-08)
(3.40202e-07 0 1.16597e-08)
(3.15814e-07 0 1.15446e-08)
(2.91558e-07 0 1.14041e-08)
(2.67466e-07 0 1.12535e-08)
(2.4361e-07 0 1.10577e-08)
(2.20061e-07 0 1.08507e-08)
(1.96887e-07 0 1.06151e-08)
(1.74243e-07 0 1.03177e-08)
(1.52506e-07 0 9.81191e-09)
(1.32774e-07 0 8.907e-09)
(1.17432e-07 0 6.99848e-09)
(1.1035e-07 0 -7.58815e-09)
(8.36629e-08 0 1.1372e-08)
(1.92991e-10 0 3.0622e-08)
(7.36084e-16 0 -2.1962e-17)
(3.69483e-16 0 -6.20386e-20)
(7.23504e-16 0 2.21271e-18)
(7.12585e-16 0 2.91581e-18)
(6.95897e-16 0 3.37076e-18)
(6.79767e-16 0 3.80503e-18)
(6.64547e-16 0 4.27032e-18)
(6.49978e-16 0 4.73561e-18)
(6.35781e-16 0 5.22158e-18)
(6.21709e-16 0 5.69721e-18)
(6.07564e-16 0 6.1625e-18)
(5.93223e-16 0 6.60711e-18)
(5.78603e-16 0 7.0207e-18)
(5.6361e-16 0 7.40327e-18)
(5.48214e-16 0 7.75482e-18)
(5.32353e-16 0 8.07535e-18)
(5.16006e-16 0 8.3752e-18)
(4.99214e-16 0 8.64404e-18)
(4.81988e-16 0 8.89219e-18)
(4.64286e-16 0 9.10933e-18)
(4.46119e-16 0 9.31612e-18)
(4.27539e-16 0 9.50224e-18)
(4.08514e-16 0 9.67801e-18)
(3.89064e-16 0 9.85379e-18)
(3.69202e-16 0 9.99855e-18)
(3.48946e-16 0 1.01226e-17)
(3.28318e-16 0 1.02364e-17)
(3.07277e-16 0 1.03501e-17)
(2.85874e-16 0 1.04432e-17)
(2.6415e-16 0 1.05259e-17)
(2.42116e-16 0 1.05983e-17)
(2.19813e-16 0 1.06913e-17)
(1.97262e-16 0 1.0743e-17)
(1.74442e-16 0 1.07947e-17)
(1.51405e-16 0 1.08361e-17)
(1.28223e-16 0 1.08671e-17)
(1.04897e-16 0 1.08671e-17)
(8.14876e-17 0 1.08671e-17)
(5.80164e-17 0 1.08361e-17)
(3.45762e-17 0 1.0774e-17)
(1.14461e-17 0 1.05155e-17)
(9.41668e-09 0 -2.60597e-08)
(2.64752e-08 0 -2.33941e-08)
(4.2857e-08 0 -2.25229e-08)
(5.97405e-08 0 -2.21144e-08)
(7.63255e-08 0 -2.19486e-08)
(9.27522e-08 0 -2.19522e-08)
(1.09062e-07 0 -2.21059e-08)
(1.25334e-07 0 -2.24492e-08)
(1.41685e-07 0 -2.2982e-08)
(1.58245e-07 0 -2.37473e-08)
(1.75184e-07 0 -2.47433e-08)
(1.92698e-07 0 -2.597e-08)
(2.1094e-07 0 -2.7437e-08)
(2.3002e-07 0 -2.88762e-08)
(2.49988e-07 0 -3.03749e-08)
(2.70881e-07 0 -3.16904e-08)
(2.92806e-07 0 -3.32235e-08)
(3.16114e-07 0 -3.58128e-08)
(3.40598e-07 0 -3.72225e-08)
(3.65759e-07 0 -3.80013e-08)
(3.9179e-07 0 -3.87329e-08)
(4.18748e-07 0 -4.1362e-08)
(4.46366e-07 0 -4.10481e-08)
(4.74072e-07 0 -4.12087e-08)
(5.01838e-07 0 -4.13723e-08)
(5.29503e-07 0 -4.08305e-08)
(5.56659e-07 0 -3.98726e-08)
(5.83053e-07 0 -3.86049e-08)
(6.0846e-07 0 -3.68645e-08)
(6.32623e-07 0 -3.4862e-08)
(6.55328e-07 0 -3.25247e-08)
(6.76361e-07 0 -2.98777e-08)
(6.95555e-07 0 -2.70232e-08)
(7.12743e-07 0 -2.39232e-08)
(7.2781e-07 0 -2.07078e-08)
(7.40688e-07 0 -1.73829e-08)
(7.51315e-07 0 -1.39942e-08)
(7.59653e-07 0 -1.05395e-08)
(7.65701e-07 0 -7.14022e-09)
(7.69473e-07 0 -3.75787e-09)
(7.70997e-07 0 -4.44969e-10)
(7.70326e-07 0 2.81096e-09)
(7.67547e-07 0 5.94147e-09)
(7.62704e-07 0 8.91642e-09)
(7.55895e-07 0 1.18666e-08)
(7.47222e-07 0 1.46195e-08)
(7.3669e-07 0 1.73271e-08)
(7.24496e-07 0 1.95706e-08)
(7.10757e-07 0 2.18849e-08)
(6.95552e-07 0 2.39895e-08)
(6.7899e-07 0 2.59238e-08)
(6.61162e-07 0 2.77912e-08)
(6.42177e-07 0 2.93913e-08)
(6.22181e-07 0 3.08178e-08)
(6.01277e-07 0 3.21361e-08)
(5.79579e-07 0 3.31958e-08)
(5.57196e-07 0 3.4206e-08)
(5.34221e-07 0 3.49897e-08)
(5.10744e-07 0 3.57626e-08)
(4.86873e-07 0 3.62391e-08)
(4.62714e-07 0 3.66159e-08)
(4.38363e-07 0 3.68803e-08)
(4.13877e-07 0 3.70771e-08)
(3.89307e-07 0 3.71718e-08)
(3.6472e-07 0 3.71691e-08)
(3.40191e-07 0 3.70621e-08)
(3.15743e-07 0 3.69529e-08)
(2.91421e-07 0 3.67477e-08)
(2.6729e-07 0 3.64824e-08)
(2.43397e-07 0 3.60985e-08)
(2.19759e-07 0 3.56824e-08)
(1.96416e-07 0 3.51343e-08)
(1.73415e-07 0 3.44009e-08)
(1.5075e-07 0 3.32418e-08)
(1.28077e-07 0 3.10318e-08)
(1.0555e-07 0 2.53059e-08)
(6.96797e-08 0 9.30761e-09)
(4.32634e-08 0 7.61129e-08)
(1.51634e-10 0 7.32602e-08)
(7.33264e-16 0 -6.01903e-17)
(3.71901e-16 0 -3.41212e-19)
(7.26492e-16 0 3.77401e-18)
(7.13733e-16 0 6.01774e-18)
(6.96776e-16 0 7.90992e-18)
(6.80656e-16 0 9.78141e-18)
(6.65467e-16 0 1.16115e-17)
(6.50929e-16 0 1.34003e-17)
(6.36743e-16 0 1.51271e-17)
(6.2265e-16 0 1.67814e-17)
(6.08474e-16 0 1.83221e-17)
(5.94081e-16 0 1.97696e-17)
(5.79399e-16 0 2.11034e-17)
(5.64334e-16 0 2.23235e-17)
(5.48876e-16 0 2.34299e-17)
(5.32973e-16 0 2.44018e-17)
(5.16574e-16 0 2.52807e-17)
(4.99731e-16 0 2.60665e-17)
(4.82463e-16 0 2.68007e-17)
(4.6472e-16 0 2.7421e-17)
(4.46512e-16 0 2.80104e-17)
(4.27901e-16 0 2.85377e-17)
(4.08855e-16 0 2.9003e-17)
(3.89385e-16 0 2.94166e-17)
(3.69491e-16 0 2.97992e-17)
(3.49194e-16 0 3.01507e-17)
(3.28546e-16 0 3.04299e-17)
(3.07494e-16 0 3.06987e-17)
(2.8606e-16 0 3.09366e-17)
(2.64315e-16 0 3.11434e-17)
(2.42292e-16 0 3.13191e-17)
(2.19968e-16 0 3.14846e-17)
(1.97365e-16 0 3.16293e-17)
(1.74525e-16 0 3.17431e-17)
(1.51467e-16 0 3.18361e-17)
(1.28244e-16 0 3.19085e-17)
(1.04887e-16 0 3.19292e-17)
(8.14566e-17 0 3.19188e-17)
(5.79337e-17 0 3.18671e-17)
(3.42556e-17 0 3.17844e-17)
(1.11876e-17 0 3.14846e-17)
(9.01732e-09 0 -4.43946e-08)
(2.61693e-08 0 -4.40141e-08)
(4.29854e-08 0 -4.3727e-08)
(6.02693e-08 0 -4.32073e-08)
(7.70258e-08 0 -4.26446e-08)
(9.34713e-08 0 -4.21182e-08)
(1.09683e-07 0 -4.17246e-08)
(1.25743e-07 0 -4.15971e-08)
(1.418e-07 0 -4.18044e-08)
(1.5803e-07 0 -4.24078e-08)
(1.74611e-07 0 -4.34458e-08)
(1.91751e-07 0 -4.49901e-08)
(2.09657e-07 0 -4.69821e-08)
(2.28446e-07 0 -4.90421e-08)
(2.48116e-07 0 -5.13137e-08)
(2.68795e-07 0 -5.31134e-08)
(2.90711e-07 0 -5.61685e-08)
(3.14155e-07 0 -6.01273e-08)
(3.38664e-07 0 -6.21865e-08)
(3.63997e-07 0 -6.36515e-08)
(3.90438e-07 0 -6.53678e-08)
(4.17861e-07 0 -6.90645e-08)
(4.45879e-07 0 -6.88385e-08)
(4.74007e-07 0 -6.90838e-08)
(5.02315e-07 0 -6.94401e-08)
(5.30512e-07 0 -6.84288e-08)
(5.58154e-07 0 -6.68177e-08)
(5.85047e-07 0 -6.46904e-08)
(6.10943e-07 0 -6.17586e-08)
(6.35558e-07 0 -5.83637e-08)
(6.5866e-07 0 -5.43987e-08)
(6.8003e-07 0 -4.99547e-08)
(6.99514e-07 0 -4.51272e-08)
(7.16948e-07 0 -3.9923e-08)
(7.322e-07 0 -3.44682e-08)
(7.45183e-07 0 -2.89044e-08)
(7.55866e-07 0 -2.32086e-08)
(7.64216e-07 0 -1.7406e-08)
(7.70239e-07 0 -1.17217e-08)
(7.7396e-07 0 -6.06904e-09)
(7.75396e-07 0 -4.7303e-10)
(7.74586e-07 0 4.93171e-09)
(7.71637e-07 0 1.01564e-08)
(7.66621e-07 0 1.51613e-08)
(7.59643e-07 0 1.9993e-08)
(7.50811e-07 0 2.46179e-08)
(7.40072e-07 0 2.91524e-08)
(7.27628e-07 0 3.29189e-08)
(7.1365e-07 0 3.67077e-08)
(6.98215e-07 0 4.02087e-08)
(6.81431e-07 0 4.33854e-08)
(6.63391e-07 0 4.64814e-08)
(6.44177e-07 0 4.91211e-08)
(6.23943e-07 0 5.14372e-08)
(6.02792e-07 0 5.35866e-08)
(5.80859e-07 0 5.52947e-08)
(5.5827e-07 0 5.68839e-08)
(5.35114e-07 0 5.81367e-08)
(5.11456e-07 0 5.93143e-08)
(4.87415e-07 0 6.00289e-08)
(4.63089e-07 0 6.05664e-08)
(4.38572e-07 0 6.09197e-08)
(4.13919e-07 0 6.1155e-08)
(3.89214e-07 0 6.12068e-08)
(3.64522e-07 0 6.10909e-08)
(3.39883e-07 0 6.08416e-08)
(3.15339e-07 0 6.05259e-08)
(2.90955e-07 0 6.0063e-08)
(2.66751e-07 0 5.95047e-08)
(2.42764e-07 0 5.88177e-08)
(2.1901e-07 0 5.80745e-08)
(1.95485e-07 0 5.71832e-08)
(1.72133e-07 0 5.61167e-08)
(1.48784e-07 0 5.46824e-08)
(1.24848e-07 0 5.25709e-08)
(1.00084e-07 0 4.98786e-08)
(6.48924e-08 0 4.70749e-08)
(3.86373e-08 0 9.58304e-08)
(1.44791e-10 0 1.01893e-07)
(7.32844e-16 0 -8.60291e-17)
(3.73805e-16 0 -6.51405e-19)
(7.29863e-16 0 3.57756e-18)
(7.167e-16 0 7.45497e-18)
(6.9964e-16 0 1.11669e-17)
(6.83458e-16 0 1.48065e-17)
(6.68155e-16 0 1.83014e-17)
(6.53483e-16 0 2.16721e-17)
(6.39152e-16 0 2.48258e-17)
(6.24883e-16 0 2.78036e-17)
(6.10542e-16 0 3.05333e-17)
(5.96015e-16 0 3.30459e-17)
(5.81167e-16 0 3.5331e-17)
(5.65916e-16 0 3.74092e-17)
(5.50282e-16 0 3.92807e-17)
(5.34214e-16 0 4.09144e-17)
(5.1767e-16 0 4.23723e-17)
(5.00744e-16 0 4.36751e-17)
(4.83363e-16 0 4.48435e-17)
(4.65506e-16 0 4.58568e-17)
(4.47236e-16 0 4.67667e-17)
(4.28531e-16 0 4.75836e-17)
(4.09382e-16 0 4.82867e-17)
(3.8985e-16 0 4.88967e-17)
(3.69926e-16 0 4.94344e-17)
(3.49577e-16 0 4.99514e-17)
(3.28866e-16 0 5.03753e-17)
(3.07773e-16 0 5.07475e-17)
(2.86329e-16 0 5.11198e-17)
(2.64553e-16 0 5.14196e-17)
(2.42457e-16 0 5.16678e-17)
(2.20113e-16 0 5.18642e-17)
(1.9751e-16 0 5.20503e-17)
(1.74639e-16 0 5.21848e-17)
(1.5156e-16 0 5.23192e-17)
(1.28306e-16 0 5.24226e-17)
(1.04907e-16 0 5.24846e-17)
(8.14359e-17 0 5.25053e-17)
(5.7882e-17 0 5.2495e-17)
(3.42039e-17 0 5.24639e-17)
(1.11669e-17 0 5.24122e-17)
(9.1723e-09 0 -6.17106e-08)
(2.67222e-08 0 -6.12842e-08)
(4.36106e-08 0 -6.07182e-08)
(6.10373e-08 0 -5.98319e-08)
(7.78116e-08 0 -5.88809e-08)
(9.41244e-08 0 -5.80124e-08)
(1.10077e-07 0 -5.73532e-08)
(1.2577e-07 0 -5.71061e-08)
(1.41376e-07 0 -5.73693e-08)
(1.57078e-07 0 -5.82331e-08)
(1.73127e-07 0 -5.97694e-08)
(1.8976e-07 0 -6.20628e-08)
(2.07194e-07 0 -6.49325e-08)
(2.25578e-07 0 -6.8037e-08)
(2.4487e-07 0 -7.12859e-08)
(2.65349e-07 0 -7.38317e-08)
(2.87314e-07 0 -7.90021e-08)
(3.10952e-07 0 -8.42126e-08)
(3.35559e-07 0 -8.73373e-08)
(3.61226e-07 0 -8.923e-08)
(3.8825e-07 0 -9.27426e-08)
(4.16425e-07 0 -9.69637e-08)
(4.45023e-07 0 -9.71509e-08)
(4.73852e-07 0 -9.75488e-08)
(5.02975e-07 0 -9.82052e-08)
(5.31974e-07 0 -9.66181e-08)
(5.60396e-07 0 -9.44177e-08)
(5.88065e-07 0 -9.1434e-08)
(6.14721e-07 0 -8.72677e-08)
(6.40014e-07 0 -8.24017e-08)
(6.63723e-07 0 -7.67856e-08)
(6.85629e-07 0 -7.04817e-08)
(7.05551e-07 0 -6.35956e-08)
(7.23327e-07 0 -5.62421e-08)
(7.38842e-07 0 -4.84671e-08)
(7.52002e-07 0 -4.05833e-08)
(7.62765e-07 0 -3.25188e-08)
(7.7112e-07 0 -2.43305e-08)
(7.77088e-07 0 -1.63026e-08)
(7.80682e-07 0 -8.31987e-09)
(7.81948e-07 0 -4.43276e-10)
(7.80967e-07 0 7.17201e-09)
(7.77807e-07 0 1.45237e-08)
(7.72513e-07 0 2.15885e-08)
(7.65228e-07 0 2.83031e-08)
(7.56141e-07 0 3.47861e-08)
(7.45158e-07 0 4.12235e-08)
(7.32377e-07 0 4.65221e-08)
(7.18044e-07 0 5.1776e-08)
(7.02279e-07 0 5.67314e-08)
(6.85144e-07 0 6.11351e-08)
(6.66741e-07 0 6.55159e-08)
(6.47182e-07 0 6.92372e-08)
(6.26607e-07 0 7.24444e-08)
(6.05129e-07 0 7.54898e-08)
(5.82893e-07 0 7.78524e-08)
(5.59967e-07 0 8.00727e-08)
(5.36482e-07 0 8.18398e-08)
(5.12527e-07 0 8.34597e-08)
(4.88241e-07 0 8.44583e-08)
(4.63664e-07 0 8.5215e-08)
(4.38909e-07 0 8.57192e-08)
(4.14059e-07 0 8.60063e-08)
(3.89185e-07 0 8.60434e-08)
(3.64333e-07 0 8.58783e-08)
(3.39538e-07 0 8.5564e-08)
(3.1485e-07 0 8.50933e-08)
(2.90328e-07 0 8.44718e-08)
(2.66014e-07 0 8.369e-08)
(2.41919e-07 0 8.27683e-08)
(2.18034e-07 0 8.17806e-08)
(1.94385e-07 0 8.06392e-08)
(1.70906e-07 0 7.93931e-08)
(1.47449e-07 0 7.80524e-08)
(1.23685e-07 0 7.67171e-08)
(1.00298e-07 0 7.57156e-08)
(7.25623e-08 0 7.77256e-08)
(3.89793e-08 0 1.21488e-07)
(1.42271e-10 0 1.28228e-07)
(7.37635e-16 0 -1.15212e-16)
(3.7626e-16 0 -8.89219e-19)
(7.34588e-16 0 4.68391e-18)
(7.21312e-16 0 1.01226e-17)
(7.04127e-16 0 1.54993e-17)
(6.87801e-16 0 2.06899e-17)
(6.72343e-16 0 2.5715e-17)
(6.57464e-16 0 3.05126e-17)
(6.42874e-16 0 3.50208e-17)
(6.28347e-16 0 3.92187e-17)
(6.13727e-16 0 4.30858e-17)
(5.989e-16 0 4.66116e-17)
(5.83762e-16 0 4.97963e-17)
(5.68273e-16 0 5.26811e-17)
(5.52381e-16 0 5.52453e-17)
(5.36065e-16 0 5.75304e-17)
(5.19325e-16 0 5.95467e-17)
(5.02181e-16 0 6.13665e-17)
(4.84645e-16 0 6.29381e-17)
(4.66654e-16 0 6.43133e-17)
(4.48239e-16 0 6.55334e-17)
(4.29441e-16 0 6.65984e-17)
(4.10189e-16 0 6.75393e-17)
(3.90533e-16 0 6.84078e-17)
(3.70525e-16 0 6.91316e-17)
(3.50135e-16 0 6.98037e-17)
(3.29352e-16 0 7.03724e-17)
(3.08208e-16 0 7.08687e-17)
(2.86722e-16 0 7.13547e-17)
(2.64884e-16 0 7.17683e-17)
(2.42747e-16 0 7.21302e-17)
(2.20351e-16 0 7.24197e-17)
(1.97696e-16 0 7.26471e-17)
(1.74804e-16 0 7.28436e-17)
(1.51695e-16 0 7.3009e-17)
(1.28409e-16 0 7.31331e-17)
(1.0499e-16 0 7.32469e-17)
(8.1467e-17 0 7.33192e-17)
(5.78716e-17 0 7.33502e-17)
(3.41832e-17 0 7.33502e-17)
(1.11566e-17 0 7.33502e-17)
(9.44707e-09 0 -7.96257e-08)
(2.7525e-08 0 -7.89356e-08)
(4.45637e-08 0 -7.7983e-08)
(6.21302e-08 0 -7.66301e-08)
(7.88975e-08 0 -7.51282e-08)
(9.49977e-08 0 -7.37794e-08)
(1.1057e-07 0 -7.27479e-08)
(1.25734e-07 0 -7.22868e-08)
(1.40691e-07 0 -7.25295e-08)
(1.55695e-07 0 -7.36067e-08)
(1.71009e-07 0 -7.56471e-08)
(1.86896e-07 0 -7.87658e-08)
(2.03735e-07 0 -8.23858e-08)
(2.21466e-07 0 -8.68193e-08)
(2.40262e-07 0 -9.07981e-08)
(2.607e-07 0 -9.39196e-08)
(2.82605e-07 0 -1.02622e-07)
(3.0645e-07 0 -1.08764e-07)
(3.31254e-07 0 -1.12387e-07)
(3.57506e-07 0 -1.14387e-07)
(3.85171e-07 0 -1.22954e-07)
(4.14373e-07 0 -1.24814e-07)
(4.43687e-07 0 -1.26348e-07)
(4.73601e-07 0 -1.27092e-07)
(5.03816e-07 0 -1.27878e-07)
(5.33907e-07 0 -1.25785e-07)
(5.63421e-07 0 -1.23015e-07)
(5.92177e-07 0 -1.18992e-07)
(6.19825e-07 0 -1.13727e-07)
(6.46068e-07 0 -1.07229e-07)
(6.70617e-07 0 -9.98613e-08)
(6.93234e-07 0 -9.15776e-08)
(7.13736e-07 0 -8.2532e-08)
(7.31964e-07 0 -7.29121e-08)
(7.47814e-07 0 -6.2721e-08)
(7.61196e-07 0 -5.24345e-08)
(7.7208e-07 0 -4.18725e-08)
(7.80443e-07 0 -3.12345e-08)
(7.86331e-07 0 -2.07646e-08)
(7.89775e-07 0 -1.04091e-08)
(7.90805e-07 0 -1.83763e-10)
(7.89532e-07 0 9.65957e-09)
(7.86051e-07 0 1.91721e-08)
(7.80415e-07 0 2.8339e-08)
(7.72762e-07 0 3.69558e-08)
(7.63274e-07 0 4.5141e-08)
(7.51952e-07 0 5.36888e-08)
(7.38738e-07 0 6.06359e-08)
(7.23888e-07 0 6.71848e-08)
(7.07654e-07 0 7.36146e-08)
(6.90088e-07 0 7.93114e-08)
(6.71234e-07 0 8.49108e-08)
(6.5122e-07 0 8.972e-08)
(6.30208e-07 0 9.38164e-08)
(6.08266e-07 0 9.77234e-08)
(5.85577e-07 0 1.00764e-07)
(5.62216e-07 0 1.03594e-07)
(5.38327e-07 0 1.05837e-07)
(5.13975e-07 0 1.07837e-07)
(4.89326e-07 0 1.09108e-07)
(4.64422e-07 0 1.10054e-07)
(4.3937e-07 0 1.10651e-07)
(4.14242e-07 0 1.1099e-07)
(3.89106e-07 0 1.11003e-07)
(3.64031e-07 0 1.10757e-07)
(3.39043e-07 0 1.10364e-07)
(3.14186e-07 0 1.097e-07)
(2.89513e-07 0 1.08869e-07)
(2.65067e-07 0 1.07855e-07)
(2.40834e-07 0 1.06718e-07)
(2.16836e-07 0 1.0546e-07)
(1.93105e-07 0 1.04077e-07)
(1.6963e-07 0 1.02628e-07)
(1.46421e-07 0 1.0124e-07)
(1.23344e-07 0 1.00213e-07)
(1.01333e-07 0 9.98937e-08)
(7.61161e-08 0 1.02947e-07)
(3.97649e-08 0 1.56644e-07)
(1.40561e-10 0 1.56797e-07)
(7.45029e-16 0 -1.53715e-16)
(3.79551e-16 0 -1.17873e-18)
(7.40895e-16 0 6.03842e-18)
(7.27516e-16 0 1.31005e-17)
(7.10217e-16 0 2.01108e-17)
(6.93705e-16 0 2.69041e-17)
(6.77978e-16 0 3.34698e-17)
(6.62789e-16 0 3.9715e-17)
(6.47879e-16 0 4.5557e-17)
(6.32959e-16 0 5.09543e-17)
(6.17956e-16 0 5.59588e-17)
(6.02756e-16 0 6.04876e-17)
(5.87226e-16 0 6.45615e-17)
(5.71365e-16 0 6.82114e-17)
(5.55131e-16 0 7.14477e-17)
(5.38515e-16 0 7.43532e-17)
(5.21506e-16 0 7.68864e-17)
(5.04105e-16 0 7.91405e-17)
(4.8631e-16 0 8.10844e-17)
(4.68112e-16 0 8.27904e-17)
(4.49531e-16 0 8.43001e-17)
(4.30558e-16 0 8.56235e-17)
(4.11192e-16 0 8.67816e-17)
(3.91443e-16 0 8.78466e-17)
(3.71321e-16 0 8.87875e-17)
(3.50828e-16 0 8.96147e-17)
(3.29952e-16 0 9.03385e-17)
(3.08756e-16 0 9.10002e-17)
(2.87228e-16 0 9.15689e-17)
(2.65329e-16 0 9.20859e-17)
(2.43119e-16 0 9.25615e-17)
(2.2065e-16 0 9.29338e-17)
(1.97944e-16 0 9.32646e-17)
(1.75011e-16 0 9.35438e-17)
(1.5186e-16 0 9.37403e-17)
(1.28544e-16 0 9.3916e-17)
(1.05114e-16 0 9.40711e-17)
(8.15704e-17 0 9.41642e-17)
(5.7913e-17 0 9.42262e-17)
(3.41832e-17 0 9.42572e-17)
(1.11566e-17 0 9.42883e-17)
(9.78366e-09 0 -9.82883e-08)
(2.85411e-08 0 -9.73526e-08)
(4.59762e-08 0 -9.59395e-08)
(6.38205e-08 0 -9.39444e-08)
(8.06126e-08 0 -9.16574e-08)
(9.64752e-08 0 -8.95436e-08)
(1.11544e-07 0 -8.78847e-08)
(1.25962e-07 0 -8.6952e-08)
(1.40011e-07 0 -8.70446e-08)
(1.54055e-07 0 -8.82679e-08)
(1.68346e-07 0 -9.07778e-08)
(1.83249e-07 0 -9.46703e-08)
(1.99307e-07 0 -9.90013e-08)
(2.15924e-07 0 -1.05374e-07)
(2.34035e-07 0 -1.09877e-07)
(2.54509e-07 0 -1.14573e-07)
(2.76601e-07 0 -1.25898e-07)
(3.00449e-07 0 -1.33074e-07)
(3.25403e-07 0 -1.38047e-07)
(3.52673e-07 0 -1.41255e-07)
(3.81251e-07 0 -1.52555e-07)
(4.11452e-07 0 -1.54107e-07)
(4.41869e-07 0 -1.56599e-07)
(4.7321e-07 0 -1.57987e-07)
(5.0486e-07 0 -1.58583e-07)
(5.3634e-07 0 -1.56279e-07)
(5.67265e-07 0 -1.5284e-07)
(5.97418e-07 0 -1.47812e-07)
(6.26361e-07 0 -1.41241e-07)
(6.53816e-07 0 -1.33108e-07)
(6.79442e-07 0 -1.23805e-07)
(7.0297e-07 0 -1.13408e-07)
(7.24217e-07 0 -1.02064e-07)
(7.43027e-07 0 -9.00241e-08)
(7.59298e-07 0 -7.72878e-08)
(7.72933e-07 0 -6.44469e-08)
(7.83914e-07 0 -5.12492e-08)
(7.92247e-07 0 -3.81175e-08)
(7.98021e-07 0 -2.50893e-08)
(8.0125e-07 0 -1.22553e-08)
(8.01959e-07 0 3.8465e-10)
(8.00312e-07 0 1.2477e-08)
(7.96458e-07 0 2.41907e-08)
(7.90373e-07 0 3.5504e-08)
(7.82247e-07 0 4.60285e-08)
(7.72197e-07 0 5.60729e-08)
(7.60423e-07 0 6.62487e-08)
(7.46709e-07 0 7.55206e-08)
(7.31248e-07 0 8.31309e-08)
(7.14394e-07 0 9.1011e-08)
(6.9626e-07 0 9.80275e-08)
(6.76825e-07 0 1.04793e-07)
(6.56239e-07 0 1.10715e-07)
(6.34652e-07 0 1.15726e-07)
(6.12112e-07 0 1.20494e-07)
(5.88871e-07 0 1.24131e-07)
(5.64985e-07 0 1.27592e-07)
(5.4059e-07 0 1.30288e-07)
(5.15736e-07 0 1.32661e-07)
(4.90633e-07 0 1.34128e-07)
(4.65294e-07 0 1.35271e-07)
(4.39876e-07 0 1.35863e-07)
(4.14415e-07 0 1.36254e-07)
(3.88996e-07 0 1.36189e-07)
(3.63644e-07 0 1.35821e-07)
(3.3841e-07 0 1.35289e-07)
(3.13352e-07 0 1.34454e-07)
(2.8851e-07 0 1.33375e-07)
(2.63888e-07 0 1.32124e-07)
(2.39505e-07 0 1.30737e-07)
(2.15397e-07 0 1.29186e-07)
(1.91593e-07 0 1.27515e-07)
(1.68164e-07 0 1.25727e-07)
(1.45235e-07 0 1.23969e-07)
(1.22599e-07 0 1.2269e-07)
(1.02099e-07 0 1.21198e-07)
(7.95065e-08 0 1.24829e-07)
(4.02509e-08 0 1.95469e-07)
(1.38316e-10 0 1.8296e-07)
(7.50353e-16 0 -1.80929e-16)
(3.83711e-16 0 -1.36485e-18)
(7.48888e-16 0 7.54802e-18)
(7.35374e-16 0 1.63575e-17)
(7.17931e-16 0 2.50429e-17)
(7.01191e-16 0 3.35008e-17)
(6.85143e-16 0 4.16175e-17)
(6.6953e-16 0 4.93206e-17)
(6.54134e-16 0 5.65171e-17)
(6.38749e-16 0 6.31449e-17)
(6.2325e-16 0 6.92454e-17)
(6.07513e-16 0 7.47358e-17)
(5.91476e-16 0 7.96782e-17)
(5.7517e-16 0 8.40726e-17)
(5.58543e-16 0 8.79707e-17)
(5.41514e-16 0 9.14035e-17)
(5.24122e-16 0 9.4433e-17)
(5.0639e-16 0 9.70593e-17)
(4.88295e-16 0 9.93444e-17)
(4.69859e-16 0 1.0135e-16)
(4.51072e-16 0 1.03118e-16)
(4.31912e-16 0 1.04659e-16)
(4.12391e-16 0 1.06034e-16)
(3.92518e-16 0 1.07254e-16)
(3.72283e-16 0 1.08361e-16)
(3.51686e-16 0 1.09343e-16)
(3.30738e-16 0 1.10232e-16)
(3.09438e-16 0 1.11059e-16)
(2.87797e-16 0 1.11752e-16)
(2.65866e-16 0 1.12393e-16)
(2.43605e-16 0 1.12952e-16)
(2.21064e-16 0 1.13437e-16)
(1.98296e-16 0 1.13882e-16)
(1.75259e-16 0 1.14223e-16)
(1.52067e-16 0 1.14502e-16)
(1.2873e-16 0 1.14761e-16)
(1.05228e-16 0 1.14947e-16)
(8.16427e-17 0 1.15092e-16)
(5.7975e-17 0 1.15185e-16)
(3.42349e-17 0 1.15257e-16)
(1.11773e-17 0 1.15309e-16)
(1.02819e-08 0 -1.17758e-07)
(3.00502e-08 0 -1.16445e-07)
(4.81046e-08 0 -1.14381e-07)
(6.64233e-08 0 -1.11409e-07)
(8.32744e-08 0 -1.08035e-07)
(9.87979e-08 0 -1.0483e-07)
(1.13149e-07 0 -1.02251e-07)
(1.2661e-07 0 -1.00628e-07)
(1.39511e-07 0 -1.00391e-07)
(1.52178e-07 0 -1.01751e-07)
(1.64933e-07 0 -1.049e-07)
(1.78865e-07 0 -1.08876e-07)
(1.93402e-07 0 -1.15654e-07)
(2.08755e-07 0 -1.22058e-07)
(2.26392e-07 0 -1.26998e-07)
(2.46452e-07 0 -1.3739e-07)
(2.68979e-07 0 -1.49094e-07)
(2.92473e-07 0 -1.57718e-07)
(3.18021e-07 0 -1.63242e-07)
(3.46402e-07 0 -1.70144e-07)
(3.76391e-07 0 -1.82673e-07)
(4.07565e-07 0 -1.84755e-07)
(4.39442e-07 0 -1.88139e-07)
(4.72524e-07 0 -1.90822e-07)
(5.05996e-07 0 -1.90781e-07)
(5.3921e-07 0 -1.88429e-07)
(5.71942e-07 0 -1.84256e-07)
(6.03833e-07 0 -1.78179e-07)
(6.34436e-07 0 -1.70098e-07)
(6.63379e-07 0 -1.60356e-07)
(6.90346e-07 0 -1.48852e-07)
(7.14988e-07 0 -1.36154e-07)
(7.37152e-07 0 -1.22334e-07)
(7.56659e-07 0 -1.07674e-07)
(7.73399e-07 0 -9.22022e-08)
(7.87301e-07 0 -7.66506e-08)
(7.98399e-07 0 -6.0659e-08)
(8.0666e-07 0 -4.4862e-08)
(8.12209e-07 0 -2.92141e-08)
(8.15142e-07 0 -1.38147e-08)
(8.15486e-07 0 1.3365e-09)
(8.13384e-07 0 1.57427e-08)
(8.08995e-07 0 2.96737e-08)
(8.0235e-07 0 4.32174e-08)
(7.93654e-07 0 5.55657e-08)
(7.82939e-07 0 6.78377e-08)
(7.70551e-07 0 7.904e-08)
(7.56292e-07 0 9.10629e-08)
(7.40194e-07 0 9.98267e-08)
(7.22579e-07 0 1.08948e-07)
(7.03712e-07 0 1.17445e-07)
(6.83583e-07 0 1.25274e-07)
(6.62288e-07 0 1.32395e-07)
(6.39991e-07 0 1.38268e-07)
(6.1671e-07 0 1.43897e-07)
(5.92779e-07 0 1.48136e-07)
(5.6823e-07 0 1.52147e-07)
(5.43217e-07 0 1.5529e-07)
(5.17778e-07 0 1.57984e-07)
(4.92119e-07 0 1.59669e-07)
(4.6627e-07 0 1.60884e-07)
(4.40398e-07 0 1.61539e-07)
(4.14525e-07 0 1.61842e-07)
(3.88732e-07 0 1.61705e-07)
(3.63096e-07 0 1.61151e-07)
(3.37566e-07 0 1.60555e-07)
(3.12299e-07 0 1.59371e-07)
(2.87252e-07 0 1.58051e-07)
(2.62454e-07 0 1.56582e-07)
(2.37899e-07 0 1.54924e-07)
(2.13624e-07 0 1.53081e-07)
(1.89675e-07 0 1.51076e-07)
(1.66165e-07 0 1.48845e-07)
(1.43398e-07 0 1.46401e-07)
(1.21082e-07 0 1.44073e-07)
(1.02055e-07 0 1.39902e-07)
(7.01314e-08 0 1.58247e-07)
(3.57659e-08 0 2.46276e-07)
(1.35571e-10 0 2.02376e-07)
(7.61795e-16 0 -2.02956e-16)
(3.88771e-16 0 -1.46825e-18)
(7.58607e-16 0 9.25408e-18)
(7.45011e-16 0 1.9904e-17)
(7.27361e-16 0 3.03782e-17)
(7.1029e-16 0 4.05732e-17)
(6.93808e-16 0 5.03029e-17)
(6.77688e-16 0 5.9495e-17)
(6.61714e-16 0 6.80563e-17)
(6.45687e-16 0 7.59145e-17)
(6.29516e-16 0 8.30696e-17)
(6.13158e-16 0 8.95113e-17)
(5.96563e-16 0 9.52809e-17)
(5.79668e-16 0 1.00399e-16)
(5.62462e-16 0 1.04897e-16)
(5.44957e-16 0 1.08795e-16)
(5.27162e-16 0 1.12238e-16)
(5.09037e-16 0 1.15206e-16)
(4.9058e-16 0 1.1778e-16)
(4.71865e-16 0 1.20045e-16)
(4.5284e-16 0 1.2203e-16)
(4.33463e-16 0 1.23746e-16)
(4.13797e-16 0 1.25308e-16)
(3.93779e-16 0 1.26683e-16)
(3.7341e-16 0 1.27944e-16)
(3.527e-16 0 1.29092e-16)
(3.31658e-16 0 1.30136e-16)
(3.10275e-16 0 1.31077e-16)
(2.88562e-16 0 1.31925e-16)
(2.66528e-16 0 1.3269e-16)
(2.44163e-16 0 1.33373e-16)
(2.21571e-16 0 1.33993e-16)
(1.9873e-16 0 1.3452e-16)
(1.75641e-16 0 1.34955e-16)
(1.52387e-16 0 1.35347e-16)
(1.28988e-16 0 1.35658e-16)
(1.05445e-16 0 1.35895e-16)
(8.17875e-17 0 1.36113e-16)
(5.80784e-17 0 1.36257e-16)
(3.43177e-17 0 1.36381e-16)
(1.12083e-17 0 1.36464e-16)
(1.10068e-08 0 -1.38405e-07)
(3.22436e-08 0 -1.36523e-07)
(5.11936e-08 0 -1.33486e-07)
(7.01849e-08 0 -1.29116e-07)
(8.71713e-08 0 -1.24199e-07)
(1.02294e-07 0 -1.19451e-07)
(1.15735e-07 0 -1.15534e-07)
(1.27926e-07 0 -1.12963e-07)
(1.39214e-07 0 -1.12221e-07)
(1.498e-07 0 -1.13852e-07)
(1.61101e-07 0 -1.16709e-07)
(1.73364e-07 0 -1.22206e-07)
(1.85795e-07 0 -1.30219e-07)
(1.99666e-07 0 -1.37694e-07)
(2.17224e-07 0 -1.43568e-07)
(2.36661e-07 0 -1.60264e-07)
(2.58873e-07 0 -1.71968e-07)
(2.82155e-07 0 -1.82462e-07)
(3.09353e-07 0 -1.8704e-07)
(3.38289e-07 0 -2.06277e-07)
(3.70154e-07 0 -2.10562e-07)
(4.02274e-07 0 -2.17846e-07)
(4.36491e-07 0 -2.21241e-07)
(4.71532e-07 0 -2.25708e-07)
(5.07162e-07 0 -2.24908e-07)
(5.4257e-07 0 -2.2258e-07)
(5.77574e-07 0 -2.17686e-07)
(6.11615e-07 0 -2.10403e-07)
(6.44174e-07 0 -2.00775e-07)
(6.74905e-07 0 -1.89116e-07)
(7.0349e-07 0 -1.75277e-07)
(7.29493e-07 0 -1.60018e-07)
(7.52736e-07 0 -1.43476e-07)
(7.73043e-07 0 -1.25955e-07)
(7.90326e-07 0 -1.07508e-07)
(8.04494e-07 0 -8.89987e-08)
(8.15669e-07 0 -7.0088e-08)
(8.23829e-07 0 -5.1445e-08)
(8.29112e-07 0 -3.29946e-08)
(8.31593e-07 0 -1.4949e-08)
(8.31427e-07 0 2.75013e-09)
(8.28779e-07 0 1.95671e-08)
(8.23709e-07 0 3.575e-08)
(8.16416e-07 0 5.15322e-08)
(8.07058e-07 0 6.57999e-08)
(7.95623e-07 0 8.02705e-08)
(7.8233e-07 0 9.25697e-08)
(7.67451e-07 0 1.0722e-07)
(7.50704e-07 0 1.17444e-07)
(7.32154e-07 0 1.27538e-07)
(7.12328e-07 0 1.37691e-07)
(6.91421e-07 0 1.46446e-07)
(6.69305e-07 0 1.5485e-07)
(6.46186e-07 0 1.61639e-07)
(6.22056e-07 0 1.68067e-07)
(5.97307e-07 0 1.72914e-07)
(5.71931e-07 0 1.77379e-07)
(5.46161e-07 0 1.80986e-07)
(5.20051e-07 0 1.83913e-07)
(4.9375e-07 0 1.85865e-07)
(4.67317e-07 0 1.86957e-07)
(4.40882e-07 0 1.87625e-07)
(4.14562e-07 0 1.87875e-07)
(3.88386e-07 0 1.8754e-07)
(3.62332e-07 0 1.869e-07)
(3.36513e-07 0 1.85952e-07)
(3.11002e-07 0 1.8452e-07)
(2.85732e-07 0 1.8296e-07)
(2.60734e-07 0 1.81229e-07)
(2.35984e-07 0 1.79304e-07)
(2.11501e-07 0 1.77162e-07)
(1.87305e-07 0 1.74824e-07)
(1.63467e-07 0 1.72194e-07)
(1.40224e-07 0 1.69081e-07)
(1.1848e-07 0 1.65048e-07)
(9.80226e-08 0 1.58851e-07)
(6.39843e-08 0 1.94874e-07)
(3.06597e-08 0 2.71106e-07)
(1.33091e-10 0 2.18343e-07)
(7.79144e-16 0 -2.4044e-16)
(3.94873e-16 0 -1.67504e-18)
(7.70229e-16 0 1.11359e-17)
(7.56508e-16 0 2.37814e-17)
(7.38621e-16 0 3.61995e-17)
(7.21115e-16 0 4.8204e-17)
(7.04076e-16 0 5.96501e-17)
(6.87294e-16 0 7.03931e-17)
(6.70554e-16 0 8.03089e-17)
(6.53752e-16 0 8.93769e-17)
(6.36826e-16 0 9.76073e-17)
(6.19724e-16 0 1.04969e-16)
(6.02384e-16 0 1.11504e-16)
(5.84786e-16 0 1.17253e-16)
(5.66919e-16 0 1.22257e-16)
(5.48845e-16 0 1.26621e-16)
(5.30543e-16 0 1.30384e-16)
(5.11942e-16 0 1.3361e-16)
(4.93134e-16 0 1.36433e-16)
(4.74109e-16 0 1.38884e-16)
(4.54794e-16 0 1.41014e-16)
(4.3519e-16 0 1.42906e-16)
(4.15317e-16 0 1.44581e-16)
(3.95175e-16 0 1.46101e-16)
(3.74703e-16 0 1.47497e-16)
(3.53878e-16 0 1.48779e-16)
(3.32744e-16 0 1.49978e-16)
(3.11247e-16 0 1.51064e-16)
(2.8941e-16 0 1.52088e-16)
(2.67303e-16 0 1.52997e-16)
(2.44887e-16 0 1.53825e-16)
(2.22201e-16 0 1.54579e-16)
(1.99257e-16 0 1.55241e-16)
(1.76096e-16 0 1.5581e-16)
(1.5278e-16 0 1.56306e-16)
(1.29288e-16 0 1.56699e-16)
(1.05693e-16 0 1.5703e-16)
(8.2015e-17 0 1.57278e-16)
(5.82542e-17 0 1.57516e-16)
(3.44417e-17 0 1.57692e-16)
(1.126e-17 0 1.57816e-16)
(1.20438e-08 0 -1.60786e-07)
(3.53828e-08 0 -1.58073e-07)
(5.5671e-08 0 -1.53598e-07)
(7.56484e-08 0 -1.47274e-07)
(9.28756e-08 0 -1.40149e-07)
(1.07441e-07 0 -1.33251e-07)
(1.19745e-07 0 -1.27402e-07)
(1.3015e-07 0 -1.23575e-07)
(1.38977e-07 0 -1.22287e-07)
(1.47416e-07 0 -1.2319e-07)
(1.56718e-07 0 -1.26475e-07)
(1.66259e-07 0 -1.3366e-07)
(1.75813e-07 0 -1.44083e-07)
(1.89361e-07 0 -1.4921e-07)
(2.05298e-07 0 -1.63963e-07)
(2.24504e-07 0 -1.80638e-07)
(2.45425e-07 0 -1.95831e-07)
(2.7002e-07 0 -2.06041e-07)
(2.98394e-07 0 -2.15743e-07)
(3.28684e-07 0 -2.37843e-07)
(3.6167e-07 0 -2.42657e-07)
(3.95866e-07 0 -2.52228e-07)
(4.3258e-07 0 -2.57515e-07)
(4.70061e-07 0 -2.6201e-07)
(5.08248e-07 0 -2.61879e-07)
(5.46427e-07 0 -2.59182e-07)
(5.84156e-07 0 -2.53568e-07)
(6.20793e-07 0 -2.44885e-07)
(6.55786e-07 0 -2.33551e-07)
(6.88712e-07 0 -2.19704e-07)
(7.19191e-07 0 -2.0342e-07)
(7.46802e-07 0 -1.85185e-07)
(7.71284e-07 0 -1.65598e-07)
(7.92481e-07 0 -1.44927e-07)
(8.10328e-07 0 -1.23259e-07)
(8.24762e-07 0 -1.01397e-07)
(8.35938e-07 0 -7.95384e-08)
(8.43918e-07 0 -5.77202e-08)
(8.4877e-07 0 -3.63776e-08)
(8.50679e-07 0 -1.55158e-08)
(8.49881e-07 0 4.72495e-09)
(8.4654e-07 0 2.4045e-08)
(8.40693e-07 0 4.27811e-08)
(8.32583e-07 0 6.03277e-08)
(8.22412e-07 0 7.68669e-08)
(8.10194e-07 0 9.32779e-08)
(7.95934e-07 0 1.07873e-07)
(7.8028e-07 0 1.22466e-07)
(7.62678e-07 0 1.36801e-07)
(7.43249e-07 0 1.47194e-07)
(7.22314e-07 0 1.58725e-07)
(7.00419e-07 0 1.68586e-07)
(6.77317e-07 0 1.78171e-07)
(6.53189e-07 0 1.86013e-07)
(6.28111e-07 0 1.9297e-07)
(6.02353e-07 0 1.98732e-07)
(5.76079e-07 0 2.03397e-07)
(5.4938e-07 0 2.07583e-07)
(5.22561e-07 0 2.10338e-07)
(4.95434e-07 0 2.12768e-07)
(4.68343e-07 0 2.13791e-07)
(4.41307e-07 0 2.14183e-07)
(4.14419e-07 0 2.14357e-07)
(3.87784e-07 0 2.13878e-07)
(3.61368e-07 0 2.12896e-07)
(3.35203e-07 0 2.11661e-07)
(3.0944e-07 0 2.09947e-07)
(2.8394e-07 0 2.08083e-07)
(2.5872e-07 0 2.06059e-07)
(2.3378e-07 0 2.0386e-07)
(2.09105e-07 0 2.01449e-07)
(1.8462e-07 0 1.98849e-07)
(1.60284e-07 0 1.95964e-07)
(1.36012e-07 0 1.92574e-07)
(1.1217e-07 0 1.88132e-07)
(8.48939e-08 0 1.81074e-07)
(5.99156e-08 0 2.39707e-07)
(2.27526e-08 0 2.8322e-07)
(1.29662e-10 0 2.35532e-07)
(7.88852e-16 0 -2.66267e-16)
(4.02224e-16 0 -1.7681e-18)