0 	2.54069e-20 	0 	-6.89616e-20
0.010101 	-5.7427e-20 	1.01723e-22 	-1.18668e-20
0.020202 	8.47864e-21 	1.69822e-22 	-9.56753e-20
0.030303 	-8.95205e-20 	-3.34534e-23 	-4.98165e-20
0.040404 	3.04932e-20 	-6.74177e-23 	-5.03658e-21
0.0505051 	-5.061e-20 	2.02935e-22 	-2.09496e-20
