0 	100002
0.010101 	100001
0.020202 	100001
0.030303 	100002
0.040404 	100004
0.0505051 	100001
