0 	100008
0.010101 	100008
0.020202 	100002
0.030303 	100000
0.040404 	100000
0.0505051 	100000
