/*--------------------------------*- C++ -*----------------------------------*\
  =========                 |
  \\      /  F ield         | OpenFOAM: The Open Source CFD Toolbox
   \\    /   O peration     | Website:  https://openfoam.org
    \\  /    A nd           | Version:  6
     \\/     M anipulation  |
\*---------------------------------------------------------------------------*/
FoamFile
{
    version     2.0;
    format      ascii;
    class       volScalarField;
    location    "300";
    object      dmdt;
}
// * * * * * * * * * * * * * * * * * * * * * * * * * * * * * * * * * * * * * //

dimensions      [0 0 0 0 0 0 0];

internalField   nonuniform List<scalar> 
5964
(
-0.359902
-0.316195
-0.279455
-0.249596
-0.225504
-0.205769
-0.189197
-0.174853
-0.161947
-0.150037
-0.139163
-0.129319
-0.120322
-0.112861
-0.104595
-0.0970422
-0.0902052
-0.0840606
-0.0785683
-0.0736789
-0.0693383
-0.0654915
-0.0620843
-0.0590656
-0.0563874
-0.0540059
-0.0518812
-0.0499774
-0.0482624
-0.0467079
-0.0452888
-0.0439833
-0.0427723
-0.0416393
-0.0405704
-0.0395535
-0.0385785
-0.0376369
-0.0367217
-0.0358271
-0.0349483
-0.0340816
-0.0332237
-0.0323724
-0.0315257
-0.0306823
-0.0298409
-0.029001
-0.0281619
-0.0273233
-0.0264849
-0.0256467
-0.0248087
-0.0239709
-0.0231334
-0.0222963
-0.0214598
-0.020624
-0.019789
-0.0189551
-0.0181222
-0.0172906
-0.0164604
-0.0156316
-0.0148043
-0.0139786
-0.0131544
-0.0123317
-0.0115104
-0.0106904
-0.00987157
-0.00905361
-0.00823629
-0.00741935
-0.00660254
-0.00578568
-0.00496865
-0.00415176
-0.00333711
-0.00253152
-0.00174658
-0.000968429
-4.27138e-05
0.00123388
-0.360791
-0.318398
-0.282201
-0.252372
-0.228
-0.207774
-0.190579
-0.175565
-0.162242
-0.150286
-0.139371
-0.129349
-0.120207
-0.112662
-0.104357
-0.0967952
-0.0899693
-0.0838471
-0.0783831
-0.0735238
-0.0692125
-0.0653925
-0.0620091
-0.0590105
-0.056349
-0.053981
-0.051867
-0.0499716
-0.0482629
-0.0467131
-0.0452974
-0.0439942
-0.0427847
-0.0416527
-0.0405842
-0.0395674
-0.0385922
-0.0376503
-0.0367347
-0.0358396
-0.0349602
-0.0340928
-0.0332343
-0.0323824
-0.0315351
-0.0306911
-0.0298492
-0.0290088
-0.0281692
-0.0273301
-0.0264913
-0.0256527
-0.0248142
-0.0239761
-0.0231382
-0.0223008
-0.021464
-0.0206279
-0.0197927
-0.0189585
-0.0181254
-0.0172936
-0.0164632
-0.0156342
-0.0148067
-0.0139808
-0.0131564
-0.0123336
-0.0115122
-0.0106921
-0.0098731
-0.00905505
-0.00823766
-0.00742066
-0.00660382
-0.00578692
-0.00496977
-0.00415245
-0.00333641
-0.00252663
-0.00172642
-0.000870516
0.000450548
0.00296514
-0.362136
-0.321594
-0.286017
-0.256104
-0.231281
-0.210432
-0.19262
-0.177118
-0.16339
-0.15101
-0.139696
-0.12934
-0.119928
-0.112223
-0.103852
-0.0962828
-0.0894857
-0.0834135
-0.0780096
-0.0732129
-0.0689618
-0.0651964
-0.0618606
-0.0589024
-0.0562742
-0.0539331
-0.0518403
-0.0499612
-0.048265
-0.0467243
-0.0453152
-0.0440165
-0.04281
-0.0416797
-0.040612
-0.0395954
-0.0386199
-0.0376773
-0.0367607
-0.0358645
-0.0349839
-0.0341153
-0.0332556
-0.0324025
-0.031554
-0.0307088
-0.0298658
-0.0290243
-0.0281837
-0.0273437
-0.026504
-0.0256645
-0.0248253
-0.0239864
-0.0231479
-0.0223099
-0.0214724
-0.0206358
-0.0198
-0.0189653
-0.0181318
-0.0172995
-0.0164687
-0.0156393
-0.0148115
-0.0139852
-0.0131605
-0.0123374
-0.0115157
-0.0106954
-0.00987617
-0.00905794
-0.0082404
-0.00742329
-0.00660639
-0.00578945
-0.00497217
-0.00415426
-0.00333631
-0.00252279
-0.00172464
-0.000939457
-5.64455e-05
0.0010676
-0.363135
-0.324159
-0.289285
-0.259329
-0.234059
-0.212615
-0.194173
-0.178109
-0.163971
-0.15131
-0.139715
-0.129031
-0.119328
-0.111452
-0.10302
-0.0954642
-0.0887274
-0.0827425
-0.0774377
-0.0727411
-0.068584
-0.0649028
-0.0616396
-0.0587423
-0.056164
-0.0538628
-0.0518014
-0.0499466
-0.0482686
-0.0467415
-0.045342
-0.04405
-0.0428477
-0.04172
-0.0406535
-0.039637
-0.038661
-0.0377173
-0.0367994
-0.0359015
-0.0350192
-0.0341488
-0.0332873
-0.0324323
-0.0315821
-0.0307352
-0.0298906
-0.0290475
-0.0282055
-0.027364
-0.026523
-0.0256823
-0.024842
-0.024002
-0.0231624
-0.0223234
-0.0214851
-0.0206475
-0.019811
-0.0189755
-0.0181413
-0.0173084
-0.0164769
-0.015647
-0.0148186
-0.0139918
-0.0131667
-0.0123431
-0.011521
-0.0107003
-0.00988076
-0.00906223
-0.00824447
-0.00742721
-0.00661024
-0.00579332
-0.00497605
-0.00415775
-0.00333808
-0.00252033
-0.00171912
-0.000967304
-0.000304553
0.000206732
-0.363848
-0.325993
-0.291656
-0.261642
-0.235899
-0.213853
-0.194851
-0.178334
-0.163865
-0.150957
-0.139145
-0.128213
-0.118262
-0.110241
-0.101784
-0.0942853
-0.0876583
-0.081812
-0.0766553
-0.0721029
-0.0680779
-0.0645126
-0.061348
-0.0585323
-0.0560202
-0.0537717
-0.0517515
-0.0499283
-0.0482741
-0.0467645
-0.0453775
-0.0440941
-0.0428974
-0.0417729
-0.0407079
-0.0396917
-0.038715
-0.03777
-0.0368503
-0.0359503
-0.0350658
-0.034193
-0.0333291
-0.0324718
-0.0316192
-0.0307701
-0.0299234
-0.0290782
-0.0282342
-0.0273909
-0.0265482
-0.0257059
-0.024864
-0.0240225
-0.0231816
-0.0223413
-0.0215018
-0.0206632
-0.0198256
-0.0189892
-0.018154
-0.0173202
-0.0164879
-0.0156572
-0.0148281
-0.0140007
-0.0131749
-0.0123507
-0.011528
-0.0107068
-0.00988682
-0.00906791
-0.00824982
-0.00743236
-0.00661534
-0.00579855
-0.00498159
-0.00416356
-0.00334351
-0.0025236
-0.00171842
-0.000969958
-0.000356529
1.57164e-05
-0.36431
-0.32716
-0.293061
-0.262806
-0.236479
-0.2138
-0.194274
-0.177376
-0.162639
-0.149568
-0.137653
-0.12659
-0.116532
-0.10847
-0.100058
-0.0926832
-0.0862371
-0.0805982
-0.0756514
-0.0712954
-0.0674451
-0.0640296
-0.0609899
-0.0582763
-0.055846
-0.0536621
-0.0516921
-0.0499072
-0.0482819
-0.0467933
-0.0454214
-0.0441483
-0.0429584
-0.0418378
-0.0407747
-0.0397588
-0.0387812
-0.0378347
-0.0369127
-0.0360103
-0.035123
-0.0342474
-0.0333806
-0.0325204
-0.031665
-0.0308132
-0.0299638
-0.0291162
-0.0282698
-0.0274243
-0.0265794
-0.0257351
-0.0248913
-0.0240481
-0.0232055
-0.0223636
-0.0215227
-0.0206826
-0.0198437
-0.0190061
-0.0181698
-0.0173349
-0.0165016
-0.01567
-0.0148399
-0.0140116
-0.013185
-0.0123601
-0.0115368
-0.0107149
-0.00989433
-0.0090749
-0.00825641
-0.00743868
-0.00662158
-0.00580503
-0.00498873
-0.0041719
-0.00335353
-0.00253548
-0.00173206
-0.000986541
-0.000383848
-3.67672e-05
-0.364463
-0.327567
-0.293506
-0.263013
-0.236331
-0.213286
-0.193338
-0.175969
-0.160836
-0.147513
-0.13551
-0.124362
-0.114175
-0.10606
-0.0977498
-0.0905889
-0.0844216
-0.0790812
-0.0744208
-0.070322
-0.0666929
-0.063462
-0.0605732
-0.0579808
-0.0556466
-0.0535378
-0.0516258
-0.0498849
-0.0482925
-0.0468281
-0.0454734
-0.0442121
-0.0430298
-0.0419138
-0.0408528
-0.0398373
-0.0388589
-0.0379104
-0.0369861
-0.0360807
-0.0351903
-0.0343114
-0.0334412
-0.0325777
-0.0317192
-0.0308642
-0.0300117
-0.0291612
-0.028312
-0.0274639
-0.0266165
-0.0257698
-0.0249238
-0.0240785
-0.0232339
-0.0223902
-0.0215475
-0.0207058
-0.0198654
-0.0190263
-0.0181886
-0.0173525
-0.016518
-0.0156851
-0.0148541
-0.0140248
-0.0131972
-0.0123714
-0.0115472
-0.0107245
-0.00990323
-0.00908317
-0.00826415
-0.00744604
-0.00662882
-0.00581253
-0.00499714
-0.00418221
-0.0033672
-0.00255443
-0.00175839
-0.00102206
-0.000429529
-9.15784e-05
-0.364524
-0.327644
-0.293398
-0.262543
-0.235408
-0.211888
-0.191462
-0.173667
-0.158227
-0.144717
-0.132638
-0.121386
-0.111047
-0.102872
-0.0947392
-0.0879228
-0.0821733
-0.0772514
-0.0729704
-0.0691968
-0.065837
-0.0628246
-0.0601102
-0.0576556
-0.0554291
-0.0534038
-0.0515557
-0.0498632
-0.0483069
-0.0468689
-0.0455331
-0.0442848
-0.043111
-0.0419999
-0.0409413
-0.0399263
-0.0389468
-0.0379964
-0.0370694
-0.0361608
-0.0352669
-0.0343844
-0.0335106
-0.0326433
-0.0317811
-0.0309226
-0.0300667
-0.0292129
-0.0283606
-0.0275094
-0.0266592
-0.0258099
-0.0249613
-0.0241136
-0.0232668
-0.0224209
-0.0215762
-0.0207327
-0.0198904
-0.0190497
-0.0182104
-0.0173728
-0.0165369
-0.0157028
-0.0148704
-0.0140399
-0.0132113
-0.0123844
-0.0115592
-0.0107356
-0.00991349
-0.00909266
-0.00827297
-0.00745436
-0.00663689
-0.00582078
-0.00500627
-0.00419338
-0.00338213
-0.00257542
-0.00178793
-0.00106182
-0.000479086
-0.000147503
-0.36445
-0.327319
-0.292637
-0.261264
-0.233606
-0.209679
-0.188988
-0.170891
-0.155106
-0.141342
-0.129161
-0.117737
-0.107062
-0.0986938
-0.0908537
-0.0845955
-0.0794683
-0.0751214
-0.0713279
-0.0679503
-0.0649052
-0.06214
-0.0596186
-0.0573138
-0.055203
-0.0532665
-0.0514861
-0.0498447
-0.0483264
-0.0469162
-0.0456003
-0.0443657
-0.0432008
-0.0420951
-0.0410391
-0.0400245
-0.0390441
-0.0380917
-0.0371617
-0.0362498
-0.0353522
-0.0344657
-0.0335879
-0.0327166
-0.0318504
-0.030988
-0.0301284
-0.029271
-0.0284152
-0.0275607
-0.0267074
-0.025855
-0.0250036
-0.0241533
-0.0233039
-0.0224557
-0.0216087
-0.020763
-0.0199188
-0.0190762
-0.0182351
-0.0173958
-0.0165584
-0.0157227
-0.014889
-0.0140572
-0.0132272
-0.0123992
-0.0115729
-0.0107482
-0.00992507
-0.00910332
-0.00828281
-0.00746353
-0.00664563
-0.00582946
-0.0050155
-0.00420405
-0.00339539
-0.00259241
-0.00180921
-0.00108685
-0.000506346
-0.000175472
-0.364333
-0.326862
-0.291648
-0.259583
-0.231187
-0.20672
-0.185752
-0.167567
-0.151689
-0.137634
-0.125027
-0.113161
-0.101898
-0.0930957
-0.085829
-0.0805224
-0.0763226
-0.0727451
-0.0695528
-0.0666349
-0.0639394
-0.0614402
-0.0591217
-0.0569719
-0.0549796
-0.0531335
-0.0514217
-0.049832
-0.0483522
-0.0469703
-0.0456746
-0.044454
-0.0432984
-0.0421982
-0.0411449
-0.040131
-0.0391496
-0.038195
-0.0372621
-0.0363467
-0.0354452
-0.0345546
-0.0336725
-0.032797
-0.0319266
-0.03106
-0.0301964
-0.0293351
-0.0284755
-0.0276175
-0.0267607
-0.0259051
-0.0250506
-0.0241973
-0.0233452
-0.0224944
-0.0216449
-0.0207969
-0.0199505
-0.0191057
-0.0182627
-0.0174216
-0.0165823
-0.015745
-0.0149097
-0.0140764
-0.0132451
-0.0124156
-0.0115881
-0.0107622
-0.00993793
-0.00911511
-0.00829364
-0.00747351
-0.00665493
-0.00583836
-0.00502433
-0.00421314
-0.00340472
-0.002601
-0.00181449
-0.0010851
-0.000495063
-0.000156857
-0.364014
-0.325818
-0.289786
-0.25692
-0.227826
-0.202989
-0.18199
-0.163886
-0.147912
-0.133567
-0.120397
-0.107767
-0.095292
-0.0851827
-0.079296
-0.0756937
-0.072848
-0.0702472
-0.0677487
-0.0653286
-0.0629957
-0.0607647
-0.058647
-0.0566488
-0.0547716
-0.053013
-0.0513676
-0.049828
-0.0483857
-0.0470314
-0.0457556
-0.0445489
-0.0434025
-0.0423079
-0.0412575
-0.0402442
-0.039262
-0.0383053
-0.0373695
-0.0364505
-0.035545
-0.0346502
-0.0337638
-0.0328839
-0.032009
-0.0311381
-0.0302702
-0.0294048
-0.0285413
-0.0276794
-0.0268189
-0.0259599
-0.0251021
-0.0242456
-0.0233905
-0.0225368
-0.0216846
-0.0208341
-0.0199852
-0.0191382
-0.0182931
-0.0174499
-0.0166087
-0.0157696
-0.0149325
-0.0140976
-0.0132647
-0.0124338
-0.0116048
-0.0107776
-0.00995205
-0.00912802
-0.00830542
-0.00748426
-0.00666477
-0.0058474
-0.00503264
-0.00422047
-0.00341001
-0.0026016
-0.00180577
-0.00106158
-0.00045424
-0.000103748
-0.363673
-0.324737
-0.287899
-0.254219
-0.224454
-0.19931
-0.178327
-0.160488
-0.144694
-0.130163
-0.116169
-0.101998
-0.0869626
-0.0725644
-0.0709276
-0.0703821
-0.0693486
-0.0678527
-0.0660679
-0.0641323
-0.0621412
-0.0601581
-0.058224
-0.0563639
-0.0545915
-0.0529129
-0.0513285
-0.0498353
-0.048428
-0.0470997
-0.0458428
-0.0446495
-0.0435121
-0.0424231
-0.0413755
-0.0403631
-0.0393801
-0.0384215
-0.0374828
-0.0365603
-0.0356509
-0.0347519
-0.033861
-0.0329766
-0.0320972
-0.0312218
-0.0303495
-0.0294797
-0.028612
-0.0277461
-0.0268818
-0.026019
-0.0251577
-0.0242979
-0.0234395
-0.0225828
-0.0217278
-0.0208745
-0.0200231
-0.0191736
-0.0183261
-0.0174807
-0.0166374
-0.0157963
-0.0149574
-0.0141206
-0.013286
-0.0124535
-0.011623
-0.0107943
-0.00996737
-0.00914202
-0.00831816
-0.00749581
-0.00667519
-0.00585673
-0.00504079
-0.00422699
-0.00341372
-0.00260015
-0.00179555
-0.00103891
-0.000418092
-5.85369e-05
-0.363241
-0.323437
-0.285801
-0.251526
-0.221541
-0.196653
-0.176169
-0.15873
-0.142974
-0.128021
-0.113093
-0.0971057
-0.0778194
-0.0274648
-0.0617307
-0.065647
-0.0664188
-0.0658836
-0.0646931
-0.0631552
-0.0614433
-0.0596631
-0.0578802
-0.0561348
-0.0544505
-0.0528399
-0.0513083
-0.0498558
-0.0484796
-0.0471748
-0.0459354
-0.0447546
-0.0436258
-0.0425422
-0.0414977
-0.0404862
-0.0395027
-0.0385423
-0.037601
-0.0366752
-0.0357619
-0.0348587
-0.0339634
-0.0330745
-0.0321905
-0.0313106
-0.0304337
-0.0295595
-0.0286875
-0.0278175
-0.0269491
-0.0260825
-0.0252174
-0.024354
-0.0234923
-0.0226323
-0.0217742
-0.020918
-0.0200638
-0.0192117
-0.0183617
-0.0175139
-0.0166684
-0.0158251
-0.0149842
-0.0141455
-0.0133091
-0.0124748
-0.0116426
-0.0108123
-0.00998389
-0.00915709
-0.00833184
-0.00750817
-0.00668628
-0.00586656
-0.00504932
-0.00423407
-0.00341911
-0.00260368
-0.00179752
-0.00104032
-0.000420232
-6.18406e-05
-0.362769
-0.322064
-0.283777
-0.249385
-0.219679
-0.195344
-0.175573
-0.158693
-0.143274
-0.128264
-0.112847
-0.0961141
-0.0776191
-0.053283
-0.0614783
-0.0637957
-0.0647779
-0.0646429
-0.0637811
-0.0624873
-0.0609566
-0.0593135
-0.0576366
-0.0559746
-0.0543565
-0.0527987
-0.0513092
-0.0498903
-0.0485405
-0.0472562
-0.0460323
-0.044863
-0.0437423
-0.042664
-0.0416225
-0.0406123
-0.0396285
-0.0386666
-0.0377229
-0.0367941
-0.0358772
-0.03497
-0.0340704
-0.033177
-0.0322885
-0.0314039
-0.0305226
-0.0296438
-0.0287674
-0.027893
-0.0270205
-0.0261498
-0.0252809
-0.0244138
-0.0235485
-0.0226852
-0.0218238
-0.0209645
-0.0201074
-0.0192525
-0.0183998
-0.0175495
-0.0167016
-0.015856
-0.0150129
-0.0141722
-0.0133337
-0.0124976
-0.0116636
-0.0108316
-0.0100015
-0.00917319
-0.00834645
-0.00752135
-0.00669809
-0.00587705
-0.00505859
-0.00424244
-0.00342755
-0.00261453
-0.0018151
-0.00107001
-0.000465023
-0.000117732
-0.362232
-0.320652
-0.282003
-0.247979
-0.219262
-0.19614
-0.17759
-0.161587
-0.146573
-0.131334
-0.114981
-0.096898
-0.0772725
-0.0595675
-0.0610178
-0.0632188
-0.0642432
-0.0641793
-0.0633932
-0.0621725
-0.0607092
-0.0591269
-0.057504
-0.0558894
-0.0543127
-0.0527907
-0.0513316
-0.0499382
-0.0486095
-0.0473423
-0.0461319
-0.044973
-0.0438599
-0.042787
-0.0417487
-0.04074
-0.0397563
-0.0387934
-0.0378478
-0.0369161
-0.0359959
-0.0350849
-0.0341813
-0.0332836
-0.0323906
-0.0315015
-0.0306155
-0.0297323
-0.0288514
-0.0279726
-0.0270958
-0.026221
-0.025348
-0.0244771
-0.0236081
-0.0227412
-0.0218764
-0.0210139
-0.0201537
-0.0192958
-0.0184404
-0.0175874
-0.0167369
-0.0158889
-0.0150435
-0.0142005
-0.01336
-0.0125218
-0.0116859
-0.0108521
-0.0100203
-0.00919027
-0.00836195
-0.00753533
-0.00671061
-0.0058882
-0.00506855
-0.00425179
-0.00343788
-0.00262939
-0.00184049
-0.00111294
-0.000528764
-0.00019626
-0.361859
-0.319693
-0.280976
-0.247637
-0.220318
-0.19891
-0.181781
-0.166643
-0.151968
-0.136468
-0.119376
-0.0997399
-0.0743057
-0.0328366
-0.0594691
-0.0637756
-0.0647816
-0.0644794
-0.0635231
-0.0622076
-0.0606993
-0.0591017
-0.0574806
-0.0558775
-0.0543173
-0.0528138
-0.0513733
-0.0499975
-0.0486847
-0.0474314
-0.0462326
-0.0450831
-0.0439773
-0.0429096
-0.0418749
-0.0408682
-0.0398851
-0.0389217
-0.0379745
-0.0370406
-0.0361174
-0.035203
-0.0342955
-0.0333936
-0.0324963
-0.0316027
-0.0307123
-0.0298245
-0.0289391
-0.0280558
-0.0271747
-0.0262956
-0.0254186
-0.0245436
-0.0236708
-0.0228002
-0.021932
-0.021066
-0.0202026
-0.0193416
-0.0184832
-0.0176274
-0.0167742
-0.0159237
-0.0150758
-0.0142305
-0.0133878
-0.0125475
-0.0117095
-0.0108738
-0.0100401
-0.0092083
-0.00837829
-0.00755007
-0.0067238
-0.0058999
-0.00507891
-0.0042613
-0.00344791
-0.00264298
-0.0018627
-0.00114944
-0.000581904
-0.000261004
-0.361848
-0.319679
-0.281177
-0.248721
-0.223149
-0.203586
-0.187916
-0.173626
-0.159391
-0.143885
-0.126666
-0.107451
-0.0875565
-0.0702232
-0.0679048
-0.0673391
-0.0665846
-0.0654789
-0.0640994
-0.062544
-0.0608959
-0.0592178
-0.057553
-0.0559293
-0.054363
-0.0528624
-0.0514299
-0.0500646
-0.0487631
-0.0475208
-0.0463321
-0.0451913
-0.0440926
-0.0430305
-0.0419998
-0.0409957
-0.0400138
-0.0390505
-0.0381024
-0.0371667
-0.036241
-0.0353235
-0.0344125
-0.0335067
-0.0326053
-0.0317074
-0.0308124
-0.0299202
-0.0290303
-0.0281426
-0.027257
-0.0263736
-0.0254924
-0.0246133
-0.0237366
-0.0228622
-0.0219902
-0.0211208
-0.020254
-0.0193898
-0.0185283
-0.0176695
-0.0168136
-0.0159603
-0.0151099
-0.0142621
-0.013417
-0.0125744
-0.0117343
-0.0108965
-0.0100609
-0.00922721
-0.00839542
-0.00756549
-0.00673757
-0.00591204
-0.00508945
-0.00427042
-0.00345631
-0.00265226
-0.00187539
-0.00116805
-0.00060707
-0.000290373
-0.36173
-0.319938
-0.282683
-0.251809
-0.227973
-0.210049
-0.195778
-0.182216
-0.168284
-0.152424
-0.134537
-0.11532
-0.0970214
-0.0824555
-0.0748918
-0.0711768
-0.0688138
-0.0668444
-0.0649607
-0.0630925
-0.0612452
-0.0594406
-0.0576976
-0.0560283
-0.0544382
-0.052928
-0.051495
-0.0501346
-0.0488409
-0.0476076
-0.0464281
-0.0452957
-0.0442044
-0.0431484
-0.0421223
-0.0411215
-0.0401417
-0.0391791
-0.0382308
-0.0372939
-0.0363663
-0.0354461
-0.0345319
-0.0336225
-0.0327171
-0.0318151
-0.0309158
-0.0300191
-0.0291247
-0.0282325
-0.0273425
-0.0264548
-0.0255692
-0.024686
-0.0238052
-0.0229269
-0.0220512
-0.0211781
-0.0203078
-0.0194402
-0.0185755
-0.0177137
-0.0168548
-0.0159987
-0.0151455
-0.0142952
-0.0134476
-0.0126027
-0.0117603
-0.0109203
-0.0100826
-0.00924695
-0.00841328
-0.00758155
-0.00675188
-0.0059246
-0.00510019
-0.00427928
-0.00346328
-0.00265731
-0.00187798
-0.00116646
-0.000599133
-0.000276799
-0.362298
-0.321498
-0.285477
-0.256361
-0.23433
-0.217842
-0.204772
-0.191818
-0.17803
-0.161689
-0.142951
-0.122653
-0.10299
-0.087288
-0.0785937
-0.0739409
-0.0708203
-0.0682636
-0.0659409
-0.0637548
-0.0616841
-0.0597276
-0.0578851
-0.0561538
-0.0545279
-0.0529997
-0.0515607
-0.0502017
-0.0489139
-0.0476886
-0.046518
-0.0453944
-0.0443112
-0.043262
-0.0422415
-0.0412449
-0.040268
-0.0393071
-0.0383592
-0.0374217
-0.0364927
-0.0355703
-0.0346534
-0.0337407
-0.0328316
-0.0319256
-0.0310221
-0.030121
-0.0292222
-0.0283256
-0.0274311
-0.0265389
-0.025649
-0.0247615
-0.0238766
-0.0229942
-0.0221146
-0.0212378
-0.0203638
-0.0194928
-0.0186248
-0.0177598
-0.0168978
-0.0160388
-0.0151828
-0.0143297
-0.0134795
-0.0126321
-0.0117873
-0.0109451
-0.0101052
-0.00926745
-0.00843181
-0.0075982
-0.00676672
-0.00593763
-0.00511133
-0.00428831
-0.0034696
-0.00265924
-0.00187135
-0.00114396
-0.000554214
-0.00021335
-0.363129
-0.323895
-0.289618
-0.262394
-0.241867
-0.226454
-0.214489
-0.202167
-0.188378
-0.171401
-0.151375
-0.128934
-0.105588
-0.0848675
-0.07887
-0.0754674
-0.0724506
-0.0696053
-0.0669353
-0.0644508
-0.0621531
-0.060035
-0.0580836
-0.0562827
-0.0546155
-0.0530657
-0.0516183
-0.0502596
-0.0489773
-0.0477606
-0.0465996
-0.0454858
-0.0444116
-0.0433705
-0.0423567
-0.0413654
-0.0403923
-0.0394339
-0.0384873
-0.03755
-0.0366201
-0.0356961
-0.0347767
-0.0338611
-0.0329486
-0.0320387
-0.0311312
-0.0302258
-0.0293226
-0.0284215
-0.0275225
-0.0266259
-0.0257316
-0.0248398
-0.0239506
-0.0230641
-0.0221805
-0.0212998
-0.0204221
-0.0195475
-0.018676
-0.0178077
-0.0169425
-0.0160805
-0.0152216
-0.0143657
-0.0135128
-0.0126627
-0.0118154
-0.0109708
-0.0101286
-0.00928867
-0.00845097
-0.00761541
-0.00678207
-0.00595117
-0.00512302
-0.00429785
-0.00347591
-0.00265898
-0.0018565
-0.001101
-0.000471352
-9.75579e-05
-0.36378
-0.326419
-0.294427
-0.269026
-0.249938
-0.235693
-0.224728
-0.212827
-0.198965
-0.181494
-0.160309
-0.135623
-0.106944
-0.037086
-0.0773697
-0.0767538
-0.0740163
-0.0709011
-0.0678933
-0.065118
-0.0625977
-0.0603205
-0.0582612
-0.0563916
-0.0546839
-0.0531136
-0.0516592
-0.0503022
-0.0490271
-0.0478204
-0.0466707
-0.0455683
-0.0445048
-0.0434732
-0.0424676
-0.0414827
-0.0405146
-0.0395597
-0.0386151
-0.0376787
-0.0367485
-0.0358233
-0.0349019
-0.0339836
-0.0330679
-0.0321544
-0.0312429
-0.0303334
-0.0294258
-0.0285202
-0.0276168
-0.0267156
-0.0258168
-0.0249206
-0.0240271
-0.0231364
-0.0222487
-0.021364
-0.0204825
-0.0196042
-0.0187292
-0.0178574
-0.0169889
-0.0161237
-0.0152617
-0.0144029
-0.0135472
-0.0126944
-0.0118446
-0.0109974
-0.0101528
-0.00931057
-0.00847071
-0.00763313
-0.00679791
-0.00596525
-0.00513538
-0.00430825
-0.00348319
-0.0026593
-0.00184043
-0.00105235
-0.00037556
3.76457e-05
-0.364924
-0.33
-0.299992
-0.276129
-0.258423
-0.245184
-0.234768
-0.223052
-0.209077
-0.191376
-0.16978
-0.144582
-0.11613
-0.0848187
-0.0842823
-0.0800443
-0.0759234
-0.0721547
-0.0687462
-0.0656882
-0.0629634
-0.0605425
-0.0583874
-0.0564581
-0.0547171
-0.0531319
-0.0516751
-0.0503239
-0.0490593
-0.0478657
-0.0467299
-0.0456412
-0.0445904
-0.0435701
-0.042574
-0.041597
-0.040635
-0.0396845
-0.0387428
-0.0378079
-0.036878
-0.035952
-0.035029
-0.0341083
-0.0331896
-0.0322726
-0.0313573
-0.0304436
-0.0295317
-0.0286217
-0.0277137
-0.026808
-0.0259047
-0.025004
-0.0241061
-0.0232111
-0.0223191
-0.0214304
-0.0205449
-0.0196628
-0.0187841
-0.0179088
-0.0170369
-0.0161684
-0.0153033
-0.0144415
-0.0135828
-0.0127272
-0.0118746
-0.0110248
-0.0101777
-0.00933311
-0.00849099
-0.00765132
-0.00681419
-0.00597982
-0.00514842
-0.00431988
-0.00349307
-0.00266556
-0.00183743
-0.00102886
-0.000319344
0.000123449
-0.366062
-0.333268
-0.30526
-0.283263
-0.266881
-0.254546
-0.244233
-0.232501
-0.218363
-0.20062
-0.179092
-0.15418
-0.127569
-0.10391
-0.091162
-0.0828699
-0.0773532
-0.0730385
-0.0693361
-0.0660717
-0.0631927
-0.0606617
-0.0584342
-0.0564622
-0.0547007
-0.0531106
-0.0516593
-0.05032
-0.0490711
-0.0478947
-0.0467764
-0.0457042
-0.0446685
-0.0436615
-0.0426766
-0.0417088
-0.040754
-0.0398088
-0.0388708
-0.037938
-0.0370089
-0.0360826
-0.0351582
-0.0342354
-0.0333139
-0.0323935
-0.0314744
-0.0305566
-0.0296404
-0.0287259
-0.0278133
-0.026903
-0.0259951
-0.0250898
-0.0241874
-0.023288
-0.0223917
-0.0214988
-0.0206093
-0.0197233
-0.0188408
-0.0179618
-0.0170864
-0.0162146
-0.0153462
-0.0144812
-0.0136195
-0.012761
-0.0119056
-0.0110531
-0.0102033
-0.00935625
-0.00851178
-0.00766992
-0.00683082
-0.00599473
-0.00516196
-0.00433257
-0.00350579
-0.00267939
-0.00185211
-0.00103893
-0.00031243
0.000152962
-0.367291
-0.33685
-0.310931
-0.290609
-0.275289
-0.263605
-0.252922
-0.24087
-0.226286
-0.207987
-0.185783
-0.160489
-0.133818
-0.109245
-0.0919339
-0.082705
-0.0773309
-0.0731804
-0.0695062
-0.0661892
-0.0632377
-0.0606458
-0.0583787
-0.0563878
-0.0546235
-0.0530419
-0.0516066
-0.0502876
-0.0490608
-0.0479069
-0.0468101
-0.0457578
-0.0447399
-0.0437483
-0.0427764
-0.0418192
-0.0408726
-0.0399337
-0.0389999
-0.0380698
-0.0371419
-0.0362154
-0.0352899
-0.0343651
-0.0334408
-0.0325172
-0.0315943
-0.0306724
-0.0297518
-0.0288328
-0.0279156
-0.0270005
-0.0260879
-0.025178
-0.0242709
-0.023367
-0.0224664
-0.0215692
-0.0206755
-0.0197855
-0.0188991
-0.0180164
-0.0171374
-0.016262
-0.0153903
-0.0145221
-0.0136573
-0.0127958
-0.0119374
-0.0110821
-0.0102296
-0.00937997
-0.00853304
-0.00768889
-0.00684769
-0.00600977
-0.00517553
-0.00434527
-0.00351863
-0.00269337
-0.00186472
-0.00103552
-0.000262381
0.000262811
-0.368617
-0.340655
-0.316798
-0.297963
-0.283366
-0.271925
-0.260645
-0.247915
-0.232401
-0.213254
-0.190527
-0.164606
-0.136288
-0.107663
-0.0831958
-0.0783073
-0.0755962
-0.0725441
-0.0692435
-0.0660218
-0.063077
-0.0604756
-0.0582058
-0.0562235
-0.0544774
-0.0529208
-0.0515141
-0.0502251
-0.0490282
-0.0479028
-0.0468322
-0.0458035
-0.0448062
-0.0438321
-0.0428749
-0.0419295
-0.0409922
-0.0400601
-0.0391312
-0.038204
-0.0372775
-0.0363512
-0.0354247
-0.0344978
-0.0335708
-0.0326439
-0.0317172
-0.0307911
-0.0298661
-0.0289424
-0.0280205
-0.0271006
-0.0261832
-0.0252685
-0.0243568
-0.0234482
-0.0225431
-0.0216415
-0.0207435
-0.0198493
-0.018959
-0.0180724
-0.0171897
-0.0163108
-0.0154356
-0.0145641
-0.0136961
-0.0128315
-0.0119701
-0.0111119
-0.0102566
-0.00940425
-0.00855474
-0.00770816
-0.00686471
-0.00602473
-0.00518867
-0.00435687
-0.00352877
-0.0027
-0.00185668
-0.000978338
-9.69605e-05
0.00055337
-0.369872
-0.344245
-0.322349
-0.30488
-0.290782
-0.278991
-0.266518
-0.252337
-0.235633
-0.215955
-0.193095
-0.167085
-0.137874
-0.103483
-0.0501225
-0.0709719
-0.0733825
-0.0716694
-0.0687382
-0.0656232
-0.0627181
-0.0601452
-0.0579076
-0.055963
-0.0542585
-0.052745
-0.0513811
-0.0501333
-0.0489749
-0.0478844
-0.0468451
-0.0458437
-0.0448698
-0.0439154
-0.0429743
-0.0420418
-0.0411144
-0.0401897
-0.0392659
-0.0383419
-0.0374169
-0.0364906
-0.035563
-0.0346341
-0.0337043
-0.0327739
-0.0318433
-0.0309129
-0.0299833
-0.0290549
-0.0281281
-0.0272033
-0.0262809
-0.0253613
-0.0244448
-0.0235315
-0.0226217
-0.0217155
-0.0208132
-0.0199148
-0.0190203
-0.0181298
-0.0172433
-0.0163607
-0.015482
-0.0146071
-0.0137358
-0.012868
-0.0120036
-0.0111423
-0.0102842
-0.00942906
-0.00857687
-0.00772772
-0.00688183
-0.00603954
-0.00520127
-0.00436726
-0.00353641
-0.00270175
-0.00184001
-0.000909091
7.94601e-05
0.000848651
-0.371131
-0.347837
-0.327692
-0.311089
-0.297121
-0.284417
-0.270603
-0.255026
-0.237071
-0.216389
-0.193098
-0.167072
-0.138564
-0.107643
-0.0640185
-0.0750715
-0.0740547
-0.0714211
-0.0682254
-0.0650556
-0.0621735
-0.0596541
-0.0574812
-0.0556041
-0.0539658
-0.0525152
-0.0512096
-0.0500149
-0.0489039
-0.0478553
-0.0468523
-0.045882
-0.0449341
-0.0440012
-0.0430774
-0.0421585
-0.0412415
-0.0403244
-0.0394058
-0.0384848
-0.0375611
-0.0366347
-0.0357058
-0.0347746
-0.0338418
-0.0329076
-0.0319729
-0.031038
-0.0301036
-0.0291703
-0.0282384
-0.0273086
-0.0263811
-0.0254564
-0.0245349
-0.0236167
-0.0227021
-0.0217914
-0.0208846
-0.0199818
-0.0190831
-0.0181886
-0.0172981
-0.0164118
-0.0155295
-0.014651
-0.0137764
-0.0129053
-0.0120378
-0.0111735
-0.0103124
-0.0094544
-0.00859943
-0.00774759
-0.00689908
-0.00605424
-0.00521344
-0.00437686
-0.00354314
-0.00270448
-0.00183545
-0.000890845
0.000116555
0.000898384
-0.372306
-0.351109
-0.332419
-0.316223
-0.301854
-0.287674
-0.271967
-0.254292
-0.234472
-0.212805
-0.189671
-0.165135
-0.13879
-0.11183
-0.089076
-0.0810541
-0.0756348
-0.0713424
-0.0675836
-0.064281
-0.0614293
-0.0589965
-0.0569248
-0.0551473
-0.0536017
-0.0522349
-0.0510039
-0.0498747
-0.0488205
-0.0478206
-0.0468589
-0.0459229
-0.0450034
-0.0440933
-0.0431876
-0.0422827
-0.0413762
-0.0404664
-0.0395526
-0.0386343
-0.0377115
-0.0367846
-0.0358539
-0.03492
-0.0339837
-0.0330456
-0.0321063
-0.0311666
-0.0302272
-0.0292887
-0.0283516
-0.0274164
-0.0264837
-0.0255538
-0.0246271
-0.0237039
-0.0227844
-0.0218689
-0.0209575
-0.0200502
-0.0191472
-0.0182485
-0.0173541
-0.0164639
-0.0155779
-0.0146959
-0.0138178
-0.0129434
-0.0120727
-0.0112053
-0.0103412
-0.00948025
-0.00862242
-0.00776778
-0.00691652
-0.00606893
-0.00522532
-0.00438565
-0.00354781
-0.00270164
-0.00181608
-0.000837402
0.000223546
0.00105471
-0.37326
-0.353728
-0.336022
-0.319751
-0.304238
-0.288085
-0.270084
-0.250274
-0.229006
-0.206469
-0.182853
-0.158693
-0.134797
-0.112131
-0.0938048
-0.0833816
-0.0759129
-0.0706242
-0.0665257
-0.0631995
-0.060452
-0.058163
-0.0562377
-0.0545959
-0.0531714
-0.0519104
-0.0507709
-0.0497198
-0.0487317
-0.0477871
-0.0468711
-0.0459724
-0.0450829
-0.0441965
-0.0433092
-0.042418
-0.0415214
-0.0406183
-0.0397085
-0.0387921
-0.0378695
-0.0369413
-0.0360082
-0.0350711
-0.0341308
-0.0331881
-0.0322439
-0.0312991
-0.0303543
-0.0294103
-0.0284676
-0.0275269
-0.0265887
-0.0256534
-0.0247214
-0.023793
-0.0228685
-0.021948
-0.0210319
-0.02012
-0.0192126
-0.0183097
-0.0174111
-0.016517
-0.0156272
-0.0147416
-0.01386
-0.0129822
-0.0121082
-0.0112377
-0.0103705
-0.00950659
-0.00864585
-0.00778834
-0.00693421
-0.00608371
-0.00523703
-0.00439369
-0.00355007
-0.00269124
-0.00177465
-0.000728388
0.000443157
0.00137965
-0.373765
-0.354966
-0.337412
-0.320556
-0.303238
-0.284592
-0.264013
-0.242218
-0.219855
-0.19715
-0.174358
-0.151351
-0.129024
-0.108631
-0.0920835
-0.0817735
-0.0741498
-0.068835
-0.0648592
-0.0617368
-0.0592173
-0.0571489
-0.0554233
-0.0539568
-0.0526834
-0.0515512
-0.0505203
-0.0495599
-0.0486468
-0.0477634
-0.0468968
-0.0460375
-0.0451788
-0.0443161
-0.0434465
-0.0425682
-0.0416804
-0.0407829
-0.039876
-0.0389603
-0.0380367
-0.0371062
-0.0361698
-0.0352286
-0.0342836
-0.0333358
-0.0323862
-0.0314356
-0.030485
-0.0295352
-0.0285866
-0.0276401
-0.0266962
-0.0257552
-0.0248177
-0.0238839
-0.0229542
-0.0220287
-0.0211076
-0.0201911
-0.0192791
-0.0183718
-0.0174691
-0.016571
-0.0156773
-0.014788
-0.0139028
-0.0130217
-0.0121443
-0.0112706
-0.0104003
-0.0095334
-0.0086697
-0.00780926
-0.0069522
-0.00609867
-0.00524872
-0.00440143
-0.00355172
-0.00268079
-0.00173876
-0.000647786
0.000577269
0.00154513
-0.374149
-0.355252
-0.336442
-0.317909
-0.297987
-0.276634
-0.253739
-0.23073
-0.208322
-0.186395
-0.164708
-0.142845
-0.121441
-0.10161
-0.0853838
-0.0766334
-0.0703813
-0.0659523
-0.0625705
-0.0598919
-0.057731
-0.0559632
-0.0544924
-0.0532417
-0.0521501
-0.0511699
-0.0502646
-0.049407
-0.0485769
-0.0477597
-0.0469452
-0.0461262
-0.0452982
-0.0444583
-0.043605
-0.0427378
-0.0418569
-0.0409631
-0.0400573
-0.0391408
-0.0382148
-0.0372807
-0.0363398
-0.0353934
-0.0344428
-0.033489
-0.0325333
-0.0315765
-0.0306196
-0.0296634
-0.0287087
-0.0277561
-0.0268061
-0.0258592
-0.024916
-0.0239766
-0.0230415
-0.0221108
-0.0211847
-0.0202633
-0.0193467
-0.018435
-0.017528
-0.0166257
-0.0157281
-0.014835
-0.0139462
-0.0130616
-0.0121809
-0.011304
-0.0104306
-0.00956062
-0.00869395
-0.00783056
-0.00697051
-0.00611389
-0.00526059
-0.0044094
-0.00355444
-0.00267526
-0.00172006
-0.000613233
0.000618155
0.00157514
-0.373821
-0.354097
-0.333011
-0.310895
-0.287933
-0.263944
-0.239599
-0.216437
-0.195087
-0.174842
-0.154739
-0.133886
-0.112491
-0.0909694
-0.0725447
-0.0683469
-0.0651306
-0.0622919
-0.0598159
-0.0577387
-0.056031
-0.0546295
-0.0534634
-0.0524678
-0.0515885
-0.0507831
-0.0500199
-0.0492761
-0.0485358
-0.0477884
-0.0470271
-0.046248
-0.0454491
-0.0446296
-0.04379
-0.0429313
-0.0420548
-0.0411621
-0.0402551
-0.0393356
-0.0384053
-0.0374659
-0.0365191
-0.0355663
-0.0346089
-0.0336483
-0.0326857
-0.0317219
-0.0307582
-0.0297952
-0.0288338
-0.0278747
-0.0269183
-0.0259654
-0.0250161
-0.024071
-0.0231303
-0.0221943
-0.021263
-0.0203367
-0.0194153
-0.018499
-0.0175876
-0.0166812
-0.0157795
-0.0148826
-0.0139901
-0.013102
-0.0122179
-0.0113377
-0.0104612
-0.00958819
-0.00871854
-0.0078522
-0.00698917
-0.00612946
-0.00527291
-0.00441843
-0.00356106
-0.00268372
-0.00174387
-0.000682715
0.000462543