/*--------------------------------*- C++ -*----------------------------------*\
  =========                 |
  \\      /  F ield         | OpenFOAM: The Open Source CFD Toolbox
   \\    /   O peration     | Website:  https://openfoam.org
    \\  /    A nd           | Version:  6
     \\/     M anipulation  |
\*---------------------------------------------------------------------------*/
FoamFile
{
    version     2.0;
    format      ascii;
    class       surfaceScalarField;
    location    "300";
    object      phi;
}
// * * * * * * * * * * * * * * * * * * * * * * * * * * * * * * * * * * * * * //

dimensions      [0 3 -1 0 0 0 0];

internalField   nonuniform List<scalar> 
11773
(
-4.79717e-08
4.79716e-08
-7.09366e-08
2.29622e-08
-8.13955e-08
1.04569e-08
-8.55968e-08
4.19939e-09
-7.78305e-08
-7.76852e-09
-6.73247e-08
-1.05079e-08
-4.71101e-08
-2.02167e-08
-2.2166e-08
-2.49462e-08
-1.57284e-08
-6.43974e-09
-2.56685e-08
9.93775e-09
-1.71325e-08
-8.53818e-09
-8.74428e-09
-8.39041e-09
1.5185e-12
-8.74804e-09
1.15676e-13
4.88324e-14
9.2155e-14
2.35206e-14
7.8221e-14
1.39309e-14
6.86916e-14
9.52591e-15
6.15469e-14
7.14086e-15
5.58639e-14
5.67908e-15
5.11596e-14
4.70034e-15
4.71534e-14
4.00221e-15
4.36692e-14
3.48026e-15
4.05898e-14
3.07553e-15
3.78337e-14
2.75233e-15
3.53421e-14
2.48788e-15
3.30716e-14
2.26702e-15
3.0989e-14
2.07932e-15
2.90684e-14
1.91741e-15
2.72895e-14
1.77594e-15
2.56358e-14
1.65096e-15
2.40937e-14
1.53948e-15
2.26522e-14
1.4392e-15
2.13017e-14
1.34833e-15
2.00343e-14
1.26546e-15
1.88431e-14
1.18945e-15
1.77222e-14
1.1194e-15
1.66663e-14
1.05454e-15
1.5671e-14
9.94264e-16
1.4732e-14
9.38057e-16
1.38458e-14
8.85489e-16
1.3009e-14
8.36197e-16
1.22188e-14
7.89875e-16
1.14723e-14
7.4626e-16
1.07671e-14
7.05129e-16
1.01009e-14
6.66287e-16
9.4715e-15
6.29567e-16
8.87699e-15
5.94822e-16
8.31549e-15
5.61923e-16
7.78526e-15
5.30756e-16
7.28465e-15
5.0122e-16
6.81211e-15
4.73226e-16
6.36617e-15
4.46691e-16
5.94544e-15
4.21541e-16
5.54859e-15
3.97711e-16
5.17436e-15
3.75138e-16
4.82153e-15
3.53766e-16
4.48896e-15
3.33541e-16
4.17554e-15
3.14416e-16
3.88021e-15
2.96344e-16
3.60195e-15
2.79282e-16
3.3398e-15
2.63189e-16
3.09282e-15
2.48028e-16
2.86011e-15
2.33762e-16
2.64081e-15
2.20356e-16
2.43409e-15
2.07777e-16
2.23915e-15
1.95994e-16
2.05523e-15
1.84977e-16
1.88159e-15
1.74698e-16
1.71752e-15
1.6513e-16
1.56233e-15
1.56245e-16
1.41536e-15
1.48019e-16
1.27598e-15
1.40428e-16
1.14359e-15
1.33447e-16
1.01759e-15
1.27053e-16
8.97416e-16
1.21222e-16
7.82538e-16
1.15929e-16
6.72444e-16
1.11147e-16
5.66653e-16
1.06843e-16
4.64723e-16
1.02984e-16
3.66227e-16
9.95523e-17
2.70748e-16
9.65372e-17
1.78249e-16
9.35615e-17
8.96101e-17
8.97061e-17
9.06811e-17
-3.5778e-08
8.37466e-08
-5.32395e-08
4.04194e-08
-5.92587e-08
1.64723e-08
-5.97348e-08
4.67187e-09
-5.33535e-08
-1.41538e-08
-4.54911e-08
-1.83739e-08
-4.20812e-08
-2.36304e-08
-4.49222e-08
-2.21091e-08
-3.59884e-08
-1.53773e-08
-1.68528e-08
-9.20181e-09
-1.41097e-08
-1.12854e-08
-8.49939e-09
-1.40047e-08
1.10234e-12
-1.72517e-08
9.34913e-14
4.89235e-14
8.37815e-14
3.32271e-14
7.43989e-14
2.33074e-14
6.66394e-14
1.72786e-14
6.03015e-14
1.34719e-14
5.50387e-14
1.09348e-14
5.0577e-14
9.15494e-15
4.67221e-14
7.85011e-15
4.33378e-14
6.85773e-15
4.03272e-14
6.07938e-15
3.76203e-14
5.45278e-15
3.5165e-14
4.93701e-15
3.29218e-14
4.50431e-15
3.08602e-14
4.1353e-15
2.89563e-14
3.81611e-15
2.71907e-14
3.53661e-15
2.55479e-14
3.28926e-15
2.40149e-14
3.06832e-15
2.25809e-14
2.86936e-15
2.12369e-14
2.68891e-15
1.99751e-14
2.52423e-15
1.87888e-14
2.3731e-15
1.76722e-14
2.23373e-15
1.66201e-14
2.10465e-15
1.56281e-14
1.98464e-15
1.46922e-14
1.8727e-15
1.38087e-14
1.76798e-15
1.29745e-14
1.66976e-15
1.21866e-14
1.57744e-15
1.14422e-14
1.4905e-15
1.0739e-14
1.40849e-15
1.00746e-14
1.33103e-15
9.44697e-15
1.2578e-15
8.85407e-15
1.18848e-15
8.29409e-15
1.12285e-15
7.76529e-15
1.06066e-15
7.26603e-15
1.00171e-15
6.79477e-15
9.45835e-16
6.35005e-15
8.92866e-16
5.93047e-15
8.42657e-16
5.53473e-15
7.95077e-16
5.16155e-15
7.50002e-16
4.80972e-15
7.07321e-16
4.47811e-15
6.66929e-16
4.16561e-15
6.28729e-16
3.87116e-15
5.92631e-16
3.59375e-15
5.58549e-16
3.33241e-15
5.26402e-16
3.0862e-15
4.96114e-16
2.85424e-15
4.67612e-16
2.63565e-15
4.40829e-16
2.42962e-15
4.15699e-16
2.23535e-15
3.92159e-16
2.05206e-15
3.7015e-16
1.87904e-15
3.49614e-16
1.71555e-15
3.30498e-16
1.56093e-15
3.12749e-16
1.41452e-15
2.96317e-16
1.27567e-15
2.81153e-16
1.14379e-15
2.6721e-16
1.01828e-15
2.54441e-16
8.98585e-16
2.428e-16
7.84157e-16
2.32239e-16
6.74482e-16
2.22706e-16
5.69071e-16
2.14142e-16
4.67461e-16
2.06484e-16
3.69223e-16
1.99685e-16
2.73952e-16
1.93709e-16
1.81258e-16
1.88162e-16
9.06191e-17
1.82255e-16
1.82149e-16
-1.53194e-08
9.90641e-08
-3.21273e-08
5.72237e-08
-3.96502e-08
2.39919e-08
-3.96837e-08
4.70223e-09
-3.53912e-08
-1.84493e-08
-2.87648e-08
-2.50035e-08
-2.14461e-08
-3.09522e-08
-1.10563e-08
-3.25023e-08
-4.06078e-09
-2.2376e-08
-4.01372e-09
-9.25214e-09
-5.18003e-09
-1.01224e-08
-4.0364e-09
-1.51516e-08
9.65973e-13
-2.12917e-08
7.97584e-14
4.88561e-14
7.51186e-14
3.78643e-14
6.91497e-14
2.92711e-14
6.33378e-14
2.30849e-14
5.81108e-14
1.8693e-14
5.3509e-14
1.55306e-14
4.94609e-14
1.3197e-14
4.58771e-14
1.14279e-14
4.26778e-14
1.00512e-14
3.97979e-14
8.9535e-15
3.7186e-14
8.05908e-15
3.48016e-14
7.31606e-15
3.26125e-14
6.68822e-15
3.05932e-14
6.14977e-15
2.87229e-14
5.68192e-15
2.69844e-14
5.27079e-15
2.53638e-14
4.90589e-15
2.38494e-14
4.57917e-15
2.2431e-14
4.28439e-15
2.11003e-14
4.01662e-15
1.98499e-14
3.77192e-15
1.86736e-14
3.5471e-15
1.75657e-14
3.33959e-15
1.65214e-14
3.14725e-15
1.55363e-14
2.9683e-15
1.46065e-14
2.80129e-15
1.37287e-14
2.64497e-15
1.28996e-14
2.49829e-15
1.21163e-14
2.36037e-15
1.13762e-14
2.23044e-15
1.0677e-14
2.10785e-15
1.00163e-14
1.99203e-15
9.39206e-15
1.88249e-15
8.80239e-15
1.77881e-15
8.24543e-15
1.68061e-15
7.71947e-15
1.58755e-15
7.22291e-15
1.49934e-15
6.7542e-15
1.41571e-15
6.3119e-15
1.33642e-15
5.89464e-15
1.26126e-15
5.50109e-15
1.19003e-15
5.13001e-15
1.12254e-15
4.7802e-15
1.05864e-15
4.45051e-15
9.98161e-16
4.13984e-15
9.40964e-16
3.84716e-15
8.86913e-16
3.57144e-15
8.3588e-16
3.31172e-15
7.87745e-16
3.06708e-15
7.42394e-16
2.83661e-15
6.99718e-16
2.61947e-15
6.59616e-16
2.41482e-15
6.21989e-16
2.22188e-15
5.86744e-16
2.03988e-15
5.53792e-16
1.86809e-15
5.23048e-16
1.7058e-15
4.9443e-16
1.55233e-15
4.6786e-16
1.40702e-15
4.43263e-16
1.26924e-15
4.20566e-16
1.13839e-15
3.997e-16
1.01387e-15
3.80595e-16
8.95124e-16
3.63185e-16
7.81602e-16
3.474e-16
6.72781e-16
3.33166e-16
5.68162e-16
3.20404e-16
4.67269e-16
3.09022e-16
3.69664e-16
2.9894e-16
2.74923e-16
2.90108e-16
1.82312e-16
2.82434e-16
9.0727e-17
2.75501e-16
2.73701e-16
-1.29799e-08
1.12042e-07
-2.3085e-08
6.73255e-08
-3.07659e-08
3.16697e-08
-3.20855e-08
6.0189e-09
-2.76441e-08
-2.28937e-08
-2.05709e-08
-3.20797e-08
-1.60216e-08
-3.55046e-08
-1.04481e-08
-3.80788e-08
-2.10087e-09
-3.07263e-08
5.46079e-09
-1.68168e-08
2.51857e-09
-7.18329e-09
-8.70187e-10
-1.17659e-08
9.52489e-13
-2.21653e-08
7.0161e-14
4.88011e-14
6.76217e-14
4.04011e-14
6.37621e-14
3.31257e-14
5.95215e-14
2.73201e-14
5.537e-14
2.2839e-14
5.14922e-14
1.94026e-14
4.79363e-14
1.67471e-14
4.46939e-14
1.46646e-14
4.17367e-14
1.30026e-14
3.90328e-14
1.16519e-14
3.65516e-14
1.05348e-14
3.42664e-14
9.59604e-15
3.21542e-14
8.79547e-15
3.01955e-14
8.10381e-15
2.83736e-14
7.4993e-15
2.66747e-14
6.96554e-15
2.50868e-14
6.48996e-15
2.35996e-14
6.06281e-15
2.22043e-14
5.6764e-15
2.08933e-14
5.32465e-15
1.966e-14
5.00261e-15
1.84985e-14
4.7063e-15
1.74036e-14
4.43244e-15
1.63709e-14
4.17832e-15
1.53961e-14
3.94169e-15
1.44756e-14
3.72065e-15
1.36061e-14
3.51361e-15
1.27846e-14
3.31922e-15
1.20082e-14
3.13634e-15
1.12746e-14
2.96397e-15
1.05813e-14
2.80128e-15
9.92606e-15
2.64752e-15
9.30697e-15
2.50205e-15
8.7221e-15
2.36433e-15
8.16965e-15
2.23385e-15
7.64795e-15
2.11017e-15
7.15541e-15
1.99292e-15
6.69051e-15
1.88175e-15
6.25184e-15
1.77633e-15
5.83803e-15
1.67639e-15
5.44777e-15
1.58166e-15
5.07983e-15
1.49192e-15
4.73302e-15
1.40693e-15
4.40621e-15
1.32649e-15
4.0983e-15
1.25042e-15
3.80826e-15
1.17853e-15
3.53508e-15
1.11065e-15
3.2778e-15
1.04663e-15
3.0355e-15
9.8631e-16
2.80728e-15
9.29552e-16
2.5923e-15
8.76217e-16
2.38974e-15
8.26175e-16
2.1988e-15
7.79304e-16
2.01873e-15
7.35484e-16
1.8488e-15
6.94602e-16
1.6883e-15
6.56549e-16
1.53655e-15
6.21223e-16
1.39291e-15
5.88523e-16
1.25673e-15
5.58354e-16
1.12742e-15
5.30624e-16
1.00439e-15
5.05241e-16
8.87073e-16
4.8212e-16
7.74917e-16
4.61173e-16
6.67395e-16
4.42308e-16
5.63994e-16
4.25427e-16
4.6422e-16
4.10422e-16
3.676e-16
3.97192e-16
2.73654e-16
3.85693e-16
1.81726e-16
3.76009e-16
9.04313e-17
3.68437e-16
3.64955e-16
-1.07599e-08
1.228e-07
-2.00264e-08
7.65888e-08
-2.40164e-08
3.5657e-08
-2.53381e-08
7.33776e-09
-1.97923e-08
-2.84423e-08
-1.25346e-08
-3.93401e-08
-8.41029e-09
-3.96317e-08
-1.96476e-09
-4.45272e-08
7.60898e-09
-4.03029e-08
1.44665e-08
-2.36772e-08
1.19644e-08
-4.68392e-09
6.06877e-09
-5.8731e-09
8.63401e-13
-1.60995e-08
6.28417e-14
4.89086e-14
6.12828e-14
4.19576e-14
5.87083e-14
3.56955e-14
5.5626e-14
3.03972e-14
5.23876e-14
2.60721e-14
4.91917e-14
2.25931e-14
4.61355e-14
1.97976e-14
4.32592e-14
1.75353e-14
4.05727e-14
1.56835e-14
3.80716e-14
1.41475e-14
3.57449e-14
1.28563e-14
3.35792e-14
1.17566e-14
3.1561e-14
1.08088e-14
2.96774e-14
9.98276e-15
2.79165e-14
9.2558e-15
2.62676e-14
8.61026e-15
2.47214e-14
8.03241e-15
2.32692e-14
7.51141e-15
2.19038e-14
7.03863e-15
2.06184e-14
6.60709e-15
1.94072e-14
6.21114e-15
1.82651e-14
5.84614e-15
1.71873e-14
5.50824e-15
1.61696e-14
5.19427e-15
1.52084e-14
4.90155e-15
1.43001e-14
4.62783e-15
1.34416e-14
4.37123e-15
1.26301e-14
4.13012e-15
1.18629e-14
3.90312e-15
1.11377e-14
3.68905e-15
1.04522e-14
3.48689e-15
9.80428e-15
3.29574e-15
9.19197e-15
3.11483e-15
8.61345e-15
2.94348e-15
8.06698e-15
2.7811e-15
7.55092e-15
2.62716e-15
7.06371e-15
2.48117e-15
6.60388e-15
2.34272e-15
6.17001e-15
2.21143e-15
5.76078e-15
2.08694e-15
5.37489e-15
1.96893e-15
5.01113e-15
1.85712e-15
4.66832e-15
1.75123e-15
4.34533e-15
1.651e-15
4.04109e-15
1.55621e-15
3.75457e-15
1.46663e-15
3.48477e-15
1.38205e-15
3.23073e-15
1.30227e-15
2.99155e-15
1.22711e-15
2.76633e-15
1.15639e-15
2.55423e-15
1.08994e-15
2.35444e-15
1.02759e-15
2.16618e-15
9.69198e-16
1.98868e-15
9.14609e-16
1.82122e-15
8.63684e-16
1.6631e-15
8.16288e-16
1.51366e-15
7.72291e-16
1.37223e-15
7.31572e-16
1.23819e-15
6.9401e-16
1.11094e-15
6.59492e-16
9.89895e-16
6.27908e-16
8.74484e-16
5.99151e-16
7.64161e-16
5.73118e-16
6.58389e-16
5.49703e-16
5.56649e-16
5.28795e-16
4.58428e-16
5.10275e-16
3.63217e-16
4.9404e-16
2.70489e-16
4.80064e-16
1.79619e-16
4.68531e-16
8.97266e-17
4.59981e-16
4.5551e-16
-8.76111e-09
1.31559e-07
-1.66388e-08
8.44638e-08
-2.14038e-08
4.04195e-08
-2.47998e-08
1.07312e-08
-2.80714e-08
-2.51732e-08
-2.72388e-08
-4.01753e-08
-2.24484e-08
-4.44246e-08
-1.25324e-08
-5.44458e-08
-1.66865e-09
-5.11692e-08
8.20783e-09
-3.35562e-08
4.56937e-09
-1.04804e-09
-4.69407e-10
-8.36955e-10
7.62243e-13
-1.65718e-08
5.67956e-14
4.88506e-14
5.58337e-14
4.29172e-14
5.40994e-14
3.74255e-14
5.18664e-14
3.26255e-14
4.93666e-14
2.85669e-14
4.67669e-14
2.51875e-14
4.41756e-14
2.23836e-14
4.16568e-14
2.00488e-14
3.92452e-14
1.80898e-14
3.69567e-14
1.64307e-14
3.47962e-14
1.50116e-14
3.27621e-14
1.37857e-14
3.08494e-14
1.27166e-14
2.90515e-14
1.17761e-14
2.73609e-14
1.0942e-14
2.57706e-14
1.01966e-14
2.42734e-14
9.52579e-15
2.28629e-14
8.91841e-15
2.15331e-14
8.36524e-15
2.02785e-14
7.85879e-15
1.90941e-14
7.39291e-15
1.79754e-14
6.9625e-15
1.69184e-14
6.5633e-15
1.59192e-14
6.19176e-15
1.49744e-14
5.84488e-15
1.4081e-14
5.52013e-15
1.3236e-14
5.21534e-15
1.24368e-14
4.9287e-15
1.1681e-14
4.65861e-15
1.09662e-14
4.40372e-15
1.02903e-14
4.16285e-15
9.65137e-15
3.93498e-15
9.04745e-15
3.71921e-15
8.4768e-15
3.51477e-15
7.93773e-15
3.32096e-15
7.42865e-15
3.13715e-15
6.94806e-15
2.9628e-15
6.49451e-15
2.79742e-15
6.06662e-15
2.64055e-15
5.66308e-15
2.49179e-15
5.28264e-15
2.35077e-15
4.92407e-15
2.21712e-15
4.58623e-15
2.09055e-15
4.26801e-15
1.97075e-15
3.96835e-15
1.85743e-15
3.68621e-15
1.75035e-15
3.42062e-15
1.64924e-15
3.17063e-15
1.55387e-15
2.93533e-15
1.46403e-15
2.71386e-15
1.3795e-15
2.50536e-15
1.30007e-15
2.30903e-15
1.22555e-15
2.12409e-15
1.15577e-15
1.9498e-15
1.09053e-15
1.78543e-15
1.02968e-15
1.63029e-15
9.73057e-16
1.48372e-15
9.20498e-16
1.34506e-15
8.71862e-16
1.21369e-15
8.27006e-16
1.08901e-15
7.85795e-16
9.70447e-16
7.48102e-16
8.57426e-16
7.13801e-16
7.49403e-16
6.82773e-16
6.4584e-16
6.54901e-16
5.46211e-16
6.30063e-16
4.49996e-16
6.08137e-16
3.56666e-16
5.89021e-16
2.65676e-16
5.72709e-16
1.76437e-16
5.59431e-16
8.83045e-17
5.49779e-16
5.44653e-16
-1.28999e-08
1.44457e-07
-1.92547e-08
9.08161e-08
-2.32612e-08
4.44237e-08
-2.58529e-08
1.33207e-08
-2.25353e-08
-2.84931e-08
-1.38217e-08
-4.88911e-08
-8.92018e-09
-4.93285e-08
-3.14174e-09
-6.02265e-08
2.03453e-09
-5.63477e-08
7.8083e-09
-3.93322e-08
7.85646e-09
-1.09853e-09
3.46392e-09
3.55329e-09
6.45569e-13
-1.31103e-08
5.16431e-14
4.88665e-14
5.10603e-14
4.3498e-14
4.99267e-14
3.85552e-14
4.83391e-14
3.42087e-14
4.64312e-14
3.04703e-14
4.43331e-14
2.72808e-14
4.21505e-14
2.45612e-14
3.99591e-14
2.22351e-14
3.78084e-14
2.02353e-14
3.57286e-14
1.85054e-14
3.37359e-14
1.69992e-14
3.18381e-14
1.56787e-14
3.00369e-14
1.45131e-14
2.83311e-14
1.34775e-14
2.67174e-14
1.25514e-14
2.51917e-14
1.17182e-14
2.37494e-14
1.09643e-14
2.23859e-14
1.02785e-14
2.10965e-14
9.65139e-15
1.98771e-14
9.07534e-15
1.87235e-14
8.54393e-15
1.76319e-14
8.05176e-15
1.65989e-14
7.59432e-15
1.56211e-14
7.16779e-15
1.46956e-14
6.76894e-15
1.38196e-14
6.395e-15
1.29905e-14
6.04362e-15
1.22058e-14
5.7128e-15
1.14632e-14
5.40079e-15
1.07607e-14
5.1061e-15
1.00962e-14
4.82741e-15
9.46785e-15
4.5636e-15
8.87386e-15
4.31367e-15
8.31253e-15
4.07673e-15
7.78225e-15
3.85202e-15
7.28148e-15
3.63884e-15
6.80876e-15
3.43656e-15
6.36269e-15
3.24464e-15
5.94192e-15
3.06256e-15
5.54517e-15
2.88986e-15
5.17121e-15
2.72612e-15
4.81885e-15
2.57093e-15
4.48695e-15
2.42394e-15
4.17443e-15
2.2848e-15
3.88023e-15
2.1532e-15
3.60334e-15
2.02883e-15
3.34278e-15
1.9114e-15
3.09763e-15
1.80064e-15
2.86699e-15
1.6963e-15
2.64999e-15
1.59814e-15
2.44579e-15
1.5059e-15
2.25361e-15
1.41938e-15
2.07266e-15
1.33836e-15
1.90221e-15
1.26263e-15
1.74154e-15
1.19199e-15
1.58997e-15
1.12627e-15
1.44683e-15
1.06528e-15
1.31148e-15
1.00885e-15
1.18331e-15
9.56815e-16
1.06172e-15
9.09025e-16
9.46126e-16
8.6533e-16
8.35977e-16
8.2559e-16
7.30722e-16
7.89671e-16
6.29827e-16
7.57443e-16
5.32763e-16
7.28779e-16
4.39007e-16
7.03553e-16
3.48031e-16
6.81667e-16
2.59287e-16
6.63126e-16
1.72214e-16
6.48179e-16
8.62406e-17
6.37432e-16
6.31743e-16
-1.1473e-08
1.55929e-07
-1.75782e-08
9.69192e-08
-2.09173e-08
4.7761e-08
-2.38252e-08
1.62268e-08
-1.816e-08
-3.41601e-08
-1.46209e-08
-5.2432e-08
-1.53075e-08
-4.86439e-08
-8.88466e-09
-6.66515e-08
-1.00159e-09
-6.42326e-08
5.25853e-09
-4.55942e-08
4.58091e-09
-4.22821e-10
1.42178e-09
6.71049e-09
5.26667e-13
-1.16906e-08
4.69858e-14
4.88275e-14
4.67672e-14
4.37146e-14
4.61497e-14
3.91692e-14
4.50906e-14
3.52638e-14
4.36602e-14
3.18965e-14
4.19714e-14
2.89653e-14
4.01313e-14
2.63967e-14
3.8224e-14
2.41377e-14
3.63083e-14
2.21461e-14
3.4423e-14
2.03859e-14
3.25918e-14
1.88255e-14
3.08286e-14
1.74372e-14
2.91403e-14
1.61968e-14
2.75296e-14
1.50838e-14
2.59965e-14
1.40802e-14
2.45396e-14
1.31712e-14
2.31564e-14
1.23439e-14
2.18438e-14
1.15876e-14
2.05988e-14
1.08933e-14
1.94181e-14
1.02532e-14
1.82985e-14
9.66085e-15
1.72372e-14
9.11084e-15
1.6231e-14
8.59845e-15
1.52774e-14
8.11972e-15
1.43737e-14
7.67126e-15
1.35173e-14
7.25016e-15
1.27061e-14
6.85394e-15
1.19379e-14
6.48044e-15
1.12105e-14
6.12782e-15
1.0522e-14
5.79445e-15
9.87051e-15
5.47893e-15
9.25433e-15
5.18005e-15
8.67175e-15
4.89671e-15
8.12114e-15
4.62796e-15
7.60098e-15
4.37296e-15
7.10979e-15
4.13094e-15
6.64616e-15
3.90123e-15
6.20873e-15
3.68322e-15
5.7962e-15
3.47634e-15
5.40731e-15
3.28007e-15
5.04087e-15
3.09395e-15
4.6957e-15
2.91755e-15
4.3707e-15
2.75044e-15
4.06479e-15
2.59225e-15
3.77693e-15
2.44263e-15
3.50613e-15
2.30122e-15
3.25143e-15
2.16771e-15
3.01191e-15
2.0418e-15
2.78667e-15
1.92318e-15
2.57488e-15
1.81158e-15
2.37569e-15
1.70674e-15
2.18832e-15
1.6084e-15
2.01201e-15
1.51632e-15
1.84602e-15
1.43027e-15
1.68966e-15
1.35001e-15
1.54223e-15
1.27535e-15
1.40309e-15
1.20607e-15
1.2716e-15
1.14199e-15
1.14715e-15
1.08292e-15
1.02915e-15
1.02868e-15
9.17028e-16
9.79103e-16
8.10228e-16
9.34043e-16
7.08208e-16
8.93347e-16
6.10437e-16
8.56875e-16
5.1639e-16
8.24494e-16
4.25545e-16
7.96074e-16
3.37379e-16
7.71519e-16
2.51363e-16
7.50837e-16
1.66957e-16
7.34281e-16
8.3627e-17
7.22461e-16
7.16231e-16
-1.28693e-08
1.68797e-07
-2.12219e-08
1.0527e-07
-2.64028e-08
5.29405e-08
-2.72603e-08
1.70829e-08
-2.04151e-08
-4.10067e-08
-1.27865e-08
-6.00621e-08
-7.0684e-09
-5.43636e-08
-8.31818e-09
-6.54032e-08
-9.0785e-09
-6.34735e-08
3.83575e-09
-5.85097e-08
1.39517e-08
-1.05403e-08
7.39348e-09
1.32671e-08
4.3479e-13
-4.29875e-09
4.2551e-14
4.88653e-14
4.28197e-14
4.34443e-14
4.27566e-14
3.92292e-14
4.21645e-14
3.58522e-14
4.11131e-14
3.29442e-14
3.97397e-14
3.03347e-14
3.81691e-14
2.79631e-14
3.64945e-14
2.58079e-14
3.47802e-14
2.38559e-14
3.30688e-14
2.20927e-14
3.13874e-14
2.05023e-14
2.97529e-14
1.90671e-14
2.81752e-14
1.77701e-14
2.66597e-14
1.6595e-14
2.52087e-14
1.55271e-14
2.38228e-14
1.45532e-14
2.25013e-14
1.36618e-14
2.12425e-14
1.2843e-14
2.00446e-14
1.2088e-14
1.89055e-14
1.13894e-14
1.78228e-14
1.0741e-14
1.67942e-14
1.01372e-14
1.58174e-14
9.57325e-15
1.48901e-14
9.04525e-15
1.40102e-14
8.54969e-15
1.31757e-14
8.0836e-15
1.23843e-14
7.64438e-15
1.16343e-14
7.22982e-15
1.09238e-14
6.83797e-15
1.02509e-14
6.46714e-15
9.61403e-15
6.11587e-15
9.01148e-15
5.78285e-15
8.4417e-15
5.46694e-15
7.90316e-15
5.16712e-15
7.3944e-15
4.88249e-15
6.91402e-15
4.61224e-15
6.46065e-15
4.35563e-15
6.033e-15
4.11202e-15
5.62979e-15
3.88078e-15
5.24981e-15
3.66137e-15
4.89189e-15
3.45327e-15
4.55489e-15
3.256e-15
4.23772e-15
3.06912e-15
3.93932e-15
2.8922e-15
3.65867e-15
2.72485e-15
3.3948e-15
2.56669e-15
3.14677e-15
2.41738e-15
2.91365e-15
2.27655e-15
2.69457e-15
2.1439e-15
2.48869e-15
2.01912e-15
2.29521e-15
1.90189e-15
2.11332e-15
1.79195e-15
1.94229e-15
1.68902e-15
1.7814e-15
1.59283e-15
1.62993e-15
1.50314e-15
1.48723e-15
1.41972e-15
1.35264e-15
1.34233e-15
1.22554e-15
1.27075e-15
1.10533e-15
1.20479e-15
9.91423e-16
1.14424e-15
8.83257e-16
1.08893e-15
7.80281e-16
1.03868e-15
6.8196e-16
9.93337e-16
5.87769e-16
9.52742e-16
4.97187e-16
9.16758e-16
4.09702e-16
8.85253e-16
3.24801e-16
8.58126e-16
2.41975e-16
8.35379e-16
1.60715e-16
8.17262e-16
8.05127e-17
8.04384e-16
7.97614e-16
-9.41953e-09
1.78216e-07
-1.51887e-08
1.11038e-07
-1.96252e-08
5.7376e-08
-2.29395e-08
2.03965e-08
-1.86746e-08
-4.52725e-08
-1.71092e-08
-6.16287e-08
-1.30916e-08
-5.83819e-08
-6.68904e-09
-7.18064e-08
3.1031e-09
-7.32666e-08
4.91265e-09
-6.03206e-08
8.49602e-09
-1.41249e-08
4.35932e-09
1.74027e-08
3.4573e-13
5.93109e-11
3.78416e-14
4.88135e-14
3.91566e-14
4.21279e-14
3.98219e-14
3.85614e-14
3.96369e-14
3.60336e-14
3.88446e-14
3.37329e-14
3.7678e-14
3.14976e-14
3.62956e-14
2.93417e-14
3.47979e-14
2.73017e-14
3.32481e-14
2.54015e-14
3.16871e-14
2.36495e-14
3.01409e-14
2.20441e-14
2.86267e-14
2.05771e-14
2.71551e-14
1.92375e-14
2.57328e-14
1.80132e-14
2.43637e-14
1.68923e-14
2.30496e-14
1.58636e-14
2.1791e-14
1.49168e-14
2.05879e-14
1.40428e-14
1.94391e-14
1.32336e-14
1.83436e-14
1.24822e-14
1.72997e-14
1.17823e-14
1.63059e-14
1.11287e-14
1.53604e-14
1.05167e-14
1.44615e-14
9.94246e-15
1.36073e-14
9.40239e-15
1.27962e-14
8.89352e-15
1.20264e-14
8.41325e-15
1.12963e-14
7.9593e-15
1.06042e-14
7.52969e-15
9.94846e-15
7.1227e-15
9.32758e-15
6.73679e-15
8.74004e-15
6.37063e-15
8.18438e-15
6.02303e-15
7.65917e-15
5.69293e-15
7.16303e-15
5.37939e-15
6.69463e-15
5.08154e-15
6.25267e-15
4.79863e-15
5.83588e-15
4.52994e-15
5.44306e-15
4.27485e-15
5.07301e-15
4.03274e-15
4.7246e-15
3.80308e-15
4.39672e-15
3.58534e-15
4.08829e-15
3.37905e-15
3.79829e-15
3.18375e-15
3.52572e-15
2.99901e-15
3.2696e-15
2.82442e-15
3.02902e-15
2.65959e-15
2.80306e-15
2.50415e-15
2.59088e-15
2.35774e-15
2.39164e-15
2.22003e-15
2.20454e-15
2.09067e-15
2.0288e-15
1.96936e-15
1.86369e-15
1.85581e-15
1.70849e-15
1.74971e-15
1.56251e-15
1.6508e-15
1.4251e-15
1.55881e-15
1.29561e-15
1.47349e-15
1.17343e-15
1.39461e-15
1.05797e-15
1.32193e-15
9.48658e-16
1.25524e-15
8.4493e-16
1.19434e-15
7.46249e-16
1.13905e-15
6.52087e-16
1.08918e-15
5.61929e-16
1.04459e-15
4.75263e-16
1.00513e-15
3.91589e-16
9.70642e-16
3.10406e-16
9.41035e-16
2.31227e-16
9.16295e-16
1.53569e-16
8.96661e-16
7.69483e-17
8.82746e-16
8.75442e-16
-1.32792e-08
1.91494e-07
-2.31551e-08
1.20914e-07
-3.04198e-08
6.46403e-08
-3.48579e-08
2.48345e-08
-3.39242e-08
-4.62062e-08
-3.18715e-08
-6.36815e-08
-1.97145e-08
-7.0539e-08
-2.02001e-08
-7.13213e-08
-1.6681e-08
-7.67869e-08
-1.60792e-08
-6.0923e-08
-6.0516e-10
-2.95993e-08
7.55844e-09
9.23856e-09
1.86829e-13
7.61701e-09
3.20129e-14
4.88227e-14
3.60532e-14
3.80861e-14
3.76248e-14
3.69882e-14
3.76367e-14
3.60183e-14
3.69003e-14
3.4466e-14
3.58023e-14
3.2592e-14
3.45209e-14
3.06197e-14
3.31449e-14
2.86742e-14
3.17245e-14
2.68181e-14
3.02911e-14
2.5079e-14
2.88657e-14
2.34655e-14
2.74624e-14
2.19763e-14
2.60913e-14
2.06045e-14
2.47591e-14
1.93415e-14
2.34702e-14
1.81774e-14
2.22274e-14
1.71027e-14
2.10323e-14
1.61084e-14
1.98855e-14
1.51863e-14
1.8787e-14
1.4329e-14
1.77364e-14
1.35299e-14
1.67329e-14
1.27833e-14
1.57754e-14
1.20839e-14
1.48628e-14
1.14274e-14
1.39937e-14
1.08098e-14
1.31668e-14
1.02278e-14
1.23807e-14
9.67843e-15
1.1634e-14
9.15906e-15
1.09252e-14
8.66744e-15
1.02528e-14
8.20159e-15
9.6156e-15
7.75975e-15
9.01204e-15
7.34038e-15
8.44078e-15
6.94212e-15
7.90047e-15
6.56376e-15
7.38979e-15
6.20421e-15
6.90744e-15
5.86249e-15
6.45215e-15
5.53773e-15
6.02268e-15
5.22912e-15
5.61783e-15
4.93594e-15
5.23641e-15
4.6575e-15
4.87729e-15
4.39319e-15
4.53935e-15
4.14242e-15
4.22151e-15
3.90464e-15
3.92273e-15
3.67934e-15
3.642e-15
3.46604e-15
3.37833e-15
3.26427e-15
3.13078e-15
3.07359e-15
2.89843e-15
2.89358e-15
2.68041e-15
2.72384e-15
2.47585e-15
2.56397e-15
2.28394e-15
2.41361e-15
2.1039e-15
2.2724e-15
1.93495e-15
2.14e-15
1.77638e-15
2.01607e-15
1.62748e-15
1.9003e-15
1.48757e-15
1.7924e-15
1.35601e-15
1.69207e-15
1.23216e-15
1.59903e-15
1.11543e-15
1.51303e-15
1.00523e-15
1.43382e-15
9.0099e-16
1.36117e-15
8.02176e-16
1.29485e-15
7.08253e-16
1.23467e-15
6.18706e-16
1.18043e-15
5.3303e-16
1.13198e-15
4.50729e-16
1.08915e-15
3.71315e-16
1.05179e-15
2.94305e-16
1.01979e-15
2.19225e-16
9.93134e-16
1.45608e-16
9.72041e-16
7.29842e-17
9.57128e-16
9.49313e-16
-1.15686e-08
2.03063e-07
-2.12557e-08
1.30602e-07
-2.9917e-08
7.3302e-08
-4.12707e-08
3.61883e-08
-4.91051e-08
-3.83711e-08
-5.76491e-08
-5.51372e-08
-5.30409e-08
-7.51474e-08
-4.317e-08
-8.11926e-08
-2.49746e-08
-9.49824e-08
-8.89981e-09
-7.69974e-08
-7.94713e-09
-3.05518e-08
9.0855e-09
-7.79425e-09
1.24386e-12
1.67011e-08
2.26022e-14
1.26854e-12
3.51012e-14
2.55855e-14
3.67852e-14
3.53046e-14
3.62865e-14
3.65152e-14
3.52684e-14
3.54816e-14
3.40845e-14
3.37729e-14
3.28266e-14
3.18744e-14
3.15289e-14
2.99687e-14
3.02108e-14
2.81327e-14
2.88872e-14
2.6399e-14
2.75701e-14
2.47789e-14
2.62694e-14
2.32732e-14
2.4993e-14
2.18771e-14
2.3747e-14
2.05837e-14
2.2536e-14
1.93847e-14
2.13633e-14
1.82718e-14
2.02311e-14
1.72372e-14
1.91407e-14
1.62735e-14
1.8093e-14
1.53738e-14
1.70881e-14
1.45321e-14
1.61258e-14
1.3743e-14
1.52057e-14
1.30017e-14
1.43271e-14
1.23039e-14
1.34891e-14
1.1646e-14
1.26908e-14
1.10247e-14
1.19309e-14
1.04371e-14
1.12085e-14
9.88057e-15
1.05222e-14
9.35301e-15
9.87092e-15
8.85242e-15
9.25338e-15
8.37708e-15
8.66833e-15
7.92544e-15
8.11452e-15
7.49614e-15
7.59072e-15
7.08796e-15
7.0957e-15
6.69981e-15
6.62823e-15
6.3307e-15
6.18712e-15
5.97972e-15
5.77119e-15
5.64607e-15
5.37929e-15
5.32898e-15
5.01027e-15
5.02775e-15
4.66304e-15
4.74174e-15
4.3365e-15
4.47034e-15
4.02962e-15
4.21298e-15
3.74138e-15
3.96911e-15
3.47076e-15
3.73821e-15
3.21683e-15
3.5198e-15
2.97864e-15
3.31341e-15
2.7553e-15
3.11857e-15
2.54594e-15
2.93486e-15
2.34972e-15
2.76187e-15
2.16584e-15
2.59918e-15
1.99351e-15
2.44642e-15
1.83201e-15
2.30321e-15
1.68059e-15
2.16919e-15
1.53858e-15
2.04402e-15
1.40532e-15
1.92737e-15
1.28015e-15
1.81894e-15
1.16248e-15
1.71842e-15
1.0517e-15
1.62552e-15
9.47244e-16
1.53998e-15
8.48567e-16
1.46155e-15
7.55132e-16
1.38999e-15
6.66422e-16
1.32509e-15
5.81936e-16
1.26663e-15
5.01184e-16
1.21445e-15
4.23689e-16
1.16838e-15
3.48977e-16
1.12826e-15
2.76582e-16
1.09396e-15
2.06037e-16
1.06546e-15
1.3688e-16
1.04298e-15
6.86472e-17
1.02714e-15
1.01886e-15
-1.31005e-08
2.16163e-07
-2.41812e-08
1.41683e-07
-3.55884e-08
8.47102e-08
-5.39087e-08
5.45094e-08
-6.4567e-08
-2.77124e-08
-6.7169e-08
-5.25353e-08
-6.20948e-08
-8.02213e-08
-5.54658e-08
-8.78205e-08
-5.33593e-08
-9.70877e-08
-4.36209e-08
-8.67355e-08
-2.4864e-08
-4.93089e-08
-7.31572e-10
-3.19264e-08
2.65612e-09
1.33136e-08
6.42577e-14
2.65721e-09
4.3628e-14
4.62245e-14
3.78487e-14
4.10825e-14
3.53847e-14
3.89778e-14
3.37772e-14
3.7088e-14
3.24284e-14
3.51198e-14
3.11651e-14
3.31355e-14
2.9929e-14
3.12023e-14
2.87006e-14
2.93582e-14
2.74765e-14
2.762e-14
2.62593e-14
2.59927e-14
2.50544e-14
2.44745e-14
2.38675e-14
2.30604e-14
2.2704e-14
2.17437e-14
2.15681e-14
2.0517e-14
2.04636e-14
1.93729e-14
1.93931e-14
1.83044e-14
1.83586e-14
1.73048e-14
1.73615e-14
1.6368e-14
1.64024e-14
1.54884e-14
1.54819e-14
1.4661e-14
1.45998e-14
1.38815e-14
1.3756e-14
1.31457e-14
1.295e-14
1.24503e-14
1.21811e-14
1.17921e-14
1.14485e-14
1.11684e-14
1.07514e-14
1.05767e-14
1.00887e-14
1.00149e-14
9.45959e-15
9.48111e-15
8.86283e-15
8.9736e-15
8.29737e-15
8.49088e-15
7.7621e-15
8.03161e-15
7.25587e-15
7.59458e-15
6.77755e-15
7.17869e-15
6.32601e-15
6.78297e-15
5.90011e-15
6.4065e-15
5.49872e-15
6.04846e-15
5.12075e-15
5.70807e-15
4.76509e-15
5.38463e-15
4.43068e-15
5.07747e-15
4.11647e-15
4.78595e-15
3.82144e-15
4.50947e-15
3.54458e-15
4.24748e-15
3.28492e-15
3.99943e-15
3.04153e-15
3.76479e-15
2.81349e-15
3.54308e-15
2.59991e-15
3.3338e-15
2.39995e-15
3.1365e-15
2.21277e-15
2.95073e-15
2.03759e-15
2.77606e-15
1.87365e-15
2.61207e-15
1.7202e-15
2.45836e-15
1.57655e-15
2.31455e-15
1.44202e-15
2.18027e-15
1.31595e-15
2.05516e-15
1.19773e-15
1.93889e-15
1.08674e-15
1.83113e-15
9.82416e-16
1.73157e-15
8.84198e-16
1.63993e-15
7.91547e-16
1.55593e-15
7.03946e-16
1.47932e-15
6.20892e-16
1.40987e-15
5.41901e-16
1.34736e-15
4.665e-16
1.2916e-15
3.94232e-16
1.24241e-15
3.24642e-16
1.19962e-15
2.57278e-16
1.16311e-15
1.9168e-16
1.13285e-15
1.27383e-16
1.10907e-15
6.39297e-17
1.09239e-15
1.0837e-15
-1.34003e-08
2.29564e-07
-2.72585e-08
1.55543e-07
-4.17431e-08
9.9196e-08
-5.56741e-08
6.8442e-08
-8.32742e-08
-1.11342e-10
-8.92093e-08
-4.65991e-08
-8.90153e-08
-8.04138e-08
-8.03161e-08
-9.65179e-08
-6.96414e-08
-1.07761e-07
-4.12898e-08
-1.15086e-07
-5.64599e-09
-8.49518e-08
4.08684e-10
-3.79807e-08
1.00082e-08
3.71567e-09
1.35337e-13
1.26656e-08
3.90847e-14
4.87473e-14
3.59916e-14
4.41748e-14
3.37257e-14
4.12402e-14
3.20547e-14
3.87561e-14
3.06946e-14
3.6478e-14
2.94779e-14
3.43505e-14
2.83207e-14
3.23575e-14
2.71857e-14
3.04908e-14
2.60587e-14
2.87443e-14
2.49371e-14
2.71113e-14
2.38232e-14
2.55852e-14
2.27213e-14
2.41589e-14
2.16363e-14
2.28253e-14
2.05726e-14
2.15774e-14
1.9534e-14
2.04083e-14
1.85236e-14
1.93116e-14
1.75438e-14
1.82815e-14
1.65966e-14
1.73123e-14
1.56832e-14
1.63991e-14
1.48043e-14
1.55374e-14
1.39606e-14
1.4723e-14
1.3152e-14
1.39523e-14
1.23785e-14
1.32221e-14
1.16397e-14
1.25294e-14
1.09352e-14
1.18717e-14
1.02642e-14
1.12467e-14
9.62612e-15
1.06523e-14
9.02001e-15
1.00867e-14
8.445e-15
9.54836e-15
7.90011e-15
9.03573e-15
7.38435e-15
8.54754e-15
6.89668e-15
8.0826e-15
6.43606e-15
7.63985e-15
6.00142e-15
7.21831e-15
5.59169e-15
6.81708e-15
5.20581e-15
6.43533e-15
4.84271e-15
6.07228e-15
4.50134e-15
5.72722e-15
4.18067e-15
5.39945e-15
3.87967e-15
5.08833e-15
3.59735e-15
4.79325e-15
3.33272e-15
4.51362e-15
3.08485e-15
4.24887e-15
2.85279e-15
3.99845e-15
2.63567e-15
3.76184e-15
2.4326e-15
3.53853e-15
2.24275e-15
3.32803e-15
2.06531e-15
3.12987e-15
1.8995e-15
2.94358e-15
1.74457e-15
2.76871e-15
1.59981e-15
2.60485e-15
1.46452e-15
2.45158e-15
1.33803e-15
2.30849e-15
1.21971e-15
2.17521e-15
1.10895e-15
2.05138e-15
1.00516e-15
1.93665e-15
9.07782e-16
1.83069e-15
8.16269e-16
1.73318e-15
7.30101e-16
1.64384e-15
6.48775e-16
1.56239e-15
5.71806e-16
1.48859e-15
4.98727e-16
1.42219e-15
4.29085e-16
1.363e-15
3.62441e-16
1.31083e-15
2.98362e-16
1.26549e-15
2.36411e-16
1.22687e-15
1.76139e-16
1.19494e-15
1.17087e-16
1.16995e-15
5.88081e-17
1.15249e-15
1.14343e-15
-1.89447e-08
2.48509e-07
-3.46405e-08
1.71242e-07
-5.15497e-08
1.16107e-07
-6.02993e-08
7.71933e-08
-8.84983e-08
2.80899e-08
-9.46628e-08
-4.0432e-08
-8.96834e-08
-8.53912e-08
-7.96189e-08
-1.06581e-07
-6.12795e-08
-1.26099e-07
-4.29811e-08
-1.33383e-07
-1.89359e-08
-1.08996e-07
-1.03475e-08
-4.65686e-08
-9.39956e-10
-5.69017e-09
-3.17528e-12
1.17319e-08
3.5049e-14
4.43438e-14
3.34047e-14
4.58194e-14
3.15429e-14
4.31041e-14
3.00585e-14
4.02393e-14
2.8834e-14
3.77012e-14
2.77372e-14
3.54464e-14
2.6692e-14
3.34014e-14
2.56628e-14
3.15184e-14
2.46356e-14
2.97693e-14
2.36075e-14
2.81368e-14
2.25809e-14
2.6609e-14
2.156e-14
2.51768e-14
2.05498e-14
2.38324e-14
1.95549e-14
2.25691e-14
1.85795e-14
2.13805e-14
1.76271e-14
2.02609e-14
1.67005e-14
1.9205e-14
1.58022e-14
1.82079e-14
1.49336e-14
1.7265e-14
1.40961e-14
1.63724e-14
1.32906e-14
1.55263e-14
1.25173e-14
1.47235e-14
1.17767e-14
1.3961e-14
1.10685e-14
1.3236e-14
1.03926e-14
1.25464e-14
9.74848e-15
1.18898e-14
9.13562e-15
1.12644e-14
8.55336e-15
1.06685e-14
8.00092e-15
1.01005e-14
7.47746e-15
9.55911e-15
6.98211e-15
9.04303e-15
6.51392e-15
8.55113e-15
6.07191e-15
8.08237e-15
5.6551e-15
7.6358e-15
5.26247e-15
7.21054e-15
4.89302e-15
6.80576e-15
4.5457e-15
6.42069e-15