/*--------------------------------*- C++ -*----------------------------------*\
  =========                 |
  \\      /  F ield         | OpenFOAM: The Open Source CFD Toolbox
   \\    /   O peration     | Website:  https://openfoam.org
    \\  /    A nd           | Version:  6
     \\/     M anipulation  |
\*---------------------------------------------------------------------------*/
FoamFile
{
    version     2.0;
    format      ascii;
    class       volVectorField;
    location    "300";
    object      U;
}
// * * * * * * * * * * * * * * * * * * * * * * * * * * * * * * * * * * * * * //

dimensions      [0 1 -1 0 0 0 0];

internalField   nonuniform List<vector> 
5964
(
(-0.00296753 0 -0.000433037)
(-0.00330237 0 0.00100822)
(-0.00399974 0 -0.000228186)
(-0.00419517 0 -0.0003773)
(-0.00403931 0 -0.00103912)
(-0.00352766 0 -0.00076949)
(-0.00296537 0 -0.00130966)
(-0.00257176 0 -0.00134402)
(0.0018308 0 -0.00212075)
(-0.00290684 0 0.000547064)
(-0.000653044 0 -0.000778917)
(-0.000633237 0 -0.000471863)
(-3.83758e-06 0 -0.000239419)
(2.91612e-09 0 1.15352e-09)
(5.23664e-09 0 5.55606e-10)
(4.29292e-09 0 3.29076e-10)
(3.70172e-09 0 2.25022e-10)
(3.28159e-09 0 1.68682e-10)
(2.95838e-09 0 1.34152e-10)
(2.69665e-09 0 1.11032e-10)
(2.47717e-09 0 9.45405e-11)
(2.28844e-09 0 8.2211e-11)
(2.12306e-09 0 7.26504e-11)
(1.97602e-09 0 6.50157e-11)
(1.8438e-09 0 5.87688e-11)
(1.72381e-09 0 5.35516e-11)
(1.61412e-09 0 4.91178e-11)
(1.51326e-09 0 4.52931e-11)
(1.42004e-09 0 4.19514e-11)
(1.33355e-09 0 3.89991e-11)
(1.25303e-09 0 3.63656e-11)
(1.17785e-09 0 3.39968e-11)
(1.1075e-09 0 3.18503e-11)
(1.04154e-09 0 2.98927e-11)
(9.79588e-10 0 2.80973e-11)
(9.2133e-10 0 2.64424e-11)
(8.66483e-10 0 2.49104e-11)
(8.14798e-10 0 2.34865e-11)
(7.66059e-10 0 2.21588e-11)
(7.2007e-10 0 2.09171e-11)
(6.76656e-10 0 1.97527e-11)
(6.35661e-10 0 1.86585e-11)
(5.9694e-10 0 1.76282e-11)
(5.60362e-10 0 1.66566e-11)
(5.25807e-10 0 1.57391e-11)
(4.93162e-10 0 1.48717e-11)
(4.62324e-10 0 1.40509e-11)
(4.33196e-10 0 1.32738e-11)
(4.05688e-10 0 1.25375e-11)
(3.79714e-10 0 1.18399e-11)
(3.55194e-10 0 1.11786e-11)
(3.32051e-10 0 1.05517e-11)
(3.10214e-10 0 9.95767e-12)
(2.89613e-10 0 9.39475e-12)
(2.70185e-10 0 8.86153e-12)
(2.51865e-10 0 8.35667e-12)
(2.34595e-10 0 7.87893e-12)
(2.18318e-10 0 7.42715e-12)
(2.02979e-10 0 7.00025e-12)
(1.88527e-10 0 6.59721e-12)
(1.7491e-10 0 6.21707e-12)
(1.62082e-10 0 5.85893e-12)
(1.49995e-10 0 5.52193e-12)
(1.38606e-10 0 5.20525e-12)
(1.27872e-10 0 4.90811e-12)
(1.17751e-10 0 4.62978e-12)
(1.08205e-10 0 4.36955e-12)
(9.91956e-11 0 4.12674e-12)
(9.06862e-11 0 3.9007e-12)
(8.26417e-11 0 3.69083e-12)
(7.50283e-11 0 3.49652e-12)
(6.78134e-11 0 3.31719e-12)
(6.09656e-11 0 3.15229e-12)
(5.44548e-11 0 3.00124e-12)
(4.8252e-11 0 2.8635e-12)
(4.23295e-11 0 2.73848e-12)
(3.6661e-11 0 2.62552e-12)
(3.12213e-11 0 2.52385e-12)
(2.59874e-11 0 2.4327e-12)
(2.09373e-11 0 2.35163e-12)
(1.60497e-11 0 2.28041e-12)
(1.13133e-11 0 2.21011e-12)
(6.74917e-12 0 2.11904e-12)
(2.25789e-12 0 2.14207e-12)
(-0.00179505 0 0.00306918)
(-0.00311765 0 0.000672581)
(-0.0027391 0 0.000702307)
(-0.00291909 0 0.000331554)
(-0.00269312 0 -0.000522153)
(-0.00245871 0 -0.000653571)
(-0.00216873 0 -0.000830589)
(-0.00211821 0 -0.000537309)
(-0.00203718 0 0.00065034)
(-0.0013843 0 -0.000147557)
(-0.000763168 0 -0.000403325)
(-0.000582421 0 -0.000564033)
(-8.21337e-07 0 -0.000641024)
(2.35553e-09 0 2.3092e-09)
(4.4667e-09 0 1.3405e-09)
(3.98563e-09 0 8.79644e-10)
(3.55371e-09 0 6.33179e-10)
(3.1985e-09 0 4.86916e-10)
(2.9062e-09 0 3.92455e-10)
(2.66118e-09 0 3.2729e-10)
(2.45163e-09 0 2.79976e-10)
(2.26922e-09 0 2.44205e-10)
(2.10809e-09 0 2.16258e-10)
(1.96403e-09 0 1.93821e-10)
(1.83396e-09 0 1.75391e-10)
(1.71557e-09 0 1.59953e-10)
(1.60711e-09 0 1.46802e-10)
(1.50719e-09 0 1.35437e-10)
(1.41473e-09 0 1.25493e-10)
(1.32885e-09 0 1.16698e-10)
(1.24883e-09 0 1.08846e-10)
(1.17407e-09 0 1.01777e-10)
(1.10407e-09 0 9.53679e-11)
(1.03841e-09 0 8.95201e-11)
(9.76729e-10 0 8.41547e-11)
(9.18701e-10 0 7.92077e-11)
(8.64057e-10 0 7.46265e-11)
(8.12553e-10 0 7.03679e-11)
(7.63976e-10 0 6.63959e-11)
(7.18133e-10 0 6.26804e-11)
(6.74853e-10 0 5.91959e-11)
(6.33979e-10 0 5.59208e-11)
(5.95371e-10 0 5.28368e-11)
(5.58896e-10 0 4.9928e-11)
(5.24437e-10 0 4.71808e-11)
(4.91882e-10 0 4.45834e-11)
(4.61128e-10 0 4.21253e-11)
(4.3208e-10 0 3.97977e-11)
(4.04646e-10 0 3.75924e-11)
(3.78742e-10 0 3.55023e-11)
(3.54288e-10 0 3.35211e-11)
(3.31208e-10 0 3.16431e-11)
(3.0943e-10 0 2.9863e-11)
(2.88887e-10 0 2.81761e-11)
(2.69512e-10 0 2.65781e-11)
(2.51245e-10 0 2.5065e-11)
(2.34024e-10 0 2.36331e-11)
(2.17795e-10 0 2.2279e-11)
(2.02501e-10 0 2.09994e-11)
(1.88092e-10 0 1.97913e-11)
(1.74517e-10 0 1.86518e-11)
(1.61729e-10 0 1.75782e-11)
(1.4968e-10 0 1.65679e-11)
(1.38328e-10 0 1.56185e-11)
(1.27629e-10 0 1.47278e-11)
(1.17542e-10 0 1.38934e-11)
(1.08029e-10 0 1.31132e-11)
(9.90513e-11 0 1.23853e-11)
(9.05723e-11 0 1.17077e-11)
(8.25571e-11 0 1.10786e-11)
(7.49719e-11 0 1.04961e-11)
(6.77843e-11 0 9.9586e-12)
(6.09628e-11 0 9.46433e-12)
(5.44774e-11 0 9.01166e-12)
(4.8299e-11 0 8.59893e-12)
(4.23998e-11 0 8.22444e-12)
(3.67531e-11 0 7.88629e-12)
(3.13336e-11 0 7.58232e-12)
(2.61173e-11 0 7.31028e-12)
(2.10818e-11 0 7.06861e-12)
(1.6206e-11 0 6.85621e-12)
(1.14699e-11 0 6.65488e-12)
(6.85042e-12 0 6.42427e-12)
(2.28332e-12 0 6.4448e-12)
(-0.0013654 0 0.00406563)
(-0.00135846 0 0.00258773)
(-0.00191437 0 0.00086205)
(-0.00195519 0 9.99692e-05)
(-0.00178688 0 -0.000870601)
(-0.00162546 0 -0.00104308)
(-0.00139626 0 -0.00139287)
(-0.000656495 0 -0.00172005)
(-4.42657e-05 0 -0.00151915)
(-0.000492539 0 -0.000416972)
(-0.000158372 0 -0.000525938)
(-0.000315791 0 -0.00071574)
(-9.91014e-07 0 -0.000971295)
(2.01008e-09 0 2.30976e-09)
(3.9024e-09 0 1.67933e-09)
(3.63509e-09 0 1.24201e-09)
(3.33826e-09 0 9.5347e-10)
(3.06011e-09 0 7.59803e-10)
(2.81246e-09 0 6.25168e-10)
(2.59451e-09 0 5.27999e-10)
(2.40221e-09 0 4.55387e-10)
(2.2313e-09 0 3.99423e-10)
(2.07812e-09 0 3.55107e-10)
(1.93975e-09 0 3.19178e-10)
(1.81386e-09 0 2.89443e-10)
(1.69862e-09 0 2.64391e-10)
(1.59259e-09 0 2.42954e-10)
(1.49458e-09 0 2.24363e-10)
(1.40365e-09 0 2.08049e-10)
(1.31901e-09 0 1.93586e-10)
(1.24002e-09 0 1.80649e-10)
(1.16612e-09 0 1.68986e-10)
(1.09685e-09 0 1.58398e-10)
(1.03182e-09 0 1.48728e-10)
(9.70671e-10 0 1.39847e-10)
(9.13115e-10 0 1.31653e-10)
(8.58886e-10 0 1.2406e-10)
(8.07751e-10 0 1.16999e-10)
(7.59504e-10 0 1.10409e-10)
(7.13959e-10 0 1.04243e-10)
(6.70948e-10 0 9.8458e-11)
(6.30321e-10 0 9.30191e-11)
(5.91937e-10 0 8.78961e-11)
(5.55671e-10 0 8.30631e-11)
(5.21405e-10 0 7.84975e-11)
(4.89029e-10 0 7.41801e-11)
(4.58443e-10 0 7.00937e-11)
(4.29551e-10 0 6.62234e-11)
(4.02265e-10 0 6.2556e-11)
(3.76501e-10 0 5.90799e-11)
(3.52179e-10 0 5.57845e-11)
(3.29225e-10 0 5.26603e-11)
(3.07566e-10 0 4.96988e-11)
(2.87136e-10 0 4.68922e-11)
(2.6787e-10 0 4.42333e-11)
(2.49706e-10 0 4.17156e-11)
(2.32585e-10 0 3.93328e-11)
(2.1645e-10 0 3.70794e-11)
(2.01247e-10 0 3.49499e-11)
(1.86925e-10 0 3.29393e-11)
(1.73434e-10 0 3.10428e-11)
(1.60726e-10 0 2.92561e-11)
(1.48754e-10 0 2.75747e-11)
(1.37476e-10 0 2.59948e-11)
(1.26848e-10 0 2.45123e-11)
(1.1683e-10 0 2.31237e-11)
(1.07383e-10 0 2.18254e-11)
(9.84686e-11 0 2.06141e-11)
(9.00507e-11 0 1.94865e-11)
(8.20945e-11 0 1.84396e-11)
(7.45662e-11 0 1.74704e-11)
(6.74334e-11 0 1.6576e-11)
(6.06648e-11 0 1.57538e-11)
(5.42302e-11 0 1.50009e-11)
(4.81007e-11 0 1.43146e-11)
(4.22482e-11 0 1.36922e-11)
(3.66459e-11 0 1.31308e-11)
(3.12678e-11 0 1.26271e-11)
(2.60896e-11 0 1.21773e-11)
(2.10881e-11 0 1.17786e-11)
(1.62416e-11 0 1.14288e-11)
(1.15209e-11 0 1.11164e-11)
(6.87971e-12 0 1.08131e-11)
(2.28603e-12 0 1.07681e-11)
(-0.00109183 0 0.00491041)
(-0.00102268 0 0.00300636)
(-0.00140692 0 0.00142947)
(-0.00160548 0 0.000321461)
(-0.00143347 0 -0.000930115)
(-0.00113702 0 -0.00130148)
(-0.00109146 0 -0.00147278)
(-0.000517834 0 -0.00150145)
(-0.00035033 0 -0.000918602)
(0.000173551 0 -0.000512966)
(0.000234332 0 -0.000357484)
(-2.14774e-05 0 -0.000668248)
(-3.05221e-07 0 -0.00100489)
(1.768e-09 0 2.30686e-09)
(3.47168e-09 0 1.84879e-09)
(3.31045e-09 0 1.47394e-09)
(3.10635e-09 0 1.19067e-09)
(2.8949e-09 0 9.81072e-10)
(2.69258e-09 0 8.25195e-10)
(2.50528e-09 0 7.07341e-10)
(2.33399e-09 0 6.16359e-10)
(2.17778e-09 0 5.44577e-10)
(2.03513e-09 0 4.86741e-10)
(1.90449e-09 0 4.39226e-10)
(1.78439e-09 0 3.99499e-10)
(1.67359e-09 0 3.65756e-10)
(1.57101e-09 0 3.36699e-10)
(1.47576e-09 0 3.11368e-10)
(1.38704e-09 0 2.89047e-10)
(1.30423e-09 0 2.69193e-10)
(1.22674e-09 0 2.51385e-10)
(1.15411e-09 0 2.35294e-10)
(1.08592e-09 0 2.2066e-10)
(1.02182e-09 0 2.07272e-10)
(9.61474e-10 0 1.94962e-10)
(9.0462e-10 0 1.83591e-10)
(8.5101e-10 0 1.73045e-10)
(8.00426e-10 0 1.63228e-10)
(7.52671e-10 0 1.54062e-10)
(7.0757e-10 0 1.45478e-10)
(6.64961e-10 0 1.37422e-10)
(6.24701e-10 0 1.29843e-10)
(5.86654e-10 0 1.22703e-10)
(5.50698e-10 0 1.15964e-10)
(5.1672e-10 0 1.09596e-10)
(4.84612e-10 0 1.03572e-10)
(4.54276e-10 0 9.78695e-11)
(4.25619e-10 0 9.24675e-11)
(3.98554e-10 0 8.73478e-11)
(3.72998e-10 0 8.24943e-11)
(3.48874e-10 0 7.78926e-11)
(3.26107e-10 0 7.35295e-11)
(3.04627e-10 0 6.93932e-11)
(2.84366e-10 0 6.5473e-11)
(2.65262e-10 0 6.17589e-11)
(2.47253e-10 0 5.82418e-11)
(2.3028e-10 0 5.49131e-11)
(2.14287e-10 0 5.1765e-11)
(1.99221e-10 0 4.879e-11)
(1.85029e-10 0 4.59811e-11)
(1.71663e-10 0 4.33317e-11)
(1.59075e-10 0 4.08355e-11)
(1.4722e-10 0 3.84867e-11)
(1.36052e-10 0 3.62795e-11)
(1.25532e-10 0 3.42086e-11)
(1.15617e-10 0 3.22689e-11)
(1.06269e-10 0 3.04553e-11)
(9.74495e-11 0 2.87634e-11)
(8.91236e-11 0 2.71885e-11)
(8.1256e-11 0 2.57264e-11)
(7.38131e-11 0 2.43729e-11)
(6.67625e-11 0 2.31241e-11)
(6.00732e-11 0 2.19761e-11)
(5.3715e-11 0 2.09253e-11)
(4.7659e-11 0 1.99678e-11)
(4.18769e-11 0 1.91001e-11)
(3.63417e-11 0 1.83183e-11)
(3.10271e-11 0 1.7618e-11)
(2.59077e-11 0 1.69947e-11)
(2.09592e-11 0 1.64441e-11)
(1.61576e-11 0 1.59638e-11)
(1.14741e-11 0 1.55538e-11)
(6.85749e-12 0 1.52111e-11)
(2.27858e-12 0 1.50864e-11)
(-0.000833559 0 0.00563034)
(-0.000990576 0 0.00338098)
(-0.00110171 0 0.00164234)
(-0.0012722 0 0.000411612)
(-0.0011819 0 -0.00114247)
(-0.000517418 0 -0.0017499)
(-0.000732845 0 -0.00179572)
(-0.000306205 0 -0.00186612)
(-4.90663e-05 0 -0.00175723)
(0.000838689 0 -0.000889384)
(0.000695063 0 -0.000311125)
(0.000605307 0 -0.000284226)
(1.31465e-06 0 -0.000837375)
(1.58239e-09 0 2.30811e-09)
(3.12753e-09 0 1.94548e-09)
(3.02339e-09 0 1.6257e-09)
(2.88086e-09 0 1.3634e-09)
(2.7216e-09 0 1.15538e-09)
(2.55947e-09 0 9.92026e-10)
(2.40194e-09 0 8.63262e-10)
(2.25246e-09 0 7.60629e-10)
(2.1123e-09 0 6.77624e-10)
(1.98159e-09 0 6.09434e-10)
(1.85994e-09 0 5.52546e-10)
(1.74675e-09 0 5.04393e-10)
(1.64133e-09 0 4.63092e-10)
(1.54301e-09 0 4.27242e-10)
(1.45118e-09 0 3.9579e-10)
(1.36527e-09 0 3.67932e-10)
(1.28476e-09 0 3.43048e-10)
(1.20921e-09 0 3.20651e-10)
(1.13822e-09 0 3.00355e-10)
(1.07142e-09 0 2.81852e-10)
(1.00852e-09 0 2.64892e-10)
(9.49224e-10 0 2.4927e-10)
(8.93288e-10 0 2.34819e-10)
(8.4049e-10 0 2.214e-10)
(7.90627e-10 0 2.08895e-10)
(7.4352e-10 0 1.97208e-10)
(6.99002e-10 0 1.86256e-10)
(6.56923e-10 0 1.75969e-10)
(6.17147e-10 0 1.66287e-10)
(5.79544e-10 0 1.57158e-10)
(5.43998e-10 0 1.48539e-10)
(5.104e-10 0 1.40392e-10)
(4.78646e-10 0 1.32682e-10)
(4.48641e-10 0 1.25381e-10)
(4.20294e-10 0 1.18463e-10)
(3.93522e-10 0 1.11905e-10)
(3.68243e-10 0 1.05687e-10)
(3.4438e-10 0 9.97906e-11)
(3.21862e-10 0 9.4199e-11)
(3.00618e-10 0 8.88974e-11)
(2.80584e-10 0 8.38723e-11)
(2.61695e-10 0 7.91111e-11)
(2.43892e-10 0 7.46021e-11)
(2.27116e-10 0 7.03345e-11)
(2.11312e-10 0 6.62983e-11)
(1.96426e-10 0 6.2484e-11)
(1.82409e-10 0 5.88827e-11)
(1.69209e-10 0 5.54858e-11)
(1.56782e-10 0 5.22856e-11)
(1.4508e-10 0 4.92742e-11)
(1.34061e-10 0 4.64446e-11)
(1.23683e-10 0 4.37898e-11)
(1.13905e-10 0 4.13032e-11)
(1.04689e-10 0 3.89786e-11)
(9.59973e-11 0 3.68099e-11)
(8.77939e-11 0 3.47914e-11)
(8.00443e-11 0 3.29177e-11)
(7.27151e-11 0 3.11833e-11)
(6.57743e-11 0 2.95834e-11)
(5.91907e-11 0 2.8113e-11)
(5.29345e-11 0 2.67673e-11)
(4.69765e-11 0 2.55418e-11)
(4.12887e-11 0 2.44321e-11)
(3.58438e-11 0 2.34333e-11)
(3.06151e-11 0 2.25407e-11)
(2.55767e-11 0 2.17488e-11)
(2.07029e-11 0 2.10527e-11)
(1.59674e-11 0 2.04509e-11)
(1.13413e-11 0 1.99498e-11)
(6.78664e-12 0 1.95689e-11)
(2.26082e-12 0 1.93811e-11)
(-0.00114207 0 0.00624647)
(-0.000636859 0 0.00394414)
(-0.00104936 0 0.00179827)
(-0.00110107 0 0.000403753)
(-0.00125229 0 -0.0012764)
(-0.0011775 0 -0.00162182)
(-0.00139322 0 -0.00164092)
(-0.000899486 0 -0.00202347)
(-0.00106348 0 -0.00206069)
(0.000572474 0 -0.00146649)
(0.000782809 0 -0.000170596)
(-0.00016469 0 -0.000197254)
(3.86581e-07 0 -0.000785878)
(1.43099e-09 0 2.30928e-09)
(2.83789e-09 0 2.00492e-09)
(2.76996e-09 0 1.72727e-09)
(2.67e-09 0 1.48873e-09)
(2.55074e-09 0 1.29069e-09)
(2.42226e-09 0 1.12868e-09)
(2.29146e-09 0 9.96409e-10)
(2.1627e-09 0 8.87814e-10)
(2.03847e-09 0 7.97794e-10)
(1.92004e-09 0 7.22321e-10)
(1.80794e-09 0 6.58296e-10)
(1.70225e-09 0 6.0336e-10)
(1.60281e-09 0 5.55717e-10)
(1.50931e-09 0 5.1399e-10)
(1.42141e-09 0 4.77113e-10)
(1.33875e-09 0 4.44255e-10)
(1.26095e-09 0 4.14761e-10)
(1.18769e-09 0 3.88106e-10)
(1.11864e-09 0 3.63871e-10)
(1.05352e-09 0 3.41714e-10)
(9.92064e-10 0 3.21356e-10)
(9.34035e-10 0 3.02566e-10)
(8.79214e-10 0 2.85155e-10)
(8.27402e-10 0 2.68961e-10)
(7.78421e-10 0 2.53853e-10)
(7.32105e-10 0 2.39716e-10)
(6.88303e-10 0 2.26455e-10)
(6.46875e-10 0 2.13988e-10)
(6.07693e-10 0 2.02246e-10)
(5.70638e-10 0 1.91168e-10)
(5.35597e-10 0 1.80702e-10)
(5.02468e-10 0 1.70804e-10)
(4.71151e-10 0 1.61434e-10)
(4.41556e-10 0 1.52557e-10)
(4.13594e-10 0 1.44143e-10)
(3.87184e-10 0 1.36165e-10)
(3.62248e-10 0 1.28598e-10)
(3.3871e-10 0 1.21421e-10)
(3.16501e-10 0 1.14614e-10)
(2.95552e-10 0 1.08159e-10)
(2.75798e-10 0 1.0204e-10)
(2.57177e-10 0 9.6242e-11)
(2.3963e-10 0 9.07506e-11)
(2.23099e-10 0 8.55531e-11)
(2.0753e-10 0 8.06372e-11)
(1.92871e-10 0 7.59915e-11)
(1.7907e-10 0 7.16052e-11)
(1.66079e-10 0 6.7468e-11)
(1.53851e-10 0 6.35703e-11)
(1.42342e-10 0 5.99028e-11)
(1.31508e-10 0 5.64568e-11)
(1.21307e-10 0 5.32239e-11)
(1.11701e-10 0 5.0196e-11)
(1.02649e-10 0 4.73656e-11)
(9.41161e-11 0 4.47252e-11)
(8.60655e-11 0 4.2268e-11)
(7.84632e-11 0 3.99872e-11)
(7.12761e-11 0 3.78764e-11)
(6.44723e-11 0 3.59295e-11)
(5.80208e-11 0 3.41406e-11)
(5.18919e-11 0 3.25042e-11)
(4.60566e-11 0 3.10146e-11)
(4.0487e-11 0 2.96667e-11)
(3.51557e-11 0 2.84552e-11)
(3.00359e-11 0 2.73746e-11)
(2.51013e-11 0 2.64192e-11)
(2.03253e-11 0 2.55841e-11)
(1.56811e-11 0 2.48687e-11)
(1.11398e-11 0 2.42826e-11)
(6.67065e-12 0 2.38526e-11)
(2.22499e-12 0 2.36259e-11)
(-0.000947742 0 0.00688004)
(-0.000932845 0 0.00420792)
(-0.00106766 0 0.00193923)
(-0.00120539 0 0.00050107)
(-0.00144858 0 -0.00117412)
(-0.000364403 0 -0.00209138)
(-0.000786384 0 -0.00222104)
(-0.000252625 0 -0.00265734)
(-0.00070331 0 -0.00259306)
(0.000520906 0 -0.00182427)
(0.000939178 0 -0.000103728)
(0.000152775 0 4.03585e-05)
(1.0603e-06 0 -0.00065199)
(1.3008e-09 0 2.30828e-09)
(2.58779e-09 0 2.04131e-09)
(2.54455e-09 0 1.79482e-09)
(2.47598e-09 0 1.57876e-09)
(2.38791e-09 0 1.39458e-09)
(2.28697e-09 0 1.23941e-09)
(2.17911e-09 0 1.10893e-09)
(2.0689e-09 0 9.98832e-10)
(1.95949e-09 0 9.05317e-10)
(1.8529e-09 0 8.25263e-10)
(1.75028e-09 0 7.5616e-10)
(1.65226e-09 0 6.96007e-10)
(1.55905e-09 0 6.43222e-10)
(1.47069e-09 0 5.96542e-10)
(1.38705e-09 0 5.54962e-10)
(1.30795e-09 0 5.17672e-10)
(1.23316e-09 0 4.84019e-10)
(1.16246e-09 0 4.5347e-10)
(1.09562e-09 0 4.25589e-10)
(1.03241e-09 0 4.00019e-10)
(9.72612e-10 0 3.76461e-10)
(9.1604e-10 0 3.54668e-10)
(8.62507e-10 0 3.34432e-10)
(8.11842e-10 0 3.1558e-10)
(7.63887e-10 0 2.97964e-10)
(7.18495e-10 0 2.8146e-10)
(6.7553e-10 0 2.6596e-10)
(6.34866e-10 0 2.51374e-10)
(5.96383e-10 0 2.37624e-10)
(5.59972e-10 0 2.24641e-10)
(5.25528e-10 0 2.12368e-10)
(4.92952e-10 0 2.00754e-10)
(4.62153e-10 0 1.89753e-10)
(4.33043e-10 0 1.79327e-10)
(4.05538e-10 0 1.6944e-10)
(3.79559e-10 0 1.60063e-10)
(3.5503e-10 0 1.51166e-10)
(3.31879e-10 0 1.42726e-10)
(3.10037e-10 0 1.34719e-10)
(2.89439e-10 0 1.27126e-10)
(2.70019e-10 0 1.19926e-10)
(2.51718e-10 0 1.13104e-10)
(2.34477e-10 0 1.06642e-10)
(2.1824e-10 0 1.00525e-10)
(2.02952e-10 0 9.47393e-11)
(1.88562e-10 0 8.92718e-11)
(1.7502e-10 0 8.41095e-11)
(1.62278e-10 0 7.92406e-11)
(1.5029e-10 0 7.46536e-11)
(1.3901e-10 0 7.03378e-11)
(1.28398e-10 0 6.62828e-11)
(1.1841e-10 0 6.24788e-11)
(1.09008e-10 0 5.89164e-11)
(1.00154e-10 0 5.55865e-11)
(9.18109e-11 0 5.24806e-11)
(8.39434e-11 0 4.95904e-11)
(7.65176e-11 0 4.69081e-11)
(6.95006e-11 0 4.44262e-11)
(6.28607e-11 0 4.21375e-11)
(5.65675e-11 0 4.00351e-11)
(5.05913e-11 0 3.81126e-11)
(4.49034e-11 0 3.63636e-11)
(3.94759e-11 0 3.47822e-11)
(3.42815e-11 0 3.33625e-11)
(2.92936e-11 0 3.20986e-11)
(2.44855e-11 0 3.09848e-11)
(1.98309e-11 0 3.00163e-11)
(1.53025e-11 0 2.9193e-11)
(1.08724e-11 0 2.85262e-11)
(6.51223e-12 0 2.80443e-11)
(2.17299e-12 0 2.77889e-11)
(-0.000926442 0 0.00741828)
(-0.000852887 0 0.00456403)
(-0.000826591 0 0.00232805)
(-0.00116494 0 0.000854347)
(-0.00142432 0 -0.00135195)
(-0.00016021 0 -0.00219093)
(-0.00142275 0 -0.00208443)
(-0.000742224 0 -0.00286179)
(-0.00071119 0 -0.00277741)
(0.000362712 0 -0.00197664)
(0.000874968 0 -0.000110606)
(-6.44322e-05 0 0.000165179)
(1.14301e-06 0 -0.000561326)
(1.18352e-09 0 2.30774e-09)
(2.36227e-09 0 2.06015e-09)
(2.34121e-09 0 1.83601e-09)
(2.29896e-09 0 1.64108e-09)
(2.23624e-09 0 1.47323e-09)
(2.15764e-09 0 1.32865e-09)
(2.06873e-09 0 1.20373e-09)
(1.97431e-09 0 1.09542e-09)
(1.87798e-09 0 1.00114e-09)
(1.7822e-09 0 9.18693e-10)
(1.68856e-09 0 8.46252e-10)
(1.59799e-09 0 7.82263e-10)
(1.51103e-09 0 7.25432e-10)
(1.4279e-09 0 6.74675e-10)
(1.34869e-09 0 6.29094e-10)
(1.27335e-09 0 5.87939e-10)
(1.20179e-09 0 5.50588e-10)
(1.13386e-09 0 5.16522e-10)
(1.06942e-09 0 4.85306e-10)
(1.0083e-09 0 4.56579e-10)
(9.50339e-10 0 4.30034e-10)
(8.95388e-10 0 4.05416e-10)
(8.43294e-10 0 3.82506e-10)
(7.93914e-10 0 3.61122e-10)
(7.47113e-10 0 3.41107e-10)
(7.02765e-10 0 3.22327e-10)
(6.60749e-10 0 3.04667e-10)
(6.20951e-10 0 2.88029e-10)
(5.83265e-10 0 2.72329e-10)
(5.47589e-10 0 2.57493e-10)
(5.13826e-10 0 2.43457e-10)
(4.81886e-10 0 2.30165e-10)
(4.51681e-10 0 2.17568e-10)
(4.23128e-10 0 2.05623e-10)
(3.96148e-10 0 1.94291e-10)
(3.70665e-10 0 1.83538e-10)
(3.46607e-10 0 1.73334e-10)
(3.23903e-10 0 1.6365e-10)
(3.02486e-10 0 1.54462e-10)
(2.82293e-10 0 1.45746e-10)
(2.63261e-10 0 1.37482e-10)
(2.45331e-10 0 1.29649e-10)
(2.28445e-10 0 1.22229e-10)
(2.12548e-10 0 1.15206e-10)
(1.97586e-10 0 1.08563e-10)
(1.8351e-10 0 1.02285e-10)
(1.70269e-10 0 9.63569e-11)
(1.57816e-10 0 9.07663e-11)
(1.46106e-10 0 8.54996e-11)
(1.35094e-10 0 8.05446e-11)
(1.24739e-10 0 7.58893e-11)
(1.14999e-10 0 7.15225e-11)
(1.05835e-10 0 6.74334e-11)
(9.72103e-11 0 6.36117e-11)
(8.90881e-11 0 6.00474e-11)
(8.14335e-11 0 5.67312e-11)
(7.42129e-11 0 5.3654e-11)
(6.73937e-11 0 5.08072e-11)
(6.09448e-11 0 4.81826e-11)
(5.48359e-11 0 4.57724e-11)
(4.90375e-11 0 4.35693e-11)
(4.35214e-11 0 4.15661e-11)
(3.82598e-11 0 3.97563e-11)
(3.32257e-11 0 3.81335e-11)
(2.83925e-11 0 3.66915e-11)
(2.37338e-11 0 3.54243e-11)
(1.92233e-11 0 3.43272e-11)
(1.48344e-11 0 3.34007e-11)
(1.05403e-11 0 3.26565e-11)
(6.31392e-12 0 3.21235e-11)
(2.10713e-12 0 3.18419e-11)
(-0.00103738 0 0.00784161)
(-0.000760677 0 0.00478814)
(-0.00123882 0 0.00220863)
(-0.00137896 0 0.000624472)
(-0.00144844 0 -0.00148974)
(-0.000380222 0 -0.00229728)
(-0.000974547 0 -0.00243682)
(-0.000324557 0 -0.00315656)
(-0.000889556 0 -0.0028419)
(-0.000109157 0 -0.00231793)
(0.00114366 0 6.32377e-05)
(0.000566023 0 0.00053469)
(2.08452e-06 0 -0.00028334)
(1.07109e-09 0 2.30771e-09)
(2.15106e-09 0 2.05888e-09)
(2.15625e-09 0 1.85193e-09)
(2.13974e-09 0 1.67991e-09)
(2.09833e-09 0 1.53167e-09)
(2.03723e-09 0 1.40079e-09)
(1.96305e-09 0 1.28409e-09)
(1.88128e-09 0 1.17982e-09)
(1.7959e-09 0 1.08666e-09)
(1.70958e-09 0 1.00343e-09)
(1.62409e-09 0 9.29002e-10)
(1.54054e-09 0 8.62306e-10)
(1.4596e-09 0 8.02369e-10)
(1.38166e-09 0 7.48318e-10)
(1.30692e-09 0 6.99386e-10)
(1.23544e-09 0 6.54907e-10)
(1.16722e-09 0 6.14309e-10)
(1.1022e-09 0 5.771e-10)
(1.04031e-09 0 5.42864e-10)
(9.81421e-10 0 5.11243e-10)
(9.25437e-10 0 4.81933e-10)
(8.72238e-10 0 4.54677e-10)
(8.21708e-10 0 4.29253e-10)
(7.73732e-10 0 4.05472e-10)
(7.28198e-10 0 3.83172e-10)
(6.84999e-10 0 3.62215e-10)
(6.44031e-10 0 3.4248e-10)
(6.05194e-10 0 3.23864e-10)
(5.68392e-10 0 3.06278e-10)
(5.33535e-10 0 2.89644e-10)
(5.00534e-10 0 2.73893e-10)
(4.69304e-10 0 2.58966e-10)
(4.39765e-10 0 2.4481e-10)
(4.11839e-10 0 2.3138e-10)
(3.8545e-10 0 2.18632e-10)
(3.60527e-10 0 2.06532e-10)
(3.36999e-10 0 1.95044e-10)
(3.14801e-10 0 1.84139e-10)
(2.93865e-10 0 1.7379e-10)
(2.74132e-10 0 1.63971e-10)
(2.55539e-10 0 1.54659e-10)
(2.38029e-10 0 1.45832e-10)
(2.21546e-10 0 1.3747e-10)
(2.06036e-10 0 1.29554e-10)
(1.91445e-10 0 1.22066e-10)
(1.77725e-10 0 1.1499e-10)
(1.64827e-10 0 1.08309e-10)
(1.52703e-10 0 1.02008e-10)
(1.41309e-10 0 9.60728e-11)
(1.30602e-10 0 9.04889e-11)
(1.20539e-10 0 8.52434e-11)
(1.11081e-10 0 8.03233e-11)
(1.02189e-10 0 7.57167e-11)
(9.38253e-11 0 7.14118e-11)
(8.59547e-11 0 6.73974e-11)
(7.85425e-11 0 6.3663e-11)
(7.15556e-11 0 6.01984e-11)
(6.49619e-11 0 5.69939e-11)
(5.87305e-11 0 5.40403e-11)
(5.28315e-11 0 5.13288e-11)
(4.7236e-11 0 4.88513e-11)
(4.19159e-11 0 4.65999e-11)
(3.68439e-11 0 4.45673e-11)
(3.19932e-11 0 4.27469e-11)
(2.73375e-11 0 4.11319e-11)
(2.28508e-11 0 3.97164e-11)
(1.85072e-11 0 3.84956e-11)
(1.4281e-11 0 3.74697e-11)
(1.01465e-11 0 3.66506e-11)
(6.07816e-12 0 3.60672e-11)
(2.02866e-12 0 3.57601e-11)
(-0.000810969 0 0.00833703)
(-0.000603306 0 0.00521395)
(-0.000709265 0 0.00284493)
(-0.00114833 0 0.00117738)
(-0.00144479 0 -0.00190704)
(-0.000165005 0 -0.0026379)
(-0.00138158 0 -0.00258602)
(-0.000570605 0 -0.00321652)
(-0.000360182 0 -0.00307255)
(0.000870402 0 -0.00258514)
(0.000112602 0 -0.00064065)
(0.000623781 0 0.000593233)
(1.66162e-06 0 -8.49452e-05)
(9.52402e-10 0 2.30739e-09)
(1.9401e-09 0 2.0214e-09)
(1.99e-09 0 1.83758e-09)
(2.00211e-09 0 1.69809e-09)
(1.97749e-09 0 1.57505e-09)
(1.92813e-09 0 1.46061e-09)
(1.8639e-09 0 1.35366e-09)
(1.79133e-09 0 1.25456e-09)
(1.71454e-09 0 1.16356e-09)
(1.63616e-09 0 1.08053e-09)
(1.55787e-09 0 1.00503e-09)
(1.48076e-09 0 9.36478e-10)
(1.40552e-09 0 8.74195e-10)
(1.33261e-09 0 8.17517e-10)
(1.26227e-09 0 7.65813e-10)
(1.19466e-09 0 7.18507e-10)
(1.12984e-09 0 6.75086e-10)
(1.06781e-09 0 6.35097e-10)
(1.00855e-09 0 5.98148e-10)
(9.52004e-10 0 5.63896e-10)
(8.98098e-10 0 5.32046e-10)
(8.46755e-10 0 5.02342e-10)
(7.97891e-10 0 4.74567e-10)
(7.51417e-10 0 4.48529e-10)
(7.07245e-10 0 4.24065e-10)
(6.65286e-10 0 4.01034e-10)
(6.25453e-10 0 3.79314e-10)
(5.8766e-10 0 3.58798e-10)
(5.51823e-10 0 3.39394e-10)
(5.17862e-10 0 3.2102e-10)
(4.85695e-10 0 3.03606e-10)
(4.55247e-10 0 2.8709e-10)
(4.26442e-10 0 2.71417e-10)
(3.99207e-10 0 2.56537e-10)
(3.73473e-10 0 2.42406e-10)
(3.49169e-10 0 2.28987e-10)
(3.26231e-10 0 2.16242e-10)
(3.04593e-10 0 2.04141e-10)
(2.84194e-10 0 1.92653e-10)
(2.64972e-10 0 1.81751e-10)
(2.46869e-10 0 1.7141e-10)
(2.29829e-10 0 1.61607e-10)
(2.13796e-10 0 1.52319e-10)
(1.98717e-10 0 1.43526e-10)
(1.84542e-10 0 1.35209e-10)
(1.71221e-10 0 1.27349e-10)
(1.58705e-10 0 1.19928e-10)
(1.4695e-10 0 1.1293e-10)
(1.35911e-10 0 1.06338e-10)
(1.25544e-10 0 1.00137e-10)
(1.15809e-10 0 9.43125e-11)
(1.06667e-10 0 8.885e-11)
(9.80784e-11 0 8.3736e-11)
(9.00076e-11 0 7.89577e-11)
(8.24188e-11 0 7.45026e-11)
(7.52783e-11 0 7.0359e-11)
(6.85532e-11 0 6.65154e-11)
(6.2212e-11 0 6.29612e-11)
(5.62244e-11 0 5.96862e-11)
(5.05608e-11 0 5.66807e-11)
(4.51927e-11 0 5.39356e-11)
(4.00927e-11 0 5.14425e-11)
(3.52337e-11 0 4.91934e-11)
(3.05894e-11 0 4.71811e-11)
(2.6134e-11 0 4.53988e-11)
(2.18419e-11 0 4.384e-11)
(1.7688e-11 0 4.24998e-11)
(1.36474e-11 0 4.13781e-11)
(9.69564e-12 0 4.04864e-11)
(5.80831e-12 0 3.98534e-11)
(1.93885e-12 0 3.9521e-11)
(-0.00100118 0 0.0087825)
(-0.000688643 0 0.00550418)
(-0.00142428 0 0.00275597)
(-0.00162258 0 0.000784866)
(-0.0019154 0 -0.00206611)
(-0.00159475 0 -0.00263367)
(-0.00122762 0 -0.00302585)
(-0.00134449 0 -0.00302593)
(-0.000875462 0 -0.00322608)
(-0.000467227 0 -0.00286706)
(-0.000696397 0 -0.00106752)
(0.000789555 0 0.00102408)
(9.45566e-07 0 0.000315495)
(8.05199e-10 0 2.3064e-09)
(1.71504e-09 0 1.89482e-09)
(1.85645e-09 0 1.78464e-09)
(1.89635e-09 0 1.70201e-09)
(1.8781e-09 0 1.611e-09)
(1.83188e-09 0 1.51393e-09)
(1.77192e-09 0 1.41641e-09)
(1.70496e-09 0 1.32227e-09)
(1.6345e-09 0 1.23353e-09)
(1.5626e-09 0 1.15107e-09)
(1.49056e-09 0 1.07503e-09)
(1.41929e-09 0 1.0052e-09)
(1.34938e-09 0 9.4115e-10)
(1.28127e-09 0 8.82393e-10)
(1.21522e-09 0 8.28417e-10)
(1.15143e-09 0 7.7873e-10)
(1.09001e-09 0 7.32879e-10)
(1.031e-09 0 6.90452e-10)
(9.74424e-10 0 6.51086e-10)
(9.20275e-10 0 6.14459e-10)
(8.68517e-10 0 5.80288e-10)
(8.19106e-10 0 5.48328e-10)
(7.71985e-10 0 5.18364e-10)
(7.27092e-10 0 4.90211e-10)
(6.8436e-10 0 4.63705e-10)
(6.43718e-10 0 4.38707e-10)
(6.05095e-10 0 4.15094e-10)
(5.6842e-10 0 3.92758e-10)
(5.33619e-10 0 3.71605e-10)
(5.00622e-10 0 3.51554e-10)
(4.69358e-10 0 3.32532e-10)
(4.39756e-10 0 3.14475e-10)
(4.11748e-10 0 2.97326e-10)
(3.85267e-10 0 2.81035e-10)
(3.60245e-10 0 2.65556e-10)
(3.3662e-10 0 2.50849e-10)
(3.14326e-10 0 2.36876e-10)
(2.93304e-10 0 2.23604e-10)
(2.73493e-10 0 2.11e-10)
(2.54833e-10 0 1.99038e-10)
(2.3727e-10 0 1.87689e-10)
(2.20746e-10 0 1.76929e-10)
(2.05209e-10 0 1.66734e-10)
(1.90607e-10 0 1.57082e-10)
(1.7689e-10 0 1.47952e-10)
(1.64009e-10 0 1.39323e-10)
(1.51917e-10 0 1.31177e-10)
(1.40569e-10 0 1.23496e-10)
(1.29921e-10 0 1.16261e-10)
(1.19932e-10 0 1.09456e-10)
(1.1056e-10 0 1.03065e-10)
(1.01766e-10 0 9.70715e-11)
(9.3514e-11 0 9.14617e-11)
(8.57667e-11 0 8.62209e-11)
(7.84896e-11 0 8.13355e-11)
(7.16494e-11 0 7.67924e-11)
(6.52138e-11 0 7.25793e-11)
(5.91519e-11 0 6.86844e-11)
(5.34338e-11 0 6.50964e-11)
(4.80306e-11 0 6.18048e-11)
(4.29144e-11 0 5.87997e-11)
(3.8058e-11 0 5.60719e-11)
(3.34352e-11 0 5.36129e-11)
(2.90201e-11 0 5.1415e-11)
(2.47876e-11 0 4.9471e-11)
(2.07129e-11 0 4.7774e-11)
(1.67715e-11 0 4.63188e-11)
(1.29393e-11 0 4.51046e-11)
(9.19261e-12 0 4.41426e-11)
(5.50782e-12 0 4.34616e-11)
(1.83897e-12 0 4.31044e-11)
(-0.000691618 0 0.00937399)
(-0.000673863 0 0.00595345)
(-0.00135653 0 0.00328875)
(-0.00168421 0 0.00148677)
(-0.0023726 0 -0.00197915)
(-0.00242093 0 -0.00233804)
(-0.00274165 0 -0.00297966)
(-0.00282288 0 -0.00336962)
(-0.00207761 0 -0.00411389)
(0.000261641 0 -0.00352605)
(-0.000640454 0 -0.0015287)
(0.000368298 0 0.000357526)
(1.64128e-06 0 0.000444291)
(5.69024e-10 0 2.12958e-09)
(1.45394e-09 0 1.50404e-09)
(1.81131e-09 0 1.7077e-09)
(1.84118e-09 0 1.71339e-09)
(1.80296e-09 0 1.6523e-09)
(1.74748e-09 0 1.56767e-09)
(1.68595e-09 0 1.47624e-09)
(1.62155e-09 0 1.38526e-09)
(1.55564e-09 0 1.29805e-09)
(1.48908e-09 0 1.21602e-09)
(1.42254e-09 0 1.13963e-09)
(1.35658e-09 0 1.06888e-09)
(1.29165e-09 0 1.0035e-09)
(1.22809e-09 0 9.43113e-10)
(1.16619e-09 0 8.87292e-10)
(1.10612e-09 0 8.35618e-10)
(1.04805e-09 0 7.87692e-10)
(9.92045e-10 0 7.43145e-10)
(9.38172e-10 0 7.01641e-10)
(8.86452e-10 0 6.62882e-10)
(8.36885e-10 0 6.26604e-10)
(7.89456e-10 0 5.92572e-10)
(7.44135e-10 0 5.60582e-10)
(7.00882e-10 0 5.30453e-10)
(6.59651e-10 0 5.02028e-10)
(6.20388e-10 0 4.75169e-10)
(5.83039e-10 0 4.49755e-10)
(5.47544e-10 0 4.2568e-10)
(5.13842e-10 0 4.02851e-10)
(4.81872e-10 0 3.81185e-10)
(4.5157e-10 0 3.6061e-10)
(4.22875e-10 0 3.41061e-10)
(3.95723e-10 0 3.22482e-10)
(3.70051e-10 0 3.04819e-10)
(3.458e-10 0 2.88028e-10)
(3.22906e-10 0 2.72066e-10)
(3.01312e-10 0 2.56894e-10)
(2.80957e-10 0 2.42478e-10)
(2.61784e-10 0 2.28785e-10)
(2.43737e-10 0 2.15786e-10)
(2.2676e-10 0 2.03451e-10)
(2.108e-10 0 1.91755e-10)
(1.95805e-10 0 1.80672e-10)
(1.81723e-10 0 1.70179e-10)
(1.68506e-10 0 1.60254e-10)
(1.56106e-10 0 1.50874e-10)
(1.44477e-10 0 1.42019e-10)
(1.33574e-10 0 1.3367e-10)
(1.23355e-10 0 1.25807e-10)
(1.13778e-10 0 1.18412e-10)
(1.04803e-10 0 1.11468e-10)
(9.63911e-11 0 1.04958e-10)
(8.85064e-11 0 9.88643e-11)
(8.11131e-11 0 9.3173e-11)
(7.4177e-11 0 8.78687e-11)
(6.76654e-11 0 8.29372e-11)
(6.15466e-11 0 7.83649e-11)
(5.57902e-11 0 7.41391e-11)
(5.0367e-11 0 7.02474e-11)
(4.52488e-11 0 6.66784e-11)
(4.04081e-11 0 6.34215e-11)
(3.58187e-11 0 6.04666e-11)
(3.14547e-11 0 5.78047e-11)
(2.72912e-11 0 5.54275e-11)
(2.33039e-11 0 5.33274e-11)
(1.94687e-11 0 5.14971e-11)
(1.57621e-11 0 4.99311e-11)
(1.21605e-11 0 4.86281e-11)
(8.64044e-12 0 4.75989e-11)
(5.17864e-12 0 4.68724e-11)
(1.72969e-12 0 4.64922e-11)
(-0.000826618 0 0.0099615)
(-0.000749477 0 0.00647649)
(-0.00148264 0 0.0038293)
(-0.00198496 0 0.00226563)
(-0.00327475 0 -0.00129361)
(-0.00339013 0 -0.00234277)
(-0.00303527 0 -0.00392014)
(-0.00325377 0 -0.00414822)
(-0.00273625 0 -0.00439639)
(-0.00177443 0 -0.00326596)
(-0.00189688 0 -0.00145004)
(-0.000472451 0 -0.00141087)
(0.000265095 0 0.000917564)
(3.39012e-09 0 8.4506e-08)
(1.15197e-09 0 1.69627e-09)
(2.05297e-09 0 1.80441e-09)
(1.84526e-09 0 1.78329e-09)
(1.74266e-09 0 1.71424e-09)
(1.66817e-09 0 1.62739e-09)
(1.60236e-09 0 1.53567e-09)
(1.53938e-09 0 1.44498e-09)
(1.47728e-09 0 1.35805e-09)
(1.41549e-09 0 1.27604e-09)
(1.35397e-09 0 1.19933e-09)
(1.29294e-09 0 1.1279e-09)
(1.23268e-09 0 1.06152e-09)
(1.17345e-09 0 9.99858e-10)
(1.11552e-09 0 9.42558e-10)
(1.05907e-09 0 8.89246e-10)
(1.00426e-09 0 8.39566e-10)
(9.51225e-10 0 7.93187e-10)
(9.00034e-10 0 7.49805e-10)
(8.50744e-10 0 7.09145e-10)
(8.03385e-10 0 6.70961e-10)
(7.57965e-10 0 6.35035e-10)
(7.14479e-10 0 6.01174e-10)
(6.72908e-10 0 5.69206e-10)
(6.33224e-10 0 5.38981e-10)
(5.95391e-10 0 5.10366e-10)
(5.59367e-10 0 4.83243e-10)
(5.25105e-10 0 4.5751e-10)
(4.92556e-10 0 4.33076e-10)
(4.61667e-10 0 4.09859e-10)
(4.32383e-10 0 3.87787e-10)