0.010101 	3.25585e-14 	-7.85688e-17 	1.34652e-15
0.020202 	1.54198e-14 	-2.74459e-17 	1.58656e-16
