/*--------------------------------*- C++ -*----------------------------------*\
  =========                 |
  \\      /  F ield         | OpenFOAM: The Open Source CFD Toolbox
   \\    /   O peration     | Website:  https://openfoam.org
    \\  /    A nd           | Version:  6
     \\/     M anipulation  |
\*---------------------------------------------------------------------------*/
FoamFile
{
    version     2.0;
    format      ascii;
    class       volVectorField;
    location    "1150";
    object      U;
}
// * * * * * * * * * * * * * * * * * * * * * * * * * * * * * * * * * * * * * //

dimensions      [0 1 -1 0 0 0 0];

internalField   nonuniform List<vector> 
4800
(
(-4.89536e-05 0 -0.00010517)
(-8.01152e-05 0 -2.71427e-05)
(-0.000206483 0 -0.000193387)
(-0.000169201 0 -0.000226943)
(-0.000333959 0 1.40154e-05)
(-0.000446065 0 0.000109101)
(-0.000503453 0 -5.03461e-05)
(-0.000562478 0 -1.4321e-05)
(-0.000626762 0 0.00010134)
(-0.000692052 0 3.7905e-05)
(-0.000756882 0 7.62443e-05)
(-0.000834223 0 6.27201e-05)
(-0.000906096 0 3.2559e-05)
(-0.000982058 0 6.58725e-05)
(-0.00107935 0 4.87658e-05)
(-0.00117183 0 5.17715e-05)
(-0.00124725 0 2.57743e-05)
(-0.00129908 0 1.26148e-05)
(-0.00133302 0 -4.32905e-06)
(-0.0013512 0 -1.53963e-05)
(-0.00134006 0 -4.81986e-05)
(-0.00125485 0 -9.00451e-05)
(-0.00120802 0 -7.90035e-05)
(-0.00115901 0 -4.33508e-05)
(-0.00100188 0 -0.000101662)
(-0.000821894 0 -0.000113148)
(-0.000710119 0 -5.98162e-05)
(-0.000653541 0 -1.96414e-05)
(-0.000591066 0 -3.56416e-05)
(-0.000519701 0 -4.52735e-05)
(-0.000481414 0 -3.43431e-05)
(-0.000465571 0 -4.04988e-05)
(-0.000458199 0 -5.2473e-05)
(-0.000441042 0 -7.46719e-05)
(-0.000411849 0 -5.23293e-05)
(-0.000394238 0 -3.83317e-05)
(-0.000390916 0 -2.63297e-05)
(-0.000393621 0 -5.78864e-06)
(-0.000388979 0 -1.84366e-05)
(-0.000366359 0 -4.34546e-05)
(-0.000346955 0 -4.16899e-05)
(-0.000344638 0 -4.79049e-05)
(-0.000385921 0 -0.000123649)
(-0.0004469 0 -0.000202079)
(-0.000510703 0 -0.00016439)
(-0.000578881 0 -0.000106692)
(-0.000652211 0 -3.21237e-05)
(-0.000714084 0 2.26368e-05)
(-0.000759663 0 -2.13655e-05)
(-0.000794312 0 -2.0375e-05)
(-0.00082136 0 3.00025e-06)
(-0.000833131 0 -1.294e-06)
(-0.000827111 0 -1.5637e-05)
(-0.000822059 0 -1.76777e-05)
(-0.000814768 0 3.40426e-05)
(-0.000704472 0 9.07128e-05)
(-0.000556848 0 -1.40021e-05)
(-0.000410827 0 -0.00015815)
(-0.000293473 0 -0.000174828)
(-0.000252959 0 -5.35796e-05)
(-0.000209948 0 1.90263e-05)
(-8.31394e-05 0 -0.000160913)
(-1.60987e-05 0 -3.95129e-05)
(5.16113e-05 0 -7.58894e-06)
(7.80001e-05 0 2.39993e-05)
(9.56427e-05 0 -3.8646e-05)
(0.000103934 0 0.000203796)
(-0.00011829 0 -0.000145296)
(-0.000366764 0 -0.000241127)
(-0.000432603 0 -0.000151658)
(-0.000370786 0 -0.000101379)
(-0.000363067 0 2.72911e-05)
(-0.000322021 0 -1.05467e-05)
(-0.000383091 0 4.35734e-05)
(-0.000416311 0 6.43992e-05)
(-0.000493924 0 -8.45093e-06)
(-0.000534684 0 -0.000103462)
(-0.000557435 0 -0.000180691)
(-0.000581822 0 -0.000209347)
(2.65137e-06 0 -0.000300988)
(-6.49323e-13 0 2.3878e-14)
(-2.17045e-12 0 2.9397e-14)
(-1.38016e-12 0 -5.09451e-15)
(-1.34431e-12 0 -2.88676e-14)
(-1.27211e-12 0 -4.3102e-14)
(-1.17675e-12 0 -5.20963e-14)
(-1.06593e-12 0 -5.83323e-14)
(-9.44324e-13 0 -6.28337e-14)
(-8.15224e-13 0 -6.59274e-14)
(-6.81435e-13 0 -6.76911e-14)
(-5.45581e-13 0 -6.8151e-14)
(-4.1018e-13 0 -6.73524e-14)
(-2.77604e-13 0 -6.53774e-14)
(-1.50015e-13 0 -6.23455e-14)
(-2.93121e-14 0 -5.84064e-14)
(8.29023e-14 0 -5.37287e-14)
(1.85335e-13 0 -4.84875e-14)
(2.77008e-13 0 -4.28526e-14)
(3.5726e-13 0 -3.69828e-14)
(4.25727e-13 0 -3.10236e-14)
(4.82321e-13 0 -2.51031e-14)
(5.27182e-13 0 -1.93261e-14)
(5.60645e-13 0 -1.37741e-14)
(5.83211e-13 0 -8.51024e-15)
(5.95499e-13 0 -3.58312e-15)
(5.98202e-13 0 9.74709e-16)
(5.92057e-13 0 5.14706e-15)
(5.77824e-13 0 8.93071e-15)
(5.56264e-13 0 1.23295e-14)
(5.2812e-13 0 1.53513e-14)
(4.94094e-13 0 1.80097e-14)
(4.54854e-13 0 2.03249e-14)
(4.1105e-13 0 2.23219e-14)
(3.6333e-13 0 2.40259e-14)
(3.12342e-13 0 2.54561e-14)
(2.58714e-13 0 2.6624e-14)
(2.03039e-13 0 2.75339e-14)
(1.45869e-13 0 2.81851e-14)
(8.77386e-14 0 2.85641e-14)
(2.92499e-14 0 2.85992e-14)
(-5.63184e-05 0 0.000130754)
(-6.05083e-05 0 0.000109471)
(-0.00017418 0 0.000240244)
(-0.000362206 0 0.000192756)
(-0.000379544 0 0.000130266)
(-0.000420899 0 0.000103736)
(-0.000514202 0 0.000100752)
(-0.000551658 0 9.77552e-05)
(-0.000597118 0 2.82749e-05)
(-0.000658647 0 0.000152632)
(-0.000746326 0 1.95144e-05)
(-0.000812835 0 8.54524e-05)
(-0.00089216 0 8.56302e-05)
(-0.000974272 0 6.80042e-05)
(-0.00106057 0 0.000112077)
(-0.00114442 0 9.35279e-05)
(-0.00120699 0 9.57768e-05)
(-0.00125446 0 6.94504e-05)
(-0.00129486 0 3.6445e-05)
(-0.00132952 0 2.20224e-05)
(-0.00134267 0 8.01708e-07)
(-0.00128413 0 -0.00013632)
(-0.00122259 0 -0.000145797)
(-0.00119056 0 -0.000125288)
(-0.00109453 0 -0.000252561)
(-0.000933734 0 -0.000309982)
(-0.000785613 0 -0.000254069)
(-0.000706062 0 -5.85709e-05)
(-0.000618388 0 -5.38165e-05)
(-0.000549048 0 -7.81219e-05)
(-0.00051135 0 -1.58031e-05)
(-0.000489475 0 -1.77671e-05)
(-0.000481556 0 -2.37084e-06)
(-0.000469106 0 4.91145e-05)
(-0.000439243 0 1.30358e-05)
(-0.000416254 0 -5.12873e-06)
(-0.000409079 0 2.03148e-05)
(-0.000407343 0 -1.75073e-05)
(-0.000404061 0 -1.50927e-05)
(-0.00040296 0 -1.59679e-05)
(-0.000406456 0 1.14162e-05)
(-0.000431383 0 8.93382e-05)
(-0.000501227 0 0.000220518)
(-0.000569919 0 0.00029274)
(-0.000683683 0 0.00019794)
(-0.000744608 0 0.000135414)
(-0.000792106 0 0.000102792)
(-0.00085021 0 8.45781e-05)
(-0.00088441 0 8.289e-05)
(-0.000898114 0 5.94932e-05)
(-0.000910153 0 4.26816e-05)
(-0.000918479 0 3.01982e-05)
(-0.000877895 0 -3.55712e-05)
(-0.00084015 0 -3.57278e-05)
(-0.000792826 0 -0.000195167)
(-0.000741821 0 -0.000197298)
(-0.000665759 0 -0.000228044)
(-0.000556294 0 -0.00020369)
(-0.000448264 0 -0.000125472)
(-0.000354386 0 -8.69935e-06)
(-0.000267424 0 -0.000110341)
(-7.53033e-05 0 -0.000249214)
(-0.000173951 0 -4.00281e-05)
(0.000131809 0 6.55993e-05)
(8.33482e-05 0 -6.90358e-05)
(0.000159331 0 6.51174e-05)
(0.000340402 0 -0.000183571)
(0.000332886 0 0.000215941)
(0.000360494 0 0.000258827)
(0.000427067 0 0.000242251)
(0.000399634 0 0.000199904)
(0.000319666 0 9.08315e-05)
(0.000270921 0 3.21238e-05)
(-0.000143804 0 0.000140346)
(-0.000381062 0 8.64346e-05)
(-0.000414902 0 1.33193e-05)
(-0.000419041 0 -5.59768e-05)
(-0.00038802 0 -0.000158411)
(-0.000608321 0 -0.0002729)
(3.80237e-06 0 -0.000463006)
(-1.03004e-12 0 3.52653e-13)
(-2.22547e-12 0 1.08053e-13)
(-1.43842e-12 0 -2.77448e-14)
(-1.38232e-12 0 -9.57916e-14)
(-1.29534e-12 0 -1.33977e-13)
(-1.19198e-12 0 -1.58741e-13)
(-1.07667e-12 0 -1.76636e-13)
(-9.51919e-13 0 -1.89915e-13)
(-8.20082e-13 0 -1.99156e-13)
(-6.83658e-13 0 -2.04424e-13)
(-5.45243e-13 0 -2.05734e-13)
(-4.07407e-13 0 -2.03207e-13)
(-2.72597e-13 0 -1.97101e-13)
(-1.43044e-13 0 -1.87796e-13)
(-2.06953e-14 0 -1.75764e-13)
(9.28212e-14 0 -1.61526e-13)
(1.96211e-13 0 -1.45619e-13)
(2.88513e-13 0 -1.28561e-13)
(3.69089e-13 0 -1.10834e-13)
(4.37607e-13 0 -9.28699e-14)
(4.94018e-13 0 -7.50466e-14)
(5.38511e-13 0 -5.76764e-14)
(5.71461e-13 0 -4.10064e-14)
(5.93402e-13 0 -2.52272e-14)
(6.04984e-13 0 -1.04789e-14)
(6.06932e-13 0 3.14688e-15)
(6.00013e-13 0 1.56013e-14)
(5.85006e-13 0 2.68703e-14)
(5.62684e-13 0 3.69669e-14)
(5.338e-13 0 4.59288e-14)
(4.99068e-13 0 5.38174e-14)
(4.59166e-13 0 6.07094e-14)
(4.14751e-13 0 6.66823e-14)
(3.66464e-13 0 7.1799e-14)
(3.1494e-13 0 7.60997e-14)
(2.60792e-13 0 7.96064e-14)
(2.04601e-13 0 8.23333e-14)
(1.469e-13 0 8.42967e-14)
(8.81527e-14 0 8.55089e-14)
(2.9285e-14 0 8.5941e-14)
(-3.44363e-05 0 0.000164734)
(-0.000132096 0 0.000140302)
(-0.000157379 0 0.000269593)
(-0.000273678 0 0.000304768)
(-0.000378681 0 0.000227136)
(-0.000472889 0 0.000101007)
(-0.000483026 0 0.000172516)
(-0.000501372 0 0.000155974)
(-0.000536482 0 0.000156937)
(-0.000617561 0 0.000206557)
(-0.000699518 0 0.000181766)
(-0.000775109 0 0.000156029)
(-0.000832656 0 0.000240719)
(-0.000936843 0 0.000209631)
(-0.00102482 0 0.000219433)
(-0.00109456 0 0.000214443)
(-0.00115529 0 0.000160839)
(-0.00120655 0 0.000118684)
(-0.00125527 0 4.90656e-05)
(-0.00127921 0 1.89074e-05)
(-0.00128551 0 3.5858e-06)
(-0.00122638 0 -0.000144561)
(-0.00115454 0 -0.000159399)
(-0.00112726 0 -0.000164721)
(-0.00112073 0 -0.00020091)
(-0.00103651 0 -0.000382835)
(-0.000901839 0 -0.000361309)
(-0.000814249 0 -0.000135412)
(-0.000670408 0 -0.000197395)
(-0.000564966 0 -0.000170526)
(-0.000497848 0 -5.37118e-05)
(-0.000437777 0 -8.60483e-05)
(-0.000417057 0 -6.92718e-05)
(-0.000407319 0 -5.39279e-05)
(-0.00040207 0 -2.30915e-05)
(-0.000388271 0 -6.70636e-05)
(-0.000403631 0 3.56363e-06)
(-0.000419469 0 1.52129e-05)
(-0.000427712 0 -5.67489e-06)
(-0.000432516 0 1.8635e-05)
(-0.000462851 0 6.26611e-05)
(-0.0005186 0 0.000108992)
(-0.000581013 0 8.32364e-05)
(-0.000613037 0 0.000180064)
(-0.000667067 0 0.000217078)
(-0.000760728 0 0.000193232)
(-0.000846732 0 0.000154285)
(-0.000895816 0 0.000134391)
(-0.000919797 0 0.00010538)
(-0.000940216 0 1.72374e-05)
(-0.000964358 0 1.4495e-05)
(-0.000980824 0 2.58303e-05)
(-0.00094102 0 -8.63123e-05)
(-0.000869156 0 -0.000102365)
(-0.000844509 0 -7.73101e-05)
(-0.000835121 0 -0.000111608)
(-0.00074503 0 -0.000373235)
(-0.000660697 0 -0.00018926)
(-0.000413786 0 -0.000347414)
(-0.000416186 0 -9.52217e-05)
(-0.000237818 0 -0.000293567)
(-0.000122832 0 -0.000245492)
(-5.53663e-05 0 -0.000185811)
(-8.59586e-06 0 -0.000183804)
(-7.54917e-05 0 -0.000235522)
(0.000256644 0 -6.69358e-05)
(0.000311853 0 1.05885e-05)
(0.000372483 0 5.30731e-05)
(0.000435494 0 0.000100952)
(0.000507968 0 9.12827e-05)
(0.000491774 0 9.60319e-05)
(0.000442958 0 8.52123e-05)
(0.000378712 0 0.00019539)
(0.000210351 0 0.000263282)
(0.000178122 0 0.000289522)
(0.000212435 0 0.000259884)
(0.000134513 0 0.000232151)
(0.000121731 0 -0.000118637)
(-0.000403411 0 -0.000325447)
(3.7989e-06 0 -0.000507411)
(-1.06902e-12 0 3.60077e-13)
(-2.62035e-12 0 3.16009e-14)
(-1.584e-12 0 -1.19534e-13)
(-1.45054e-12 0 -1.92362e-13)
(-1.33506e-12 0 -2.3783e-13)
(-1.21941e-12 0 -2.72018e-13)
(-1.09711e-12 0 -2.99476e-13)
(-9.66844e-13 0 -3.20992e-13)
(-8.29733e-13 0 -3.36288e-13)
(-6.88013e-13 0 -3.44992e-13)
(-5.44364e-13 0 -3.46971e-13)
(-4.01547e-13 0 -3.42401e-13)
(-2.62193e-13 0 -3.3174e-13)
(-1.28678e-13 0 -3.15668e-13)
(-3.04146e-15 0 -2.95018e-13)
(1.13047e-13 0 -2.70699e-13)
(2.18299e-13 0 -2.43636e-13)
(3.11793e-13 0 -2.14717e-13)
(3.92951e-13 0 -1.84754e-13)
(4.61515e-13 0 -1.54473e-13)
(5.17514e-13 0 -1.245e-13)
(5.61222e-13 0 -9.5352e-14)
(5.93095e-13 0 -6.74391e-14)
(6.13739e-13 0 -4.10713e-14)
(6.23873e-13 0 -1.6471e-14)
(6.24282e-13 0 6.21966e-15)
(6.15781e-13 0 2.69274e-14)
(5.99189e-13 0 4.56367e-14)
(5.75322e-13 0 6.23806e-14)
(5.4497e-13 0 7.72361e-14)
(5.08875e-13 0 9.03151e-14)
(4.67719e-13 0 1.01746e-13)
(4.22139e-13 0 1.11648e-13)
(3.72747e-13 0 1.20116e-13)
(3.20149e-13 0 1.27211e-13)
(2.64948e-13 0 1.32978e-13)
(2.0773e-13 0 1.3746e-13)
(1.49045e-13 0 1.40712e-13)
(8.93828e-14 0 1.42803e-13)
(2.9682e-14 0 1.43815e-13)
(-2.3972e-05 0 0.000220195)
(-0.00014175 0 0.000227074)
(-0.000210008 0 0.000303614)
(-0.000248936 0 0.000353158)
(-0.000340596 0 0.000298445)
(-0.000435959 0 0.000219396)
(-0.000463507 0 0.000190488)
(-0.000464934 0 0.000192101)
(-0.000572523 0 0.000129053)
(-0.00059925 0 0.000273919)
(-0.000661421 0 0.000274748)
(-0.000732607 0 0.000299595)
(-0.000821244 0 0.000280455)
(-0.000902558 0 0.000314067)
(-0.00099333 0 0.000315775)
(-0.00108545 0 0.000250444)
(-0.0011512 0 0.000201282)
(-0.00119619 0 0.000151886)
(-0.00121511 0 0.000136933)
(-0.00121814 0 6.36897e-05)
(-0.00121376 0 -2.81304e-05)
(-0.00118815 0 -0.000241231)
(-0.00111447 0 -0.000320973)
(-0.00107187 0 -0.000266007)
(-0.00104097 0 -0.000313069)
(-0.00104249 0 -0.000329867)
(-0.000996851 0 -0.000352329)
(-0.000854484 0 -0.000386011)
(-0.000779622 0 -0.00019401)
(-0.000605357 0 -0.000248696)
(-0.000499045 0 -0.00011462)
(-0.000411374 0 -5.60074e-05)
(-0.000360662 0 -2.63003e-05)
(-0.00034242 0 -1.68525e-05)
(-0.00034683 0 -2.1584e-05)
(-0.00034627 0 -2.90789e-05)
(-0.000355604 0 4.06699e-05)
(-0.000382039 0 3.04355e-05)
(-0.000406956 0 2.96548e-05)
(-0.000421256 0 5.03977e-05)
(-0.00043824 0 8.48601e-05)
(-0.000491578 0 0.00016649)
(-0.000552093 0 0.000232094)
(-0.000596689 0 0.000268189)
(-0.000656008 0 0.000251554)
(-0.000731904 0 0.000246683)
(-0.000810216 0 0.000227166)
(-0.000865322 0 0.000185394)
(-0.000902321 0 0.000133084)
(-0.000937641 0 2.92848e-05)
(-0.000953189 0 2.53851e-05)
(-0.000961012 0 2.66584e-05)
(-0.000947955 0 -0.000119784)
(-0.000865674 0 -0.000235498)
(-0.000833022 0 -0.000222144)
(-0.000805801 0 -0.000290326)
(-0.000788634 0 -0.000319411)
(-0.00073543 0 -0.000294371)
(-0.000339563 0 -0.000661632)
(-0.000529972 0 -0.000290354)
(-0.000350969 0 -0.000353839)
(-0.000330068 0 -0.000229337)
(-0.000153944 0 -0.000268813)
(-0.000107935 0 -0.000251088)
(0.000204183 0 -0.0002011)
(0.000165163 0 -0.0002541)
(0.000275122 0 -0.000124499)
(0.000327875 0 -9.59518e-05)
(0.000409901 0 -6.40223e-05)
(0.000456616 0 0.000180555)
(0.000494312 0 0.000108957)
(0.00050173 0 0.000138152)
(0.000525815 0 0.000200352)
(0.000511601 0 0.000229937)
(0.000349409 0 0.000364138)
(0.000476555 0 4.97942e-05)
(0.000166484 0 0.000363699)
(0.000328033 0 -0.000207648)
(-0.000213947 0 -0.00023814)
(3.5298e-06 0 -0.000453421)
(-9.68324e-13 0 -3.33676e-13)
(-2.7936e-12 0 -2.78576e-13)
(-1.66239e-12 0 -2.89099e-13)
(-1.50062e-12 0 -3.16442e-13)
(-1.37499e-12 0 -3.53132e-13)
(-1.25362e-12 0 -3.92091e-13)
(-1.12565e-12 0 -4.28221e-13)
(-9.8873e-13 0 -4.58137e-13)
(-8.44081e-13 0 -4.79746e-13)
(-6.94342e-13 0 -4.91935e-13)
(-5.42652e-13 0 -4.94363e-13)
(-3.92175e-13 0 -4.87293e-13)
(-2.45864e-13 0 -4.71442e-13)
(-1.06322e-13 0 -4.47851e-13)
(2.42739e-14 0 -4.17764e-13)
(1.44203e-13 0 -3.82528e-13)
(2.52193e-13 0 -3.43499e-13)
(3.47395e-13 0 -3.01966e-13)
(4.29333e-13 0 -2.59098e-13)
(4.97862e-13 0 -2.15923e-13)
(5.53139e-13 0 -1.73321e-13)
(5.95571e-13 0 -1.32016e-13)
(6.25742e-13 0 -9.25686e-14)
(6.4437e-13 0 -5.53948e-14)
(6.52275e-13 0 -2.07847e-14)
(6.50331e-13 0 1.10832e-14)
(6.39431e-13 0 4.01274e-14)
(6.20459e-13 0 6.63458e-14)
(5.94284e-13 0 8.97971e-14)
(5.61734e-13 0 1.10588e-13)
(5.23577e-13 0 1.28859e-13)
(4.80499e-13 0 1.44772e-13)
(4.33121e-13 0 1.58486e-13)
(3.82027e-13 0 1.70142e-13)
(3.27802e-13 0 1.79858e-13)
(2.7104e-13 0 1.87732e-13)
(2.12334e-13 0 1.93859e-13)
(1.52243e-13 0 1.98335e-13)
(9.1256e-14 0 2.01253e-13)
(3.02972e-14 0 2.02686e-13)
(-3.46872e-05 0 0.000305406)
(-0.000178814 0 0.000316958)
(-0.000244974 0 0.000370354)
(-0.000272295 0 0.000384606)
(-0.000310982 0 0.000347093)
(-0.000399416 0 0.000283001)
(-0.000383693 0 0.000311621)
(-0.000490693 0 0.000163246)
(-0.00057003 0 0.0002447)
(-0.000628678 0 0.000282435)
(-0.000634722 0 0.000351189)
(-0.000716387 0 0.000366604)
(-0.00082257 0 0.00035802)
(-0.000917779 0 0.000353473)
(-0.00100396 0 0.000336505)
(-0.00106503 0 0.000322479)
(-0.0011034 0 0.000270126)
(-0.00112127 0 0.000200586)
(-0.00113529 0 0.000123597)
(-0.00113329 0 -0.000119093)
(-0.0011119 0 -8.72345e-05)
(-0.00111476 0 -0.000215575)
(-0.00112953 0 -0.000225605)
(-0.001049 0 -0.000355111)
(-0.00101826 0 -0.000356695)
(-0.000993135 0 -0.000420876)
(-0.000981641 0 -0.000436766)
(-0.000907827 0 -0.000465681)
(-0.000823049 0 -0.000445637)
(-0.000694076 0 -0.000447609)
(-0.000592552 0 -0.000336152)
(-0.000479723 0 -0.000235395)
(-0.000374633 0 -0.000180374)
(-0.000329263 0 -0.000112783)
(-0.000317731 0 9.6893e-05)
(-0.000295865 0 -3.87274e-05)
(-0.000298034 0 -1.36275e-05)
(-0.000343435 0 2.19883e-05)
(-0.000370332 0 7.90438e-06)
(-0.000378404 0 0.000101211)
(-0.000417885 0 0.000113272)
(-0.000468106 0 0.000187304)
(-0.000517952 0 0.000262917)
(-0.000578723 0 0.000283129)
(-0.000618337 0 0.000329143)
(-0.000702757 0 0.000284293)
(-0.000767565 0 0.00023857)
(-0.000802866 0 0.000206407)
(-0.000828979 0 0.000169407)
(-0.000844564 0 0.000103726)
(-0.000854671 0 8.10041e-06)
(-0.000867618 0 -1.69354e-05)
(-0.0008649 0 -7.44213e-05)
(-0.000852252 0 -0.000137566)
(-0.000847254 0 -0.000197641)
(-0.000818726 0 -0.000286693)
(-0.000735348 0 -0.000448442)
(-0.000676911 0 -0.000487764)
(-0.000652661 0 -0.000480991)
(-0.000484075 0 -0.0005258)
(-0.000391227 0 -0.000482414)
(-0.00028235 0 -0.000434919)
(-0.000218647 0 -0.000392569)
(-0.000103029 0 -0.000393013)
(5.06796e-06 0 -0.000373378)
(0.000114278 0 -0.000315105)
(0.000243538 0 -0.00021638)
(0.000298803 0 -0.000149004)
(0.000355079 0 -6.23026e-05)
(0.00041089 0 4.8681e-05)
(0.000457617 0 0.00021028)
(0.000597881 0 -0.000242273)
(0.000631084 0 0.000272733)
(0.000599565 0 0.00036964)
(0.000495112 0 0.000446943)
(0.000540458 0 0.000286178)
(0.00038279 0 0.000267606)
(0.000354198 0 0.000240342)
(-0.000194316 0 -9.90584e-05)
(3.51459e-06 0 -0.000357372)
(-8.67892e-13 0 -1.07628e-12)
(-2.65493e-12 0 -5.75654e-13)
(-1.62187e-12 0 -4.41653e-13)
(-1.51458e-12 0 -4.31194e-13)
(-1.41071e-12 0 -4.66212e-13)
(-1.2945e-12 0 -5.14978e-13)
(-1.16315e-12 0 -5.63081e-13)
(-1.01837e-12 0 -6.0341e-13)
(-8.63531e-13 0 -6.32377e-13)
(-7.0263e-13 0 -6.48355e-13)
(-5.39723e-13 0 -6.50973e-13)
(-3.78627e-13 0 -6.40725e-13)
(-2.22751e-13 0 -6.18712e-13)
(-7.5e-14 0 -5.86441e-13)
(6.22808e-14 0 -5.45665e-13)
(1.87313e-13 0 -4.98239e-13)
(2.98862e-13 0 -4.46012e-13)
(3.96194e-13 0 -3.90728e-13)
(4.78994e-13 0 -3.33948e-13)
(5.47291e-13 0 -2.7702e-13)
(6.01421e-13 0 -2.21078e-13)
(6.41975e-13 0 -1.67044e-13)
(6.69716e-13 0 -1.15622e-13)
(6.85523e-13 0 -6.73207e-14)
(6.90351e-13 0 -2.24784e-14)
(6.85194e-13 0 1.87101e-14)
(6.71044e-13 0 5.61691e-14)
(6.48859e-13 0 8.99161e-14)
(6.19564e-13 0 1.20037e-13)
(5.84032e-13 0 1.46668e-13)
(5.43059e-13 0 1.69987e-13)
(4.97346e-13 0 1.902e-13)
(4.4751e-13 0 2.07525e-13)
(3.9412e-13 0 2.22171e-13)
(3.37739e-13 0 2.3433e-13)
(2.78949e-13 0 2.4417e-13)
(2.18333e-13 0 2.51839e-13)
(1.56439e-13 0 2.57468e-13)
(9.37336e-14 0 2.61162e-13)
(3.11151e-14 0 2.6299e-13)
(6.83647e-06 0 0.000380966)
(6.42293e-05 0 0.000392694)
(-7.41884e-05 0 0.000484942)
(-0.000176544 0 0.000474373)
(-0.000278003 0 0.000403044)
(-0.000369999 0 0.00033395)
(-0.000396874 0 0.000311725)
(-0.000465285 0 0.000216808)
(-0.000504419 0 0.000355733)
(-0.000530166 0 0.000475136)
(-0.000636221 0 0.000419256)
(-0.00072631 0 0.000431218)
(-0.000847588 0 0.000431557)
(-0.000941567 0 0.000411184)
(-0.000971303 0 0.000428043)
(-0.00100624 0 0.000378682)
(-0.00102942 0 0.000247188)
(-0.00101075 0 0.000152705)
(-0.00100272 0 0.000138534)
(-0.00101811 0 5.48236e-05)
(-0.00102754 0 -0.00012108)
(-0.00103653 0 -0.000220617)
(-0.00104558 0 -0.000239573)
(-0.00100943 0 -0.000333636)
(-0.000987609 0 -0.000390613)
(-0.000975326 0 -0.000446435)
(-0.000947893 0 -0.00049821)
(-0.000912367 0 -0.000493495)
(-0.000845109 0 -0.000524772)
(-0.000820103 0 -0.000398787)
(-0.000693481 0 -0.000372274)
(-0.000618257 0 -0.000233266)
(-0.000477235 0 -0.000232585)
(-0.000397176 0 -0.000105984)
(-0.000299918 0 -7.70049e-05)
(-0.000251379 0 -9.91552e-06)
(-0.0002323 0 2.80288e-05)
(-0.000238956 0 0.000109148)
(-0.000299736 0 0.000131424)
(-0.000350703 0 9.19421e-05)
(-0.000374471 0 0.000139673)
(-0.000399113 0 0.00025091)
(-0.000467402 0 0.000289743)
(-0.000516096 0 0.000343948)
(-0.00055274 0 0.000403152)
(-0.000612882 0 0.00039344)
(-0.000644415 0 0.000369514)
(-0.000673257 0 0.000292907)
(-0.00070149 0 0.000209949)
(-0.00072302 0 4.31482e-05)
(-0.000700353 0 1.0211e-05)
(-0.000706255 0 6.29707e-05)
(-0.000704751 0 -0.000158056)
(-0.000708893 0 -0.000279602)
(-0.000766353 0 -0.000225653)
(-0.000713695 0 -0.00039714)
(-0.000696185 0 -0.000467169)
(-0.000673101 0 -0.000512173)
(-0.000637897 0 -0.000554598)
(-0.000452973 0 -0.000650969)
(-0.000461728 0 -0.000531951)
(-0.000375677 0 -0.000494484)
(-0.000283806 0 -0.000485171)
(-0.000121406 0 -0.000490419)
(-3.13666e-05 0 -0.000448166)
(0.000110414 0 -0.000401979)
(0.000129476 0 -0.000353226)
(0.000215867 0 -0.000278055)
(0.000325097 0 -9.96816e-05)
(0.000367615 0 -3.43936e-05)
(0.000446491 0 9.54755e-05)
(0.000563567 0 6.2368e-06)
(0.000578336 0 0.000260919)
(0.00058518 0 0.000327619)
(0.000552977 0 0.000374645)
(0.000558657 0 0.000344183)
(0.000457118 0 0.000373613)
(0.00047958 0 8.22345e-05)
(0.000199225 0 0.000230285)
(3.8958e-06 0 -0.000197643)
(-7.32465e-13 0 -7.98874e-13)
(-2.20832e-12 0 -5.33352e-13)
(-1.51793e-12 0 -4.70686e-13)
(-1.52517e-12 0 -5.00481e-13)
(-1.45878e-12 0 -5.65553e-13)
(-1.35049e-12 0 -6.38512e-13)
(-1.21408e-12 0 -7.05667e-13)
(-1.05803e-12 0 -7.59967e-13)
(-8.89026e-13 0 -7.97896e-13)
(-7.12939e-13 0 -8.18042e-13)
(-5.35022e-13 0 -8.20393e-13)
(-3.59913e-13 0 -8.05928e-13)
(-1.9158e-13 0 -7.76319e-13)
(-3.32757e-14 0 -7.33699e-13)
(1.12476e-13 0 -6.80457e-13)
(2.43856e-13 0 -6.19059e-13)
(3.59704e-13 0 -5.51926e-13)
(4.59459e-13 0 -4.81318e-13)
(5.43041e-13 0 -4.09236e-13)
(6.10731e-13 0 -3.37374e-13)
(6.63115e-13 0 -2.67126e-13)
(7.01027e-13 0 -1.996e-13)
(7.25465e-13 0 -1.35628e-13)
(7.37514e-13 0 -7.57927e-14)
(7.38306e-13 0 -2.04612e-14)
(7.28978e-13 0 3.0175e-14)
(7.10637e-13 0 7.6065e-14)
(6.84327e-13 0 1.17264e-13)
(6.51036e-13 0 1.53903e-13)
(6.11685e-13 0 1.86172e-13)
(5.67109e-13 0 2.14305e-13)
(5.18037e-13 0 2.38573e-13)
(4.65092e-13 0 2.59271e-13)
(4.08833e-13 0 2.76692e-13)
(3.49801e-13 0 2.91108e-13)
(2.88549e-13 0 3.02761e-13)
(2.25632e-13 0 3.11853e-13)
(1.61567e-13 0 3.18545e-13)
(9.67782e-14 0 3.22955e-13)
(3.21246e-14 0 3.25149e-13)
(-2.2886e-05 0 0.000398991)
(-5.00668e-05 0 0.000422757)
(-0.000116312 0 0.000539228)
(-5.82098e-05 0 0.000595823)
(-0.000190397 0 0.000515076)
(-0.000266062 0 0.00045043)
(-0.000389393 0 0.000355496)
(-0.000531268 0 0.000207748)
(-0.000494788 0 0.000402085)
(-0.000573634 0 0.000467289)
(-0.000720529 0 0.000393671)
(-0.00079102 0 0.00045357)
(-0.000837083 0 0.000539226)
(-0.000882749 0 0.000531719)
(-0.000914207 0 0.000483853)
(-0.000914238 0 0.000383093)
(-0.000907941 0 0.000284467)
(-0.000900955 0 0.000163712)
(-0.000877701 0 0.000109125)
(-0.000876755 0 6.1826e-05)
(-0.000911435 0 -0.000109243)
(-0.000940665 0 -0.00019276)
(-0.000951665 0 -0.000252073)
(-0.000925232 0 -0.000388493)
(-0.000943125 0 -0.000402832)
(-0.000950236 0 -0.00040993)
(-0.000875299 0 -0.000548194)
(-0.000862977 0 -0.000554928)
(-0.000849167 0 -0.000558867)
(-0.000793206 0 -0.000523207)
(-0.000676885 0 -0.000510136)
(-0.000640511 0 -0.00036099)
(-0.000516051 0 -0.000334634)
(-0.000446812 0 -0.000199186)
(-0.000327454 0 -0.000149807)
(-0.000247092 0 -6.07369e-05)
(-0.000189124 0 1.25591e-05)
(-0.000164397 0 5.54038e-05)
(-0.000205031 0 0.000155001)
(-0.000292459 0 0.000126342)
(-0.000339071 0 0.000158811)
(-0.000360888 0 0.000250998)
(-0.000374441 0 0.000353443)
(-0.000417535 0 0.000413649)
(-0.000492762 0 0.000417167)
(-0.000537926 0 0.000396753)
(-0.000590342 0 0.000309833)
(-0.000631015 0 0.000104549)
(-0.000585442 0 0.000177201)
(-0.00058055 0 0.000127163)
(-0.000568726 0 1.98798e-05)
(-0.0005584 0 -2.89975e-05)
(-0.000570124 0 -4.93678e-05)
(-0.000583205 0 -0.000239676)
(-0.000610479 0 -0.000282117)
(-0.000586028 0 -0.000425966)
(-0.000603448 0 -0.000514593)
(-0.000549711 0 -0.00062612)
(-0.000629062 0 -0.00057178)
(-0.000534177 0 -0.00065018)
(-0.000444882 0 -0.000659988)
(-0.00034157 0 -0.000644116)
(-0.000217973 0 -0.000629598)
(-0.000156904 0 -0.000595534)
(-0.000105441 0 -0.000569629)
(3.2807e-05 0 -0.000511462)
(9.01332e-05 0 -0.000405208)
(0.000211249 0 -0.000282485)
(0.000266479 0 -0.000158926)
(0.000316741 0 -0.00010652)
(0.000398854 0 -2.30151e-05)
(0.000465069 0 -2.31289e-05)
(0.000440699 0 0.000234459)
(0.000464544 0 0.000310986)
(0.000519367 0 0.00036493)
(0.000524038 0 0.000351206)
(0.000456311 0 0.000365627)
(0.000433404 0 0.000230479)
(3.16512e-05 0 0.000179789)
(3.80058e-06 0 7.49519e-05)
(-7.07513e-13 0 -4.8367e-14)
(-2.3279e-12 0 -2.76602e-13)
(-1.589e-12 0 -4.07306e-13)
(-1.60944e-12 0 -5.34506e-13)
(-1.54874e-12 0 -6.57008e-13)
(-1.43461e-12 0 -7.67854e-13)
(-1.28461e-12 0 -8.61125e-13)
(-1.1106e-12 0 -9.32932e-13)
(-9.21605e-13 0 -9.81251e-13)
(-7.25127e-13 0 -1.0056e-12)
(-5.27609e-13 0 -1.00676e-12)
(-3.34553e-13 0 -9.86461e-13)
(-1.50522e-13 0 -9.47192e-13)
(2.08621e-14 0 -8.91899e-13)
(1.7692e-13 0 -8.23774e-13)
(3.15844e-13 0 -7.46027e-13)
(4.36603e-13 0 -6.61743e-13)
(5.38884e-13 0 -5.73771e-13)
(6.22938e-13 0 -4.84604e-13)
(6.89401e-13 0 -3.96314e-13)
(7.39195e-13 0 -3.10561e-13)
(7.73473e-13 0 -2.28627e-13)
(7.93523e-13 0 -1.51446e-13)
(8.0069e-13 0 -7.96463e-14)
(7.96319e-13 0 -1.35954e-14)
(7.81721e-13 0 4.65503e-14)
(7.58132e-13 0 1.00797e-13)
(7.26697e-13 0 1.49271e-13)
(6.88472e-13 0 1.92181e-13)
(6.44433e-13 0 2.29799e-13)
(5.9546e-13 0 2.62444e-13)
(5.42312e-13 0 2.90475e-13)
(4.85628e-13 0 3.14275e-13)
(4.25957e-13 0 3.34228e-13)
(3.63809e-13 0 3.50693e-13)
(2.99693e-13 0 3.63981e-13)
(2.34117e-13 0 3.7435e-13)
(1.67541e-13 0 3.81991e-13)
(1.00337e-13 0 3.87034e-13)
(3.33086e-14 0 3.89553e-13)
(-6.52559e-05 0 0.000448799)
(-0.000297972 0 0.000425563)
(-0.000321428 0 0.000536704)
(-0.000364889 0 0.000546591)
(-0.00031837 0 0.000523238)
(-0.000316488 0 0.000493321)
(-0.000305257 0 0.000494701)
(-0.00040454 0 0.00043373)
(-0.000521705 0 0.00041657)
(-0.000508357 0 0.000588725)
(-0.000650778 0 0.000576224)
(-0.000739055 0 0.000593712)
(-0.000782182 0 0.000603166)
(-0.00082625 0 0.000562234)
(-0.000882668 0 0.000383919)
(-0.000844998 0 0.000287292)
(-0.000820183 0 0.000236398)
(-0.000820204 0 0.000158019)
(-0.000799426 0 6.42676e-05)
(-0.000769361 0 7.63969e-05)
(-0.000795882 0 -2.74568e-05)
(-0.000853382 0 -0.000149549)
(-0.000860725 0 -0.000240961)
(-0.000840712 0 -0.000372344)
(-0.00088079 0 -0.000370967)
(-0.000861508 0 -0.000464891)
(-0.000820593 0 -0.000555979)
(-0.000817899 0 -0.000569349)
(-0.00082172 0 -0.000565021)
(-0.000755898 0 -0.000604265)
(-0.000680551 0 -0.00055273)
(-0.000616899 0 -0.000469957)
(-0.000525686 0 -0.000416885)
(-0.000448843 0 -0.000332164)
(-0.000327308 0 -0.000276117)
(-0.000227502 0 -0.000160335)
(-0.000167655 0 -2.21364e-05)
(-0.000125142 0 0.000102286)
(-9.77654e-05 0 0.000198958)
(-3.88855e-05 0 0.000216901)
(-0.000147687 0 0.00023555)
(-0.000184928 0 0.000286013)
(-0.000241762 0 0.000377385)
(-0.000346303 0 0.00042599)
(-0.000359889 0 0.000468813)
(-0.000386281 0 0.000464074)
(-0.00040662 0 0.000434832)
(-0.000413242 0 0.000324784)
(-0.000416966 0 0.000240311)
(-0.000453404 0 0.000132988)
(-0.000495483 0 3.66598e-05)
(-0.0004958 0 3.40309e-05)
(-0.000498825 0 -4.74442e-05)
(-0.000504209 0 -0.000151816)
(-0.000497769 0 -0.000261267)
(-0.000505247 0 -0.000383879)
(-0.000602199 0 -0.000384798)
(-0.00050722 0 -0.000616092)
(-0.000556802 0 -0.000645105)
(-0.000530518 0 -0.000694985)
(-0.000479241 0 -0.000723754)
(-0.000325749 0 -0.000752524)
(-0.000307479 0 -0.000684559)
(-0.000195145 0 -0.000682145)
(-0.000104178 0 -0.000667645)
(-3.89455e-05 0 -0.00059006)
(2.17558e-05 0 -0.000458258)
(0.000178884 0 -0.000297929)
(0.000123237 0 -0.000296948)
(0.00026595 0 -0.000132963)
(0.00031526 0 -6.53423e-05)
(0.000316296 0 4.96039e-05)
(0.00032476 0 0.000115914)
(0.000365641 0 0.000211946)
(0.000356386 0 0.000414402)
(0.000431041 0 0.000397605)
(0.000370965 0 0.00041524)
(0.000370175 0 0.000316901)
(-1.5654e-05 0 0.000283724)
(3.92984e-06 0 0.000231726)
(-8.17323e-13 0 4.40082e-13)
(-2.5117e-12 0 -6.08034e-14)
(-1.77583e-12 0 -3.4743e-13)
(-1.77488e-12 0 -5.73214e-13)
(-1.69212e-12 0 -7.60102e-13)
(-1.55461e-12 0 -9.14767e-13)
(-1.37916e-12 0 -1.03808e-12)
(-1.17815e-12 0 -1.12946e-12)
(-9.61697e-13 0 -1.18868e-12)
(-7.38443e-13 0 -1.2165e-12)
(-5.1588e-13 0 -1.21473e-12)
(-3.0035e-13 0 -1.18617e-12)
(-9.7018e-14 0 -1.13433e-12)
(9.01418e-14 0 -1.06322e-12)
(2.58348e-13 0 -9.77027e-13)
(4.05887e-13 0 -8.79867e-13)
(5.3196e-13 0 -7.75606e-13)
(6.36598e-13 0 -6.67753e-13)
(7.20498e-13 0 -5.59341e-13)
(7.84774e-13 0 -4.52849e-13)
(8.30803e-13 0 -3.50206e-13)
(8.60143e-13 0 -2.52847e-13)
(8.74445e-13 0 -1.61771e-13)
(8.75364e-13 0 -7.76084e-14)
(8.64502e-13 0 -6.7764e-16)
(8.43371e-13 0 6.89462e-14)
(8.13357e-13 0 1.31373e-13)
(7.75711e-13 0 1.86843e-13)
(7.31564e-13 0 2.35685e-13)
(6.81948e-13 0 2.78286e-13)
(6.27785e-13 0 3.15075e-13)
(5.69868e-13 0 3.46519e-13)
(5.08845e-13 0 3.73102e-13)
(4.4525e-13 0 3.95302e-13)
(3.79554e-13 0 4.13564e-13)
(3.12205e-13 0 4.28272e-13)
(2.43641e-13 0 4.39735e-13)
(1.74251e-13 0 4.4818e-13)
(1.04341e-13 0 4.53755e-13)
(3.46432e-14 0 4.56545e-13)
(-5.59722e-05 0 0.000577093)
(-0.000154772 0 0.000606891)
(-0.000256151 0 0.000654153)
(-0.000229939 0 0.000648938)
(-0.000352962 0 0.000565312)
(-0.000432592 0 0.000485597)
(-0.000453292 0 0.000441415)
(-0.000430355 0 0.000456139)
(-0.000479534 0 0.000529514)
(-0.000611042 0 0.00055531)
(-0.000685815 0 0.000588793)
(-0.000705837 0 0.000626602)
(-0.000751143 0 0.000608008)
(-0.000774619 0 0.000572962)
(-0.00074023 0 0.000502259)
(-0.000704237 0 0.000411525)
(-0.000723142 0 0.000279162)
(-0.000743044 0 0.000191915)
(-0.000755999 0 0.000106465)
(-0.000735189 0 -2.89886e-05)
(-0.000729445 0 -3.9997e-05)
(-0.000759979 0 -0.000119438)
(-0.00075972 0 -0.000248952)
(-0.00072554 0 -0.000405738)
(-0.000773184 0 -0.0004147)
(-0.000788398 0 -0.000470168)
(-0.00077138 0 -0.000559238)
(-0.000762835 0 -0.000601452)
(-0.000749853 0 -0.000628649)
(-0.000722056 0 -0.00064144)
(-0.000647245 0 -0.000612098)
(-0.000586022 0 -0.00053895)
(-0.000503529 0 -0.000492452)
(-0.000434331 0 -0.000434139)
(-0.000371121 0 -0.000339352)
(-0.000261453 0 -0.000244493)
(-0.000156487 0 -0.000126585)
(-6.6944e-05 0 -3.17495e-05)
(-5.04934e-05 0 0.000175709)
(7.38906e-05 0 0.000218113)
(-4.86505e-05 0 0.000287187)
(-8.40789e-05 0 0.000336414)
(-0.000174341 0 0.000414423)
(-0.000186069 0 0.000504739)
(-0.000259504 0 0.000506367)
(-0.000310727 0 0.000479246)
(-0.000361886 0 0.000376664)
(-0.000349273 0 0.000250015)
(-0.000372574 0 0.000170913)
(-0.000390653 0 0.000117088)
(-0.00040809 0 4.80986e-05)
(-0.000415531 0 1.13795e-05)
(-0.000412077 0 -2.52506e-05)