0.010101 	-7.2041e-09 	-1.51078e-13 	-2.12392e-11
0.020202 	-8.57677e-10 	1.93556e-13 	-1.23819e-11
