/*--------------------------------*- C++ -*----------------------------------*\
  =========                 |
  \\      /  F ield         | OpenFOAM: The Open Source CFD Toolbox
   \\    /   O peration     | Website:  https://openfoam.org
    \\  /    A nd           | Version:  6
     \\/     M anipulation  |
\*---------------------------------------------------------------------------*/
FoamFile
{
    version     2.0;
    format      ascii;
    class       surfaceScalarField;
    location    "120";
    object      phi;
}
// * * * * * * * * * * * * * * * * * * * * * * * * * * * * * * * * * * * * * //

dimensions      [0 3 -1 0 0 0 0];

internalField   nonuniform List<scalar> 
150150
(
-2.5494e-23
-2.00377e-32
2.55069e-23
-5.10009e-23
-2.58494e-26
2.55392e-23
-7.66112e-23
-2.58494e-26
2.55909e-23
-1.02325e-22
-2.58494e-26
2.57072e-23
-1.28136e-22
-2.58494e-26
2.58559e-23
-1.54192e-22
2.00369e-32
2.60239e-23
-1.80422e-22
2.00365e-32
2.62307e-23
-2.06892e-22
-1.08591e-36
2.64827e-23
-2.33653e-22
1.55318e-38
2.67541e-23
-2.60724e-22
-3.20821e-37
2.70837e-23
-2.88169e-22
-1.55318e-38
2.74327e-23
-3.16022e-22
2.00342e-32
2.78398e-23
-3.44301e-22
1.55317e-38
2.82857e-23
-3.73065e-22
-5.16988e-26
2.87575e-23
-4.02359e-22
-2.58494e-26
2.92615e-23
-4.32196e-22
-2.00432e-32
2.98367e-23
-4.62627e-22
2.58494e-26
3.04248e-23
-4.93717e-22
-4.97607e-36
3.10645e-23
-5.25486e-22
2.58494e-26
3.17495e-23
-5.5796e-22
4.0069e-32
3.24798e-23
-5.9126e-22
2.00316e-32
3.32423e-23
-6.25297e-22
-2.58494e-26
3.40695e-23
-6.60259e-22
2.58494e-26
3.4929e-23
-6.96105e-22
2.58494e-26
3.58338e-23
-7.32883e-22
-7.23779e-46
3.67837e-23
-7.70668e-22
2.58494e-26
3.77595e-23
-8.09468e-22
-2.00295e-32
3.88e-23
-8.49373e-22
1.07215e-46
3.98792e-23
-8.9039e-22
2.00366e-32
4.09972e-23
-9.32569e-22
1.22251e-44
4.21539e-23
-9.75925e-22
-2.58494e-26
4.33495e-23
-1.02053e-21
-2.00569e-32
4.45902e-23
-1.06644e-21
-2.06565e-35
4.58762e-23
-1.11366e-21
-2.58494e-26
4.71881e-23
-1.16222e-21
2.58494e-26
4.85323e-23
-1.21218e-21
2.58494e-26
4.99217e-23
-1.26351e-21
-6.08081e-37
5.13305e-23
-1.31627e-21
-6.24715e-37
5.27457e-23
-1.37048e-21
-2.65498e-35
5.41868e-23
-1.4261e-21
2.58494e-26
5.56473e-23
-1.48318e-21
-6.60508e-37
5.70755e-23
-1.54172e-21
2.58494e-26
5.85166e-23
-1.6017e-21
2.58494e-26
5.99577e-23
-1.6631e-21
2.58494e-26
6.13794e-23
-1.72586e-21
2.58494e-26
6.27688e-23
-1.78997e-21
2.58494e-26
6.41195e-23
-1.85542e-21
-7.74886e-37
6.54055e-23
-1.92207e-21
4.00371e-32
6.66656e-23
-1.98989e-21
2.00363e-32
6.78224e-23
-2.05884e-21
-8.16096e-37
6.89016e-23
-2.12874e-21
2.00775e-32
6.99033e-23
-2.1995e-21
1.99537e-32
7.07757e-23
-2.27101e-21
-4.30833e-35
7.1493e-23
-2.34309e-21
5.16988e-26
7.21005e-23
-2.41562e-21
2.58494e-26
7.25141e-23
-2.4884e-21
-8.61444e-37
7.27338e-23
-2.56116e-21
2.00363e-32
7.27661e-23
-2.63378e-21
-2.01373e-32
7.25658e-23
-2.70589e-21
5.14598e-35
7.21263e-23
-2.77731e-21
-5.36887e-35
7.14025e-23
-2.84769e-21
-2.17672e-34
7.03621e-23
-2.91677e-21
-2.58494e-26
6.9005e-23
-2.98408e-21
2.58494e-26
6.73119e-23
-3.04932e-21
2.58494e-26
6.52375e-23
-3.11204e-21
-5.16988e-26
6.2743e-23
-3.17184e-21
-2.58494e-26
5.9822e-23
-3.22829e-21
1.99138e-32
5.64422e-23
-3.28089e-21
-2.58494e-26
5.25712e-23
-3.32911e-21
-2.58494e-26
4.82027e-23
-3.37249e-21
-1.29171e-34
4.33365e-23
-3.41042e-21
-2.58494e-26
3.79276e-23
-3.44239e-21
-3.6326e-37
3.19822e-23
-3.46791e-21
2.58494e-26
2.5494e-23
-3.48638e-21
2.58494e-26
1.845e-23
-3.49724e-21
2.58494e-26
1.08891e-23
-3.50004e-21
2.58494e-26
2.80466e-24
-3.49432e-21
2.58494e-26
-5.77088e-24
-3.47956e-21
1.90571e-37
-1.47729e-23
-3.45541e-21
2.58494e-26
-2.41692e-23
-3.42151e-21
4.01486e-37
-3.3908e-23
-3.37763e-21
1.3157e-34
-4.38923e-23
-3.32356e-21
-1.99073e-32
-5.40705e-23
-3.25923e-21
2.00379e-32
-6.43198e-23
-3.18467e-21
2.0038e-32
-7.45562e-23
-3.10001e-21
-2.00361e-32
-8.46568e-23
-3.0055e-21
-2.35362e-34
-9.45184e-23
-2.90153e-21
-2.00359e-32
-1.03999e-22
-2.78859e-21
-2.58494e-26
-1.12975e-22
-2.66731e-21
-5.16988e-26
-1.21285e-22
-2.53851e-21
-2.58494e-26
-1.28853e-22
-2.40304e-21
1.58949e-36
-1.35503e-22
-2.26184e-21
-8.82414e-35
-1.41164e-22
-2.11614e-21
-2.58494e-26
-1.45745e-22
-1.96705e-21
2.58494e-26
-1.49112e-22
-1.81585e-21
-2.58494e-26
-1.51213e-22
-1.66384e-21
-2.58494e-26
-1.52033e-22
-1.51235e-21
6.48095e-35
-1.51497e-22
-1.36272e-21
1.77229e-36
-1.49623e-22
-1.21631e-21
-9.76856e-35
-1.46456e-22
-1.07435e-21
-2.58494e-26
-1.41991e-22
-9.38036e-22
1.59948e-36
-1.36362e-22
-8.08453e-22
2.58494e-26
-1.2959e-22
-6.86619e-22
-8.64357e-35
-1.21854e-22
-5.73392e-22
-2.42864e-35
-1.13253e-22
-4.69496e-22
-4.02025e-35
-1.03953e-22
-3.75418e-22
-3.83168e-46
-9.40854e-23
-2.91568e-22
-2.00628e-32
-8.3862e-23
-2.18143e-22
-3.03571e-35
-7.34382e-23
-1.55174e-22
-2.00212e-32
-6.29886e-23
-1.02493e-22
-2.00315e-32
-5.26876e-23
-5.98285e-23
-2.00335e-32
-4.27162e-23
-2.66249e-23
3.70994e-36
-3.32165e-23
-2.27475e-24
-2.58494e-26
-2.43695e-23
1.40039e-23
-2.58494e-26
-1.6311e-23
2.31481e-23
9.26764e-38
-9.13777e-24
2.61338e-23
2.00381e-32
-3.00499e-24
2.41046e-23
2.58494e-26
2.01625e-24
1.82174e-23
2.58494e-26
5.85489e-24
9.76462e-24
2.58494e-26
8.4463e-24
2.03444e-37
9.76462e-24
-2.55004e-23
-3.83862e-39
2.55069e-23
-5.09944e-23
3.18005e-37
2.55457e-23
-7.66112e-23
1.20267e-44
2.55974e-23
-1.02325e-22
-2.58494e-26
2.57137e-23
-1.28123e-22
2.58494e-26
2.58494e-23
-1.54198e-22
-2.58494e-26
2.60239e-23
-1.80422e-22
2.00375e-32
2.62372e-23
-2.06886e-22
3.10635e-38
2.64827e-23
-2.33653e-22
-2.58494e-26
2.67606e-23
-2.6073e-22
-2.58494e-26
2.70837e-23
-2.88163e-22
-1.29138e-36
2.74521e-23
-3.16016e-22
-2.58494e-26
2.78334e-23
-3.44314e-22
1.57535e-36
2.82793e-23
-3.73065e-22
-3.56122e-37
2.87639e-23
-4.02353e-22
2.58494e-26
2.9268e-23
-4.32196e-22
2.58494e-26
2.98367e-23
-4.62633e-22
3.59089e-36
3.04248e-23
-4.93711e-22
3.67966e-37
3.10645e-23
-5.25486e-22
4.53492e-36
3.17431e-23
-5.57966e-22
-4.00698e-32
3.24798e-23
-5.91267e-22
-2.00269e-32
3.32359e-23
-6.25284e-22
2.58494e-26
3.4076e-23
-6.60265e-22
-2.58494e-26
3.4929e-23
-6.96105e-22
1.22226e-35
3.58338e-23
-7.32876e-22
-7.75482e-26
3.67708e-23
-7.70668e-22
-5.16988e-26
3.77531e-23
-8.09468e-22
-2.00304e-32
3.8787e-23
-8.49386e-22
2.58494e-26
3.98727e-23
-8.90383e-22
-2.00539e-32
4.09972e-23
-9.32576e-22
-2.00367e-32
4.21539e-23
-9.75925e-22
2.58494e-26
4.33559e-23
-1.02053e-21
2.00558e-32
4.46032e-23
-1.06644e-21
-2.58494e-26
4.58762e-23
-1.11365e-21
-5.4369e-37
4.71881e-23
-1.16222e-21
2.1374e-35
4.85323e-23
-1.2122e-21
2.58494e-26
4.99152e-23
-1.26351e-21
2.58494e-26
5.13369e-23
-1.31627e-21
-2.58494e-26
5.27457e-23
-1.37046e-21
-2.58494e-26
5.41804e-23
-1.42611e-21
-6.74644e-37
5.56473e-23
-1.48317e-21
2.58494e-26
5.7082e-23
-1.54172e-21
2.58494e-26
5.85231e-23
-1.6017e-21
-2.58494e-26
5.99642e-23
-1.66309e-21
2.00679e-32
6.13794e-23
-1.72586e-21
-3.34032e-35
6.27688e-23
-1.78999e-21
-2.00379e-32
6.4113e-23
-1.85542e-21
2.58494e-26
6.54184e-23
-1.92207e-21
7.20033e-35
6.66592e-23
-1.98989e-21
2.58494e-26
6.78353e-23
-2.05884e-21
-2.58494e-26
6.89016e-23
-2.12874e-21
1.34875e-44
6.99097e-23
-2.1995e-21
8.25862e-35
7.07757e-23
-2.271e-21
-5.16988e-26
7.1493e-23
-2.3431e-21
-2.58494e-26
7.21005e-23
-2.41563e-21
2.00362e-32
7.25076e-23
-2.4884e-21
-2.58494e-26
7.27338e-23
-2.56116e-21
-1.29839e-44
7.2779e-23
-2.63378e-21
-2.00371e-32
7.25593e-23
-2.70589e-21
1.99848e-32
7.21199e-23
-2.77731e-21
-5.28586e-35
7.14025e-23
-2.84769e-21
1.07586e-34
7.0375e-23
-2.91676e-21
-2.58494e-26
6.9005e-23
-2.98408e-21
-2.58494e-26
6.73183e-23
-3.04935e-21
-2.58494e-26
6.52245e-23
-3.11204e-21
2.58494e-26
6.27624e-23
-3.17183e-21
2.01568e-32
5.98349e-23
-3.2283e-21
-7.75482e-26
5.64357e-23
-3.28089e-21
-7.75482e-26
5.25777e-23
-3.32911e-21
-2.58494e-26
4.82092e-23
-3.3725e-21
-2.58494e-26
4.33236e-23
-3.41042e-21
-2.58494e-26
3.79276e-23
-3.44239e-21
2.58494e-26
3.19887e-23
-3.46791e-21
-1.97713e-32
2.5494e-23
-3.48639e-21
2.58494e-26
1.84565e-23
-3.49724e-21
5.16988e-26
1.08826e-23
-3.50004e-21
1.34803e-34
2.7982e-24
-3.49432e-21
-2.58494e-26
-5.77734e-24
-3.47956e-21
2.58494e-26
-1.47729e-23
-3.45541e-21
-2.58494e-26
-2.41821e-23
-3.42151e-21
2.65485e-34
-3.3908e-23
-3.37762e-21
-2.58494e-26
-4.38988e-23
-3.32356e-21
-2.58494e-26
-5.40705e-23
-3.25923e-21
-1.26118e-34
-6.43198e-23
-3.18467e-21
1.25954e-34
-7.45562e-23
-3.10002e-21
-2.58494e-26
-8.46568e-23
-3.0055e-21
-2.58494e-26
-9.45055e-23
-2.90154e-21
-2.58494e-26
-1.03999e-22
-2.78859e-21
-1.99261e-32
-1.12962e-22
-2.6673e-21
-2.00357e-32
-1.21279e-22
-2.5385e-21
1.52603e-36
-1.2884e-22
-2.40303e-21
2.02292e-32
-1.35503e-22
-2.26185e-21
1.81515e-34
-1.41151e-22
-2.11612e-21
1.71066e-36
-1.45739e-22
-1.96706e-21
-2.58494e-26
-1.49112e-22
-1.81585e-21
2.01118e-32
-1.51213e-22
-1.66383e-21
2.00389e-32
-1.52027e-22
-1.51235e-21
2.01613e-32
-1.51484e-22
-1.36273e-21
2.00943e-32
-1.49623e-22
-1.21632e-21
2.00886e-32
-1.4645e-22
-1.07435e-21
1.99471e-32
-1.41978e-22
-9.38024e-22
-5.16988e-26
-1.36343e-22
-8.0846e-22
2.0106e-32
-1.29596e-22
-6.86625e-22
-2.58494e-26
-1.21854e-22
-5.73385e-22
7.55263e-35
-1.13253e-22
-4.69496e-22
4.02018e-35
-1.03953e-22
-3.75424e-22
-2.58495e-26
-9.40854e-23
-2.91562e-22
-2.00115e-32
-8.38555e-23
-2.18156e-22
-2.58494e-26
-7.34317e-23
-1.55161e-22
-2.00451e-32
-6.29821e-23
-1.02499e-22
-2.00421e-32
-5.2694e-23
-5.98285e-23
-5.16988e-26
-4.27097e-23
-2.66314e-23
-5.16988e-26
-3.3223e-23
-2.27475e-24
-2.58494e-26
-2.43695e-23
1.40104e-23
-2.58494e-26
-1.63045e-23
2.31481e-23
1.23865e-37
-9.13777e-24
2.61467e-23
-2.58494e-26
-3.01146e-24
2.41046e-23
-2.58494e-26
2.00979e-24
1.82238e-23
-2.00389e-32
5.84843e-24
9.76462e-24
2.58494e-26
8.43983e-24
-2.0037e-32
9.75815e-24
-2.5494e-23
3.01888e-37
2.55069e-23
-5.10074e-23
5.16988e-26
2.55328e-23
-7.66177e-23
-2.00373e-32
2.56038e-23
-1.02306e-22
-2.58494e-26
2.57266e-23
-1.28155e-22
-2.58494e-26
2.58494e-23
-1.54172e-22
-2.00371e-32
2.60304e-23
-1.80429e-22
-2.58494e-26
2.62372e-23
-2.06899e-22
-5.16988e-26
2.64892e-23
-2.33653e-22
-4.11951e-37
2.67735e-23
-2.60724e-22
3.36353e-37
2.70902e-23
-2.88176e-22
-6.72216e-37
2.74456e-23
-3.16016e-22
-2.00382e-32
2.78463e-23
-3.44314e-22
-5.16988e-26
2.82857e-23
-3.73059e-22
5.18496e-36
2.87704e-23
-4.02353e-22
-2.58494e-26
2.92745e-23
-4.32202e-22
-2.00368e-32
2.98367e-23
-4.62627e-22
3.75933e-37
3.04312e-23
-4.93711e-22
-7.75482e-26
3.1071e-23
-5.25486e-22
-2.58494e-26
3.1756e-23
-5.57973e-22
-4.00787e-32
3.24798e-23
-5.91254e-22
-2.58494e-26
3.32423e-23
-6.25297e-22
-4.00797e-32
3.4076e-23
-6.60265e-22
-2.58494e-26
3.49355e-23
-6.96118e-22
-2.58494e-26
3.58338e-23
-7.32876e-22
-6.44994e-36
3.67773e-23
-7.70649e-22
7.69235e-36
3.7766e-23
-8.09461e-22
-1.47681e-35
3.87935e-23
-8.49392e-22
-5.16988e-26
3.98598e-23
-8.90383e-22
1.67665e-35
4.09907e-23
-9.32563e-22
-2.58494e-26
4.21604e-23
-9.75932e-22
2.00376e-32
4.33559e-23
-1.02054e-21
2.58494e-26
4.46096e-23
-1.06644e-21
2.58494e-26
4.58827e-23
-1.11365e-21
5.59264e-37
4.7201e-23
-1.1622e-21
5.59531e-37
4.85452e-23
-1.2122e-21
2.2883e-35
4.99217e-23
-1.26352e-21
5.92591e-37
5.13305e-23
-1.31627e-21
2.58494e-26
5.27457e-23
-1.37046e-21
2.58494e-26
5.41868e-23
-1.4261e-21
2.76255e-35
5.56603e-23
-1.48317e-21
2.00098e-32
5.70949e-23
-1.54173e-21
-2.58494e-26
5.85231e-23
-1.60169e-21
2.00075e-32
5.99642e-23
-1.66309e-21
2.58494e-26
6.13794e-23
-1.72586e-21
2.58494e-26
6.27688e-23
-1.78998e-21
7.59505e-37
6.41259e-23
-1.85543e-21
-2.00364e-32
6.54184e-23
-1.92207e-21
2.58494e-26
6.66721e-23
-1.98991e-21
3.85195e-35
6.78418e-23
-2.05883e-21
-2.58494e-26
6.89145e-23
-2.12874e-21
2.58494e-26
6.99162e-23
-2.19951e-21
5.16988e-26
7.07757e-23
-2.27099e-21
2.58494e-26
7.15124e-23
-2.3431e-21
2.58494e-26
7.21005e-23
-2.41563e-21
-2.00821e-32
7.25141e-23
-2.48839e-21
-2.00371e-32
7.27467e-23
-2.56117e-21
1.99885e-32
7.27661e-23
-2.63377e-21
2.01372e-32
7.25722e-23
-2.70589e-21
2.00371e-32
7.21263e-23
-2.77731e-21
2.58494e-26
7.1409e-23
-2.84769e-21
2.0038e-32
7.03815e-23
-2.91676e-21
5.16318e-45
6.90309e-23
-2.98406e-21
5.16988e-26
6.73248e-23
-3.04933e-21
1.17063e-34
6.52375e-23
-3.11204e-21
5.16988e-26
6.27624e-23
-3.17185e-21
5.16988e-26
5.98414e-23
-3.22831e-21
2.47389e-34
5.64422e-23
-3.28087e-21
1.26084e-34
5.25842e-23
-3.32911e-21
-2.58494e-26
4.82092e-23
-3.3725e-21
-5.16988e-26
4.33236e-23
-3.4104e-21
-2.58494e-26
3.79276e-23
-3.4424e-21
4.09771e-37
3.19757e-23
-3.46789e-21
2.58494e-26
2.54811e-23
-3.48638e-21
-1.99026e-32
1.84436e-23
-3.49726e-21
2.58494e-26
1.08761e-23
-3.50006e-21
-2.58494e-26
2.79174e-24
-3.4943e-21
-5.16988e-26
-5.77734e-24
-3.47957e-21
-2.58494e-26
-1.47859e-23
-3.45541e-21
2.58494e-26
-2.41692e-23
-3.42152e-21
2.58494e-26
-3.3908e-23
-3.37761e-21
2.58494e-26
-4.38858e-23
-3.32355e-21
-1.29803e-34
-5.40641e-23
-3.25923e-21
-2.58494e-26
-6.43198e-23
-3.18467e-21
1.9912e-32
-7.45562e-23
-3.10002e-21
-1.22137e-34
-8.46568e-23
-3.0055e-21
1.16546e-34
-9.4499e-23
-2.90154e-21
-2.31422e-34
-1.03992e-22
-2.78858e-21
-2.58494e-26
-1.12962e-22
-2.66731e-21
-2.58494e-26
-1.21285e-22
-2.53849e-21
2.58494e-26
-1.2884e-22
-2.40303e-21
2.58494e-26
-1.35496e-22
-2.26186e-21
2.58494e-26
-1.41164e-22
-2.11612e-21
2.58494e-26
-1.45733e-22
-1.96706e-21
-2.41404e-34
-1.49112e-22
-1.81585e-21
-2.24115e-34
-1.51206e-22
-1.66384e-21
-1.39557e-34
-1.52027e-22
-1.51235e-21
2.58494e-26
-1.51497e-22
-1.36273e-21
-1.71582e-34
-1.49629e-22
-1.21632e-21
1.99325e-32
-1.4645e-22
-1.07437e-21
-2.58494e-26
-1.41991e-22
-9.38011e-22
-2.58494e-26
-1.36323e-22
-8.0846e-22
-7.75482e-26
-1.2959e-22
-6.86612e-22
4.00454e-32
-1.21841e-22
-5.73385e-22
-2.58494e-26
-1.13259e-22
-4.69496e-22
-5.16988e-26
-1.0396e-22
-3.75418e-22
-2.58494e-26
-9.40983e-23
-2.91568e-22
9.77735e-37
-8.38555e-23
-2.18143e-22
-4.00948e-32
-7.34253e-23
-1.55161e-22
-5.16988e-26
-6.29756e-23
-1.02525e-22
-2.58494e-26
-5.26876e-23
-5.9822e-23
-2.58494e-26
-4.27097e-23
-2.66314e-23
-7.75482e-26
-3.32165e-23
-2.27475e-24
-5.16988e-26
-2.43631e-23
1.40233e-23
-1.75274e-37
-1.62981e-23
2.31481e-23
-5.16988e-26
-9.14423e-24
2.61402e-23
-2.58494e-26
-3.01146e-24
2.4111e-23
2.00371e-32
2.00979e-24
1.82303e-23
2.00364e-32
5.84843e-24
9.75815e-24
-1.55318e-38
8.43337e-24
-3.76158e-37
9.75815e-24
-2.54875e-23
-2.00368e-32
2.5494e-23
-5.10203e-23
-2.58494e-26
2.55263e-23
-7.66306e-23
5.29578e-37
2.56038e-23
-1.02306e-22
-2.00369e-32
2.57202e-23
-1.28142e-22
2.58494e-26
2.58494e-23
-1.54192e-22
-2.58494e-26
2.60174e-23
-1.80422e-22
2.95175e-37
2.62436e-23
-2.06892e-22
2.00385e-32
2.64956e-23
-2.33646e-22
2.58494e-26
2.67735e-23
-2.60717e-22
5.16988e-26
2.70902e-23
-2.88176e-22
2.58494e-26
2.74456e-23
-3.16028e-22
-7.95825e-37
2.78527e-23
-3.44301e-22
2.58494e-26
2.82922e-23
-3.73065e-22
2.58494e-26
2.87769e-23
-4.0234e-22
2.58494e-26
2.92809e-23
-4.32209e-22
-2.58494e-26
2.98367e-23
-4.62646e-22
-3.57527e-36
3.04377e-23
-4.93704e-22
2.58494e-26
3.10839e-23
-5.2548e-22
2.0033e-32
3.1756e-23
-5.57985e-22
3.84726e-37
3.24927e-23
-5.91247e-22
4.09369e-37
3.32488e-23
-6.25304e-22
6.26588e-36
3.40695e-23
-6.60252e-22
8.43331e-37
3.49419e-23
-6.96112e-22
-5.6711e-36
3.58402e-23
-7.32876e-22
2.58494e-26
3.67902e-23
-7.70649e-22
-6.79764e-36
3.7766e-23
-8.09481e-22
-5.16988e-26
3.87935e-23
-8.49373e-22
-2.58494e-26
3.98727e-23
-8.90396e-22
-7.42723e-36
4.09972e-23
-9.32563e-22
8.28451e-36
4.21669e-23
-9.75925e-22
2.58494e-26
4.33689e-23
-1.02054e-21
2.58494e-26
4.46096e-23
-1.06644e-21
2.00181e-32
4.58956e-23
-1.11364e-21
2.58494e-26
4.7214e-23
-1.16222e-21
2.58494e-26
4.85517e-23
-1.2122e-21
-2.58494e-26
4.99217e-23
-1.26352e-21
-2.3251e-35
5.1324e-23
-1.31626e-21
2.00377e-32
5.27457e-23
-1.37047e-21
2.65344e-35
5.41868e-23
-1.4261e-21
5.16988e-26
5.56538e-23
-1.48318e-21
2.58494e-26
5.70884e-23
-1.54172e-21
2.58494e-26
5.85231e-23
-1.60169e-21
3.10193e-35
5.99577e-23
-1.6631e-21
3.22056e-35
6.13665e-23
-1.72587e-21
-2.58494e-26
6.27688e-23
-1.78998e-21
-3.31077e-35
6.41259e-23
-1.85541e-21
-2.58494e-26
6.54313e-23
-1.92208e-21
2.58494e-26
6.66656e-23
-1.98991e-21
2.58494e-26
6.78418e-23
-2.05882e-21
8.16096e-37
6.8921e-23
-2.12874e-21
-3.95285e-35
6.99097e-23
-2.19951e-21
2.58494e-26
7.07757e-23
-2.27099e-21
5.16988e-26
7.15059e-23
-2.3431e-21
4.53056e-35
7.21005e-23
-2.41564e-21
9.25809e-35
7.25076e-23
-2.48839e-21
2.58494e-26
7.27532e-23
-2.56117e-21
-2.00354e-32
7.2779e-23
-2.63377e-21
1.99378e-32
7.25787e-23
-2.70589e-21
-1.99839e-32
7.21393e-23
-2.77731e-21
-1.56837e-34
7.1409e-23
-2.8477e-21
-2.01447e-32
7.03815e-23
-2.91674e-21
-2.02021e-32
6.90309e-23
-2.98408e-21
-2.58494e-26
6.73248e-23
-3.04933e-21
1.99224e-32
6.52375e-23
-3.11204e-21
5.16988e-26
6.27559e-23
-3.17187e-21
-1.19687e-34
5.98349e-23
-3.22831e-21
2.58494e-26
5.64422e-23
-3.28088e-21
2.58494e-26
5.25842e-23
-3.32911e-21
-2.58494e-26
4.82221e-23
-3.37249e-21
-2.01653e-32
4.33365e-23
-3.41039e-21
-1.30272e-34
3.7934e-23
-3.44239e-21
-1.31706e-34
3.19757e-23
-3.4679e-21
2.58494e-26
2.54746e-23
-3.48638e-21
2.00371e-32
1.84371e-23
-3.49728e-21
1.97679e-32
1.08697e-23
-3.50006e-21
-2.58494e-26
2.79174e-24
-3.4943e-21
2.00371e-32
-5.77088e-24
-3.47956e-21
-2.58494e-26
-1.47794e-23
-3.45541e-21
-1.34241e-34
-2.41692e-23
-3.42152e-21
1.99038e-32
-3.39015e-23
-3.37763e-21
2.58494e-26
-4.38988e-23
-3.32355e-21
2.58494e-26
-5.40641e-23
-3.25922e-21
5.16988e-26
-6.43133e-23
-3.18467e-21
5.16988e-26
-7.45562e-23
-3.10002e-21
2.58494e-26
-8.46568e-23
-3.0055e-21
1.08838e-36
-9.45055e-23
-2.90155e-21
-1.99233e-32
-1.03992e-22
-2.78858e-21
-2.19349e-34
-1.12955e-22
-2.6673e-21
-1.65498e-44
-1.21285e-22
-2.5385e-21
-2.58494e-26
-1.28846e-22
-2.40302e-21
1.99419e-32
-1.35509e-22
-2.26186e-21
2.58494e-26
-1.4117e-22
-2.11614e-21
2.58494e-26
-1.45733e-22
-1.96706e-21
2.58494e-26
-1.49119e-22
-1.81585e-21
-1.99642e-32
-1.51213e-22
-1.66383e-21
6.71006e-35
-1.52027e-22
-1.51236e-21
-6.122e-35
-1.51497e-22
-1.36274e-21
2.58494e-26
-1.49623e-22
-1.21631e-21
-2.00371e-32
-1.4645e-22
-1.07437e-21
-2.58494e-26
-1.41991e-22
-9.38024e-22
-1.4793e-44
-1.36343e-22
-8.0844e-22
-1.53481e-36
-1.29577e-22
-6.86625e-22
-2.58494e-26
-1.21854e-22
-5.73392e-22
-5.12403e-35
-1.13246e-22
-4.69496e-22
-2.58494e-26
-1.03947e-22
-3.75411e-22
1.40715e-35
-9.40919e-23
-2.91568e-22
-1.48265e-35
-8.38555e-23
-2.18156e-22
-2.13867e-35
-7.34123e-23
-1.55161e-22
2.58494e-26
-6.29627e-23
-1.02519e-22
-2.58494e-26
-5.26811e-23
-5.98414e-23
2.58494e-26
-4.27032e-23
-2.66184e-23
2.05926e-36
-3.32036e-23
-2.26182e-24
-4.10537e-47
-2.43631e-23
1.40104e-23
2.58494e-26
-1.62981e-23
2.31611e-23
2.58494e-26
-9.13131e-24
2.61467e-23
-3.56514e-38
-3.01146e-24
2.4111e-23
2.00362e-32
2.02272e-24
1.82303e-23
-2.58494e-26
5.85489e-24
9.75815e-24
-2.58494e-26
8.4463e-24
-2.00366e-32
9.75815e-24
-2.5494e-23
2.5494e-23
-5.10138e-23
2.55263e-23
-7.66306e-23
2.55974e-23
-1.02299e-22
2.57202e-23
-1.28155e-22
2.58494e-23
-1.54185e-22
2.60174e-23
-1.80416e-22
2.62436e-23
-2.06886e-22
2.64892e-23
-2.33653e-22
2.67671e-23
-2.60724e-22
2.70837e-23
-2.88182e-22
2.74392e-23
-3.16022e-22
2.78463e-23
-3.44301e-22
2.82857e-23
-3.73065e-22
2.87639e-23
-4.02359e-22
2.92809e-23
-4.32209e-22
2.98431e-23
-4.62633e-22
3.04506e-23
-4.93711e-22
3.10775e-23
-5.2548e-22
3.17689e-23
-5.57985e-22
3.24927e-23
-5.91247e-22
3.32553e-23
-6.2531e-22
3.40695e-23
-6.60252e-22
3.49355e-23
-6.96105e-22
3.58338e-23
-7.32876e-22
3.67773e-23
-7.70662e-22
3.77595e-23
-8.09474e-22
3.88e-23
-8.49373e-22
3.98727e-23
-8.90383e-22
4.09972e-23
-9.32563e-22
4.21604e-23
-9.75925e-22
4.33624e-23
-1.02055e-21
4.46096e-23
-1.06644e-21
4.58892e-23
-1.11364e-21
4.72075e-23
-1.16223e-21
4.85517e-23
-1.21218e-21
4.99152e-23
-1.26351e-21
5.13176e-23
-1.31627e-21
5.27522e-23
-1.37046e-21
5.41933e-23
-1.42609e-21
5.56409e-23
-1.48319e-21
5.7082e-23
-1.54173e-21
5.85231e-23
-1.60169e-21
5.99513e-23
-1.6631e-21
6.13665e-23
-1.72587e-21
6.27688e-23
-1.78998e-21
6.41259e-23
-1.85539e-21
6.54313e-23
-1.92208e-21
6.66527e-23
-1.98992e-21
6.78353e-23
-2.05882e-21
6.89145e-23
-2.12873e-21
6.98968e-23
-2.1995e-21
7.07563e-23
-2.27101e-21
7.14995e-23
-2.34309e-21
7.2094e-23
-2.41563e-21
7.25141e-23
-2.48841e-21
7.27467e-23
-2.56117e-21
7.2779e-23
-2.63377e-21
7.25787e-23
-2.70588e-21
7.21393e-23
-2.77731e-21
7.1409e-23
-2.8477e-21
7.03815e-23
-2.91674e-21
6.90309e-23
-2.98408e-21
6.73313e-23
-3.04931e-21
6.52375e-23
-3.11206e-21
6.2743e-23
-3.17186e-21
5.98349e-23
-3.2283e-21
5.64357e-23
-3.2809e-21
5.25777e-23
-3.32911e-21
4.82285e-23
-3.37248e-21
4.3343e-23
-3.41039e-21
3.7934e-23
-3.44238e-21
3.19757e-23
-3.46791e-21
2.54681e-23
-3.48637e-21
1.84436e-23
-3.49728e-21
1.08697e-23
-3.50006e-21
2.7982e-24
-3.4943e-21
-5.77088e-24
-3.47955e-21
-1.47794e-23
-3.4554e-21
-2.41692e-23
-3.42152e-21
-3.3908e-23
-3.37763e-21
-4.38988e-23
-3.32354e-21
-5.40641e-23
-3.25922e-21
-6.43198e-23
-3.18467e-21
-7.45626e-23
-3.10003e-21
-8.46633e-23
-3.0055e-21
-9.45119e-23
-2.90154e-21
-1.03999e-22
-2.78858e-21
-1.12962e-22
-2.6673e-21
-1.21285e-22
-2.5385e-21
-1.28846e-22
-2.40301e-21
-1.35516e-22
-2.26186e-21
-1.41177e-22
-2.11614e-21
-1.45739e-22
-1.96706e-21
-1.49119e-22
-1.81585e-21
-1.51219e-22
-1.66383e-21
-1.52027e-22
-1.51235e-21
-1.51497e-22
-1.36274e-21
-1.49623e-22
-1.21632e-21
-1.46456e-22
-1.07436e-21
-1.41991e-22
-9.38024e-22
-1.36336e-22
-8.08447e-22
-1.29577e-22
-6.86619e-22
-1.21841e-22
-5.73398e-22
-1.13246e-22
-4.6949e-22
-1.03947e-22
-3.75411e-22
-9.41048e-23
-2.91568e-22
-8.3862e-23
-2.1815e-22
-7.34188e-23
-1.55174e-22
-6.29692e-23
-1.02506e-22
-5.26876e-23
-5.98479e-23
-4.27097e-23
-2.6612e-23
-3.321e-23
-2.26182e-24
-2.43825e-23
1.40104e-23
-1.62981e-23
2.31546e-23
-9.13777e-24
2.61531e-23
-3.00499e-24
2.41046e-23
2.02918e-24
1.82238e-23
5.86135e-24
9.75815e-24
8.45922e-24
9.77108e-24
-2.48542e-23
8.58055e-37
5.03159e-23
-4.97407e-23
2.58494e-26
5.03999e-23
-7.46725e-23
-2.00371e-32
5.05356e-23
-9.97335e-23
2.58494e-26
5.07295e-23
-1.24917e-22
-2.58494e-26
5.10138e-23
-1.50301e-22
2.00374e-32
5.13692e-23
-1.75866e-22
2.58494e-26
5.17958e-23
-2.01684e-22
2.58494e-26
5.22869e-23
-2.27753e-22
9.36409e-37
5.28556e-23
-2.54158e-22
-2.13381e-37
5.34824e-23
-2.80886e-22
2.58494e-26
5.41998e-23
-3.08028e-22
-1.84852e-36
5.49752e-23
-3.35616e-22
-2.58494e-26
5.58347e-23
-3.63662e-22
1.55318e-38
5.67718e-23
-3.92194e-22
8.13567e-37
5.78251e-23
-4.21294e-22
2.58494e-26
5.89173e-23
-4.50949e-22
2.00256e-32
6.01064e-23
-4.81245e-22
2.58494e-26
6.1373e-23
-5.12226e-22
-2.58494e-26
6.27042e-23
-5.43891e-22
2.58494e-26
6.41518e-23
-5.76326e-22
-4.26892e-36
6.56704e-23
-6.09529e-22
2.58494e-26
6.72731e-23
-6.43605e-22
2.58494e-26
6.89792e-23
-6.78554e-22
1.27419e-35
7.07628e-23
-7.14439e-22
-2.58494e-26
7.26239e-23
-7.51255e-22
2.58494e-26
7.45885e-23
-7.89092e-22
-2.58494e-26
7.66306e-23
-8.28021e-22
-6.41972e-36
7.87567e-23
-8.68017e-22
-2.31218e-35
8.09862e-23
-9.09169e-22
-1.56599e-35
8.32933e-23
-9.51452e-22
-7.47259e-36
8.56973e-23
-9.94963e-22
2.58494e-26
8.8153e-23
-1.03976e-21
-1.80296e-35
9.06797e-23
-1.08584e-21
1.99978e-32
9.32776e-23
-1.13321e-21
2.58494e-26
9.59401e-23
-1.18198e-21
2.58494e-26
9.86543e-23
-1.23209e-21
2.58494e-26
1.01433e-22
-1.2836e-21
-2.42446e-35
1.04257e-22
-1.33652e-21
-2.58494e-26
1.07101e-22
-1.39089e-21
2.58494e-26
1.0997e-22
-1.44663e-21
1.99824e-32
1.12852e-22
-1.50382e-21
2.58494e-26
1.15715e-22
-1.56244e-21
5.16988e-26
1.18552e-22
-1.62244e-21
2.58494e-26
1.21357e-22
-1.68382e-21
2.58494e-26
1.24122e-22
-1.74652e-21
-3.30587e-35
1.26811e-22
-1.81051e-21
2.58494e-26
1.29402e-22
-1.87574e-21
-7.10501e-35
1.31871e-22
-1.94212e-21
5.16988e-26
1.3421e-22
-2.00956e-21
2.58494e-26
1.36356e-22
-2.07803e-21
2.00347e-32
1.38314e-22
-2.14737e-21
1.99964e-32
1.40052e-22
-2.2174e-21
2.09305e-45
1.41558e-22
-2.28809e-21
2.00372e-32
1.4274e-22
-2.3592e-21
-3.98018e-35
1.43606e-22
-2.43056e-21
-1.82115e-34
1.4411e-22
-2.50198e-21
2.58494e-26
1.44201e-22
-2.57326e-21
-2.58494e-26
1.43846e-22
-2.6441e-21
-5.16988e-26
1.42999e-22
-2.71432e-21
1.98306e-32
1.4159e-22
-2.78355e-21
5.16988e-26
1.39606e-22
-2.8515e-21
-2.01433e-32
1.36983e-22
-2.9178e-21
2.58494e-26
1.33654e-22
-2.98214e-21
-2.22914e-34
1.29551e-22
-3.04404e-21
2.18392e-36
1.24672e-22
-3.10311e-21
-1.164e-34
1.1894e-22
-3.15897e-21
-2.58494e-26
1.1227e-22
-3.21107e-21
-2.58494e-26
1.04684e-22
-3.25891e-21
-1.23052e-34
9.60887e-23
-3.30206e-21
-2.02885e-32
8.64598e-23
-3.33989e-21
1.29335e-34
7.5784e-23
-3.37193e-21
-4.00742e-32
6.40096e-23
-3.39763e-21
2.58494e-26
5.1156e-23
-3.41645e-21
5.16988e-26
3.72425e-23
-3.42782e-21
2.00371e-32
2.22499e-23
-3.43128e-21
-1.32101e-34
6.22971e-24
-3.42629e-21
1.99049e-32
-1.07598e-23
-3.41246e-21
2.01689e-32
-2.86282e-23
-3.38936e-21
-2.58494e-26
-4.7298e-23
-3.35662e-21
-2.58494e-26
-6.66527e-23
-3.31402e-21
-2.58494e-26
-8.65245e-23
-3.26132e-21
2.01657e-32
-1.06758e-22
-3.19847e-21
1.26725e-34
-1.27186e-22
-3.12545e-21
2.57004e-36
-1.47587e-22
-3.0424e-21
-2.58494e-26
-1.6773e-22
-2.94954e-21
2.58494e-26
-1.87402e-22
-2.84722e-21
-2.00335e-32
-2.06311e-22
-2.73596e-21
-1.99256e-32
-2.24211e-22
-2.6164e-21
1.0737e-34
-2.40865e-22
-2.48926e-21
1.02862e-34
-2.55974e-22
-2.35548e-21
9.80641e-35
-2.69319e-22
-2.216e-21
5.16988e-26
-2.8066e-22
-2.0719e-21
1.70334e-34
-2.89798e-22
-1.92444e-21
8.21843e-35
-2.9657e-22
-1.77486e-21
1.99658e-32
-3.00835e-22
-1.62441e-21
1.55317e-38
-3.02451e-22
-1.47452e-21
2.58494e-26
-3.01417e-22
-1.32644e-21
5.17502e-36
-2.97682e-22
-1.18156e-21
-4.32765e-35
-2.91336e-22
-1.04118e-21
1.99943e-32
-2.82437e-22
-9.0639e-22
2.58494e-26
-2.71115e-22
-7.78397e-22
3.24738e-35
-2.57609e-22
-6.58126e-22
-5.95878e-35
-2.42099e-22
-5.46515e-22
2.00061e-32
-2.24896e-22
-4.44196e-22
-2.62584e-35
-2.06259e-22
-3.51791e-22
1.20955e-35
-1.86555e-22
-2.69596e-22
-5.36883e-35
-1.66076e-22
-1.97845e-22
2.58494e-26
-1.45196e-22
-1.36543e-22
6.46021e-36
-1.24265e-22
-8.5581e-23
-2.58494e-26
-1.03669e-22
-4.45838e-23
5.16988e-26
-8.37069e-23
-1.31057e-23
-2.58494e-26
-6.47334e-23
9.53197e-24
-1.55318e-38
-4.70201e-23
2.41434e-23
-1.03276e-37
-3.08836e-23
3.15621e-23
2.00371e-32
-1.65824e-23
3.28546e-23
2.00394e-32
-4.30393e-24
2.91452e-23
-2.00371e-32
5.75796e-24
2.15778e-23
-2.58494e-26
1.34094e-23
1.14513e-23
-2.58494e-26
1.85793e-23
-1.2038e-44
2.11901e-23
-2.48477e-23
-1.17924e-38
5.03288e-23
-4.97407e-23
-2.58494e-26
5.03999e-23
-7.4666e-23
2.58494e-26
5.05291e-23
-9.97464e-23
2.58494e-26
5.0723e-23
-1.24898e-22
5.16988e-26
5.10203e-23
-1.50301e-22
-2.00357e-32
5.13628e-23
-1.75866e-22
-2.00362e-32
5.17958e-23
-2.0169e-22
-2.00362e-32
5.22869e-23
-2.27759e-22
2.00361e-32
5.28491e-23
-2.54145e-22
1.55318e-38
5.34954e-23
-2.80899e-22
2.00349e-32
5.41868e-23
-3.08035e-22
2.58494e-26
5.49817e-23
-3.35603e-22
2.0034e-32
5.58412e-23
-3.63669e-22
2.58494e-26
5.67782e-23
-3.92187e-22
5.16988e-26
5.78187e-23
-4.213e-22
2.58494e-26
5.89173e-23
-4.50943e-22
2.58494e-26
6.01064e-23
-4.81258e-22
2.58494e-26
6.13665e-23
-5.12219e-22
2.58494e-26
6.27171e-23
-5.43904e-22
2.58494e-26
6.41518e-23
-5.76313e-22
-2.00371e-32
6.56769e-23
-6.09523e-22
-2.002e-32
6.72796e-23
-6.43605e-22
-2.0025e-32
6.89792e-23
-6.78573e-22
-2.58494e-26
7.07692e-23
-7.1442e-22
-2.58494e-26
7.26239e-23
-7.51274e-22
-2.0023e-32
7.45756e-23
-7.89086e-22
4.00742e-32
7.66371e-23
-8.28021e-22
-2.58494e-26
7.87567e-23
-8.68017e-22
-2.58494e-26
8.09927e-23
-9.09163e-22
2.58494e-26
8.32997e-23
-9.51439e-22
2.58494e-26
8.56973e-23
-9.9497e-22
2.58494e-26
8.81465e-23
-1.03976e-21
-2.00175e-32
9.06797e-23
-1.08583e-21
2.58494e-26
9.32905e-23
-1.13321e-21
5.16988e-26
9.59401e-23
-1.18198e-21
2.58494e-26
9.86543e-23
-1.2321e-21
-2.00139e-32
1.01427e-22
-1.28362e-21
-5.16988e-26
1.04257e-22
-1.3365e-21
2.58494e-26
1.07107e-22
-1.3909e-21
5.16988e-26
1.0997e-22
-1.44663e-21
7.75482e-26
1.12852e-22
-1.50382e-21
2.00656e-32
1.15708e-22
-1.56244e-21
-5.70348e-35
1.18532e-22
-1.62244e-21
-3.07088e-35
1.21357e-22
-1.68382e-21
-4.32457e-36
1.24122e-22
-1.74652e-21
2.58494e-26
1.26804e-22
-1.81051e-21
2.58494e-26
1.29402e-22
-1.87572e-21
2.58494e-26
1.31877e-22
-1.94213e-21
2.00325e-32
1.34191e-22
-2.00956e-21
5.16988e-26
1.36356e-22
-2.07805e-21
2.58494e-26
1.3832e-22
-2.14737e-21
3.8282e-35
1.40065e-22
-2.21738e-21
2.58494e-26
1.41558e-22
-2.28809e-21
8.4355e-35
1.42734e-22
-2.3592e-21
2.58494e-26
1.43606e-22
-2.43055e-21
2.58494e-26
1.44117e-22
-2.50199e-21
-2.58494e-26
1.44201e-22
-2.57327e-21
2.58494e-26
1.43852e-22
-2.64409e-21
5.16988e-26
1.43012e-22
-2.71431e-21
5.16406e-35
1.41584e-22
-2.78356e-21
2.58494e-26
1.39593e-22
-2.85148e-21
7.75482e-26
1.36976e-22
-2.91782e-21
2.00371e-32
1.33648e-22
-2.98213e-21
2.58494e-26
1.29564e-22
-3.04403e-21
1.55318e-38
1.24678e-22
-3.10313e-21
2.58494e-26
1.18933e-22
-3.15896e-21
-2.00371e-32
1.1229e-22
-3.21105e-21
-3.99515e-32
1.04684e-22
-3.25892e-21
-5.16988e-26
9.60952e-23
-3.30205e-21
-2.58494e-26
8.64598e-23
-3.33989e-21
-2.58494e-26
7.57905e-23
-3.37193e-21
-2.19003e-36
6.40161e-23
-3.39763e-21
-2.58494e-26
5.1156e-23
-3.41646e-21
1.31354e-34
3.72425e-23
-3.42782e-21
-1.99056e-32
2.22563e-23
-3.43127e-21
-2.58494e-26
6.22971e-24
-3.4263e-21
-5.16988e-26
-1.07663e-23
-3.41247e-21
-2.58494e-26
-2.86282e-23
-3.38936e-21
2.58494e-26
-4.72915e-23
-3.35662e-21
2.00371e-32
-6.66527e-23
-3.31402e-21
-3.99441e-32
-8.65245e-23
-3.26132e-21
-2.58494e-26
-1.06758e-22
-3.19847e-21
-1.97881e-32
-1.27186e-22
-3.12545e-21
-1.55317e-38
-1.47587e-22
-3.04239e-21
-2.0156e-32
-1.67724e-22
-2.94955e-21
2.58494e-26
-1.87402e-22
-2.84723e-21
2.58494e-26
-2.06311e-22
-2.73596e-21
-2.58494e-26
-2.24218e-22
-2.61639e-21
-5.16988e-26
-2.40865e-22
-2.48927e-21
-2.58494e-26
-2.55967e-22
-2.35546e-21
4.0079e-32
-2.69312e-22
-2.21601e-21
-2.58494e-26
-2.80666e-22
-2.0719e-21
5.16988e-26
-2.89791e-22
-1.92445e-21
-5.16988e-26
-2.9657e-22
-1.77486e-21
8.1747e-35
-3.00829e-22
-1.62441e-21
7.07627e-35
-3.02451e-22
-1.47452e-21
-2.00969e-32
-3.01424e-22
-1.32644e-21
5.14412e-36
-2.97675e-22
-1.18156e-21
-2.58494e-26
-2.91329e-22
-1.04118e-21
-2.58494e-26
-2.82431e-22
-9.06403e-22
2.58494e-26
-2.71135e-22
-7.7839e-22
2.58494e-26
-2.57615e-22
-6.58133e-22
2.58494e-26
-2.42106e-22
-5.46508e-22