/*--------------------------------*- C++ -*----------------------------------*\
  =========                 |
  \\      /  F ield         | OpenFOAM: The Open Source CFD Toolbox
   \\    /   O peration     | Website:  https://openfoam.org
    \\  /    A nd           | Version:  6
     \\/     M anipulation  |
\*---------------------------------------------------------------------------*/
FoamFile
{
    version     2.0;
    format      ascii;
    class       volVectorField;
    location    "120";
    object      U;
}
// * * * * * * * * * * * * * * * * * * * * * * * * * * * * * * * * * * * * * //

dimensions      [0 1 -1 0 0 0 0];

internalField   nonuniform List<vector> 
54000
(
(-6.91441e-17 -3.26075e-26 8.5023e-17)
(-2.07467e-16 -4.20649e-20 8.51307e-17)
(-3.46106e-16 -4.20648e-20 8.53031e-17)
(-4.85306e-16 -4.20648e-20 8.56908e-17)
(-6.25049e-16 -4.20649e-20 8.61863e-17)
(-7.65721e-16 3.26061e-26 8.67463e-17)
(-9.07532e-16 3.26055e-26 8.74356e-17)
(-1.05047e-15 -1.7671e-30 8.82758e-17)
(-1.19484e-15 2.52749e-32 8.91805e-17)
(-1.34084e-15 -5.22074e-31 9.02791e-17)
(-1.48869e-15 -2.52749e-32 9.14423e-17)
(-1.63867e-15 3.26018e-26 9.27994e-17)
(-1.79091e-15 2.52749e-32 9.42857e-17)
(-1.94562e-15 -8.41297e-20 9.58582e-17)
(-2.10309e-15 -4.20648e-20 9.75385e-17)
(-2.26346e-15 -3.26163e-26 9.94556e-17)
(-2.42692e-15 4.20648e-20 1.01416e-16)
(-2.59377e-15 -8.09758e-30 1.03548e-16)
(-2.76426e-15 4.20648e-20 1.05832e-16)
(-2.93849e-15 6.52045e-26 1.08266e-16)
(-3.11688e-15 3.25975e-26 1.10808e-16)
(-3.29952e-15 -4.20648e-20 1.13565e-16)
(-3.48665e-15 4.20648e-20 1.1643e-16)
(-3.6787e-15 4.20649e-20 1.19446e-16)
(-3.87566e-15 8.60605e-41 1.22612e-16)
(-4.07789e-15 4.20648e-20 1.25865e-16)
(-4.2856e-15 -3.25941e-26 1.29333e-16)
(-4.49907e-15 1.86074e-39 1.32931e-16)
(-4.71854e-15 3.26057e-26 1.36657e-16)
(-4.94418e-15 2.29043e-38 1.40513e-16)
(-5.17617e-15 -4.20649e-20 1.44498e-16)
(-5.41475e-15 -3.26387e-26 1.48634e-16)
(-5.66023e-15 -3.36144e-29 1.52921e-16)
(-5.91281e-15 -4.20648e-20 1.57294e-16)
(-6.1726e-15 4.20648e-20 1.61774e-16)
(-6.4398e-15 4.20649e-20 1.66406e-16)
(-6.7145e-15 -9.89533e-31 1.71102e-16)
(-6.99681e-15 -1.0166e-30 1.75819e-16)
(-7.28693e-15 -4.32046e-29 1.80623e-16)
(-7.58481e-15 4.20649e-20 1.85491e-16)
(-7.89048e-15 -1.07485e-30 1.90252e-16)
(-8.20405e-15 4.20649e-20 1.95055e-16)
(-8.5255e-15 4.20648e-20 1.99859e-16)
(-8.85471e-15 4.20649e-20 2.04598e-16)
(-9.19146e-15 4.20649e-20 2.09229e-16)
(-9.53555e-15 4.20649e-20 2.13732e-16)
(-9.88693e-15 -1.26098e-30 2.18018e-16)
(-1.02452e-14 6.51525e-26 2.22219e-16)
(-1.06099e-14 3.26052e-26 2.26075e-16)
(-1.09809e-14 -1.32804e-30 2.29672e-16)
(-1.13574e-14 3.26722e-26 2.33011e-16)
(-1.17389e-14 3.24708e-26 2.35919e-16)
(-1.21248e-14 -7.01097e-29 2.3831e-16)
(-1.25143e-14 8.41297e-20 2.40335e-16)
(-1.29065e-14 4.20649e-20 2.41714e-16)
(-1.33006e-14 -1.40183e-30 2.42446e-16)
(-1.36953e-14 3.26051e-26 2.42554e-16)
(-1.40896e-14 -3.27694e-26 2.41886e-16)
(-1.44821e-14 8.37407e-29 2.40421e-16)
(-1.48714e-14 -8.73679e-29 2.38008e-16)
(-1.5256e-14 -3.54218e-28 2.3454e-16)
(-1.56342e-14 -4.20648e-20 2.30017e-16)
(-1.60041e-14 4.20648e-20 2.24373e-16)
(-1.63636e-14 4.20648e-20 2.17458e-16)
(-1.67107e-14 -8.41297e-20 2.09143e-16)
(-1.7043e-14 -4.20649e-20 1.99407e-16)
(-1.73583e-14 3.24058e-26 1.88141e-16)
(-1.7654e-14 -4.20648e-20 1.75237e-16)
(-1.79275e-14 -4.20649e-20 1.60676e-16)
(-1.81759e-14 -2.102e-28 1.44455e-16)
(-1.83964e-14 -4.20648e-20 1.26425e-16)
(-1.8586e-14 -5.91134e-31 1.06607e-16)
(-1.87419e-14 4.20648e-20 8.498e-17)
(-1.88612e-14 4.20649e-20 6.15001e-17)
(-1.89408e-14 4.20649e-20 3.62969e-17)
(-1.89779e-14 4.20648e-20 9.34887e-18)
(-1.89699e-14 4.20648e-20 -1.92363e-17)
(-1.89144e-14 3.10117e-31 -4.92431e-17)
(-1.88089e-14 4.20648e-20 -8.0564e-17)
(-1.86514e-14 6.5334e-31 -1.13027e-16)
(-1.84404e-14 2.14104e-28 -1.46308e-16)
(-1.81748e-14 -3.23953e-26 -1.80235e-16)
(-1.78537e-14 3.26078e-26 -2.14399e-16)
(-1.7477e-14 3.2608e-26 -2.48521e-16)
(-1.70452e-14 -3.26049e-26 -2.82189e-16)
(-1.65592e-14 -3.83006e-28 -3.15061e-16)
(-1.60209e-14 -3.26045e-26 -3.46662e-16)
(-1.54326e-14 -4.20648e-20 -3.76583e-16)
(-1.47974e-14 -8.41297e-20 -4.04285e-16)
(-1.41191e-14 -4.20649e-20 -4.2951e-16)
(-1.34023e-14 2.58659e-30 -4.51675e-16)
(-1.2652e-14 -1.43596e-28 -4.70546e-16)
(-1.18738e-14 -4.20648e-20 -4.85818e-16)
(-1.10743e-14 4.20648e-20 -4.97041e-16)
(-1.02599e-14 -4.20649e-20 -5.04042e-16)
(-9.43752e-15 -4.20649e-20 -5.06778e-16)
(-8.61438e-15 1.05465e-28 -5.0499e-16)
(-7.79769e-15 2.88406e-30 -4.98743e-16)
(-6.99478e-15 -1.58964e-28 -4.88188e-16)
(-6.21268e-15 -4.20648e-20 -4.73303e-16)
(-5.45795e-15 2.60285e-30 -4.5454e-16)
(-4.73679e-15 4.20648e-20 -4.31965e-16)
(-4.0549e-15 -1.40657e-28 -4.0618e-16)
(-3.41737e-15 -3.95214e-29 -3.77509e-16)
(-2.82849e-15 -6.54216e-29 -3.46511e-16)
(-2.29155e-15 1.5251e-39 -3.13618e-16)
(-1.80898e-15 -3.26483e-26 -2.7954e-16)
(-1.38243e-15 -4.94003e-29 -2.44794e-16)
(-1.0125e-15 -3.25807e-26 -2.09962e-16)
(-6.98838e-16 -3.25974e-26 -1.75625e-16)
(-4.40244e-16 -3.26006e-26 -1.42387e-16)
(-2.34477e-16 6.0372e-30 -1.10722e-16)
(-7.83809e-17 -4.20648e-20 -8.12318e-17)
(3.18116e-17 -4.20648e-20 -5.43699e-17)
(1.00763e-16 1.50813e-31 -3.04592e-17)
(1.33661e-16 3.26081e-26 -1.00166e-17)
(1.36255e-16 4.20649e-20 6.72085e-18)
(1.14785e-16 4.20649e-20 1.95163e-17)
(7.5892e-17 4.20648e-20 2.81543e-17)
(2.64833e-17 3.31065e-31 3.25487e-17)
(-6.91617e-17 -3.26075e-26 8.5023e-17)
(-2.07467e-16 -4.20649e-20 8.51523e-17)
(-3.46089e-16 -4.20648e-20 8.53246e-17)
(-4.85306e-16 -8.41297e-20 8.57124e-17)
(-6.25014e-16 2.92835e-32 8.61647e-17)
(-7.65703e-16 -4.20648e-20 8.67463e-17)
(-9.0755e-16 6.52126e-26 8.74572e-17)
(-1.05045e-15 -1.71655e-30 8.82758e-17)
(-1.19482e-15 -4.20649e-20 8.9202e-17)
(-1.34085e-15 -4.20648e-20 9.02791e-17)
(-1.48869e-15 -2.12675e-30 9.15069e-17)
(-1.63864e-15 -4.20649e-20 9.27779e-17)
(-1.79093e-15 2.58884e-30 9.42642e-17)
(-1.94566e-15 -8.41297e-20 9.58798e-17)
(-2.10307e-15 -3.26071e-26 9.756e-17)
(-2.26344e-15 4.20648e-20 9.94556e-17)
(-2.42693e-15 4.20648e-20 1.01416e-16)
(-2.59377e-15 -7.49879e-30 1.03548e-16)
(-2.76424e-15 4.20648e-20 1.0581e-16)
(-2.93851e-15 -1.22625e-30 1.08266e-16)
(-3.11692e-15 7.70476e-30 1.10786e-16)
(-3.2995e-15 8.88294e-30 1.13587e-16)
(-3.48663e-15 2.88695e-29 1.1643e-16)
(-3.67871e-15 4.20649e-20 1.19446e-16)
(-3.87565e-15 -1.26195e-19 1.22569e-16)
(-4.07787e-15 -4.20649e-20 1.25844e-16)
(-4.2856e-15 -6.51897e-26 1.2929e-16)
(-4.4991e-15 4.20648e-20 1.32909e-16)
(-4.71856e-15 -2.80996e-29 1.36657e-16)
(-4.94418e-15 -3.26057e-26 1.40513e-16)
(-5.17619e-15 -3.26082e-26 1.4452e-16)
(-5.41475e-15 -1.71939e-30 1.48677e-16)
(-5.66025e-15 -4.20649e-20 1.52921e-16)
(-5.9128e-15 -4.20648e-20 1.57294e-16)
(-6.17255e-15 4.20648e-20 1.61774e-16)
(-6.43983e-15 8.41297e-20 1.66384e-16)
(-6.71455e-15 4.20648e-20 1.71123e-16)
(-6.99679e-15 -4.20649e-20 1.75819e-16)
(-7.28688e-15 -4.20649e-20 1.80601e-16)
(-7.58479e-15 4.20649e-20 1.85491e-16)
(-7.89048e-15 4.20648e-20 1.90273e-16)
(-8.20404e-15 8.41297e-20 1.95077e-16)
(-8.5255e-15 -3.26558e-26 1.99881e-16)
(-8.85469e-15 4.20649e-20 2.04598e-16)
(-9.19144e-15 4.20649e-20 2.09229e-16)
(-9.5356e-15 4.20648e-20 2.1371e-16)
(-9.88698e-15 4.20649e-20 2.18061e-16)
(-1.02452e-14 6.52697e-26 2.22197e-16)
(-1.06099e-14 4.20649e-20 2.26118e-16)
(-1.09809e-14 -4.20648e-20 2.29672e-16)
(-1.13574e-14 3.26722e-26 2.33032e-16)
(-1.17389e-14 3.26052e-26 2.35919e-16)
(-1.21248e-14 -8.41297e-20 2.3831e-16)
(-1.25142e-14 4.20648e-20 2.40335e-16)
(-1.29065e-14 4.20649e-20 2.41692e-16)
(-1.33006e-14 -4.20648e-20 2.42446e-16)
(-1.36953e-14 3.26051e-26 2.42597e-16)
(-1.40896e-14 -6.5376e-26 2.41864e-16)
(-1.44821e-14 3.26051e-26 2.404e-16)
(-1.48714e-14 -1.73385e-28 2.38008e-16)
(-1.5256e-14 -1.79144e-28 2.34583e-16)
(-1.56342e-14 -8.41297e-20 2.30017e-16)
(-1.60041e-14 -3.27942e-26 2.24394e-16)
(-1.63637e-14 -6.54048e-26 2.17415e-16)
(-1.67107e-14 -4.20649e-20 2.09208e-16)
(-1.70429e-14 -4.20649e-20 1.9945e-16)
(-1.73583e-14 -1.26195e-19 1.88119e-16)
(-1.76541e-14 -1.68259e-19 1.75259e-16)
(-1.79275e-14 -8.41298e-20 1.60697e-16)
(-1.81759e-14 -4.20649e-20 1.44412e-16)
(-1.83964e-14 -8.41298e-20 1.26425e-16)
(-1.8586e-14 4.20648e-20 1.06629e-16)
(-1.87419e-14 4.20648e-20 8.498e-17)
(-1.88613e-14 8.41298e-20 6.15216e-17)
(-1.89408e-14 1.26195e-19 3.62753e-17)
(-1.89779e-14 4.20648e-20 9.32733e-18)
(-1.89699e-14 -3.28258e-26 -1.92578e-17)
(-1.89144e-14 4.20648e-20 -4.92431e-17)
(-1.88089e-14 9.06582e-31 -8.06071e-17)
(-1.86514e-14 4.32678e-28 -1.13027e-16)
(-1.84404e-14 -4.20649e-20 -1.46329e-16)
(-1.81748e-14 -4.20649e-20 -1.80235e-16)
(-1.78537e-14 3.24025e-26 -2.14399e-16)
(-1.7477e-14 3.28129e-26 -2.48521e-16)
(-1.70452e-14 -4.20649e-20 -2.82189e-16)
(-1.65592e-14 -4.20648e-20 -3.15018e-16)
(-1.60209e-14 -4.20648e-20 -3.46662e-16)
(-1.54326e-14 -4.20649e-20 -3.7654e-16)
(-1.47973e-14 -8.41297e-20 -4.04263e-16)
(-1.41191e-14 -4.20649e-20 -4.29466e-16)
(-1.34023e-14 3.29217e-26 -4.51675e-16)
(-1.2652e-14 1.51784e-28 -4.70502e-16)
(-1.18738e-14 -4.20648e-20 -4.85797e-16)
(-1.10743e-14 2.61891e-28 -4.97041e-16)
(-1.02599e-14 -4.20648e-20 -5.04042e-16)
(-9.4375e-15 -4.20648e-20 -5.06756e-16)
(-8.61436e-15 3.29141e-26 -5.04947e-16)
(-7.79772e-15 3.27024e-26 -4.98743e-16)
(-6.99483e-15 3.25312e-26 -4.88166e-16)
(-6.2127e-15 -4.20648e-20 -4.7326e-16)
(-5.45792e-15 -8.41297e-20 -4.54476e-16)
(-4.73677e-15 4.20649e-20 -4.31987e-16)
(-4.05493e-15 -4.20648e-20 -4.0618e-16)
(-3.41737e-15 8.33829e-29 -3.77509e-16)
(-2.82848e-15 -1.08822e-33 -3.46511e-16)
(-2.29157e-15 -4.20649e-20 -3.13618e-16)
(-1.80898e-15 -6.52131e-26 -2.79518e-16)
(-1.38244e-15 -4.20649e-20 -2.44772e-16)
(-1.0125e-15 -6.52001e-26 -2.0994e-16)
(-6.9882e-16 -6.5212e-26 -1.75647e-16)
(-4.40262e-16 -8.41297e-20 -1.42366e-16)
(-2.34494e-16 -8.41297e-20 -1.10743e-16)
(-7.83984e-17 -8.41297e-20 -8.12318e-17)
(3.18291e-17 -8.41297e-20 -5.43484e-17)
(1.0078e-16 3.52379e-31 -3.04592e-17)
(1.33696e-16 -4.20648e-20 -1.00382e-17)
(1.3629e-16 -3.80173e-32 6.69931e-18)
(1.14802e-16 4.20648e-20 1.94948e-17)
(7.59096e-17 8.41297e-20 2.81328e-17)
(2.64833e-17 -3.26059e-26 3.25272e-17)
(-6.91441e-17 4.85017e-31 8.5023e-17)
(-2.07485e-16 8.41297e-20 8.51092e-17)
(-3.46141e-16 -3.26068e-26 8.53462e-17)
(-4.85271e-16 -8.41298e-20 8.57554e-17)
(-6.25049e-16 -3.8004e-31 8.61647e-17)
(-7.65721e-16 -4.20649e-20 8.67679e-17)
(-9.07497e-16 -4.20648e-20 8.74572e-17)
(-1.0505e-15 -8.41298e-20 8.82973e-17)
(-1.19485e-15 -4.20649e-20 8.92451e-17)
(-1.34084e-15 -4.20648e-20 9.03006e-17)
(-1.48871e-15 -3.19537e-30 9.14854e-17)
(-1.63867e-15 -4.20649e-20 9.28209e-17)
(-1.79093e-15 -8.41297e-20 9.42857e-17)
(-1.94564e-15 7.858e-30 9.59013e-17)
(-2.10305e-15 -3.2609e-26 9.75815e-17)
(-2.26346e-15 4.20648e-20 9.94556e-17)
(-2.42693e-15 6.45523e-30 1.01437e-16)
(-2.59376e-15 -1.26195e-19 1.0357e-16)
(-2.76424e-15 -4.20649e-20 1.05853e-16)
(-2.93853e-15 -1.30426e-25 1.08266e-16)
(-3.1169e-15 -4.20649e-20 1.10808e-16)
(-3.2995e-15 4.20648e-20 1.13587e-16)
(-3.48667e-15 -8.41297e-20 1.16452e-16)
(-3.67875e-15 -4.20648e-20 1.19446e-16)
(-3.87568e-15 -1.26195e-19 1.22591e-16)
(-4.07782e-15 -8.41298e-20 1.25887e-16)
(-4.28553e-15 -3.26197e-26 1.29312e-16)
(-4.4991e-15 -4.20648e-20 1.32866e-16)
(-4.71857e-15 -3.26065e-26 1.36636e-16)
(-4.94415e-15 -4.20649e-20 1.40535e-16)
(-5.17617e-15 4.20649e-20 1.4452e-16)
(-5.41478e-15 4.20649e-20 1.48699e-16)
(-5.66025e-15 -3.25738e-26 1.52942e-16)
(-5.91278e-15 2.53429e-32 1.57337e-16)
(-6.17251e-15 3.56925e-29 1.61817e-16)
(-6.4398e-15 4.20648e-20 1.66406e-16)
(-6.71459e-15 4.20648e-20 1.71102e-16)
(-6.99684e-15 1.92563e-34 1.75819e-16)
(-7.28688e-15 2.54867e-32 1.80623e-16)
(-7.58475e-15 4.38572e-29 1.85534e-16)
(-7.89046e-15 4.20649e-20 1.90316e-16)
(-8.20407e-15 -4.74385e-29 1.95077e-16)
(-8.52552e-15 -4.20648e-20 1.99881e-16)
(-8.85467e-15 4.20649e-20 2.04598e-16)
(-9.19144e-15 4.20648e-20 2.09229e-16)
(-9.53558e-15 -3.26065e-26 2.13753e-16)
(-9.88698e-15 4.20648e-20 2.18061e-16)
(-1.02452e-14 4.20648e-20 2.2224e-16)
(-1.061e-14 4.20648e-20 2.26139e-16)
(-1.09809e-14 -8.41296e-20 2.29715e-16)
(-1.13574e-14 4.20649e-20 2.33054e-16)
(-1.1739e-14 8.41297e-20 2.35919e-16)
(-1.21248e-14 -4.20648e-20 2.38375e-16)
(-1.25142e-14 3.24618e-26 2.40335e-16)
(-1.29065e-14 -7.4655e-29 2.41714e-16)
(-1.33006e-14 -4.20649e-20 2.42489e-16)
(-1.36953e-14 3.25273e-26 2.42554e-16)
(-1.40896e-14 1.62917e-28 2.41907e-16)
(-1.44821e-14 6.51278e-26 2.40421e-16)
(-1.48714e-14 4.20649e-20 2.3803e-16)
(-1.5256e-14 3.2783e-26 2.34605e-16)
(-1.56342e-14 -4.20649e-20 2.30103e-16)
(-1.60041e-14 4.20648e-20 2.24416e-16)
(-1.63636e-14 -4.20649e-20 2.17458e-16)
(-1.67107e-14 1.26194e-19 2.09208e-16)
(-1.7043e-14 8.41297e-20 1.99471e-16)
(-1.73583e-14 -1.26195e-19 1.88141e-16)
(-1.7654e-14 -1.26195e-19 1.75281e-16)
(-1.79274e-14 -8.41298e-20 1.60697e-16)
(-1.81759e-14 -1.26195e-19 1.44412e-16)
(-1.83964e-14 -8.41298e-20 1.26425e-16)
(-1.8586e-14 4.20648e-20 1.06586e-16)
(-1.87419e-14 4.20648e-20 8.49369e-17)
(-1.88612e-14 4.20648e-20 6.14785e-17)
(-1.89409e-14 1.26195e-19 3.62538e-17)
(-1.89779e-14 -4.20648e-20 9.30579e-18)
(-1.89699e-14 -1.26195e-19 -1.92578e-17)
(-1.89144e-14 -3.21688e-26 -4.92862e-17)
(-1.88089e-14 3.2607e-26 -8.0564e-17)
(-1.86514e-14 4.20649e-20 -1.13027e-16)
(-1.84404e-14 -6.47857e-26 -1.46286e-16)
(-1.81747e-14 -4.20649e-20 -1.80214e-16)
(-1.78536e-14 -4.20648e-20 -2.14399e-16)
(-1.7477e-14 3.26079e-26 -2.48521e-16)
(-1.70452e-14 -4.20649e-20 -2.82189e-16)
(-1.65592e-14 -4.20648e-20 -3.14997e-16)
(-1.60209e-14 -4.20648e-20 -3.46641e-16)
(-1.54326e-14 -4.20649e-20 -3.7654e-16)
(-1.47973e-14 -4.20649e-20 -4.04285e-16)
(-1.4119e-14 4.20648e-20 -4.29466e-16)
(-1.34023e-14 4.20648e-20 -4.51654e-16)
(-1.2652e-14 4.20649e-20 -4.70546e-16)
(-1.18738e-14 4.20648e-20 -4.85775e-16)
(-1.10743e-14 -4.20648e-20 -4.97041e-16)
(-1.02599e-14 3.23634e-26 -5.0402e-16)
(-9.43752e-15 3.23823e-26 -5.06756e-16)
(-8.61438e-15 4.20649e-20 -5.0499e-16)
(-7.79772e-15 3.24203e-26 -4.98764e-16)
(-6.99483e-15 6.51265e-26 -4.88166e-16)
(-6.21275e-15 -4.20648e-20 -4.73303e-16)
(-5.45794e-15 -1.26195e-19 -4.54411e-16)
(-4.73673e-15 -1.26195e-19 -4.31965e-16)
(-4.0549e-15 -4.20648e-20 -4.06137e-16)
(-3.41733e-15 -4.20648e-20 -3.77531e-16)
(-2.82848e-15 -8.41297e-20 -3.46533e-16)
(-2.29155e-15 -8.41298e-20 -3.13661e-16)
(-1.80898e-15 -3.25632e-26 -2.79518e-16)
(-1.38243e-15 -4.20649e-20 -2.44751e-16)
(-1.01247e-15 -8.41297e-20 -2.09919e-16)
(-6.9889e-16 -4.20648e-20 -1.75625e-16)
(-4.40314e-16 -1.26195e-19 -1.42366e-16)
(-2.34477e-16 -2.10324e-19 -1.10722e-16)
(-7.83984e-17 -1.26195e-19 -8.12102e-17)
(3.18641e-17 -4.20648e-20 -5.43269e-17)
(1.00815e-16 -8.41297e-20 -3.04808e-17)
(1.33679e-16 -8.41297e-20 -1.00382e-17)
(1.3629e-16 -4.20648e-20 6.69931e-18)
(1.14837e-16 -4.03548e-30 1.94948e-17)
(7.59096e-17 4.20648e-20 2.81112e-17)
(2.64658e-17 -3.26068e-26 3.25272e-17)
(-6.91266e-17 -3.26055e-26 8.498e-17)
(-2.07503e-16 4.20648e-20 8.50877e-17)
(-3.46211e-16 -3.26059e-26 8.53462e-17)
(-4.85306e-16 -4.20649e-20 8.57339e-17)
(-6.25014e-16 -3.2606e-26 8.61647e-17)
(-7.65739e-16 -4.20649e-20 8.67248e-17)
(-9.07532e-16 -4.20649e-20 8.74787e-17)
(-1.05047e-15 -8.41297e-20 8.83188e-17)
(-1.19482e-15 4.20649e-20 8.92451e-17)
(-1.3408e-15 8.41297e-20 9.03006e-17)
(-1.48869e-15 4.20648e-20 9.14854e-17)
(-1.63871e-15 -3.26096e-26 9.28425e-17)
(-1.79093e-15 -4.20649e-20 9.43073e-17)
(-1.94562e-15 4.20648e-20 9.59229e-17)
(-2.10303e-15 -2.52663e-30 9.76031e-17)
(-2.26344e-15 -4.20649e-20 9.94556e-17)
(-2.427e-15 -5.2063e-30 1.01459e-16)
(-2.59379e-15 -8.41297e-20 1.03613e-16)
(-2.76421e-15 -4.20649e-20 1.05853e-16)
(-2.93855e-15 -6.52196e-26 1.08309e-16)
(-3.11692e-15 -4.20649e-20 1.10829e-16)
(-3.2995e-15 -6.52117e-26 1.13565e-16)
(-3.48665e-15 -4.20648e-20 1.16473e-16)
(-3.6787e-15 -4.20648e-20 1.19467e-16)
(-3.87566e-15 4.20648e-20 1.22634e-16)
(-4.07782e-15 1.45597e-30 1.25887e-16)
(-4.28559e-15 -8.41297e-20 1.29312e-16)
(-4.4991e-15 -1.26195e-19 1.32909e-16)
(-4.71856e-15 1.51979e-29 1.36657e-16)
(-4.94418e-15 -4.20648e-20 1.40556e-16)
(-5.17615e-15 4.20649e-20 1.44563e-16)
(-5.41477e-15 8.41297e-20 1.48699e-16)
(-5.66027e-15 4.20649e-20 1.52985e-16)
(-5.91278e-15 4.20649e-20 1.5738e-16)
(-6.17253e-15 4.20649e-20 1.61839e-16)
(-6.43982e-15 -4.20648e-20 1.66406e-16)
(-6.71457e-15 -3.68721e-29 1.7108e-16)
(-6.99681e-15 4.20649e-20 1.75819e-16)
(-7.28688e-15 4.20649e-20 1.80623e-16)
(-7.58479e-15 8.41297e-20 1.85513e-16)
(-7.89048e-15 4.20649e-20 1.90295e-16)
(-8.20407e-15 3.26088e-26 1.95077e-16)
(-8.52548e-15 3.26088e-26 1.99859e-16)
(-8.85467e-15 4.20648e-20 2.04555e-16)
(-9.19147e-15 -5.07022e-29 2.09229e-16)
(-9.5356e-15 -5.26404e-29 2.13753e-16)
(-9.88693e-15 -4.20649e-20 2.18104e-16)
(-1.02452e-14 8.41297e-20 2.22219e-16)
(-1.061e-14 4.20648e-20 2.26139e-16)
(-1.09809e-14 -4.20648e-20 2.29737e-16)
(-1.13574e-14 4.20649e-20 2.33032e-16)
(-1.1739e-14 1.26195e-19 2.35919e-16)
(-1.21248e-14 1.26195e-19 2.38353e-16)
(-1.25142e-14 4.20649e-20 2.40335e-16)
(-1.29065e-14 -3.25291e-26 2.41692e-16)
(-1.33006e-14 4.20648e-20 2.42511e-16)
(-1.36953e-14 -7.63856e-29 2.42597e-16)
(-1.40896e-14 6.52144e-26 2.41929e-16)
(-1.44821e-14 8.65216e-29 2.40464e-16)
(-1.48714e-14 4.20649e-20 2.3803e-16)
(-1.5256e-14 -1.73718e-28 2.34605e-16)
(-1.56342e-14 -3.28751e-26 2.30103e-16)
(-1.60041e-14 4.20648e-20 2.24416e-16)
(-1.63637e-14 3.26103e-26 2.17458e-16)
(-1.67107e-14 1.68259e-19 2.09186e-16)
(-1.7043e-14 8.41297e-20 1.9945e-16)
(-1.73584e-14 4.20649e-20 1.88141e-16)
(-1.76541e-14 4.20649e-20 1.75281e-16)
(-1.79274e-14 -8.41298e-20 1.6074e-16)
(-1.81759e-14 -8.41297e-20 1.44455e-16)
(-1.83964e-14 -4.20649e-20 1.26447e-16)
(-1.85859e-14 -2.13659e-28 1.06586e-16)
(-1.87419e-14 8.41297e-20 8.49153e-17)
(-1.88612e-14 2.18835e-28 6.1457e-17)
(-1.89409e-14 4.20649e-20 3.62323e-17)
(-1.8978e-14 -8.41297e-20 9.30579e-18)
(-1.89699e-14 -8.41297e-20 -1.92363e-17)
(-1.89143e-14 -8.41297e-20 -4.92647e-17)
(-1.88088e-14 4.20649e-20 -8.0564e-17)
(-1.86514e-14 4.20649e-20 -1.13005e-16)
(-1.84405e-14 8.41297e-20 -1.46329e-16)
(-1.81748e-14 4.20649e-20 -1.80214e-16)
(-1.78536e-14 4.20649e-20 -2.14378e-16)
(-1.7477e-14 8.41297e-20 -2.48521e-16)
(-1.70452e-14 4.20649e-20 -2.82189e-16)
(-1.65592e-14 1.91428e-28 -3.15018e-16)
(-1.60209e-14 -3.27978e-26 -3.46641e-16)
(-1.54326e-14 -4.20648e-20 -3.76518e-16)
(-1.47973e-14 -4.20648e-20 -4.04285e-16)
(-1.4119e-14 -1.70733e-28 -4.29488e-16)
(-1.34023e-14 4.20648e-20 -4.51697e-16)
(-1.2652e-14 8.41298e-20 -4.70567e-16)
(-1.18739e-14 8.41297e-20 -4.85775e-16)
(-1.10743e-14 4.20648e-20 -4.97063e-16)
(-1.02599e-14 -3.28525e-26 -5.04042e-16)
(-9.4375e-15 -1.17908e-28 -5.06756e-16)
(-8.61438e-15 4.20648e-20 -5.0499e-16)
(-7.79776e-15 4.20649e-20 -4.98743e-16)
(-6.99483e-15 -1.70256e-28 -4.88166e-16)
(-6.21272e-15 -8.41298e-20 -4.73303e-16)
(-5.45795e-15 -4.20649e-20 -4.54476e-16)
(-4.73672e-15 -1.26195e-19 -4.31922e-16)
(-4.05488e-15 -4.20648e-20 -4.0618e-16)
(-3.41739e-15 -4.20648e-20 -3.77488e-16)
(-2.82849e-15 -1.26195e-19 -3.4649e-16)
(-2.29154e-15 -4.20648e-20 -3.1364e-16)
(-1.80896e-15 -2.25362e-29 -2.79518e-16)
(-1.38246e-15 -6.52812e-26 -2.44708e-16)
(-1.0125e-15 -4.20648e-20 -2.09876e-16)
(-6.98873e-16 -8.41296e-20 -1.75604e-16)
(-4.40349e-16 3.26049e-26 -1.42344e-16)
(-2.34494e-16 -1.26195e-19 -1.10679e-16)
(-7.83283e-17 -8.41297e-20 -8.12102e-17)
(3.18641e-17 4.20648e-20 -5.43269e-17)
(1.00815e-16 -4.20649e-20 -3.04377e-17)
(1.33731e-16 -4.20648e-20 -1.00382e-17)
(1.36308e-16 6.52115e-26 6.74239e-18)
(1.14837e-16 -4.20648e-20 1.95163e-17)
(7.59096e-17 -4.20649e-20 2.81543e-17)
(2.64658e-17 -3.26063e-26 3.25272e-17)
(-6.91441e-17 -3.2606e-26 8.498e-17)
(-2.07503e-16 -4.20648e-20 8.50877e-17)
(-3.46194e-16 8.61786e-31 8.53246e-17)
(-4.85288e-16 -3.26062e-26 8.57339e-17)
(-6.25031e-16 4.20648e-20 8.61647e-17)
(-7.65756e-16 -4.20648e-20 8.67248e-17)
(-9.07497e-16 4.8034e-31 8.74787e-17)
(-1.05043e-15 3.26088e-26 8.82973e-17)
(-1.19482e-15 4.20649e-20 8.92236e-17)
(-1.34084e-15 8.41297e-20 9.02791e-17)
(-1.48873e-15 4.20648e-20 9.14638e-17)
(-1.63871e-15 -1.29505e-30 9.28209e-17)
(-1.79091e-15 4.20648e-20 9.42857e-17)
(-1.94562e-15 4.20648e-20 9.58798e-17)
(-2.10309e-15 4.20648e-20 9.76031e-17)
(-2.26349e-15 -4.20649e-20 9.94772e-17)
(-2.42697e-15 -5.81806e-30 1.01502e-16)
(-2.59377e-15 4.20649e-20 1.03592e-16)
(-2.76422e-15 3.25998e-26 1.05896e-16)
(-2.93855e-15 6.26067e-31 1.08309e-16)
(-3.11692e-15 6.66169e-31 1.10851e-16)
(-3.29952e-15 1.01965e-29 1.13565e-16)
(-3.48667e-15 1.37236e-30 1.16452e-16)
(-3.67868e-15 -9.22861e-30 1.19446e-16)
(-3.87565e-15 4.20648e-20 1.22591e-16)
(-4.07786e-15 -1.10618e-29 1.25865e-16)
(-4.2856e-15 -8.41297e-20 1.29333e-16)
(-4.49908e-15 -4.20649e-20 1.32909e-16)
(-4.71852e-15 -1.20864e-29 1.36657e-16)
(-4.94415e-15 1.34814e-29 1.40535e-16)
(-5.17615e-15 4.20648e-20 1.44541e-16)
(-5.41478e-15 4.20648e-20 1.48699e-16)
(-5.66027e-15 3.25756e-26 1.52964e-16)
(-5.91276e-15 4.20649e-20 1.57358e-16)
(-6.17256e-15 4.20649e-20 1.61839e-16)
(-6.43982e-15 -4.20648e-20 1.66384e-16)
(-6.71452e-15 -3.78365e-29 1.71059e-16)
(-6.99683e-15 3.26075e-26 1.75841e-16)
(-7.28688e-15 4.31796e-29 1.80644e-16)
(-7.58474e-15 8.41297e-20 1.8547e-16)
(-7.89048e-15 4.20648e-20 1.90273e-16)
(-8.20411e-15 4.20649e-20 1.95077e-16)
(-8.5255e-15 5.04779e-29 1.99838e-16)
(-8.85467e-15 5.24084e-29 2.04555e-16)
(-9.19147e-15 -4.20648e-20 2.09229e-16)
(-9.5356e-15 -5.38763e-29 2.13753e-16)
(-9.88689e-15 -4.20648e-20 2.18104e-16)
(-1.02452e-14 4.20648e-20 2.22176e-16)
(-1.061e-14 4.20648e-20 2.26118e-16)
(-1.09809e-14 1.32804e-30 2.29715e-16)
(-1.13574e-14 -6.43249e-29 2.32989e-16)
(-1.17389e-14 4.20648e-20 2.35854e-16)
(-1.21248e-14 8.41297e-20 2.38332e-16)
(-1.25143e-14 7.3726e-29 2.40313e-16)
(-1.29065e-14 1.50657e-28 2.41714e-16)
(-1.33006e-14 4.20648e-20 2.42489e-16)
(-1.36953e-14 -3.26037e-26 2.42597e-16)
(-1.40896e-14 3.24449e-26 2.41929e-16)
(-1.44821e-14 -3.252e-26 2.40464e-16)
(-1.48714e-14 -2.55222e-28 2.3803e-16)
(-1.5256e-14 -3.27816e-26 2.34605e-16)
(-1.56342e-14 -3.28751e-26 2.30103e-16)
(-1.60041e-14 -4.20649e-20 2.24438e-16)
(-1.63636e-14 3.24198e-26 2.17458e-16)
(-1.67107e-14 8.41297e-20 2.09143e-16)
(-1.70431e-14 -1.94767e-28 1.9945e-16)
(-1.73584e-14 4.20649e-20 1.88119e-16)
(-1.76541e-14 4.20649e-20 1.75259e-16)
(-1.79275e-14 -4.20649e-20 1.60762e-16)
(-1.81759e-14 -3.2815e-26 1.44477e-16)
(-1.83963e-14 -2.11992e-28 1.26447e-16)
(-1.85859e-14 -2.14325e-28 1.06586e-16)
(-1.87419e-14 4.20648e-20 8.48938e-17)
(-1.88612e-14 3.26065e-26 6.14785e-17)
(-1.89409e-14 3.21684e-26 3.62323e-17)
(-1.8978e-14 -4.20648e-20 9.32733e-18)
(-1.89699e-14 3.26065e-26 -1.92363e-17)
(-1.89143e-14 -4.20648e-20 -4.92647e-17)
(-1.88088e-14 -2.1845e-28 -8.0564e-17)
(-1.86514e-14 3.23895e-26 -1.13027e-16)
(-1.84405e-14 4.20649e-20 -1.46329e-16)
(-1.81747e-14 4.20649e-20 -1.80214e-16)
(-1.78536e-14 8.41297e-20 -2.14399e-16)
(-1.7477e-14 8.41297e-20 -2.48542e-16)
(-1.70452e-14 4.20649e-20 -2.82211e-16)
(-1.65593e-14 1.77113e-30 -3.1504e-16)
(-1.60209e-14 -3.24212e-26 -3.46662e-16)
(-1.54326e-14 -3.56948e-28 -3.7654e-16)
(-1.47973e-14 -3.552e-38 -4.04285e-16)
(-1.4119e-14 -4.20648e-20 -4.29488e-16)
(-1.34022e-14 3.24515e-26 -4.51719e-16)
(-1.26519e-14 4.20649e-20 -4.70589e-16)
(-1.18739e-14 4.20649e-20 -4.85797e-16)
(-1.10744e-14 4.20648e-20 -4.97063e-16)
(-1.02599e-14 -3.24878e-26 -5.04064e-16)
(-9.4375e-15 1.09193e-28 -5.06756e-16)
(-8.61434e-15 -9.96236e-29 -5.0499e-16)
(-7.79774e-15 4.20649e-20 -4.98743e-16)
(-6.99486e-15 -3.26065e-26 -4.88188e-16)
(-6.21272e-15 -4.20649e-20 -4.73303e-16)
(-5.45794e-15 -2.0954e-38 -4.54454e-16)
(-4.73673e-15 -2.4976e-30 -4.31922e-16)
(-4.05488e-15 -4.20649e-20 -4.06137e-16)
(-3.41739e-15 -8.33836e-29 -3.77488e-16)
(-2.82849e-15 -4.20649e-20 -3.4649e-16)
(-2.29152e-15 2.28986e-29 -3.13683e-16)
(-1.80896e-15 -2.41272e-29 -2.7954e-16)
(-1.38244e-15 -3.48027e-29 -2.44729e-16)
(-1.01252e-15 4.20648e-20 -2.09897e-16)
(-6.98873e-16 -4.20648e-20 -1.75625e-16)
(-4.40332e-16 4.20649e-20 -1.42366e-16)
(-2.34494e-16 3.35104e-30 -1.107e-16)
(-7.83108e-17 -2.92714e-41 -8.12749e-17)
(3.18641e-17 4.20648e-20 -5.43269e-17)
(1.00798e-16 4.20648e-20 -3.04592e-17)
(1.33731e-16 -5.80158e-32 -1.00166e-17)
(1.36308e-16 3.2605e-26 6.76393e-18)
(1.14802e-16 -4.20649e-20 1.95378e-17)
(7.5892e-17 -4.20649e-20 2.81974e-17)
(2.64658e-17 -3.26057e-26 3.25703e-17)
(-6.90116e-17 1.42951e-30 2.52743e-16)
(-2.07125e-16 4.30649e-20 2.5313e-16)
(-3.45453e-16 -3.33817e-26 2.53755e-16)
(-4.84265e-16 4.3065e-20 2.54789e-16)
(-6.23778e-16 -4.30649e-20 2.56232e-16)
(-7.64188e-16 3.33821e-26 2.57977e-16)
(-9.05656e-16 4.3065e-20 2.60088e-16)
(-1.04833e-15 4.3065e-20 2.62565e-16)
(-1.1924e-15 1.56005e-30 2.65366e-16)
(-1.3381e-15 -3.55492e-31 2.68554e-16)
(-1.48563e-15 4.30649e-20 2.72108e-16)
(-1.63521e-15 -3.07961e-30 2.7605e-16)
(-1.78718e-15 -4.30649e-20 2.80402e-16)
(-1.94166e-15 2.58758e-32 2.85098e-16)
(-2.09875e-15 1.3554e-30 2.90289e-16)
(-2.25877e-15 4.3065e-20 2.95847e-16)
(-2.42192e-15 3.33625e-26 3.0177e-16)
(-2.58838e-15 4.3065e-20 3.08125e-16)
(-2.75853e-15 -4.30649e-20 3.14846e-16)
(-2.93247e-15 4.30649e-20 3.22105e-16)
(-3.11046e-15 -7.11199e-30 3.29709e-16)
(-3.29271e-15 4.30649e-20 3.37809e-16)
(-3.47952e-15 4.30649e-20 3.46361e-16)
(-3.67118e-15 2.12279e-29 3.55322e-16)
(-3.86786e-15 -4.3065e-20 3.64692e-16)
(-4.06973e-15 4.30649e-20 3.74493e-16)
(-4.27701e-15 -4.3065e-20 3.84769e-16)
(-4.49017e-15 -1.06952e-29 3.95453e-16)
(-4.70931e-15 -3.85207e-29 4.06611e-16)
(-4.93463e-15 -2.60892e-29 4.18157e-16)
(-5.16631e-15 -1.24493e-29 4.30156e-16)
(-5.40453e-15 4.30649e-20 4.42477e-16)
(-5.64973e-15 -3.00372e-29 4.55187e-16)
(-5.90205e-15 3.33162e-26 4.68219e-16)
(-6.16154e-15 4.3065e-20 4.81575e-16)
(-6.42849e-15 4.3065e-20 4.95253e-16)
(-6.70304e-15 4.30649e-20 5.09212e-16)
(-6.98523e-15 -4.03913e-29 5.23343e-16)
(-7.27518e-15 -4.30649e-20 5.37625e-16)
(-7.57308e-15 4.3065e-20 5.52057e-16)
(-7.87882e-15 3.32906e-26 5.66425e-16)
(-8.19237e-15 4.3065e-20 5.80772e-16)
(-8.51392e-15 8.61299e-20 5.95032e-16)
(-8.84332e-15 4.30649e-20 6.0912e-16)
(-9.18035e-15 4.30649e-20 6.22971e-16)
(-9.52487e-15 -5.50756e-29 6.36434e-16)
(-9.87664e-15 4.30649e-20 6.49359e-16)
(-1.02354e-14 -1.18369e-28 6.61788e-16)
(-1.06009e-14 8.61299e-20 6.73442e-16)
(-1.09724e-14 4.30649e-20 6.84191e-16)
(-1.13498e-14 3.33777e-26 6.94057e-16)
(-1.17325e-14 3.33139e-26 7.02759e-16)
(-1.21194e-14 3.36786e-40 7.1017e-16)
(-1.25102e-14 3.33818e-26 7.16136e-16)
(-1.29039e-14 -6.63095e-29 7.20402e-16)
(-1.32995e-14 -3.03403e-28 7.22814e-16)
(-1.3696e-14 4.3065e-20 7.23224e-16)
(-1.40922e-14 -4.30649e-20 7.21371e-16)
(-1.44868e-14 -8.61298e-20 7.17084e-16)
(-1.48785e-14 3.30376e-26 7.09976e-16)
(-1.52657e-14 8.61298e-20 6.99894e-16)
(-1.56466e-14 -3.35587e-26 6.86625e-16)
(-1.60194e-14 4.30649e-20 6.69888e-16)
(-1.63821e-14 -3.71373e-28 6.49294e-16)
(-1.67326e-14 3.63839e-30 6.24716e-16)
(-1.70685e-14 -1.93922e-28 5.95872e-16)
(-1.73876e-14 -4.30649e-20 5.62376e-16)
(-1.76874e-14 -4.30649e-20 5.24183e-16)
(-1.79649e-14 -2.05004e-28 4.80971e-16)
(-1.82176e-14 -3.38006e-26 4.32655e-16)
(-1.84424e-14 2.15472e-28 3.79039e-16)
(-1.86364e-14 -6.67634e-26 3.19973e-16)
(-1.87968e-14 4.30649e-20 2.555e-16)
(-1.89204e-14 8.61299e-20 1.85642e-16)
(-1.90042e-14 3.33817e-26 1.10463e-16)
(-1.90454e-14 -2.20079e-28 3.01146e-17)
(-1.90411e-14 3.31615e-26 -5.51023e-17)
(-1.89889e-14 3.36013e-26 -1.44671e-16)
(-1.88863e-14 -4.30649e-20 -2.38224e-16)
(-1.87312e-14 -4.3065e-20 -3.35202e-16)
(-1.85221e-14 -4.30649e-20 -4.34723e-16)
(-1.82575e-14 3.3596e-26 -5.36095e-16)
(-1.79366e-14 2.11123e-28 -6.38351e-16)
(-1.75593e-14 4.28167e-30 -7.40478e-16)
(-1.7126e-14 -4.30649e-20 -8.41291e-16)
(-1.66376e-14 4.3065e-20 -9.39734e-16)
(-1.60956e-14 -3.33758e-26 -1.03436e-15)
(-1.55026e-14 -3.3196e-26 -1.12395e-15)
(-1.48617e-14 1.78877e-28 -1.20717e-15)
(-1.41767e-14 1.71367e-28 -1.28276e-15)
(-1.34522e-14 1.63374e-28 -1.3494e-15)
(-1.26934e-14 8.61299e-20 -1.40608e-15)
(-1.1906e-14 2.83776e-28 -1.45181e-15)
(-1.10965e-14 1.36919e-28 -1.48561e-15)
(-1.02717e-14 3.3263e-26 -1.50683e-15)
(-9.4386e-15 2.58758e-32 -1.51495e-15)
(-8.60465e-15 4.3065e-20 -1.50971e-15)
(-7.7773e-15 8.62155e-30 -1.49102e-15)
(-6.96387e-15 -7.20983e-29 -1.45931e-15)
(-6.1718e-15 3.33103e-26 -1.41476e-15)
(-5.40774e-15 4.3065e-20 -1.35826e-15)
(-4.67807e-15 5.41012e-29 -1.29066e-15)
(-3.98873e-15 -9.9273e-29 -1.21318e-15)
(-3.34487e-15 3.333e-26 -1.12716e-15)
(-2.75086e-15 -4.37463e-29 -1.03404e-15)
(-2.21018e-15 2.01509e-29 -9.35469e-16)
(-1.72538e-15 -8.94444e-29 -8.33127e-16)
(-1.29792e-15 4.30649e-20 -7.28781e-16)
(-9.2848e-16 1.07627e-29 -6.24177e-16)
(-6.16762e-16 -4.3065e-20 -5.21189e-16)
(-3.61423e-16 8.61299e-20 -4.2141e-16)
(-1.60184e-16 -4.30649e-20 -3.265e-16)
(-9.92289e-18 -2.58758e-32 -2.37965e-16)
(9.35048e-17 -1.72058e-31 -1.57315e-16)
(1.54675e-16 3.33817e-26 -8.57339e-17)
(1.78863e-16 3.33855e-26 -2.43631e-17)
(1.72152e-16 -3.33817e-26 2.5914e-17)
(1.4084e-16 -4.30649e-20 6.42143e-17)
(9.17104e-17 -4.30649e-20 9.00852e-17)
(3.17963e-17 -2.00126e-38 1.03182e-16)
(-6.89937e-17 1.40987e-30 2.52786e-16)
(-2.07107e-16 -3.33789e-26 2.53152e-16)
(-3.45435e-16 4.30649e-20 2.53755e-16)
(-4.84283e-16 8.61299e-20 2.54789e-16)
(-6.2376e-16 4.3065e-20 2.56232e-16)
(-7.64134e-16 2.84396e-30 2.57956e-16)
(-9.05656e-16 4.30649e-20 2.6011e-16)
(-1.04834e-15 4.3065e-20 2.62565e-16)
(-1.19243e-15 3.33816e-26 2.65366e-16)
(-1.33808e-15 -3.29616e-31 2.68597e-16)
(-1.48563e-15 4.3065e-20 2.7213e-16)
(-1.63527e-15 4.30649e-20 2.7605e-16)
(-1.78716e-15 -4.30649e-20 2.80402e-16)
(-1.94164e-15 4.3065e-20 2.85141e-16)
(-2.09875e-15 8.61299e-20 2.90289e-16)
(-2.25877e-15 8.61299e-20 2.95847e-16)
(-2.42192e-15 4.3065e-20 3.0177e-16)
(-2.5884e-15 8.61299e-20 3.08103e-16)
(-2.75854e-15 3.33836e-26 3.14867e-16)
(-2.93249e-15 8.61298e-20 3.22105e-16)
(-3.11046e-15 -3.33888e-26 3.29709e-16)
(-3.29266e-15 4.30649e-20 3.37852e-16)
(-3.47951e-15 4.30649e-20 3.46361e-16)