/*--------------------------------*- C++ -*----------------------------------*\
  =========                 |
  \\      /  F ield         | OpenFOAM: The Open Source CFD Toolbox
   \\    /   O peration     | Website:  https://openfoam.org
    \\  /    A nd           | Version:  6
     \\/     M anipulation  |
\*---------------------------------------------------------------------------*/
FoamFile
{
    version     2.0;
    format      ascii;
    class       surfaceScalarField;
    location    "800";
    object      phi;
}
// * * * * * * * * * * * * * * * * * * * * * * * * * * * * * * * * * * * * * //

dimensions      [0 3 -1 0 0 0 0];

internalField   nonuniform List<scalar> 
9440
(
-7.97683e-11
7.97683e-11
-3.08158e-10
2.2839e-10
-6.78163e-10
3.70005e-10
-1.06115e-09
3.82987e-10
-1.26352e-09
2.02375e-10
-1.36782e-09
1.04298e-10
-1.44046e-09
7.26352e-11
-1.46743e-09
2.69752e-11
-1.40292e-09
-6.45106e-11
-1.36241e-09
-4.05054e-11
-1.35978e-09
-2.63343e-12
-1.31349e-09
-4.62888e-11
-1.27535e-09
-3.81367e-11
-1.2616e-09
-1.37483e-11
-1.25562e-09
-5.98078e-12
-1.255e-09
-6.20006e-13
-1.25659e-09
1.59676e-12
-1.25855e-09
1.95323e-12
-1.25793e-09
-6.15933e-13
-1.26246e-09
4.52813e-12
-1.28838e-09
2.59246e-11
-1.39702e-09
1.08638e-10
-1.59656e-09
1.99544e-10
-1.77235e-09
1.75788e-10
-1.89902e-09
1.26675e-10
-1.98586e-09
8.68384e-11
-2.04046e-09
5.46042e-11
-2.07726e-09
3.68011e-11
-2.101e-09
2.37385e-11
-2.155e-09
5.40021e-11
-2.26519e-09
1.10186e-10
-2.36049e-09
9.5301e-11
-2.44407e-09
8.35853e-11
-2.51581e-09
7.17407e-11
-2.56342e-09
4.76093e-11
-2.58917e-09
2.57445e-11
-2.56863e-09
-2.05374e-11
-2.53643e-09
-3.21983e-11
-2.52795e-09
-8.48654e-12
-2.49048e-09
-3.74661e-11
-2.45689e-09
-3.35903e-11
-2.43028e-09
-2.66072e-11
-2.41277e-09
-1.75119e-11
-2.40056e-09
-1.22131e-11
-2.40527e-09
4.70624e-12
-2.43604e-09
3.07701e-11
-2.45789e-09
2.18484e-11
-2.48326e-09
2.537e-11
-2.50499e-09
2.17294e-11
-2.52172e-09
1.67291e-11
-2.53632e-09
1.4605e-11
-2.54198e-09
5.65431e-12
-2.47192e-09
-7.00552e-11
-2.33313e-09
-1.38795e-10
-2.21037e-09
-1.22761e-10
-2.17372e-09
-3.66437e-11
-1.98851e-09
-1.85216e-10
-1.85854e-09
-1.29972e-10
-1.84768e-09
-1.08591e-11
-1.6125e-09
-2.35176e-10
-1.5596e-09
-5.29014e-11
-1.46519e-09
-9.44063e-11
-1.29756e-09
-1.67633e-10
-1.25459e-09
-4.29736e-11
-1.22901e-09
-2.55719e-11
-1.21196e-09
-1.70514e-11
-1.19329e-09
-1.86729e-11
-1.14544e-09
-4.78533e-11
-1.10824e-09
-3.72019e-11
-1.09536e-09
-1.28816e-11
-1.10332e-09
7.96425e-12
-1.13028e-09
2.69545e-11
-1.16229e-09
3.20155e-11
-1.18625e-09
2.39622e-11
-1.19239e-09
6.14057e-12
-1.19009e-09
-2.30397e-12
-1.23721e-09
4.71195e-11
-9.09152e-10
-3.28062e-10
-5.80121e-10
-3.29034e-10
9.10371e-16
-5.80125e-10
9.28644e-19
-4.83293e-19
9.52783e-19
-2.41391e-20
9.45015e-19
5.06876e-21
9.56502e-19
-1.50442e-20
9.89912e-19
-3.67992e-20
1.04011e-18
-5.29751e-20
1.10178e-18
-6.36918e-20
1.17046e-18
-7.00219e-20
1.24245e-18
-7.28245e-20
1.31463e-18
-7.26536e-20
1.38441e-18
-6.99082e-20
1.44963e-18
-6.49746e-20
1.50831e-18
-5.82109e-20
1.55878e-18
-4.99036e-20
1.59979e-18
-4.03451e-20
1.6305e-18
-2.98755e-20
1.65033e-18
-1.88225e-20
1.65903e-18
-7.49313e-21
1.65663e-18
3.75328e-21
1.64326e-18
1.45458e-20
1.61901e-18
2.46495e-20
1.58419e-18
3.40066e-20
1.53943e-18
4.26333e-20
1.4856e-18
5.05696e-20
1.42368e-18
5.79344e-20
1.35476e-18
6.4938e-20
1.28001e-18
7.17569e-20
1.20043e-18
7.83958e-20
1.11667e-18
8.46691e-20
1.02898e-18
9.02884e-20
9.37435e-19
9.49708e-20
8.42153e-19
9.85254e-20
7.43422e-19
1.00926e-19
6.41769e-19
1.02358e-19
5.37868e-19
1.03194e-19
4.32338e-19
1.03852e-19
3.25553e-19
1.04611e-19
2.1764e-19
1.05451e-19
1.08797e-19
1.06011e-19
1.05501e-19
-3.75651e-10
4.55419e-10
-5.52049e-10
4.0479e-10
-7.57372e-10
5.75329e-10
-9.36028e-10
5.61643e-10
-1.06789e-09
3.34241e-10
-1.20208e-09
2.38483e-10
-1.21609e-09
8.66511e-11
-1.20572e-09
1.66026e-11
-1.16729e-09
-1.0294e-10
-1.11092e-09
-9.68726e-11
-1.06338e-09
-5.0173e-11
-1.05978e-09
-4.98798e-11
-1.06213e-09
-3.57874e-11
-1.07142e-09
-4.45283e-12
-1.0745e-09
-2.90196e-12
-1.08671e-09
1.1589e-11
-1.10261e-09
1.74997e-11
-1.11885e-09
1.82004e-11
-1.13424e-09
1.47719e-11
-1.16351e-09
3.37996e-11
-1.21294e-09
7.53612e-11
-1.29343e-09
1.89125e-10
-1.40111e-09
3.07225e-10
-1.53985e-09
3.14535e-10
-1.66921e-09
2.56033e-10
-1.74684e-09
1.64468e-10
-1.78963e-09
9.73995e-11
-1.80826e-09
5.54301e-11
-1.8119e-09
2.73833e-11
-1.87308e-09
1.15181e-10
-1.97954e-09
2.16643e-10
-2.05842e-09
1.74178e-10
-2.09357e-09
1.18736e-10
-2.11748e-09
9.56587e-11
-2.13591e-09
6.60317e-11
-2.14676e-09
3.66027e-11
-2.10409e-09
-6.32167e-11
-2.08983e-09
-4.64568e-11
-2.07497e-09
-2.33428e-11
-2.06054e-09
-5.18976e-11
-2.05549e-09
-3.86458e-11
-2.05479e-09
-2.73087e-11
-2.05138e-09
-2.0917e-11
-2.04439e-09
-1.92099e-11
-2.06543e-09
2.57498e-11
-2.11119e-09
7.65246e-11
-2.1376e-09
4.82645e-11
-2.1728e-09
6.05682e-11
-2.22055e-09
6.9473e-11
-2.2664e-09
6.25843e-11
-2.29179e-09
3.99921e-11
-2.30022e-09
1.40828e-11
-2.24805e-09
-1.22225e-10
-2.19446e-09
-1.92387e-10
-2.10211e-09
-2.15115e-10
-1.92981e-09
-2.08946e-10
-1.88187e-09
-2.33153e-10
-1.74569e-09
-2.66153e-10
-1.57984e-09
-1.76705e-10
-1.4855e-09
-3.29524e-10
-1.1649e-09
-3.73498e-10
-1.04174e-09
-2.17561e-10
-7.44116e-10
-4.65261e-10
-5.82279e-10
-2.04811e-10
-5.29399e-10
-7.84521e-11
-4.61357e-10
-8.50937e-11
-4.38695e-10
-4.13359e-11
-4.02365e-10
-8.41841e-11
-4.0462e-10
-3.4948e-11
-4.52759e-10
3.52567e-11
-5.15728e-10
7.09324e-11
-5.79568e-10
9.07945e-11
-6.04627e-10
5.70743e-11
-6.20624e-10
3.99578e-11
-6.29904e-10
1.54199e-11
-6.46892e-10
1.46811e-11
-6.15828e-10
1.60517e-11
-5.6342e-10
-3.80475e-10
-3.9639e-10
-4.9607e-10
-3.38102e-16
-9.76523e-10
1.24186e-18
4.24991e-19
9.816e-19
2.30772e-19
9.2507e-19
5.68586e-20
9.34747e-19
-2.88796e-20
9.73736e-19
-7.89415e-20
1.0294e-18
-1.10663e-19
1.09545e-18
-1.30755e-19
1.16766e-18
-1.42391e-19
1.24262e-18
-1.4727e-19
1.31738e-18
-1.46413e-19
1.38934e-18
-1.40562e-19
1.45639e-18
-1.30381e-19
1.51662e-18
-1.16495e-19
1.56834e-18
-9.94978e-20
1.61026e-18
-8.0031e-20
1.64155e-18
-5.88244e-20
1.66166e-18
-3.66604e-20
1.67027e-18
-1.431e-20
1.66742e-18
7.52652e-21
1.65336e-18
2.83178e-20
1.62837e-18
4.77982e-20
1.59281e-18
6.59899e-20
1.54736e-18
8.31391e-20
1.49296e-18
9.959e-20
1.43068e-18
1.15627e-19
1.36158e-18
1.31329e-19
1.28665e-18
1.46494e-19
1.20671e-18
1.6066e-19
1.12229e-18
1.73229e-19
1.03366e-18
1.83638e-19
9.4099e-19
1.91555e-19
8.44553e-19
1.97012e-19
7.44854e-19
2.00436e-19
6.42604e-19
2.02535e-19
5.38526e-19
2.04072e-19
4.33097e-19
2.05629e-19
3.26393e-19
2.07423e-19
2.182e-19
2.09277e-19
1.08287e-19
2.10791e-19
2.11742e-19
-3.28596e-10
7.84015e-10
-6.05419e-10
6.81614e-10
-7.67623e-10
7.37535e-10
-7.94205e-10
5.88225e-10
-8.80213e-10
4.2025e-10
-9.31699e-10
2.89969e-10
-9.22067e-10
7.70205e-11
-9.0463e-10
-8.33079e-13
-9.12458e-10
-9.51109e-11
-8.77916e-10
-1.31413e-10
-8.33871e-10
-9.42166e-11
-8.32747e-10
-5.10025e-11
-8.32997e-10
-3.5536e-11
-8.33282e-10
-4.1663e-12
-8.43019e-10
6.83738e-12
-8.57891e-10
2.64626e-11
-8.77972e-10
3.75826e-11
-9.20614e-10
6.08439e-11
-9.39142e-10
3.33021e-11
-9.79812e-10
7.44716e-11
-1.03589e-09
1.31436e-10
-1.09038e-09
2.43619e-10
-1.15908e-09
3.75928e-10
-1.23235e-09
3.8781e-10
-1.31693e-09
3.40611e-10
-1.36323e-09
2.10768e-10
-1.41015e-09
1.44324e-10
-1.46214e-09
1.07422e-10
-1.52476e-09
9.00038e-11
-1.61108e-09
2.01495e-10
-1.69897e-09
3.04543e-10
-1.76309e-09
2.38292e-10
-1.8062e-09
1.6185e-10
-1.85774e-09
1.47199e-10
-1.90933e-09
1.17621e-10
-1.94439e-09
7.16577e-11
-1.89912e-09
-1.08488e-10
-1.93538e-09
-1.01927e-11
-1.90996e-09
-4.8758e-11
-1.91152e-09
-5.03457e-11
-1.91212e-09
-3.80406e-11
-1.91385e-09
-2.55782e-11
-1.89189e-09
-4.28828e-11
-1.90624e-09
-4.85891e-12
-1.93182e-09
5.13265e-11
-2.02754e-09
1.72246e-10
-2.0925e-09
1.1322e-10
-2.10569e-09
7.3756e-11
-2.18436e-09
1.48142e-10
-2.22066e-09
9.88897e-11
-2.21669e-09
3.60144e-11
-2.16462e-09
-3.79879e-11
-2.1274e-09
-1.59438e-10
-2.08784e-09
-2.31957e-10
-1.99401e-09
-3.08941e-10
-1.93774e-09
-2.65216e-10
-1.9156e-09
-2.55298e-10
-1.72593e-09
-4.55818e-10
-1.52772e-09
-3.74922e-10
-1.5875e-09
-2.69741e-10
-1.22604e-09
-7.34959e-10
-1.09606e-09
-3.47537e-10
-7.83804e-10
-7.77519e-10
-5.64608e-10
-4.24007e-10
-3.84404e-10
-2.58657e-10
-2.44017e-10
-2.25481e-10
-7.97766e-11
-2.05577e-10
2.02409e-11
-1.84202e-10
1.44729e-10
-1.59437e-10
1.84871e-10
-4.88549e-12
2.49142e-10
6.66092e-12
3.15958e-10
2.39798e-11
3.6899e-10
4.04239e-12
3.97647e-10
1.13012e-11
4.18537e-10
-5.47014e-12
4.68701e-10
-3.54842e-11
6.09075e-10
-1.24323e-10
3.31615e-10
-1.03015e-10
-2.65765e-11
-1.37878e-10
-1.87242e-15
-1.0031e-09
7.79595e-19
1.91836e-19
8.08183e-19
1.99596e-19
8.39798e-19
2.54517e-20
8.84685e-19
-7.28322e-20
9.42014e-19
-1.34491e-19
1.00931e-18
-1.75417e-19
1.08381e-18
-2.02184e-19
1.16278e-18
-2.17925e-19
1.24348e-18
-2.24335e-19
1.32323e-18
-2.22466e-19
1.39953e-18
-2.13177e-19
1.47028e-18
-1.97388e-19
1.53362e-18
-1.76069e-19
1.58781e-18
-1.50172e-19
1.63147e-18
-1.20702e-19
1.66372e-18
-8.87433e-20
1.68401e-18
-5.538e-20
1.69211e-18
-2.16343e-20
1.68821e-18
1.15389e-20
1.67284e-18
4.33744e-20
1.64656e-18
7.34752e-20
1.60996e-18
1.01834e-19
1.56382e-18
1.2867e-19
1.509e-18
1.54237e-19
1.44638e-18
1.787e-19
1.37674e-18
2.02032e-19
1.30081e-18
2.23931e-19
1.21928e-18
2.43844e-19
1.1327e-18
2.61118e-19
1.04158e-18
2.75241e-19
9.46447e-19
2.86052e-19
8.47978e-19
2.93828e-19
7.46953e-19
2.9924e-19
6.44142e-19
3.03164e-19
5.40083e-19
3.06438e-19
4.3489e-19
3.09611e-19
3.28248e-19
3.12802e-19
2.19713e-19
3.15744e-19
1.09238e-19
3.18018e-19
3.19332e-19
-4.28612e-11
8.26877e-10
-2.02195e-10
8.40948e-10
-3.18116e-10
8.53457e-10
-4.51054e-10
7.21164e-10
-5.54056e-10
5.23252e-10
-5.47411e-10
2.83325e-10
-6.43878e-10
1.73489e-10
-6.56634e-10
1.19241e-11
-6.67011e-10
-8.47332e-11
-6.72269e-10
-1.26154e-10
-6.62937e-10
-1.03548e-10
-6.80967e-10
-3.29706e-11
-6.8513e-10
-3.13709e-11
-6.93645e-10
4.35026e-12
-7.00018e-10
1.32116e-11
-6.95515e-10
2.19617e-11
-6.91492e-10
3.35619e-11
-7.00745e-10
7.00984e-11
-7.18559e-10
5.11185e-11
-7.51237e-10
1.07151e-10
-8.02723e-10
1.82924e-10
-8.3036e-10
2.71259e-10
-8.33635e-10
3.79204e-10
-8.83313e-10
4.37489e-10
-9.99975e-10
4.57274e-10
-1.16062e-09
3.7141e-10
-1.23122e-09
2.14933e-10
-1.21798e-09
9.41771e-11
-1.24438e-09
1.16411e-10
-1.26991e-09
2.27025e-10
-1.3557e-09
3.90329e-10
-1.44707e-09
3.29666e-10
-1.51486e-09
2.29638e-10
-1.57379e-09
2.06133e-10
-1.65033e-09
1.94153e-10
-1.71147e-09
1.32797e-10
-1.70648e-09
-1.13474e-10
-1.73093e-09
1.42595e-11
-1.75373e-09
-2.59641e-11
-1.77481e-09
-2.92678e-11
-1.79149e-09
-2.13595e-11
-1.74981e-09
-6.72601e-11
-1.76976e-09
-2.29331e-11
-1.79643e-09
2.18125e-11
-1.81911e-09
7.40045e-11
-1.87784e-09
2.30976e-10
-1.9524e-09
1.87781e-10
-2.00041e-09
1.21771e-10
-2.05459e-09
2.0232e-10
-2.07966e-09
1.2396e-10
-2.06137e-09
1.77217e-11
-2.01338e-09
-8.59801e-11
-2.01893e-09
-1.53886e-10
-1.9761e-09
-2.74787e-10
-1.90514e-09
-3.79909e-10
-1.84817e-09
-3.22187e-10
-1.81638e-09
-2.87081e-10
-1.78203e-09
-4.90175e-10
-1.72685e-09
-4.30102e-10
-1.63124e-09
-3.65348e-10
-1.49415e-09
-8.72047e-10
-1.32873e-09
-5.12959e-10
-1.08447e-09
-1.02178e-09
-8.77391e-10
-6.31091e-10
-6.51778e-10
-4.8427e-10
-3.8108e-10
-4.9618e-10
-1.22495e-10
-4.64162e-10
3.28038e-11
-3.39501e-10
1.73978e-10
-3.00611e-10
2.93005e-10
-1.23912e-10
3.88596e-10
-8.89289e-11
4.72908e-10
-6.03313e-11
5.16066e-10
-3.91146e-11
5.38791e-10
-1.14225e-11
5.26806e-10
6.51579e-12
5.11147e-10
-1.98231e-11
4.47758e-10
-6.09325e-11
3.73555e-10
-2.88109e-11
1.48563e-10
8.71186e-11
-2.31088e-15
-8.54526e-10
4.2294e-19
-4.58807e-19
6.34537e-19
-1.16227e-20
7.4199e-19
-7.78692e-20
8.23027e-19
-1.48931e-19
9.01088e-19
-2.07009e-19
9.82539e-19
-2.50999e-19
1.06807e-18
-2.81826e-19
1.15637e-18
-3.00431e-19
1.24535e-18
-3.07623e-19
1.33252e-18
-3.04144e-19
1.41531e-18
-2.9081e-19
1.49159e-18
-2.6873e-19
1.55952e-18
-2.39242e-19
1.61728e-18
-2.03702e-19
1.66342e-18
-1.63484e-19
1.69708e-18
-1.20019e-19
1.71776e-18
-7.46835e-20
1.72528e-18
-2.86901e-20
1.72005e-18
1.68573e-20
1.70294e-18
6.09617e-20
1.67492e-18
1.02899e-19
1.6368e-18
1.42349e-19
1.58938e-18
1.79303e-19
1.53346e-18
2.13863e-19
1.46971e-18
2.46082e-19
1.39864e-18
2.75906e-19
1.32073e-18
3.03142e-19
1.23655e-18
3.27467e-19
1.14682e-18
3.48506e-19
1.05239e-18
3.65986e-19
9.54224e-19
3.79906e-19
8.53389e-19
3.90623e-19
7.50877e-19
3.9882e-19
6.47416e-19
4.05335e-19
5.43256e-19
4.1091e-19
4.38082e-19
4.15965e-19
3.3119e-19
4.20514e-19
2.21987e-19
4.24268e-19
1.10552e-19
4.2689e-19
4.28223e-19
-5.65212e-13
8.27443e-10
-6.06448e-11
9.01029e-10
-1.65101e-10
9.57913e-10
-2.8837e-10
8.44433e-10
-4.01495e-10
6.36378e-10
-4.63592e-10
3.45423e-10
-4.91214e-10
2.01112e-10
-5.07841e-10
2.85519e-11
-5.17408e-10
-7.51659e-11
-5.13499e-10
-1.30062e-10
-5.52859e-10
-6.41863e-11
-6.11741e-10
2.59129e-11
-6.50815e-10
7.70511e-12
-6.79647e-10
3.31841e-11
-6.92403e-10
2.59696e-11
-6.75697e-10
5.25792e-12
-6.44275e-10
2.14173e-12
-5.91804e-10
1.7629e-11
-5.70523e-10
2.984e-11
-5.50194e-10
8.68242e-11
-5.58705e-10
1.91436e-10
-5.78966e-10
2.91521e-10
-5.31506e-10
3.31746e-10
-5.09945e-10
4.1593e-10
-4.40225e-10
3.87556e-10
-4.73426e-10
4.04612e-10
-7.12936e-10
4.54444e-10
-9.88584e-10
3.69826e-10
-1.12161e-09
2.49436e-10
-1.12783e-09
2.33251e-10
-1.14023e-09
4.02727e-10
-1.23187e-09
4.21306e-10
-1.33534e-09
3.33104e-10
-1.38825e-09
2.59047e-10
-1.42588e-09
2.31788e-10
-1.44708e-09
1.5399e-10
-1.44873e-09
-1.11825e-10
-1.48296e-09
4.84908e-11
-1.5015e-09
-7.4222e-12
-1.50843e-09
-2.2337e-11
-1.50123e-09
-2.85645e-11
-1.50247e-09
-6.60189e-11
-1.54698e-09
2.15728e-11
-1.56876e-09
4.35996e-11
-1.61541e-09
1.20647e-10
-1.61642e-09
2.31986e-10
-1.66577e-09
2.3713e-10
-1.74868e-09
2.04684e-10
-1.75632e-09
2.09955e-10
-1.74752e-09
1.15163e-10
-1.73772e-09
7.92005e-12
-1.71274e-09
-1.10959e-10
-1.71973e-09
-1.46898e-10
-1.7849e-09
-2.09621e-10
-1.79861e-09
-3.662e-10
-1.78688e-09
-3.33913e-10
-1.78762e-09
-2.86343e-10
-1.78802e-09
-4.89781e-10
-1.79347e-09
-4.24656e-10
-1.57012e-09
-5.88693e-10
-1.57116e-09
-8.71012e-10
-1.36822e-09
-7.15894e-10
-1.32697e-09
-1.06303e-09
-1.15365e-09
-8.04414e-10
-9.03181e-10
-7.34741e-10
-5.98885e-10
-8.00476e-10
-4.05935e-10
-6.57112e-10
-1.69797e-10
-5.75639e-10
3.47115e-11
-5.05119e-10
2.60929e-10
-3.50129e-10
4.16896e-10
-2.44894e-10
5.13067e-10
-1.56501e-10
5.69532e-10
-9.55782e-11
6.35851e-10
-7.77393e-11
6.27643e-10
1.47262e-11
6.06383e-10
1.44005e-12
6.75982e-10
-1.30527e-10
5.75612e-10
7.15635e-11
1.83498e-10
4.79239e-10
-1.45245e-15
-6.71021e-10
4.44512e-19
-7.1605e-19
5.68782e-19
-1.33019e-19
6.71412e-19
-1.74911e-19
7.64952e-19
-2.36227e-19
8.57098e-19
-2.92619e-19
9.51713e-19
-3.39125e-19
1.04947e-18
-3.73478e-19
1.14917e-18
-3.94486e-19
1.24883e-18
-4.01846e-19
1.34585e-18
-3.95899e-19
1.43739e-18
-3.77422e-19
1.52108e-18
-3.47732e-19
1.59506e-18
-3.08592e-19
1.65749e-18
-2.61865e-19
1.70689e-18
-2.09368e-19
1.74241e-18
-1.52913e-19
1.76375e-18
-9.42158e-20
1.77083e-18
-3.47378e-20
1.76415e-18
2.42437e-20
1.74488e-18
8.15172e-20
1.71437e-18
1.36014e-19
1.67375e-18
1.87e-19
1.62394e-18
2.34131e-19
1.56568e-18
2.77332e-19
1.49954e-18
3.16654e-19
1.42588e-18
3.52195e-19
1.34505e-18
3.84044e-19
1.25759e-18
4.12241e-19
1.1643e-18
4.36769e-19
1.06631e-18
4.57619e-19
9.64941e-19
4.74919e-19
8.61587e-19
4.89017e-19
7.57392e-19
5.00474e-19
6.5299e-19
5.09936e-19
5.48312e-19
5.17932e-19
4.4263e-19
5.2472e-19
3.34944e-19
5.30268e-19
2.24609e-19
5.34398e-19
1.11885e-19
5.37002e-19
5.38165e-19
-1.10538e-10
9.37981e-10
-2.21415e-10
1.01191e-09
-2.24825e-10
9.61324e-10
-2.27303e-10
8.46912e-10
-2.92425e-10
7.01501e-10
-3.85752e-10
4.3875e-10
-3.84398e-10
1.99759e-10
-3.93691e-10
3.78455e-11
-4.02689e-10
-6.61666e-11
-4.45133e-10
-8.76161e-11
-5.21525e-10
1.22073e-11
-5.79725e-10
8.41137e-11
-6.61943e-10
8.99248e-11
-7.08889e-10
8.0132e-11
-7.11753e-10
2.88358e-11
-6.84062e-10
-2.24314e-11
-6.49746e-10
-3.21722e-11
-5.93122e-10
-3.89934e-11
-5.36507e-10
-2.67732e-11
-4.74624e-10
2.49437e-11
-3.97608e-10
1.14421e-10
-3.33169e-10
2.27084e-10
-2.72494e-10
2.71073e-10
-3.0978e-10
4.53217e-10
-4.48253e-10
5.2603e-10
-5.30774e-10
4.87134e-10
-6.09989e-10
5.3366e-10
-7.6074e-10
5.20578e-10
-9.23574e-10
4.12271e-10
-1.00575e-09
3.15426e-10
-9.7266e-10
3.6964e-10
-1.04157e-09
4.90218e-10
-1.18333e-09
4.74864e-10
-1.27898e-09
3.54693e-10
-1.32492e-09
2.77727e-10
-1.30345e-09
1.32523e-10
-1.30135e-09
-1.13922e-10
-1.24198e-09
-1.08797e-11
-1.21777e-09
-3.16361e-11
-1.22346e-09
-1.66513e-11
-1.22662e-09
-2.54021e-11
-1.28297e-09
-9.668e-12
-1.299e-09
3.76049e-11
-1.31036e-09
5.4956e-11
-1.32581e-09
1.36093e-10
-1.31954e-09
2.25723e-10
-1.31497e-09
2.32553e-10
-1.33841e-09
2.28128e-10
-1.34394e-09
2.15485e-10
-1.32632e-09
9.75435e-11
-1.33451e-09
1.61094e-11
-1.36089e-09
-8.45805e-11
-1.36005e-09
-1.47744e-10
-1.35223e-09
-2.17444e-10
-1.42858e-09
-2.89851e-10
-1.56895e-09
-1.93542e-10
-1.60565e-09
-2.49646e-10
-1.6725e-09
-4.22932e-10
-1.62843e-09
-4.68723e-10
-1.51736e-09
-6.99769e-10
-1.53441e-09
-8.53957e-10
-1.3597e-09
-8.90606e-10
-1.40367e-09
-1.01906e-09
-1.20103e-09
-1.00705e-09
-1.06698e-09
-8.68798e-10
-8.41224e-10
-1.02623e-09
-5.44371e-10
-9.53965e-10
-2.93885e-10
-8.26123e-10
-1.15327e-10
-6.83675e-10
1.1982e-10
-5.85275e-10
3.70964e-10
-4.96037e-10
4.68791e-10
-2.54327e-10
5.43178e-10
-1.69964e-10
5.65052e-10
-9.96114e-11
5.38945e-10
4.08351e-11
2.58442e-10
2.81947e-10
-2.33292e-10
3.61212e-10
-5.14175e-10
3.52452e-10
-9.61088e-11
6.11775e-11
-2.01787e-17
-7.67126e-10
5.57008e-19
-5.96251e-21
5.27377e-19
-9.97563e-20
6.1058e-19
-2.53822e-19
7.08574e-19
-3.29561e-19
8.10592e-19
-3.89932e-19
9.17359e-19
-4.4137e-19
1.02846e-18
-4.80545e-19
1.14181e-18
-5.04348e-19
1.25477e-18
-5.1144e-19
1.36433e-18
-5.01916e-19
1.46708e-18
-4.76693e-19
1.56022e-18
-4.37437e-19
1.64178e-18
-3.86446e-19
1.70999e-18
-3.26229e-19
1.76334e-18
-2.59194e-19
1.80111e-18
-1.87664e-19
1.82323e-18
-1.13808e-19
1.82981e-18
-3.94448e-20
1.82143e-18
3.39276e-20
1.79938e-18
1.04928e-19
1.76535e-18
1.7225e-19
1.72088e-18
2.3485e-19
1.66714e-18
2.92119e-19
1.60501e-18
3.43861e-19
1.53508e-18
3.9018e-19
1.45773e-18
4.31363e-19
1.37325e-18
4.67797e-19
1.28212e-18
4.99875e-19
1.18515e-18
5.27927e-19
1.0836e-18
5.52207e-19
9.79038e-19
5.72957e-19
8.73044e-19
5.90475e-19
7.66854e-19
6.05141e-19
6.60987e-19
6.17351e-19
5.551e-19
6.27407e-19
4.48178e-19
6.35452e-19
3.39075e-19
6.41514e-19
2.27213e-19
6.45639e-19
1.13049e-19
6.48017e-19
6.48988e-19
-6.94951e-11
1.00748e-09
-7.38247e-11
1.01624e-09
-6.81997e-11
9.55699e-10
-6.13838e-11
8.40097e-10
-8.75005e-11
7.27619e-10
-1.58918e-10
5.10168e-10
-2.18496e-10
2.59338e-10
-2.93005e-10
1.12356e-10
-3.79636e-10
2.04659e-11
-4.88509e-10
2.12574e-11
-5.86305e-10
1.10005e-10
-6.41949e-10
1.39759e-10
-6.73344e-10
1.2132e-10
-6.93878e-10
1.00668e-10
-6.66257e-10
1.21647e-12
-6.22121e-10
-6.65657e-11
-5.9291e-10
-6.13814e-11
-5.55828e-10
-7.60729e-11
-5.04178e-10
-7.84217e-11
-4.31607e-10
-4.76255e-11
-3.51154e-10
3.39707e-11
-2.21316e-10
9.7247e-11
-1.24126e-10
1.73885e-10
-2.13634e-11
3.50455e-10
-9.32086e-13
5.05599e-10
-1.30162e-10
6.16365e-10
-2.12963e-10
6.16462e-10
-2.27493e-10
5.35109e-10
-3.46675e-10
5.31454e-10
-6.17042e-10
5.85794e-10
-8.49869e-10
6.02468e-10
-9.85934e-10
6.26283e-10
-1.09473e-09
5.83655e-10
-1.17949e-09
4.39455e-10
-1.20609e-09
3.04327e-10
-1.14134e-09
6.77802e-11
-1.17838e-09
-7.68882e-11
-1.05908e-09
-1.30175e-10
-1.00467e-09
-8.60519e-11
-9.91147e-10
-3.01709e-11
-1.00778e-09
-8.77333e-12
-1.03125e-09
1.38092e-11
-1.01167e-09
1.80181e-11
-1.02203e-09
6.53226e-11
-1.00803e-09
1.22089e-10
-9.68524e-10
1.86217e-10
-9.39841e-10
2.0387e-10
-9.17133e-10
2.0542e-10
-8.80281e-10
1.78631e-10
-8.6992e-10
8.71818e-11
-8.49213e-10
-4.59868e-12
-8.60675e-10
-7.31188e-11
-8.81557e-10
-1.26863e-10
-9.29932e-10
-1.6907e-10
-1.06903e-09
-1.50758e-10
-1.12758e-09
-1.34993e-10
-1.11331e-09
-2.63916e-10
-1.251e-09
-2.85246e-10
-1.28035e-09
-4.3937e-10
-1.28071e-09
-6.99405e-10
-1.26915e-09
-8.65523e-10
-1.21665e-09
-9.43107e-10
-1.22232e-09
-1.0134e-09
-1.11646e-09
-1.1129e-09
-8.66377e-10
-1.11888e-09
-5.86061e-10
-1.30654e-09
-3.52268e-10
-1.18776e-09
-1.61948e-10
-1.01644e-09
6.14952e-11
-9.07117e-10
2.38611e-10
-7.6239e-10
3.87682e-10
-6.45108e-10
5.03587e-10
-3.70231e-10
5.95395e-10
-2.61771e-10
5.66381e-10
-7.0596e-11
5.27981e-10
7.92377e-11
4.74685e-10
3.35246e-10
3.42251e-10
4.93649e-10
1.07304e-10
5.87402e-10
2.42169e-11
1.44266e-10
9.04567e-16
-7.4291e-10
-1.7978e-20
-1.30904e-18
3.73801e-19
-4.89084e-19
5.35322e-19
-4.13594e-19
6.48233e-19
-4.40577e-19
7.59155e-19
-4.98976e-19
8.78183e-19
-5.58553e-19
1.00466e-18
-6.05441e-19
1.13472e-18
-6.33284e-19
1.2643e-18
-6.39884e-19
1.38955e-18
-6.25482e-19
1.50634e-18
-5.91504e-19
1.61121e-18
-5.40233e-19
1.702e-18
-4.74677e-19
1.77703e-18
-3.98171e-19
1.83487e-18
-3.13881e-19
1.87497e-18
-2.24798e-19
1.89759e-18
-1.33686e-19
1.90318e-18
-4.28445e-20
1.89243e-18
4.59489e-20
1.8667e-18
1.3122e-19
1.82795e-18
2.11606e-19
1.77815e-18
2.85951e-19
1.71889e-18
3.53511e-19
1.65132e-18
4.14025e-19
1.57626e-18
4.67643e-19
1.49416e-18
5.14805e-19
1.40533e-18
5.56132e-19
1.31017e-18
5.92304e-19
1.20943e-18
6.23941e-19
1.10435e-18
6.51529e-19
9.96556e-19
6.75424e-19
8.87711e-19
6.95899e-19
7.79064e-19
7.13188e-19
6.71043e-19
7.27486e-19
5.63145e-19
7.3894e-19
4.54239e-19
7.47666e-19
3.432e-19
7.5383e-19
2.29591e-19
7.57741e-19
1.14019e-19
7.59872e-19
7.60752e-19
3.06741e-11
9.76803e-10
2.15615e-11
1.02535e-09
6.04355e-12
9.71218e-10
7.09995e-12
8.39041e-10
-9.41378e-12
7.44133e-10
-4.97409e-11
5.50496e-10
-1.15459e-10
3.25057e-10
-2.11743e-10
2.08641e-10
-3.61904e-10
1.70628e-10
-4.82051e-10
1.41405e-10
-5.492e-10
1.77155e-10
-5.84431e-10
1.74992e-10
-5.71702e-10
1.08592e-10
-5.45617e-10
7.45846e-11
-5.17567e-10
-2.68325e-11
-4.31042e-10
-1.53089e-10
-3.97201e-10
-9.52213e-11
-3.8448e-10
-8.87922e-11
-3.90333e-10
-7.25667e-11
-3.7571e-10
-6.22465e-11
-3.0318e-10
-3.85573e-11
-1.99715e-10
-6.2166e-12
-9.13439e-11
6.5516e-11
3.83953e-11
2.20718e-10
1.32265e-10
4.11731e-10
1.25674e-10
6.22958e-10
8.59518e-11
6.56185e-10
-9.73442e-12
6.30797e-10
-1.06264e-10
6.27984e-10
-2.19374e-10
6.98905e-10
-4.5288e-10
8.35974e-10
-6.33729e-10
8.07132e-10
-6.6059e-10
6.10516e-10
-6.45409e-10
4.24274e-10
-5.88044e-10
2.46961e-10
-6.00587e-10
8.03234e-11
-6.91489e-10
1.40129e-11
-7.89235e-10
-3.24285e-11
-8.47624e-10
-2.76631e-11
-8.36476e-10
-4.13189e-11
-8.00513e-10
-4.47359e-11
-7.66029e-10
-2.06747e-11
-7.59617e-10
1.16056e-11
-7.54729e-10
6.04345e-11
-7.29619e-10
9.6979e-11
-6.69054e-10
1.25651e-10
-6.12385e-10
1.47199e-10
-5.59559e-10
1.52593e-10
-5.16781e-10
1.35852e-10
-4.95171e-10
6.55707e-11
-4.85649e-10
-1.41213e-11
-4.7605e-10
-8.27192e-11
-4.84781e-10
-1.18132e-10
-5.24089e-10
-1.29763e-10
-5.69233e-10
-1.05615e-10
-6.20671e-10
-8.35562e-11
-7.68692e-10
-1.15897e-10
-8.68344e-10
-1.85595e-10
-8.53554e-10
-4.54162e-10
-8.89997e-10
-6.62964e-10
-9.04976e-10
-8.50545e-10
-8.42511e-10
-1.00557e-09
-7.74571e-10
-1.08134e-09
-6.85413e-10
-1.20206e-09
-4.64249e-10
-1.34005e-09
-3.41365e-10
-1.42943e-09
-1.6788e-10
-1.36124e-09
8.52441e-11
-1.26956e-09
2.57687e-10
-1.07956e-09
4.27274e-10
-9.31977e-10
5.15123e-10
-7.32957e-10
5.63383e-10
-4.18492e-10
6.73058e-10
-3.71446e-10
6.47552e-10
-4.50901e-11
6.00099e-10
1.26692e-10
6.27263e-10
3.08083e-10
6.2407e-10
4.96843e-10
6.33857e-10
5.77616e-10
3.46157e-10
4.31965e-10
6.91474e-16
-3.96756e-10
3.22912e-19
-2.0329e-18
4.49765e-19
-6.15471e-19
5.08813e-19
-4.72533e-19
5.89879e-19
-5.21446e-19
6.99578e-19
-6.08469e-19
8.31295e-19
-6.89838e-19
9.76813e-19
-7.50415e-19
1.12812e-18
-7.84376e-19
1.2787e-18
-7.90298e-19
1.42353e-18
-7.69418e-19
1.55761e-18
-7.24225e-19
1.67677e-18
-6.58011e-19
1.77851e-18
-5.74734e-19
1.86132e-18
-4.78756e-19
1.92396e-18
-3.74184e-19
1.96608e-18
-2.64797e-19
1.98843e-18
-1.54042e-19
1.99198e-18
-4.47939e-20
1.9777e-18
6.08266e-20
1.94708e-18
1.61271e-19
1.9023e-18
2.55262e-19
1.84571e-18
3.41718e-19
1.7794e-18
4.19905e-19
1.70494e-18
4.89555e-19
1.62342e-18
5.50854e-19
1.53549e-18
6.04342e-19
1.4415e-18
6.50803e-19
1.3418e-18
6.91124e-19
1.23702e-18
7.26159e-19
1.12825e-18
7.56605e-19
1.01703e-18
7.82964e-19
9.04999e-19
8.05553e-19
7.93362e-19
8.2456e-19
6.82497e-19
8.4009e-19
5.71871e-19
8.52235e-19
4.60403e-19
8.61155e-19
3.47111e-19
8.67178e-19
2.31722e-19
8.7084e-19
1.14899e-19
8.72821e-19
8.73751e-19
4.67891e-11
9.30014e-10
6.76644e-11
1.00447e-09
8.28593e-11
9.56024e-10
6.59427e-11
8.55958e-10
5.02088e-11
7.59868e-10
6.92531e-13
6.00013e-10
-7.18927e-11
3.97643e-10
-1.56602e-10
2.93351e-10
-2.88656e-10
3.02684e-10
-4.11936e-10
2.64685e-10
-4.74237e-10
2.39457e-10
-4.49127e-10
1.49883e-10
-4.45422e-10
1.04888e-10
-3.83785e-10
1.29488e-11
-3.47739e-10
-6.28764e-11
-2.71587e-10
-2.2924e-10
-2.04701e-10
-1.62106e-10
-1.70515e-10
-1.22977e-10
-1.69687e-10
-7.33926e-11
-2.0699e-10
-2.49412e-11
-2.05873e-10
-3.96724e-11
-1.44787e-10
-6.73009e-11
-4.9816e-11
-2.94538e-11
3.24663e-11
1.38437e-10
1.40801e-10
3.03397e-10
1.93521e-10
5.70239e-10
2.08633e-10
6.41075e-10
1.32298e-10
7.07132e-10
2.98591e-11
7.30424e-10
-4.35546e-11
7.7232e-10
2.82632e-11
7.64157e-10
1.08183e-10
7.27214e-10
9.78251e-11
6.20874e-10
5.29752e-11
4.69124e-10
-4.75453e-11
3.47482e-10
-1.77492e-10
2.10269e-10
-2.77558e-10
1.14079e-10
-3.67308e-10
5.73213e-11
-4.45419e-10
5.04482e-11
-5.37073e-10
5.03352e-11
-6.29444e-10
4.76353e-11
-6.4359e-10
-6.52784e-12
-5.94149e-10
-3.7835e-11
-5.21951e-10
-1.17635e-11
-4.71565e-10
4.65925e-11
-4.31521e-10
8.56061e-11
-3.97186e-10
1.12864e-10
-3.60732e-10
1.16139e-10
-3.3313e-10
1.08249e-10
-3.32273e-10
6.47128e-11
-3.45744e-10
-6.50301e-13
-3.60849e-10
-6.76152e-11
-3.48497e-10
-1.30485e-10
-3.43692e-10
-1.34569e-10
-3.36296e-10
-1.13012e-10
-2.89298e-10
-1.30555e-10
-2.79655e-10
-1.25541e-10
-3.24943e-10
-1.40309e-10
-4.69795e-10
-3.09311e-10
-5.73336e-10
-5.59423e-10
-5.93481e-10
-8.304e-10
-5.89815e-10
-1.00924e-09
-5.59989e-10
-1.11116e-09
-4.33342e-10
-1.32871e-09
-2.47695e-10
-1.52569e-09
-6.13391e-11
-1.61578e-09
8.58179e-11
-1.5084e-09
2.52745e-10
-1.43649e-09
3.82504e-10
-1.20932e-09
5.04319e-10
-1.05379e-09
5.67435e-10
-7.96072e-10
6.39343e-10
-4.904e-10
6.92493e-10
-4.24597e-10
6.86879e-10
-3.94761e-11
6.56406e-10
1.57165e-10
6.4101e-10
3.23479e-10
6.77952e-10
4.59901e-10
7.69105e-10
4.86461e-10
6.02549e-10
5.98518e-10
-3.00124e-16
2.05792e-10
1.28275e-18
8.9559e-19
5.93173e-19
7.33737e-20
4.60372e-19
-3.39391e-19
5.02916e-19
-5.63556e-19
6.18209e-19
-7.23372e-19
7.70718e-19
-8.41596e-19
9.42852e-19
-9.21318e-19
1.1222e-18
-9.62707e-19
1.29958e-18
-9.6696e-19
1.46872e-18
-9.37153e-19
1.62383e-18
-8.77408e-19
1.76005e-18
-7.92494e-19
1.87448e-18
-6.87615e-19
1.96589e-18
-5.6838e-19
2.03334e-18
-4.40018e-19
2.07684e-18
-3.07205e-19
2.09768e-18
-1.74088e-19
2.0976e-18
-4.41478e-20
2.07814e-18
8.01022e-20
2.04107e-18
1.97012e-19
1.98875e-18
3.05443e-19
1.9239e-18
4.04525e-19
1.84905e-18
4.93676e-19
1.76624e-18
5.72703e-19
1.67691e-18
6.41837e-19
1.58195e-18
7.0169e-19
1.48182e-18
7.5316e-19
1.37684e-18
7.97306e-19
1.26747e-18
8.35191e-19
1.15461e-18
8.67736e-19
1.03962e-18
8.95638e-19
9.24006e-19
9.19351e-19
8.08892e-19
9.3912e-19
6.94642e-19
9.55073e-19
5.80792e-19
9.67323e-19
4.66426e-19
9.76108e-19
3.50773e-19
9.8189e-19
2.33703e-19
9.8536e-19
1.15829e-19
9.87308e-19
9.88383e-19
6.68835e-11
8.63131e-10
1.1843e-10
9.52929e-10
1.42338e-10
9.32117e-10
1.20524e-10
8.77774e-10
1.23271e-10
7.57122e-10
1.10635e-10
6.1265e-10
2.04373e-13
5.08075e-10
-1.22119e-10
4.15676e-10
-1.90527e-10
3.71092e-10
-3.20058e-10
3.94218e-10
-3.86167e-10
3.05567e-10
-3.66576e-10
1.30293e-10
-3.51165e-10
8.94782e-11
-3.11264e-10
-2.69511e-11
-2.41712e-10
-1.32427e-10
-1.90894e-10
-2.80056e-10
-9.55177e-11
-2.57481e-10
-4.49478e-11
-1.73545e-10
-9.01106e-12
-1.09328e-10
-3.75093e-11
3.55886e-12
-5.77606e-11
-1.94192e-11
-5.96937e-11
-6.5366e-11
-6.60168e-11
-2.3129e-11
-1.80399e-11
9.04616e-11
7.02179e-11
2.15141e-10
1.92251e-10
4.48207e-10
2.6228e-10
5.71047e-10
2.73255e-10
6.96159e-10
2.78963e-10
7.24717e-10
2.91067e-10
7.60217e-10
2.94012e-10
7.61212e-10
2.78912e-10
7.42315e-10
2.35598e-10
6.64188e-10
1.92353e-10
5.12369e-10
1.4623e-10
3.93606e-10
8.45639e-11
2.71935e-10
2.2885e-11
1.75758e-10
-4.00227e-11
1.20229e-10
-7.58269e-11
8.62525e-11
-6.12074e-11
3.5716e-11
-1.06912e-10
9.33407e-11
-2.18461e-10
1.05021e-10
-3.49027e-10
9.27318e-11
-4.10415e-10
4.96244e-11
-3.90261e-10
2.64384e-11
-3.31169e-10
2.65129e-11
-2.64763e-10
4.64569e-11
-2.0815e-10
5.9525e-11
-2.02299e-10
1.02396e-10
-2.5367e-10
1.16083e-10
-3.13178e-10
5.88577e-11
-3.42781e-10
-3.80129e-11
-3.38995e-10
-1.34272e-10
-3.19944e-10
-1.5362e-10
-2.85109e-10
-1.47847e-10
-1.98593e-10
-2.17072e-10
-1.13458e-10
-2.10678e-10
-6.15421e-11
-1.92226e-10
-1.00663e-10
-2.7019e-10
-2.07238e-10
-4.52848e-10
-2.8328e-10
-7.54359e-10
-3.24413e-10
-9.68106e-10
-2.3053e-10
-1.20505e-09
-5.60376e-11
-1.5032e-09
4.49467e-11
-1.62667e-09
1.47541e-10
-1.71837e-09
2.76408e-10
-1.63726e-09
3.86542e-10
-1.54663e-09
5.15299e-10
-1.33808e-09
6.17032e-10
-1.15553e-09
6.00166e-10
-7.79206e-10
7.49153e-10
-6.39387e-10
5.72799e-10
-2.48243e-10
6.36802e-10
-1.03479e-10
5.83223e-10
2.10744e-10
5.71351e-10
3.35349e-10
4.98344e-10
5.32906e-10
4.06769e-10
5.78035e-10
3.12775e-10
6.9251e-10
-1.00438e-15
5.18569e-10
3.62104e-20
-3.33141e-19
1.80913e-19
-7.17376e-20
2.36685e-19
-3.93742e-19
3.43175e-19
-6.68563e-19
4.99985e-19
-8.78894e-19
6.90997e-19
-1.03102e-18
9.01463e-19
-1.12939e-18
1.11795e-18
-1.1768e-18
1.32939e-18
-1.17656e-18
1.52847e-18
-1.13375e-18
1.70874e-18
-1.05456e-18
1.86493e-18
-9.45697e-19
1.99372e-18
-8.14041e-19
2.09425e-18
-6.66682e-19
2.16616e-18
-5.10163e-19
2.20995e-18
-3.50177e-19
2.22762e-18
-1.91571e-19
2.22185e-18
-3.83721e-20
2.19505e-18
1.0652e-19
2.1495e-18
2.41333e-19
2.08784e-18
3.65078e-19
2.01305e-18
4.77189e-19
1.92808e-18
5.77375e-19
1.83538e-18
6.65635e-19
1.73676e-18
7.42312e-19
1.63342e-18