0 	1.08887e-20 	0 	-4.71843e-20
0.010101 	7.76241e-21 	2.71034e-22 	-2.79812e-20
0.020202 	3.47231e-21 	1.02063e-22 	-7.54117e-20
0.030303 	-1.57344e-20 	1.70329e-25 	-3.99129e-20
0.040404 	2.613e-20 	3.38622e-22 	-2.80342e-20
0.0505051 	-2.52885e-20 	2.02935e-22 	8.62612e-21
