/*--------------------------------*- C++ -*----------------------------------*\
  =========                 |
  \\      /  F ield         | OpenFOAM: The Open Source CFD Toolbox
   \\    /   O peration     | Website:  https://openfoam.org
    \\  /    A nd           | Version:  6
     \\/     M anipulation  |
\*---------------------------------------------------------------------------*/
FoamFile
{
    version     2.0;
    format      ascii;
    class       surfaceScalarField;
    location    "2600";
    object      phi;
}
// * * * * * * * * * * * * * * * * * * * * * * * * * * * * * * * * * * * * * //

dimensions      [0 3 -1 0 0 0 0];

internalField   nonuniform List<scalar> 
9440
(
9.5008e-16
-9.50285e-16
1.51558e-15
-5.41809e-16
1.49501e-15
3.88309e-17
8.06137e-16
7.04939e-16
-6.781e-16
1.50266e-15
-3.06379e-15
2.40166e-15
-6.43522e-15
3.38684e-15
-1.08528e-14
4.4307e-15
-1.63266e-14
5.4863e-15
-2.27548e-14
6.43682e-15
-3.00835e-14
7.33734e-15
-3.81547e-14
8.07651e-15
-4.67181e-14
8.56867e-15
-5.59765e-14
9.261e-15
-6.57415e-14
9.76556e-15
-7.6281e-14
1.05387e-14
-8.72032e-14
1.09188e-14
-9.65261e-14
9.31736e-15
-1.05657e-13
9.12365e-15
-1.15359e-13
9.69243e-15
-1.25687e-13
1.03181e-14
-1.32381e-13
6.6827e-15
-1.39912e-13
7.51884e-15
-1.467e-13
6.77213e-15
-1.52324e-13
5.60672e-15
-1.57106e-13
4.76524e-15
-1.61066e-13
3.93901e-15
-1.64119e-13
3.03191e-15
-1.66227e-13
2.08476e-15
-1.67349e-13
1.09581e-15
-1.67498e-13
1.2124e-16
-1.66686e-13
-8.40026e-16
-1.64927e-13
-1.78999e-15
-1.62196e-13
-2.76165e-15
-1.58468e-13
-3.7615e-15
-1.53878e-13
-4.62296e-15
-1.48335e-13
-5.57666e-15
-1.41945e-13
-6.42639e-15
-1.34663e-13
-7.31754e-15
-1.26586e-13
-8.11097e-15
-1.17712e-13
-8.90918e-15
-1.08119e-13
-9.62938e-15
-9.7845e-14
-1.03066e-14
-8.69535e-14
-1.09238e-14
-7.55732e-14
-1.14112e-14
-6.37093e-14
-1.18948e-14
-5.14545e-14
-1.22827e-14
-3.89737e-14
-1.25088e-14
-2.63028e-14
-1.26968e-14
-1.35761e-14
-1.27516e-14
-9.09566e-16
-1.26901e-14
1.1597e-14
-1.25268e-14
2.37968e-14
-1.22175e-14
3.55569e-14
-1.1776e-14
4.6762e-14
-1.12189e-14
5.73439e-14
-1.05924e-14
6.7179e-14
-9.84344e-15
7.61894e-14
-9.01635e-15
8.42363e-14
-8.0486e-15
9.13363e-14
-7.09917e-15
9.74186e-14
-6.07932e-15
1.02452e-13
-5.02717e-15
1.06428e-13
-3.96744e-15
1.09361e-13
-2.92102e-15
1.11249e-13
-1.87576e-15
1.12215e-13
-9.49476e-16
1.12275e-13
-4.14667e-17
1.1155e-13
7.4869e-16
1.10188e-13
1.38664e-15
1.08423e-13
1.79075e-15
1.0645e-13
2.00309e-15
1.04654e-13
1.82882e-15
1.03678e-13
1.00925e-15
1.05132e-13
-1.41849e-15
1.13132e-13
-7.9611e-15
1.403e-13
-2.71307e-14
2.26706e-13
-8.63662e-14
9.84345e-14
1.28312e-13
-2.50182e-17
9.84986e-14
2.18389e-21
-2.19717e-21
2.18551e-21
-2.48154e-24
2.18221e-21
3.30872e-24
2.17486e-21
9.82277e-24
2.16054e-21
1.62334e-23
2.13935e-21
2.23339e-23
2.1119e-21
2.81758e-23
2.07834e-21
3.36042e-23
2.03936e-21
3.87224e-23
1.99552e-21
4.3427e-23
1.94718e-21
4.76663e-23
1.89471e-21
5.1492e-23
1.83877e-21
5.48524e-23
1.77978e-21
5.79026e-23
1.71811e-21
6.02291e-23
1.6541e-21
6.23487e-23
1.58819e-21
6.40548e-23
1.52098e-21
6.52956e-23
1.45253e-21
6.61745e-23
1.38315e-21
6.68465e-23
1.31341e-21
6.72601e-23
1.24325e-21
6.72084e-23
1.17299e-21
6.70533e-23
1.10289e-21
6.66914e-23
1.03299e-21
6.61228e-23
9.63562e-22
6.5399e-23
8.94648e-22
6.46235e-23
8.26198e-22
6.37446e-23
7.58473e-22
6.2814e-23
6.9142e-22
6.17801e-23
6.25142e-22
6.07978e-23
5.59536e-22
5.98672e-23
4.94809e-22
5.88849e-23
4.30548e-22
5.8006e-23
3.66958e-22
5.71789e-23
3.04144e-22
5.64034e-23
2.41744e-22
5.56279e-23
1.80067e-22
5.50592e-23
1.18752e-22
5.43871e-23
5.83679e-23
5.34566e-23
5.14403e-23
1.82177e-15
-2.74728e-15
1.98821e-15
-6.725e-16
1.64946e-15
4.07168e-16
8.20818e-16
1.56387e-15
-6.73455e-16
3.02328e-15
-3.04524e-15
4.7974e-15
-6.41444e-15
6.78162e-15
-1.08411e-14
8.87983e-15
-1.6263e-14
1.09253e-14
-2.27034e-14
1.28948e-14
-3.0038e-14
1.46853e-14
-3.81084e-14
1.61571e-14
-4.6715e-14
1.71792e-14
-5.59749e-14
1.85212e-14
-6.58081e-14
1.95945e-14
-7.68308e-14
2.1555e-14
-8.7395e-14
2.1474e-14
-9.67535e-14
1.8663e-14
-1.06082e-13
1.8436e-14
-1.162e-13
1.97944e-14
-1.26039e-13
2.01341e-14
-1.3317e-13
1.379e-14
-1.40711e-13
1.50318e-14
-1.47597e-13
1.36285e-14
-1.53165e-13
1.11393e-14
-1.58048e-13
9.61394e-15
-1.62028e-13
7.8813e-15
-1.65089e-13
6.04953e-15
-1.67171e-13
4.11816e-15
-1.68296e-13
2.17257e-15
-1.68458e-13
2.29846e-16
-1.67672e-13
-1.68049e-15
-1.65842e-13
-3.67595e-15
-1.63109e-13
-5.553e-15
-1.59438e-13
-7.49249e-15
-1.54756e-13
-9.36616e-15
-1.49204e-13
-1.11931e-14
-1.42794e-13
-1.28995e-14
-1.35489e-13
-1.46838e-14
-1.27344e-13
-1.63197e-14
-1.18446e-13
-1.78684e-14
-1.08777e-13
-1.93588e-14
-9.84575e-14
-2.06831e-14
-8.75408e-14
-2.18969e-14
-7.59998e-14
-2.30057e-14
-6.40452e-14
-2.39024e-14
-5.16959e-14
-2.46813e-14
-3.90968e-14
-2.51553e-14
-2.63026e-14
-2.55338e-14
-1.34621e-14
-2.56336e-14
-6.85502e-16
-2.55015e-14
1.18913e-14
-2.51368e-14
2.41914e-14
-2.45441e-14
3.60891e-14
-2.36977e-14
4.74062e-14
-2.25526e-14
5.81171e-14
-2.13195e-14
6.80574e-14
-1.97937e-14
7.71162e-14
-1.80781e-14
8.52214e-14
-1.61516e-14
9.23798e-14
-1.42512e-14
9.84913e-14
-1.21777e-14
1.03565e-13
-1.00856e-14
1.07516e-13
-7.89668e-15
1.10367e-13
-5.74458e-15
1.12237e-13
-3.71341e-15
1.13105e-13
-1.78081e-15
1.13028e-13
7.63454e-17
1.12172e-13
1.64984e-15
1.10691e-13
2.91525e-15
1.0869e-13
3.84682e-15
1.06313e-13
4.43571e-15
1.03799e-13
4.40353e-15
1.01434e-13
3.43646e-15
9.90686e-14
1.01253e-15
9.5311e-14
-4.13636e-15
8.23392e-14
-1.40903e-14
2.6906e-14
-3.08641e-14
2.86957e-14
1.26595e-13
-1.91417e-17
1.27271e-13
2.15742e-21
-4.71201e-21
2.19136e-21
-5.32498e-24
2.18867e-21
7.49633e-24
2.18133e-21
2.02659e-23
2.16664e-21
3.27253e-23
2.14519e-21
4.47712e-23
2.11732e-21
5.62483e-23
2.08351e-21
6.7105e-23
2.04412e-21
7.71863e-23
1.99981e-21
8.64404e-23
1.95096e-21
9.48673e-23
1.89807e-21
1.02415e-22
1.84172e-21
1.09033e-22
1.78216e-21
1.14771e-22
1.72023e-21
1.19579e-22
1.65576e-21
1.23457e-22
1.58943e-21
1.26507e-22
1.52191e-21
1.28937e-22
1.45315e-21
1.30539e-22
1.38356e-21
1.31522e-22
1.31336e-21
1.31935e-22
1.24315e-21
1.31884e-22
1.17258e-21
1.3116e-22
1.10227e-21
1.30178e-22
1.03227e-21
1.28833e-22
9.62735e-22
1.27179e-22
8.93769e-22
1.2537e-22
8.25216e-22
1.23302e-22
7.57439e-22
1.21182e-22
6.90437e-22
1.19011e-22
6.2416e-22
1.16891e-22
5.58605e-22
1.1472e-22
4.93879e-22
1.12703e-22
4.29772e-22
1.10739e-22
3.66234e-22
1.08929e-22
3.03369e-22
1.07327e-22
2.41123e-22
1.05931e-22
1.79447e-22
1.04742e-22
1.1777e-22
1.03656e-22
5.63e-23
1.02777e-22
1.02312e-22
6.59373e-16
-3.38707e-15
2.12139e-15
-2.10272e-15
3.06082e-15
-5.03852e-16
3.11246e-15
1.53963e-15
2.16377e-15
3.99763e-15
1.494e-16
6.83507e-15
-3.05914e-15
1.00126e-14
-7.44072e-15
1.32822e-14
-1.30222e-14
1.65231e-14
-1.9693e-14
1.95799e-14
-2.73667e-14
2.23722e-14
-3.57709e-14
2.45705e-14
-4.4914e-14
2.63256e-14
-5.46104e-14
2.82186e-14
-6.50658e-14
3.00505e-14
-7.70973e-14
3.35811e-14
-8.73486e-14
3.17185e-14
-9.69064e-14
2.82093e-14
-1.06899e-13
2.84147e-14
-1.17945e-13
3.08243e-14
-1.26658e-13
2.88281e-14
-1.34555e-13
2.16664e-14
-1.42265e-13
2.27178e-14
-1.4927e-13
2.06092e-14
-1.54821e-13
1.66582e-14
-1.59856e-13
1.46161e-14
-1.63907e-13
1.18959e-14
-1.67e-13
9.10479e-15
-1.69119e-13
6.19681e-15
-1.70278e-13
3.29179e-15
-1.7045e-13
3.59445e-16
-1.69619e-13
-2.55995e-15
-1.67797e-13
-5.54482e-15
-1.65012e-13
-8.39023e-15
-1.61279e-13
-1.12773e-14
-1.56605e-13
-1.4093e-14
-1.50996e-13
-1.68542e-14
-1.44513e-13
-1.9437e-14
-1.37096e-13
-2.21552e-14
-1.28866e-13
-2.46035e-14
-1.19858e-13
-2.69287e-14
-1.10142e-13
-2.91245e-14
-9.96423e-14
-3.12326e-14
-8.85526e-14
-3.30351e-14
-7.68838e-14
-3.47225e-14
-6.47756e-14
-3.60565e-14
-5.22662e-14
-3.72326e-14
-3.94294e-14
-3.80344e-14
-2.64398e-14
-3.85616e-14
-1.3358e-14
-3.87509e-14
-3.40702e-16
-3.85484e-14
1.25275e-14
-3.80315e-14
2.50555e-14
-3.70988e-14
3.71558e-14
-3.58191e-14
4.8694e-14
-3.41074e-14
5.96499e-14
-3.22888e-14
6.97631e-14
-2.99142e-14
7.89844e-14
-2.73048e-14
8.72489e-14
-2.44147e-14
9.44841e-14
-2.14801e-14
1.00654e-13
-1.83387e-14
1.05684e-13
-1.51045e-14
1.09591e-13
-1.17877e-14
1.12449e-13
-8.58074e-15
1.14156e-13
-5.39425e-15
1.14814e-13
-2.40709e-15
1.14572e-13
3.51761e-16
1.13461e-13
2.7999e-15
1.11632e-13
4.78682e-15
1.09187e-13
6.33836e-15
1.06224e-13
7.44747e-15
1.02913e-13
7.76837e-15
9.89944e-14
7.40914e-15
9.38461e-14
6.2192e-15
8.50785e-14
4.69051e-15
6.62134e-14
4.83515e-15
2.06496e-14
1.47613e-14
1.64777e-14
1.30827e-13
-1.8719e-17
1.43818e-13
2.15742e-21
-6.85627e-21
2.20413e-21
-7.70312e-24
2.20144e-21
1.16322e-23
2.19384e-21
3.08642e-23
2.17864e-21
4.95791e-23
2.15667e-21
6.77771e-23
2.12818e-21
8.50445e-23
2.09354e-21
1.0133e-22
2.05337e-21
1.16477e-22
2.00824e-21
1.30539e-22
1.95851e-21
1.43206e-22
1.90474e-21
1.54424e-22
1.84746e-21
1.64195e-22
1.78702e-21
1.72726e-22
1.7241e-21
1.79912e-22
1.65881e-21
1.85702e-22
1.59181e-21
1.90303e-22
1.52356e-21
1.93715e-22
1.45413e-21
1.96094e-22
1.38398e-21
1.97541e-22
1.3133e-21
1.978e-22
1.24248e-21
1.97593e-22
1.1716e-21
1.96507e-22
1.10098e-21
1.94853e-22
1.03072e-21
1.92681e-22
9.60874e-22
1.90148e-22
8.91701e-22
1.87253e-22
8.23148e-22
1.84151e-22
7.55216e-22
1.80894e-22
6.88318e-22
1.77637e-22
6.21988e-22
1.74328e-22
5.56641e-22
1.7102e-22
4.91966e-22
1.67866e-22
4.27859e-22
1.64816e-22
3.6458e-22
1.62076e-22
3.01973e-22
1.59698e-22
2.39986e-22
1.57578e-22
1.78309e-22
1.55872e-22
1.16943e-22
1.54476e-22
5.5783e-23
1.53597e-22
1.53132e-22
1.75417e-15
-5.12363e-15
3.67801e-15
-3.99434e-15
5.16581e-15
-1.96506e-15
5.76633e-15
9.63011e-16
5.28642e-15
4.50324e-15
3.50549e-15
8.64042e-15
4.43182e-16
1.30979e-14
-3.95543e-15
1.76999e-14
-9.68285e-15
2.22697e-14
-1.66635e-14
2.65776e-14
-2.46654e-14
3.03864e-14
-3.34725e-14
3.33898e-14
-4.33722e-14
3.62337e-14
-5.33788e-14
3.82294e-14
-6.46012e-14
4.12735e-14
-7.78922e-14
4.68677e-14
-8.75669e-14
4.13847e-14
-9.73996e-14
3.80334e-14
-1.08207e-13
3.92083e-14
-1.20971e-13
4.35724e-14
-1.27385e-13
3.52248e-14
-1.36827e-13
3.10877e-14
-1.44685e-13
3.05513e-14
-1.51762e-13
2.76624e-14
-1.57436e-13
2.23022e-14
-1.62626e-13
1.97783e-14
-1.66747e-13
1.59824e-14
-1.69917e-13
1.224e-14
-1.72064e-13
8.30283e-15
-1.73275e-13
4.46167e-15
-1.73421e-13
4.62811e-16
-1.72545e-13
-3.47955e-15
-1.70716e-13
-7.42125e-15
-1.67872e-13
-1.12856e-14
-1.6409e-13
-1.51081e-14
-1.5934e-13
-1.88918e-14
-1.53689e-13
-2.25588e-14
-1.47081e-13
-2.60951e-14
-1.39602e-13
-2.96866e-14
-1.3127e-13
-3.29873e-14
-1.22055e-13
-3.61931e-14
-1.12123e-13
-3.91093e-14
-1.01516e-13
-4.18888e-14
-9.01891e-14
-4.44078e-14
-7.83167e-14
-4.66411e-14
-6.58915e-14
-4.85243e-14
-5.30771e-14
-5.00854e-14
-3.99667e-14
-5.11864e-14
-2.66412e-14
-5.19216e-14
-1.32056e-14
-5.22199e-14
1.8364e-16
-5.19656e-14
1.3376e-14
-5.12506e-14
2.63031e-14
-5.00483e-14
3.87931e-14
-4.83306e-14
5.07215e-14
-4.60519e-14
6.19202e-14
-4.34985e-14
7.22838e-14
-4.02862e-14
8.17739e-14
-3.67996e-14
9.02677e-14
-3.29073e-14
9.76555e-14
-2.88626e-14
1.03889e-13
-2.45621e-14
1.08996e-13
-2.01978e-14
1.12885e-13
-1.56591e-14
1.15583e-13
-1.12556e-14
1.17146e-13
-6.93033e-15
1.17578e-13
-2.8098e-15
1.17019e-13
9.47226e-16
1.15519e-13
4.33955e-15
1.13193e-13
7.15497e-15
1.1018e-13
9.39818e-15
1.06611e-13
1.10658e-14
1.0251e-13
1.1919e-14
9.78499e-14
1.21222e-14
9.2192e-14
1.19321e-14
8.48139e-14
1.21273e-14
7.54445e-14
1.42662e-14
6.88517e-14
2.14154e-14
1.41439e-14
1.85596e-13
-1.83893e-17
1.58029e-13
2.2236e-21
-9.3446e-21
2.22346e-21
-1.065e-23
2.22067e-21
1.56647e-23
2.21255e-21
4.15658e-23
2.19689e-21
6.69499e-23
2.17393e-21
9.15069e-23
2.14452e-21
1.14823e-22
2.10874e-21
1.36743e-22
2.06733e-21
1.57216e-22
2.02091e-21
1.75828e-22
1.96967e-21
1.92733e-22
1.91451e-21
2.07829e-22
1.85593e-21
2.21012e-22
1.79421e-21
2.32179e-22
1.72989e-21
2.41588e-22
1.66346e-21
2.49188e-22
1.59522e-21
2.55185e-22
1.52589e-21
2.59631e-22
1.45558e-21
2.62526e-22
1.38429e-21
2.64129e-22
1.31305e-21
2.64646e-22
1.24139e-21
2.63974e-22
1.16989e-21
2.62423e-22
1.09881e-21
2.60148e-22
1.02819e-21
2.57098e-22
9.57979e-22
2.53583e-22
8.88599e-22
2.4955e-22
8.19891e-22
2.45259e-22
7.52011e-22
2.40865e-22
6.85009e-22
2.36367e-22
6.18628e-22
2.31766e-22
5.53436e-22
2.27423e-22
4.88915e-22
2.23132e-22
4.25171e-22
2.19048e-22
3.62202e-22
2.15325e-22
2.99853e-22
2.12068e-22
2.3828e-22
2.09328e-22
1.76965e-22
2.0695e-22
1.16064e-22
2.05296e-22
5.53694e-23
2.04107e-22
2.03538e-22
3.01504e-15
-8.11852e-15
5.82403e-15
-6.77062e-15
7.99205e-15
-4.10214e-15
9.28714e-15
-3.04004e-16
9.27514e-15
4.54386e-15
7.86428e-15
1.00771e-14
4.96163e-15
1.60259e-14
5.22286e-16
2.21615e-14
-5.41412e-15
2.82244e-14
-1.27106e-14
3.38919e-14
-2.11324e-14
3.88227e-14
-3.06239e-14
4.28934e-14
-4.13564e-14
4.69716e-14
-5.1796e-14
4.86725e-14
-6.47327e-14
5.42096e-14
-7.7883e-14
6.00129e-14
-8.78294e-14
5.13248e-14
-9.86539e-14
4.88481e-14
-1.10703e-13
5.12441e-14
-1.23686e-13
5.6538e-14
-1.29587e-13
4.11084e-14
-1.39825e-13
4.13029e-14
-1.48012e-13
3.87149e-14
-1.54931e-13
3.45555e-14
-1.61047e-13
2.83895e-14
-1.6634e-13
2.50423e-14
-1.70577e-13
2.01877e-14
-1.73783e-13
1.541e-14
-1.76034e-13
1.05186e-14
-1.77215e-13
5.60308e-15
-1.77346e-13
5.53485e-16
-1.76512e-13
-4.35548e-15
-1.7465e-13
-9.32687e-15
-1.71751e-13
-1.42308e-14
-1.67901e-13
-1.90081e-14
-1.63036e-13
-2.38052e-14
-1.57293e-13
-2.83509e-14
-1.50535e-13
-3.29039e-14
-1.42882e-13
-3.73911e-14
-1.34402e-13
-4.1518e-14
-1.25057e-13
-4.55886e-14
-1.149e-13
-4.93129e-14
-1.0402e-13
-5.28172e-14
-9.24077e-14
-5.60691e-14
-8.01733e-14
-5.89186e-14
-6.7411e-14
-6.13318e-14
-5.4223e-14
-6.33139e-14
-4.06486e-14
-6.47966e-14
-2.68778e-14
-6.57284e-14
-1.29896e-14
-6.61399e-14
9.35544e-16
-6.59189e-14
1.46151e-14
-6.49538e-14
2.80613e-14
-6.35187e-14
4.10143e-14
-6.13e-14
5.3361e-14
-5.84173e-14
6.5035e-14
-5.51837e-14
7.58016e-14
-5.10602e-14
8.5619e-14
-4.66179e-14
9.43987e-14
-4.16859e-14
1.01959e-13
-3.64169e-14
1.08312e-13
-3.09026e-14
1.13444e-13
-2.5315e-14
1.17259e-13
-1.94556e-14
1.19862e-13
-1.38337e-14
1.21205e-13
-8.24702e-15
1.21311e-13
-2.88282e-15
1.20323e-13
1.97317e-15
1.18343e-13
6.35935e-15
1.15477e-13
1.00655e-14
1.11747e-13
1.31722e-14
1.07488e-13
1.53759e-14
1.027e-13
1.67601e-14
9.76353e-14
1.72409e-14
9.24013e-14
1.72225e-14
8.73182e-14
1.72686e-14
8.33055e-14
1.83367e-14
7.82823e-14
2.64995e-14
1.38091e-14
2.5013e-13
-1.82474e-17
1.71909e-13
2.2236e-21
-1.14888e-20
2.24972e-21
-1.31315e-23
2.24662e-21
2.03176e-23
2.23794e-21
5.32498e-23
2.22139e-21
8.53547e-23
2.19735e-21
1.16271e-22
2.16633e-21
1.45842e-22
2.12916e-21
1.73605e-22
2.08599e-21
1.99299e-22
2.03776e-21
2.22873e-22
1.98487e-21
2.44018e-22
1.92769e-21
2.62837e-22
1.86715e-21
2.79277e-22
1.80367e-21
2.93184e-22
1.73754e-21
3.04868e-22
1.66941e-21
3.14277e-22
1.59966e-21
3.21463e-22
1.52879e-21
3.26788e-22
1.45713e-21
3.302e-22
1.3848e-21
3.31958e-22
1.31237e-21
3.32216e-22
1.23984e-21
3.31182e-22
1.16762e-21
3.29011e-22
1.09581e-21
3.25857e-22
1.02462e-21
3.21928e-22
9.5405e-22
3.17379e-22
8.84308e-22
3.12261e-22
8.15497e-22
3.06781e-22
7.47461e-22
3.0099e-22
6.80408e-22
2.95097e-22
6.14285e-22
2.8941e-22
5.49145e-22
2.83671e-22
4.84883e-22
2.78243e-22
4.215e-22
2.73228e-22
3.58945e-22
2.68627e-22
2.97061e-22
2.64594e-22
2.35953e-22
2.61027e-22
1.75259e-22
2.5808e-22
1.14926e-22
2.55857e-22
5.48524e-23
2.54513e-22
2.53944e-22
4.40863e-15
-1.25063e-14
8.53812e-15
-1.08691e-14
1.188e-14
-7.41411e-15
1.40592e-14
-2.45374e-15
1.47743e-14
3.85703e-15
1.38443e-14
1.10335e-14
1.11477e-14
1.87478e-14
6.60215e-15
2.67299e-14
3.48109e-16
3.44988e-14
-7.37768e-15
4.16373e-14
-1.63766e-14
4.78388e-14
-2.72509e-14
5.3782e-14
-3.80594e-14
5.77915e-14
-4.99335e-14
6.05525e-14
-6.60904e-14
7.03702e-14
-7.66883e-14
7.0609e-14
-8.8029e-14
6.26606e-14
-1.00333e-13
6.11431e-14
-1.14772e-13
6.56714e-14
-1.24904e-13
6.66537e-14
-1.33257e-13
4.94431e-14
-1.43501e-13
5.15226e-14
-1.52221e-13
4.74124e-14
-1.58984e-13
4.12923e-14
-1.65723e-13
3.50994e-14
-1.71061e-13
3.03487e-14
-1.75436e-13
2.4531e-14
-1.78757e-13
1.86947e-14
-1.81022e-13
1.27473e-14
-1.82176e-13
6.72086e-15
-1.82345e-13
6.82462e-16
-1.81438e-13
-5.30585e-15
-1.79508e-13
-1.12985e-14
-1.76586e-13
-1.71993e-14
-1.72589e-13
-2.30516e-14
-1.67689e-13
-2.87534e-14
-1.61847e-13
-3.42423e-14
-1.54899e-13
-3.98989e-14
-1.47123e-13
-4.52171e-14
-1.38405e-13
-5.02836e-14
-1.28831e-13
-5.52099e-14
-1.1837e-13
-5.98215e-14
-1.07157e-13
-6.4075e-14
-9.52131e-14
-6.80575e-14
-8.26384e-14
-7.15382e-14
-6.94087e-14
-7.46018e-14
-5.57533e-14
-7.70073e-14
-4.16709e-14
-7.89152e-14
-2.72795e-14
-8.01523e-14
-1.27624e-14
-8.06904e-14
1.71617e-15
-8.0427e-14
1.61268e-14
-7.93892e-14
3.0226e-14
-7.76393e-14
4.37709e-14
-7.48622e-14
5.67838e-14
-7.1443e-14
6.89894e-14
-6.74008e-14
8.02679e-14
-6.23422e-14
9.05293e-14
-5.68807e-14
9.96554e-14
-5.08103e-14
1.07515e-13
-4.42687e-14
1.13991e-13
-3.7368e-14
1.19206e-13
-3.05153e-14
1.23028e-13
-2.32568e-14
1.25395e-13
-1.61743e-14
1.26452e-13
-9.27731e-15
1.26172e-13
-2.57049e-15
1.24729e-13
3.45411e-15
1.22169e-13
8.95914e-15
1.18521e-13
1.37591e-14
1.14056e-13
1.76842e-14
1.08874e-13
2.06077e-14
1.03254e-13
2.24315e-14
9.75738e-14
2.29746e-14
9.25191e-14
2.23334e-14
8.91059e-14
2.07405e-14
8.83511e-14
1.91491e-14
7.6068e-14
3.88394e-14
1.13217e-15
3.25126e-13
-1.83123e-17
1.73107e-13
2.26331e-21
-1.37125e-20
2.28312e-21
-1.56647e-23
2.2795e-21
2.50739e-23
2.26999e-21
6.54507e-23
2.25231e-21
1.04845e-22
2.22687e-21
1.42689e-22
2.1942e-21
1.78619e-22
2.15491e-21
2.12379e-22
2.10952e-21
2.43553e-22
2.0589e-21
2.72039e-22
2.00364e-21
2.97733e-22
1.94408e-21
3.20222e-22
1.88106e-21
3.39764e-22
1.81525e-21
3.56411e-22
1.7469e-21
3.70163e-22
1.6767e-21
3.81124e-22
1.60504e-21
3.89499e-22
1.5322e-21
3.95444e-22
1.45884e-21
3.9927e-22
1.38511e-21
4.00976e-22
1.31134e-21
4.01028e-22
1.23767e-21
3.99425e-22
1.16446e-21
3.96478e-22
1.09188e-21
3.92497e-22
1.02007e-21
3.87482e-22
9.4888e-22
3.8164e-22
8.78828e-22
3.75282e-22
8.09706e-22
3.68457e-22
7.41619e-22
3.61323e-22
6.74669e-22
3.54344e-22
6.08598e-22
3.47106e-22
5.43716e-22
3.40126e-22
4.79816e-22
3.33561e-22
4.16847e-22
3.27357e-22
3.54861e-22
3.21722e-22
2.93546e-22
3.16707e-22
2.33006e-22
3.12416e-22
1.73088e-22
3.089e-22
1.13479e-22
3.06264e-22
5.42837e-23
3.04506e-22
3.03834e-22
6.24254e-15
-1.87283e-14
1.20483e-14
-1.66403e-14
1.69152e-14
-1.22517e-14
2.03256e-14
-5.83603e-15
2.20012e-14
2.2091e-15
2.16309e-14
1.14304e-14
1.91179e-14
2.12872e-14
1.44724e-14
3.13995e-14
7.857e-15
4.11373e-14
-3.91045e-16
4.99048e-14
-1.08565e-14
5.8324e-14
-2.26422e-14
6.55828e-14
-3.36436e-14
6.88049e-14
-4.90204e-14
7.59354e-14
-6.69352e-14
8.82897e-14
-7.58217e-14
7.94968e-14
-8.86442e-14
7.54788e-14
-1.02458e-13
7.49498e-14
-1.21234e-13
8.44373e-14
-1.2496e-13
7.03644e-14
-1.38205e-13
6.26714e-14
-1.48221e-13
6.15179e-14
-1.57439e-13
5.66055e-14
-1.64049e-13
4.78787e-14
-1.71351e-13
4.23735e-14
-1.76867e-13
3.58361e-14
-1.81396e-13
2.90292e-14
-1.84771e-13
2.20363e-14
-1.87049e-13
1.4989e-14
-1.88275e-13
7.90842e-15
-1.88381e-13
7.4815e-16
-1.8744e-13
-6.28536e-15
-1.85454e-13
-1.33275e-14
-1.82423e-13
-2.02739e-14
-1.78383e-13
-2.71359e-14
-1.73329e-13
-3.38522e-14
-1.67312e-13
-4.03053e-14
-1.60285e-13
-4.69729e-14
-1.52244e-13
-5.33054e-14
-1.43283e-13
-5.92911e-14
-1.3343e-13
-6.51094e-14
-1.22614e-13
-7.06835e-14
-1.11048e-13
-7.56854e-14
-9.87453e-14
-8.04025e-14
-8.56403e-14
-8.46847e-14
-7.1906e-14
-8.83739e-14
-5.75796e-14
-9.13725e-14
-4.28533e-14
-9.36741e-14
-2.77531e-14
-9.52845e-14
-1.252e-14
-9.59502e-14
2.78104e-15
-9.57522e-14
1.79709e-14
-9.46005e-14
3.28286e-14
-9.25197e-14
4.7166e-14
-8.92144e-14
6.09863e-14
-8.52723e-14
7.38394e-14
-8.02619e-14
8.5842e-14
-7.43481e-14
9.66201e-14
-6.7657e-14
1.06198e-13
-6.03842e-14
1.14347e-13
-5.24093e-14
1.21148e-13
-4.41579e-14
1.26403e-13
-3.57533e-14
1.30071e-13
-2.69014e-14
1.3232e-13
-1.83958e-14
1.33021e-13
-9.94972e-15
1.32324e-13
-1.84105e-15
1.30269e-13
5.54406e-15
1.26972e-13
1.22957e-14
1.22495e-13
1.82812e-14
1.16973e-13
2.32506e-14
1.10621e-13
2.70055e-14
1.03795e-13
2.931e-14
9.68774e-14
2.99446e-14
9.0972e-14
2.8294e-14
8.74464e-14
2.43235e-14
8.81983e-14
1.84541e-14
2.46665e-15
1.24629e-13
-3.2266e-15
3.30878e-13
-1.77095e-17
1.69946e-13
2.30301e-21
-1.61479e-20
2.32391e-21
-1.85599e-23
2.31993e-21
3.03989e-23
2.30933e-21
7.86339e-23
2.2902e-21
1.25628e-22
2.26286e-21
1.70761e-22
2.22786e-21
2.13568e-22
2.18608e-21
2.53634e-22
2.13806e-21
2.90599e-22
2.0846e-21
3.24048e-22
2.02613e-21
3.54085e-22
1.96373e-21
3.804e-22
1.89771e-21
4.03199e-22
1.82895e-21
4.22379e-22
1.75786e-21
4.38147e-22
1.68507e-21
4.50555e-22
1.61093e-21
4.59912e-22
1.53602e-21
4.66427e-22
1.46059e-21
4.70304e-22
1.38517e-21
4.71907e-22
1.30974e-21
4.71441e-22
1.23472e-21
4.69115e-22
1.16043e-21
4.65237e-22
1.08686e-21
4.59964e-22
1.01423e-21
4.5376e-22
9.42521e-22
4.46678e-22
8.72004e-22
4.38974e-22
8.02572e-22
4.30703e-22
7.34588e-22
4.22224e-22
6.67431e-22
4.13487e-22
6.01567e-22
4.05008e-22
5.3715e-22
3.96788e-22
4.73613e-22
3.88878e-22
4.11212e-22
3.81382e-22
3.49897e-22
3.74765e-22
2.89255e-22
3.68612e-22
2.29491e-22
3.63494e-22
1.70399e-22
3.59462e-22
1.11773e-22
3.5636e-22
5.35083e-23
3.54395e-22
3.5362e-22
8.54319e-15
-2.72515e-14
1.6575e-14
-2.46365e-14
2.33769e-14
-1.90244e-14
2.83676e-14
-1.0799e-14
3.12188e-14
-6.13719e-16
3.15901e-14
1.10875e-14
2.92895e-14
2.36156e-14
2.44488e-14
3.62663e-14
1.74137e-14
4.81996e-14
7.80567e-15
5.95357e-14
-4.32924e-15
7.04789e-14
-1.5977e-14
7.72483e-14
-2.92384e-14
8.20806e-14
-5.06876e-14
9.73957e-14
-6.39083e-14
1.01517e-13
-7.59857e-14
9.1576e-14
-9.00093e-14
8.94989e-14
-1.07621e-13
9.25543e-14
-1.24547e-13
1.01354e-13
-1.28015e-13
7.38176e-14
-1.43883e-13
7.85214e-14
-1.54098e-13
7.17119e-14
-1.63017e-13
6.54991e-14
-1.70716e-13
5.55531e-14
-1.78018e-13
4.96495e-14
-1.83804e-13
4.15927e-14
-1.88386e-13
3.35806e-14
-1.91887e-13
2.55073e-14
-1.94227e-13
1.72935e-14
-1.95388e-13
9.03535e-15
-1.95527e-13
8.52547e-16
-1.94501e-13
-7.3498e-15
-1.92427e-13
-1.54397e-14
-1.89283e-13
-2.34615e-14
-1.85107e-13
-3.13566e-14
-1.80034e-13
-3.89668e-14
-1.7376e-13
-4.66254e-14
-1.66534e-13
-5.42425e-14
-1.58317e-13
-6.15672e-14
-1.49074e-13
-6.85776e-14
-1.3895e-13
-7.52791e-14
-1.27854e-13
-8.18238e-14
-1.15781e-13
-8.78016e-14
-1.02917e-13
-9.33063e-14
-8.93479e-14
-9.82941e-14
-7.49638e-14
-1.02796e-13
-5.99065e-14
-1.06468e-13
-4.43759e-14
-1.09238e-13
-2.8539e-14
-1.11153e-13
-1.23408e-14
-1.12177e-13
3.92666e-15
-1.12043e-13
2.01276e-14
-1.10823e-13
3.59018e-14
-1.08311e-13
5.12818e-14
-1.04608e-13
6.60056e-14
-1.00007e-13
7.96966e-14
-9.39604e-14
9.24085e-14
-8.70618e-14
1.03919e-13
-7.91662e-14
1.14033e-13
-7.04918e-14
1.22657e-13
-6.10244e-14
1.29732e-13
-5.12152e-14
1.35101e-13
-4.11042e-14
1.38723e-13
-3.05011e-14
1.40682e-13
-2.03284e-14
1.40999e-13
-1.02377e-14
1.39841e-13
-6.47591e-16
1.37095e-13
8.32589e-15
1.32886e-13
1.6546e-14
1.27392e-13
2.38153e-14
1.2072e-13
2.99697e-14
1.12973e-13
3.47995e-14
1.0437e-13
3.79626e-14
9.52619e-14
3.9106e-14
8.66615e-14
3.6949e-14
8.21194e-14
2.89231e-14
9.40519e-14
6.57904e-15
-2.9976e-14
2.48718e-13
2.44144e-16
3.00716e-13
-1.72471e-17
1.70253e-13
2.36919e-21
-1.8345e-20
2.37277e-21
-2.12999e-23
2.36822e-21
3.62926e-23
2.35633e-21
9.31095e-23
2.33539e-21
1.48376e-22
2.30556e-21
2.0116e-22
2.26792e-21
2.51256e-22
2.22305e-21
2.9794e-22
2.1715e-21
3.40798e-22
2.11458e-21
3.79573e-22
2.05249e-21
4.14056e-22
1.98642e-21
4.44299e-22
1.91694e-21
4.70149e-22
1.84466e-21
4.91707e-22
1.77032e-21
5.09233e-22
1.69443e-21
5.22933e-22
1.61745e-21
5.33015e-22
1.53985e-21
5.39735e-22
1.46225e-21
5.43613e-22
1.38465e-21
5.4475e-22
1.30746e-21
5.43509e-22
1.23084e-21
5.40201e-22
1.15516e-21
5.35186e-22
1.08066e-21
5.28775e-22
1.00714e-21
5.21072e-22
9.34766e-22
5.12438e-22
8.63783e-22
5.03133e-22
7.94093e-22
4.93413e-22
7.25851e-22
4.83384e-22
6.59005e-22
4.73251e-22
5.93347e-22
4.63169e-22
5.29189e-22
4.53554e-22
4.66168e-22
4.44248e-22
4.04543e-22
4.35666e-22
3.43745e-22
4.27652e-22
2.84137e-22
4.20725e-22
2.25458e-22
4.14676e-22
1.67297e-22
4.09816e-22
1.09808e-22
4.06197e-22
5.27328e-23
4.03871e-22
4.0294e-22
1.1486e-14
-3.87178e-14
2.22671e-14
-3.53847e-14
3.15619e-14
-2.82916e-14
3.8596e-14
-1.78055e-14
4.28659e-14
-4.85675e-15
4.41815e-14
9.79801e-15
4.21319e-14
2.56932e-14
3.70379e-14
4.13863e-14
2.89471e-14
5.63155e-14
1.74005e-14
7.11075e-14
4.60256e-15
8.32998e-14
-7.59122e-15
8.94651e-14
-2.77064e-14
1.02213e-13
-4.98693e-14
1.19574e-13
-5.96262e-14
1.11284e-13
-7.67092e-14
1.08665e-13
-9.33636e-14
1.06156e-13
-1.15722e-13
1.14911e-13
-1.20819e-13
1.06443e-13
-1.37057e-13
9.00418e-14
-1.49618e-13
9.1068e-14
-1.61222e-13
8.32979e-14
-1.69485e-13
7.37407e-14
-1.788e-13
6.48436e-14
-1.85914e-13
5.67366e-14
-1.91884e-13
4.75345e-14
-1.9666e-13
3.83264e-14
-2.00188e-13
2.90029e-14
-2.02506e-13
1.95785e-14
-2.03674e-13
1.01706e-14
-2.0369e-13
8.32957e-16
-2.02657e-13
-8.41954e-15
-2.00465e-13
-1.76704e-14
-1.97244e-13
-2.67187e-14
-1.92995e-13
-3.56452e-14
-1.87701e-13
-4.43014e-14
-1.8118e-13
-5.31872e-14
-1.7386e-13
-6.16029e-14
-1.6541e-13
-7.00609e-14
-1.55873e-13
-7.81557e-14
-1.45316e-13
-8.58769e-14
-1.33898e-13
-9.32816e-14
-1.21393e-13
-1.0035e-13
-1.07907e-13
-1.06831e-13
-9.36261e-14
-1.12613e-13
-7.85923e-14
-1.17864e-13
-6.27672e-14
-1.22325e-13
-4.62628e-14
-1.25772e-13
-2.93743e-14
-1.2807e-13
-1.22028e-14
-1.29375e-13
5.20936e-15
-1.29479e-13
2.24886e-14
-1.28121e-13
3.94069e-14
-1.25244e-13
5.6095e-14
-1.21309e-13
7.18362e-14
-1.15757e-13
8.66418e-14
-1.08771e-13
1.00312e-13
-1.00733e-13
1.1268e-13
-9.15299e-14
1.23434e-13
-8.12385e-14
1.32651e-13
-7.02274e-14
1.39994e-13
-5.85426e-14
1.45393e-13
-4.64849e-14
1.49054e-13
-3.41404e-14
1.5072e-13
-2.19675e-14
1.50649e-13
-1.01362e-14
1.48849e-13
1.18592e-15
1.45289e-13
1.19217e-14
1.4018e-13
2.16937e-14
1.33524e-13
3.05135e-14
1.25538e-13
3.80014e-14
1.16198e-13
4.41868e-14
1.05476e-13
4.87343e-14
9.3248e-14
5.13832e-14
7.87468e-14
5.15023e-14
6.02427e-14
4.74793e-14
3.15455e-14
3.53293e-14
-8.69735e-15
2.89016e-13
1.21121e-15
2.90862e-13
-1.66099e-17
1.71526e-13
2.40889e-21
-2.04363e-20
2.43046e-21
-2.39882e-23
2.42504e-21
4.30134e-23
2.41154e-21
1.08981e-22
2.38817e-21
1.73036e-22
2.35571e-21
2.34299e-22
2.31461e-21
2.91943e-22
2.26591e-21
3.45762e-22
2.21033e-21
3.94927e-22
2.14907e-21
4.3913e-22
2.08274e-21
4.78266e-22
2.01232e-21
5.1218e-22
1.9385e-21
5.41028e-22
1.86224e-21
5.64913e-22
1.78407e-21
5.84041e-22
1.70451e-21
5.9862e-22
1.62422e-21
6.09115e-22
1.54367e-21
6.15939e-22
1.46339e-21
6.19352e-22
1.38341e-21
6.19765e-22
1.30415e-21
6.17542e-22
1.22583e-21
6.13096e-22
1.14875e-21
6.06789e-22
1.07291e-21
5.98827e-22
9.98459e-22
5.89676e-22
9.25512e-22
5.79388e-22
8.54012e-22
5.68377e-22
7.84012e-22
5.57003e-22
7.15718e-22
5.45267e-22
6.48923e-22
5.33532e-22
5.83679e-22
5.21899e-22
5.19935e-22
5.10681e-22
4.57534e-22
4.99927e-22
3.96581e-22
4.89846e-22
3.36818e-22
4.80644e-22
2.78088e-22
4.72424e-22
2.20599e-22
4.65548e-22
1.63678e-22
4.59861e-22
1.07482e-22
4.55828e-22
5.17505e-23
4.5314e-22
4.52003e-22
1.52499e-14
-5.39494e-14
2.96265e-14
-4.97342e-14
4.20303e-14
-4.06714e-14
5.15656e-14
-2.73159e-14
5.765e-14
-1.0915e-14
6.00279e-14
7.44471e-15
5.79902e-14
2.77553e-14
5.30327e-14
4.63694e-14
4.26931e-14
6.66813e-14
2.93448e-14
8.44826e-14
1.80557e-14
9.46147e-14
-1.80857e-15
1.09351e-13
-2.97525e-14
1.30178e-13
-4.04214e-14
1.30262e-13
-5.91262e-14
1.30006e-13
-7.61405e-14
1.25686e-13
-1.04385e-13
1.34408e-13
-1.15008e-13
1.25532e-13
-1.24586e-13
1.16015e-13
-1.45266e-13
1.10711e-13
-1.57521e-13
1.03307e-13
-1.68697e-13
9.44573e-14
-1.782e-13
8.3224e-14
-1.87748e-13
7.43685e-14
-1.95123e-13
6.4086e-14
-2.01305e-13
5.36886e-14
-2.06136e-13
4.31267e-14
-2.09652e-13
3.24887e-14
-2.11948e-13
2.18426e-14
-2.13038e-13
1.123e-14
-2.13006e-13
7.6526e-16
-2.11776e-13
-9.68473e-15
-2.09558e-13
-1.99239e-14
-2.06215e-13
-3.00986e-14
-2.01911e-13
-3.99867e-14
-1.96295e-13
-4.99573e-14
-1.89695e-13
-5.9826e-14
-1.82023e-13
-6.93133e-14
-1.73446e-13
-7.86757e-14
-1.63715e-13
-8.79276e-14
-1.52818e-13
-9.68134e-14
-1.40857e-13
-1.0528e-13
-1.27949e-13
-1.13296e-13
-1.13891e-13
-1.20926e-13
-9.878e-14
-1.2776e-13
-8.28765e-14
-1.33799e-13
-6.61228e-14
-1.39111e-13
-4.87055e-14
-1.43221e-13
-3.0623e-14
-1.46179e-13
-1.21259e-14
-1.47896e-13
6.51773e-15
-1.48144e-13
2.51041e-14
-1.46725e-13
4.36402e-14
-1.43794e-13
6.16109e-14
-1.39289e-13
7.85989e-14
-1.32751e-13
9.47862e-14
-1.24961e-13
1.09596e-13
-1.15543e-13
1.22944e-13
-1.04876e-13
1.34525e-13
-9.28082e-14
1.44271e-13
-7.99607e-14
1.52026e-13
-6.62815e-14
1.57675e-13
-5.21115e-14
1.61215e-13
-3.76561e-14
1.62637e-13
-2.33642e-14
1.62053e-13
-9.52198e-15
1.59513e-13
3.75839e-15
1.55081e-13
1.63887e-14
1.4889e-13
2.79251e-14
1.41082e-13
3.83616e-14
1.31665e-13
4.74622e-14
1.20752e-13
5.51455e-14
1.08157e-13
6.13774e-14
9.32896e-14
6.63005e-14
7.44716e-14
7.03708e-14
4.69873e-14
7.50154e-14
-6.45371e-15
8.88209e-14
-1.39427e-15
2.8401e-13
-2.5741e-16
2.89781e-13
-1.52023e-17
1.71324e-13
2.47507e-21
-2.2554e-20
2.49741e-21
-2.68834e-23
2.491e-21
5.06131e-23
2.47565e-21
1.26817e-22
2.44944e-21
2.0054e-22
2.4134e-21
2.70902e-22
2.36843e-21
3.37024e-22
2.31502e-21
3.98184e-22
2.25458e-21
4.53812e-22
2.1882e-21
5.03753e-22
2.1167e-21
5.47542e-22
2.04117e-21
5.85179e-22
1.96233e-21
6.16818e-22
1.88132e-21
6.42719e-22
1.79865e-21
6.6314e-22
1.715e-21
6.78392e-22
1.63105e-21
6.89042e-22
1.54714e-21
6.95504e-22
1.4638e-21
6.98089e-22
1.38118e-21
6.97417e-22
1.29971e-21
6.93953e-22
1.21952e-21
6.87956e-22
1.14079e-21
6.79943e-22
1.06375e-21
6.70378e-22
9.88222e-22
6.59366e-22
9.14552e-22
6.47321e-22
8.42587e-22
6.34499e-22
7.72328e-22
6.21264e-22
7.03982e-22
6.07719e-22
6.37291e-22
5.94226e-22
5.72461e-22
5.80991e-22
5.09233e-22
5.68015e-22
4.47453e-22
5.5571e-22
3.87327e-22
5.44181e-22
3.28649e-22
5.33635e-22
2.7116e-22
5.24381e-22
2.14912e-22
5.16419e-22
1.59594e-22
5.09957e-22
1.04845e-22
5.05046e-22
5.06648e-23
5.01995e-22
5.00858e-22
2.01075e-14
-7.40402e-14
3.88774e-14