/*--------------------------------*- C++ -*----------------------------------*\
  =========                 |
  \\      /  F ield         | OpenFOAM: The Open Source CFD Toolbox
   \\    /   O peration     | Website:  https://openfoam.org
    \\  /    A nd           | Version:  6
     \\/     M anipulation  |
\*---------------------------------------------------------------------------*/
FoamFile
{
    version     2.0;
    format      ascii;
    class       surfaceScalarField;
    location    "4700";
    object      phi;
}
// * * * * * * * * * * * * * * * * * * * * * * * * * * * * * * * * * * * * * //

dimensions      [0 3 -1 0 0 0 0];

internalField   nonuniform List<scalar> 
9440
(
-1.79478e-14
1.79477e-14
-3.57803e-14
1.78462e-14
-5.33005e-14
1.75302e-14
-7.02399e-14
1.69484e-14
-8.63709e-14
1.61407e-14
-1.01468e-13
1.51072e-14
-1.15413e-13
1.39542e-14
-1.28087e-13
1.26826e-14
-1.39407e-13
1.13301e-14
-1.49247e-13
9.84701e-15
-1.57618e-13
8.37941e-15
-1.64454e-13
6.84523e-15
-1.69655e-13
5.2081e-15
-1.73653e-13
4.00584e-15
-1.76542e-13
2.89613e-15
-1.78639e-13
2.10134e-15
-1.79645e-13
1.01302e-15
-1.78141e-13
-1.49869e-15
-1.76055e-13
-2.08192e-15
-1.74028e-13
-2.021e-15
-1.71777e-13
-2.24539e-15
-1.6589e-13
-5.88098e-15
-1.61252e-13
-4.63393e-15
-1.55717e-13
-5.53232e-15
-1.49356e-13
-6.35703e-15
-1.4256e-13
-6.79033e-15
-1.35297e-13
-7.25806e-15
-1.27493e-13
-7.80235e-15
-1.19291e-13
-8.19996e-15
-1.10516e-13
-8.77322e-15
-1.01217e-13
-9.29673e-15
-9.1426e-14
-9.79176e-15
-8.11052e-14
-1.03206e-14
-7.02817e-14
-1.08237e-14
-5.88757e-14
-1.14069e-14
-4.69901e-14
-1.18863e-14
-3.45787e-14
-1.24129e-14
-2.17396e-14
-1.28399e-14
-8.44547e-15
-1.32969e-14
5.19459e-15
-1.36427e-14
1.91342e-14
-1.39452e-14
3.32502e-14
-1.41195e-14
4.74466e-14
-1.42016e-14
6.16859e-14
-1.42468e-14
7.5732e-14
-1.40521e-14
8.95792e-14
-1.38545e-14
1.03015e-13
-1.34426e-14
1.15925e-13
-1.29204e-14
1.28133e-13
-1.22183e-14
1.39603e-13
-1.14802e-14
1.50147e-13
-1.05567e-14
1.59705e-13
-9.57077e-15
1.68133e-13
-8.44053e-15
1.75357e-13
-7.23918e-15
1.813e-13
-5.95563e-15
1.86023e-13
-4.74062e-15
1.89432e-13
-3.42584e-15
1.91561e-13
-2.14583e-15
1.92325e-13
-7.80432e-16
1.91936e-13
3.68032e-16
1.90375e-13
1.54068e-15
1.87736e-13
2.61717e-15
1.84074e-13
3.63851e-15
1.79522e-13
4.53145e-15
1.74157e-13
5.33914e-15
1.68206e-13
5.92612e-15
1.61663e-13
6.52022e-15
1.54691e-13
6.94638e-15
1.47496e-13
7.16994e-15
1.40334e-13
7.1373e-15
1.33329e-13
6.9778e-15
1.26872e-13
6.42993e-15
1.21541e-13
5.30193e-15
1.18851e-13
2.66017e-15
1.22607e-13
-3.78596e-15
1.45001e-13
-2.24204e-14
2.2421e-13
-7.92366e-14
1.03221e-13
1.20961e-13
1.8367e-17
1.03173e-13
5.49251e-22
-6.6174e-24
5.49248e-22
1.03398e-25
5.47128e-22
2.11965e-24
5.417e-22
3.56722e-24
5.35134e-22
4.96308e-24
5.27638e-22
6.46235e-24
5.19263e-22
7.75482e-24
5.0975e-22
8.99559e-24
4.99307e-22
1.01847e-23
4.87933e-22
1.13737e-23
4.75784e-22
1.24077e-23
4.62653e-22
1.33383e-23
4.49004e-22
1.41138e-23
4.34477e-22
1.48376e-23
4.19536e-22
1.54579e-23
4.04129e-22
1.60266e-23
3.88103e-22
1.63885e-23
3.71921e-22
1.67504e-23
3.55378e-22
1.70089e-23
3.3873e-22
1.7164e-23
3.21825e-22
1.7164e-23
3.04868e-22
1.72157e-23
2.87755e-22
1.70606e-23
2.70695e-22
1.68538e-23
2.53583e-22
1.66987e-23
2.36625e-22
1.64919e-23
2.19772e-22
1.61817e-23
2.02969e-22
1.58198e-23
1.86167e-22
1.54062e-23
1.69624e-22
1.5096e-23
1.53235e-22
1.46825e-23
1.37054e-22
1.42172e-23
1.20923e-22
1.38036e-23
1.05104e-22
1.33383e-23
8.93355e-23
1.29247e-23
7.38259e-23
1.25111e-23
5.84713e-23
1.22009e-23
4.32202e-23
1.1839e-23
2.81241e-23
1.15288e-23
1.35968e-23
1.09601e-23
9.77107e-24
-1.73884e-14
3.53486e-14
-3.61057e-14
3.65831e-14
-5.44467e-14
3.58904e-14
-7.19298e-14
3.44474e-14
-8.8354e-14
3.25802e-14
-1.03694e-13
3.04626e-14
-1.178e-13
2.80762e-14
-1.30551e-13
2.54489e-14
-1.41813e-13
2.26068e-14
-1.51649e-13
1.96979e-14
-1.59883e-13
1.66254e-14
-1.66519e-13
1.34933e-14
-1.71608e-13
1.03113e-14
-1.75391e-13
7.80056e-15
-1.78113e-13
5.6303e-15
-1.80381e-13
4.38308e-15
-1.80805e-13
1.44928e-15
-1.79185e-13
-3.11002e-15
-1.77092e-13
-4.16474e-15
-1.75158e-13
-3.94467e-15
-1.72255e-13
-5.1403e-15
-1.66745e-13
-1.13824e-14
-1.61916e-13
-9.45344e-15
-1.56406e-13
-1.10333e-14
-1.49865e-13
-1.28917e-14
-1.43073e-13
-1.35761e-14
-1.35834e-13
-1.44905e-14
-1.28044e-13
-1.55892e-14
-1.19776e-13
-1.64653e-14
-1.10993e-13
-1.75543e-14
-1.0171e-13
-1.8578e-14
-9.193e-14
-1.95718e-14
-8.15863e-14
-2.06641e-14
-7.07415e-14
-2.16694e-14
-5.94387e-14
-2.2711e-14
-4.74503e-14
-2.38779e-14
-3.50195e-14
-2.48478e-14
-2.21385e-14
-2.57272e-14
-8.78889e-15
-2.66536e-14
4.91645e-15
-2.73563e-14
1.89075e-14
-2.79421e-14
3.31445e-14
-2.83626e-14
4.74762e-14
-2.8544e-14
6.17789e-14
-2.85624e-14
7.60293e-14
-2.83176e-14
8.99812e-14
-2.78218e-14
1.03583e-13
-2.70608e-14
1.16595e-13
-2.59505e-14
1.29003e-13
-2.46436e-14
1.40572e-13
-2.30711e-14
1.51248e-13
-2.12542e-14
1.60847e-13
-1.91943e-14
1.69329e-13
-1.69505e-14
1.7663e-13
-1.45671e-14
1.82635e-13
-1.199e-14
1.87346e-13
-9.47803e-15
1.90747e-13
-6.86089e-15
1.92787e-13
-4.22037e-15
1.93559e-13
-1.58957e-15
1.931e-13
7.90049e-16
1.91461e-13
3.14118e-15
1.88773e-13
5.26415e-15
1.85015e-13
7.35339e-15
1.80336e-13
9.16711e-15
1.74913e-13
1.07188e-14
1.68753e-13
1.20403e-14
1.62021e-13
1.32064e-14
1.54922e-13
1.39988e-14
1.47627e-13
1.44177e-14
1.40192e-13
1.45209e-14
1.3284e-13
1.42823e-14
1.25753e-13
1.34661e-14
1.19162e-13
1.18428e-14
1.12913e-13
8.85958e-15
1.05762e-13
3.31417e-15
9.00316e-14
-6.74542e-15
3.49774e-14
-2.4235e-14
2.82947e-14
1.27592e-13
1.43457e-17
1.31411e-13
5.50905e-22
-2.64696e-23
5.51213e-22
-1.55096e-25
5.48576e-22
3.25702e-24
5.43096e-22
6.41065e-24
5.36582e-22
9.51258e-24
5.28982e-22
1.25628e-23
5.20503e-22
1.54579e-23
5.10939e-22
1.8198e-23
5.00496e-22
2.06795e-23
4.88967e-22
2.29543e-23
4.76715e-22
2.52807e-23
4.63531e-22
2.70385e-23
4.49676e-22
2.87445e-23
4.35149e-22
3.01921e-23
4.20053e-22
3.14329e-23
4.04491e-22
3.24151e-23
3.88413e-22
3.31389e-23
3.72231e-22
3.37593e-23
3.55533e-22
3.41212e-23
3.3873e-22
3.42763e-23
3.21825e-22
3.42763e-23
3.04713e-22
3.40695e-23
2.876e-22
3.3811e-23
2.70488e-22
3.33974e-23
2.53376e-22
3.2777e-23
2.36367e-22
3.2105e-23
2.1941e-22
3.12778e-23
2.02504e-22
3.03472e-23
1.85857e-22
2.94166e-23
1.69262e-22
2.83309e-23
1.52718e-22
2.72453e-23
1.36588e-22
2.6263e-23
1.2051e-22
2.51256e-23
1.04638e-22
2.41433e-23
8.90253e-23
2.30577e-23
7.3464e-23
2.21271e-23
5.81094e-23
2.12999e-23
4.291e-23
2.04727e-23
2.75555e-23
1.97489e-23
1.23043e-23
1.9232e-23
1.87667e-23
-1.95501e-14
5.49092e-14
-3.78335e-14
5.48854e-14
-5.56306e-14
5.37047e-14
-7.29242e-14
5.17535e-14
-8.94254e-14
4.90967e-14
-1.04825e-13
4.58766e-14
-1.19077e-13
4.23419e-14
-1.31964e-13
3.83495e-14
-1.43473e-13
3.41276e-14
-1.53388e-13
2.96254e-14
-1.61808e-13
2.50568e-14
-1.6851e-13
2.0209e-14
-1.73682e-13
1.54936e-14
-1.77487e-13
1.16167e-14
-1.80416e-13
8.57056e-15
-1.83053e-13
7.03148e-15
-1.82634e-13
1.04072e-15
-1.80795e-13
-4.94009e-15
-1.79015e-13
-5.93773e-15
-1.77353e-13
-5.59765e-15
-1.73e-13
-9.48539e-15
-1.68101e-13
-1.62757e-14
-1.63127e-13
-1.44218e-14
-1.57491e-13
-1.66631e-14
-1.50788e-13
-1.95908e-14
-1.44083e-13
-2.02765e-14
-1.36809e-13
-2.17574e-14
-1.29035e-13
-2.33598e-14
-1.20795e-13
-2.47024e-14
-1.12059e-13
-2.62879e-14
-1.02834e-13
-2.78015e-14
-9.30399e-14
-2.93635e-14
-8.26972e-14
-3.10081e-14
-7.18088e-14
-3.25582e-14
-6.04351e-14
-3.4088e-14
-4.84493e-14
-3.58651e-14
-3.59796e-14
-3.73194e-14
-2.30012e-14
-3.87085e-14
-9.49019e-15
-4.01695e-14
4.36526e-15
-4.12191e-14
1.8515e-14
-4.20987e-14
3.29244e-14
-4.27794e-14
4.75174e-14
-4.31479e-14
6.20833e-14
-4.31423e-14
7.65928e-14
-4.28393e-14
9.07666e-14
-4.2009e-14
1.04594e-13
-4.0903e-14
1.17895e-13
-3.92666e-14
1.30539e-13
-3.7304e-14
1.4238e-13
-3.49286e-14
1.5324e-13
-3.21324e-14
1.63075e-13
-2.90517e-14
1.71717e-13
-2.56151e-14
1.79073e-13
-2.19469e-14
1.8515e-13
-1.80936e-14
1.89972e-13
-1.43263e-14
1.93363e-13
-1.02804e-14
1.95392e-13
-6.27818e-15
1.96096e-13
-2.32628e-15
1.95499e-13
1.35569e-15
1.93728e-13
4.87837e-15
1.90762e-13
8.19351e-15
1.86768e-13
1.13132e-14
1.81908e-13
1.39872e-14
1.76189e-13
1.64006e-14
1.6974e-13
1.84507e-14
1.62809e-13
2.00993e-14
1.55401e-13
2.13663e-14
1.47709e-13
2.207e-14
1.3989e-13
2.22973e-14
1.31997e-13
2.2133e-14
1.2417e-13
2.12489e-14
1.16161e-13
1.98084e-14
1.07329e-13
1.76471e-14
9.52868e-14
1.53128e-14
7.38852e-14
1.46127e-14
2.65683e-14
2.30378e-14
1.93663e-14
1.3475e-13
1.3487e-17
1.5073e-13
5.50905e-22
-3.30871e-23
5.54676e-22
-1.03398e-25
5.5173e-22
4.80799e-24
5.46198e-22
9.71937e-24
5.39632e-22
1.4424e-23
5.31825e-22
1.89735e-23
5.23243e-22
2.33679e-23
5.13421e-22
2.75038e-23
5.02771e-22
3.14329e-23
4.91242e-22
3.50001e-23
4.78576e-22
3.8102e-23
4.65186e-22
4.10488e-23
4.51124e-22
4.35821e-23
4.3639e-22
4.57017e-23
4.21035e-22
4.74078e-23
4.05215e-22
4.89071e-23
3.89085e-22
4.99927e-23
3.72542e-22
5.08199e-23
3.55688e-22
5.12335e-23
3.3873e-22
5.13886e-23
3.2167e-22
5.13886e-23
3.04506e-22
5.11301e-23
2.87187e-22
5.05097e-23
2.69816e-22
4.97342e-23
2.52755e-22
4.88554e-23
2.35488e-22
4.76663e-23
2.18479e-22
4.64772e-23
2.01625e-22
4.4978e-23
1.84823e-22
4.3427e-23
1.68176e-22
4.17726e-23
1.51736e-22
4.01183e-23
1.35451e-22
3.84122e-23
1.19528e-22
3.68095e-23
1.03604e-22
3.51552e-23
8.79913e-23
3.36042e-23
7.26368e-23
3.2105e-23
5.72306e-23
3.07091e-23
4.21862e-23
2.96234e-23
2.69868e-23
2.85377e-23
1.18907e-23
2.77623e-23
2.72453e-23
-1.9905e-14
7.48244e-14
-3.903e-14
7.40263e-14
-5.75343e-14
7.22229e-14
-7.53413e-14
6.95747e-14
-9.22767e-14
6.60447e-14
-1.0816e-13
6.17736e-14
-1.22756e-13
5.69526e-14
-1.35938e-13
5.15424e-14
-1.47583e-13
4.57857e-14
-1.57711e-13
3.97642e-14
-1.66061e-13
3.34191e-14
-1.727e-13
2.68586e-14
-1.78028e-13
2.08333e-14
-1.81496e-13
1.50947e-14
-1.84488e-13
1.157e-14
-1.87442e-13
9.99617e-15
-1.85579e-13
-8.15156e-16
-1.83571e-13
-6.93903e-15
-1.82008e-13
-7.49224e-15
-1.81096e-13
-6.50288e-15
-1.73873e-13
-1.67022e-14
-1.70354e-13
-1.9789e-14
-1.64912e-13
-1.98581e-14
-1.59085e-13
-2.24842e-14
-1.52334e-13
-2.63347e-14
-1.45634e-13
-2.69724e-14
-1.38282e-13
-2.91049e-14
-1.30517e-13
-3.1122e-14
-1.22314e-13
-3.29024e-14
-1.1366e-13
-3.49412e-14
-1.04414e-13
-3.70451e-14
-9.46191e-14
-3.9157e-14
-8.43212e-14
-4.13034e-14
-7.34473e-14
-4.34327e-14
-6.20528e-14
-4.5486e-14
-5.00295e-14
-4.78917e-14
-3.74519e-14
-4.99021e-14
-2.43061e-14
-5.18583e-14
-1.07006e-14
-5.3781e-14
3.40744e-15
-5.53323e-14
1.7918e-14
-5.6617e-14
3.26275e-14
-5.74983e-14
4.74841e-14
-5.80136e-14
6.24421e-14
-5.81105e-14
7.72807e-14
-5.76899e-14
9.19611e-14
-5.67022e-14
1.06227e-13
-5.51827e-14
1.19944e-13
-5.29973e-14
1.32945e-13
-5.03235e-14
1.45124e-13
-4.71249e-14
1.56323e-13
-4.33521e-14
1.66404e-13
-3.91536e-14
1.75298e-13
-3.45333e-14
1.82886e-13
-2.95604e-14
1.89106e-13
-2.43367e-14
1.93897e-13
-1.91462e-14
1.97242e-13
-1.36528e-14
1.99212e-13
-8.2781e-15
1.9982e-13
-2.96523e-15
1.99035e-13
2.11259e-15
1.9698e-13
6.90138e-15
1.938e-13
1.13368e-14
1.89545e-13
1.55348e-14
1.84307e-13
1.91891e-14
1.78227e-13
2.24423e-14
1.71391e-13
2.52491e-14
1.63987e-13
2.74666e-14
1.56127e-13
2.91873e-14
1.47968e-13
3.01889e-14
1.39604e-13
3.06224e-14
1.31162e-13
3.05345e-14
1.2267e-13
2.97009e-14
1.14081e-13
2.83548e-14
1.0482e-13
2.68646e-14
9.42067e-14
2.58829e-14
8.15928e-14
2.71832e-14
7.07198e-14
3.38685e-14
1.84649e-14
1.8696e-13
1.27223e-17
1.69148e-13
5.55868e-22
-2.97785e-23
5.59588e-22
-5.16988e-26
5.56641e-22
6.51405e-24
5.50851e-22
1.30281e-23
5.44285e-22
1.94904e-23
5.36272e-22
2.56426e-23
5.27379e-22
3.16397e-23
5.17402e-22
3.71714e-23
5.06338e-22
4.2393e-23
4.94344e-22
4.7201e-23
4.81471e-22
5.14403e-23
4.67771e-22
5.52143e-23
4.53192e-22
5.8523e-23
4.38096e-22
6.14182e-23
4.22534e-22
6.36412e-23
4.06353e-22
6.55541e-23
3.89912e-22
6.69499e-23
3.72955e-22
6.79322e-23
3.55894e-22
6.85526e-23
3.3873e-22
6.87594e-23
3.2136e-22
6.85009e-23
3.03886e-22
6.80356e-23
2.8636e-22
6.71567e-23
2.68989e-22
6.61228e-23
2.51515e-22
6.46752e-23
2.34247e-22
6.30725e-23
2.17032e-22
6.12114e-23
2.00023e-22
5.92468e-23
1.83169e-22
5.70755e-23
1.6647e-22
5.4749e-23
1.5003e-22
5.24743e-23
1.33796e-22
5.01478e-23
1.17873e-22
4.78214e-23
1.02002e-22
4.54949e-23
8.65438e-23
4.33753e-23
7.12926e-23
4.13073e-23
5.61449e-23
3.94979e-23
4.11005e-23
3.78952e-23
2.63147e-23
3.67061e-23
1.13737e-23
3.57239e-23
3.51035e-23
-2.05501e-14
9.53857e-14
-4.07044e-14
9.41994e-14
-6.0271e-14
9.18043e-14
-7.89305e-14
8.82478e-14
-9.66368e-14
8.37655e-14
-1.13161e-13
7.83104e-14
-1.28237e-13
7.20412e-14
-1.41797e-13
6.51169e-14
-1.53709e-13
5.77099e-14
-1.63836e-13
4.99063e-14
-1.72177e-13
4.17679e-14
-1.78781e-13
3.34751e-14
-1.84029e-13
2.60917e-14
-1.86991e-13
1.8066e-14
-1.90465e-13
1.50537e-14
-1.92331e-13
1.18726e-14
-1.89658e-13
-3.47969e-15
-1.87795e-13
-8.79541e-15
-1.86301e-13
-8.97641e-15
-1.84702e-13
-8.09667e-15
-1.76313e-13
-2.50858e-14
-1.73062e-13
-2.30319e-14
-1.67339e-13
-2.55746e-14
-1.61019e-13
-2.8797e-14
-1.54428e-13
-3.29226e-14
-1.47571e-13
-3.38235e-14
-1.40197e-13
-3.64757e-14
-1.32446e-13
-3.88685e-14
-1.24323e-13
-4.10204e-14
-1.15646e-13
-4.36134e-14
-1.06479e-13
-4.62081e-14
-9.68256e-14
-4.88107e-14
-8.65856e-14
-5.15432e-14
-7.57113e-14
-5.43066e-14
-6.43045e-14
-5.68946e-14
-5.21427e-14
-6.00549e-14
-3.94517e-14
-6.25953e-14
-2.60788e-14
-6.52353e-14
-1.21964e-14
-6.76681e-14
2.14896e-15
-6.96841e-14
1.69557e-14
-7.14317e-14
3.21063e-14
-7.26577e-14
4.74369e-14
-7.33549e-14
6.29183e-14
-7.36029e-14
7.83096e-14
-7.30924e-14
9.35197e-14
-7.1925e-14
1.08342e-13
-7.00194e-14
1.22634e-13
-6.73062e-14
1.36167e-13
-6.3874e-14
1.48851e-13
-5.98267e-14
1.60584e-13
-5.51052e-14
1.71037e-13
-4.96286e-14
1.80299e-13
-4.38156e-14
1.88106e-13
-3.73918e-14
1.94449e-13
-3.0705e-14
1.99338e-13
-2.40629e-14
2.02643e-13
-1.69842e-14
2.04493e-13
-1.01575e-14
2.04881e-13
-3.38296e-15
2.03896e-13
3.06682e-15
2.01494e-13
9.27254e-15
1.97954e-13
1.48451e-14
1.93198e-13
2.02561e-14
1.87529e-13
2.4824e-14
1.8098e-13
2.89563e-14
1.73566e-13
3.26267e-14
1.65589e-13
3.54068e-14
1.57204e-13
3.7533e-14
1.48426e-13
3.89288e-14
1.39367e-13
3.96426e-14
1.30341e-13
3.95187e-14
1.21306e-13
3.86947e-14
1.12473e-13
3.71478e-14
1.03952e-13
3.53447e-14
9.58247e-14
3.39688e-14
8.90403e-14
3.39278e-14
8.05364e-14
4.23322e-14
1.77217e-14
2.49733e-13
1.18729e-17
1.86824e-13
5.6414e-22
-4.96309e-23
5.66205e-22
-5.16988e-26
5.63103e-22
8.3752e-24
5.57313e-22
1.66987e-23
5.50385e-22
2.48671e-23
5.42217e-22
3.26736e-23
5.32911e-22
4.02217e-23
5.22623e-22
4.72527e-23
5.11146e-22
5.37667e-23
4.98635e-22
5.96604e-23
4.85193e-22
6.50371e-23
4.71079e-22
6.97934e-23
4.56087e-22
7.39293e-23
4.4037e-22
7.74448e-23
4.24395e-22
8.02365e-23
4.07748e-22
8.25113e-23
3.90843e-22
8.42173e-23
3.73575e-22
8.5303e-23
3.56101e-22
8.59234e-23
3.38472e-22
8.60268e-23
3.20843e-22
8.56649e-23
3.03058e-22
8.48377e-23
2.85326e-22
8.37003e-23
2.6749e-22
8.2046e-23
2.49912e-22
8.02365e-23
2.32438e-22
7.81169e-23
2.15015e-22
7.5687e-23
1.97851e-22
7.29987e-23
1.80842e-22
7.01553e-23
1.64247e-22
6.72601e-23
1.47703e-22
6.41582e-23
1.3147e-22
6.1108e-23
1.15599e-22
5.8006e-23
9.98821e-23
5.50592e-23
8.45275e-23
5.22158e-23
6.93798e-23
4.96825e-23
5.45422e-23
4.73561e-23
3.99115e-23
4.53915e-23
2.53324e-23
4.37372e-23
1.0805e-23
4.25481e-23
4.1876e-23
-2.17616e-14
1.17155e-13
-4.30829e-14
1.15537e-13
-6.37525e-14
1.12486e-13
-8.35054e-14
1.08013e-13
-1.02141e-13
1.02414e-13
-1.19421e-13
9.56066e-14
-1.3512e-13
8.77521e-14
-1.49187e-13
7.91958e-14
-1.614e-13
6.99352e-14
-1.71573e-13
6.00901e-14
-1.79787e-13
4.99934e-14
-1.86738e-13
4.04362e-14
-1.90994e-13
3.03598e-14
-1.94397e-13
2.14753e-14
-1.99021e-13
1.96847e-14
-1.96962e-13
9.82132e-15
-1.94725e-13
-5.70867e-15
-1.93136e-13
-1.03799e-14
-1.92214e-13
-9.89116e-15
-1.86975e-13
-1.33274e-14
-1.80314e-13
-3.17436e-14
-1.76075e-13
-2.7264e-14
-1.70241e-13
-3.14032e-14
-1.63219e-13
-3.58123e-14
-1.56967e-13
-3.9169e-14
-1.49883e-13
-4.09023e-14
-1.42551e-13
-4.38035e-14
-1.3487e-13
-4.6546e-14
-1.26801e-13
-4.90878e-14
-1.18197e-13
-5.22142e-14
-1.09146e-13
-5.52584e-14
-9.95501e-14
-5.84066e-14
-8.93503e-14
-6.17445e-14
-7.85041e-14
-6.51552e-14
-6.69917e-14
-6.84115e-14
-5.4858e-14
-7.21921e-14
-4.2026e-14
-7.54309e-14
-2.84302e-14
-7.88359e-14
-1.42789e-14
-8.18227e-14
4.41369e-16
-8.44099e-14
1.56883e-14
-8.66853e-14
3.13814e-14
-8.836e-14
4.73498e-14
-8.93323e-14
6.34408e-14
-8.9704e-14
7.95121e-14
-8.91741e-14
9.54395e-14
-8.78665e-14
1.1092e-13
-8.55144e-14
1.25909e-13
-8.23113e-14
1.40225e-13
-7.82082e-14
1.53621e-13
-7.32392e-14
1.65848e-13
-6.73515e-14
1.76927e-13
-6.07287e-14
1.86577e-13
-5.34888e-14
1.94667e-13
-4.55052e-14
2.01293e-13
-3.73569e-14
2.06223e-13
-2.90198e-14
2.09552e-13
-2.03395e-14
2.11225e-13
-1.18591e-14
2.11422e-13
-3.60773e-15
2.10011e-13
4.44649e-15
2.07214e-13
1.20396e-14
2.03201e-13
1.8826e-14
1.98008e-13
2.54144e-14
1.91663e-13
3.11331e-14
1.84428e-13
3.61556e-14
1.76425e-13
4.05939e-14
1.67806e-13
4.39889e-14
1.58647e-13
4.66545e-14
1.49096e-13
4.84424e-14
1.39355e-13
4.93472e-14
1.2953e-13
4.93035e-14
1.19855e-13
4.83334e-14
1.10688e-13
4.62792e-14
1.02614e-13
4.33802e-14
9.66997e-14
3.98452e-14
9.41282e-14
3.64591e-14
8.07295e-14
5.56932e-14
3.12835e-15
3.27292e-13
1.07306e-17
1.89911e-13
5.77375e-22
-3.9705e-23
5.74632e-22
5.16988e-26
5.71478e-22
1.03915e-23
5.65481e-22
2.05244e-23
5.58244e-22
3.04506e-23
5.49765e-22
4.00666e-23
5.39942e-22
4.91656e-23
5.29137e-22
5.77993e-23
5.16988e-22
6.56575e-23
5.04012e-22
7.28953e-23
4.89949e-22
7.92542e-23
4.75215e-22
8.49411e-23
4.59602e-22
8.97491e-23
4.43214e-22
9.3885e-23
4.2667e-22
9.72454e-23
4.09403e-22
9.97787e-23
3.91929e-22
1.0164e-22
3.74196e-22
1.02829e-22
3.56256e-22
1.03449e-22
3.38058e-22
1.03294e-22
3.20067e-22
1.02726e-22
3.01869e-22
1.01588e-22
2.83723e-22
9.99338e-23
2.65732e-22
9.79175e-23
2.47792e-22
9.55394e-23
2.30008e-22
9.27993e-23
2.12379e-22
8.96457e-23
1.9506e-22
8.61819e-23
1.77896e-22
8.26664e-23
1.61197e-22
7.88924e-23
1.44602e-22
7.50666e-23
1.2842e-22
7.12409e-23
1.126e-22
6.74152e-23
9.70386e-23
6.37446e-23
8.19943e-23
6.02291e-23
6.70533e-23
5.71272e-23
5.25777e-23
5.42837e-23
3.82571e-23
5.18539e-23
2.41433e-23
4.98893e-23
1.0133e-23
4.84935e-23
4.76146e-23
-2.32256e-14
1.4039e-13
-4.59974e-14
1.38323e-13
-6.80434e-14
1.34544e-13
-8.91454e-14
1.29125e-13
-1.08917e-13
1.22198e-13
-1.27205e-13
1.13907e-13
-1.43709e-13
1.04267e-13
-1.58316e-13
9.38146e-14
-1.70784e-13
8.24168e-14
-1.81017e-13
7.03338e-14
-1.89689e-13
5.86777e-14
-1.96263e-13
4.70191e-14
-1.99368e-13
3.34732e-14
-2.04527e-13
2.66429e-14
-2.08783e-13
2.39472e-14
-2.02933e-13
3.97769e-15
-2.01094e-13
-7.54199e-15
-1.99667e-13
-1.18009e-14
-2.00328e-13
-9.22222e-15
-1.87443e-13
-2.62077e-14
-1.85694e-13
-3.34876e-14
-1.79511e-13
-3.34436e-14
-1.73588e-13
-3.73201e-14
-1.65781e-13
-4.36157e-14
-1.59858e-13
-4.50883e-14
-1.52624e-13
-4.81333e-14
-1.45309e-13
-5.1116e-14
-1.37672e-13
-5.41789e-14
-1.29665e-13
-5.7093e-14
-1.21269e-13
-6.06101e-14
-1.12349e-13
-6.41744e-14
-1.02899e-13
-6.78533e-14
-9.27939e-14
-7.18498e-14
-8.20174e-14
-7.59302e-14
-7.05621e-14
-7.98713e-14
-5.82713e-14
-8.44841e-14
-4.53274e-14
-8.83777e-14
-3.1509e-14
-9.26579e-14
-1.69615e-14
-9.63749e-14
-1.73837e-15
-9.96411e-14
1.40665e-14
-1.02499e-13
3.04139e-14
-1.04719e-13
4.70742e-14
-1.06003e-13
6.39083e-14
-1.06552e-13
8.08995e-14
-1.06177e-13
9.76867e-14
-1.04667e-13
1.14205e-13
-1.02046e-13
1.30138e-13
-9.826e-14
1.45334e-13
-9.34215e-14
1.59507e-13
-8.74301e-14
1.72535e-13
-8.03993e-14
1.84197e-13
-7.24098e-14
1.94346e-13
-6.36591e-14
2.02856e-13
-5.40381e-14
2.09757e-13
-4.42835e-14
2.14752e-13
-3.40414e-14
2.18065e-13
-2.36802e-14
2.19574e-13
-1.33968e-14
2.19409e-13
-3.47107e-15
2.17572e-13
6.2547e-15
2.14329e-13
1.52514e-14
2.09647e-13
2.34773e-14
2.03702e-13
3.13261e-14
1.96736e-13
3.8065e-14
1.88706e-13
4.41535e-14
1.79935e-13
4.93305e-14
1.70452e-13
5.34354e-14
1.6049e-13
5.65824e-14
1.50048e-13
5.88506e-14
1.39301e-13
6.00585e-14
1.28454e-13
6.01132e-14
1.1776e-13
5.89925e-14
1.07671e-13
5.63321e-14
9.91722e-14
5.18426e-14
9.35373e-14
4.5442e-14
9.28493e-14
3.71109e-14
1.26227e-14
1.35883e-13
-4.69571e-15
3.44575e-13
9.46902e-18
1.85176e-13
5.85647e-22
-1.6544e-23
5.84972e-22
4.65289e-25
5.8156e-22
1.26662e-23
5.75459e-22
2.4712e-23
5.6786e-22
3.6551e-23
5.58864e-22
4.79765e-23
5.48576e-22
5.88332e-23
5.36995e-22
6.89145e-23
5.24226e-22
7.82203e-23
5.1037e-22
8.66989e-23
4.95688e-22
9.42469e-23
4.79972e-22
1.00813e-22
4.63738e-22
1.06344e-22
4.46574e-22
1.10894e-22
4.29203e-22
1.1472e-22
4.11316e-22
1.1746e-22
3.93066e-22
1.19528e-22
3.74765e-22
1.20613e-22
3.56101e-22
1.20975e-22
3.3749e-22
1.20717e-22
3.18878e-22
1.19734e-22
3.00267e-22
1.18235e-22
2.81707e-22
1.16115e-22
2.6325e-22
1.13375e-22
2.45052e-22
1.10325e-22
2.26906e-22
1.06758e-22
2.08967e-22
1.02881e-22
1.91441e-22
9.8693e-23
1.74173e-22
9.42469e-23
1.57268e-22
8.96974e-23
1.40828e-22
8.50445e-23
1.24594e-22
8.02882e-23
1.08878e-22
7.57387e-23
9.36265e-23
7.11892e-23
7.8789e-23
6.7105e-23
6.42616e-23
6.3331e-23
5.01478e-23
5.99189e-23
3.63443e-23
5.71272e-23
2.27475e-23
5.48524e-23
9.25408e-24
5.31464e-23
5.22158e-23
-2.50787e-14
1.65479e-13
-4.96496e-14
1.6291e-13
-7.34248e-14
1.58334e-13
-9.60929e-14
1.51807e-13
-1.17255e-13
1.43373e-13
-1.36653e-13
1.33315e-13
-1.54177e-13
1.21803e-13
-1.6939e-13
1.0904e-13
-1.82156e-13
9.5194e-14
-1.92948e-13
8.11343e-14
-2.01867e-13
6.76054e-14
-2.06636e-13
5.17958e-14
-2.10766e-13
3.76148e-14
-2.18512e-13
3.43964e-14
-2.16223e-13
2.16671e-14
-2.11719e-13
-5.18678e-16
-2.09183e-13
-1.00722e-14
-2.08505e-13
-1.24723e-14
-2.0551e-13
-1.22128e-14
-1.9161e-13
-4.01014e-14
-1.90961e-13
-3.41328e-14
-1.83453e-13
-4.09468e-14
-1.76517e-13
-4.425e-14
-1.69297e-13
-5.0831e-14
-1.62781e-13
-5.16e-14
-1.55636e-13
-5.52731e-14
-1.4826e-13
-5.84873e-14
-1.4088e-13
-6.15543e-14
-1.33061e-13
-6.49083e-14
-1.24842e-13
-6.88283e-14
-1.16214e-13
-7.28003e-14
-1.06872e-13
-7.71936e-14
-9.69363e-14
-8.17874e-14
-8.62246e-14
-8.66437e-14
-7.48082e-14
-9.12903e-14
-6.26017e-14
-9.66953e-14
-4.92803e-14
-1.01701e-13
-3.52313e-14
-1.06711e-13
-2.0298e-14
-1.11316e-13
-4.53737e-15
-1.15407e-13
1.18614e-14
-1.18906e-13
2.89333e-14
-1.21801e-13
4.65481e-14
-1.23628e-13
6.44002e-14
-1.24414e-13
8.22976e-14
-1.24087e-13
1.00257e-13
-1.22643e-13
1.17924e-13
-1.19728e-13
1.3501e-13
-1.15362e-13
1.51233e-13
-1.09663e-13
1.66474e-13
-1.02691e-13
1.80463e-13
-9.44066e-14
1.93025e-13
-8.49931e-14
2.03767e-13
-7.44236e-14
2.1281e-13
-6.31018e-14
2.19939e-13
-5.14393e-14
2.25008e-13
-3.91369e-14
2.28223e-13
-2.6922e-14
2.29544e-13
-1.47442e-14
2.28961e-13
-2.91452e-15
2.26629e-13
8.55638e-15
2.22767e-13
1.90825e-14
2.17392e-13
2.8822e-14
2.10643e-13
3.80444e-14
2.02694e-13
4.59842e-14
1.93774e-13
5.30407e-14
1.84119e-13
5.89547e-14
1.73715e-13
6.38065e-14
1.62681e-13
6.7584e-14
1.51218e-13
7.02818e-14
1.39374e-13
7.18689e-14
1.2729e-13
7.21642e-14
1.15131e-13
7.1118e-14
1.03131e-13
6.82983e-14
9.23123e-14
6.26291e-14
8.61329e-14
5.1589e-14
9.56293e-14
2.75799e-14
-2.20292e-14
2.53507e-13
4.45719e-16
3.22067e-13
9.09231e-18
1.85588e-13
5.97227e-22
-1.98527e-23
5.97121e-22
6.20385e-25
5.93606e-22
1.5096e-23
5.87298e-22
2.93132e-23
5.79285e-22
4.31685e-23
5.69721e-22
5.65068e-23
5.58657e-22
6.90696e-23
5.46353e-22
8.09086e-23
5.32704e-22
9.17137e-23
5.17867e-22
1.01381e-22
5.02254e-22
1.09912e-22
4.85503e-22
1.17305e-22
4.68236e-22
1.23612e-22
4.504e-22
1.28782e-22
4.31995e-22
1.32711e-22
4.13332e-22
1.35761e-22
3.94203e-22
1.37726e-22
3.75178e-22
1.3876e-22
3.55843e-22
1.38966e-22
3.36507e-22
1.38243e-22
3.17327e-22
1.36898e-22
2.98199e-22
1.34779e-22
2.78967e-22
1.31987e-22
2.602e-22
1.28678e-22
2.41537e-22
1.24697e-22
2.22977e-22
1.20251e-22
2.04779e-22
1.15547e-22
1.87046e-22
1.10532e-22
1.69624e-22
1.05155e-22
1.52667e-22
9.96236e-23
1.36123e-22
9.40401e-23
1.19993e-22
8.84049e-23
1.0438e-22
8.29766e-23
8.94906e-23
7.78067e-23
7.50149e-23
7.2947e-23
6.09012e-23
6.83975e-23
4.73561e-23
6.45718e-23
3.39661e-23
6.12114e-23
2.10414e-23
5.85747e-23
8.27181e-24
5.66619e-23
5.57313e-23
-2.73525e-14
1.9284e-13
-5.41654e-14
1.89737e-13
-8.00066e-14
1.84189e-13
-1.04514e-13
1.76327e-13
-1.27361e-13
1.66232e-13
-1.48109e-13
1.54076e-13
-1.66671e-13
1.40376e-13
-1.82717e-13
1.25098e-13
-1.96115e-13
1.08603e-13
-2.07602e-13
9.26342e-14
-2.15507e-13
7.55226e-14
-2.18824e-13
5.5121e-14
-2.26913e-13
4.57126e-14
-2.32672e-13
4.01648e-14
-2.2419e-13
1.31918e-14
-2.2245e-13
-2.25248e-15
-2.19687e-13
-1.28293e-14
-2.18875e-13
-1.32794e-14
-2.04769e-13
-2.63132e-14
-2.01681e-13
-4.31824e-14
-1.94547e-13
-4.12606e-14
-1.88084e-13
-4.74055e-14
-1.79204e-13
-5.31276e-14
-1.73311e-13
-5.672e-14
-1.65919e-13
-5.89902e-14
-1.58761e-13
-6.24269e-14
-1.51602e-13
-6.56435e-14
-1.44411e-13
-6.87408e-14
-1.36776e-13
-7.25391e-14
-1.28922e-13
-7.66796e-14
-1.20529e-13
-8.11916e-14
-1.11562e-13
-8.61608e-14
-1.01816e-13
-9.15342e-14
-9.12985e-14
-9.7163e-14
-7.99543e-14
-1.02638e-13
-6.7643e-14
-1.09009e-13
-5.41413e-14
-1.15208e-13
-3.98735e-14
-1.20985e-13
-2.44953e-14
-1.26698e-13
-8.12547e-15
-1.31783e-13
9.11735e-15
-1.36157e-13
2.70019e-14
-1.39696e-13
4.55892e-14
-1.42226e-13
6.47196e-14
-1.43555e-13
8.3988e-14
-1.43369e-13
1.03192e-13
-1.41858e-13
1.22235e-13
-1.38787e-13
1.40767e-13
-1.33909e-13
1.58371e-13
-1.27284e-13
1.74841e-13
-1.1918e-13
1.8999e-13
-1.09575e-13
2.03383e-13
-9.84061e-14
2.14875e-13
-8.59381e-14
2.2465e-13
-7.28983e-14
2.32043e-13
-5.8856e-14
2.37304e-13
-4.44221e-14
2.40399e-13
-3.00423e-14
2.41411e-13
-1.57834e-14
2.40272e-13
-1.80278e-15
2.37397e-13
1.14044e-14
2.32714e-13
2.37375e-14
2.26336e-13
3.51711e-14
2.18662e-13
4.56876e-14
2.09662e-13
5.49542e-14
1.99743e-13
6.29299e-14
1.89023e-13
6.96461e-14
1.77476e-13
7.53226e-14
1.65388e-13
7.96397e-14
1.52729e-13
8.2912e-14
1.39728e-13
8.48406e-14
1.26264e-13
8.55993e-14
1.12293e-13
8.50575e-14
9.76158e-14
8.29455e-14
8.1518e-14
7.86978e-14
6.24394e-14
7.06369e-14
3.31301e-14
5.686e-14
-1.2097e-14
2.98704e-13
1.62171e-15
3.08319e-13
7.56497e-18
1.87179e-13
6.15425e-22
1.98522e-23
6.11545e-22
1.18907e-24
6.07823e-22
1.78878e-23
6.01154e-22
3.43797e-23
5.92623e-22
5.05097e-23
5.82335e-22
6.5916e-23
5.70496e-22
8.03399e-23
5.57054e-22
9.36782e-23
5.42424e-22
1.06034e-22
5.26397e-22
1.16994e-22
5.09647e-22
1.2661e-22
4.91811e-22
1.34882e-22
4.73406e-22
1.41758e-22
4.54432e-22
1.47342e-22
4.35045e-22
1.51581e-22
4.15245e-22
1.54579e-22
3.95186e-22
1.56492e-22
3.75333e-22
1.57423e-22
3.55171e-22
1.57164e-22
3.35163e-22
1.56079e-22
3.15156e-22
1.54062e-22
2.95407e-22
1.51219e-22
2.75658e-22
1.47652e-22
2.56219e-22
1.43516e-22
2.37091e-22
1.38811e-22
2.18272e-22
1.33435e-22
1.99712e-22
1.27644e-22
1.8167e-22
1.21596e-22
1.6404e-22
1.1534e-22
1.47083e-22
1.08826e-22
1.30488e-22
1.02209e-22
1.14513e-22
9.56945e-23
9.921e-23
8.93355e-23
8.46309e-23
8.32351e-23
7.05172e-23
7.75482e-23
5.70238e-23
7.23783e-23
4.40474e-23
6.78805e-23
3.12778e-23
6.41065e-23
1.91803e-23
6.13148e-23
7.39293e-24
5.93502e-23
5.82128e-23
-3.01157e-14
2.22965e-13
-5.94842e-14
2.19118e-13
-8.77748e-14
2.12491e-13
-1.14591e-13
2.03155e-13
-1.39389e-13
1.91042e-13
-1.61849e-13
1.76549e-13
-1.81875e-13
1.60416e-13
-1.97975e-13
1.41207e-13
-2.13196e-13
1.23835e-13
-2.24922e-13
1.04368e-13
-2.28647e-13
7.92589e-14
-2.38043e-13
6.45259e-14
-2.48052e-13
5.57296e-14
-2.40407e-13
3.25305e-14
-2.38391e-13
1.11824e-14
-2.33365e-13
-7.27206e-15
-2.35362e-13
-1.08244e-14
-2.22666e-13
-2.597e-14
-2.11138e-13
-3.78379e-14
-2.08994e-13
-4.53223e-14
-1.99797e-13
-5.04514e-14
-1.91632e-13
-5.5564e-14
-1.83167e-13
-6.15877e-14
-1.7665e-13
-6.32343e-14
-1.69092e-13
-6.65455e-14
-1.62031e-13
-6.94853e-14
-1.55146e-13
-7.25233e-14
-1.48118e-13
-7.57677e-14
-1.40905e-13
-7.97487e-14
-1.33418e-13
-8.41644e-14
-1.25461e-13
-8.91458e-14
-1.16837e-13
-9.47851e-14
-1.07495e-13
-1.00875e-13
-9.72109e-14
-1.0745e-13
-8.60727e-14
-1.13776e-13
-7.35493e-14
-1.21535e-13
-6.00166e-14
-1.28743e-13
-4.53107e-14
-1.35697e-13
-2.9595e-14
-1.42421e-13
-1.2594e-14
-1.48791e-13
5.47525e-15
-1.54235e-13
2.45259e-14
-1.58757e-13
4.42608e-14
-1.61971e-13
6.47008e-14
-1.64008e-13
8.56019e-14
-1.64285e-13
1.06465e-13
-1.62736e-13
1.27175e-13
-1.59512e-13
1.47253e-13
-1.54003e-13
1.66521e-13
-1.46569e-13
1.84612e-13
-1.37291e-13
2.0107e-13
-1.26051e-13
2.15624e-13
-1.12982e-13
2.28304e-13
-9.86408e-14
2.38587e-13
-8.32048e-14
2.46281e-13
-6.65742e-14
2.5178e-13
-4.99445e-14
2.54715e-13
-3.30018e-14
2.55266e-13
-1.63584e-14
2.53526e-13
-8.66303e-17
2.49791e-13
1.51121e-14
2.44136e-13
2.93661e-14
2.36737e-13
4.25449e-14
2.27868e-13
5.45288e-14
2.17768e-13
6.50271e-14
2.06639e-13
7.40306e-14
1.94592e-13
8.16664e-14
1.81872e-13
8.80142e-14
1.68521e-13
9.29646e-14
1.54709e-13
9.66946e-14
1.40439e-13
9.9081e-14
1.25655e-13
1.00357e-13
1.10179e-13
1.00506e-13
9.33042e-14
9.9793e-14
7.33174e-14
9.86566e-14
4.55248e-14
9.84032e-14
-6.98129e-15
1.09342e-13
-5.28501e-15
2.9698e-13
-1.25033e-15
3.04259e-13
7.17199e-18
1.859e-13
6.27006e-22
1.65436e-23
6.28244e-22
1.60266e-24
6.24315e-22
2.0938e-23
6.17284e-22
3.98598e-23
6.0803e-22
5.83162e-23
5.96759e-22
7.58938e-23
5.83834e-22
9.25408e-23
5.69411e-22
1.07844e-22
5.53384e-22
1.21647e-22
5.36013e-22
1.339e-22
5.1797e-22
1.44602e-22
4.98687e-22
1.53545e-22
4.78938e-22
1.6099e-22
4.58672e-22
1.66884e-22
4.37992e-22
1.71278e-22
4.17209e-22
1.74277e-22
3.96168e-22
1.75931e-22
3.75075e-22
1.76345e-22
3.54085e-22
1.75569e-22
3.33147e-22
1.73915e-22
3.12416e-22
1.71175e-22
2.9184e-22
1.67607e-22
2.71574e-22
1.63265e-22
2.51515e-22
1.58095e-22
2.31766e-22
1.52305e-22
2.12482e-22
1.45997e-22
1.93664e-22
1.39277e-22
1.75414e-22
1.32142e-22
1.57578e-22
1.24646e-22
1.40517e-22
1.17149e-22
1.23922e-22
1.09498e-22
1.08154e-22
1.02105e-22
9.31612e-23
9.48156e-23
7.89441e-23
8.78879e-23
6.53473e-23
8.13739e-23
5.2526e-23
7.55836e-23
4.02734e-23
7.05172e-23
2.8486e-23
6.63296e-23
1.72157e-23
6.31759e-23
6.25555e-24
6.10563e-23
6.00223e-23
-3.33095e-14
2.56283e-13
-6.59815e-14