/*--------------------------------*- C++ -*----------------------------------*\
  =========                 |
  \\      /  F ield         | OpenFOAM: The Open Source CFD Toolbox
   \\    /   O peration     | Website:  https://openfoam.org
    \\  /    A nd           | Version:  6
     \\/     M anipulation  |
\*---------------------------------------------------------------------------*/
FoamFile
{
    version     2.0;
    format      ascii;
    class       volVectorField;
    location    "4700";
    object      U;
}
// * * * * * * * * * * * * * * * * * * * * * * * * * * * * * * * * * * * * * //

dimensions      [0 1 -1 0 0 0 0];

internalField   nonuniform List<vector> 
4800
(
(-2.82442e-09 0 4.13144e-09)
(-1.10454e-08 0 1.35513e-09)
(-1.7963e-08 0 3.18417e-10)
(-2.48892e-08 0 2.95045e-11)
(-3.15316e-08 0 1.88757e-13)
(-3.78011e-08 0 7.13264e-11)
(-4.36254e-08 0 1.92752e-10)
(-4.89588e-08 0 3.22144e-10)
(-5.37593e-08 0 4.35693e-10)
(-5.79877e-08 0 5.06364e-10)
(-6.16257e-08 0 5.47826e-10)
(-6.46642e-08 0 5.32921e-10)
(-6.70924e-08 0 4.48755e-10)
(-6.89521e-08 0 3.8575e-10)
(-7.03153e-08 0 3.0074e-10)
(-7.12755e-08 0 2.36388e-10)
(-7.18575e-08 0 1.02234e-10)
(-7.16268e-08 0 -3.42723e-10)
(-7.08843e-08 0 -4.34237e-10)
(-7.01607e-08 0 -3.9386e-10)
(-6.91299e-08 0 -4.13362e-10)
(-6.73432e-08 0 -1.13813e-09)
(-6.53145e-08 0 -8.60428e-10)
(-6.32719e-08 0 -1.0307e-09)
(-6.08815e-08 0 -1.16763e-09)
(-5.82503e-08 0 -1.25123e-09)
(-5.54553e-08 0 -1.32865e-09)
(-5.24602e-08 0 -1.42533e-09)
(-4.92678e-08 0 -1.49631e-09)
(-4.5886e-08 0 -1.6036e-09)
(-4.2282e-08 0 -1.70322e-09)
(-3.84776e-08 0 -1.79915e-09)
(-3.44674e-08 0 -1.90441e-09)
(-3.02491e-08 0 -2.00693e-09)
(-2.58066e-08 0 -2.12341e-09)
(-2.11538e-08 0 -2.22148e-09)
(-1.63013e-08 0 -2.33175e-09)
(-1.12614e-08 0 -2.42183e-09)
(-6.02786e-09 0 -2.51776e-09)
(-6.50544e-10 0 -2.59364e-09)
(4.86219e-09 0 -2.66044e-09)
(1.04754e-08 0 -2.70185e-09)
(1.61326e-08 0 -2.72513e-09)
(2.18178e-08 0 -2.74065e-09)
(2.7472e-08 0 -2.70882e-09)
(3.30545e-08 0 -2.67683e-09)
(3.85065e-08 0 -2.60088e-09)
(4.3775e-08 0 -2.50328e-09)
(4.87989e-08 0 -2.36988e-09)
(5.35339e-08 0 -2.22932e-09)
(5.79369e-08 0 -2.05147e-09)
(6.1956e-08 0 -1.86127e-09)
(6.55527e-08 0 -1.64209e-09)
(6.86831e-08 0 -1.40806e-09)
(7.13185e-08 0 -1.15756e-09)
(7.34506e-08 0 -9.19745e-10)
(7.50842e-08 0 -6.62681e-10)
(7.61873e-08 0 -4.12279e-10)
(7.67764e-08 0 -1.45094e-10)
(7.68494e-08 0 7.94276e-11)
(7.64659e-08 0 3.07972e-10)
(7.56259e-08 0 5.17829e-10)
(7.43669e-08 0 7.15969e-10)
(7.27248e-08 0 8.87578e-10)
(7.07412e-08 0 1.04212e-09)
(6.84784e-08 0 1.15237e-09)
(6.59795e-08 0 1.26313e-09)
(6.32788e-08 0 1.34049e-09)
(6.04452e-08 0 1.37963e-09)
(5.75759e-08 0 1.36645e-09)
(5.47446e-08 0 1.33032e-09)
(5.20578e-08 0 1.22556e-09)
(4.97141e-08 0 1.01268e-09)
(4.81352e-08 0 5.13525e-10)
(4.8487e-08 0 -7.2252e-10)
(5.40405e-08 0 -4.32134e-09)
(7.00399e-08 0 -1.6875e-08)
(4.82757e-08 0 1.23048e-08)
(1.52961e-11 0 2.00707e-08)
(2.2453e-16 0 -1.33053e-18)
(1.12302e-16 0 2.06795e-20)
(2.19275e-16 0 4.2393e-19)
(2.17766e-16 0 7.13443e-19)
(2.15367e-16 0 9.92617e-19)
(2.12554e-16 0 1.29247e-18)
(2.0938e-16 0 1.55096e-18)
(2.05803e-16 0 1.79912e-18)
(2.01811e-16 0 2.03693e-18)
(1.97448e-16 0 2.27475e-18)
(1.92743e-16 0 2.48154e-18)
(1.87687e-16 0 2.66766e-18)
(1.82331e-16 0 2.82275e-18)
(1.76696e-16 0 2.96751e-18)
(1.70802e-16 0 3.09159e-18)
(1.64733e-16 0 3.20533e-18)
(1.58446e-16 0 3.2777e-18)
(1.52005e-16 0 3.35008e-18)
(1.4546e-16 0 3.40178e-18)
(1.38822e-16 0 3.4328e-18)
(1.32111e-16 0 3.4328e-18)
(1.25339e-16 0 3.44314e-18)
(1.18525e-16 0 3.41212e-18)
(1.1169e-16 0 3.37076e-18)
(1.04855e-16 0 3.33974e-18)
(9.80416e-17 0 3.29838e-18)
(9.12794e-17 0 3.23634e-18)
(8.45482e-17 0 3.16397e-18)
(7.78274e-17 0 3.08125e-18)
(7.11582e-17 0 3.01921e-18)
(6.45718e-17 0 2.93649e-18)
(5.80577e-17 0 2.84343e-18)
(5.15954e-17 0 2.76072e-18)
(4.52054e-17 0 2.66766e-18)
(3.88878e-17 0 2.58494e-18)
(3.26323e-17 0 2.50222e-18)
(2.64594e-17 0 2.44018e-18)
(2.03383e-17 0 2.3678e-18)
(1.42689e-17 0 2.30577e-18)
(8.34419e-18 0 2.19203e-18)
(2.71936e-18 0 1.95421e-18)
(-2.73854e-09 0 1.11173e-08)
(-1.0953e-08 0 1.31746e-08)
(-1.82841e-08 0 1.35977e-08)
(-2.54808e-08 0 1.32698e-08)
(-3.229e-08 0 1.2601e-08)
(-3.86683e-08 0 1.1734e-08)
(-4.45768e-08 0 1.07324e-08)
(-4.99554e-08 0 9.63339e-09)
(-5.4758e-08 0 8.47284e-09)
(-5.8975e-08 0 7.28407e-09)
(-6.25825e-08 0 6.09064e-09)
(-6.55535e-08 0 4.90594e-09)
(-6.79097e-08 0 3.72537e-09)
(-6.96946e-08 0 2.81466e-09)
(-7.1004e-08 0 2.02899e-09)
(-7.19424e-08 0 1.48894e-09)
(-7.24155e-08 0 7.52864e-10)
(-7.20704e-08 0 -8.04021e-10)
(-7.13346e-08 0 -1.18255e-09)
(-7.05772e-08 0 -1.12684e-09)
(-6.94518e-08 0 -1.34579e-09)
(-6.76169e-08 0 -3.50145e-09)
(-6.5621e-08 0 -2.7864e-09)
(-6.35344e-08 0 -3.31157e-09)
(-6.11095e-08 0 -3.82972e-09)
(-5.84547e-08 0 -4.08626e-09)
(-5.56651e-08 0 -4.35656e-09)
(-5.26739e-08 0 -4.68877e-09)
(-4.94696e-08 0 -4.94907e-09)
(-4.60766e-08 0 -5.28642e-09)
(-4.24773e-08 0 -5.59793e-09)
(-3.8676e-08 0 -5.89701e-09)
(-3.46616e-08 0 -6.22331e-09)
(-3.04404e-08 0 -6.52607e-09)
(-2.60111e-08 0 -6.85061e-09)
(-2.13568e-08 0 -7.1799e-09)
(-1.64837e-08 0 -7.47933e-09)
(-1.14316e-08 0 -7.74085e-09)
(-6.176e-09 0 -8.01493e-09)
(-7.77074e-10 0 -8.2246e-09)
(4.75997e-09 0 -8.40191e-09)
(1.04091e-08 0 -8.52005e-09)
(1.61132e-08 0 -8.57077e-09)
(2.18415e-08 0 -8.58161e-09)
(2.75497e-08 0 -8.49181e-09)
(3.31922e-08 0 -8.35232e-09)
(3.86987e-08 0 -8.11586e-09)
(4.40209e-08 0 -7.78769e-09)
(4.91053e-08 0 -7.38434e-09)
(5.39007e-08 0 -6.91996e-09)
(5.83493e-08 0 -6.37022e-09)
(6.24028e-08 0 -5.75856e-09)
(6.60193e-08 0 -5.08155e-09)
(6.91759e-08 0 -4.36245e-09)
(7.18383e-08 0 -3.58947e-09)
(7.39813e-08 0 -2.84069e-09)
(7.56105e-08 0 -2.05293e-09)
(7.66947e-08 0 -1.26647e-09)
(7.72686e-08 0 -4.65505e-10)
(7.73284e-08 0 2.4312e-10)
(7.69153e-08 0 9.50661e-10)
(7.60501e-08 0 1.59427e-09)
(7.47626e-08 0 2.22015e-09)
(7.30762e-08 0 2.76593e-09)
(7.10546e-08 0 3.2444e-09)
(6.87396e-08 0 3.63145e-09)
(6.61615e-08 0 3.98973e-09)
(6.33966e-08 0 4.23911e-09)
(6.05172e-08 0 4.3771e-09)
(5.75729e-08 0 4.39634e-09)
(5.46153e-08 0 4.32443e-09)
(5.17255e-08 0 4.05825e-09)
(4.89833e-08 0 3.51998e-09)
(4.63967e-08 0 2.4298e-09)
(4.36511e-08 0 8.47118e-11)
(3.97368e-08 0 -5.63636e-09)
(2.42144e-08 0 -2.17168e-08)
(1.62518e-08 0 5.295e-08)
(1.23645e-11 0 4.49665e-08)
(2.2292e-16 0 -6.63378e-18)
(1.12728e-16 0 -1.03398e-20)
(2.19958e-16 0 1.07533e-18)
(2.18334e-16 0 1.99557e-18)
(2.15936e-16 0 2.89513e-18)
(2.13113e-16 0 3.80503e-18)
(2.09897e-16 0 4.64255e-18)
(2.06289e-16 0 5.43871e-18)
(2.02287e-16 0 6.17284e-18)
(1.97893e-16 0 6.8656e-18)
(1.93136e-16 0 7.53768e-18)
(1.88049e-16 0 8.07535e-18)
(1.82641e-16 0 8.57166e-18)
(1.76965e-16 0 9.00593e-18)
(1.7104e-16 0 9.37816e-18)
(1.64909e-16 0 9.68835e-18)
(1.58581e-16 0 9.90549e-18)
(1.52129e-16 0 1.01019e-17)
(1.45553e-16 0 1.0226e-17)
(1.38853e-16 0 1.02881e-17)
(1.32111e-16 0 1.02881e-17)
(1.25308e-16 0 1.0257e-17)
(1.18463e-16 0 1.01743e-17)
(1.11618e-16 0 1.00502e-17)
(1.04773e-16 0 9.89515e-18)
(9.79485e-17 0 9.71937e-18)
(9.11553e-17 0 9.4919e-18)
(8.43828e-17 0 9.2334e-18)
(7.76723e-17 0 8.96457e-18)
(7.10238e-17 0 8.6854e-18)
(6.4396e-17 0 8.38554e-18)
(5.78613e-17 0 8.09603e-18)
(5.14196e-17 0 7.78584e-18)
(4.50296e-17 0 7.49633e-18)
(3.87327e-17 0 7.19647e-18)
(3.24979e-17 0 6.92764e-18)
(2.63147e-17 0 6.70016e-18)
(2.02039e-17 0 6.46235e-18)
(1.40931e-17 0 6.25555e-18)
(7.97195e-18 0 6.03842e-18)
(2.46086e-18 0 5.70755e-18)
(-3.13435e-09 0 1.79039e-08)
(-1.17818e-08 0 1.78017e-08)
(-1.88726e-08 0 1.73256e-08)
(-2.59413e-08 0 1.66493e-08)
(-3.27427e-08 0 1.57787e-08)
(-3.91543e-08 0 1.47595e-08)
(-4.5105e-08 0 1.36359e-08)
(-5.05443e-08 0 1.23773e-08)
(-5.54244e-08 0 1.1032e-08)
(-5.97035e-08 0 9.61979e-09)
(-6.33624e-08 0 8.16077e-09)
(-6.63837e-08 0 6.63323e-09)
(-6.87537e-08 0 5.08787e-09)
(-7.05519e-08 0 3.86656e-09)
(-7.19426e-08 0 2.82974e-09)
(-7.2936e-08 0 2.27453e-09)
(-7.3273e-08 0 5.95923e-10)
(-7.27658e-08 0 -1.51221e-09)
(-7.21236e-08 0 -1.97466e-09)
(-7.13562e-08 0 -1.92857e-09)
(-7.00166e-08 0 -2.74153e-09)
(-6.80667e-08 0 -5.56367e-09)
(-6.6143e-08 0 -4.73295e-09)
(-6.39804e-08 0 -5.50955e-09)
(-6.14994e-08 0 -6.44731e-09)
(-5.88476e-08 0 -6.75453e-09)
(-5.60593e-08 0 -7.22134e-09)
(-5.30655e-08 0 -7.76781e-09)
(-4.98724e-08 0 -8.21332e-09)
(-4.64953e-08 0 -8.74562e-09)
(-4.29142e-08 0 -9.25377e-09)
(-3.91222e-08 0 -9.7687e-09)
(-3.51075e-08 0 -1.03168e-08)
(-3.08744e-08 0 -1.08293e-08)
(-2.64246e-08 0 -1.13461e-08)
(-2.17579e-08 0 -1.19345e-08)
(-1.68763e-08 0 -1.24201e-08)
(-1.17975e-08 0 -1.2876e-08)
(-6.48741e-09 0 -1.33553e-08)
(-1.02915e-09 0 -1.37068e-08)
(4.56933e-09 0 -1.39989e-08)
(1.02876e-08 0 -1.42214e-08)
(1.60771e-08 0 -1.43299e-08)
(2.19098e-08 0 -1.43343e-08)
(2.77227e-08 0 -1.42258e-08)
(3.3462e-08 0 -1.396e-08)
(3.90578e-08 0 -1.35865e-08)
(4.44824e-08 0 -1.30375e-08)
(4.96724e-08 0 -1.23844e-08)
(5.4569e-08 0 -1.15952e-08)
(5.91088e-08 0 -1.06726e-08)
(6.32468e-08 0 -9.64585e-09)
(6.69413e-08 0 -8.50962e-09)
(7.01417e-08 0 -7.29903e-09)
(7.28295e-08 0 -6.01484e-09)
(7.50093e-08 0 -4.75757e-09)
(7.66578e-08 0 -3.42807e-09)
(7.77376e-08 0 -2.10088e-09)
(7.82986e-08 0 -7.82634e-10)
(7.83151e-08 0 4.27139e-10)
(7.7848e-08 0 1.60194e-09)
(7.69023e-08 0 2.68675e-09)
(7.55114e-08 0 3.72732e-09)
(7.37411e-08 0 4.62393e-09)
(7.16252e-08 0 5.4156e-09)
(6.91938e-08 0 6.08656e-09)
(6.6517e-08 0 6.64771e-09)
(6.36509e-08 0 7.05667e-09)
(6.06305e-08 0 7.27927e-09)
(5.75286e-08 0 7.3457e-09)
(5.43852e-08 0 7.26381e-09)
(5.12367e-08 0 6.92644e-09)
(4.80596e-08 0 6.3209e-09)
(4.4681e-08 0 5.28484e-09)
(4.04892e-08 0 3.71326e-09)
(3.41783e-08 0 1.49715e-09)
(1.97137e-08 0 -2.48172e-10)
(1.03433e-08 0 5.46875e-08)
(1.1557e-11 0 5.5306e-08)
(2.22854e-16 0 -1.19224e-17)
(1.13442e-16 0 -5.16988e-20)
(2.21281e-16 0 1.613e-18)
(2.19585e-16 0 3.226e-18)
(2.17166e-16 0 4.78731e-18)
(2.14291e-16 0 6.30725e-18)
(2.11014e-16 0 7.76516e-18)
(2.07333e-16 0 9.14035e-18)
(2.03238e-16 0 1.04225e-17)
(1.98803e-16 0 1.15909e-17)
(1.93964e-16 0 1.26765e-17)
(1.88752e-16 0 1.36175e-17)
(1.83262e-16 0 1.44653e-17)
(1.77503e-16 0 1.51788e-17)
(1.71485e-16 0 1.57681e-17)
(1.6525e-16 0 1.62644e-17)
(1.5886e-16 0 1.66263e-17)
(1.52325e-16 0 1.69158e-17)
(1.45646e-16 0 1.70709e-17)
(1.38884e-16 0 1.7133e-17)
(1.3208e-16 0 1.7133e-17)
(1.25235e-16 0 1.70399e-17)
(1.18339e-16 0 1.68641e-17)
(1.11401e-16 0 1.66263e-17)
(1.04514e-16 0 1.63265e-17)
(9.76487e-17 0 1.59542e-17)
(9.07934e-17 0 1.5551e-17)
(8.40209e-17 0 1.5065e-17)
(7.72897e-17 0 1.45687e-17)
(7.05999e-17 0 1.40207e-17)
(6.39824e-17 0 1.34727e-17)
(5.74374e-17 0 1.2935e-17)
(5.09957e-17 0 1.2387e-17)
(4.46264e-17 0 1.18597e-17)
(3.83191e-17 0 1.13324e-17)
(3.21256e-17 0 1.08464e-17)
(2.59735e-17 0 1.04018e-17)
(1.98834e-17 0 1.00192e-17)
(1.38346e-17 0 9.65733e-18)
(7.7755e-18 0 9.39884e-18)
(2.37814e-18 0 9.20239e-18)
(-3.18052e-09 0 2.60835e-08)
(-1.21172e-08 0 2.57759e-08)
(-1.94954e-08 0 2.51118e-08)
(-2.68038e-08 0 2.41758e-08)
(-3.37951e-08 0 2.29523e-08)
(-4.03938e-08 0 2.14832e-08)
(-4.6512e-08 0 1.98445e-08)
(-5.20781e-08 0 1.79984e-08)
(-5.70467e-08 0 1.6035e-08)
(-6.13976e-08 0 1.39586e-08)
(-6.5085e-08 0 1.18033e-08)
(-6.81014e-08 0 9.54285e-09)
(-7.04578e-08 0 7.3406e-09)
(-7.22241e-08 0 5.51545e-09)
(-7.36348e-08 0 4.10407e-09)
(-7.46014e-08 0 3.32701e-09)
(-7.4651e-08 0 4.21528e-10)
(-7.39051e-08 0 -2.24967e-09)
(-7.34341e-08 0 -2.74793e-09)
(-7.26038e-08 0 -2.5495e-09)
(-7.08679e-08 0 -4.49944e-09)
(-6.87776e-08 0 -7.43963e-09)
(-6.69371e-08 0 -6.74516e-09)
(-6.46437e-08 0 -7.75396e-09)
(-6.21132e-08 0 -9.1521e-09)
(-5.94751e-08 0 -9.40793e-09)
(-5.66615e-08 0 -1.01282e-08)
(-5.36558e-08 0 -1.08571e-08)
(-5.04737e-08 0 -1.14826e-08)
(-4.71197e-08 0 -1.22079e-08)
(-4.35485e-08 0 -1.29378e-08)
(-3.97553e-08 0 -1.36744e-08)
(-3.575e-08 0 -1.44342e-08)
(-3.15276e-08 0 -1.51729e-08)
(-2.70768e-08 0 -1.58899e-08)
(-2.23975e-08 0 -1.67308e-08)
(-1.74885e-08 0 -1.74262e-08)
(-1.23557e-08 0 -1.80886e-08)
(-6.98948e-09 0 -1.87723e-08)
(-1.46477e-09 0 -1.92935e-08)
(4.25702e-09 0 -1.97281e-08)
(1.01132e-08 0 -2.00413e-08)
(1.60061e-08 0 -2.022e-08)
(2.19753e-08 0 -2.02371e-08)
(2.79305e-08 0 -2.00928e-08)
(3.38415e-08 0 -1.97294e-08)
(3.96222e-08 0 -1.92072e-08)
(4.52172e-08 0 -1.84412e-08)
(5.05628e-08 0 -1.75135e-08)
(5.55999e-08 0 -1.64001e-08)
(6.02737e-08 0 -1.50868e-08)
(6.45281e-08 0 -1.36305e-08)
(6.83232e-08 0 -1.20196e-08)
(7.16204e-08 0 -1.02935e-08)
(7.43812e-08 0 -8.47702e-09)
(7.65851e-08 0 -6.68558e-09)
(7.82177e-08 0 -4.77994e-09)
(7.9279e-08 0 -2.90515e-09)
(7.98049e-08 0 -1.04881e-09)
(7.97701e-08 0 6.97445e-10)
(7.92019e-08 0 2.36206e-09)
(7.81627e-08 0 3.91297e-09)
(7.66728e-08 0 5.37258e-09)
(7.4777e-08 0 6.64268e-09)
(7.25132e-08 0 7.77243e-09)
(6.99305e-08 0 8.74498e-09)
(6.7083e-08 0 9.51923e-09)
(6.40316e-08 0 1.01157e-08)
(6.08287e-08 0 1.04564e-08)
(5.75246e-08 0 1.05871e-08)
(5.41608e-08 0 1.05371e-08)
(5.07723e-08 0 1.01903e-08)
(4.73534e-08 0 9.62597e-09)
(4.37866e-08 0 8.88341e-09)
(3.98342e-08 0 8.1481e-09)
(3.54355e-08 0 8.11401e-09)
(3.01835e-08 0 1.11521e-08)
(9.02273e-09 0 6.3956e-08)
(1.11542e-11 0 6.30082e-08)
(2.22618e-16 0 -1.25767e-17)
(1.14474e-16 0 -3.10193e-20)
(2.23246e-16 0 2.26441e-18)
(2.21498e-16 0 4.54949e-18)
(2.19027e-16 0 6.78288e-18)
(2.16111e-16 0 8.92321e-18)
(2.1273e-16 0 1.10015e-17)
(2.08956e-16 0 1.2935e-17)
(2.04748e-16 0 1.47652e-17)
(2.00136e-16 0 1.64402e-17)
(1.95163e-16 0 1.79085e-17)
(1.89848e-16 0 1.92526e-17)
(1.84192e-16 0 2.0421e-17)
(1.78257e-16 0 2.1424e-17)
(1.72126e-16 0 2.22098e-17)
(1.65777e-16 0 2.28922e-17)
(1.59253e-16 0 2.33885e-17)
(1.52573e-16 0 2.37504e-17)
(1.4577e-16 0 2.39572e-17)
(1.38925e-16 0 2.40296e-17)
(1.32018e-16 0 2.39779e-17)
(1.25049e-16 0 2.38331e-17)
(1.18049e-16 0 2.35333e-17)
(1.1107e-16 0 2.31714e-17)
(1.04101e-16 0 2.27061e-17)
(9.71524e-17 0 2.21478e-17)
(9.02558e-17 0 2.15377e-17)
(8.34108e-17 0 2.0845e-17)
(7.66383e-17 0 2.01005e-17)
(6.99278e-17 0 1.93043e-17)
(6.33e-17 0 1.85185e-17)
(5.67653e-17 0 1.7712e-17)
(5.03339e-17 0 1.69262e-17)
(4.3975e-17 0 1.613e-17)
(3.77091e-17 0 1.53959e-17)
(3.15673e-17 0 1.46825e-17)
(2.54875e-17 0 1.40414e-17)
(1.94491e-17 0 1.35037e-17)
(1.3483e-17 0 1.30488e-17)
(7.53768e-18 0 1.26972e-17)
(2.27475e-18 0 1.24697e-17)
(-3.24714e-09 0 3.43759e-08)
(-1.25915e-08 0 3.40193e-08)
(-2.03876e-08 0 3.31908e-08)
(-2.80782e-08 0 3.1946e-08)
(-3.53929e-08 0 3.03292e-08)
(-4.22731e-08 0 2.83653e-08)
(-4.86161e-08 0 2.61276e-08)
(-5.43568e-08 0 2.36424e-08)
(-5.94547e-08 0 2.09916e-08)
(-6.38578e-08 0 1.82116e-08)
(-6.75546e-08 0 1.53133e-08)
(-7.05754e-08 0 1.22725e-08)
(-7.28451e-08 0 9.55925e-09)
(-7.45977e-08 0 6.97537e-09)
(-7.5988e-08 0 5.52057e-09)
(-7.66193e-08 0 4.81914e-09)
(-7.6418e-08 0 -8.9297e-10)
(-7.5595e-08 0 -3.12824e-09)
(-7.51609e-08 0 -3.00339e-09)
(-7.40447e-08 0 -2.60147e-09)
(-7.1947e-08 0 -8.71204e-09)
(-6.98692e-08 0 -8.30339e-09)
(-6.79246e-08 0 -9.02922e-09)
(-6.55115e-08 0 -1.01419e-08)
(-6.29167e-08 0 -1.18639e-08)
(-6.02843e-08 0 -1.20758e-08)
(-5.74277e-08 0 -1.30645e-08)
(-5.4427e-08 0 -1.39445e-08)
(-5.12643e-08 0 -1.47342e-08)
(-4.7916e-08 0 -1.56627e-08)
(-4.43605e-08 0 -1.66062e-08)
(-4.0613e-08 0 -1.75522e-08)
(-3.66447e-08 0 -1.85302e-08)
(-3.24348e-08 0 -1.95113e-08)
(-2.79817e-08 0 -2.04415e-08)
(-2.32677e-08 0 -2.15595e-08)
(-1.83159e-08 0 -2.24744e-08)
(-1.31088e-08 0 -2.33874e-08)
(-7.6438e-09 0 -2.42666e-08)
(-2.01598e-09 0 -2.49835e-08)
(3.80581e-09 0 -2.55882e-08)
(9.82167e-09 0 -2.60065e-08)
(1.58913e-08 0 -2.62608e-08)
(2.20622e-08 0 -2.63246e-08)
(2.82298e-08 0 -2.61403e-08)
(3.43558e-08 0 -2.57102e-08)
(4.03625e-08 0 -2.5026e-08)
(4.61763e-08 0 -2.40476e-08)
(5.1743e-08 0 -2.28265e-08)
(5.69905e-08 0 -2.13772e-08)
(6.18713e-08 0 -1.9679e-08)
(6.63056e-08 0 -1.77441e-08)
(7.02494e-08 0 -1.56567e-08)
(7.36651e-08 0 -1.33872e-08)
(7.6492e-08 0 -1.0988e-08)
(7.87436e-08 0 -8.63027e-09)
(8.03821e-08 0 -6.11934e-09)
(8.14196e-08 0 -3.67694e-09)
(8.1865e-08 0 -1.26362e-09)
(8.1763e-08 0 1.04908e-09)
(8.10732e-08 0 3.23669e-09)
(7.98956e-08 0 5.24896e-09)
(7.82358e-08 0 7.16121e-09)
(7.615e-08 0 8.81158e-09)
(7.37091e-08 0 1.02883e-08)
(7.0916e-08 0 1.15796e-08)
(6.7839e-08 0 1.25728e-08)
(6.45665e-08 0 1.33583e-08)
(6.11363e-08 0 1.38355e-08)
(5.75698e-08 0 1.40602e-08)
(5.39515e-08 0 1.40158e-08)
(5.03387e-08 0 1.36813e-08)
(4.67666e-08 0 1.30929e-08)
(4.33003e-08 0 1.24135e-08)
(3.99636e-08 0 1.19261e-08)
(3.70801e-08 0 1.22889e-08)
(3.37451e-08 0 1.55129e-08)
(8.72034e-09 0 8.62752e-08)
(1.07202e-11 0 7.22068e-08)
(2.25122e-16 0 -1.59268e-17)
(1.15868e-16 0 -2.06795e-20)
(2.25862e-16 0 2.97785e-18)
(2.24083e-16 0 5.94536e-18)
(2.2154e-16 0 8.87151e-18)
(2.1852e-16 0 1.16632e-17)
(2.15026e-16 0 1.43723e-17)
(2.11107e-16 0 1.68848e-17)
(2.06754e-16 0 1.9232e-17)
(2.01956e-16 0 2.13723e-17)
(1.96766e-16 0 2.32955e-17)
(1.91255e-16 0 2.50015e-17)
(1.85433e-16 0 2.64905e-17)
(1.79291e-16 0 2.77726e-17)
(1.72953e-16 0 2.87755e-17)
(1.66429e-16 0 2.96131e-17)
(1.59718e-16 0 3.02335e-17)
(1.52884e-16 0 3.0647e-17)
(1.45935e-16 0 3.08952e-17)
(1.38915e-16 0 3.09572e-17)
(1.31863e-16 0 3.08332e-17)
(1.2478e-16 0 3.05747e-17)
(1.17677e-16 0 3.01714e-17)
(1.10563e-16 0 2.96337e-17)
(1.0348e-16 0 2.89823e-17)
(9.64699e-17 0 2.82379e-17)
(8.94906e-17 0 2.73797e-17)
(8.25733e-17 0 2.64491e-17)
(7.57387e-17 0 2.54461e-17)
(6.90179e-17 0 2.44018e-17)
(6.23901e-17 0 2.33265e-17)
(5.58347e-17 0 2.22512e-17)
(4.94137e-17 0 2.11655e-17)
(4.30961e-17 0 2.01108e-17)
(3.68819e-17 0 1.91182e-17)
(3.07815e-17 0 1.8198e-17)
(2.47844e-17 0 1.73708e-17)
(1.88907e-17 0 1.66574e-17)
(1.30488e-17 0 1.60887e-17)
(7.22749e-18 0 1.56544e-17)
(2.16101e-18 0 1.53959e-17)
(-3.41089e-09 0 4.29146e-08)
(-1.33288e-08 0 4.23862e-08)
(-2.15672e-08 0 4.13034e-08)
(-2.97036e-08 0 3.96941e-08)
(-3.74193e-08 0 3.76648e-08)
(-4.46368e-08 0 3.5198e-08)
(-5.12584e-08 0 3.23568e-08)
(-5.72288e-08 0 2.92401e-08)
(-6.24847e-08 0 2.58883e-08)
(-6.69596e-08 0 2.23597e-08)
(-7.06868e-08 0 1.86972e-08)
(-7.36901e-08 0 1.48946e-08)
(-7.5753e-08 0 1.18677e-08)
(-7.77176e-08 0 7.97312e-09)
(-7.91621e-08 0 6.71378e-09)
(-7.91314e-08 0 5.2103e-09)
(-7.84582e-08 0 -1.5951e-09)
(-7.79117e-08 0 -3.64507e-09)
(-7.7299e-08 0 -3.88422e-09)
(-7.56069e-08 0 -3.76975e-09)
(-7.32831e-08 0 -1.12894e-08)
(-7.12751e-08 0 -9.98608e-09)
(-6.90793e-08 0 -1.13132e-08)
(-6.65252e-08 0 -1.27599e-08)
(-6.38882e-08 0 -1.43715e-08)
(-6.12444e-08 0 -1.4862e-08)
(-5.83673e-08 0 -1.59811e-08)
(-5.53829e-08 0 -1.70149e-08)
(-5.22436e-08 0 -1.7956e-08)
(-4.89234e-08 0 -1.91073e-08)
(-4.54063e-08 0 -2.02389e-08)
(-4.16914e-08 0 -2.13906e-08)
(-3.77439e-08 0 -2.26118e-08)
(-3.35475e-08 0 -2.38487e-08)
(-2.90851e-08 0 -2.50218e-08)
(-2.4342e-08 0 -2.64063e-08)
(-1.93794e-08 0 -2.75726e-08)
(-1.40918e-08 0 -2.87821e-08)
(-8.53776e-09 0 -2.98651e-08)
(-2.76675e-09 0 -3.07918e-08)
(3.2067e-09 0 -3.15963e-08)
(9.41136e-09 0 -3.21763e-08)
(1.57469e-08 0 -3.2514e-08)
(2.21398e-08 0 -3.26428e-08)
(2.85742e-08 0 -3.2432e-08)
(3.49779e-08 0 -3.19362e-08)
(4.12665e-08 0 -3.10842e-08)
(4.73453e-08 0 -2.99068e-08)
(5.32091e-08 0 -2.8397e-08)
(5.87555e-08 0 -2.6594e-08)
(6.38785e-08 0 -2.4473e-08)
(6.85375e-08 0 -2.20537e-08)
(7.26803e-08 0 -1.94446e-08)
(7.62346e-08 0 -1.65644e-08)
(7.91719e-08 0 -1.35966e-08)
(8.14889e-08 0 -1.06133e-08)
(8.31421e-08 0 -7.44154e-09)
(8.41454e-08 0 -4.39106e-09)
(8.45198e-08 0 -1.38438e-09)
(8.42885e-08 0 1.51109e-09)
(8.34498e-08 0 4.27881e-09)
(8.20811e-08 0 6.72604e-09)
(8.02484e-08 0 9.16049e-09)
(7.79402e-08 0 1.11985e-08)
(7.52247e-08 0 1.30276e-08)
(7.2178e-08 0 1.46369e-08)
(6.88568e-08 0 1.59102e-08)
(6.53004e-08 0 1.68507e-08)
(6.15604e-08 0 1.74753e-08)
(5.77017e-08 0 1.78048e-08)
(5.37877e-08 0 1.7771e-08)
(4.98903e-08 0 1.74113e-08)
(4.61246e-08 0 1.66876e-08)
(4.26832e-08 0 1.57423e-08)
(3.97994e-08 0 1.47615e-08)
(3.82708e-08 0 1.39441e-08)
(3.49109e-08 0 2.00122e-08)
(6.2371e-09 0 1.1197e-07)
(9.71428e-12 0 7.68387e-08)
(2.28903e-16 0 -1.7868e-17)
(1.1766e-16 0 -1.37125e-26)
(2.29222e-16 0 3.75333e-18)
(2.27392e-16 0 7.44463e-18)
(2.24745e-16 0 1.10635e-17)
(2.21602e-16 0 1.4548e-17)
(2.17941e-16 0 1.78774e-17)
(2.13816e-16 0 2.10104e-17)
(2.09225e-16 0 2.38848e-17)
(2.042e-16 0 2.65111e-17)
(1.98792e-16 0 2.88583e-17)
(1.93033e-16 0 3.09469e-17)
(1.86964e-16 0 3.27357e-17)
(1.80563e-16 0 3.4266e-17)
(1.73977e-16 0 3.54964e-17)
(1.67215e-16 0 3.6458e-17)
(1.60266e-16 0 3.71714e-17)
(1.53225e-16 0 3.76264e-17)
(1.4609e-16 0 3.78745e-17)
(1.38863e-16 0 3.78642e-17)
(1.31625e-16 0 3.76781e-17)
(1.24387e-16 0 3.72852e-17)
(1.17118e-16 0 3.67268e-17)
(1.09891e-16 0 3.59927e-17)
(1.02705e-16 0 3.51552e-17)
(9.556e-17 0 3.41832e-17)
(8.84773e-17 0 3.30665e-17)
(8.14876e-17 0 3.18361e-17)
(7.4591e-17 0 3.05643e-17)
(6.78185e-17 0 2.92305e-17)
(6.11597e-17 0 2.7845e-17)
(5.46043e-17 0 2.64698e-17)
(4.8204e-17 0 2.50843e-17)
(4.19277e-17 0 2.37608e-17)
(3.58066e-17 0 2.2489e-17)
(2.98095e-17 0 2.13619e-17)
(2.39262e-17 0 2.0328e-17)
(1.8167e-17 0 1.94491e-17)
(1.24801e-17 0 1.87253e-17)
(6.85526e-18 0 1.82083e-17)
(2.02659e-18 0 1.78981e-17)
(-3.60732e-09 0 5.20177e-08)
(-1.42306e-08 0 5.13114e-08)
(-2.30224e-08 0 4.99461e-08)
(-3.16999e-08 0 4.7958e-08)
(-3.99175e-08 0 4.54432e-08)
(-4.75648e-08 0 4.24067e-08)
(-5.45555e-08 0 3.88933e-08)
(-6.07901e-08 0 3.5068e-08)
(-6.61995e-08 0 3.09315e-08)
(-7.07706e-08 0 2.65851e-08)
(-7.46901e-08 0 2.18603e-08)
(-7.73625e-08 0 1.80255e-08)
(-7.94946e-08 0 1.32426e-08)
(-8.17415e-08 0 9.57124e-09)
(-8.27819e-08 0 9.0407e-09)
(-8.22093e-08 0 3.37003e-09)
(-8.0962e-08 0 -2.41765e-09)
(-8.08867e-08 0 -4.40043e-09)
(-7.99105e-08 0 -4.17279e-09)
(-7.72074e-08 0 -5.82067e-09)
(-7.46701e-08 0 -1.41371e-08)
(-7.29955e-08 0 -1.16559e-08)
(-7.03933e-08 0 -1.3723e-08)
(-6.76758e-08 0 -1.56558e-08)
(-6.50213e-08 0 -1.68039e-08)
(-6.23591e-08 0 -1.77025e-08)
(-5.947e-08 0 -1.88811e-08)
(-5.64906e-08 0 -2.0064e-08)
(-5.33809e-08 0 -2.11547e-08)
(-5.01143e-08 0 -2.24918e-08)
(-4.66628e-08 0 -2.38148e-08)
(-4.30036e-08 0 -2.51884e-08)
(-3.91034e-08 0 -2.66597e-08)
(-3.49422e-08 0 -2.81628e-08)
(-3.05084e-08 0 -2.96075e-08)
(-2.57354e-08 0 -3.12893e-08)
(-2.07227e-08 0 -3.27118e-08)
(-1.53705e-08 0 -3.42602e-08)
(-9.70435e-09 0 -3.56069e-08)
(-3.72233e-09 0 -3.67666e-08)
(2.44261e-09 0 -3.78113e-08)
(8.87704e-09 0 -3.85915e-08)
(1.55088e-08 0 -3.90245e-08)
(2.21754e-08 0 -3.92338e-08)
(2.8949e-08 0 -3.90483e-08)
(3.56972e-08 0 -3.8485e-08)
(4.23722e-08 0 -3.74867e-08)
(4.88576e-08 0 -3.60937e-08)
(5.50709e-08 0 -3.4308e-08)
(6.09534e-08 0 -3.21126e-08)
(6.63935e-08 0 -2.95291e-08)
(7.13283e-08 0 -2.66075e-08)
(7.56882e-08 0 -2.34093e-08)
(7.94256e-08 0 -1.98902e-08)
(8.2501e-08 0 -1.63066e-08)
(8.48889e-08 0 -1.26008e-08)
(8.65502e-08 0 -8.79112e-09)
(8.75133e-08 0 -5.03335e-09)
(8.77918e-08 0 -1.39871e-09)
(8.73891e-08 0 2.14101e-09)
(8.6383e-08 0 5.48263e-09)
(8.48057e-08 0 8.48953e-09)
(8.26689e-08 0 1.13455e-08)
(8.00908e-08 0 1.38421e-08)
(7.7096e-08 0 1.60597e-08)
(7.37426e-08 0 1.80432e-08)
(7.00877e-08 0 1.94835e-08)
(6.61969e-08 0 2.0645e-08)
(6.21187e-08 0 2.14705e-08)
(5.78805e-08 0 2.18949e-08)
(5.35635e-08 0 2.19004e-08)
(4.9256e-08 0 2.14831e-08)
(4.51059e-08 0 2.05406e-08)
(4.13921e-08 0 1.90613e-08)
(3.85967e-08 0 1.70265e-08)
(3.69187e-08 0 1.48223e-08)
(2.14418e-08 0 4.02952e-08)
(2.01219e-09 0 1.46516e-07)
(9.01661e-12 0 7.47632e-08)
(2.30085e-16 0 -1.12088e-17)
(1.19825e-16 0 1.03398e-19)
(2.33306e-16 0 4.61153e-18)
(2.31404e-16 0 9.04729e-18)
(2.28664e-16 0 1.34003e-17)
(2.25345e-16 0 1.76086e-17)
(2.21488e-16 0 2.15998e-17)
(2.17114e-16 0 2.53427e-17)
(2.12244e-16 0 2.87755e-17)
(2.06919e-16 0 3.19188e-17)
(2.01212e-16 0 3.47002e-17)
(1.95132e-16 0 3.71508e-17)
(1.88742e-16 0 3.92187e-17)
(1.82062e-16 0 4.09558e-17)
(1.75156e-16 0 4.2393e-17)
(1.68104e-16 0 4.34477e-17)
(1.60876e-16 0 4.42335e-17)
(1.53566e-16 0 4.46884e-17)
(1.46173e-16 0 4.48849e-17)
(1.38718e-16 0 4.48022e-17)
(1.31274e-16 0 4.4492e-17)
(1.23829e-16 0 4.39647e-17)
(1.16395e-16 0 4.32099e-17)
(1.08991e-16 0 4.22586e-17)
(1.01661e-16 0 4.11729e-17)
(9.43917e-17 0 3.99115e-17)
(8.71745e-17 0 3.85053e-17)
(8.00814e-17 0 3.6975e-17)
(7.31228e-17 0 3.53827e-17)
(6.62882e-17 0 3.3718e-17)
(5.9619e-17 0 3.20222e-17)
(5.30843e-17 0 3.03058e-17)
(4.66944e-17 0 2.86308e-17)
(4.05008e-17 0 2.69868e-17)
(3.44831e-17 0 2.54668e-17)
(2.86101e-17 0 2.40916e-17)
(2.28819e-17 0 2.28405e-17)
(1.72984e-17 0 2.17962e-17)
(1.18183e-17 0 2.09484e-17)
(6.40031e-18 0 2.0328e-17)
(1.85082e-18 0 1.99661e-17)
(-3.85771e-09 0 6.18282e-08)
(-1.5363e-08 0 6.09421e-08)
(-2.48492e-08 0 5.92728e-08)
(-3.41788e-08 0 5.68716e-08)
(-4.29948e-08 0 5.37857e-08)
(-5.11408e-08 0 5.00961e-08)
(-5.85744e-08 0 4.58261e-08)
(-6.51126e-08 0 4.11848e-08)
(-7.06888e-08 0 3.61928e-08)
(-7.56877e-08 0 3.05411e-08)
(-7.93302e-08 0 2.57539e-08)
(-8.17435e-08 0 2.06876e-08)
(-8.436e-08 0 1.44806e-08)
(-8.68079e-08 0 1.18338e-08)
(-8.65419e-08 0 1.10012e-08)
(-8.56349e-08 0 4.31452e-10)
(-8.45191e-08 0 -2.97838e-09)
(-8.43699e-08 0 -4.95686e-09)
(-8.2209e-08 0 -3.14714e-09)
(-7.89684e-08 0 -1.44698e-08)
(-7.68448e-08 0 -1.26443e-08)
(-7.46414e-08 0 -1.48544e-08)
(-7.18008e-08 0 -1.58933e-08)
(-6.89229e-08 0 -1.90913e-08)
(-6.63371e-08 0 -1.90793e-08)
(-6.35256e-08 0 -2.05941e-08)
(-6.06643e-08 0 -2.18126e-08)
(-5.77287e-08 0 -2.30579e-08)
(-5.47014e-08 0 -2.4294e-08)
(-5.15098e-08 0 -2.58e-08)
(-4.81541e-08 0 -2.73139e-08)
(-4.45738e-08 0 -2.89359e-08)
(-4.07303e-08 0 -3.06573e-08)
(-3.66082e-08 0 -3.24493e-08)
(-3.22091e-08 0 -3.417e-08)
(-2.74637e-08 0 -3.61997e-08)
(-2.2363e-08 0 -3.79357e-08)
(-1.69115e-08 0 -3.98462e-08)
(-1.11171e-08 0 -4.14939e-08)
(-4.9641e-09 0 -4.29625e-08)
(1.45596e-09 0 -4.42434e-08)
(8.13446e-09 0 -4.52712e-08)
(1.50843e-08 0 -4.58946e-08)
(2.21943e-08 0 -4.61412e-08)
(2.93172e-08 0 -4.60332e-08)
(3.64943e-08 0 -4.54376e-08)
(4.36182e-08 0 -4.43317e-08)
(5.05894e-08 0 -4.26882e-08)
(5.72198e-08 0 -4.05967e-08)
(6.35267e-08 0 -3.80006e-08)
(6.93721e-08 0 -3.49349e-08)
(7.46793e-08 0 -3.14513e-08)
(7.93359e-08 0 -2.76187e-08)
(8.33013e-08 0 -2.3379e-08)
(8.65255e-08 0 -1.91266e-08)
(8.89783e-08 0 -1.46182e-08)
(9.06316e-08 0 -1.0104e-08)
(9.15405e-08 0 -5.60591e-09)
(9.16929e-08 0 -1.26516e-09)
(9.1115e-08 0 2.99059e-09)
(8.98766e-08 0 6.86422e-09)
(8.80336e-08 0 1.04815e-08)
(8.56106e-08 0 1.38936e-08)
(8.26749e-08 0 1.68216e-08)
(7.93052e-08 0 1.94871e-08)
(7.55864e-08 0 2.16413e-08)
(7.15732e-08 0 2.34601e-08)
(6.72912e-08 0 2.48507e-08)
(6.27893e-08 0 2.58447e-08)
(5.81269e-08 0 2.64043e-08)
(5.33419e-08 0 2.64769e-08)
(4.84969e-08 0 2.60506e-08)
(4.36736e-08 0 2.497e-08)
(3.9141e-08 0 2.29524e-08)
(3.57385e-08 0 1.95004e-08)
(3.64411e-08 0 1.25958e-08)
(8.42848e-09 0 7.32362e-08)
(-4.52902e-10 0 1.31713e-07)
(8.4866e-12 0 7.2757e-08)
(2.3593e-16 0 -7.29957e-18)
(1.22386e-16 0 2.17135e-19)
(2.38145e-16 0 5.55245e-18)
(2.36181e-16 0 1.0805e-17)
(2.33317e-16 0 1.59439e-17)
(2.29801e-16 0 2.08967e-17)
(2.25676e-16 0 2.55806e-17)
(2.21002e-16 0 2.99646e-17)
(2.15811e-16 0 3.39868e-17)
(2.10114e-16 0 3.7616e-17)
(2.04024e-16 0 4.08317e-17)
(1.97551e-16 0 4.36234e-17)
(1.90748e-16 0 4.59912e-17)
(1.83727e-16 0 4.79351e-17)
(1.76479e-16 0 4.94861e-17)
(1.69065e-16 0 5.06441e-17)
(1.61507e-16 0 5.14506e-17)
(1.53876e-16 0 5.18746e-17)
(1.46204e-16 0 5.19883e-17)
(1.3847e-16 0 5.17919e-17)
(1.30767e-16 0 5.13266e-17)
(1.23105e-16 0 5.06028e-17)
(1.15433e-16 0 4.96205e-17)
(1.07833e-16 0 4.84107e-17)
(1.00347e-16 0 4.70045e-17)
(9.29027e-17 0 4.54019e-17)
(8.55512e-17 0 4.36855e-17)
(7.8365e-17 0 4.1845e-17)
(7.1334e-17 0 3.98804e-17)
(6.44581e-17 0 3.78642e-17)
(5.77579e-17 0 3.58169e-17)
(5.12232e-17 0 3.37386e-17)
(4.48746e-17 0 3.17431e-17)
(3.87741e-17 0 2.97992e-17)
(3.29011e-17 0 2.80104e-17)
(2.71832e-17 0 2.63457e-17)
(2.16515e-17 0 2.48981e-17)
(1.62644e-17 0 2.36677e-17)
(1.10015e-17 0 2.26854e-17)
(5.86264e-18 0 2.19616e-17)
(1.65436e-18 0 2.15894e-17)
(-4.16538e-09 0 7.24989e-08)
(-1.67561e-08 0 7.14179e-08)
(-2.70991e-08 0 6.93976e-08)
(-3.71936e-08 0 6.65076e-08)
(-4.67257e-08 0 6.27693e-08)
(-5.5507e-08 0 5.83104e-08)
(-6.33612e-08 0 5.32709e-08)
(-7.02752e-08 0 4.75718e-08)
(-7.64402e-08 0 4.12507e-08)
(-8.13484e-08 0 3.5306e-08)
(-8.46684e-08 0 2.94961e-08)
(-8.72837e-08 0 2.26095e-08)
(-9.07933e-08 0 1.59787e-08)
(-9.17527e-08 0 1.5683e-08)
(-9.11107e-08 0 7.96184e-09)
(-8.97636e-08 0 -3.18296e-10)
(-8.93463e-08 0 -4.70628e-09)
(-8.76445e-08 0 -5.14405e-09)
(-8.44163e-08 0 -4.79128e-09)
(-8.11326e-08 0 -1.8626e-08)
(-7.93707e-08 0 -1.39234e-08)
(-7.62244e-08 0 -1.77731e-08)
(-7.32526e-08 0 -1.90649e-08)
(-7.03626e-08 0 -2.14749e-08)
(-6.77061e-08 0 -2.19301e-08)
(-6.47935e-08 0 -2.33756e-08)
(-6.1961e-08 0 -2.47032e-08)
(-5.9103e-08 0 -2.59288e-08)
(-5.61542e-08 0 -2.73789e-08)
(-5.30717e-08 0 -2.89928e-08)
(-4.98372e-08 0 -3.07005e-08)
(-4.63788e-08 0 -3.25784e-08)
(-4.26482e-08 0 -3.45793e-08)
(-3.86028e-08 0 -3.6686e-08)
(-3.42491e-08 0 -3.87335e-08)
(-2.95314e-08 0 -4.10465e-08)
(-2.43212e-08 0 -4.33207e-08)
(-1.88109e-08 0 -4.54829e-08)
(-1.28945e-08 0 -4.75568e-08)
(-6.54672e-09 0 -4.94062e-08)
(2.15256e-10 0 -5.09417e-08)
(7.19842e-09 0 -5.22617e-08)
(1.44869e-08 0 -5.31428e-08)
(2.20554e-08 0 -5.35578e-08)
(2.97389e-08 0 -5.34322e-08)
(3.7416e-08 0 -5.28722e-08)
(4.50651e-08 0 -5.16798e-08)
(5.25832e-08 0 -4.98318e-08)
(5.98271e-08 0 -4.73449e-08)
(6.6616e-08 0 -4.43568e-08)
(7.29507e-08 0 -4.0769e-08)
(7.86504e-08 0 -3.6666e-08)
(8.36431e-08 0 -3.20291e-08)
(8.78794e-08 0 -2.71609e-08)
(9.13156e-08 0 -2.20708e-08)
(9.38613e-08 0 -1.6667e-08)
(9.55224e-08 0 -1.13637e-08)
(9.63494e-08 0 -6.08108e-09)
(9.6328e-08 0 -9.52403e-10)
(9.55305e-08 0 4.02891e-09)
(9.40211e-08 0 8.6149e-09)
(9.181e-08 0 1.27847e-08)
(8.9003e-08 0 1.67691e-08)
(8.56706e-08 0 2.02242e-08)
(8.18912e-08 0 2.31916e-08)
(7.77583e-08 0 2.57464e-08)
(7.33081e-08 0 2.78474e-08)
(6.85819e-08 0 2.94659e-08)