0 	-13.5629
0.010101 	-8.35838
0.020202 	-5.29382
0.030303 	-8.29683
0.040404 	-8.35838
