/*--------------------------------*- C++ -*----------------------------------*\
  =========                 |
  \\      /  F ield         | OpenFOAM: The Open Source CFD Toolbox
   \\    /   O peration     | Website:  https://openfoam.org
    \\  /    A nd           | Version:  6
     \\/     M anipulation  |
\*---------------------------------------------------------------------------*/
FoamFile
{
    version     2.0;
    format      ascii;
    class       surfaceScalarField;
    location    "4000";
    object      phi;
}
// * * * * * * * * * * * * * * * * * * * * * * * * * * * * * * * * * * * * * //

dimensions      [0 3 -1 0 0 0 0];

internalField   nonuniform List<scalar> 
9440
(
1.05021e-10
-1.05021e-10
1.98058e-10
-9.30365e-11
2.50303e-10
-5.22452e-11
2.3862e-10
1.1683e-11
2.02547e-10
3.60725e-11
1.68511e-10
3.40362e-11
1.28186e-10
4.03252e-11
1.43801e-11
1.13805e-10
-9.58094e-11
1.10189e-10
-2.15743e-10
1.19934e-10
-4.07177e-10
1.91434e-10
-5.7259e-10
1.65413e-10
-7.48086e-10
1.75496e-10
-8.82987e-10
1.34901e-10
-9.73074e-10
9.00864e-11
-1.01473e-09
4.16509e-11
-9.86191e-10
-2.85345e-11
-9.46433e-10
-3.9758e-11
-8.87269e-10
-5.91646e-11
-8.82204e-10
-5.06484e-12
-8.70988e-10
-1.12168e-11
-8.44431e-10
-2.65573e-11
-7.73942e-10
-7.04887e-11
-6.48455e-10
-1.25488e-10
-5.51364e-10
-9.70913e-11
-3.67149e-10
-1.84216e-10
-3.17296e-10
-4.98538e-11
-3.06496e-10
-1.08003e-11
-3.34882e-10
2.83858e-11
-1.80353e-10
-1.5453e-10
-1.55541e-10
-2.48123e-11
-7.93713e-11
-7.61703e-11
-1.89678e-12
-7.74752e-11
3.17864e-11
-3.36838e-11
9.18778e-12
2.25979e-11
-2.6158e-11
3.53451e-11
-4.97391e-11
2.35802e-11
-9.41752e-11
4.44353e-11
-1.2073e-10
2.65538e-11
-1.28219e-10
7.48823e-12
-1.37608e-10
9.38822e-12
-1.7287e-10
3.52609e-11
-1.46531e-10
-2.63393e-11
-2.24146e-10
7.76138e-11
-1.72949e-10
-5.11978e-11
-1.19529e-10
-5.34218e-11
-2.38128e-11
-9.5717e-11
-4.57142e-11
2.19002e-11
1.4299e-10
-1.88706e-10
2.56062e-10
-1.13073e-10
2.65184e-10
-9.12287e-12
4.46343e-10
-1.8116e-10
6.37847e-10
-1.91505e-10
8.4645e-10
-2.08604e-10
1.15423e-09
-3.07783e-10
1.22541e-09
-7.11802e-11
1.45801e-09
-2.32597e-10
1.79364e-09
-3.35634e-10
1.94353e-09
-1.49891e-10
2.00415e-09
-6.06224e-11
2.35187e-09
-3.47729e-10
2.60804e-09
-2.56172e-10
2.75094e-09
-1.42894e-10
2.91942e-09
-1.68484e-10
3.03887e-09
-1.19453e-10
3.16324e-09
-1.24372e-10
3.22699e-09
-6.37548e-11
3.2405e-09
-1.35142e-11
3.21799e-09
2.25097e-11
3.16901e-09
4.89814e-11
3.09944e-09
6.95626e-11
2.94333e-09
1.56108e-10
2.78792e-09
1.5541e-10
2.56895e-09
2.18968e-10
2.32887e-09
2.40077e-10
1.96566e-09
3.63205e-10
1.28387e-09
6.81784e-10
6.34589e-10
6.49278e-10
-7.86294e-11
7.13215e-10
-1.71167e-10
9.25344e-11
2.28397e-15
-1.71173e-10
-1.58382e-18
-4.8122e-19
-1.62877e-18
4.49533e-20
-1.81398e-18
1.82529e-19
-1.97349e-18
1.56648e-19
-2.06376e-18
8.75016e-20
-2.07761e-18
1.12506e-20
-2.01963e-18
-6.04191e-20
-1.89814e-18
-1.23742e-19
-1.72262e-18
-1.77608e-19
-1.50271e-18
-2.21818e-19
-1.24794e-18
-2.56498e-19
-9.67593e-19
-2.81916e-19
-6.70572e-19
-2.98436e-19
-3.65327e-19
-3.06519e-19
-5.97517e-20
-3.06724e-19
2.38923e-19
-2.99712e-19
5.24219e-19
-2.86238e-19
7.90491e-19
-2.67135e-19
1.03298e-18
-2.43291e-19
1.24786e-18
-2.15622e-19
1.43219e-18
-1.85044e-19
1.58396e-18
-1.52444e-19
1.70196e-18
-1.18658e-19
1.78577e-18
-8.44521e-20
1.83565e-18
-5.05069e-20
1.85245e-18
-1.74106e-20
1.83751e-18
1.43448e-20
1.79257e-18
4.43607e-20
1.71967e-18
7.23269e-20
1.62111e-18
9.80127e-20
1.49933e-18
1.21257e-19
1.35687e-18
1.41955e-19
1.19633e-18
1.60051e-19
1.02034e-18
1.7552e-19
8.31517e-19
1.88363e-19
6.32482e-19
1.98594e-19
4.25821e-19
2.06232e-19
2.14119e-19
2.11281e-19
2.13704e-19
3.94041e-11
-1.44425e-10
8.43023e-11
-1.37935e-10
1.20728e-10
-8.86707e-11
1.424e-10
-9.98908e-12
9.33912e-11
8.50807e-11
-4.20778e-11
1.69505e-10
-1.40117e-10
1.38364e-10
-2.55106e-10
2.28794e-10
-4.19432e-10
2.74515e-10
-5.22836e-10
2.23338e-10
-6.92604e-10
3.61201e-10
-8.27517e-10
3.00326e-10
-9.3243e-10
2.80409e-10
-1.00846e-09
2.10926e-10
-1.06726e-09
1.48892e-10
-1.09488e-09
6.92686e-11
-1.08104e-09
-4.23721e-11
-1.07484e-09
-4.59636e-11
-1.05058e-09
-8.34177e-11
-1.00928e-09
-4.63734e-11
-9.83884e-10
-3.661e-11
-9.2981e-10
-8.06317e-11
-8.34744e-10
-1.65556e-10
-7.34883e-10
-2.25349e-10
-6.00156e-10
-2.31819e-10
-4.66283e-10
-3.1809e-10
-4.38003e-10
-7.81347e-11
-4.00902e-10
-4.79023e-11
-3.19359e-10
-5.3158e-11
-2.89867e-10
-1.84023e-10
-2.37651e-10
-7.70298e-11
-1.85394e-10
-1.28428e-10
-1.34151e-10
-1.2872e-10
-9.66361e-11
-7.12e-11
-9.96852e-11
2.56456e-11
-1.29287e-10
6.49459e-11
-1.82607e-10
7.68988e-11
-2.34812e-10
9.66381e-11
-3.16264e-10
1.08004e-10
-3.6716e-10
5.83827e-11
-3.67847e-10
1.00737e-11
-3.38392e-10
5.80497e-12
-3.65313e-10
5.79384e-13
-3.33353e-10
4.56524e-11
-3.14374e-10
-7.01793e-11
-2.50787e-10
-1.1701e-10
-1.92369e-10
-1.54137e-10
-1.22081e-10
-4.83902e-11
-7.10594e-11
-2.3973e-10
4.5926e-11
-2.30061e-10
1.52858e-10
-1.16057e-10
2.9384e-10
-3.22145e-10
4.78565e-10
-3.76233e-10
6.88643e-10
-4.18685e-10
9.25455e-10
-5.44597e-10
1.06443e-09
-2.10157e-10
1.28373e-09
-4.51903e-10
1.53326e-09
-5.85163e-10
1.76509e-09
-3.8172e-10
1.97033e-09
-2.65867e-10
2.06331e-09
-4.40716e-10
2.28088e-09
-4.7375e-10
2.45474e-09
-3.16749e-10
2.67807e-09
-3.9182e-10
2.77933e-09
-2.20718e-10
2.87359e-09
-2.18634e-10
2.93134e-09
-1.2151e-10
2.92268e-09
-4.85913e-12
2.90115e-09
4.40381e-11
2.8809e-09
6.92188e-11
2.7841e-09
1.66362e-10
2.74176e-09
1.98436e-10
2.51377e-09
3.83401e-10
2.47997e-09
2.52763e-10
2.09492e-09
6.2512e-10
1.93502e-09
5.23093e-10
1.80238e-09
8.14421e-10
1.36473e-09
1.08692e-09
1.20221e-09
8.75729e-10
6.14132e-10
6.80605e-10
1.80059e-15
4.42952e-10
-8.61969e-19
1.24401e-18
-1.49211e-18
6.7257e-19
-1.8397e-18
5.25189e-19
-2.04264e-18
3.54688e-19
-2.14001e-18
1.80225e-19
-2.14928e-18
1.61802e-20
-2.08295e-18
-1.30782e-19
-1.95201e-18
-2.58398e-19
-1.76683e-18
-3.66196e-19
-1.53739e-18
-4.54363e-19
-1.27336e-18
-5.23337e-19
-9.84113e-19
-5.737e-19
-6.78654e-19
-6.06185e-19
-3.65532e-19
-6.21705e-19
-5.27395e-20
-6.21381e-19
2.52397e-19
-6.06541e-19
5.43322e-19
-5.78711e-19
8.14335e-19
-5.39578e-19
1.06065e-18
-4.90944e-19
1.27844e-18
-4.34667e-19
1.46479e-18
-3.72603e-19
1.61774e-18
-3.06551e-19
1.73616e-18
-2.38202e-19
1.81971e-18
-1.69098e-19
1.86875e-18
-1.00609e-19
1.88421e-18
-3.39135e-20
1.86752e-18
3.00073e-20
1.82053e-18
9.03615e-20
1.74536e-18
1.46537e-19
1.64436e-18
1.98083e-19
1.52003e-18
2.44687e-19
1.37496e-18
2.86154e-19
1.2118e-18
3.22379e-19
1.03318e-18
3.53326e-19
8.41749e-19
3.79006e-19
6.40119e-19
3.99456e-19
4.30871e-19
4.14727e-19
2.16542e-19
4.24865e-19
4.29921e-19
-1.27014e-12
-1.43155e-10
4.95825e-12
-1.44163e-10
-8.65668e-12
-7.50558e-11
-6.78792e-11
4.92333e-11
-1.03348e-10
1.20549e-10
-1.78734e-10
2.44892e-10
-2.9752e-10
2.5715e-10
-4.2642e-10
3.57693e-10
-5.71318e-10
4.19414e-10
-7.75682e-10
4.27701e-10
-8.84831e-10
4.70351e-10
-9.90164e-10
4.05659e-10
-1.05031e-09
3.4055e-10
-1.10474e-09
2.65355e-10
-1.16351e-09
2.07662e-10
-1.18896e-09
9.47258e-11
-1.21504e-09
-1.62992e-11
-1.22255e-09
-3.84473e-11
-1.19866e-09
-1.07308e-10
-1.10879e-09
-1.3625e-10
-1.07123e-09
-7.4163e-11
-9.99663e-10
-1.52204e-10
-9.27675e-10
-2.37544e-10
-7.93421e-10
-3.59604e-10
-5.5622e-10
-4.69021e-10
-5.3643e-10
-3.37881e-10
-4.9366e-10
-1.20906e-10
-4.36957e-10
-1.04606e-10
-3.88358e-10
-1.01757e-10
-4.31394e-10
-1.40989e-10
-4.0241e-10
-1.06015e-10
-4.12943e-10
-1.17895e-10
-4.25545e-10
-1.16119e-10
-4.16629e-10
-8.01177e-11
-3.78189e-10
-1.27955e-11
-3.60894e-10
4.765e-11
-3.85914e-10
1.01918e-10
-4.19286e-10
1.30008e-10
-4.62213e-10
1.5093e-10
-5.4084e-10
1.37008e-10
-5.8283e-10
5.20623e-11
-6.0004e-10
2.30127e-11
-6.21585e-10
2.21236e-11
-5.76547e-10
6.12667e-13
-5.94759e-10
-5.19695e-11
-5.61534e-10
-1.50236e-10
-4.81994e-10
-2.33679e-10
-3.50582e-10
-1.79804e-10
-2.91177e-10
-2.99137e-10
-2.21659e-10
-2.99581e-10
4.45296e-12
-3.42171e-10
1.59353e-10
-4.77047e-10
3.45006e-10
-5.61888e-10
4.78975e-10
-5.52657e-10
6.29162e-10
-6.94786e-10
9.10307e-10
-4.91304e-10
1.18339e-09
-7.24991e-10
1.20574e-09
-6.07516e-10
1.44442e-09
-6.20397e-10
1.70884e-09
-5.3029e-10
1.82507e-09
-5.56954e-10
2.01176e-09
-6.60438e-10
2.20601e-09
-5.11007e-10
2.34421e-09
-5.30023e-10
2.4902e-09
-3.66712e-10
2.55088e-09
-2.79317e-10
2.61343e-09
-1.84065e-10
2.61565e-09
-7.07502e-12
2.59668e-09
6.3004e-11
2.59108e-09
7.48067e-11
2.51534e-09
2.42103e-10
2.42355e-09
2.90222e-10
2.33243e-09
4.74513e-10
2.18329e-09
4.01902e-10
2.10387e-09
7.0453e-10
1.70672e-09
9.2024e-10
1.70981e-09
8.11331e-10
1.64193e-09
1.15479e-09
1.22221e-09
1.29544e-09
6.35066e-10
1.26775e-09
1.75458e-15
1.07801e-09
-1.05758e-18
2.1008e-18
-1.63874e-18
1.25164e-18
-2.00948e-18
8.91544e-19
-2.2171e-18
5.57934e-19
-2.30405e-18
2.63016e-19
-2.29624e-18
4.4721e-21
-2.21056e-18
-2.20093e-19
-2.05981e-18
-4.12511e-19
-1.855e-18
-5.7409e-19
-1.60636e-18
-7.05811e-19
-1.32372e-18
-8.08523e-19
-1.0166e-18
-8.83121e-19
-6.94175e-19
-9.30674e-19
-3.65207e-19
-9.52527e-19
-3.78995e-20
-9.50352e-19
2.80227e-19
-9.26163e-19
5.82454e-19
-8.82289e-19
8.62969e-19
-8.21323e-19
1.11693e-18
-7.46036e-19
1.3405e-18
-6.59289e-19
1.53085e-18
-5.63938e-19
1.68609e-18
-4.62743e-19
1.80527e-18
-3.58287e-19
1.8882e-18
-2.52922e-19
1.93544e-18
-1.48719e-19
1.94813e-18
-4.74512e-20
1.92788e-18
4.94144e-20
1.87671e-18
1.40707e-19
1.79691e-18
2.25531e-19
1.69096e-18
3.03238e-19
1.5615e-18
3.73389e-19
1.41119e-18
4.3572e-19
1.24274e-18
4.90103e-19
1.05886e-18
5.36511e-19
8.62199e-19
5.74985e-19
6.55389e-19
6.05602e-19
4.41009e-19
6.28455e-19
2.21598e-19
6.43632e-19
6.51204e-19
-4.5197e-11
-9.79584e-11
-4.87152e-11
-1.40645e-10
-6.50007e-11
-5.87705e-11
-1.46857e-10
1.3109e-10
-2.05099e-10
1.7879e-10
-3.06776e-10
3.46569e-10
-4.06991e-10
3.57365e-10
-5.75975e-10
5.26677e-10
-7.24536e-10
5.67974e-10
-9.03755e-10
6.0692e-10
-9.89023e-10
5.55618e-10
-1.05297e-09
4.69609e-10
-1.13635e-09
4.23925e-10
-1.2071e-09
3.36102e-10
-1.2568e-09
2.57368e-10
-1.28333e-09
1.21254e-10
-1.32852e-09
2.88849e-11
-1.34169e-09
-2.5272e-11
-1.32952e-09
-1.19483e-10
-1.3223e-09
-1.43463e-10
-1.28194e-09
-1.14533e-10
-1.14114e-09
-2.93004e-10
-9.88777e-10
-3.89905e-10
-7.78536e-10
-5.69845e-10
-5.77593e-10
-6.69964e-10
-5.24854e-10
-3.90621e-10
-4.52002e-10
-1.93759e-10
-4.38946e-10
-1.17663e-10
-4.38699e-10
-1.02005e-10
-4.73582e-10
-1.06106e-10
-5.05713e-10
-7.38853e-11
-5.55913e-10
-6.76965e-11
-5.98974e-10
-7.30582e-11
-6.47677e-10
-3.1416e-11
-6.56263e-10
-4.21069e-12
-6.59957e-10
5.13433e-11
-6.62143e-10
1.04103e-10
-6.69437e-10
1.373e-10
-6.86155e-10
1.67647e-10
-7.23991e-10
1.74842e-10
-7.74106e-10
1.02176e-10
-8.07037e-10
5.5943e-11
-8.19326e-10
3.44106e-11
-7.85444e-10
-3.32702e-11
-7.58999e-10
-7.84165e-11
-7.39181e-10
-1.70056e-10
-7.18803e-10
-2.54059e-10
-6.45209e-10
-2.53399e-10
-5.10005e-10
-4.34342e-10
-4.55741e-10
-3.53847e-10
-2.73981e-10
-5.23933e-10
-1.31642e-10
-6.19387e-10
5.66146e-11
-7.50147e-10
2.98767e-10
-7.94811e-10
4.58341e-10
-8.54362e-10
6.78994e-10
-7.11959e-10
8.27643e-10
-8.73642e-10
1.05012e-09
-8.29992e-10
1.23124e-09
-8.01522e-10
1.42624e-09
-7.25297e-10
1.58444e-09
-7.15156e-10
1.74293e-09
-8.18927e-10
2.03081e-09
-7.98887e-10
2.02297e-09
-5.22192e-10
2.08166e-09
-4.25401e-10
2.18172e-09
-3.79384e-10
2.22964e-09
-2.31989e-10
2.29944e-09
-7.68728e-11
2.31133e-09
5.11041e-11
2.29091e-09
9.52237e-11
2.25252e-09
2.80496e-10
2.1215e-09
4.21231e-10
2.16454e-09
4.31465e-10
1.92924e-09
6.37202e-10
1.78261e-09
8.51158e-10
1.52757e-09
1.17527e-09
1.47661e-09
8.62292e-10
1.32795e-09
1.30343e-09
1.02974e-09
1.59365e-09
5.69474e-10
1.72801e-09
1.76538e-15
1.64748e-09
-1.32525e-18
3.90253e-18
-1.99802e-18
1.92231e-18
-2.34238e-18
1.23149e-18
-2.51202e-18
7.23171e-19
-2.56259e-18
3.0939e-19
-2.52081e-18
-4.12744e-20
-2.40298e-18
-3.4162e-19
-2.22139e-18
-5.97539e-19
-1.98672e-18
-8.11921e-19
-1.70907e-18
-9.86342e-19
-1.39832e-18
-1.12189e-18
-1.06415e-18
-1.21964e-18
-7.16028e-19
-1.28091e-18
-3.63032e-19
-1.3074e-18
-1.37104e-20
-1.30135e-18
3.241e-19
-1.26546e-18
6.43421e-19
-1.20293e-18
9.38257e-19
-1.11734e-18
1.20368e-18
-1.01252e-18
1.43585e-18
-8.92434e-19
1.63204e-18
-7.61025e-19
1.79055e-18
-6.22093e-19
1.91063e-18
-4.79178e-19
1.99241e-18
-3.35479e-19
2.03671e-18
-1.93794e-19
2.04499e-18
-5.6496e-20
2.01917e-18
7.44745e-20
1.96153e-18
1.97589e-19
1.87461e-18
3.117e-19
1.76111e-18
4.15996e-19
1.62383e-18
5.09948e-19
1.46557e-18
5.93264e-19
1.28915e-18
6.65828e-19
1.09733e-18
7.27654e-19
8.92816e-19
7.7884e-19
6.78242e-19
8.19529e-19
4.56186e-19
8.49875e-19
2.2917e-19
8.70018e-19
8.80064e-19
1.18441e-11
-1.09803e-10
-5.68071e-11
-7.19941e-11
-1.1562e-10
4.22526e-14
-2.28443e-10
2.43913e-10
-3.02882e-10
2.53229e-10
-4.41622e-10
4.8531e-10
-5.7135e-10
4.87092e-10
-7.31464e-10
6.86791e-10
-8.62705e-10
6.99215e-10
-9.99241e-10
7.43456e-10
-1.11946e-09
6.75838e-10
-1.19605e-09
5.46197e-10
-1.25821e-09
4.86082e-10
-1.25955e-09
3.37448e-10
-1.27961e-09
2.77421e-10
-1.33591e-09
1.7756e-10
-1.38695e-09
7.99219e-11
-1.41026e-09
-1.96108e-12
-1.41945e-09
-1.10295e-10
-1.46463e-09
-9.82837e-11
-1.39869e-09
-1.80473e-10
-1.23138e-09
-4.60315e-10
-1.02115e-09
-6.00137e-10
-8.26063e-10
-7.64929e-10
-6.90707e-10
-8.05321e-10
-4.85469e-10
-5.9586e-10
-3.62197e-10
-3.17031e-10
-4.04263e-10
-7.55981e-11
-4.44637e-10
-6.1632e-11
-5.02614e-10
-4.813e-11
-5.57816e-10
-1.86842e-11
-6.09867e-10
-1.56466e-11
-6.60952e-10
-2.19743e-11
-7.16385e-10
2.40163e-11
-7.62181e-10
4.15834e-11
-8.01901e-10
9.10626e-11
-8.23978e-10
1.26178e-10
-8.43459e-10
1.56781e-10
-8.4832e-10
1.72506e-10
-8.50971e-10
1.77492e-10
-8.74637e-10
1.25841e-10
-8.98007e-10
7.93115e-11
-8.86082e-10
2.24836e-11
-8.75307e-10
-4.4046e-11
-8.30415e-10
-1.2331e-10
-7.91082e-10
-2.09391e-10
-7.41207e-10
-3.03936e-10
-6.98883e-10
-2.95724e-10
-6.19259e-10
-5.13968e-10
-5.43017e-10
-4.30092e-10
-3.84514e-10
-6.82437e-10
-2.76055e-10
-7.27849e-10
-1.76572e-10
-8.49631e-10
-4.32426e-11
-9.28142e-10
8.98575e-11
-9.87464e-10
4.44727e-10
-1.06683e-09
6.3509e-10
-1.06401e-09
8.4834e-10
-1.04324e-09
9.92275e-10
-9.4546e-10
1.15536e-09
-8.88388e-10
1.36107e-09
-9.20871e-10
1.49791e-09
-9.55768e-10
1.57695e-09
-8.77926e-10
1.70217e-09
-6.47418e-10
1.76834e-09
-4.91576e-10
1.82687e-09
-4.37911e-10
1.82717e-09
-2.32299e-10
1.87102e-09
-1.20724e-10
1.89144e-09
3.0676e-11
1.8711e-09
1.15561e-10
1.86831e-09
2.83287e-10
1.85901e-09
4.30521e-10
1.76682e-09
5.23656e-10
1.67037e-09
7.33641e-10
1.54703e-09
9.74495e-10
1.57425e-09
1.14804e-09
1.19237e-09
1.24417e-09
8.83454e-10
1.61234e-09
6.20443e-10
1.85666e-09
3.85376e-10
1.96307e-09
1.7529e-15
2.03285e-09
-2.52113e-18
3.73832e-18
-2.68798e-18
2.08702e-18
-2.85e-18
1.38904e-18
-2.9258e-18
7.94497e-19
-2.91326e-18
2.9256e-19
-2.82115e-18
-1.37442e-19
-2.6589e-18
-5.07689e-19
-2.43577e-18
-8.24229e-19
-2.16114e-18
-1.08984e-18
-1.84462e-18
-1.30587e-18
-1.49607e-18
-1.47319e-18
-1.12541e-18
-1.59276e-18
-7.42524e-19
-1.666e-18
-3.56976e-19
-1.69491e-18
2.2177e-20
-1.68222e-18
3.86626e-19
-1.63142e-18
7.29013e-19
-1.54665e-18
1.04308e-18
-1.43257e-18
1.32376e-18
-1.29423e-18
1.56726e-18
-1.13683e-18
1.77097e-18
-9.6555e-19
1.93346e-18
-7.85328e-19
2.05433e-18
-6.00747e-19
2.13409e-18
-4.15913e-19
2.17401e-18
-2.34378e-19
2.17596e-18
-5.91152e-20
2.14229e-18
1.07478e-19
2.07564e-18
2.6355e-19
1.97891e-18
4.07747e-19
1.85507e-18
5.39145e-19
1.70714e-18
6.57184e-19
1.53813e-18
7.61591e-19
1.35098e-18
8.52314e-19
1.14852e-18
9.29453e-19
9.33505e-19
9.93205e-19
7.08589e-19
1.04381e-18
4.76329e-19
1.08151e-18
2.39216e-19
1.10651e-18
1.11897e-18
8.7306e-11
-1.97109e-10
-2.63132e-12
1.79431e-11
-1.91482e-10
1.88893e-10
-3.29481e-10
3.81911e-10
-4.55988e-10
3.79736e-10
-5.75183e-10
6.04505e-10
-7.65078e-10
6.76987e-10
-8.64573e-10
7.86285e-10
-1.0141e-09
8.48741e-10
-1.09881e-09
8.2817e-10
-1.15301e-09
7.30034e-10
-1.20106e-09
5.94242e-10
-1.2441e-09
5.2913e-10
-1.24866e-09
3.42002e-10
-1.2319e-09
2.60659e-10
-1.25658e-09
2.02243e-10
-1.3125e-09
1.35842e-10
-1.35834e-09
4.38808e-11
-1.40574e-09
-6.28963e-11
-1.41599e-09
-8.8038e-11
-1.34044e-09
-2.56021e-10
-1.19532e-09
-6.0544e-10
-1.04626e-09
-7.49191e-10
-9.18299e-10
-8.92893e-10
-7.9399e-10
-9.29631e-10
-5.61687e-10
-8.28163e-10
-4.26653e-10
-4.52067e-10
-4.07435e-10
-9.48161e-11
-4.49554e-10
-1.95138e-11
-5.34677e-10
3.69914e-11
-5.7561e-10
2.22484e-11
-6.25159e-10
3.39014e-11
-6.65685e-10
1.85505e-11
-7.15979e-10
7.43094e-11
-7.67523e-10
9.3126e-11
-8.07305e-10
1.30844e-10
-8.38878e-10
1.5775e-10
-8.69536e-10
1.87437e-10
-8.91541e-10
1.9451e-10
-8.97463e-10
1.83412e-10
-9.33543e-10
1.6192e-10
-9.34139e-10
7.99066e-11
-9.04007e-10
-7.64978e-12
-8.99578e-10
-4.84767e-11
-8.51244e-10
-1.71646e-10
-8.5053e-10
-2.10106e-10
-7.70315e-10
-3.84152e-10
-8.21276e-10
-2.44765e-10
-6.49751e-10
-6.85494e-10
-5.95454e-10
-4.8439e-10
-4.82844e-10
-7.95049e-10
-3.53543e-10
-8.57152e-10
-2.13677e-10
-9.89498e-10
-5.05887e-11
-1.09123e-09
7.73078e-11
-1.11536e-09
2.30557e-10
-1.22008e-09
4.01933e-10
-1.23539e-09
5.67569e-10
-1.20888e-09
7.89977e-10
-1.16787e-09
9.76821e-10
-1.07523e-09
1.09823e-09
-1.04228e-09
1.21164e-09
-1.06918e-09
1.30191e-09
-9.68199e-10
1.42395e-09
-7.69462e-10
1.48886e-09
-5.56484e-10
1.47536e-09
-4.24412e-10
1.50764e-09
-2.64588e-10
1.51098e-09
-1.24063e-10
1.51873e-09
2.29252e-11
1.49301e-09
1.41268e-10
1.44042e-09
3.35883e-10
1.55141e-09
3.19526e-10
1.3678e-09
7.0726e-10
1.17403e-09
9.27403e-10
1.14783e-09
1.00069e-09
1.12699e-09
1.16888e-09
9.64392e-10
1.40676e-09
9.44907e-10
1.63182e-09
7.49352e-10
2.0522e-09
4.26155e-10
2.28626e-09
1.69612e-15
2.459e-09
-3.1939e-18
4.57783e-18
-3.38508e-18
2.27604e-18
-3.44389e-18
1.44337e-18
-3.42774e-18
7.73856e-19
-3.34326e-18
2.03749e-19
-3.1914e-18
-2.93434e-19
-2.97544e-18
-7.27562e-19
-2.70139e-18
-1.10196e-18
-2.37716e-18
-1.41748e-18
-2.01194e-18
-1.67424e-18
-1.61565e-18
-1.87235e-18
-1.19865e-18
-2.01235e-18
-7.71432e-19
-2.09553e-18
-3.44293e-19
-2.12409e-18
7.29777e-20
-2.10129e-18
4.71405e-19
-2.03141e-18
8.43091e-19
-1.91968e-18
1.18142e-18
-1.77205e-18
1.48116e-18
-1.59497e-18
1.73854e-18
-1.39507e-18
1.9512e-18
-1.17894e-18
2.11804e-18
-9.52829e-19
2.23917e-18
-7.22466e-19
2.31563e-18
-4.92935e-19
2.34927e-18
-2.68574e-19
2.34256e-18
-5.29542e-20
2.29836e-18
1.51103e-19
2.21984e-18
3.41476e-19
2.11031e-18
5.16668e-19
1.9731e-18
6.75716e-19
1.81155e-18
8.18099e-19
1.62886e-18
9.4364e-19
1.42812e-18
1.05241e-18
1.21227e-18
1.14466e-18
9.84109e-19
1.22074e-18
7.46287e-19
1.28101e-18
5.01333e-19
1.32585e-18
2.51679e-19
1.35555e-18
1.37035e-18
-9.56054e-11
-1.01503e-10
-2.56344e-10
1.78682e-10
-3.71892e-10
3.0444e-10
-4.22426e-10
4.32445e-10
-6.27936e-10
5.85245e-10
-7.29394e-10
7.05963e-10
-8.54533e-10
8.02126e-10
-9.89674e-10
9.21426e-10
-1.07116e-09
9.30227e-10
-1.13977e-09
8.96779e-10
-1.16838e-09
7.58642e-10
-1.17052e-09
5.96387e-10
-1.12897e-09
4.8758e-10
-1.10867e-09
3.21697e-10
-1.06535e-09
2.17336e-10
-1.04075e-09
1.77647e-10
-1.09111e-09
1.86198e-10
-1.15454e-09
1.07318e-10
-1.24788e-09
3.04405e-11
-1.26654e-09
-6.93816e-11
-1.20453e-09
-3.18034e-10
-1.13707e-09
-6.72895e-10
-1.05803e-09
-8.28234e-10
-1.01559e-09
-9.3533e-10
-9.6894e-10
-9.76284e-10
-8.40494e-10
-9.5661e-10
-7.01756e-10
-5.90806e-10
-5.50628e-10
-2.45945e-10
-4.93409e-10
-7.67333e-11
-5.27868e-10
7.14496e-11
-5.67629e-10
6.20082e-11
-5.92687e-10
5.89579e-11
-6.27557e-10
5.34199e-11
-6.80336e-10
1.27087e-10
-7.34022e-10
1.46811e-10
-7.73362e-10
1.70183e-10
-8.10757e-10
1.95143e-10
-8.50939e-10
2.27618e-10
-8.80789e-10
2.24358e-10
-8.93628e-10
1.9625e-10
-9.17057e-10
1.85347e-10
-8.96386e-10
5.92338e-11
-8.82651e-10
-2.13862e-11
-8.64685e-10
-6.64441e-11
-8.22501e-10
-2.13831e-10
-9.09586e-10
-1.23023e-10
-7.78052e-10
-5.15688e-10
-8.06356e-10
-2.16461e-10
-6.48668e-10
-8.43184e-10
-6.04992e-10
-5.28068e-10
-4.76713e-10
-9.23329e-10
-3.41034e-10
-9.92832e-10
-2.19429e-10
-1.1111e-09
-1.17829e-10
-1.19284e-09
3.61171e-11
-1.26931e-09
9.60661e-11
-1.28003e-09
2.04181e-10
-1.3435e-09
3.4625e-10
-1.35095e-09
5.24735e-10
-1.34636e-09
7.28905e-10
-1.27941e-09
8.78161e-10
-1.19154e-09
9.24809e-10
-1.11583e-09
1.01545e-09
-1.05884e-09
1.09347e-09
-8.47487e-10
1.23168e-09
-6.94689e-10
1.22423e-09
-4.16965e-10
1.2477e-09
-2.8807e-10
1.2401e-09
-1.16462e-10
1.22619e-09
3.68316e-11
1.20982e-09
1.57636e-10
1.2997e-09
2.45991e-10
1.27364e-09
3.45589e-10
1.22594e-09
7.5495e-10
1.20575e-09
9.47588e-10
1.17665e-09
1.02979e-09
9.44091e-10
1.40143e-09
7.60486e-10
1.59036e-09
5.04507e-10
1.8878e-09
4.09822e-10
2.14688e-09
3.6315e-10
2.33293e-09
1.59161e-15
2.82214e-09
-4.35101e-18
4.57262e-18
-4.21685e-18
2.13968e-18
-4.11281e-18
1.33498e-18
-3.99785e-18
6.5447e-19
-3.84044e-18
4.20573e-20
-3.62553e-18
-5.12479e-19
-3.34984e-18
-1.0072e-18
-3.01691e-18
-1.43863e-18
-2.63392e-18
-1.80399e-18
-2.21004e-18
-2.10138e-18
-1.75565e-18
-2.32973e-18
-1.28183e-18
-2.48888e-18
-7.99995e-19
-2.57978e-18
-3.21492e-19
-2.60474e-18
1.42855e-19
-2.56751e-18
5.83137e-19
-2.47332e-18
9.9072e-19
-2.32865e-18
1.3585e-18
-2.14101e-18
1.68105e-18
-1.91851e-18
1.95467e-18
-1.66952e-18
2.17731e-18
-1.40227e-18
2.3484e-18
-1.1245e-18
2.4687e-18
-8.43262e-19
2.53999e-18
-5.6468e-19
2.56489e-18
-2.93912e-19
2.54661e-18
-3.51131e-20
2.48873e-18
2.08524e-19
2.39503e-18
4.34685e-19
2.26935e-18
6.4182e-19
2.11549e-18
8.29026e-19
1.93709e-18
9.95918e-19
1.73763e-18
1.1425e-18
1.52037e-18
1.26907e-18
1.28834e-18
1.37608e-18
1.04438e-18
1.46409e-18
7.91124e-19
1.53366e-18
5.3104e-19
1.58533e-18
2.66477e-19
1.61952e-18
1.63654e-18
-1.75194e-10
7.3691e-11
-2.9279e-10
2.96277e-10
-4.94096e-10
5.05747e-10
-5.92592e-10
5.30941e-10
-7.26556e-10
7.19209e-10
-8.23222e-10
8.02629e-10
-9.48115e-10
9.27019e-10
-9.97401e-10
9.70713e-10
-1.04624e-09
9.79064e-10
-1.10364e-09
9.54184e-10
-1.12129e-09
7.76286e-10
-1.09148e-09
5.66582e-10
-1.03761e-09
4.33709e-10
-1.02127e-09
3.05359e-10
-9.6557e-10
1.61632e-10
-9.57374e-10
1.69451e-10
-9.29582e-10
1.58406e-10
-9.56965e-10
1.347e-10
-1.04339e-09
1.16864e-10
-1.04569e-09
-6.70778e-11
-1.04402e-09
-3.19706e-10
-1.0351e-09
-6.81818e-10
-1.02327e-09
-8.40062e-10
-1.02826e-09
-9.30348e-10
-1.02809e-09
-9.76449e-10
-1.0008e-09
-9.83905e-10
-8.96155e-10
-6.95448e-10
-7.41511e-10
-4.0059e-10
-5.74523e-10
-2.43722e-10
-4.7932e-10
-2.37541e-11
-4.97172e-10
7.98586e-11
-5.06311e-10
6.80968e-11
-5.6121e-10
1.08317e-10
-6.02588e-10
1.68465e-10
-6.57675e-10
2.01896e-10
-7.09422e-10
2.21929e-10
-7.47929e-10
2.33649e-10
-7.98021e-10
2.77709e-10
-8.35578e-10
2.61914e-10
-8.49089e-10
2.09759e-10
-8.5261e-10
1.88867e-10
-8.87215e-10
9.38377e-11
-8.41757e-10
-6.68461e-11
-8.90155e-10
-1.80476e-11
-8.74678e-10
-2.29309e-10
-9.51841e-10
-4.58608e-11
-8.24912e-10
-6.42618e-10
-7.55274e-10
-2.86101e-10
-7.55607e-10
-8.42852e-10
-5.75627e-10
-7.08049e-10
-4.98255e-10
-1.0007e-09
-4.26644e-10
-1.06444e-09
-3.33348e-10
-1.2044e-09
-2.37579e-10
-1.28861e-09
-1.56689e-10
-1.3502e-09
-3.17136e-11
-1.40501e-09
1.17109e-10
-1.49233e-09
2.67096e-10
-1.50094e-09
3.63301e-10
-1.44256e-09
5.01873e-10
-1.41798e-09
6.55225e-10
-1.34489e-09
7.7205e-10
-1.23266e-09
8.39978e-10
-1.12678e-09
8.69855e-10
-8.77367e-10
9.78758e-10
-8.03594e-10
1.05947e-09
-4.97683e-10
1.0132e-09
-2.41801e-10
1.03275e-09
-1.36017e-10
1.03419e-09
3.5394e-11
1.06675e-09
1.25072e-10
1.07203e-09
2.40702e-10
8.41357e-10
5.76258e-10
8.49507e-10
7.46795e-10
7.72245e-10
1.02485e-09
7.46975e-10
1.05505e-09
7.10044e-10
1.43836e-09
6.07421e-10
1.69297e-09
4.9444e-10
2.00077e-09
4.66486e-10
2.17483e-09
3.26097e-10
2.47331e-09
1.44486e-15
3.14823e-09
-5.48907e-18
3.51991e-18
-5.02066e-18
1.66912e-18
-4.79282e-18
1.10299e-18
-4.61026e-18
4.67689e-19
-4.39498e-18
-1.77359e-19
-4.12025e-18
-7.91235e-19
-3.78127e-18
-1.35007e-18
-3.38227e-18
-1.84135e-18
-2.93132e-18
-2.25849e-18
-2.4384e-18
-2.59763e-18
-1.91479e-18
-2.85641e-18
-1.37273e-18
-3.03375e-18
-8.24951e-19
-3.13008e-18
-2.84268e-19
-3.14766e-18
2.37047e-19
-3.09079e-18
7.27803e-19
-2.96577e-18
1.17836e-18
-2.78066e-18
1.581e-18
-2.54486e-18
1.93004e-18
-2.26856e-18
2.22193e-18
-1.96224e-18
2.45507e-18
-1.63608e-18
2.62965e-18
-1.29961e-18
2.74728e-18
-9.61326e-19
2.81075e-18
-6.28518e-19
2.82369e-18
-3.07176e-19
2.79025e-18
-1.99568e-21
2.71489e-18
2.83539e-19
2.60217e-18
5.47028e-19
2.45656e-18
7.86998e-19
2.28238e-18
1.00274e-18
2.08367e-18
1.19411e-18
1.86419e-18
1.36144e-18
1.62738e-18
1.50532e-18
1.37635e-18
1.62653e-18
1.11396e-18
1.7259e-18
8.42791e-19
1.80425e-18
5.6523e-19
1.86231e-18
2.83496e-19
1.90067e-18
1.91975e-18
-1.60782e-10
2.34473e-10
-3.24756e-10
4.6025e-10
-4.36271e-10
6.17261e-10
-5.9974e-10
6.9441e-10
-7.74823e-10
8.94291e-10
-8.72884e-10
9.0069e-10
-9.32195e-10
9.8633e-10
-9.78676e-10
1.01719e-09
-1.01927e-09
1.01966e-09
-1.02954e-09
9.64455e-10
-1.03846e-09
7.85199e-10
-1.05219e-09
5.80319e-10
-1.02977e-09
4.11281e-10
-1.04745e-09
3.2304e-10
-9.83299e-10
9.74814e-11
-1.06626e-09
2.5241e-10
-1.03557e-09
1.27714e-10
-1.04985e-09
1.48981e-10
-9.8504e-10
5.20551e-11
-9.57549e-10
-9.45696e-11
-1.0015e-09
-2.7576e-10
-1.01143e-09
-6.71881e-10
-9.89832e-10
-8.61665e-10
-1.00122e-09
-9.18964e-10
-9.99818e-10
-9.77849e-10
-1.01734e-09
-9.66387e-10
-9.02246e-10
-8.10539e-10
-7.54597e-10
-5.48241e-10
-5.75245e-10
-4.23074e-10
-4.25913e-10
-1.73087e-10
-3.62016e-10
1.59608e-11
-3.9234e-10
9.84199e-11
-4.54239e-10
1.70215e-10
-4.87877e-10
2.02102e-10
-5.44533e-10
2.58551e-10
-6.18613e-10
2.96008e-10
-6.65939e-10
2.80973e-10
-7.17549e-10
3.29318e-10
-7.51736e-10
2.961e-10
-7.74262e-10
2.32284e-10
-8.21917e-10
2.36521e-10
-8.54793e-10
1.26712e-10
-8.566e-10
-6.50408e-11
-9.50067e-10
7.54186e-11
-8.69874e-10
-3.09504e-10
-8.82603e-10
-3.31323e-11
-8.43047e-10
-6.82175e-10
-7.06778e-10
-4.22371e-10
-7.07311e-10
-8.4232e-10
-5.18373e-10
-8.96989e-10
-4.79471e-10
-1.03961e-09
-3.70723e-10
-1.17319e-09
-3.26335e-10
-1.24879e-09
-2.98887e-10
-1.31606e-09
-2.60508e-10
-1.38858e-09
-1.62241e-10
-1.50328e-09
-1.05066e-10
-1.5495e-09
-3.2046e-11
-1.57396e-09
5.14548e-11
-1.52607e-09
1.49432e-10
-1.51596e-09
3.17019e-10
-1.51248e-09
4.87545e-10
-1.40319e-09
6.15317e-10
-1.25455e-09
7.22086e-10
-9.84139e-10
7.04053e-10
-7.85564e-10
8.18747e-10
-6.1238e-10
8.43149e-10
-2.66206e-10
8.42226e-10
-1.35098e-10
8.43432e-10
3.41843e-11
8.69686e-10
9.88146e-11
7.82334e-10
3.2805e-10
7.88233e-10
5.70354e-10
7.62027e-10
7.72997e-10
7.55436e-10
1.03143e-09
7.02917e-10
1.10757e-09
6.93963e-10
1.44731e-09
6.01432e-10
1.7855e-09
4.39136e-10
2.16306e-09
3.44391e-10
2.26957e-09
2.85169e-10
2.53253e-09
1.27097e-15
3.4334e-09
-5.91557e-18
2.70627e-18
-5.58594e-18
1.33745e-18
-5.4277e-18
9.40931e-19
-5.25531e-18
2.91382e-19
-5.00886e-18
-4.27681e-19
-4.67908e-18
-1.12482e-18
-4.27255e-18
-1.76033e-18
-3.79941e-18
-2.31813e-18
-3.27046e-18
-2.79093e-18
-2.69718e-18
-3.17422e-18
-2.09213e-18
-3.46457e-18
-1.46905e-18
-3.6597e-18
-8.42529e-19
-3.7592e-18
-2.27398e-19
-3.76511e-18
3.62065e-19
-3.68229e-18
9.1291e-19
-3.51838e-18
1.41417e-18
-3.28343e-18
1.85729e-18
-2.98925e-18
2.23637e-18
-2.64868e-18
2.54808e-18
-2.27479e-18
2.79154e-18
-1.88021e-18
2.96793e-18
-1.47651e-18
3.08009e-18
-1.07387e-18
3.1321e-18
-6.80823e-19
3.12887e-18
-3.04188e-19
3.07578e-18
5.08715e-20
2.97838e-18
3.8071e-19
2.84214e-18
6.83001e-19
2.6723e-18
9.56515e-19
2.47376e-18
1.2009e-18
2.251e-18
1.41644e-18
2.00808e-18
1.60389e-18
1.74858e-18
1.76431e-18
1.47572e-18
1.89886e-18
1.19231e-18
2.00876e-18
9.00852e-19
2.09515e-18
6.03592e-19
2.15901e-18
3.02574e-19
2.20113e-18
2.22205e-18
-1.27177e-10
3.6165e-10
-2.83679e-10
6.16752e-10
-5.38139e-10
8.71721e-10
-6.98808e-10
8.55079e-10
-7.13926e-10
9.09409e-10
-8.39256e-10
1.02602e-09
-8.97703e-10
1.04478e-09
-9.40204e-10
1.05969e-09
-9.79763e-10
1.05922e-09
-9.73936e-10
9.58628e-10
-9.68719e-10
7.79982e-10
-1.02551e-09
6.37109e-10
-1.08052e-09
4.66296e-10
-1.08446e-09
3.26977e-10
-1.15517e-09
1.68193e-10
-1.2194e-09
3.1664e-10
-1.26471e-09
1.73019e-10
-1.29392e-09
1.78189e-10
-1.21708e-09
-2.47854e-11
-1.07663e-09
-2.35012e-10
-1.04186e-09
-3.10532e-10
-1.03565e-09
-6.78093e-10
-9.81976e-10
-9.15341e-10
-9.50198e-10
-9.50743e-10
-8.4435e-10
-1.0837e-09
-8.03832e-10
-1.00691e-09
-8.00559e-10
-8.13813e-10
-6.20549e-10
-7.28251e-10
-4.97786e-10
-5.45838e-10
-3.49191e-10
-3.21683e-10
-1.66759e-10
-1.66472e-10
-2.26064e-10
1.57724e-10
-2.89943e-10
2.34092e-10
-3.51136e-10
2.63294e-10
-4.15419e-10
3.22833e-10
-5.04382e-10
3.84969e-10
-5.678e-10
3.4439e-10
-6.07469e-10
3.68986e-10
-6.52321e-10
3.4095e-10
-7.08893e-10
2.88855e-10
-7.75158e-10
3.02785e-10
-7.96048e-10
1.47602e-10
-8.7645e-10
1.53597e-11
-8.85859e-10
8.48266e-11
-8.74988e-10
-3.20376e-10
-7.99372e-10
-1.0875e-10
-8.02126e-10
-6.79422e-10
-6.31606e-10
-5.92892e-10
-6.23127e-10
-8.50799e-10
-5.25039e-10
-9.95078e-10
-4.45184e-10
-1.11946e-09
-3.90093e-10
-1.22829e-09
-3.63555e-10
-1.27533e-09
-3.76848e-10
-1.30276e-09
-3.8621e-10
-1.37922e-09
-3.83917e-10
-1.50557e-09
-3.07833e-10
-1.62559e-09
-1.86773e-10
-1.69503e-09
-3.12849e-12
-1.70971e-09
1.56768e-10
-1.67586e-09
2.78113e-10
-1.63383e-09
3.31189e-10
-1.45627e-09
3.73988e-10
-1.29735e-09
5.05695e-10
-1.11585e-09
5.1795e-10
-7.97821e-10
5.60423e-10
-6.54857e-10
6.52627e-10
-3.58414e-10
6.34287e-10
-1.16762e-10
7.07129e-10
-3.86616e-11
6.73532e-10
1.32408e-10
6.28695e-10
3.72883e-10
6.34522e-10
5.64523e-10
6.08046e-10
7.99469e-10
6.67217e-10
9.72258e-10
5.43174e-10
1.23161e-09
5.11727e-10
1.47875e-09
4.12233e-10
1.88499e-09
3.86842e-10
2.18845e-09
3.78289e-10
2.27812e-09
2.50173e-10
2.66064e-09
1.12064e-15
3.68357e-09
-5.74933e-18
2.95881e-18
-5.98161e-18
1.56787e-18
-6.07693e-18
1.03281e-18
-5.97437e-18
1.85291e-19
-5.70599e-18
-6.99586e-19
-5.31459e-18
-1.51973e-18
-4.83034e-18
-2.24808e-18
-4.2722e-18
-2.87971e-18
-3.65376e-18
-3.41274e-18
-2.98753e-18
-3.84368e-18
-2.28727e-18
-4.16791e-18
-1.56854e-18
-4.38129e-18
-8.48436e-19
-4.48193e-18
-1.4458e-19
-4.47132e-18
5.25971e-19
-4.35492e-18
1.14786e-18
-4.14208e-18
1.70835e-18
-3.84546e-18
2.19786e-18
-3.48007e-18
2.61025e-18
-3.06214e-18
2.94267e-18
-2.60808e-18
3.19524e-18
-2.13346e-18
3.37057e-18