/*--------------------------------*- C++ -*----------------------------------*\
  =========                 |
  \\      /  F ield         | OpenFOAM: The Open Source CFD Toolbox
   \\    /   O peration     | Website:  https://openfoam.org
    \\  /    A nd           | Version:  6
     \\/     M anipulation  |
\*---------------------------------------------------------------------------*/
FoamFile
{
    version     2.0;
    format      ascii;
    class       volScalarField;
    location    "4000";
    object      T;
}
// * * * * * * * * * * * * * * * * * * * * * * * * * * * * * * * * * * * * * //

dimensions      [0 0 0 1 0 0 0];

internalField   nonuniform List<scalar> 
4800
(
552.466
552.298
552.13
551.962
551.794
551.627
551.461
551.297
551.136
550.979
550.826
550.678
550.537
550.402
550.273
550.151
550.035
549.925
549.82
549.72
549.623
549.53
549.44
549.352
549.267
549.182
549.098
549.014
548.93
548.846
548.763
548.679
548.595
548.511
548.428
548.344
548.262
548.179
548.098
548.019
547.941
547.864
547.79
547.718
547.647
547.579
547.513
547.45
547.388
547.328
547.27
547.214
547.159
547.106
547.055
547.004
546.955
546.906
546.857
546.809
546.761
546.712
546.663
546.613
546.562
546.509
546.453
546.394
546.331
546.264
546.191
546.113
546.028
545.936
545.835
545.726
545.608
545.482
545.35
545.214
545.079
544.944
544.812
544.68
544.551
544.424
544.298
544.174
544.051
543.93
543.81
543.691
543.573
543.456
543.339
543.224
543.11
542.996
542.883
542.771
542.659
542.548
542.437
542.327
542.217
542.108
541.999
541.89
541.782
541.674
541.566
541.459
541.351
541.244
541.137
541.03
540.923
540.817
540.71
540.603
552.466
552.297
552.128
551.96
551.791
551.624
551.457
551.293
551.132
550.975
550.823
550.676
550.535
550.401
550.273
550.152
550.036
549.926
549.821
549.721
549.624
549.531
549.442
549.354
549.269
549.184
549.1
549.016
548.932
548.848
548.763
548.679
548.595
548.511
548.427
548.344
548.261
548.178
548.097
548.017
547.939
547.863
547.788
547.716
547.645
547.577
547.511
547.447
547.385
547.325
547.266
547.21
547.155
547.102
547.049
546.999
546.948
546.899
546.85
546.802
546.753
546.704
546.655
546.605
546.553
546.5
546.444
546.385
546.322
546.254
546.182
546.104
546.02
545.928
545.828
545.72
545.604
545.48
545.35
545.215
545.078
544.943
544.809
544.678
544.549
544.422
544.297
544.172
544.05
543.928
543.808
543.689
543.571
543.455
543.339
543.223
543.109
542.995
542.883
542.77
542.659
542.547
542.437
542.327
542.217
542.108
541.999
541.89
541.782
541.674
541.566
541.459
541.351
541.244
541.137
541.03
540.923
540.817
540.71
540.603
552.465
552.295
552.125
551.956
551.786
551.618
551.452
551.288
551.127
550.971
550.819
550.674
550.534
550.401
550.274
550.153
550.038
549.929
549.824
549.724
549.628
549.535
549.446
549.358
549.273
549.188
549.104
549.02
548.935
548.85
548.766
548.681
548.596
548.511
548.427
548.343
548.26
548.177
548.096
548.015
547.937
547.86
547.785
547.712
547.641
547.573
547.506
547.442
547.379
547.318
547.259
547.202
547.146
547.092
547.039
546.987
546.937
546.886
546.837
546.788
546.738
546.689
546.639
546.588
546.536
546.483
546.426
546.367
546.304
546.237
546.165
546.088
546.004
545.913
545.814
545.707
545.593
545.472
545.344
545.21
545.074
544.938
544.805
544.674
544.545
544.419
544.293
544.169
544.047
543.926
543.806
543.687
543.569
543.453
543.337
543.222
543.108
542.994
542.881
542.769
542.657
542.546
542.436
542.326
542.216
542.107
541.998
541.89
541.781
541.673
541.566
541.458
541.351
541.244
541.137
541.03
540.923
540.817
540.71
540.603
552.464
552.293
552.122
551.951
551.781
551.613
551.446
551.283
551.123
550.967
550.817
550.673
550.535
550.403
550.277
550.157
550.043
549.934
549.829
549.729
549.634
549.542
549.452
549.366
549.28
549.195
549.111
549.026
548.941
548.856
548.77
548.684
548.599
548.513
548.428
548.343
548.259
548.176
548.094
548.014
547.935
547.857
547.782
547.709
547.637
547.568
547.5
547.435
547.372
547.31
547.25
547.192
547.135
547.079
547.025
546.972
546.92
546.868
546.818
546.767
546.717
546.667
546.616
546.565
546.513
546.458
546.402
546.343
546.28
546.213
546.141
546.064
545.981
545.891
545.794
545.689
545.577
545.458
545.332
545.2
545.065
544.93
544.798
544.668
544.54
544.413
544.288
544.165
544.043
543.922
543.802
543.684
543.566
543.45
543.334
543.219
543.105
542.992
542.879
542.767
542.656
542.545
542.435
542.325
542.215
542.106
541.997
541.889
541.781
541.673
541.565
541.458
541.351
541.243
541.137
541.03
540.923
540.816
540.71
540.603
552.464
552.291
552.118
551.947
551.776
551.607
551.441
551.278
551.119
550.965
550.817
550.674
550.538
550.408
550.283
550.165
550.051
549.942
549.838
549.739
549.643
549.552
549.463
549.376
549.29
549.205
549.12
549.035
548.95
548.864
548.777
548.691
548.604
548.518
548.431
548.346
548.261
548.177
548.095
548.014
547.934
547.856
547.78
547.706
547.633
547.563
547.495
547.428
547.363
547.3
547.239
547.179
547.121
547.063
547.007
546.952
546.899
546.846
546.794
546.742
546.691
546.639
546.588
546.536
546.483
546.428
546.371
546.312
546.249
546.182
546.111
546.035
545.952
545.864
545.768
545.666
545.555
545.438
545.315
545.186
545.053
544.92
544.789
544.659
544.532
544.406
544.282
544.159
544.037
543.917
543.798
543.679
543.562
543.446
543.331
543.216
543.102
542.989
542.877
542.765
542.654
542.543
542.433
542.323
542.214
542.105
541.996
541.888
541.78
541.672
541.564
541.457
541.35
541.243
541.136
541.029
540.923
540.816
540.71
540.603
552.463
552.289
552.115
551.942
551.771
551.603
551.437
551.275
551.118
550.966
550.819
550.679
550.544
550.416
550.293
550.176
550.063
549.955
549.852
549.753
549.658
549.566
549.477
549.39
549.304
549.219
549.133
549.047
548.961
548.875
548.788
548.7
548.613
548.525
548.438
548.352
548.266
548.181
548.098
548.016
547.935
547.856
547.779
547.704
547.631
547.559
547.489
547.421
547.355
547.29
547.227
547.165
547.105
547.045
546.987
546.93
546.874
546.819
546.766
546.712
546.659
546.607
546.554
546.501
546.448
546.393
546.335
546.276
546.213
546.146
546.076
546
545.919
545.832
545.738
545.637
545.53
545.416
545.295
545.169
545.039
544.907
544.777
544.649
544.522
544.397
544.274
544.151
544.03
543.911
543.792
543.674
543.557
543.441
543.326
543.212
543.099
542.986
542.874
542.762
542.651
542.541
542.431
542.321
542.212
542.103
541.994
541.886
541.778
541.671
541.563
541.456
541.349
541.242
541.136
541.029
540.922
540.816
540.71
540.603
552.462
552.287
552.112
551.939
551.768
551.6
551.436
551.275
551.12
550.97
550.825
550.687
550.555
550.428
550.307
550.191
550.08
549.973
549.87
549.772
549.677
549.586
549.496
549.409
549.322
549.235
549.149
549.063
548.976
548.889
548.802
548.714
548.625
548.537
548.449
548.361
548.274
548.188
548.104
548.02
547.939
547.859
547.78
547.704
547.629
547.556
547.485
547.415
547.347
547.28
547.215
547.151
547.088
547.026
546.965
546.906
546.847
546.79
546.734
546.679
546.624
546.57
546.516
546.462
546.408
546.353
546.295
546.235
546.173
546.107
546.037
545.962
545.882
545.796
545.705
545.606
545.501
545.389
545.272
545.149
545.022
544.892
544.764
544.637
544.511
544.387
544.264
544.143
544.022
543.903
543.785
543.668
543.551
543.436
543.321
543.207
543.094
542.982
542.87
542.759
542.648
542.538
542.428
542.318
542.21
542.101
541.993
541.885
541.777
541.669
541.562
541.455
541.348
541.242
541.135
541.028
540.922
540.816
540.709
540.603
552.462
552.286
552.111
551.938
551.768
551.601
551.438
551.279
551.126
550.978
550.836
550.7
550.569
550.444
550.325
550.21
550.1
549.994
549.892
549.795
549.701
549.61
549.52
549.432
549.345
549.257
549.17
549.083
548.996
548.908
548.82
548.731
548.642
548.552
548.463
548.374
548.286
548.198
548.112
548.028
547.944
547.863
547.783
547.705
547.628
547.554
547.48
547.409
547.339
547.27
547.202
547.135
547.07
547.005
546.941
546.879
546.817
546.758
546.699
546.641
546.585
546.529
546.474
546.42
546.365
546.309
546.251
546.191
546.129
546.063
545.994
545.92
545.842
545.758
545.668
545.572
545.47
545.361
545.247
545.127
545.003
544.875
544.748
544.623
544.498
544.375
544.253
544.133
544.013
543.894
543.777
543.66
543.544
543.429
543.315
543.202
543.089
542.977
542.866
542.755
542.644
542.534
542.425
542.316
542.207
542.099
541.991
541.883
541.775
541.668
541.561
541.454
541.347
541.241
541.134
541.028
540.922
540.815
540.709
540.603
552.462
552.286
552.112
551.94
551.771
551.605
551.444
551.288
551.137
550.991
550.851
550.716
550.587
550.464
550.345
550.231
550.122
550.018
549.918
549.822
549.729
549.638
549.549
549.461
549.373
549.285
549.197
549.108
549.02
548.932
548.843
548.753
548.662
548.572
548.481
548.391
548.301
548.212
548.124
548.037
547.953
547.869
547.788
547.707
547.629
547.552
547.477
547.403
547.331
547.259
547.189
547.119
547.051
546.983
546.916
546.85
546.786
546.723
546.661
546.601
546.543
546.485
546.429
546.373
546.317
546.261
546.203
546.144
546.082
546.017
545.948
545.876
545.799
545.717
545.629
545.536
545.437
545.331
545.22
545.103
544.982
544.856
544.731
544.607
544.484
544.362
544.241
544.121
544.003
543.885
543.768
543.652
543.537
543.422
543.309
543.196
543.083
542.972
542.861
542.75
542.64
542.53
542.421
542.313
542.204
542.096
541.988
541.881
541.773
541.666
541.559
541.453
541.346
541.24
541.133
541.027
540.921
540.815
540.709
540.603
552.462
552.288
552.115
551.944
551.777
551.614
551.455
551.301
551.152
551.008
550.87
550.737
550.61
550.487
550.37
550.257
550.149
550.046
549.948
549.853
549.761
549.671
549.583
549.495
549.407
549.318
549.229
549.14
549.05
548.96
548.87
548.779
548.687
548.595
548.503
548.411
548.319
548.228
548.138
548.05
547.963
547.878
547.794
547.712
547.631
547.552
547.475
547.399
547.323
547.249
547.176
547.103
547.031
546.96
546.889
546.82
546.752
546.686
546.621
546.559
546.498
546.438
546.38
546.323
546.266
546.21
546.152
546.093
546.031
545.967
545.899
545.828
545.753
545.673
545.588
545.498
545.401
545.299
545.192
545.078
544.96
544.836
544.713
544.59
544.469
544.348
544.228
544.109
543.991
543.874
543.758
543.643
543.528
543.414
543.301
543.189
543.077
542.966
542.855
542.745
542.636
542.526
542.417
542.309
542.201
542.093
541.986
541.878
541.771
541.664
541.558
541.451
541.345
541.239
541.133
541.027
540.921
540.815
540.709
540.603
552.463
552.29
552.119
551.952
551.787
551.626
551.47
551.319
551.172
551.031
550.894
550.763
550.637
550.515
550.399
550.288
550.182
550.08
549.983
549.89
549.8
549.711
549.623
549.535
549.447
549.357
549.267
549.176
549.084
548.993
548.901
548.809
548.715
548.622
548.528
548.434
548.34
548.247
548.155
548.065
547.976
547.888
547.802
547.718
547.635
547.554
547.474
547.394
547.316
547.239
547.162
547.086
547.01
546.935
546.861
546.789
546.717
546.647
546.579
546.514
546.45
546.388
546.328
546.27
546.212
546.155
546.097
546.038
545.977
545.914
545.848
545.778
545.705
545.627
545.544
545.457
545.364
545.265
545.161
545.051
544.936
544.815
544.693
544.572
544.452
544.332
544.214
544.096
543.979
543.862
543.747
543.632
543.519
543.406
543.293
543.181
543.07
542.96
542.849
542.74
542.631
542.522
542.413
542.305
542.197
542.09
541.983
541.876
541.769
541.662
541.556
541.45
541.344
541.238
541.132
541.026
540.92
540.814
540.709
540.603
552.465
552.296
552.128
551.963
551.801
551.643
551.49
551.341
551.197
551.058
550.923
550.794
550.669
550.549
550.435
550.326
550.221
550.122
550.026
549.935
549.845
549.757
549.67
549.581
549.492
549.402
549.309
549.216
549.122
549.029
548.936
548.842
548.747
548.652
548.556
548.46
548.364
548.269
548.175
548.082
547.99
547.9
547.812
547.725
547.64
547.556
547.473
547.39
547.309
547.228
547.147
547.067
546.988
546.91
546.832
546.756
546.68
546.607
546.535
546.466
546.399
546.335
546.273
546.213
546.155
546.097
546.039
545.98
545.92
545.858
545.793
545.725
545.654
545.578
545.498
545.414
545.324
545.23
545.129
545.023
544.911
544.793
544.673
544.553
544.434
544.315
544.198
544.081
543.965
543.85
543.735
543.621
543.508
543.396
543.284
543.173
543.063
542.953
542.843
542.734
542.625
542.517
542.409
542.301
542.194
542.087
541.98
541.873
541.767
541.66
541.554
541.448
541.342
541.236
541.131
541.025
540.919
540.814
540.708
540.603
552.467
552.302
552.138
551.976
551.818
551.663
551.513
551.367
551.226
551.089
550.957
550.83
550.707
550.59
550.477
550.37
550.268
550.171
550.078
549.988
549.899
549.81
549.722
549.633
549.542
549.45
549.355
549.26
549.164
549.069
548.974
548.878
548.782
548.684
548.586
548.488
548.39
548.292
548.196
548.1
548.007
547.914
547.824
547.734
547.646
547.559
547.472
547.386
547.301
547.216
547.132
547.048
546.965
546.883
546.802
546.721
546.642
546.564
546.489
546.416
546.347
546.28
546.216
546.154
546.094
546.036
545.977
545.919
545.859
545.799
545.736
545.67
545.6
545.527
545.45
545.369
545.282
545.191
545.095
544.993
544.885
544.771
544.652
544.533
544.415
544.297
544.181
544.065
543.95
543.836
543.722
543.61
543.497
543.386
543.275
543.165
543.055
542.945
542.836
542.728
542.619
542.512
542.404
542.297
542.19
542.083
541.977
541.87
541.764
541.658
541.552
541.446
541.341
541.235
541.13
541.024
540.919
540.813
540.708
540.603
552.469
552.308
552.148
551.991
551.837
551.686
551.54
551.397
551.259
551.125
550.996
550.871
550.751
550.636
550.527
550.423
550.323
550.228
550.137
550.047
549.958
549.87
549.781
549.691
549.598
549.502
549.405
549.307
549.209
549.112
549.015
548.918
548.819
548.719
548.619
548.518
548.417
548.317
548.218
548.12
548.024
547.929
547.836
547.744
547.653
547.562
547.472
547.382
547.293
547.204
547.115
547.027
546.941
546.854
546.769
546.684
546.601
546.519
546.44
546.364
546.291
546.221
546.155
546.092
546.031
545.972
545.913
545.855
545.796
545.736
545.675
545.611
545.544
545.473
545.399
545.321
545.238
545.151
545.058
544.96
544.858
544.752
544.629
544.511
544.394
544.278
544.163
544.048
543.934
543.821
543.709
543.597
543.486
543.375
543.265
543.155
543.046
542.937
542.829
542.721
542.613
542.506
542.399
542.292
542.186
542.079
541.973
541.867
541.761
541.656
541.55
541.444
541.339
541.234
541.128
541.023
540.918
540.813
540.708
540.603
552.472
552.315
552.161
552.008
551.858
551.712
551.569
551.431
551.296
551.165
551.039
550.917
550.801
550.69
550.583
550.482
550.385
550.292
550.202
550.113
550.025
549.936
549.846
549.753
549.658
549.56
549.459
549.358
549.257
549.158
549.059
548.959
548.858
548.755
548.652
548.547
548.444
548.341
548.24
548.14
548.041
547.944
547.848
547.753
547.659
547.565
547.471
547.377
547.284
547.19
547.097
547.005
546.914
546.824
546.734
546.645
546.558
546.472
546.389
546.31
546.233
546.161
546.092
546.027
545.965
545.904
545.846
545.788
545.729
545.671
545.611
545.549
545.484
545.416
545.345
545.27
545.191
545.107
545.019
544.925
544.826
544.717
544.601
544.486
544.371
544.257
544.143
544.03
543.918
543.806
543.694
543.584
543.473
543.364
543.254
543.145
543.037
542.929
542.821
542.714
542.607
542.5
542.394
542.287
542.181
542.075
541.97
541.864
541.758
541.653
541.548
541.443
541.337
541.232
541.127
541.022
540.917
540.812
540.707
540.602
552.474
552.324
552.174
552.026
551.881
551.74
551.601
551.467
551.336
551.209
551.087
550.969
550.856
550.748
550.646
550.548
550.454
550.362
550.273
550.185
550.097
550.007
549.916
549.821
549.722
549.621
549.517
549.412
549.309
549.207
549.105
549.002
548.897
548.79
548.683
548.576
548.47
548.365
548.262
548.159
548.058
547.958
547.86
547.762
547.664
547.567
547.469
547.372
547.274
547.176
547.079
546.982
546.887
546.792
546.698
546.605
546.514
546.424
546.337
546.254
546.174
546.099
546.027
545.96
545.896
545.835
545.775
545.717
545.66
545.602
545.544
545.484
545.421
545.356
545.288
545.216
545.141
545.061
544.976
544.886
544.79
544.683
544.571
544.459
544.347
544.234
544.123
544.011
543.9
543.789
543.679
543.57
543.46
543.351
543.243
543.135
543.028
542.92
542.813
542.707
542.6
542.494
542.388
542.282
542.177
542.071
541.966
541.861
541.756
541.65
541.545
541.441
541.336
541.231
541.126
541.021
540.917
540.812
540.707
540.602
552.477
552.332
552.188
552.046
551.906
551.77
551.636
551.506
551.38
551.258
551.139
551.026
550.917
550.813
550.714
550.619
550.527
550.438
550.35
550.262
550.174
550.083
549.989
549.891
549.789
549.684
549.576
549.468
549.361
549.255
549.149
549.041
548.932
548.822
548.712
548.602
548.494
548.387
548.281
548.176
548.073
547.971
547.87
547.769
547.669
547.568
547.467
547.365
547.264
547.162
547.06
546.959
546.858
546.759
546.66
546.563
546.468
546.374
546.284
546.196
546.113
546.035
545.961
545.891
545.825
545.763
545.703
545.645
545.588
545.531
545.474
545.415
545.356
545.293
545.228
545.16
545.088
545.012
544.931
544.845
544.752
544.65
544.54
544.431
544.321
544.211
544.101
543.991
543.881
543.772
543.663
543.555
543.446
543.339
543.231
543.124
543.018
542.911
542.805
542.699
542.593
542.488
542.382
542.277
542.172
542.067
541.962
541.857
541.753
541.648
541.543
541.439
541.334
541.229
541.125
541.02
540.916
540.811
540.707
540.602
552.48
552.341
552.203
552.067
551.933
551.802
551.674
551.549
551.427
551.309
551.196
551.087
550.982
550.882
550.786
550.694
550.605
550.517
550.429
550.341
550.252
550.16
550.063
549.962
549.856
549.747
549.635
549.522
549.41
549.299
549.188
549.075
548.962
548.848
548.735
548.623
548.513
548.405
548.297
548.191
548.086
547.982
547.878
547.775
547.672
547.568
547.464
547.359
547.253
547.147
547.041
546.935
546.829
546.725
546.622
546.521
546.421
546.324
546.229
546.138
546.052
545.97
545.893
545.821
545.753
545.689
545.629
545.57
545.514
545.458
545.402
545.345
545.287
545.227
545.165
545.1
545.032
544.959
544.882
544.8
544.712
544.613
544.508
544.402
544.294
544.187
544.078
543.97
543.862
543.754
543.646
543.539
543.432
543.325
543.219
543.113
543.007
542.902
542.796
542.691
542.586
542.481
542.377
542.272
542.167
542.063
541.958
541.854
541.75
541.645
541.541
541.436
541.332
541.228
541.124
541.019
540.915
540.811
540.706
540.602
552.484
552.351
552.219
552.089
551.961
551.835
551.713
551.593
551.477
551.364
551.255
551.15
551.05
550.954
550.862
550.772
550.684
550.597
550.51
550.422
550.331
550.236
550.137
550.032
549.922
549.807
549.689
549.57
549.453
549.336
549.219
549.101
548.983
548.866
548.751
548.639
548.528
548.418
548.31
548.203
548.097
547.991
547.886
547.781
547.675
547.569
547.461
547.353
547.243
547.133
547.022
546.912
546.802
546.693
546.585
546.479
546.375
546.274
546.176
546.081
545.991
545.907
545.827
545.752
545.682
545.616
545.554
545.496
545.439
545.383
545.329
545.273
545.218
545.16
545.101
545.039
544.974
544.905
544.832
544.754
544.67
544.577
544.475
544.372
544.267
544.161
544.055
543.948
543.842
543.735
543.629
543.523
543.417
543.312
543.206
543.101
542.997
542.892
542.788
542.683
542.579
542.475
542.371
542.267
542.163
542.059
541.955
541.851
541.747
541.642
541.538
541.434
541.33
541.226
541.122
541.018
540.914
540.81
540.706
540.602
552.487
552.361
552.235
552.112
551.989
551.87
551.753
551.639
551.528
551.42
551.316
551.216
551.12
551.027
550.938
550.85
550.763
550.677
550.589
550.499
550.407
550.309
550.206
550.097
549.981
549.861
549.737
549.611
549.487
549.364
549.241
549.118
548.996
548.877
548.761
548.648
548.536
548.427
548.319
548.212
548.105
547.999
547.893
547.786
547.678
547.57
547.459
547.347
547.234
547.12
547.004
546.889
546.775
546.661
546.549
546.44
546.332
546.227
546.125
546.028
545.934
545.846
545.764
545.686
545.614
545.546
545.482
545.422
545.365
545.31
545.256
545.202
545.148
545.092
545.036
544.977
544.915
544.85
544.782
544.709
544.629
544.54
544.443
544.342
544.24
544.136
544.031
543.926
543.82
543.715
543.61
543.506
543.401
543.297
543.193
543.089
542.986
542.882
542.779
542.675
542.572
542.468
542.365
542.261
542.158
542.054
541.951
541.847
541.743
541.64
541.536
541.432
541.329
541.225
541.121
541.017
540.913
540.81
540.706
540.602
552.49
552.37
552.251
552.134
552.018
551.905
551.793
551.685
551.58
551.477
551.378
551.282
551.189
551.099
551.012
550.925
550.839
550.752
550.664
550.572
550.477
550.376
550.268
550.154
550.033
549.907
549.775
549.642
549.51
549.381
549.252
549.125
549.001
548.881
548.764
548.651
548.54
548.431
548.324
548.218
548.112
548.006
547.9
547.793
547.684
547.573
547.46
547.345
547.228
547.11
546.99
546.87
546.751
546.634
546.518
546.405
546.294
546.185
546.081
545.98
545.884
545.793
545.707
545.627
545.551
545.481
545.415
545.354
545.295
545.24
545.186
545.133
545.081
545.027
544.973
544.917
544.858
544.797
544.732
544.664
544.589
544.505
544.411
544.314
544.213
544.11
544.006
543.902
543.798
543.695
543.591
543.488
543.385
543.282
543.18
543.077
542.975
542.872
542.77
542.667
542.564
542.462
542.359
542.256
542.153
542.05
541.947
541.844
541.741
541.637
541.534
541.43
541.327
541.223
541.12
541.016
540.913
540.809
540.705
540.602
552.493
552.38
552.267
552.156
552.046
551.939
551.833
551.73
551.63
551.532
551.437
551.344
551.254
551.166
551.08
550.994
550.908
550.82
550.73
550.636
550.537
550.432
550.32
550.201
550.074
549.941
549.803
549.662
549.523
549.387
549.254
549.124
548.998
548.877
548.76
548.648
548.538
548.431
548.325
548.221
548.117
548.013
547.908
547.802
547.693
547.581
547.466
547.349
547.229
547.106
546.982
546.859
546.735
546.614
546.495
546.378
546.264
546.153
546.046
545.943
545.844
545.751
545.662
545.579
545.5
545.427
545.358
545.294
545.235
545.178
545.124
545.071
545.02
544.968
544.915
544.861
544.805
544.747
544.686
544.621
544.552
544.473
544.383
544.287
544.187
544.084
543.981
543.878
543.775
543.673
543.571
543.469
543.368
543.267
543.166
543.065
542.963
542.862
542.76
542.659
542.557
542.455
542.353
542.251
542.148
542.046
541.943
541.841
541.738
541.635
541.532
541.429
541.325
541.222
541.119
541.015
540.912
540.809
540.705
540.602
552.496
552.388
552.282
552.176
552.072
551.97
551.87
551.772
551.676
551.582
551.49
551.4
551.311
551.224
551.137
551.051
550.964
550.875
550.783
550.686
550.583
550.473
550.356
550.231
550.099
549.961
549.816
549.668
549.522
549.381
549.245
549.114
548.988
548.867
548.75
548.639
548.531
548.426
548.323
548.222
548.121
548.021
547.919
547.814
547.706
547.595
547.479
547.359
547.237
547.111
546.984
546.856
546.73
546.605
546.483
546.363
546.247
546.135
546.027
545.922
545.822
545.727
545.636
545.549
545.467
545.39
545.319
545.252
545.19
545.132
545.077
545.024
544.972
544.92
544.869
544.816
544.761
544.704
544.645
544.583
544.518
544.445
544.361
544.264
544.162
544.058
543.955
543.852
543.751
543.65
543.55
543.45
543.351
543.251
543.151
543.052
542.952
542.852
542.751
542.651
542.55
542.449
542.347
542.246
542.144
542.042
541.94
541.837
541.735
541.632
541.53
541.427
541.324
541.221
541.118
541.015
540.911
540.808
540.705
540.602
552.499
552.396
552.294
552.194
552.094
551.997
551.901
551.806
551.713
551.622
551.531
551.442
551.354
551.266
551.178
551.09
551.001
550.91
550.814
550.714
550.607
550.492
550.37
550.241
550.105
549.962
549.812
549.66
549.508
549.363
549.225
549.095
548.97
548.849
548.734
548.624
548.518
548.417
548.318
548.222
548.127
548.031
547.933
547.832
547.726
547.616
547.5
547.379
547.255
547.127
546.998
546.868
546.739
546.612
546.488
546.368
546.251
546.138
546.03
545.925
545.825
545.728
545.635
545.546
545.461
545.38
545.306
545.236
545.171
545.111
545.054
545
544.947
544.895
544.843
544.789
544.733
544.674
544.613
544.552
544.49
544.425
544.354
544.247
544.137
544.031
543.927
543.825
543.725
543.626
543.528
543.43
543.333
543.235
543.137
543.039
542.941
542.842
542.743
542.643
542.543
542.443
542.342
542.241
542.14
542.038
541.936
541.834
541.732
541.63
541.528
541.425
541.322
541.22
541.117
541.014
540.911
540.808
540.705
540.602
552.5
552.401
552.303
552.205
552.109
552.014
551.92
551.828
551.736
551.646
551.555
551.465
551.375
551.284
551.193
551.102
551.009
550.914
550.815
550.712
550.602
550.483
550.356
550.223
550.085
549.94
549.791
549.637
549.482
549.333
549.196
549.069
548.946
548.827
548.712
548.604
548.501
548.405
548.312
548.224
548.136
548.046
547.954
547.857
547.755
547.646
547.531
547.411
547.287
547.159
547.03
546.9
546.771
546.643
546.519
546.398
546.282
546.172
546.065
545.961
545.862
545.766
545.673
545.582
545.494
545.41
545.333
545.259
545.192
545.128
545.07
545.014
544.96
544.906
544.849
544.794
544.735
544.667
544.599
544.532
544.47
544.414
544.383
544.232
544.11
544
543.896
543.795
543.697
543.6
543.505
543.409
543.314
543.219
543.123
543.026
542.929
542.832
542.734
542.635
542.536
542.437
542.337
542.236
542.136
542.035
541.933
541.832
541.73
541.628
541.526
541.423
541.321
541.218
541.116
541.013
540.91
540.807
540.704
540.601
552.501
552.403
552.305
552.209
552.113
552.018
551.924
551.831
551.738
551.645
551.551
551.457
551.363
551.267
551.17
551.072
550.974
550.875
550.773
550.668
550.556
550.436
550.307
550.171
550.033
549.891
549.744
549.593
549.439
549.29
549.156
549.034
548.917
548.799
548.684
548.578
548.48
548.39
548.305
548.228
548.151
548.067
547.983
547.893
547.793
547.69
547.574
547.457
547.335
547.21
547.085
546.956
546.832
546.704
546.583
546.466
546.352
546.245
546.144
546.04
545.945
545.851
545.763
545.67
545.582
545.495
545.42
545.339
545.268
545.201
545.146
545.084
545.028
544.965
544.897
544.846
544.792
544.7
544.613
544.532
544.457
544.386
544.307
544.189
544.072
543.963
543.86
543.762
543.667
543.573
543.48
543.388
543.295
543.202
543.108
543.014
542.919
542.823
542.726
542.628
542.53
542.431
542.332
542.232
542.132
542.031
541.93
541.829
541.728
541.626
541.524
541.422
541.32
541.217
541.115
541.012
540.91
540.807
540.704
540.601
552.5
552.399
552.299
552.199
552.1
552.002
551.904
551.806
551.708
551.608
551.508
551.406
551.303
551.198
551.092
550.986
550.883
550.779
550.675
550.571
550.462
550.346
550.217
550.083
549.949
549.811
549.671
549.527
549.379
549.231
549.101
548.987
548.875
548.757
548.637
548.539
548.445
548.362
548.283
548.228
548.171
548.086
548.017
547.934
547.835
547.745
547.624
547.518
547.399
547.279
547.169
547.041
546.928
546.795
546.686
546.581
546.47
546.37
546.284
546.17
546.087
545.993
545.918
545.823
545.742
545.652
545.598
545.495
545.417
545.342
545.315
545.234
545.17
545.089
544.984
544.965
544.941
544.799
544.674
544.567
544.464
544.372
544.271
544.147
544.027
543.921
543.82
543.725
543.634
543.544
543.455
543.366
543.276
543.186
543.095
543.002
542.909
542.814
542.718
542.622
542.524
542.426
542.328
542.228
542.129
542.028
541.928
541.827
541.726
541.624
541.523
541.421
541.319
541.216
541.114
541.012
540.909
540.807
540.704
540.601
552.496
552.388
552.28
552.172
552.064
551.957
551.85
551.743
551.634
551.521
551.407
551.292
551.175
551.056
550.938
550.824
550.719
550.614
550.51
550.41
550.312
550.209
550.087
549.959
549.83
549.696
549.56
549.422
549.291
549.145
549.02
548.912
548.804
548.696
548.584
548.504
548.428
548.365
548.309
548.255
548.2
548.114
548.041
547.948
547.853
547.765
547.643
547.553
547.429
547.33
547.216
547.116
547.005
546.884
546.788
546.666
546.563
546.449
546.358
546.246
546.161
546.059
545.983
545.9
545.825
545.759
545.688
545.653
545.567
545.53
545.492
545.477
545.355
545.298
545.226
545.193
545.068
544.977
544.837
544.69
544.517
544.385
544.263
544.072
543.969
543.873
543.774
543.684
543.598
543.514
543.429
543.344
543.258
543.17
543.082
542.991
542.899
542.806
542.711
542.616
542.519
542.422
542.324
542.225
542.126
542.026
541.926
541.825
541.724
541.623
541.521
541.42
541.318
541.216
541.113
541.011
540.909
540.806
540.704
540.601
552.489
552.368
552.245
552.121
551.997
551.874
551.751
551.627
551.499
551.365
551.229
551.092
550.955
550.817
550.681
550.564
550.466
550.365
550.266
550.177
550.093
550.014
549.909
549.789
549.664
549.528
549.39
549.258
549.13
549.029
548.931
548.833
548.727
548.628
548.533
548.461
548.397
548.345
548.296
548.239
548.181
548.109
548.048
547.952
547.872
547.758
547.634
547.513
547.405
547.304
547.193
547.086
546.978
546.867
546.79
546.667
546.6
546.475
546.431
546.322
546.274
546.15
546.099
545.975
545.903
545.794
545.733
545.635
545.544
545.462
545.431
545.38
545.273
545.2
545.148
545.074
544.993
544.907
544.787
544.656
544.506
544.387
544.273
544.039
543.931
543.804
543.717
543.637
543.56
543.483
543.404
543.322
543.24
543.156
543.07
542.981
542.891
542.799
542.706
542.611
542.515
542.418
542.321
542.222
542.123
542.024
541.924
541.823
541.723
541.622
541.52
541.419
541.317
541.215
541.113
541.011
540.908
540.806
540.704
540.601
552.479
552.337
552.191
552.042
551.891
551.743
551.592
551.439
551.281
551.115
550.947
550.78
550.617
550.451
550.296
550.179
550.102
550.017
549.926
549.848
549.774
549.714
549.633
549.54
549.426
549.293
549.156
549.032
548.92
548.892
548.829
548.734
548.644
548.56
548.505
548.44
548.384
548.303
548.23
548.141
548.086
548.009
547.968
547.89
547.85
547.711
547.593
547.416
547.333
547.191
547.09
546.945
546.856
546.732
546.682
546.55
546.512
546.365
546.342
546.176
546.105
545.95
545.866
545.737
545.668
545.556
545.512
545.432
545.37
545.306
545.269
545.213
545.141
545.081
545.03
544.961
544.89
544.808
544.706
544.588
544.473
544.367
544.207
543.936
543.856
543.752
543.657
543.588
543.523
543.453
543.379
543.302
543.224
543.143
543.059
542.973
542.884
542.794
542.701
542.607
542.512
542.415
542.318
542.22
542.121
542.022
541.922
541.822
541.722
541.621
541.519
541.418
541.316
541.215
541.113
541.01
540.908
540.806
540.704
540.601
552.464
552.294
552.118
551.929
551.737
551.547
551.344
551.13
550.927
550.726
550.524
550.327
550.132
549.936
549.766
549.651
549.557
549.498
549.414
549.35
549.281
549.247
549.205
549.171
549.085
548.983
548.892
548.788
548.689
548.666
548.646
548.555
548.523
548.486
548.494
548.428
548.388
548.226
548.128
547.993
547.967
547.895
547.859
547.768
547.711
547.55
547.379
547.153
547.066
546.968
546.863
546.747
546.633
546.521
546.447
546.328
546.255
546.129
546.066
545.949
545.873
545.752
545.663
545.561
545.484
545.392
545.331
545.256
545.194
545.135
545.09
545.037
544.988
544.941
544.895
544.837
544.773
544.701
544.615
544.52
544.428
544.325
544.097
543.88
543.768
543.683
543.617
543.541
543.489
543.429
543.356
543.281
543.209
543.133
543.052
542.967
542.88
542.79
542.698
542.604
542.51
542.414
542.317
542.219
542.12
542.021
541.921
541.821
541.721
541.62
541.519
541.418
541.316
541.214
541.112
541.01
540.908