/*--------------------------------*- C++ -*----------------------------------*\
  =========                 |
  \\      /  F ield         | OpenFOAM: The Open Source CFD Toolbox
   \\    /   O peration     | Website:  https://openfoam.org
    \\  /    A nd           | Version:  6
     \\/     M anipulation  |
\*---------------------------------------------------------------------------*/
FoamFile
{
    version     2.0;
    format      ascii;
    class       volVectorField;
    location    "4000";
    object      U;
}
// * * * * * * * * * * * * * * * * * * * * * * * * * * * * * * * * * * * * * //

dimensions      [0 1 -1 0 0 0 0];

internalField   nonuniform List<vector> 
4800
(
(5.14046e-06 0 -5.42277e-05)
(5.34144e-05 0 -5.43371e-05)
(7.78895e-05 0 -5.09377e-05)
(9.97782e-05 0 -2.34488e-05)
(9.08926e-05 0 -4.42408e-05)
(7.83389e-05 0 -5.77231e-05)
(5.89089e-05 0 -6.45331e-05)
(4.20431e-05 0 -9.6758e-05)
(-1.60704e-05 0 -0.000146633)
(-6.562e-05 0 -2.42004e-05)
(-0.000127516 0 -1.27838e-06)
(-0.000192658 0 2.54137e-05)
(-0.000265388 0 9.93131e-06)
(-0.000334687 0 2.79675e-06)
(-0.000382022 0 4.24497e-06)
(-0.000403894 0 1.43619e-06)
(-0.000406048 0 1.58255e-06)
(-0.000382945 0 -1.2415e-05)
(-0.00036301 0 -2.7447e-05)
(-0.000352783 0 -3.58918e-05)
(-0.000347087 0 -2.42646e-05)
(-0.000338279 0 -2.1395e-05)
(-0.00033013 0 -3.26533e-05)
(-0.000304547 0 -7.87281e-05)
(-0.000242634 0 -6.46693e-05)
(-0.000175608 0 -5.58236e-05)
(-0.00013945 0 -6.43088e-05)
(-0.000130404 0 -8.31017e-05)
(-0.0001398 0 -4.3915e-05)
(-9.05531e-05 0 -5.91514e-05)
(-6.41626e-05 0 -3.11184e-05)
(-4.234e-05 0 -5.50724e-05)
(-2.5679e-05 0 -5.19732e-05)
(2.50861e-06 0 -4.25227e-05)
(1.96658e-05 0 -1.75412e-05)
(4.90591e-06 0 -1.71866e-05)
(-1.59111e-05 0 -1.43668e-05)
(-2.09245e-05 0 -1.16543e-05)
(-3.65254e-05 0 -4.9821e-05)
(-3.62105e-05 0 -4.05449e-05)
(-4.70384e-05 0 -2.89666e-05)
(-5.02174e-05 0 -5.51322e-06)
(-9.38841e-05 0 -6.89205e-05)
(-5.89139e-05 0 5.24284e-05)
(-6.77959e-05 0 -6.38816e-06)
(-5.34882e-05 0 -2.34252e-05)
(-4.3669e-05 0 -4.82402e-05)
(1.29714e-05 0 7.33507e-06)
(4.70551e-06 0 -8.81286e-05)
(7.83665e-05 0 -5.38416e-05)
(0.000149416 0 -1.55555e-05)
(0.000161502 0 -7.06471e-05)
(0.000210862 0 -6.97289e-05)
(0.000294587 0 -8.28371e-05)
(0.000412316 0 -9.9426e-05)
(0.000549502 0 7.12512e-06)
(0.000595955 0 -3.22623e-05)
(0.000652056 0 -7.85823e-05)
(0.000779938 0 -8.64179e-05)
(0.000954516 0 6.85779e-05)
(0.000984043 0 -9.17247e-05)
(0.00100058 0 -6.82524e-05)
(0.00104742 0 -6.17017e-05)
(0.00112134 0 -6.50724e-05)
(0.0012108 0 -4.43806e-06)
(0.0012844 0 -8.36022e-06)
(0.00128746 0 -1.69588e-05)
(0.00129064 0 -1.19157e-05)
(0.00129181 0 -1.14451e-05)
(0.00128257 0 -4.38949e-06)
(0.00125656 0 -3.2304e-05)
(0.0012136 0 3.43604e-05)
(0.00115295 0 -5.59781e-05)
(0.00107479 0 0.000100738)
(0.00099549 0 -0.000100782)
(0.000870846 0 0.000190199)
(0.000762696 0 -2.71018e-05)
(0.000543666 0 -0.000241597)
(0.000143294 0 0.00016691)
(-0.000717117 0 -0.000110889)
(6.72708e-06 0 -0.00023027)
(-7.3537e-13 0 -1.00115e-13)
(-1.71972e-12 0 8.99582e-15)
(-6.88557e-13 0 3.65084e-14)
(-7.57581e-13 0 3.13296e-14)
(-8.07451e-13 0 1.75003e-14)
(-8.28273e-13 0 2.25012e-15)
(-8.19447e-13 0 -1.20838e-14)
(-7.83554e-13 0 -2.47483e-14)
(-7.24153e-13 0 -3.55215e-14)
(-6.45065e-13 0 -4.43636e-14)
(-5.50129e-13 0 -5.12996e-14)
(-4.43107e-13 0 -5.63831e-14)
(-3.27633e-13 0 -5.96872e-14)
(-2.0718e-13 0 -6.13038e-14)
(-8.50157e-14 0 -6.13447e-14)
(3.58343e-14 0 -5.99423e-14)
(1.52628e-13 0 -5.72476e-14)
(2.62942e-13 0 -5.3427e-14)
(3.64695e-13 0 -4.86582e-14)
(4.56169e-13 0 -4.31245e-14)
(5.3601e-13 0 -3.70088e-14)
(6.0323e-13 0 -3.04887e-14)
(6.57183e-13 0 -2.37316e-14)
(6.97545e-13 0 -1.68904e-14)
(7.24284e-13 0 -1.01014e-14)
(7.3762e-13 0 -3.48212e-15)
(7.37992e-13 0 2.86896e-15)
(7.26015e-13 0 8.87214e-15)
(7.02448e-13 0 1.44654e-14)
(6.68158e-13 0 1.96025e-14)
(6.24089e-13 0 2.42513e-14)
(5.71239e-13 0 2.83911e-14)
(5.10638e-13 0 3.20102e-14)
(4.43332e-13 0 3.5104e-14)
(3.7037e-13 0 3.76726e-14)
(2.928e-13 0 3.97189e-14)
(2.11661e-13 0 4.12463e-14)
(1.27988e-13 0 4.22562e-14)
(4.28239e-14 0 4.27408e-14)
(2.32458e-07 0 -5.10509e-05)
(1.62134e-05 0 -4.73175e-05)
(3.67189e-05 0 -2.24218e-05)
(4.99776e-05 0 -2.58328e-08)
(6.63262e-05 0 4.67767e-05)
(1.21614e-05 0 6.45228e-05)
(-3.43202e-05 0 5.99722e-05)
(-8.38495e-05 0 0.000116481)
(-0.000124687 0 0.000140035)
(-0.000194812 0 5.18447e-05)
(-0.000233182 0 0.00012777)
(-0.000318303 0 0.000102552)
(-0.000353854 0 0.000120537)
(-0.000395894 0 9.06401e-05)
(-0.000421181 0 5.69381e-05)
(-0.000431317 0 3.07159e-05)
(-0.000436026 0 -1.74853e-05)
(-0.000441016 0 -2.1154e-05)
(-0.000435931 0 -3.95071e-05)
(-0.00041158 0 1.93456e-05)
(-0.000395122 0 5.99651e-06)
(-0.00038202 0 -1.61123e-05)
(-0.000357613 0 -5.58855e-05)
(-0.000314117 0 -6.99757e-05)
(-0.000265421 0 -4.57203e-05)
(-0.000200788 0 -0.000109532)
(-0.000194508 0 -1.72054e-05)
(-0.000165816 0 2.58846e-05)
(-0.00013667 0 2.44603e-05)
(-0.000122598 0 -8.2572e-05)
(-0.000100602 0 -4.08148e-06)
(-8.6377e-05 0 -2.91779e-05)
(-7.44927e-05 0 -3.88982e-05)
(-5.18448e-05 0 -1.50042e-05)
(-3.18642e-05 0 8.717e-06)
(-3.64286e-05 0 2.393e-05)
(-7.00244e-05 0 1.29937e-05)
(-7.57801e-05 0 2.75662e-05)
(-0.000104932 0 4.96861e-05)
(-0.000135116 0 3.09048e-05)
(-0.000140017 0 2.37229e-05)
(-0.000147832 0 1.72078e-05)
(-0.000153791 0 2.22444e-05)
(-0.000108812 0 3.91259e-05)
(-0.000137619 0 -2.73845e-05)
(-0.000106539 0 -2.14263e-05)
(-0.000105893 0 -3.82778e-05)
(-3.22265e-05 0 1.63807e-05)
(-6.03659e-05 0 -8.11951e-05)
(9.39367e-07 0 -2.40381e-05)
(6.88986e-05 0 2.20074e-05)
(8.14683e-05 0 -9.73719e-05)
(0.000144329 0 -0.000124734)
(0.000237253 0 -0.000119229)
(0.000312881 0 -0.000149064)
(0.00043375 0 -2.61976e-05)
(0.000472314 0 -0.000169956)
(0.000556126 0 -0.000211081)
(0.00068545 0 1.6601e-05)
(0.000795957 0 1.05736e-05)
(0.000824921 0 -0.000176651)
(0.00086413 0 -0.000161959)
(0.000934454 0 -0.000101765)
(0.00101828 0 -0.000100182)
(0.00111459 0 -0.00010201)
(0.00116082 0 -9.27396e-05)
(0.0011641 0 -3.56787e-05)
(0.00116924 0 -2.70313e-06)
(0.00116709 0 2.71207e-05)
(0.00115798 0 3.83492e-05)
(0.00113796 0 6.99508e-05)
(0.00110718 0 7.81615e-05)
(0.00105503 0 0.000125085)
(0.00100689 0 5.43935e-05)
(0.000914148 0 0.00022369)
(0.000864936 0 0.000103535)
(0.000678881 0 0.000348605)
(0.00062214 0 0.000344602)
(0.000585374 0 0.000158753)
(8.88257e-05 0 0.000182952)
(6.04642e-06 0 0.000224308)
(-5.27801e-13 0 1.4772e-13)
(-1.55429e-12 0 1.43503e-13)
(-6.66365e-13 0 1.41543e-13)
(-7.76449e-13 0 1.02267e-13)
(-8.36529e-13 0 5.35452e-14)
(-8.57857e-13 0 5.48617e-15)
(-8.46446e-13 0 -3.82403e-14)
(-8.06992e-13 0 -7.64279e-14)
(-7.43768e-13 0 -1.08761e-13)
(-6.60843e-13 0 -1.35236e-13)
(-5.62149e-13 0 -1.55967e-13)
(-4.51494e-13 0 -1.71123e-13)
(-3.32554e-13 0 -1.80924e-13)
(-2.08837e-13 0 -1.85645e-13)
(-8.36542e-14 0 -1.85621e-13)
(3.99314e-14 0 -1.81251e-13)
(1.59144e-13 0 -1.7299e-13)
(2.71531e-13 0 -1.61343e-13)
(3.74998e-13 0 -1.46847e-13)
(4.67818e-13 0 -1.30058e-13)
(5.48646e-13 0 -1.11529e-13)
(6.16507e-13 0 -9.1799e-14)
(6.70781e-13 0 -7.13719e-14)
(7.11175e-13 0 -5.071e-14)
(7.37692e-13 0 -3.02233e-14)
(7.50591e-13 0 -1.02648e-14)
(7.50346e-13 0 8.87042e-15)
(7.37611e-13 0 2.69444e-14)
(7.13178e-13 0 4.37728e-14)
(6.77944e-13 0 5.92192e-14)
(6.32877e-13 0 7.31888e-14)
(5.78998e-13 0 8.56219e-14)
(5.17351e-13 0 9.6486e-14)
(4.48995e-13 0 1.05769e-13)
(3.74985e-13 0 1.13474e-13)
(2.96374e-13 0 1.1961e-13)
(2.14198e-13 0 1.24192e-13)
(1.29483e-13 0 1.27229e-13)
(4.33085e-14 0 1.28725e-13)
(-1.40152e-05 0 -6.24462e-05)
(-1.08453e-05 0 -5.58091e-05)
(-1.3855e-06 0 -2.85705e-05)
(-7.54835e-06 0 1.61208e-05)
(-5.1535e-05 0 4.13037e-05)
(-3.87231e-05 0 8.67176e-05)
(-9.09878e-05 0 8.68197e-05)
(-0.000129846 0 0.000128352)
(-0.00020809 0 0.000141233)
(-0.000276634 0 0.000154643)
(-0.000325966 0 0.000165893)
(-0.000382062 0 0.000134197)
(-0.000411744 0 0.000110467)
(-0.000438142 0 8.20751e-05)
(-0.000453836 0 6.51324e-05)
(-0.00046413 0 3.52741e-05)
(-0.000482073 0 -1.11437e-05)
(-0.000495698 0 -6.17734e-06)
(-0.000491602 0 -2.45906e-05)
(-0.000452987 0 -4.96627e-05)
(-0.000433506 0 -3.00006e-05)
(-0.000417952 0 -3.35177e-05)
(-0.000384285 0 -5.57624e-05)
(-0.000335619 0 -7.38256e-05)
(-0.000275965 0 -0.000119435)
(-0.000205468 0 -0.000160285)
(-0.000221867 0 -2.56442e-05)
(-0.000175954 0 -3.47037e-05)
(-0.000164633 0 -4.08901e-05)
(-0.000163828 0 -6.22444e-05)
(-0.000163109 0 -5.04588e-05)
(-0.000161509 0 -6.93657e-05)
(-0.000174821 0 -6.10177e-05)
(-0.000178957 0 -4.28031e-05)
(-0.000157486 0 -1.84865e-07)
(-0.000143576 0 1.65952e-05)
(-0.000150422 0 3.91404e-05)
(-0.000159814 0 5.17489e-05)
(-0.000170691 0 5.51863e-05)
(-0.000188649 0 4.21564e-05)
(-0.000228565 0 4.33567e-06)
(-0.000247993 0 2.41553e-06)
(-0.000242288 0 8.40444e-06)
(-0.000221916 0 1.59855e-05)
(-0.000235118 0 -8.85606e-06)
(-0.0002414 0 -5.13378e-05)
(-0.000224124 0 -7.41271e-05)
(-0.000151151 0 -4.98654e-05)
(-0.000117607 0 -8.10716e-05)
(-0.000122506 0 -0.000126305)
(-1.11133e-05 0 -9.00471e-05)
(8.4742e-06 0 -0.000146575)
(0.000107232 0 -0.000157288)
(0.000186662 0 -0.00018325)
(0.000181035 0 -0.000278731)
(0.000339499 0 -0.000171542)
(0.000399287 0 -0.000201178)
(0.000470818 0 -0.000251789)
(0.000540308 0 -0.000296406)
(0.000638983 0 -0.000223989)
(0.000708182 0 -0.000204667)
(0.000759606 0 -0.000232457)
(0.000861587 0 -0.000140408)
(0.000941357 0 -0.000239315)
(0.00100901 0 -9.2941e-05)
(0.00100927 0 -7.37702e-05)
(0.00102193 0 -5.85493e-05)
(0.00105307 0 -6.58547e-06)
(0.00104945 0 6.35505e-06)
(0.00103377 0 2.28645e-05)
(0.00101998 0 6.60861e-05)
(0.000997917 0 7.20156e-05)
(0.000946388 0 0.00017605)
(0.000913926 0 7.81125e-05)
(0.000843988 0 0.000227792)
(0.000817008 0 0.00016602)
(0.000692966 0 0.000333006)
(0.000563101 0 0.000429588)
(0.000472277 0 0.000504765)
(0.000166604 0 0.000406131)
(4.88495e-06 0 0.000317831)
(-2.63065e-13 0 6.68708e-13)
(-1.62247e-12 0 3.84841e-13)
(-7.29646e-13 0 2.83347e-13)
(-8.45298e-13 0 1.82525e-13)
(-9.04231e-13 0 8.86482e-14)
(-9.20059e-13 0 4.13047e-15)
(-9.01361e-13 0 -7.01751e-14)
(-8.54074e-13 0 -1.34182e-13)
(-7.82961e-13 0 -1.88057e-13)
(-6.92271e-13 0 -2.32035e-13)
(-5.86016e-13 0 -2.66372e-13)
(-4.68064e-13 0 -2.91364e-13)
(-3.42155e-13 0 -3.07372e-13)
(-2.11876e-13 0 -3.14846e-13)
(-8.06213e-14 0 -3.14347e-13)
(4.84654e-14 0 -3.06541e-13)
(1.72536e-13 0 -2.922e-13)
(2.89085e-13 0 -2.7218e-13)
(3.9598e-13 0 -2.47396e-13)
(4.91486e-13 0 -2.18791e-13)
(5.74269e-13 0 -1.87308e-13)
(6.43387e-13 0 -1.53859e-13)
(6.98272e-13 0 -1.19298e-13)
(7.38694e-13 0 -8.4404e-14)
(7.64729e-13 0 -4.98657e-14)
(7.76714e-13 0 -1.62729e-14)
(7.75201e-13 0 1.58843e-14)
(7.60917e-13 0 4.62137e-14)
(7.34723e-13 0 7.44137e-14)
(6.97574e-13 0 1.00264e-13)
(6.50492e-13 0 1.23615e-13)
(5.94536e-13 0 1.44375e-13)
(5.30786e-13 0 1.62496e-13)
(4.6032e-13 0 1.77968e-13)
(3.84211e-13 0 1.90798e-13)
(3.03518e-13 0 2.01012e-13)
(2.1928e-13 0 2.08636e-13)
(1.32521e-13 0 2.13699e-13)
(4.43196e-14 0 2.16225e-13)
(-4.5652e-05 0 -3.47898e-05)
(-1.34754e-05 0 -5.23067e-05)
(-3.07772e-05 0 -1.84537e-05)
(-3.19542e-05 0 2.14308e-05)
(-8.63514e-05 0 6.07529e-05)
(-8.65365e-05 0 0.000117565)
(-0.000133654 0 0.00013849)
(-0.00018701 0 0.000169166)
(-0.000263408 0 0.000208704)
(-0.000338729 0 0.000212042)
(-0.000373177 0 0.00021912)
(-0.000407735 0 0.00020301)
(-0.000443696 0 0.000168368)
(-0.000472658 0 0.000129015)
(-0.000489916 0 0.000102175)
(-0.000509549 0 3.71985e-05)
(-0.000525377 0 -6.83631e-06)
(-0.000534865 0 -2.17964e-05)
(-0.000537354 0 -5.1635e-05)
(-0.000539771 0 -6.71326e-05)
(-0.000523586 0 -3.32165e-05)
(-0.000477706 0 -8.37811e-05)
(-0.000422819 0 -0.000110337)
(-0.000351782 0 -0.000182233)
(-0.000257815 0 -0.000224995)
(-0.000252078 0 -8.10358e-05)
(-0.000187683 0 -6.50937e-05)
(-0.000173166 0 -4.91404e-05)
(-0.000176996 0 -4.82795e-05)
(-0.000182915 0 -4.37733e-05)
(-0.000187974 0 -3.93533e-05)
(-0.000213672 0 -3.05506e-05)
(-0.000236985 0 -3.23524e-05)
(-0.00025526 0 -1.72849e-05)
(-0.000263324 0 -9.78298e-07)
(-0.000264505 0 2.82137e-05)
(-0.000264749 0 4.72172e-05)
(-0.000266126 0 5.67341e-05)
(-0.000263928 0 6.8029e-05)
(-0.000272592 0 7.19706e-05)
(-0.000305426 0 4.13983e-05)
(-0.000321674 0 2.53568e-05)
(-0.000325786 0 1.14885e-05)
(-0.000314905 0 -1.74078e-05)
(-0.000311553 0 -2.97085e-05)
(-0.000305611 0 -6.61487e-05)
(-0.000285068 0 -0.000104214)
(-0.000282293 0 -8.66201e-05)
(-0.000210868 0 -0.000160349)
(-0.000205933 0 -0.000117654)
(-0.000128552 0 -0.000193094)
(-8.94868e-05 0 -0.000226624)
(-3.0953e-05 0 -0.000282543)
(9.16539e-05 0 -0.000265973)
(0.000128216 0 -0.000287186)
(0.000285686 0 -0.000193682)
(0.000222649 0 -0.000374095)
(0.000409848 0 -0.000269585)
(0.000477154 0 -0.000256198)
(0.000534247 0 -0.000242425)
(0.000600437 0 -0.000244395)
(0.000662145 0 -0.00031025)
(0.000774 0 -0.000279809)
(0.000829302 0 -0.000166707)
(0.000824666 0 -0.000162329)
(0.000838916 0 -0.000144026)
(0.000876118 0 -0.000108868)
(0.000922305 0 -1.12404e-05)
(0.000927229 0 3.39707e-05)
(0.000918068 0 2.44726e-05)
(0.000900558 0 0.000116393)
(0.000880922 0 0.000148478)
(0.000828641 0 0.000203776)
(0.000778359 0 0.000226895)
(0.000746252 0 0.000308255)
(0.000621444 0 0.000485128)
(0.000714476 0 0.000186345)
(0.000527609 0 0.000500032)
(0.000413906 0 0.000607047)
(0.000137335 0 0.000591838)
(4.32345e-06 0 0.00049984)
(-2.06911e-13 0 1.20302e-12)
(-1.74164e-12 0 6.3479e-13)
(-8.6808e-13 0 4.24607e-13)
(-9.70858e-13 0 2.56221e-13)
(-1.01492e-12 0 1.14481e-13)
(-1.01668e-12 0 -7.36046e-15)
(-9.84758e-13 0 -1.12342e-13)
(-9.24874e-13 0 -2.0201e-13)
(-8.41621e-13 0 -2.77202e-13)
(-7.39158e-13 0 -3.38431e-13)
(-6.21478e-13 0 -3.86083e-13)
(-4.92494e-13 0 -4.20553e-13)
(-3.56036e-13 0 -4.42316e-13)
(-2.15812e-13 0 -4.51986e-13)
(-7.53485e-14 0 -4.5034e-13)
(6.20779e-14 0 -4.38325e-13)
(1.93504e-13 0 -4.17045e-13)
(3.16335e-13 0 -3.87733e-13)
(4.28387e-13 0 -3.51711e-13)
(5.27906e-13 0 -3.10345e-13)
(6.13578e-13 0 -2.64993e-13)
(6.84518e-13 0 -2.16967e-13)
(7.40236e-13 0 -1.67493e-13)
(7.80608e-13 0 -1.1768e-13)
(8.05823e-13 0 -6.85026e-14)
(8.16341e-13 0 -2.07894e-14)
(8.12833e-13 0 2.47778e-14)
(7.96141e-13 0 6.76593e-14)
(7.67229e-13 0 1.07446e-13)
(7.27145e-13 0 1.43847e-13)
(6.76988e-13 0 1.76667e-13)
(6.17879e-13 0 2.05797e-13)
(5.50944e-13 0 2.31186e-13)
(4.77296e-13 0 2.52833e-13)
(3.98029e-13 0 2.70765e-13)
(3.14212e-13 0 2.85026e-13)
(2.26886e-13 0 2.95666e-13)
(1.37071e-13 0 3.0273e-13)
(4.5834e-14 0 3.06254e-13)
(-2.31322e-06 0 -4.44035e-05)
(3.13142e-06 0 -4.71164e-05)
(-6.86558e-05 0 -3.45033e-05)
(-4.46086e-05 0 8.66055e-05)
(-0.000130614 0 9.78516e-05)
(-0.00011427 0 0.000173288)
(-0.000220753 0 0.000157723)
(-0.000231387 0 0.000252925)
(-0.000341708 0 0.000247545)
(-0.000365902 0 0.000279148)
(-0.00041573 0 0.000239741)
(-0.000473279 0 0.00016962)
(-0.000494864 0 0.000158173)
(-0.000501875 0 0.000142592)
(-0.000503237 0 0.000109401)
(-0.000527671 0 5.12845e-05)
(-0.000548268 0 1.84715e-05)
(-0.00055323 0 -4.55316e-06)
(-0.000564144 0 -4.4129e-05)
(-0.00058765 0 -4.25339e-05)
(-0.000585729 0 -5.88451e-05)
(-0.000514846 0 -0.000152528)
(-0.00045125 0 -0.000204825)
(-0.000370467 0 -0.000288084)
(-0.000289287 0 -0.000285916)
(-0.000232597 0 -0.000149741)
(-0.000167059 0 -6.23803e-05)
(-0.000143542 0 -4.44335e-05)
(-0.000168845 0 -3.11839e-05)
(-0.000187969 0 -3.85058e-05)
(-0.000213541 0 -1.32172e-05)
(-0.000234144 0 -1.87601e-05)
(-0.000256635 0 -2.83828e-05)
(-0.000280615 0 -7.3481e-06)
(-0.00029898 0 3.12559e-07)
(-0.000315101 0 1.90987e-05)
(-0.000328681 0 3.79087e-05)
(-0.000335597 0 5.22036e-05)
(-0.000335933 0 6.11837e-05)
(-0.000334074 0 6.3085e-05)
(-0.000346275 0 3.49243e-05)
(-0.000356568 0 1.60106e-05)
(-0.000357959 0 1.41767e-05)
(-0.00034888 0 -2.3209e-05)
(-0.000341716 0 -4.50099e-05)
(-0.00032782 0 -7.43534e-05)
(-0.000302192 0 -0.000112576)
(-0.000290108 0 -0.000120426)
(-0.00024316 0 -0.000202654)
(-0.000256572 0 -0.000184799)
(-0.000162264 0 -0.000260479)
(-0.000135565 0 -0.000281433)
(-8.99039e-05 0 -0.000330421)
(-3.90539e-05 0 -0.000367885)
(7.44375e-06 0 -0.000391123)
(8.07308e-05 0 -0.000408163)
(0.000233512 0 -0.000360348)
(0.000308597 0 -0.000355078)
(0.000363104 0 -0.000354181)
(0.000421765 0 -0.000344488)
(0.000478694 0 -0.000360625)
(0.000580986 0 -0.000330864)
(0.000622382 0 -0.000350914)
(0.000674392 0 -0.000236674)
(0.000693156 0 -0.000198079)
(0.000712586 0 -0.000188286)
(0.000741933 0 -8.30043e-05)
(0.000740779 0 -4.04396e-05)
(0.000750861 0 4.1197e-06)
(0.000755452 0 3.40961e-05)
(0.000749557 0 9.09678e-05)
(0.000735359 0 0.000161583)
(0.00073408 0 0.000125244)
(0.000667939 0 0.000271299)
(0.000655995 0 0.000323065)
(0.000602284 0 0.000403751)
(0.000603433 0 0.000396989)
(0.00041726 0 0.000602742)
(0.000259618 0 0.000731064)
(-1.69472e-05 0 0.000725605)
(4.16557e-06 0 0.000701777)
(-3.43086e-13 0 1.53075e-12)
(-2.10813e-12 0 8.01867e-13)
(-1.10759e-12 0 5.24105e-13)
(-1.15514e-12 0 3.03534e-13)
(-1.16781e-12 0 1.2039e-13)
(-1.14688e-12 0 -3.57432e-14)
(-1.09601e-12 0 -1.69862e-13)
(-1.01893e-12 0 -2.84353e-13)
(-9.19382e-13 0 -3.80353e-13)
(-8.01153e-13 0 -4.58443e-13)
(-6.68139e-13 0 -5.19016e-13)
(-5.24297e-13 0 -5.62482e-13)
(-3.73588e-13 0 -5.89381e-13)
(-2.199e-13 0 -6.00462e-13)
(-6.69598e-14 0 -5.96714e-13)
(8.17607e-14 0 -5.79377e-13)
(2.23128e-13 0 -5.49916e-13)
(3.54418e-13 0 -5.09982e-13)
(4.73368e-13 0 -4.6135e-13)
(5.78205e-13 0 -4.05854e-13)
(6.67647e-13 0 -3.45315e-13)
(7.40887e-13 0 -2.81484e-13)
(7.97559e-13 0 -2.15985e-13)
(8.37684e-13 0 -1.50278e-13)
(8.6162e-13 0 -8.56344e-14)
(8.69994e-13 0 -2.31222e-14)
(8.6365e-13 0 3.63905e-14)
(8.43586e-13 0 9.22279e-14)
(8.1091e-13 0 1.43889e-13)
(7.66795e-13 0 1.91028e-13)
(7.12442e-13 0 2.33426e-13)
(6.49055e-13 0 2.70971e-13)
(5.77822e-13 0 3.03628e-13)
(4.99899e-13 0 3.31421e-13)
(4.16405e-13 0 3.54409e-13)
(3.28419e-13 0 3.72668e-13)
(2.36984e-13 0 3.86277e-13)
(1.43109e-13 0 3.95306e-13)
(4.78431e-14 0 3.99808e-13)
(-5.35824e-05 0 -6.88405e-05)
(9.30876e-05 0 -2.58711e-05)
(-8.89818e-05 0 6.87032e-05)
(-6.93782e-05 0 0.000133921)
(-0.000195264 0 0.00012106)
(-0.000176876 0 0.000218361)
(-0.000281542 0 0.000220312)
(-0.000314843 0 0.000292647)
(-0.000393573 0 0.000295151)
(-0.000418369 0 0.000299338)
(-0.000449725 0 0.000270513)
(-0.000476568 0 0.000244251)
(-0.000489212 0 0.000223446)
(-0.00050533 0 0.000120354)
(-0.000492054 0 0.000103936)
(-0.00049646 0 8.53231e-05)
(-0.000516828 0 3.96994e-05)
(-0.000529831 0 -1.01663e-05)
(-0.000549823 0 -6.16267e-05)
(-0.000573809 0 -4.02138e-05)
(-0.000564701 0 -9.37533e-05)
(-0.000494975 0 -0.000226407)
(-0.000446285 0 -0.000284818)
(-0.000403 0 -0.000345321)
(-0.000334102 0 -0.000389417)
(-0.000257525 0 -0.000333587)
(-0.000190517 0 -0.000180974)
(-0.000168177 0 -6.27146e-06)
(-0.00015367 0 -1.05146e-05)
(-0.000202234 0 1.70248e-06)
(-0.000225971 0 7.53275e-06)
(-0.000241476 0 8.7025e-06)
(-0.000259722 0 1.11548e-05)
(-0.000280918 0 2.44101e-05)
(-0.000300068 0 3.30254e-05)
(-0.000315107 0 5.28164e-05)
(-0.000332512 0 6.19407e-05)
(-0.00034427 0 7.30757e-05)
(-0.000349385 0 7.46832e-05)
(-0.000355244 0 6.73517e-05)
(-0.000370115 0 5.83599e-05)
(-0.000375026 0 4.21669e-05)
(-0.000366745 0 -6.89912e-06)
(-0.000359929 0 -1.84588e-05)
(-0.000354436 0 -4.94623e-05)
(-0.000337233 0 -9.65013e-05)
(-0.000318795 0 -0.000129123)
(-0.000326015 0 -0.000129535)
(-0.000268859 0 -0.000227952)
(-0.000292297 0 -0.000197706)
(-0.000187502 0 -0.000304037)
(-0.000172452 0 -0.00033159)
(-0.000122137 0 -0.000378088)
(-3.87505e-05 0 -0.000414365)
(1.34718e-05 0 -0.00042786)
(-2.373e-06 0 -0.000474583)
(0.000175081 0 -0.000458661)
(0.000179318 0 -0.000475513)
(0.000270336 0 -0.000427503)
(0.000359224 0 -0.000383463)
(0.000422988 0 -0.000369036)
(0.000442422 0 -0.000420216)
(0.00051637 0 -0.000342378)
(0.00054607 0 -0.000284252)
(0.000585244 0 -0.000204771)
(0.000596055 0 -0.000157811)
(0.000599099 0 -8.59158e-05)
(0.000602182 0 -6.40492e-05)
(0.000607462 0 1.44374e-05)
(0.000604236 0 5.86353e-05)
(0.000590573 0 0.00013481)
(0.000589448 0 0.000189547)
(0.000593659 0 0.000252019)
(0.000536086 0 0.000346042)
(0.000411149 0 0.00051565)
(0.000467676 0 0.000514566)
(0.000388976 0 0.000594883)
(0.000403019 0 0.000631649)
(0.000377663 0 0.000735172)
(-8.54563e-05 0 0.000838162)
(4.56855e-06 0 0.000893703)
(-5.16047e-13 0 1.66544e-12)
(-2.37021e-12 0 8.72612e-13)
(-1.36579e-12 0 5.66482e-13)
(-1.3743e-12 0 3.13671e-13)
(-1.3542e-12 0 9.92618e-14)
(-1.30693e-12 0 -8.61752e-14)
(-1.23337e-12 0 -2.4705e-13)
(-1.13537e-12 0 -3.85237e-13)
(-1.01571e-12 0 -5.01466e-13)
(-8.77821e-13 0 -5.96023e-13)
(-7.25517e-13 0 -6.69107e-13)
(-5.62859e-13 0 -7.21023e-13)
(-3.94016e-13 0 -7.52305e-13)
(-2.23145e-13 0 -7.63799e-13)
(-5.42631e-14 0 -7.56702e-13)
(1.08877e-13 0 -7.32567e-13)
(2.62899e-13 0 -6.93265e-13)
(4.04901e-13 0 -6.40923e-13)
(5.32515e-13 0 -5.77839e-13)
(6.43941e-13 0 -5.06381e-13)
(7.37948e-13 0 -4.28899e-13)
(8.13848e-13 0 -3.47631e-13)
(8.71441e-13 0 -2.64643e-13)
(9.10958e-13 0 -1.8177e-13)
(9.3298e-13 0 -1.0059e-13)
(9.38365e-13 0 -2.24139e-14)
(9.28183e-13 0 5.17162e-14)
(9.0364e-13 0 1.21005e-13)
(8.66029e-13 0 1.84883e-13)
(8.16682e-13 0 2.42972e-13)
(7.56931e-13 0 2.95057e-13)
(6.88081e-13 0 3.41046e-13)
(6.11395e-13 0 3.80945e-13)
(5.28077e-13 0 4.14823e-13)
(4.39276e-13 0 4.42788e-13)
(3.46079e-13 0 4.64964e-13)
(2.49524e-13 0 4.81471e-13)
(1.50602e-13 0 4.92413e-13)
(5.03357e-14 0 4.97865e-13)
(-7.87779e-05 0 -4.52227e-05)
(-4.67396e-05 0 5.97598e-05)
(-0.000146965 0 8.30823e-05)
(-0.000128022 0 0.000180428)
(-0.000238882 0 0.000177904)
(-0.000263625 0 0.000249898)
(-0.000303787 0 0.000319484)
(-0.000391829 0 0.000316692)
(-0.000410836 0 0.000362345)
(-0.000441928 0 0.000345703)
(-0.000458675 0 0.000308923)
(-0.0004717 0 0.000242621)
(-0.000467307 0 0.00020851)
(-0.000457617 0 0.000142056)
(-0.000430636 0 9.92131e-05)
(-0.000417372 0 7.9937e-05)
(-0.000419007 0 6.91413e-05)
(-0.000445812 0 4.59508e-05)
(-0.000491383 0 -1.33626e-06)
(-0.000511168 0 -4.73547e-05)
(-0.000505763 0 -0.000125724)
(-0.000455851 0 -0.000278953)
(-0.000432687 0 -0.000329842)
(-0.000409621 0 -0.000372054)
(-0.000411422 0 -0.000377101)
(-0.000350235 0 -0.000379787)
(-0.000323526 0 -0.000226802)
(-0.000236817 0 -8.55117e-05)
(-0.000186427 0 -1.32566e-05)
(-0.000206004 0 3.2661e-05)
(-0.000226117 0 1.40121e-05)
(-0.000230382 0 2.71322e-05)
(-0.000246787 0 1.71946e-05)
(-0.000267844 0 4.0755e-05)
(-0.000286507 0 4.82021e-05)
(-0.000301579 0 5.59451e-05)
(-0.000318883 0 6.86951e-05)
(-0.000335146 0 8.11761e-05)
(-0.000346155 0 8.39044e-05)
(-0.000356637 0 7.73707e-05)
(-0.000363976 0 7.21699e-05)
(-0.000364184 0 2.46819e-05)
(-0.000352799 0 -5.24294e-06)
(-0.000348262 0 -2.26896e-05)
(-0.000338536 0 -0.000108457)
(-0.000354693 0 -8.74581e-05)
(-0.000310968 0 -0.000183741)
(-0.000379414 0 -9.64192e-05)
(-0.000193921 0 -0.000342426)
(-0.000334861 0 -0.000213432)
(-0.000183908 0 -0.000356345)
(-0.000177443 0 -0.000382248)
(-9.05053e-05 0 -0.000437917)
(-6.83379e-05 0 -0.000468683)
(-4.79728e-05 0 -0.000493908)
(5.65207e-05 0 -0.000500381)
(2.60671e-05 0 -0.000543446)
(0.000132429 0 -0.000524071)
(0.000149635 0 -0.000523074)
(0.000264775 0 -0.000474393)
(0.000322261 0 -0.000449897)
(0.000367765 0 -0.000424238)
(0.000374135 0 -0.000418301)
(0.000428319 0 -0.000342155)
(0.000471823 0 -0.000226727)
(0.000491743 0 -0.000171997)
(0.000495263 0 -0.000132069)
(0.000504337 0 -3.25696e-05)
(0.00049619 0 1.52744e-05)
(0.000484673 0 6.80496e-05)
(0.000481049 0 0.000132549)
(0.000556983 0 2.69072e-05)
(0.00047253 0 0.000316874)
(0.000472491 0 0.000347713)
(0.000560441 0 0.000240259)
(0.000409938 0 0.000493393)
(0.000338287 0 0.000610282)
(0.000257506 0 0.00071573)
(0.000185097 0 0.000851546)
(-0.000248806 0 0.000939704)
(4.30248e-06 0 0.00107551)
(-6.53912e-13 0 1.83233e-12)
(-2.75405e-12 0 8.83144e-13)
(-1.66592e-12 0 5.55671e-13)
(-1.6221e-12 0 2.85665e-13)
(-1.56766e-12 0 4.91613e-14)
(-1.49319e-12 0 -1.61183e-13)
(-1.39507e-12 0 -3.46952e-13)
(-1.27335e-12 0 -5.08117e-13)
(-1.13017e-12 0 -6.44294e-13)
(-9.68794e-13 0 -7.55125e-13)
(-7.93139e-13 0 -8.40416e-13)
(-6.07495e-13 0 -9.00246e-13)
(-4.16364e-13 0 -9.35061e-13)
(-2.24297e-13 0 -9.45765e-13)
(-3.57275e-14 0 -9.3376e-13)
(1.45198e-13 0 -9.00946e-13)
(3.14771e-13 0 -8.49666e-13)
(4.69844e-13 0 -7.82611e-13)
(6.0791e-13 0 -7.02695e-13)
(7.27145e-13 0 -6.12919e-13)
(8.26397e-13 0 -5.16242e-13)
(9.05143e-13 0 -4.15467e-13)
(9.6342e-13 0 -3.13146e-13)
(1.00174e-12 0 -2.11523e-13)
(1.02098e-12 0 -1.12497e-13)
(1.0223e-12 0 -1.76135e-14)
(1.00707e-12 0 7.19255e-14)
(9.76753e-13 0 1.55232e-13)
(9.32877e-13 0 2.31697e-13)
(8.76969e-13 0 3.00948e-13)
(8.10516e-13 0 3.62803e-13)
(7.34944e-13 0 4.17228e-13)
(6.51599e-13 0 4.64296e-13)
(5.61742e-13 0 5.04148e-13)
(4.66545e-13 0 5.36965e-13)
(3.67101e-13 0 5.62935e-13)
(2.64433e-13 0 5.82236e-13)
(1.59504e-13 0 5.95015e-13)
(5.32954e-14 0 6.01378e-13)
(-0.000108885 0 -1.1967e-05)
(-9.5723e-05 0 9.24051e-05)
(-0.000127946 0 0.000179284)
(-0.000249985 0 0.000160774)
(-0.000255725 0 0.000270601)
(-0.000293306 0 0.000332888)
(-0.00039195 0 0.000324018)
(-0.000379182 0 0.000398182)
(-0.000413077 0 0.000389025)
(-0.000422116 0 0.000381979)
(-0.000455862 0 0.000306877)
(-0.000447615 0 0.000237963)
(-0.000425569 0 0.000182608)
(-0.000414839 0 0.000123777)
(-0.000409543 0 5.59073e-05)
(-0.000388797 0 4.9294e-05)
(-0.000369056 0 9.62692e-05)
(-0.000373811 0 6.50992e-05)
(-0.000403561 0 3.85422e-05)
(-0.000426725 0 -2.6949e-06)
(-0.000427976 0 -0.000145467)
(-0.000406648 0 -0.000283836)
(-0.000404858 0 -0.000344903)
(-0.000412229 0 -0.000375648)
(-0.000411941 0 -0.000393046)
(-0.000405323 0 -0.000375225)
(-0.000402942 0 -0.000249118)
(-0.000326225 0 -0.000133263)
(-0.000238574 0 -6.0814e-05)
(-0.000204196 0 2.01823e-05)
(-0.000197887 0 3.3708e-05)
(-0.000205577 0 3.38165e-05)
(-0.000218002 0 3.74215e-05)
(-0.000238974 0 5.88723e-05)
(-0.000257503 0 6.82609e-05)
(-0.000272147 0 7.95514e-05)
(-0.000293635 0 8.88534e-05)
(-0.000312652 0 0.00010105)
(-0.000326917 0 9.40231e-05)
(-0.0003381 0 7.78296e-05)
(-0.000343277 0 7.21978e-05)
(-0.000347751 0 8.19607e-06)
(-0.000342247 0 -1.19222e-06)
(-0.000341009 0 -2.71344e-05)
(-0.00035481 0 -7.82285e-05)
(-0.000388045 0 -1.67132e-05)
(-0.000301882 0 -0.000243721)
(-0.000399791 0 -8.88031e-05)
(-0.000195273 0 -0.000361078)
(-0.000351403 0 -0.000229806)
(-0.000161665 0 -0.00040243)
(-0.000198901 0 -0.000411432)
(-0.000139284 0 -0.000470867)
(-0.000121517 0 -0.000505571)
(-7.63115e-05 0 -0.000535583)
(-5.51705e-05 0 -0.000557522)
(1.90444e-05 0 -0.000574632)
(8.32922e-05 0 -0.000568388)
(0.000131061 0 -0.000540983)
(0.00015198 0 -0.000536933)
(0.000240552 0 -0.000503716)
(0.000294509 0 -0.000460016)
(0.00030566 0 -0.000432686)
(0.000371636 0 -0.000321749)
(0.000336819 0 -0.000324793)
(0.000416373 0 -0.000163056)
(0.000427849 0 -0.000102636)
(0.000410403 0 -4.56512e-05)
(0.000408497 0 1.11174e-05)
(0.000413335 0 4.27485e-05)
(0.000449649 0 6.68794e-05)
(0.000385861 0 0.000256428)
(0.000361235 0 0.000328794)
(0.000276516 0 0.000456601)
(0.00032009 0 0.000483679)
(0.000288064 0 0.000580376)
(0.000313808 0 0.000639241)
(0.00016759 0 0.000768118)
(0.000311831 0 0.000857891)
(-0.000388169 0 0.000973862)
(4.31758e-06 0 0.00122803)
(-8.31829e-13 0 1.62041e-12)
(-3.12771e-12 0 7.61761e-13)
(-1.96267e-12 0 4.87593e-13)
(-1.88059e-12 0 2.24432e-13)
(-1.80105e-12 0 -2.70603e-14)
(-1.70305e-12 0 -2.60743e-13)
(-1.5803e-12 0 -4.71454e-13)
(-1.43271e-12 0 -6.55996e-13)
(-1.26272e-12 0 -8.12495e-13)
(-1.07394e-12 0 -9.39802e-13)
(-8.70638e-13 0 -1.03723e-12)
(-6.57504e-13 0 -1.10453e-12)
(-4.39535e-13 0 -1.14197e-12)
(-2.21844e-13 0 -1.15048e-12)
(-9.44414e-15 0 -1.13166e-12)
(1.9297e-13 0 -1.08782e-12)
(3.81234e-13 0 -1.02186e-12)
(5.51872e-13 0 -9.37173e-13)
(7.02207e-13 0 -8.37415e-13)
(8.30394e-13 0 -7.26352e-13)
(9.354e-13 0 -6.0767e-13)
(1.01694e-12 0 -4.84823e-13)
(1.07539e-12 0 -3.60918e-13)
(1.11161e-12 0 -2.3864e-13)
(1.12689e-12 0 -1.20218e-13)
(1.12279e-12 0 -7.42175e-15)
(1.10103e-12 0 9.84126e-14)
(1.06341e-12 0 1.96342e-13)
(1.01175e-12 0 2.85764e-13)
(9.47788e-13 0 3.66352e-13)
(8.73211e-13 0 4.38006e-13)
(7.89574e-13 0 5.00789e-13)
(6.98314e-13 0 5.54878e-13)
(6.00746e-13 0 6.00522e-13)
(4.98062e-13 0 6.37997e-13)
(3.9135e-13 0 6.67582e-13)
(2.81604e-13 0 6.89528e-13)
(1.69745e-13 0 7.04038e-13)
(5.66991e-14 0 7.11258e-13)
(-5.64911e-05 0 7.72036e-05)
(-0.000119745 0 0.000153782)
(-0.00015377 0 0.000232261)
(-0.00019695 0 0.000292963)
(-0.000270402 0 0.000324054)
(-0.000370763 0 0.000320557)
(-0.00034254 0 0.000410208)
(-0.000387901 0 0.000401594)
(-0.000401155 0 0.000400179)
(-0.000406176 0 0.000388644)
(-0.000418357 0 0.000315635)
(-0.000429457 0 0.000208947)
(-0.000414929 0 0.000156764)
(-0.00041123 0 0.000121029)
(-0.000408969 0 0.000114342)
(-0.000414646 0 8.75198e-05)
(-0.00042126 0 1.77887e-05)
(-0.000414945 0 4.04628e-05)
(-0.000395406 0 0.000106845)
(-0.000387065 0 -6.5919e-06)
(-0.000398326 0 -7.60083e-05)
(-0.000411489 0 -0.000242075)
(-0.000398557 0 -0.000332734)
(-0.000397807 0 -0.000371753)
(-0.000401055 0 -0.000387866)
(-0.000390478 0 -0.000384535)
(-0.000402111 0 -0.000277806)
(-0.000351082 0 -0.000178477)
(-0.000241932 0 -0.000132471)
(-0.000188407 0 -4.15992e-05)
(-0.000155216 0 2.96929e-05)
(-0.00016789 0 3.02159e-05)
(-0.000175084 0 5.6329e-05)
(-0.00019644 0 7.3093e-05)
(-0.000214514 0 9.09068e-05)
(-0.000233383 0 9.81992e-05)
(-0.000261577 0 9.76802e-05)
(-0.000280686 0 0.000115674)
(-0.000290217 0 0.000111811)
(-0.000303912 0 9.48958e-05)
(-0.000324549 0 8.08642e-05)
(-0.000329018 0 7.9418e-05)
(-0.000343379 0 -6.93603e-05)
(-0.000366481 0 -2.3879e-06)
(-0.000350665 0 -9.94997e-05)
(-0.000384784 0 -2.26552e-05)
(-0.000283005 0 -0.0002693)
(-0.00038278 0 -0.000136257)
(-0.000239967 0 -0.000335873)
(-0.000230615 0 -0.000354756)
(-0.000218364 0 -0.000401057)
(-0.000153607 0 -0.000459999)
(-0.000138491 0 -0.000496975)
(-0.000123039 0 -0.00052736)