0 	-13.5629
0.010101 	-5.85255
0.020202 	-7.51725
0.030303 	-8.35838
0.040404 	-8.35838
