0 	1.45182e-20 	0 	-6.53321e-20
0.010101 	1.37165e-20 	3.04657e-22 	-2.96996e-20
0.020202 	2.14414e-20 	1.01723e-22 	-1.4905e-19
0.030303 	-9.47207e-21 	-3.34534e-23 	-7.92977e-20
0.040404 	8.88296e-20 	2.03105e-22 	-1.41783e-20
0.0505051 	-5.91941e-20 	3.34534e-23 	-5.89832e-20
