/*--------------------------------*- C++ -*----------------------------------*\
  =========                 |
  \\      /  F ield         | OpenFOAM: The Open Source CFD Toolbox
   \\    /   O peration     | Website:  https://openfoam.org
    \\  /    A nd           | Version:  6
     \\/     M anipulation  |
\*---------------------------------------------------------------------------*/
FoamFile
{
    version     2.0;
    format      ascii;
    class       volScalarField;
    location    "690";
    object      p;
}
// * * * * * * * * * * * * * * * * * * * * * * * * * * * * * * * * * * * * * //

dimensions      [1 -1 -2 0 0 0 0];

internalField   nonuniform List<scalar> 
5964
(
103796
103796
103796
103796
103796
103796
103796
103796
103796
103796
103796
103796
103796
103796
103796
103796
103796
103796
103796
103796
103795
103795
103790
103786
103782
103779
103776
103773
103771
103769
103767
103765
103763
103761
103759
103757
103756
103754
103753
103752
103750
103749
103748
103746
103745
103744
103743
103742
103741
103740
103739
103738
103737
103736
103736
103735
103734
103733
103733
103732
103732
103731
103730
103730
103729
103729
103728
103728
103728
103727
103727
103727
103726
103726
103726
103726
103725
103725
103725
103725
103725
103725
103725
103725
103735
103735
103735
103735
103735
103735
103735
103735
103735
103735
103735
103735
103735
103735
103735
103735
103735
103735
103735
103735
103735
103735
103730
103727
103723
103720
103717
103715
103712
103710
103708
103706
103704
103702
103700
103699
103697
103696
103694
103693
103691
103690
103689
103688
103687
103685
103684
103683
103682
103681
103680
103680
103679
103678
103677
103676
103675
103675
103674
103673
103673
103672
103672
103671
103671
103670
103670
103669
103669
103669
103668
103668
103668
103667
103667
103667
103667
103667
103666
103666
103666
103666
103666
103666
103675
103675
103675
103675
103675
103675
103675
103675
103675
103675
103675
103675
103675
103675
103675
103675
103675
103675
103675
103675
103675
103674
103671
103667
103664
103661
103658
103656
103653
103651
103649
103647
103645
103643
103642
103640
103638
103637
103636
103634
103633
103631
103630
103629
103628
103627
103626
103625
103624
103623
103622
103621
103620
103619
103618
103618
103617
103616
103615
103615
103614
103614
103613
103613
103612
103612
103611
103611
103610
103610
103610
103609
103609
103609
103608
103608
103608
103608
103608
103608
103608
103607
103607
103607
103614
103614
103614
103614
103614
103614
103614
103614
103614
103614
103614
103614
103615
103615
103615
103615
103615
103615
103615
103615
103614
103614
103611
103608
103604
103602
103599
103597
103594
103592
103590
103588
103586
103585
103583
103581
103580
103578
103577
103575
103574
103573
103571
103570
103569
103568
103567
103566
103565
103564
103563
103562
103561
103560
103560
103559
103558
103557
103557
103556
103555
103555
103554
103554
103553
103553
103552
103552
103552
103551
103551
103551
103550
103550
103550
103550
103549
103549
103549
103549
103549
103549
103549
103549
103554
103554
103554
103554
103554
103554
103554
103554
103554
103554
103554
103554
103554
103554
103554
103554
103554
103554
103554
103554
103554
103554
103551
103548
103545
103542
103540
103537
103535
103533
103531
103529
103527
103526
103524
103522
103521
103519
103518
103517
103515
103514
103513
103512
103510
103509
103508
103507
103506
103505
103504
103503
103502
103502
103501
103500
103499
103499
103498
103497
103497
103496
103496
103495
103495
103494
103494
103493
103493
103492
103492
103492
103492
103491
103491
103491
103491
103490
103490
103490
103490
103490
103490
103490
103494
103494
103493
103493
103493
103493
103493
103493
103494
103494
103494
103494
103494
103494
103494
103494
103494
103494
103494
103494
103494
103494
103490
103488
103485
103483
103480
103478
103476
103474
103472
103470
103468
103467
103465
103463
103462
103460
103459
103458
103456
103455
103454
103453
103452
103450
103449
103448
103447
103446
103445
103445
103444
103443
103442
103441
103441
103440
103439
103439
103438
103437
103437
103436
103436
103435
103435
103435
103434
103434
103433
103433
103433
103433
103432
103432
103432
103432
103432
103431
103431
103431
103431
103431
103433
103433
103433
103433
103433
103433
103433
103433
103433
103433
103433
103433
103433
103433
103433
103433
103433
103433
103433
103433
103434
103432
103430
103427
103425
103423
103421
103419
103417
103415
103413
103411
103409
103408
103406
103404
103403
103402
103400
103399
103397
103396
103395
103394
103393
103392
103391
103390
103389
103388
103387
103386
103385
103384
103383
103383
103382
103381
103380
103380
103379
103379
103378
103378
103377
103377
103376
103376
103375
103375
103375
103374
103374
103374
103374
103373
103373
103373
103373
103373
103373
103373
103373
103373
103373
103373
103373
103373
103373
103373
103373
103373
103373
103373
103373
103373
103373
103373
103373
103373
103373
103373
103373
103373
103373
103371
103369
103367
103365
103363
103361
103359
103357
103355
103354
103352
103350
103349
103347
103345
103344
103343
103341
103340
103339
103337
103336
103335
103334
103333
103332
103331
103330
103329
103328
103327
103326
103325
103324
103324
103323
103322
103322
103321
103320
103320
103319
103319
103318
103318
103317
103317
103317
103316
103316
103316
103315
103315
103315
103315
103314
103314
103314
103314
103314
103314
103314
103314
103312
103312
103312
103312
103312
103312
103312
103312
103312
103312
103312
103312
103312
103312
103312
103312
103312
103312
103312
103312
103312
103311
103309
103307
103305
103303
103301
103300
103298
103296
103294
103293
103291
103289
103288
103286
103285
103284
103282
103281
103280
103278
103277
103276
103275
103274
103273
103272
103271
103270
103269
103268
103267
103266
103266
103265
103264
103263
103263
103262
103262
103261
103260
103260
103259
103259
103259
103258
103258
103257
103257
103257
103256
103256
103256
103256
103256
103255
103255
103255
103255
103255
103255
103255
103252
103252
103252
103252
103252
103252
103252
103252
103252
103252
103252
103252
103252
103252
103252
103252
103252
103252
103252
103252
103251
103250
103248
103247
103245
103243
103242
103240
103238
103237
103235
103233
103232
103230
103229
103227
103226
103225
103223
103222
103221
103219
103218
103217
103216
103215
103214
103213
103212
103211
103210
103209
103208
103207
103207
103206
103205
103205
103204
103203
103203
103202
103202
103201
103201
103200
103200
103199
103199
103199
103198
103198
103198
103197
103197
103197
103197
103197
103196
103196
103196
103196
103196
103196
103191
103191
103191
103191
103191
103191
103191
103191
103191
103191
103191
103191
103191
103191
103191
103191
103191
103191
103191
103191
103191
103190
103188
103187
103185
103184
103182
103180
103179
103177
103176
103174
103172
103171
103170
103168
103167
103165
103164
103163
103162
103160
103159
103158
103157
103156
103155
103154
103153
103152
103151
103150
103149
103149
103148
103147
103146
103146
103145
103144
103144
103143
103143
103142
103142
103141
103141
103140
103140
103140
103139
103139
103139
103139
103138
103138
103138
103138
103138
103137
103137
103137
103137
103137
103131
103131
103131
103131
103131
103131
103131
103131
103131
103131
103131
103131
103131
103131
103131
103131
103131
103131
103131
103131
103130
103129
103128
103127
103125
103124
103122
103121
103119
103118
103116
103115
103113
103112
103110
103109
103108
103106
103105
103104
103103
103101
103100
103099
103098
103097
103096
103095
103094
103093
103092
103091
103090
103090
103089
103088
103087
103087
103086
103085
103085
103084
103084
103083
103083
103082
103082
103082
103081
103081
103080
103080
103080
103080
103079
103079
103079
103079
103079
103079
103079
103078
103078
103078
103071
103070
103070
103070
103070
103070
103070
103070
103070
103071
103071
103071
103071
103071
103071
103071
103071
103071
103071
103071
103071
103069
103068
103067
103065
103064
103062
103061
103060
103058
103057
103055
103054
103053
103051
103050
103048
103047
103046
103045
103043
103042
103041
103040
103039
103038
103037
103036
103035
103034
103033
103032
103031
103031
103030
103029
103028
103028
103027
103027
103026
103025
103025
103024
103024
103023
103023
103023
103022
103022
103022
103021
103021
103021
103021
103020
103020
103020
103020
103020
103020
103020
103020
103020
103010
103010
103010
103010
103010
103010
103010
103010
103010
103010
103010
103010
103010
103010
103010
103010
103010
103010
103010
103010
103010
103009
103008
103007
103005
103004
103003
103001
103000
102999
102997
102996
102995
102993
102992
102991
102989
102988
102987
102986
102984
102983
102982
102981
102980
102979
102978
102977
102976
102975
102974
102973
102972
102972
102971
102970
102969
102969
102968
102968
102967
102966
102966
102965
102965
102964
102964
102964
102963
102963
102963
102962
102962
102962
102962
102961
102961
102961
102961
102961
102961
102961
102961
102961
102950
102950
102950
102950
102950
102950
102950
102950
102950
102950
102950
102950
102950
102950
102950
102950
102950
102950
102950
102950
102950
102950
102948
102947
102946
102944
102943
102942
102940
102939
102938
102937
102935
102934
102933
102931
102930
102929
102928
102926
102925
102924
102923
102922
102921
102920
102919
102918
102917
102916
102915
102914
102913
102913
102912
102911
102910
102910
102909
102909
102908
102907
102907
102906
102906
102906
102905
102905
102904
102904
102904
102903
102903
102903
102903
102902
102902
102902
102902
102902
102902
102902
102902
102902
102889
102889
102889
102889
102889
102889
102889
102889
102889
102889
102889
102889
102889
102889
102889
102889
102889
102889
102889
102889
102889
102889
102888
102887
102886
102885
102883
102882
102881
102880
102878
102877
102876
102875
102873
102872
102871
102870
102868
102867
102866
102865
102864
102863
102862
102861
102860
102859
102858
102857
102856
102855
102854
102854
102853
102852
102851
102851
102850
102850
102849
102848
102848
102847
102847
102847
102846
102846
102845
102845
102845
102844
102844
102844
102844
102844
102843
102843
102843
102843
102843
102843
102843
102843
102829
102829
102829
102829
102829
102829
102829
102829
102829
102829
102829
102829
102829
102829
102829
102829
102829
102829
102829
102829
102829
102829
102828
102827
102826
102825
102824
102823
102821
102820
102819
102818
102817
102815
102814
102813
102812
102810
102809
102808
102807
102806
102805
102804
102803
102802
102801
102800
102799
102798
102797
102796
102795
102795
102794
102793
102792
102792
102791
102791
102790
102789
102789
102788
102788
102788
102787
102787
102786
102786
102786
102785
102785
102785
102785
102785
102784
102784
102784
102784
102784
102784
102784
102784
102769
102769
102769
102769
102769
102769
102768
102768
102768
102768
102768
102768
102768
102768
102768
102768
102768
102768
102768
102768
102768
102768
102768
102767
102766
102765
102764
102763
102762
102761
102760
102758
102757
102756
102755
102754
102752
102751
102750
102749
102748
102747
102746
102744
102743
102742
102741
102740
102740
102739
102738
102737
102736
102735
102735
102734
102733
102733
102732
102731
102731
102730
102730
102729
102729
102729
102728
102728
102727
102727
102727
102726
102726
102726
102726
102726
102725
102725
102725
102725
102725
102725
102725
102725
102708
102708
102708
102708
102708
102708
102708
102708
102708
102708
102708
102708
102708
102708
102708
102708
102708
102708
102708
102708
102708
102708
102708
102707
102706
102705
102704
102703
102702
102701
102700
102699
102698
102697
102696
102694
102693
102692
102691
102690
102689
102687
102686
102685
102684
102683
102682
102681
102680
102680
102679
102678
102677
102676
102676
102675
102674
102674
102673
102672
102672
102671
102671
102670
102670
102669
102669
102669
102668
102668
102668
102667
102667
102667
102667
102667
102666
102666
102666
102666
102666
102666
102666
102666
102648
102648
102648
102648
102648
102648
102648
102648
102648
102648
102648
102648
102648
102648
102648
102648
102648
102648
102648
102648
102648
102648
102648
102647
102646
102646
102645
102644
102643
102642
102641
102640
102639
102637
102636
102635
102634
102633
102632
102630
102629
102628
102627
102626
102625
102624
102623
102622
102621
102620
102619
102619
102618
102617
102616
102616
102615
102614
102614
102613
102613
102612
102612
102611
102611
102610
102610
102610
102609
102609
102609
102608
102608
102608
102608
102608
102607
102607
102607
102607
102607
102607
102607
102607
102588
102588
102588
102587
102587
102587
102587
102587
102587
102587
102587
102587
102587
102587
102587
102587
102587
102587
102587
102587
102587
102587
102587
102587
102587
102586
102585
102584
102583
102583
102581
102580
102579
102578
102577
102576
102575
102573
102572
102571
102570
102569
102568
102567
102566
102565
102564
102563
102562
102561
102560
102559
102559
102558
102557
102557
102556
102555
102555
102554
102554
102553
102553
102552
102552
102551
102551
102551
102550
102550
102550
102549
102549
102549
102549
102548
102548
102548
102548
102548
102548
102548
102548
102548
102527
102527
102527
102527
102527
102527
102527
102527
102527
102527
102527
102527
102527
102527
102527
102527
102527
102527
102527
102527
102527
102527
102527
102527
102526
102526
102525
102525
102524
102523
102522
102521
102520
102519
102518
102517
102515
102514
102513
102512
102511
102510
102509
102508
102506
102505
102505
102504
102503
102502
102501
102500
102499
102499
102498
102497
102497
102496
102496
102495
102494
102494
102493
102493
102493
102492
102492
102491
102491
102491
102491
102490
102490
102490
102490
102489
102489
102489
102489
102489
102489
102489
102489
102489
102467
102467
102467
102467
102467
102466
102466
102466
102466
102466
102466
102466
102466
102466
102466
102466
102466
102466
102466
102466
102466
102466
102466
102466
102466
102466
102466
102465
102465
102464
102463
102462
102461
102460
102459
102457
102456
102455
102454
102453
102451
102450
102449
102448
102447
102446
102445
102444
102443
102443
102442
102441
102440
102440
102439
102438
102438
102437
102436
102436
102435
102435
102434
102434
102433
102433
102433
102432
102432
102432
102431
102431
102431
102431
102431
102430
102430
102430
102430
102430
102430
102430
102430
102430
102406
102406
102406
102406
102406
102406
102406
102406
102406
102406
102406
102406
102406
102406
102406
102406
102406
102406
102406
102406
102406
102406
102406
102406
102406
102406
102406
102406
102406
102405
102404
102403
102402
102400
102399
102398
102397
102396
102394
102393
102392
102391
102390
102389
102388
102387
102386
102385
102384
102383
102382
102382
102381
102380
102380
102379
102378
102378
102377
102377
102376
102376
102375
102375
102374
102374
102374
102373
102373
102373
102372
102372
102372
102372
102371
102371
102371
102371
102371
102371
102371
102371
102371
102371
102346
102346
102346
102346
102346
102346
102345
102345
102345
102345
102345
102345
102345
102345
102345
102345
102345
102345
102345
102345
102345
102345
102345
102345
102345
102345
102345
102345
102345
102345
102344
102344
102343
102341
102340
102339
102338
102336
102335
102334
102333
102332
102331
102330
102329
102328
102327
102326
102325
102324
102323
102322
102322
102321
102320
102320
102319
102318
102318
102317
102317
102316
102316
102315
102315
102315
102314
102314
102314
102313
102313
102313
102313
102312
102312
102312
102312
102312
102312
102312
102312
102312
102312
102312
102285
102285
102285
102285
102285
102285
102285
102285
102285
102285
102285
102285
102285
102285
102285
102285
102285
102285
102285
102285
102285
102285
102285
102285
102285
102285
102285
102285
102285
102285
102285
102285
102283
102282
102281
102280
102278
102277
102276
102275
102273
102272
102271
102270
102269
102268
102267
102266
102265
102265
102264
102263
102262
102262
102261
102260
102260
102259
102259
102258
102258
102257
102257
102256
102256
102255
102255
102255
102255
102254
102254
102254
102254
102253
102253
102253
102253
102253
102253
102253
102252
102252
102252
102252
102225
102225
102225
102225
102225
102225
102225
102224
102224
102224
102224
102224
102224
102224
102224
102224
102224
102224
102224
102224
102224
102224
102224
102224
102224
102224
102224
102224
102224
102225
102225
102224
102224
102223
102222
102220
102219
102218
102216
102215
102214
102213
102212
102211
102210
102209
102208
102207
102206
102205
102204
102204
102203
102202
102202
102201
102200
102200
102199
102199
102198
102198
102197
102197
102197
102196
102196
102196
102195
102195
102195
102195
102194
102194
102194
102194
102194
102194
102194
102193
102193
102193
102193
102193
102164
102164
102164
102164
102164
102164
102164
102164
102164
102164
102164
102164
102164
102164
102164
102164
102164
102164
102164
102164
102164
102164
102164
102164
102164
102164
102164
102164
102164
102164
102164
102164
102164
102164
102162
102161
102160
102158
102157
102156
102155
102153
102152
102151
102150
102149
102148
102148
102147
102146
102145
102144
102144
102143
102142
102142
102141
102141
102140
102140
102139
102139
102138
102138
102137
102137
102137
102136
102136
102136
102136
102135
102135
102135
102135
102135
102135
102134
102134
102134
102134
102134
102134
102134
102104
102104
102104
102104
102104
102104
102103
102103
102103
102103
102103
102103
102103
102103
102103
102103
102103
102103
102103
102103
102103
102103
102103
102103
102103
102103
102103
102103
102104
102104
102104
102104
102104
102103
102103
102102
102100
102099
102097
102096
102095
102094
102093
102092
102091
102090
102089
102088
102087
102086
102086
102085
102084
102084
102083
102082
102082
102081
102081
102080
102080
102079
102079
102078
102078
102078
102077
102077
102077
102077
102076
102076
102076
102076
102076
102076
102075
102075
102075
102075
102075
102075
102075
102075
102043
102043
102043
102043
102043
102043
102043
102043
102043
102043
102043
102043
102043
102043
102043
102043
102043
102043
102043
102043
102043
102043
102043
102043
102043
102043
102043
102043
102043
102043
102043
102043
102043
102043
102043
102042
102041
102039
102038
102037
102035
102034
102033
102032
102031
102030
102029
102029
102028
102027
102026
102025
102025
102024
102024
102023
102022
102022
102021
102021
102020
102020
102020
102019
102019
102018
102018
102018
102018
102017
102017
102017
102017
102017
102016
102016
102016
102016
102016
102016
102016
102016
102016
102016
101983
101983
101983
101983
101983
101983
101982
101982
101982
101982
101982
101982
101982
101982
101982
101982
101982
101982
101982
101982
101982
101982
101982
101982
101982
101982
101982
101983
101983
101983
101983
101983
101983
101983
101983
101983
101981
101980
101978
101977
101976
101975
101974
101973
101972
101971
101970
101969
101968
101967
101967
101966
101965
101965
101964
101963
101963
101962
101962
101961
101961
101961
101960
101960
101960
101959
101959
101959
101958
101958
101958
101958
101958
101957
101957
101957
101957
101957
101957
101957
101957
101957
101957
101957
101922
101922
101922
101922
101922
101922
101922
101922
101922
101922
101922
101922
101922
101922
101922
101922
101922
101922
101922
101922
101922
101922
101922
101922
101922
101922
101922
101922
101922
101922
101922
101922
101922
101922
101922
101922
101921
101920
101919
101917
101916
101915
101914
101913
101912
101911
101910
101909
101909
101908
101907
101906
101906
101905
101905
101904
101904
101903
101903
101902
101902
101901
101901
101900
101900
101900
101900
101899
101899
101899
101899
101898
101898
101898
101898
101898
101898
101898
101898
101898
101898
101897
101897
101897
101862
101862
101862
101862
101862
101862
101861
101861
101861
101861
101861
101861
101861
101861
101861
101861
101861
101861
101861
101861
101861
101862
101862
101862
101862
101862
101862
101862
101862
101862
101862
101862
101862
101862
101862
101862
101862
101860
101859
101858
101857
101855
101854
101853
101852
101852
101851
101850
101849
101848
101848
101847
101846
101846
101845
101845
101844
101844
101843
101843
101842
101842
101841
101841
101841
101841
101840
101840
101840
101840
101839
101839
101839
101839
101839
101839
101839
101838
101838
101838
101838
101838
101838
101838
101801
101801
101801
101801
101801
101801
101801
101801
101801
101801
101801
101801
101801
101801
101801
101801
101801
101801
101801
101801
101801
101801
101801
101801
101801
101801
101801
101801
101801
101801
101801
101801
101801
101801
101801
101801
101801
101800
101799
101798
101797
101796
101795
101794
101793
101792
101791
101790
101789
101789
101788
101787
101787
101786
101786
101785
101785
101784
101784
101783
101783
101782
101782
101782
101781
101781
101781
101781
101780
101780
101780
101780
101780
101780
101780
101779
101779
101779
101779
101779
101779
101779
101779
101779
101741
101741
101741
101741
101741
101741
101741
101740
101740
101740
101740
101740
101741
101741
101741
101741
101741
101741
101741
101741
101741
101741
101741
101741
101741
101741
101741
101741
101741
101741
101741
101741
101741
101741
101741
101741
101741
101741
101739
101738
101737
101736
101735
101734
101733
101732
101731
101731
101730
101729
101728
101728
101727
101727
101726
101726
101725
101725
101724
101724
101723
101723
101723
101722
101722
101722
101722
101721
101721
101721
101721
101721
101720
101720
101720
101720
101720
101720
101720
101720
101720
101720
101720
101720
101680
101680
101680
101680
101680
101680
101680
101680
101680
101680
101680
101680
101680
101680
101680
101680
101680
101680
101680
101680
101680
101680
101680
101680
101680
101680
101680
101680
101680
101680
101680
101680
101680
101680
101681
101681
101681
101681
101679
101678
101677
101676
101675
101674
101673
101672
101672
101671
101670
101669
101669
101668
101668
101667
101666
101666
101666
101665
101665
101664
101664
101664
101663
101663
101663
101662
101662
101662
101662
101662
101661
101661
101661
101661
101661
101661
101661
101661
101661
101661
101661
101661
101661
101661
101620
101620
101620
101620
101620
101620
101620
101620
101620
101620
101620
101620
101620
101620
101620
101620
101620
101620
101620
101620
101620
101620
101620
101620
101620
101620
101620
101620
101620
101620
101620
101620
101620
101620
101620
101620
101620
101620
101619
101618
101617
101616
101615
101614
101614
101613
101612
101611
101610
101610
101609
101609
101608
101607
101607
101606
101606
101606
101605
101605
101604
101604
101604
101603
101603
101603
101603
101603
101602
101602
101602
101602
101602
101602
101602
101602
101602
101602
101601
101601
101601
101601
101601
101601
101559
101559
101559
101559
101559
101559
101559
101559
101559
101559
101559
101559
101559
101559
101559
101559
101559
101559
101559
101559
101559
101559
101559
101559
101559
101559
101559
101559
101559
101559
101559
101559
101560
101560
101560
101560
101560
101560
101560
101558
101557
101556
101555
101555
101554
101553
101552
101551
101551
101550
101549
101549
101548
101548
101547
101547
101546
101546
101546
101545
101545
101545
101544
101544
101544
101544
101543
101543
101543
101543
101543
101543
101543
101542
101542
101542
101542
101542
101542
101542
101542
101542
101542
101542
101499
101499
101499
101499
101499
101499
101499
101499
101499
101499
101499
101499
101499
101499
101499
101499
101499
101499
101499
101499
101499
101499
101499
101499
101499
101499
101499
101499
101499
101499
101499
101499
101499
101499
101499
101499
101499
101499
101499
101498
101497
101496
101495
101495
101494
101493
101492
101492
101491
101490
101490
101489
101489
101488
101488
101487
101487
101486
101486
101486
101485
101485
101485
101485
101484
101484
101484
101484
101484
101483
101483
101483
101483
101483
101483
101483
101483
101483
101483
101483
101483
101483
101483
101483
101439
101439
101439
101439
101438
101438
101438
101438
101438
101438
101438
101438
101438
101438
101438
101438
101438
101438
101438
101438
101438
101438
101438
101438
101438
101438
101438
101438
101438
101438
101439
101439
101439
101439
101439
101439
101439
101439
101439
101438
101437
101436
101436
101435
101434
101433
101433
101432
101431
101431
101430
101429
101429
101428
101428
101428
101427
101427
101426
101426
101426
101426
101425
101425
101425
101425
101424
101424
101424
101424
101424
101424
101424
101424
101424
101424
101424
101424
101424
101424
101424
101424
101424
101424
101378
101378
101378
101378
101378
101378
101378
101378
101378
101378
101378
101378
101378
101378
101378
101378
101378
101378
101378
101378
101378
101378
101378
101378
101378
101378
101378
101378
101378
101378
101378
101378
101378
101378
101378
101378
101378
101378
101378
101378
101377
101376
101376
101375
101374
101373
101373
101372
101371
101371
101370
101370
101369
101369
101368
101368
101368
101367
101367
101366
101366
101366
101366
101365
101365
101365
101365
101365
101365
101365
101365
101365
101364
101364
101364
101364
101364
101364
101364
101364
101364
101364
101364
101364
101318
101318
101318
101318
101318
101318
101318
101318
101318
101318
101318
101318
101318
101318
101318
101318
101318
101318
101318
101318
101318
101318
101318
101318
101318
101318
101318
101318
101318
101318
101318
101318
101318
101318
101318
101318
101318
101318
101318
101318
101317
101316
101316
101315
101314
101313
101313
101312
101312
101311
101310
101310
101309
101309
101309
101308
101308
101307
101307
101307
101307
101306
101306
101306
101306
101306
101305
101305
101305
101305
101305
101305
101305
101305
101305
101305
101305
101305
101305
101305
101305
101305
101305
101305
101257
101257
101257
101257
101257
101257
101257
101257
101257
101257
101257
101257
101257
101257
101257
101257
101257
101257
101257
101257
101257
101257
101257
101257
101257
101257
101257
101257
101257
101257
101257
101257
101257
101257
101257
101257
101257
101257
101257
101257
101257
101256
101256
101255
101254
101253
101253
101252
101252
101251
101251
101250
101250
101249
101249
101248
101248
101248
101248
101247
101247
101247
101247
101246
101246
101246
101246
101246
101246
101246
101246
101246
101246
101246
101246
101246
101246
101246
101246
101246
101246
101246
101246
101246
101197
101197
101197
101197
101197
101197
101197
101197
101197
101197
101197
101197
101197
101197
101197
101197
101197
101197
101197
101197
101197
101197
101197
101197
101197
101197
101197
101197
101197
101197
101197
101197
101197
101197
101197
101197
101197
101197
101197
101197
101197
101196
101196
101195
101194
101193
101193
101192
101192
101191
101191
101190
101190
101189
101189
101189
101188
101188
101188
101188
101187
101187
101187
101187
101187
101187
101186
101186
101186
101186
101186
101186
101186
101186
101186
101186
101186
101187
101187
101187
101187
101187
101187
101187
101136
101136
101136
101136
101136
101136
101136
101136
101136
101136
101136
101136
101136
101136
101136
101136
101136
101136
101136
101136
101136
101136
101136
101136
101136
101136
101136
101136
101136
101136
101136
101136
101136
101136
101137
101137
101137
101137
101137
101138
101138
101136
101135
101135
101134
101133
101133
101132
101132
101131
101131
101130
101130
101130
101129
101129
101129
101128
101128
101128
101128
101127
101127
101127
101127
101127
101127
101127
101127
101127
101127
101127
101127
101127
101127
101127
101127
101127
101127
101127
101127
101127
101128
101128
101076
101076
101076
101076
101076
101076
101076
101076
101076
101076
101076
101076
101076
101076
101076
101076
101076
101076
101076
101076
101076
101076
101076
101076
101076
101076
101076
101076
101076
101076
101076
101076
101076
101076
101076
101076
101076
101076
101077
101077
101077
101076
101075
101075
101074
101073
101073
101072
101072
101071
101071
101071
101070
101070
101070
101069
101069
101069
101068
101068
101068
101068
101068
101068
101067
101067
101067
101067
101067
101067
101067
101067
101067
101068
101068
101068
101068
101068
101068
101068
101068
101068
101068
101068
101016
101016
101016
101016
101016
101016
101016
101016
101016
101016
101016
101016
101016
101016
101016
101016
101016
101016
101016
101016
101016
101016
101015
101015
101015
101015
101015
101015
101015
101015
101015
101015
101016
101016
101016
101016
101016
101016
101016
101017
101016
101016
101015
101015
101014
101013
101013
101012
101012
101012
101011
101011
101010
101010
101010
101009
101009
101009
101009
101008
101008
101008
101008
101008
101008
101008
101008
101008
101008
101008
101008
101008
101008
101008
101008
101008
101009
101009
101009
101009
101009
101009
101009
101009
100955
100955
100955
100955
100955
100955
100955
100955
100955
100955
100955
100955
100955
100955
100955
100955
100955
100955
100955
100955
100955
100955
100955
100955
100955
100955
100955
100955
100955
100955
100955
100955
100955
100955
100955
100955
100956
100956
100956
100956
100956
100955
100955
100954
100954
100953
100953
100952
100952
100952
100951
100951
100950
100950
100950
100950
100949
100949
100949
100949
100949
100948
100948
100948
100948
100948
100948
100948
100948
100948
100948
100948
100949
100949
100949
100949
100949
100949
100950
100950
100950
100950
100950
100950
100895
100895
100895
100895
100895
100895
100895
100895
100895
100895
100895
100895
100895
100895
100895
100895
100895
100895
100895
100895
100895
100895
100895
100895
100895
100895
100895
100895
100895
100895
100895
100895
100895
100895
100895
100895
100895
100895
100896
100896
100896
100895
100895
100894
100894
100893
100893
100892
100892
100892
100891
100891
100891
100890
100890
100890
100890
100889
100889
100889
100889
100889
100889
100889
100889
100889
100889
100889
100889
100889
100889
100889
100889
100889
100890
100890
100890
100890
100890
100891
100891
100891
100891
100891
100835
100835
100834
100834
100834
100834
100834
100834
100834
100834
100834
100834
100834
100834
100834
100834
100834
100834
100834
100834
100834
100834
100834
100834
100834
100834
100834
100834
100834
100834
100834
100834
100834
100834
100835
100835
100835
100835
100835
100835
100835
100835
100834
100834
100833
100833
100833
100832
100832
100832
100831
100831
100831
100830
100830
100830
100830
100830
100829
100829
100829
100829
100829
100829
100829
100829
100829
100829
100829
100829
100829