/*--------------------------------*- C++ -*----------------------------------*\
  =========                 |
  \\      /  F ield         | OpenFOAM: The Open Source CFD Toolbox
   \\    /   O peration     | Website:  https://openfoam.org
    \\  /    A nd           | Version:  6
     \\/     M anipulation  |
\*---------------------------------------------------------------------------*/
FoamFile
{
    version     2.0;
    format      ascii;
    class       surfaceScalarField;
    location    "690";
    object      phi;
}
// * * * * * * * * * * * * * * * * * * * * * * * * * * * * * * * * * * * * * //

dimensions      [0 3 -1 0 0 0 0];

internalField   nonuniform List<scalar> 
11773
(
-4.7138e-08
4.7138e-08
-8.7638e-08
4.04965e-08
-1.04733e-07
1.70929e-08
-1.29057e-07
2.4321e-08
-1.36142e-07
7.0829e-09
-1.38922e-07
2.77746e-09
-1.361e-07
-2.82454e-09
-1.35033e-07
-1.06901e-09
-1.27638e-07
-7.39699e-09
-1.11322e-07
-1.63187e-08
-1.09147e-07
-2.17739e-09
-9.95506e-08
-9.59808e-09
-8.97994e-08
-9.75324e-09
-8.03992e-08
-9.40213e-09
-7.74474e-08
-2.95379e-09
-6.96837e-08
-7.76568e-09
-5.40325e-08
-1.56532e-08
-3.09949e-08
-2.30396e-08
3.87409e-12
-3.10007e-08
7.64689e-13
1.91304e-12
1.45949e-13
6.18739e-13
1.1297e-13
3.29513e-14
9.47021e-14
1.82669e-14
8.27452e-14
1.19547e-14
7.40398e-14
8.70323e-15
6.72827e-14
6.75502e-15
6.18276e-14
5.4533e-15
5.73065e-14
4.51935e-15
5.34867e-14
3.81818e-15
5.02092e-14
3.27586e-15
4.736e-14
2.84757e-15
4.48544e-14
2.50401e-15
4.26276e-14
2.22501e-15
4.06297e-14
1.99616e-15
3.88209e-14
1.8069e-15
3.71697e-14
1.64928e-15
3.56504e-14
1.51723e-15
3.42424e-14
1.40601e-15
3.29283e-14
1.31191e-15
3.16943e-14
1.23192e-15
3.05285e-14
1.16363e-15
2.94213e-14
1.10505e-15
2.83645e-14
1.05457e-15
2.73515e-14
1.01084e-15
2.63767e-14
9.72728e-16
2.54353e-14
9.39313e-16
2.45234e-14
9.09816e-16
2.36378e-14
8.83586e-16
2.27758e-14
8.60086e-16
2.1935e-14
8.38866e-16
2.11136e-14
8.19552e-16
2.031e-14
8.01837e-16
1.95228e-14
7.85466e-16
1.87509e-14
7.7023e-16
1.79933e-14
7.55959e-16
1.72492e-14
7.42513e-16
1.65179e-14
7.29781e-16
1.57987e-14
7.17673e-16
1.50912e-14
7.06117e-16
1.43947e-14
6.95057e-16
1.37089e-14
6.84451e-16
1.30333e-14
6.74267e-16
1.23675e-14
6.64479e-16
1.17112e-14
6.55072e-16
1.10639e-14
6.46034e-16
1.04254e-14
6.37359e-16
9.79514e-15
6.29045e-16
9.17288e-15
6.21091e-16
8.55823e-15
6.13499e-16
7.95082e-15
6.06274e-16
7.35028e-15
5.9942e-16
6.75623e-15
5.92941e-16
6.16829e-15
5.86844e-16
5.58607e-15
5.81131e-16
5.00919e-15
5.75805e-16
4.43725e-15
5.70867e-16
3.86987e-15
5.6631e-16
3.30669e-15
5.62117e-16
2.74739e-15
5.58249e-16
2.19171e-15
5.54636e-16
1.63947e-15
5.51199e-16
1.09048e-15
5.47949e-16
5.44299e-16
5.45149e-16
5.4327e-16
-4.27304e-08
8.98653e-08
-7.26305e-08
7.03912e-08
-9.74466e-08
4.19042e-08
-1.00062e-07
2.69318e-08
-1.06705e-07
1.3722e-08
-1.10591e-07
6.6592e-09
-1.03751e-07
-9.66833e-09
-1.02977e-07
-1.84674e-09
-9.53709e-08
-1.50073e-08
-7.52909e-08
-3.64023e-08
-7.2972e-08
-4.49984e-09
-6.77082e-08
-1.48655e-08
-6.65458e-08
-1.09192e-08
-6.29759e-08
-1.29757e-08
-5.3769e-08
-1.21641e-08
-4.97266e-08
-1.18116e-08
-3.9159e-08
-2.62243e-08
-2.60569e-08
-3.61451e-08
1.51307e-12
-5.70618e-08
3.99903e-13
2.13645e-12
1.09745e-13
9.08869e-13
1.00048e-13
4.26228e-14
8.91426e-14
2.91697e-14
7.98787e-14
2.12148e-14
7.2321e-14
1.62574e-14
6.61339e-14
1.29388e-14
6.10033e-14
1.05808e-14
5.66879e-14
8.83187e-15
5.30084e-14
7.49474e-15
4.98317e-14
6.44966e-15
4.70574e-14
5.61891e-15
4.46087e-14
4.94956e-15
4.24263e-14
4.40423e-15
4.04632e-14
3.95583e-15
3.86824e-14
3.58426e-15
3.70537e-14
3.27434e-15
3.55529e-14
3.01437e-15
3.41599e-14
2.7952e-15
3.28584e-14
2.6096e-15
3.16347e-14
2.45173e-15
3.04776e-14
2.31688e-15
2.93776e-14
2.20117e-15
2.8327e-14
2.1014e-15
2.73191e-14
2.01492e-15
2.63486e-14
1.93954e-15
2.54108e-14
1.87342e-15
2.4502e-14
1.81502e-15
2.3619e-14
1.76307e-15
2.27592e-14
1.7165e-15
2.19204e-14
1.67443e-15
2.11006e-14
1.63611e-15
2.02984e-14
1.60094e-15
1.95125e-14
1.56843e-15
1.87416e-14
1.53815e-15
1.7985e-14
1.50977e-15
1.72418e-14
1.48301e-15
1.65113e-14
1.45767e-15
1.57928e-14
1.43355e-15
1.50859e-14
1.41052e-15
1.43901e-14
1.38848e-15
1.37048e-14
1.36733e-15
1.30298e-14
1.34701e-15
1.23645e-14
1.32748e-15
1.17087e-14
1.3087e-15
1.10619e-14
1.29066e-15
1.04238e-14
1.27333e-15
9.79403e-15
1.25673e-15
9.17223e-15
1.24084e-15
8.55803e-15
1.22567e-15
7.95106e-15
1.21124e-15
7.35096e-15
1.19754e-15
6.75735e-15
1.18459e-15
6.16983e-15
1.17241e-15
5.58803e-15
1.161e-15
5.01155e-15
1.15037e-15
4.43999e-15
1.14052e-15
3.87297e-15
1.13144e-15
3.31009e-15
1.12311e-15
2.75099e-15
1.11548e-15
2.19533e-15
1.10843e-15
1.64281e-15
1.10186e-15
1.09312e-15
1.0958e-15
5.45621e-16
1.0908e-15
1.08808e-15
-2.3587e-08
1.1345e-07
-4.5877e-08
9.26771e-08
-8.15763e-08
7.75996e-08
-8.64928e-08
3.18442e-08
-1.0049e-07
2.7715e-08
-1.05662e-07
1.18286e-08
-9.40136e-08
-2.13206e-08
-8.76452e-08
-8.21848e-09
-7.74846e-08
-2.51712e-08
-6.09913e-08
-5.28987e-08
-4.87989e-08
-1.66953e-08
-3.47094e-08
-2.8958e-08
-3.13886e-08
-1.42429e-08
-2.78505e-08
-1.65167e-08
-2.52959e-08
-1.47217e-08
-1.92663e-08
-1.7844e-08
-1.63787e-08
-2.91148e-08
-1.2477e-08
-4.00497e-08
1.55939e-12
-6.95426e-08
3.30655e-13
2.55498e-12
9.1002e-14
1.14849e-12
8.82097e-14
4.53879e-14
8.21404e-14
3.52371e-14
7.55139e-14
2.7838e-14
6.93987e-14
2.23696e-14
6.40575e-14
1.82772e-14
5.94634e-14
1.51724e-14
5.55107e-14
1.2782e-14
5.20886e-14
1.09144e-14
4.91007e-14
9.43504e-15
4.64685e-14
8.2485e-15
4.41291e-14
7.28629e-15
4.2032e-14
6.49853e-15
4.01366e-14
5.8483e-15
3.841e-14
5.30782e-15
3.68254e-14
4.8559e-15
3.53605e-14
4.47605e-15
3.39971e-14
4.15531e-15
3.272e-14
3.88332e-15
3.15167e-14
3.65173e-15
3.03765e-14
3.4537e-15
2.92907e-14
3.28363e-15
2.82518e-14
3.13687e-15
2.72539e-14
3.00957e-15
2.62917e-14
2.89851e-15
2.53609e-14
2.801e-15
2.4458e-14
2.71481e-15
2.358e-14
2.63805e-15
2.27244e-14
2.56916e-15
2.18891e-14
2.50686e-15
2.10723e-14
2.45006e-15
2.02727e-14
2.39787e-15
1.94889e-14
2.34955e-15
1.872e-14
2.30451e-15
1.79651e-14
2.26226e-15
1.72233e-14
2.22238e-15
1.64941e-14
2.18457e-15
1.57768e-14
2.14857e-15
1.5071e-14
2.11417e-15
1.43762e-14
2.08121e-15
1.36919e-14
2.04957e-15
1.30177e-14
2.01916e-15
1.23533e-14
1.98992e-15
1.16983e-14
1.9618e-15
1.10523e-14
1.93476e-15
1.0415e-14
1.9088e-15
9.78596e-15
1.8839e-15
9.16493e-15
1.86008e-15
8.5515e-15
1.83734e-15
7.9453e-15
1.81569e-15
7.34597e-15
1.79515e-15
6.75312e-15
1.77573e-15
6.16637e-15
1.75747e-15
5.58533e-15
1.74036e-15
5.0096e-15
1.72443e-15
4.43878e-15
1.70969e-15
3.87245e-15
1.69612e-15
3.3102e-15
1.68372e-15
2.75163e-15
1.67242e-15
2.19634e-15
1.6621e-15
1.64398e-15
1.65261e-15
1.09418e-15
1.644e-15
5.46482e-16
1.6369e-15
1.63377e-15
-3.98202e-08
1.53267e-07
-5.62796e-08
1.09133e-07
-6.82669e-08
8.95837e-08
-8.76482e-08
5.12218e-08
-1.00514e-07
4.05767e-08
-9.87992e-08
1.01109e-08
-9.82167e-08
-2.19065e-08
-8.87324e-08
-1.7706e-08
-7.08069e-08
-4.30998e-08
-6.448e-08
-5.92286e-08
-4.0615e-08
-4.05631e-08
-2.07159e-08
-4.88599e-08
-1.01376e-08
-2.48241e-08
-1.08499e-09
-2.5572e-08
1.05723e-09
-1.68666e-08
-1.47719e-09
-1.53123e-08
-5.47627e-09
-2.51185e-08
-3.59342e-09
-4.19353e-08
1.74595e-12
-7.31399e-08
3.59933e-13
3.18898e-12
7.87376e-14
1.42966e-12
7.92754e-14
4.4818e-14
7.56284e-14
3.88821e-14
7.07015e-14
3.27619e-14
6.57975e-14
2.72707e-14
6.13258e-14
2.27464e-14
5.73605e-14
1.91352e-14
5.38681e-14
1.6272e-14
5.07876e-14
1.39925e-14
4.80574e-14
1.21628e-14
4.56226e-14
1.06808e-14
4.34367e-14
9.46961e-15
4.14605e-14
8.47191e-15
3.96617e-14
7.64427e-15
3.8013e-14
6.95356e-15
3.64917e-14
6.37411e-15
3.50788e-14
5.88578e-15
3.37583e-14
5.47255e-15
3.25168e-14
5.12152e-15
3.13431e-14
4.82217e-15
3.02276e-14
4.56588e-15
2.91624e-14
4.34551e-15
2.81408e-14
4.15514e-15
2.71573e-14
3.98982e-15
2.62072e-14
3.84542e-15
2.52866e-14
3.71848e-15
2.43922e-14
3.60612e-15
2.35213e-14
3.50591e-15
2.26717e-14
3.41584e-15
2.18415e-14
3.33425e-15
2.1029e-14
3.25974e-15
2.0233e-14
3.19116e-15
1.94524e-14
3.12758e-15
1.86862e-14
3.06821e-15
1.79336e-14
3.01243e-15
1.71939e-14
2.95973e-15
1.64665e-14
2.90969e-15
1.57509e-14
2.86198e-15
1.50465e-14
2.81635e-15
1.43531e-14
2.77259e-15
1.367e-14
2.73056e-15
1.29971e-14
2.69013e-15
1.23338e-14
2.65122e-15
1.16799e-14
2.61379e-15
1.10351e-14
2.57778e-15
1.03988e-14
2.5432e-15
9.77093e-15
2.51002e-15
9.15098e-15
2.47826e-15
8.53864e-15
2.44794e-15
7.93353e-15
2.41907e-15
7.3353e-15
2.39168e-15
6.74356e-15
2.36579e-15
6.15792e-15
2.34144e-15
5.57799e-15
2.31864e-15
5.00337e-15
2.29742e-15
4.43363e-15
2.2778e-15
3.86836e-15
2.25977e-15
3.30713e-15
2.24335e-15
2.74948e-15
2.22846e-15
2.195e-15
2.21499e-15
1.64326e-15
2.20276e-15
1.09391e-15
2.19177e-15
5.46593e-16
2.18265e-15
2.17957e-15
-2.25246e-08
1.75789e-07
-5.56894e-08
1.42293e-07
-6.63289e-08
1.0022e-07
-8.50736e-08
6.99634e-08
-9.48629e-08
5.03626e-08
-9.69696e-08
1.22142e-08
-1.00169e-07
-1.87105e-08
-9.23394e-08
-2.55383e-08
-7.11587e-08
-6.42834e-08
-6.36576e-08
-6.67325e-08
-3.32881e-08
-7.09353e-08
-9.85732e-09
-7.22934e-08
9.15383e-09
-4.38378e-08
1.33479e-08
-2.97687e-08
1.60996e-08
-1.96209e-08
1.17191e-08
-1.09344e-08
4.79443e-09
-1.81963e-08
6.24555e-13
-3.7144e-08
2.04877e-12
-7.31432e-08
3.49579e-13
4.19631e-12
7.01641e-14
1.70903e-12
7.40482e-14
4.08919e-14
7.02431e-14
4.26856e-14
6.58714e-14
3.71308e-14
6.18187e-14
3.13208e-14
5.81506e-14
2.64121e-14
5.48432e-14
2.24402e-14
5.18642e-14
1.92487e-14
4.91794e-14
1.66749e-14
4.67548e-14
1.45849e-14
4.45582e-14
1.28748e-14
4.25599e-14
1.14653e-14
4.07333e-14
1.02958e-14
3.90548e-14
9.3199e-15
3.75039e-14
8.50149e-15
3.60627e-14
7.81221e-15
3.47158e-14
7.22948e-15
3.34501e-14
6.73509e-15
3.22541e-14
6.31422e-15
3.11183e-14
5.95467e-15
3.00344e-14
5.64637e-15
2.89957e-14
5.38089e-15
2.79963e-14
5.15123e-15
2.70314e-14
4.95151e-15
2.60968e-14
4.77679e-15
2.51892e-14
4.62294e-15
2.43057e-14
4.48651e-15
2.3444e-14
4.36461e-15
2.26021e-14
4.25482e-15
2.17783e-14
4.15515e-15
2.09713e-14
4.06394e-15
2.018e-14
3.97981e-15
1.94033e-14
3.90164e-15
1.86405e-14
3.8285e-15
1.78908e-14
3.75965e-15
1.71537e-14
3.69448e-15
1.64286e-14
3.6325e-15
1.5715e-14
3.57333e-15
1.50126e-14
3.51665e-15
1.43208e-14
3.46224e-15
1.36394e-14
3.40992e-15
1.2968e-14
3.35955e-15
1.23062e-14
3.31105e-15
1.16538e-14
3.26434e-15
1.10103e-14
3.21939e-15
1.03755e-14
3.17619e-15
9.74894e-15
3.13474e-15
9.13039e-15
3.09505e-15
8.51945e-15
3.05714e-15
7.91576e-15
3.02104e-15
7.31896e-15
2.98678e-15
6.72867e-15
2.95441e-15
6.14449e-15
2.92396e-15
5.56602e-15
2.89546e-15
4.99286e-15
2.86894e-15
4.42458e-15
2.84445e-15
3.86075e-15
2.82199e-15
3.30092e-15
2.80157e-15
2.74464e-15
2.78315e-15
2.19142e-15
2.76662e-15
1.6408e-15
2.75179e-15
1.09237e-15
2.73861e-15
5.45736e-16
2.72771e-15
2.72451e-15
-1.75409e-08
1.93328e-07
-3.89279e-08
1.63676e-07
-5.97687e-08
1.21058e-07
-7.91452e-08
8.93372e-08
-8.2194e-08
5.34086e-08
-8.79211e-08
1.79383e-08
-8.50317e-08
-2.1603e-08
-7.81241e-08
-3.24488e-08
-7.19539e-08
-7.04563e-08
-5.08807e-08
-8.78083e-08
-2.61802e-08
-9.56384e-08
-1.5189e-08
-8.3287e-08
8.64704e-09
-6.76762e-08
2.17218e-08
-4.28457e-08
2.10029e-08
-1.89043e-08
1.33198e-08
-3.25366e-09
7.66614e-09
-1.25449e-08
4.23034e-09
-3.37105e-08
2.07013e-12
-6.89166e-08
-2.7165e-13
5.90846e-12
1.12743e-13
1.32458e-12
7.56195e-14
7.79836e-14
6.53588e-14
5.29448e-14
6.07644e-14
4.17226e-14
5.75045e-14
3.45783e-14
5.46602e-14
2.92541e-14
5.20388e-14
2.50594e-14
4.96027e-14
2.16825e-14
4.73431e-14
1.89322e-14
4.52524e-14
1.66733e-14
4.33199e-14
1.48048e-14
4.15325e-14
1.32501e-14
3.9876e-14
1.19496e-14
3.83358e-14
1.08572e-14
3.68984e-14
9.93598e-15
3.55508e-14
9.1567e-15
3.42816e-14
8.49553e-15
3.30805e-14
7.93298e-15
3.19384e-14
7.45296e-15
3.08477e-14
7.04206e-15
2.98016e-14
6.6891e-15
2.87945e-14
6.38466e-15
2.78216e-14
6.12085e-15
2.68788e-14
5.89103e-15
2.59627e-14
5.68959e-15
2.50706e-14
5.51186e-15
2.42001e-14
5.35389e-15
2.33493e-14
5.2124e-15
2.25165e-14
5.08465e-15
2.17004e-14
4.96836e-15
2.08999e-14
4.86164e-15
2.01141e-14
4.76295e-15
1.93421e-14
4.671e-15
1.85833e-14
4.58475e-15
1.78371e-14
4.50337e-15
1.71031e-14
4.42617e-15
1.63807e-14
4.3526e-15
1.56695e-14
4.28223e-15
1.49693e-14
4.21473e-15
1.42795e-14
4.14983e-15
1.36001e-14
4.08735e-15
1.29305e-14
4.02714e-15
1.22705e-14
3.96909e-15
1.16197e-14
3.91316e-15
1.0978e-14
3.85929e-15
1.03448e-14
3.80749e-15
9.71999e-15
3.75776e-15
9.10314e-15
3.71012e-15
8.49393e-15
3.66461e-15
7.89198e-15
3.62126e-15
7.29694e-15
3.58012e-15
6.70843e-15
3.54123e-15
6.12606e-15
3.50466e-15
5.54941e-15
3.47045e-15
4.97808e-15
3.43863e-15
4.41164e-15
3.40926e-15
3.84964e-15
3.38236e-15
3.29163e-15
3.35796e-15
2.73713e-15
3.33605e-15
2.18564e-15
3.31652e-15
1.63664e-15
3.29921e-15
1.08963e-15
3.28403e-15
5.44171e-16
3.2716e-15
3.26788e-15
-2.02826e-08
2.13609e-07
-3.53712e-08
1.78761e-07
-5.13312e-08
1.37014e-07
-5.88649e-08
9.6868e-08
-6.48392e-08
5.93804e-08
-6.5102e-08
1.81985e-08
-5.20286e-08
-3.46791e-08
-4.7149e-08
-3.7331e-08
-4.15251e-08
-7.60827e-08
-2.1114e-08
-1.08222e-07
-6.95162e-09
-1.09803e-07
5.69087e-09
-9.59317e-08
1.49598e-08
-7.69473e-08
2.48077e-08
-5.26955e-08
2.25785e-08
-1.66771e-08
1.62856e-08
3.03729e-09
9.20267e-09
-5.46399e-09
6.70757e-09
-3.12174e-08
1.82513e-12
-6.22124e-08
-1.229e-12
8.40984e-12
3.62406e-14
5.93074e-14
5.36159e-14
6.06082e-14
5.5499e-14
5.10596e-14
5.44885e-14
4.27308e-14
5.28279e-14
3.62368e-14
5.0976e-14
3.11039e-14
4.90729e-14
2.69604e-14
4.71873e-14
2.35661e-14
4.53592e-14
2.07581e-14
4.36114e-14
1.84187e-14
4.19544e-14
1.64595e-14
4.03903e-14
1.48116e-14
3.89164e-14
1.34209e-14
3.75267e-14
1.2244e-14
3.62138e-14
1.12458e-14
3.497e-14
1.03974e-14
3.37874e-14
9.67493e-15
3.26588e-14
9.05834e-15
3.15776e-14
8.5309e-15
3.05379e-14
8.07846e-15
2.95345e-14
7.68906e-15
2.85633e-14
7.35258e-15
2.76203e-14
7.06044e-15
2.67027e-14
6.8054e-15
2.58076e-14
6.58136e-15
2.49331e-14
6.38317e-15
2.40773e-14
6.20654e-15
2.32388e-14
6.04786e-15
2.24163e-14
5.90413e-15
2.16089e-14
5.77287e-15
2.08157e-14
5.65201e-15
2.00361e-14
5.53987e-15
1.92694e-14
5.43505e-15
1.85151e-14
5.33645e-15
1.77728e-14
5.24314e-15
1.70422e-14
5.15439e-15
1.63229e-14
5.06961e-15
1.56145e-14
4.98836e-15
1.49167e-14
4.91027e-15
1.42294e-14
4.83507e-15
1.35521e-14
4.76256e-15
1.28846e-14
4.6926e-15
1.22266e-14
4.62508e-15
1.15779e-14
4.55996e-15
1.09381e-14
4.4972e-15
1.03069e-14
4.4368e-15
9.68409e-15
4.37879e-15
9.06924e-15
4.32318e-15
8.46205e-15
4.27004e-15
7.86217e-15
4.21941e-15
7.26922e-15
4.17135e-15
6.68284e-15
4.12593e-15
6.10262e-15
4.08321e-15
5.52817e-15
4.04325e-15
4.95904e-15
4.00611e-15
4.39482e-15
3.97185e-15
3.83505e-15
3.94051e-15
3.27927e-15
3.91213e-15
2.72699e-15
3.88673e-15
2.17767e-15
3.86424e-15
1.63075e-15
3.84454e-15
1.08569e-15
3.8275e-15
5.42137e-16
3.81359e-15
3.80923e-15
-9.32457e-09
2.22932e-07
-1.83532e-08
1.87788e-07
-3.55593e-08
1.54217e-07
-3.99771e-08
1.01283e-07
-4.21344e-08
6.15351e-08
-4.34157e-08
1.94776e-08
-2.50975e-08
-5.29996e-08
-3.6685e-09
-5.87623e-08
-3.0947e-09
-7.66587e-08
5.10156e-10
-1.11829e-07
1.08816e-08
-1.20176e-07
2.07954e-08
-1.05847e-07
2.48641e-08
-8.10178e-08
2.49781e-08
-5.28114e-08
1.88302e-08
-1.05308e-08
1.00871e-08
1.17786e-08
2.54242e-09
2.07906e-09
3.86797e-09
-3.25447e-08
4.2406e-12
-5.83498e-08
2.64417e-14
1.21521e-11
3.74001e-14
4.83481e-14
4.52357e-14
5.27715e-14
4.81883e-14
4.8105e-14
4.87885e-14
4.21288e-14
4.83226e-14
3.67009e-14
4.73391e-14
3.20855e-14
4.60934e-14
2.82042e-14
4.47222e-14
2.49353e-14
4.33055e-14
2.21727e-14
4.18912e-14
1.98307e-14
4.05074e-14
1.78409e-14
3.91691e-14
1.61474e-14
3.78828e-14
1.47045e-14
3.66499e-14
1.34741e-14
3.54686e-14
1.24242e-14
3.43353e-14
1.15277e-14
3.32458e-14
1.07613e-14
3.21955e-14
1.01054e-14
3.11802e-14
9.5429e-15
3.01959e-14
9.0594e-15
2.92392e-14
8.64243e-15
2.8307e-14
8.28139e-15
2.73969e-14
7.96724e-15
2.65066e-14
7.69233e-15
2.56345e-14
7.45017e-15
2.47792e-14
7.2353e-15
2.39394e-14
7.04316e-15
2.31142e-14
6.86991e-15
2.2303e-14
6.71238e-15
2.1505e-14
6.56794e-15
2.07197e-14
6.43442e-15
1.99468e-14
6.31005e-15
1.91858e-14
6.19337e-15
1.84364e-14
6.0832e-15
1.76984e-14
5.97861e-15
1.69715e-14
5.87883e-15
1.62555e-14
5.78327e-15
1.55501e-14
5.69145e-15
1.48552e-14
5.60302e-15
1.41704e-14
5.5177e-15
1.34955e-14
5.43531e-15
1.28304e-14
5.35569e-15
1.21747e-14
5.27877e-15
1.15282e-14
5.2045e-15
1.08907e-14
5.13285e-15
1.02618e-14
5.06386e-15
9.6412e-15
4.99753e-15
9.02866e-15
4.93394e-15
8.4238e-15
4.87313e-15
7.8263e-15
4.81517e-15
7.23578e-15
4.76015e-15
6.65187e-15
4.70814e-15
6.07417e-15
4.65923e-15
5.50227e-15
4.61349e-15
4.93574e-15
4.57099e-15
4.37413e-15
4.53182e-15
3.817e-15
4.49602e-15
3.26386e-15
4.46366e-15
2.71421e-15
4.43477e-15
2.16749e-15
4.40936e-15
1.62311e-15
4.38733e-15
1.08056e-15
4.36846e-15
5.39813e-16
4.35276e-15
4.34825e-15
-2.35783e-08
2.46508e-07
-2.89683e-08
1.93177e-07
-2.08919e-08
1.4614e-07
-1.97609e-08
1.00149e-07
-1.92156e-08
6.09875e-08
-8.84017e-09
9.1001e-09
-1.51178e-08
-4.6724e-08
-4.19078e-10
-7.3463e-08
2.57701e-08
-1.0285e-07
4.34399e-08
-1.295e-07
4.27746e-08
-1.19513e-07
4.00415e-08
-1.03116e-07
3.74823e-08
-7.846e-08
2.90199e-08
-4.43504e-08
1.67208e-08
1.76684e-09
1.06633e-08
1.78348e-08
3.89808e-09
8.84291e-09
4.52178e-09
-3.31698e-08
-5.12e-13
-5.38284e-08
5.88767e-14
1.12023e-11
4.13127e-14
6.5911e-14
4.11542e-14
5.29291e-14
4.2951e-14
4.63067e-14
4.40295e-14
4.10488e-14
4.4275e-14
3.64539e-14
4.39345e-14
3.24244e-14
4.32256e-14
2.89114e-14
4.22982e-14
2.58609e-14
4.12502e-14
2.32186e-14
4.01447e-14
2.09342e-14
3.90208e-14
1.89624e-14
3.79022e-14
1.72634e-14
3.68024e-14
1.58017e-14
3.57278e-14
1.45459e-14
3.4681e-14
1.34681e-14
3.3662e-14
1.25436e-14
3.26694e-14
1.17507e-14
3.17013e-14
1.10703e-14
3.07554e-14
1.04855e-14
2.98297e-14
9.9818e-15
2.89222e-14
9.54654e-15
2.80314e-14
9.16885e-15
2.71558e-14
8.8394e-15
2.62946e-14
8.55028e-15
2.54467e-14
8.29477e-15
2.46115e-14
8.06722e-15
2.37886e-14
7.8629e-15
2.29775e-14
7.67786e-15
2.2178e-14
7.50883e-15
2.13898e-14
7.35311e-15
2.06129e-14
7.20849e-15
1.9847e-14
7.07316e-15
1.9092e-14
6.94564e-15
1.83478e-14
6.82476e-15
1.76143e-14
6.70956e-15
1.68914e-14
6.59929e-15
1.61789e-14
6.49335e-15
1.54767e-14
6.3913e-15
1.47847e-14
6.29277e-15
1.41027e-14
6.19753e-15
1.34305e-14
6.10538e-15
1.2768e-14
6.0162e-15
1.21148e-14
5.92992e-15
1.14708e-14
5.84652e-15
1.08358e-14
5.766e-15
1.02094e-14
5.68838e-15
9.59133e-15
5.61372e-15
8.98137e-15
5.54209e-15
8.37915e-15
5.47356e-15
7.78434e-15
5.40823e-15
7.19658e-15
5.34619e-15
6.61549e-15
5.28754e-15
6.04066e-15
5.23237e-15
5.47169e-15
5.18079e-15
4.90814e-15
5.1329e-15
4.34956e-15
5.08876e-15
3.79548e-15
5.04848e-15
3.24541e-15
5.01211e-15
2.69883e-15
4.97974e-15
2.15519e-15
4.9514e-15
1.61389e-15
4.92705e-15
1.07453e-15
4.90623e-15
5.36877e-16
4.88883e-15
4.88434e-15
-9.66709e-09
2.56173e-07
-2.15693e-08
2.05076e-07
-1.6557e-08
1.41127e-07
-8.08227e-09
9.16733e-08
1.32591e-08
3.96445e-08
4.56903e-08
-2.33328e-08
6.86508e-08
-6.96862e-08
9.04188e-08
-9.52326e-08
9.27776e-08
-1.0521e-07
8.17392e-08
-1.18463e-07
7.12929e-08
-1.09068e-07
5.66367e-08
-8.84608e-08
4.65436e-08
-6.83681e-08
2.38856e-08
-2.16936e-08
7.46299e-09
1.81883e-08
8.18456e-10
2.44782e-08
-1.47093e-09
1.11313e-08
2.52066e-09
-3.71626e-08
-1.0956e-11
-5.12973e-08
1.56093e-14
4.83526e-14
2.99395e-14
5.15808e-14
3.53611e-14
4.75064e-14
3.83501e-14
4.33165e-14
4.00062e-14
3.93915e-14
4.07448e-14
3.57142e-14
4.08555e-14
3.23124e-14
4.05511e-14
2.92144e-14
3.99808e-14
2.64296e-14
3.92461e-14
2.39515e-14
3.84145e-14
2.17638e-14
3.75296e-14
1.98451e-14
3.6619e-14
1.81716e-14
3.56996e-14
1.67186e-14
3.47812e-14
1.54616e-14
3.38689e-14
1.43775e-14
3.29654e-14
1.34442e-14
3.20715e-14
1.26415e-14
3.11874e-14
1.19512e-14
3.03128e-14
1.13569e-14
2.94472e-14
1.0844e-14
2.85904e-14
1.04e-14
2.77421e-14
1.00138e-14
2.69022e-14
9.67595e-15
2.60707e-14
9.37848e-15
2.52476e-14
9.11455e-15
2.4433e-14
8.87846e-15
2.36273e-14
8.66541e-15
2.28306e-14
8.47144e-15
2.20431e-14
8.29327e-15
2.12649e-14
8.12822e-15
2.04964e-14
7.97409e-15
1.97377e-14
7.82909e-15
1.89888e-14
7.69178e-15
1.82499e-14
7.56101e-15
1.7521e-14
7.43587e-15
1.68021e-14
7.31563e-15
1.60933e-14
7.19974e-15
1.53945e-14
7.08776e-15
1.47056e-14
6.97938e-15
1.40265e-14
6.87438e-15
1.33572e-14
6.77259e-15
1.26974e-14
6.67393e-15
1.20469e-14
6.57834e-15
1.14056e-14
6.48582e-15
1.07733e-14
6.3964e-15
1.01496e-14
6.31014e-15
9.53442e-15
6.22709e-15
8.92733e-15
6.14737e-15
8.32805e-15
6.07105e-15
7.73625e-15
5.99827e-15
7.15158e-15
5.92913e-15
6.57365e-15
5.86376e-15
6.00206e-15
5.80227e-15
5.43641e-15
5.74478e-15
4.87623e-15
5.69142e-15
4.32108e-15
5.64227e-15
3.77048e-15
5.59745e-15
3.22393e-15
5.55705e-15
2.68091e-15
5.52115e-15
2.14089e-15
5.48983e-15
1.6033e-15
5.46305e-15
1.06756e-15
5.44039e-15
5.33133e-16
5.42169e-15
5.4167e-15
-1.51599e-09
2.57689e-07
3.92144e-10
2.03166e-07
4.94107e-09
1.36577e-07
4.59005e-09
9.20236e-08
3.45878e-08
9.64566e-09
4.55257e-08
-3.42717e-08
5.54558e-08
-7.96174e-08
6.98497e-08
-1.09628e-07
8.97646e-08
-1.25126e-07
9.20732e-08
-1.20773e-07
8.70717e-08
-1.04067e-07
7.19038e-08
-7.32937e-08
4.95117e-08
-4.59769e-08
2.36882e-08
4.12904e-09
1.15738e-08
3.03018e-08
4.77936e-09
3.12719e-08
3.31819e-09
1.25917e-08
4.01005e-09
-3.78553e-08
8.82864e-14
-4.72879e-08
1.85142e-14
4.89364e-14
2.64051e-14
4.36893e-14
3.17118e-14
4.21991e-14
3.49245e-14
4.01031e-14
3.67918e-14
3.75233e-14
3.77681e-14
3.4737e-14
3.81425e-14
3.1937e-14
3.81109e-14
2.92448e-14
3.78084e-14
2.67307e-14
3.73276e-14
2.44306e-14
3.67313e-14
2.23583e-14
3.60609e-14
2.05134e-14
3.53435e-14
1.88868e-14
3.45959e-14
1.74636e-14
3.38289e-14
1.6226e-14
3.30489e-14
1.51547e-14
3.226e-14
1.42301e-14
3.14648e-14
1.34337e-14
3.06649e-14
1.27479e-14
2.98619e-14
1.21567e-14
2.90569e-14
1.16457e-14
2.82511e-14
1.12025e-14
2.74454e-14
1.0816e-14
2.66412e-14
1.04769e-14
2.58393e-14
1.0177e-14
2.50409e-14
9.90964e-15
2.42468e-14
9.66917e-15
2.34582e-14
9.45086e-15
2.26756e-14
9.25082e-15
2.18999e-14
9.06587e-15
2.11316e-14
8.89341e-15
2.03714e-14
8.73133e-15
1.96197e-14
8.57793e-15
1.88769e-14
8.43184e-15
1.81432e-14
8.29201e-15
1.74189e-14
8.15756e-15
1.67041e-14
8.02786e-15
1.5999e-14
7.90239e-15
1.53036e-14
7.78078e-15
1.46179e-14
7.66276e-15
1.39419e-14
7.54815e-15
1.32755e-14
7.43682e-15
1.26186e-14
7.32872e-15
1.1971e-14
7.22384e-15
1.13327e-14
7.1222e-15
1.07033e-14
7.02385e-15
1.00826e-14
6.92888e-15
9.47043e-15
6.83739e-15
8.86648e-15
6.74949e-15
8.27043e-15
6.6653e-15
7.68196e-15
6.58498e-15
7.1007e-15
6.50865e-15
6.52628e-15
6.43646e-15
5.95831e-15
6.36855e-15
5.39635e-15
6.30507e-15
4.83996e-15
6.24615e-15
4.28867e-15
6.19192e-15
3.74199e-15
6.1425e-15
3.19941e-15
6.09801e-15
2.66043e-15
6.05853e-15
2.12451e-15
6.02416e-15
1.59113e-15
5.99485e-15
1.05952e-15
5.97042e-15
5.28822e-16
5.95083e-15
5.94475e-15
2.79781e-09
2.54891e-07
8.60886e-09
1.97355e-07
1.62599e-08
1.28925e-07
2.04581e-08
8.78251e-08
4.76955e-08
-1.75922e-08
6.95319e-08
-5.61087e-08
9.89428e-08
-1.09029e-07
1.17576e-07
-1.28261e-07
1.16309e-07
-1.23861e-07
1.11541e-07
-1.16005e-07
9.28453e-08
-8.53726e-08
7.68202e-08
-5.72693e-08
4.85348e-08
-1.76921e-08
1.70667e-08
3.55966e-08
5.87911e-09
4.14889e-08
1.93215e-09
3.52184e-08
3.54716e-09
1.09764e-08
6.67923e-09
-4.09877e-08
1.17347e-09
-4.17823e-08
1.41951e-14
1.17353e-09
2.51466e-14
3.27376e-14
2.99053e-14
3.744e-14
3.26826e-14
3.73257e-14
3.43616e-14
3.58438e-14
3.53211e-14
3.3777e-14
3.57869e-14
3.14706e-14
3.59093e-14
2.91216e-14
3.57928e-14
2.68461e-14
3.55107e-14
2.47114e-14
3.51131e-14
2.27542e-14
3.46336e-14
2.0991e-14
3.40942e-14
1.94241e-14
3.35091e-14
1.80463e-14
3.28878e-14
1.68448e-14
3.22365e-14
1.58032e-14
3.156e-14
1.49039e-14
3.08618e-14
1.41289e-14
3.0145e-14
1.34615e-14
2.94126e-14
1.28859e-14
2.86672e-14
1.23879e-14
2.79113e-14
1.19551e-14
2.71474e-14
1.15766e-14
2.63778e-14
1.1243e-14
2.56048e-14
1.09467e-14
2.48302e-14
1.06809e-14
2.40559e-14
1.04401e-14
2.32836e-14
1.02199e-14
2.25146e-14
1.00166e-14
2.17501e-14
9.82717e-15
2.09913e-14
9.64914e-15
2.0239e-14
9.4806e-15
1.94941e-14
9.31999e-15
1.8757e-14
9.16608e-15
1.80283e-14
9.01793e-15
1.73085e-14
8.87477e-15
1.65977e-14
8.73605e-15
1.58962e-14
8.60135e-15
1.52042e-14
8.47036e-15
1.45218e-14
8.34287e-15
1.38489e-14
8.21876e-15
1.31856e-14
8.09796e-15
1.25317e-14
7.98046e-15
1.18872e-14
7.86627e-15
1.12519e-14
7.75546e-15
1.06256e-14
7.64813e-15
1.00082e-14
7.54439e-15
9.39931e-15
7.44435e-15
8.79876e-15
7.34818e-15
8.20623e-15
7.25602e-15
7.62138e-15
7.16804e-15
7.04387e-15
7.08441e-15
6.47332e-15
7.00528e-15
5.90933e-15
6.93085e-15
5.35146e-15
6.86126e-15
4.79926e-15
6.79668e-15
4.25226e-15
6.73728e-15
3.70995e-15
6.68318e-15
3.17182e-15
6.63452e-15
2.63734e-15
6.59142e-15
2.10596e-15
6.55395e-15
1.57717e-15
6.52208e-15
1.05028e-15
6.49575e-15
5.24209e-16
6.47536e-15
6.46818e-15
9.80137e-09
2.4509e-07
1.14344e-08
1.95722e-07
1.2133e-08
1.28227e-07
3.74991e-08
6.24593e-08
5.35747e-08
-3.36677e-08
7.64953e-08
-7.90294e-08
9.16924e-08
-1.24226e-07
1.04146e-07
-1.40715e-07
1.10725e-07
-1.30439e-07
1.07777e-07
-1.13058e-07
9.58055e-08
-7.3402e-08
7.74715e-08
-3.89359e-08
3.93288e-08
2.045e-08
2.19862e-08
5.29388e-08
7.09536e-09
5.63794e-08
-2.69751e-09
4.50109e-08
-6.03571e-09
1.43144e-08
-9.61299e-09
-3.74105e-08
-1.15862e-09
-5.02366e-08
9.18714e-15
1.50526e-11
2.93299e-14
4.7527e-14
2.98386e-14
3.69311e-14
3.14046e-14
3.57604e-14
3.25635e-14
3.46846e-14
3.33081e-14
3.30321e-14
3.37332e-14
3.10452e-14
3.39175e-14
2.89367e-14
3.39228e-14
2.684e-14
3.37951e-14
2.4838e-14
3.35666e-14
2.29813e-14
3.32585e-14
2.12974e-14
3.28846e-14
1.97961e-14
3.24538e-14
1.8475e-14
3.19726e-14
1.73237e-14
3.1446e-14
1.63273e-14
3.08786e-14
1.54685e-14
3.02747e-14
1.47299e-14
2.96386e-14
1.40946e-14
2.89744e-14
1.3547e-14
2.82863e-14
1.30728e-14
2.75783e-14
1.26598e-14
2.68541e-14
1.22974e-14
2.61174e-14
1.19764e-14
2.53715e-14
1.16893e-14
2.46192e-14
1.14298e-14
2.38633e-14
1.11927e-14
2.3106e-14
1.09739e-14
2.23495e-14
1.07699e-14
2.15954e-14
1.05781e-14
2.08453e-14
1.03962e-14
2.01003e-14
1.02225e-14
1.93615e-14
1.00558e-14
1.86298e-14
9.89493e-15
1.79058e-14
9.73911e-15
1.71901e-14
9.58774e-15
1.64832e-14
9.44039e-15
1.57853e-14
9.29673e-15
1.50966e-14
9.15656e-15
1.44174e-14
9.01973e-15
1.37476e-14
8.8862e-15
1.30874e-14
8.75596e-15
1.24366e-14
8.62903e-15
1.17953e-14
8.5055e-15
1.11632e-14
8.38547e-15
1.05403e-14
8.26907e-15
9.92628e-15
8.15645e-15
9.32096e-15
8.04776e-15
8.72408e-15
7.94319e-15
8.13535e-15
7.84293e-15
7.55444e-15
7.74716e-15
6.981e-15
7.65608e-15
6.41467e-15
7.56988e-15
5.85502e-15
7.48878e-15
5.30164e-15
7.41296e-15
4.75405e-15
7.3426e-15
4.21178e-15
7.2779e-15
3.67431e-15
7.21902e-15
3.14111e-15
7.16611e-15
2.61163e-15
7.11931e-15
2.08529e-15
7.0787e-15
1.56154e-15
7.04428e-15
1.03976e-15
7.01599e-15
5.19159e-16
6.99444e-15
6.98658e-15
1.3173e-08
2.31917e-07
1.61766e-08
1.9272e-07
7.659e-09
1.36745e-07
4.37855e-08
2.63337e-08
5.31801e-08
-4.30614e-08
7.83573e-08
-1.04206e-07
9.13338e-08
-1.37203e-07
9.11572e-08
-1.40539e-07
8.47502e-08
-1.24033e-07
6.69231e-08
-9.52312e-08
4.87681e-08
-5.52473e-08
1.64266e-08
-6.5948e-09
-7.96795e-09
4.48442e-08
-1.37573e-08
5.87279e-08
-1.80046e-08
6.06266e-08
-1.50294e-08
4.20357e-08
-1.5422e-08
1.47071e-08
-1.83224e-08
-3.45099e-08
-2.81509e-08
-4.04077e-08
6.14646e-13
-2.81362e-08
2.00565e-14
8.87106e-13
2.88357e-14
2.81517e-14
3.04797e-14
3.41186e-14
3.11278e-14
3.40375e-14
3.15753e-14
3.2585e-14
3.18905e-14
3.07301e-14
3.20829e-14
2.87442e-14
3.21693e-14
2.6753e-14
3.21676e-14
2.48389e-14
3.20895e-14
2.30583e-14
3.19409e-14
2.14446e-14
3.17245e-14
2.00108e-14
3.14423e-14
1.87553e-14
3.10967e-14
1.76672e-14
3.06908e-14
1.67308e-14
3.02289e-14
1.59279e-14
2.97156e-14
1.52404e-14
2.91565e-14
1.46509e-14
2.85569e-14
1.41435e-14
2.79227e-14
1.37039e-14
2.72592e-14
1.33201e-14
2.65717e-14
1.29816e-14
2.5865e-14
1.26798e-14
2.51435e-14
1.24074e-14
2.44113e-14
1.21587e-14
2.36717e-14
1.1929e-14
2.29278e-14
1.17144e-14
2.21823e-14
1.15122e-14
2.14373e-14
1.13198e-14
2.06947e-14
1.11356e-14
1.99561e-14
1.0958e-14
1.92228e-14
1.07861e-14
1.84959e-14
1.0619e-14
1.77761e-14
1.0456e-14
1.70643e-14
1.02968e-14
1.63608e-14
1.01411e-14
1.56663e-14
9.98874e-15
1.49808e-14
9.8395e-15
1.43047e-14
9.69341e-15
1.36381e-14
9.55048e-15
1.2981e-14
9.41077e-15
1.23334e-14
9.27438e-15
1.16954e-14
9.14143e-15
1.10667e-14
9.01208e-15
1.04472e-14
8.88649e-15
9.83684e-15
8.76486e-15
9.23529e-15
8.64738e-15
8.64233e-15
8.53427e-15
8.05767e-15
8.42574e-15
7.481e-15
8.32201e-15
6.91197e-15
8.22333e-15
6.3502e-15
8.12991e-15
5.79529e-15
8.04198e-15
5.24679e-15
7.95976e-15
4.70424e-15
7.88348e-15
4.16714e-15
7.81335e-15
3.63498e-15
7.74955e-15
3.1072e-15
7.69228e-15
2.58324e-15
7.64169e-15
2.06249e-15
7.59788e-15
1.54435e-15
7.56086e-15
1.02819e-15
7.53062e-15
5.13394e-16
7.50774e-15
7.4992e-15
1.33091e-08
2.18608e-07
2.75909e-08
1.78441e-07
2.10337e-08
1.43304e-07
4.80907e-08
-7.2184e-10
6.78246e-08
-6.27938e-08
8.37126e-08
-1.20093e-07
8.49502e-08
-1.3844e-07
7.49277e-08
-1.30516e-07
5.13244e-08
-1.00429e-07
2.58106e-08
-6.97175e-08
8.33568e-10
-3.02704e-08
-2.63554e-08
2.0594e-08
-2.58415e-08
4.43301e-08
-2.64298e-08
5.93162e-08
-2.2556e-08
5.67528e-08
-1.58014e-08
3.52814e-08
-9.50086e-09
8.40686e-09
-1.33295e-08
-3.06807e-08
-1.13095e-08
-4.24269e-08
1.77938e-09
-4.12242e-08
5.21535e-14
1.78027e-09
3.4092e-14
4.6229e-14
3.04243e-14
3.77865e-14
2.98663e-14
3.45967e-14
2.99578e-14
3.24943e-14
3.01554e-14
3.0533e-14
3.03406e-14
2.85594e-14
3.04926e-14
2.66009e-14
3.06066e-14
2.47245e-14
3.06737e-14
2.29904e-14
3.0682e-14
2.14351e-14
3.06216e-14
2.00699e-14
3.0486e-14
1.88894e-14
3.02731e-14
1.78783e-14
2.99844e-14
1.70174e-14
2.96236e-14
1.62863e-14
2.91964e-14
1.5665e-14
2.87093e-14
1.51352e-14
2.81696e-14
1.46803e-14
2.75844e-14
1.42861e-14
2.69609e-14
1.39405e-14
2.63058e-14
1.36335e-14
2.56252e-14
1.3357e-14
2.49249e-14
1.31044e-14
2.42096e-14
1.28706e-14
2.34837e-14
1.26515e-14
2.2751e-14
1.24439e-14
2.20145e-14
1.22454e-14
2.1277e-14
1.20541e-14
2.05406e-14
1.18688e-14