/*--------------------------------*- C++ -*----------------------------------*\
  =========                 |
  \\      /  F ield         | OpenFOAM: The Open Source CFD Toolbox
   \\    /   O peration     | Website:  https://openfoam.org
    \\  /    A nd           | Version:  6
     \\/     M anipulation  |
\*---------------------------------------------------------------------------*/
FoamFile
{
    version     2.0;
    format      ascii;
    class       volVectorField;
    location    "690";
    object      U;
}
// * * * * * * * * * * * * * * * * * * * * * * * * * * * * * * * * * * * * * //

dimensions      [0 1 -1 0 0 0 0];

internalField   nonuniform List<vector> 
5964
(
(-0.00130212 0 0.00112376)
(-0.00403476 0 0.00131708)
(-0.0052375 0 4.30124e-07)
(-0.00617972 0 0.000554115)
(-0.00669927 0 -7.96042e-05)
(-0.00691314 0 -8.94215e-05)
(-0.00701397 0 -0.000223327)
(-0.0070232 0 -0.00022717)
(-0.00636857 0 -0.000382225)
(-0.00587161 0 -0.000425765)
(-0.00568274 0 -0.000282654)
(-0.00545568 0 -0.000533494)
(-0.00528638 0 -0.000539871)
(-0.00500491 0 -0.000584267)
(-0.00452686 0 -0.00053137)
(-0.00374675 0 -0.00088458)
(-0.00293812 0 -0.000829022)
(-0.00180621 0 -0.00116056)
(-2.14818e-05 0 -0.00123138)
(2.70244e-08 0 4.31555e-08)
(1.87982e-08 0 1.40427e-08)
(3.14922e-09 0 7.78376e-10)
(5.23268e-09 0 4.315e-10)
(4.47112e-09 0 2.82393e-10)
(3.95049e-09 0 2.05588e-10)
(3.56089e-09 0 1.59567e-10)
(3.25318e-09 0 1.28818e-10)
(3.00181e-09 0 1.06756e-10)
(2.79164e-09 0 9.01931e-11)
(2.61281e-09 0 7.73826e-11)
(2.45844e-09 0 6.72655e-11)
(2.32351e-09 0 5.91498e-11)
(2.20427e-09 0 5.25592e-11)
(2.09782e-09 0 4.71534e-11)
(2.0019e-09 0 4.26826e-11)
(1.91472e-09 0 3.89593e-11)
(1.83484e-09 0 3.584e-11)
(1.76108e-09 0 3.32129e-11)
(1.69249e-09 0 3.09899e-11)
(1.62829e-09 0 2.91004e-11)
(1.56782e-09 0 2.74872e-11)
(1.51054e-09 0 2.61036e-11)
(1.45602e-09 0 2.49111e-11)
(1.40387e-09 0 2.3878e-11)
(1.35378e-09 0 2.29778e-11)
(1.3055e-09 0 2.21885e-11)
(1.2588e-09 0 2.14917e-11)
(1.21351e-09 0 2.08721e-11)
(1.16948e-09 0 2.0317e-11)
(1.12657e-09 0 1.98157e-11)
(1.08469e-09 0 1.93595e-11)
(1.04374e-09 0 1.8941e-11)
(1.00366e-09 0 1.85543e-11)
(9.64376e-10 0 1.81944e-11)
(9.25837e-10 0 1.78573e-11)
(8.88e-10 0 1.75397e-11)
(8.50824e-10 0 1.72389e-11)
(8.14277e-10 0 1.69529e-11)
(7.78328e-10 0 1.66799e-11)
(7.42952e-10 0 1.64187e-11)
(7.08123e-10 0 1.61681e-11)
(6.7382e-10 0 1.59276e-11)
(6.40022e-10 0 1.56964e-11)
(6.06709e-10 0 1.54741e-11)
(5.73862e-10 0 1.52606e-11)
(5.41463e-10 0 1.50557e-11)
(5.09493e-10 0 1.48593e-11)
(4.77934e-10 0 1.46714e-11)
(4.46768e-10 0 1.44921e-11)
(4.15976e-10 0 1.43214e-11)
(3.8554e-10 0 1.41595e-11)
(3.5544e-10 0 1.40065e-11)
(3.25657e-10 0 1.38625e-11)
(2.96173e-10 0 1.37275e-11)
(2.66967e-10 0 1.36017e-11)
(2.3802e-10 0 1.3485e-11)
(2.09313e-10 0 1.33774e-11)
(1.80827e-10 0 1.32783e-11)
(1.52544e-10 0 1.3187e-11)
(1.2445e-10 0 1.31016e-11)
(9.65334e-11 0 1.30205e-11)
(6.8786e-11 0 1.29437e-11)
(4.11912e-11 0 1.28775e-11)
(1.37146e-11 0 1.28332e-11)
(-0.00132661 0 0.00291216)
(-0.00338349 0 0.00229545)
(-0.00477957 0 0.000308789)
(-0.00494898 0 0.00139896)
(-0.00526598 0 0.000617834)
(-0.00540841 0 0.000261102)
(-0.0054369 0 -9.19114e-05)
(-0.00555112 0 -0.000133364)
(-0.00482022 0 -0.000721135)
(-0.0039939 0 -0.0010718)
(-0.00390041 0 -4.71848e-05)
(-0.00353353 0 -0.000536501)
(-0.00342388 0 -0.000486438)
(-0.00330016 0 -0.000575022)
(-0.00319951 0 -0.00069829)
(-0.00268462 0 -0.000922385)
(-0.00207023 0 -0.00126871)
(-0.00163511 0 -0.00157381)
(-2.3187e-05 0 -0.00254479)
(1.45381e-08 0 9.32761e-08)
(1.14125e-08 0 3.50422e-08)
(2.73201e-09 0 1.78521e-09)
(4.76702e-09 0 1.12055e-09)
(4.25881e-09 0 7.83529e-10)
(3.83496e-09 0 5.8962e-10)
(3.48863e-09 0 4.65208e-10)
(3.20346e-09 0 3.78759e-10)
(2.96545e-09 0 3.15383e-10)
(2.764e-09 0 2.67234e-10)
(2.59125e-09 0 2.29737e-10)
(2.4413e-09 0 1.99996e-10)
(2.3097e-09 0 1.76068e-10)
(2.19301e-09 0 1.56596e-10)
(2.08855e-09 0 1.40598e-10)
(1.99422e-09 0 1.2735e-10)
(1.90831e-09 0 1.16306e-10)
(1.82946e-09 0 1.07045e-10)
(1.75654e-09 0 9.92413e-11)
(1.68865e-09 0 9.2634e-11)
(1.62502e-09 0 8.70154e-11)
(1.56503e-09 0 8.22167e-11)
(1.50816e-09 0 7.80997e-11)
(1.45397e-09 0 7.45504e-11)
(1.40211e-09 0 7.14747e-11)
(1.35226e-09 0 6.87938e-11)
(1.30417e-09 0 6.64426e-11)
(1.25765e-09 0 6.43663e-11)
(1.2125e-09 0 6.25195e-11)
(1.16859e-09 0 6.08643e-11)
(1.12579e-09 0 5.93691e-11)
(1.08399e-09 0 5.80077e-11)
(1.04313e-09 0 5.67586e-11)
(1.00311e-09 0 5.56037e-11)
(9.63883e-10 0 5.45285e-11)
(9.25397e-10 0 5.3521e-11)
(8.87605e-10 0 5.25715e-11)
(8.50471e-10 0 5.1672e-11)
(8.13961e-10 0 5.08163e-11)
(7.78047e-10 0 4.99994e-11)
(7.42702e-10 0 4.92173e-11)
(7.07903e-10 0 4.84672e-11)
(6.73628e-10 0 4.77467e-11)
(6.39857e-10 0 4.70541e-11)
(6.06569e-10 0 4.63884e-11)
(5.73747e-10 0 4.57486e-11)
(5.41372e-10 0 4.51345e-11)
(5.09426e-10 0 4.45458e-11)
(4.7789e-10 0 4.39826e-11)
(4.46747e-10 0 4.3445e-11)
(4.15977e-10 0 4.29333e-11)
(3.85563e-10 0 4.24479e-11)
(3.55485e-10 0 4.1989e-11)
(3.25724e-10 0 4.15572e-11)
(2.96261e-10 0 4.11527e-11)
(2.67076e-10 0 4.07758e-11)
(2.38149e-10 0 4.04264e-11)
(2.0946e-10 0 4.01043e-11)
(1.8099e-10 0 3.98086e-11)
(1.5272e-10 0 3.95369e-11)
(1.24631e-10 0 3.92851e-11)
(9.6709e-11 0 3.90486e-11)
(6.89367e-11 0 3.88288e-11)
(4.12909e-11 0 3.86445e-11)
(1.37479e-11 0 3.85358e-11)
(-0.000721364 0 0.0047621)
(-0.00219913 0 0.00405992)
(-0.00299471 0 0.00338928)
(-0.00453927 0 0.00151566)
(-0.00497834 0 0.000645736)
(-0.00513317 0 0.000300003)
(-0.00480107 0 -0.000611566)
(-0.00474484 0 0.00048285)
(-0.00438425 0 -0.000299717)
(-0.00287306 0 -0.00250509)
(-0.00303515 0 -0.000186237)
(-0.00207601 0 -0.000663631)
(-0.00168284 0 -0.000486643)
(-0.00142194 0 -0.000567003)
(-0.00153457 0 -0.000372978)
(-0.00159868 0 -0.000322034)
(-0.000464475 0 -0.00161633)
(-0.000508997 0 -0.00212634)
(-1.66528e-05 0 -0.00315522)
(1.21201e-08 0 1.08228e-07)
(9.3867e-09 0 4.71944e-08)
(2.37396e-09 0 2.07899e-09)
(4.29229e-09 0 1.52142e-09)
(3.9724e-09 0 1.15873e-09)
(3.65134e-09 0 9.12448e-10)
(3.36268e-09 0 7.37385e-10)
(3.11234e-09 0 6.08344e-10)
(2.89699e-09 0 5.10563e-10)
(2.71117e-09 0 4.34861e-10)
(2.54965e-09 0 3.75229e-10)
(2.40804e-09 0 3.27577e-10)
(2.28278e-09 0 2.89036e-10)
(2.17099e-09 0 2.57545e-10)
(2.07039e-09 0 2.31593e-10)
(1.97913e-09 0 2.10049e-10)
(1.8957e-09 0 1.92053e-10)
(1.81886e-09 0 1.76939e-10)
(1.74759e-09 0 1.64185e-10)
(1.68106e-09 0 1.53376e-10)
(1.61856e-09 0 1.44176e-10)
(1.55951e-09 0 1.36313e-10)
(1.50342e-09 0 1.29562e-10)
(1.44989e-09 0 1.23739e-10)
(1.39857e-09 0 1.18689e-10)
(1.34918e-09 0 1.14285e-10)
(1.30148e-09 0 1.1042e-10)
(1.25528e-09 0 1.07004e-10)
(1.21041e-09 0 1.03963e-10)
(1.16672e-09 0 1.01236e-10)
(1.12412e-09 0 9.87705e-11)
(1.08249e-09 0 9.65236e-11)
(1.04176e-09 0 9.446e-11)
(1.00187e-09 0 9.25506e-11)
(9.62745e-10 0 9.07714e-11)
(9.24349e-10 0 8.91028e-11)
(8.86637e-10 0 8.7529e-11)
(8.49573e-10 0 8.60371e-11)
(8.13126e-10 0 8.4617e-11)
(7.77269e-10 0 8.32604e-11)
(7.41976e-10 0 8.19611e-11)
(7.07226e-10 0 8.07141e-11)
(6.72997e-10 0 7.95159e-11)
(6.39269e-10 0 7.83638e-11)
(6.06023e-10 0 7.72559e-11)
(5.73242e-10 0 7.6191e-11)
(5.40907e-10 0 7.51685e-11)
(5.09e-10 0 7.41882e-11)
(4.77503e-10 0 7.32501e-11)
(4.46398e-10 0 7.23545e-11)
(4.15667e-10 0 7.15021e-11)
(3.85292e-10 0 7.06934e-11)
(3.55253e-10 0 6.9929e-11)
(3.25531e-10 0 6.92098e-11)
(2.96106e-10 0 6.85362e-11)
(2.66959e-10 0 6.79087e-11)
(2.38069e-10 0 6.73277e-11)
(2.09417e-10 0 6.67929e-11)
(1.8098e-10 0 6.63033e-11)
(1.52739e-10 0 6.5856e-11)
(1.24673e-10 0 6.54457e-11)
(9.67639e-11 0 6.50662e-11)
(6.89929e-11 0 6.47197e-11)
(4.13395e-11 0 6.4434e-11)
(1.37696e-11 0 6.42956e-11)
(-0.00199649 0 0.00587479)
(-0.0030573 0 0.00454505)
(-0.0023937 0 0.00432366)
(-0.00474256 0 0.00164598)
(-0.00474455 0 0.00189797)
(-0.00517776 0 0.000958074)
(-0.00475537 0 -0.00124013)
(-0.00450372 0 -0.000935215)
(-0.00416399 0 -0.00123961)
(-0.0030932 0 -0.00228435)
(-0.00282256 0 -0.0011043)
(-0.00146356 0 -0.00173403)
(-0.00110851 0 -0.000721188)
(-5.72907e-05 0 -0.000976144)
(3.393e-05 0 -0.000568795)
(-0.000221716 0 -0.000656163)
(-0.00029483 0 -0.00103617)
(0.000115219 0 -0.0018026)
(-9.86869e-06 0 -0.0034188)
(1.30934e-08 0 1.32073e-07)
(9.21656e-09 0 5.85804e-08)
(2.1029e-09 0 2.13084e-09)
(3.90309e-09 0 1.75084e-09)
(3.68706e-09 0 1.43149e-09)
(3.43935e-09 0 1.17261e-09)
(3.20311e-09 0 9.6906e-10)
(2.99052e-09 0 8.10416e-10)
(2.80261e-09 0 6.86314e-10)
(2.63699e-09 0 5.88351e-10)
(2.49058e-09 0 5.10185e-10)
(2.36044e-09 0 4.47148e-10)
(2.24401e-09 0 3.95809e-10)
(2.13914e-09 0 3.53632e-10)
(2.04402e-09 0 3.18722e-10)
(1.95716e-09 0 2.89639e-10)
(1.87728e-09 0 2.65276e-10)
(1.80335e-09 0 2.44768e-10)
(1.73448e-09 0 2.2743e-10)
(1.66992e-09 0 2.12713e-10)
(1.60907e-09 0 2.00171e-10)
(1.55139e-09 0 1.89439e-10)
(1.49644e-09 0 1.80216e-10)
(1.44386e-09 0 1.72252e-10)
(1.39334e-09 0 1.6534e-10)
(1.34462e-09 0 1.59306e-10)
(1.29748e-09 0 1.54004e-10)
(1.25175e-09 0 1.49313e-10)
(1.20727e-09 0 1.45133e-10)
(1.16392e-09 0 1.41378e-10)
(1.12159e-09 0 1.37979e-10)
(1.0802e-09 0 1.34877e-10)
(1.03967e-09 0 1.32024e-10)
(9.99949e-10 0 1.29381e-10)
(9.60973e-10 0 1.26915e-10)
(9.22704e-10 0 1.24599e-10)
(8.85102e-10 0 1.22412e-10)
(8.48136e-10 0 1.20337e-10)
(8.11776e-10 0 1.18359e-10)
(7.75998e-10 0 1.16469e-10)
(7.40777e-10 0 1.14657e-10)
(7.06094e-10 0 1.12916e-10)
(6.71927e-10 0 1.11243e-10)
(6.38259e-10 0 1.09633e-10)
(6.05072e-10 0 1.08085e-10)
(5.72347e-10 0 1.06596e-10)
(5.40067e-10 0 1.05165e-10)
(5.08215e-10 0 1.03793e-10)
(4.76773e-10 0 1.02481e-10)
(4.45723e-10 0 1.01227e-10)
(4.15047e-10 0 1.00034e-10)
(3.84727e-10 0 9.89014e-11)
(3.54743e-10 0 9.78314e-11)
(3.25077e-10 0 9.68246e-11)
(2.95708e-10 0 9.5882e-11)
(2.66617e-10 0 9.50044e-11)
(2.37783e-10 0 9.41925e-11)
(2.09184e-10 0 9.34464e-11)
(1.808e-10 0 9.27655e-11)
(1.52607e-10 0 9.21469e-11)
(1.24585e-10 0 9.15849e-11)
(9.67119e-11 0 9.10719e-11)
(6.8968e-11 0 9.06085e-11)
(4.13354e-11 0 9.02256e-11)
(1.37724e-11 0 9.00789e-11)
(-0.00103414 0 0.00768272)
(-0.00202818 0 0.00593393)
(-0.00327325 0 0.0041097)
(-0.00395302 0 0.00294384)
(-0.00445834 0 0.00224642)
(-0.00499844 0 0.000309228)
(-0.00497497 0 -0.000772853)
(-0.00492044 0 -0.00125566)
(-0.00365967 0 -0.00320169)
(-0.00306528 0 -0.00336509)
(-0.0026683 0 -0.00306468)
(-0.00123068 0 -0.00332509)
(9.28815e-06 0 -0.00143874)
(0.000516231 0 -0.00116659)
(0.000687673 0 -0.00100726)
(0.000765026 0 -0.000728146)
(0.000392357 0 -0.00099338)
(0.000241301 0 -0.00172577)
(-3.78113e-06 0 -0.00348061)
(1.24539e-08 0 1.67821e-07)
(8.79709e-09 0 6.97404e-08)
(1.93456e-09 0 2.02464e-09)
(3.63569e-09 0 1.92679e-09)
(3.42966e-09 0 1.65101e-09)
(3.21739e-09 0 1.38405e-09)
(3.02285e-09 0 1.16122e-09)
(2.84709e-09 0 9.82098e-10)
(2.68869e-09 0 8.39072e-10)
(2.54598e-09 0 7.24426e-10)
(2.41724e-09 0 6.31836e-10)
(2.3008e-09 0 5.56431e-10)
(2.1951e-09 0 4.94525e-10)
(2.09873e-09 0 4.43332e-10)
(2.01041e-09 0 4.00728e-10)
(1.92904e-09 0 3.6508e-10)
(1.85365e-09 0 3.3511e-10)
(1.7834e-09 0 3.09809e-10)
(1.71757e-09 0 2.8837e-10)
(1.65554e-09 0 2.70136e-10)
(1.59678e-09 0 2.54571e-10)
(1.54086e-09 0 2.41234e-10)
(1.48737e-09 0 2.29758e-10)
(1.43602e-09 0 2.19836e-10)
(1.38653e-09 0 2.11213e-10)
(1.33866e-09 0 2.03674e-10)
(1.29225e-09 0 1.97041e-10)
(1.24712e-09 0 1.91164e-10)
(1.20314e-09 0 1.85918e-10)
(1.16022e-09 0 1.81197e-10)
(1.11825e-09 0 1.76915e-10)
(1.07716e-09 0 1.73e-10)
(1.03688e-09 0 1.69393e-10)
(9.97375e-10 0 1.66045e-10)
(9.58585e-10 0 1.62915e-10)
(9.20475e-10 0 1.59971e-10)
(8.83013e-10 0 1.57186e-10)
(8.46169e-10 0 1.5454e-10)
(8.09919e-10 0 1.52015e-10)
(7.74239e-10 0 1.49598e-10)
(7.39109e-10 0 1.4728e-10)
(7.04509e-10 0 1.45051e-10)
(6.70422e-10 0 1.42906e-10)
(6.3683e-10 0 1.40841e-10)
(6.03716e-10 0 1.38853e-10)
(5.71062e-10 0 1.36941e-10)
(5.38853e-10 0 1.35104e-10)
(5.07071e-10 0 1.33341e-10)
(4.757e-10 0 1.31653e-10)
(4.4472e-10 0 1.30041e-10)
(4.14116e-10 0 1.28506e-10)
(3.83867e-10 0 1.2705e-10)
(3.53956e-10 0 1.25674e-10)
(3.24363e-10 0 1.24379e-10)
(2.95068e-10 0 1.23168e-10)
(2.6605e-10 0 1.2204e-10)
(2.3729e-10 0 1.20998e-10)
(2.08764e-10 0 1.20042e-10)
(1.80451e-10 0 1.19171e-10)
(1.52329e-10 0 1.18385e-10)
(1.24373e-10 0 1.17676e-10)
(9.65597e-11 0 1.17037e-10)
(6.88672e-11 0 1.16466e-10)
(4.1275e-11 0 1.15993e-10)
(1.37508e-11 0 1.15844e-10)
(-0.00133551 0 0.00918932)
(-0.00134509 0 0.0071103)
(-0.0029671 0 0.0050002)
(-0.00368325 0 0.00358041)
(-0.00419509 0 0.00212567)
(-0.00434951 0 0.000319513)
(-0.00421668 0 -0.000865205)
(-0.00432819 0 -0.00130268)
(-0.00333064 0 -0.00321836)
(-0.00324214 0 -0.00356256)
(-0.00150605 0 -0.00438131)
(-0.00156321 0 -0.00354836)
(-0.000301113 0 -0.00282049)
(0.00051587 0 -0.0017351)
(0.00112707 0 -0.000942213)
(0.00107217 0 -0.000284581)
(0.000438474 0 -0.000705088)
(0.000410778 0 -0.00155517)
(-1.22625e-06 0 -0.00318203)
(-9.09124e-09 0 2.25717e-07)
(1.05459e-09 0 1.11944e-07)
(1.97344e-09 0 2.80806e-09)
(3.55221e-09 0 2.25898e-09)
(3.17791e-09 0 1.86268e-09)
(2.98e-09 0 1.55667e-09)
(2.8262e-09 0 1.31495e-09)
(2.68848e-09 0 1.12204e-09)
(2.56104e-09 0 9.6688e-10)
(2.44273e-09 0 8.41113e-10)
(2.33312e-09 0 7.38383e-10)
(2.23174e-09 0 6.53851e-10)
(2.13801e-09 0 5.83828e-10)
(2.05124e-09 0 5.25483e-10)
(1.97069e-09 0 4.76624e-10)
(1.89566e-09 0 4.35531e-10)
(1.82549e-09 0 4.0084e-10)
(1.75956e-09 0 3.71457e-10)
(1.69731e-09 0 3.4649e-10)
(1.63827e-09 0 3.25209e-10)
(1.58201e-09 0 3.0701e-10)
(1.52817e-09 0 2.91389e-10)
(1.47644e-09 0 2.77926e-10)
(1.42655e-09 0 2.6627e-10)
(1.37828e-09 0 2.56123e-10)
(1.33144e-09 0 2.47237e-10)
(1.28588e-09 0 2.39405e-10)
(1.24147e-09 0 2.3245e-10)
(1.1981e-09 0 2.26229e-10)
(1.15567e-09 0 2.20617e-10)
(1.11413e-09 0 2.15516e-10)
(1.0734e-09 0 2.1084e-10)
(1.03342e-09 0 2.06522e-10)
(9.94172e-10 0 2.02503e-10)
(9.55601e-10 0 1.98738e-10)
(9.17681e-10 0 1.95189e-10)
(8.80383e-10 0 1.91826e-10)
(8.43684e-10 0 1.88624e-10)
(8.07563e-10 0 1.85564e-10)
(7.72e-10 0 1.82631e-10)
(7.36978e-10 0 1.79813e-10)
(7.02478e-10 0 1.77101e-10)
(6.68486e-10 0 1.74489e-10)
(6.34984e-10 0 1.71972e-10)
(6.01958e-10 0 1.69547e-10)
(5.6939e-10 0 1.67213e-10)
(5.37267e-10 0 1.64969e-10)
(5.0557e-10 0 1.62815e-10)
(4.74284e-10 0 1.60752e-10)
(4.43391e-10 0 1.58781e-10)
(4.12873e-10 0 1.56904e-10)
(3.82713e-10 0 1.55124e-10)
(3.52891e-10 0 1.5344e-10)
(3.23389e-10 0 1.51857e-10)
(2.94185e-10 0 1.50376e-10)
(2.6526e-10 0 1.48998e-10)
(2.36591e-10 0 1.47725e-10)
(2.08158e-10 0 1.46559e-10)
(1.79938e-10 0 1.45501e-10)
(1.51906e-10 0 1.44548e-10)
(1.24038e-10 0 1.43696e-10)
(9.63094e-11 0 1.42937e-10)
(6.86933e-11 0 1.42267e-10)
(4.11665e-11 0 1.41716e-10)
(1.37114e-11 0 1.41553e-10)
(-0.00183755 0 0.00971538)
(-0.00139032 0 0.00790643)
(-0.00236669 0 0.00598258)
(-0.00257541 0 0.00450121)
(-0.00374515 0 0.00234122)
(-0.00343675 0 0.000589229)
(-0.00254797 0 -0.00166841)
(-0.00247225 0 -0.00165349)
(-0.00220203 0 -0.00340646)
(-0.000902465 0 -0.00488186)
(-0.000984613 0 -0.00503724)
(0.00016945 0 -0.0044404)
(0.000167809 0 -0.00363199)
(0.000765046 0 -0.00253899)
(0.0013083 0 -0.00101664)
(0.00116773 0 -9.83126e-05)
(0.000677195 0 -0.000414069)
(0.000337461 0 -0.00144758)
(1.52315e-06 0 -0.00298976)
(-6.19087e-08 0 3.27914e-07)
(6.72586e-10 0 2.15071e-09)
(2.2641e-09 0 3.27383e-09)
(2.74935e-09 0 2.4568e-09)
(2.77134e-09 0 1.99496e-09)
(2.70404e-09 0 1.6728e-09)
(2.61553e-09 0 1.42578e-09)
(2.52092e-09 0 1.22882e-09)
(2.42545e-09 0 1.06887e-09)
(2.33188e-09 0 9.37566e-10)
(2.24178e-09 0 8.28945e-10)
(2.15599e-09 0 7.38527e-10)
(2.07483e-09 0 6.62874e-10)
(1.99828e-09 0 5.99304e-10)
(1.92612e-09 0 5.45698e-10)
(1.85803e-09 0 5.00358e-10)
(1.79361e-09 0 4.61909e-10)
(1.73247e-09 0 4.29224e-10)
(1.67424e-09 0 4.0137e-10)
(1.61856e-09 0 3.77572e-10)
(1.56511e-09 0 3.57178e-10)
(1.51363e-09 0 3.39642e-10)
(1.46388e-09 0 3.24502e-10)
(1.41565e-09 0 3.11369e-10)
(1.36877e-09 0 2.99916e-10)
(1.32309e-09 0 2.89865e-10)
(1.27851e-09 0 2.80985e-10)
(1.23491e-09 0 2.73081e-10)
(1.19222e-09 0 2.6599e-10)
(1.15037e-09 0 2.59578e-10)
(1.1093e-09 0 2.5373e-10)
(1.06897e-09 0 2.48354e-10)
(1.02934e-09 0 2.43373e-10)
(9.90374e-10 0 2.38726e-10)
(9.5205e-10 0 2.34359e-10)
(9.14342e-10 0 2.30232e-10)
(8.7723e-10 0 2.26312e-10)
(8.40695e-10 0 2.22572e-10)
(8.0472e-10 0 2.1899e-10)
(7.6929e-10 0 2.15551e-10)
(7.3439e-10 0 2.12242e-10)
(7.00004e-10 0 2.09053e-10)
(6.6612e-10 0 2.05978e-10)
(6.32723e-10 0 2.03012e-10)
(5.99798e-10 0 2.00152e-10)
(5.67332e-10 0 1.97397e-10)
(5.35307e-10 0 1.94747e-10)
(5.03711e-10 0 1.92202e-10)
(4.72525e-10 0 1.89763e-10)
(4.41733e-10 0 1.87433e-10)
(4.11319e-10 0 1.85212e-10)
(3.81263e-10 0 1.83105e-10)
(3.51548e-10 0 1.81114e-10)
(3.22153e-10 0 1.79241e-10)
(2.93059e-10 0 1.77489e-10)
(2.64245e-10 0 1.7586e-10)
(2.35688e-10 0 1.74357e-10)
(2.07367e-10 0 1.72981e-10)
(1.79259e-10 0 1.71735e-10)
(1.51339e-10 0 1.70617e-10)
(1.23582e-10 0 1.69624e-10)
(9.59601e-11 0 1.6875e-10)
(6.84457e-11 0 1.67989e-10)
(4.1016e-11 0 1.67367e-10)
(1.36601e-11 0 1.67176e-10)
(-0.00161058 0 0.0100934)
(-0.000505912 0 0.00871656)
(-0.0012534 0 0.00703284)
(-0.00218708 0 0.00463472)
(-0.00229117 0 0.00310545)
(-0.00244113 0 0.00110059)
(-0.00169902 0 -0.00186739)
(-0.000549652 0 -0.00261038)
(0.0017649 0 -0.00439382)
(-0.000220506 0 -0.00548397)
(0.000319554 0 -0.00564061)
(0.000870798 0 -0.00490338)
(0.00105229 0 -0.00378754)
(0.000878932 0 -0.00274093)
(0.00144647 0 -0.000884301)
(0.000847318 0 0.000432262)
(0.000276561 0 -6.17708e-05)
(2.71299e-05 0 -0.00152559)
(1.35153e-06 0 -0.00282799)
(1.20614e-09 0 4.58444e-07)
(9.45802e-10 0 2.54305e-09)
(2.08216e-09 0 2.67827e-09)
(2.35399e-09 0 2.34247e-09)
(2.44351e-09 0 2.00456e-09)
(2.44689e-09 0 1.72294e-09)
(2.41037e-09 0 1.49266e-09)
(2.3542e-09 0 1.3031e-09)
(2.28827e-09 0 1.1457e-09)
(2.21802e-09 0 1.01411e-09)
(2.14669e-09 0 9.03531e-10)
(2.07619e-09 0 8.10244e-10)
(2.0076e-09 0 7.31314e-10)
(1.94147e-09 0 6.64379e-10)
(1.87799e-09 0 6.07516e-10)
(1.81716e-09 0 5.59136e-10)
(1.75884e-09 0 5.17916e-10)
(1.70283e-09 0 4.82746e-10)
(1.64891e-09 0 4.52686e-10)
(1.59687e-09 0 4.2694e-10)
(1.54648e-09 0 4.04831e-10)
(1.49758e-09 0 3.85783e-10)
(1.44998e-09 0 3.69306e-10)
(1.40356e-09 0 3.54985e-10)
(1.3582e-09 0 3.42466e-10)
(1.31379e-09 0 3.31453e-10)
(1.27027e-09 0 3.21696e-10)
(1.22755e-09 0 3.12985e-10)
(1.1856e-09 0 3.05144e-10)
(1.14437e-09 0 2.98028e-10)
(1.10382e-09 0 2.91515e-10)
(1.06393e-09 0 2.85506e-10)
(1.02467e-09 0 2.79919e-10)
(9.86016e-10 0 2.74687e-10)
(9.4796e-10 0 2.69756e-10)
(9.10484e-10 0 2.65081e-10)
(8.73574e-10 0 2.60627e-10)
(8.37217e-10 0 2.56367e-10)
(8.01402e-10 0 2.52279e-10)
(7.66118e-10 0 2.48345e-10)
(7.31352e-10 0 2.44554e-10)
(6.97094e-10 0 2.40895e-10)
(6.63331e-10 0 2.37361e-10)
(6.3005e-10 0 2.33949e-10)
(5.9724e-10 0 2.30656e-10)
(5.64886e-10 0 2.27482e-10)
(5.32975e-10 0 2.24425e-10)
(5.01492e-10 0 2.21488e-10)
(4.70422e-10 0 2.18672e-10)
(4.39747e-10 0 2.1598e-10)
(4.09451e-10 0 2.13415e-10)
(3.79517e-10 0 2.1098e-10)
(3.49925e-10 0 2.08679e-10)
(3.20656e-10 0 2.06514e-10)
(2.9169e-10 0 2.0449e-10)
(2.63005e-10 0 2.02609e-10)
(2.34579e-10 0 2.00874e-10)
(2.06391e-10 0 1.99288e-10)
(1.78415e-10 0 1.97853e-10)
(1.50628e-10 0 1.96571e-10)
(1.23003e-10 0 1.95439e-10)
(9.55112e-11 0 1.94454e-10)
(6.81239e-11 0 1.93605e-10)
(4.08281e-11 0 1.92906e-10)
(1.36016e-11 0 1.92696e-10)
(-0.00118255 0 0.0107564)
(-0.00228353 0 0.00907559)
(-0.000455115 0 0.00724015)
(-0.00162314 0 0.00475442)
(-0.00078351 0 0.00275703)
(-0.00104907 0 0.00142501)
(-0.000539478 0 -0.002952)
(-0.000639006 0 -0.00424067)
(0.00204031 0 -0.00496935)
(0.0022259 0 -0.00586705)
(0.00229155 0 -0.00568883)
(0.00209363 0 -0.00495269)
(0.0017958 0 -0.00375028)
(0.00138232 0 -0.0022475)
(0.00129966 0 -0.000181105)
(0.00074443 0 0.000660014)
(0.000384364 0 0.000279446)
(8.13566e-05 0 -0.00145673)
(1.91356e-06 0 -0.00261443)
(2.51881e-09 0 8.83305e-07)
(1.04569e-09 0 2.69902e-09)
(2.0779e-09 0 2.49687e-09)
(2.11918e-09 0 2.2302e-09)
(2.19163e-09 0 1.96483e-09)
(2.22499e-09 0 1.72807e-09)
(2.2226e-09 0 1.52386e-09)
(2.19616e-09 0 1.34919e-09)
(2.15493e-09 0 1.19991e-09)
(2.10516e-09 0 1.07224e-09)
(2.05089e-09 0 9.62951e-10)
(1.99472e-09 0 8.69369e-10)
(1.93822e-09 0 7.89232e-10)
(1.88232e-09 0 7.2062e-10)
(1.82753e-09 0 6.61891e-10)
(1.77408e-09 0 6.1163e-10)
(1.72203e-09 0 5.68614e-10)
(1.67134e-09 0 5.31781e-10)
(1.62194e-09 0 5.00213e-10)
(1.57371e-09 0 4.73112e-10)
(1.52655e-09 0 4.49792e-10)
(1.48036e-09 0 4.29661e-10)
(1.43505e-09 0 4.1221e-10)
(1.39054e-09 0 3.97007e-10)
(1.34678e-09 0 3.83684e-10)
(1.30372e-09 0 3.71928e-10)
(1.26131e-09 0 3.61477e-10)
(1.21953e-09 0 3.52111e-10)
(1.17836e-09 0 3.43648e-10)
(1.13778e-09 0 3.35934e-10)
(1.09777e-09 0 3.28844e-10)
(1.05834e-09 0 3.22274e-10)
(1.01946e-09 0 3.16139e-10)
(9.81139e-10 0 3.1037e-10)
(9.43364e-10 0 3.04912e-10)
(9.06131e-10 0 2.9972e-10)
(8.69434e-10 0 2.94759e-10)
(8.33267e-10 0 2.89999e-10)
(7.97622e-10 0 2.85419e-10)
(7.62494e-10 0 2.81003e-10)
(7.27873e-10 0 2.76738e-10)
(6.93752e-10 0 2.72615e-10)
(6.6012e-10 0 2.68627e-10)
(6.26968e-10 0 2.64772e-10)
(5.94284e-10 0 2.61048e-10)
(5.62056e-10 0 2.57453e-10)
(5.30271e-10 0 2.5399e-10)
(4.98915e-10 0 2.5066e-10)
(4.67973e-10 0 2.47465e-10)
(4.3743e-10 0 2.4441e-10)
(4.07269e-10 0 2.41498e-10)
(3.77472e-10 0 2.38732e-10)
(3.48021e-10 0 2.36118e-10)
(3.18895e-10 0 2.3366e-10)
(2.90075e-10 0 2.31361e-10)
(2.61539e-10 0 2.29226e-10)
(2.33265e-10 0 2.27258e-10)
(2.05229e-10 0 2.2546e-10)
(1.77408e-10 0 2.23837e-10)
(1.49776e-10 0 2.2239e-10)
(1.22306e-10 0 2.2112e-10)
(9.49691e-11 0 2.20025e-10)
(6.77397e-11 0 2.19087e-10)
(4.06022e-11 0 2.18305e-10)
(1.35276e-11 0 2.18093e-10)
(-0.000972364 0 0.0119877)
(-0.000294016 0 0.00965202)
(-0.00166547 0 0.00670026)
(-0.000484755 0 0.00472764)
(-0.000347755 0 0.00283049)
(0.00143515 0 -0.00134607)
(0.00257774 0 -0.00206043)
(0.00472611 0 -0.00203047)
(0.00602494 0 -0.00317744)
(0.00442409 0 -0.00544737)
(0.00404685 0 -0.00518923)
(0.00315007 0 -0.00453678)
(0.00241516 0 -0.00349192)
(0.00166367 0 -0.00149023)
(0.000659317 0 0.000749134)
(0.000259762 0 0.0010528)
(-0.000118635 0 0.000429095)
(-1.47961e-05 0 -0.0017729)
(-6.18406e-07 0 -0.00246336)
(3.93145e-10 0 1.98377e-09)
(1.14769e-09 0 2.77542e-09)
(1.64537e-09 0 2.3725e-09)
(1.85729e-09 0 2.11709e-09)
(1.97433e-09 0 1.90017e-09)
(2.03467e-09 0 1.70476e-09)
(2.05607e-09 0 1.52922e-09)
(2.05119e-09 0 1.37305e-09)
(2.02915e-09 0 1.23521e-09)
(1.99627e-09 0 1.11425e-09)
(1.9568e-09 0 1.00861e-09)
(1.91355e-09 0 9.16714e-10)
(1.86831e-09 0 8.37048e-10)
(1.8222e-09 0 7.68196e-10)
(1.77589e-09 0 7.0884e-10)
(1.72977e-09 0 6.5777e-10)
(1.68401e-09 0 6.13885e-10)
(1.63872e-09 0 5.76195e-10)
(1.59392e-09 0 5.43815e-10)
(1.54961e-09 0 5.15962e-10)
(1.50576e-09 0 4.91949e-10)
(1.46237e-09 0 4.71178e-10)
(1.4194e-09 0 4.53133e-10)
(1.37687e-09 0 4.3737e-10)
(1.33475e-09 0 4.23514e-10)
(1.29306e-09 0 4.11244e-10)
(1.25179e-09 0 4.00292e-10)
(1.21097e-09 0 3.90432e-10)
(1.17059e-09 0 3.81479e-10)
(1.13067e-09 0 3.73278e-10)
(1.09123e-09 0 3.65701e-10)
(1.05226e-09 0 3.58644e-10)
(1.01377e-09 0 3.52022e-10)
(9.75784e-10 0 3.45766e-10)
(9.38296e-10 0 3.39821e-10)
(9.01312e-10 0 3.34144e-10)
(8.64833e-10 0 3.28699e-10)
(8.28861e-10 0 3.23459e-10)
(7.93393e-10 0 3.18403e-10)
(7.58427e-10 0 3.13516e-10)
(7.23959e-10 0 3.08785e-10)
(6.89983e-10 0 3.04204e-10)
(6.56492e-10 0 2.99767e-10)
(6.23477e-10 0 2.95471e-10)
(5.9093e-10 0 2.91315e-10)
(5.58839e-10 0 2.87301e-10)
(5.27192e-10 0 2.8343e-10)
(4.95976e-10 0 2.79704e-10)
(4.65178e-10 0 2.76129e-10)
(4.34781e-10 0 2.72708e-10)
(4.0477e-10 0 2.69445e-10)
(3.75126e-10 0 2.66346e-10)
(3.45832e-10 0 2.63416e-10)
(3.16868e-10 0 2.60661e-10)
(2.88213e-10 0 2.58085e-10)
(2.59846e-10 0 2.55692e-10)
(2.31743e-10 0 2.53489e-10)
(2.03882e-10 0 2.51479e-10)
(1.76237e-10 0 2.49665e-10)
(1.48783e-10 0 2.48052e-10)
(1.21494e-10 0 2.46643e-10)
(9.43416e-11 0 2.45435e-10)
(6.7297e-11 0 2.44408e-10)
(4.03322e-11 0 2.43556e-10)
(1.34333e-11 0 2.43332e-10)
(-0.00123726 0 0.0124341)
(0.000886202 0 0.00967719)
(-0.000508837 0 0.00666659)
(0.000341481 0 0.00424776)
(0.000571676 0 0.00153558)
(0.00210029 0 -0.000507317)
(0.00253539 0 -0.00356267)
(0.00314048 0 -0.00598419)
(0.00430037 0 -0.00655028)
(0.0048233 0 -0.00590626)
(0.00463102 0 -0.00512607)
(0.00417095 0 -0.00372102)
(0.00292803 0 -0.0030566)
(0.00153139 0 -0.000459848)
(0.000699554 0 0.00108785)
(0.000534407 0 0.00126086)
(3.2554e-05 0 0.000631439)
(6.41178e-05 0 -0.00178521)
(3.78282e-06 0 -0.00229818)
(4.64152e-10 0 2.29806e-09)
(1.13183e-09 0 2.25049e-09)
(1.46436e-09 0 2.11904e-09)
(1.67902e-09 0 1.97055e-09)
(1.80702e-09 0 1.81689e-09)
(1.87867e-09 0 1.6642e-09)
(1.91271e-09 0 1.5177e-09)
(1.92134e-09 0 1.38093e-09)
(1.91293e-09 0 1.25576e-09)
(1.89319e-09 0 1.14288e-09)
(1.86605e-09 0 1.04225e-09)
(1.83413e-09 0 9.53352e-10)
(1.79917e-09 0 8.75395e-10)
(1.76225e-09 0 8.07453e-10)
(1.72409e-09 0 7.48527e-10)
(1.68511e-09 0 6.9761e-10)
(1.64558e-09 0 6.53724e-10)
(1.60566e-09 0 6.15951e-10)
(1.56547e-09 0 5.83443e-10)
(1.52509e-09 0 5.55438e-10)
(1.48457e-09 0 5.31254e-10)
(1.44398e-09 0 5.10295e-10)
(1.40338e-09 0 4.92042e-10)
(1.36281e-09 0 4.7605e-10)
(1.32234e-09 0 4.6194e-10)
(1.28202e-09 0 4.4939e-10)
(1.2419e-09 0 4.38133e-10)
(1.20202e-09 0 4.27943e-10)
(1.16242e-09 0 4.18636e-10)
(1.12316e-09 0 4.10059e-10)
(1.08426e-09 0 4.02086e-10)
(1.04575e-09 0 3.94616e-10)
(1.00765e-09 0 3.87567e-10)
(9.69993e-10 0 3.80873e-10)
(9.32789e-10 0 3.74481e-10)
(8.96051e-10 0 3.68349e-10)
(8.59791e-10 0 3.62445e-10)
(8.24015e-10 0 3.56743e-10)
(7.88726e-10 0 3.51225e-10)
(7.53927e-10 0 3.45877e-10)
(7.19617e-10 0 3.4069e-10)
(6.85792e-10 0 3.35655e-10)
(6.52449e-10 0 3.30771e-10)
(6.19581e-10 0 3.26036e-10)
(5.87179e-10 0 3.21449e-10)
(5.55235e-10 0 3.17014e-10)
(5.23738e-10 0 3.12733e-10)
(4.92675e-10 0 3.0861e-10)
(4.62032e-10 0 3.0465e-10)
(4.31796e-10 0 3.00859e-10)
(4.0195e-10 0 2.97242e-10)
(3.72476e-10 0 2.93806e-10)
(3.43357e-10 0 2.90556e-10)
(3.14572e-10 0 2.875e-10)
(2.86102e-10 0 2.84642e-10)
(2.57923e-10 0 2.8199e-10)
(2.30013e-10 0 2.79548e-10)
(2.02347e-10 0 2.77322e-10)
(1.74901e-10 0 2.75316e-10)
(1.47649e-10 0 2.73536e-10)
(1.20565e-10 0 2.71984e-10)
(9.36222e-11 0 2.70659e-10)
(6.6788e-11 0 2.69547e-10)
(4.00211e-11 0 2.68642e-10)
(1.33246e-11 0 2.68381e-10)
(-0.00118394 0 0.0122244)
(0.0010307 0 0.00958035)
(0.000384628 0 0.00655113)
(0.000486907 0 0.0042503)
(0.00206665 0 -0.000513551)
(0.00267136 0 -0.0021833)
(0.00382216 0 -0.0041653)
(0.0059503 0 -0.00476291)
(0.00613495 0 -0.00546918)
(0.00582432 0 -0.00538472)
(0.00518824 0 -0.00489377)
(0.00434448 0 -0.00361349)
(0.00344661 0 -0.00183263)
(0.0011884 0 0.000936219)
(0.000283641 0 0.00170036)
(0.000509389 0 0.00164042)
(-2.3625e-05 0 0.000728588)
(0.000120046 0 -0.00183743)
(0.000121863 0 -0.00223358)
(3.58418e-10 0 1.79573e-09)
(9.91167e-10 0 1.80537e-09)
(1.38713e-09 0 1.88125e-09)
(1.57701e-09 0 1.82903e-09)
(1.6893e-09 0 1.73308e-09)
(1.75578e-09 0 1.61844e-09)
(1.7917e-09 0 1.49782e-09)
(1.80652e-09 0 1.37874e-09)
(1.80667e-09 0 1.26559e-09)
(1.79662e-09 0 1.16083e-09)
(1.7795e-09 0 1.06565e-09)
(1.75739e-09 0 9.8042e-10)
(1.73172e-09 0 9.04981e-10)
(1.70339e-09 0 8.38818e-10)
(1.67299e-09 0 7.81201e-10)
(1.64093e-09 0 7.31289e-10)
(1.60747e-09 0 6.88205e-10)
(1.57283e-09 0 6.51087e-10)
(1.53718e-09 0 6.1912e-10)
(1.50067e-09 0 5.91556e-10)
(1.46343e-09 0 5.67724e-10)
(1.4256e-09 0 5.4703e-10)
(1.3873e-09 0 5.28958e-10)
(1.34867e-09 0 5.13068e-10)
(1.3098e-09 0 4.98984e-10)
(1.2708e-09 0 4.8639e-10)
(1.23178e-09 0 4.75023e-10)
(1.19281e-09 0 4.64665e-10)
(1.15397e-09 0 4.55137e-10)
(1.11533e-09 0 4.46292e-10)
(1.07695e-09 0 4.38013e-10)
(1.03888e-09 0 4.30203e-10)
(1.00115e-09 0 4.22785e-10)
(9.63806e-10 0 4.15699e-10)
(9.26874e-10 0 4.08896e-10)
(8.90376e-10 0 4.02339e-10)
(8.54328e-10 0 3.95998e-10)
(8.18745e-10 0 3.89852e-10)
(7.83634e-10 0 3.83885e-10)
(7.49002e-10 0 3.78086e-10)
(7.14852e-10 0 3.72447e-10)
(6.81183e-10 0 3.66963e-10)
(6.47993e-10 0 3.61634e-10)
(6.15278e-10 0 3.56459e-10)
(5.83031e-10 0 3.51441e-10)
(5.51243e-10 0 3.46582e-10)
(5.19906e-10 0 3.41888e-10)
(4.89007e-10 0 3.37364e-10)
(4.58534e-10 0 3.33016e-10)
(4.28472e-10 0 3.2885e-10)
(3.98806e-10 0 3.24874e-10)
(3.69518e-10 0 3.21096e-10)
(3.40591e-10 0 3.17521e-10)
(3.12004e-10 0 3.14159e-10)
(2.83736e-10 0 3.11016e-10)
(2.55766e-10 0 3.08098e-10)
(2.2807e-10 0 3.05414e-10)
(2.00623e-10 0 3.02969e-10)
(1.73399e-10 0 3.00768e-10)
(1.46373e-10 0 2.98818e-10)
(1.19516e-10 0 2.97121e-10)
(9.28031e-11 0 2.95676e-10)
(6.62034e-11 0 2.94476e-10)
(3.96721e-11 0 2.93532e-10)
(1.32084e-11 0 2.93219e-10)
(-0.00107635 0 0.0118319)
(0.00128217 0 0.00929331)
(0.000726099 0 0.00626703)
(0.000534271 0 0.00456321)
(0.002713 0 -0.00128018)
(0.00327342 0 -0.00293911)
(0.00397463 0 -0.00561321)
(0.00501528 0 -0.00668786)
(0.00580808 0 -0.00604228)
(0.0053017 0 -0.00578109)
(0.00545454 0 -0.00375015)
(0.00497315 0 -0.0021348)
(0.00312754 0 -0.000355068)
(0.000673729 0 0.00199882)
(0.00144065 0 0.00212609)
(-0.000346055 0 0.00210322)
(6.83208e-06 0 0.000779823)
(-0.000523595 0 -0.00191671)
(-0.000126622 0 -0.00226444)
(8.66517e-07 0 5.83077e-05)
(7.38754e-10 0 1.89604e-09)
(1.49085e-09 0 1.75681e-09)
(1.54313e-09 0 1.72645e-09)
(1.61179e-09 0 1.66603e-09)
(1.65975e-09 0 1.57817e-09)
(1.68923e-09 0 1.47675e-09)
(1.70458e-09 0 1.37146e-09)
(1.70936e-09 0 1.26817e-09)
(1.70628e-09 0 1.17046e-09)
(1.6973e-09 0 1.08037e-09)
(1.68378e-09 0 9.9894e-10)
(1.6666e-09 0 9.26461e-10)
(1.64632e-09 0 8.62709e-10)
(1.62334e-09 0 8.07131e-10)
(1.59795e-09 0 7.58988e-10)
(1.57038e-09 0 7.17457e-10)
(1.54087e-09 0 6.81706e-10)
(1.50963e-09 0 6.50933e-10)
(1.47686e-09 0 6.24398e-10)
(1.44279e-09 0 6.01435e-10)
(1.40761e-09 0 5.81455e-10)
(1.37153e-09 0 5.63951e-10)
(1.33472e-09 0 5.48491e-10)
(1.29736e-09 0 5.34708e-10)
(1.25961e-09 0 5.22299e-10)
(1.22161e-09 0 5.11012e-10)
(1.18348e-09 0 5.00642e-10)
(1.14534e-09 0 4.91021e-10)
(1.10727e-09 0 4.82013e-10)