/*--------------------------------*- C++ -*----------------------------------*\
  =========                 |
  \\      /  F ield         | OpenFOAM: The Open Source CFD Toolbox
   \\    /   O peration     | Website:  https://openfoam.org
    \\  /    A nd           | Version:  6
     \\/     M anipulation  |
\*---------------------------------------------------------------------------*/
FoamFile
{
    version     2.0;
    format      ascii;
    class       surfaceScalarField;
    location    "1300";
    object      phi;
}
// * * * * * * * * * * * * * * * * * * * * * * * * * * * * * * * * * * * * * //

dimensions      [0 3 -1 0 0 0 0];

internalField   nonuniform List<scalar> 
9440
(
-6.05446e-11
6.05446e-11
-4.5169e-11
-1.53773e-11
1.7118e-11
-6.22882e-11
7.39612e-11
-5.68441e-11
2.38879e-10
-1.64918e-10
2.12728e-10
2.61505e-11
3.5083e-10
-1.38102e-10
6.04921e-10
-2.5409e-10
8.15819e-10
-2.10897e-10
1.03881e-09
-2.22989e-10
1.13402e-09
-9.52075e-11
1.2156e-09
-8.1581e-11
1.32757e-09
-1.11971e-10
1.40924e-09
-8.16702e-11
1.45053e-09
-4.12853e-11
1.50284e-09
-5.23071e-11
1.5659e-09
-6.30606e-11
1.60312e-09
-3.72178e-11
1.61978e-09
-1.66563e-11
1.63808e-09
-1.83047e-11
1.67267e-09
-3.45804e-11
1.70275e-09
-3.00826e-11
1.7348e-09
-3.20457e-11
1.78394e-09
-4.91395e-11
1.80418e-09
-2.02377e-11
1.85443e-09
-5.02433e-11
1.89685e-09
-4.24214e-11
1.91705e-09
-2.01883e-11
1.93094e-09
-1.38931e-11
1.93781e-09
-6.86288e-12
1.95553e-09
-1.77169e-11
1.97088e-09
-1.53482e-11
1.9921e-09
-2.12129e-11
2.01841e-09
-2.63092e-11
2.07306e-09
-5.46547e-11
2.0893e-09
-1.62372e-11
2.0926e-09
-3.30856e-12
2.13047e-09
-3.78724e-11
2.15031e-09
-1.9843e-11
2.16779e-09
-1.74839e-11
2.19357e-09
-2.57801e-11
2.23418e-09
-4.06167e-11
2.26053e-09
-2.63497e-11
2.27714e-09
-1.6607e-11
2.29815e-09
-2.1011e-11
2.30748e-09
-9.3336e-12
2.31186e-09
-4.38021e-12
2.31828e-09
-6.41935e-12
2.33011e-09
-1.18233e-11
2.328e-09
2.10702e-12
2.33665e-09
-8.6497e-12
2.36499e-09
-2.83453e-11
2.38414e-09
-1.91463e-11
2.38914e-09
-5.00776e-12
2.38668e-09
2.452e-12
2.38246e-09
4.22392e-12
2.36913e-09
1.33266e-11
2.35235e-09
1.67832e-11
2.32419e-09
2.81531e-11
2.3081e-09
1.61005e-11
2.26523e-09
4.28718e-11
2.25028e-09
1.4949e-11
2.17967e-09
7.06107e-11
2.15665e-09
2.30254e-11
2.06596e-09
9.06956e-11
2.02963e-09
3.63305e-11
1.9222e-09
1.07431e-10
1.86553e-09
5.66727e-11
1.75025e-09
1.15281e-10
1.68434e-09
6.58993e-11
1.55476e-09
1.29579e-10
1.45066e-09
1.04102e-10
1.31589e-09
1.34763e-10
1.22849e-09
8.73977e-11
1.02752e-09
2.0097e-10
8.16859e-10
2.10666e-10
5.74208e-10
2.42652e-10
3.02345e-10
2.71863e-10
1.83419e-10
1.18926e-10
1.33046e-10
5.03731e-11
1.19529e-14
1.33027e-10
-1.68282e-18
2.12735e-19
-1.74306e-18
6.02368e-20
-1.7292e-18
-1.45237e-20
-1.6635e-18
-6.36066e-20
-1.56003e-18
-1.01391e-19
-1.42664e-18
-1.31809e-19
-1.26955e-18
-1.55721e-19
-1.09489e-18
-1.73477e-19
-9.08818e-19
-1.85341e-19
-7.17084e-19
-1.91567e-19
-5.2478e-19
-1.92546e-19
-3.36328e-19
-1.88855e-19
-1.55521e-19
-1.81159e-19
1.45265e-20
-1.70133e-19
1.71353e-19
-1.56439e-19
3.13065e-19
-1.40737e-19
4.38354e-19
-1.23682e-19
5.46569e-19
-1.05919e-19
6.37687e-19
-8.80782e-20
7.12075e-19
-7.06831e-20
7.70205e-19
-5.404e-20
8.12561e-19
-3.82266e-20
8.39696e-19
-2.32395e-20
8.52227e-19
-9.14355e-21
8.50814e-19
3.92958e-21
8.36248e-19
1.58799e-20
8.09605e-19
2.66936e-20
7.72285e-19
3.63925e-20
7.25849e-19
4.4969e-20
6.71809e-19
5.24029e-20
6.1152e-19
5.87384e-20
5.46161e-19
6.41283e-20
4.76703e-19
6.87798e-20
4.0382e-19
7.28351e-20
3.27849e-19
7.62718e-20
2.48912e-19
7.89064e-20
1.67255e-19
8.05005e-20
8.36712e-20
8.08783e-20
7.97685e-20
-4.68303e-12
6.52257e-11
1.19289e-11
-3.19911e-11
4.74387e-11
-9.7799e-11
1.14153e-10
-1.23559e-10
2.28272e-10
-2.79036e-10
4.41879e-10
-1.87456e-10
4.78927e-10
-1.75149e-10
6.42902e-10
-4.18064e-10
8.21459e-10
-3.89452e-10
9.58164e-10
-3.59692e-10
1.09706e-09
-2.341e-10
1.18411e-09
-1.68634e-10
1.26431e-09
-1.92169e-10
1.34982e-09
-1.6718e-10
1.41716e-09
-1.08618e-10
1.48874e-09
-1.23885e-10
1.51307e-09
-8.73853e-11
1.53544e-09
-5.95909e-11
1.56054e-09
-4.17513e-11
1.59444e-09
-5.22002e-11
1.64092e-09
-8.10536e-11
1.67571e-09
-6.48764e-11
1.70756e-09
-6.38824e-11
1.73338e-09
-7.49595e-11
1.74215e-09
-2.89961e-11
1.77209e-09
-8.01823e-11
1.79291e-09
-6.32313e-11
1.81132e-09
-3.85857e-11
1.83432e-09
-3.68922e-11
1.86417e-09
-3.67092e-11
1.89924e-09
-5.27766e-11
1.87556e-09
8.33589e-12
1.93094e-09
-7.65995e-11
1.97119e-09
-6.65608e-11
2.01505e-09
-9.85116e-11
2.03775e-09
-3.89433e-11
2.05987e-09
-2.54316e-11
2.08978e-09
-6.77943e-11
2.09678e-09
-2.68421e-11
2.10244e-09
-2.31566e-11
2.11811e-09
-4.14535e-11
2.16065e-09
-8.31508e-11
2.19033e-09
-5.60337e-11
2.22146e-09
-4.77347e-11
2.23327e-09
-3.28185e-11
2.23754e-09
-1.36054e-11
2.21305e-09
2.01023e-11
2.23376e-09
-2.71261e-11
2.24893e-09
-2.69935e-11
2.28704e-09
-3.60095e-11
2.29463e-09
-1.62414e-11
2.28182e-09
-1.55394e-11
2.28212e-09
-1.94534e-11
2.2886e-09
-1.14874e-11
2.27936e-09
1.16839e-11
2.2641e-09
1.94824e-11
2.25372e-09
2.37133e-11
2.22993e-09
4.05713e-11
2.21909e-09
3.89929e-11
2.1906e-09
4.46023e-11
2.16475e-09
6.87231e-11
2.12577e-09
5.39322e-11
2.07217e-09
1.24223e-10
2.04066e-09
5.45425e-11
1.98063e-09
1.50725e-10
1.91106e-09
1.05902e-10
1.87448e-09
1.44012e-10
1.76697e-09
1.64176e-10
1.71948e-09
1.62764e-10
1.57777e-09
2.07603e-10
1.53181e-09
1.75542e-10
1.37818e-09
2.57725e-10
1.31518e-09
1.97766e-10
1.16072e-09
2.4186e-10
1.00017e-09
3.61524e-10
9.65753e-10
2.45078e-10
6.95317e-10
5.13087e-10
5.81563e-10
3.85619e-10
3.30998e-10
3.69497e-10
5.773e-11
3.23659e-10
-7.16657e-16
1.90803e-10
-1.83423e-18
1.44032e-19
-1.81678e-18
5.03587e-20
-1.77728e-18
-4.99127e-20
-1.70113e-18
-1.37259e-19
-1.59045e-18
-2.10312e-19
-1.45056e-18
-2.7052e-19
-1.28731e-18
-3.1818e-19
-1.10676e-18
-3.53417e-19
-9.15044e-19
-3.76546e-19
-7.18063e-19
-3.88146e-19
-5.21088e-19
-3.89096e-19
-3.28633e-19
-3.80549e-19
-1.44495e-19
-3.6387e-19
2.82204e-20
-3.40542e-19
1.87055e-19
-3.12076e-19
3.30121e-19
-2.79916e-19
4.56116e-19
-2.45396e-19
5.6441e-19
-2.09725e-19
6.55082e-19
-1.73983e-19
7.28718e-19
-1.39071e-19
7.86018e-19
-1.05628e-19
8.27548e-19
-7.40168e-20
8.53792e-19
-4.43942e-20
8.653e-19
-1.68023e-20
8.62765e-19
8.76233e-21
8.47061e-19
3.22898e-20
8.19304e-19
5.37208e-20
7.80862e-19
7.29693e-20
7.33283e-19
9.00005e-20
6.78145e-19
1.04897e-19
6.1691e-19
1.17838e-19
5.50813e-19
1.29003e-19
4.80758e-19
1.38469e-19
4.07257e-19
1.46186e-19
3.30483e-19
1.52052e-19
2.50506e-19
1.56047e-19
1.67633e-19
1.58346e-19
8.25615e-20
1.59388e-19
1.60007e-19
-1.13623e-11
7.65868e-11
2.40267e-11
-6.73805e-11
7.93591e-11
-1.53131e-10
1.64305e-10
-2.08504e-10
1.75689e-10
-2.9042e-10
4.01852e-10
-4.13618e-10
5.38806e-10
-3.12101e-10
6.46293e-10
-5.25549e-10
7.52973e-10
-4.9613e-10
8.98307e-10
-5.05024e-10
1.03007e-09
-3.6586e-10
1.12466e-09
-2.63222e-10
1.23613e-09
-3.03642e-10
1.31894e-09
-2.49985e-10
1.37731e-09
-1.66985e-10
1.37441e-09
-1.20979e-10
1.3663e-09
-7.928e-11
1.37131e-09
-6.45921e-11
1.39132e-09
-6.17573e-11
1.4135e-09
-7.43844e-11
1.4207e-09
-8.82481e-11
1.44021e-09
-8.4378e-11
1.45494e-09
-7.86117e-11
1.50088e-09
-1.20897e-10
1.55055e-09
-7.86581e-11
1.58801e-09
-1.17639e-10
1.59366e-09
-6.88736e-11
1.6384e-09
-8.3314e-11
1.6278e-09
-2.62864e-11
1.67574e-09
-8.46468e-11
1.71392e-09
-9.09589e-11
1.69409e-09
2.81772e-11
1.75352e-09
-1.36031e-10
1.78731e-09
-1.00353e-10
1.82367e-09
-1.34882e-10
1.87672e-09
-9.19921e-11
1.92188e-09
-7.05999e-11
1.92863e-09
-7.45409e-11
1.92662e-09
-2.48418e-11
1.93868e-09
-3.52154e-11
1.95832e-09
-6.10961e-11
1.98914e-09
-1.13974e-10
2.0142e-09
-8.10965e-11
2.02537e-09
-5.89055e-11
2.04745e-09
-5.49022e-11
2.07381e-09
-3.99636e-11
2.10313e-09
-9.21302e-12
2.11116e-09
-3.51618e-11
2.13645e-09
-5.2283e-11
2.15228e-09
-5.1844e-11
2.15415e-09
-1.81155e-11
2.16121e-09
-2.25945e-11
2.13336e-09
8.38488e-12
2.1314e-09
-9.53057e-12
2.13632e-09
6.76764e-12
2.13608e-09
1.97176e-11
2.12553e-09
3.42598e-11
2.11175e-09
5.43544e-11
2.09498e-09
5.57706e-11
2.05113e-09
8.84537e-11
2.05668e-09
6.31752e-11
1.98538e-09
1.25239e-10
1.98003e-09
1.29575e-10
1.87593e-09
1.58639e-10
1.87789e-09
1.4877e-10
1.75638e-09
2.27414e-10
1.73335e-09
1.67039e-10
1.63137e-09
2.6615e-10
1.56826e-09
2.25878e-10
1.49632e-09
2.79535e-10
1.33841e-09
3.33457e-10
1.38911e-09
2.07024e-10
1.26443e-09
3.2245e-10
1.09748e-09
4.08802e-10
1.00531e-09
4.537e-10
9.15169e-10
3.35217e-10
7.76834e-10
6.51422e-10
5.71836e-10
5.90614e-10
3.35749e-10
6.05575e-10
8.55602e-11
5.73829e-10
1.94514e-16
2.76354e-10
-1.92682e-18
1.93933e-19
-1.91601e-18
4.10703e-20
-1.86362e-18
-1.01064e-19
-1.77406e-18
-2.2652e-19
-1.65066e-18
-3.34101e-19
-1.49822e-18
-4.23417e-19
-1.32254e-18
-4.93677e-19
-1.12989e-18
-5.44833e-19
-9.26645e-19
-5.77452e-19
-7.19012e-19
-5.92572e-19
-5.12542e-19
-5.91713e-19
-3.11953e-19
-5.76869e-19
-1.21167e-19
-5.50348e-19
5.66868e-20
-5.14529e-19
2.19214e-19
-4.71614e-19
3.6464e-19
-4.2349e-19
4.91788e-19
-3.71753e-19
6.00152e-19
-3.17873e-19
6.89994e-19
-2.63361e-19
7.62161e-19
-2.09721e-19
8.1763e-19
-1.58182e-19
8.57171e-19
-1.09502e-19
8.81384e-19
-6.40338e-20
8.90865e-19
-2.19203e-20
8.86292e-19
1.67613e-20
8.68492e-19
5.19807e-20
8.38552e-19
8.37775e-20
7.97893e-19
1.12256e-19
7.48179e-19
1.37556e-19
6.91085e-19
1.59821e-19
6.28075e-19
1.79171e-19
5.60279e-19
1.95681e-19
4.88475e-19
2.09383e-19
4.13123e-19
2.20304e-19
3.34477e-19
2.28534e-19
2.52806e-19
2.34316e-19
1.68675e-19
2.38099e-19
8.318e-20
2.40506e-19
2.42069e-19
3.57109e-11
4.08754e-11
3.243e-11
-6.40986e-11
6.82409e-11
-1.88941e-10
1.49716e-10
-2.89978e-10
2.07602e-10
-3.48304e-10
2.86456e-10
-4.9247e-10
4.86685e-10
-5.12328e-10
5.84675e-10
-6.23537e-10
6.76448e-10
-5.87902e-10
7.79945e-10
-6.0852e-10
8.69957e-10
-4.5587e-10
9.67411e-10
-3.60675e-10
1.08817e-09
-4.24404e-10
1.10305e-09
-2.64853e-10
1.13319e-09
-1.97129e-10
1.14443e-09
-1.32213e-10
1.14376e-09
-7.86077e-11
1.15446e-09
-7.52942e-11
1.17556e-09
-8.2855e-11
1.19801e-09
-9.68324e-11
1.19527e-09
-8.54986e-11
1.20901e-09
-9.81163e-11
1.22854e-09
-9.81364e-11
1.23534e-09
-1.27696e-10
1.28611e-09
-1.29416e-10
1.30286e-09
-1.34389e-10
1.32591e-09
-9.19154e-11
1.36978e-09
-1.27178e-10
1.37197e-09
-2.84778e-11
1.43941e-09
-1.52075e-10
1.40891e-09
-6.04637e-11
1.49107e-09
-5.3978e-11
1.55229e-09
-1.97256e-10
1.53238e-09
-8.04361e-11
1.63069e-09
-2.33202e-10
1.62601e-09
-8.73067e-11
1.68811e-09
-1.32708e-10
1.72514e-09
-1.11571e-10
1.71272e-09
-1.24309e-11
1.71423e-09
-3.67216e-11
1.7386e-09
-8.54743e-11
1.7729e-09
-1.48275e-10
1.82871e-09
-1.36903e-10
1.88535e-09
-1.15553e-10
1.90297e-09
-7.25195e-11
1.94341e-09
-8.04011e-11
1.98212e-09
-4.79335e-11
2.01271e-09
-6.57486e-11
2.05728e-09
-9.68556e-11
2.07377e-09
-6.83313e-11
2.07065e-09
-1.50049e-11
2.06301e-09
-1.49518e-11
2.05697e-09
1.4419e-11
2.04761e-09
-1.69679e-13
2.03713e-09
1.7243e-11
2.04677e-09
1.00813e-11
2.03275e-09
4.8279e-11
2.01917e-09
6.79295e-11
1.98314e-09
9.18111e-11
1.96017e-09
1.11423e-10
1.92026e-09
1.03086e-10
1.87214e-09
1.73362e-10
1.85238e-09
1.49329e-10
1.7668e-09
2.44216e-10
1.75041e-09
1.65167e-10
1.69166e-09
2.86157e-10
1.58581e-09
2.72895e-10
1.58033e-09
2.71628e-10
1.54842e-09
2.57793e-10
1.40078e-09
4.27177e-10
1.24834e-09
4.8589e-10
1.25229e-09
2.03082e-10
1.12987e-09
4.4487e-10
1.04308e-09
4.95586e-10
9.07087e-10
5.89696e-10
7.24016e-10
5.18288e-10
6.1224e-10
7.63198e-10
4.44183e-10
7.58675e-10
2.90385e-10
7.59378e-10
2.18399e-10
6.45812e-10
1.66092e-15
4.94748e-10
-2.07859e-18
3.78543e-19
-2.0571e-18
1.93972e-20
-1.98809e-18
-1.71269e-19
-1.88158e-18
-3.34186e-19
-1.73998e-18
-4.76812e-19
-1.56848e-18
-5.95609e-19
-1.3737e-18
-6.88054e-19
-1.16251e-18
-7.53895e-19
-9.41764e-19
-7.94259e-19
-7.18154e-19
-8.11051e-19
-4.97698e-19
-8.06711e-19
-2.85432e-19
-7.84114e-19
-8.53482e-20
-7.46382e-19
9.96015e-20
-6.96622e-19
2.67338e-19
-6.37661e-19
4.16377e-19
-5.7191e-19
5.45668e-19
-5.01384e-19
6.54664e-19
-4.27879e-19
7.43634e-19
-3.53257e-19
8.13701e-19
-2.7953e-19
8.66309e-19
-2.08582e-19
9.02639e-19
-1.41778e-19
9.23498e-19
-7.98335e-20
9.29546e-19
-2.29702e-20
9.21512e-19
2.88446e-20
9.00289e-19
7.57433e-20
8.67031e-19
1.17898e-19
8.23194e-19
1.55494e-19
7.70444e-19
1.88717e-19
7.10435e-19
2.17749e-19
6.44585e-19
2.42775e-19
5.73982e-19
2.63983e-19
4.99395e-19
2.81557e-19
4.21353e-19
2.95695e-19
3.4026e-19
3.06638e-19
2.56588e-19
3.14741e-19
1.71082e-19
3.2049e-19
8.47431e-20
3.24413e-19
3.26841e-19
3.74743e-11
3.40171e-12
4.29676e-11
-6.95898e-11
7.47094e-11
-2.20681e-10
1.14192e-10
-3.29459e-10
1.85759e-10
-4.19869e-10
2.08537e-10
-5.15247e-10
3.15085e-10
-6.18875e-10
3.86625e-10
-6.95076e-10
4.98732e-10
-7.00009e-10
5.6956e-10
-6.79347e-10
6.61854e-10
-5.48162e-10
7.54195e-10
-4.53014e-10
8.10907e-10
-4.81114e-10
8.70567e-10
-3.24511e-10
9.08342e-10
-2.34901e-10
9.11074e-10
-1.34943e-10
9.19942e-10
-8.74731e-11
9.22081e-10
-7.74309e-11
9.16526e-10
-7.7297e-11
9.21632e-10
-1.01935e-10
9.07146e-10
-7.10094e-11
9.25667e-10
-1.16633e-10
9.49698e-10
-1.22163e-10
9.73432e-10
-1.51426e-10
1.00786e-09
-1.63841e-10
1.02001e-09
-1.46531e-10
1.06405e-09
-1.35955e-10
1.08415e-09
-1.47268e-10
1.10056e-09
-4.48837e-11
1.22049e-09
-2.7201e-10
1.09919e-09
6.08456e-11
1.21508e-09
-1.69868e-10
1.27648e-09
-2.58658e-10
1.31831e-09
-1.22263e-10
1.34609e-09
-2.60983e-10
1.45803e-09
-1.9925e-10
1.4418e-09
-1.16481e-10
1.59236e-09
-2.62137e-10
1.58802e-09
-8.0911e-12
1.60175e-09
-5.04523e-11
1.64321e-09
-1.26939e-10
1.66876e-09
-1.73827e-10
1.70488e-09
-1.73031e-10
1.73353e-09
-1.44204e-10
1.78841e-09
-1.27392e-10
1.84154e-09
-1.33535e-10
1.91158e-09
-1.1798e-10
1.94277e-09
-9.69316e-11
1.94012e-09
-9.42153e-11
1.96416e-09
-9.23734e-11
1.98464e-09
-3.54807e-11
1.96968e-09
7.32654e-15
1.97603e-09
8.06647e-12
1.96098e-09
1.48778e-11
1.93589e-09
4.23286e-11
1.93066e-09
1.53192e-11
1.92004e-09
5.88915e-11
1.89066e-09
9.7309e-11
1.85865e-09
1.23824e-10
1.8527e-09
1.17376e-10
1.78927e-09
1.66517e-10
1.78022e-09
1.82415e-10
1.70048e-09
2.29067e-10
1.6699e-09
2.74791e-10
1.60724e-09
2.27826e-10
1.56839e-09
3.24998e-10
1.4999e-09
3.41389e-10
1.42914e-09
3.42393e-10
1.36095e-09
3.25981e-10
1.38051e-09
4.0762e-10
1.3646e-09
5.01807e-10
1.09522e-09
4.72466e-10
9.63337e-10
5.76752e-10
8.50322e-10
6.086e-10
7.31556e-10
7.0846e-10
5.74863e-10
6.74978e-10
5.23634e-10
8.14424e-10
4.46956e-10
8.35351e-10
2.98028e-10
9.08306e-10
8.28463e-11
8.6099e-10
1.63436e-15
5.77589e-10
-2.43662e-18
-6.75167e-19
-2.24673e-18
-1.71361e-19
-2.15007e-18
-2.69953e-19
-2.02419e-18
-4.61515e-19
-1.85877e-18
-6.43072e-19
-1.66092e-18
-7.93733e-19
-1.43954e-18
-9.09007e-19
-1.20287e-18
-9.89085e-19
-9.58556e-19
-1.03599e-18
-7.13813e-19
-1.05262e-18
-4.75101e-19
-1.04238e-18
-2.477e-19
-1.00905e-18
-3.55879e-20
-9.5666e-19
1.58563e-19
-8.89279e-19
3.33089e-19
-8.10652e-19
4.86903e-19
-7.2401e-19
6.19173e-19
-6.32013e-19
7.29286e-19
-5.3688e-19
8.1736e-19
-4.40757e-19
8.84649e-19
-3.45974e-19
9.33113e-19
-2.54871e-19
9.64584e-19
-1.69325e-19
9.80361e-19
-9.04211e-20
9.81361e-19
-1.8508e-20
9.6841e-19
4.65159e-20
9.42444e-19
1.04928e-19
9.04627e-19
1.57036e-19
8.56417e-19
2.03147e-19
7.99476e-19
2.43586e-19
7.35461e-19
2.78711e-19
6.65793e-19
3.08915e-19
5.91557e-19
3.3459e-19
5.13533e-19
3.56091e-19
4.32297e-19
3.73711e-19
3.48362e-19
3.87728e-19
2.62337e-19
3.98469e-19
1.75005e-19
4.06338e-19
8.71711e-20
4.1173e-19
4.14853e-19
8.8309e-12
-5.42792e-12
2.90671e-11
-8.98237e-11
4.8353e-11
-2.39965e-10
4.7768e-11
-3.28873e-10
6.89388e-11
-4.41039e-10
1.35441e-10
-5.81748e-10
2.17007e-10
-7.00441e-10
2.98164e-10
-7.76232e-10
3.35175e-10
-7.37019e-10
3.59949e-10
-7.0412e-10
4.47814e-10
-6.36026e-10
5.67684e-10
-5.72882e-10
5.98464e-10
-5.11893e-10
6.13821e-10
-3.39866e-10
6.30753e-10
-2.5183e-10
6.24496e-10
-1.28685e-10
6.41778e-10
-1.04753e-10
6.42889e-10
-7.85399e-11
6.57637e-10
-9.20421e-11
6.7468e-10
-1.18976e-10
6.80304e-10
-7.66301e-11
7.00394e-10
-1.36718e-10
7.22932e-10
-1.44697e-10
7.69729e-10
-1.98218e-10
8.12201e-10
-2.06309e-10
8.26066e-10
-1.60391e-10
8.38807e-10
-1.48691e-10
8.56159e-10
-1.64617e-10
8.92383e-10
-8.11047e-11
9.28837e-10
-3.08461e-10
9.6489e-10
2.47936e-11
1.07231e-09
-2.77291e-10
1.10327e-09
-2.89617e-10
1.22614e-09
-2.45133e-10
1.21353e-09
-2.48374e-10
1.28491e-09
-2.70629e-10
1.32788e-09
-1.59446e-10
1.44522e-09
-3.79479e-10
1.39121e-09
4.59158e-11
1.52169e-09
-1.80938e-10
1.66913e-09
-2.74378e-10
1.67726e-09
-1.81961e-10
1.68478e-09
-1.80557e-10
1.71458e-09
-1.74007e-10
1.75732e-09
-1.70132e-10
1.77876e-09
-1.54979e-10
1.79586e-09
-1.35082e-10
1.8098e-09
-1.10874e-10
1.8116e-09
-9.60136e-11
1.82845e-09
-1.09229e-10
1.85625e-09
-6.32773e-11
1.84609e-09
1.0166e-11
1.83846e-09
1.56955e-11
1.84763e-09
5.70443e-12
1.8295e-09
6.04669e-11
1.81076e-09
3.40509e-11
1.80961e-09
6.0044e-11
1.76851e-09
1.38409e-10
1.74457e-09
1.4777e-10
1.70167e-09
1.60272e-10
1.68639e-09
1.81798e-10
1.62007e-09
2.48731e-10
1.60096e-09
2.48166e-10
1.5847e-09
2.91053e-10
1.53292e-09
2.796e-10
1.49853e-09
3.5939e-10
1.45759e-09
3.82325e-10
1.34374e-09
4.56249e-10
1.14334e-09
5.26392e-10
1.05312e-09
4.97846e-10
1.13084e-09
4.24085e-10
1.00272e-09
6.00593e-10
9.45592e-10
6.33875e-10
8.05715e-10
7.48476e-10
6.38702e-10
8.75472e-10
5.51426e-10
7.62253e-10
5.30948e-10
8.34901e-10
4.74249e-10
8.92047e-10
4.05374e-10
9.77179e-10
3.38511e-10
9.2785e-10
1.6243e-16
9.16099e-10
-1.9318e-18
1.47853e-18
-2.3443e-18
2.40297e-19
-2.34082e-18
-2.74369e-19
-2.20575e-18
-5.9709e-19
-2.00944e-18
-8.3957e-19
-1.77619e-18
-1.02721e-18
-1.51962e-18
-1.1663e-18
-1.24978e-18
-1.25999e-18
-9.7519e-19
-1.31165e-18
-7.03572e-19
-1.32527e-18
-4.41767e-19
-1.30532e-18
-1.95312e-19
-1.25665e-18
3.17933e-20
-1.18448e-18
2.3719e-19
-1.09419e-18
4.19731e-19
-9.90869e-19
5.789e-19
-8.78942e-19
7.14306e-19
-7.61996e-19
8.2541e-19
-6.42795e-19
9.12144e-19
-5.23664e-19
9.75752e-19
-4.06969e-19
1.01866e-18
-2.95191e-19
1.04349e-18
-1.90527e-19
1.05227e-18
-9.44217e-20
1.04638e-18
-7.4349e-21
1.02682e-18
7.05437e-20
9.94552e-19
1.39968e-19
9.50738e-19
2.01396e-19
8.96855e-19
2.55398e-19
8.34601e-19
3.02556e-19
7.65665e-19
3.4347e-19
6.91469e-19
3.78748e-19
6.13057e-19
4.08943e-19
5.31153e-19
4.34498e-19
4.46314e-19
4.5573e-19
3.59103e-19
4.72885e-19
2.70206e-19
4.86226e-19
1.80397e-19
4.96066e-19
9.02941e-20
5.02705e-19
5.06295e-19
-4.4017e-12
-1.02472e-12
7.51385e-12
-1.01737e-10
-2.43304e-11
-2.08119e-10
-3.50518e-11
-3.1815e-10
1.66229e-11
-4.92713e-10
5.11074e-11
-6.16232e-10
3.18633e-12
-6.52519e-10
-3.33839e-11
-7.39661e-10
3.64684e-11
-8.0687e-10
1.11395e-10
-7.79045e-10
2.11839e-10
-7.3647e-10
3.61517e-10
-7.22558e-10
4.12577e-10
-5.62952e-10
4.16258e-10
-3.43546e-10
3.90562e-10
-2.26133e-10
4.04182e-10
-1.42303e-10
4.28694e-10
-1.29263e-10
4.51356e-10
-1.012e-10
4.88819e-10
-1.29503e-10
5.23766e-10
-1.53919e-10
5.46045e-10
-9.89052e-11
5.44718e-10
-1.35387e-10
5.65037e-10
-1.65012e-10
6.3146e-10
-2.64636e-10
6.6832e-10
-2.43165e-10
6.96791e-10
-1.88858e-10
7.11244e-10
-1.63141e-10
7.34568e-10
-1.87938e-10
8.00276e-10
-1.4681e-10
7.70404e-10
-2.78587e-10
9.8476e-10
-1.89561e-10
1.00563e-09
-2.98161e-10
1.01978e-09
-3.03762e-10
1.12403e-09
-3.49387e-10
1.17378e-09
-2.98115e-10
1.17421e-09
-2.71058e-10
1.32342e-09
-3.08659e-10
1.3388e-09
-3.94859e-10
1.42299e-09
-3.82737e-11
1.44884e-09
-2.06791e-10
1.52202e-09
-3.47563e-10
1.57251e-09
-2.32449e-10
1.60978e-09
-2.17836e-10
1.6575e-09
-2.21723e-10
1.68889e-09
-2.01523e-10
1.69223e-09
-1.58329e-10
1.70093e-09
-1.43779e-10
1.70257e-09
-1.12523e-10
1.72796e-09
-1.21402e-10
1.7325e-09
-1.13777e-10
1.75325e-09
-8.40246e-11
1.75746e-09
5.95776e-12
1.74491e-09
2.82525e-11
1.74408e-09
6.52818e-12
1.71915e-09
8.54033e-11
1.67241e-09
8.07932e-11
1.66939e-09
6.3061e-11
1.64984e-09
1.57954e-10
1.60748e-09
1.90137e-10
1.54813e-09
2.19618e-10
1.57356e-09
1.56358e-10
1.50591e-09
3.1638e-10
1.50151e-09
2.52564e-10
1.49333e-09
2.99233e-10
1.32671e-09
4.46216e-10
1.26334e-09
4.22754e-10
1.27806e-09
3.67607e-10
1.22305e-09
5.11264e-10
1.15281e-09
5.96639e-10
1.00891e-09
6.41753e-10
7.95405e-10
6.37593e-10
6.10437e-10
7.8556e-10
6.01944e-10
6.42366e-10
5.73404e-10
7.77014e-10
5.53184e-10
8.95691e-10
4.33484e-10
8.81955e-10
3.06696e-10
9.6169e-10
2.26944e-10
9.71798e-10
1.72053e-10
1.03207e-09
-1.84011e-12
1.10174e-09
-1.93247e-15
9.14263e-10
-3.16881e-18
2.59304e-19
-2.85792e-18
-7.06599e-20
-2.66286e-18
-4.68198e-19
-2.44823e-18
-8.10921e-19
-2.19707e-18
-1.09048e-18
-1.91529e-18
-1.30949e-18
-1.61331e-18
-1.4701e-18
-1.30143e-18
-1.57498e-18
-9.8881e-19
-1.62805e-18
-6.83618e-19
-1.63436e-18
-3.93098e-19
-1.59963e-18
-1.23141e-19
-1.53001e-18
1.2208e-19
-1.43211e-18
3.40511e-19
-1.31295e-18
5.31658e-19
-1.17926e-18
6.95846e-19
-1.03699e-18
8.33507e-19
-8.90929e-19
9.44541e-19
-7.44578e-19
1.02884e-18
-6.00485e-19
1.08753e-18
-4.6088e-19
1.12332e-18
-3.28067e-19
1.13959e-18
-2.04249e-19
1.13926e-18
-9.10532e-20
1.12436e-18
1.07898e-20
1.09625e-18
1.01394e-19
1.05598e-18
1.81417e-19
1.00474e-18
2.51749e-19
9.44012e-19
3.13312e-19
8.75516e-19
3.6699e-19
8.00943e-19
4.13615e-19
7.21664e-19
4.53945e-19
6.38612e-19
4.88617e-19
5.52385e-19
5.18104e-19
4.63469e-19
5.42724e-19
3.72444e-19
5.62705e-19
2.80047e-19
5.78282e-19
1.87035e-19
5.89729e-19
9.38844e-20
5.97301e-19
6.01151e-19
-1.29086e-11
1.18851e-11
2.67172e-12
-1.17316e-10
-1.52471e-11
-1.902e-10
-3.03432e-11
-3.03053e-10
-5.60553e-11
-4.67e-10
-1.25676e-10
-5.46611e-10
-1.97481e-10
-5.80713e-10
-2.5933e-10
-6.7781e-10
-2.85994e-10
-7.80205e-10
-2.44922e-10
-8.20116e-10
-1.2133e-10
-8.60062e-10
8.96472e-11
-9.33534e-10
2.49483e-10
-7.22788e-10
2.98576e-10
-3.92639e-10
2.9953e-10
-2.27087e-10
3.13833e-10
-1.56605e-10
3.32523e-10
-1.47951e-10
3.67104e-10
-1.3578e-10
3.82614e-10
-1.4501e-10
4.19551e-10
-1.90853e-10
4.50226e-10
-1.29575e-10
4.52203e-10
-1.37359e-10
4.6503e-10
-1.77835e-10
5.06185e-10
-3.05786e-10
5.48391e-10
-2.85366e-10
5.97932e-10
-2.38395e-10
6.43286e-10
-2.08492e-10
6.79612e-10
-2.2426e-10
7.52411e-10
-2.19608e-10
7.54116e-10
-2.8029e-10
8.89502e-10
-3.24945e-10
9.33657e-10
-3.42313e-10
9.85058e-10
-3.55161e-10
1.04087e-09
-4.05199e-10
1.11172e-09
-3.68956e-10
1.18095e-09
-3.4029e-10
1.21292e-09
-3.40632e-10
1.18901e-09
-3.70944e-10
1.38242e-09
-2.31683e-10
1.45061e-09
-2.74984e-10
1.45661e-09
-3.53564e-10
1.46248e-09
-2.38324e-10
1.48898e-09
-2.44342e-10
1.53743e-09
-2.7017e-10
1.58059e-09
-2.44689e-10
1.59965e-09
-1.77392e-10
1.60609e-09
-1.50218e-10
1.61479e-09
-1.21232e-10
1.64063e-09
-1.47239e-10
1.63932e-09
-1.12471e-10
1.6385e-09
-8.32072e-11
1.6411e-09
3.35753e-12
1.6301e-09
3.92557e-11
1.60514e-09
3.14929e-11
1.59492e-09
9.56219e-11
1.55519e-09
1.20529e-10
1.54887e-09
6.93789e-11
1.53239e-09
1.74426e-10
1.4905e-09
2.32024e-10
1.4798e-09
2.30315e-10
1.43665e-09
1.99513e-10
1.39753e-09
3.55497e-10
1.29237e-09
3.57714e-10
1.27591e-09
3.15691e-10
1.22481e-09
4.97313e-10
1.18592e-09
4.61649e-10
1.05761e-09
4.95916e-10
9.23613e-10
6.45266e-10
8.47815e-10
6.72439e-10
8.44963e-10
6.44606e-10
8.35062e-10
6.47494e-10
8.31306e-10
7.89315e-10
6.63012e-10
8.10657e-10
5.09486e-10
9.30539e-10
4.38684e-10
9.66494e-10
3.27064e-10
9.93579e-10
1.87901e-10
1.10086e-09
6.73575e-11
1.09234e-09
-1.27056e-11
1.11213e-09
-3.17655e-11
1.12081e-09
-3.20665e-15
8.82506e-10
-3.49766e-18
8.96639e-20
-3.25444e-18
-3.12779e-19
-3.00508e-18
-7.14437e-19
-2.72778e-18
-1.08631e-18
-2.41609e-18
-1.40149e-18
-2.0759e-18
-1.64984e-18
-1.71819e-18
-1.82914e-18
-1.3545e-18
-1.94118e-18
-9.9512e-19
-1.99049e-18
-6.48885e-19
-1.98353e-18
-3.23476e-19
-1.92769e-18
-2.52492e-20
-1.83073e-18
2.41245e-19
-1.70082e-18
4.74201e-19
-1.54666e-18
6.73926e-19
-1.37681e-18
8.41907e-19
-1.19893e-18
9.79857e-19
-1.0192e-18
1.08863e-18
-8.4209e-19
1.16844e-18
-6.70545e-19
1.22034e-18
-5.06658e-19
1.24714e-18
-3.52325e-19
1.25279e-18
-2.0939e-19
1.2411e-18
-7.93235e-20
1.21497e-18
3.71625e-20
1.17627e-18
1.40235e-19
1.12631e-18
2.30738e-19
1.0663e-18
3.09862e-19
9.97691e-19
3.78867e-19
9.22141e-19
4.38923e-19
8.41273e-19
4.91062e-19
7.56335e-19
5.36157e-19
6.68099e-19
5.749e-19
5.77005e-19
6.07799e-19
4.83451e-19
6.35206e-19
3.8802e-19
6.57393e-19
2.91493e-19
6.7463e-19
1.94608e-19
6.87207e-19
9.77341e-20
6.9539e-19
6.99353e-19
-4.75878e-12
1.66445e-11
-1.28473e-11
-1.09228e-10
-4.31066e-11
-1.5994e-10
-5.93473e-11
-2.86812e-10
-1.11329e-10
-4.15017e-10
-1.92604e-10
-4.65336e-10
-2.90778e-10
-4.82538e-10
-3.74648e-10
-5.93938e-10
-4.65378e-10
-6.89475e-10
-4.67588e-10
-8.17905e-10
-3.99994e-10
-9.27656e-10
-4.16984e-10
-9.16545e-10
-1.70517e-10
-9.69255e-10
9.65414e-11
-6.59698e-10
2.56539e-10
-3.87085e-10
2.78552e-10
-1.78618e-10
2.85884e-10
-1.55282e-10
3.07089e-10
-1.56983e-10
3.14189e-10
-1.52106e-10
3.14091e-10
-1.9075e-10
3.68479e-10
-1.83958e-10
3.99141e-10
-1.68016e-10
4.05009e-10
-1.83697e-10
4.35708e-10
-3.36479e-10
4.53924e-10
-3.03577e-10
5.03664e-10
-2.88131e-10
5.63789e-10
-2.68614e-10
6.13852e-10
-2.7432e-10
6.97999e-10
-3.03752e-10
7.4339e-10
-3.25679e-10
8.21853e-10
-4.03406e-10
8.77611e-10
-3.98068e-10
9.64979e-10
-4.42527e-10
9.92938e-10
-4.33156e-10
1.05991e-09
-4.35929e-10
1.09976e-09
-3.80136e-10
1.12556e-09
-3.6643e-10
1.15029e-09
-3.95669e-10
1.27347e-09
-3.54859e-10
1.28125e-09
-2.82767e-10
1.3383e-09
-4.10621e-10
1.39205e-09
-2.92074e-10
1.41468e-09
-2.66977e-10
1.42913e-09
-2.84617e-10
1.45906e-09
-2.74626e-10
1.51161e-09
-2.29942e-10
1.52474e-09
-1.63357e-10
1.55396e-09
-1.5045e-10
1.55128e-09
-1.44568e-10
1.54264e-09
-1.03832e-10
1.52733e-09
-6.78966e-11
1.53037e-09
3.223e-13
1.52065e-09
4.89721e-11
1.52016e-09
3.199e-11
1.49216e-09
1.2362e-10
1.45893e-09
1.5376e-10
1.4234e-09
1.04913e-10
1.421e-09
1.76816e-10
1.38584e-09
2.67179e-10
1.35861e-09
2.57544e-10
1.29641e-09
2.61714e-10
1.25473e-09
3.9717e-10
1.23134e-09
3.81105e-10
1.11404e-09
4.32993e-10
1.06587e-09
5.45482e-10
1.04141e-09
4.8611e-10
1.00005e-09
5.37268e-10
9.76465e-10
6.68855e-10
9.21244e-10
7.27659e-10
8.13439e-10
7.5241e-10
6.54641e-10
8.0629e-10
5.38201e-10
9.05752e-10
4.55612e-10
8.93244e-10
4.00513e-10
9.85638e-10
3.35728e-10
1.03128e-09
2.9009e-10
1.03922e-09
1.57857e-10
1.23309e-09
-3.12563e-11
1.28146e-09
-9.03685e-11
1.17125e-09
-1.97493e-11
1.0502e-09
-2.42474e-15
8.62766e-10
-3.899e-18
-3.71448e-19
-3.65511e-18
-5.54661e-19
-3.37663e-18
-9.89347e-19
-3.04297e-18
-1.41752e-18
-2.66443e-18
-1.77874e-18
-2.2552e-18
-2.05807e-18
-1.83023e-18
-2.25331e-18
-1.40382e-18
-2.36711e-18
-9.88153e-19
-2.40553e-18
-5.93045e-19
-2.3772e-18
-2.26519e-19
-2.29206e-18
1.04657e-19
-2.16003e-18
3.95405e-19
-1.99107e-18
6.4405e-19
-1.79552e-18
8.51813e-19
-1.5837e-18
1.02164e-18
-1.36495e-18
1.15697e-18
-1.14694e-18
1.26018e-18
-9.35188e-19
1.33233e-18
-7.33226e-19
1.37468e-18
-5.43128e-19
1.39008e-18
-3.66313e-19
1.38286e-18
-2.03997e-19
1.35759e-18
-5.71445e-20
1.31804e-18
7.3838e-20
1.26677e-18
1.89292e-19
1.20544e-18
2.90231e-19
1.13531e-18
3.78066e-19
1.05775e-18
4.54313e-19
9.7428e-19
5.20383e-19
8.86367e-19
5.77496e-19
7.95078e-19
6.26653e-19
7.00998e-19
6.68644e-19
6.04412e-19
7.04069e-19
5.05638e-19
7.33384e-19
4.05257e-19
7.56971e-19
3.0407e-19
7.75194e-19
2.02791e-19
7.88404e-19
1.01697e-19
7.96901e-19
8.00894e-19
3.87796e-11
-2.21349e-11
7.2258e-11
-1.42706e-10
9.40419e-11
-1.81724e-10
-2.05136e-11
-1.72256e-10
-1.58874e-10
-2.76656e-10
-2.79937e-10
-3.44271e-10
-3.97159e-10
-3.65314e-10
-4.51228e-10
-5.39867e-10
-4.9813e-10
-6.42572e-10
-5.41132e-10
-7.74903e-10
-5.76141e-10
-8.92646e-10
-5.0364e-10
-9.89047e-10
-4.17775e-10
-1.05512e-09
-2.17251e-10
-8.60223e-10
6.29173e-11
-6.67253e-10
2.16951e-10
-3.32651e-10
2.31465e-10
-1.69794e-10
2.24003e-10
-1.49517e-10
2.3893e-10
-1.67028e-10
2.32924e-10
-1.84738e-10
2.52954e-10
-2.03982e-10
3.1214e-10
-2.27197e-10
3.34834e-10
-2.06386e-10
3.5351e-10
-3.55151e-10
3.91466e-10
-3.41529e-10
4.39823e-10
-3.36485e-10
4.91472e-10
-3.2026e-10
5.48506e-10
-3.31352e-10
6.18929e-10
-3.74173e-10
6.68119e-10
-3.74867e-10
7.26446e-10
-4.61731e-10
8.21994e-10
-4.93613e-10
8.63408e-10
-4.83939e-10
9.08391e-10
-4.78137e-10
9.6427e-10
-4.91806e-10
1.02826e-09
-4.44119e-10
1.08219e-09
-4.20366e-10
1.10079e-09
-4.1427e-10
1.19533e-09
-4.49391e-10
1.27256e-09
-3.59994e-10
1.23441e-09
-3.7248e-10
1.26167e-09
-3.1933e-10
1.29212e-09
-2.97431e-10
1.32752e-09
-3.20021e-10
1.35365e-09
-3.00759e-10
1.40257e-09
-2.78864e-10
1.42122e-09
-1.82013e-10
1.45507e-09
-1.84305e-10
1.47802e-09
-1.67521e-10
1.48609e-09
-1.11908e-10
1.45769e-09
-3.94945e-11
1.45151e-09
6.4986e-12
1.4373e-09
6.31863e-11
1.42342e-09
4.58697e-11
1.40578e-09
1.41271e-10
1.37413e-09
1.85411e-10
1.37085e-09
1.08188e-10
1.32215e-09
2.25512e-10
1.26797e-09
3.21358e-10
1.25155e-09
2.73958e-10
1.2082e-09
3.05065e-10
1.11564e-09
4.89725e-10
1.11289e-09
3.83859e-10
9.89093e-10
5.56785e-10
9.06168e-10
6.28407e-10
8.12514e-10
5.79761e-10
6.88564e-10
6.61217e-10
6.54682e-10
7.02735e-10
6.34239e-10
7.481e-10
5.87085e-10
7.99559e-10
4.89459e-10
9.03912e-10
4.05869e-10
9.89341e-10
3.02513e-10
9.96601e-10
2.38608e-10
1.04954e-09
2.06948e-10
1.06294e-09
1.5772e-10
1.08845e-09
2.32923e-10
1.1579e-09
3.72598e-10
1.14179e-09
2.99448e-10
1.24441e-09
8.65317e-11
1.26312e-09
2.4999e-16
9.49302e-10
-4.08117e-18
6.688e-19
-4.08886e-18
-5.44964e-19
-3.80465e-18
-1.27125e-18
-3.40419e-18
-1.81577e-18
-2.94377e-18
-2.23747e-18
-2.45044e-18
-2.54944e-18
-1.94403e-18
-2.75701e-18
-1.44223e-18
-2.86573e-18
-9.59827e-19
-2.88405e-18
-5.07897e-19
-2.82368e-18
-9.44952e-20
-2.69818e-18
2.73619e-19
-2.52072e-18
5.90952e-19
-2.30362e-18
8.55874e-19
-2.05899e-18
1.07056e-18
-1.7987e-18
1.23965e-18
-1.53358e-18
1.36871e-18
-1.27258e-18
1.46214e-18
-1.02222e-18
1.52243e-18
-7.86613e-19
1.55149e-18
-5.67931e-19
1.55239e-18
-3.67174e-19
1.52971e-18
-1.84833e-19
1.48857e-18
-2.11195e-20
1.43349e-18
1.24133e-19
1.36771e-18
2.51633e-19
1.29327e-18
3.62628e-19
1.21156e-18
4.58718e-19
1.12382e-18
5.4161e-19
1.03139e-18
6.12917e-19
9.35524e-19
6.74052e-19
8.37069e-19
7.26192e-19
7.36423e-19
7.70295e-19
6.33727e-19
8.07133e-19
5.29225e-19
8.37337e-19
4.2348e-19
8.61455e-19
3.1728e-19
8.79982e-19
2.11289e-19
8.9335e-19
1.05689e-19
9.01904e-19