/*--------------------------------*- C++ -*----------------------------------*\
  =========                 |
  \\      /  F ield         | OpenFOAM: The Open Source CFD Toolbox
   \\    /   O peration     | Website:  https://openfoam.org
    \\  /    A nd           | Version:  6
     \\/     M anipulation  |
\*---------------------------------------------------------------------------*/
FoamFile
{
    version     2.0;
    format      ascii;
    class       volScalarField;
    location    "1300";
    object      T;
}
// * * * * * * * * * * * * * * * * * * * * * * * * * * * * * * * * * * * * * //

dimensions      [0 0 0 1 0 0 0];

internalField   nonuniform List<scalar> 
4800
(
552.501
552.402
552.304
552.208
552.112
552.018
551.925
551.833
551.743
551.654
551.565
551.477
551.389
551.302
551.214
551.127
551.04
550.953
550.866
550.78
550.694
550.608
550.523
550.439
550.355
550.272
550.19
550.108
550.027
549.947
549.868
549.789
549.711
549.634
549.559
549.484
549.41
549.336
549.264
549.192
549.121
549.05
548.98
548.911
548.842
548.773
548.705
548.637
548.568
548.5
548.431
548.362
548.292
548.221
548.148
548.075
548
547.922
547.843
547.761
547.676
547.588
547.496
547.401
547.302
547.198
547.09
546.976
546.858
546.735
546.607
546.473
546.335
546.193
546.047
545.897
545.744
545.59
545.436
545.284
545.134
544.988
544.846
544.708
544.572
544.44
544.311
544.185
544.06
543.938
543.817
543.698
543.58
543.464
543.348
543.233
543.12
543.007
542.894
542.782
542.671
542.56
542.45
542.34
542.23
542.12
542.011
541.902
541.793
541.685
541.576
541.468
541.359
541.251
541.143
541.035
540.927
540.82
540.712
540.604
552.5
552.402
552.303
552.206
552.11
552.015
551.922
551.829
551.738
551.648
551.559
551.471
551.382
551.294
551.207
551.119
551.032
550.945
550.858
550.771
550.685
550.6
550.514
550.43
550.346
550.263
550.18
550.099
550.018
549.937
549.858
549.779
549.702
549.625
549.549
549.474
549.4
549.327
549.254
549.182
549.111
549.041
548.971
548.902
548.833
548.764
548.696
548.628
548.56
548.491
548.422
548.353
548.283
548.212
548.14
548.066
547.991
547.914
547.834
547.752
547.667
547.579
547.488
547.393
547.293
547.189
547.081
546.968
546.85
546.727
546.599
546.466
546.328
546.186
546.04
545.891
545.739
545.585
545.432
545.28
545.13
544.984
544.842
544.704
544.569
544.437
544.309
544.182
544.058
543.936
543.815
543.696
543.579
543.462
543.347
543.233
543.119
543.006
542.894
542.782
542.671
542.56
542.449
542.339
542.23
542.12
542.011
541.902
541.793
541.684
541.576
541.468
541.359
541.251
541.143
541.035
540.927
540.819
540.712
540.604
552.5
552.4
552.301
552.203
552.106
552.01
551.915
551.821
551.729
551.638
551.547
551.458
551.369
551.28
551.192
551.104
551.016
550.929
550.841
550.754
550.668
550.582
550.497
550.412
550.328
550.244
550.162
550.08
549.999
549.918
549.839
549.76
549.683
549.606
549.53
549.455
549.381
549.308
549.236
549.164
549.093
549.022
548.953
548.884
548.815
548.746
548.678
548.61
548.542
548.474
548.405
548.336
548.266
548.195
548.123
548.049
547.974
547.897
547.817
547.735
547.651
547.563
547.471
547.376
547.277
547.173
547.065
546.952
546.834
546.711
546.583
546.451
546.314
546.172
546.027
545.878
545.727
545.575
545.422
545.27
545.121
544.976
544.834
544.697
544.563
544.431
544.303
544.177
544.054
543.932
543.812
543.693
543.576
543.46
543.345
543.231
543.117
543.004
542.892
542.781
542.67
542.559
542.449
542.339
542.229
542.119
542.01
541.901
541.793
541.684
541.576
541.467
541.359
541.251
541.143
541.035
540.927
540.819
540.712
540.604
552.499
552.398
552.298
552.198
552.099
552.001
551.905
551.809
551.715
551.622
551.53
551.439
551.349
551.26
551.171
551.082
550.993
550.905
550.817
550.73
550.643
550.557
550.471
550.386
550.301
550.218
550.135
550.053
549.972
549.891
549.811
549.733
549.655
549.578
549.502
549.428
549.354
549.281
549.209
549.137
549.066
548.996
548.926
548.857
548.789
548.72
548.653
548.585
548.517
548.449
548.38
548.311
548.241
548.17
548.098
548.025
547.949
547.872
547.793
547.711
547.626
547.538
547.447
547.352
547.253
547.149
547.041
546.928
546.811
546.688
546.561
546.428
546.292
546.151
546.006
545.859
545.709
545.558
545.407
545.256
545.108
544.963
544.823
544.686
544.553
544.423
544.295
544.17
544.047
543.926
543.807
543.689
543.572
543.456
543.342
543.228
543.115
543.002
542.89
542.779
542.668
542.558
542.447
542.337
542.228
542.119
542.01
541.901
541.792
541.683
541.575
541.467
541.359
541.251
541.143
541.035
540.927
540.819
540.712
540.604
552.499
552.396
552.294
552.192
552.091
551.99
551.891
551.793
551.696
551.601
551.507
551.415
551.323
551.233
551.143
551.054
550.965
550.876
550.787
550.699
550.612
550.525
550.439
550.353
550.268
550.184
550.101
550.019
549.937
549.857
549.777
549.698
549.62
549.543
549.467
549.393
549.319
549.246
549.174
549.103
549.032
548.962
548.892
548.823
548.755
548.687
548.619
548.552
548.484
548.416
548.347
548.279
548.209
548.138
548.066
547.993
547.918
547.841
547.761
547.68
547.595
547.507
547.416
547.321
547.222
547.119
547.011
546.898
546.781
546.659
546.532
546.4
546.264
546.124
545.98
545.833
545.685
545.536
545.386
545.237
545.09
544.946
544.807
544.672
544.54
544.411
544.284
544.161
544.039
543.919
543.8
543.683
543.567
543.452
543.338
543.224
543.111
542.999
542.888
542.777
542.666
542.556
542.446
542.336
542.227
542.117
542.009
541.9
541.791
541.683
541.575
541.466
541.358
541.25
541.142
541.035
540.927
540.819
540.712
540.604
552.498
552.393
552.289
552.184
552.081
551.977
551.875
551.774
551.675
551.577
551.481
551.386
551.293
551.202
551.111
551.021
550.931
550.841
550.752
550.664
550.576
550.488
550.402
550.315
550.23
550.146
550.062
549.979
549.897
549.816
549.736
549.657
549.579
549.502
549.426
549.351
549.277
549.205
549.133
549.061
548.991
548.921
548.851
548.783
548.714
548.646
548.579
548.511
548.444
548.376
548.308
548.239
548.17
548.099
548.027
547.954
547.879
547.802
547.723
547.642
547.557
547.469
547.378
547.284
547.185
547.082
546.974
546.862
546.745
546.623
546.496
546.365
546.23
546.091
545.948
545.803
545.656
545.508
545.36
545.213
545.067
544.925
544.787
544.654
544.523
544.396
544.271
544.149
544.028
543.909
543.792
543.676
543.56
543.446
543.333
543.22
543.108
542.996
542.885
542.774
542.664
542.554
542.444
542.334
542.225
542.116
542.007
541.899
541.79
541.682
541.574
541.466
541.358
541.25
541.142
541.034
540.927
540.819
540.711
540.604
552.497
552.39
552.283
552.176
552.07
551.964
551.858
551.753
551.651
551.55
551.451
551.355
551.26
551.167
551.075
550.984
550.893
550.803
550.714
550.625
550.536
550.448
550.36
550.273
550.187
550.102
550.018
549.935
549.853
549.771
549.691
549.611
549.533
549.455
549.379
549.304
549.23
549.157
549.085
549.014
548.943
548.873
548.804
548.735
548.667
548.599
548.532
548.465
548.397
548.33
548.262
548.193
548.124
548.054
547.982
547.909
547.834
547.758
547.679
547.597
547.513
547.426
547.335
547.24
547.142
547.039
546.932
546.82
546.703
546.582
546.456
546.325
546.19
546.052
545.911
545.767
545.621
545.474
545.328
545.182
545.039
544.899
544.763
544.632
544.504
544.379
544.256
544.135
544.016
543.899
543.782
543.667
543.553
543.439
543.327
543.214
543.103
542.992
542.881
542.771
542.661
542.551
542.441
542.332
542.223
542.114
542.006
541.897
541.789
541.681
541.573
541.465
541.357
541.249
541.142
541.034
540.926
540.819
540.711
540.604
552.496
552.387
552.278
552.168
552.059
551.949
551.84
551.732
551.625
551.521
551.419
551.32
551.224
551.13
551.037
550.945
550.854
550.763
550.672
550.582
550.493
550.404
550.316
550.228
550.141
550.056
549.971
549.887
549.804
549.721
549.64
549.56
549.481
549.404
549.327
549.252
549.177
549.104
549.032
548.96
548.89
548.82
548.751
548.682
548.614
548.546
548.479
548.412
548.345
548.277
548.21
548.141
548.072
548.002
547.931
547.858
547.784
547.708
547.629
547.548
547.464
547.377
547.286
547.192
547.093
546.991
546.884
546.773
546.656
546.536
546.411
546.281
546.148
546.01
545.87
545.727
545.582
545.436
545.291
545.147
545.006
544.868
544.736
544.607
544.482
544.359
544.239
544.12
544.003
543.887
543.772
543.658
543.544
543.432
543.32
543.209
543.098
542.987
542.877
542.767
542.657
542.548
542.439
542.33
542.221
542.113
542.004
541.896
541.788
541.68
541.572
541.464
541.356
541.249
541.141
541.034
540.926
540.819
540.711
540.604
552.495
552.384
552.273
552.161
552.049
551.936
551.823
551.711
551.601
551.493
551.388
551.285
551.186
551.09
550.997
550.904
550.812
550.72
550.629
550.538
550.448
550.358
550.269
550.18
550.092
550.006
549.92
549.835
549.751
549.668
549.586
549.505
549.426
549.347
549.27
549.194
549.119
549.046
548.973
548.902
548.831
548.761
548.692
548.623
548.555
548.488
548.42
548.353
548.286
548.219
548.152
548.084
548.015
547.946
547.875
547.802
547.728
547.652
547.574
547.493
547.409
547.323
547.232
547.138
547.04
546.938
546.832
546.721
546.606
546.486
546.362
546.233
546.1
545.964
545.825
545.683
545.539
545.394
545.25
545.107
544.968
544.833
544.704
544.579
544.457
544.337
544.219
544.103
543.988
543.873
543.76
543.647
543.535
543.424
543.313
543.202
543.092
542.982
542.872
542.763
542.654
542.545
542.436
542.327
542.219
542.111
542.002
541.894
541.786
541.679
541.571
541.463
541.356
541.248
541.141
541.033
540.926
540.818
540.711
540.604
552.494
552.382
552.269
552.155
552.04
551.923
551.807
551.692
551.578
551.466
551.357
551.251
551.149
551.05
550.955
550.861
550.768
550.676
550.584
550.492
550.4
550.31
550.219
550.13
550.041
549.953
549.866
549.78
549.695
549.611
549.528
549.447
549.366
549.287
549.209
549.133
549.057
548.983
548.91
548.838
548.767
548.697
548.628
548.559
548.491
548.424
548.357
548.29
548.223
548.156
548.089
548.022
547.953
547.884
547.813
547.741
547.667
547.592
547.514
547.433
547.35
547.264
547.174
547.081
546.983
546.881
546.776
546.665
546.551
546.432
546.309
546.181
546.05
545.915
545.776
545.635
545.493
545.349
545.204
545.061
544.923
544.792
544.668
544.548
544.43
544.314
544.199
544.085
543.972
543.859
543.747
543.636
543.525
543.415
543.305
543.195
543.086
542.976
542.867
542.758
542.65
542.541
542.433
542.325
542.216
542.108
542
541.893
541.785
541.677
541.57
541.462
541.355
541.247
541.14
541.033
540.925
540.818
540.711
540.604
552.494
552.38
552.266
552.15
552.032
551.913
551.794
551.675
551.557
551.441
551.328
551.218
551.113
551.011
550.913
550.817
550.723
550.63
550.537
550.444
550.352
550.26
550.168
550.077
549.987
549.898
549.81
549.723
549.637
549.552
549.468
549.385
549.303
549.223
549.144
549.067
548.991
548.916
548.842
548.77
548.699
548.629
548.559
548.491
548.423
548.355
548.288
548.222
548.155
548.089
548.022
547.955
547.886
547.817
547.747
547.675
547.602
547.527
547.45
547.37
547.287
547.201
547.112
547.019
546.922
546.821
546.716
546.607
546.493
546.375
546.253
546.127
545.997
545.863
545.725
545.585
545.442
545.298
545.152
545.007
544.868
544.745
544.629
544.515
544.402
544.29
544.178
544.066
543.955
543.844
543.734
543.624
543.515
543.405
543.296
543.188
543.079
542.97
542.862
542.754
542.646
542.537
542.429
542.322
542.214
542.106
541.998
541.891
541.783
541.676
541.568
541.461
541.354
541.246
541.139
541.032
540.925
540.818
540.711
540.604
552.494
552.38
552.265
552.147
552.027
551.906
551.783
551.66
551.539
551.419
551.302
551.188
551.078
550.973
550.871
550.773
550.678
550.584
550.49
550.396
550.303
550.209
550.116
550.024
549.932
549.842
549.752
549.663
549.576
549.489
549.404
549.32
549.237
549.155
549.076
548.997
548.921
548.845
548.771
548.698
548.627
548.557
548.487
548.418
548.35
548.283
548.216
548.149
548.083
548.016
547.95
547.883
547.815
547.746
547.677
547.605
547.532
547.458
547.381
547.302
547.22
547.135
547.046
546.954
546.858
546.758
546.654
546.546
546.433
546.317
546.196
546.071
545.942
545.81
545.673
545.534
545.391
545.246
545.098
544.946
544.796
544.691
544.588
544.482
544.374
544.266
544.156
544.047
543.938
543.829
543.721
543.612
543.504
543.396
543.288
543.18
543.072
542.964
542.856
542.749
542.641
542.533
542.426
542.318
542.211
542.103
541.996
541.889
541.781
541.674
541.567
541.46
541.353
541.246
541.139
541.031
540.924
540.817
540.71
540.603
552.494
552.38
552.264
552.146
552.024
551.901
551.775
551.649
551.524
551.4
551.279
551.161
551.047
550.937
550.832
550.731
550.633
550.538
550.443
550.348
550.253
550.158
550.064
549.97
549.876
549.784
549.693
549.602
549.513
549.425
549.338
549.252
549.168
549.085
549.004
548.925
548.847
548.771
548.697
548.623
548.551
548.481
548.411
548.342
548.274
548.206
548.139
548.073
548.007
547.94
547.874
547.807
547.74
547.672
547.602
547.532
547.459
547.385
547.309
547.23
547.149
547.065
546.977
546.886
546.792
546.693
546.59
546.483
546.372
546.257
546.137
546.013
545.886
545.755
545.621
545.483
545.341
545.196
545.046
544.883
544.68
544.636
544.551
544.452
544.348
544.242
544.136
544.028
543.921
543.814
543.707
543.6
543.493
543.386
543.279
543.172
543.065
542.958
542.851
542.744
542.636
542.529
542.422
542.315
542.208
542.101
541.994
541.887
541.78
541.673
541.566
541.459
541.352
541.245
541.138
541.031
540.924
540.817
540.71
540.603
552.494
552.38
552.264
552.145
552.023
551.897
551.77
551.641
551.512
551.384
551.259
551.137
551.019
550.905
550.795
550.69
550.59
550.492
550.396
550.299
550.203
550.107
550.011
549.915
549.82
549.726
549.632
549.54
549.449
549.359
549.27
549.183
549.097
549.013
548.931
548.85
548.772
548.694
548.619
548.545
548.473
548.402
548.332
548.263
548.194
548.127
548.06
547.994
547.927
547.861
547.795
547.729
547.662
547.594
547.525
547.455
547.383
547.31
547.234
547.156
547.076
546.992
546.906
546.816
546.723
546.625
546.524
546.418
546.308
546.195
546.077
545.956
545.83
545.701
545.569
545.433
545.295
545.154
545.011
544.866
544.723
544.625
544.528
544.428
544.325
544.221
544.116
544.01
543.904
543.799
543.693
543.587
543.481
543.376
543.27
543.164
543.057
542.951
542.845
542.738
542.632
542.525
542.418
542.312
542.205
542.098
541.991
541.885
541.778
541.671
541.564
541.457
541.351
541.244
541.137
541.03
540.924
540.817
540.71
540.603
552.493
552.379
552.263
552.144
552.021
551.895
551.765
551.634
551.502
551.372
551.243
551.117
550.994
550.876
550.762
550.653
550.549
550.448
550.35
550.252
550.154
550.057
549.959
549.861
549.764
549.667
549.572
549.478
549.384
549.292
549.202
549.113
549.025
548.94
548.856
548.774
548.694
548.615
548.539
548.464
548.391
548.32
548.25
548.181
548.112
548.045
547.978
547.912
547.845
547.78
547.714
547.648
547.581
547.513
547.445
547.375
547.304
547.232
547.157
547.08
547
546.918
546.833
546.744
546.652
546.556
546.456
546.352
546.244
546.132
546.017
545.897
545.774
545.647
545.518
545.386
545.252
545.117
544.981
544.849
544.724
544.614
544.51
544.407
544.304
544.2
544.096
543.992
543.888
543.784
543.679
543.575
543.47
543.365
543.26
543.155
543.05
542.945
542.839
542.733
542.627
542.521
542.415
542.308
542.202
542.095
541.989
541.882
541.776
541.669
541.563
541.456
541.349
541.243
541.136
541.03
540.923
540.816
540.71
540.603
552.493
552.378
552.261
552.141
552.018
551.891
551.761
551.628
551.494
551.361
551.229
551.099
550.972
550.85
550.732
550.619
550.511
550.407
550.306
550.206
550.107
550.007
549.907
549.807
549.708
549.609
549.511
549.415
549.319
549.225
549.132
549.041
548.952
548.865
548.779
548.696
548.614
548.535
548.457
548.382
548.308
548.236
548.166
548.096
548.028
547.96
547.894
547.827
547.762
547.696
547.63
547.564
547.498
547.431
547.363
547.294
547.224
547.152
547.078
547.002
546.923
546.842
546.757
546.67
546.579
546.485
546.387
546.285
546.179
546.069
545.956
545.839
545.719
545.595
545.469
545.341
545.211
545.082
544.954
544.829
544.71
544.599
544.492
544.388
544.284
544.181
544.078
543.975
543.872
543.769
543.666
543.563
543.459
543.355
543.251
543.147
543.043
542.938
542.833
542.728
542.622
542.517
542.411
542.305
542.199
542.093
541.986
541.88
541.774
541.668
541.561
541.455
541.348
541.242
541.135
541.029
540.923
540.816
540.71
540.603
552.492
552.375
552.257
552.137
552.013
551.885
551.755
551.622
551.487
551.351
551.217
551.084
550.954
550.828
550.706
550.589
550.476
550.368
550.264
550.163
550.061
549.959
549.857
549.755
549.653
549.552
549.452
549.352
549.254
549.158
549.063
548.969
548.878
548.789
548.702
548.617
548.534
548.453
548.375
548.298
548.224
548.151
548.08
548.011
547.942
547.875
547.808
547.742
547.676
547.611
547.545
547.48
547.414
547.347
547.279
547.211
547.141
547.07
546.998
546.922
546.845
546.765
546.682
546.596
546.507
546.414
546.318
546.218
546.115
546.007
545.896
545.782
545.665
545.545
545.422
545.298
545.173
545.049
544.926
544.806
544.691
544.58
544.473
544.369
544.266
544.163
544.061
543.959
543.857
543.755
543.653
543.551
543.448
543.346
543.243
543.139
543.035
542.931
542.827
542.722
542.617
542.512
542.407
542.301
542.196
542.09
541.984
541.878
541.772
541.666
541.56
541.453
541.347
541.241
541.135
541.028
540.922
540.816
540.709
540.603
552.491
552.372
552.252
552.13
552.005
551.878
551.748
551.614
551.478
551.342
551.205
551.071
550.938
550.809
550.683
550.562
550.445
550.333
550.226
550.121
550.017
549.913
549.809
549.704
549.599
549.496
549.393
549.291
549.19
549.091
548.993
548.898
548.804
548.713
548.624
548.537
548.453
548.371
548.291
548.214
548.139
548.065
547.994
547.924
547.855
547.788
547.721
547.655
547.59
547.525
547.46
547.394
547.329
547.262
547.195
547.128
547.059
546.989
546.917
546.843
546.767
546.688
546.607
546.523
546.435
546.344
546.25
546.152
546.051
545.946
545.838
545.727
545.613
545.496
545.377
545.257
545.137
545.017
544.898
544.781
544.669
544.56
544.454
544.35
544.247
544.145
544.044
543.943
543.842
543.742
543.641
543.539
543.438
543.336
543.234
543.131
543.028
542.925
542.821
542.717
542.613
542.508
542.403
542.298
542.193
542.087
541.982
541.876
541.77
541.664
541.558
541.452
541.346
541.24
541.134
541.028
540.922
540.815
540.709
540.603
552.489
552.367
552.245
552.121
551.996
551.869
551.739
551.605
551.469
551.332
551.194
551.058
550.923
550.792
550.663
550.538
550.417
550.301
550.19
550.081
549.975
549.868
549.761
549.654
549.547
549.44
549.335
549.23
549.127
549.025
548.924
548.826
548.731
548.637
548.547
548.458
548.373
548.289
548.208
548.129
548.053
547.979
547.907
547.837
547.768
547.701
547.635
547.569
547.504
547.439
547.374
547.31
547.244
547.179
547.113
547.046
546.978
546.909
546.838
546.765
546.69
546.613
546.533
546.45
546.364
546.276
546.183
546.088
545.989
545.887
545.782
545.674
545.562
545.449
545.334
545.218
545.101
544.985
544.869
544.755
544.645
544.538
544.433
544.331
544.229
544.128
544.028
543.928
543.829
543.729
543.629
543.528
543.428
543.327
543.226
543.124
543.021
542.919
542.816
542.712
542.608
542.504
542.4
542.295
542.19
542.085
541.979
541.874
541.768
541.662
541.557
541.451
541.345
541.239
541.133
541.027
540.921
540.815
540.709
540.603
552.487
552.362
552.237
552.111
551.985
551.857
551.728
551.595
551.459
551.322
551.183
551.046
550.909
550.775
550.644
550.516
550.391
550.271
550.156
550.044
549.934
549.825
549.715
549.605
549.496
549.386
549.278
549.17
549.064
548.96
548.857
548.756
548.658
548.563
548.47
548.38
548.292
548.208
548.126
548.046
547.969
547.894
547.822
547.751
547.682
547.615
547.549
547.484
547.419
547.355
547.291
547.226
547.162
547.097
547.031
546.965
546.898
546.83
546.76
546.689
546.615
546.539
546.461
546.38
546.296
546.209
546.119
546.026
545.93
545.831
545.729
545.623
545.515
545.405
545.293
545.18
545.066
544.953
544.839
544.728
544.62
544.515
544.413
544.312
544.212
544.112
544.013
543.914
543.815
543.716
543.617
543.518
543.418
543.318
543.218
543.117
543.015
542.913
542.81
542.707
542.604
542.5
542.396
542.292
542.187
542.082
541.977
541.872
541.766
541.661
541.555
541.45
541.344
541.238
541.132
541.026
540.921
540.815
540.709
540.603
552.486
552.357
552.229
552.101
551.973
551.845
551.715
551.583
551.448
551.31
551.172
551.033
550.895
550.759
550.625
550.494
550.366
550.242
550.123
550.007
549.894
549.782
549.67
549.558
549.445
549.333
549.222
549.112
549.003
548.896
548.79
548.687
548.587
548.489
548.394
548.303
548.214
548.128
548.045
547.964
547.886
547.811
547.738
547.668
547.599
547.531
547.466
547.401
547.337
547.273
547.21
547.146
547.082
547.018
546.953
546.888
546.822
546.755
546.686
546.616
546.543
546.469
546.392
546.313
546.231
546.147
546.059
545.968
545.875
545.778
545.679
545.576
545.471
545.363
545.254
545.144
545.033
544.921
544.809
544.698
544.592
544.491
544.392
544.293
544.195
544.097
543.999
543.901
543.803
543.705
543.607
543.508
543.409
543.31
543.21
543.11
543.009
542.907
542.805
542.703
542.6
542.496
542.393
542.288
542.184
542.08
541.975
541.87
541.765
541.659
541.554
541.448
541.343
541.237
541.132
541.026
540.92
540.814
540.709
540.603
552.484
552.352
552.22
552.09
551.96
551.831
551.701
551.569
551.434
551.298
551.159
551.02
550.881
550.743
550.607
550.473
550.342
550.214
550.09
549.97
549.854
549.74
549.625
549.51
549.395
549.28
549.166
549.054
548.942
548.833
548.725
548.62
548.517
548.418
548.321
548.228
548.138
548.051
547.967
547.885
547.807
547.731
547.658
547.587
547.518
547.451
547.386
547.322
547.258
547.196
547.133
547.07
547.007
546.944
546.88
546.815
546.75
546.684
546.616
546.547
546.476
546.403
546.328
546.25
546.17
546.088
546.002
545.914
545.823
545.729
545.632
545.532
545.43
545.326
545.219
545.111
545.002
544.891
544.778
544.665
544.561
544.467
544.372
544.276
544.179
544.082
543.985
543.888
543.791
543.694
543.597
543.499
543.401
543.302
543.203
543.103
543.003
542.902
542.8
542.698
542.596
542.493
542.389
542.286
542.182
542.077
541.973
541.868
541.763
541.658
541.553
541.447
541.342
541.236
541.131
541.025
540.92
540.814
540.708
540.603
552.482
552.346
552.211
552.078
551.946
551.815
551.685
551.553
551.419
551.283
551.145
551.006
550.866
550.726
550.588
550.451
550.316
550.184
550.056
549.932
549.813
549.695
549.578
549.461
549.344
549.227
549.111
548.996
548.883
548.771
548.661
548.554
548.45
548.349
548.251
548.157
548.066
547.978
547.894
547.812
547.733
547.657
547.584
547.513
547.444
547.378
547.313
547.249
547.187
547.124
547.063
547.001
546.939
546.876
546.813
546.749
546.685
546.62
546.553
546.485
546.415
546.343
546.269
546.193
546.115
546.034
545.951
545.864
545.775
545.684
545.59
545.493
545.394
545.292
545.189
545.083
544.976
544.866
544.75
544.627
544.518
544.444
544.354
544.26
544.165
544.069
543.973
543.877
543.781
543.685
543.588
543.491
543.393
543.295
543.197
543.097
542.998
542.897
542.796
542.694
542.592
542.489
542.386
542.283
542.179
542.075
541.971
541.866
541.761
541.656
541.551
541.446
541.341
541.236
541.13
541.025
540.919
540.814
540.708
540.603
552.48
552.341
552.202
552.066
551.931
551.799
551.667
551.535
551.401
551.266
551.128
550.989
550.848
550.707
550.566
550.426
550.287
550.15
550.017
549.89
549.767
549.647
549.528
549.409
549.29
549.172
549.055
548.938
548.823
548.71
548.599
548.491
548.385
548.283
548.185
548.09
547.999
547.911
547.827
547.745
547.666
547.591
547.518
547.447
547.379
547.313
547.249
547.186
547.124
547.062
547.001
546.94
546.879
546.817
546.755
546.692
546.628
546.563
546.497
546.43
546.361
546.29
546.218
546.143
546.066
545.986
545.905
545.82
545.733
545.644
545.553
545.459
545.362
545.264
545.163
545.061
544.956
544.848
544.738
544.627
544.526
544.435
544.341
544.247
544.152
544.057
543.962
543.867
543.771
543.676
543.58
543.483
543.386
543.289
543.191
543.092
542.993
542.893
542.792
542.691
542.589
542.486
542.384
542.28
542.177
542.073
541.969
541.864
541.76
541.655
541.55
541.445
541.34
541.235
541.13
541.024
540.919
540.814
540.708
540.603
552.478
552.335
552.193
552.053
551.915
551.78
551.647
551.514
551.38
551.246
551.109
550.969
550.828
550.685
550.542
550.398
550.255
550.113
549.974
549.841
549.714
549.592
549.472
549.352
549.233
549.114
548.996
548.879
548.764
548.65
548.539
548.43
548.324
548.222
548.124
548.03
547.94
547.853
547.77
547.69
547.612
547.537
547.465
547.395
547.327
547.261
547.196
547.134
547.072
547.011
546.95
546.889
546.829
546.768
546.706
546.644
546.58
546.516
546.45
546.383
546.315
546.245
546.173
546.099
546.023
545.945
545.865
545.782
545.697
545.61
545.521
545.43
545.337
545.242
545.145
545.045
544.942
544.837
544.731
544.625
544.524
544.427
544.331
544.236
544.141
544.046
543.952
543.857
543.763
543.668
543.572
543.477
543.38
543.283
543.186
543.087
542.988
542.889
542.788
542.687
542.586
542.484
542.381
542.278
542.175
542.071
541.967
541.863
541.759
541.654
541.549
541.444
541.339
541.234
541.129
541.024
540.919
540.813
540.708
540.603
552.476
552.328
552.182
552.038
551.898
551.76
551.624
551.49
551.357
551.222
551.086
550.947
550.804
550.66
550.513
550.365
550.216
550.068
549.923
549.783
549.651
549.526
549.405
549.287
549.169
549.051
548.934
548.818
548.704
548.59
548.479
548.371
548.265
548.164
548.068
547.976
547.889
547.806
547.726
547.648
547.573
547.5
547.429
547.359
547.291
547.224
547.159
547.095
547.032
546.971
546.91
546.85
546.79
546.729
546.668
546.607
546.543
546.478
546.412
546.344
546.275
546.205
546.134
546.061
545.986
545.909
545.83
545.75
545.667
545.582
545.497
545.409
545.319
545.227
545.133
545.035
544.935
544.832
544.727
544.622
544.519
544.42
544.322
544.226
544.131
544.037
543.943
543.849
543.755
543.661
543.566
543.471
543.375
543.278
543.181
543.083
542.984
542.885
542.785
542.684
542.583
542.481
542.379
542.276
542.173
542.069
541.966
541.862
541.757
541.653
541.548
541.444
541.339
541.234
541.129
541.024
540.918
540.813
540.708
540.603
552.472
552.318
552.167
552.02
551.876
551.735
551.597
551.462
551.329
551.195
551.058
550.919
550.776
550.629
550.478
550.325
550.17
550.015
549.86
549.711
549.572
549.442
549.322
549.207
549.093
548.98
548.867
548.754
548.642
548.532
548.422
548.315
548.211
548.111
548.018
547.93
547.849
547.771
547.697
547.625
547.554
547.483
547.413
547.342
547.272
547.203
547.135
547.068
547.004
546.942
546.881
546.822
546.762
546.702
546.641
546.58
546.516
546.449
546.38
546.31
546.24
546.171
546.1
546.028
545.954
545.878
545.801
545.722
545.642
545.561
545.48
545.397
545.311
545.222
545.13
545.034
544.934
544.831
544.725
544.619
544.514
544.412
544.312
544.216
544.121
544.028
543.934
543.841
543.748
543.654
543.56
543.465
543.37
543.274
543.177
543.079
542.981
542.882
542.782
542.682
542.581
542.479
542.377
542.274
542.171
542.068
541.964
541.861
541.756
541.652
541.547
541.443
541.338
541.233
541.128
541.023
540.918
540.813
540.708
540.603
552.467
552.304
552.145
551.993
551.846
551.703
551.564
551.427
551.293
551.159
551.023
550.883
550.738
550.589
550.433
550.273
550.11
549.947
549.783
549.623
549.472
549.335
549.213
549.103
548.999
548.896
548.792
548.686
548.581
548.477
548.375
548.273
548.171
548.072
547.982
547.899
547.823
547.752
547.685
547.619
547.552
547.484
547.413
547.342
547.268
547.196
547.125
547.054
546.987
546.924
546.865
546.807
546.748
546.687
546.624
546.56
546.494
546.426
546.353
546.282
546.212
546.142
546.07
545.996
545.924
545.847
545.772
545.697
545.62
545.545
545.475
545.402
545.316
545.229
545.137
545.039
544.936
544.83
544.722
544.613
544.506
544.402
544.302
544.205
544.112
544.019
543.927
543.835
543.742
543.649
543.555
543.461
543.366
543.27
543.174
543.076
542.978
542.879
542.78
542.68
542.579
542.477
542.375
542.273
542.17
542.067
541.963
541.86
541.755
541.651
541.547
541.442
541.338
541.233
541.128
541.023
540.918
540.813
540.708
540.603
552.457
552.277
552.108
551.949
551.8
551.658
551.519
551.378
551.244
551.111
550.974
550.833
550.689
550.538
550.375
550.203
550.029
549.861
549.691
549.519
549.355
549.202
549.075
548.973
548.882
548.794
548.706
548.616
548.526
548.439
548.358
548.276
548.177
548.074
547.99
547.906
547.828
547.755
547.69
547.627
547.557
547.487
547.415
547.346
547.274
547.208
547.141
547.062
546.993
546.928
546.87
546.815
546.749
546.684
546.616
546.538
546.462
546.401
546.33
546.279
546.219
546.139
546.052
545.968
545.9
545.813
545.738
545.668
545.584
545.518
545.478
545.433
545.341
545.255
545.158
545.056
544.942
544.82
544.711
544.598
544.492
544.389
544.289
544.194
544.102
544.011
543.92
543.829
543.737
543.645
543.551
543.457
543.363
543.267
543.171
543.074
542.976
542.877
542.778
542.678
542.577
542.476
542.374
542.272
542.169
542.066
541.962
541.859
541.755
541.651
541.546
541.442
541.337
541.232
541.128
541.023
540.918
540.813
540.708
540.603
552.441
552.234
552.047
551.878
551.728
551.6
551.474
551.312
551.174
551.052
550.908
550.768
550.626
550.476
550.304
550.109
549.909
549.739
549.577
549.413
549.254
549.075
548.946
548.849
548.763
548.679
548.61
548.541
548.478
548.429
548.407
548.399
548.298
548.163
548.106
547.998
547.885
547.791
547.714
547.637
547.528
547.448
547.381
547.327
547.271
547.261
547.228
547.139
547.073
546.98
546.912
546.85
546.745
546.681
546.603
546.47
546.356
546.357
546.308
546.393
546.41
546.229
546.07
545.935
545.887
545.771
545.703
545.62
545.466
545.42
545.471
545.493
545.352
545.303
545.181
545.122
544.982
544.788
544.696
544.562
544.466
544.374
544.275
544.182
544.092
544.003
543.914
543.824
543.733
543.641
543.548
543.455
543.36
543.265
543.169
543.072
542.974
542.876
542.777
542.677
542.576
542.475
542.373
542.271
542.168
542.065
541.962
541.858
541.754
541.65
541.546
541.441
541.337
541.232
541.127
541.022
540.918
540.813
540.708
540.603
552.415
552.17
551.963
551.772
551.629
551.581
551.515
551.243
551.101
551.045
550.827
550.672
550.529
550.357
550.189
550.011
549.728
549.513
549.359
549.285
549.24
549.048
548.986
548.875
548.73
548.585
548.506
548.402
548.382
548.423
548.552
548.691
548.564
548.385
548.366
548.204
548.026
547.861
547.764
547.59
547.34
547.271
547.23
547.227
547.196
547.309
547.404
547.403
547.35
547.104
546.995
546.875
546.705
546.594
546.532
546.214
546.06
546.261
546.206
546.919
546.987
546.578
546.303
545.786
545.78
545.686
545.875
545.564
544.989
545.132
545.475
545.457
545.192
545.373
544.983
545.171
545.148
544.804
544.833
544.534
544.423
544.353
544.256
544.169
544.083
543.997
543.91
543.821
543.73
543.639
543.546
543.453
543.359
543.264
543.168
543.071
542.973
542.875
542.776
542.676
542.575
542.474
542.372
542.27
542.168
542.065
541.961
541.858
541.754
541.65
541.546
541.441
541.337