/*--------------------------------*- C++ -*----------------------------------*\
  =========                 |
  \\      /  F ield         | OpenFOAM: The Open Source CFD Toolbox
   \\    /   O peration     | Website:  https://openfoam.org
    \\  /    A nd           | Version:  6
     \\/     M anipulation  |
\*---------------------------------------------------------------------------*/
FoamFile
{
    version     2.0;
    format      ascii;
    class       volVectorField;
    location    "1300";
    object      U;
}
// * * * * * * * * * * * * * * * * * * * * * * * * * * * * * * * * * * * * * //

dimensions      [0 1 -1 0 0 0 0];

internalField   nonuniform List<vector> 
4800
(
(-2.93028e-05 0 -1.12852e-05)
(-2.31858e-05 0 -2.40213e-05)
(7.36611e-06 0 -1.97395e-05)
(2.56224e-05 0 -2.05992e-05)
(5.64987e-05 0 -4.75781e-05)
(0.000106715 0 -1.00565e-05)
(0.000108058 0 -9.95274e-05)
(0.000183011 0 -8.39814e-05)
(0.000277075 0 -5.22245e-05)
(0.000362794 0 -0.00010542)
(0.000448018 0 -6.69946e-06)
(0.000483957 0 -9.74853e-06)
(0.000503836 0 -5.18828e-05)
(0.000539603 0 -5.2942e-05)
(0.000589009 0 -6.17759e-06)
(0.00062413 0 -3.40649e-06)
(0.000623859 0 -1.97849e-05)
(0.000629772 0 -2.20827e-05)
(0.000645033 0 -1.19126e-05)
(0.000657516 0 -1.01607e-05)
(0.000663911 0 -2.34939e-05)
(0.000674057 0 -3.36121e-05)
(0.000691204 0 -2.50162e-05)
(0.000710042 0 -5.76414e-05)
(0.000736734 0 -2.17916e-05)
(0.000752679 0 -1.04193e-05)
(0.000754546 0 -2.54565e-05)
(0.000760366 0 -2.03428e-05)
(0.000770502 0 -9.41341e-06)
(0.000777876 0 -2.18886e-05)
(0.000782305 0 -2.86037e-05)
(0.00078803 0 -2.62316e-05)
(0.000797682 0 -2.39679e-05)
(0.000808963 0 -3.62853e-05)
(0.000820932 0 -4.73099e-05)
(0.000837803 0 -3.19208e-05)
(0.000859822 0 -2.08348e-05)
(0.000861594 0 -2.53198e-05)
(0.000859685 0 -2.09756e-05)
(0.000861969 0 -1.69153e-05)
(0.0008683 0 -1.34869e-05)
(0.000880156 0 -2.38222e-05)
(0.000902829 0 -3.57828e-05)
(0.000918434 0 -2.35552e-05)
(0.000918536 0 -1.70485e-05)
(0.000922915 0 2.4286e-06)
(0.000932184 0 -1.49387e-05)
(0.000929908 0 -2.53353e-05)
(0.000927659 0 -3.11952e-05)
(0.000930844 0 -2.62331e-05)
(0.000937937 0 -3.69369e-05)
(0.000950182 0 -4.25357e-05)
(0.000954026 0 -1.32015e-05)
(0.000953594 0 -9.29661e-06)
(0.000955052 0 -7.81533e-06)
(0.000954361 0 -8.54202e-06)
(0.000951283 0 -3.62142e-06)
(0.00094503 0 -1.73303e-05)
(0.000936177 0 -5.39784e-07)
(0.000925957 0 -2.01082e-05)
(0.000915332 0 4.46992e-06)
(0.000903211 0 -9.2803e-06)
(0.000888126 0 1.80372e-05)
(0.000868794 0 -1.47789e-06)
(0.000845434 0 1.93823e-05)
(0.000819687 0 -8.07138e-06)
(0.000790171 0 2.98855e-05)
(0.000758975 0 -1.3559e-05)
(0.000724401 0 3.94263e-05)
(0.000688863 0 -1.82743e-05)
(0.000646399 0 5.22694e-05)
(0.000602526 0 -4.27366e-05)
(0.000555825 0 5.02236e-05)
(0.000514157 0 1.24323e-06)
(0.000469021 0 6.72064e-06)
(0.000395502 0 0.000111549)
(0.000334693 0 -7.28206e-05)
(0.000166034 0 4.77537e-05)
(4.17103e-05 0 -9.41919e-05)
(7.07296e-05 0 -0.000110082)
(6.12224e-08 0 -1.01553e-05)
(-3.58685e-13 0 4.2547e-14)
(-6.85176e-13 0 1.20474e-14)
(-6.94451e-13 0 -2.90474e-15)
(-6.78518e-13 0 -1.27213e-14)
(-6.44703e-13 0 -2.02782e-14)
(-5.97336e-13 0 -2.63617e-14)
(-5.39239e-13 0 -3.11441e-14)
(-4.72889e-13 0 -3.46954e-14)
(-4.00742e-13 0 -3.70682e-14)
(-3.2518e-13 0 -3.83134e-14)
(-2.48373e-13 0 -3.85092e-14)
(-1.72222e-13 0 -3.77709e-14)
(-9.83699e-14 0 -3.62318e-14)
(-2.8199e-14 0 -3.40265e-14)
(3.71759e-14 0 -3.12878e-14)
(9.68836e-14 0 -2.81474e-14)
(1.50284e-13 0 -2.47363e-14)
(1.96985e-13 0 -2.11839e-14)
(2.36851e-13 0 -1.76156e-14)
(2.69952e-13 0 -1.41366e-14)
(2.96456e-13 0 -1.0808e-14)
(3.16553e-13 0 -7.64531e-15)
(3.30451e-13 0 -4.6479e-15)
(3.38385e-13 0 -1.82871e-15)
(3.40608e-13 0 7.85915e-16)
(3.37412e-13 0 3.17598e-15)
(3.29171e-13 0 5.33872e-15)
(3.16378e-13 0 7.27849e-15)
(2.99627e-13 0 8.9938e-15)
(2.79532e-13 0 1.04806e-14)
(2.56666e-13 0 1.17477e-14)
(2.31536e-13 0 1.28257e-14)
(2.04573e-13 0 1.3756e-14)
(1.76105e-13 0 1.4567e-14)
(1.46334e-13 0 1.52544e-14)
(1.15352e-13 0 1.57813e-14)
(8.32334e-14 0 1.61001e-14)
(5.01853e-14 0 1.61757e-14)
(1.67342e-14 0 1.59537e-14)
(-5.05054e-05 0 3.43339e-05)
(2.87974e-05 0 -8.18502e-06)
(7.38437e-06 0 -3.96033e-05)
(4.43873e-05 0 -3.99241e-05)
(5.74426e-05 0 -0.000105607)
(0.00014967 0 2.49667e-05)
(0.000193816 0 -5.13577e-05)
(0.000204138 0 -0.000150518)
(0.000285086 0 -0.000138703)
(0.0003638 0 -0.000105274)
(0.000419902 0 -8.58544e-05)
(0.000459773 0 -7.9988e-05)
(0.000503648 0 -5.56887e-05)
(0.000555303 0 -3.04904e-05)
(0.000602744 0 -5.19861e-05)
(0.000604454 0 -5.13046e-05)
(0.000604097 0 -3.64379e-05)
(0.000609139 0 -1.58551e-05)
(0.000619866 0 -6.89024e-06)
(0.000633002 0 -9.36311e-06)
(0.000645881 0 -1.15367e-05)
(0.000660772 0 1.98167e-06)
(0.000677193 0 -5.9386e-06)
(0.000693198 0 6.74489e-06)
(0.000705129 0 4.19601e-07)
(0.000706531 0 -1.43748e-05)
(0.000711821 0 -6.42513e-06)
(0.000723834 0 -3.4412e-08)
(0.00073503 0 -7.07775e-07)
(0.000742722 0 1.31795e-05)
(0.000752757 0 3.70554e-06)
(0.000762939 0 2.69751e-06)
(0.00076935 0 7.07058e-06)
(0.000782298 0 1.60694e-05)
(0.000802292 0 -4.9715e-06)
(0.000822784 0 1.56703e-05)
(0.000832484 0 6.26351e-06)
(0.00083683 0 -1.99844e-06)
(0.000841663 0 4.82818e-07)
(0.000841414 0 -9.92043e-07)
(0.000842088 0 -5.53047e-06)
(0.000849128 0 -6.96226e-06)
(0.000870986 0 2.52761e-06)
(0.000892049 0 -2.39483e-06)
(0.000892728 0 -2.9673e-06)
(0.000893949 0 -4.9941e-06)
(0.000896097 0 1.8756e-05)
(0.000899052 0 1.34058e-05)
(0.000902309 0 1.02281e-05)
(0.000906618 0 8.85329e-06)
(0.000917582 0 5.90432e-06)
(0.000918515 0 6.36708e-07)
(0.000914067 0 -1.13639e-05)
(0.000911042 0 -4.6008e-06)
(0.000911067 0 2.74732e-06)
(0.000909226 0 6.24612e-06)
(0.00090453 0 9.91861e-06)
(0.000897809 0 2.42959e-05)
(0.000889691 0 1.98392e-05)
(0.000880578 0 2.60281e-05)
(0.000871686 0 2.44024e-05)
(0.00085937 0 1.87918e-05)
(0.000842737 0 3.89767e-05)
(0.000820874 0 1.96661e-05)
(0.000801897 0 4.44625e-05)
(0.00078152 0 2.71438e-05)
(0.000755346 0 5.24999e-05)
(0.000727741 0 3.80917e-05)
(0.000696959 0 5.04433e-05)
(0.000661969 0 5.47015e-05)
(0.000624295 0 5.56581e-05)
(0.000579677 0 8.76632e-05)
(0.000539843 0 5.75724e-05)
(0.000500277 0 6.88261e-05)
(0.000433378 0 0.000144026)
(0.000392009 0 4.07654e-05)
(0.000328636 0 0.000140554)
(0.000284633 0 9.98189e-05)
(0.000175937 0 0.000141963)
(4.01312e-05 0 0.000112851)
(-1.14563e-08 0 5.57168e-05)
(-3.66057e-13 0 7.13534e-14)
(-7.30201e-13 0 2.21191e-14)
(-7.1881e-13 0 -1.28873e-14)
(-6.95658e-13 0 -4.01732e-14)
(-6.58312e-13 0 -6.23407e-14)
(-6.08202e-13 0 -8.04657e-14)
(-5.47573e-13 0 -9.47801e-14)
(-4.78813e-13 0 -1.05379e-13)
(-4.0436e-13 0 -1.12377e-13)
(-3.26621e-13 0 -1.15943e-13)
(-2.4783e-13 0 -1.16328e-13)
(-1.69944e-13 0 -1.13881e-13)
(-9.46255e-14 0 -1.09006e-13)
(-2.32549e-14 0 -1.02135e-13)
(4.3055e-14 0 -9.37029e-14)
(1.03435e-13 0 -8.41306e-14)
(1.57247e-13 0 -7.38156e-14)
(2.04105e-13 0 -6.31288e-14)
(2.43898e-13 0 -5.24123e-14)
(2.7676e-13 0 -4.19509e-14)
(3.02947e-13 0 -3.19336e-14)
(3.22713e-13 0 -2.24487e-14)
(3.36268e-13 0 -1.35267e-14)
(3.43818e-13 0 -5.18916e-15)
(3.45613e-13 0 2.53838e-15)
(3.41965e-13 0 9.63395e-15)
(3.33273e-13 0 1.60829e-14)
(3.20033e-13 0 2.18724e-14)
(3.02829e-13 0 2.69939e-14)
(2.82285e-13 0 3.146e-14)
(2.59011e-13 0 3.53152e-14)
(2.33545e-13 0 3.86262e-14)
(2.06314e-13 0 4.14498e-14)
(1.77603e-13 0 4.38043e-14)
(1.47548e-13 0 4.56648e-14)
(1.16198e-13 0 4.69906e-14)
(8.36278e-14 0 4.77694e-14)
(5.00389e-14 0 4.80534e-14)
(1.65123e-14 0 4.79551e-14)
(-6.6517e-05 0 3.85999e-05)
(3.02685e-05 0 -2.58069e-05)
(1.71057e-05 0 -4.88639e-05)
(6.18755e-05 0 -5.7148e-05)
(7.58131e-05 0 -0.000112482)
(9.25397e-05 0 -0.000165004)
(0.000221148 0 -7.45334e-05)
(0.000211237 0 -0.000186727)
(0.000281579 0 -0.000187428)
(0.000332226 0 -0.000194263)
(0.000392454 0 -0.000120237)
(0.000428652 0 -8.49873e-05)
(0.000454753 0 -0.00012546)
(0.000510249 0 -0.000130421)
(0.000557552 0 -5.83939e-05)
(0.000556032 0 -4.8763e-05)
(0.000549715 0 -3.58024e-05)
(0.00054832 0 -3.30053e-05)
(0.000552589 0 -3.12404e-05)
(0.000562224 0 -3.84815e-05)
(0.000567401 0 -5.59246e-05)
(0.000573599 0 -5.12905e-05)
(0.000583653 0 -4.43324e-05)
(0.00059437 0 -6.47181e-05)
(0.000615955 0 -2.48336e-05)
(0.000629153 0 -5.91234e-05)
(0.000641761 0 -4.91804e-05)
(0.000648893 0 -2.66554e-05)
(0.000655732 0 -2.65398e-05)
(0.000661049 0 -3.23041e-05)
(0.000672675 0 -4.32084e-05)
(0.000701307 0 -1.82174e-06)
(0.000702525 0 -6.44943e-05)
(0.000709378 0 -5.7463e-05)
(0.000724209 0 -7.26597e-05)
(0.000745764 0 -6.67949e-05)
(0.00075743 0 -3.97786e-05)
(0.000767317 0 -4.80909e-05)
(0.000776265 0 -1.07637e-05)
(0.000774647 0 -1.33354e-05)
(0.000776592 0 -3.19813e-05)
(0.000786079 0 -7.42082e-05)
(0.000809696 0 -4.73772e-05)
(0.000811412 0 -2.59809e-05)
(0.000812435 0 -1.55187e-05)
(0.000821515 0 -7.66148e-06)
(0.000843076 0 -3.53389e-06)
(0.000849638 0 -2.18951e-05)
(0.000849597 0 -2.17773e-05)
(0.000854215 0 -2.72524e-05)
(0.000864324 0 -8.96658e-06)
(0.000864377 0 -3.22117e-06)
(0.000860512 0 2.89433e-06)
(0.000851918 0 1.18897e-05)
(0.000851044 0 1.6519e-05)
(0.000854579 0 1.35356e-05)
(0.00085393 0 1.13597e-05)
(0.000848697 0 1.49223e-05)
(0.000840413 0 1.49894e-05)
(0.000830584 0 1.29785e-05)
(0.000819745 0 3.6933e-05)
(0.000810701 0 1.90012e-05)
(0.000793436 0 6.38574e-05)
(0.000774338 0 1.97521e-05)
(0.000746881 0 8.53621e-05)
(0.000727678 0 5.42713e-05)
(0.000698012 0 6.73214e-05)
(0.000665554 0 9.32083e-05)
(0.000640312 0 6.33201e-05)
(0.000607275 0 0.000110048)
(0.000583546 0 6.35809e-05)
(0.000519526 0 0.00013714)
(0.000503317 0 6.33076e-05)
(0.0004764 0 8.99999e-05)
(0.00043018 0 0.000109437)
(0.000392456 0 7.55939e-05)
(0.00028417 0 0.000225397)
(0.000275783 0 0.000190861)
(0.00023509 0 0.000177327)
(2.15128e-05 0 0.000176076)
(1.76522e-08 0 0.000107783)
(-3.88566e-13 0 6.75932e-14)
(-7.68564e-13 0 1.82858e-14)
(-7.55924e-13 0 -3.01955e-14)
(-7.27511e-13 0 -7.27559e-14)
(-6.84941e-13 0 -1.08883e-13)
(-6.29775e-13 0 -1.38787e-13)
(-5.64152e-13 0 -1.62371e-13)
(-4.90486e-13 0 -1.7965e-13)
(-4.11306e-13 0 -1.90799e-13)
(-3.29131e-13 0 -1.96144e-13)
(-2.46311e-13 0 -1.96162e-13)
(-1.64899e-13 0 -1.91484e-13)
(-8.66241e-14 0 -1.82843e-13)
(-1.28961e-14 0 -1.71014e-13)
(5.51802e-14 0 -1.56738e-13)
(1.16771e-13 0 -1.40681e-13)
(1.71286e-13 0 -1.2343e-13)
(2.18388e-13 0 -1.0552e-13)
(2.58029e-13 0 -8.74688e-14)
(2.90431e-13 0 -6.97584e-14)
(3.15958e-13 0 -5.2762e-14)
(3.3496e-13 0 -3.67038e-14)
(3.47711e-13 0 -2.16856e-14)
(3.5445e-13 0 -7.74451e-15)
(3.55431e-13 0 5.10472e-15)
(3.50957e-13 0 1.68541e-14)
(3.41409e-13 0 2.74997e-14)
(3.27289e-13 0 3.7045e-14)
(3.09214e-13 0 4.55114e-14)
(2.87853e-13 0 5.29436e-14)
(2.63832e-13 0 5.94017e-14)
(2.37671e-13 0 6.49367e-14)
(2.09751e-13 0 6.95705e-14)
(1.8032e-13 0 7.3298e-14)
(1.4952e-13 0 7.61173e-14)
(1.17457e-13 0 7.80726e-14)
(8.42961e-14 0 7.9289e-14)
(5.0371e-14 0 7.99788e-14)
(1.6636e-14 0 8.04151e-14)
(-1.78014e-05 0 2.74778e-05)
(3.12185e-05 0 -1.87038e-05)
(1.69204e-05 0 -6.63055e-05)
(4.81755e-05 0 -0.000112757)
(9.158e-05 0 -0.000127948)
(7.44095e-05 0 -0.000192505)
(0.000174516 0 -0.000175024)
(0.000184309 0 -0.000228691)
(0.000274298 0 -0.000207267)
(0.000285518 0 -0.000227468)
(0.000329941 0 -0.000174363)
(0.00036329 0 -0.000145663)
(0.000392446 0 -0.000155762)
(0.000451545 0 -9.05961e-05)
(0.000455927 0 -7.66177e-05)
(0.000456971 0 -4.8277e-05)
(0.000459526 0 -3.22368e-05)
(0.000462243 0 -3.08973e-05)
(0.000467061 0 -3.37197e-05)
(0.000473187 0 -3.37937e-05)
(0.000479262 0 -2.25065e-05)
(0.000481869 0 -2.46952e-05)
(0.000487138 0 -2.43307e-05)
(0.000491981 0 -3.44755e-05)
(0.000501978 0 -3.69286e-05)
(0.000516803 0 -4.58465e-05)
(0.000535691 0 -2.27412e-05)
(0.000538752 0 -4.73119e-05)
(0.000552988 0 2.65695e-06)
(0.000560148 0 -3.59413e-05)
(0.000575736 0 -2.49381e-05)
(0.000600444 0 3.09683e-05)
(0.000607197 0 -5.16025e-05)
(0.000624923 0 -5.42573e-05)
(0.000644681 0 -4.32856e-05)
(0.000664615 0 -9.1621e-06)
(0.000666021 0 -2.19446e-05)
(0.000675344 0 -2.86271e-05)
(0.000694602 0 -2.27525e-05)
(0.000690017 0 -8.84948e-06)
(0.000690526 0 -3.44203e-06)
(0.000702887 0 -5.87384e-06)
(0.000730032 0 -1.46018e-05)
(0.000754018 0 -3.35529e-05)
(0.00076577 0 -4.14124e-05)
(0.000775947 0 -3.00073e-05)
(0.000791954 0 -2.84535e-06)
(0.000807317 0 -1.71358e-05)
(0.000817427 0 -3.34116e-05)
(0.000829553 0 -1.95392e-05)
(0.000831456 0 -9.15283e-06)
(0.000826862 0 -1.99738e-05)
(0.000820929 0 2.35073e-07)
(0.000817582 0 -2.94695e-05)
(0.000816892 0 -1.74488e-05)
(0.00081688 0 2.38509e-06)
(0.000816268 0 1.28646e-05)
(0.000811661 0 2.41705e-05)
(0.00080182 0 2.32309e-05)
(0.000787029 0 5.41275e-05)
(0.000775616 0 8.8137e-06)
(0.000756085 0 8.39494e-05)
(0.000743297 0 2.8629e-05)
(0.000719725 0 9.54644e-05)
(0.000701894 0 2.55954e-05)
(0.000668886 0 0.000128871)
(0.000658843 0 4.91622e-05)
(0.00061607 0 0.000121161)
(0.000584939 0 0.00010496)
(0.000571666 0 0.000102727)
(0.000506264 0 0.000215323)
(0.000501517 0 8.77528e-05)
(0.000411349 0 0.000251634)
(0.000431561 0 0.000178298)
(0.000390339 0 0.000197784)
(0.000366478 0 0.000156639)
(0.000225298 0 0.000283161)
(0.000241188 0 0.000253653)
(0.000129428 0 0.00029199)
(7.89513e-05 0 0.000246214)
(7.12445e-08 0 0.000170613)
(-4.43157e-13 0 1.14496e-13)
(-8.27136e-13 0 1.20935e-14)
(-8.09035e-13 0 -5.44668e-14)
(-7.73903e-13 0 -1.12141e-13)
(-7.2431e-13 0 -1.62183e-13)
(-6.6169e-13 0 -2.03805e-13)
(-5.88435e-13 0 -2.36346e-13)
(-5.07241e-13 0 -2.59745e-13)
(-4.20854e-13 0 -2.74342e-13)
(-3.31984e-13 0 -2.80725e-13)
(-2.4317e-13 0 -2.79685e-13)
(-1.56626e-13 0 -2.72197e-13)
(-7.4156e-14 0 -2.59346e-13)
(2.85066e-15 0 -2.4223e-13)
(7.33879e-14 0 -2.21855e-13)
(1.36743e-13 0 -1.9908e-13)
(1.92409e-13 0 -1.74628e-13)
(2.40066e-13 0 -1.4915e-13)
(2.7966e-13 0 -1.23324e-13)
(3.11467e-13 0 -9.78502e-14)
(3.36002e-13 0 -7.33527e-14)
(3.5379e-13 0 -5.02561e-14)
(3.65227e-13 0 -2.87735e-14)
(3.70609e-13 0 -8.97811e-15)
(3.70212e-13 0 9.12118e-15)
(3.6436e-13 0 2.55448e-14)
(3.53464e-13 0 4.03351e-14)
(3.38045e-13 0 5.35499e-14)
(3.18728e-13 0 6.52546e-14)
(2.96176e-13 0 7.5514e-14)
(2.71004e-13 0 8.43893e-14)
(2.43713e-13 0 9.19327e-14)
(2.14675e-13 0 9.81882e-14)
(1.8415e-13 0 1.032e-13)
(1.52323e-13 0 1.07034e-13)
(1.1937e-13 0 1.09811e-13)
(8.5534e-14 0 1.11718e-13)
(5.1165e-14 0 1.12984e-13)
(1.69486e-14 0 1.13782e-13)
(1.77898e-06 0 -5.79966e-06)
(3.65896e-05 0 -2.89218e-05)
(5.14056e-06 0 -8.70812e-05)
(5.38301e-05 0 -0.000125881)
(5.61096e-05 0 -0.00015429)
(0.000102307 0 -0.000189081)
(7.83937e-05 0 -0.000249905)
(0.000131759 0 -0.000278007)
(0.000187451 0 -0.000275236)
(0.000203556 0 -0.000261897)
(0.000248121 0 -0.000204953)
(0.000290962 0 -0.000162855)
(0.00029437 0 -0.000194739)
(0.000351811 0 -0.000113335)
(0.000360091 0 -8.00149e-05)
(0.000364342 0 -6.60038e-05)
(0.000369293 0 -3.13148e-05)
(0.000369845 0 -2.50807e-05)
(0.000369243 0 -2.48311e-05)
(0.000364947 0 -3.75315e-05)
(0.000366405 0 -4.28449e-05)
(0.000367693 0 -4.72131e-05)
(0.00037454 0 -4.5953e-05)
(0.000382184 0 -5.93581e-05)
(0.000396761 0 -6.12495e-05)
(0.000414965 0 -5.61384e-05)
(0.000430006 0 -4.43408e-05)
(0.000428954 0 -5.40289e-05)
(0.00044301 0 -2.29833e-05)
(0.000445307 0 -9.02814e-05)
(0.000477953 0 -6.00771e-05)
(0.000481019 0 -4.9216e-05)
(0.000485474 0 -8.88769e-05)
(0.000534646 0 1.09031e-05)
(0.000548865 0 -0.00015529)
(0.000590401 0 -3.5495e-05)
(0.000588804 0 -7.44333e-05)
(0.000596454 0 -3.98395e-05)
(0.00063543 0 6.48766e-06)
(0.00065648 0 -4.56296e-05)
(0.00065114 0 -7.30351e-05)
(0.00065784 0 -8.94647e-05)
(0.000679431 0 -6.50686e-05)
(0.000702597 0 -2.59727e-05)
(0.00072665 0 -1.28661e-05)
(0.000753965 0 -3.08966e-05)
(0.000764763 0 -3.06101e-05)
(0.000768944 0 -2.64051e-05)
(0.000775865 0 -2.62847e-05)
(0.000784121 0 -2.48214e-05)
(0.000792225 0 3.71515e-07)
(0.000791896 0 8.08155e-06)
(0.000788512 0 1.23953e-05)
(0.000786043 0 2.11201e-05)
(0.00078216 0 3.07833e-05)
(0.000771786 0 7.88328e-06)
(0.000764288 0 3.27816e-05)
(0.000762104 0 2.99309e-05)
(0.000751816 0 5.28232e-05)
(0.000739035 0 3.91985e-05)
(0.000724571 0 7.10049e-05)
(0.000708512 0 6.82403e-05)
(0.000685167 0 9.21293e-05)
(0.000666443 0 0.000104999)
(0.000650655 0 9.3117e-05)
(0.000636401 0 9.83203e-05)
(0.000600379 0 0.00016709)
(0.00057876 0 0.000131656)
(0.000558845 0 0.000123806)
(0.000521894 0 0.000189279)
(0.00050204 0 0.00013118)
(0.000471853 0 9.85488e-05)
(0.000410858 0 0.00021485)
(0.000319765 0 0.000304845)
(0.000311091 0 0.000277884)
(0.000276731 0 0.000252996)
(0.000199131 0 0.000314298)
(0.000202107 0 0.000312456)
(0.000169025 0 0.000317658)
(8.8829e-05 0 0.000312751)
(-7.40612e-08 0 0.000206247)
(-4.85281e-13 0 -5.93271e-14)
(-9.36665e-13 0 -3.03932e-14)
(-8.79355e-13 0 -8.82448e-14)
(-8.34823e-13 0 -1.5914e-13)
(-7.76592e-13 0 -2.23977e-13)
(-7.03939e-13 0 -2.77869e-13)
(-6.20092e-13 0 -3.19412e-13)
(-5.28482e-13 0 -3.48596e-13)
(-4.32285e-13 0 -3.6605e-13)
(-3.34474e-13 0 -3.72735e-13)
(-2.37783e-13 0 -3.69819e-13)
(-1.4456e-13 0 -3.58633e-13)
(-5.66576e-14 0 -3.40609e-13)
(2.4595e-14 0 -3.1718e-13)
(9.83303e-14 0 -2.89663e-13)
(1.63998e-13 0 -2.59184e-13)
(2.21215e-13 0 -2.26679e-13)
(2.69692e-13 0 -1.92952e-13)
(3.09329e-13 0 -1.58803e-13)
(3.40402e-13 0 -1.25101e-13)
(3.63552e-13 0 -9.26906e-14)
(3.79539e-13 0 -6.22206e-14)
(3.88989e-13 0 -3.40509e-14)
(3.92344e-13 0 -8.29565e-15)
(3.89954e-13 0 1.50721e-14)
(3.82171e-13 0 3.61342e-14)
(3.69414e-13 0 5.49867e-14)
(3.52209e-13 0 7.17282e-14)
(3.31179e-13 0 8.64605e-14)
(3.06988e-13 0 9.9292e-14)
(2.80251e-13 0 1.10338e-13)
(2.5147e-13 0 1.19715e-13)
(2.21018e-13 0 1.2753e-13)
(1.89166e-13 0 1.33881e-13)
(1.56132e-13 0 1.38873e-13)
(1.2214e-13 0 1.42642e-13)
(8.74685e-14 0 1.45366e-13)
(5.24353e-14 0 1.47229e-13)
(1.74342e-14 0 1.48339e-13)
(-1.57623e-05 0 -3.8279e-06)
(3.31375e-05 0 -3.67653e-05)
(-3.36565e-06 0 -9.34585e-05)
(4.65449e-05 0 -0.000129575)
(1.07184e-05 0 -0.000172271)
(6.26671e-05 0 -0.000226556)
(4.34686e-05 0 -0.000270211)
(0.0001126 0 -0.000296183)
(0.000138047 0 -0.000283374)
(0.000120557 0 -0.000281119)
(0.000156678 0 -0.000238618)
(0.000213837 0 -0.000199784)
(0.000226374 0 -0.00018651)
(0.000249586 0 -0.000148868)
(0.000254378 0 -0.000117098)
(0.000265017 0 -4.56403e-05)
(0.000256719 0 -3.66072e-05)
(0.000256718 0 -3.43919e-05)
(0.000259607 0 -3.4234e-05)
(0.000263503 0 -4.54223e-05)
(0.000283739 0 -1.30837e-05)
(0.000281753 0 -5.18013e-05)
(0.000284395 0 -5.54651e-05)
(0.000291203 0 -7.19153e-05)
(0.000314412 0 -7.92043e-05)
(0.000336095 0 -5.53768e-05)
(0.00033529 0 -5.44837e-05)
(0.000335448 0 -5.95077e-05)
(0.000356301 0 -1.56464e-05)
(0.000353784 0 -0.000140628)
(0.000414945 0 0.000123077)
(0.000422246 0 -0.000116743)
(0.000430258 0 -0.000125343)
(0.000464222 0 -9.45738e-05)
(0.000503045 0 -6.33592e-05)
(0.000521322 0 -0.000144589)
(0.000555736 0 -1.9385e-05)
(0.000550388 0 -0.000174236)
(0.000578536 0 -1.80591e-05)
(0.000592096 0 8.59741e-06)
(0.000633314 0 -3.06144e-05)
(0.000680633 0 -7.46723e-05)
(0.000676504 0 -8.89099e-05)
(0.000674539 0 -9.71281e-05)
(0.000686652 0 -9.73103e-05)
(0.000715381 0 -7.586e-05)
(0.000720399 0 -6.22667e-05)
(0.000721456 0 -5.07528e-05)
(0.0007258 0 -4.73151e-05)
(0.000730067 0 -4.52811e-05)
(0.000737218 0 -2.43592e-05)
(0.000741126 0 -6.5343e-06)
(0.00073755 0 -6.04549e-06)
(0.000736072 0 -3.27345e-06)
(0.000736275 0 2.6391e-06)
(0.000729523 0 2.73049e-06)
(0.000719186 0 1.40032e-05)
(0.000713158 0 4.99356e-05)
(0.000703717 0 4.7474e-05)
(0.000685415 0 5.22407e-05)
(0.000670562 0 7.41159e-05)
(0.000663781 0 7.38584e-05)
(0.000640759 0 0.000106015)
(0.00060741 0 0.000116885)
(0.000600863 0 9.54714e-05)
(0.000585709 0 0.000143648)
(0.000574551 0 0.000112207)
(0.000543914 0 0.000141904)
(0.000513148 0 0.000174065)
(0.000456327 0 0.000236403)
(0.00039493 0 0.000258398)
(0.000425463 0 0.000197791)
(0.000403002 0 0.000205545)
(0.000363816 0 0.000233285)
(0.000254558 0 0.000327775)
(0.000244074 0 0.000293486)
(0.000206858 0 0.000325404)
(0.000204701 0 0.000344253)
(0.000169821 0 0.000381495)
(0.000194735 0 0.000340363)
(3.59702e-07 0 0.000271484)
(-5.44112e-13 0 1.60679e-13)
(-8.55225e-13 0 1.37881e-14)
(-9.37016e-13 0 -1.08865e-13)
(-9.09286e-13 0 -2.11721e-13)
(-8.43036e-13 0 -2.96528e-13)
(-7.57126e-13 0 -3.64188e-13)
(-6.59162e-13 0 -4.15061e-13)
(-5.53879e-13 0 -4.49816e-13)
(-4.44993e-13 0 -4.69528e-13)
(-3.35752e-13 0 -4.75579e-13)
(-2.29068e-13 0 -4.6954e-13)
(-1.27416e-13 0 -4.53139e-13)
(-3.27037e-14 0 -4.28227e-13)
(5.37967e-14 0 -3.96694e-13)
(1.31384e-13 0 -3.60304e-13)
(1.99726e-13 0 -3.2059e-13)
(2.58641e-13 0 -2.78802e-13)
(3.07943e-13 0 -2.35935e-13)
(3.47511e-13 0 -1.92884e-13)
(3.77579e-13 0 -1.50588e-13)
(3.98882e-13 0 -1.10012e-13)
(4.12429e-13 0 -7.19705e-14)
(4.19152e-13 0 -3.69686e-14)
(4.19732e-13 0 -5.18858e-15)
(4.14641e-13 0 2.34119e-14)
(4.04275e-13 0 4.8979e-14)
(3.89058e-13 0 7.16862e-14)
(3.69519e-13 0 9.17092e-14)
(3.46291e-13 0 1.09228e-13)
(3.20053e-13 0 1.24436e-13)
(2.91427e-13 0 1.37532e-13)
(2.60905e-13 0 1.48707e-13)
(2.28842e-13 0 1.58118e-13)
(1.95493e-13 0 1.65888e-13)
(1.61083e-13 0 1.72123e-13)
(1.25862e-13 0 1.76939e-13)
(9.01207e-14 0 1.80481e-13)
(5.41382e-14 0 1.82887e-13)
(1.80588e-14 0 1.8423e-13)
(-3.6036e-05 0 -1.66689e-06)
(3.56685e-05 0 -3.69089e-05)
(-9.52306e-06 0 -8.74655e-05)
(-1.49077e-05 0 -0.000130194)
(-7.06885e-06 0 -0.000188427)
(3.71767e-05 0 -0.000242613)
(1.12973e-05 0 -0.000271846)
(-1.68138e-05 0 -0.000307081)
(-2.38272e-05 0 -0.00032182)
(2.89748e-05 0 -0.000297476)
(4.95703e-05 0 -0.000279557)
(0.000132492 0 -0.000257525)
(0.000150471 0 -0.000221985)
(0.000179829 0 -0.00013219)
(0.000173133 0 -8.46709e-05)
(0.000163626 0 -5.06212e-05)
(0.000164128 0 -4.50117e-05)
(0.000176871 0 -3.14447e-05)
(0.000186235 0 -4.23707e-05)
(0.000196508 0 -4.94734e-05)
(0.00022042 0 -4.32475e-05)
(0.000220169 0 -5.13858e-05)
(0.000220926 0 -5.95709e-05)
(0.000229043 0 -8.56548e-05)
(0.000261496 0 -8.78047e-05)
(0.000282827 0 -7.51311e-05)
(0.000284411 0 -6.86699e-05)
(0.000287011 0 -7.28236e-05)
(0.000308889 0 -5.33532e-05)
(0.000315948 0 -0.00010578)
(0.000360399 0 -6.35861e-05)
(0.000387378 0 -0.000111428)
(0.000415848 0 -0.000122552)
(0.000437299 0 -0.000101125)
(0.000455179 0 -0.000121162)
(0.000491772 0 -9.76142e-05)
(0.000512202 0 -0.000125308)
(0.000525221 0 -0.000151815)
(0.000567556 0 8.17602e-05)
(0.000552024 0 -0.000128397)
(0.000583308 0 -0.000195096)
(0.000639648 0 -6.87779e-05)
(0.000639149 0 -5.04959e-05)
(0.000645694 0 -4.45807e-05)
(0.000670796 0 -3.82251e-05)
(0.000684672 0 -4.11291e-05)
(0.000680099 0 -4.1844e-05)
(0.000680108 0 -3.98856e-05)
(0.000683663 0 -3.38113e-05)
(0.000688616 0 -6.07069e-05)
(0.000699143 0 -4.50158e-05)
(0.000704401 0 9.11029e-06)
(0.000702333 0 1.6625e-05)
(0.000697405 0 5.43129e-06)
(0.00069174 0 4.63476e-05)
(0.000682554 0 1.26996e-05)
(0.00066441 0 2.18909e-05)
(0.000657494 0 5.89947e-05)
(0.000652905 0 7.0849e-05)
(0.000633628 0 8.64606e-05)
(0.000613715 0 8.12296e-05)
(0.000606942 0 0.000121269)
(0.000596784 0 9.72672e-05)
(0.00056099 0 0.000128021)
(0.000551425 0 0.000130577)
(0.000527655 0 0.000159453)
(0.00049575 0 0.000177857)
(0.000495271 0 0.000179114)
(0.000479395 0 0.000195841)
(0.000469821 0 0.000135598)
(0.000442575 0 0.000158283)
(0.000183843 0 0.000389475)
(0.000242582 0 0.000318653)
(0.000251853 0 0.000310199)
(0.000208411 0 0.00035226)
(0.000240446 0 0.000316262)
(0.000119163 0 0.000375204)
(0.000114401 0 0.000391945)
(6.20618e-05 0 0.000427999)
(0.000122637 0 0.000413078)
(-4.25928e-07 0 0.000341893)
(-5.69021e-13 0 3.47564e-13)
(-1.20534e-12 0 3.39265e-14)
(-1.10414e-12 0 -1.48514e-13)
(-1.02219e-12 0 -2.81602e-13)
(-9.2906e-13 0 -3.86009e-13)
(-8.22472e-13 0 -4.6734e-13)
(-7.0572e-13 0 -5.27281e-13)
(-5.82949e-13 0 -5.66995e-13)
(-4.58049e-13 0 -5.8794e-13)
(-3.34486e-13 0 -5.91926e-13)
(-2.15343e-13 0 -5.80989e-13)
(-1.03248e-13 0 -5.5733e-13)
(-2.12288e-16 0 -5.23318e-13)
(9.25182e-14 0 -4.81428e-13)
(1.74434e-13 0 -4.34025e-13)
(2.45501e-13 0 -3.83186e-13)
(3.05871e-13 0 -3.30585e-13)
(3.55609e-13 0 -2.77475e-13)
(3.94676e-13 0 -2.2483e-13)
(4.23274e-13 0 -1.7357e-13)
(4.4217e-13 0 -1.24652e-13)
(4.52583e-13 0 -7.89553e-14)
(4.55771e-13 0 -3.7095e-14)
(4.52725e-13 0 6.70981e-16)
(4.44122e-13 0 3.43875e-14)
(4.30445e-13 0 6.4277e-14)
(4.12144e-13 0 9.0629e-14)
(3.89751e-13 0 1.13742e-13)
(3.63906e-13 0 1.33909e-13)
(3.35292e-13 0 1.51417e-13)
(3.04521e-13 0 1.66539e-13)
(2.72055e-13 0 1.79512e-13)
(2.38199e-13 0 1.9052e-13)
(2.03171e-13 0 1.99691e-13)
(1.67183e-13 0 2.07118e-13)
(1.30498e-13 0 2.12902e-13)
(9.34165e-14 0 2.17159e-13)
(5.6184e-14 0 2.20001e-13)
(1.87769e-14 0 2.21489e-13)
(-3.77538e-05 0 1.02764e-06)
(3.54774e-05 0 -3.90336e-05)
(-1.255e-05 0 -7.78809e-05)
(-9.37652e-06 0 -0.000122609)
(-8.80441e-06 0 -0.000194986)
(-1.62701e-05 0 -0.000231086)
(-7.58593e-05 0 -0.000236687)
(-8.33497e-05 0 -0.000275993)
(-0.000150462 0 -0.000291749)
(-0.000130607 0 -0.000320483)
(-0.000107365 0 -0.000333492)
(-7.11805e-07 0 -0.000358931)
(9.80497e-05 0 -0.000242381)
(0.000125605 0 -0.000126166)
(0.000126389 0 -7.45111e-05)
(0.000125419 0 -5.62441e-05)
(0.00012568 0 -5.62994e-05)
(0.000140887 0 -4.3508e-05)
(0.000149372 0 -5.7555e-05)
(0.000155032 0 -6.98573e-05)
(0.000182646 0 -3.88084e-05)
(0.000181138 0 -6.08855e-05)
(0.000186238 0 -6.9288e-05)
(0.000183255 0 -0.000121577)
(0.000225042 0 -9.37423e-05)
(0.000241423 0 -7.63307e-05)
(0.000252703 0 -6.34691e-05)
(0.00026161 0 -8.08063e-05)
(0.000289531 0 -6.39174e-05)
(0.000301167 0 -0.000111782)
(0.000328378 0 -0.000115529)
(0.000360553 0 -0.000124527)
(0.000404021 0 -0.000103974)
(0.00039497 0 -0.000194909)
(0.00043507 0 -0.000132631)
(0.000462954 0 -0.000106204)
(0.000483192 0 -0.000122516)
(0.000488711 0 -0.000134097)
(0.000506916 0 -9.82843e-05)
(0.000549467 0 -5.55432e-05)
(0.000598908 0 -8.28356e-05)
(0.000593208 0 -0.000107734)
(0.000587782 0 -0.000119357)
(0.000595082 0 -0.000125131)
(0.000622934 0 -0.000120492)
(0.000645997 0 -8.68404e-05)
(0.000642382 0 -7.44543e-05)
(0.000642787 0 -4.82238e-05)
(0.00064568 0 -6.76292e-05)
(0.000657996 0 -3.44389e-05)
(0.000657681 0 -1.87243e-05)
(0.000656302 0 -6.06373e-08)
(0.000654457 0 7.88349e-06)
(0.000647943 0 1.93908e-06)
(0.000639929 0 2.9869e-05)
(0.000630336 0 6.25835e-05)
(0.000619853 0 3.35787e-05)
(0.000609607 0 7.16687e-05)
(0.000604929 0 8.66902e-05)
(0.000590716 0 9.16046e-05)
(0.000575892 0 4.58678e-05)
(0.000549254 0 0.000151262)
(0.00054706 0 0.000109054)
(0.000525321 0 0.000110993)
(0.000475992 0 0.000216137)
(0.000478138 0 0.000155526)
(0.000464158 0 0.000132502)
(0.000381316 0 0.000271272)
(0.000354391 0 0.000310818)
(0.000303588 0 0.000340864)
(0.000360541 0 0.000245827)
(0.000361257 0 0.000217383)
(0.000319458 0 0.000248513)
(0.000203656 0 0.000345884)
(0.000188893 0 0.000369044)
(0.000167225 0 0.000377682)
(0.00010452 0 0.000399061)
(4.84243e-05 0 0.00041431)
(7.83013e-06 0 0.000431721)
(-1.48737e-05 0 0.000450723)
(-2.74422e-07 0 0.000377495)
(-6.58258e-13 0 6.97931e-14)
(-1.35041e-12 0 -7.66887e-14)
(-1.25188e-12 0 -2.36528e-13)
(-1.14655e-12 0 -3.79446e-13)
(-1.02877e-12 0 -4.98394e-13)
(-8.98398e-13 0 -5.91866e-13)
(-7.58817e-13 0 -6.59849e-13)
(-6.14538e-13 0 -7.03232e-13)
(-4.69924e-13 0 -7.23708e-13)
(-3.28801e-13 0 -7.23577e-13)
(-1.94472e-13 0 -7.05462e-13)
(-6.9745e-14 0 -6.72147e-13)
(4.31992e-14 0 -6.26587e-13)
(1.43089e-13 0 -5.71922e-13)
(2.29625e-13 0 -5.11214e-13)
(3.03167e-13 0 -4.47183e-13)
(3.64353e-13 0 -3.82025e-13)
(4.13698e-13 0 -3.17334e-13)
(4.51416e-13 0 -2.54206e-13)
(4.77757e-13 0 -1.93508e-13)
(4.93496e-13 0 -1.36078e-13)
(4.99986e-13 0 -8.27277e-14)
(4.98779e-13 0 -3.40754e-14)
(4.91214e-13 0 9.59046e-15)
(4.78247e-13 0 4.83257e-14)
(4.60516e-13 0 8.2431e-14)
(4.38523e-13 0 1.12322e-13)
(4.12799e-13 0 1.38436e-13)
(3.83966e-13 0 1.61183e-13)
(3.52683e-13 0 1.80935e-13)
(3.19522e-13 0 1.9802e-13)
(2.84887e-13 0 2.12703e-13)
(2.49021e-13 0 2.2518e-13)
(2.12091e-13 0 2.35586e-13)
(1.74294e-13 0 2.4402e-13)
(1.35903e-13 0 2.50582e-13)
(9.72204e-14 0 2.55387e-13)
(5.84685e-14 0 2.58538e-13)
(1.95468e-14 0 2.60101e-13)
(-2.48028e-05 0 6.25528e-06)
(2.92537e-05 0 -5.41313e-05)
(-1.53218e-05 0 -7.99235e-05)
(-2.76808e-05 0 -0.000124405)
(-1.65423e-05 0 -0.000185249)
(-4.89785e-05 0 -0.00020287)
(-9.76888e-05 0 -0.00021624)
(-0.000125964 0 -0.000251834)
(-0.000192704 0 -0.000272954)
(-0.000206556 0 -0.000305511)
(-0.000189604 0 -0.000332059)
(-0.000184878 0 -0.000341817)
(-9.6632e-05 0 -0.000315226)
(9.29573e-06 0 -0.000189905)
(9.79477e-05 0 -9.16047e-05)
(0.000109455 0 -6.27136e-05)
(0.000112325 0 -5.78582e-05)
(0.000115069 0 -6.22842e-05)
(0.000129462 0 -5.2663e-05)
(0.000120551 0 -8.06583e-05)
(0.000138378 0 -5.99291e-05)
(0.000155587 0 -4.72901e-05)
(0.000164423 0 -8.05271e-05)
(0.000160341 0 -0.000122852)
(0.000181125 0 -0.000129411)
(0.000198014 0 -0.000109954)
(0.000211548 0 -0.000100872)
(0.000234661 0 -9.69558e-05)
(0.000259346 0 -0.000112148)
(0.000295181 0 -0.000108849)
(0.000312287 0 -0.000139472)
(0.000344076 0 -0.000136577)
(0.000357669 0 -0.000186381)
(0.000403788 0 -0.000139105)
(0.00041396 0 -0.000148653)
(0.000425312 0 -0.000159076)
(0.000454405 0 -0.000136415)
(0.00045904 0 -0.000169981)
(0.000488497 0 -0.000112726)
(0.00050495 0 -0.000154489)
(0.000535809 0 -0.000175546)
(0.000559126 0 -8.43229e-05)
(0.000561141 0 -8.04337e-05)
(0.000565699 0 -9.21966e-05)
(0.000581574 0 -7.34161e-05)
(0.000605152 0 -6.55745e-05)
(0.000616012 0 -5.67247e-05)
(0.000615365 0 -5.73583e-05)
(0.000619203 0 -5.41031e-05)
(0.000620136 0 -5.03455e-05)
(0.000616042 0 -4.10674e-05)
(0.000611463 0 6.38054e-06)
(0.000609374 0 2.33683e-05)
(0.000607988 0 2.29074e-05)
(0.000603736 0 3.94596e-05)
(0.000594597 0 3.64476e-05)
(0.000576176 0 2.78325e-05)
(0.00056341 0 6.95654e-05)
(0.00055977 0 9.63304e-05)
(0.000553587 0 8.87384e-05)
(0.000529848 0 0.000108396)
(0.000509593 0 0.000134721)
(0.000481584 0 0.000179576)
(0.000472684 0 0.000140007)
(0.000423084 0 0.000209485)
(0.000405843 0 0.000201425)