/*--------------------------------*- C++ -*----------------------------------*\
  =========                 |
  \\      /  F ield         | OpenFOAM: The Open Source CFD Toolbox
   \\    /   O peration     | Website:  https://openfoam.org
    \\  /    A nd           | Version:  6
     \\/     M anipulation  |
\*---------------------------------------------------------------------------*/
FoamFile
{
    version     2.0;
    format      ascii;
    class       volScalarField;
    location    "3000";
    object      Su;
}
// * * * * * * * * * * * * * * * * * * * * * * * * * * * * * * * * * * * * * //

dimensions      [0 0 -1 0 0 0 0];

internalField   nonuniform List<scalar> 
4800
(
0.218581
0.214562
0.210556
0.206589
0.202698
0.198921
0.1953
0.191862
0.188625
0.185608
0.182829
0.180298
0.178008
0.175937
0.17406
0.172344
0.170752
0.169252
0.167819
0.166438
0.165095
0.163778
0.162473
0.161173
0.159871
0.15856
0.157233
0.155882
0.154503
0.15309
0.151634
0.150131
0.148583
0.14699
0.14535
0.143665
0.141938
0.140178
0.138396
0.136604
0.134813
0.13303
0.131261
0.12951
0.127779
0.126066
0.124369
0.122686
0.121016
0.119354
0.117697
0.116041
0.11438
0.112711
0.111031
0.10934
0.107632
0.105906
0.104155
0.102372
0.100541
0.0986436
0.0966574
0.0945582
0.0923222
0.0899289
0.0873654
0.0846324
0.081736
0.0786796
0.0754669
0.0720995
0.0685684
0.0648697
0.0609989
0.0569487
0.0527165
0.0483062
0.0437343
0.0390336
0.0342735
0.0295579
0.0249693
0.0204859
0.0160985
0.0117994
0.00758193
0.00344022
-0.000631079
-0.00463666
-0.00858089
-0.0124678
-0.0163012
-0.0200845
-0.023821
-0.0275137
-0.0311654
-0.034779
-0.0383568
-0.0419013
-0.0454149
-0.0488996
-0.0523576
-0.0557908
-0.0592011
-0.0625902
-0.0659599
-0.0693119
-0.0726477
-0.0759687
-0.0792766
-0.0825726
-0.0858582
-0.0891347
-0.0924033
-0.0956653
-0.098922
-0.102174
-0.105424
-0.108672
0.218567
0.214524
0.210499
0.206522
0.202633
0.198868
0.19526
0.191844
0.188643
0.185672
0.182937
0.180439
0.178168
0.176109
0.174233
0.172509
0.170903
0.169388
0.16794
0.16654
0.165174
0.163832
0.1625
0.161174
0.159847
0.158512
0.157163
0.155792
0.15439
0.152955
0.15148
0.149961
0.148396
0.146784
0.145127
0.143425
0.141684
0.139913
0.138123
0.136322
0.134523
0.132732
0.130954
0.129196
0.127458
0.125739
0.124036
0.122346
0.12067
0.119002
0.117341
0.11568
0.114018
0.11235
0.11067
0.10898
0.107274
0.105547
0.103796
0.102013
0.100186
0.0982947
0.0963186
0.0942349
0.0920176
0.0896508
0.087118
0.0844103
0.0815322
0.0784841
0.0752678
0.0718921
0.0683576
0.0646574
0.0607867
0.0567374
0.0525126
0.0481134
0.0435597
0.0388832
0.03415
0.0294534
0.0248774
0.0204035
0.0160239
0.0117314
0.00751962
0.00338297
-0.000683803
-0.0046853
-0.00862582
-0.0125094
-0.0163396
-0.02012
-0.0238539
-0.0275441
-0.0311935
-0.0348049
-0.0383807
-0.0419233
-0.0454351
-0.0489182
-0.0523746
-0.0558063
-0.0592152
-0.0626031
-0.0659716
-0.0693224
-0.0726571
-0.0759771
-0.079284
-0.0825791
-0.0858639
-0.0891395
-0.0924073
-0.0956685
-0.0989245
-0.102176
-0.105425
-0.108672
0.218552
0.214478
0.210433
0.206452
0.202579
0.198848
0.195285
0.191921
0.188778
0.185863
0.183179
0.180722
0.178481
0.176435
0.174559
0.172822
0.171196
0.169657
0.16818
0.166747
0.165345
0.163961
0.162582
0.161207
0.159831
0.15845
0.157057
0.155643
0.154201
0.152725
0.151213
0.14966
0.148059
0.14641
0.144717
0.142982
0.141213
0.139417
0.137606
0.135788
0.133972
0.132167
0.130375
0.128602
0.126851
0.12512
0.123407
0.121708
0.120023
0.118347
0.116681
0.115014
0.113348
0.111679
0.109997
0.108303
0.106594
0.104866
0.103111
0.101324
0.0994987
0.0976137
0.0956521
0.0935932
0.091406
0.0890724
0.0865777
0.0839057
0.0810563
0.0780339
0.0748355
0.0714669
0.0679367
0.0642404
0.0603795
0.0563407
0.0521353
0.0477614
0.0432398
0.0386074
0.0339185
0.0292512
0.0246971
0.0202408
0.015876
0.0115963
0.00739578
0.00326909
-0.000788737
-0.00478215
-0.00871531
-0.0125921
-0.0164162
-0.0201909
-0.0239194
-0.0276046
-0.0312495
-0.0348565
-0.0384283
-0.0419672
-0.0454754
-0.0489552
-0.0524085
-0.0558373
-0.0592434
-0.0626287
-0.0659947
-0.0693433
-0.0726758
-0.0759938
-0.0792988
-0.0825921
-0.0858751
-0.0891491
-0.0924153
-0.095675
-0.0989294
-0.10218
-0.105427
-0.108673
0.218529
0.21443
0.210389
0.20643
0.202588
0.198908
0.19541
0.192113
0.189036
0.186183
0.183553
0.181139
0.178927
0.176895
0.17502
0.173275
0.17163
0.170062
0.168551
0.167082
0.165638
0.164203
0.162769
0.161333
0.159886
0.158425
0.156951
0.155466
0.153963
0.15243
0.150862
0.149255
0.147603
0.145903
0.144162
0.142383
0.140573
0.138742
0.136899
0.135053
0.133212
0.131382
0.129565
0.12777
0.126
0.124253
0.122526
0.120816
0.119123
0.117438
0.115766
0.114095
0.112424
0.110751
0.109066
0.107367
0.105652
0.103917
0.102154
0.100359
0.0985271
0.0966436
0.0946926
0.0926562
0.0905032
0.0882105
0.0857595
0.0831332
0.0803246
0.0773365
0.0741684
0.0708237
0.067312
0.0636299
0.0597889
0.0557768
0.051603
0.0472716
0.0428028
0.0382319
0.0335949
0.0289589
0.0244329
0.0200009
0.0156572
0.0113959
0.00721175
0.00309967
-0.000944994
-0.00492646
-0.00884873
-0.0127155
-0.0165304
-0.0202966
-0.0240172
-0.0276951
-0.0313331
-0.0349337
-0.0384994
-0.0420327
-0.0455356
-0.0490104
-0.052459
-0.0558835
-0.0592855
-0.0626669
-0.0660293
-0.0693744
-0.0727038
-0.0760188
-0.0793209
-0.0826114
-0.0858918
-0.0891633
-0.0924272
-0.0956846
-0.0989369
-0.102185
-0.10543
-0.108674
0.218526
0.214421
0.210393
0.206474
0.202686
0.199064
0.195638
0.192417
0.189409
0.18662
0.184045
0.181678
0.179497
0.177481
0.175608
0.173854
0.172191
0.170598
0.169056
0.167548
0.166058
0.164568
0.163069
0.161557
0.160022
0.158465
0.156891
0.155304
0.153705
0.152089
0.150445
0.148765
0.14705
0.145291
0.143493
0.141661
0.139803
0.137927
0.136042
0.134158
0.132281
0.130411
0.128558
0.126731
0.124936
0.123171
0.121429
0.119708
0.118007
0.116316
0.114637
0.112961
0.111284
0.109604
0.107914
0.106209
0.104486
0.10274
0.100967
0.0991648
0.0973263
0.0954403
0.093496
0.0914748
0.089351
0.0870991
0.0846932
0.0821152
0.0793545
0.0764123
0.0732858
0.069976
0.0664935
0.0628397
0.0590297
0.0550605
0.0509371
0.0466677
0.0422607
0.037751
0.0331747
0.0285808
0.0240894
0.0196875
0.0153702
0.0111325
0.00696938
0.00287623
-0.00115131
-0.00511719
-0.0090252
-0.0128789
-0.0166817
-0.0204366
-0.0241468
-0.0278149
-0.0314438
-0.0350359
-0.0385937
-0.0421194
-0.0456154
-0.0490836
-0.052526
-0.0559446
-0.0593412
-0.0627175
-0.0660751
-0.0694157
-0.0727407
-0.0760517
-0.07935
-0.082637
-0.085914
-0.0891822
-0.0924429
-0.0956974
-0.0989467
-0.102192
-0.105435
-0.108675
0.218548
0.214477
0.210468
0.206585
0.202865
0.199321
0.195969
0.192821
0.189882
0.187153
0.184633
0.182311
0.180165
0.178168
0.1763
0.174539
0.172863
0.171252
0.169684
0.168141
0.166602
0.165052
0.16348
0.161881
0.160247
0.158587
0.156901
0.155194
0.153471
0.151739
0.149995
0.148226
0.14643
0.1446
0.142736
0.140842
0.138923
0.136989
0.135051
0.133116
0.131198
0.129282
0.127385
0.125519
0.123695
0.121905
0.120145
0.11841
0.116699
0.115
0.113313
0.111632
0.10995
0.108265
0.10657
0.10486
0.103132
0.101379
0.0995971
0.0977872
0.0959413
0.0940505
0.09211
0.0900987
0.0879958
0.085779
0.0834176
0.0808891
0.0781808
0.0752887
0.0722089
0.0689444
0.0655056
0.0618936
0.058126
0.0542153
0.0501624
0.0459733
0.0416459
0.037202
0.0326783
0.028125
0.0236718
0.0193046
0.0150185
0.0108088
0.00667095
0.00260065
-0.00140611
-0.00535299
-0.00924356
-0.0130812
-0.016869
-0.0206102
-0.0243074
-0.0279636
-0.0315812
-0.0351627
-0.0387106
-0.0422271
-0.0457143
-0.0491743
-0.052609
-0.0560204
-0.0594102
-0.0627801
-0.0661318
-0.0694668
-0.0727865
-0.0760925
-0.0793861
-0.0826686
-0.0859413
-0.0892055
-0.0924624
-0.0957131
-0.0989588
-0.102201
-0.10544
-0.108677
0.218551
0.214516
0.21058
0.206776
0.203131
0.199663
0.196383
0.193304
0.190429
0.187756
0.185285
0.183005
0.180893
0.178922
0.177069
0.175314
0.173638
0.172014
0.170422
0.168846
0.16726
0.165651
0.164008
0.162321
0.160587
0.158815
0.157006
0.155169
0.15331
0.15144
0.149566
0.147684
0.145787
0.143866
0.141919
0.139947
0.137952
0.135946
0.133943
0.131948
0.129987
0.12802
0.126074
0.124161
0.122297
0.120473
0.118685
0.116932
0.115207
0.113499
0.111803
0.110116
0.108431
0.106744
0.105047
0.103337
0.101608
0.0998555
0.0980709
0.0962562
0.0944064
0.0925135
0.0905743
0.0885701
0.0864811
0.084289
0.0819657
0.0794848
0.0768291
0.0739905
0.0709668
0.0677545
0.0643666
0.0608126
0.0571065
0.0532595
0.0492738
0.0451599
0.0409126
0.036552
0.0321012
0.0275945
0.0231842
0.0188561
0.0146055
0.0104278
0.00631897
0.00227508
-0.00170757
-0.00563232
-0.00950249
-0.0133212
-0.0170916
-0.0208164
-0.0244984
-0.0281402
-0.0317444
-0.0353134
-0.0388495
-0.0423549
-0.0458318
-0.049282
-0.0527076
-0.0561104
-0.0594921
-0.0628545
-0.066199
-0.0695273
-0.0728408
-0.0761408
-0.0794288
-0.0827061
-0.0859738
-0.0892332
-0.0924854
-0.0957317
-0.0989731
-0.102211
-0.105446
-0.108679
0.218617
0.214683
0.210819
0.207078
0.20349
0.200081
0.196865
0.193849
0.191034
0.188416
0.185996
0.18376
0.181684
0.179743
0.177912
0.176174
0.174507
0.172877
0.171265
0.169661
0.168034
0.166373
0.164658
0.162882
0.161047
0.159161
0.157226
0.15525
0.153245
0.151226
0.149206
0.147185
0.145161
0.143128
0.141079
0.13901
0.136923
0.134831
0.132754
0.130687
0.128671
0.126649
0.124646
0.122671
0.120752
0.118882
0.117057
0.115278
0.113535
0.111813
0.110108
0.108414
0.106727
0.10504
0.103347
0.101642
0.0999218
0.0981775
0.0964013
0.0945919
0.0927453
0.0908546
0.0889174
0.0869198
0.0848422
0.0826695
0.0803776
0.0779395
0.0753354
0.0725544
0.0695928
0.066445
0.0631207
0.0596283
0.0559851
0.052203
0.0482876
0.0442506
0.0400865
0.0358126
0.0314442
0.0269934
0.0226312
0.0183464
0.0141348
0.00999269
0.0059162
0.00190185
-0.00205369
-0.00595345
-0.0098005
-0.0135978
-0.0173481
-0.0210542
-0.0247186
-0.0283441
-0.0319329
-0.0354874
-0.0390098
-0.0425025
-0.0459672
-0.0494062
-0.0528212
-0.0562141
-0.0595865
-0.06294
-0.0662764
-0.0695969
-0.0729032
-0.0761964
-0.079478
-0.0827491
-0.086011
-0.0892649
-0.0925119
-0.0957531
-0.0989896
-0.102222
-0.105453
-0.108681
0.218669
0.214842
0.211074
0.207413
0.203897
0.200556
0.197403
0.19445
0.191696
0.189137
0.186774
0.184586
0.18255
0.180641
0.178839
0.177124
0.175469
0.173839
0.172218
0.170592
0.168927
0.16721
0.165423
0.163557
0.16162
0.159617
0.157554
0.155437
0.153283
0.151112
0.148938
0.146767
0.144598
0.14243
0.140256
0.138074
0.135883
0.133692
0.131525
0.129369
0.127266
0.125174
0.123103
0.121056
0.119066
0.117137
0.115262
0.113448
0.111681
0.109945
0.108229
0.106527
0.104837
0.103153
0.101466
0.099774
0.0980705
0.0963447
0.0945887
0.092798
0.0909669
0.089087
0.0871561
0.0851657
0.0830974
0.0809391
0.0786716
0.0762717
0.0737169
0.0709938
0.0680943
0.0650152
0.061762
0.0583384
0.0547648
0.0510567
0.0472223
0.0432751
0.0392105
0.0350266
0.030729
0.0263301
0.0220182
0.0177797
0.0136104
0.0095068
0.00546549
0.00148343
-0.00244234
-0.00631455
-0.010136
-0.0139094
-0.0176373
-0.0213224
-0.0249672
-0.0285741
-0.0321455
-0.0356837
-0.0391907
-0.0426688
-0.04612
-0.0495462
-0.0529492
-0.0563308
-0.0596926
-0.0630363
-0.0663634
-0.0696752
-0.0729733
-0.0762588
-0.0795331
-0.0827974
-0.0860528
-0.0893005
-0.0925415
-0.095777
-0.099008
-0.102235
-0.10546
-0.108684
0.218719
0.214996
0.211334
0.207771
0.204344
0.201079
0.197995
0.195108
0.192419
0.18993
0.187631
0.185495
0.183502
0.18163
0.179859
0.178168
0.176529
0.174902
0.173275
0.171628
0.169923
0.168146
0.166284
0.164328
0.162289
0.160175
0.157986
0.15573
0.153424
0.151093
0.14876
0.146434
0.144115
0.141802
0.139492
0.137185
0.134878
0.132571
0.130288
0.12802
0.125796
0.123603
0.121448
0.119325
0.117258
0.115259
0.113328
0.111468
0.10967
0.107913
0.10618
0.104468
0.102775
0.101092
0.0994123
0.0977361
0.0960539
0.0943518
0.0926236
0.0908619
0.0890583
0.0872018
0.0852883
0.0833135
0.0812619
0.0791228
0.0768793
0.0745139
0.0720058
0.0693399
0.0665051
0.0634985
0.0603217
0.0569754
0.0534779
0.0498457
0.0460898
0.0422206
0.0382367
0.0341471
0.029943
0.0256066
0.0213494
0.0171604
0.0130361
0.00897351
0.00496979
0.00102236
-0.00287134
-0.00671372
-0.0105073
-0.0142545
-0.017958
-0.02162
-0.025243
-0.0288294
-0.0323815
-0.0359014
-0.0393913
-0.0428533
-0.0462893
-0.0497012
-0.0530908
-0.0564599
-0.05981
-0.0631427
-0.0664594
-0.0697616
-0.0730506
-0.0763276
-0.0795939
-0.0828506
-0.0860988
-0.0893397
-0.0925742
-0.0958034
-0.0990283
-0.10225
-0.105469
-0.108687
0.21877
0.21515
0.211592
0.208134
0.20481
0.201639
0.198644
0.195842
0.193231
0.190814
0.188573
0.186491
0.184546
0.182716
0.180983
0.179317
0.177692
0.176065
0.174435
0.172762
0.171015
0.169176
0.167234
0.165187
0.163049
0.160826
0.158511
0.156112
0.153653
0.151161
0.148663
0.146183
0.143719
0.141263
0.138813
0.136368
0.133924
0.13148
0.129054
0.126654
0.124296
0.121982
0.119721
0.117512
0.115365
0.113292
0.111297
0.109382
0.107541
0.105754
0.103999
0.102271
0.100571
0.0988861
0.0972104
0.0955458
0.0938816
0.0922028
0.0905046
0.0887782
0.0870108
0.0851889
0.0833043
0.0813535
0.0793254
0.0772096
0.0749925
0.0726622
0.0702021
0.0675964
0.0648308
0.0619004
0.0588011
0.0555348
0.0521176
0.0485659
0.0448932
0.0411105
0.0372147
0.0332159
0.0291036
0.0248307
0.0206305
0.0164932
0.0124159
0.00839625
0.00443205
0.000521161
-0.0033385
-0.00714904
-0.0109127
-0.0146318
-0.0183086
-0.0219455
-0.0255448
-0.0291088
-0.0326396
-0.0361395
-0.0396106
-0.0430548
-0.0464741
-0.0498704
-0.0532453
-0.0566006
-0.0599378
-0.0632585
-0.0665639
-0.0698556
-0.0731346
-0.0764023
-0.0796598
-0.0829083
-0.0861487
-0.0893821
-0.0926096
-0.095832
-0.0990503
-0.102265
-0.105478
-0.10869
0.218828
0.215323
0.211883
0.208544
0.205332
0.202271
0.199376
0.196655
0.194116
0.191772
0.189596
0.187573
0.185681
0.1839
0.182207
0.180571
0.178959
0.177335
0.175696
0.173984
0.172189
0.170287
0.168266
0.166125
0.16388
0.161538
0.159097
0.156562
0.153948
0.151289
0.148626
0.145991
0.143385
0.14079
0.138199
0.135605
0.133003
0.130403
0.127824
0.125281
0.122784
0.120342
0.117962
0.115651
0.113414
0.111261
0.109197
0.107222
0.105333
0.103507
0.101723
0.0999733
0.0982592
0.0965669
0.0948897
0.0932302
0.0915761
0.0899158
0.0882444
0.0865522
0.0848233
0.083042
0.0811957
0.07928
0.0772864
0.075204
0.073022
0.0707322
0.0683219
0.0657764
0.0630806
0.0602278
0.0572094
0.0540268
0.0506931
0.0472249
0.0436397
0.0399504
0.0361529
0.0322474
0.0282202
0.0240089
0.0198668
0.0157826
0.0117537
0.00777837
0.00385512
-1.76859e-05
-0.00384168
-0.00761865
-0.0113506
-0.0150396
-0.0186879
-0.0222978
-0.0258714
-0.029411
-0.0329188
-0.0363969
-0.0398475
-0.0432724
-0.0466735
-0.0500528
-0.0534117
-0.0567521
-0.0600753
-0.0633829
-0.0666761
-0.0699563
-0.0732247
-0.0764824
-0.0797305
-0.0829701
-0.0862021
-0.0894276
-0.0926474
-0.0958625
-0.0990738
-0.102282
-0.105488
-0.108693
0.218899
0.215537
0.212234
0.20902
0.205917
0.202953
0.200148
0.197513
0.195063
0.192795
0.190686
0.188725
0.18689
0.185155
0.183495
0.181882
0.180272
0.178649
0.176994
0.175257
0.173424
0.171464
0.169366
0.167134
0.164787
0.162334
0.159763
0.157073
0.154289
0.151454
0.148621
0.145828
0.143083
0.140358
0.137626
0.134875
0.132106
0.129338
0.126597
0.123903
0.121266
0.118695
0.116196
0.113778
0.111447
0.109209
0.107066
0.105022
0.103076
0.101204
0.0993858
0.0976091
0.0958741
0.0941693
0.0924845
0.0908217
0.0891688
0.0875181
0.0858657
0.0842027
0.0825075
0.0807648
0.07896
0.0770873
0.075137
0.0730971
0.0709592
0.0687175
0.0663624
0.0638796
0.0612566
0.0584859
0.0555583
0.0524697
0.0492288
0.0458481
0.0423463
0.0387449
0.0350352
0.0312187
0.0272844
0.0231443
0.0190629
0.0150328
0.0110531
0.00712304
0.00324172
-0.000591857
-0.00437886
-0.00812077
-0.0118194
-0.0154766
-0.0190945
-0.0226754
-0.0262215
-0.0297349
-0.0332178
-0.0366725
-0.0401008
-0.0435049
-0.0468865
-0.0502473
-0.0535891
-0.0569134
-0.0602216
-0.0635151
-0.0667953
-0.0700633
-0.0733202
-0.0765672
-0.0798053
-0.0830354
-0.0862586
-0.0894756
-0.0926874
-0.0958948
-0.0990986
-0.1023
-0.105499
-0.108697
0.218977
0.215765
0.212602
0.209517
0.206535
0.203682
0.20098
0.198442
0.196076
0.193882
0.191842
0.189943
0.188161
0.186472
0.184846
0.183253
0.181646
0.180023
0.178345
0.176579
0.174702
0.172684
0.170513
0.168192
0.165742
0.163172
0.16046
0.157608
0.154651
0.151641
0.148632
0.145675
0.142789
0.139939
0.137073
0.134167
0.131233
0.128299
0.125395
0.122547
0.119769
0.117067
0.114447
0.111919
0.109488
0.107158
0.104932
0.102811
0.100796
0.0988688
0.0970119
0.0952067
0.0934475
0.0917235
0.0900253
0.0883516
0.086692
0.0850415
0.0833961
0.0817509
0.0800817
0.0783728
0.076611
0.0747855
0.072882
0.0708895
0.0688027
0.0666164
0.0643237
0.0619128
0.0593715
0.0566872
0.0538532
0.050863
0.0477222
0.0444414
0.0410336
0.0375237
0.0339016
0.030168
0.0263165
0.0222453
0.0182241
0.0142481
0.0103177
0.00643313
0.00259429
-0.00119926
-0.00494821
-0.00865377
-0.0123175
-0.0159412
-0.0195271
-0.0230772
-0.0265938
-0.0300791
-0.0335355
-0.0369649
-0.0403695
-0.0437511
-0.0471117
-0.0504528
-0.0537762
-0.0570833
-0.0603756
-0.0636542
-0.0669205
-0.0701755
-0.0734204
-0.0766562
-0.0798837
-0.0831039
-0.0863176
-0.0895258
-0.0927292
-0.0959285
-0.0991245
-0.102318
-0.10551
-0.1087
0.219054
0.215993
0.212971
0.210017
0.207165
0.204439
0.20185
0.199413
0.197138
0.195026
0.193057
0.191222
0.189493
0.187843
0.186244
0.184662
0.183061
0.18143
0.179731
0.177936
0.176016
0.173942
0.1717
0.16929
0.166736
0.164041
0.161176
0.158146
0.154991
0.151785
0.148612
0.145511
0.142487
0.139511
0.136519
0.133468
0.130382
0.127297
0.124243
0.121246
0.118326
0.115495
0.112756
0.11012
0.107589
0.105168
0.102858
0.100656
0.0985624
0.0965623
0.0946466
0.0927981
0.0910075
0.0892569
0.0875379
0.0858466
0.0841734
0.0825128
0.0808644
0.0792246
0.0775738
0.0758898
0.0741626
0.0723812
0.0705265
0.0685848
0.0665517
0.0644266
0.0622013
0.0598643
0.0574054
0.0548107
0.0520742
0.0491891
0.0461567
0.0429859
0.0396845
0.0362749
0.0327487
0.0291006
0.025325
0.0213178
0.0173547
0.0134319
0.00955035
0.00571114
0.00191491
-0.00183812
-0.00554821
-0.00921627
-0.0128437
-0.0164323
-0.0199843
-0.0235017
-0.026987
-0.0304424
-0.0338703
-0.0372728
-0.0406519
-0.0440097
-0.0473479
-0.0506681
-0.053972
-0.0572609
-0.0605362
-0.0637992
-0.0670508
-0.0702923
-0.0735245
-0.0767485
-0.079965
-0.0831748
-0.0863789
-0.0895778
-0.0927724
-0.0959633
-0.0991513
-0.102337
-0.105521
-0.108704
0.219136
0.216236
0.213372
0.210569
0.207856
0.205251
0.202773
0.200439
0.198256
0.196224
0.194327
0.192552
0.190871
0.189254
0.187674
0.186101
0.184503
0.182862
0.181143
0.17932
0.177358
0.175231
0.172919
0.170417
0.16775
0.164919
0.161887
0.158662
0.155294
0.151899
0.148576
0.145345
0.142184
0.139066
0.135941
0.132757
0.129535
0.126314
0.12313
0.120006
0.116959
0.114005
0.111154
0.108414
0.105783
0.103267
0.100867
0.0985814
0.0964073
0.0943333
0.092351
0.090443
0.0886005
0.0868052
0.0850496
0.0833286
0.0816337
0.0799561
0.0782939
0.076643
0.0749939
0.0733271
0.0716299
0.0698881
0.0680806
0.0661937
0.064219
0.0621562
0.0600009
0.0577427
0.0553702
0.0528706
0.0502395
0.0474664
0.0445471
0.0414884
0.038297
0.0349895
0.0315627
0.0280067
0.0243099
0.0203644
0.0164581
0.0125871
0.0087535
0.004959
0.00120516
-0.00250713
-0.00617769
-0.00980718
-0.0133969
-0.0169488
-0.0204649
-0.0239477
-0.0273997
-0.0308233
-0.0342209
-0.0375947
-0.0409468
-0.0442792
-0.0475936
-0.0508917
-0.054175
-0.0574448
-0.0607024
-0.0639489
-0.0671853
-0.0704126
-0.0736317
-0.0768434
-0.0800485
-0.0832477
-0.0864417
-0.0896311
-0.0928167
-0.0959991
-0.0991788
-0.102356
-0.105533
-0.108708
0.219221
0.216488
0.213784
0.211131
0.208555
0.206075
0.203712
0.201483
0.199396
0.197446
0.195623
0.193908
0.192271
0.19068
0.189117
0.187553
0.185957
0.184306
0.182567
0.180713
0.178709
0.176522
0.174132
0.171535
0.168751
0.165772
0.162562
0.159144
0.155598
0.152043
0.14856
0.145171
0.141859
0.13859
0.135332
0.132029
0.128692
0.125355
0.122055
0.11882
0.11567
0.112617
0.109665
0.106822
0.104093
0.101479
0.0989836
0.0966072
0.0943464
0.0921949
0.090142
0.0881705
0.0862694
0.084422
0.0826202
0.080857
0.079126
0.0774201
0.0757341
0.0740653
0.0724041
0.0707378
0.0690552
0.0673403
0.0655705
0.0637331
0.0618201
0.059827
0.0577487
0.0555746
0.0532954
0.050894
0.0483629
0.0456968
0.0428929
0.0399508
0.0368732
0.0336698
0.0303419
0.0268809
0.0232693
0.0193871
0.0155367
0.0117162
0.00792896
0.00417806
0.000466027
-0.00320552
-0.00683597
-0.0104258
-0.0139763
-0.0174896
-0.020968
-0.0244141
-0.0278306
-0.0312203
-0.0345857
-0.037929
-0.0412524
-0.0445579
-0.0478473
-0.0511222
-0.0543839
-0.0576337
-0.0608728
-0.0641022
-0.0673228
-0.0705355
-0.073741
-0.0769401
-0.0801335
-0.0833218
-0.0865055
-0.0896853
-0.0928618
-0.0960354
-0.0992066
-0.102376
-0.105544
-0.108712
0.219304
0.216736
0.21419
0.211687
0.209251
0.206903
0.204661
0.202539
0.200544
0.198672
0.196917
0.195258
0.193658
0.192097
0.190554
0.189
0.187405
0.185745
0.183986
0.182097
0.180041
0.177785
0.175306
0.172601
0.169691
0.166569
0.163187
0.159572
0.155834
0.152106
0.148462
0.144919
0.141466
0.138072
0.134703
0.131305
0.127872
0.124438
0.121041
0.117711
0.114463
0.111311
0.108263
0.105326
0.102504
0.0997964
0.0972064
0.0947359
0.0923824
0.0901465
0.0880167
0.0859752
0.0840094
0.0821051
0.0802528
0.0784414
0.0766668
0.0749237
0.0732038
0.0715077
0.0698268
0.0681508
0.0664715
0.0647718
0.0630272
0.0612264
0.059363
0.0574322
0.0554265
0.0533341
0.0511457
0.0488476
0.046429
0.0438796
0.0411953
0.0383741
0.0354155
0.0323229
0.0290979
0.025734
0.0222109
0.0183909
0.0145942
0.0108214
0.00707809
0.00336898
-0.000302252
-0.00393321
-0.00752296
-0.0110719
-0.0145815
-0.0180541
-0.0214924
-0.0248995
-0.0282783
-0.0316319
-0.0349629
-0.0382739
-0.041567
-0.0448442
-0.0481073
-0.0513578
-0.054597
-0.057826
-0.061046
-0.0642578
-0.0674621
-0.0706598
-0.0738515
-0.0770378
-0.0802193
-0.0833965
-0.0865698
-0.0897398
-0.092907
-0.0960718
-0.0992346
-0.102396
-0.105556
-0.108716
0.219385
0.216979
0.214592
0.212243
0.20995
0.207731
0.205603
0.203583
0.201675
0.199882
0.198195
0.196584
0.19502
0.19349
0.191966
0.190424
0.188831
0.187161
0.185381
0.183456
0.181346
0.179016
0.176438
0.173615
0.170569
0.167295
0.163741
0.15994
0.156017
0.152118
0.148314
0.144626
0.141052
0.137566
0.134115
0.130643
0.127136
0.123621
0.120138
0.116722
0.113386
0.110145
0.107006
0.103977
0.101059
0.098253
0.0955613
0.0929875
0.0905333
0.0882042
0.0859909
0.0838736
0.0818371
0.0798683
0.0779578
0.0760905
0.0742662
0.0724809
0.0707236
0.0689947
0.0672856
0.0655918
0.0639071
0.0622149
0.0604889
0.058717
0.056893
0.0550162
0.0530775
0.0510634
0.0489655
0.0467697
0.0444619
0.0420298
0.0394669
0.0367673
0.033928
0.0309489
0.0278303
0.0245647
0.0211368
0.0173831
0.0136357
0.00990521
0.00620161
0.00253154
-0.00110033
-0.00469098
-0.00823927
-0.0117457
-0.0152123
-0.0186417
-0.0220373
-0.0254026
-0.0287412
-0.0320563
-0.0353508
-0.0386275
-0.0418886
-0.0451361
-0.0483717
-0.0515968
-0.0548126
-0.0580202
-0.0612205
-0.0644142
-0.067602
-0.0707845
-0.0739622
-0.0771355
-0.080305
-0.083471
-0.0866339
-0.0897942
-0.0929521
-0.0961081
-0.0992625
-0.102416
-0.105568
-0.10872
0.219464
0.217214
0.21498
0.212778
0.210621
0.208528
0.206513
0.204593
0.202777
0.201064
0.199436
0.197872
0.196346
0.194845
0.19334
0.191807
0.190217
0.188543
0.186744
0.184777
0.182604
0.180188
0.177504
0.174558
0.171379
0.167956
0.164231
0.16026
0.156188
0.152147
0.148205
0.144385
0.140698
0.137127
0.133606
0.130062
0.126488
0.122912
0.11936
0.115866
0.112448
0.109121
0.105894
0.102775
0.0997625
0.0968562
0.0940579
0.091374
0.08881
0.0863759
0.0840672
0.0818654
0.0797518
0.077713
0.0757387
0.0738122
0.0719331
0.0701014
0.0683047
0.0665429
0.064804
0.0630884
0.0613911
0.0596991
0.0579868
0.0562392
0.0544494
0.05262
0.0507432
0.0488042
0.0467927
0.0446946
0.0424933
0.0401738
0.0377282
0.0351482
0.0324269
0.0295608
0.0265468
0.0233773
0.020053
0.0163782
0.0126687
0.00896981
0.00529935
0.0016644
-0.00193
-0.00548059
-0.00898635
-0.0124483
-0.015869
-0.0192521
-0.0226018
-0.0259222
-0.0292175
-0.0324914
-0.0357471
-0.0389875
-0.0422149
-0.0454312
-0.0486382
-0.0518371
-0.0550289
-0.0582145
-0.0613948
-0.0645701
-0.0677412
-0.0709083
-0.0740719
-0.0772323
-0.0803898
-0.0835447
-0.0866973
-0.0898478
-0.0929966
-0.0961439
-0.09929
-0.102435
-0.10558
-0.108724
0.219538
0.217436
0.215348
0.213285
0.211261
0.209292
0.207392
0.205576
0.203849
0.202205
0.200633
0.199114
0.197625
0.196152
0.194668
0.193146
0.191554
0.189866
0.188036
0.186021
0.183787
0.181287
0.178495
0.175419
0.172102
0.168539
0.164679
0.160594
0.156427
0.152278
0.148208
0.144265
0.140467
0.136809
0.133224
0.129618
0.125977
0.122338
0.118718
0.11515
0.111654
0.108242
0.104929
0.101721
0.0986142
0.0956046
0.0926942
0.0898946
0.0872137
0.0846639
0.0822465
0.0799487
0.0777504
0.0756362
0.0735934
0.0716074
0.0696734
0.0677939
0.0659585
0.0641653
0.0624012
0.0606687
0.0589602
0.0572646
0.0555637
0.0538379
0.0520773
0.0502886
0.0484629
0.046587
0.0446512
0.0426449
0.0405485
0.0383393
0.0360084
0.0335453
0.0309403
0.0281868
0.0252778
0.0222034
0.0189818
0.0149431
0.0116972
0.0080145
0.0043692
0.000764657
-0.0027945
-0.00630509
-0.00976664
-0.0131811
-0.0165524
-0.0198852
-0.0231849
-0.0264567
-0.0297054
-0.032935
-0.0361494
-0.0393514
-0.0425434
-0.0457273
-0.0489046
-0.0520764
-0.0552437
-0.0584071
-0.061567
-0.0647239
-0.0678782
-0.07103
-0.0741796
-0.0773271
-0.0804728
-0.0836167
-0.0867592
-0.0899002
-0.09304
-0.0961788
-0.0993168
-0.102454
-0.105591
-0.108727
0.219606
0.21764
0.215687
0.213757
0.21186
0.21001
0.20822
0.206502
0.204857
0.203281
0.201765
0.200291
0.198839
0.197393
0.195931
0.19442
0.192833
0.19114
0.189286
0.187231
0.18493
0.182331
0.179407
0.176187
0.172739
0.169062
0.165106
0.160948
0.156723
0.152516
0.148354
0.144284
0.140372
0.136613
0.132952
0.129287
0.125588
0.121893
0.118216
0.114578
0.111002
0.1075
0.104096
0.100794
0.097591
0.0944766
0.0914504
0.0885283
0.0857227
0.083049
0.0805123
0.0781081
0.0758181
0.0736244
0.0715114
0.0694664
0.0674849
0.0655656
0.063701
0.0618856
0.0601073
0.0583683
0.0566586
0.0549658
0.0532773
0.051574
0.0498422
0.0480912
0.0463112
0.0444899
0.0426144
0.040681
0.0386755
0.0365683
0.0343441
0.031987
0.029488
0.0268435
0.0240421
0.0210663
0.0179186
0.0143848
0.0106929
0.00703119
0.00340647
-0.000172559
-0.00369887
-0.00716907
-0.0105837
-0.0139466
-0.0172633
-0.0205408
-0.0237856
-0.0270042
-0.0302022
-0.0333844
-0.0365547
-0.0397162
-0.0428712
-0.0460214
-0.0491682
-0.0523125
-0.0554549
-0.0585957
-0.0617354
-0.0648739
-0.0680115
-0.0711482
-0.074284
-0.077419
-0.0805531
-0.0836864
-0.0868189
-0.0899508
-0.0930819
-0.0962125
-0.0993426
-0.102472
-0.105602
-0.108731
0.219665
0.217819
0.215991
0.214185
0.212408
0.210671
0.208986
0.20736
0.205793
0.204284
0.202824
0.201393
0.199974
0.198555
0.197111
0.195612
0.194027
0.19232
0.190439
0.188346
0.185984
0.183304
0.180285
0.176949
0.173373
0.169591
0.16556
0.161361
0.157111
0.15287
0.148642
0.144466
0.140416
0.136523
0.132756
0.129029
0.125286
0.12155
0.117825
0.114121
0.110466
0.106876
0.103373
0.0999666
0.096655
0.09343
0.0902883
0.0872437
0.08431
0.0815065
0.0788409
0.0763212
0.073932
0.071657
0.0694788
0.0673846
0.0653705
0.0634305
0.0615572
0.0597408
0.0579691
0.0562406
0.0545467
0.0528732
0.0512068
0.0495317
0.0478324
0.046116
0.0443754
0.0426012
0.0407782
0.0389053
0.0369721
0.0349494
0.0328138
0.0305478
0.028139
0.0255767
0.0228521
0.0199408
0.0168331
0.0133466
0.00967695
0.00602394
0.00240765
-0.00115399
-0.00465061
-0.00807917
-0.0114426
-0.0147476
-0.0180031
-0.0212184
-0.0244021
-0.0275622
-0.0307051
-0.0338362
-0.0369596
-0.0400784
-0.0431949
-0.0463105
-0.0494262
-0.0525426
-0.05566
-0.0587784
-0.061898
-0.0650185
-0.0681398
-0.0712617
-0.0743841
-0.0775069
-0.0806299
-0.0837529
-0.086876
-0.0899989
-0.0931218
-0.0962445
-0.0993671
-0.10249
-0.105612
-0.108734
0.219719
0.217982
0.216263
0.214567
0.2129
0.211269
0.209681
0.20814
0.206648
0.205199
0.203785
0.202394
0.201006
0.199617
0.198197
0.196718
0.195151
0.193447
0.191555
0.189429
0.187015
0.184262
0.181145
0.177694
0.174012
0.170152
0.166053
0.16182
0.157569
0.153327
0.149072
0.144808
0.140597
0.136515
0.132602
0.128796
0.125005
0.12123
0.117465
0.113718
0.110006
0.106335
0.102723
0.0991959
0.095759
0.0924131
0.0891511
0.0859822
0.0829209
0.0799891
0.0771892
0.0745502
0.0720619
0.0697124
0.0674855
0.0653661
0.0633472
0.0614177
0.0595708
0.0577896
0.0560561
0.0543614
0.0527066
0.0510765
0.0494499
0.0478139
0.0461506
0.0444678
0.042758
0.0410217
0.0392375
0.0374124
0.0355315
0.0335744
0.0315074
0.0293077
0.0269615
0.0244527
0.0217612
0.0188772
0.0157985
0.0123496
0.00867336
0.00499794
0.00136631
-0.00219063
-0.00566111
-0.00904491
-0.0123498
-0.0155879
-0.0187727
-0.0219171
-0.0250321
-0.0281273
-0.03121
-0.0342861
-0.0373598
-0.0404341
-0.0435107
-0.046591
-0.0496753
-0.0527638
-0.0558564
-0.0589529
-0.0620528
-0.0651557
-0.0682612
-0.071369
-0.0744787
-0.0775898
-0.0807022
-0.0838155
-0.0869296
-0.0900442
-0.0931593
-0.0962746
-0.0993902
-0.102506
-0.105622
-0.108738
0.219766
0.218125
0.216502
0.214904
0.213334
0.211797
0.210296
0.208831
0.207401
0.206004
0.204632
0.203281
0.201927
0.200573
0.199186
0.197738
0.19619
0.19449
0.192592
0.190451
0.188013
0.18522
0.18204
0.17851
0.174752
0.170802
0.166597
0.162307
0.158043
0.153795
0.149517
0.145181
0.140824
0.136555
0.132472
0.128556
0.124701
0.12088
0.117076
0.113287
0.109524
0.10578
0.102065
0.0984128
0.0948427
0.0913653
0.0879723
0.0846748
0.0814928
0.0784488
0.0755236
0.0727651
0.0701913
0.0677833
0.0655414
0.0634403
0.0614681
0.0595936
0.0578241
0.0561246
0.0544682
0.0528192
0.0512186
0.0496624
0.0481088
0.046522
0.0448876
0.0432432
0.0415497
0.0398478
0.0380884
0.0362987
0.0344575
0.0325377
0.0305065
0.0283519
0.0260258
0.0235242
0.0208397
0.0179594
0.0148794
0.0114429
0.00771643
0.00395704
0.000267081
-0.00330183
-0.00674805
-0.0100797
-0.0133138
-0.0164713
-0.0195726
-0.0226348
-0.025672
-0.0286949
-0.0317119
-0.034729
-0.0377503
-0.0407783
-0.0438143
-0.0468589
-0.0499119
-0.052973
-0.0560415
-0.0591166
-0.0621977
-0.0652838
-0.0683745
-0.0714688
-0.0745664
-0.0776667
-0.0807691
-0.0838734
-0.0869791
-0.090086
-0.0931939
-0.0963024
-0.0994115
-0.102521
-0.105631
-0.108741
0.219809
0.218251