/*--------------------------------*- C++ -*----------------------------------*\
  =========                 |
  \\      /  F ield         | OpenFOAM: The Open Source CFD Toolbox
   \\    /   O peration     | Website:  https://openfoam.org
    \\  /    A nd           | Version:  6
     \\/     M anipulation  |
\*---------------------------------------------------------------------------*/
FoamFile
{
    version     2.0;
    format      ascii;
    class       volVectorField;
    location    "3000";
    object      U;
}
// * * * * * * * * * * * * * * * * * * * * * * * * * * * * * * * * * * * * * //

dimensions      [0 1 -1 0 0 0 0];

internalField   nonuniform List<vector> 
4800
(
(-1.15188e-05 0 -0.000107089)
(8.97701e-05 0 -0.00010654)
(2.99759e-05 0 -0.000137185)
(-2.07095e-05 0 -4.36971e-05)
(-8.06845e-05 0 3.00217e-05)
(-0.000204921 0 -3.33238e-05)
(-0.000293166 0 -5.15917e-05)
(-0.000404114 0 6.10673e-05)
(-0.000569412 0 5.82093e-05)
(-0.000793357 0 4.58258e-05)
(-0.000990479 0 2.91698e-05)
(-0.00113157 0 1.05755e-05)
(-0.00123192 0 6.52365e-05)
(-0.00128201 0 -2.24704e-05)
(-0.00127058 0 -5.38075e-05)
(-0.00109612 0 -0.000143185)
(-0.000965555 0 -0.000128347)
(-0.000876669 0 -7.90106e-05)
(-0.000767214 0 3.75972e-06)
(-0.000605125 0 -2.15908e-05)
(-0.000423398 0 -3.89042e-05)
(-0.000247871 0 -8.26708e-05)
(-0.000146316 0 -4.95274e-05)
(8.05958e-05 0 -0.000202364)
(0.000269417 0 -0.000114673)
(0.000390085 0 -0.00011229)
(0.000517232 0 -0.000152873)
(0.000660686 0 -0.00017044)
(0.000795311 0 -0.000152766)
(0.000923462 0 -7.13755e-05)
(0.00103419 0 -9.08975e-05)
(0.00107458 0 -9.39123e-05)
(0.00109785 0 -4.31483e-05)
(0.00114929 0 -1.09545e-05)
(0.00122877 0 1.42638e-05)
(0.00123705 0 2.74489e-05)
(0.00122926 0 3.07881e-05)
(0.00121757 0 2.40662e-05)
(0.00119508 0 1.43196e-05)
(0.0011683 0 -9.16203e-06)
(0.0011695 0 -1.4401e-05)
(0.00118229 0 -1.88266e-05)
(0.0012019 0 -2.44807e-05)
(0.00122426 0 -2.54266e-05)
(0.00125793 0 -5.05002e-05)
(0.00131295 0 -2.7998e-05)
(0.00136915 0 -2.62686e-05)
(0.00139787 0 -7.23525e-05)
(0.00142614 0 -7.4193e-05)
(0.00146268 0 -8.25272e-05)
(0.00150632 0 -9.11661e-05)
(0.00155614 0 -5.62194e-05)
(0.00157838 0 -2.19999e-05)
(0.00157569 0 -2.34278e-05)
(0.00156132 0 -1.5453e-06)
(0.00155383 0 -6.59245e-07)
(0.00155431 0 -4.64894e-06)
(0.00154782 0 -4.80968e-06)
(0.0015433 0 5.60717e-06)
(0.00155497 0 7.6636e-06)
(0.00159107 0 2.22741e-05)
(0.0015919 0 1.42362e-05)
(0.00157618 0 4.11202e-05)
(0.00154044 0 5.8042e-05)
(0.00147573 0 2.25648e-05)
(0.001377 0 0.000122672)
(0.00122106 0 -0.000102534)
(0.000980779 0 -3.8743e-05)
(0.000863424 0 -7.60927e-06)
(0.00085586 0 -0.000100604)
(0.000826288 0 -9.47275e-05)
(0.000785599 0 -9.96358e-05)
(0.000767316 0 2.32961e-05)
(0.000741251 0 -6.46463e-06)
(0.000706697 0 5.50768e-05)
(0.000675732 0 1.00898e-05)
(0.000635293 0 4.18158e-05)
(0.000565952 0 9.39745e-06)
(0.00050341 0 3.88852e-05)
(1.78753e-05 0 7.57514e-05)
(4.29591e-06 0 0.000132564)
(-4.18438e-13 0 3.34028e-13)
(-1.97406e-12 0 1.49611e-13)
(-8.50784e-13 0 8.54106e-14)
(-9.83377e-13 0 4.69568e-14)
(-1.05096e-12 0 2.03797e-14)
(-1.07184e-12 0 2.63735e-16)
(-1.05662e-12 0 -1.57343e-14)
(-1.0124e-12 0 -2.87374e-14)
(-9.4454e-13 0 -3.92596e-14)
(-8.57768e-13 0 -4.76733e-14)
(-7.56047e-13 0 -5.41824e-14)
(-6.4306e-13 0 -5.89173e-14)
(-5.22259e-13 0 -6.19779e-14)
(-3.96906e-13 0 -6.34575e-14)
(-2.70064e-13 0 -6.34572e-14)
(-1.44581e-13 0 -6.20931e-14)
(-2.30539e-14 0 -5.94986e-14)
(9.22001e-14 0 -5.58227e-14)
(1.99176e-13 0 -5.12268e-14)
(2.96202e-13 0 -4.58808e-14)
(3.81954e-13 0 -3.99574e-14)
(4.55445e-13 0 -3.36256e-14)
(5.1602e-13 0 -2.70456e-14)
(5.63338e-13 0 -2.03665e-14)
(5.97349e-13 0 -1.37256e-14)
(6.18251e-13 0 -7.24509e-15)
(6.26451e-13 0 -1.02782e-15)
(6.22529e-13 0 4.84614e-15)
(6.07209e-13 0 1.03186e-14)
(5.81338e-13 0 1.53491e-14)
(5.45851e-13 0 1.99088e-14)
(5.01744e-13 0 2.39774e-14)
(4.50042e-13 0 2.75409e-14)
(3.91781e-13 0 3.0592e-14)
(3.28002e-13 0 3.31294e-14)
(2.59739e-13 0 3.51567e-14)
(1.88013e-13 0 3.66801e-14)
(1.13821e-13 0 3.77087e-14)
(3.81157e-14 0 3.82635e-14)
(-6.01149e-06 0 -3.70099e-06)
(-2.74737e-05 0 3.94662e-05)
(-7.17536e-05 0 0.000138489)
(-0.000175314 0 8.68835e-05)
(-0.000233934 0 0.000148968)
(-0.000372885 0 0.000204396)
(-0.000542303 0 0.000190999)
(-0.000700389 0 0.000102181)
(-0.000806279 0 0.000202582)
(-0.000915026 0 0.000227885)
(-0.00098215 0 0.000297497)
(-0.00109309 0 0.000136452)
(-0.001157 0 6.18189e-05)
(-0.00117241 0 4.85565e-05)
(-0.00116749 0 -4.2459e-05)
(-0.00107584 0 -0.000304249)
(-0.00097362 0 -0.000209337)
(-0.000842419 0 -0.000210494)
(-0.000746396 0 -0.000184156)
(-0.000626241 0 -0.000298117)
(-0.000510508 0 -0.000323703)
(-0.000347023 0 -0.000380378)
(-0.000291203 0 -0.000321555)
(-0.000137778 0 -0.000371099)
(0.000120565 0 -0.00024732)
(0.000222682 0 -0.000265879)
(0.000383148 0 -0.000252897)
(0.000553396 0 -0.00015476)
(0.000629573 0 -0.000224982)
(0.000715087 0 -0.000242555)
(0.000835453 0 -9.39002e-05)
(0.000900173 0 -9.59246e-05)
(0.000951429 0 -0.000128963)
(0.00101193 0 -0.000145121)
(0.00107043 0 -6.71521e-05)
(0.00107301 0 -4.85398e-05)
(0.00107123 0 -1.54649e-05)
(0.00106701 0 1.13536e-05)
(0.00106182 0 2.86473e-05)
(0.00105304 0 1.40416e-05)
(0.0010525 0 -8.02527e-07)
(0.00106005 0 -8.61233e-07)
(0.00107463 0 -1.79286e-05)
(0.00109466 0 -4.13908e-05)
(0.0011284 0 -4.08961e-05)
(0.00116848 0 -4.16391e-05)
(0.00120593 0 -2.84619e-05)
(0.00123668 0 -6.99938e-05)
(0.00126853 0 -3.83246e-05)
(0.00129234 0 -2.28455e-05)
(0.00131406 0 -1.34882e-05)
(0.00132106 0 -1.39456e-05)
(0.00132726 0 -7.92721e-06)
(0.00135973 0 3.1391e-05)
(0.00137433 0 -4.30475e-06)
(0.00137559 0 -1.80242e-06)
(0.00138955 0 2.09607e-05)
(0.00140603 0 2.45525e-06)
(0.00141378 0 -3.15056e-05)
(0.00144042 0 -5.43818e-05)
(0.00150469 0 -3.30142e-05)
(0.00151777 0 -5.16735e-06)
(0.00151263 0 -5.86024e-07)
(0.00149581 0 5.40926e-05)
(0.00144198 0 9.28748e-05)
(0.00136393 0 0.000122902)
(0.0012673 0 0.000308129)
(0.00120623 0 0.00024323)
(0.00108798 0 0.000276825)
(0.000939319 0 0.000302965)
(0.00086059 0 8.35452e-05)
(0.000815442 0 2.74813e-05)
(0.000771398 0 5.12092e-05)
(0.000716741 0 2.24792e-05)
(0.00067003 0 2.61732e-05)
(0.000620658 0 3.52187e-05)
(0.00057128 0 9.39019e-05)
(0.000509771 0 0.000122664)
(0.000460687 0 0.000182297)
(-3.429e-05 0 0.000239732)
(4.13275e-06 0 0.000321419)
(-4.39355e-13 0 8.41081e-13)
(-2.1637e-12 0 3.85382e-13)
(-9.55092e-13 0 2.30116e-13)
(-1.04964e-12 0 1.28659e-13)
(-1.09848e-12 0 5.43782e-14)
(-1.10841e-12 0 -3.5892e-15)
(-1.08573e-12 0 -5.03996e-14)
(-1.03585e-12 0 -8.8728e-14)
(-9.63475e-13 0 -1.19927e-13)
(-8.72691e-13 0 -1.4496e-13)
(-7.67291e-13 0 -1.64353e-13)
(-6.50855e-13 0 -1.78454e-13)
(-5.26799e-13 0 -1.87538e-13)
(-3.98385e-13 0 -1.91874e-13)
(-2.687e-13 0 -1.91757e-13)
(-1.40622e-13 0 -1.87532e-13)
(-1.67834e-14 0 -1.79601e-13)
(1.00472e-13 0 -1.68411e-13)
(2.09118e-13 0 -1.54453e-13)
(3.07472e-13 0 -1.38241e-13)
(3.94209e-13 0 -1.20299e-13)
(4.68357e-13 0 -1.01139e-13)
(5.29279e-13 0 -8.12521e-14)
(5.76658e-13 0 -6.10934e-14)
(6.1047e-13 0 -4.10774e-14)
(6.30949e-13 0 -2.15653e-14)
(6.38542e-13 0 -2.85423e-15)
(6.33875e-13 0 1.48248e-14)
(6.17712e-13 0 3.13e-14)
(5.90928e-13 0 4.64463e-14)
(5.54479e-13 0 6.01739e-14)
(5.09376e-13 0 7.24204e-14)
(4.56656e-13 0 8.31465e-14)
(3.9737e-13 0 9.23331e-14)
(3.32567e-13 0 9.99759e-14)
(2.6329e-13 0 1.06081e-13)
(1.90565e-13 0 1.10661e-13)
(1.15404e-13 0 1.13727e-13)
(3.86704e-14 0 1.15297e-13)
(2.83577e-05 0 2.80055e-05)
(-4.47748e-05 0 7.45329e-05)
(-0.000192646 0 0.000148749)
(-0.000231354 0 0.000254756)
(-0.000372262 0 0.000246886)
(-0.000468961 0 0.000320793)
(-0.00067559 0 0.000236044)
(-0.000701302 0 0.000383169)
(-0.00079715 0 0.000354489)
(-0.000867457 0 0.000359395)
(-0.00095602 0 0.00028118)
(-0.00100299 0 0.000248435)
(-0.00102619 0 0.000197562)
(-0.00103995 0 -5.81768e-05)
(-0.0010311 0 -0.000108873)
(-0.00104708 0 -0.00018622)
(-0.00100415 0 -0.000281184)
(-0.000838989 0 -0.000390302)
(-0.000800841 0 -0.000305477)
(-0.000761904 0 -0.000284768)
(-0.000649049 0 -0.000389497)
(-0.000547615 0 -0.000405185)
(-0.000508702 0 -0.000332596)
(-0.000377742 0 -0.000408858)
(-0.000288838 0 -0.000448992)
(-6.29751e-05 0 -0.000513182)
(0.00025954 0 -0.000320247)
(0.000414647 0 -0.000254676)
(0.000499391 0 -0.000275245)
(0.000600578 0 -0.000263635)
(0.00071755 0 -9.6275e-05)
(0.000768446 0 -0.00019901)
(0.000860145 0 -0.000106297)
(0.000861009 0 -9.12817e-05)
(0.000857774 0 -5.53e-05)
(0.000856019 0 -1.44188e-06)
(0.000845586 0 2.99809e-05)
(0.000826711 0 3.19039e-05)
(0.000827056 0 2.99398e-05)
(0.000832945 0 8.58445e-06)
(0.000845548 0 -2.91916e-05)
(0.000875804 0 -4.05546e-05)
(0.00091482 0 -6.97033e-05)
(0.000949977 0 -0.000124192)
(0.000995807 0 -0.000138854)
(0.00103458 0 -0.000116273)
(0.00105098 0 -0.000100651)
(0.00106339 0 -9.7266e-05)
(0.00107715 0 -0.000100688)
(0.00108624 0 -0.000112514)
(0.00111531 0 -8.60748e-05)
(0.00111627 0 -7.39511e-05)
(0.00111581 0 -6.10533e-05)
(0.00113442 0 3.2485e-05)
(0.00116448 0 -8.29941e-05)
(0.00117686 0 -3.62694e-05)
(0.00117709 0 -2.16746e-05)
(0.00119249 0 -2.83809e-05)
(0.00122914 0 -9.72199e-05)
(0.00128253 0 -0.000170705)
(0.00132911 0 -4.47118e-05)
(0.00133147 0 9.34974e-06)
(0.00135128 0 3.37037e-05)
(0.00137675 0 0.000138332)
(0.00135392 0 0.000171612)
(0.00129032 0 0.000215202)
(0.00120495 0 0.000326194)
(0.00114894 0 0.000281993)
(0.00105668 0 0.000220396)
(0.00092999 0 0.00022051)
(0.000859264 0 0.000226831)
(0.000824682 0 0.00011122)
(0.000743319 0 0.000189851)
(0.000690828 0 7.66127e-07)
(0.000627073 0 0.000164091)
(0.00059882 0 1.8194e-05)
(0.000481254 0 0.000188695)
(0.000498941 0 5.12971e-05)
(0.000396251 0 0.000286492)
(-9.41326e-05 0 0.000369909)
(4.01619e-06 0 0.000497662)
(-5.20433e-13 0 9.34053e-13)
(-2.40745e-12 0 4.88497e-13)
(-1.10893e-12 0 3.20795e-13)
(-1.16013e-12 0 1.82977e-13)
(-1.18383e-12 0 7.18573e-14)
(-1.17688e-12 0 -1.87975e-14)
(-1.14169e-12 0 -9.36893e-14)
(-1.08177e-12 0 -1.55783e-13)
(-1.00077e-12 0 -2.06782e-13)
(-9.02193e-13 0 -2.47908e-13)
(-7.8954e-13 0 -2.79831e-13)
(-6.66245e-13 0 -3.03015e-13)
(-5.3568e-13 0 -3.1785e-13)
(-4.01124e-13 0 -3.24739e-13)
(-2.65723e-13 0 -3.24155e-13)
(-1.32425e-13 0 -3.16664e-13)
(-3.93244e-15 0 -3.02938e-13)
(1.17348e-13 0 -2.83739e-13)
(2.29346e-13 0 -2.599e-13)
(3.30357e-13 0 -2.32303e-13)
(4.19055e-13 0 -2.01841e-13)
(4.94491e-13 0 -1.6939e-13)
(5.56066e-13 0 -1.35778e-13)
(6.03513e-13 0 -1.01772e-13)
(6.36877e-13 0 -6.80585e-14)
(6.56474e-13 0 -3.52329e-14)
(6.62841e-13 0 -3.78417e-15)
(6.56683e-13 0 2.59043e-14)
(6.38831e-13 0 5.35449e-14)
(6.10212e-13 0 7.89287e-14)
(5.71825e-13 0 1.0191e-13)
(5.24717e-13 0 1.22392e-13)
(4.69954e-13 0 1.40318e-13)
(4.08611e-13 0 1.55664e-13)
(3.41751e-13 0 1.68425e-13)
(2.70424e-13 0 1.78609e-13)
(1.95659e-13 0 1.86231e-13)
(1.18457e-13 0 1.91303e-13)
(3.9685e-14 0 1.93823e-13)
(-0.000198792 0 -4.37423e-05)
(-0.000181732 0 0.000151163)
(-0.00020899 0 0.000326149)
(-0.00026192 0 0.000380957)
(-0.000500456 0 0.000292056)
(-0.000522715 0 0.000418044)
(-0.000586398 0 0.000481067)
(-0.000695353 0 0.000400005)
(-0.000759397 0 0.000389062)
(-0.000807596 0 0.000414597)
(-0.000850761 0 0.000372963)
(-0.00089924 0 0.000253591)
(-0.000948819 0 6.47942e-05)
(-0.000964196 0 1.25076e-05)
(-0.000963702 0 -0.000130527)
(-0.000944608 0 -0.000230991)
(-0.00093609 0 -0.000262769)
(-0.000870072 0 -0.00034593)
(-0.000799878 0 -0.000379562)
(-0.000771571 0 -0.000347933)
(-0.000652445 0 -0.000464006)
(-0.000577462 0 -0.000468009)
(-0.000575068 0 -0.000399743)
(-0.000336862 0 -0.000573717)
(-0.000284652 0 -0.00054078)
(-0.000133438 0 -0.000563557)
(-7.40016e-05 0 -0.000588374)
(0.000209722 0 -0.000511477)
(0.000360359 0 -0.00039475)
(0.000545291 0 -0.000244698)
(0.000586674 0 -0.000372488)
(0.000719149 0 -0.00016553)
(0.00074464 0 -0.000107363)
(0.000725981 0 -0.000114826)
(0.000703535 0 -5.20628e-05)
(0.000686507 0 1.06922e-05)
(0.000660088 0 2.77198e-05)
(0.000637332 0 2.42343e-05)
(0.000640811 0 1.95498e-05)
(0.000667083 0 -3.67584e-06)
(0.000715212 0 -5.95616e-05)
(0.000767106 0 -5.13809e-05)
(0.000798584 0 -9.27619e-05)
(0.000827617 0 -0.000140746)
(0.000883549 0 -0.000113134)
(0.000903979 0 -7.81722e-05)
(0.000901908 0 -8.38001e-05)
(0.00090728 0 -9.43426e-05)
(0.000935702 0 -3.1132e-05)
(0.000945857 0 -0.000157728)
(0.000969973 0 -6.76439e-06)
(0.00097686 0 -6.35215e-05)
(0.000988502 0 -8.37989e-05)
(0.000998998 0 -5.59012e-05)
(0.0010084 0 7.6098e-06)
(0.00101513 0 -3.70559e-05)
(0.00102309 0 -5.54829e-05)
(0.00105537 0 -4.96612e-05)
(0.00110771 0 -6.23069e-05)
(0.00110699 0 -6.92934e-05)
(0.00109101 0 -5.41213e-05)
(0.00110361 0 -5.61322e-05)
(0.0011512 0 -0.000103323)
(0.00117019 0 0.000144428)
(0.00115276 0 0.000251791)
(0.00114059 0 0.000264965)
(0.00109777 0 0.000317194)
(0.00104843 0 0.000336003)
(0.000994295 0 0.000284988)
(0.000895521 0 0.000309764)
(0.000813806 0 0.000322846)
(0.000789923 0 0.000162756)
(0.00071635 0 0.000191284)
(0.000645177 0 2.6184e-05)
(0.000545713 0 0.00023576)
(0.000539762 0 0.000176171)
(0.000497625 0 0.000218934)
(0.000354462 0 0.000350592)
(0.000342973 0 0.000370133)
(-2.75711e-05 0 0.00049223)
(4.13834e-06 0 0.000661268)
(-6.22949e-13 0 1.18207e-12)
(-2.48717e-12 0 5.86934e-13)
(-1.26013e-12 0 3.81721e-13)
(-1.29812e-12 0 2.10725e-13)
(-1.29983e-12 0 6.89781e-14)
(-1.27355e-12 0 -4.96915e-14)
(-1.22236e-12 0 -1.49686e-13)
(-1.14879e-12 0 -2.3375e-13)
(-1.0556e-12 0 -3.03488e-13)
(-9.4574e-13 0 -3.60041e-13)
(-8.22398e-13 0 -4.0403e-13)
(-6.88875e-13 0 -4.35902e-13)
(-5.48524e-13 0 -4.56075e-13)
(-4.04689e-13 0 -4.65036e-13)
(-2.60624e-13 0 -4.63405e-13)
(-1.19406e-13 0 -4.51968e-13)
(1.61415e-14 0 -4.3168e-13)
(1.4351e-13 0 -4.03636e-13)
(2.60554e-13 0 -3.69047e-13)
(3.65531e-13 0 -3.29189e-13)
(4.57122e-13 0 -2.85361e-13)
(5.34419e-13 0 -2.38825e-13)
(5.96897e-13 0 -1.90765e-13)
(6.44378e-13 0 -1.42259e-13)
(6.77009e-13 0 -9.42687e-14)
(6.95223e-13 0 -4.76235e-14)
(6.99679e-13 0 -3.01277e-15)
(6.91204e-13 0 3.90211e-14)
(6.70737e-13 0 7.80745e-14)
(6.39293e-13 0 1.13863e-13)
(5.97942e-13 0 1.46198e-13)
(5.47785e-13 0 1.74965e-13)
(4.89929e-13 0 2.00101e-13)
(4.25477e-13 0 2.21586e-13)
(3.55512e-13 0 2.39425e-13)
(2.81096e-13 0 2.53641e-13)
(2.03258e-13 0 2.64262e-13)
(1.22996e-13 0 2.71312e-13)
(4.11905e-14 0 2.7481e-13)
(-8.75892e-05 0 0.000205212)
(-0.000252315 0 0.000228484)
(-0.000386109 0 0.000309489)
(-0.000243253 0 0.000528769)
(-0.000441991 0 0.000457835)
(-0.000578832 0 0.000414897)
(-0.000567977 0 0.00050706)
(-0.00064542 0 0.000450153)
(-0.000700733 0 0.000404306)
(-0.000716725 0 0.000429006)
(-0.000740922 0 0.000390259)
(-0.000761366 0 0.00028559)
(-0.000762878 0 0.000244329)
(-0.000834737 0 2.34884e-05)
(-0.000854976 0 -0.000174548)
(-0.000829859 0 -0.000326358)
(-0.000824869 0 -0.00036274)
(-0.000826943 0 -0.000353712)
(-0.000799107 0 -0.000350979)
(-0.000693143 0 -0.000485908)
(-0.000634066 0 -0.000500797)
(-0.000545155 0 -0.000557417)
(-0.000536654 0 -0.000541614)
(-0.000264469 0 -0.000698011)
(-0.000291617 0 -0.000645904)
(-0.000179764 0 -0.000700652)
(-0.000161263 0 -0.000725107)
(3.31736e-05 0 -0.000753362)
(6.688e-05 0 -0.000704982)
(0.000371691 0 -0.000521366)
(0.000506439 0 -0.000278311)
(0.000501836 0 -0.000278971)
(0.000586781 0 -0.000170713)
(0.000601755 0 -0.000100846)
(0.000575812 0 -3.72317e-05)
(0.000541594 0 5.82822e-05)
(0.000540275 0 5.53388e-05)
(0.000551196 0 3.11086e-05)
(0.000577287 0 -8.32603e-06)
(0.000608755 0 -9.61767e-05)
(0.000663164 0 -8.10132e-05)
(0.000663923 0 -0.00010952)
(0.000663135 0 -0.000142377)
(0.0006902 0 -0.000180869)
(0.000758847 0 -0.000173194)
(0.000783933 0 -0.000123133)
(0.000792527 0 -0.00011726)
(0.000815131 0 -0.00012361)
(0.000859652 0 -0.000126702)
(0.000885523 0 -9.79327e-05)
(0.000884716 0 -8.84757e-05)
(0.000894527 0 -7.47255e-05)
(0.000906788 0 -3.53245e-05)
(0.000899289 0 -2.84913e-05)
(0.000895401 0 -3.36239e-05)
(0.000905447 0 -3.7662e-05)
(0.000926994 0 -4.31453e-05)
(0.000928897 0 -6.2788e-05)
(0.000922258 0 -0.000109501)
(0.000924285 0 -0.000112495)
(0.000924648 0 -9.19281e-05)
(0.000936828 0 -9.37778e-05)
(0.000943805 0 4.5658e-05)
(0.000937555 0 8.59818e-05)
(0.000960236 0 0.000136945)
(0.000962829 0 0.000301635)
(0.000941592 0 0.000368698)
(0.000920177 0 0.000390559)
(0.000888681 0 0.000375125)
(0.000809174 0 0.000413284)
(0.000796263 0 0.000257339)
(0.000717229 0 0.000285488)
(0.000650175 0 0.000292427)
(0.000622739 0 0.000128666)
(0.000516586 0 0.000185497)
(0.000462988 0 0.000247853)
(0.000414318 0 0.00032075)
(0.000318993 0 0.000394968)
(0.000336481 0 0.000464234)
(-0.00029628 0 0.000564556)
(4.26286e-06 0 0.000841181)
(-7.49057e-13 0 1.55084e-12)
(-2.8151e-12 0 6.67804e-13)
(-1.48464e-12 0 4.08511e-13)
(-1.47241e-12 0 2.09304e-13)
(-1.44382e-12 0 4.3096e-14)
(-1.39514e-12 0 -9.92025e-14)
(-1.32541e-12 0 -2.2153e-13)
(-1.23543e-12 0 -3.25894e-13)
(-1.12706e-12 0 -4.13378e-13)
(-1.00274e-12 0 -4.84741e-13)
(-8.65401e-13 0 -5.40348e-13)
(-7.1829e-13 0 -5.80486e-13)
(-5.64814e-13 0 -6.05503e-13)
(-4.08454e-13 0 -6.15908e-13)
(-2.52655e-13 0 -6.12445e-13)
(-1.00699e-13 0 -5.96114e-13)
(4.43997e-14 0 -5.68173e-13)
(1.79981e-13 0 -5.30091e-13)
(3.03793e-13 0 -4.83493e-13)
(4.14042e-13 0 -4.30099e-13)
(5.0942e-13 0 -3.71653e-13)
(5.89087e-13 0 -3.09846e-13)
(6.52631e-13 0 -2.46253e-13)
(7.00009e-13 0 -1.8229e-13)
(7.31513e-13 0 -1.19203e-13)
(7.4773e-13 0 -5.80573e-14)
(7.49486e-13 0 2.65137e-16)
(7.3777e-13 0 5.50734e-14)
(7.13673e-13 0 1.05858e-13)
(6.78335e-13 0 1.52271e-13)
(6.32926e-13 0 1.94093e-13)
(5.78619e-13 0 2.31204e-13)
(5.16576e-13 0 2.63554e-13)
(4.47935e-13 0 2.91145e-13)
(3.73806e-13 0 3.14011e-13)
(2.9526e-13 0 3.32202e-13)
(2.13329e-13 0 3.45772e-13)
(1.29005e-13 0 3.5477e-13)
(4.31828e-14 0 3.59232e-13)
(1.79876e-05 0 0.000323379)
(6.80038e-05 0 0.000431627)
(-0.000399659 0 0.000405464)
(-0.000432991 0 0.000472102)
(-0.000396128 0 0.000574266)
(-0.000517382 0 0.000516341)
(-0.000542261 0 0.000518035)
(-0.000546852 0 0.000523436)
(-0.000619394 0 0.00043628)
(-0.000615695 0 0.000452018)
(-0.000617215 0 0.0004468)
(-0.000606858 0 0.000341964)
(-0.000586875 0 0.000210962)
(-0.000583597 0 0.000182397)
(-0.000698078 0 -2.24316e-05)
(-0.000787573 0 -0.000211726)
(-0.00078614 0 -0.000321291)
(-0.000746855 0 -0.000406795)
(-0.000707846 0 -0.000466227)
(-0.000670315 0 -0.000515449)
(-0.000518531 0 -0.000656865)
(-0.000528314 0 -0.000620064)
(-0.000461238 0 -0.000664025)
(-0.000362988 0 -0.000711076)
(-0.000367816 0 -0.000700715)
(-0.00025741 0 -0.00078379)
(-0.000192374 0 -0.000809904)
(-0.000114399 0 -0.000832674)
(-0.000137821 0 -0.000767626)
(6.8422e-05 0 -0.000709569)
(0.000302826 0 -0.000435804)
(0.000223144 0 -0.000426507)
(0.000417832 0 -0.000172664)
(0.000447895 0 -6.16117e-05)
(0.000438243 0 1.37226e-05)
(0.000435337 0 4.21437e-05)
(0.000446673 0 2.84497e-05)
(0.000473712 0 -1.22243e-05)
(0.000508534 0 -4.08452e-05)
(0.000520732 0 -0.000116428)
(0.000575276 0 -5.48825e-05)
(0.000559573 0 -8.0571e-05)
(0.000555693 0 -0.000149658)
(0.000606693 0 -0.000200713)
(0.000693538 0 -0.000184253)
(0.00072337 0 -0.000158211)
(0.00074819 0 -0.000136293)
(0.000790531 0 -0.000155688)
(0.000850263 0 -0.000117805)
(0.000853489 0 -0.000110108)
(0.000856274 0 -8.70912e-05)
(0.000859851 0 -6.7114e-05)
(0.000857442 0 -6.3017e-05)
(0.000856562 0 -3.90809e-05)
(0.000859072 0 -2.27761e-05)
(0.000861503 0 -4.99502e-05)
(0.000859952 0 -6.07166e-05)
(0.000848411 0 -7.79502e-05)
(0.000817876 0 -9.93432e-05)
(0.000800325 0 -6.36144e-05)
(0.000796273 0 -6.0736e-05)
(0.000780072 0 -5.40483e-05)
(0.000759028 0 3.27731e-05)
(0.000756954 0 9.93505e-05)
(0.000763235 0 0.000201744)
(0.000797683 0 0.000281216)
(0.000808319 0 0.000352159)
(0.000798547 0 0.000378376)
(0.000780235 0 0.000386852)
(0.000757043 0 0.000359576)
(0.000699463 0 0.000384324)
(0.00065382 0 0.000338088)
(0.000615021 0 0.000282517)
(0.00049326 0 0.000348422)
(0.000418096 0 0.000300189)
(0.000388139 0 0.000309107)
(0.000452618 0 0.000277437)
(0.000235157 0 0.000481503)
(0.000628146 0 0.000471859)
(-0.000449044 0 0.000669822)
(4.51011e-06 0 0.000991133)
(-9.35021e-13 0 1.35764e-12)
(-3.14108e-12 0 5.90187e-13)
(-1.71812e-12 0 3.75279e-13)
(-1.66307e-12 0 1.74938e-13)
(-1.60791e-12 0 -6.64737e-15)
(-1.53778e-12 0 -1.68638e-13)
(-1.44873e-12 0 -3.11245e-13)
(-1.34051e-12 0 -4.34772e-13)
(-1.21445e-12 0 -5.39382e-13)
(-1.07271e-12 0 -6.25202e-13)
(-9.18144e-13 0 -6.92153e-13)
(-7.54029e-13 0 -7.40217e-13)
(-5.83946e-13 0 -7.69569e-13)
(-4.11631e-13 0 -7.80683e-13)
(-2.40829e-13 0 -7.74394e-13)
(-7.51342e-14 0 -7.51929e-13)
(8.21643e-14 0 -7.14883e-13)
(2.28189e-13 0 -6.65151e-13)
(3.60546e-13 0 -6.04839e-13)
(4.77372e-13 0 -5.36175e-13)
(5.77375e-13 0 -4.61413e-13)
(6.59819e-13 0 -3.82735e-13)
(7.24453e-13 0 -3.02158e-13)
(7.71428e-13 0 -2.21471e-13)
(8.01242e-13 0 -1.4222e-13)
(8.14691e-13 0 -6.57052e-14)
(8.1281e-13 0 7.01422e-15)
(7.96798e-13 0 7.51155e-14)
(7.67934e-13 0 1.38003e-13)
(7.27527e-13 0 1.9528e-13)
(6.76875e-13 0 2.4672e-13)
(6.17245e-13 0 2.92218e-13)
(5.49871e-13 0 3.31762e-13)
(4.75934e-13 0 3.654e-13)
(3.96569e-13 0 3.93213e-13)
(3.12857e-13 0 4.15298e-13)
(2.25826e-13 0 4.31749e-13)
(1.36456e-13 0 4.42647e-13)
(4.56526e-14 0 4.48049e-13)
(-0.00041083 0 0.000325775)
(-0.000443557 0 0.000386333)
(-0.000368899 0 0.000564742)
(-0.000522292 0 0.000491449)
(-0.000417478 0 0.000590069)
(-0.000481502 0 0.000548368)
(-0.000492038 0 0.000542293)
(-0.000501249 0 0.000521821)
(-0.000514126 0 0.000505256)
(-0.000532217 0 0.000486781)
(-0.000562616 0 0.000419002)
(-0.000615728 0 0.000245662)
(-0.00055292 0 0.000185182)
(-0.000531302 0 0.00010049)
(-0.000580068 0 1.55182e-05)
(-0.000701816 0 -0.000163443)
(-0.000715035 0 -0.000312557)
(-0.000691661 0 -0.000431421)
(-0.000684813 0 -0.000507894)
(-0.000609565 0 -0.000622838)
(-0.000610067 0 -0.000618077)
(-0.000467623 0 -0.000714064)
(-0.000463574 0 -0.000698667)
(-0.000350387 0 -0.000752398)
(-0.000339909 0 -0.000754119)
(-0.000267771 0 -0.000836456)
(-0.000278074 0 -0.000854051)
(-0.000118428 0 -0.000892829)
(-0.000220386 0 -0.000824845)
(4.37814e-06 0 -0.000782702)
(-3.21374e-05 0 -0.000614823)
(0.000135317 0 -0.00042862)
(0.000213749 0 -0.000234465)
(0.000258393 0 -0.000136142)
(0.000293358 0 -6.18806e-05)
(0.000319284 0 1.02134e-05)
(0.000332375 0 3.53671e-06)
(0.000328904 0 -3.42667e-05)
(0.000365755 0 -4.55721e-05)
(0.000373595 0 -0.000210866)
(0.000505998 0 -5.79817e-05)
(0.000493665 0 -0.000144551)
(0.000504874 0 -0.000207792)
(0.000564352 0 -0.000287141)
(0.000666041 0 -0.00022993)
(0.000703062 0 -0.000210828)
(0.000734988 0 -0.000226434)
(0.000803037 0 -0.000221317)
(0.000849732 0 -0.00013473)
(0.000845455 0 -0.000122043)
(0.000847636 0 -0.000111863)
(0.000853228 0 -5.55819e-05)
(0.000856957 0 -4.29806e-05)
(0.000857048 0 -3.30606e-05)
(0.000852147 0 -3.31892e-05)
(0.000844825 0 -4.70726e-05)
(0.000836033 0 -4.28491e-05)
(0.000817109 0 -2.93217e-05)
(0.000769025 0 -5.47022e-05)
(0.00070919 0 -4.91434e-05)
(0.000683505 0 -4.73502e-05)
(0.000660726 0 -5.97645e-05)
(0.000632783 0 4.7174e-06)
(0.000614471 0 0.000102588)
(0.000616167 0 0.000157867)
(0.000616045 0 0.000307303)
(0.000642579 0 0.000398811)
(0.000662336 0 0.000421811)
(0.000651865 0 0.000433603)
(0.000644723 0 0.000421291)
(0.000583361 0 0.00046299)
(0.000567815 0 0.0003797)
(0.000492857 0 0.000401747)
(0.000444276 0 0.00037512)
(0.000382376 0 0.000339771)
(0.000354276 0 0.000356064)
(0.000398888 0 0.000346663)
(0.000191175 0 0.000524744)
(0.000546819 0 0.000564044)
(-0.000378418 0 0.000800671)
(4.63497e-06 0 0.00111435)
(-1.06186e-12 0 1.21187e-12)
(-3.21993e-12 0 5.12515e-13)
(-1.89939e-12 0 3.2753e-13)
(-1.85388e-12 0 1.21861e-13)
(-1.78697e-12 0 -7.59416e-14)
(-1.69934e-12 0 -2.57406e-13)
(-1.59124e-12 0 -4.19928e-13)
(-1.46346e-12 0 -5.62417e-13)
(-1.31749e-12 0 -6.84154e-13)
(-1.15551e-12 0 -7.84523e-13)
(-9.80417e-13 0 -8.62861e-13)
(-7.95706e-13 0 -9.187e-13)
(-6.0528e-13 0 -9.51934e-13)
(-4.13279e-13 0 -9.62932e-13)
(-2.23901e-13 0 -9.52607e-13)
(-4.1188e-14 0 -9.22431e-13)
(1.31178e-13 0 -8.74398e-13)
(2.90025e-13 0 -8.10916e-13)
(4.32769e-13 0 -7.3467e-13)
(5.57469e-13 0 -6.48491e-13)
(6.62859e-13 0 -5.55232e-13)
(7.48342e-13 0 -4.57639e-13)
(8.13895e-13 0 -3.58234e-13)
(8.59947e-13 0 -2.59227e-13)
(8.87279e-13 0 -1.62485e-13)
(8.96964e-13 0 -6.95432e-14)
(8.90307e-13 0 1.83796e-14)
(8.68759e-13 0 1.00358e-13)
(8.33837e-13 0 1.75739e-13)
(7.87052e-13 0 2.44114e-13)
(7.29864e-13 0 3.05276e-13)
(6.63662e-13 0 3.59169e-13)
(5.89758e-13 0 4.05847e-13)
(5.09386e-13 0 4.4543e-13)
(4.23705e-13 0 4.78072e-13)
(3.33796e-13 0 5.03934e-13)
(2.40678e-13 0 5.23167e-13)
(1.45305e-13 0 5.35893e-13)
(4.85854e-14 0 5.422e-13)
(-8.59266e-05 0 0.000606028)
(-6.82394e-05 0 0.000657164)
(-0.000226164 0 0.000649302)
(-0.000286358 0 0.000659721)
(-0.000378868 0 0.000609381)
(-0.000438373 0 0.000569368)
(-0.000444074 0 0.000566901)
(-0.000451294 0 0.000555016)
(-0.000506309 0 0.000507305)
(-0.000512872 0 0.000511303)
(-0.000546475 0 0.000428751)
(-0.000603758 0 0.000278279)
(-0.000590695 0 0.000165915)
(-0.000552078 0 0.000141121)
(-0.000562139 0 9.07162e-05)
(-0.000638013 0 -0.000101218)
(-0.000642131 0 -0.000340109)
(-0.000649239 0 -0.000445765)
(-0.000698283 0 -0.00049727)
(-0.000613743 0 -0.000655513)
(-0.000630467 0 -0.000660755)
(-0.000443264 0 -0.00079251)
(-0.000342009 0 -0.000796247)
(-0.000330249 0 -0.000768405)
(-0.000292509 0 -0.000785088)
(-0.000220498 0 -0.000879237)
(-0.000210931 0 -0.000919398)
(-0.000118899 0 -0.000923117)
(-0.000205898 0 -0.000862308)
(-7.56438e-05 0 -0.000811475)
(-0.000105773 0 -0.000632535)
(-1.88075e-05 0 -0.000515961)
(7.27446e-06 0 -0.000349669)
(0.000120992 0 -0.000156769)
(0.000144978 0 -5.74532e-05)
(0.000167294 0 1.89129e-06)
(0.000150709 0 2.77277e-05)
(0.000142384 0 -5.09993e-05)
(0.000267165 0 -3.93808e-05)
(0.000208072 0 -0.000402295)
(0.000505748 0 0.000115051)
(0.000509331 0 -0.000197465)
(0.000536755 0 -0.000260633)
(0.000566282 0 -0.000348636)
(0.000649045 0 -0.000281367)
(0.000690528 0 -0.000255277)
(0.000726487 0 -0.000277462)
(0.000812542 0 -0.000208907)
(0.000837039 0 -0.000160637)
(0.000833787 0 -0.000141428)
(0.00083184 0 -8.69791e-05)
(0.000830238 0 -6.71906e-05)
(0.000838796 0 -6.31609e-05)
(0.000850755 0 -3.24309e-05)
(0.000847509 0 -3.0868e-05)
(0.000839662 0 -2.95563e-05)
(0.000820798 0 -1.61097e-05)
(0.000785912 0 -6.44448e-07)
(0.000738081 0 -3.13485e-06)
(0.000682703 0 -1.7415e-05)
(0.000629299 0 7.38529e-06)
(0.000578546 0 1.48043e-05)
(0.000537734 0 5.27354e-05)
(0.000521761 0 0.000102921)
(0.000510541 0 0.000151766)
(0.000529931 0 0.000186513)
(0.000568636 0 0.000274397)
(0.000564498 0 0.000387991)
(0.00057054 0 0.00040624)
(0.000568185 0 0.000407089)
(0.000546265 0 0.000411978)
(0.000532519 0 0.000370895)
(0.000475551 0 0.000395553)
(0.000440511 0 0.000366001)
(0.000378173 0 0.000345449)
(0.000325481 0 0.000379985)
(0.00031832 0 0.000410433)
(0.000153113 0 0.000556832)
(0.000438647 0 0.000665373)
(-0.000520426 0 0.000831037)
(4.77526e-06 0 0.00124125)
(-1.22627e-12 0 1.53836e-12)
(-3.36297e-12 0 5.54166e-13)
(-2.10828e-12 0 3.00492e-13)
(-2.06609e-12 0 6.09652e-14)
(-1.98676e-12 0 -1.61519e-13)
(-1.88138e-12 0 -3.65052e-13)
(-1.75346e-12 0 -5.48498e-13)
(-1.60464e-12 0 -7.10666e-13)
(-1.43655e-12 0 -8.50248e-13)
(-1.25142e-12 0 -9.65849e-13)
(-1.05232e-12 0 -1.05607e-12)
(-8.43102e-13 0 -1.11983e-12)
(-6.28177e-13 0 -1.1566e-12)
(-4.12304e-13 0 -1.16658e-12)
(-2.00329e-13 0 -1.15076e-12)
(3.0745e-15 0 -1.11089e-12)
(1.9368e-13 0 -1.04948e-12)
(3.67917e-13 0 -9.69554e-13)
(5.2297e-13 0 -8.74541e-13)
(6.5681e-13 0 -7.68007e-13)
(7.68228e-13 0 -6.53517e-13)
(8.56817e-13 0 -5.34478e-13)
(9.22864e-13 0 -4.1399e-13)
(9.67176e-13 0 -2.94732e-13)
(9.90926e-13 0 -1.7892e-13)
(9.95556e-13 0 -6.83203e-14)
(9.82711e-13 0 3.57125e-14)
(9.54157e-13 0 1.3219e-13)
(9.11691e-13 0 2.20452e-13)
(8.57064e-13 0 3.00122e-13)
(7.91929e-13 0 3.71056e-13)
(7.17816e-13 0 4.33289e-13)
(6.36131e-13 0 4.86974e-13)
(5.48159e-13 0 5.32336e-13)
(4.55073e-13 0 5.69629e-13)
(3.57952e-13 0 5.99101e-13)
(2.57785e-13 0 6.20975e-13)
(1.55489e-13 0 6.35429e-13)
(5.19596e-14 0 6.42589e-13)
(-0.000135085 0 0.000675127)
(-3.10861e-06 0 0.000746026)
(-0.000160766 0 0.000688254)
(-0.000256017 0 0.000683894)
(-0.000340381 0 0.000645918)
(-0.00040118 0 0.000601373)
(-0.000423607 0 0.000589156)
(-0.000448116 0 0.000572486)
(-0.000482965 0 0.000559729)
(-0.000537035 0 0.000514341)
(-0.000535782 0 0.000452508)
(-0.00057073 0 0.000329676)
(-0.000616478 0 0.000151274)
(-0.000596951 0 5.85931e-05)
(-0.000577067 0 8.15031e-05)
(-0.000593334 0 -7.76872e-05)
(-0.00057957 0 -0.000371061)
(-0.000629357 0 -0.000427804)
(-0.000667102 0 -0.000515148)
(-0.000525211 0 -0.00075706)
(-0.000512393 0 -0.000813151)
(-0.000472495 0 -0.000859656)
(-0.000211478 0 -0.000925451)
(-0.000268018 0 -0.000799416)
(-0.000187184 0 -0.000819044)
(-0.000198601 0 -0.000896357)
(-0.00018951 0 -0.000949853)
(-0.000107921 0 -0.000937171)
(-0.000183137 0 -0.000868348)
(-0.000109729 0 -0.000838597)
(-7.37703e-05 0 -0.000678813)
(-4.72574e-05 0 -0.000515175)
(-4.19452e-05 0 -0.000351741)
(3.74762e-06 0 -0.000189768)
(1.14054e-05 0 -7.50442e-05)
(1.00369e-05 0 3.43019e-05)
(-3.14586e-05 0 2.62868e-05)
(4.51927e-05 0 -0.000196592)
(0.000230577 0 -0.000193822)
(0.000164161 0 -0.000424437)
(0.000436809 0 -0.000197514)
(0.000486999 0 -0.000186019)
(0.000560017 0 -0.000224675)
(0.00057924 0 -0.00033172)
(0.000575061 0 -0.000351686)
(0.000597049 0 -0.000327127)
(0.000619999 0 -0.000330838)
(0.000686783 0 -0.000271281)
(0.00073295 0 -0.00018849)
(0.000740872 0 -0.000143811)
(0.000746962 0 -0.000101177)
(0.000755023 0 -9.49845e-05)
(0.000777802 0 -7.46369e-05)
(0.000789312 0 -2.35722e-05)
(0.00078602 0 -2.6287e-05)
(0.000790181 0 -1.22962e-05)
(0.000785407 0 1.72443e-06)
(0.000759473 0 3.28991e-05)
(0.000724988 0 2.84562e-05)
(0.000687093 0 4.8837e-05)
(0.000642049 0 4.77816e-05)
(0.000580557 0 5.37367e-05)
(0.000509141 0 8.25857e-05)
(0.000452678 0 0.000156154)