0 	-1.45182e-20 	0 	3.62956e-20
0.010101 	4.48956e-20 	-1.35176e-22 	-7.36799e-20
0.020202 	-1.06771e-19 	-3.36237e-23 	-3.45718e-20
0.030303 	-2.72443e-20 	-2.36899e-22 	-5.40403e-20
0.040404 	1.56231e-20 	-2.70863e-22 	-9.60905e-20
0.0505051 	-3.28969e-20 	1.6897e-22 	-1.13912e-19
