/*--------------------------------*- C++ -*----------------------------------*\
  =========                 |
  \\      /  F ield         | OpenFOAM: The Open Source CFD Toolbox
   \\    /   O peration     | Website:  https://openfoam.org
    \\  /    A nd           | Version:  6
     \\/     M anipulation  |
\*---------------------------------------------------------------------------*/
FoamFile
{
    version     2.0;
    format      ascii;
    class       volVectorField;
    location    "4150";
    object      U;
}
// * * * * * * * * * * * * * * * * * * * * * * * * * * * * * * * * * * * * * //

dimensions      [0 1 -1 0 0 0 0];

internalField   nonuniform List<vector> 
4800
(
(-2.30848e-05 0 -1.5088e-05)
(1.01619e-05 0 -1.36577e-05)
(-1.24062e-05 0 -1.5258e-05)
(-2.28998e-05 0 -1.38959e-05)
(-5.00903e-05 0 -8.06463e-06)
(-0.000109103 0 -2.43032e-05)
(-0.00011725 0 -1.30926e-05)
(-0.000115771 0 -2.45911e-05)
(-0.000110107 0 -4.16767e-05)
(-0.000100336 0 -4.8335e-05)
(-6.7082e-05 0 -4.79284e-05)
(-1.94464e-05 0 -3.59496e-05)
(3.61193e-05 0 -3.797e-05)
(8.90628e-05 0 -7.61913e-05)
(0.000126002 0 -2.69984e-05)
(0.000157657 0 -2.6894e-05)
(0.000204293 0 -8.3813e-06)
(0.000247537 0 6.75441e-06)
(0.000267094 0 -6.09597e-05)
(0.000301027 0 -2.8979e-06)
(0.000319593 0 -3.4963e-05)
(0.000345904 0 -2.20091e-05)
(0.000338935 0 -1.2854e-05)
(0.000308864 0 1.73136e-06)
(0.000259117 0 1.76514e-05)
(0.000197107 0 5.28326e-05)
(0.000130021 0 1.24551e-05)
(4.63005e-05 0 -3.19834e-06)
(-1.10576e-05 0 -9.85306e-06)
(-5.62615e-05 0 -2.60973e-05)
(-0.000108299 0 -3.08702e-05)
(-0.000155011 0 -2.13173e-05)
(-0.000179227 0 -4.77057e-06)
(-0.000219009 0 5.75726e-06)
(-0.000278915 0 -2.21225e-06)
(-0.000328661 0 -2.58868e-05)
(-0.000347422 0 -5.07409e-05)
(-0.000381107 0 1.0423e-05)
(-0.000473781 0 -1.27525e-05)
(-0.000541717 0 -1.67114e-05)
(-0.000576177 0 2.82279e-06)
(-0.000595552 0 3.25653e-05)
(-0.000615183 0 -2.83958e-06)
(-0.000628287 0 -7.06555e-06)
(-0.000635092 0 -5.85544e-06)
(-0.000626916 0 -3.33918e-05)
(-0.000605909 0 -3.89405e-05)
(-0.000600917 0 -4.28257e-05)
(-0.000601188 0 -5.2019e-05)
(-0.000559187 0 -5.81696e-05)
(-0.000508028 0 -4.29038e-05)
(-0.000492343 0 -3.57426e-05)
(-0.000501261 0 -4.22388e-05)
(-0.000512885 0 -4.05301e-05)
(-0.000510478 0 -1.10031e-05)
(-0.00050917 0 -1.28521e-05)
(-0.000529339 0 -3.14211e-06)
(-0.000545719 0 -8.2066e-06)
(-0.000550645 0 -1.63095e-05)
(-0.0005511 0 -1.93945e-05)
(-0.000543517 0 -1.73393e-05)
(-0.0005157 0 -1.38809e-05)
(-0.000482217 0 -2.42866e-05)
(-0.000448099 0 -3.57581e-05)
(-0.000415399 0 -3.26844e-05)
(-0.000380902 0 -4.39582e-05)
(-0.000342005 0 -4.60526e-05)
(-0.000298322 0 -4.7045e-05)
(-0.000256501 0 -4.32915e-05)
(-0.000219098 0 -3.34829e-05)
(-0.000179832 0 -3.11483e-05)
(-0.000136887 0 -3.13025e-05)
(-9.52618e-05 0 -2.68763e-05)
(-5.07516e-05 0 -4.10694e-05)
(1.82175e-05 0 -3.65887e-05)
(6.33485e-05 0 -3.96737e-05)
(0.000113558 0 -6.2183e-05)
(0.00012261 0 1.47286e-05)
(0.000185424 0 -4.35523e-06)
(-0.000186407 0 -4.63601e-05)
(3.45726e-06 0 2.15389e-05)
(-7.9801e-13 0 -3.01598e-14)
(-2.19748e-12 0 -1.76856e-14)
(-1.42967e-12 0 -1.61772e-14)
(-1.39304e-12 0 -2.05726e-14)
(-1.34558e-12 0 -2.70242e-14)
(-1.28477e-12 0 -3.39337e-14)
(-1.21031e-12 0 -4.06848e-14)
(-1.12281e-12 0 -4.6979e-14)
(-1.02339e-12 0 -5.26107e-14)
(-9.13545e-13 0 -5.74092e-14)
(-7.95086e-13 0 -6.12317e-14)
(-6.70071e-13 0 -6.39674e-14)
(-5.40746e-13 0 -6.55424e-14)
(-4.09463e-13 0 -6.59229e-14)
(-2.78602e-13 0 -6.51152e-14)
(-1.50493e-13 0 -6.31639e-14)
(-2.73409e-14 0 -6.01483e-14)
(8.88352e-14 0 -5.6177e-14)
(1.96257e-13 0 -5.13808e-14)
(2.93421e-13 0 -4.59061e-14)
(3.79127e-13 0 -3.99071e-14)
(4.52481e-13 0 -3.35395e-14)
(5.12899e-13 0 -2.69538e-14)
(5.60084e-13 0 -2.02911e-14)
(5.9401e-13 0 -1.36787e-14)
(6.14889e-13 0 -7.22831e-15)
(6.23139e-13 0 -1.03436e-15)
(6.1935e-13 0 4.82579e-15)
(6.04249e-13 0 1.02912e-14)
(5.78672e-13 0 1.53161e-14)
(5.43531e-13 0 1.98678e-14)
(4.99792e-13 0 2.3925e-14)
(4.48457e-13 0 2.74752e-14)
(3.90544e-13 0 3.05128e-14)
(3.27078e-13 0 3.30369e-14)
(2.59082e-13 0 3.50501e-14)
(1.87573e-13 0 3.65564e-14)
(1.13556e-13 0 3.75618e-14)
(3.80232e-14 0 3.80763e-14)
(-1.60239e-05 0 -8.50248e-07)
(5.63168e-06 0 8.70511e-06)
(-3.00536e-05 0 4.13474e-05)
(-7.33065e-05 0 5.6009e-05)
(-0.000108447 0 3.30135e-05)
(-0.000113723 0 2.91038e-05)
(-0.000112529 0 1.71407e-05)
(-0.000123348 0 4.31601e-06)
(-0.000121936 0 1.41992e-05)
(-9.71408e-05 0 -5.40925e-06)
(-5.11512e-05 0 -3.92562e-05)
(-1.06962e-05 0 -4.39759e-05)
(2.31961e-05 0 -5.21189e-05)
(5.60209e-05 0 -8.49861e-05)
(0.000110353 0 -3.98735e-05)
(0.000157521 0 -0.000100804)
(0.000188872 0 -5.94474e-05)
(0.000217446 0 -3.6173e-05)
(0.000236973 0 -8.52798e-05)
(0.000283436 0 -5.68848e-05)
(0.000298977 0 -7.11946e-05)
(0.000317891 0 8.56501e-06)
(0.000308717 0 4.32226e-05)
(0.0002866 0 5.42517e-05)
(0.00023605 0 6.8755e-05)
(0.00017131 0 8.71534e-05)
(0.00010399 0 0.000114335)
(4.19057e-05 0 0.000108651)
(-3.85149e-05 0 0.000102822)
(-9.86292e-05 0 9.06142e-05)
(-0.000161722 0 7.26439e-05)
(-0.000205859 0 7.41926e-05)
(-0.00023379 0 7.62502e-05)
(-0.000285997 0 6.27744e-05)
(-0.000358371 0 5.58491e-05)
(-0.000383647 0 0.000129316)
(-0.000434591 0 0.000168744)
(-0.000537844 0 -1.28354e-05)
(-0.000543619 0 -9.0252e-06)
(-0.000561175 0 0.00012765)
(-0.000629165 0 4.66365e-05)
(-0.000653535 0 6.91158e-06)
(-0.000661612 0 3.99017e-05)
(-0.000670117 0 1.24943e-05)
(-0.000672495 0 1.20647e-05)
(-0.000653452 0 9.86285e-06)
(-0.000629299 0 1.19291e-06)
(-0.000616353 0 4.84475e-06)
(-0.000601134 0 6.67276e-06)
(-0.000564769 0 -1.02305e-05)
(-0.000528391 0 -2.41999e-05)
(-0.000516565 0 -6.90885e-06)
(-0.000515819 0 3.39691e-05)
(-0.000482466 0 5.52423e-05)
(-0.000451904 0 1.74167e-05)
(-0.000447279 0 4.73152e-05)
(-0.000482168 0 7.11723e-05)
(-0.000514927 0 3.00811e-05)
(-0.000522365 0 1.76352e-05)
(-0.0005164 0 -1.03818e-05)
(-0.00050711 0 -9.37618e-06)
(-0.000491589 0 -5.61731e-05)
(-0.000460333 0 -5.45235e-05)
(-0.000419503 0 -4.7512e-05)
(-0.000383348 0 -3.94428e-05)
(-0.000346098 0 -5.29325e-05)
(-0.000310328 0 -3.74235e-05)
(-0.000271502 0 -4.92012e-05)
(-0.000235907 0 -5.25521e-05)
(-0.000202668 0 -5.66051e-05)
(-0.000166714 0 -6.3822e-05)
(-0.000129884 0 -6.86617e-05)
(-0.000106213 0 -6.51316e-05)
(-5.65116e-05 0 -9.48203e-05)
(-1.8491e-05 0 -9.87541e-05)
(4.01172e-05 0 -0.000124288)
(0.000108919 0 -8.83624e-05)
(8.50003e-05 0 1.49569e-05)
(0.000313867 0 6.06428e-05)
(-0.000438879 0 7.2244e-05)
(3.64869e-06 0 0.000109502)
(-8.80466e-13 0 -1.192e-13)
(-2.18273e-12 0 -4.29895e-14)
(-1.43256e-12 0 -4.26845e-14)
(-1.40389e-12 0 -5.97202e-14)
(-1.35894e-12 0 -8.06765e-14)
(-1.29843e-12 0 -1.02025e-13)
(-1.22335e-12 0 -1.22579e-13)
(-1.13473e-12 0 -1.4167e-13)
(-1.03382e-12 0 -1.58737e-13)
(-9.22166e-13 0 -1.73276e-13)
(-8.01644e-13 0 -1.84854e-13)
(-6.74382e-13 0 -1.93133e-13)
(-5.42701e-13 0 -1.97889e-13)
(-4.09035e-13 0 -1.99021e-13)
(-2.75843e-13 0 -1.96548e-13)
(-1.45526e-13 0 -1.9061e-13)
(-2.0354e-14 0 -1.81449e-13)
(9.76027e-14 0 -1.69398e-13)
(2.06528e-13 0 -1.54857e-13)
(3.04895e-13 0 -1.38272e-13)
(3.91493e-13 0 -1.20113e-13)
(4.65435e-13 0 -1.00853e-13)
(5.26147e-13 0 -8.09493e-14)
(5.73359e-13 0 -6.08276e-14)
(6.07073e-13 0 -4.0873e-14)
(6.27533e-13 0 -2.14216e-14)
(6.35193e-13 0 -2.7571e-15)
(6.30675e-13 0 1.48892e-14)
(6.1474e-13 0 3.13359e-14)
(5.88249e-13 0 4.64473e-14)
(5.5214e-13 0 6.01278e-14)
(5.074e-13 0 7.23153e-14)
(4.55045e-13 0 8.29744e-14)
(3.96106e-13 0 9.20902e-14)
(3.31616e-13 0 9.96622e-14)
(2.62602e-13 0 1.05699e-13)
(1.90085e-13 0 1.10213e-13)
(1.15076e-13 0 1.13219e-13)
(3.85377e-14 0 1.14732e-13)
(-1.37601e-05 0 3.49411e-06)
(-8.47698e-06 0 3.95909e-05)
(-8.33863e-05 0 7.43754e-05)
(-9.44382e-05 0 0.000104104)
(-0.000121978 0 7.61275e-05)
(-0.000140106 0 2.71411e-05)
(-0.000154849 0 -9.37405e-06)
(-0.000152909 0 5.81266e-06)
(-0.000134345 0 -3.42585e-05)
(-0.000106668 0 -7.05067e-05)
(-6.53611e-05 0 -0.000129581)
(-3.24401e-05 0 -0.000127684)
(-1.51886e-05 0 -0.000122513)
(3.23356e-05 0 -8.18933e-05)
(7.02823e-05 0 -7.89442e-05)
(0.000123694 0 -0.000129072)
(0.000151522 0 -7.59443e-05)
(0.000180744 0 -6.43057e-05)
(0.00019121 0 -0.000123827)
(0.000252286 0 -6.13622e-05)
(0.000251879 0 -3.61293e-05)
(0.000250221 0 2.82094e-05)
(0.000254226 0 3.67601e-05)
(0.000229043 0 0.000138172)
(0.000188972 0 0.000165121)
(0.000142623 0 0.000162394)
(5.87055e-05 0 0.000188324)
(-2.06738e-05 0 0.000180449)
(-7.67847e-05 0 0.000158973)
(-0.000131878 0 0.0001425)
(-0.000199094 0 0.000109184)
(-0.000273554 0 8.05515e-05)
(-0.000306704 0 9.24237e-05)
(-0.000314997 0 0.000141813)
(-0.000348728 0 0.000182706)
(-0.000455439 0 0.000100424)
(-0.00052228 0 7.24412e-05)
(-0.000533793 0 0.000193541)
(-0.000580019 0 0.000136115)
(-0.000637631 0 1.22363e-05)
(-0.000654232 0 8.95596e-05)
(-0.000676608 0 5.67051e-05)
(-0.000686744 0 1.502e-05)
(-0.000687568 0 8.47173e-06)
(-0.000687593 0 -2.20326e-06)
(-0.00068194 0 -6.92272e-05)
(-0.000649637 0 -8.37117e-05)
(-0.000625626 0 -5.30473e-05)
(-0.000612349 0 -7.06483e-05)
(-0.000606135 0 -8.63779e-05)
(-0.000583408 0 -0.000104014)
(-0.000557889 0 -5.62196e-05)
(-0.000526526 0 -2.08298e-05)
(-0.000490217 0 -4.01523e-05)
(-0.000469481 0 -4.93393e-05)
(-0.000471221 0 -2.50675e-05)
(-0.000506105 0 1.47404e-05)
(-0.000517091 0 8.73396e-06)
(-0.000494191 0 1.63069e-05)
(-0.000474771 0 -2.20979e-05)
(-0.000474415 0 -2.72426e-05)
(-0.000475597 0 -5.23392e-05)
(-0.000444715 0 -7.0145e-05)
(-0.000392885 0 -0.000131944)
(-0.000371342 0 -6.39242e-05)
(-0.000319096 0 -0.000126935)
(-0.000276582 0 -0.000119703)
(-0.000226795 0 -0.000124242)
(-0.000190429 0 -0.000105178)
(-0.000167205 0 -8.28528e-05)
(-0.000147158 0 -7.77272e-05)
(-0.000114 0 -9.35512e-05)
(-9.50527e-05 0 -9.39622e-05)
(-7.40874e-05 0 -0.000107629)
(-4.30421e-05 0 -0.00012366)
(-3.34844e-05 0 -0.000144161)
(-7.73798e-06 0 -0.00014171)
(-7.45101e-05 0 -6.83299e-05)
(0.000574525 0 -0.000184861)
(-0.000581631 0 0.000197181)
(3.90301e-06 0 0.000153201)
(-9.55949e-13 0 8.60139e-14)
(-2.12163e-12 0 3.40971e-15)
(-1.4464e-12 0 -5.18823e-14)
(-1.43103e-12 0 -9.49785e-14)
(-1.38789e-12 0 -1.33971e-13)
(-1.32667e-12 0 -1.70948e-13)
(-1.24995e-12 0 -2.05979e-13)
(-1.15896e-12 0 -2.38428e-13)
(-1.05499e-12 0 -2.67438e-13)
(-9.39662e-13 0 -2.92153e-13)
(-8.14943e-13 0 -3.11824e-13)
(-6.83107e-13 0 -3.25869e-13)
(-5.46634e-13 0 -3.33907e-13)
(-4.08121e-13 0 -3.35766e-13)
(-2.70191e-13 0 -3.31487e-13)
(-1.35394e-13 0 -3.21314e-13)
(-6.1293e-15 0 -3.05672e-13)
(1.15427e-13 0 -2.85137e-13)
(2.27383e-13 0 -2.60401e-13)
(3.28165e-13 0 -2.32231e-13)
(4.16545e-13 0 -2.01435e-13)
(4.91645e-13 0 -1.68821e-13)
(5.52924e-13 0 -1.35168e-13)
(6.0016e-13 0 -1.01198e-13)
(6.33416e-13 0 -6.75617e-14)
(6.53005e-13 0 -3.48217e-14)
(6.5945e-13 0 -3.4517e-15)
(6.53443e-13 0 2.61654e-14)
(6.35807e-13 0 5.37322e-14)
(6.07464e-13 0 7.90288e-14)
(5.69399e-13 0 1.01903e-13)
(5.22639e-13 0 1.22258e-13)
(4.68232e-13 0 1.40043e-13)
(4.07232e-13 0 1.55239e-13)
(3.40687e-13 0 1.67852e-13)
(2.69633e-13 0 1.77899e-13)
(1.95093e-13 0 1.85407e-13)
(1.18076e-13 0 1.90397e-13)
(3.95365e-14 0 1.92888e-13)
(-4.05816e-06 0 5.1263e-06)
(3.59837e-05 0 8.79235e-05)
(-6.6437e-05 0 0.000134302)
(-0.000131217 0 0.000121508)
(-0.000138015 0 0.000109224)
(-0.000179479 0 4.70718e-05)
(-0.000198018 0 3.10144e-05)
(-0.000188007 0 -3.41373e-06)
(-0.000153473 0 -6.26374e-05)
(-0.000127032 0 -9.63393e-05)
(-0.000101087 0 -0.000129813)
(-7.21637e-05 0 -0.000137552)
(-2.117e-05 0 -0.000172262)
(6.49788e-05 0 -0.000173981)
(3.60819e-05 0 -0.000124702)
(9.07775e-05 0 -0.000133841)
(0.000139751 0 -0.000123658)
(0.000180116 0 -0.00010745)
(0.000170543 0 -0.000112186)
(0.000177376 0 -9.90875e-05)
(0.00016692 0 -8.88376e-05)
(0.000167748 0 -9.99443e-06)
(0.000171127 0 3.24089e-05)
(0.000169468 0 0.000121279)
(0.0001559 0 0.000170115)
(7.17085e-05 0 0.00023236)
(2.24263e-05 0 0.000241554)
(-5.06494e-05 0 0.000227111)
(-0.000110989 0 0.000208303)
(-0.00015523 0 0.000196401)
(-0.000202693 0 0.00017302)
(-0.000244212 0 0.000175145)
(-0.000289959 0 0.00019884)
(-0.000395224 0 0.00013847)
(-0.000467164 0 0.000119192)
(-0.000468326 0 0.000226791)
(-0.000464608 0 0.000273171)
(-0.000542464 0 0.000169501)
(-0.000602983 0 0.000140939)
(-0.000631556 0 0.00014916)
(-0.000653561 0 9.23009e-05)
(-0.00067384 0 4.3108e-05)
(-0.000681698 0 4.58811e-05)
(-0.000680153 0 -2.65464e-06)
(-0.000672228 0 -1.03514e-05)
(-0.000674976 0 -1.93974e-05)
(-0.000674981 0 -3.52107e-05)
(-0.00064025 0 -7.84599e-05)
(-0.000625625 0 -6.94154e-05)
(-0.000625303 0 -7.12632e-05)
(-0.000630709 0 -7.26564e-05)
(-0.000604889 0 -9.05072e-05)
(-0.000585529 0 -4.55934e-05)
(-0.000579996 0 -4.74022e-05)
(-0.000583579 0 -4.0617e-05)
(-0.000580268 0 2.22214e-05)
(-0.000520888 0 0.000205272)
(-0.000529784 0 2.01376e-05)
(-0.00051199 0 9.97147e-06)
(-0.000484309 0 -0.000167045)
(-0.000497308 0 3.92649e-05)
(-0.000457585 0 -0.000142189)
(-0.000457407 0 2.88306e-05)
(-0.000362416 0 -0.000264277)
(-0.000387857 0 -2.35656e-05)
(-0.000312564 0 -0.000144535)
(-0.000277841 0 -0.000113579)
(-0.000220292 0 -0.000121524)
(-0.000163269 0 -0.000121828)
(-0.000123342 0 -0.000112122)
(-9.99774e-05 0 -0.000101372)
(-8.52081e-05 0 -0.000106842)
(-4.76695e-05 0 -0.000102521)
(-4.80046e-05 0 -9.47162e-05)
(-0.000103827 0 -8.30815e-05)
(-0.000121797 0 -9.90222e-05)
(-0.000192861 0 -5.63408e-05)
(-0.000316705 0 7.25304e-05)
(-0.000371632 0 0.000250479)
(-0.000529556 0 0.000208968)
(3.06036e-06 0 0.000100318)
(-8.9037e-13 0 1.53673e-13)
(-2.32981e-12 0 1.01658e-14)
(-1.53095e-12 0 -7.32325e-14)
(-1.48598e-12 0 -1.34294e-13)
(-1.43491e-12 0 -1.89238e-13)
(-1.37044e-12 0 -2.41773e-13)
(-1.29083e-12 0 -2.91923e-13)
(-1.19619e-12 0 -3.38591e-13)
(-1.08754e-12 0 -3.80404e-13)
(-9.66552e-13 0 -4.16044e-13)
(-8.35361e-13 0 -4.44392e-13)
(-6.96466e-13 0 -4.64589e-13)
(-5.52598e-13 0 -4.76081e-13)
(-4.06615e-13 0 -4.78626e-13)
(-2.61391e-13 0 -4.72298e-13)
(-1.19711e-13 0 -4.57468e-13)
(1.5823e-14 0 -4.3477e-13)
(1.42875e-13 0 -4.05061e-13)
(2.59434e-13 0 -3.69362e-13)
(3.6386e-13 0 -3.28803e-13)
(4.54903e-13 0 -2.84564e-13)
(5.31702e-13 0 -2.37821e-13)
(5.9377e-13 0 -1.89698e-13)
(6.40965e-13 0 -1.41233e-13)
(6.73449e-13 0 -9.33523e-14)
(6.91643e-13 0 -4.68526e-14)
(6.9618e-13 0 -2.39595e-15)
(6.87859e-13 0 3.94876e-14)
(6.67603e-13 0 7.83927e-14)
(6.36419e-13 0 1.14025e-13)
(5.95369e-13 0 1.46188e-13)
(5.4554e-13 0 1.74761e-13)
(4.88026e-13 0 1.99688e-13)
(4.23915e-13 0 2.20959e-13)
(3.54276e-13 0 2.38593e-13)
(2.80157e-13 0 2.52626e-13)
(2.02582e-13 0 2.63102e-13)
(1.22557e-13 0 2.70061e-13)
(4.10282e-14 0 2.73531e-13)
(-0.000121296 0 1.34346e-05)
(-0.000116973 0 0.000103014)
(-9.3791e-05 0 0.00017914)
(-0.00017644 0 0.000126791)
(-0.000191265 0 9.76126e-05)
(-0.000219096 0 5.37403e-05)
(-0.000224319 0 2.59559e-05)
(-0.000204481 0 -3.67271e-05)
(-0.000187605 0 -8.84118e-05)
(-0.000167374 0 -0.000134826)
(-0.00014855 0 -0.000151824)
(-0.000128174 0 -0.000130475)
(-9.44833e-05 0 -0.000145688)
(-6.82286e-06 0 -0.000187778)
(5.64007e-05 0 -0.000172384)
(0.000102674 0 -0.000187014)
(6.74256e-05 0 -0.00018351)
(0.000126603 0 -0.00012507)
(0.000119284 0 -8.38038e-05)
(0.000110402 0 -7.9394e-05)
(9.79437e-05 0 -6.13415e-05)
(4.38991e-05 0 -4.98017e-05)
(9.01268e-05 0 6.46115e-05)
(4.25397e-05 0 0.000157264)
(8.68454e-06 0 0.000206123)
(1.43784e-05 0 0.000281338)
(-3.57234e-05 0 0.000298829)
(-0.000108118 0 0.000275034)
(-0.000176217 0 0.000250005)
(-0.000224389 0 0.000221903)
(-0.000269981 0 0.000175771)
(-0.000306633 0 0.000140921)
(-0.000372675 0 0.000144055)
(-0.000350083 0 0.000283327)
(-0.000442045 0 0.000245485)
(-0.000510151 0 0.000212056)
(-0.000510775 0 0.00023775)
(-0.000521758 0 0.000237659)
(-0.000596205 0 0.000134773)
(-0.000611666 0 0.000141189)
(-0.00063657 0 0.000108433)
(-0.000659997 0 6.00235e-05)
(-0.000664304 0 4.2305e-05)
(-0.000659254 0 8.24573e-06)
(-0.000660482 0 -2.96969e-05)
(-0.000666131 0 -6.78178e-05)
(-0.000666047 0 -7.20787e-05)
(-0.000653341 0 -8.52057e-05)
(-0.000641376 0 -9.89481e-05)
(-0.000638759 0 -9.61769e-05)
(-0.000644251 0 -7.92167e-05)
(-0.000646629 0 -5.789e-05)
(-0.000636646 0 -4.42214e-05)
(-0.000634891 0 -4.54716e-05)
(-0.000638324 0 -3.91099e-05)
(-0.000614821 0 -6.64937e-06)
(-0.000586771 0 -6.33038e-06)
(-0.000570457 0 -2.06669e-05)
(-0.000546247 0 -2.15575e-05)
(-0.000531283 0 -5.71192e-05)
(-0.000526014 0 7.89844e-05)
(-0.00043472 0 -0.000290573)
(-0.000445708 0 -5.28872e-05)
(-0.000385214 0 -0.000185167)
(-0.00035621 0 -0.000174676)
(-0.000308768 0 -0.000191982)
(-0.000258665 0 -0.000213161)
(-0.000209452 0 -0.000212552)
(-0.000116847 0 -0.000204443)
(-0.00010563 0 -0.000131662)
(-5.60798e-05 0 -0.000113656)
(3.0511e-05 0 -0.000146383)
(1.95261e-05 0 -9.65032e-05)
(2.04618e-05 0 -6.79869e-05)
(-3.91654e-05 0 -4.68279e-05)
(-7.58905e-05 0 -2.22809e-05)
(-0.00021099 0 -7.04313e-05)
(-0.000357374 0 -0.000114575)
(-0.000442263 0 -3.7515e-05)
(-0.000494721 0 -7.69414e-05)
(2.97199e-06 0 -0.000129606)
(-8.84615e-13 0 -1.17385e-13)
(-2.3763e-12 0 -6.83137e-14)
(-1.59086e-12 0 -1.16876e-13)
(-1.54704e-12 0 -1.79683e-13)
(-1.49536e-12 0 -2.46873e-13)
(-1.42936e-12 0 -3.14946e-13)
(-1.34677e-12 0 -3.81321e-13)
(-1.24744e-12 0 -4.43585e-13)
(-1.13245e-12 0 -4.99524e-13)
(-1.00365e-12 0 -5.47217e-13)
(-8.63488e-13 0 -5.85101e-13)
(-7.14796e-13 0 -6.12009e-13)
(-5.6067e-13 0 -6.27196e-13)
(-4.04339e-13 0 -6.30355e-13)
(-2.49033e-13 0 -6.21608e-13)
(-9.78657e-14 0 -6.01484e-13)
(4.62774e-14 0 -5.70875e-13)
(1.80835e-13 0 -5.3097e-13)
(3.0364e-13 0 -4.8318e-13)
(4.12962e-13 0 -4.29053e-13)
(5.07528e-13 0 -3.70196e-13)
(5.86512e-13 0 -3.08198e-13)
(6.49512e-13 0 -2.44567e-13)
(6.96505e-13 0 -1.80682e-13)
(7.27796e-13 0 -1.17762e-13)
(7.43961e-13 0 -5.68401e-14)
(7.4579e-13 0 1.23244e-15)
(7.34231e-13 0 5.57876e-14)
(7.10345e-13 0 1.06325e-13)
(6.75259e-13 0 1.52491e-13)
(6.30134e-13 0 1.9406e-13)
(5.7614e-13 0 2.30907e-13)
(5.14431e-13 0 2.62988e-13)
(4.46137e-13 0 2.90313e-13)
(3.72354e-13 0 3.12931e-13)
(2.94142e-13 0 3.30907e-13)
(2.12527e-13 0 3.44311e-13)
(1.28505e-13 0 3.53208e-13)
(4.30071e-14 0 3.57644e-13)
(-3.43976e-05 0 0.000102327)
(-0.000105636 0 0.000195624)
(-0.000117376 0 0.000244803)
(-0.00014431 0 0.0002329)
(-0.000188456 0 0.000173017)
(-0.000242937 0 0.000102591)
(-0.000258573 0 1.29841e-05)
(-0.000248161 0 -3.58543e-05)
(-0.00024506 0 -8.84468e-05)
(-0.000235512 0 -0.000109556)
(-0.000202613 0 -0.000185731)
(-0.000170301 0 -0.000225165)
(-0.000127786 0 -0.000243173)
(-0.000155176 0 -0.000204466)
(-0.000132468 0 -0.000216189)
(-0.000101885 0 -0.000250268)
(2.41576e-05 0 -0.000232778)
(4.62703e-05 0 -0.000130397)
(2.46503e-05 0 -7.84209e-05)
(1.11105e-05 0 -8.59296e-05)
(-2.83964e-05 0 -5.41606e-05)
(-3.55917e-06 0 -7.57069e-06)
(-5.35918e-05 0 0.00010854)
(-6.78723e-05 0 0.000162439)
(-5.9425e-05 0 0.00025092)
(-0.000126683 0 0.000319901)
(-0.000136038 0 0.000345707)
(-0.000161611 0 0.000329162)
(-0.000213271 0 0.000304146)
(-0.000229631 0 0.000293277)
(-0.000259649 0 0.000255536)
(-0.000268656 0 0.000244198)
(-0.000332512 0 0.000265901)
(-0.000347583 0 0.000314658)
(-0.00040795 0 0.000306059)
(-0.000461413 0 0.000304902)
(-0.000499077 0 0.000285454)
(-0.000524684 0 0.000253542)
(-0.000563088 0 0.00019824)
(-0.000578955 0 0.000174534)
(-0.000607927 0 0.000126246)
(-0.000626244 0 0.000108009)
(-0.000637864 0 6.42119e-05)
(-0.000648722 0 -3.49764e-05)
(-0.00066035 0 -3.78891e-06)
(-0.000662199 0 -2.60779e-05)
(-0.000657496 0 -5.73067e-05)
(-0.000657684 0 -8.40668e-05)
(-0.000656866 0 -9.17861e-05)
(-0.000652978 0 -9.34931e-05)
(-0.000654223 0 -8.13648e-05)
(-0.000652146 0 -6.71021e-05)
(-0.00065088 0 -6.18704e-05)
(-0.000657837 0 -5.25679e-05)
(-0.000663855 0 -5.06254e-05)
(-0.000657304 0 3.43539e-07)
(-0.000630194 0 2.74253e-05)
(-0.00060394 0 4.97893e-05)
(-0.000578641 0 -4.14081e-05)
(-0.000520283 0 -0.00021221)
(-0.000538224 0 4.91737e-05)
(-0.000464068 0 -0.000216396)
(-0.000450934 0 -0.00012415)
(-0.000382532 0 -0.000228127)
(-0.000379773 0 -0.000167122)
(-0.000315996 0 -0.000229099)
(-0.000291675 0 -0.00023969)
(-0.000240259 0 -0.000282412)
(-0.000140643 0 -0.000275347)
(-9.25908e-05 0 -0.000218793)
(5.59425e-05 0 -0.000154014)
(6.24347e-05 0 -0.000165135)
(0.000113507 0 -0.000107506)
(0.000141067 0 -6.75507e-05)
(0.000158451 0 2.3455e-06)
(0.000161701 0 2.22581e-05)
(0.000122666 0 5.9849e-05)
(4.83616e-05 0 5.72257e-05)
(0.00025112 0 5.54249e-05)
(-0.000401599 0 -0.000163387)
(3.27391e-06 0 -0.000179239)
(-9.14842e-13 0 -9.27564e-14)
(-2.37953e-12 0 -8.67933e-14)
(-1.64232e-12 0 -1.46211e-13)
(-1.61598e-12 0 -2.20627e-13)
(-1.57017e-12 0 -3.0357e-13)
(-1.50489e-12 0 -3.89769e-13)
(-1.41947e-12 0 -4.74789e-13)
(-1.31439e-12 0 -5.54873e-13)
(-1.19117e-12 0 -6.26867e-13)
(-1.05213e-12 0 -6.88184e-13)
(-9.00153e-13 0 -7.36777e-13)
(-7.38561e-13 0 -7.71143e-13)
(-5.70944e-13 0 -7.90337e-13)
(-4.01027e-13 0 -7.93988e-13)
(-2.3252e-13 0 -7.82292e-13)
(-6.89789e-14 0 -7.55983e-13)
(8.63366e-14 0 -7.16274e-13)
(2.3057e-13 0 -6.64763e-13)
(3.61352e-13 0 -6.03331e-13)
(4.76844e-13 0 -5.34029e-13)
(5.75758e-13 0 -4.58966e-13)
(6.57331e-13 0 -3.80205e-13)
(7.21285e-13 0 -2.99688e-13)
(7.6777e-13 0 -2.19168e-13)
(7.97292e-13 0 -1.40171e-13)
(8.10637e-13 0 -6.39787e-14)
(8.08808e-13 0 8.37799e-15)
(7.92951e-13 0 7.61054e-14)
(7.64306e-13 0 1.38626e-13)
(7.24154e-13 0 1.95552e-13)
(6.73785e-13 0 2.46651e-13)
(6.14468e-13 0 2.91818e-13)
(5.47432e-13 0 3.31041e-13)
(4.73858e-13 0 3.64373e-13)
(3.94869e-13 0 3.91907e-13)
(3.11537e-13 0 4.13755e-13)
(2.24884e-13 0 4.30026e-13)
(1.35889e-13 0 4.40814e-13)
(4.54635e-14 0 4.46189e-13)
(-0.000152362 0 0.000182202)
(-0.000249674 0 0.000232331)
(-0.000285629 0 0.000215756)
(-0.000308351 0 0.000143054)
(-0.000254186 0 0.00018923)
(-0.000285771 0 0.000117209)
(-0.00031328 0 4.13525e-06)
(-0.000307821 0 -1.92683e-05)
(-0.000320352 0 -0.000122231)
(-0.000314138 0 -0.000179075)
(-0.000314235 0 -0.000220939)
(-0.000304327 0 -0.000254561)
(-0.000298234 0 -0.000267686)
(-0.000266464 0 -0.000294858)
(-0.0002639 0 -0.00029252)
(-0.000285594 0 -0.000239619)
(-0.000283219 0 -0.000169222)
(-0.000237075 0 -0.000157086)
(-0.000215617 0 -0.000151057)
(-0.000244195 0 -6.54153e-05)
(-0.000257038 0 8.14074e-05)
(-0.00019063 0 8.10806e-05)
(-0.000178159 0 6.05152e-05)
(-0.000169698 0 0.000188163)
(-0.00013909 0 0.000319643)
(-0.000175859 0 0.000362015)
(-0.000246905 0 0.000359071)
(-0.000231872 0 0.000370806)
(-0.000265088 0 0.000342188)
(-0.000325215 0 0.000275937)
(-0.000338215 0 0.000240853)
(-0.000361569 0 0.000207959)
(-0.000431291 0 0.00019961)
(-0.000399463 0 0.000316171)
(-0.000440566 0 0.000299647)
(-0.000470741 0 0.000297779)
(-0.000483774 0 0.000302501)
(-0.000506484 0 0.000266719)
(-0.000549278 0 0.000189335)
(-0.0005645 0 0.000166883)
(-0.000583206 0 0.000131502)
(-0.000593502 0 0.000109244)
(-0.000598311 0 7.79005e-05)
(-0.000621975 0 -1.70726e-06)
(-0.000634206 0 7.99721e-06)
(-0.000639472 0 -6.12362e-05)
(-0.000651751 0 -9.86294e-05)
(-0.000659001 0 -8.98158e-05)
(-0.000655641 0 -8.96426e-05)
(-0.000655427 0 -8.81107e-05)
(-0.000659154 0 -7.92412e-05)
(-0.000654845 0 -5.51374e-05)
(-0.000652099 0 -5.17535e-05)
(-0.000660974 0 -3.5071e-05)
(-0.000668571 0 -3.83174e-05)
(-0.000658162 0 -4.46055e-05)
(-0.000616663 0 -4.79268e-05)
(-0.000592817 0 -4.93087e-05)
(-0.000577611 0 -9.26461e-05)
(-0.000565356 0 -9.94914e-05)
(-0.000554604 0 -7.53186e-05)
(-0.000462085 0 -0.000302891)
(-0.000468462 0 -0.000172127)
(-0.000395393 0 -0.00024641)
(-0.000371051 0 -0.000222055)
(-0.000308865 0 -0.000266998)
(-0.000259629 0 -0.0003058)
(-0.000250083 0 -0.000315822)
(-0.000103016 0 -0.000345094)
(-0.000100116 0 -0.000291522)
(-2.9532e-05 0 -0.000272598)
(5.00469e-05 0 -0.000234953)
(0.000123278 0 -0.000144103)
(0.000160288 0 -0.000108907)
(0.000187587 0 -3.08026e-05)
(0.000197648 0 2.75463e-05)
(0.000185939 0 6.28572e-05)
(0.000154951 0 5.53078e-05)
(0.0002061 0 2.7189e-05)
(-0.000190998 0 -1.59736e-06)
(3.17333e-06 0 -9.20444e-05)
(-8.89142e-13 0 -5.52372e-14)
(-2.49092e-12 0 -8.38621e-14)
(-1.7247e-12 0 -1.60465e-13)
(-1.7044e-12 0 -2.52959e-13)
(-1.66451e-12 0 -3.56931e-13)
(-1.60058e-12 0 -4.657e-13)
(-1.51187e-12 0 -5.73138e-13)
(-1.39952e-12 0 -6.74205e-13)
(-1.26576e-12 0 -7.64855e-13)
(-1.11356e-12 0 -8.41854e-13)
(-9.46447e-13 0 -9.02669e-13)
(-7.68356e-13 0 -9.45444e-13)
(-5.83515e-13 0 -9.6902e-13)
(-3.96293e-13 0 -9.72966e-13)
(-2.11028e-13 0 -9.57587e-13)
(-3.18483e-14 0 -9.23883e-13)
(1.37498e-13 0 -8.73473e-13)
(2.93778e-13 0 -8.08473e-13)
(4.34374e-13 0 -7.31349e-13)
(5.57328e-13 0 -6.44765e-13)
(6.61352e-13 0 -5.5143e-13)
(7.4579e-13 0 -4.53967e-13)
(8.1055e-13 0 -3.54811e-13)
(8.56022e-13 0 -2.56128e-13)
(8.82985e-13 0 -1.59776e-13)
(8.9251e-13 0 -6.72815e-14)
(8.85874e-13 0 2.01525e-14)
(8.6448e-13 0 1.01629e-13)
(8.29792e-13 0 1.76522e-13)
(7.83284e-13 0 2.44438e-13)
(7.264e-13 0 3.05173e-13)
(6.60529e-13 0 3.58671e-13)
(5.86985e-13 0 4.04982e-13)
(5.07003e-13 0 4.44227e-13)
(4.21736e-13 0 4.76568e-13)
(3.3226e-13 0 5.02177e-13)
(2.39586e-13 0 5.21218e-13)
(1.44669e-13 0 5.33829e-13)
(4.83824e-14 0 5.40108e-13)
(-4.572e-05 0 0.00032303)
(-7.8455e-05 0 0.000334484)
(-0.000144495 0 0.000339114)
(-0.00031803 0 0.000233554)
(-0.000375191 0 0.000159353)
(-0.000358343 0 0.000151335)
(-0.000378025 0 7.63396e-05)
(-0.000422507 0 -5.88299e-05)
(-0.000442246 0 -6.08576e-05)
(-0.000465443 0 -0.00011285)
(-0.000476793 0 -0.000173286)
(-0.000488867 0 -0.00019454)
(-0.000492779 0 -0.000209856)
(-0.00049539 0 -0.000215031)
(-0.000483279 0 -0.000229249)
(-0.000416242 0 -0.000239459)
(-0.000359621 0 -0.000227353)
(-0.000345745 0 -0.000184637)
(-0.000326728 0 -0.000154712)
(-0.000300122 0 -0.000112489)
(-0.000231215 0 -0.000134785)
(-0.000223906 0 -9.5272e-05)
(-0.000302924 0 0.000138673)
(-0.000298637 0 0.000220415)
(-0.000295773 0 0.00030634)
(-0.000276227 0 0.000377825)
(-0.000320975 0 0.000369789)
(-0.000322528 0 0.000373488)
(-0.000332004 0 0.000352938)
(-0.000329911 0 0.000326929)
(-0.000342023 0 0.000299456)
(-0.000354437 0 0.000284094)
(-0.000415329 0 0.000286513)
(-0.00042173 0 0.000336761)
(-0.00042441 0 0.000358617)
(-0.000448424 0 0.000340344)
(-0.00045731 0 0.000330946)
(-0.000469985 0 0.000296337)
(-0.000476157 0 0.000270733)
(-0.000501101 0 0.000226845)
(-0.000545147 0 0.00015915)
(-0.0005563 0 0.000143367)
(-0.000576827 0 3.66411e-05)
(-0.000591247 0 1.92244e-05)
(-0.000609568 0 3.81578e-05)
(-0.000632101 0 -4.67685e-05)
(-0.000642486 0 -4.39794e-05)
(-0.000640615 0 -5.24463e-05)
(-0.000644043 0 -0.000114269)
(-0.000657966 0 -0.000102954)
(-0.000655835 0 -7.4389e-05)
(-0.000636749 0 -6.72279e-05)
(-0.000634038 0 -5.83536e-05)
(-0.00064026 0 -4.91763e-05)
(-0.00064216 0 -4.46092e-05)
(-0.000632535 0 5.11043e-06)
(-0.000611035 0 -4.59598e-05)
(-0.000597259 0 -6.56242e-05)
(-0.000577865 0 -0.000128706)
(-0.000557475 0 -0.000146548)
(-0.000558119 0 -0.000112257)
(-0.000477096 0 -0.00030918)
(-0.000462744 0 -0.000245238)
(-0.000409855 0 -0.000265406)
(-0.000351559 0 -0.000296216)
(-0.000292412 0 -0.000327339)
(-0.000211085 0 -0.00037156)
(-0.000212055 0 -0.000366346)
(-0.000106356 0 -0.000389123)
(-7.64072e-05 0 -0.000367347)
(-3.76311e-05 0 -0.000354014)
(2.62355e-05 0 -0.000318752)
(0.000129697 0 -0.000187201)
(0.000166203 0 -0.000168974)
(0.000237967 0 -2.74336e-05)
(0.000229412 0 7.43799e-05)
(0.000223144 0 9.09195e-05)
(0.000196341 0 7.77718e-05)
(0.000225021 0 4.88376e-05)
(-0.000201178 0 2.40546e-05)
(3.20665e-06 0 -2.43677e-05)
(-8.91556e-13 0 -6.40516e-14)
(-2.54031e-12 0 -7.34569e-14)
(-1.81142e-12 0 -1.58717e-13)
(-1.81244e-12 0 -2.73701e-13)
(-1.78292e-12 0 -4.0539e-13)
(-1.72109e-12 0 -5.42869e-13)
(-1.62798e-12 0 -6.77779e-13)
(-1.50611e-12 0 -8.03893e-13)
(-1.35882e-12 0 -9.16451e-13)
(-1.18994e-12 0 -1.01168e-12)
(-1.00374e-12 0 -1.08659e-12)
(-8.04911e-13 0 -1.13894e-12)
(-5.98466e-13 0 -1.16733e-12)
(-3.89594e-13 0 -1.17127e-12)
(-1.83437e-13 0 -1.15121e-12)
(1.5135e-14 0 -1.10849e-12)
(2.01747e-13 0 -1.04526e-12)
(3.72694e-13 0 -9.64304e-13)
(5.25059e-13 0 -8.68825e-13)
(6.56763e-13 0 -7.6225e-13)
(7.66556e-13 0 -6.48019e-13)
(8.5395e-13 0 -5.29421e-13)
(9.19125e-13 0 -4.09458e-13)
(9.62805e-13 0 -2.90756e-13)
(9.86138e-13 0 -1.75522e-13)
(9.90565e-13 0 -6.55242e-14)
(9.77718e-13 0 3.78841e-14)
(9.49321e-13 0 1.33735e-13)
(9.07115e-13 0 2.21393e-13)
(8.52806e-13 0 3.00503e-13)
(7.88018e-13 0 3.70931e-13)
(7.14277e-13 0 4.32708e-13)
(6.32988e-13 0 4.85985e-13)
(5.45444e-13 0 5.30982e-13)
(4.52819e-13 0 5.67955e-13)
(3.56188e-13 0 5.97162e-13)
(2.56537e-13 0 6.18837e-13)
(1.54779e-13 0 6.33172e-13)
(5.17425e-14 0 6.40303e-13)
(-4.53877e-05 0 0.000330897)
(6.68173e-05 0 0.000403138)
(-5.55202e-05 0 0.000407434)
(-0.000166852 0 0.000379448)
(-0.000343003 0 0.000266763)
(-0.000469421 0 0.000108966)
(-0.000482305 0 4.32109e-05)
(-0.000497219 0 1.93015e-05)
(-0.000533156 0 -5.40154e-05)
(-0.000549471 0 -0.000166737)
(-0.000561827 0 -0.000221354)
(-0.000582282 0 -0.000249261)
(-0.000584333 0 -0.000291154)
(-0.000586096 0 -0.00030857)
(-0.00059637 0 -0.000299352)
(-0.00058383 0 -0.000258727)
(-0.000496617 0 -0.00027698)
(-0.000496599 0 -0.000133925)
(-0.0004765 0 -8.35948e-05)
(-0.000467597 0 -7.99073e-05)
(-0.000472774 0 6.15307e-05)
(-0.000452743 0 3.31402e-05)
(-0.000442751 0 4.03696e-05)
(-0.000418688 0 0.000185908)
(-0.000382219 0 0.000332871)
(-0.000369413 0 0.00038117)
(-0.000362096 0 0.000403021)
(-0.000373311 0 0.000390282)
(-0.000365428 0 0.000364244)
(-0.000363406 0 0.000330846)
(-0.000374364 0 0.000301348)
(-0.000364202 0 0.000305079)
(-0.000402911 0 0.000299291)
(-0.000422223 0 0.000332029)
(-0.000415244 0 0.000361916)
(-0.000426975 0 0.000354681)
(-0.000433339 0 0.000341675)
(-0.000459865 0 0.000282243)
(-0.0004674 0 0.000228053)
(-0.000451659 0 0.000225693)
(-0.000455991 0 0.000210406)
(-0.000469895 0 0.000182173)
(-0.000511359 0 8.97451e-05)
(-0.000535617 0 5.23305e-05)
(-0.000558144 0 4.24427e-05)
(-0.000571718 0 -7.77492e-07)
(-0.000573271 0 -5.0821e-05)
(-0.00059367 0 -8.01221e-05)