/*--------------------------------*- C++ -*----------------------------------*\
  =========                 |
  \\      /  F ield         | OpenFOAM: The Open Source CFD Toolbox
   \\    /   O peration     | Website:  https://openfoam.org
    \\  /    A nd           | Version:  6
     \\/     M anipulation  |
\*---------------------------------------------------------------------------*/
FoamFile
{
    version     2.0;
    format      ascii;
    class       volScalarField;
    location    "4800";
    object      dmdt;
}
// * * * * * * * * * * * * * * * * * * * * * * * * * * * * * * * * * * * * * //

dimensions      [0 0 0 0 0 0 0];

internalField   nonuniform List<scalar> 
4800
(
-0.218659
-0.2148
-0.21096
-0.207154
-0.203393
-0.199685
-0.196043
-0.19249
-0.189067
-0.185829
-0.18284
-0.180132
-0.177722
-0.175615
-0.173794
-0.172235
-0.170907
-0.169771
-0.168793
-0.167939
-0.167179
-0.166484
-0.165834
-0.165214
-0.164609
-0.164006
-0.163395
-0.162767
-0.162104
-0.161398
-0.160649
-0.159847
-0.158986
-0.158059
-0.15706
-0.155977
-0.154803
-0.15354
-0.152172
-0.150684
-0.149065
-0.147296
-0.145359
-0.143245
-0.140948
-0.138471
-0.135823
-0.133022
-0.130087
-0.127035
-0.123889
-0.120674
-0.117412
-0.114123
-0.110822
-0.107523
-0.10424
-0.100983
-0.0977589
-0.0945737
-0.0914276
-0.0883155
-0.0852366
-0.0821921
-0.0791702
-0.0761549
-0.0731255
-0.0700627
-0.0669297
-0.0636865
-0.0603258
-0.0568247
-0.0531576
-0.0493271
-0.0453418
-0.0412131
-0.0369654
-0.0326273
-0.0282335
-0.0238306
-0.0194601
-0.0151761
-0.0110192
-0.00698298
-0.00306053
0.000757509
0.00448143
0.00812169
0.0116883
0.0151904
0.018636
0.0220322
0.025385
0.0286995
0.0319798
0.0352298
0.0384524
0.0416503
0.0448259
0.0479811
0.0511179
0.0542378
0.0573424
0.060433
0.0635109
0.0665772
0.0696331
0.0726795
0.0757175
0.0787479
0.0817715
0.0847892
0.0878017
0.0908096
0.0938138
0.0968147
0.0998131
0.102809
0.105804
0.108799
-0.21866
-0.214803
-0.21096
-0.207147
-0.203377
-0.199661
-0.19601
-0.192456
-0.18905
-0.185846
-0.182889
-0.180219
-0.17784
-0.175755
-0.173952
-0.172407
-0.17109
-0.169963
-0.16899
-0.168139
-0.16738
-0.166683
-0.166033
-0.165413
-0.164809
-0.164208
-0.163597
-0.162963
-0.162289
-0.161575
-0.160815
-0.159997
-0.159119
-0.158175
-0.157155
-0.156055
-0.154868
-0.153591
-0.15221
-0.150712
-0.149085
-0.14731
-0.145369
-0.143255
-0.140965
-0.138499
-0.135864
-0.133075
-0.13015
-0.127111
-0.123979
-0.120775
-0.117523
-0.114243
-0.110951
-0.107659
-0.104381
-0.101125
-0.0978997
-0.0947086
-0.091552
-0.0884287
-0.0853377
-0.082276
-0.0792362
-0.0762032
-0.0731512
-0.0700506
-0.0668771
-0.0636085
-0.0602254
-0.0567101
-0.0530407
-0.0492108
-0.0452219
-0.0410893
-0.0368339
-0.0324893
-0.0280946
-0.0236918
-0.0193269
-0.0150487
-0.0108988
-0.00687147
-0.00295919
0.000848119
0.00456141
0.00819168
0.0117492
0.0152433
0.0186821
0.0220725
0.0254204
0.0287308
0.0320077
0.0352548
0.0384749
0.0416707
0.0448444
0.0479981
0.0511334
0.054252
0.0573553
0.0604448
0.0635217
0.066587
0.069642
0.0726876
0.0757248
0.0787544
0.0817773
0.0847943
0.0878061
0.0908134
0.0938169
0.0968172
0.099815
0.102811
0.105805
0.108799
-0.218662
-0.214806
-0.21096
-0.207137
-0.203354
-0.199629
-0.195983
-0.192452
-0.189089
-0.185943
-0.18305
-0.180432
-0.178096
-0.176045
-0.174269
-0.172748
-0.171448
-0.170334
-0.16937
-0.168525
-0.167769
-0.167071
-0.16642
-0.1658
-0.165198
-0.164595
-0.16398
-0.163336
-0.162646
-0.161913
-0.161127
-0.160278
-0.159364
-0.158379
-0.157319
-0.156184
-0.154969
-0.153663
-0.152255
-0.150738
-0.1491
-0.14732
-0.145381
-0.143276
-0.141001
-0.138557
-0.135945
-0.133178
-0.130275
-0.127257
-0.124148
-0.120968
-0.117739
-0.114478
-0.111202
-0.107924
-0.104653
-0.101398
-0.0981651
-0.094957
-0.0917736
-0.088619
-0.0854939
-0.0823929
-0.0793064
-0.0762158
-0.0730981
-0.0699274
-0.0666906
-0.063374
-0.0599479
-0.0564022
-0.0527204
-0.0488893
-0.0449063
-0.0407797
-0.0365296
-0.0321923
-0.027808
-0.0234172
-0.0190628
-0.0147917
-0.0106556
-0.00664671
-0.00275561
0.00102951
0.00472103
0.00833099
0.0118703
0.0153484
0.0187735
0.0221524
0.0254906
0.0287929
0.032063
0.0353044
0.0385196
0.0417113
0.0448813
0.0480317
0.0511642
0.0542802
0.0573811
0.0604684
0.0635432
0.0666066
0.0696598
0.0727037
0.0757392
0.0787673
0.0817888
0.0848044
0.0878148
0.0908209
0.0938232
0.0968223
0.0998189
0.102814
0.105807
0.108799
-0.218664
-0.214815
-0.210977
-0.207161
-0.203381
-0.199664
-0.196037
-0.192546
-0.189242
-0.18616
-0.18333
-0.180766
-0.178476
-0.176468
-0.174727
-0.173233
-0.171957
-0.170857
-0.169902
-0.169065
-0.168313
-0.167616
-0.16697
-0.166354
-0.165755
-0.165149
-0.164528
-0.163869
-0.163154
-0.162387
-0.161559
-0.16066
-0.159691
-0.158648
-0.157532
-0.156346
-0.155084
-0.153739
-0.152297
-0.150754
-0.149097
-0.14731
-0.14538
-0.143293
-0.141044
-0.138629
-0.136049
-0.133317
-0.130449
-0.127466
-0.124391
-0.121246
-0.11805
-0.114817
-0.111561
-0.108296
-0.10503
-0.101769
-0.0985168
-0.0952771
-0.0920529
-0.0888506
-0.0856687
-0.0824977
-0.0793256
-0.0761366
-0.0729149
-0.0696456
-0.0663195
-0.0629265
-0.0594423
-0.0558589
-0.0521575
-0.0483244
-0.0443545
-0.0402485
-0.0360219
-0.0317098
-0.0273505
-0.022984
-0.0186519
-0.0143961
-0.0102836
-0.00630502
-0.00244809
0.00130183
0.0049594
0.00853813
0.0120497
0.0155039
0.0189087
0.0222705
0.0255944
0.0288848
0.032145
0.035378
0.0385861
0.0417716
0.0449363
0.0480819
0.0512101
0.0543222
0.0574196
0.0605036
0.0635753
0.0666358
0.0696863
0.0727277
0.0757608
0.0787866
0.0818059
0.0848194
0.0878279
0.0908321
0.0938325
0.0968299
0.0998248
0.102818
0.105809
0.1088
-0.218665
-0.214817
-0.210984
-0.207175
-0.203404
-0.199705
-0.196124
-0.192698
-0.189469
-0.186468
-0.183711
-0.181205
-0.178966
-0.177004
-0.175304
-0.173842
-0.172591
-0.171507
-0.170564
-0.169739
-0.168992
-0.168301
-0.167661
-0.167051
-0.166454
-0.165847
-0.165215
-0.164531
-0.163784
-0.162974
-0.162088
-0.161126
-0.160088
-0.158976
-0.157794
-0.156543
-0.155222
-0.153825
-0.15234
-0.150763
-0.149078
-0.147277
-0.145352
-0.143286
-0.14107
-0.138697
-0.136163
-0.133473
-0.130647
-0.127709
-0.124681
-0.121584
-0.118431
-0.115234
-0.112004
-0.108751
-0.105484
-0.102208
-0.0989259
-0.0956431
-0.0923624
-0.0890881
-0.085819
-0.0825472
-0.0792606
-0.0759443
-0.0725891
-0.0691921
-0.0657512
-0.0622629
-0.0587086
-0.0550805
-0.0513561
-0.0475225
-0.0435683
-0.0394906
-0.0352984
-0.031023
-0.0267039
-0.0223788
-0.0180828
-0.0138506
-0.00977388
-0.00584088
-0.00203443
0.00166477
0.00527463
0.00881046
0.0122847
0.015707
0.0190851
0.0224246
0.0257302
0.0290052
0.0322526
0.0354748
0.0386737
0.0418512
0.0450089
0.0481483
0.0512708
0.0543778
0.0574705
0.0605501
0.0636178
0.0666745
0.0697214
0.0727594
0.0757894
0.0788122
0.0818286
0.0848393
0.0878452
0.0908468
0.0938449
0.0968399
0.0998325
0.102823
0.105813
0.108801
-0.218669
-0.214833
-0.211015
-0.207228
-0.20349
-0.19983
-0.196308
-0.192965
-0.189818
-0.186889
-0.184196
-0.181748
-0.179565
-0.177652
-0.175994
-0.174563
-0.173333
-0.172266
-0.171338
-0.170529
-0.169793
-0.169114
-0.16848
-0.167876
-0.167281
-0.166671
-0.166023
-0.165312
-0.164528
-0.163663
-0.162715
-0.161682
-0.160565
-0.159374
-0.158114
-0.156788
-0.155395
-0.153932
-0.152391
-0.150768
-0.149049
-0.147228
-0.1453
-0.14325
-0.141063
-0.138729
-0.136242
-0.133609
-0.130845
-0.127969
-0.125001
-0.121959
-0.118855
-0.115699
-0.112499
-0.109262
-0.105992
-0.102695
-0.099374
-0.0960344
-0.0926786
-0.0893098
-0.0859271
-0.0825267
-0.0790973
-0.0756317
-0.0721311
-0.0685994
-0.0650356
-0.0614421
-0.0578048
-0.0541177
-0.0503588
-0.0465135
-0.0425696
-0.0385206
-0.0343682
-0.0301406
-0.0258717
-0.0215944
-0.017341
-0.0131375
-0.00911203
-0.00524611
-0.00151218
0.00211687
0.00566315
0.00914362
0.0125708
0.0159539
0.0192994
0.0226122
0.0258956
0.0291523
0.0323844
0.0355936
0.0387814
0.0419492
0.0450984
0.0482302
0.0513459
0.0544466
0.0575335
0.0606078
0.0636704
0.0667225
0.069765
0.0727988
0.0758248
0.0788438
0.0818566
0.084864
0.0878666
0.0908651
0.0938602
0.0968523
0.099842
0.10283
0.105817
0.108803
-0.218671
-0.214844
-0.21105
-0.207303
-0.203627
-0.200048
-0.1966
-0.193328
-0.190258
-0.187403
-0.184773
-0.182384
-0.180253
-0.178387
-0.176771
-0.175375
-0.174171
-0.173129
-0.172221
-0.171427
-0.170705
-0.170039
-0.169416
-0.168818
-0.168227
-0.167609
-0.166942
-0.166203
-0.165378
-0.16446
-0.163447
-0.162336
-0.161138
-0.159864
-0.158519
-0.157106
-0.155626
-0.154079
-0.152465
-0.150784
-0.149021
-0.147172
-0.14523
-0.143186
-0.141022
-0.138723
-0.136288
-0.13372
-0.131031
-0.128231
-0.125336
-0.122358
-0.119309
-0.116197
-0.113028
-0.109806
-0.106532
-0.10321
-0.0998429
-0.0964357
-0.0929916
-0.0895127
-0.0859991
-0.0824462
-0.0788493
-0.0752186
-0.0715703
-0.0679072
-0.064222
-0.0605174
-0.0567877
-0.0530286
-0.0492235
-0.0453532
-0.0414041
-0.0373677
-0.0332448
-0.0290538
-0.024823
-0.0205954
-0.0163963
-0.0122241
-0.00827204
-0.00450723
-0.000878559
0.00265461
0.0061188
0.00953094
0.012902
0.0162393
0.0195475
0.0228298
0.0260882
0.0293242
0.0325389
0.0357333
0.0389084
0.0420651
0.0452044
0.0483274
0.051435
0.0545283
0.0576084
0.0606763
0.0637329
0.0667794
0.0698166
0.0728455
0.0758668
0.0788813
0.0818899
0.0848933
0.087892
0.0908868
0.0938783
0.0968669
0.0998533
0.102838
0.105821
0.108804
-0.218697
-0.214914
-0.211157
-0.207452
-0.203823
-0.20031
-0.196954
-0.193773
-0.190784
-0.188002
-0.185442
-0.183119
-0.181045
-0.179229
-0.177652
-0.176288
-0.175111
-0.174092
-0.173206
-0.172428
-0.171724
-0.171071
-0.17046
-0.169871
-0.169281
-0.168654
-0.16797
-0.167206
-0.166343
-0.165372
-0.164292
-0.163104
-0.161824
-0.160464
-0.159028
-0.157519
-0.155943
-0.154302
-0.152602
-0.150841
-0.149018
-0.147127
-0.145162
-0.14311
-0.140957
-0.138692
-0.136308
-0.133808
-0.131196
-0.128482
-0.12567
-0.122768
-0.119782
-0.11672
-0.113585
-0.110378
-0.1071
-0.103751
-0.100333
-0.0968499
-0.0933056
-0.0897036
-0.0860437
-0.0823226
-0.0785484
-0.0747467
-0.070942
-0.0671436
-0.0633424
-0.05953
-0.0557076
-0.0518679
-0.0480011
-0.0440906
-0.0401272
-0.0360974
-0.0319884
-0.0278166
-0.02361
-0.0194079
-0.0152288
-0.0110476
-0.0072
-0.00359881
-0.000129848
0.00327118
0.00663158
0.00996274
0.0132702
0.0165569
0.0198245
0.0230739
0.0263053
0.0295188
0.0327146
0.0358928
0.0390538
0.0421981
0.0453263
0.0484392
0.0515376
0.0546224
0.0576946
0.0607552
0.063805
0.066845
0.0698762
0.0728993
0.0759151
0.0789246
0.0819283
0.0849269
0.0879212
0.0909118
0.0938991
0.0968838
0.0998663
0.102847
0.105827
0.108806
-0.218729
-0.215013
-0.211326
-0.207694
-0.204144
-0.200713
-0.197432
-0.194325
-0.19141
-0.188699
-0.186203
-0.183938
-0.181917
-0.180145
-0.178608
-0.177282
-0.176139
-0.175148
-0.174284
-0.173525
-0.17284
-0.172207
-0.171609
-0.17103
-0.170438
-0.169803
-0.169109
-0.168322
-0.167423
-0.166402
-0.16526
-0.164
-0.16264
-0.161189
-0.159653
-0.15804
-0.156358
-0.154614
-0.152813
-0.15096
-0.14906
-0.147116
-0.145116
-0.143046
-0.140894
-0.138654
-0.136323
-0.133895
-0.131366
-0.128737
-0.12601
-0.123188
-0.120273
-0.117266
-0.114169
-0.11098
-0.107699
-0.104325
-0.100858
-0.0972961
-0.0936447
-0.0899098
-0.086094
-0.0822027
-0.0782604
-0.0742995
-0.0703402
-0.0663981
-0.0624742
-0.0585527
-0.0546341
-0.0507124
-0.0467771
-0.0428129
-0.0388088
-0.0347536
-0.0306342
-0.026463
-0.0222664
-0.0180616
-0.0138125
-0.00945066
-0.00577437
-0.00247244
0.000737939
0.00395392
0.00718608
0.0104257
0.013665
0.0168991
0.0201251
0.0233407
0.0265442
0.0297344
0.0329102
0.0360711
0.0392168
0.0423475
0.0454634
0.0485651
0.0516532
0.0547285
0.0577919
0.0608442
0.0638862
0.066919
0.0699432
0.0729598
0.0759696
0.0789732
0.0819714
0.0849648
0.0879541
0.0909398
0.0939225
0.0969027
0.0998809
0.102858
0.105833
0.108808
-0.218768
-0.215132
-0.211529
-0.207985
-0.204528
-0.201188
-0.197991
-0.194964
-0.192125
-0.189484
-0.187052
-0.184844
-0.182874
-0.18115
-0.179657
-0.178369
-0.177257
-0.176292
-0.17545
-0.174711
-0.174049
-0.173438
-0.172854
-0.172284
-0.171692
-0.171059
-0.170357
-0.169551
-0.168621
-0.167558
-0.166359
-0.165031
-0.163589
-0.162043
-0.160404
-0.158682
-0.15689
-0.155039
-0.153137
-0.151192
-0.14921
-0.147194
-0.145139
-0.143038
-0.140886
-0.138675
-0.136391
-0.134025
-0.131568
-0.129019
-0.126374
-0.123632
-0.120789
-0.117842
-0.114787
-0.111621
-0.108342
-0.104947
-0.101434
-0.0977976
-0.0940424
-0.0901746
-0.0862063
-0.0821607
-0.0780667
-0.0739511
-0.0698469
-0.0657721
-0.0617273
-0.0576987
-0.0536805
-0.0496619
-0.0456357
-0.0415947
-0.0375285
-0.0334268
-0.0292795
-0.0250976
-0.0209159
-0.0167042
-0.0121948
-0.00702289
-0.00375148
-0.00106192
0.0017161
0.00467701
0.0077589
0.0109027
0.0140748
0.0172584
0.0204442
0.023627
0.0268029
0.0299695
0.0331247
0.0362674
0.0393969
0.0425129
0.0456154
0.0487048
0.0517815
0.0548463
0.0578998
0.0609428
0.0639762
0.0670008
0.0700174
0.0730268
0.0760297
0.0790269
0.082019
0.0850066
0.0879903
0.0909707
0.0939483
0.0969236
0.099897
0.102869
0.10584
0.10881
-0.218816
-0.215278
-0.211773
-0.208326
-0.204966
-0.201723
-0.19862
-0.19568
-0.192918
-0.190349
-0.187983
-0.185838
-0.183922
-0.182244
-0.18079
-0.179534
-0.178454
-0.177517
-0.1767
-0.175981
-0.175344
-0.174755
-0.174189
-0.173631
-0.173048
-0.17242
-0.171712
-0.170893
-0.169941
-0.168841
-0.167593
-0.166201
-0.164681
-0.163043
-0.161301
-0.159473
-0.157575
-0.15562
-0.153616
-0.151574
-0.149504
-0.147413
-0.1453
-0.143164
-0.140997
-0.138792
-0.136538
-0.134221
-0.131831
-0.129356
-0.126788
-0.12412
-0.121345
-0.118455
-0.115445
-0.112306
-0.109035
-0.105626
-0.102074
-0.0983743
-0.0945331
-0.0905579
-0.0864642
-0.0822753
-0.0780299
-0.0737743
-0.069535
-0.0653234
-0.0611493
-0.0570057
-0.052879
-0.0487621
-0.0446483
-0.0405252
-0.0363832
-0.0322154
-0.0280272
-0.0238578
-0.0197836
-0.015717
-0.0107913
-0.00266364
-0.000838427
0.000602574
0.00272836
0.00538378
0.00831522
0.0113732
0.0144877
0.0176276
0.0207779
0.0239305
0.0270801
0.0302234
0.0333577
0.0364816
0.0395938
0.042694
0.045782
0.0488579
0.0519221
0.0549752
0.0580179
0.0610507
0.0640746
0.0670902
0.0700984
0.0730999
0.0760953
0.0790854
0.0820707
0.085052
0.0880297
0.0910043
0.0939763
0.0969463
0.0999145
0.102881
0.105847
0.108813
-0.21887
-0.215439
-0.212041
-0.2087
-0.205444
-0.202301
-0.199296
-0.196448
-0.19377
-0.191274
-0.188975
-0.186888
-0.185024
-0.183389
-0.181977
-0.180764
-0.179721
-0.178817
-0.178027
-0.177331
-0.176718
-0.176154
-0.175607
-0.175063
-0.174492
-0.173869
-0.173164
-0.17234
-0.171372
-0.170245
-0.168956
-0.167511
-0.165921
-0.1642
-0.162364
-0.160437
-0.158438
-0.156382
-0.154281
-0.152148
-0.149996
-0.147832
-0.14566
-0.143481
-0.141291
-0.139083
-0.136846
-0.134566
-0.132226
-0.12981
-0.127304
-0.124696
-0.121975
-0.119133
-0.11616
-0.113048
-0.109788
-0.10637
-0.102788
-0.0990406
-0.0951272
-0.0910559
-0.0868497
-0.0825428
-0.0781832
-0.0738122
-0.0694532
-0.0651224
-0.0608291
-0.0565673
-0.0523276
-0.0481071
-0.0438995
-0.0396908
-0.0354684
-0.0312293
-0.0269966
-0.0228485
-0.0189497
-0.0153463
-0.0108115
0.00337627
0.00238801
0.00198404
0.00352021
0.00596773
0.00880977
0.0118167
0.0148938
0.0180021
0.021124
0.0242504
0.0273757
0.0304962
0.0336095
0.0367136
0.0398076
0.0428908
0.045963
0.0490241
0.0520747
0.055115
0.0581457
0.0611674
0.0641808
0.0671867
0.0701857
0.0731785
0.0761658
0.0791482
0.0821264
0.0851007
0.0880719
0.0910403
0.0940064
0.0969705
0.0999332
0.102895
0.105855
0.108815
-0.218928
-0.215613
-0.212331
-0.209104
-0.205961
-0.202928
-0.200025
-0.197271
-0.194678
-0.192259
-0.190027
-0.188003
-0.186198
-0.184614
-0.183247
-0.182073
-0.18106
-0.180184
-0.179422
-0.178752
-0.178161
-0.177619
-0.177094
-0.176566
-0.17601
-0.175399
-0.174699
-0.173874
-0.172899
-0.171756
-0.170438
-0.168951
-0.167305
-0.165512
-0.163596
-0.161585
-0.159496
-0.157351
-0.155163
-0.152948
-0.15072
-0.148489
-0.146259
-0.144036
-0.141823
-0.139609
-0.13738
-0.135123
-0.132817
-0.130441
-0.127974
-0.125405
-0.122723
-0.119914
-0.116968
-0.113872
-0.110616
-0.107191
-0.103588
-0.0998042
-0.0958413
-0.0917108
-0.0874383
-0.0830655
-0.07864
-0.0741914
-0.0697431
-0.0653098
-0.060898
-0.0565137
-0.0521576
-0.0478266
-0.0435161
-0.0392164
-0.0349165
-0.030614
-0.0263316
-0.0221315
-0.0180982
-0.0141017
-0.00918154
-0.00144008
0.00026363
0.00163877
0.00371347
0.00632252
0.00920877
0.012221
0.0152886
0.0183806
0.0214827
0.0245876
0.0276907
0.0307891
0.0338807
0.0369642
0.0400386
0.0431033
0.0461582
0.0492033
0.0522388
0.0552652
0.0582828
0.0612924
0.0642944
0.0672897
0.0702788
0.0732623
0.0762409
0.0792151
0.0821854
0.0851525
0.0881167
0.0910785
0.0940382
0.0969962
0.099953
0.102909
0.105864
0.108818
-0.218989
-0.215796
-0.212635
-0.20953
-0.206506
-0.203586
-0.200789
-0.198131
-0.195627
-0.193292
-0.191139
-0.189185
-0.187438
-0.185901
-0.184572
-0.183432
-0.182449
-0.181602
-0.180867
-0.180225
-0.179656
-0.179138
-0.178635
-0.178123
-0.177582
-0.176981
-0.176288
-0.175469
-0.174492
-0.173343
-0.172011
-0.170499
-0.168813
-0.166968
-0.164993
-0.162917
-0.160758
-0.158545
-0.156285
-0.154003
-0.15171
-0.149421
-0.147139
-0.144885
-0.142652
-0.140429
-0.1382
-0.135954
-0.133662
-0.131304
-0.12886
-0.126315
-0.123652
-0.120856
-0.11792
-0.114828
-0.111569
-0.108134
-0.104517
-0.100713
-0.0967323
-0.0925901
-0.0883072
-0.0839168
-0.0794653
-0.0749861
-0.0704966
-0.0659996
-0.0615006
-0.0570099
-0.052537
-0.0480881
-0.0436639
-0.0392706
-0.0349069
-0.0305676
-0.0262734
-0.0220581
-0.0179503
-0.0138844
-0.00954238
-0.00478886
-0.00165874
0.000938447
0.00363962
0.00652611
0.00953042
0.0125912
0.0156749
0.0187657
0.0218567
0.0249445
0.0280272
0.0311036
0.0341728
0.0372342
0.0402873
0.0433319
0.0463678
0.0493952
0.0524143
0.0554253
0.0584287
0.0614251
0.0644149
0.0673987
0.0703771
0.0733507
0.0763199
0.0792854
0.0822476
0.0852069
0.0881637
0.0911185
0.0940715
0.0970232
0.0999737
0.102923
0.105872
0.108821
-0.219054
-0.21599
-0.212956
-0.209976
-0.207073
-0.204266
-0.201575
-0.199019
-0.19661
-0.194361
-0.192286
-0.1904
-0.188713
-0.187224
-0.185934
-0.184827
-0.183874
-0.183055
-0.182349
-0.181733
-0.181185
-0.180685
-0.180198
-0.179701
-0.179171
-0.17858
-0.177895
-0.177081
-0.176109
-0.174964
-0.173632
-0.17211
-0.170403
-0.168531
-0.166526
-0.164411
-0.162207
-0.159948
-0.157639
-0.155307
-0.152967
-0.150634
-0.148321
-0.14605
-0.143803
-0.141577
-0.139352
-0.137114
-0.134827
-0.132471
-0.130023
-0.127473
-0.124804
-0.121999
-0.119052
-0.115949
-0.112678
-0.109235
-0.105609
-0.101807
-0.0978407
-0.0937273
-0.0894855
-0.0851412
-0.0807325
-0.0762857
-0.0718099
-0.0672955
-0.0627477
-0.0581816
-0.0536145
-0.0490656
-0.0445484
-0.0400778
-0.0356598
-0.0312918
-0.0269997
-0.0227955
-0.018684
-0.0146472
-0.0105795
-0.00652851
-0.00291452
0.00034174
0.0035015
0.00665203
0.00980022
0.0129373
0.016058
0.0191616
0.0222496
0.0253244
0.028388
0.0314419
0.0344873
0.0375247
0.0405544
0.0435767
0.0465917
0.0495996
0.0526006
0.0555949
0.0585828
0.0615649
0.0645415
0.0675131
0.0704801
0.0734431
0.0764025
0.0793587
0.0823123
0.0852634
0.0882126
0.0911601
0.0941062
0.0970511
0.0999952
0.102939
0.105882
0.108824
-0.219121
-0.21619
-0.213287
-0.210435
-0.207655
-0.204966
-0.202386
-0.199932
-0.19762
-0.195461
-0.193465
-0.191646
-0.190016
-0.188574
-0.18732
-0.186244
-0.185321
-0.184529
-0.183846
-0.183249
-0.182715
-0.182226
-0.18175
-0.18126
-0.180734
-0.180145
-0.179463
-0.178654
-0.177691
-0.176556
-0.175233
-0.173716
-0.172014
-0.170149
-0.168138
-0.166008
-0.163789
-0.161512
-0.159181
-0.156825
-0.154461
-0.152108
-0.149786
-0.147512
-0.145269
-0.143052
-0.140841
-0.138613
-0.13633
-0.133972
-0.131513
-0.128943
-0.126246
-0.123407
-0.120427
-0.117292
-0.113997
-0.110541
-0.106915
-0.103132
-0.0992022
-0.0951433
-0.0909778
-0.0867332
-0.0824376
-0.0780936
-0.0737
-0.0692292
-0.0646878
-0.0600977
-0.0554851
-0.0508832
-0.0463144
-0.0417966
-0.0373441
-0.032957
-0.0286539
-0.0244206
-0.020252
-0.0161381
-0.0119994
-0.00789566
-0.00390901
-0.000207667
0.00331229
0.00671277
0.0100238
0.013262
0.0164403
0.0195707
0.0226641
0.0257299
0.0287753
0.0318059
0.0348255
0.0378364
0.0408403
0.0438378
0.0468297
0.0498161
0.0527972
0.0557732
0.0587444
0.0617111
0.0646735
0.0676321
0.070587
0.0735389
0.0764879
0.0794345
0.082379
0.0853217
0.0882629
0.0912029
0.0941418
0.0970799
0.100017
0.102954
0.105891
0.108827
-0.219187
-0.216388
-0.213617
-0.210894
-0.208238
-0.205668
-0.203203
-0.200855
-0.19864
-0.196568
-0.194653
-0.192904
-0.191331
-0.189935
-0.188717
-0.18767
-0.186771
-0.185997
-0.185325
-0.184735
-0.184205
-0.183718
-0.183239
-0.182744
-0.18221
-0.181613
-0.180922
-0.18011
-0.179151
-0.178024
-0.176713
-0.175216
-0.173543
-0.171708
-0.169718
-0.167609
-0.165411
-0.163144
-0.160824
-0.158474
-0.156117
-0.153773
-0.151465
-0.149205
-0.146983
-0.14479
-0.142605
-0.140396
-0.138126
-0.135772
-0.133298
-0.130699
-0.127962
-0.125079
-0.122054
-0.118881
-0.115562
-0.112096
-0.108486
-0.104745
-0.100886
-0.0969284
-0.0928941
-0.0888019
-0.0846626
-0.0804643
-0.0761911
-0.0718103
-0.0673348
-0.0627886
-0.0582024
-0.0536142
-0.049052
-0.0445382
-0.0400837
-0.0356779
-0.0313222
-0.0269865
-0.022642
-0.0182888
-0.0138841
-0.00947546
-0.00504042
-0.000894134
0.00299248
0.00666945
0.0101791
0.0135527
0.0168155
0.019991
0.0231004
0.0261621
0.0291906
0.0321967
0.0351882
0.0381699
0.0411449
0.044115
0.0470812
0.0500439
0.0530033
0.0559595
0.0589127
0.0618628
0.0648102
0.0677549
0.0706972
0.0736373
0.0765755
0.0795121
0.0824473
0.0853813
0.0883143
0.0912465
0.094178
0.0971091
0.10004
0.10297
0.1059
0.10883
-0.219252
-0.216582
-0.21394
-0.211344
-0.208811
-0.206359
-0.204004
-0.201763
-0.199646
-0.197662
-0.195824
-0.194143
-0.192627
-0.191279
-0.190096
-0.189073
-0.188189
-0.187422
-0.18675
-0.186154
-0.185612
-0.18511
-0.18461
-0.18409
-0.183529
-0.182902
-0.182186
-0.181353
-0.180383
-0.179256
-0.177962
-0.176498
-0.174868
-0.173077
-0.171135
-0.169078
-0.16693
-0.164709
-0.162436
-0.160126
-0.157806
-0.155498
-0.153227
-0.151002
-0.148816
-0.146659
-0.144506
-0.142324
-0.140071
-0.137725
-0.13524
-0.132615
-0.129844
-0.126927
-0.12387
-0.120677
-0.117353
-0.113906
-0.110344
-0.10668
-0.10293
-0.0991145
-0.0952504
-0.0913482
-0.0874049
-0.0834009
-0.0793019
-0.0750781
-0.0707376
-0.0663123
-0.061834
-0.0573438
-0.0528719
-0.0484322
-0.0440272
-0.0396403
-0.0352493
-0.0308082
-0.0262774
-0.0216613
-0.016871
-0.011875
-0.0067053
-0.00194584
0.00240955
0.00643861
0.0102121
0.0137758
0.0171646
0.0204127
0.0235542
0.0266195
0.0296333
0.0326143
0.0355753
0.0385247
0.0414678
0.0444075
0.0473454
0.0502821
0.0532179
0.0561527
0.0590864
0.062019
0.0649504
0.0678805
0.0708096
0.0737376
0.0766646
0.0795909
0.0825165
0.0854415
0.0883662
0.0912905
0.0942146
0.0971386
0.100062
0.102986
0.10591
0.108834
-0.219315
-0.216771
-0.214252
-0.211777
-0.209362
-0.207025
-0.20478
-0.20264
-0.200618
-0.198722
-0.196964
-0.19535
-0.193889
-0.192584
-0.191433
-0.190425
-0.189544
-0.188769
-0.188081
-0.187462
-0.186887
-0.186345
-0.185799
-0.185228
-0.184612
-0.183932
-0.183165
-0.182291
-0.181291
-0.180154
-0.178869
-0.177434
-0.175846
-0.174111
-0.172245
-0.170269
-0.168198
-0.166053
-0.163854
-0.161617
-0.159364
-0.157122
-0.154916
-0.152751
-0.150621
-0.148513
-0.146397
-0.144241
-0.141997
-0.139651
-0.137162
-0.134532
-0.131759
-0.128846
-0.125798
-0.122626
-0.119344
-0.115959
-0.112488
-0.108946
-0.105353
-0.101728
-0.0980831
-0.0944151
-0.0907078
-0.0869438
-0.0830733
-0.0790763
-0.0749571
-0.0707504
-0.0664904
-0.0622169
-0.057953
-0.0536972
-0.0494482
-0.0451814
-0.0408635
-0.0364618
-0.0319392
-0.0271891
-0.0219056
-0.0158996
-0.00940513
-0.00365277
0.00137678
0.00588585
0.0100274
0.0138699
0.0174518
0.020817
0.024016
0.0270974
0.0301013
0.0330571
0.0359855
0.0388997
0.0418076
0.0447139
0.0476208
0.0505293
0.0534395
0.0563514
0.0592644
0.0621784
0.065093
0.068008
0.0709233
0.0738388
0.0767544
0.0796701
0.0825859
0.085502
0.0884182
0.0913346
0.0942512
0.0971681
0.100085
0.103002
0.105919
0.108837
-0.219374
-0.216948
-0.214545
-0.212185
-0.209883
-0.207654
-0.205514
-0.203474
-0.201544
-0.199735
-0.198053
-0.196507
-0.195099
-0.193832
-0.1927
-0.191694
-0.190799
-0.189998
-0.189275
-0.188608
-0.187975
-0.187363
-0.186739
-0.186086
-0.185386
-0.184622
-0.183776
-0.182833
-0.181781
-0.18061
-0.179315
-0.177892
-0.176344
-0.174679
-0.172902
-0.171018
-0.169044
-0.167002
-0.16491
-0.16278
-0.160629
-0.158487
-0.156372
-0.154289
-0.152234
-0.150184
-0.148108
-0.145973
-0.143737
-0.14139
-0.138916
-0.136311
-0.133577
-0.130717
-0.127731
-0.12464
-0.121459
-0.1182
-0.11488
-0.111518
-0.108134
-0.104746
-0.101363
-0.0979726
-0.0945472
-0.0910718
-0.0874848
-0.0837881
-0.0799921
-0.0761254
-0.0722244
-0.068317
-0.0644085
-0.0604827
-0.0565374
-0.0525699
-0.0486288
-0.0448077
-0.0410687
-0.0368905
-0.0311879
-0.0232983
-0.0139547
-0.00639406
-0.000351854
0.00481311
0.00947488
0.0137367
0.0176213
0.0211749
0.0244718
0.0275889
0.0305903
0.0335223
0.0364165
0.0392925
0.0421622
0.0450321
0.0479055
0.0507835
0.0536664
0.0565538
0.0594451
0.0623396
0.0652368
0.0681362
0.0710373
0.0739399
0.0768439
0.0797489
0.082655
0.085562
0.0884698
0.0913783
0.0942875
0.0971972
0.100107
0.103018
0.105929
0.10884
-0.219427
-0.217105
-0.214808
-0.212554
-0.210357
-0.208232
-0.206192
-0.204248
-0.202408
-0.20068
-0.19907
-0.197583
-0.196219
-0.194979
-0.193855
-0.192837
-0.191912
-0.191065
-0.190284
-0.189542
-0.188823
-0.188107
-0.187373
-0.186604
-0.185787
-0.18491
-0.18396
-0.182926
-0.181799
-0.180573
-0.179246
-0.177822
-0.176304
-0.174691
-0.172984
-0.17119
-0.16932
-0.167391
-0.165423
-0.163426
-0.161405
-0.159377
-0.15736
-0.155368
-0.153393
-0.151403
-0.149356
-0.147228
-0.144992
-0.142652
-0.140218
-0.137693
-0.135071
-0.132343
-0.129502
-0.126577
-0.12358
-0.120527
-0.117434
-0.114317
-0.111194
-0.108086
-0.105
-0.101915
-0.0987949
-0.0956358
-0.0923834
-0.0890649
-0.0857026
-0.0823186
-0.0789306
-0.0755244
-0.072081
-0.0685786
-0.0650741
-0.0617635
-0.059153
-0.057911
-0.057953
-0.0570803
-0.0512598
-0.0384973
-0.0214125
-0.0104039
-0.00299013
0.00296941
0.00834118
0.0132368
0.0175974
0.0214505
0.0249052
0.028086
0.0310956
0.0340062
0.0368647
0.0396999
0.0425284
0.0453592
0.0481966
0.0510423
0.0538963
0.0567581
0.0596266
0.062501
0.0653802
0.0682635
0.0711503
0.07404
0.0769323
0.0798267
0.082723
0.0856209
0.0885204
0.0914211
0.0943229
0.0972257
0.100129
0.103033
0.105938
0.108843
-0.219468
-0.217232
-0.215022
-0.212859
-0.210757
-0.208727
-0.206781
-0.204927
-0.203171
-0.201519
-0.199973
-0.198536
-0.197205
-0.195978
-0.194846
-0.1938
-0.19283
-0.191917
-0.191052
-0.190208
-0.189373
-0.188527
-0.187655
-0.186744
-0.185784
-0.184766
-0.183683
-0.182529
-0.1813
-0.179992
-0.178607
-0.177153
-0.175629
-0.174041
-0.172387
-0.170664
-0.16888
-0.167056
-0.165218
-0.163366
-0.161468
-0.15953
-0.157583
-0.155664
-0.153773
-0.151849
-0.149838
-0.147706
-0.145454
-0.143112
-0.140722
-0.138327
-0.13592
-0.13345
-0.130885
-0.128248
-0.125548
-0.122803
-0.120018
-0.117203
-0.114369
-0.111555
-0.108761
-0.105966
-0.103134
-0.100285
-0.0973925
-0.0945172
-0.091683
-0.0888919
-0.0860985
-0.0831954
-0.0801347
-0.0769201
-0.0739433
-0.072261
-0.0743222
-0.082712
-0.0965172
-0.106626
-0.10012
-0.0718462
-0.0307137
-0.0144249
-0.00629557
0.000153089
0.0063786
0.0122075
0.0173002
0.0216113
0.0253042
0.0285834
0.0316133
0.0345048
0.0373262
0.0401179
0.0429024
0.0456916
0.0484911
0.0513027
0.0541266
0.0569618
0.0598069
0.0626606
0.0655216
0.0683888
0.0712611
0.0741379
0.0770185
0.0799023
0.082789
0.0856781
0.0885694
0.0914626
0.0943573
0.0972533
0.10015
0.103048
0.105947
0.108846
-0.219491
-0.217303
-0.215151
-0.213054
-0.211025
-0.209076
-0.207214
-0.205443
-0.203764
-0.202178
-0.200688
-0.19929
-0.19798
-0.196752
-0.195598
-0.194509
-0.193474
-0.192477
-0.191505
-0.190539
-0.189567
-0.188573
-0.187547
-0.186477
-0.185359
-0.184189
-0.182963
-0.181679
-0.180333
-0.17892
-0.177446
-0.175922
-0.174348
-0.172738
-0.171094
-0.169402
-0.167651
-0.165869
-0.164108
-0.16238
-0.160569
-0.158661
-0.15671
-0.154811
-0.153009
-0.151175
-0.149215
-0.147093
-0.144831
-0.142484
-0.140139
-0.137913
-0.135839
-0.133786
-0.131661
-0.129462
-0.127183
-0.124849
-0.122434
-0.11992
-0.117319
-0.114722
-0.112109
-0.109484
-0.106831
-0.104211
-0.101651
-0.0992131
-0.0969099
-0.0946311
-0.0922087
-0.0893161
-0.085953
-0.0822797
-0.0799879
-0.0832643
-0.102005
-0.142806
-0.200136
-0.234366
-0.221024
-0.145263
-0.0182239
-0.0128083
-0.00894803
-0.00361848
0.00340668
0.0105386
0.0166931
0.021654
0.0256731
0.0290836
0.0321428
0.0350151
0.0377967
0.0405418
0.0432796
0.046025
0.0487848
0.0515612
0.0543541
0.0571622
0.0599836
0.0628165
0.0656592
0.0685103
0.0713683
0.0742324
0.0771016
0.0799751
0.0828524
0.085733
0.0886164
0.0915022
0.0943901
0.0972797
0.100171
0.103063
0.105956
0.108849
-0.219479
-0.217274
-0.215122
-0.213046
-0.21106
-0.209169
-0.207375
-0.205672
-0.204057
-0.202526
-0.201077
-0.199704
-0.1984
-0.19716
-0.195972
-0.194828
-0.193716
-0.192622
-0.191535
-0.190443
-0.189334
-0.188194
-0.187017
-0.185798
-0.184533
-0.183224
-0.181872
-0.180475
-0.179026
-0.177516
-0.175948
-0.174331
-0.172664
-0.170971
-0.169263
-0.167525
-0.165725
-0.163881
-0.16209
-0.160412
-0.158611
-0.156633
-0.154555
-0.152577
-0.150856
-0.14914
-0.147242
-0.145143
-0.142889
-0.14056
-0.138273
-0.136242
-0.134606
-0.13317
-0.131656
-0.130044
-0.128271
-0.126414
-0.124354
-0.121978
-0.119345
-0.116699
-0.113956
-0.111136
-0.108358
-0.105678
-0.103268
-0.100943
-0.0987998
-0.0962178
-0.0930415
-0.0883135
-0.0829826
-0.0775131
-0.0776857
-0.0976074
-0.171904
-0.304259
-0.474899
-0.518806
-0.479923
-0.299452
0.00757307
-0.000873723
-0.0104921
-0.00839009
-0.000540736
0.00833389
0.0158782
0.0216482
0.0260496
0.0296029
0.0326882
0.0355353
0.0382718
0.0409664
0.0436547
0.0463545
0.0490735
0.051814
0.0545755
0.0573563
0.060154
0.0629664
0.0657911
0.0686264
0.0714705
0.0743222
0.0771804
0.080044
0.0829124
0.0857848
0.0886607
0.0915396
0.094421
0.0973045
0.10019
0.103076
0.105963
0.108851
-0.219407
-0.217074
-0.214827
-0.212698
-0.210697
-0.20882
-0.207058
-0.205397
-0.203823
-0.202325
-0.200897
-0.199532
-0.198223
-0.196961
-0.195737
-0.194539
-0.193355
-0.192177
-0.190989
-0.189788
-0.188566