/*--------------------------------*- C++ -*----------------------------------*\
  =========                 |
  \\      /  F ield         | OpenFOAM: The Open Source CFD Toolbox
   \\    /   O peration     | Website:  https://openfoam.org
    \\  /    A nd           | Version:  6
     \\/     M anipulation  |
\*---------------------------------------------------------------------------*/
FoamFile
{
    version     2.0;
    format      ascii;
    class       surfaceScalarField;
    location    "4800";
    object      phi;
}
// * * * * * * * * * * * * * * * * * * * * * * * * * * * * * * * * * * * * * //

dimensions      [0 3 -1 0 0 0 0];

internalField   nonuniform List<scalar> 
9440
(
-8.10168e-11
8.10168e-11
-1.62038e-10
8.10208e-11
-2.14832e-10
5.2793e-11
-2.30488e-10
1.56558e-11
-2.47631e-10
1.71433e-11
-3.04349e-10
5.6718e-11
-4.48611e-10
1.44264e-10
-7.08942e-10
2.60332e-10
-1.27548e-09
5.66538e-10
-1.87849e-09
6.03015e-10
-2.29434e-09
4.15852e-10
-2.98982e-09
6.95482e-10
-3.41804e-09
4.28216e-10
-3.82441e-09
4.06375e-10
-4.29768e-09
4.73267e-10
-4.5577e-09
2.6002e-10
-4.82015e-09
2.62451e-10
-4.96071e-09
1.4056e-10
-5.0825e-09
1.21792e-10
-4.99543e-09
-8.70696e-11
-4.81471e-09
-1.80717e-10
-4.6556e-09
-1.59111e-10
-4.55568e-09
-9.99197e-11
-4.28307e-09
-2.72606e-10
-4.09272e-09
-1.90358e-10
-3.90744e-09
-1.85274e-10
-3.61118e-09
-2.96261e-10
-2.6447e-09
-9.6648e-10
-2.41251e-09
-2.32191e-10
-2.20427e-09
-2.08241e-10
-1.55895e-09
-6.45323e-10
-1.12194e-09
-4.37009e-10
-7.37194e-10
-3.84748e-10
-3.15724e-10
-4.2147e-10
1.67437e-10
-4.8316e-10
2.91265e-10
-1.23827e-10
3.3192e-10
-4.06554e-11
8.22842e-10
-4.90923e-10
8.45737e-10
-2.2896e-11
1.00268e-09
-1.56948e-10
1.17158e-09
-1.68897e-10
1.17345e-09
-1.87145e-12
1.12364e-09
4.98057e-11
9.89456e-10
1.34184e-10
7.75912e-10
2.13543e-10
5.14497e-10
2.61415e-10
2.67556e-10
2.46942e-10
6.55564e-11
2.01999e-10
-1.29027e-10
1.94582e-10
-3.54706e-10
2.25678e-10
-5.71492e-10
2.16785e-10
-7.45588e-10
1.74095e-10
-8.79916e-10
1.34327e-10
-1.01137e-09
1.31455e-10
-1.13388e-09
1.22508e-10
-1.24118e-09
1.07307e-10
-1.3186e-09
7.74214e-11
-1.35821e-09
3.96096e-11
-1.39191e-09
3.3698e-11
-1.32216e-09
-6.97508e-11
-1.24035e-09
-8.18133e-11
-1.20395e-09
-3.64043e-11
-1.12864e-09
-7.53144e-11
-8.81516e-10
-2.47121e-10
-7.29464e-10
-1.52053e-10
-4.31291e-10
-2.98172e-10
-2.30068e-10
-2.01222e-10
4.16544e-10
-6.46611e-10
6.37818e-10
-2.21273e-10
7.20455e-10
-8.26372e-11
1.05208e-09
-3.3162e-10
1.03556e-09
1.65154e-11
9.68289e-10
6.72718e-11
8.96033e-10
7.22556e-11
8.68691e-10
2.73429e-11
7.15075e-10
1.53616e-10
7.21418e-10
-6.34334e-12
5.33858e-10
1.87559e-10
4.24145e-10
1.09712e-10
2.82497e-10
1.41648e-10
-4.38152e-15
2.82504e-10
3.97469e-18
7.1304e-19
3.62905e-18
3.45637e-19
3.29485e-18
3.35352e-19
2.97775e-18
3.14295e-19
2.68042e-18
2.92883e-19
2.40183e-18
2.74057e-19
2.1419e-18
2.55791e-19
1.902e-18
2.35853e-19
1.68642e-18
2.12694e-19
1.50061e-18
1.85414e-19
1.34733e-18
1.54032e-19
1.22842e-18
1.19779e-19
1.14336e-18
8.47288e-20
1.08959e-18
5.09951e-20
1.0648e-18
2.02828e-20
1.06656e-18
-5.92435e-21
1.09101e-18
-2.67675e-20
1.13158e-18
-4.20882e-20
1.18023e-18
-5.14535e-20
1.23162e-18
-5.44865e-20
1.28225e-18
-5.21903e-20
1.32725e-18
-4.62909e-20
1.36144e-18
-3.74305e-20
1.38202e-18
-2.52172e-20
1.38854e-18
-9.71444e-21
1.38109e-18
7.9616e-21
1.35896e-18
2.62372e-20
1.32049e-18
4.37653e-20
1.2639e-18
5.97882e-20
1.1887e-18
7.42945e-20
1.09649e-18
8.785e-20
9.90325e-19
1.01036e-19
8.73104e-19
1.13912e-19
7.46494e-19
1.25951e-19
6.11019e-19
1.36402e-19
4.66982e-19
1.44666e-19
3.15395e-19
1.50404e-19
1.58488e-19
1.53452e-19
1.53407e-19
-5.34538e-11
1.3447e-10
-1.2536e-10
1.52926e-10
-2.0407e-10
1.31503e-10
-2.6152e-10
7.31062e-11
-2.99934e-10
5.55577e-11
-4.06076e-10
1.62862e-10
-7.63964e-10
5.02153e-10
-1.24208e-09
7.38454e-10
-1.6333e-09
9.57756e-10
-2.22196e-09
1.19168e-09
-2.77225e-09
9.66144e-10
-2.90304e-09
8.26279e-10
-3.52793e-09
1.0531e-09
-3.77516e-09
6.53605e-10
-4.09071e-09
7.88823e-10
-4.41959e-09
5.88897e-10
-4.50649e-09
3.49351e-10
-4.64306e-09
2.77131e-10
-4.71064e-09
1.89375e-10
-4.64776e-09
-1.49951e-10
-4.5415e-09
-2.86974e-10
-4.49696e-09
-2.03651e-10
-4.2884e-09
-3.08477e-10
-4.1838e-09
-3.77208e-10
-3.80564e-09
-5.68519e-10
-3.41337e-09
-5.77543e-10
-2.9236e-09
-7.86035e-10
-2.70209e-09
-1.18799e-09
-2.21904e-09
-7.15239e-10
-1.71295e-09
-7.1434e-10
-1.31226e-09
-1.04601e-09
-8.89254e-10
-8.6002e-10
-3.89744e-10
-8.84258e-10
1.20572e-10
-9.31787e-10
3.84747e-10
-7.47335e-10
6.50776e-10
-3.89858e-10
7.45035e-10
-1.34915e-10
1.0484e-09
-7.94296e-10
1.26465e-09
-2.39147e-10
1.22225e-09
-1.1455e-10
1.39039e-09
-3.3704e-10
1.25069e-09
1.37831e-10
1.08854e-09
2.11953e-10
9.24729e-10
2.97991e-10
7.38674e-10
3.99598e-10
5.24296e-10
4.75793e-10
2.9174e-10
4.79496e-10
6.54056e-11
4.28332e-10
-1.29269e-10
3.89255e-10
-2.95102e-10
3.91509e-10
-4.88496e-10
4.10177e-10
-6.85527e-10
3.71125e-10
-8.50848e-10
2.99649e-10
-9.78827e-10
2.59434e-10
-1.09099e-09
2.34676e-10
-1.1802e-09
1.96512e-10
-1.25025e-09
1.47473e-10
-1.27164e-09
6.09974e-11
-1.26511e-09
2.71713e-11
-1.19378e-09
-1.41086e-10
-1.09123e-09
-1.84368e-10
-9.69611e-10
-1.58023e-10
-8.18422e-10
-2.26506e-10
-6.50113e-10
-4.1543e-10
-3.12754e-10
-4.89411e-10
1.18678e-10
-7.29603e-10
5.23971e-10
-6.06514e-10
7.47071e-10
-8.6971e-10
9.70409e-10
-4.44611e-10
1.12581e-09
-2.38041e-10
1.30913e-09
-5.14934e-10
1.3673e-09
-4.16564e-11
1.35917e-09
7.53968e-11
1.28149e-09
1.49941e-10
1.08884e-09
2.19994e-10
9.89145e-10
2.53308e-10
7.31827e-10
2.50974e-10
5.98038e-10
3.21346e-10
3.85917e-10
3.2183e-10
2.15474e-10
3.12086e-10
-1.20786e-16
4.97964e-10
3.97142e-18
1.29885e-18
3.6175e-18
6.92952e-19
3.2733e-18
6.7429e-19
2.9564e-18
6.2493e-19
2.6616e-18
5.80079e-19
2.38357e-18
5.4404e-19
2.12196e-18
5.10741e-19
1.87884e-18
4.73749e-19
1.65914e-18
4.28055e-19
1.46923e-18
3.72487e-19
1.31308e-18
3.08012e-19
1.19337e-18
2.37359e-19
1.10962e-18
1.65121e-19
1.05888e-18
9.64426e-20
1.03859e-18
3.50654e-20
1.04572e-18
-1.69993e-20
1.07569e-18
-5.83897e-20
1.12221e-18
-8.79698e-20
1.17719e-18
-1.05786e-19
1.23391e-18
-1.12895e-19
1.28815e-18
-1.10216e-19
1.33611e-18
-9.83022e-20
1.37366e-18
-7.78281e-20
1.39752e-18
-5.0087e-20
1.40621e-18
-1.73522e-20
1.39936e-18
1.73252e-20
1.37649e-18
5.12313e-20
1.33651e-18
8.32259e-20
1.2784e-18
1.13867e-19
1.20225e-18
1.44246e-19
1.10968e-18
1.74641e-19
1.0032e-18
2.04112e-19
8.85143e-19
2.31121e-19
7.56946e-19
2.54404e-19
6.19282e-19
2.73374e-19
4.7272e-19
2.87973e-19
3.18444e-19
2.98392e-19
1.58442e-19
3.04951e-19
3.08285e-19
-3.947e-11
1.73939e-10
-1.26963e-10
2.40418e-10
-2.86374e-10
2.90914e-10
-4.7732e-10
2.64052e-10
-6.32313e-10
2.10551e-10
-8.53461e-10
3.84013e-10
-1.19903e-09
8.47723e-10
-1.6257e-09
1.16513e-09
-2.02104e-09
1.3531e-09
-2.22089e-09
1.39153e-09
-2.58748e-09
1.33273e-09
-2.771e-09
1.0098e-09
-3.12773e-09
1.40983e-09
-3.54551e-09
1.07139e-09
-3.65954e-09
9.02847e-10
-3.89886e-09
8.28219e-10
-3.97212e-09
4.22615e-10
-3.99422e-09
2.99228e-10
-3.91691e-09
1.1206e-10
-3.94326e-09
-1.23598e-10
-3.71862e-09
-5.1161e-10
-3.77781e-09
-1.4446e-10
-3.81041e-09
-2.75877e-10
-3.75679e-09
-4.30827e-10
-3.42266e-09
-9.02649e-10
-3.1598e-09
-8.4041e-10
-2.78913e-09
-1.15671e-09
-2.44873e-09
-1.52839e-09
-1.8561e-09
-1.30787e-09
-1.29558e-09
-1.27487e-09
-8.71015e-10
-1.47057e-09
-4.23468e-10
-1.30757e-09
1.2932e-11
-1.32066e-09
2.36027e-10
-1.15488e-09
4.06635e-10
-9.17943e-10
8.22728e-10
-8.05952e-10
1.05032e-09
-3.62504e-10
1.02658e-09
-7.70566e-10
1.14943e-09
-3.61996e-10
1.22276e-09
-1.87884e-10
1.4801e-09
-5.94377e-10
1.31095e-09
3.06976e-10
1.15256e-09
3.70346e-10
9.65015e-10
4.85533e-10
7.95283e-10
5.6933e-10
6.36073e-10
6.35002e-10
4.2218e-10
6.93389e-10
1.58454e-10
6.92057e-10
-6.99721e-11
6.17679e-10
-2.63807e-10
5.85342e-10
-4.4606e-10
5.92428e-10
-6.20716e-10
5.45781e-10
-7.81338e-10
4.6027e-10
-8.86156e-10
3.64253e-10
-9.62117e-10
3.10638e-10
-1.03187e-09
2.6627e-10
-1.06024e-09
1.75839e-10
-1.05153e-09
5.22818e-11
-9.97608e-10
-2.67477e-11
-9.39268e-10
-1.99428e-10
-9.04812e-10
-2.18826e-10
-7.77312e-10
-2.85524e-10
-6.0726e-10
-3.96558e-10
-3.42089e-10
-6.80601e-10
6.19832e-11
-8.93482e-10
3.98823e-10
-1.06644e-09
7.92997e-10
-1.00069e-09
8.74844e-10
-9.51557e-10
1.15954e-09
-7.29304e-10
1.38752e-09
-4.66023e-10
1.37711e-09
-5.04528e-10
1.44274e-09
-1.07285e-10
1.44664e-09
7.14964e-11
1.37068e-09
2.25905e-10
1.23689e-09
3.53778e-10
1.04623e-09
4.43967e-10
8.03387e-10
4.93821e-10
6.27337e-10
4.97397e-10
4.3951e-10
5.0966e-10
2.88593e-10
4.63009e-10
7.88764e-17
7.8656e-10
4.10877e-18
2.50654e-18
3.59931e-18
1.20037e-18
3.2244e-18
1.04376e-18
2.91189e-18
9.29658e-19
2.62556e-18
8.57045e-19
2.35027e-18
8.0907e-19
2.08497e-18
7.66185e-19
1.83315e-18
7.15565e-19
1.60357e-18
6.4898e-19
1.40476e-18
5.64962e-19
1.24243e-18
4.65916e-19
1.12113e-18
3.57507e-19
1.04095e-18
2.47387e-19
9.97501e-19
1.42944e-19
9.86529e-19
4.97665e-20
1.00433e-18
-2.90329e-20
1.04611e-18
-9.23374e-20
1.1044e-18
-1.39053e-19
1.17008e-18
-1.6789e-19
1.23659e-18
-1.78707e-19
1.30006e-18
-1.73118e-19
1.35658e-18
-1.53572e-19
1.4014e-18
-1.22346e-19
1.43025e-18
-8.17318e-20
1.44089e-18
-3.45564e-20
1.43327e-18
1.61432e-20
1.40848e-18
6.80297e-20
1.36715e-18
1.19874e-19
1.30878e-18
1.71095e-19
1.23265e-18
2.21019e-19
1.13915e-18
2.68549e-19
1.03021e-18
3.12387e-19
9.08426e-19
3.51437e-19
7.75916e-19
3.85022e-19
6.33881e-19
4.12823e-19
4.83139e-19
4.34754e-19
3.25004e-19
4.50922e-19
1.61776e-19
4.61625e-19
4.67164e-19
-2.84548e-11
2.02394e-10
-4.84046e-11
2.60367e-10
-9.61552e-11
3.38664e-10
-2.1555e-10
3.83448e-10
-3.93888e-10
3.88889e-10
-6.16081e-10
6.06207e-10
-1.08073e-09
1.31238e-09
-1.40924e-09
1.49364e-09
-1.68116e-09
1.62502e-09
-2.10053e-09
1.81091e-09
-2.24133e-09
1.47353e-09
-2.63766e-09
1.40613e-09
-2.78499e-09
1.55716e-09
-3.06209e-09
1.3485e-09
-3.25875e-09
1.0995e-09
-3.41129e-09
9.80765e-10
-3.37932e-09
3.90641e-10
-3.42254e-09
3.42448e-10
-3.46279e-09
1.52309e-10
-3.41627e-09
-1.7011e-10
-3.33147e-09
-5.96416e-10
-3.28737e-09
-1.88553e-10
-3.16816e-09
-3.95091e-10
-3.06053e-09
-5.38454e-10
-3.02708e-09
-9.361e-10
-2.77278e-09
-1.09471e-09
-2.24737e-09
-1.68212e-09
-1.8564e-09
-1.91936e-09
-1.603e-09
-1.56126e-09
-9.92523e-10
-1.88535e-09
-6.71806e-10
-1.79129e-09
-3.15176e-10
-1.6642e-09
-6.80279e-11
-1.56781e-09
8.91297e-11
-1.31204e-09
2.44728e-10
-1.07354e-09
4.94411e-10
-1.05564e-09
8.21792e-10
-6.89888e-10
9.36062e-10
-8.84838e-10
9.5455e-10
-3.80486e-10
1.17737e-09
-4.10709e-10
1.1724e-09
-5.89408e-10
1.28071e-09
1.98665e-10
1.21827e-09
4.32788e-10
1.10178e-09
6.02025e-10
9.52165e-10
7.18944e-10
7.12654e-10
8.74512e-10
4.97362e-10
9.08681e-10
3.20243e-10
8.69174e-10
1.18185e-10
8.19736e-10
-1.09655e-10
8.1318e-10
-2.90908e-10
7.7368e-10
-4.37313e-10
6.92185e-10
-5.90598e-10
6.13555e-10
-7.2996e-10
5.03616e-10
-7.98706e-10
3.79384e-10
-8.4109e-10
3.08655e-10
-8.39674e-10
1.74423e-10
-8.31263e-10
4.38698e-11
-8.13149e-10
-4.4862e-11
-7.95243e-10
-2.17335e-10
-7.297e-10
-2.84369e-10
-5.44686e-10
-4.70538e-10
-3.07742e-10
-6.33501e-10
-7.67654e-11
-9.11577e-10
2.24176e-10
-1.19442e-09
4.67655e-10
-1.30992e-09
7.52573e-10
-1.2856e-09
8.89357e-10
-1.08834e-09
1.09082e-09
-9.30766e-10
1.2256e-09
-6.008e-10
1.23635e-09
-5.15284e-10
1.29477e-09
-1.65705e-10
1.26414e-09
1.02132e-10
1.21733e-09
2.72717e-10
1.15903e-09
4.12071e-10
9.71333e-10
6.31668e-10
8.04948e-10
6.60206e-10
6.40234e-10
6.6211e-10
4.50697e-10
6.99196e-10
2.93834e-10
6.19872e-10
1.54258e-16
1.0804e-09
3.93952e-18
3.79254e-18
3.44319e-18
1.69403e-18
3.11078e-18
1.36918e-18
2.83959e-18
1.19136e-18
2.57758e-18
1.10808e-18
2.30738e-18
1.06781e-18
2.03435e-18
1.02988e-18
1.76656e-18
9.72635e-19
1.51955e-18
8.86137e-19
1.30571e-18
7.71277e-19
1.13402e-18
6.34131e-19
1.01101e-18
4.83832e-19
9.36502e-19
3.30774e-19
9.04324e-19
1.84592e-19
9.07729e-19
5.31596e-20
9.41026e-19
-5.79233e-20
9.99397e-19
-1.45669e-19
1.07556e-18
-2.08584e-19
1.15927e-18
-2.46063e-19
1.24218e-18
-2.58593e-19
1.31961e-18
-2.48625e-19
1.38781e-18
-2.20281e-19
1.44201e-18
-1.77511e-19
1.47743e-18
-1.22983e-19
1.49159e-18
-5.87757e-20
1.48516e-18
1.2473e-20
1.46033e-18
8.73644e-20
1.41837e-18
1.62458e-19
1.35871e-18
2.35046e-19
1.28018e-18
3.03412e-19
1.18299e-18
3.66608e-19
1.06926e-18
4.24077e-19
9.4201e-19
4.75359e-19
8.03717e-19
5.1996e-19
6.55813e-19
5.57382e-19
4.99306e-19
5.8727e-19
3.35707e-19
6.09542e-19
1.67315e-19
6.2435e-19
6.31868e-19
-7.91872e-11
2.8158e-10
-1.86165e-10
3.67345e-10
-2.84116e-10
4.36615e-10
-4.53294e-10
5.52626e-10
-8.43495e-10
7.79092e-10
-1.09182e-09
8.54531e-10
-1.37305e-09
1.59361e-09
-1.71884e-09
1.83943e-09
-1.86757e-09
1.77376e-09
-1.95162e-09
1.89496e-09
-2.08166e-09
1.60358e-09
-2.43011e-09
1.75458e-09
-2.63807e-09
1.76512e-09
-2.82383e-09
1.53426e-09
-2.93294e-09
1.20861e-09
-2.98484e-09
1.03267e-09
-2.93456e-09
3.40357e-10
-2.88616e-09
2.94049e-10
-3.04436e-09
3.10514e-10
-2.90818e-09
-3.06296e-10
-3.16068e-09
-3.43915e-10
-3.00062e-09
-3.48605e-10
-2.87434e-09
-5.21374e-10
-2.67971e-09
-7.33081e-10
-2.57837e-09
-1.03744e-09
-2.3036e-09
-1.36947e-09
-2.09888e-09
-1.88684e-09
-2.01296e-09
-2.00529e-09
-1.38525e-09
-2.18897e-09
-1.1251e-09
-2.14549e-09
-9.21038e-10
-1.99535e-09
-5.77254e-10
-2.00798e-09
-4.14734e-10
-1.73033e-09
-2.13553e-10
-1.51322e-09
4.12629e-11
-1.32836e-09
1.3861e-10
-1.15298e-09
4.39681e-10
-9.9096e-10
6.67081e-10
-1.11224e-09
8.25625e-10
-5.39031e-10
1.0234e-09
-6.08481e-10
9.19606e-10
-4.85619e-10
1.08492e-09
3.33532e-11
1.1199e-09
3.97809e-10
1.06214e-09
6.59776e-10
1.06441e-09
7.16676e-10
1.01891e-09
9.20014e-10
8.26902e-10
1.10069e-09
5.20773e-10
1.1753e-09
2.18573e-10
1.12193e-09
1.38287e-11
1.01792e-09
-1.46299e-10
9.33807e-10
-2.81081e-10
8.26967e-10
-3.60447e-10
6.92921e-10
-4.56923e-10
6.00092e-10
-5.7216e-10
4.94621e-10
-6.33865e-10
3.7036e-10
-6.68258e-10
2.08817e-10
-6.83786e-10
5.93979e-11
-6.63235e-10
-6.54133e-11
-6.30971e-10
-2.49599e-10
-5.4826e-10
-3.67079e-10
-4.13115e-10
-6.05682e-10
-1.94024e-10
-8.52591e-10
4.59699e-11
-1.15157e-09
3.11481e-10
-1.45993e-09
4.57013e-10
-1.45545e-09
5.27952e-10
-1.35654e-09
5.47229e-10
-1.10762e-09
6.57787e-10
-1.04132e-09
7.09286e-10
-6.52299e-10
8.45592e-10
-6.5159e-10
8.67802e-10
-1.87913e-10
9.35657e-10
3.42777e-11
9.75575e-10
2.328e-10
9.24988e-10
4.62658e-10
8.12516e-10
7.44141e-10
6.65756e-10
8.06966e-10
4.88614e-10
8.39254e-10
4.07857e-10
7.79953e-10
3.0471e-10
7.2302e-10
1.06533e-16
1.38511e-09
3.40605e-18
4.69969e-18
3.11885e-18
1.97735e-18
2.93344e-18
1.54775e-18
2.75659e-18
1.3606e-18
2.53732e-18
1.31964e-18
2.26945e-18
1.32766e-18
1.97711e-18
1.31876e-18
1.68007e-18
1.26364e-18
1.40469e-18
1.15577e-18
1.16856e-18
1.00172e-18
9.83719e-19
8.14649e-19
8.57955e-19
6.09836e-19
7.9032e-19
4.02144e-19
7.72891e-19
2.04928e-19
7.96646e-19
2.94125e-20
8.5328e-19
-1.16547e-19
9.36482e-19
-2.29051e-19
1.03808e-18
-3.06817e-19
1.14674e-18
-3.50452e-19
1.25215e-18
-3.61934e-19
1.34795e-18
-3.44784e-19
1.43058e-18
-3.0387e-19
1.49654e-18
-2.4404e-19
1.54164e-18
-1.69143e-19
1.56284e-18
-8.24814e-20
1.56005e-18
1.2196e-20
1.53542e-18
1.10479e-19
1.49096e-18
2.08009e-19
1.42707e-18
3.01391e-19
1.34338e-18
3.88587e-19
1.24046e-18
4.68676e-19
1.12054e-18
5.41285e-19
9.86611e-19
6.06074e-19
8.41139e-19
6.62501e-19
6.85701e-19
7.09917e-19
5.21578e-19
7.47822e-19
3.50515e-19
7.76042e-19
1.74834e-19
7.94687e-19
8.03977e-19
-3.65359e-11
3.18116e-10
-8.29441e-11
4.13753e-10
-2.47457e-10
6.01127e-10
-4.03662e-10
7.08831e-10
-7.7626e-10
1.15169e-09
-1.3611e-09
1.43937e-09
-1.32009e-09
1.55261e-09
-1.38961e-09
1.90895e-09
-1.5786e-09
1.96275e-09
-1.67575e-09
1.99211e-09
-1.92952e-09
1.85734e-09
-2.10606e-09
1.93112e-09
-2.2222e-09
1.88126e-09
-2.3391e-09
1.65116e-09
-2.35351e-09
1.22302e-09
-2.42272e-09
1.10188e-09
-2.71858e-09
6.36218e-10
-2.798e-09
3.73473e-10
-2.77291e-09
2.85426e-10
-2.69499e-09
-3.84225e-10
-2.66666e-09
-3.7224e-10
-2.62417e-09
-3.91096e-10
-2.61897e-09
-5.26574e-10
-2.52721e-09
-8.24834e-10
-2.35066e-09
-1.214e-09
-2.08113e-09
-1.639e-09
-1.91281e-09
-2.05516e-09
-1.69163e-09
-2.22647e-09
-1.54783e-09
-2.33278e-09
-1.395e-09
-2.29833e-09
-1.02048e-09
-2.36987e-09
-9.08935e-10
-2.11953e-09
-8.08677e-10
-1.83059e-09
-6.48672e-10
-1.67323e-09
-4.41115e-10
-1.53592e-09
-2.30869e-10
-1.36323e-09
1.06541e-10
-1.32837e-09
3.13012e-10
-1.31871e-09
5.80818e-10
-8.06839e-10
7.20187e-10
-7.4785e-10
7.37072e-10
-5.02505e-10
8.32202e-10
-6.17768e-11
9.48564e-10
2.81448e-10
1.018e-09
5.90339e-10
1.09084e-09
6.43836e-10
9.81026e-10
1.02983e-09
7.78603e-10
1.30311e-09
5.95534e-10
1.35837e-09
3.60991e-10
1.35647e-09
1.39076e-10
1.23984e-09
-9.29078e-12
1.08217e-09
-1.19926e-10
9.37602e-10
-2.28331e-10
8.01325e-10
-2.93581e-10
6.65341e-10
-3.51249e-10
5.5229e-10
-4.05969e-10
4.2508e-10
-4.58363e-10
2.61211e-10
-5.02578e-10
1.03613e-10
-4.98348e-10
-6.96415e-11
-4.94063e-10
-2.53883e-10
-4.39602e-10
-4.21538e-10
-3.71345e-10
-6.73938e-10
-2.29516e-10
-9.94419e-10
2.64993e-11
-1.40759e-09
1.92554e-10
-1.62599e-09
2.61749e-10
-1.52465e-09
2.24588e-10
-1.31938e-09
2.34929e-10
-1.11796e-09
2.12072e-10
-1.01847e-09
3.30389e-10
-7.70615e-10
3.66871e-10
-6.88071e-10
4.27191e-10
-2.48233e-10
5.04442e-10
-4.29723e-11
5.59097e-10
1.78145e-10
6.01022e-10
4.20733e-10
5.68998e-10
7.76166e-10
5.05017e-10
8.70948e-10
5.09933e-10
8.3434e-10
5.11912e-10
7.77975e-10
3.71838e-10
8.63093e-10
-3.10171e-16
1.75694e-09
2.73467e-18
5.75966e-18
2.68976e-18
2.01903e-18
2.74677e-18
1.48732e-18
2.71585e-18
1.38887e-18
2.54534e-18
1.48806e-18
2.26055e-18
1.60842e-18
1.92199e-18
1.65972e-18
1.5722e-18
1.61237e-18
1.25064e-18
1.47392e-18
9.81488e-19
1.26405e-18
7.78906e-19
1.00802e-18
6.50263e-19
7.31095e-19
5.93104e-19
4.54826e-19
5.97376e-19
1.96612e-19
6.50687e-19
-2.94517e-20
7.40776e-19
-2.13689e-19
8.58717e-19
-3.51793e-19
9.94446e-19
-4.43383e-19
1.13526e-18
-4.90455e-19
1.2693e-18
-4.96321e-19
1.38886e-18
-4.6584e-19
1.49041e-18
-4.05466e-19
1.57144e-18
-3.22064e-19
1.6283e-18
-2.21631e-19
1.65752e-18
-1.09147e-19
1.65833e-18
1.07728e-20
1.63295e-18
1.33471e-19
1.58434e-18
2.54507e-19
1.51427e-18
3.70267e-19
1.42346e-18
4.78354e-19
1.31307e-18
5.77487e-19
1.18533e-18
6.67022e-19
1.04304e-18
7.46458e-19
8.88556e-19
8.15182e-19
7.23606e-19
8.72558e-19
5.49797e-19
9.18166e-19
3.69161e-19
9.51961e-19
1.84123e-19
9.74185e-19
9.85181e-19
-3.26321e-10
6.44437e-10
-4.93078e-10
5.80509e-10
-5.72961e-10
6.81011e-10
-7.21407e-10
8.57278e-10
-6.266e-10
1.05689e-09
-8.67784e-10
1.68056e-09
-1.19559e-09
1.88041e-09
-1.33558e-09
2.04895e-09
-1.41398e-09
2.04115e-09
-1.47785e-09
2.05598e-09
-1.78408e-09
2.16358e-09
-2.00967e-09
2.15671e-09
-2.22311e-09
2.0947e-09
-2.37185e-09
1.7999e-09
-2.38815e-09
1.23932e-09
-2.30942e-09
1.02314e-09
-2.43615e-09
7.62946e-10
-2.5103e-09
4.47628e-10
-2.46075e-09
2.35877e-10
-2.58288e-09
-2.62096e-10
-2.48356e-09
-4.71564e-10
-2.43622e-09
-4.38433e-10
-2.32757e-09
-6.35222e-10
-2.31254e-09
-8.39871e-10
-2.07127e-09
-1.45526e-09
-1.93566e-09
-1.77461e-09
-1.94372e-09
-2.0471e-09
-1.8358e-09
-2.33439e-09
-1.69949e-09
-2.46909e-09
-1.46293e-09
-2.53489e-09
-1.32323e-09
-2.50957e-09
-1.18611e-09
-2.25665e-09
-1.02881e-09
-1.98788e-09
-9.11696e-10
-1.79035e-09
-7.25029e-10
-1.72258e-09
-4.98075e-10
-1.59019e-09
-3.53872e-10
-1.47258e-09
-2.9819e-10
-1.3744e-09
9.39746e-11
-1.199e-09
3.65929e-10
-1.0198e-09
4.59885e-10
-5.96461e-10
5.30682e-10
-1.32573e-10
6.94253e-10
1.17878e-10
8.78358e-10
4.06234e-10
9.18122e-10
6.04072e-10
8.17867e-10
1.13008e-09
7.33939e-10
1.38704e-09
6.28477e-10
1.46383e-09
5.06745e-10
1.47821e-09
3.42937e-10
1.40365e-09
1.63991e-10
1.26112e-09
4.32324e-11
1.05836e-09
-6.22902e-11
9.06848e-10
-1.53425e-10
7.56475e-10
-2.12548e-10
6.11413e-10
-2.55076e-10
4.67607e-10
-3.25621e-10
3.31757e-10
-3.7803e-10
1.56024e-10
-4.18711e-10
-2.89582e-11
-4.19413e-10
-2.53179e-10
-3.92187e-10
-4.48762e-10
-3.39155e-10
-7.26969e-10
-2.10047e-10
-1.12353e-09
-7.99013e-11
-1.53773e-09
-1.08123e-10
-1.59777e-09
-1.01923e-10
-1.53085e-09
-1.48606e-11
-1.40645e-09
-1.3877e-11
-1.11895e-09
-9.80861e-11
-9.3426e-10
-3.29891e-11
-8.35712e-10
-9.43142e-11
-6.26746e-10
3.30021e-11
-3.75549e-10
1.13615e-10
-1.23585e-10
1.88679e-10
1.03081e-10
1.35308e-10
4.74104e-10
1.26729e-10
7.84745e-10
2.2519e-10
7.72488e-10
2.07373e-10
8.52158e-10
2.28226e-10
7.57122e-10
3.28554e-10
7.62765e-10
-5.58798e-16
2.0855e-09
1.6344e-18
6.8195e-18
2.15855e-18
1.49435e-18
2.64879e-18
9.96812e-19
2.81518e-18
1.22186e-18
2.6657e-18
1.63487e-18
2.31185e-18
1.9551e-18
1.87464e-18
2.09552e-18
1.43374e-18
2.05325e-18
1.04078e-18
1.8639e-18
7.25458e-19
1.57193e-18
5.01977e-19
1.22106e-18
3.73994e-19
8.49365e-19
3.3489e-19
4.8659e-19
3.71312e-19
1.54643e-19
4.6645e-19
-1.30123e-19
6.02672e-19
-3.57044e-19
7.67127e-19
-5.2164e-19
9.47373e-19
-6.24829e-19
1.12939e-18
-6.70888e-19
1.29978e-18
-6.65456e-19
1.44924e-18
-6.15601e-19
1.57381e-18
-5.29887e-19
1.67187e-18
-4.17325e-19
1.74078e-18
-2.86075e-19
1.77744e-18
-1.42916e-19
1.78103e-18
6.49388e-21
1.75399e-18
1.57181e-19
1.7001e-18
3.04723e-19
1.62236e-18
4.45433e-19
1.5226e-18
5.76605e-19
1.4026e-18
6.96506e-19
1.26477e-18
8.04108e-19
1.11176e-18
8.98711e-19
9.45932e-19
9.79746e-19
7.69214e-19
1.0468e-18
5.83591e-19
1.09978e-18
3.91386e-19
1.13893e-18
1.95119e-19
1.16471e-18
1.17756e-18
-9.18448e-11
7.36281e-10
-3.82785e-10
8.7145e-10
-6.20746e-10
9.18973e-10
-8.68778e-10
1.10531e-09
-1.28297e-09
1.47108e-09
-1.33857e-09
1.73615e-09
-1.28407e-09
1.82591e-09
-1.26345e-09
2.02833e-09
-1.38074e-09
2.15844e-09
-1.44602e-09
2.12126e-09
-1.50442e-09
2.22198e-09
-1.59527e-09
2.24757e-09
-1.70135e-09
2.20078e-09
-1.70349e-09
1.80205e-09
-1.87352e-09
1.40935e-09
-1.94696e-09
1.09659e-09
-2.03341e-09
8.49394e-10
-2.12735e-09
5.41574e-10
-2.15752e-09
2.66043e-10
-2.2335e-09
-1.86113e-10
-2.31182e-09
-3.93248e-10
-2.248e-09
-5.02249e-10
-2.19371e-09
-6.8951e-10
-2.01487e-09
-1.01871e-09
-1.90648e-09
-1.56366e-09
-1.95704e-09
-1.72405e-09
-1.86251e-09
-2.14163e-09
-1.7435e-09
-2.4534e-09
-1.62649e-09
-2.5861e-09
-1.52786e-09
-2.63352e-09
-1.45009e-09
-2.58734e-09
-1.38431e-09
-2.32243e-09
-1.24211e-09
-2.13009e-09
-1.02323e-09
-2.00922e-09
-8.35816e-10
-1.91e-09
-6.7557e-10
-1.75044e-09
-5.09333e-10
-1.63881e-09
-3.83513e-10
-1.50022e-09
-1.83664e-10
-1.39885e-09
1.4697e-11
-1.21816e-09
1.59781e-10
-7.41543e-10
2.82969e-10
-2.5576e-10
4.64445e-10
-6.35986e-11
5.96749e-10
2.73931e-10
6.58178e-10
5.42644e-10
6.62407e-10
1.12585e-09
5.90085e-10
1.45936e-09
4.76405e-10
1.57751e-09
4.22606e-10
1.532e-09
3.78763e-10
1.44749e-09
3.11036e-10
1.32885e-09
1.92967e-10
1.17643e-09
9.39651e-11
1.00585e-09
6.58948e-12
8.43851e-10
-5.7595e-11
6.75598e-10
-1.23332e-10
5.33345e-10
-1.97026e-10
4.05451e-10
-2.87548e-10
2.46548e-10
-3.6781e-10
5.13056e-11
-4.21955e-10
-1.99031e-10
-4.27223e-10
-4.43493e-10
-3.97504e-10
-7.56688e-10
-3.30831e-10
-1.1902e-09
-3.94531e-10
-1.47403e-09
-5.79652e-10
-1.41265e-09
-6.47366e-10
-1.46314e-09
-6.21699e-10
-1.43212e-09
-5.24364e-10
-1.21628e-09
-5.4797e-10
-9.10653e-10
-5.17218e-10
-8.66464e-10
-5.47625e-10
-5.96338e-10
-4.9873e-10
-4.24444e-10
-4.4716e-10
-1.75157e-10
-3.78614e-10
3.45339e-11
-2.27254e-10
3.22743e-10
-6.03666e-11
6.17857e-10
3.18522e-11
6.80268e-10
8.86568e-11
7.95352e-10
2.02644e-10
6.43134e-10
2.85152e-10
6.80256e-10
3.00473e-18
2.37065e-09
-2.05464e-19
7.05059e-18
1.66146e-18
-3.7151e-19
2.87425e-18
-2.19522e-19
3.22824e-18
8.6206e-19
2.98593e-18
1.86443e-18
2.45226e-18
2.47749e-18
1.83237e-18
2.70502e-18
1.2444e-18
2.63298e-18
7.48806e-19
2.35105e-18
3.7459e-19
1.93744e-18
1.30282e-19
1.45726e-18
1.12193e-20
9.6223e-19
2.94237e-21
4.90701e-19
8.6547e-20
6.94767e-20
2.39528e-19
-2.83177e-19
4.38076e-19
-5.569e-19
6.63938e-19
-7.48163e-19
9.01314e-19
-8.59864e-19
1.13482e-18
-8.99422e-19
1.34964e-18
-8.75937e-19
1.53495e-18
-7.99612e-19
1.68637e-18
-6.81634e-19
1.80312e-18
-5.33267e-19
1.88394e-18
-3.6471e-19
1.92685e-18
-1.84496e-19
1.93171e-18
4.49996e-22
1.90153e-18
1.84445e-19
1.84081e-18
3.62733e-19
1.75353e-18
5.31416e-19
1.6425e-18
6.87544e-19
1.5102e-18
8.29148e-19
1.35937e-18
9.55072e-19
1.1928e-18
1.0647e-18
1.01299e-18
1.15776e-18
8.22194e-19
1.23426e-18
6.22742e-19
1.29452e-18
4.17164e-19
1.33911e-18
2.07962e-19
1.36863e-18
1.38355e-18
-1.30791e-10
8.67073e-10
-2.69547e-10
1.01021e-09
-4.47649e-10
1.09708e-09
-6.01768e-10
1.25943e-09
-8.14508e-10
1.68382e-09
-9.36622e-10
1.85827e-09
-1.09448e-09
1.98377e-09
-1.12941e-09
2.06326e-09
-1.17071e-09
2.19974e-09
-1.27717e-09
2.22773e-09
-1.35904e-09
2.30385e-09
-1.4331e-09
2.32163e-09
-1.57671e-09
2.34439e-09
-1.76571e-09
1.99105e-09
-1.89203e-09
1.53566e-09
-1.87946e-09
1.08401e-09
-1.79327e-09
7.63207e-10
-1.77499e-09
5.23298e-10
-1.85498e-09
3.46031e-10
-1.98173e-09
-5.93665e-11
-2.01337e-09
-3.61608e-10
-1.9573e-09
-5.5832e-10
-1.93731e-09
-7.095e-10
-1.72962e-09
-1.22639e-09
-1.84568e-09
-1.44761e-09
-1.87046e-09
-1.69927e-09
-1.77863e-09
-2.23346e-09
-1.73829e-09
-2.49375e-09
-1.68363e-09
-2.64075e-09
-1.62722e-09
-2.68994e-09
-1.55808e-09
-2.65648e-09
-1.43237e-09
-2.44814e-09
-1.22271e-09
-2.33975e-09
-1.0401e-09
-2.19184e-09
-9.24552e-10
-2.02556e-09
-8.16904e-10
-1.85809e-09
-7.36994e-10
-1.71873e-09
-6.6179e-10
-1.57542e-09
-6.20226e-10
-1.44042e-09
-6.47198e-10
-1.19119e-09
-4.75959e-10
-9.12781e-10
-1.23673e-10
-6.08045e-10
8.74349e-11
-2.74706e-10
1.77214e-10
1.84152e-10
1.44436e-10
5.75421e-10
1.14746e-10
1.15554e-09
2.46725e-10
1.32738e-09
3.38402e-10
1.48584e-09
3.86779e-10
1.48363e-09
4.03704e-10
1.43056e-09
3.83344e-10
1.34921e-09
3.29869e-10
1.22991e-09
2.51418e-10
1.0843e-09
1.64379e-10
9.3089e-10
9.6942e-11
7.43035e-10
6.03901e-13
6.29684e-10
-7.98052e-11
4.85862e-10
-1.87405e-10
3.54149e-10
-2.72558e-10
1.3646e-10
-4.10834e-10
-6.07539e-11
-4.96883e-10
-3.57443e-10
-5.30815e-10
-7.22757e-10
-6.11736e-10
-1.10928e-09
-8.69784e-10
-1.21599e-09
-9.68272e-10
-1.31416e-09
-1.03725e-09
-1.39417e-09
-1.16746e-09
-1.30191e-09
-1.15313e-09
-1.23061e-09
-1.13589e-09
-9.27886e-10
-1.19509e-09
-8.07272e-10
-1.12294e-09
-6.68491e-10
-1.01636e-09
-5.31026e-10
-8.80228e-10
-3.11286e-10
-7.83842e-10
-6.18547e-11
-6.58771e-10
1.97671e-10
-4.56946e-10
4.16031e-10
-3.4686e-10
5.70181e-10
-1.25054e-10
5.73545e-10
4.6786e-11
4.71293e-10
9.11974e-11
6.35845e-10
7.18379e-16
2.46185e-09
-2.65181e-18
8.70922e-18
1.81377e-18
-4.83918e-18
3.95614e-18
-2.37288e-18
4.23062e-18
5.82987e-19
3.59899e-18
2.4737e-18
2.67979e-18
3.38125e-18
1.76033e-18
3.61625e-18
9.62466e-19
3.42444e-18
3.35204e-19
2.97164e-18
-1.05592e-19
2.37346e-18
-3.64751e-19
1.71456e-18
-4.6031e-19
1.05829e-18
-4.18282e-19
4.49971e-19
-2.66107e-19
-7.95382e-20
-3.41951e-20
-5.10615e-19
2.46813e-19
-8.34459e-19
5.52237e-19
-1.05053e-18
8.61756e-19
-1.16518e-18
1.15831e-18
-1.18979e-18
1.42596e-18
-1.13813e-18
1.65293e-18
-1.02486e-18
1.83474e-18
-8.64606e-19
1.97168e-18
-6.71185e-19
2.06415e-18
-4.56824e-19
2.11179e-18
-2.31776e-19
2.11571e-18
-4.35446e-21
2.07982e-18
2.18754e-19
2.0095e-18
4.32165e-19
1.90966e-18
6.31658e-19
1.7841e-18
8.14207e-19
1.63613e-18
9.77972e-19
1.469e-18
1.12212e-18
1.28585e-18
1.24649e-18
1.08949e-18
1.35137e-18
8.82456e-19
1.43727e-18
6.67325e-19
1.50494e-18
4.46688e-19
1.55516e-18
2.22881e-19
1.58861e-18
1.60572e-18
-1.70644e-10
1.03772e-09
-3.15476e-10
1.15504e-09
-4.68229e-10
1.24983e-09
-6.06352e-10
1.39755e-09
-6.70463e-10
1.74794e-09
-7.86595e-10
1.9744e-09
-9.4386e-10
2.14104e-09
-1.01649e-09
2.13589e-09
-9.96348e-10
2.1796e-09
-1.04553e-09
2.27691e-09
-1.17459e-09
2.4329e-09
-1.30335e-09
2.45039e-09
-1.38484e-09
2.42589e-09
-1.48129e-09
2.08749e-09
-1.51028e-09
1.56466e-09
-1.53389e-09
1.10762e-09
-1.52394e-09
7.53264e-10
-1.51604e-09
5.15399e-10
-1.5407e-09
3.70687e-10
-1.7047e-09
1.0463e-10
-1.72009e-09
-3.46213e-10
-1.65728e-09
-6.21133e-10
-1.65782e-09
-7.08958e-10
-1.76753e-09
-1.11668e-09
-1.89481e-09
-1.32032e-09
-1.77958e-09
-1.8145e-09
-1.76766e-09
-2.24538e-09
-1.76073e-09
-2.50067e-09
-1.71241e-09
-2.68907e-09
-1.66701e-09
-2.73534e-09
-1.59604e-09
-2.72745e-09
-1.48175e-09
-2.56243e-09
-1.37445e-09
-2.44706e-09
-1.24888e-09
-2.31741e-09
-1.17127e-09
-2.10317e-09
-1.11691e-09
-1.91245e-09
-1.10439e-09
-1.73124e-09
-1.07144e-09
-1.60838e-09
-9.97361e-10
-1.51449e-09
-8.93722e-10
-1.29483e-09
-8.15276e-10
-9.91226e-10
-6.80038e-10
-7.43282e-10
-5.92799e-10
-3.61945e-10
-5.09732e-10
1.01085e-10
-2.6315e-10
3.28839e-10
2.26151e-11
8.69777e-10
2.04764e-10
1.14523e-09
2.96494e-10
1.39411e-09
3.47626e-10
1.4325e-09
3.89637e-10
1.38856e-09
4.21456e-10
1.31739e-09
4.43209e-10
1.20815e-09
4.35419e-10
1.09209e-09
3.76284e-10
9.90026e-10
2.96917e-10
8.22403e-10
1.87131e-10
7.39471e-10
8.39118e-11
5.89081e-10
-1.45324e-11
4.52594e-10
-1.49457e-10
2.71385e-10
-3.28021e-10
1.17811e-10
-5.42204e-10
-1.43261e-10
-7.97701e-10
-4.67261e-10
-1.05195e-09
-8.5503e-10
-1.14735e-09
-1.12059e-09
-1.29446e-09
-1.16705e-09
-1.48041e-09
-1.20822e-09
-1.51881e-09
-1.26351e-09
-1.44363e-09
-1.30579e-09
-1.42371e-09
-9.47804e-10
-1.35714e-09
-8.7384e-10
-1.30353e-09
-7.22103e-10
-1.34533e-09
-4.89232e-10
-1.31433e-09
-3.42288e-10
-1.24876e-09
-1.27428e-10
-1.06479e-09
1.36974e-11
-8.01547e-10
1.52788e-10
-6.13672e-10
3.82304e-10
-4.78533e-10
4.38405e-10
-4.92247e-10
4.85006e-10
-5.30425e-10
6.74022e-10
1.16674e-16
1.93142e-09
-8.00254e-18
-2.31266e-18
4.28015e-18
-1.71281e-17
6.91211e-18
-5.01431e-18
6.12133e-18
1.39199e-18
4.50655e-18
4.08478e-18
2.91479e-18
4.96759e-18
1.56851e-18
4.9596e-18
5.09673e-19
4.47909e-18
-2.62979e-19
3.7397e-18
-7.64487e-19
2.87324e-18
-1.02103e-18
1.97288e-18
-1.06863e-18
1.10877e-18
-9.47791e-19
3.30871e-19
-6.97184e-19
-3.2776e-19
-3.58039e-19
-8.4752e-19
3.07444e-20
-1.22224e-18
4.37582e-19
-1.45661e-18
8.37149e-19
-1.56343e-18
1.20996e-18
-1.55964e-18
1.53924e-18
-1.46468e-18
1.81318e-18
-1.29885e-18
2.02816e-18
-1.08149e-18
2.18604e-18
-8.29824e-19
2.2892e-18
-5.58519e-19
2.33921e-18
-2.79639e-19
2.33882e-18
-2.79608e-21
2.29323e-18
2.645e-19
2.20899e-18
5.16461e-19
2.0922e-18
7.48829e-19
1.94787e-18
9.58842e-19
1.78027e-18
1.14516e-18
1.59337e-18
1.3076e-18