/*--------------------------------*- C++ -*----------------------------------*\
  =========                 |
  \\      /  F ield         | OpenFOAM: The Open Source CFD Toolbox
   \\    /   O peration     | Website:  https://openfoam.org
    \\  /    A nd           | Version:  6
     \\/     M anipulation  |
\*---------------------------------------------------------------------------*/
FoamFile
{
    version     2.0;
    format      ascii;
    class       volScalarField;
    location    "4800";
    object      T;
}
// * * * * * * * * * * * * * * * * * * * * * * * * * * * * * * * * * * * * * //

dimensions      [0 0 0 1 0 0 0];

internalField   nonuniform List<scalar> 
4800
(
552.48
552.34
552.201
552.063
551.926
551.792
551.66
551.531
551.407
551.289
551.181
551.083
550.995
550.919
550.853
550.796
550.748
550.707
550.672
550.641
550.613
550.588
550.564
550.542
550.52
550.498
550.476
550.453
550.429
550.403
550.376
550.347
550.316
550.282
550.246
550.207
550.164
550.118
550.069
550.015
549.956
549.892
549.822
549.745
549.662
549.572
549.476
549.374
549.268
549.157
549.043
548.926
548.808
548.689
548.569
548.449
548.33
548.212
548.095
547.98
547.866
547.753
547.641
547.531
547.421
547.312
547.202
547.091
546.977
546.86
546.738
546.611
546.478
546.339
546.194
546.045
545.891
545.733
545.574
545.414
545.256
545.1
544.95
544.803
544.661
544.523
544.387
544.255
544.126
543.999
543.874
543.751
543.629
543.509
543.39
543.272
543.155
543.04
542.924
542.81
542.696
542.583
542.47
542.358
542.247
542.135
542.025
541.914
541.804
541.694
541.584
541.475
541.366
541.257
541.148
541.039
540.93
540.821
540.713
540.604
552.48
552.34
552.201
552.062
551.926
551.791
551.659
551.53
551.406
551.29
551.183
551.086
551
550.924
550.859
550.803
550.755
550.714
550.679
550.648
550.62
550.595
550.571
550.549
550.527
550.505
550.483
550.46
550.436
550.41
550.382
550.353
550.321
550.286
550.249
550.21
550.166
550.12
550.07
550.016
549.957
549.892
549.822
549.745
549.662
549.573
549.477
549.376
549.27
549.16
549.046
548.93
548.812
548.693
548.574
548.454
548.335
548.217
548.1
547.985
547.87
547.757
547.645
547.534
547.423
547.313
547.203
547.09
546.975
546.857
546.734
546.607
546.473
546.335
546.19
546.04
545.886
545.728
545.569
545.409
545.251
545.096
544.945
544.799
544.657
544.519
544.385
544.253
544.124
543.997
543.872
543.75
543.628
543.508
543.389
543.271
543.155
543.039
542.924
542.809
542.696
542.582
542.47
542.358
542.246
542.135
542.024
541.914
541.804
541.694
541.584
541.475
541.366
541.257
541.148
541.039
540.93
540.821
540.713
540.604
552.48
552.34
552.201
552.062
551.925
551.79
551.658
551.529
551.408
551.293
551.189
551.094
551.009
550.935
550.87
550.815
550.768
550.727
550.693
550.662
550.634
550.609
550.586
550.563
550.541
550.519
550.497
550.474
550.449
550.422
550.394
550.363
550.33
550.294
550.255
550.214
550.17
550.123
550.072
550.017
549.957
549.893
549.822
549.746
549.664
549.575
549.48
549.38
549.274
549.165
549.052
548.937
548.82
548.702
548.583
548.464
548.345
548.227
548.11
547.994
547.878
547.764
547.65
547.538
547.426
547.314
547.201
547.086
546.968
546.848
546.724
546.595
546.462
546.323
546.178
546.029
545.875
545.717
545.558
545.399
545.241
545.086
544.936
544.791
544.65
544.513
544.379
544.248
544.12
543.993
543.869
543.747
543.626
543.506
543.387
543.27
543.153
543.037
542.922
542.808
542.694
542.581
542.469
542.357
542.246
542.134
542.024
541.913
541.803
541.693
541.584
541.474
541.365
541.256
541.147
541.039
540.93
540.821
540.713
540.604
552.48
552.341
552.201
552.063
551.926
551.791
551.659
551.533
551.413
551.301
551.199
551.106
551.023
550.95
550.887
550.833
550.786
550.746
550.712
550.681
550.654
550.629
550.605
550.583
550.561
550.539
550.517
550.493
550.467
550.439
550.409
550.377
550.341
550.304
550.263
550.22
550.174
550.126
550.073
550.017
549.957
549.892
549.822
549.747
549.665
549.577
549.484
549.385
549.281
549.173
549.061
548.947
548.831
548.714
548.596
548.477
548.359
548.241
548.123
548.005
547.888
547.772
547.657
547.542
547.427
547.311
547.194
547.076
546.955
546.832
546.706
546.576
546.441
546.302
546.158
546.01
545.856
545.7
545.542
545.383
545.226
545.072
544.923
544.779
544.639
544.503
544.37
544.24
544.113
543.988
543.864
543.742
543.622
543.502
543.384
543.267
543.151
543.035
542.92
542.806
542.693
542.58
542.468
542.356
542.244
542.133
542.023
541.912
541.802
541.693
541.583
541.474
541.365
541.256
541.147
541.038
540.93
540.821
540.713
540.604
552.48
552.341
552.202
552.063
551.927
551.793
551.663
551.538
551.421
551.312
551.213
551.122
551.04
550.969
550.908
550.855
550.809
550.77
550.736
550.706
550.679
550.654
550.631
550.608
550.587
550.565
550.542
550.517
550.49
550.461
550.428
550.393
550.356
550.315
550.273
550.227
550.179
550.129
550.075
550.018
549.956
549.891
549.821
549.746
549.666
549.58
549.488
549.39
549.288
549.181
549.072
548.959
548.845
548.729
548.612
548.494
548.375
548.257
548.138
548.018
547.899
547.781
547.662
547.544
547.424
547.304
547.182
547.059
546.934
546.808
546.679
546.547
546.412
546.273
546.13
545.982
545.83
545.675
545.518
545.362
545.206
545.052
544.904
544.762
544.624
544.49
544.359
544.23
544.104
543.98
543.858
543.737
543.617
543.498
543.38
543.263
543.147
543.032
542.918
542.804
542.691
542.578
542.466
542.354
542.243
542.132
542.021
541.911
541.801
541.692
541.582
541.473
541.364
541.255
541.147
541.038
540.929
540.821
540.713
540.604
552.48
552.341
552.203
552.065
551.93
551.797
551.669
551.548
551.434
551.328
551.23
551.141
551.062
550.993
550.933
550.881
550.836
550.798
550.764
550.735
550.708
550.683
550.66
550.638
550.617
550.595
550.571
550.545
550.517
550.486
550.451
550.414
550.373
550.33
550.284
550.236
550.186
550.133
550.077
550.018
549.955
549.889
549.819
549.745
549.666
549.581
549.491
549.395
549.295
549.191
549.083
548.973
548.86
548.746
548.63
548.512
548.394
548.274
548.154
548.033
547.911
547.789
547.666
547.543
547.418
547.293
547.166
547.038
546.908
546.778
546.646
546.512
546.376
546.237
546.094
545.947
545.796
545.643
545.488
545.333
545.179
545.026
544.88
544.74
544.605
544.473
544.345
544.218
544.094
543.971
543.85
543.73
543.611
543.493
543.376
543.259
543.144
543.029
542.914
542.801
542.688
542.575
542.463
542.352
542.241
542.13
542.02
541.91
541.8
541.691
541.581
541.472
541.363
541.255
541.146
541.038
540.929
540.821
540.712
540.604
552.48
552.342
552.204
552.068
551.935
551.805
551.68
551.561
551.45
551.346
551.251
551.164
551.087
551.019
550.961
550.91
550.867
550.829
550.796
550.767
550.741
550.717
550.694
550.673
550.651
550.629
550.604
550.578
550.548
550.514
550.478
550.437
550.394
550.348
550.299
550.248
550.194
550.138
550.079
550.018
549.954
549.887
549.817
549.743
549.664
549.581
549.493
549.399
549.302
549.2
549.095
548.987
548.877
548.764
548.649
548.532
548.413
548.293
548.171
548.047
547.922
547.796
547.669
547.54
547.409
547.278
547.145
547.013
546.879
546.744
546.609
546.473
546.335
546.195
546.051
545.905
545.756
545.604
545.45
545.297
545.145
544.993
544.85
544.713
544.582
544.454
544.328
544.204
544.082
543.961
543.841
543.722
543.604
543.487
543.37
543.254
543.139
543.024
542.911
542.797
542.685
542.572
542.461
542.35
542.239
542.128
542.018
541.908
541.799
541.689
541.58
541.471
541.362
541.254
541.145
541.037
540.929
540.82
540.712
540.604
552.481
552.344
552.208
552.073
551.942
551.815
551.693
551.577
551.469
551.368
551.275
551.191
551.116
551.05
550.993
550.943
550.901
550.864
550.832
550.803
550.778
550.754
550.732
550.711
550.689
550.667
550.642
550.614
550.583
550.548
550.508
550.465
550.419
550.369
550.317
550.263
550.205
550.146
550.084
550.02
549.954
549.886
549.814
549.74
549.662
549.58
549.493
549.403
549.308
549.209
549.107
549.002
548.894
548.783
548.669
548.553
548.434
548.312
548.189
548.062
547.934
547.803
547.67
547.535
547.398
547.261
547.123
546.985
546.847
546.709
546.57
546.431
546.291
546.149
546.005
545.859
545.71
545.559
545.406
545.254
545.102
544.951
544.811
544.68
544.555
544.431
544.309
544.189
544.069
543.95
543.831
543.713
543.596
543.479
543.364
543.248
543.134
543.02
542.906
542.793
542.681
542.569
542.458
542.347
542.236
542.126
542.016
541.906
541.797
541.688
541.579
541.47
541.361
541.253
541.145
541.036
540.928
540.82
540.712
540.604
552.482
552.348
552.214
552.082
551.954
551.829
551.71
551.597
551.492
551.393
551.303
551.221
551.148
551.083
551.028
550.979
550.938
550.902
550.871
550.843
550.818
550.795
550.774
550.753
550.731
550.708
550.683
550.655
550.622
550.585
550.543
550.498
550.448
550.396
550.34
550.282
550.221
550.157
550.092
550.025
549.956
549.885
549.813
549.738
549.66
549.578
549.494
549.406
549.314
549.219
549.12
549.018
548.912
548.803
548.69
548.575
548.456
548.333
548.208
548.078
547.946
547.81
547.672
547.531
547.388
547.244
547.101
546.958
546.815
546.673
546.531
546.389
546.246
546.102
545.957
545.81
545.661
545.51
545.358
545.205
545.051
544.893
544.759
544.639
544.523
544.407
544.289
544.172
544.054
543.937
543.82
543.704
543.587
543.472
543.356
543.242
543.128
543.014
542.901
542.789
542.677
542.565
542.454
542.343
542.233
542.123
542.013
541.904
541.795
541.686
541.577
541.469
541.36
541.252
541.144
541.036
540.928
540.82
540.712
540.604
552.484
552.352
552.221
552.093
551.967
551.846
551.73
551.621
551.518
551.422
551.334
551.254
551.182
551.12
551.066
551.019
550.979
550.944
550.913
550.886
550.862
550.84
550.819
550.798
550.777
550.754
550.728
550.699
550.665
550.627
550.583
550.535
550.483
550.427
550.367
550.305
550.24
550.173
550.104
550.033
549.961
549.888
549.814
549.737
549.659
549.579
549.496
549.411
549.321
549.229
549.133
549.034
548.931
548.824
548.713
548.598
548.479
548.356
548.228
548.097
547.96
547.82
547.676
547.529
547.381
547.232
547.083
546.935
546.788
546.642
546.496
546.351
546.205
546.058
545.911
545.762
545.612
545.46
545.309
545.156
544.992
544.805
544.686
544.588
544.487
544.38
544.269
544.155
544.04
543.924
543.809
543.693
543.578
543.463
543.349
543.235
543.121
543.008
542.896
542.784
542.672
542.561
542.45
542.34
542.23
542.12
542.011
541.902
541.793
541.684
541.575
541.467
541.359
541.251
541.143
541.035
540.927
540.819
540.712
540.604
552.486
552.357
552.23
552.105
551.983
551.866
551.753
551.647
551.546
551.453
551.367
551.29
551.22
551.159
551.107
551.061
551.022
550.988
550.958
550.932
550.909
550.888
550.867
550.847
550.826
550.803
550.778
550.748
550.713
550.673
550.628
550.578
550.522
550.463
550.4
550.334
550.265
550.194
550.121
550.047
549.972
549.896
549.82
549.742
549.663
549.584
549.502
549.418
549.331
549.241
549.148
549.051
548.951
548.846
548.737
548.623
548.504
548.381
548.252
548.118
547.978
547.834
547.686
547.534
547.38
547.225
547.071
546.919
546.767
546.617
546.467
546.318
546.169
546.019
545.869
545.718
545.566
545.415
545.268
545.119
544.939
544.649
544.581
544.528
544.451
544.355
544.248
544.137
544.025
543.911
543.796
543.682
543.568
543.454
543.34
543.227
543.114
543.002
542.89
542.778
542.667
542.556
542.446
542.336
542.226
542.117
542.008
541.899
541.79
541.682
541.574
541.465
541.357
541.25
541.142
541.034
540.926
540.819
540.711
540.604
552.488
552.363
552.24
552.119
552.001
551.887
551.778
551.674
551.577
551.487
551.403
551.328
551.26
551.201
551.15
551.106
551.068
551.035
551.007
550.981
550.959
550.939
550.919
550.899
550.878
550.856
550.83
550.8
550.765
550.724
550.678
550.625
550.567
550.505
550.438
550.369
550.296
550.221
550.145
550.068
549.99
549.911
549.833
549.754
549.674
549.594
549.513
549.43
549.345
549.258
549.167
549.072
548.974
548.871
548.763
548.65
548.532
548.408
548.278
548.142
548
547.852
547.7
547.543
547.385
547.227
547.069
546.911
546.756
546.601
546.447
546.294
546.142
545.989
545.836
545.682
545.529
545.379
545.237
545.104
544.941
544.321
544.466
544.478
544.422
544.333
544.23
544.121
544.01
543.897
543.784
543.671
543.557
543.444
543.331
543.219
543.106
542.995
542.883
542.772
542.661
542.551
542.441
542.332
542.222
542.113
542.005
541.896
541.788
541.68
541.572
541.464
541.356
541.248
541.141
541.033
540.926
540.818
540.711
540.604
552.49
552.369
552.25
552.133
552.019
551.909
551.804
551.704
551.61
551.523
551.442
551.368
551.303
551.245
551.196
551.153
551.116
551.085
551.057
551.033
551.011
550.992
550.973
550.954
550.933
550.911
550.886
550.856
550.82
550.779
550.731
550.677
550.618
550.553
550.483
550.41
550.334
550.257
550.177
550.097
550.016
549.935
549.854
549.774
549.694
549.613
549.532
549.451
549.367
549.281
549.191
549.098
549.001
548.899
548.792
548.68
548.562
548.437
548.307
548.169
548.026
547.876
547.721
547.562
547.402
547.24
547.079
546.918
546.758
546.599
546.441
546.284
546.128
545.972
545.816
545.66
545.505
545.353
545.207
545.061
544.881
544.605
544.541
544.49
544.415
544.321
544.216
544.107
543.996
543.883
543.771
543.658
543.546
543.433
543.321
543.209
543.098
542.987
542.876
542.766
542.655
542.546
542.436
542.327
542.218
542.11
542.001
541.893
541.785
541.677
541.569
541.462
541.354
541.247
541.14
541.032
540.925
540.818
540.711
540.604
552.492
552.376
552.261
552.149
552.039
551.933
551.832
551.735
551.645
551.56
551.482
551.411
551.348
551.292
551.244
551.202
551.167
551.136
551.109
551.086
551.066
551.047
551.028
551.01
550.99
550.968
550.943
550.914
550.878
550.836
550.788
550.733
550.672
550.605
550.534
550.458
550.38
550.3
550.218
550.135
550.052
549.969
549.886
549.805
549.724
549.643
549.562
549.481
549.398
549.312
549.223
549.131
549.035
548.933
548.827
548.714
548.596
548.472
548.34
548.203
548.058
547.908
547.752
547.593
547.432
547.269
547.107
546.943
546.78
546.617
546.455
546.294
546.134
545.974
545.816
545.659
545.503
545.351
545.202
545.054
544.896
544.724
544.61
544.516
544.418
544.313
544.204
544.093
543.982
543.869
543.757
543.645
543.534
543.422
543.311
543.2
543.089
542.979
542.868
542.759
542.649
542.54
542.431
542.322
542.214
542.106
541.998
541.89
541.782
541.675
541.567
541.46
541.353
541.245
541.138
541.031
540.924
540.817
540.71
540.603
552.494
552.383
552.273
552.165
552.06
551.958
551.86
551.768
551.68
551.599
551.524
551.455
551.394
551.34
551.293
551.253
551.219
551.189
551.163
551.141
551.121
551.103
551.085
551.067
551.048
551.026
551.002
550.972
550.937
550.895
550.847
550.792
550.73
550.662
550.589
550.513
550.433
550.351
550.267
550.182
550.098
550.013
549.929
549.847
549.765
549.685
549.604
549.523
549.44
549.354
549.266
549.173
549.076
548.975
548.868
548.755
548.637
548.512
548.38
548.242
548.098
547.949
547.795
547.638
547.478
547.317
547.154
546.991
546.826
546.66
546.495
546.33
546.166
546.004
545.844
545.685
545.53
545.378
545.229
545.082
544.934
544.787
544.656
544.538
544.423
544.309
544.195
544.081
543.968
543.855
543.743
543.632
543.52
543.41
543.299
543.189
543.079
542.97
542.86
542.751
542.642
542.534
542.425
542.317
542.209
542.102
541.994
541.886
541.779
541.672
541.565
541.458
541.351
541.244
541.137
541.03
540.924
540.817
540.71
540.603
552.497
552.39
552.285
552.182
552.081
551.983
551.89
551.801
551.717
551.639
551.566
551.5
551.441
551.389
551.343
551.304
551.271
551.242
551.217
551.196
551.176
551.159
551.141
551.124
551.104
551.083
551.058
551.029
550.994
550.953
550.905
550.85
550.788
550.72
550.647
550.57
550.49
550.407
550.323
550.237
550.152
550.066
549.982
549.9
549.818
549.738
549.658
549.577
549.494
549.409
549.32
549.226
549.129
549.026
548.918
548.804
548.684
548.559
548.428
548.29
548.148
548.001
547.85
547.696
547.54
547.382
547.223
547.061
546.896
546.73
546.563
546.396
546.23
546.067
545.905
545.746
545.59
545.437
545.286
545.137
544.986
544.837
544.692
544.558
544.43
544.307
544.187
544.069
543.954
543.84
543.728
543.617
543.506
543.396
543.287
543.178
543.069
542.96
542.852
542.743
542.635
542.527
542.42
542.312
542.205
542.097
541.99
541.883
541.776
541.669
541.562
541.456
541.349
541.242
541.136
541.029
540.923
540.816
540.71
540.603
552.499
552.398
552.297
552.198
552.102
552.009
551.919
551.834
551.754
551.679
551.609
551.546
551.489
551.438
551.394
551.356
551.323
551.295
551.271
551.25
551.23
551.213
551.195
551.177
551.158
551.136
551.111
551.081
551.047
551.006
550.958
550.904
550.843
550.777
550.705
550.628
550.548
550.466
550.382
550.297
550.212
550.127
550.043
549.961
549.88
549.801
549.722
549.642
549.559
549.474
549.384
549.29
549.191
549.086
548.977
548.861
548.741
548.615
548.485
548.349
548.209
548.065
547.919
547.771
547.621
547.468
547.313
547.155
546.992
546.828
546.662
546.495
546.33
546.167
546.005
545.846
545.688
545.531
545.373
545.215
545.056
544.895
544.734
544.583
544.442
544.309
544.181
544.059
543.94
543.825
543.712
543.601
543.491
543.382
543.274
543.166
543.058
542.95
542.843
542.735
542.628
542.521
542.413
542.306
542.2
542.093
541.986
541.879
541.773
541.666
541.56
541.454
541.347
541.241
541.135
541.028
540.922
540.816
540.709
540.603
552.501
552.405
552.309
552.215
552.123
552.034
551.948
551.867
551.79
551.718
551.652
551.591
551.536
551.487
551.444
551.407
551.375
551.347
551.323
551.301
551.281
551.263
551.245
551.226
551.205
551.183
551.157
551.126
551.091
551.05
551.003
550.95
550.891
550.826
550.756
550.681
550.603
550.523
550.44
550.357
550.273
550.189
550.107
550.026
549.947
549.868
549.79
549.711
549.63
549.544
549.454
549.359
549.259
549.153
549.042
548.926
548.806
548.681
548.552
548.419
548.283
548.145
548.005
547.863
547.72
547.575
547.426
547.273
547.116
546.956
546.794
546.631
546.469
546.308
546.149
545.99
545.831
545.67
545.506
545.339
545.165
544.984
544.796
544.622
544.464
544.317
544.18
544.051
543.928
543.81
543.696
543.585
543.475
543.367
543.26
543.153
543.046
542.939
542.833
542.726
542.62
542.514
542.407
542.301
542.194
542.088
541.982
541.876
541.77
541.664
541.557
541.451
541.345
541.239
541.133
541.027
540.921
540.815
540.709
540.603
552.504
552.411
552.32
552.23
552.143
552.058
551.977
551.899
551.826
551.757
551.693
551.635
551.582
551.534
551.492
551.456
551.424
551.396
551.371
551.348
551.327
551.308
551.288
551.267
551.245
551.22
551.192
551.16
551.124
551.083
551.036
550.984
550.926
550.863
550.796
550.724
550.649
550.571
550.492
550.41
550.329
550.248
550.168
550.089
550.012
549.935
549.859
549.78
549.699
549.614
549.524
549.428
549.328
549.222
549.112
548.997
548.878
548.755
548.63
548.501
548.371
548.239
548.107
547.974
547.84
547.703
547.563
547.418
547.269
547.117
546.963
546.808
546.654
546.5
546.346
546.192
546.036
545.878
545.715
545.543
545.352
545.133
544.895
544.685
544.502
544.338
544.187
544.048
543.918
543.795
543.679
543.567
543.458
543.351
543.245
543.139
543.034
542.928
542.823
542.717
542.612
542.506
542.401
542.295
542.189
542.084
541.978
541.872
541.766
541.661
541.555
541.449
541.343
541.238
541.132
541.026
540.92
540.814
540.709
540.603
552.506
552.418
552.331
552.245
552.162
552.081
552.003
551.929
551.859
551.794
551.733
551.677
551.625
551.579
551.538
551.502
551.469
551.44
551.414
551.39
551.367
551.345
551.322
551.298
551.273
551.245
551.214
551.18
551.142
551.099
551.052
551
550.944
550.884
550.819
550.751
550.679
550.605
550.529
550.452
550.374
550.297
550.22
550.144
550.07
549.995
549.92
549.843
549.762
549.676
549.587
549.492
549.393
549.29
549.182
549.07
548.955
548.836
548.716
548.594
548.472
548.349
548.226
548.103
547.979
547.853
547.723
547.589
547.452
547.312
547.171
547.029
546.888
546.746
546.604
546.461
546.32
546.185
546.054
545.905
545.698
545.408
545.064
544.786
544.566
544.378
544.208
544.053
543.912
543.783
543.663
543.55
543.441
543.334
543.229
543.125
543.021
542.917
542.813
542.708
542.604
542.499
542.394
542.289
542.184
542.079
541.974
541.868
541.763
541.658
541.552
541.447
541.342
541.236
541.131
541.025
540.919
540.814
540.708
540.603
552.508
552.424
552.34
552.258
552.179
552.102
552.028
551.957
551.89
551.828
551.769
551.715
551.666
551.621
551.58
551.543
551.51
551.479
551.451
551.424
551.397
551.371
551.345
551.317
551.287
551.255
551.221
551.183
551.142
551.098
551.049
550.998
550.943
550.884
550.822
550.757
550.689
550.619
550.548
550.475
550.402
550.328
550.255
550.183
550.111
550.039
549.965
549.888
549.806
549.722
549.633
549.542
549.447
549.348
549.246
549.14
549.031
548.921
548.809
548.696
548.582
548.47
548.358
548.246
548.132
548.018
547.9
547.78
547.658
547.536
547.413
547.289
547.165
547.038
546.912
546.796
546.709
546.677
546.692
546.665
546.448
545.974
545.34
544.933
544.662
544.445
544.25
544.072
543.913
543.773
543.647
543.532
543.422
543.317
543.213
543.11
543.008
542.905
542.802
542.699
542.595
542.492
542.388
542.283
542.179
542.074
541.97
541.865
541.76
541.655
541.55
541.445
541.34
541.235
541.129
541.024
540.919
540.813
540.708
540.603
552.509
552.428
552.348
552.27
552.193
552.12
552.049
551.982
551.918
551.858
551.802
551.75
551.702
551.657
551.616
551.578
551.543
551.51
551.478
551.448
551.417
551.387
551.355
551.322
551.287
551.25
551.211
551.169
551.124
551.077
551.026
550.973
550.918
550.86
550.8
550.738
550.673
550.607
550.54
550.473
550.404
550.334
550.263
550.193
550.125
550.055
549.982
549.904
549.823
549.738
549.651
549.565
549.477
549.388
549.295
549.2
549.102
549.003
548.902
548.8
548.697
548.595
548.493
548.392
548.289
548.185
548.08
547.976
547.873
547.772
547.67
547.564
547.452
547.336
547.231
547.182
547.286
547.631
548.166
548.526
548.264
547.209
545.686
545.078
544.78
544.546
544.321
544.109
543.924
543.767
543.633
543.514
543.404
543.299
543.196
543.095
542.994
542.893
542.791
542.689
542.587
542.484
542.381
542.278
542.174
542.07
541.966
541.861
541.757
541.652
541.548
541.443
541.338
541.233
541.128
541.023
540.918
540.813
540.708
540.603
552.51
552.431
552.353
552.276
552.203
552.132
552.065
552
551.939
551.882
551.828
551.777
551.73
551.685
551.643
551.604
551.566
551.53
551.495
551.46
551.424
551.388
551.351
551.312
551.272
551.229
551.185
551.138
551.089
551.038
550.985
550.929
550.872
550.813
550.754
550.692
550.629
550.564
550.5
550.437
550.371
550.302
550.231
550.162
550.097
550.03
549.959
549.882
549.8
549.715
549.63
549.549
549.474
549.4
549.323
549.244
549.161
549.077
548.989
548.897
548.803
548.708
548.613
548.517
548.42
548.325
548.232
548.143
548.058
547.974
547.884
547.776
547.651
547.519
547.449
547.613
548.384
549.967
552.105
553.248
552.68
549.893
545.621
545.019
544.871
544.68
544.428
544.17
543.947
543.766
543.62
543.496
543.385
543.28
543.179
543.08
542.98
542.881
542.781
542.68
542.579
542.477
542.375
542.272
542.169
542.065
541.962
541.858
541.754
541.65
541.545
541.441
541.336
541.232
541.127
541.022
540.917
540.812
540.707
540.602
552.51
552.43
552.351
552.276
552.204
552.135
552.07
552.008
551.95
551.894
551.842
551.792
551.744
551.699
551.656
551.615
551.575
551.535
551.495
551.456
551.416
551.374
551.332
551.288
551.242
551.194
551.145
551.095
551.042
550.988
550.931
550.872
550.811
550.75
550.688
550.625
550.559
550.492
550.427
550.366
550.301
550.229
550.153
550.081
550.019
549.957
549.888
549.812
549.73
549.645
549.563
549.489
549.43
549.378
549.323
549.265
549.2
549.133
549.057
548.971
548.874
548.777
548.677
548.573
548.472
548.373
548.284
548.198
548.116
548.017
547.895
547.717
547.521
547.333
547.385
548.268
551.188
556.137
562.429
563.632
561.957
555.386
544.285
544.607
544.922
544.848
544.569
544.25
543.977
543.767
543.607
543.477
543.365
543.261
543.162
543.064
542.967
542.869
542.77
542.671
542.571
542.47
542.368
542.266
542.164
542.061
541.958
541.855
541.751
541.647
541.543
541.439
541.335
541.23
541.126
541.021
540.917
540.812
540.707
540.602
552.507
552.422
552.34
552.263
552.19
552.122
552.058
551.998
551.941
551.886
551.835
551.785
551.737
551.692
551.647
551.604
551.561
551.518
551.475
551.432
551.388
551.342
551.296
551.248
551.199
551.148
551.097
551.045
550.991
550.935
550.875
550.813
550.748
550.682
550.614
550.546
550.476
550.403
550.332
550.267
550.198
550.119
550.035
549.958
549.899
549.84
549.772
549.697
549.618
549.535
549.454
549.389
549.348
549.325
549.295
549.26
549.208
549.156
549.088
548.987
548.861
548.742
548.611
548.466
548.335
548.2
548.093
547.951
547.818
547.59
547.335
546.911
546.578
546.293
546.882
550.158
558.232
568.812
578.56
579.391
575.192
565.328
552.644
544.752
545.166
545.075
544.724
544.328
544.001
543.763
543.59
543.457
543.344
543.242
543.145
543.049
542.953
542.857
542.76
542.662
542.563
542.463
542.363
542.261
542.159
542.057
541.955
541.852
541.748
541.645
541.541
541.437
541.333
541.229
541.125
541.02
540.916
540.811
540.707
540.602
552.5
552.402
552.311
552.227
552.15
552.08
552.016
551.956
551.899
551.845
551.794
551.744
551.696
551.649
551.604
551.559
551.514
551.47
551.425
551.379
551.333
551.287
551.239
551.19
551.142
551.092
551.044
550.995
550.944
550.889
550.83
550.767
550.698
550.626
550.551
550.475
550.398
550.318
550.238
550.163
550.083
549.994
549.902
549.828
549.785
549.723
549.645
549.572
549.5
549.415
549.335
549.282
549.253
549.261
549.247
549.228
549.161
549.119
549.048
548.896
548.669
548.505
548.285
548.005
547.799
547.506
547.34
546.925
546.612
545.886
545.421
544.343
544.209
543.957
546.268
551.948
564.239
577.572
589.025
592.392
590.916
577.722
561.311
547.946
545.445
545.253
544.817
544.358
543.997
543.743
543.566
543.433
543.322
543.223
543.128
543.034
542.941
542.846
542.751
542.654
542.556
542.457
542.357
542.257
542.155
542.054
541.951
541.849
541.746
541.643
541.539
541.436
541.332
541.228
541.124
541.02
540.915
540.811
540.707
540.602
552.485
552.359
552.246
552.148
552.063
551.988
551.922
551.861
551.804
551.749
551.697
551.646
551.598
551.551
551.505
551.461
551.417
551.374
551.331
551.287
551.243
551.199
551.153
551.109
551.065
551.022
550.982
550.942
550.901
550.855
550.803
550.742
550.673
550.597
550.516
550.433
550.352
550.27
550.182
550.096
549.998
549.902
549.819
549.765
549.781
549.712
549.583
549.517
549.47
549.361
549.264
549.23
549.179
549.131
549.097
549.09
548.973
548.935
548.787
548.647
548.314
548.027
547.65
547.317
547.015
546.666
546.155
545.383
544.248
542.702
541.612
540.82
541.284
542.087
545.046
550.597
564.544
578.51
589.53
592.724
593.79
584.187
566.793
547.019
545.399
545.196
544.749
544.296
543.945
543.702
543.533
543.406
543.3
543.204
543.111
543.02
542.929
542.836
542.742
542.646
542.549
542.451
542.352
542.252
542.152
542.05
541.949
541.846
541.744
541.641
541.538
541.434
541.331
541.227
541.123
541.019
540.915
540.811
540.706
540.602
552.454
552.274
552.12
551.996
551.896
551.814
551.743
551.681
551.623
551.568
551.515
551.465
551.416
551.37
551.327
551.287
551.25
551.213
551.176
551.139
551.101
551.063
551.023
550.986
550.951
550.921
550.895
550.874
550.852
550.824
550.788
550.738
550.676
550.604
550.528
550.45
550.38
550.312
550.214
550.129
550.014
549.94
549.889
549.851
549.825
549.754
549.658
549.548
549.435
549.311
549.206
549.166
549.075
549.037
548.959
548.891
548.823
548.605
548.372
548.103
547.592
547.179
546.786
546.316
545.888
545.176
543.889
542.188
539.407
538.074
536.243
536.681
537.879
539.729
542.665
547.306
554.937
563.385
573.961
582.435
589.773
583.817
567.351
547.565
545.24
544.963
544.546
544.154
543.854
543.644
543.493
543.376
543.276
543.185
543.096
543.007
542.918
542.827
542.734
542.64
542.544
542.446
542.348
542.249
542.148
542.048
541.946
541.844
541.742
541.639
541.536
541.433
541.33
541.226
541.122
541.018
540.914
540.81
540.706
540.602
552.396
552.113
551.888
551.721
551.599
551.507
551.433
551.371
551.315
551.263
551.213
551.164
551.118
551.076
551.04
551.012
550.989
550.966
550.942
550.917
550.89
550.858
550.823
550.795
550.774
550.758
550.75
550.756
550.762
550.763
550.762
550.729
550.686
550.633
550.595
550.548
550.539
550.518
550.385
550.257
550.135
550.065
550.029
549.999
549.939
549.899
549.878
549.732
549.618
549.427
549.242
549.189
549.071
548.936
548.771
548.596
548.451
548.141
547.706
547.15
546.563
546.168
545.651
545.149
544.624
543.304
542.058
539.688
537.603
536.164
535.771
536.513
537.389
538.795
540.715
543.614
547.675
553.285
560.657
568.875
577.684
575.791
565.758
546.753
544.879
544.634
544.279
543.978
543.747
543.578
543.45
543.346
543.254
543.167
543.082
542.996
542.909
542.819
542.727
542.634
542.539
542.442
542.344
542.245
542.146
542.045
541.944
541.842
541.74
541.638
541.535
541.432
541.329
541.225
541.122
541.018
540.914
540.81
540.706
540.602
552.289
551.826
551.482
551.248
551.098
550.996
550.925
550.873
550.827
550.787
550.745
550.704
550.663
550.631
550.611
550.605
550.607
550.608
550.606
550.602
550.59
550.564
550.529
550.509
550.507
550.504
550.508
550.527
550.566
550.604
550.676
550.642
550.634
550.612
550.571
550.544
550.491
550.543
550.507
550.445
550.376
550.355
550.421
550.464
550.429
550.336
550.269
550.056
549.879
549.549
549.272
549.211
549.274
549.032
548.701
548.356
548.027
547.657
547.246
546.865
546.432
546.208
545.863
545.661
545.319
544.751
544.031
542.767
541.367
539.895
539.195
539.114
539.319
539.975
540.987
542.54
544.765
547.649
551.921
558.012
567.886
565.649
558.857
547.331
544.933
544.359
544.051
543.814
543.648
543.518
543.41
543.317
543.233
543.152
543.07
542.987
542.901
542.813
542.722
542.63
542.535
542.439
542.342
542.243
542.144
542.043
541.942
541.841
541.739
541.637
541.534
541.431
541.328
541.225
541.121
541.017
540.914
540.81
540.706
540.602
552.108
551.351
550.832
550.501
550.323
550.197
550.132
550.104
550.087
550.079
550.057
550.031
549.994
549.979
549.994
550.027
550.063
550.091
550.13
550.171
550.175
550.162
550.126
550.123
550.144
550.158
550.139
550.047
550.003
550.085
550.218
550.33
550.358
550.4
550.486
550.442
550.446
550.534
550.531
550.487
550.535
550.694
551
551.112
551.075
551.02
550.995
550.72
550.403
549.957
549.518
549.369
549.29
549.188
548.995
548.725
548.438
548.145
547.922
547.614
547.283
547.029
546.796
546.639
546.43
546.194
545.768
545.252
544.381
543.526
542.87
542.549
542.485
542.734
543.258
544.062
545.144
546.695
549.746
554.697
560.418
556.308
550.921
546.383
544.771
544.069
543.93
543.696
543.569
543.473
543.377
543.292
543.216
543.14
543.062
542.98
542.896
542.808
542.719
542.627
542.533
542.437
542.34
542.241
542.142
542.042
541.941
541.84
541.738
541.636
541.534
541.431
541.328
541.224
541.121
541.017
540.914
540.81