/*--------------------------------*- C++ -*----------------------------------*\
  =========                 |
  \\      /  F ield         | OpenFOAM: The Open Source CFD Toolbox
   \\    /   O peration     | Website:  https://openfoam.org
    \\  /    A nd           | Version:  6
     \\/     M anipulation  |
\*---------------------------------------------------------------------------*/
FoamFile
{
    version     2.0;
    format      ascii;
    class       volVectorField;
    location    "4800";
    object      U;
}
// * * * * * * * * * * * * * * * * * * * * * * * * * * * * * * * * * * * * * //

dimensions      [0 1 -1 0 0 0 0];

internalField   nonuniform List<vector> 
4800
(
(-5.18009e-05 0 -8.26696e-06)
(-3.24725e-05 0 -2.2744e-05)
(-7.68746e-05 0 -2.45762e-05)
(-8.90754e-05 0 -4.23994e-05)
(-9.6411e-05 0 -4.39469e-05)
(-0.00010568 0 -4.38772e-05)
(-0.000152045 0 -3.62744e-05)
(-0.000223795 0 -3.70367e-06)
(-0.000365091 0 7.49196e-05)
(-0.000539306 0 -0.000107352)
(-0.000775273 0 1.68097e-05)
(-0.0010701 0 0.000227079)
(-0.00129084 0 -0.000108494)
(-0.00146125 0 0.000235646)
(-0.00165202 0 6.05759e-05)
(-0.00178304 0 -2.21988e-05)
(-0.00189224 0 9.82023e-05)
(-0.00197837 0 -4.79592e-05)
(-0.00201319 0 -2.0843e-05)
(-0.00200413 0 -8.50729e-05)
(-0.00198526 0 -0.000109577)
(-0.0019838 0 -6.46003e-05)
(-0.00184935 0 2.45331e-06)
(-0.00173568 0 -0.000120417)
(-0.00170482 0 -0.000158768)
(-0.00170877 0 -0.000147203)
(-0.00146843 0 -3.08951e-05)
(-0.00118401 0 -0.000274265)
(-0.00106882 0 -0.000139044)
(-0.000950846 0 -2.80767e-05)
(-0.000713826 0 -0.000224972)
(-0.000541229 0 -0.000151205)
(-0.000376062 0 -0.000108882)
(-0.000208752 0 -0.000110119)
(1.02292e-05 0 -0.00014705)
(3.76581e-05 0 2.84181e-05)
(0.000108704 0 8.11646e-06)
(0.000239038 0 -9.56461e-05)
(0.000324602 0 -1.01176e-05)
(0.000347184 0 -0.000141403)
(0.000437958 0 -0.000119296)
(0.000472543 0 -8.27943e-05)
(0.000455802 0 -7.14544e-05)
(0.000431761 0 -1.43458e-05)
(0.000379339 0 1.88975e-05)
(0.000269026 0 2.27304e-05)
(0.00014522 0 6.02521e-06)
(6.44932e-05 0 -2.54311e-06)
(-5.35752e-06 0 7.10455e-06)
(-8.32188e-05 0 3.58798e-05)
(-0.000200248 0 2.48375e-05)
(-0.000275872 0 2.58222e-05)
(-0.000327725 0 2.67991e-05)
(-0.000380033 0 1.44146e-05)
(-0.000432988 0 1.34164e-05)
(-0.000479661 0 1.5341e-05)
(-0.00051496 0 1.13615e-05)
(-0.000540222 0 2.69138e-06)
(-0.00055318 0 -3.31914e-06)
(-0.000537726 0 -5.71688e-05)
(-0.000515224 0 -6.24046e-05)
(-0.000514083 0 1.40524e-05)
(-0.000463125 0 -1.44202e-06)
(-0.000381814 0 -4.27644e-05)
(-0.000321467 0 1.01017e-05)
(-0.000228367 0 -6.67888e-06)
(-0.000143794 0 -9.34345e-06)
(8.65418e-05 0 -0.000262891)
(0.000189864 0 -3.77925e-05)
(0.000259629 0 0.000100355)
(0.000364951 0 2.0242e-05)
(0.000395626 0 4.79478e-05)
(0.000390154 0 3.02281e-05)
(0.000374189 0 1.90825e-05)
(0.000362188 0 -3.03378e-05)
(0.000337474 0 7.03386e-05)
(0.000297468 0 -0.000122354)
(0.000247773 0 3.03575e-05)
(0.000272716 0 -7.11885e-05)
(-0.000295096 0 -0.000131438)
(4.18533e-06 0 1.64159e-05)
(5.48277e-13 0 1.42285e-13)
(2.8762e-13 0 6.91369e-14)
(1.38477e-12 0 6.70761e-14)
(1.25449e-12 0 6.28612e-14)
(1.13156e-12 0 5.85766e-14)
(1.01645e-12 0 5.48114e-14)
(9.08747e-13 0 5.11581e-14)
(8.0878e-13 0 4.71706e-14)
(7.17683e-13 0 4.25388e-14)
(6.37406e-13 0 3.70828e-14)
(5.69589e-13 0 3.08063e-14)
(5.15151e-13 0 2.39558e-14)
(4.74356e-13 0 1.69458e-14)
(4.46589e-13 0 1.0199e-14)
(4.30878e-13 0 4.05657e-15)
(4.26273e-13 0 -1.18487e-15)
(4.31516e-13 0 -5.35351e-15)
(4.44518e-13 0 -8.41765e-15)
(4.62361e-13 0 -1.02907e-14)
(4.82369e-13 0 -1.08973e-14)
(5.02773e-13 0 -1.04381e-14)
(5.21899e-13 0 -9.25819e-15)
(5.37738e-13 0 -7.4861e-15)
(5.48692e-13 0 -5.04345e-15)
(5.54111e-13 0 -1.94289e-15)
(5.53925e-13 0 1.59232e-15)
(5.48009e-13 0 5.24743e-15)
(5.35889e-13 0 8.75306e-15)
(5.16877e-13 0 1.19576e-14)
(4.90519e-13 0 1.48589e-14)
(4.57038e-13 0 1.757e-14)
(4.17364e-13 0 2.02072e-14)
(3.72686e-13 0 2.27824e-14)
(3.2392e-13 0 2.51901e-14)
(2.71503e-13 0 2.72805e-14)
(2.156e-13 0 2.89331e-14)
(1.56475e-13 0 3.00808e-14)
(9.47767e-14 0 3.06905e-14)
(3.16976e-14 0 3.06814e-14)
(-4.63148e-05 0 4.63599e-05)
(-1.71732e-05 0 5.56476e-05)
(-6.53781e-05 0 4.32493e-05)
(-9.24556e-05 0 3.83124e-05)
(-0.000116557 0 4.37794e-05)
(-0.000131797 0 8.75386e-05)
(-0.000178703 0 0.000159867)
(-0.000397909 0 0.000191682)
(-0.000610475 0 0.000267273)
(-0.000739511 0 0.000333632)
(-0.000923729 0 3.64689e-05)
(-0.00102763 0 0.000239629)
(-0.00123327 0 0.000358983)
(-0.0014491 0 8.79921e-05)
(-0.00156902 0 0.000304398)
(-0.00170085 0 0.000184952)
(-0.00178308 0 0.000104755)
(-0.00184857 0 0.000129322)
(-0.001883 0 8.2071e-05)
(-0.00186504 0 -2.69125e-05)
(-0.00181817 0 -8.18776e-05)
(-0.00180915 0 -4.87262e-05)
(-0.00178965 0 -0.000124692)
(-0.00171488 0 -0.000217149)
(-0.00163757 0 -7.80597e-05)
(-0.00153222 0 -4.52234e-06)
(-0.00138927 0 -0.000136338)
(-0.00107577 0 -0.000654812)
(-0.00102144 0 -0.000144787)
(-0.000802037 0 -0.000198067)
(-0.000563179 0 -0.000332643)
(-0.000449695 0 -0.000180902)
(-0.000269971 0 -0.000176725)
(-7.71531e-05 0 -0.000257489)
(0.00018495 0 -0.000270498)
(0.000160361 0 -5.06271e-05)
(0.000290563 0 6.64196e-06)
(0.000312082 0 -0.00030255)
(0.000475885 0 -3.94896e-05)
(0.00049663 0 -2.97447e-05)
(0.000526963 0 -4.00834e-05)
(0.000526527 0 3.96081e-05)
(0.000483852 0 7.63501e-05)
(0.000405774 0 0.000108605)
(0.000339911 0 0.000141265)
(0.000265584 0 0.000176499)
(0.000166591 0 0.000189166)
(7.08468e-05 0 0.000161529)
(-1.89913e-05 0 0.000134736)
(-7.93929e-05 0 0.000126878)
(-0.000156609 0 0.000136402)
(-0.00024341 0 0.000115149)
(-0.000315758 0 7.80247e-05)
(-0.000365832 0 8.28328e-05)
(-0.000418351 0 7.82467e-05)
(-0.000459414 0 6.67365e-05)
(-0.000489289 0 4.27015e-05)
(-0.000506849 0 2.37135e-05)
(-0.000515626 0 1.71447e-05)
(-0.000503155 0 -4.78413e-05)
(-0.000466492 0 -7.1252e-05)
(-0.000440049 0 -3.16233e-05)
(-0.000376062 0 -7.99053e-05)
(-0.000261425 0 -0.000160009)
(-0.000230416 0 -0.00011274)
(-1.61839e-05 0 -0.000227876)
(0.00016895 0 -0.000139847)
(0.00022941 0 -0.00032107)
(0.000372444 0 -0.00015687)
(0.000414707 0 -0.000104268)
(0.000453447 0 -0.000221211)
(0.000544332 0 -5.92148e-05)
(0.000552257 0 -4.47625e-06)
(0.000539457 0 1.98961e-05)
(0.000496106 0 4.8657e-05)
(0.000421389 0 9.35397e-05)
(0.00036052 0 0.000110876)
(0.000251915 0 0.000129815)
(0.000271387 0 0.000134437)
(-0.000308653 0 0.000138937)
(4.22046e-06 0 0.000164597)
(4.99398e-13 0 4.00759e-13)
(2.86232e-13 0 2.07715e-13)
(1.37816e-12 0 2.01927e-13)
(1.24593e-12 0 1.87844e-13)
(1.12359e-12 0 1.74592e-13)
(1.00903e-12 0 1.63619e-13)
(9.01106e-13 0 1.53306e-13)
(8.00161e-13 0 1.4192e-13)
(7.07596e-13 0 1.2815e-13)
(6.25673e-13 0 1.1158e-13)
(5.56462e-13 0 9.24088e-14)
(5.01291e-13 0 7.14276e-14)
(4.60599e-13 0 4.99699e-14)
(4.337e-13 0 2.94875e-14)
(4.19494e-13 0 1.10697e-14)
(4.16863e-13 0 -4.58472e-15)
(4.24283e-13 0 -1.70314e-14)
(4.39581e-13 0 -2.60116e-14)
(4.59881e-13 0 -3.14479e-14)
(4.82221e-13 0 -3.34763e-14)
(5.04412e-13 0 -3.24813e-14)
(5.24851e-13 0 -2.89186e-14)
(5.41953e-13 0 -2.30517e-14)
(5.54235e-13 0 -1.50608e-14)
(5.60746e-13 0 -5.41334e-15)
(5.61115e-13 0 5.05736e-15)
(5.5517e-13 0 1.54937e-14)
(5.426e-13 0 2.53982e-14)
(5.22983e-13 0 3.4731e-14)
(4.96131e-13 0 4.3708e-14)
(4.62386e-13 0 5.24982e-14)
(4.22576e-13 0 6.10296e-14)
(3.77669e-13 0 6.90065e-14)
(3.28418e-13 0 7.60708e-14)
(2.75246e-13 0 8.19552e-14)
(2.184e-13 0 8.65277e-14)
(1.58233e-13 0 8.97591e-14)
(9.53773e-14 0 9.16808e-14)
(3.16885e-14 0 9.23384e-14)
(-2.50657e-05 0 6.57096e-05)
(-2.37255e-05 0 7.88151e-05)
(-7.55381e-05 0 7.63601e-05)
(-0.00013682 0 4.58653e-05)
(-0.000225659 0 2.31993e-05)
(-0.000306296 0 5.02528e-05)
(-0.000345935 0 0.000251042)
(-0.000548957 0 0.000376539)
(-0.00080106 0 0.000407757)
(-0.000849661 0 0.000515993)
(-0.000865048 0 0.000524666)
(-0.0010483 0 0.000182224)
(-0.00117158 0 0.000428055)
(-0.00134529 0 0.000312912)
(-0.00145021 0 0.000281244)
(-0.00152795 0 0.000258858)
(-0.00157813 0 0.000118032)
(-0.00160103 0 9.11277e-05)
(-0.00161292 0 8.05436e-05)
(-0.00156892 0 -9.32569e-05)
(-0.0015002 0 -9.50333e-05)
(-0.00149485 0 -8.89136e-05)
(-0.00154344 0 -0.000109641)
(-0.00154234 0 -0.000150963)
(-0.00140499 0 -0.000362509)
(-0.00129506 0 -0.000465889)
(-0.00115854 0 -0.000605479)
(-0.00113394 0 -0.000275311)
(-0.00082557 0 -0.000473948)
(-0.000673938 0 -0.000384)
(-0.000409714 0 -0.000498681)
(-0.000273566 0 -0.000500572)
(-8.80181e-05 0 -0.00052497)
(6.55953e-05 0 -0.000465153)
(0.000104373 0 -0.000358855)
(0.000235574 0 -0.000306954)
(0.000445879 0 -0.000104208)
(0.000333027 0 -0.000323442)
(0.000448867 0 -0.000150972)
(0.000502513 0 -3.87183e-05)
(0.000515432 0 -0.000178173)
(0.000562474 0 7.98568e-05)
(0.00052233 0 0.000118999)
(0.000426686 0 0.000164487)
(0.000342882 0 0.000214502)
(0.000291072 0 0.000238566)
(0.000232472 0 0.000229431)
(0.000119846 0 0.000227184)
(7.3037e-06 0 0.00021578)
(-6.70629e-05 0 0.000204915)
(-0.00014616 0 0.000195817)
(-0.00022372 0 0.000171198)
(-0.000282113 0 0.000142419)
(-0.000335573 0 0.000114818)
(-0.000374015 0 0.00010479)
(-0.000406844 0 8.03714e-05)
(-0.00041939 0 6.57299e-05)
(-0.000423555 0 1.56399e-05)
(-0.000419197 0 -1.00656e-05)
(-0.00039782 0 -8.89367e-05)
(-0.000368379 0 -9.14867e-05)
(-0.000324246 0 -0.000110296)
(-0.000293615 0 -0.000121363)
(-0.000207848 0 -0.000208909)
(-1.52029e-05 0 -0.0003436)
(0.000118409 0 -0.000391273)
(0.000259151 0 -0.000358303)
(0.000298616 0 -0.000408444)
(0.000438037 0 -0.000242751)
(0.000510782 0 -0.00011924)
(0.000508997 0 -0.00028779)
(0.000588282 0 8.1922e-07)
(0.000583081 0 7.36845e-05)
(0.000571665 0 0.000107687)
(0.000533542 0 0.000130481)
(0.000484568 0 9.24275e-05)
(0.000401323 0 0.000121058)
(0.000258159 0 0.000150684)
(0.000275369 0 0.000151878)
(-0.000188423 0 0.00015783)
(4.25142e-06 0 0.000265114)
(4.87312e-13 0 7.58099e-13)
(3.13106e-13 0 3.78664e-13)
(1.36474e-12 0 3.4361e-13)
(1.22725e-12 0 3.10918e-13)
(1.10748e-12 0 2.87425e-13)
(9.95165e-13 0 2.70622e-13)
(8.87048e-13 0 2.55385e-13)
(7.83624e-13 0 2.37863e-13)
(6.87343e-13 0 2.15407e-13)
(6.01665e-13 0 1.8749e-13)
(5.29437e-13 0 1.54786e-13)
(4.72712e-13 0 1.18973e-13)
(4.32416e-13 0 8.25015e-14)
(4.07689e-13 0 4.78772e-14)
(3.96806e-13 0 1.69664e-14)
(3.98172e-13 0 -9.20644e-15)
(4.10089e-13 0 -3.01454e-14)
(4.30102e-13 0 -4.54046e-14)
(4.54896e-13 0 -5.47353e-14)
(4.81335e-13 0 -5.83203e-14)
(5.0733e-13 0 -5.66668e-14)
(5.31329e-13 0 -5.03748e-14)
(5.51596e-13 0 -4.00348e-14)
(5.6633e-13 0 -2.63638e-14)
(5.74229e-13 0 -1.03817e-14)
(5.74832e-13 0 6.69368e-15)
(5.6835e-13 0 2.38522e-14)
(5.55127e-13 0 4.06199e-14)
(5.35187e-13 0 5.69923e-14)
(5.08286e-13 0 7.30529e-14)
(4.7436e-13 0 8.86381e-14)
(4.33872e-13 0 1.033e-13)
(3.87727e-13 0 1.16512e-13)
(3.36868e-13 0 1.27885e-13)
(2.81959e-13 0 1.37239e-13)
(2.23404e-13 0 1.44545e-13)
(1.61628e-13 0 1.49863e-13)
(9.73561e-14 0 1.53315e-13)
(3.23553e-14 0 1.5509e-13)
(-1.56671e-05 0 7.53272e-05)
(-1.83543e-05 0 9.92573e-05)
(-2.89135e-05 0 0.000138578)
(-2.72604e-05 0 0.000154185)
(-0.000121553 0 0.000151081)
(-0.000199949 0 0.000303856)
(-0.000272789 0 0.000477691)
(-0.000552758 0 0.000585086)
(-0.000616637 0 0.00073076)
(-0.000729004 0 0.00068605)
(-0.000852016 0 0.000598799)
(-0.00102341 0 0.000483695)
(-0.0010627 0 0.000600827)
(-0.00117576 0 0.000552114)
(-0.00130246 0 0.00040865)
(-0.00133767 0 0.000382832)
(-0.00135394 0 0.000244711)
(-0.00135638 0 0.000166313)
(-0.00139266 0 1.10729e-05)
(-0.00139886 0 -4.68971e-05)
(-0.0013208 0 -0.000413126)
(-0.00133902 0 -7.61177e-05)
(-0.00129236 0 -0.000113551)
(-0.00126861 0 -0.000108291)
(-0.00121101 0 -0.000334064)
(-0.00120662 0 -0.000259125)
(-0.00109266 0 -0.000508833)
(-0.000692557 0 -0.0009424)
(-0.000778527 0 -0.000538046)
(-0.000514989 0 -0.000674215)
(-0.000252293 0 -0.000725813)
(-0.000253578 0 -0.000633254)
(-6.09564e-05 0 -0.000632428)
(-1.50018e-05 0 -0.000525457)
(3.96224e-05 0 -0.000425682)
(0.000123316 0 -0.000406434)
(0.000332408 0 -0.000245675)
(0.00029448 0 -0.000302368)
(0.000403392 0 -0.000172529)
(0.000441427 0 -0.000125478)
(0.00040319 0 -0.000383001)
(0.000537535 0 0.000150274)
(0.000516759 0 0.000179281)
(0.000467041 0 0.000218824)
(0.000412248 0 0.000242279)
(0.000346522 0 0.000301147)
(0.000244603 0 0.0003634)
(0.000161572 0 0.000335871)
(9.74002e-05 0 0.000279528)
(-2.03037e-06 0 0.000272259)
(-0.000102272 0 0.000270119)
(-0.00014922 0 0.000249294)
(-0.00019838 0 0.000219217)
(-0.000270821 0 0.000162375)
(-0.000319439 0 0.000122287)
(-0.000334146 0 0.000117348)
(-0.000343524 0 6.3437e-05)
(-0.000333476 0 1.10673e-05)
(-0.00032857 0 -2.2333e-05)
(-0.000322086 0 -6.85757e-05)
(-0.00031394 0 -9.9111e-05)
(-0.000259363 0 -0.000157192)
(-0.00016355 0 -0.000223275)
(-8.27816e-05 0 -0.000338627)
(7.97717e-05 0 -0.000410169)
(0.00014839 0 -0.000507271)
(0.000219656 0 -0.000502597)
(0.000349928 0 -0.000388794)
(0.000401635 0 -0.000311304)
(0.000448657 0 -0.000272192)
(0.000491952 0 -0.000141082)
(0.00051453 0 -7.85351e-05)
(0.000522452 0 -2.1144e-05)
(0.000504892 0 8.20999e-05)
(0.000482156 0 0.000156683)
(0.000431334 0 0.000230217)
(0.000381008 0 0.000235662)
(0.000270474 0 0.000216455)
(0.000261589 0 0.000226899)
(-0.000191322 0 0.000206696)
(4.21202e-06 0 0.000371651)
(4.67789e-13 0 1.25557e-12)
(2.53716e-13 0 5.78879e-13)
(1.31079e-12 0 4.82587e-13)
(1.19007e-12 0 4.24204e-13)
(1.08342e-12 0 3.93024e-13)
(9.76994e-13 0 3.75376e-13)
(8.68347e-13 0 3.59212e-13)
(7.60183e-13 0 3.3764e-13)
(6.57223e-13 0 3.07023e-13)
(5.65052e-13 0 2.67248e-13)
(4.87946e-13 0 2.20009e-13)
(4.29006e-13 0 1.68268e-13)
(3.89503e-13 0 1.15632e-13)
(3.68165e-13 0 6.55071e-14)
(3.62411e-13 0 2.05852e-14)
(3.69751e-13 0 -1.73912e-14)
(3.88085e-13 0 -4.76014e-14)
(4.14991e-13 0 -6.95275e-14)
(4.46965e-13 0 -8.27908e-14)
(4.8029e-13 0 -8.74599e-14)
(5.12357e-13 0 -8.43485e-14)
(5.41483e-13 0 -7.47707e-14)
(5.65964e-13 0 -5.99715e-14)
(5.83888e-13 0 -4.0943e-14)
(5.93804e-13 0 -1.86664e-14)
(5.95349e-13 0 5.72324e-15)
(5.89096e-13 0 3.10788e-14)
(5.7574e-13 0 5.64664e-14)
(5.55416e-13 0 8.12283e-14)
(5.27777e-13 0 1.04886e-13)
(4.92633e-13 0 1.27031e-13)
(4.50449e-13 0 1.47293e-13)
(4.02254e-13 0 1.65359e-13)
(3.49145e-13 0 1.80996e-13)
(2.91906e-13 0 1.94041e-13)
(2.31024e-13 0 2.04405e-13)
(1.67003e-13 0 2.12093e-13)
(1.00604e-13 0 2.17195e-13)
(3.34631e-14 0 2.19806e-13)
(-1.40376e-05 0 9.43693e-05)
(-5.30947e-05 0 0.000119379)
(-0.000103837 0 0.000145079)
(-0.000109141 0 0.000183606)
(-0.000201107 0 0.000201785)
(-0.000460496 0 0.000231537)
(-0.000418714 0 0.000593729)
(-0.00063464 0 0.000645282)
(-0.000792325 0 0.000580743)
(-0.000648733 0 0.000759108)
(-0.000844438 0 0.000596077)
(-0.000899295 0 0.000682834)
(-0.0010046 0 0.000652074)
(-0.00111967 0 0.000498899)
(-0.00116155 0 0.000435922)
(-0.00118336 0 0.000378294)
(-0.00121149 0 2.63678e-05)
(-0.00117554 0 5.98029e-05)
(-0.00117972 0 0.000104963)
(-0.00118295 0 1.29978e-05)
(-0.0012395 0 -4.6411e-05)
(-0.00124802 0 -8.61758e-05)
(-0.00115526 0 -0.000237956)
(-0.00110406 0 -0.000338333)
(-0.00106679 0 -0.000391491)
(-0.000973394 0 -0.000557104)
(-0.000863631 0 -0.000710613)
(-0.000875791 0 -0.000658483)
(-0.000653971 0 -0.000787872)
(-0.000362121 0 -0.000859777)
(-0.000461461 0 -0.000716241)
(-0.000300836 0 -0.000746765)
(-0.000223538 0 -0.000690232)
(-0.000128752 0 -0.000608234)
(-1.24641e-05 0 -0.000526648)
(1.73442e-05 0 -0.000457715)
(0.000177977 0 -0.00034857)
(0.000108936 0 -0.000456941)
(0.000414342 0 -0.000154293)
(0.000325565 0 -0.000213981)
(0.000375274 0 -0.00014951)
(0.000449747 0 -1.6979e-05)
(0.000468819 0 0.000161451)
(0.000430741 0 0.000266777)
(0.000412215 0 0.000323813)
(0.000419048 0 0.000346219)
(0.000413716 0 0.000331197)
(0.000286991 0 0.000378494)
(0.000124309 0 0.000389727)
(2.90141e-05 0 0.00036158)
(-3.25862e-05 0 0.000336253)
(-9.58826e-05 0 0.000302699)
(-0.000135318 0 0.000261321)
(-0.000152808 0 0.000229077)
(-0.000213493 0 0.000175384)
(-0.00025173 0 0.000126847)
(-0.00027107 0 6.41477e-05)
(-0.000273551 0 1.12279e-05)
(-0.000271786 0 -2.18082e-05)
(-0.000250782 0 -0.000110702)
(-0.000260413 0 -0.00013114)
(-0.000184931 0 -0.000231692)
(-0.000117934 0 -0.000313466)
(6.05074e-06 0 -0.000412382)
(7.73594e-05 0 -0.000557284)
(0.000165063 0 -0.000565837)
(0.000189959 0 -0.000526059)
(0.000254931 0 -0.000451293)
(0.000143914 0 -0.000486894)
(0.000321261 0 -0.000262924)
(0.000247713 0 -0.000309338)
(0.000346876 0 -0.00014655)
(0.000382158 0 1.14652e-05)
(0.000387112 0 6.5696e-05)
(0.000403982 0 0.000133513)
(0.000347187 0 0.000279814)
(0.000318738 0 0.000291691)
(0.000213471 0 0.000305746)
(0.000195564 0 0.000315731)
(-0.00022709 0 0.000270886)
(4.18033e-06 0 0.000487787)
(3.88959e-13 0 1.69111e-12)
(9.08244e-14 0 7.34276e-13)
(1.21046e-12 0 5.83385e-13)
(1.138e-12 0 5.10393e-13)
(1.05877e-12 0 4.85543e-13)
(9.61354e-13 0 4.79095e-13)
(8.49311e-13 0 4.69727e-13)
(7.31435e-13 0 4.47254e-13)
(6.16951e-13 0 4.08381e-13)
(5.14651e-13 0 3.546e-13)
(4.30457e-13 0 2.89756e-13)
(3.68335e-13 0 2.18734e-13)
(3.29655e-13 0 1.46584e-13)
(3.12642e-13 0 7.7904e-14)
(3.13908e-13 0 1.65144e-14)
(3.29985e-13 0 -3.48941e-14)
(3.57953e-13 0 -7.49442e-14)
(3.94913e-13 0 -1.0308e-13)
(4.36964e-13 0 -1.19303e-13)
(4.79778e-13 0 -1.24105e-13)
(5.2002e-13 0 -1.18682e-13)
(5.55706e-13 0 -1.0483e-13)
(5.85424e-13 0 -8.43103e-14)
(6.07635e-13 0 -5.84252e-14)
(6.20895e-13 0 -2.82514e-14)
(6.24577e-13 0 4.9338e-15)
(6.19093e-13 0 3.95686e-14)
(6.05276e-13 0 7.40935e-14)
(5.83606e-13 0 1.07287e-13)
(5.54089e-13 0 1.384e-13)
(5.16766e-13 0 1.67057e-13)
(4.722e-13 0 1.93072e-13)
(4.2143e-13 0 2.16287e-13)
(3.6555e-13 0 2.36492e-13)
(3.05368e-13 0 2.5346e-13)
(2.41456e-13 0 2.67019e-13)
(1.74419e-13 0 2.77117e-13)
(1.0507e-13 0 2.83808e-13)
(3.49667e-14 0 2.87169e-13)
(-7.36681e-06 0 0.000126721)
(-2.26583e-05 0 0.000186702)
(-3.67436e-05 0 0.000222306)
(-0.000174422 0 0.0002536)
(-0.000116293 0 0.000411742)
(-0.000502507 0 0.000411132)
(-0.000518239 0 0.000641953)
(-0.0005456 0 0.000781655)
(-0.000582506 0 0.000793134)
(-0.000620296 0 0.000768694)
(-0.000726685 0 0.000706023)
(-0.00081315 0 0.000769074)
(-0.000882755 0 0.000767586)
(-0.000906427 0 0.000741246)
(-0.00093482 0 0.000609357)
(-0.000937635 0 0.000526228)
(-0.0010535 0 0.000277281)
(-0.00111227 0 0.000179083)
(-0.00112585 0 0.000133921)
(-0.00107594 0 -0.000322325)
(-0.00106404 0 -0.000158847)
(-0.0010641 0 -0.000141485)
(-0.00106619 0 -0.000151246)
(-0.00103222 0 -0.000308882)
(-0.000965064 0 -0.000459248)
(-0.00090179 0 -0.000564931)
(-0.000781596 0 -0.000823699)
(-0.000738678 0 -0.000881683)
(-0.000591759 0 -0.000931517)
(-0.000603573 0 -0.000868861)
(-0.000460727 0 -0.000901553)
(-0.000348599 0 -0.000857079)
(-0.000405089 0 -0.000709641)
(-0.000269657 0 -0.000660388)
(-0.000224987 0 -0.000585045)
(-0.000107439 0 -0.000528226)
(-9.02389e-05 0 -0.000510767)
(4.0332e-05 0 -0.000471975)
(0.000296241 0 -0.000257325)
(0.000181662 0 -0.000271632)
(0.000277235 0 -0.000204849)
(0.00035937 0 1.90042e-05)
(0.000362942 0 0.00015183)
(0.000374812 0 0.000251672)
(0.000437459 0 0.000246851)
(0.000444051 0 0.000387414)
(0.000341563 0 0.000516818)
(0.000311513 0 0.000491212)
(0.000189534 0 0.000477934)
(8.17577e-05 0 0.000446222)
(6.81631e-06 0 0.000401609)
(-3.08102e-05 0 0.000350122)
(-7.22527e-05 0 0.000295608)
(-0.000115216 0 0.000251446)
(-0.000120678 0 0.000215451)
(-0.000164847 0 0.000162174)
(-0.000176186 0 0.000100073)
(-0.000186171 0 4.2683e-05)
(-0.000215509 0 -3.12286e-05)
(-0.000190654 0 -0.000106387)
(-0.000184357 0 -0.000165676)
(-0.000160305 0 -0.000256733)
(-0.000119139 0 -0.000373011)
(-1.8786e-05 0 -0.000538127)
(4.58645e-05 0 -0.000638936)
(0.000106338 0 -0.000600566)
(9.64091e-05 0 -0.000544383)
(9.18268e-05 0 -0.000460259)
(2.58548e-05 0 -0.000410199)
(0.000159416 0 -0.000288592)
(7.50969e-05 0 -0.000295684)
(0.000167929 0 -7.23318e-05)
(0.000192486 0 -8.43512e-06)
(0.000220219 0 9.23978e-05)
(0.000244919 0 0.00018715)
(0.000271605 0 0.000272686)
(0.000217807 0 0.000336456)
(0.000185163 0 0.000328055)
(0.000257984 0 0.000276624)
(-0.000196786 0 0.000314219)
(4.28468e-06 0 0.00060057)
(2.10459e-13 0 2.0779e-12)
(-1.17593e-13 0 7.99275e-13)
(1.08731e-12 0 6.07013e-13)
(1.09251e-12 0 5.49894e-13)
(1.05223e-12 0 5.61539e-13)
(9.61177e-13 0 5.87215e-13)
(8.36507e-13 0 5.95695e-13)
(6.98837e-13 0 5.75201e-13)
(5.64569e-13 0 5.25937e-13)
(4.46426e-13 0 4.53156e-13)
(3.52079e-13 0 3.64534e-13)
(2.85834e-13 0 2.68186e-13)
(2.48674e-13 0 1.71394e-13)
(2.38096e-13 0 8.0308e-14)
(2.49612e-13 0 -7.83528e-18)
(2.78292e-13 0 -6.60472e-14)
(3.19899e-13 0 -1.16169e-13)
(3.70633e-13 0 -1.5004e-13)
(4.2594e-13 0 -1.68181e-13)
(4.80911e-13 0 -1.71651e-13)
(5.31633e-13 0 -1.62125e-13)
(5.75854e-13 0 -1.41867e-13)
(6.12369e-13 0 -1.13221e-13)
(6.39947e-13 0 -7.81547e-14)
(6.57163e-13 0 -3.83258e-14)
(6.63169e-13 0 4.59376e-15)
(6.58256e-13 0 4.87899e-14)
(6.43459e-13 0 9.25032e-14)
(6.19722e-13 0 1.34332e-13)
(5.87546e-13 0 1.73388e-13)
(5.47306e-13 0 2.09233e-13)
(4.99679e-13 0 2.41662e-13)
(4.45674e-13 0 2.70506e-13)
(3.86319e-13 0 2.95536e-13)
(3.22432e-13 0 3.16495e-13)
(2.54681e-13 0 3.33198e-13)
(1.83792e-13 0 3.456e-13)
(1.10657e-13 0 3.53775e-13)
(3.68247e-14 0 3.57832e-13)
(-7.5878e-05 0 0.000181112)
(-0.000211708 0 0.000154867)
(-0.000148731 0 0.000242659)
(-0.000316651 0 0.000264404)
(-0.000346025 0 0.000390061)
(-6.82072e-05 0 0.000715747)
(-0.000496707 0 0.000697062)
(-0.00051117 0 0.000788964)
(-0.000554881 0 0.000803042)
(-0.000544477 0 0.000831026)
(-0.000628805 0 0.000804134)
(-0.000789216 0 0.000776936)
(-0.000846888 0 0.000749797)
(-0.000932688 0 0.000589091)
(-0.000985313 0 0.000304592)
(-0.000923877 0 0.000304204)
(-0.000942824 0 0.000246108)
(-0.000994994 0 0.000157506)
(-0.00100928 0 0.00011122)
(-0.00101797 0 -5.65853e-05)
(-0.001001 0 -0.000211163)
(-0.000975869 0 -0.00020664)
(-0.000960026 0 -0.00025265)
(-0.000948847 0 -0.000334206)
(-0.000866921 0 -0.000516142)
(-0.000764102 0 -0.00073719)
(-0.000799006 0 -0.000812352)
(-0.00074612 0 -0.00090527)
(-0.000711066 0 -0.000940189)
(-0.00062238 0 -0.000979517)
(-0.000517019 0 -0.000990799)
(-0.000530896 0 -0.00085785)
(-0.000418953 0 -0.000776654)
(-0.000424816 0 -0.000675462)
(-0.000310926 0 -0.000639215)
(-0.00025154 0 -0.000592329)
(-0.000164848 0 -0.00055394)
(-0.000204776 0 -0.000509931)
(1.90848e-05 0 -0.000435605)
(3.52884e-05 0 -0.000373029)
(0.000208712 0 -0.000208952)
(0.00020127 0 -4.67631e-05)
(0.000229327 0 5.11079e-05)
(0.000293316 0 0.00016845)
(0.000403696 0 0.000209367)
(0.000387865 0 0.000430758)
(0.000303565 0 0.000551904)
(0.000262434 0 0.000577283)
(0.000238706 0 0.00055847)
(0.000182197 0 0.000509447)
(7.98113e-05 0 0.000458024)
(2.72001e-05 0 0.000394474)
(-1.31971e-05 0 0.000335563)
(-4.16167e-05 0 0.000279785)
(-7.80124e-05 0 0.000233051)
(-0.000101298 0 0.000185506)
(-0.000114964 0 0.00012299)
(-0.00013586 0 5.88763e-05)
(-0.000168819 0 -1.42787e-05)
(-0.000170966 0 -8.88326e-05)
(-0.00015476 0 -0.000173365)
(-0.000144503 0 -0.000284241)
(-0.000102086 0 -0.000431163)
(-5.68421e-05 0 -0.000602424)
(8.41152e-06 0 -0.00065008)
(-0.000108411 0 -0.000628125)
(-1.88631e-05 0 -0.000560533)
(2.2412e-05 0 -0.000456673)
(-5.6018e-05 0 -0.000381304)
(-2.03611e-05 0 -0.000335836)
(-4.29522e-05 0 -0.000277558)
(-1.51756e-06 0 -0.000112147)
(1.69736e-05 0 -2.69178e-05)
(7.19047e-05 0 3.16841e-05)
(0.000133062 0 0.000134429)
(4.33172e-05 0 0.000327822)
(0.000103138 0 0.000336334)
(7.13362e-05 0 0.00033421)
(0.000152878 0 0.000325471)
(-0.00032038 0 0.00032288)
(4.55583e-06 0 0.000716041)
(-1.09709e-13 0 2.48366e-12)
(-4.28597e-13 0 7.02675e-13)
(9.6147e-13 0 4.96825e-13)
(1.09278e-12 0 5.22145e-13)
(1.09617e-12 0 6.24585e-13)
(9.9551e-13 0 7.12704e-13)
(8.37297e-13 0 7.51047e-13)
(6.61677e-13 0 7.33125e-13)
(4.94905e-13 0 6.67564e-13)
(3.53248e-13 0 5.67196e-13)
(2.45487e-13 0 4.45817e-13)
(1.75194e-13 0 3.16092e-13)
(1.41777e-13 0 1.88283e-13)
(1.41241e-13 0 7.02509e-14)
(1.67552e-13 0 -3.19149e-14)
(2.13824e-13 0 -1.14147e-13)
(2.7396e-13 0 -1.74687e-13)
(3.429e-13 0 -2.13642e-13)
(4.15353e-13 0 -2.32269e-13)
(4.85834e-13 0 -2.32355e-13)
(5.49804e-13 0 -2.16288e-13)
(6.04609e-13 0 -1.87071e-13)
(6.49136e-13 0 -1.47878e-13)
(6.8253e-13 0 -1.01541e-13)
(7.03643e-13 0 -5.04127e-14)
(7.11693e-13 0 3.45333e-15)
(7.07003e-13 0 5.81305e-14)
(6.90818e-13 0 1.11846e-13)
(6.64492e-13 0 1.6314e-13)
(6.2899e-13 0 2.10992e-13)
(5.8504e-13 0 2.54799e-13)
(5.33473e-13 0 2.94226e-13)
(4.75305e-13 0 3.29034e-13)
(4.11539e-13 0 3.58985e-13)
(3.43029e-13 0 3.83872e-13)
(2.70561e-13 0 4.0359e-13)
(1.94995e-13 0 4.18179e-13)
(1.17301e-13 0 4.2778e-13)
(3.90238e-14 0 4.32547e-13)
(-9.37897e-06 0 0.000277511)
(-5.82204e-05 0 0.000309954)
(-0.000224241 0 0.000302604)
(-0.000297378 0 0.000423487)
(-0.000447138 0 0.000533861)
(-0.000432042 0 0.000673494)
(-0.000605946 0 0.000662396)
(-0.000473574 0 0.00081565)
(-0.000507404 0 0.000832165)
(-0.000593563 0 0.000800516)
(-0.000576543 0 0.00087076)
(-0.000633437 0 0.000894952)
(-0.000654215 0 0.000886756)
(-0.000691288 0 0.000804797)
(-0.000750396 0 0.000653937)
(-0.000773988 0 0.000509693)
(-0.000793873 0 0.000370984)
(-0.000847544 0 0.000182528)
(-0.000856031 0 8.27729e-05)
(-0.000880139 0 -7.72993e-05)
(-0.000912191 0 -0.000147238)
(-0.000915519 0 -0.000155009)
(-0.000883404 0 -0.000294976)
(-0.000872128 0 -0.000328575)
(-0.000720083 0 -0.000628534)
(-0.000780021 0 -0.000693832)
(-0.000779885 0 -0.000833226)
(-0.000710662 0 -0.000968043)
(-0.000663589 0 -0.00102379)
(-0.000637999 0 -0.0010395)
(-0.000596826 0 -0.00101282)
(-0.00055297 0 -0.000907539)
(-0.00054301 0 -0.000796994)
(-0.000465443 0 -0.000749179)
(-0.000357982 0 -0.000716226)
(-0.000304317 0 -0.00066169)
(-0.000245779 0 -0.00062691)
(-0.000161978 0 -0.000595463)
(-0.000148537 0 -0.000546539)
(-8.23009e-05 0 -0.000467922)
(9.34222e-05 0 -0.000272995)
(8.40459e-05 0 -7.41529e-05)
(0.000116954 0 1.7533e-05)
(0.000204176 0 9.98336e-05)
(0.00028856 0 0.000213859)
(0.000307402 0 0.000420309)
(0.000279124 0 0.000540956)
(0.000190323 0 0.000614123)
(0.000172847 0 0.000620142)
(0.000168124 0 0.000587587)
(0.000139666 0 0.000513622)
(8.81748e-05 0 0.000441704)
(3.99413e-05 0 0.000381968)
(1.78865e-05 0 0.000314234)
(-1.2192e-05 0 0.00025261)
(-3.77727e-05 0 0.000196099)
(-7.56124e-05 0 0.000148556)
(-8.28822e-05 0 7.00503e-05)
(-0.000132888 0 1.39585e-05)
(-0.000168045 0 -9.49414e-05)
(-0.000163148 0 -0.000179019)
(-0.000152452 0 -0.000295441)
(-0.000145213 0 -0.000468731)
(-9.9802e-05 0 -0.000609154)
(-0.000220716 0 -0.000621407)
(-0.000267203 0 -0.000605314)
(-0.000300333 0 -0.000583939)
(-0.000218999 0 -0.000491324)
(-0.00017294 0 -0.000376175)
(-0.00026582 0 -0.000348033)
(-0.000198276 0 -0.000255015)
(-0.000166254 0 -0.000185458)
(-0.000186309 0 -3.62402e-05)
(-0.000212061 0 3.77861e-05)
(-6.78009e-05 0 0.000152704)
(5.78894e-06 0 0.000246336)
(5.16488e-05 0 0.000273052)
(-7.88444e-05 0 0.000337449)
(0.000237215 0 0.000287239)
(-0.000394215 0 0.000306755)
(4.68093e-06 0 0.000791358)
(-5.55846e-13 0 2.69106e-12)
(-8.82028e-13 0 2.24565e-13)
(9.07148e-13 0 1.55456e-13)
(1.22048e-12 0 4.16782e-13)
(1.24283e-12 0 6.99861e-13)
(1.08764e-12 0 8.86519e-13)
(8.56927e-13 0 9.60108e-13)
(6.15354e-13 0 9.37246e-13)
(3.9864e-13 0 8.4299e-13)
(2.24679e-13 0 7.01875e-13)
(1.00974e-13 0 5.35665e-13)
(2.83002e-14 0 3.62319e-13)
(2.83232e-15 0 1.95458e-13)
(1.78979e-14 0 4.48239e-14)
(6.5215e-14 0 -8.266e-14)
(1.35521e-13 0 -1.82789e-13)
(2.20403e-13 0 -2.53961e-13)
(3.1305e-13 0 -2.96939e-13)
(4.07228e-13 0 -3.14062e-13)
(4.96892e-13 0 -3.08279e-13)
(5.76917e-13 0 -2.83042e-13)
(6.44265e-13 0 -2.42304e-13)
(6.97898e-13 0 -1.90119e-13)
(7.37412e-13 0 -1.30157e-13)
(7.62157e-13 0 -6.54825e-14)
(7.71712e-13 0 1.38878e-15)
(7.66648e-13 0 6.83254e-14)
(7.48468e-13 0 1.33491e-13)
(7.18868e-13 0 1.9537e-13)
(6.79205e-13 0 2.5283e-13)
(6.3054e-13 0 3.05131e-13)
(5.73914e-13 0 3.51836e-13)
(5.10433e-13 0 3.92682e-13)
(4.41157e-13 0 4.27501e-13)
(3.67037e-13 0 4.56213e-13)
(2.88987e-13 0 4.78861e-13)
(2.07981e-13 0 4.95608e-13)
(1.25025e-13 0 5.06668e-13)
(4.15923e-14 0 5.12221e-13)
(-6.86841e-05 0 0.000330613)
(-6.3621e-05 0 0.000377665)
(-0.000137156 0 0.000418402)
(-0.000221305 0 0.000515763)
(-0.000240117 0 0.00068716)
(-0.000379083 0 0.000744698)
(-0.00040509 0 0.000806213)
(-0.000460693 0 0.000820213)
(-0.000441225 0 0.000873874)
(-0.000496387 0 0.000865715)
(-0.000522167 0 0.000899958)
(-0.000574983 0 0.000920757)
(-0.000564213 0 0.000919973)
(-0.000706004 0 0.000716633)
(-0.000759665 0 0.00053474)
(-0.000776077 0 0.000357683)
(-0.000729586 0 0.000257779)
(-0.000697775 0 0.000227739)
(-0.000724502 0 0.000108449)
(-0.000784584 0 -0.000113426)
(-0.000792681 0 -0.000158495)
(-0.000790145 0 -0.000201404)
(-0.000805835 0 -0.000222261)
(-0.000724792 0 -0.000457288)
(-0.000670169 0 -0.000634597)
(-0.000768716 0 -0.000690062)
(-0.00072112 0 -0.000883486)
(-0.000696428 0 -0.00100014)
(-0.000682005 0 -0.00105163)
(-0.000670377 0 -0.00106776)
(-0.000628745 0 -0.00104497)
(-0.000631179 0 -0.000938913)
(-0.00051647 0 -0.000908205)
(-0.000454255 0 -0.000860007)
(-0.000381858 0 -0.000804974)
(-0.000358379 0 -0.000732123)
(-0.000298909 0 -0.000687571)
(-0.000293999 0 -0.00062401)
(-0.000252239 0 -0.000567552)
(-0.000297323 0 -0.000478705)
(-0.000259734 0 -0.000388061)
(-0.000114934 0 -0.000242801)
(-4.17655e-05 0 -0.000129391)
(9.17178e-05 0 0.000122144)
(0.000103708 0 0.000258542)
(4.55942e-05 0 0.000468443)
(9.3084e-05 0 0.000573745)
(0.000124477 0 0.000622711)
(0.000149057 0 0.000611508)
(0.000160204 0 0.000583352)
(0.000152213 0 0.000546358)
(0.000144572 0 0.000492105)
(0.000111174 0 0.000429817)
(6.28117e-05 0 0.000370239)
(5.72608e-05 0 0.000284742)
(1.15083e-05 0 0.000227738)
(-1.83107e-05 0 0.000178142)
(-5.55201e-05 0 0.000126297)
(-7.74545e-05 0 2.95988e-05)
(-0.000143223 0 -4.94997e-05)
(-0.000178476 0 -0.000156141)
(-0.000183283 0 -0.000287114)
(-0.00018493 0 -0.000470355)
(-0.000270646 0 -0.000573615)
(-0.000452161 0 -0.000536423)
(-0.000352287 0 -0.000581296)