/*--------------------------------*- C++ -*----------------------------------*\
  =========                 |
  \\      /  F ield         | OpenFOAM: The Open Source CFD Toolbox
   \\    /   O peration     | Website:  https://openfoam.org
    \\  /    A nd           | Version:  6
     \\/     M anipulation  |
\*---------------------------------------------------------------------------*/
FoamFile
{
    version     2.0;
    format      ascii;
    class       surfaceScalarField;
    location    "2600";
    object      phi;
}
// * * * * * * * * * * * * * * * * * * * * * * * * * * * * * * * * * * * * * //

dimensions      [0 3 -1 0 0 0 0];

internalField   nonuniform List<scalar> 
9440
(
1.99394e-11
-1.99394e-11
9.1386e-12
1.08031e-11
-3.65651e-11
4.57055e-11
-1.0071e-10
6.41463e-11
-2.10326e-10
1.09618e-10
-4.07381e-10
1.97057e-10
-7.06132e-10
2.98754e-10
-1.13483e-09
4.28704e-10
-1.68045e-09
5.45617e-10
-2.10223e-09
4.21783e-10
-2.39539e-09
2.93167e-10
-2.60076e-09
2.05376e-10
-2.74363e-09
1.42865e-10
-2.8409e-09
9.72805e-11
-2.94809e-09
1.07192e-10
-3.02591e-09
7.7812e-11
-3.08189e-09
5.59813e-11
-3.1398e-09
5.79108e-11
-3.18038e-09
4.05862e-11
-3.18891e-09
8.52078e-12
-3.16888e-09
-2.00251e-11
-3.13555e-09
-3.33328e-11
-3.12315e-09
-1.24056e-11
-3.14838e-09
2.52302e-11
-3.183e-09
3.46182e-11
-3.21196e-09
2.89565e-11
-3.1422e-09
-6.97666e-11
-3.00433e-09
-1.37868e-10
-2.75924e-09
-2.4509e-10
-2.56137e-09
-1.97868e-10
-2.40397e-09
-1.57405e-10
-2.20835e-09
-1.95616e-10
-2.01744e-09
-1.90914e-10
-1.77282e-09
-2.4462e-10
-1.48101e-09
-2.91816e-10
-1.15778e-09
-3.23231e-10
-7.23652e-10
-4.34135e-10
-7.91416e-10
6.77589e-11
-5.655e-10
-2.25921e-10
-6.89232e-10
1.23727e-10
-5.29438e-10
-1.59798e-10
-3.35563e-10
-1.93878e-10
-5.57712e-10
2.22147e-10
-7.90309e-10
2.32595e-10
-1.13982e-09
3.49509e-10
-1.5129e-09
3.73077e-10
-1.69675e-09
1.83857e-10
-1.83601e-09
1.39257e-10
-1.95615e-09
1.20138e-10
-2.03793e-09
8.1786e-11
-2.08708e-09
4.91492e-11
-2.07463e-09
-1.24581e-11
-1.99348e-09
-8.11512e-11
-1.84831e-09
-1.45164e-10
-1.69963e-09
-1.48684e-10
-1.5681e-09
-1.31529e-10
-1.45002e-09
-1.18076e-10
-1.25916e-09
-1.9086e-10
-1.00883e-09
-2.50327e-10
-7.88586e-10
-2.20245e-10
-5.18465e-10
-2.70119e-10
-2.21659e-10
-2.96804e-10
7.5233e-11
-2.9689e-10
4.29952e-10
-3.54717e-10
6.34346e-10
-2.04392e-10
1.11167e-09
-4.77318e-10
1.27864e-09
-1.66971e-10
1.28424e-09
-5.60623e-12
1.35261e-09
-6.8361e-11
1.52868e-09
-1.76074e-10
1.47122e-09
5.74587e-11
1.37133e-09
9.98864e-11
1.21489e-09
1.56444e-10
1.06763e-09
1.47258e-10
9.25644e-10
1.41984e-10
8.38747e-10
8.68953e-11
7.34502e-10
1.04244e-10
6.17925e-10
1.16576e-10
5.04312e-10
1.13613e-10
4.09239e-10
9.50755e-11
-9.97531e-15
4.09256e-10
-5.76369e-19
1.72635e-19
8.05983e-20
-6.56967e-19
5.86217e-19
-5.01804e-19
9.42508e-19
-3.54014e-19
1.1756e-18
-2.3068e-19
1.32418e-18
-1.45721e-19
1.42257e-18
-9.52988e-20
1.4947e-18
-6.8938e-20
1.55483e-18
-5.67455e-20
1.6103e-18
-5.16301e-20
1.66396e-18
-4.91692e-20
1.716e-18
-4.68916e-20
1.7651e-18
-4.35783e-20
1.80925e-18
-3.87436e-20
1.84626e-18
-3.23077e-20
1.87418e-18
-2.44162e-20
1.89142e-18
-1.53253e-20
1.89685e-18
-5.32968e-21
1.88987e-18
5.27881e-21
1.87033e-18
1.62408e-20
1.8385e-18
2.73546e-20
1.79506e-18
3.84578e-20
1.74098e-18
4.9369e-20
1.67725e-18
5.98756e-20
1.60473e-18
6.97951e-20
1.52412e-18
7.90323e-20
1.43601e-18
8.75706e-20
1.34096e-18
9.54311e-20
1.23951e-18
1.02646e-19
1.13225e-18
1.09238e-19
1.0198e-18
1.15187e-19
9.02781e-19
1.20402e-19
7.81727e-19
1.24748e-19
6.57111e-19
1.28133e-19
5.29431e-19
1.30596e-19
3.99286e-19
1.3233e-19
2.67341e-19
1.33604e-19
1.34156e-19
1.34626e-19
1.35513e-19
-5.3498e-12
-1.45868e-11
-4.70419e-11
5.24985e-11
-1.49361e-10
1.48027e-10
-2.76225e-10
1.91014e-10
-4.67412e-10
3.0081e-10
-7.51237e-10
4.80886e-10
-1.07213e-09
6.1965e-10
-1.37873e-09
7.3531e-10
-1.67965e-09
8.46547e-10
-2.00833e-09
7.50463e-10
-2.31328e-09
5.98117e-10
-2.51985e-09
4.11953e-10
-2.69413e-09
3.17155e-10
-2.81638e-09
2.19529e-10
-2.90267e-09
1.93482e-10
-3.00181e-09
1.76954e-10
-3.01875e-09
7.29174e-11
-3.11101e-09
1.5017e-10
-3.13831e-09
6.78893e-11
-3.16962e-09
3.98285e-11
-3.21808e-09
2.84273e-11
-3.25262e-09
1.21118e-12
-3.27973e-09
1.46927e-11
-3.30005e-09
4.55519e-11
-3.31826e-09
5.28278e-11
-3.30846e-09
1.91497e-11
-3.25546e-09
-1.2277e-10
-3.159e-09
-2.34324e-10
-3.05608e-09
-3.4801e-10
-2.91306e-09
-3.40891e-10
-2.73975e-09
-3.30721e-10
-2.47343e-09
-4.61943e-10
-2.26717e-09
-3.97174e-10
-2.07309e-09
-4.3871e-10
-1.88947e-09
-4.75442e-10
-1.51849e-09
-6.94221e-10
-1.52981e-09
-4.22822e-10
-1.27874e-09
-1.83314e-10
-1.19223e-09
-3.12443e-10
-8.56061e-10
-2.12448e-10
-6.29937e-10
-3.85926e-10
-7.92385e-10
-3.14347e-11
-8.21028e-10
2.50787e-10
-9.51897e-10
3.63464e-10
-1.22744e-09
6.25049e-10
-1.46447e-09
6.10108e-10
-1.62458e-09
3.43975e-10
-1.75889e-09
2.73564e-10
-1.83858e-09
1.99831e-10
-1.86858e-09
1.11781e-10
-1.84695e-09
2.75215e-11
-1.76212e-09
-9.7293e-11
-1.68994e-09
-1.53328e-10
-1.62706e-09
-2.08052e-10
-1.56085e-09
-2.1489e-10
-1.44682e-09
-2.45555e-10
-1.31844e-09
-2.46455e-10
-1.17134e-09
-3.3796e-10
-9.38348e-10
-4.83316e-10
-7.1784e-10
-4.4075e-10
-4.48059e-10
-5.39897e-10
-1.58593e-10
-5.86267e-10
1.1585e-10
-5.7133e-10
4.67632e-10
-7.06497e-10
6.64872e-10
-4.01629e-10
1.00024e-09
-8.12685e-10
1.2247e-09
-3.91427e-10
1.38711e-09
-1.68014e-10
1.53342e-09
-2.1468e-10
1.62756e-09
-2.70208e-10
1.58894e-09
9.60733e-11
1.50323e-09
1.85595e-10
1.39557e-09
2.64102e-10
1.2307e-09
3.12132e-10
1.05253e-09
3.20151e-10
8.98384e-10
2.41038e-10
7.61188e-10
2.41439e-10
6.3626e-10
2.41506e-10
5.03466e-10
2.46407e-10
3.81987e-10
2.16549e-10
-5.73238e-16
7.9122e-10
-2.32835e-19
2.25679e-18
2.32713e-19
-1.1246e-18
7.32515e-19
-9.9852e-19
1.06565e-18
-6.82347e-19
1.26059e-18
-4.20385e-19
1.3746e-18
-2.54384e-19
1.44893e-18
-1.64124e-19
1.50689e-18
-1.21026e-19
1.55994e-18
-1.03239e-19
1.61276e-18
-9.69733e-20
1.66624e-18
-9.43736e-20
1.71931e-18
-9.13273e-20
1.76993e-18
-8.59e-20
1.81568e-18
-7.73477e-20
1.85416e-18
-6.55679e-20
1.88328e-18
-5.08055e-20
1.90142e-18
-3.34776e-20
1.90746e-18
-1.40599e-20
1.90083e-18
6.98193e-21
1.88144e-18
2.91952e-20
1.8496e-18
5.21125e-20
1.80597e-18
7.52255e-20
1.75148e-18
9.79937e-20
1.68717e-18
1.19911e-19
1.61397e-18
1.40602e-19
1.53266e-18
1.59872e-19
1.44387e-18
1.7768e-19
1.34817e-18
1.94064e-19
1.2461e-18
2.09029e-19
1.1382e-18
2.22481e-19
1.02502e-18
2.34218e-19
9.07128e-19
2.44035e-19
7.85112e-19
2.51863e-19
6.59574e-19
2.57867e-19
5.31165e-19
2.62413e-19
4.0056e-19
2.65921e-19
2.68364e-19
2.68673e-19
1.35042e-19
2.70691e-19
2.71735e-19
-8.33728e-12
-6.24764e-12
-6.54992e-11
1.09662e-10
-1.83005e-10
2.65535e-10
-2.51904e-10
2.59914e-10
-3.50888e-10
3.99796e-10
-7.31159e-10
8.6116e-10
-1.38388e-09
1.27237e-09
-1.81933e-09
1.17077e-09
-1.95058e-09
9.77801e-10
-2.03245e-09
8.32335e-10
-2.15167e-09
7.17342e-10
-2.44301e-09
7.03303e-10
-2.67511e-09
5.49254e-10
-2.73724e-09
2.81663e-10
-2.79367e-09
2.49914e-10
-2.97173e-09
3.55014e-10
-3.02047e-09
1.21662e-10
-3.12391e-09
2.53607e-10
-3.19803e-09
1.42013e-10
-3.26937e-09
1.11162e-10
-3.34909e-09
1.08149e-10
-3.39657e-09
4.86936e-11
-3.42939e-09
4.75051e-11
-3.4318e-09
4.79619e-11
-3.41683e-09
3.78592e-11
-3.36137e-09
-3.63161e-11
-3.2941e-09
-1.90039e-10
-3.22234e-09
-3.06087e-10
-3.20228e-09
-3.68066e-10
-3.12263e-09
-4.20543e-10
-2.98117e-09
-4.72185e-10
-2.62597e-09
-8.17146e-10
-2.52813e-09
-4.9502e-10
-2.36913e-09
-5.97722e-10
-2.16569e-09
-6.7888e-10
-2.07548e-09
-7.84445e-10
-2.05722e-09
-4.41086e-10
-1.68968e-09
-5.50857e-10
-1.52339e-09
-4.78743e-10
-1.26812e-09
-4.67715e-10
-1.29212e-09
-3.61939e-10
-1.22931e-09
-9.42403e-11
-1.10818e-09
1.29654e-10
-1.02999e-09
2.85276e-10
-1.15858e-09
7.53642e-10
-1.27914e-09
7.30668e-10
-1.49782e-09
5.62653e-10
-1.64878e-09
4.24526e-10
-1.7221e-09
2.73153e-10
-1.68623e-09
7.5912e-11
-1.63114e-09
-2.7569e-11
-1.48934e-09
-2.39099e-10
-1.45291e-09
-1.89757e-10
-1.39468e-09
-2.66284e-10
-1.35853e-09
-2.51043e-10
-1.33802e-09
-2.66061e-10
-1.28621e-09
-2.98269e-10
-1.18105e-09
-4.43118e-10
-9.63264e-10
-7.01099e-10
-7.55508e-10
-6.48504e-10
-4.90871e-10
-8.04534e-10
-2.30216e-10
-8.4692e-10
4.05149e-11
-8.42061e-10
3.3631e-10
-1.00229e-09
7.42501e-10
-8.0782e-10
9.37947e-10
-1.00813e-09
1.22845e-09
-6.81933e-10
1.4265e-09
-3.66061e-10
1.54779e-09
-3.35974e-10
1.60808e-09
-3.30496e-10
1.63731e-09
6.68413e-11
1.51574e-09
3.07162e-10
1.38522e-09
3.94622e-10
1.26698e-09
4.3037e-10
1.12482e-09
4.6231e-10
9.37888e-10
4.27972e-10
7.84264e-10
3.95064e-10
6.3487e-10
3.90904e-10
5.07466e-10
3.73819e-10
3.63074e-10
3.60956e-10
1.02204e-16
1.1543e-09
-9.98787e-19
2.56769e-18
3.59484e-19
-2.48121e-18
1.04935e-18
-1.68624e-18
1.32828e-18
-9.58609e-19
1.42674e-18
-5.1588e-19
1.46486e-18
-2.89366e-19
1.49203e-18
-1.87997e-19
1.52468e-18
-1.50179e-19
1.56621e-18
-1.40904e-19
1.61536e-18
-1.41698e-19
1.66928e-18
-1.43294e-19
1.72474e-18
-1.41355e-19
1.77849e-18
-1.3413e-19
1.82746e-18
-1.21183e-19
1.86892e-18
-1.02763e-19
1.9006e-18
-7.94938e-20
1.92083e-18
-5.21946e-20
1.9285e-18
-2.17503e-20
1.92305e-18
1.09833e-20
1.90436e-18
4.52154e-20
1.87272e-18
8.02256e-20
1.82874e-18
1.15335e-19
1.7734e-18
1.49857e-19
1.70786e-18
1.83115e-19
1.63324e-18
2.14545e-19
1.55047e-18
2.43775e-19
1.46026e-18
2.70618e-19
1.36314e-18
2.94997e-19
1.25955e-18
3.16865e-19
1.14994e-18
3.36171e-19
1.03483e-18
3.52852e-19
9.14956e-19
3.66891e-19
7.91116e-19
3.78382e-19
6.6412e-19
3.87572e-19
5.34673e-19
3.94821e-19
4.03312e-19
4.00475e-19
2.70381e-19
4.04731e-19
1.36087e-19
4.0757e-19
4.08955e-19
-4.83736e-11
4.21268e-11
-6.39972e-11
1.25285e-10
-1.87677e-10
3.89214e-10
-4.50979e-10
5.23217e-10
-6.51034e-10
5.99852e-10
-5.98298e-10
8.08425e-10
-7.4498e-10
1.41905e-09
-1.2289e-09
1.65469e-09
-1.64819e-09
1.39709e-09
-2.03875e-09
1.22289e-09
-2.13347e-09
8.12066e-10
-2.29778e-09
8.67615e-10
-2.56245e-09
8.13927e-10
-2.66652e-09
3.85739e-10
-2.73632e-09
3.19718e-10
-2.95788e-09
5.76574e-10
-3.03654e-09
2.0033e-10
-3.11432e-09
3.31384e-10
-3.2013e-09
2.28994e-10
-3.26806e-09
1.77931e-10
-3.36391e-09
2.03998e-10
-3.42631e-09
1.11092e-10
-3.4838e-09
1.04994e-10
-3.50991e-09
7.40759e-11
-3.48778e-09
1.57275e-11
-3.40878e-09
-1.15317e-10
-3.3545e-09
-2.44323e-10
-3.2414e-09
-4.19188e-10
-3.17974e-09
-4.29727e-10
-3.08888e-09
-5.11404e-10
-2.93913e-09
-6.21941e-10
-2.86403e-09
-8.92257e-10
-2.7073e-09
-6.5175e-10
-2.53479e-09
-7.70234e-10
-2.35584e-09
-8.57839e-10
-2.29574e-09
-8.44554e-10
-2.17477e-09
-5.6206e-10
-2.01782e-09
-7.07805e-10
-1.77722e-09
-7.19351e-10
-1.66496e-09
-5.79977e-10
-1.63302e-09
-3.93881e-10
-1.46787e-09
-2.59388e-10
-1.38926e-09
5.10469e-11
-1.31753e-09
2.13544e-10
-1.43482e-09
8.70938e-10
-1.27232e-09
5.68163e-10
-1.37224e-09
6.62575e-10
-1.46778e-09
5.20071e-10
-1.49599e-09
3.01364e-10
-1.41035e-09
-9.7263e-12
-1.38227e-09
-5.56467e-11
-1.3507e-09
-2.70671e-10
-1.32822e-09
-2.12244e-10
-1.31059e-09
-2.83917e-10
-1.28021e-09
-2.81422e-10
-1.2466e-09
-2.99668e-10
-1.1944e-09
-3.50474e-10
-1.13468e-09
-5.02837e-10
-1.00574e-09
-8.30037e-10
-8.14756e-10
-8.39489e-10
-5.99442e-10
-1.01985e-09
-3.90487e-10
-1.05588e-09
-7.94619e-11
-1.15309e-09
1.59676e-10
-1.24143e-09
5.68483e-10
-1.21663e-09
8.15066e-10
-1.25471e-09
1.11518e-09
-9.8205e-10
1.32412e-09
-5.74999e-10
1.39631e-09
-4.08165e-10
1.51244e-09
-4.4662e-10
1.64451e-09
-6.52374e-11
1.54969e-09
4.01991e-10
1.44966e-09
4.94652e-10
1.33958e-09
5.40453e-10
1.14375e-09
6.58133e-10
1.01642e-09
5.55308e-10
7.94299e-10
6.17186e-10
6.17622e-10
5.67579e-10
4.56938e-10
5.34501e-10
2.79014e-10
5.38881e-10
1.54649e-16
1.43332e-09
-1.16719e-18
6.36436e-18
1.15496e-18
-4.80193e-18
1.77754e-18
-2.30802e-18
1.77163e-18
-9.51772e-19
1.65334e-18
-3.96448e-19
1.56623e-18
-2.00863e-19
1.52985e-18
-1.50092e-19
1.53395e-18
-1.52792e-19
1.56542e-18
-1.7088e-19
1.61376e-18
-1.8836e-19
1.67122e-18
-1.98665e-19
1.73196e-18
-1.99459e-19
1.79143e-18
-1.90395e-19
1.84588e-18
-1.72053e-19
1.89219e-18
-1.45464e-19
1.9279e-18
-1.1193e-19
1.95128e-18
-7.2898e-20
1.96124e-18
-2.98272e-20
1.95728e-18
1.59502e-20
1.93937e-18
6.32718e-20
1.90783e-18
1.11148e-19
1.86326e-18
1.58737e-19
1.80666e-18
2.05262e-19
1.73929e-18
2.49942e-19
1.66247e-18
2.92044e-19
1.57731e-18
3.30999e-19
1.48463e-18
3.66465e-19
1.385e-18
3.9832e-19
1.27886e-18
4.26601e-19
1.16662e-18
4.51422e-19
1.04887e-18
4.72916e-19
9.26448e-19
4.91213e-19
8.00306e-19
5.06472e-19
6.71368e-19
5.1892e-19
5.40327e-19
5.28844e-19
4.07568e-19
5.36521e-19
2.73219e-19
5.42131e-19
1.37473e-19
5.45752e-19
5.47506e-19
-1.07785e-10
1.49911e-10
-1.86331e-10
2.03829e-10
-2.64856e-10
4.67738e-10
-5.19517e-10
7.77877e-10
-9.38065e-10
1.0184e-09
-1.24259e-09
1.11295e-09
-1.19979e-09
1.37625e-09
-1.23235e-09
1.68725e-09
-1.49586e-09
1.66061e-09
-1.7685e-09
1.49553e-09
-2.01074e-09
1.05431e-09
-2.14438e-09
1.00127e-09
-2.26457e-09
9.34115e-10
-2.43982e-09
5.60994e-10
-2.67277e-09
5.52679e-10
-2.81639e-09
7.20197e-10
-2.95004e-09
3.33979e-10
-3.02219e-09
4.03535e-10
-3.12456e-09
3.31369e-10
-3.21991e-09
2.7329e-10
-3.27275e-09
2.56837e-10
-3.35075e-09
1.8909e-10
-3.40392e-09
1.58167e-10
-3.42828e-09
9.84426e-11
-3.39086e-09
-2.16923e-11
-3.39519e-09
-1.10992e-10
-3.39435e-09
-2.45161e-10
-3.29546e-09
-5.18086e-10
-3.24387e-09
-4.81318e-10
-3.17292e-09
-5.82362e-10
-3.10813e-09
-6.86736e-10
-3.07906e-09
-9.21333e-10
-2.91312e-09
-8.17686e-10
-2.83626e-09
-8.47101e-10
-2.77885e-09
-9.15255e-10
-2.79797e-09
-8.2544e-10
-2.64657e-09
-7.13458e-10
-2.50054e-09
-8.53838e-10
-2.3044e-09
-9.15493e-10
-2.17246e-09
-7.1192e-10
-2.03116e-09
-5.35175e-10
-1.88658e-09
-4.03969e-10
-1.88695e-09
5.14249e-11
-1.68437e-09
1.09653e-11
-1.50723e-09
6.93798e-10
-1.44554e-09
5.06471e-10
-1.60663e-09
8.23673e-10
-1.41498e-09
3.28421e-10
-1.40241e-09
2.88794e-10
-1.34778e-09
-6.43548e-11
-1.29445e-09
-1.08978e-10
-1.32745e-09
-2.37673e-10
-1.27378e-09
-2.65914e-10
-1.2788e-09
-2.78905e-10
-1.24024e-09
-3.19979e-10
-1.17796e-09
-3.61956e-10
-1.0991e-09
-4.29335e-10
-1.01899e-09
-5.8295e-10
-9.27373e-10
-9.21654e-10
-7.97483e-10
-9.69382e-10
-6.25047e-10
-1.19229e-09
-4.35068e-10
-1.24586e-09
-2.26861e-10
-1.3613e-09
-3.93063e-11
-1.42899e-09
2.17139e-10
-1.47308e-09
4.1378e-10
-1.45136e-09
7.7287e-10
-1.34114e-09
1.14561e-09
-9.47734e-10
1.23094e-09
-4.93498e-10
1.36768e-09
-5.83357e-10
1.44778e-09
-1.45342e-10
1.48691e-09
3.62866e-10
1.43857e-09
5.42993e-10
1.37443e-09
6.046e-10
1.27621e-09
7.56348e-10
1.08486e-09
7.46661e-10
9.15763e-10
7.8629e-10
8.11507e-10
6.71837e-10
6.52528e-10
6.9348e-10
4.9766e-10
6.93749e-10
2.99568e-16
1.93098e-09
-2.02982e-18
-4.06753e-17
3.64908e-18
-1.04805e-17
3.13422e-18
-1.79438e-18
2.32753e-18
-1.45411e-19
1.84894e-18
8.20268e-20
1.617e-18
3.11318e-20
1.52715e-18
-6.01654e-20
1.51586e-18
-1.41675e-19
1.54794e-18
-2.0348e-19
1.60346e-18
-2.44591e-19
1.67043e-18
-2.66192e-19
1.74103e-18
-2.7009e-19
1.80978e-18
-2.58335e-19
1.87247e-18
-2.33054e-19
1.92572e-18
-1.96373e-19
1.96693e-18
-1.5046e-19
1.99435e-18
-9.75377e-20
2.00702e-18
-3.97876e-20
2.0046e-18
2.08527e-20
1.98725e-18
8.27675e-20
1.95542e-18
1.44643e-19
1.90979e-18
2.0544e-19
1.85134e-18
2.64301e-19
1.78139e-18
3.20429e-19
1.70143e-18
3.73055e-19
1.61278e-18
4.21535e-19
1.51649e-18
4.65456e-19
1.41329e-18
5.04682e-19
1.30368e-18
5.39312e-19
1.18811e-18
5.69591e-19
1.06717e-18
5.95799e-19
9.41707e-19
6.18192e-19
8.12754e-19
6.36999e-19
6.81292e-19
6.52454e-19
5.48005e-19
6.64816e-19
4.13178e-19
6.74339e-19
2.7684e-19
6.81223e-19
1.39226e-19
6.85644e-19
6.87809e-19
-8.26244e-11
2.32534e-10
-1.42944e-10
2.64147e-10
-1.28914e-10
4.53707e-10
-2.33455e-10
8.82417e-10
-5.25317e-10
1.31026e-09
-1.07041e-09
1.65805e-09
-1.47382e-09
1.77966e-09
-1.58441e-09
1.79785e-09
-1.60774e-09
1.68394e-09
-1.68081e-09
1.5686e-09
-1.93647e-09
1.30997e-09
-2.09804e-09
1.16284e-09
-2.20316e-09
1.03924e-09
-2.31237e-09
6.70214e-10
-2.55936e-09
7.99667e-10
-2.6071e-09
7.67946e-10
-2.78604e-09
5.12918e-10
-2.90784e-09
5.25344e-10
-3.01571e-09
4.39242e-10
-3.06006e-09
3.17645e-10
-3.1165e-09
3.13281e-10
-3.17748e-09
2.50069e-10
-3.22113e-09
2.0182e-10
-3.2445e-09
1.21813e-10
-3.2569e-09
-9.29006e-12
-3.3179e-09
-4.99989e-11
-3.28437e-09
-2.78686e-10
-3.25573e-09
-5.46737e-10
-3.26553e-09
-4.71522e-10
-3.22812e-09
-6.19777e-10
-3.14998e-09
-7.64881e-10
-3.14271e-09
-9.28606e-10
-3.1039e-09
-8.56503e-10
-3.05371e-09
-8.97287e-10
-3.01265e-09
-9.56318e-10
-2.96583e-09
-8.7226e-10
-2.79853e-09
-8.80767e-10
-2.71743e-09
-9.34931e-10
-2.6847e-09
-9.48226e-10
-2.59958e-09
-7.97043e-10
-2.51648e-09
-6.18269e-10
-2.3887e-09
-5.31752e-10
-2.24124e-09
-9.60299e-11
-2.18061e-09
-4.96664e-11
-1.94384e-09
4.5703e-10
-1.69522e-09
2.57857e-10
-1.55246e-09
6.80909e-10
-1.57239e-09
3.48357e-10
-1.47049e-09
1.86887e-10
-1.39363e-09
-1.41215e-10
-1.36223e-09
-1.4037e-10
-1.41365e-09
-1.8626e-10
-1.33609e-09
-3.43474e-10
-1.31469e-09
-3.00305e-10
-1.20935e-09
-4.25321e-10
-1.10881e-09
-4.62497e-10
-1.01344e-09
-5.24717e-10
-9.45055e-10
-6.51334e-10
-8.05173e-10
-1.06154e-09
-6.85862e-10
-1.0887e-09
-5.3853e-10
-1.33962e-09
-4.29263e-10
-1.35513e-09
-2.93334e-10
-1.49723e-09
-1.00304e-10
-1.62202e-09
1.12518e-10
-1.6859e-09
3.09294e-10
-1.64814e-09
4.5795e-10
-1.4898e-09
7.77483e-10
-1.26727e-09
1.05288e-09
-7.68889e-10
1.20403e-09
-7.34505e-10
1.18833e-09
-1.29646e-10
1.31448e-09
2.36725e-10
1.34213e-09
5.15345e-10
1.29457e-09
6.52167e-10
1.2619e-09
7.89019e-10
1.15601e-09
8.52548e-10
9.65452e-10
9.76852e-10
6.49411e-10
9.87879e-10
5.3501e-10
8.07881e-10
5.82573e-10
6.46185e-10
4.61575e-11
2.46739e-09
4.36762e-17
4.61569e-11
1.23208e-17
2.08572e-17
4.78361e-18
5.74248e-18
2.55555e-18
2.08249e-18
1.79805e-18
8.39712e-19
1.52571e-18
3.03752e-19
1.44564e-18
2.01022e-20
1.45406e-18
-1.50291e-19
1.50682e-18
-2.57115e-19
1.58186e-18
-3.21105e-19
1.66653e-18
-3.52601e-19
1.75278e-18
-3.57833e-19
1.83506e-18
-3.41344e-19
1.90915e-18
-3.06881e-19
1.97163e-18
-2.57743e-19
2.01986e-18
-1.97013e-19
2.0521e-18
-1.27745e-19
2.06766e-18
-5.29494e-20
2.06652e-18
2.46976e-20
2.04912e-18
1.03019e-19
2.01621e-18
1.80317e-19
1.96865e-18
2.55322e-19
1.90746e-18
3.27106e-19
1.83402e-18
3.94931e-19
1.74991e-18
4.58128e-19
1.6567e-18
5.16109e-19
1.55571e-18
5.68465e-19
1.44792e-18
6.15049e-19
1.33396e-18
6.55988e-19
1.21432e-18
6.91606e-19
1.08956e-18
7.22312e-19
9.60514e-19
7.48501e-19
8.28209e-19
7.70515e-19
6.93654e-19
7.88654e-19
5.57528e-19
8.03201e-19
4.20062e-19
8.1441e-19
2.81262e-19
8.22513e-19
1.41391e-19
8.27746e-19
8.30341e-19
-1.63405e-10
3.95938e-10
-2.40799e-10
3.41538e-10
-2.06104e-10
4.19011e-10
-3.71173e-10
1.04749e-09
-4.92234e-10
1.43132e-09
-7.54216e-10
1.92003e-09
-9.58798e-10
1.98425e-09
-1.19405e-09
2.0331e-09
-1.39518e-09
1.88508e-09
-1.43708e-09
1.6105e-09
-1.54782e-09
1.42072e-09
-1.65735e-09
1.27237e-09
-1.8186e-09
1.2005e-09
-2.04765e-09
8.99268e-10
-2.24989e-09
1.00191e-09
-2.37582e-09
8.93881e-10
-2.56644e-09
7.0354e-10
-2.68872e-09
6.47631e-10
-2.71857e-09
4.69101e-10
-2.77994e-09
3.79017e-10
-2.8745e-09
4.07839e-10
-2.92033e-09
2.95902e-10
-2.935e-09
2.16495e-10
-2.96549e-09
1.523e-10
-3.03514e-09
6.03578e-11
-3.13287e-09
4.77277e-11
-3.09594e-09
-3.15612e-10
-3.15356e-09
-4.89119e-10
-3.20644e-09
-4.18649e-10
-3.21565e-09
-6.10579e-10
-3.18254e-09
-7.97993e-10
-3.24554e-09
-8.65605e-10
-3.24252e-09
-8.59528e-10
-3.18265e-09
-9.57162e-10
-3.15042e-09
-9.88549e-10
-3.1241e-09
-8.98581e-10
-3.07103e-09
-9.33839e-10
-3.05678e-09
-9.49181e-10
-3.0761e-09
-9.28898e-10
-3.0229e-09
-8.5024e-10
-2.85655e-09
-7.84625e-10
-2.82997e-09
-5.5833e-10
-2.64203e-09
-2.83971e-10
-2.58017e-09
-1.11527e-10
-2.32412e-09
2.00983e-10
-2.16475e-09
9.84812e-11
-1.73699e-09
2.53151e-10
-1.74376e-09
3.55122e-10
-1.84687e-09
2.89998e-10
-1.57754e-09
-4.10543e-10
-1.50978e-09
-2.08128e-10
-1.49517e-09
-2.00872e-10
-1.41043e-09
-4.28216e-10
-1.20799e-09
-5.02747e-10
-1.09798e-09
-5.35336e-10
-9.62446e-10
-5.98029e-10
-8.43913e-10
-6.43252e-10
-7.32546e-10
-7.62704e-10
-6.61572e-10
-1.13251e-09
-5.78491e-10
-1.17178e-09
-5.04243e-10
-1.41387e-09
-4.75349e-10
-1.38403e-09
-4.01687e-10
-1.5709e-09
-2.58595e-10
-1.76512e-09
-7.33846e-11
-1.87111e-09
1.50419e-10
-1.87194e-09
4.21493e-10
-1.76087e-09
5.87439e-10
-1.43321e-09
7.83999e-10
-9.65447e-10
8.80294e-10
-8.30797e-10
9.07812e-10
-1.5716e-10
9.9442e-10
1.50121e-10
1.08847e-09
4.21296e-10
1.11689e-09
6.23756e-10
1.18831e-09
7.17599e-10
1.04376e-09
9.97093e-10
1.09155e-09
9.29069e-10
1.07493e-09
1.00449e-09
7.60125e-10
1.12269e-09
2.3745e-10
1.16886e-09
1.2721e-10
2.57763e-09
4.13904e-16
1.73366e-10
-1.00431e-18
3.35184e-18
1.12454e-18
3.61295e-18
1.31348e-18
1.89393e-18
1.26209e-18
8.92711e-19
1.24206e-18
3.25976e-19
1.27525e-18
-1.06753e-20
1.34723e-18
-2.20118e-19
1.44284e-18
-3.51338e-19
1.55036e-18
-4.2828e-19
1.6613e-18
-4.6393e-19
1.76927e-18
-4.66422e-19
1.86952e-18
-4.41802e-19
1.95829e-18
-3.95078e-19
2.03236e-18
-3.30623e-19
2.08912e-18
-2.52363e-19
2.12689e-18
-1.6413e-19
2.1453e-18
-6.97761e-20
2.14484e-18
2.71841e-20
2.12642e-18
1.23915e-19
2.09122e-18
2.18285e-19
2.04043e-18
3.08773e-19
1.97529e-18
3.94368e-19
1.89721e-18
4.74408e-19
1.80789e-18
5.48395e-19
1.70906e-18
6.15902e-19
1.6023e-18
6.76612e-19
1.48886e-18
7.30415e-19
1.36957e-18
7.77471e-19
1.24502e-18
8.18181e-19
1.11575e-18
8.53082e-19
9.82527e-19
8.82725e-19
8.46348e-19
9.07602e-19
7.08201e-19
9.28117e-19
5.68737e-19
9.44601e-19
4.28165e-19
9.5733e-19
2.86495e-19
9.6656e-19
1.43986e-19
9.72558e-19
9.75547e-19
-7.93365e-11
4.75274e-10
-3.61364e-10
6.23566e-10
-6.75616e-10
7.33263e-10
-8.99929e-10
1.2718e-09
-9.67003e-10
1.4984e-09
-9.21244e-10
1.87427e-09
-1.0049e-09
2.06791e-09
-1.11706e-09
2.14526e-09
-1.30822e-09
2.07624e-09
-1.50437e-09
1.80665e-09
-1.69943e-09
1.61578e-09
-1.77849e-09
1.35144e-09
-1.81483e-09
1.23685e-09
-1.95917e-09
1.04361e-09
-1.93313e-09
9.75872e-10
-1.91419e-09
8.74941e-10
-2.10622e-09
8.95569e-10
-2.32265e-09
8.64065e-10
-2.50508e-09
6.51534e-10
-2.52613e-09
4.00076e-10
-2.59874e-09
4.80455e-10
-2.64816e-09
3.4532e-10
-2.62184e-09
1.90177e-10
-2.68956e-09
2.20019e-10
-2.75464e-09
1.25438e-10
-2.76782e-09
6.08999e-11
-2.87097e-09
-2.12461e-10
-3.06615e-09
-2.93939e-10
-3.06829e-09
-4.16519e-10
-3.12345e-09
-5.55419e-10
-3.22413e-09
-6.97326e-10
-3.27915e-09
-8.10586e-10
-3.28563e-09
-8.53052e-10
-3.24398e-09
-9.98811e-10
-3.25742e-09
-9.75105e-10
-3.19905e-09
-9.5695e-10
-3.16013e-09
-9.72758e-10
-3.16456e-09
-9.44751e-10
-3.19461e-09
-8.98849e-10
-3.23923e-09
-8.05624e-10
-3.27299e-09
-7.50865e-10
-3.22955e-09
-6.01769e-10
-3.02319e-09
-4.90333e-10
-2.82574e-09
-3.08974e-10
-2.49501e-09
-1.29754e-10
-2.32105e-09
-7.54834e-11
-2.11692e-09
4.90242e-11
-2.07783e-09
3.16023e-10
-2.05995e-09
2.72124e-10
-1.86686e-09
-6.03637e-10
-1.57767e-09
-4.97318e-10
-1.38737e-09
-3.91176e-10
-1.34709e-09
-4.68497e-10
-1.05968e-09
-7.90154e-10
-9.6514e-10
-6.29877e-10
-8.10137e-10
-7.53035e-10
-6.73627e-10
-7.79764e-10
-5.32291e-10
-9.04042e-10
-4.68419e-10
-1.19639e-09
-4.09471e-10
-1.23073e-09
-4.35312e-10
-1.38804e-09
-4.46464e-10
-1.37288e-09
-4.2004e-10
-1.59732e-09
-3.34687e-10
-1.85047e-09
-2.14724e-10
-1.99108e-09
-4.07235e-11
-2.04594e-09
2.04903e-10
-2.0065e-09
3.99373e-10
-1.62768e-09
5.58369e-10
-1.12444e-09
5.70353e-10
-8.42777e-10
6.53182e-10
-2.39986e-10
7.18846e-10
8.44606e-11
8.42792e-10
2.97352e-10
9.59657e-10
5.06893e-10
1.10074e-09
5.76516e-10
9.92331e-10
1.1055e-09
1.00275e-09
9.18648e-10
6.88023e-10
1.31922e-09
4.54485e-10
1.35623e-09
3.10443e-10
1.3129e-09
4.29661e-10
2.45841e-09
-1.07997e-15
6.03029e-10
-2.93357e-18
-1.70897e-18
-5.93575e-19
1.27325e-18
3.12997e-19
9.90448e-19
6.95353e-19
5.15079e-19
9.05405e-19
1.21539e-19
1.0658e-18
-1.64884e-19
1.21601e-18
-3.64072e-19
1.36589e-18
-4.95599e-19
1.51471e-18
-5.72786e-19
1.65881e-18
-6.04901e-19
1.79389e-18
-5.99097e-19
1.91624e-18
-5.61725e-19
2.02275e-18
-4.98638e-19
2.11063e-18
-4.15237e-19
2.17736e-18
-3.16263e-19
2.22125e-18
-2.062e-19
2.24226e-18
-8.96395e-20
2.24157e-18
2.90572e-20
2.22079e-18
1.46313e-19
2.18171e-18
2.59511e-19
2.12603e-18
3.66871e-19
2.05533e-18
4.67292e-19
1.9712e-18
5.60182e-19
1.87539e-18
6.45237e-19
1.76977e-18
7.22265e-19
1.6561e-18
7.91136e-19
1.53591e-18
8.51863e-19
1.41028e-18
9.04695e-19
1.27992e-18
9.50133e-19
1.1454e-18
9.88853e-19
1.0074e-18
1.02158e-18
8.66863e-19
1.04895e-18
7.24684e-19
1.0715e-18
5.81466e-19
1.08963e-18
4.37394e-19
1.10365e-18
2.92493e-19
1.11383e-18
1.46976e-19
1.12047e-18
1.12376e-18
-5.46064e-11
5.2988e-10
-1.89655e-10
7.58617e-10
-4.63623e-10
1.00723e-09
-5.9364e-10
1.40182e-09
-9.01158e-10
1.80592e-09
-1.09487e-09
2.06799e-09
-1.22385e-09
2.19689e-09
-1.1942e-09
2.11561e-09
-1.12992e-09
2.01196e-09
-1.12592e-09
1.80265e-09
-1.0947e-09
1.58456e-09
-1.19708e-09
1.45382e-09
-1.28781e-09
1.32758e-09
-1.49448e-09
1.25029e-09
-1.70894e-09
1.19034e-09
-1.83865e-09
1.00465e-09
-1.91117e-09
9.68092e-10
-1.96378e-09
9.16674e-10
-2.01598e-09
7.03735e-10
-2.1687e-09
5.52803e-10
-2.30206e-09
6.13812e-10
-2.34278e-09
3.86041e-10
-2.41438e-09
2.61775e-10
-2.47212e-09
2.77762e-10
-2.52914e-09
1.82455e-10
-2.55619e-09
8.79501e-11
-2.66809e-09
-1.00563e-10
-2.7961e-09
-1.65933e-10
-2.91558e-09
-2.97048e-10
-2.97246e-09
-4.98543e-10
-3.14765e-09
-5.22134e-10
-3.28923e-09
-6.69011e-10
-3.28401e-09
-8.58277e-10
-3.24994e-09
-1.03287e-09
-3.30157e-09
-9.23482e-10
-3.25336e-09
-1.00515e-09
-3.22234e-09
-1.00378e-09
-3.24953e-09
-9.17565e-10
-3.27544e-09
-8.72939e-10
-3.30289e-09
-7.78168e-10
-3.32654e-09
-7.27224e-10
-3.26303e-09
-6.65281e-10
-3.10344e-09
-6.49924e-10
-2.91866e-09
-4.9376e-10
-2.71837e-09
-3.30051e-10
-2.5307e-09
-2.63156e-10
-2.37573e-09
-1.05947e-10
-2.36454e-09
3.04824e-10
-1.98999e-09
-1.02424e-10
-1.84502e-09
-7.48611e-10
-1.49826e-09
-8.44072e-10
-1.29872e-09
-5.90716e-10
-1.16554e-09
-6.01679e-10
-1.00038e-09
-9.55317e-10
-8.31872e-10
-7.98383e-10
-6.95352e-10
-8.89555e-10
-5.32519e-10
-9.42598e-10
-3.18451e-10
-1.11811e-09
-2.39181e-10
-1.27566e-09
-1.72034e-10
-1.29788e-09
-1.90334e-10
-1.36974e-09
-2.37722e-10
-1.32549e-09
-2.78936e-10
-1.55611e-09
-2.27307e-10
-1.9021e-09
-1.41756e-10
-2.07663e-09
-3.45192e-11
-2.15318e-09
7.58479e-11
-2.11686e-09
2.01766e-10
-1.7536e-09
3.42523e-10
-1.2652e-09
3.75118e-10
-8.75371e-10
5.28349e-10
-3.93214e-10
5.61829e-10
5.09824e-11
6.62103e-10
1.97077e-10
7.5874e-10
4.10256e-10
7.68899e-10
5.66355e-10
8.53081e-10
1.02132e-09
8.13673e-10
9.58055e-10
6.88078e-10
1.44481e-09
5.68308e-10
1.476e-09
3.92423e-10
1.48879e-09
3.92188e-10
2.45865e-09
-1.57687e-15
9.9522e-10
-1.80613e-18
-6.63123e-19
-8.75552e-19
3.44385e-19
-1.61652e-19
2.82116e-19
3.01813e-19
5.91254e-20
6.18982e-19
-1.87163e-19
8.66615e-19
-4.03234e-19
1.08449e-18
-5.7226e-19
1.28871e-18
-6.90453e-19
1.48259e-18
-7.58713e-19
1.66461e-18
-7.80408e-19
1.83126e-18
-7.60333e-19
1.97933e-18
-7.04564e-19
2.10615e-18
-6.19703e-19
2.2096e-18
-5.12418e-19
2.28742e-18
-3.88504e-19
2.33781e-18
-2.53078e-19
2.36096e-18
-1.11279e-19
2.35882e-18
3.18112e-20
2.33399e-18
1.71861e-19
2.28907e-18
3.05715e-19
2.22645e-18
4.3133e-19
2.14822e-18
5.47544e-19
2.05626e-18
6.5386e-19
1.95242e-18
7.50198e-19
1.83864e-18
8.36655e-19
1.71683e-18
9.13383e-19
1.58874e-18
9.80612e-19
1.45572e-18
1.03875e-18
1.31864e-18
1.08844e-18
1.17812e-18
1.13051e-18
1.03478e-18
1.16584e-18
8.89416e-19
1.19526e-18
7.42814e-19
1.21942e-18
5.95483e-19
1.2388e-18
4.47579e-19
1.25376e-18
2.99126e-19
1.26463e-18
1.50269e-19
1.27169e-18
1.27515e-18
-1.06088e-10
6.35969e-10
-1.83025e-10
8.35557e-10
-2.97582e-10
1.12179e-09
-4.43899e-10
1.54814e-09
-6.13896e-10
1.97592e-09
-7.01344e-10
2.15544e-09
-8.06643e-10
2.30219e-09
-9.62342e-10
2.27131e-09
-1.0684e-09
2.11803e-09
-1.19218e-09
1.92642e-09
-1.30889e-09
1.70127e-09
-1.35132e-09
1.49626e-09
-1.36084e-09
1.33711e-09
-1.31272e-09
1.20216e-09
-1.26677e-09
1.14438e-09
-1.31871e-09
1.0566e-09
-1.47568e-09
1.12507e-09
-1.66334e-09
1.10433e-09
-1.77076e-09
8.11155e-10
-1.95739e-09
7.39431e-10
-2.02978e-09
6.86207e-10
-2.07158e-09
4.27839e-10
-2.2245e-09
4.14691e-10
-2.29731e-09
3.50578e-10
-2.34831e-09
2.33447e-10
-2.37929e-09
1.18934e-10
-2.43049e-09
-4.93717e-11
-2.5411e-09
-5.53252e-11
-2.7798e-09
-5.83463e-11
-2.85752e-09
-4.20827e-10
-2.85569e-09
-5.23966e-10
-2.99209e-09
-5.32609e-10
-3.03731e-09
-8.1306e-10
-3.13972e-09
-9.30463e-10
-3.21176e-09
-8.51438e-10
-3.20026e-09
-1.01666e-09
-3.22516e-09
-9.7888e-10
-3.24332e-09
-8.99403e-10
-3.22859e-09
-8.87674e-10
-3.23054e-09
-7.76215e-10
-3.20666e-09
-7.51108e-10
-3.16673e-09
-7.05219e-10
-3.05875e-09
-7.57907e-10
-2.89723e-09
-6.55285e-10
-2.79258e-09
-4.34706e-10
-2.57263e-09
-4.83118e-10
-2.33049e-09
-3.4809e-10
-2.04706e-09
2.13953e-11
-1.75485e-09
-3.94635e-10
-1.49892e-09
-1.00454e-09
-1.37608e-09
-9.66918e-10
-1.20023e-09
-7.66565e-10
-1.03613e-09
-7.65779e-10
-9.87619e-10
-1.00382e-09
-7.19337e-10
-1.06666e-09
-5.52411e-10
-1.05648e-09
-3.08609e-10
-1.1864e-09
-8.13302e-11
-1.34539e-09
2.82053e-12
-1.35981e-09
7.23286e-11
-1.36739e-09
1.48627e-11
-1.31227e-09
-5.90183e-11
-1.25161e-09
-1.45023e-10
-1.4701e-09
-2.04892e-10
-1.84223e-09
-1.87965e-10
-2.09356e-09
-1.89792e-10
-2.15135e-09
-2.69453e-10
-2.0372e-09
-2.58808e-10
-1.76424e-09
7.60929e-12
-1.53161e-09
1.6307e-10
-1.03083e-09
3.50721e-10
-5.80864e-10
4.48766e-10
-4.70631e-11
5.06706e-10
1.39136e-10
5.82852e-10
3.34108e-10
5.90288e-10
5.58918e-10
7.27883e-10
8.83721e-10
6.46815e-10
1.03912e-09
6.52847e-10
1.43878e-09
5.12344e-10
1.6165e-09
4.61943e-10
1.53919e-09
5.12874e-10
2.40772e-09
-1.14841e-15
1.5081e-09
-1.52922e-18
5.7378e-20
-9.37031e-19
-2.4446e-19
-3.83958e-19
-2.65033e-19
5.55249e-20
-3.72944e-19
4.0291e-19
-5.26677e-19
6.97589e-19
-6.89162e-19
9.66293e-19
-8.31433e-19
1.22045e-18
-9.35022e-19
1.4609e-18
-9.90928e-19
1.68468e-18
-9.97417e-19
1.88703e-18
-9.5721e-19
2.06419e-18
-8.76425e-19
2.21343e-18
-7.62799e-19
2.33351e-18
-6.248e-19
2.42285e-18
-4.6992e-19
2.47961e-18
-3.04229e-19
2.50405e-18
-1.33305e-19
2.49887e-18
3.73148e-20
2.46784e-18
2.02701e-19
2.41468e-18
3.59181e-19
2.34267e-18
5.0445e-19
2.25454e-18
6.37334e-19
2.15259e-18
7.57502e-19
2.03888e-18