/*--------------------------------*- C++ -*----------------------------------*\
  =========                 |
  \\      /  F ield         | OpenFOAM: The Open Source CFD Toolbox
   \\    /   O peration     | Website:  https://openfoam.org
    \\  /    A nd           | Version:  6
     \\/     M anipulation  |
\*---------------------------------------------------------------------------*/
FoamFile
{
    version     2.0;
    format      ascii;
    class       volScalarField;
    location    "2600";
    object      T;
}
// * * * * * * * * * * * * * * * * * * * * * * * * * * * * * * * * * * * * * //

dimensions      [0 0 0 1 0 0 0];

internalField   nonuniform List<scalar> 
4800
(
552.483
552.35
552.216
552.082
551.949
551.816
551.686
551.558
551.436
551.321
551.215
551.117
551.028
550.947
550.873
550.806
550.744
550.688
550.636
550.588
550.543
550.5
550.459
550.42
550.382
550.345
550.308
550.271
550.235
550.198
550.16
550.121
550.081
550.039
549.995
549.949
549.901
549.85
549.796
549.739
549.678
549.614
549.545
549.472
549.396
549.316
549.234
549.151
549.067
548.982
548.897
548.811
548.726
548.639
548.553
548.466
548.378
548.291
548.203
548.114
548.025
547.935
547.844
547.751
547.655
547.557
547.454
547.347
547.233
547.113
546.986
546.849
546.704
546.55
546.388
546.218
546.042
545.861
545.678
545.495
545.317
545.148
544.992
544.849
544.714
544.586
544.462
544.34
544.22
544.102
543.984
543.867
543.75
543.633
543.516
543.399
543.283
543.166
543.05
542.934
542.817
542.701
542.584
542.468
542.351
542.235
542.119
542.002
541.886
541.77
541.653
541.537
541.421
541.305
541.189
541.072
540.956
540.84
540.724
540.608
552.483
552.35
552.216
552.082
551.948
551.816
551.685
551.558
551.437
551.324
551.218
551.121
551.032
550.951
550.878
550.81
550.749
550.693
550.641
550.593
550.548
550.505
550.464
550.425
550.387
550.35
550.314
550.277
550.241
550.204
550.166
550.127
550.086
550.044
550
549.954
549.905
549.854
549.799
549.742
549.682
549.617
549.549
549.476
549.4
549.322
549.24
549.158
549.074
548.99
548.905
548.82
548.735
548.648
548.562
548.474
548.386
548.298
548.209
548.119
548.029
547.938
547.846
547.752
547.655
547.556
547.453
547.345
547.231
547.111
546.984
546.847
546.702
546.548
546.386
546.216
546.039
545.857
545.671
545.486
545.305
545.134
544.98
544.839
544.707
544.581
544.458
544.338
544.219
544.101
543.983
543.866
543.749
543.632
543.516
543.399
543.283
543.166
543.05
542.933
542.817
542.7
542.584
542.468
542.351
542.235
542.118
542.002
541.886
541.77
541.653
541.537
541.421
541.305
541.189
541.072
540.956
540.84
540.724
540.608
552.483
552.349
552.216
552.082
551.948
551.816
551.686
551.56
551.441
551.329
551.225
551.128
551.04
550.96
550.887
550.82
550.759
550.703
550.651
550.603
550.558
550.515
550.475
550.436
550.398
550.362
550.326
550.289
550.253
550.216
550.178
550.139
550.098
550.056
550.011
549.964
549.915
549.863
549.808
549.75
549.689
549.625
549.557
549.485
549.41
549.333
549.253
549.172
549.089
549.006
548.922
548.837
548.752
548.665
548.578
548.49
548.401
548.311
548.221
548.13
548.038
547.945
547.85
547.754
547.656
547.554
547.45
547.341
547.227
547.106
546.978
546.842
546.697
546.544
546.382
546.211
546.032
545.848
545.658
545.467
545.279
545.104
544.953
544.819
544.693
544.572
544.452
544.334
544.216
544.099
543.981
543.865
543.748
543.631
543.515
543.398
543.282
543.166
543.049
542.933
542.816
542.7
542.584
542.467
542.351
542.235
542.118
542.002
541.886
541.769
541.653
541.537
541.421
541.305
541.188
541.072
540.956
540.84
540.724
540.608
552.483
552.349
552.216
552.082
551.949
551.818
551.69
551.566
551.448
551.337
551.235
551.14
551.053
550.973
550.9
550.834
550.773
550.717
550.666
550.618
550.573
550.531
550.491
550.453
550.416
550.379
550.344
550.308
550.272
550.235
550.197
550.158
550.117
550.074
550.029
549.981
549.931
549.878
549.823
549.765
549.703
549.638
549.57
549.499
549.426
549.35
549.271
549.192
549.111
549.029
548.946
548.862
548.776
548.689
548.601
548.512
548.422
548.331
548.239
548.145
548.05
547.954
547.856
547.757
547.656
547.552
547.445
547.334
547.219
547.097
546.969
546.834
546.689
546.536
546.374
546.203
546.023
545.835
545.64
545.439
545.237
545.05
544.911
544.791
544.675
544.56
544.445
544.329
544.212
544.096
543.979
543.863
543.746
543.63
543.514
543.397
543.281
543.165
543.049
542.932
542.816
542.7
542.583
542.467
542.351
542.234
542.118
542.002
541.885
541.769
541.653
541.537
541.421
541.304
541.188
541.072
540.956
540.84
540.724
540.608
552.483
552.35
552.216
552.083
551.951
551.82
551.694
551.573
551.458
551.349
551.248
551.155
551.069
550.991
550.918
550.852
550.792
550.737
550.685
550.638
550.594
550.552
550.513
550.475
550.439
550.403
550.368
550.333
550.297
550.261
550.223
550.184
550.142
550.099
550.053
550.005
549.954
549.901
549.845
549.786
549.724
549.659
549.591
549.52
549.448
549.373
549.296
549.218
549.139
549.059
548.977
548.893
548.807
548.72
548.632
548.542
548.45
548.357
548.263
548.166
548.068
547.968
547.866
547.762
547.656
547.549
547.438
547.325
547.208
547.085
546.956
546.821
546.677
546.525
546.364
546.193
546.013
545.822
545.62
545.406
545.177
544.948
544.85
544.757
544.657
544.549
544.437
544.323
544.208
544.093
543.977
543.861
543.745
543.628
543.512
543.396
543.28
543.164
543.048
542.931
542.815
542.699
542.583
542.466
542.35
542.234
542.118
542.001
541.885
541.769
541.653
541.537
541.42
541.304
541.188
541.072
540.956
540.84
540.724
540.608
552.483
552.35
552.218
552.086
551.955
551.826
551.701
551.582
551.469
551.364
551.265
551.174
551.089
551.012
550.941
550.875
550.816
550.761
550.71
550.664
550.62
550.579
550.541
550.504
550.468
550.433
550.399
550.364
550.329
550.293
550.256
550.217
550.175
550.132
550.086
550.037
549.986
549.932
549.875
549.815
549.753
549.687
549.619
549.549
549.477
549.404
549.329
549.252
549.175
549.095
549.014
548.931
548.846
548.758
548.669
548.579
548.486
548.39
548.293
548.193
548.091
547.986
547.879
547.77
547.659
547.546
547.432
547.315
547.195
547.07
546.94
546.804
546.661
546.51
546.351
546.181
546.002
545.81
545.605
545.379
545.11
544.722
544.785
544.733
544.644
544.541
544.432
544.319
544.205
544.089
543.974
543.858
543.742
543.626
543.511
543.395
543.279
543.163
543.046
542.93
542.814
542.698
542.582
542.466
542.349
542.233
542.117
542.001
541.885
541.769
541.652
541.536
541.42
541.304
541.188
541.072
540.956
540.84
540.724
540.608
552.484
552.351
552.22
552.089
551.96
551.834
551.712
551.595
551.485
551.382
551.285
551.196
551.113
551.037
550.967
550.903
550.844
550.79
550.74
550.694
550.652
550.612
550.574
550.538
550.503
550.469
550.436
550.402
550.367
550.332
550.295
550.257
550.216
550.173
550.127
550.078
550.026
549.972
549.915
549.854
549.791
549.726
549.658
549.588
549.517
549.444
549.37
549.295
549.218
549.14
549.06
548.977
548.892
548.805
548.715
548.623
548.528
548.431
548.33
548.226
548.119
548.008
547.895
547.78
547.663
547.545
547.426
547.304
547.18
547.053
546.921
546.785
546.642
546.492
546.334
546.167
545.99
545.802
545.602
545.387
545.157
544.932
544.839
544.747
544.646
544.539
544.428
544.315
544.201
544.086
543.971
543.855
543.74
543.624
543.509
543.393
543.277
543.161
543.045
542.929
542.813
542.697
542.581
542.465
542.349
542.233
542.116
542
541.884
541.768
541.652
541.536
541.42
541.304
541.188
541.072
540.956
540.84
540.724
540.608
552.484
552.353
552.222
552.093
551.966
551.842
551.723
551.61
551.503
551.402
551.308
551.221
551.14
551.066
550.997
550.934
550.877
550.823
550.775
550.73
550.688
550.649
550.612
550.577
550.544
550.511
550.478
550.446
550.412
550.378
550.342
550.304
550.264
550.221
550.176
550.127
550.076
550.022
549.964
549.903
549.84
549.775
549.707
549.638
549.567
549.495
549.421
549.347
549.271
549.194
549.114
549.032
548.947
548.859
548.769
548.675
548.578
548.478
548.374
548.265
548.152
548.035
547.916
547.794
547.67
547.546
547.42
547.294
547.166
547.035
546.901
546.763
546.62
546.471
546.315
546.151
545.977
545.795
545.602
545.404
545.205
545.023
544.887
544.769
544.654
544.541
544.427
544.313
544.198
544.083
543.968
543.853
543.737
543.622
543.506
543.391
543.275
543.159
543.044
542.928
542.812
542.696
542.58
542.464
542.348
542.232
542.116
542
541.884
541.768
541.652
541.536
541.42
541.304
541.188
541.072
540.956
540.84
540.724
540.608
552.485
552.356
552.227
552.1
551.975
551.854
551.737
551.627
551.523
551.426
551.335
551.25
551.171
551.098
551.031
550.969
550.913
550.861
550.813
550.769
550.729
550.691
550.656
550.622
550.589
550.558
550.527
550.495
550.463
550.43
550.395
550.359
550.32
550.278
550.234
550.186
550.135
550.081
550.024
549.963
549.9
549.835
549.768
549.699
549.629
549.557
549.484
549.41
549.335
549.259
549.18
549.096
549.011
548.922
548.83
548.734
548.635
548.531
548.423
548.309
548.19
548.067
547.94
547.811
547.681
547.549
547.417
547.284
547.151
547.017
546.881
546.741
546.598
546.449
546.294
546.133
545.963
545.786
545.603
545.417
545.233
545.064
544.916
544.784
544.661
544.542
544.425
544.31
544.195
544.08
543.965
543.85
543.734
543.619
543.504
543.389
543.273
543.158
543.042
542.926
542.811
542.695
542.579
542.463
542.347
542.231
542.115
541.999
541.883
541.767
541.651
541.535
541.419
541.303
541.187
541.071
540.956
540.84
540.724
540.608
552.486
552.359
552.233
552.109
551.987
551.868
551.755
551.648
551.546
551.452
551.363
551.281
551.204
551.133
551.068
551.008
550.952
550.902
550.855
550.813
550.774
550.738
550.704
550.671
550.64
550.61
550.581
550.551
550.52
550.489
550.456
550.421
550.383
550.343
550.3
550.253
550.203
550.15
550.093
550.034
549.972
549.907
549.841
549.773
549.703
549.632
549.559
549.485
549.411
549.335
549.254
549.17
549.082
548.992
548.898
548.8
548.698
548.591
548.478
548.358
548.233
548.103
547.969
547.832
547.693
547.554
547.415
547.276
547.137
547
546.861
546.72
546.575
546.427
546.273
546.113
545.947
545.776
545.599
545.421
545.246
545.08
544.927
544.789
544.661
544.54
544.422
544.306
544.191
544.076
543.961
543.846
543.731
543.616
543.501
543.386
543.271
543.156
543.04
542.925
542.809
542.693
542.578
542.462
542.346
542.23
542.114
541.998
541.882
541.767
541.651
541.535
541.419
541.303
541.187
541.071
540.955
540.84
540.724
540.608
552.488
552.364
552.24
552.118
552
551.885
551.775
551.671
551.573
551.481
551.395
551.315
551.241
551.172
551.108
551.049
550.995
550.946
550.901
550.86
550.823
550.788
550.756
550.726
550.696
550.668
550.64
550.612
550.583
550.554
550.523
550.49
550.454
550.416
550.374
550.329
550.28
550.228
550.173
550.115
550.054
549.991
549.925
549.857
549.788
549.717
549.645
549.571
549.496
549.419
549.337
549.251
549.161
549.069
548.972
548.872
548.767
548.656
548.537
548.411
548.279
548.141
548
547.855
547.708
547.561
547.415
547.27
547.126
546.984
546.842
546.699
546.553
546.404
546.251
546.093
545.93
545.762
545.59
545.416
545.244
545.078
544.923
544.783
544.655
544.533
544.416
544.3
544.186
544.071
543.957
543.843
543.728
543.613
543.499
543.384
543.269
543.154
543.038
542.923
542.808
542.692
542.576
542.461
542.345
542.229
542.113
541.998
541.882
541.766
541.65
541.534
541.418
541.303
541.187
541.071
540.955
540.839
540.724
540.608
552.489
552.368
552.248
552.13
552.014
551.903
551.797
551.697
551.602
551.513
551.43
551.352
551.28
551.213
551.152
551.094
551.042
550.995
550.952
550.912
550.877
550.844
550.813
550.785
550.757
550.731
550.705
550.679
550.652
550.625
550.596
550.565
550.532
550.495
550.456
550.412
550.366
550.315
550.262
550.205
550.145
550.083
550.018
549.951
549.883
549.813
549.74
549.666
549.59
549.512
549.428
549.339
549.246
549.151
549.052
548.949
548.84
548.724
548.599
548.466
548.326
548.181
548.032
547.879
547.725
547.571
547.417
547.266
547.117
546.97
546.825
546.679
546.532
546.382
546.229
546.073
545.912
545.746
545.577
545.404
545.231
545.062
544.904
544.765
544.64
544.522
544.408
544.294
544.18
544.067
543.953
543.839
543.725
543.61
543.496
543.381
543.266
543.151
543.036
542.921
542.806
542.691
542.575
542.46
542.344
542.228
542.113
541.997
541.881
541.765
541.65
541.534
541.418
541.302
541.187
541.071
540.955
540.839
540.724
540.608
552.491
552.374
552.257
552.143
552.032
551.925
551.822
551.725
551.634
551.548
551.468
551.393
551.323
551.259
551.199
551.144
551.093
551.047
551.006
550.969
550.935
550.904
550.876
550.849
550.824
550.799
550.776
550.752
550.727
550.702
550.675
550.646
550.615
550.581
550.544
550.502
550.458
550.409
550.357
550.302
550.244
550.183
550.119
550.053
549.985
549.915
549.842
549.768
549.691
549.61
549.523
549.432
549.336
549.237
549.135
549.029
548.915
548.793
548.661
548.521
548.374
548.221
548.064
547.905
547.744
547.583
547.423
547.266
547.111
546.959
546.81
546.661
546.511
546.361
546.207
546.051
545.891
545.727
545.559
545.386
545.21
545.032
544.865
544.734
544.619
544.508
544.397
544.286
544.174
544.061
543.948
543.835
543.721
543.607
543.493
543.379
543.264
543.149
543.034
542.919
542.804
542.689
542.574
542.458
542.343
542.227
542.112
541.996
541.88
541.765
541.649
541.533
541.418
541.302
541.186
541.071
540.955
540.839
540.724
540.608
552.493
552.38
552.268
552.158
552.052
551.949
551.851
551.758
551.67
551.587
551.51
551.438
551.371
551.309
551.251
551.198
551.149
551.105
551.066
551.03
550.999
550.97
550.943
550.919
550.896
550.874
550.852
550.83
550.808
550.784
550.76
550.733
550.704
550.672
550.637
550.598
550.555
550.509
550.459
550.405
550.349
550.289
550.226
550.161
550.093
550.023
549.95
549.874
549.795
549.711
549.622
549.527
549.428
549.325
549.22
549.109
548.989
548.86
548.721
548.574
548.419
548.259
548.096
547.931
547.765
547.598
547.433
547.269
547.109
546.951
546.797
546.644
546.492
546.339
546.185
546.029
545.87
545.707
545.539
545.364
545.181
544.987
544.793
544.69
544.594
544.493
544.387
544.278
544.168
544.056
543.944
543.831
543.717
543.604
543.49
543.376
543.262
543.147
543.032
542.918
542.803
542.688
542.572
542.457
542.342
542.226
542.111
541.995
541.88
541.764
541.648
541.533
541.417
541.302
541.186
541.07
540.955
540.839
540.723
540.608
552.496
552.387
552.281
552.176
552.074
551.976
551.883
551.794
551.71
551.631
551.557
551.489
551.424
551.364
551.309
551.258
551.211
551.169
551.132
551.098
551.068
551.041
551.017
550.995
550.974
550.954
550.934
550.914
550.894
550.872
550.849
550.825
550.798
550.768
550.734
550.697
550.657
550.612
550.564
550.512
550.457
550.398
550.336
550.271
550.204
550.133
550.059
549.982
549.9
549.814
549.721
549.623
549.52
549.414
549.304
549.187
549.061
548.925
548.778
548.623
548.461
548.295
548.127
547.957
547.787
547.616
547.445
547.276
547.11
546.947
546.787
546.63
546.474
546.319
546.164
546.007
545.848
545.686
545.518
545.343
545.155
544.937
544.636
544.644
544.576
544.482
544.379
544.272
544.162
544.051
543.939
543.827
543.714
543.601
543.487
543.373
543.259
543.145
543.03
542.916
542.801
542.686
542.571
542.456
542.341
542.225
542.11
541.994
541.879
541.763
541.648
541.532
541.417
541.301
541.186
541.07
540.954
540.839
540.723
540.608
552.499
552.396
552.296
552.197
552.101
552.008
551.919
551.835
551.755
551.68
551.61
551.545
551.484
551.427
551.374
551.325
551.28
551.24
551.205
551.173
551.145
551.12
551.097
551.077
551.057
551.039
551.021
551.003
550.985
550.965
550.943
550.92
550.894
550.866
550.835
550.799
550.76
550.717
550.67
550.62
550.566
550.508
550.446
550.382
550.314
550.243
550.168
550.088
550.004
549.915
549.819
549.718
549.611
549.501
549.386
549.264
549.131
548.986
548.832
548.669
548.5
548.329
548.157
547.984
547.81
547.636
547.461
547.287
547.115
546.946
546.781
546.619
546.459
546.301
546.144
545.986
545.828
545.667
545.502
545.331
545.153
544.965
544.784
544.681
544.583
544.481
544.375
544.267
544.157
544.047
543.935
543.823
543.71
543.597
543.484
543.371
543.257
543.143
543.028
542.914
542.799
542.684
542.57
542.455
542.339
542.224
542.109
541.994
541.878
541.763
541.647
541.532
541.416
541.301
541.185
541.07
540.954
540.839
540.723
540.608
552.502
552.407
552.313
552.221
552.131
552.044
551.961
551.882
551.807
551.737
551.671
551.609
551.551
551.497
551.446
551.4
551.358
551.32
551.286
551.256
551.229
551.206
551.185
551.166
551.148
551.131
551.115
551.098
551.08
551.062
551.041
551.019
550.994
550.967
550.936
550.902
550.864
550.822
550.776
550.727
550.673
550.615
550.554
550.489
550.421
550.349
550.272
550.19
550.103
550.011
549.913
549.809
549.698
549.583
549.463
549.335
549.195
549.042
548.88
548.71
548.537
548.363
548.188
548.013
547.837
547.66
547.482
547.304
547.126
546.951
546.78
546.612
546.448
546.286
546.127
545.968
545.809
545.649
545.487
545.323
545.156
544.99
544.836
544.709
544.593
544.482
544.373
544.263
544.153
544.042
543.931
543.819
543.707
543.594
543.481
543.368
543.254
543.14
543.026
542.912
542.798
542.683
542.568
542.453
542.338
542.223
542.108
541.993
541.877
541.762
541.647
541.531
541.416
541.3
541.185
541.07
540.954
540.839
540.723
540.608
552.506
552.42
552.334
552.249
552.166
552.086
552.009
551.936
551.866
551.801
551.74
551.682
551.628
551.577
551.53
551.486
551.446
551.41
551.377
551.348
551.323
551.301
551.281
551.263
551.247
551.231
551.215
551.199
551.181
551.163
551.142
551.12
551.095
551.068
551.037
551.003
550.965
550.924
550.878
550.829
550.775
550.717
550.655
550.59
550.52
550.446
550.367
550.283
550.194
550.099
549.998
549.89
549.776
549.656
549.53
549.396
549.25
549.092
548.923
548.749
548.573
548.398
548.222
548.046
547.869
547.69
547.509
547.326
547.144
546.963
546.785
546.612
546.443
546.277
546.115
545.954
545.795
545.636
545.477
545.317
545.158
545.002
544.855
544.72
544.597
544.482
544.369
544.259
544.149
544.038
543.927
543.816
543.704
543.592
543.479
543.366
543.252
543.138
543.024
542.91
542.796
542.681
542.567
542.452
542.337
542.222
542.107
541.992
541.877
541.761
541.646
541.531
541.415
541.3
541.185
541.069
540.954
540.838
540.723
540.608
552.511
552.434
552.357
552.281
552.207
552.135
552.065
551.999
551.936
551.876
551.82
551.767
551.717
551.67
551.625
551.584
551.546
551.512
551.481
551.453
551.429
551.407
551.388
551.371
551.355
551.338
551.322
551.306
551.288
551.268
551.247
551.224
551.198
551.169
551.137
551.102
551.063
551.02
550.974
550.923
550.868
550.809
550.745
550.678
550.606
550.529
550.447
550.36
550.268
550.17
550.067
549.956
549.839
549.716
549.586
549.447
549.296
549.134
548.963
548.787
548.612
548.437
548.263
548.087
547.909
547.728
547.545
547.359
547.171
546.985
546.801
546.622
546.447
546.278
546.112
545.949
545.789
545.631
545.473
545.316
545.159
545.006
544.858
544.72
544.594
544.477
544.365
544.255
544.145
544.035
543.924
543.813
543.701
543.589
543.476
543.363
543.25
543.136
543.023
542.909
542.794
542.68
542.566
542.451
542.336
542.221
542.106
541.991
541.876
541.761
541.646
541.53
541.415
541.3
541.184
541.069
540.954
540.838
540.723
540.608
552.517
552.45
552.384
552.318
552.253
552.19
552.13
552.071
552.015
551.962
551.912
551.864
551.819
551.776
551.735
551.697
551.661
551.628
551.598
551.572
551.548
551.527
551.508
551.49
551.473
551.456
551.439
551.421
551.401
551.38
551.356
551.33
551.302
551.27
551.235
551.197
551.155
551.11
551.06
551.006
550.948
550.886
550.819
550.747
550.671
550.591
550.505
550.415
550.32
550.22
550.114
550.002
549.883
549.758
549.626
549.485
549.333
549.17
549
548.828
548.655
548.484
548.312
548.138
547.96
547.779
547.593
547.403
547.211
547.02
546.831
546.646
546.467
546.293
546.124
545.959
545.797
545.638
545.48
545.322
545.164
545.008
544.854
544.711
544.585
544.47
544.36
544.251
544.142
544.032
543.922
543.811
543.699
543.587
543.474
543.361
543.248
543.134
543.021
542.907
542.793
542.679
542.564
542.45
542.335
542.22
542.105
541.99
541.875
541.76
541.645
541.53
541.415
541.299
541.184
541.069
540.954
540.838
540.723
540.608
552.523
552.468
552.414
552.36
552.306
552.254
552.203
552.153
552.106
552.06
552.017
551.975
551.935
551.897
551.86
551.825
551.791
551.76
551.732
551.706
551.683
551.661
551.642
551.623
551.605
551.586
551.566
551.546
551.523
551.498
551.471
551.441
551.408
551.371
551.332
551.288
551.241
551.19
551.135
551.075
551.012
550.944
550.871
550.794
550.713
550.627
550.536
550.441
550.343
550.241
550.134
550.022
549.903
549.778
549.647
549.507
549.358
549.2
549.036
548.87
548.703
548.537
548.37
548.199
548.024
547.842
547.655
547.463
547.268
547.073
546.88
546.692
546.508
546.331
546.158
545.991
545.828
545.667
545.506
545.344
545.179
545.012
544.846
544.691
544.571
544.464
544.358
544.25
544.141
544.031
543.92
543.809
543.697
543.585
543.472
543.359
543.246
543.133
543.019
542.905
542.791
542.677
542.563
542.449
542.334
542.219
542.105
541.99
541.875
541.76
541.645
541.529
541.414
541.299
541.184
541.069
540.953
540.838
540.723
540.608
552.529
552.487
552.446
552.405
552.363
552.323
552.283
552.244
552.206
552.169
552.133
552.099
552.065
552.032
552
551.968
551.938
551.909
551.882
551.857
551.833
551.812
551.791
551.771
551.751
551.729
551.706
551.682
551.655
551.625
551.593
551.557
551.518
551.475
551.428
551.378
551.323
551.263
551.2
551.132
551.06
550.983
550.902
550.817
550.728
550.635
550.538
550.438
550.336
550.231
550.124
550.013
549.896
549.774
549.646
549.513
549.371
549.221
549.067
548.91
548.752
548.594
548.433
548.268
548.097
547.918
547.733
547.541
547.345
547.149
546.956
546.765
546.58
546.4
546.226
546.057
545.893
545.73
545.565
545.395
545.217
545.033
544.839
544.645
544.555
544.464
544.362
544.255
544.145
544.033
543.921
543.809
543.696
543.584
543.471
543.358
543.245
543.131
543.018
542.904
542.79
542.676
542.562
542.448
542.333
542.219
542.104
541.989
541.874
541.759
541.644
541.529
541.414
541.299
541.184
541.068
540.953
540.838
540.723
540.608
552.535
552.507
552.478
552.45
552.422
552.394
552.367
552.34
552.312
552.286
552.259
552.232
552.206
552.179
552.152
552.125
552.098
552.072
552.046
552.022
551.998
551.976
551.954
551.932
551.909
551.885
551.858
551.829
551.797
551.762
551.724
551.681
551.635
551.584
551.528
551.467
551.402
551.332
551.257
551.178
551.095
551.007
550.916
550.82
550.721
550.618
550.513
550.407
550.3
550.192
550.084
549.974
549.861
549.743
549.622
549.498
549.368
549.231
549.088
548.943
548.796
548.647
548.495
548.338
548.174
548.002
547.822
547.636
547.444
547.252
547.061
546.873
546.688
546.509
546.336
546.169
546.005
545.842
545.672
545.491
545.299
545.092
544.851
544.507
544.552
544.484
544.382
544.27
544.155
544.039
543.924
543.81
543.696
543.583
543.47
543.357
543.243
543.13
543.017
542.903
542.789
542.675
542.561
542.447
542.332
542.218
542.103
541.988
541.874
541.759
541.644
541.529
541.414
541.299
541.183
541.068
540.953
540.838
540.723
540.608
552.541
552.523
552.506
552.49
552.474
552.46
552.446
552.432
552.417
552.401
552.384
552.367
552.349
552.33
552.309
552.287
552.265
552.241
552.218
552.195
552.172
552.149
552.126
552.102
552.076
552.047
552.016
551.983
551.946
551.906
551.861
551.812
551.758
551.699
551.633
551.561
551.483
551.4
551.312
551.22
551.124
551.023
550.919
550.811
550.701
550.588
550.475
550.361
550.248
550.137
550.027
549.918
549.808
549.695
549.582
549.469
549.351
549.228
549.098
548.964
548.828
548.689
548.547
548.4
548.247
548.087
547.919
547.744
547.563
547.38
547.196
547.014
546.835
546.66
546.492
546.33
546.172
546.011
545.838
545.647
545.442
545.227
545.006
544.793
544.672
544.551
544.425
544.297
544.172
544.049
543.93
543.813
543.698
543.583
543.469
543.356
543.242
543.129
543.015
542.902
542.788
542.674
542.56
542.446
542.332
542.217
542.103
541.988
541.873
541.758
541.643
541.528
541.413
541.298
541.183
541.068
540.953
540.838
540.723
540.608
552.544
552.533
552.523
552.516
552.512
552.51
552.509
552.507
552.506
552.502
552.498
552.491
552.483
552.472
552.459
552.443
552.426
552.406
552.386
552.364
552.342
552.318
552.293
552.266
552.237
552.205
552.17
552.133
552.092
552.047
551.998
551.944
551.883
551.815
551.74
551.657
551.568
551.472
551.372
551.267
551.158
551.046
550.93
550.811
550.69
550.57
550.451
550.332
550.215
550.099
549.987
549.877
549.768
549.66
549.554
549.447
549.338
549.224
549.104
548.979
548.85
548.719
548.586
548.451
548.312
548.168
548.018
547.86
547.695
547.525
547.353
547.18
547.01
546.844
546.685
546.535
546.39
546.237
546.064
545.862
545.641
545.415
545.194
544.988
544.803
544.636
544.48
544.333
544.195
544.064
543.939
543.818
543.7
543.584
543.469
543.355
543.242
543.128
543.014
542.901
542.787
542.673
542.559
542.445
542.331
542.217
542.102
541.987
541.873
541.758
541.643
541.528
541.413
541.298
541.183
541.068
540.953
540.838
540.723
540.608
552.544
552.532
552.524
552.52
552.522
552.529
552.538
552.549
552.56
552.57
552.577
552.582
552.585
552.584
552.579
552.571
552.56
552.545
552.528
552.509
552.486
552.462
552.434
552.405
552.372
552.337
552.299
552.258
552.215
552.168
552.117
552.059
551.995
551.922
551.839
551.749
551.652
551.548
551.439
551.327
551.211
551.092
550.969
550.845
550.721
550.6
550.483
550.367
550.25
550.132
550.02
549.909
549.802
549.701
549.597
549.487
549.376
549.265
549.147
549.021
548.888
548.755
548.626
548.499
548.374
548.247
548.117
547.977
547.826
547.67
547.506
547.343
547.18
547.025
546.884
546.756
546.631
546.492
546.319
546.105
545.862
545.617
545.374
545.139
544.915
544.716
544.536
544.372
544.221
544.081
543.949
543.824
543.703
543.585
543.47
543.355
543.241
543.127
543.014
542.9
542.786
542.673
542.559
542.445
542.33
542.216
542.102
541.987
541.872
541.758
541.643
541.528
541.413
541.298
541.183
541.068
540.953
540.838
540.723
540.608
552.541
552.522
552.507
552.498
552.498
552.505
552.518
552.534
552.553
552.572
552.59
552.607
552.62
552.63
552.636
552.636
552.632
552.623
552.611
552.594
552.574
552.548
552.519
552.486
552.449
552.411
552.37
552.328
552.284
552.238
552.188
552.131
552.066
551.99
551.906
551.815
551.719
551.618
551.512
551.402
551.29
551.175
551.058
550.942
550.829
550.727
550.636
550.544
550.439
550.332
550.234
550.133
550.032
549.948
549.846
549.713
549.586
549.466
549.332
549.183
549.022
548.865
548.722
548.587
548.467
548.345
548.223
548.087
547.934
547.78
547.61
547.446
547.283
547.135
547.018
546.92
546.828
546.695
546.514
546.283
546.015
545.745
545.478
545.217
544.974
544.764
544.577
544.404
544.245
544.097
543.96
543.83
543.707
543.587
543.47
543.355
543.241
543.127
543.013
542.899
542.786
542.672
542.558
542.444
542.33
542.216
542.101
541.987
541.872
541.757
541.643
541.528
541.413
541.298
541.183
541.068
540.953
540.838
540.723
540.608
552.539
552.515
552.487
552.462
552.444
552.436
552.436
552.444
552.457
552.474
552.494
552.516
552.538
552.558
552.574
552.583
552.587
552.586
552.581
552.57
552.553
552.53
552.5
552.464
552.425
552.384
552.343
552.303
552.261
552.219
552.173
552.121
552.059
551.987
551.907
551.826
551.746
551.665
551.579
551.487
551.391
551.296
551.204
551.117
551.043
550.999
550.98
550.956
550.896
550.838
550.804
550.743
550.661
550.606
550.514
550.328
550.161
550.023
549.846
549.635
549.402
549.173
548.978
548.791
548.655
548.494
548.348
548.176
547.964
547.793
547.565
547.381
547.192
547.028
546.945
546.89
546.864
546.719
546.506
546.245
545.942
545.655
545.394
545.151
544.927
544.754
544.588
544.423
544.263
544.111
543.97
543.836
543.71
543.589
543.471
543.355
543.241
543.127
543.013
542.899
542.785
542.672
542.558
542.444
542.33
542.215
542.101
541.986
541.872
541.757
541.642
541.528
541.413
541.298
541.183
541.068
540.953
540.838
540.723
540.608
552.556
552.55
552.514
552.459
552.399
552.346
552.302
552.269
552.245
552.232
552.233
552.246
552.268
552.294
552.319
552.337
552.347
552.356
552.361
552.361
552.356
552.341
552.315
552.28
552.241
552.203
552.169
552.138
552.106
552.073
552.037
551.998
551.948
551.887
551.82
551.763
551.721
551.684
551.633
551.572
551.499
551.433
551.399
551.368
551.375
551.456
551.581
551.699
551.74
551.802
551.938
551.977
551.958
551.89
551.817
551.468
551.142
550.927
550.663
550.369
550.047
549.719
549.446
549.145
548.961
548.699
548.434
548.18
547.859
547.61
547.269
547.021
546.754
546.534
546.431
546.396
546.403
546.271
546.037
545.766
545.416
545.182
544.96
544.838
544.716
544.669
544.565
544.425
544.273
544.122
543.978
543.842
543.714
543.591
543.472
543.356
543.241
543.126
543.012
542.899
542.785
542.671
542.557
542.443
542.329
542.215
542.101
541.986
541.872
541.757
541.642
541.527
541.413
541.298
541.183
541.068
540.953
540.838
540.723
540.608
552.624
552.709
552.69
552.592
552.457
552.311
552.173
552.052
551.938
551.841
551.772
551.743
551.743
551.761
551.783
551.799
551.804
551.819
551.835
551.849
551.864
551.867
551.855
551.831
551.804
551.784
551.778
551.781
551.78
551.771
551.757
551.755
551.744
551.721
551.691
551.68
551.7
551.724
551.705
551.684
551.621
551.566
551.644
551.65
551.775
552.111
552.421
552.749
552.94
553.183
553.409
553.588
553.699
553.569
553.499
553.171
552.755
552.445
552.068
551.694
551.229
550.78
550.386
549.911
549.595
549.104
548.543
548.104
547.56
547.094
546.57
546.182
545.762
545.456
545.274
545.174
545.133
544.923
544.75
544.51
544.317
544.214
544.154
544.21
544.469
544.554
544.522
544.416
544.276
544.128
543.983
543.846
543.716
543.593
543.473
543.356
543.241
543.126
543.012
542.898
542.785
542.671
542.557
542.443
542.329
542.215
542.101
541.986
541.872
541.757
541.642
541.527
541.412
541.298
541.183
541.068
540.953
540.838
540.723
540.608
552.801
553.113
553.157
552.996
552.745
552.465
552.199
551.972
551.723
551.445
551.202
551.064
550.989
550.95
550.923
550.902
550.859
550.851
550.855
550.86
550.879
550.885
550.886
550.894
550.909
550.945
551.02
551.117
551.197
551.241
551.262
551.366
551.465
551.564
551.639
551.715
551.818
551.896
551.826
551.905
551.831
551.692
551.688
551.796
552.089
552.586
553.07
553.61
554.009
554.461
554.828
555.249
555.635
555.64
555.616
555.404
554.996
554.668
554.2
553.752
553.142
552.518
551.872
551.148
550.507
549.667
548.934
548.046
547.233
546.294
545.542
544.765
544.161
543.634
543.492
542.727
542.728
542.344
542.495
542.482
542.736
542.829
542.717
543.453
544.247
544.456
544.483
544.405
544.276
544.132
543.987
543.849
543.718
543.594
543.474
543.356
543.241
543.126
543.012
542.898
542.785
542.671
542.557
542.443
542.329
542.215
542.1
541.986
541.871
541.757
541.642
541.527
541.412
541.298
541.183
541.068