0 	307.035
0.010101 	313.85
0.020202 	313.854
