0.010101 	9.83201e-11 	-5.07489e-15 	1.5604e-12
0.020202 	3.25285e-12 	-9.21678e-16 	6.32837e-14
