/*--------------------------------*- C++ -*----------------------------------*\
  =========                 |
  \\      /  F ield         | OpenFOAM: The Open Source CFD Toolbox
   \\    /   O peration     | Website:  https://openfoam.org
    \\  /    A nd           | Version:  6
     \\/     M anipulation  |
\*---------------------------------------------------------------------------*/
FoamFile
{
    version     2.0;
    format      ascii;
    class       volScalarField;
    location    "200";
    object      dmdt;
}
// * * * * * * * * * * * * * * * * * * * * * * * * * * * * * * * * * * * * * //

dimensions      [0 0 0 0 0 0 0];

internalField   nonuniform List<scalar> 
4800
(
-0.218646
-0.214787
-0.211006
-0.207353
-0.203875
-0.200594
-0.197516
-0.194636
-0.191945
-0.189426
-0.187064
-0.184838
-0.18273
-0.180713
-0.178765
-0.17686
-0.174986
-0.173129
-0.171268
-0.169391
-0.16749
-0.165557
-0.163588
-0.16159
-0.159562
-0.157507
-0.155432
-0.153339
-0.151227
-0.149093
-0.146938
-0.144763
-0.142571
-0.140364
-0.138143
-0.135912
-0.133669
-0.131416
-0.129153
-0.126881
-0.124603
-0.122323
-0.120049
-0.117785
-0.115533
-0.113291
-0.111043
-0.108769
-0.106454
-0.104087
-0.101657
-0.0991508
-0.096568
-0.0939052
-0.0911754
-0.0884012
-0.0856011
-0.0827885
-0.0799707
-0.0771484
-0.0743196
-0.0714825
-0.0686346
-0.0657725
-0.0628926
-0.0599914
-0.0570657
-0.0541138
-0.0511352
-0.0481305
-0.0451003
-0.0420442
-0.038961
-0.0358514
-0.0327119
-0.0295395
-0.0263411
-0.0231323
-0.0199234
-0.0167113
-0.013485
-0.0102539
-0.00702363
-0.00379773
-0.000577578
0.00263613
0.00584294
0.00904264
0.0122352
0.0154205
0.0185987
0.0217699
0.0249342
0.0280918
0.0312431
0.0343882
0.0375274
0.0406611
0.0437895
0.046913
0.0500318
0.0531462
0.0562566
0.0593632
0.0624663
0.0655661
0.068663
0.0717572
0.074849
0.0779385
0.081026
0.0841116
0.0871957
0.0902785
0.09336
0.0964405
0.0995202
0.102599
0.105678
0.108756
-0.218657
-0.214818
-0.211072
-0.207462
-0.204009
-0.200743
-0.197675
-0.194806
-0.192124
-0.189615
-0.187262
-0.185046
-0.182942
-0.180924
-0.17897
-0.177063
-0.175182
-0.173313
-0.171441
-0.169552
-0.167639
-0.165697
-0.163726
-0.161725
-0.159694
-0.15764
-0.155565
-0.153471
-0.151359
-0.149225
-0.147069
-0.144894
-0.142701
-0.140492
-0.138271
-0.136037
-0.133793
-0.131539
-0.129275
-0.127003
-0.124725
-0.122446
-0.120172
-0.117907
-0.115652
-0.113403
-0.111145
-0.108863
-0.106547
-0.104183
-0.101752
-0.0992518
-0.0966733
-0.0940145
-0.0912898
-0.0885173
-0.0857167
-0.0829033
-0.0800832
-0.0772575
-0.0744252
-0.0715845
-0.0687333
-0.065868
-0.0629847
-0.0600795
-0.0571497
-0.0541938
-0.0512116
-0.0482032
-0.0451688
-0.0421087
-0.0390235
-0.035914
-0.0327801
-0.0296209
-0.0264374
-0.023228
-0.0199925
-0.0167406
-0.0134866
-0.0102462
-0.00701284
-0.00378589
-0.00056543
0.00264829
0.00585495
0.00905442
0.0122466
0.0154316
0.0186094
0.0217801
0.0249439
0.0281011
0.0312518
0.0343964
0.0375351
0.0406683
0.0437962
0.0469191
0.0500374
0.0531514
0.0562614
0.0593675
0.0624703
0.0655698
0.0686663
0.0717602
0.0748516
0.0779408
0.081028
0.0841135
0.0871973
0.0902798
0.0933611
0.0964414
0.0995209
0.1026
0.105678
0.108756
-0.218701
-0.214938
-0.211244
-0.207675
-0.204266
-0.201037
-0.197998
-0.19515
-0.192486
-0.189994
-0.187656
-0.185451
-0.183351
-0.181329
-0.17937
-0.177452
-0.175556
-0.173667
-0.17177
-0.169857
-0.167923
-0.165964
-0.16398
-0.16197
-0.159932
-0.157872
-0.155794
-0.153695
-0.151576
-0.149435
-0.147275
-0.145098
-0.142905
-0.140697
-0.138476
-0.136243
-0.134
-0.131747
-0.129485
-0.127217
-0.124945
-0.122674
-0.120407
-0.118146
-0.115889
-0.113628
-0.11135
-0.109048
-0.106714
-0.104334
-0.101891
-0.0993865
-0.0968063
-0.0941515
-0.0914368
-0.0886765
-0.0858844
-0.0830711
-0.0802437
-0.0774079
-0.0745677
-0.0717223
-0.0688676
-0.0659985
-0.0631103
-0.0601995
-0.0572628
-0.0542984
-0.0513054
-0.048284
-0.0452351
-0.04216
-0.0390606
-0.0359371
-0.0327927
-0.0296317
-0.0264524
-0.0232476
-0.0200094
-0.016741
-0.013471
-0.0102247
-0.00698918
-0.00376145
-0.000540803
0.00267279
0.00587911
0.00907807
0.0122696
0.0154538
0.0186308
0.0218006
0.0249634
0.0281195
0.0312692
0.0344128
0.0375504
0.0406826
0.0438094
0.0469314
0.0500488
0.0531619
0.0562709
0.0593763
0.0624782
0.065577
0.0686729
0.0717661
0.0748569
0.0779455
0.0810322
0.0841171
0.0872004
0.0902825
0.0933633
0.0964432
0.0995223
0.102601
0.105679
0.108757
-0.218752
-0.21509
-0.211485
-0.207986
-0.204635
-0.201458
-0.198463
-0.195651
-0.193019
-0.190554
-0.188236
-0.18604
-0.18394
-0.181914
-0.179948
-0.178014
-0.176096
-0.174179
-0.172249
-0.170303
-0.168337
-0.16635
-0.164343
-0.162313
-0.160261
-0.158192
-0.156105
-0.153995
-0.151863
-0.149711
-0.147544
-0.145362
-0.143166
-0.140957
-0.138738
-0.136509
-0.134272
-0.132026
-0.129772
-0.127515
-0.125256
-0.122997
-0.12074
-0.118481
-0.116215
-0.113933
-0.111628
-0.109297
-0.106926
-0.104507
-0.102034
-0.0995058
-0.0969123
-0.0942589
-0.0915535
-0.0888036
-0.0860192
-0.0832099
-0.0803838
-0.0775482
-0.074708
-0.0718624
-0.069006
-0.0661324
-0.0632367
-0.0603155
-0.0573668
-0.0543888
-0.0513814
-0.0483447
-0.045279
-0.0421843
-0.0390616
-0.0359122
-0.0327403
-0.0295549
-0.0263639
-0.0231629
-0.0199375
-0.0166865
-0.0134285
-0.0101858
-0.00695129
-0.00372385
-0.000503436
0.00270978
0.00591553
0.00911371
0.0123043
0.0154873
0.018663
0.0218313
0.0249927
0.0281473
0.0312954
0.0344373
0.0375734
0.040704
0.0438293
0.0469498
0.0500658
0.0531775
0.0562853
0.0593894
0.0624901
0.0655878
0.0686826
0.0717749
0.0748648
0.0779525
0.0810384
0.0841225
0.0872051
0.0902864
0.0933666
0.0964459
0.0995243
0.102602
0.10568
0.108757
-0.218806
-0.215253
-0.211755
-0.208355
-0.205093
-0.201989
-0.199055
-0.196292
-0.193703
-0.191271
-0.188976
-0.186795
-0.184699
-0.182672
-0.180692
-0.178735
-0.176787
-0.174834
-0.172867
-0.170882
-0.168876
-0.166853
-0.164814
-0.162757
-0.160686
-0.158602
-0.156497
-0.154369
-0.152219
-0.150053
-0.147876
-0.145686
-0.143486
-0.141276
-0.139059
-0.136836
-0.134605
-0.132369
-0.130129
-0.127886
-0.125641
-0.123395
-0.121142
-0.118879
-0.116599
-0.114291
-0.111948
-0.109568
-0.107144
-0.104672
-0.102152
-0.0995795
-0.0969567
-0.0942927
-0.0915872
-0.0888445
-0.0860708
-0.0832726
-0.0804576
-0.0776318
-0.0747979
-0.0719564
-0.0691025
-0.066229
-0.0633302
-0.0604023
-0.0574437
-0.0544535
-0.0514321
-0.0483806
-0.0452994
-0.0421869
-0.0390413
-0.0358642
-0.0326643
-0.0294499
-0.0262311
-0.0230193
-0.0198144
-0.0166009
-0.0133672
-0.0101322
-0.00689997
-0.00367327
-0.000453268
0.00275941
0.00596436
0.00916146
0.0123507
0.0155322
0.018706
0.0218725
0.0250318
0.0281843
0.0313303
0.03447
0.037604
0.0407324
0.0438558
0.0469743
0.0500883
0.0531982
0.0563042
0.0594067
0.0625059
0.0656021
0.0686956
0.0717865
0.0748752
0.0779618
0.0810465
0.0841296
0.0872113
0.0902917
0.093371
0.0964494
0.0995271
0.102604
0.105681
0.108757
-0.21886
-0.21542
-0.212041
-0.208759
-0.205604
-0.202594
-0.19974
-0.197045
-0.194513
-0.192122
-0.189855
-0.18769
-0.1856
-0.18357
-0.181573
-0.179588
-0.177606
-0.175619
-0.173614
-0.171584
-0.169533
-0.167471
-0.165396
-0.163308
-0.161212
-0.159103
-0.156971
-0.154819
-0.15265
-0.15047
-0.148278
-0.146078
-0.14387
-0.141657
-0.139441
-0.137222
-0.134999
-0.132773
-0.130546
-0.128317
-0.126084
-0.123844
-0.12159
-0.119316
-0.117012
-0.114666
-0.112274
-0.109835
-0.107346
-0.104808
-0.102224
-0.0995968
-0.096934
-0.0942452
-0.0915294
-0.0887877
-0.086023
-0.0832392
-0.0804413
-0.0776333
-0.0748171
-0.071991
-0.0691489
-0.0662833
-0.0633877
-0.0604578
-0.0574922
-0.0544914
-0.0514573
-0.0483925
-0.0452996
-0.04218
-0.0390349
-0.0358651
-0.0326719
-0.0294573
-0.026224
-0.0229844
-0.0197573
-0.0165373
-0.0133043
-0.0100694
-0.00683698
-0.00361014
-0.000390304
0.00282182
0.00602579
0.00922153
0.012409
0.0155885
0.0187601
0.0219241
0.0250808
0.0282306
0.0313738
0.0345109
0.0376421
0.0407679
0.0438887
0.0470047
0.0501163
0.0532239
0.0563278
0.0594282
0.0625255
0.0656199
0.0687116
0.0718009
0.074888
0.0779732
0.0810566
0.0841384
0.0872189
0.0902982
0.0933764
0.0964537
0.0995304
0.102607
0.105682
0.108758
-0.218925
-0.21562
-0.212381
-0.209234
-0.206198
-0.203292
-0.200527
-0.197904
-0.195426
-0.193079
-0.190846
-0.1887
-0.186619
-0.184584
-0.182568
-0.18056
-0.178547
-0.176517
-0.174464
-0.172384
-0.170288
-0.168187
-0.166076
-0.163956
-0.161829
-0.159686
-0.157523
-0.155345
-0.153157
-0.150959
-0.148752
-0.146539
-0.144322
-0.142104
-0.139886
-0.137669
-0.135451
-0.133232
-0.131015
-0.128795
-0.126568
-0.124327
-0.122064
-0.119772
-0.117436
-0.115044
-0.112594
-0.110088
-0.107526
-0.10491
-0.102251
-0.0995609
-0.0968524
-0.0941299
-0.0913935
-0.0886446
-0.0858844
-0.083115
-0.080339
-0.0775578
-0.0747702
-0.0719702
-0.0691496
-0.0662998
-0.063413
-0.0604848
-0.0575145
-0.0545044
-0.0514582
-0.0483803
-0.0452756
-0.0421491
-0.0390041
-0.0358414
-0.0326607
-0.0294658
-0.0262536
-0.0230143
-0.0197545
-0.0164944
-0.0132403
-0.00999796
-0.00676248
-0.0035344
-0.000314336
0.00289726
0.00610009
0.00929414
0.0124795
0.0156565
0.0188252
0.0219862
0.0251397
0.0282862
0.0314261
0.0345598
0.0376878
0.0408103
0.0439279
0.047041
0.0501497
0.0532546
0.0563558
0.0594538
0.0625487
0.0656409
0.0687306
0.071818
0.0749033
0.0779867
0.0810685
0.0841489
0.0872279
0.0903058
0.0933827
0.0964589
0.0995343
0.102609
0.105684
0.108758
-0.219001
-0.215846
-0.212752
-0.20974
-0.206825
-0.204027
-0.201355
-0.198815
-0.196405
-0.194113
-0.191915
-0.189789
-0.187715
-0.18567
-0.183635
-0.1816
-0.179552
-0.177479
-0.175375
-0.173249
-0.171118
-0.168983
-0.166837
-0.164683
-0.162519
-0.160338
-0.158143
-0.155941
-0.153731
-0.151512
-0.149289
-0.147063
-0.144837
-0.142613
-0.140392
-0.138174
-0.135958
-0.133743
-0.131531
-0.129314
-0.127084
-0.124835
-0.122556
-0.120236
-0.117858
-0.115415
-0.112905
-0.110327
-0.107687
-0.104995
-0.102263
-0.0995035
-0.096734
-0.0939644
-0.0911982
-0.088436
-0.0856771
-0.0829236
-0.0801752
-0.0774272
-0.0746738
-0.0719068
-0.0691155
-0.0662879
-0.0634143
-0.0604905
-0.0575176
-0.0544997
-0.0514423
-0.0483512
-0.0452333
-0.0420955
-0.0389421
-0.0357753
-0.0325967
-0.0294103
-0.0262076
-0.0229675
-0.0196954
-0.016424
-0.0131621
-0.00991385
-0.00667502
-0.00344533
-0.000224877
0.00298614
0.0061876
0.00937961
0.0125624
0.0157363
0.0189016
0.0220589
0.0252085
0.0283511
0.031487
0.0346167
0.0377408
0.0408595
0.0439735
0.0470829
0.0501883
0.0532899
0.0563881
0.0594832
0.0625755
0.0656651
0.0687524
0.0718375
0.0749208
0.0780023
0.0810822
0.0841608
0.0872382
0.0903146
0.09339
0.0964648
0.0995389
0.102613
0.105686
0.108759
-0.219081
-0.216082
-0.213133
-0.210257
-0.207471
-0.204793
-0.202226
-0.199774
-0.197434
-0.195196
-0.193032
-0.190924
-0.188856
-0.186802
-0.184751
-0.182688
-0.180599
-0.178477
-0.17633
-0.174173
-0.17201
-0.169837
-0.167656
-0.165465
-0.163261
-0.161045
-0.158822
-0.156595
-0.154361
-0.152123
-0.149884
-0.147646
-0.14541
-0.14318
-0.140955
-0.138735
-0.136519
-0.134306
-0.132094
-0.129874
-0.127637
-0.125372
-0.12307
-0.120715
-0.118291
-0.115794
-0.113221
-0.110571
-0.10785
-0.105073
-0.102262
-0.0994384
-0.0966157
-0.0938034
-0.0910056
-0.0882232
-0.0854573
-0.0827101
-0.0799805
-0.0772621
-0.0745449
-0.0718148
-0.0690576
-0.0662565
-0.0633984
-0.0604809
-0.0575075
-0.0544847
-0.0514187
-0.0483156
-0.0451835
-0.0420296
-0.0388586
-0.0356743
-0.0324797
-0.0292739
-0.026067
-0.0228564
-0.019614
-0.016342
-0.0130684
-0.00981509
-0.00657334
-0.00334212
-0.000121321
0.00308896
0.00628875
0.00947828
0.0126579
0.0158281
0.0189894
0.0221423
0.0252874
0.0284252
0.0315565
0.0346816
0.037801
0.0409154
0.044025
0.0471304
0.0502319
0.0533299
0.0564246
0.0595164
0.0626055
0.0656923
0.0687769
0.0718595
0.0749404
0.0780197
0.0810975
0.0841742
0.0872498
0.0903244
0.0933982
0.0964713
0.0995439
0.102616
0.105688
0.10876
-0.219164
-0.216326
-0.213528
-0.210794
-0.208143
-0.205583
-0.203121
-0.200759
-0.198493
-0.196306
-0.194171
-0.192076
-0.190007
-0.187942
-0.18587
-0.183773
-0.181646
-0.179491
-0.177317
-0.17513
-0.172931
-0.170723
-0.168507
-0.166278
-0.164039
-0.161794
-0.159545
-0.157294
-0.15504
-0.152785
-0.150531
-0.148281
-0.146037
-0.1438
-0.141571
-0.139349
-0.137133
-0.13492
-0.132707
-0.130482
-0.128235
-0.125955
-0.123628
-0.121236
-0.118766
-0.116211
-0.11357
-0.110846
-0.10805
-0.105201
-0.102318
-0.0994239
-0.0965375
-0.0936737
-0.0908375
-0.0880307
-0.0852539
-0.0825088
-0.0797924
-0.0770942
-0.074405
-0.0717082
-0.0689835
-0.0662101
-0.0633697
-0.0604607
-0.05749
-0.0544676
-0.0514018
-0.0482968
-0.0451542
-0.0419798
-0.0387871
-0.0355872
-0.0323814
-0.0291639
-0.0259288
-0.0226906
-0.0194585
-0.0162145
-0.0129533
-0.00970033
-0.00645673
-0.00322412
-3.06907e-06
0.00320627
0.00640402
0.00959056
0.0127664
0.0159322
0.0190887
0.0222364
0.0253762
0.0285086
0.0316344
0.0347541
0.0378684
0.0409777
0.0440825
0.0471832
0.0502803
0.0533741
0.0564649
0.0595531
0.0626388
0.0657223
0.0688039
0.0718837
0.0749619
0.0780388
0.0811144
0.0841889
0.0872624
0.0903351
0.0934071
0.0964785
0.0995494
0.10262
0.10569
0.10876
-0.219252
-0.216585
-0.21395
-0.211363
-0.20884
-0.206393
-0.204028
-0.201747
-0.199542
-0.197395
-0.195285
-0.193204
-0.191135
-0.189057
-0.186962
-0.184837
-0.182682
-0.180503
-0.178306
-0.176092
-0.173863
-0.171622
-0.169367
-0.167103
-0.164836
-0.162568
-0.160299
-0.158029
-0.155759
-0.15349
-0.151225
-0.148965
-0.146713
-0.144471
-0.142241
-0.140019
-0.137804
-0.135594
-0.133382
-0.131155
-0.1289
-0.126605
-0.124254
-0.121826
-0.119309
-0.116696
-0.113986
-0.111186
-0.108309
-0.105381
-0.102424
-0.0994629
-0.0965183
-0.0936054
-0.0907314
-0.0878985
-0.0851065
-0.0823527
-0.0796357
-0.0769459
-0.07427
-0.0715923
-0.0688913
-0.066144
-0.0633259
-0.0604308
-0.057468
-0.0544513
-0.0513906
-0.0482914
-0.045158
-0.0419956
-0.0388102
-0.0356076
-0.0323884
-0.0291503
-0.0258878
-0.0226132
-0.0193502
-0.0160948
-0.0128303
-0.00957271
-0.00632556
-0.00309096
0.000130471
0.00333867
0.00653394
0.00971688
0.0128883
0.0160489
0.0191996
0.0223413
0.0254749
0.0286011
0.0317206
0.0348343
0.0379426
0.0410462
0.0441455
0.0472411
0.0503332
0.0534224
0.0565089
0.059593
0.0626749
0.0657549
0.0688332
0.0719099
0.0749853
0.0780595
0.0811326
0.0842047
0.0872761
0.0903467
0.0934167
0.0964863
0.0995554
0.102624
0.105693
0.108761
-0.219334
-0.216828
-0.214343
-0.211896
-0.209501
-0.207168
-0.204898
-0.202694
-0.20054
-0.198432
-0.196344
-0.194274
-0.192202
-0.190111
-0.187997
-0.185853
-0.183681
-0.181484
-0.179263
-0.177023
-0.174763
-0.172487
-0.170203
-0.167919
-0.165637
-0.163355
-0.161074
-0.158793
-0.156512
-0.154234
-0.151962
-0.149695
-0.147439
-0.145196
-0.142967
-0.14075
-0.138542
-0.13634
-0.134135
-0.131911
-0.129654
-0.127349
-0.124974
-0.12251
-0.119941
-0.117262
-0.114477
-0.111601
-0.108652
-0.105651
-0.102622
-0.0995962
-0.0965956
-0.0936362
-0.0907254
-0.0878648
-0.0850537
-0.0822857
-0.0795596
-0.0768683
-0.0741918
-0.0715124
-0.0688135
-0.0660754
-0.0632725
-0.0603917
-0.0574422
-0.0544364
-0.0513842
-0.0482925
-0.0451664
-0.0420102
-0.0388268
-0.0356188
-0.0323888
-0.029138
-0.0258695
-0.0225873
-0.0192935
-0.0159949
-0.0127019
-0.00943248
-0.00617935
-0.00294191
0.000280052
0.00348685
0.00667911
0.00985774
0.0130238
0.0161783
0.0193223
0.0224571
0.0255835
0.0287025
0.031815
0.0349217
0.0380234
0.0411206
0.0442138
0.0473036
0.0503904
0.0534745
0.0565562
0.0596359
0.0627136
0.0657898
0.0688645
0.0719379
0.0750102
0.0780815
0.0811519
0.0842216
0.0872906
0.090359
0.0934269
0.0964945
0.0995617
0.102629
0.105695
0.108762
-0.219409
-0.217049
-0.214705
-0.212389
-0.210113
-0.207883
-0.205695
-0.203559
-0.201451
-0.199381
-0.197314
-0.195255
-0.193184
-0.191089
-0.188966
-0.186811
-0.184621
-0.1824
-0.18015
-0.177878
-0.175594
-0.173307
-0.17102
-0.168732
-0.166444
-0.164156
-0.161867
-0.15958
-0.157297
-0.155017
-0.152741
-0.150473
-0.148217
-0.145977
-0.143756
-0.141552
-0.139361
-0.137177
-0.134987
-0.132777
-0.130527
-0.128216
-0.125819
-0.123316
-0.120692
-0.117948
-0.115095
-0.112146
-0.109118
-0.106034
-0.102931
-0.0998431
-0.0967904
-0.0937889
-0.090846
-0.0879628
-0.0851389
-0.0823652
-0.0796301
-0.0769229
-0.074226
-0.0715215
-0.0687957
-0.0660347
-0.0632269
-0.0603573
-0.0574234
-0.0544323
-0.0513904
-0.0483035
-0.0451761
-0.0420124
-0.0388153
-0.0355869
-0.0323329
-0.0290594
-0.025773
-0.0224708
-0.0191586
-0.0158531
-0.0125532
-0.00927538
-0.00601632
-0.00277579
0.000446656
0.00365166
0.00684024
0.0100137
0.0131733
0.0163206
0.0194569
0.0225836
0.0257018
0.0288127
0.0319172
0.0350161
0.0381104
0.0412005
0.0442871
0.0473706
0.0504514
0.05353
0.0566066
0.0596814
0.0627547
0.0658268
0.0688976
0.0719675
0.0750365
0.0781048
0.0811723
0.0842393
0.0873059
0.0903719
0.0934377
0.0965031
0.0995683
0.102633
0.105698
0.108763
-0.219475
-0.217245
-0.215027
-0.212829
-0.210658
-0.20852
-0.20641
-0.204336
-0.202273
-0.200234
-0.198186
-0.196135
-0.194065
-0.191966
-0.189836
-0.187672
-0.185475
-0.183247
-0.180993
-0.178719
-0.176433
-0.174142
-0.171849
-0.169555
-0.16726
-0.164967
-0.162676
-0.16039
-0.15811
-0.155834
-0.153562
-0.151297
-0.149049
-0.146822
-0.144621
-0.142441
-0.140276
-0.138118
-0.135953
-0.133768
-0.131532
-0.129219
-0.126801
-0.124255
-0.121572
-0.118761
-0.115833
-0.112798
-0.109682
-0.10652
-0.103351
-0.10021
-0.0971158
-0.094085
-0.0911246
-0.0882325
-0.0854019
-0.0826196
-0.0798686
-0.0771318
-0.0743931
-0.0716399
-0.0688663
-0.0660643
-0.0632326
-0.0603633
-0.0574428
-0.0544658
-0.0514324
-0.0483446
-0.0452051
-0.0420185
-0.0387914
-0.0355289
-0.0322373
-0.0289269
-0.0256178
-0.0223188
-0.0190147
-0.0157016
-0.0123882
-0.00910086
-0.00583528
-0.00259137
0.000631421
0.00383409
0.0070181
0.0101852
0.0133372
0.016476
0.0196033
0.0227207
0.0258296
0.0289312
0.0320268
0.0351171
0.0382032
0.0412855
0.0443648
0.0474414
0.0505159
0.0535885
0.0566595
0.0597292
0.0627978
0.0658655
0.0689323
0.0719984
0.0750639
0.078129
0.0811936
0.0842578
0.0873217
0.0903853
0.0934488
0.096512
0.0995752
0.102638
0.105701
0.108764
-0.21953
-0.217412
-0.215302
-0.213207
-0.211127
-0.209068
-0.207026
-0.205004
-0.202983
-0.20097
-0.198943
-0.196901
-0.194837
-0.19274
-0.19061
-0.188445
-0.186244
-0.184014
-0.181762
-0.179493
-0.177213
-0.174927
-0.172637
-0.170347
-0.16806
-0.165776
-0.163497
-0.161222
-0.158951
-0.156684
-0.154421
-0.152171
-0.149943
-0.147741
-0.14557
-0.143422
-0.141287
-0.139158
-0.137021
-0.134864
-0.13265
-0.130341
-0.127899
-0.125299
-0.122538
-0.119638
-0.116617
-0.113497
-0.110308
-0.107087
-0.103873
-0.100698
-0.0975842
-0.0945471
-0.0915871
-0.0886943
-0.0858575
-0.0830602
-0.0802842
-0.0775053
-0.0747077
-0.0718892
-0.0690518
-0.0662001
-0.0633399
-0.0604617
-0.057546
-0.0545755
-0.051543
-0.0484461
-0.0452848
-0.0420629
-0.03879
-0.0354812
-0.0321526
-0.028815
-0.0254722
-0.0221394
-0.0188293
-0.0155233
-0.0122055
-0.00890826
-0.00563505
-0.00238726
0.000835695
0.00403527
0.00721358
0.010373
0.0135159
0.0166447
0.0197615
0.0228682
0.0259665
0.0290578
0.0321433
0.0352242
0.0383012
0.0413751
0.0444464
0.0475157
0.0505833
0.0536495
0.0567147
0.0597789
0.0628425
0.0659055
0.0689681
0.0720303
0.0750922
0.0781539
0.0812154
0.0842767
0.0873379
0.0903991
0.0934602
0.0965212
0.0995822
0.102643
0.105704
0.108765
-0.219576
-0.217549
-0.215527
-0.213515
-0.211513
-0.209521
-0.207537
-0.205559
-0.203574
-0.201588
-0.199581
-0.197553
-0.195499
-0.193409
-0.191283
-0.189125
-0.186933
-0.184714
-0.182475
-0.18022
-0.177954
-0.175682
-0.173407
-0.171132
-0.168858
-0.166589
-0.164323
-0.162063
-0.159808
-0.157557
-0.155316
-0.153091
-0.150892
-0.148725
-0.146589
-0.144473
-0.142369
-0.140267
-0.13816
-0.136031
-0.133821
-0.131487
-0.129001
-0.126347
-0.123521
-0.120545
-0.117445
-0.114254
-0.111008
-0.107747
-0.104509
-0.101324
-0.0982112
-0.0951832
-0.0922331
-0.0893454
-0.0865054
-0.083693
-0.0808849
-0.0780583
-0.0752024
-0.0723199
-0.0694208
-0.0665154
-0.0636146
-0.0607114
-0.0577829
-0.0548034
-0.0517588
-0.048643
-0.0454566
-0.0422065
-0.0389037
-0.0355636
-0.0322044
-0.0288382
-0.0254702
-0.0221003
-0.0187276
-0.015364
-0.0120137
-0.00869807
-0.00541415
-0.0021616
0.00106119
0.00425659
0.00742767
0.0105776
0.0137097
0.0168267
0.0199313
0.0230257
0.026112
0.0291918
0.0322663
0.0353367
0.0384039
0.0414686
0.0445314
0.0475928
0.050653
0.0537126
0.0567715
0.0598301
0.0628884
0.0659466
0.0690047
0.0720629
0.075121
0.0781793
0.0812376
0.0842959
0.0873544
0.090413
0.0934717
0.0965304
0.0995893
0.102648
0.105707
0.108766
-0.219612
-0.217657
-0.215705
-0.213759
-0.211818
-0.209881
-0.207945
-0.206006
-0.204055
-0.202093
-0.200107
-0.198096
-0.196055
-0.193977
-0.191864
-0.189719
-0.187545
-0.185346
-0.183128
-0.180895
-0.178651
-0.1764
-0.174145
-0.17189
-0.169636
-0.167387
-0.165141
-0.162903
-0.160671
-0.158447
-0.156235
-0.154043
-0.151879
-0.149748
-0.147645
-0.145558
-0.143479
-0.1414
-0.139313
-0.137182
-0.134943
-0.132567
-0.130035
-0.127334
-0.124463
-0.121441
-0.118295
-0.115063
-0.111788
-0.108507
-0.105265
-0.102091
-0.0989961
-0.0959861
-0.09305
-0.0901699
-0.0873271
-0.0845036
-0.081666
-0.0788008
-0.0758953
-0.0729608
-0.0700078
-0.0670515
-0.0641051
-0.0611615
-0.0581969
-0.0551862
-0.0521099
-0.0489576
-0.0457305
-0.0424376
-0.0390901
-0.0357011
-0.0322852
-0.0288557
-0.0254248
-0.0219998
-0.0185831
-0.0151832
-0.0118022
-0.00846555
-0.00516916
-0.00191154
0.00131018
0.00449973
0.00766146
0.0107997
0.0139186
0.0170217
0.0201122
0.0231928
0.0262656
0.0293325
0.0323948
0.0354538
0.0385104
0.0415653
0.044619
0.047672
0.0507246
0.0537771
0.0568295
0.0598822
0.0629351
0.0659883
0.0690419
0.0720958
0.0751501
0.0782048
0.0812599
0.0843153
0.087371
0.090427
0.0934832
0.0965397
0.0995963
0.102653
0.10571
0.108767
-0.21964
-0.21774
-0.215842
-0.213946
-0.212052
-0.210158
-0.20826
-0.206353
-0.204432
-0.202494
-0.200529
-0.198537
-0.196512
-0.194453
-0.192361
-0.190239
-0.18809
-0.185917
-0.183726
-0.181519
-0.179302
-0.177077
-0.174848
-0.172618
-0.17039
-0.168165
-0.165946
-0.163735
-0.161532
-0.15934
-0.157165
-0.155012
-0.152888
-0.15079
-0.148712
-0.146645
-0.144581
-0.142511
-0.14042
-0.138263
-0.135985
-0.13356
-0.130979
-0.128234
-0.125325
-0.122275
-0.119112
-0.115869
-0.112593
-0.109332
-0.106121
-0.102978
-0.0999146
-0.0969345
-0.0940204
-0.0911484
-0.0883034
-0.0854725
-0.0826112
-0.0797213
-0.0767856
-0.0738229
-0.0708297
-0.067828
-0.0648285
-0.0618292
-0.0588093
-0.0557455
-0.0526138
-0.0493996
-0.0461059
-0.0427451
-0.0393291
-0.0358661
-0.0323651
-0.028842
-0.0253213
-0.0218307
-0.018385
-0.0149699
-0.0115645
-0.00820521
-0.0048952
-0.00163308
0.00158566
0.0047667
0.00791613
0.0110397
0.0141427
0.0172295
0.0203037
0.0233685
0.0264263
0.0294789
0.032528
0.0355748
0.03862
0.0416644
0.0447085
0.0477527
0.0507973
0.0538424
0.0568882
0.0599347
0.062982
0.0660301
0.069079
0.0721287
0.0751791
0.0782303
0.0812821
0.0843344
0.0873874
0.0904408
0.0934946
0.0965488
0.0996033
0.102658
0.105713
0.108768
-0.219661
-0.217801
-0.215942
-0.214084
-0.212225
-0.210364
-0.208496
-0.206616
-0.20472
-0.202804
-0.200861
-0.19889
-0.196887
-0.194853
-0.192788
-0.190695
-0.188575
-0.186432
-0.18427
-0.182094
-0.179907
-0.177711
-0.175512
-0.173312
-0.171113
-0.168918
-0.166729
-0.164548
-0.162378
-0.160222
-0.158084
-0.155968
-0.153876
-0.151804
-0.14975
-0.147701
-0.145649
-0.143578
-0.141463
-0.13926
-0.136923
-0.134441
-0.13181
-0.129025
-0.12609
-0.123034
-0.119886
-0.116677
-0.113448
-0.110238
-0.10708
-0.103991
-0.100975
-0.0980229
-0.0951234
-0.0922631
-0.0894281
-0.0865942
-0.0837197
-0.0808215
-0.077879
-0.0749015
-0.0718785
-0.068838
-0.0657837
-0.062719
-0.0596259
-0.0564856
-0.0532721
-0.0499666
-0.0465774
-0.0431234
-0.03962
-0.0360778
-0.0325083
-0.0289257
-0.0253515
-0.0217983
-0.0182652
-0.0147643
-0.0113018
-0.00791052
-0.00458543
-0.00132081
0.00189138
0.00505977
0.0081928
0.011298
0.0143817
0.0174492
0.0205048
0.0235518
0.0265929
0.02963
0.0326648
0.0356983
0.0387315
0.0417649
0.044799
0.0478341
0.0508703
0.0539079
0.0569468
0.059987
0.0630287
0.0660716
0.0691158
0.0721612
0.0752078
0.0782553
0.0813038
0.0843532
0.0874034
0.0904542
0.0935057
0.0965577
0.0996101
0.102663
0.105716
0.108769
-0.219675
-0.217845
-0.216014
-0.214182
-0.212348
-0.210511
-0.208665
-0.206808
-0.204935
-0.203041
-0.201122
-0.199174
-0.197197
-0.19519
-0.193155
-0.191093
-0.189006
-0.186896
-0.184767
-0.182624
-0.180469
-0.178307
-0.17614
-0.173972
-0.171805
-0.169642
-0.167485
-0.165337
-0.163201
-0.161081
-0.158977
-0.156893
-0.154828
-0.152777
-0.150739
-0.148699
-0.146643
-0.144554
-0.142399
-0.14014
-0.137739
-0.135191
-0.132503
-0.129684
-0.126746
-0.123717
-0.120621
-0.117486
-0.114332
-0.11119
-0.108089
-0.105047
-0.102076
-0.0991732
-0.0963192
-0.0934927
-0.0906768
-0.0878478
-0.0849772
-0.0820781
-0.0791262
-0.0761281
-0.0730908
-0.0700273
-0.0669333
-0.063808
-0.0606318
-0.0573926
-0.0540681
-0.0506398
-0.0471267
-0.0435564
-0.039947
-0.0363102
-0.0326556
-0.0289945
-0.0253402
-0.0217031
-0.018089
-0.0145133
-0.0109902
-0.00756601
-0.00422886
-0.000967237
0.00223195
0.00538135
0.00849229
0.0115742
0.0146347
0.0176798
0.0207141
0.0237413
0.026764
0.0297843
0.0328037
0.0358233
0.0388438
0.0418658
0.0448895
0.0479151
0.0509429
0.0539727
0.0570047
0.0600387
0.0630746
0.0661124
0.0691519
0.072193
0.0752356
0.0782797
0.0813249
0.0843714
0.0874188
0.0904672
0.0935163
0.0965662
0.0996165
0.102667
0.105718
0.10877
-0.219685
-0.217872
-0.216059
-0.214246
-0.212429
-0.210609
-0.208781
-0.206943
-0.20509
-0.203217
-0.201319
-0.199396
-0.197447
-0.195471
-0.193469
-0.191439
-0.189385
-0.18731
-0.185218
-0.183111
-0.180993
-0.178866
-0.176735
-0.174601
-0.172468
-0.170339
-0.168216
-0.166102
-0.164
-0.161912
-0.159839
-0.157782
-0.155737
-0.153701
-0.151669
-0.149627
-0.14756
-0.145447
-0.143247
-0.140918
-0.138438
-0.135819
-0.133082
-0.130238
-0.127309
-0.124318
-0.121277
-0.118204
-0.11513
-0.112086
-0.109083
-0.106137
-0.103253
-0.100418
-0.0976116
-0.0948171
-0.0920146
-0.0891912
-0.0863283
-0.0834269
-0.0804711
-0.0774681
-0.0744258
-0.0713438
-0.0682209
-0.0650436
-0.061784
-0.0584286
-0.054965
-0.051384
-0.0477211
-0.0440113
-0.0402779
-0.0365306
-0.0327723
-0.0290084
-0.0252482
-0.0215041
-0.0178023
-0.0141698
-0.0106003
-0.00715044
-0.00381065
-0.000563037
0.00261241
0.00573351
0.00881477
0.0118675
0.0149001
0.0179193
0.0209297
0.023935
0.0269378
0.0299402
0.0329434
0.0359483
0.0389557
0.0419658
0.0449789
0.047995
0.0510142
0.0540363
0.0570612
0.0600889
0.0631191
0.0661518
0.0691866
0.0722236
0.0752624
0.078303
0.0813451
0.0843887
0.0874335
0.0904794
0.0935264
0.0965742
0.0996226
0.102672
0.105721
0.108771
-0.219689
-0.217885
-0.216081
-0.214277
-0.212472
-0.210664
-0.208851
-0.207031
-0.205196
-0.203342
-0.201467
-0.199569
-0.197649
-0.195703
-0.193732
-0.191737
-0.189718
-0.187681
-0.185628
-0.18356
-0.181481
-0.179394
-0.177301
-0.175206
-0.17311
-0.171017
-0.16893
-0.166851
-0.164782
-0.162724
-0.160677
-0.15864
-0.156608
-0.154576
-0.15254
-0.150486
-0.148397
-0.146246
-0.143991
-0.141595
-0.139045
-0.136363
-0.13358
-0.130716
-0.127797
-0.124846
-0.121874
-0.118896
-0.115931
-0.112994
-0.110097
-0.107247
-0.104444
-0.101675
-0.0989267
-0.0961785
-0.0934116
-0.09061
-0.0877587
-0.0848628
-0.0819157
-0.0789174
-0.0758711
-0.0727713
-0.069612
-0.0663719
-0.0630177
-0.0595319
-0.0559115
-0.0521666
-0.0483566
-0.0445108
-0.0406419
-0.0367597
-0.0328725
-0.0289894
-0.0251193
-0.0212713
-0.0174659
-0.0137418
-0.0101067
-0.00663758
-0.00331243
-9.78373e-05
0.00303733
0.00611716
0.00915912
0.0121756
0.0151755
0.0181651
0.0211489
0.0241305
0.0271121
0.0300955
0.0330818
0.0360717
0.0390656
0.0420638
0.0450661
0.0480726
0.0510832
0.0540976
0.0571157
0.0601372
0.0631618
0.0661894
0.0692197
0.0722526
0.0752877
0.0783249
0.081364
0.0844048
0.0874471
0.0904908
0.0935357
0.0965815
0.0996282
0.102676
0.105723
0.108771
-0.219688
-0.217884
-0.21608
-0.214279
-0.212479
-0.21068
-0.208879
-0.207072
-0.205252
-0.203416
-0.201562
-0.19969
-0.197798
-0.195884
-0.193948
-0.191989
-0.19001
-0.188015
-0.186004
-0.18398
-0.181946
-0.179902
-0.177853
-0.1758
-0.173746
-0.171694
-0.169644
-0.167599
-0.16556
-0.163528
-0.1615
-0.159473
-0.157443
-0.155404
-0.153351
-0.151274
-0.149154
-0.146953
-0.144629
-0.142158
-0.139545
-0.136807
-0.133979
-0.131102
-0.128207
-0.125309
-0.122415
-0.119537
-0.116685
-0.113863
-0.111079
-0.108336
-0.105627
-0.102941
-0.100263
-0.097566
-0.0948397
-0.0920666
-0.0892405
-0.0863606
-0.0834213
-0.0804204
-0.0773641
-0.0742459
-0.0710509
-0.0677403
-0.0642711
-0.060634
-0.0568435
-0.0529312
-0.0489751
-0.0449973
-0.0409991
-0.0369855
-0.0329627
-0.0289325
-0.0248995
-0.0208969
-0.0169758
-0.013163
-0.00945355
-0.00598754
-0.00271197
0.000437876
0.00350881
0.00653067
0.00952206
0.0124948
0.0154569
0.0184135
0.0213687
0.024325
0.0272844
0.0302482
0.0332172
0.0361918
0.0391721
0.0421582
0.0451499
0.048147
0.0511491
0.054156
0.0571673
0.0601827
0.063202
0.0662247
0.0692507
0.0722796
0.0753111
0.0783451
0.0813814
0.0844196
0.0874595
0.0905011
0.093544
0.0965881
0.0996331
0.102679
0.105725
0.108772
-0.219685
-0.217872
-0.216063
-0.214257
-0.212457
-0.210661
-0.208866
-0.207067
-0.205258
-0.203439
-0.201607
-0.19976
-0.197898
-0.196018
-0.194119
-0.192202
-0.190269
-0.188322
-0.186361
-0.184387
-0.182403
-0.18041
-0.178411
-0.176407
-0.1744
-0.17239
-0.170378
-0.168366
-0.166354
-0.164339
-0.162318
-0.160288
-0.158244
-0.15618
-0.154093
-0.15198
-0.149814
-0.147544
-0.145127
-0.142553
-0.13985
-0.137065
-0.134229
-0.13137
-0.12852
-0.12569
-0.122885
-0.120114
-0.117381
-0.114688
-0.112034
-0.109414
-0.106815
-0.104223
-0.101622
-0.0989803
-0.0962967
-0.0935504
-0.0907458
-0.0878759
-0.0849434
-0.0819439
-0.0788804
-0.0757358
-0.0724865
-0.0690812
-0.065475
-0.0616665
-0.057689
-0.0536082
-0.0495089
-0.0453996
-0.0412731
-0.0371304
-0.0329775
-0.0288211
-0.0246687
-0.0205287
-0.0164235
-0.0124131
-0.0085518
-0.00514578
-0.00198856
0.00104719
0.00402285
0.00696783
0.00989716
0.0128192
0.0157391
0.0186602
0.0215849
0.024515
0.0274517
0.0303956
0.0333472
0.0363066
0.0392736
0.0422479
0.0452291
0.048217
0.0512109
0.0542105
0.0572154
0.060225
0.0632391
0.0662572
0.069279
0.0723042
0.0753324
0.0783634
0.0813969
0.0844327
0.0874705