/*--------------------------------*- C++ -*----------------------------------*\
  =========                 |
  \\      /  F ield         | OpenFOAM: The Open Source CFD Toolbox
   \\    /   O peration     | Website:  https://openfoam.org
    \\  /    A nd           | Version:  6
     \\/     M anipulation  |
\*---------------------------------------------------------------------------*/
FoamFile
{
    version     2.0;
    format      ascii;
    class       surfaceScalarField;
    location    "200";
    object      phi;
}
// * * * * * * * * * * * * * * * * * * * * * * * * * * * * * * * * * * * * * //

dimensions      [0 3 -1 0 0 0 0];

internalField   nonuniform List<scalar> 
9440
(
-3.73742e-10
3.73742e-10
-6.22327e-10
2.48584e-10
-1.19832e-09
5.75995e-10
-1.54831e-09
3.49988e-10
-1.84462e-09
2.96308e-10
-1.9765e-09
1.31876e-10
-2.16208e-09
1.85584e-10
-2.27528e-09
1.13201e-10
-2.37484e-09
9.95516e-11
-2.47952e-09
1.04677e-10
-2.54784e-09
6.83199e-11
-2.58016e-09
3.23191e-11
-2.4832e-09
-9.69643e-11
-2.32765e-09
-1.55552e-10
-2.10083e-09
-2.26814e-10
-2.13608e-09
3.5242e-11
-1.82764e-09
-3.08435e-10
-1.54816e-09
-2.79478e-10
-1.38661e-09
-1.61555e-10
-1.19977e-09
-1.86839e-10
-1.01781e-09
-1.81967e-10
-1.03456e-09
1.67491e-11
-1.04043e-09
5.87844e-12
-1.02259e-09
-1.78436e-11
-1.05246e-09
2.98735e-11
-1.10274e-09
5.02797e-11
-1.11456e-09
1.18217e-11
-1.07996e-09
-3.45983e-11
-1.06305e-09
-1.69079e-11
-1.08323e-09
2.01744e-11
-1.07591e-09
-7.31796e-12
-1.10262e-09
2.67151e-11
-1.09447e-09
-8.14433e-12
-1.1079e-09
1.34291e-11
-1.10008e-09
-7.82117e-12
-1.09287e-09
-7.20795e-12
-1.06182e-09
-3.10496e-11
-1.07293e-09
1.11204e-11
-1.0658e-09
-7.13503e-12
-1.09234e-09
2.65469e-11
-1.14396e-09
5.1622e-11
-1.18151e-09
3.75535e-11
-1.20027e-09
1.87638e-11
-1.19794e-09
-2.33687e-12
-1.11093e-09
-8.70067e-11
-8.35038e-10
-2.7589e-10
-6.42896e-10
-1.92142e-10
-4.28833e-10
-2.14063e-10
-4.81182e-10
5.23499e-11
-2.58449e-10
-2.22733e-10
-3.03016e-10
4.45678e-11
-2.89816e-10
-1.31993e-11
-3.05154e-10
1.53392e-11
-4.94515e-10
1.89362e-10
-6.33496e-10
1.38983e-10
-7.29168e-10
9.56732e-11
-7.82628e-10
5.34609e-11
-7.97793e-10
1.51659e-11
-7.55027e-10
-4.27645e-11
-7.17956e-10
-3.70708e-11
-6.7558e-10
-4.23755e-11
-6.27621e-10
-4.79581e-11
-5.77385e-10
-5.02366e-11
-5.27717e-10
-4.96687e-11
-4.77329e-10
-5.03879e-11
-4.29877e-10
-4.74526e-11
-3.91799e-10
-3.8078e-11
-3.64719e-10
-2.70792e-11
-3.44764e-10
-1.99553e-11
-3.1681e-10
-2.79535e-11
-2.83432e-10
-3.3378e-11
-2.50124e-10
-3.33074e-11
-2.56561e-10
6.43728e-12
-2.08356e-10
-4.8204e-11
-2.76006e-10
6.76514e-11
-4.13063e-10
1.3706e-10
-5.97251e-10
1.84192e-10
-5.16925e-10
-8.03248e-11
-2.77584e-10
-2.3934e-10
1.16284e-15
-2.77586e-10
3.10245e-19
-1.08021e-19
4.32086e-19
-1.21841e-19
5.07343e-19
-7.77259e-20
5.68922e-19
-6.4532e-20
6.32328e-19
-6.54142e-20
7.00714e-19
-6.94725e-20
7.723e-19
-7.26424e-20
8.44974e-19
-7.34051e-20
9.18067e-19
-7.23294e-20
9.89779e-19
-7.06732e-20
1.05634e-18
-6.75618e-20
1.11657e-18
-6.11849e-20
1.17248e-18
-5.28153e-20
1.22252e-18
-4.51932e-20
1.26176e-18
-3.75148e-20
1.29026e-18
-2.73456e-20
1.31157e-18
-1.57789e-20
1.32478e-18
-5.59052e-21
1.32661e-18
3.33746e-21
1.31723e-18
1.29598e-20
1.29947e-18
2.32317e-20
1.27445e-18
3.23308e-20
1.24127e-18
3.9585e-20
1.20001e-18
4.60627e-20
1.15214e-18
5.26093e-20
1.09867e-18
5.87492e-20
1.03951e-18
6.358e-20
9.74602e-19
6.69848e-20
9.0501e-19
6.97743e-20
8.32532e-19
7.29326e-20
7.58511e-19
7.6857e-20
6.82998e-19
8.11524e-20
6.05031e-19
8.49716e-20
5.23676e-19
8.75887e-20
4.38956e-19
8.88554e-20
3.51962e-19
8.92611e-20
2.64122e-19
8.95249e-20
1.76328e-19
9.00767e-20
8.86017e-20
9.09986e-20
9.2622e-20
-5.5659e-10
9.30331e-10
-1.08193e-09
7.73921e-10
-1.16044e-09
6.545e-10
-1.37322e-09
5.62773e-10
-1.74573e-09
6.68817e-10
-1.99318e-09
3.79319e-10
-2.16279e-09
3.55195e-10
-2.2919e-09
2.42307e-10
-2.40068e-09
2.08327e-10
-2.47262e-09
1.76619e-10
-2.50742e-09
1.03112e-10
-2.42201e-09
-5.30948e-11
-2.30923e-09
-2.09742e-10
-2.23099e-09
-2.33795e-10
-2.12119e-09
-3.36615e-10
-1.7958e-09
-2.90155e-10
-1.76694e-09
-3.37295e-10
-1.48356e-09
-5.62856e-10
-1.23094e-09
-4.1418e-10
-1.13921e-09
-2.78567e-10
-9.82776e-10
-3.38406e-10
-9.24458e-10
-4.15695e-11
-8.37209e-10
-8.13708e-11
-8.08001e-10
-4.70508e-11
-8.16828e-10
3.87019e-11
-8.24754e-10
5.82078e-11
-7.93513e-10
-1.94173e-11
-7.33476e-10
-9.46317e-11
-6.36265e-10
-1.14116e-10
-6.52485e-10
3.6397e-11
-6.20176e-10
-3.96238e-11
-6.41593e-10
4.81358e-11
-6.79449e-10
2.97159e-11
-7.11959e-10
4.5943e-11
-7.36444e-10
1.66673e-11
-7.61454e-10
1.78069e-11
-7.77585e-10
-1.49147e-11
-8.02488e-10
3.60285e-11
-8.25006e-10
1.53872e-11
-8.74357e-10
7.59019e-11
-9.66505e-10
1.43774e-10
-1.06337e-09
1.34418e-10
-1.13206e-09
8.74546e-11
-1.15414e-09
1.97535e-11
-1.11608e-09
-1.2507e-10
-8.31842e-10
-5.60128e-10
-7.12787e-10
-3.11197e-10
-4.79026e-10
-4.47823e-10
-2.14798e-10
-2.11877e-10
5.00704e-11
-4.87601e-10
5.65507e-11
3.8089e-11
2.53962e-10
-2.10609e-10
1.74033e-10
9.52703e-11
7.33517e-11
2.90045e-10
-1.16139e-10
3.28476e-10
-3.08101e-10
2.87636e-10
-4.15355e-10
1.60717e-10
-3.99017e-10
-1.17082e-12
-3.61837e-10
-7.9943e-11
-2.96071e-10
-1.02837e-10
-2.68268e-10
-7.01781e-11
-2.43624e-10
-7.26018e-11
-2.10212e-10
-8.36488e-11
-1.74495e-10
-8.53861e-11
-1.3673e-10
-8.81539e-11
-1.06762e-10
-7.74204e-11
-7.84674e-11
-6.63719e-11
-4.28577e-11
-6.26883e-11
9.59165e-12
-7.24041e-11
6.65463e-11
-8.49081e-11
1.23392e-10
-9.0224e-11
1.87392e-10
-9.73069e-11
2.52121e-10
-5.82901e-11
3.44512e-10
-1.40592e-10
4.43685e-10
-3.15181e-11
4.9584e-10
8.49079e-11
5.79884e-10
1.0015e-10
4.23986e-10
7.55723e-11
2.17787e-10
-3.31439e-11
8.97011e-16
-5.98033e-11
3.31759e-19
-1.01936e-18
4.74427e-19
-2.67286e-19
5.19667e-19
-1.27576e-19
5.68067e-19
-1.16897e-19
6.28302e-19
-1.27598e-19
6.97544e-19
-1.38258e-19
7.71537e-19
-1.45688e-19
8.4605e-19
-1.49084e-19
9.19723e-19
-1.47833e-19
9.92891e-19
-1.42501e-19
1.06272e-18
-1.34177e-19
1.12494e-18
-1.2272e-19
1.1801e-18
-1.07573e-19
1.2302e-18
-8.97812e-20
1.27193e-18
-7.11368e-20
1.30183e-18
-5.18813e-20
1.32175e-18
-3.12477e-20
1.33371e-18
-9.71119e-21
1.33624e-18
1.11324e-20
1.3275e-18
3.04755e-20
1.30857e-18
4.85724e-20
1.28171e-18
6.57042e-20
1.24775e-18
8.14606e-20
1.20655e-18
9.52212e-20
1.15828e-18
1.06877e-19
1.1035e-18
1.16942e-19
1.04291e-18
1.26195e-19
9.77391e-19
1.3527e-19
9.08168e-19
1.44391e-19
8.36457e-19
1.53325e-19
7.62806e-19
1.61506e-19
6.86817e-19
1.68263e-19
6.07648e-19
1.73163e-19
5.24942e-19
1.76309e-19
4.39361e-19
1.78348e-19
3.52226e-19
1.8006e-19
2.64674e-19
1.81825e-19
1.7725e-19
1.83526e-19
9.02252e-20
1.8488e-19
1.85453e-19
-1.89599e-10
1.11993e-09
-6.90129e-10
1.27445e-09
-1.10439e-09
1.06876e-09
-1.358e-09
8.16386e-10
-1.56299e-09
8.73804e-10
-1.81272e-09
6.29042e-10
-2.00662e-09
5.49095e-10
-2.17602e-09
4.11703e-10
-2.32084e-09
3.53144e-10
-2.4014e-09
2.57185e-10
-2.38633e-09
8.80321e-11
-2.29076e-09
-1.48659e-10
-2.16761e-09
-3.32895e-10
-2.12581e-09
-2.75596e-10
-2.00165e-09
-4.6078e-10
-1.75771e-09
-5.341e-10
-1.64197e-09
-4.53033e-10
-1.47358e-09
-7.31248e-10
-1.26857e-09
-6.19196e-10
-1.15378e-09
-3.93355e-10
-1.01925e-09
-4.72933e-10
-8.96155e-10
-1.64667e-10
-7.68428e-10
-2.09098e-10
-7.04008e-10
-1.1147e-10
-7.3579e-10
7.04846e-11
-6.96322e-10
1.87416e-11
-6.43541e-10
-7.21962e-11
-6.3261e-10
-1.0556e-10
-5.62531e-10
-1.84192e-10
-5.63171e-10
3.70395e-11
-5.40663e-10
-6.21289e-11
-5.29322e-10
3.67986e-11
-5.28452e-10
2.88489e-11
-5.41669e-10
5.91635e-11
-5.7696e-10
5.19615e-11
-5.96373e-10
3.72246e-11
-6.52016e-10
4.07321e-11
-6.95279e-10
7.92953e-11
-7.70898e-10
9.10097e-11
-8.3847e-10
1.43477e-10
-8.91583e-10
1.9689e-10
-9.47523e-10
1.9036e-10
-9.56134e-10
9.60664e-11
-9.06636e-10
-2.97436e-11
-7.5008e-10
-2.81626e-10
-6.38786e-10
-6.71421e-10
-5.00317e-10
-4.49667e-10
-3.58855e-10
-5.89284e-10
3.69419e-11
-6.07674e-10
1.96194e-10
-6.46853e-10
3.27515e-10
-9.32308e-11
5.82272e-10
-4.65365e-10
4.9082e-10
1.86723e-10
4.11243e-10
3.69624e-10
3.13022e-10
4.26697e-10
2.47928e-10
3.52732e-10
1.79233e-10
2.29413e-10
9.92607e-11
7.88024e-11
5.24934e-12
1.40692e-11
-6.29763e-11
-3.46102e-11
-6.91349e-11
-6.40188e-11
-5.61313e-11
-8.56052e-11
-1.6881e-11
-1.22899e-10
1.705e-11
-1.19317e-10
6.6917e-11
-1.38021e-10
1.18227e-10
-1.28731e-10
1.59287e-10
-1.07431e-10
1.87705e-10
-9.11067e-11
2.03163e-10
-8.78631e-11
2.05586e-10
-8.73326e-11
2.16894e-10
-1.01534e-10
2.39073e-10
-1.19488e-10
3.14423e-10
-1.33641e-10
3.38452e-10
-1.64622e-10
4.52533e-10
-1.45598e-10
6.05334e-10
-6.78939e-11
6.94599e-10
1.08833e-11
6.94152e-10
7.60165e-11
4.8353e-10
1.77476e-10
7.54229e-16
4.23723e-10
1.15312e-18
1.65723e-18
6.14762e-19
2.68924e-19
5.30977e-19
-4.60613e-20
5.57996e-19
-1.44756e-19
6.1775e-19
-1.87532e-19
6.90113e-19
-2.1066e-19
7.68142e-19
-2.23869e-19
8.47301e-19
-2.2975e-19
9.25055e-19
-2.28995e-19
1.00121e-18
-2.21994e-19
1.07418e-18
-2.09029e-19
1.14009e-18
-1.90594e-19
1.19789e-18
-1.67958e-19
1.24884e-18
-1.42256e-19
1.29118e-18
-1.13752e-19
1.32246e-18
-8.29986e-20
1.34329e-18
-5.13599e-20
1.35455e-18
-2.00031e-20
1.35558e-18
1.06987e-20
1.3456e-18
4.05413e-20
1.3257e-18
6.86706e-20
1.29746e-18
9.43015e-20
1.26151e-18
1.17486e-19
1.21821e-18
1.38842e-19
1.16834e-18
1.58825e-19
1.11276e-18
1.77412e-19
1.05199e-18
1.94347e-19
9.86512e-19
2.09465e-19
9.17103e-19
2.228e-19
8.44637e-19
2.34443e-19
7.69564e-19
2.44381e-19
6.91717e-19
2.52518e-19
6.10793e-19
2.58881e-19
5.26982e-19
2.63788e-19
4.41073e-19
2.67746e-19
3.53991e-19
2.71127e-19
2.66375e-19
2.73983e-19
1.78603e-19
2.76195e-19
9.07982e-20
2.77607e-19
2.78072e-19
-1.4071e-10
1.26064e-09
-4.0121e-10
1.53495e-09
-7.47541e-10
1.41509e-09
-1.16014e-09
1.22898e-09
-1.40943e-09
1.12309e-09
-1.67674e-09
8.96351e-10
-1.83509e-09
7.0745e-10
-2.03417e-09
6.10782e-10
-2.10601e-09
4.24977e-10
-2.14823e-09
2.99405e-10
-2.14664e-09
8.64412e-11
-2.12919e-09
-1.6611e-10
-2.18564e-09
-2.76451e-10
-2.091e-09
-3.70234e-10
-1.84714e-09
-7.04645e-10
-1.70966e-09
-6.71579e-10
-1.47964e-09
-6.83061e-10
-1.41911e-09
-7.91772e-10
-1.30976e-09
-7.28547e-10
-1.13302e-09
-5.70099e-10
-1.0843e-09
-5.21661e-10
-9.5201e-10
-2.96953e-10
-8.64151e-10
-2.96957e-10
-8.02486e-10
-1.73135e-10
-8.06457e-10
7.44566e-11
-6.96421e-10
-9.1293e-11
-6.24833e-10
-1.43782e-10
-5.87576e-10
-1.42815e-10
-6.06505e-10
-1.6526e-10
-5.78464e-10
9.00178e-12
-5.78489e-10
-6.21015e-11
-5.56918e-10
1.52307e-11
-5.4885e-10
2.07847e-11
-5.7697e-10
8.72874e-11
-6.16113e-10
9.11076e-11
-5.90478e-10
1.15929e-11
-6.1882e-10
6.90787e-11
-6.56956e-10
1.17434e-10
-7.03381e-10
1.37438e-10
-7.29966e-10
1.70064e-10
-7.4597e-10
2.12896e-10
-7.12252e-10
1.56644e-10
-6.35246e-10
1.90606e-11
-5.70572e-10
-9.4416e-11
-4.79924e-10
-3.72273e-10
-4.69747e-10
-6.81599e-10
-2.01683e-10
-7.17731e-10
7.74326e-12
-7.98711e-10
1.90482e-10
-7.90413e-10
2.78225e-10
-7.34595e-10
5.0437e-10
-3.19376e-10
6.62591e-10
-6.23586e-10
6.58783e-10
1.90531e-10
6.9024e-10
3.38167e-10
6.62109e-10
4.54828e-10
5.89791e-10
4.2505e-10
4.9453e-10
3.24675e-10
3.95802e-10
1.77531e-10
2.93536e-10
1.16335e-10
2.22533e-10
3.63941e-11
2.34194e-10
-7.56795e-11
2.47458e-10
-9.88684e-11
2.63935e-10
-1.39376e-10
2.63115e-10
-1.18498e-10
2.52856e-10
-1.27762e-10
2.52291e-10
-1.28166e-10
2.47951e-10
-1.03092e-10
2.45248e-10
-8.84042e-11
2.40218e-10
-8.28354e-11
2.36339e-10
-8.34569e-11
2.26056e-10
-9.12541e-11
2.0723e-10
-1.00666e-10
2.13807e-10
-1.40221e-10
1.84347e-10
-1.35165e-10
1.25912e-10
-8.7166e-11
1.55212e-10
-9.71978e-11
3.55176e-10
-1.89084e-10
4.5036e-10
-1.91704e-11
2.68656e-10
3.59178e-10
5.38024e-16
6.92377e-10
-1.2744e-19
-3.16225e-19
3.00432e-19
-1.60141e-19
4.32916e-19
-1.79142e-19
5.15845e-19
-2.26861e-19
5.94723e-19
-2.65446e-19
6.76904e-19
-2.92864e-19
7.62261e-19
-3.10801e-19
8.48056e-19
-3.19145e-19
9.32056e-19
-3.17714e-19
1.01418e-18
-3.07835e-19
1.09261e-18
-2.90615e-19
1.16272e-18
-2.65642e-19
1.22359e-18
-2.33702e-19
1.27735e-18
-1.97669e-19
1.32194e-18
-1.59241e-19
1.3541e-18
-1.18213e-19
1.37465e-18
-7.50569e-20
1.38525e-18
-3.19066e-20
1.38542e-18
9.46504e-21
1.37373e-18
4.89678e-20
1.35133e-18
8.69208e-20
1.32065e-18
1.23021e-19
1.28287e-18
1.5675e-19
1.23819e-18
1.87925e-19
1.18693e-18
2.16488e-19
1.12969e-18
2.42165e-19
1.0671e-18
2.64619e-19
9.99846e-19
2.83819e-19
9.28746e-19
3.00149e-19
8.54576e-19
3.14172e-19
7.77701e-19
3.26301e-19
6.9808e-19
3.36681e-19
6.15701e-19
3.45331e-19
5.3094e-19
3.52358e-19
4.44454e-19
3.57998e-19
3.56848e-19
3.62485e-19
2.68586e-19
3.65961e-19
1.80015e-19
3.68483e-19
9.12636e-20
3.69979e-19
3.70366e-19
-1.32881e-10
1.39352e-09
-3.0654e-10
1.7086e-09
-5.89503e-10
1.69805e-09
-8.83692e-10
1.52317e-09
-1.0731e-09
1.3125e-09
-1.34002e-09
1.16327e-09
-1.54371e-09
9.11137e-10
-1.78962e-09
8.56695e-10
-1.86971e-09
5.05068e-10
-1.92762e-09
3.57314e-10
-1.93623e-09
9.50472e-11
-1.90308e-09
-1.99266e-10
-1.90164e-09
-2.77889e-10
-1.76704e-09
-5.04839e-10
-1.70861e-09
-7.63075e-10
-1.54829e-09
-8.31904e-10
-1.35319e-09
-8.78159e-10
-1.4107e-09
-7.34263e-10
-1.26863e-09
-8.7062e-10
-1.14288e-09
-6.95844e-10
-1.13452e-09
-5.30026e-10
-1.00778e-09
-4.23692e-10
-9.68912e-10
-3.35824e-10
-9.53861e-10
-1.88185e-10
-8.23291e-10
-5.61123e-11
-6.95871e-10
-2.18711e-10
-6.55339e-10
-1.84312e-10
-6.42753e-10
-1.55398e-10
-7.11745e-10
-9.6265e-11
-6.52482e-10
-5.02575e-11
-6.5508e-10
-5.95007e-11
-6.33938e-10
-5.90735e-12
-6.28077e-10
1.49269e-11
-6.0054e-10
5.97537e-11
-6.12202e-10
1.02774e-10
-6.12148e-10
1.15423e-11
-6.07676e-10
6.461e-11
-6.33178e-10
1.42938e-10
-6.20772e-10
1.25035e-10
-5.85239e-10
1.34533e-10
-5.48579e-10
1.76238e-10
-4.67608e-10
7.56747e-11
-3.95334e-10
-5.32128e-11
-2.91e-10
-1.9875e-10
-1.68993e-10
-4.9428e-10
-8.49649e-11
-7.65626e-10
5.01887e-11
-8.52885e-10
1.60549e-10
-9.09071e-10
2.91662e-10
-9.21527e-10
4.03822e-10
-8.46756e-10
6.08172e-10
-5.23727e-10
5.0797e-10
-5.23384e-10
6.1703e-10
8.14703e-11
6.75078e-10
2.80118e-10
6.76963e-10
4.52943e-10
6.58867e-10
4.43145e-10
6.12551e-10
3.7099e-10
5.27303e-10
2.62779e-10
4.69722e-10
1.73916e-10
4.077e-10
9.84173e-11
3.36369e-10
-4.34793e-12
3.34677e-10
-9.7176e-11
3.17316e-10
-1.22015e-10
3.11573e-10
-1.12755e-10
2.92462e-10
-1.08652e-10
2.77478e-10
-1.13183e-10
2.67943e-10
-9.35587e-11
2.56039e-10
-7.65018e-11
2.42721e-10
-6.95193e-11
2.35587e-10
-7.63258e-11
2.18973e-10
-7.4643e-11
1.39208e-10
-2.09047e-11
-5.66251e-11
5.56079e-11
-3.25525e-10
1.33731e-10
-5.08146e-10
9.54514e-11
-7.33579e-10
1.2823e-10
-7.66101e-10
-1.56566e-10
-5.46045e-10
-2.39229e-10
-1.60693e-10
-2.61746e-11
1.1478e-16
5.31683e-10
1.72534e-19
-1.58935e-19
2.82059e-19
-2.69652e-19
3.8582e-19
-2.81362e-19
4.77878e-19
-3.1687e-19
5.67395e-19
-3.5405e-19
6.58967e-19
-3.84397e-19
7.53917e-19
-4.05748e-19
8.49487e-19
-4.16278e-19
9.41936e-19
-4.13989e-19
1.0314e-18
-3.99472e-19
1.11758e-18
-3.75478e-19
1.19466e-18
-3.42972e-19
1.25963e-18
-3.01815e-19
1.31577e-18
-2.54178e-19
1.36297e-18
-2.03298e-19
1.39725e-18
-1.50651e-19
1.4178e-18
-9.63204e-20
1.42662e-18
-4.13922e-20
1.42492e-18
1.22347e-20
1.41168e-18
6.34633e-20
1.38743e-18
1.1228e-19
1.35438e-18
1.58629e-19
1.31404e-18
2.01878e-19
1.26675e-18
2.41284e-19
1.21261e-18
2.76433e-19
1.15214e-18
3.07247e-19
1.0863e-18
3.33926e-19
1.01618e-18
3.56942e-19
9.42768e-19
3.76935e-19
8.66705e-19
3.94456e-19
7.88081e-19
4.09743e-19
7.0673e-19
4.22747e-19
6.22728e-19
4.3341e-19
5.3658e-19
4.41897e-19
4.48941e-19
4.48559e-19
3.60324e-19
4.53751e-19
2.71108e-19
4.57696e-19
1.81512e-19
4.60446e-19
9.16501e-20
4.61983e-19
4.62341e-19
-2.53587e-10
1.64711e-09
-4.89627e-10
1.94464e-09
-7.66418e-10
1.97484e-09
-9.63435e-10
1.72018e-09
-1.13499e-09
1.48405e-09
-1.31263e-09
1.3409e-09
-1.48401e-09
1.08251e-09
-1.59525e-09
9.67936e-10
-1.54837e-09
4.58183e-10
-1.63295e-09
4.41895e-10
-1.66575e-09
1.27842e-10
-1.69573e-09
-1.69289e-10
-1.6677e-09
-3.05918e-10
-1.5186e-09
-6.53937e-10
-1.5195e-09
-7.62178e-10
-1.51996e-09
-8.31451e-10
-1.46844e-09
-9.29674e-10
-1.17717e-09
-1.02554e-09
-1.08762e-09
-9.60166e-10
-1.00492e-09
-7.78543e-10
-1.05543e-09
-4.79518e-10
-9.64682e-10
-5.14443e-10
-9.58412e-10
-3.42094e-10
-9.34341e-10
-2.12256e-10
-7.45141e-10
-2.45311e-10
-6.67509e-10
-2.96341e-10
-6.70369e-10
-1.8145e-10
-7.0611e-10
-1.19654e-10
-7.11216e-10
-9.11566e-11
-6.78073e-10
-8.3397e-11
-6.88718e-10
-4.88524e-11
-6.80291e-10
-1.43306e-11
-6.8805e-10
2.26892e-11
-6.684e-10
4.01071e-11
-6.31656e-10
6.6033e-11
-6.43636e-10
2.35254e-11
-5.82213e-10
3.18942e-12
-5.98637e-10
1.59365e-10
-5.26063e-10
5.24629e-11
-4.65843e-10
7.43147e-11
-3.54863e-10
6.52589e-11
-2.59781e-10
-1.94067e-11
-2.02986e-10
-1.10007e-10
-6.4529e-11
-3.37206e-10
2.60273e-11
-5.84837e-10
6.07638e-11
-8.00363e-10
1.49887e-10
-9.42008e-10
2.53852e-10
-1.01304e-09
3.17469e-10
-9.85144e-10
3.75062e-10
-9.04351e-10
4.9786e-10
-6.46528e-10
3.74095e-10
-3.99621e-10
4.32381e-10
2.31826e-11
4.80299e-10
2.32197e-10
5.23572e-10
4.09669e-10
5.46234e-10
4.20481e-10
5.38134e-10
3.79089e-10
5.00486e-10
3.00426e-10
4.43912e-10
2.3049e-10
3.84238e-10
1.58091e-10
3.4241e-10
3.74794e-11
3.37698e-10
-9.24649e-11
3.26635e-10
-1.10952e-10
3.20335e-10
-1.06456e-10
3.10765e-10
-9.90824e-11
2.91823e-10
-9.42417e-11
2.76235e-10
-7.79716e-11
2.56654e-10
-5.69216e-11
2.37418e-10
-5.02844e-11
2.27653e-10
-6.65622e-11
2.21829e-10
-6.88197e-11
2.1253e-10
-1.16083e-11
2.19638e-10
4.84967e-11
2.00246e-10
1.5312e-10
1.37338e-10
1.58356e-10
-3.60547e-11
3.0162e-10
-3.71531e-10
1.78909e-10
-5.32401e-10
-7.83604e-11
-1.98601e-10
-3.59974e-10
-7.70621e-16
3.33082e-10
2.45495e-19
2.14641e-19
2.70966e-19
-2.94544e-19
3.50925e-19
-3.57882e-19
4.41307e-19
-4.03287e-19
5.37127e-19
-4.47788e-19
6.37616e-19
-4.84466e-19
7.43388e-19
-5.09462e-19
8.51776e-19
-5.21093e-19
9.56452e-19
-5.17382e-19
1.05539e-18
-4.97818e-19
1.15009e-18
-4.65275e-19
1.23582e-18
-4.22609e-19
1.30726e-18
-3.70682e-19
1.36665e-18
-3.10916e-19
1.41561e-18
-2.46299e-19
1.45158e-18
-1.79662e-19
1.47273e-18
-1.12176e-19
1.48025e-18
-4.47675e-20
1.47615e-18
2.12566e-20
1.4605e-18
8.44076e-20
1.43378e-18
1.43814e-19
1.39762e-18
1.99104e-19
1.35345e-18
2.49923e-19
1.3019e-18
2.95909e-19
1.24342e-18
3.36894e-19
1.17882e-18
3.72989e-19
1.10932e-18
4.04557e-19
1.03617e-18
4.32134e-19
9.6029e-19
4.56278e-19
8.81991e-19
4.77348e-19
8.01085e-19
4.9541e-19
7.17393e-19
5.10414e-19
6.31214e-19
5.22466e-19
5.43242e-19
5.31943e-19
4.54133e-19
5.39337e-19
3.6427e-19
5.45046e-19
2.73858e-19
5.49294e-19
1.83048e-19
5.52176e-19
9.20076e-20
5.53802e-19
5.54336e-19
-3.12803e-10
1.95991e-09
-4.19296e-10
2.05114e-09
-4.77205e-10
2.03275e-09
-5.89687e-10
1.83266e-09
-7.0989e-10
1.60426e-09
-8.00409e-10
1.43142e-09
-9.1817e-10
1.20027e-09
-1.08903e-09
1.1388e-09
-1.35989e-09
7.29039e-10
-1.28836e-09
3.70365e-10
-1.28611e-09
1.25591e-10
-1.3156e-09
-1.39801e-10
-1.23984e-09
-3.81681e-10
-1.18728e-09
-7.06496e-10
-1.15032e-09
-7.99148e-10
-1.04067e-09
-9.41101e-10
-9.49522e-10
-1.02082e-09
-8.96937e-10
-1.07813e-09
-8.27899e-10
-1.02921e-09
-8.83426e-10
-7.23016e-10
-9.17203e-10
-4.45741e-10
-8.97416e-10
-5.34229e-10
-8.50078e-10
-3.89432e-10
-7.74355e-10
-2.87978e-10
-6.39113e-10
-3.80552e-10
-6.28952e-10
-3.06501e-10
-6.74601e-10
-1.35798e-10
-6.72695e-10
-1.21558e-10
-6.37241e-10
-1.26608e-10
-6.47045e-10
-7.35892e-11
-6.53477e-10
-4.24169e-11
-6.70591e-10
2.78602e-12
-6.76065e-10
2.81671e-11
-6.73847e-10
3.78918e-11
-6.52285e-10
4.44741e-11
-6.38353e-10
9.59638e-12
-6.08012e-10
-2.715e-11
-5.59877e-10
1.11232e-10
-4.86251e-10
-2.11623e-11
-3.84974e-10
-2.6961e-11
-2.65106e-10
-5.46089e-11
-1.48073e-10
-1.36439e-10
-5.52216e-11
-2.02858e-10
1.10911e-10
-5.03339e-10
1.98619e-10
-6.72545e-10
1.83352e-10
-7.85097e-10
1.94619e-10
-9.53277e-10
2.59646e-10
-1.07807e-09
3.03469e-10
-1.02897e-09
1.6535e-10
-7.66234e-10
1.18087e-10
-5.99268e-10
1.31088e-10
-4.12624e-10
2.36681e-10
-8.24132e-11
2.72274e-10
1.96601e-10
3.08866e-10
3.73074e-10
3.33475e-10
3.9587e-10
3.3695e-10
3.75612e-10
3.04406e-10
3.32968e-10
2.74572e-10
2.60322e-10
2.68333e-10
1.64328e-10
3.02832e-10
2.97932e-12
3.01943e-10
-9.15771e-11
3.14627e-10
-1.23638e-10
3.19808e-10
-1.11637e-10
3.12788e-10
-9.20638e-11
2.89382e-10
-7.08362e-11
2.58362e-10
-4.69514e-11
2.27519e-10
-2.60769e-11
2.01083e-10
-2.3847e-11
1.75631e-10
-4.11096e-11
1.64556e-10
-5.77436e-11
1.91379e-10
-3.84304e-11
2.47282e-10
-7.40699e-12
3.17346e-10
8.30534e-11
3.19427e-10
1.56274e-10
4.71542e-10
1.49504e-10
5.50441e-10
1.00012e-10
4.0628e-10
6.58016e-11
1.21845e-10
-7.55374e-11
-1.81861e-15
4.5493e-10
-4.54119e-20
-1.08666e-18
2.08241e-19
-5.46802e-19
3.06126e-19
-4.51531e-19
3.97406e-19
-4.89895e-19
5.00514e-19
-5.4744e-19
6.12621e-19
-5.95527e-19
7.31756e-19
-6.26537e-19
8.55488e-19
-6.39207e-19
9.76016e-19
-6.33025e-19
1.08794e-18
-6.07643e-19
1.19275e-18
-5.65577e-19
1.28775e-18
-5.10622e-19
1.36703e-18
-4.45229e-19
1.43127e-18
-3.71278e-19
1.48225e-18
-2.914e-19
1.51907e-18
-2.08888e-19
1.54013e-18
-1.26062e-19
1.54627e-18
-4.4826e-20
1.5393e-18
3.35577e-20
1.51991e-18
1.07988e-19
1.48907e-18
1.77639e-19
1.44844e-18
2.41977e-19
1.39944e-18
3.00673e-19
1.34289e-18
3.53562e-19
1.27952e-18
4.00691e-19
1.21039e-18
4.42349e-19
1.1369e-18
4.78984e-19
1.06031e-18
5.11066e-19
9.81359e-19
5.3897e-19
9.00054e-19
5.62915e-19
8.16088e-19
5.83002e-19
7.29445e-19
5.9938e-19
6.40691e-19
6.12401e-19
5.50636e-19
6.22595e-19
4.59842e-19
6.30505e-19
3.68519e-19
6.36552e-19
2.76739e-19
6.41025e-19
1.84674e-19
6.44135e-19
9.25418e-20
6.46072e-19
6.46991e-19
-1.94313e-10
2.15422e-09
-2.84774e-10
2.14159e-09
-2.82122e-10
2.03009e-09
-3.67118e-10
1.91766e-09
-5.73053e-10
1.81019e-09
-6.79346e-10
1.53771e-09
-8.97902e-10
1.41883e-09
-8.68308e-10
1.1092e-09
-1.00727e-09
8.68003e-10
-9.84525e-10
3.47614e-10
-9.57024e-10
9.80885e-11
-9.82334e-10
-1.14493e-10
-8.93527e-10
-4.7049e-10
-9.77457e-10
-6.22567e-10
-9.57778e-10
-8.18829e-10
-8.96848e-10
-1.00203e-09
-7.63347e-10
-1.15432e-09
-6.72456e-10
-1.16902e-09
-8.39356e-10
-8.62306e-10
-9.46222e-10
-6.1615e-10
-7.35603e-10
-6.5636e-10
-7.56485e-10
-5.13345e-10
-6.92589e-10
-4.53327e-10
-5.86711e-10
-3.93855e-10
-5.74244e-10
-3.93017e-10
-6.22941e-10
-2.57801e-10
-6.23303e-10
-1.35434e-10
-5.83157e-10
-1.61702e-10
-6.04572e-10
-1.0519e-10
-6.2872e-10
-4.94382e-11
-6.33884e-10
-3.72497e-11
-6.5036e-10
1.92653e-11
-6.59421e-10
3.72314e-11
-6.66905e-10
4.53785e-11
-6.53743e-10
3.13148e-11
-6.17532e-10
-2.66125e-11
-6.4907e-10
4.38938e-12
-5.31514e-10
-6.32251e-12
-4.94009e-10
-5.86665e-11
-3.66975e-10
-1.53995e-10
-2.54618e-10
-1.66966e-10
-1.51436e-10
-2.39621e-10
6.71298e-12
-3.61008e-10
1.03693e-10
-6.00319e-10
1.47751e-10
-7.16604e-10
1.75049e-10
-8.12396e-10
1.53649e-10
-9.31877e-10
1.40332e-10
-1.06475e-09
1.24574e-10
-1.01321e-09
1.61008e-10
-8.02671e-10
5.81389e-11
-4.96401e-10
-8.68964e-11
-2.67592e-10
-1.76929e-10
7.61607e-12
-2.19236e-10
2.38905e-10
-1.78342e-10
3.32177e-10
-1.28982e-10
3.46506e-10
-8.56582e-11
3.32285e-10
2.40036e-11
2.23303e-10
1.16217e-10
1.68105e-10
1.72306e-10
1.08237e-10
2.30814e-10
-5.55316e-11
2.72598e-10
-1.33363e-10
3.21055e-10
-1.72096e-10
3.38974e-10
-1.29557e-10
3.31703e-10
-8.47935e-11
2.98451e-10
-3.75833e-11
2.50642e-10
8.58928e-13
2.01762e-10
2.28063e-11
1.54112e-10
2.38065e-11
1.12887e-10
1.19881e-13
9.80302e-11
-4.28839e-11
1.21855e-10
-6.2253e-11
1.80637e-10
-6.61874e-11
2.45635e-10
1.80563e-11
3.32203e-10
6.97083e-11
6.49322e-10
-1.67612e-10
6.91267e-10
5.80693e-11
2.49546e-10
5.07525e-10
-8.87073e-11
2.62719e-10
-1.83931e-15
3.66229e-10
7.34629e-19
1.11827e-18
3.04109e-19
-1.13933e-19
2.6836e-19
-4.13091e-19
3.40451e-19
-5.59941e-19
4.52476e-19
-6.57501e-19
5.8161e-19
-7.249e-19
7.19087e-19
-7.64944e-19
8.61669e-19
-7.79229e-19
1.0014e-18
-7.69458e-19
1.13e-18
-7.36512e-19
1.24771e-18
-6.83011e-19
1.35314e-18
-6.13208e-19
1.44098e-18
-5.31012e-19
1.51115e-18
-4.39562e-19
1.56476e-18
-3.41905e-19
1.6019e-18
-2.41606e-19
1.62137e-18
-1.41506e-19
1.62466e-18
-4.43691e-20
1.61373e-18
4.79223e-20
1.58956e-18
1.34496e-19
1.55341e-18
2.15037e-19
1.50714e-18
2.89163e-19
1.45232e-18
3.56464e-19
1.39002e-18
4.1677e-19
1.32117e-18
4.70217e-19
1.24703e-18
5.17202e-19
1.16898e-18
5.58278e-19
1.08822e-18
5.93992e-19
1.0053e-18
6.24755e-19
9.20141e-19
6.50814e-19
8.32466e-19
6.72363e-19
7.42466e-19
6.89713e-19
6.50885e-19
7.03389e-19
5.58547e-19
7.14047e-19
4.65889e-19
7.22317e-19
3.72992e-19
7.28699e-19
2.79849e-19
7.33551e-19
1.86612e-19
7.37124e-19
9.34604e-20
7.39551e-19
7.40845e-19
-1.53869e-10
2.30809e-09
-2.14106e-10
2.20183e-09
-2.8472e-10
2.10071e-09
-4.00508e-10
2.03344e-09
-4.63525e-10
1.8732e-09
-5.01685e-10
1.57587e-09
-5.02226e-10
1.41937e-09
-6.43626e-10
1.2506e-09
-7.0069e-10
9.25066e-10
-6.88998e-10
3.3592e-10
-6.67552e-10
7.664e-11
-6.19057e-10
-1.6299e-10
-5.61484e-10
-5.28065e-10
-5.50948e-10
-6.33105e-10
-4.61435e-10
-9.08343e-10
-4.10898e-10
-1.05257e-09
-4.72641e-10
-1.09258e-09
-7.033e-10
-9.38359e-10
-7.6407e-10
-8.01536e-10
-6.15827e-10
-7.64393e-10
-5.91564e-10
-6.80622e-10
-5.60562e-10
-5.44347e-10
-5.07615e-10
-5.06273e-10
-4.53909e-10
-4.4756e-10
-5.15438e-10
-3.31486e-10
-5.43101e-10
-2.30136e-10
-5.22217e-10
-1.56316e-10
-5.42114e-10
-1.41803e-10
-5.65998e-10
-8.13032e-11
-5.89829e-10
-2.56043e-11
-6.11598e-10
-1.54781e-11
-6.22375e-10
3.00456e-11
-6.32703e-10
4.75623e-11
-6.38504e-10
5.11824e-11
-6.39468e-10
3.2281e-11
-6.26828e-10
-3.92507e-11
-6.2219e-10
-2.47787e-13
-5.88541e-10
-3.99711e-11
-4.96269e-10
-1.50939e-10
-4.16455e-10
-2.3381e-10
-3.2174e-10
-2.61681e-10
-2.43895e-10
-3.17467e-10
-1.00581e-10
-5.04322e-10
-6.4462e-11
-6.36439e-10
-4.28157e-11
-7.38251e-10
1.84645e-11
-8.73678e-10
6.389e-11
-9.77305e-10
1.20546e-11
-1.01292e-09
-1.70792e-10
-8.3037e-10
-3.42741e-10
-6.30725e-10
-4.386e-10
-4.00545e-10
-4.38411e-10
-2.67785e-10
-4.27462e-10
-3.33621e-12
-4.0405e-10
2.15489e-10
-3.77216e-10
3.05339e-10
-3.66665e-10
3.35951e-10
-3.46376e-10
3.11991e-10
-2.69445e-10
1.46368e-10
-1.69547e-10
6.82028e-11
1.02935e-11
-7.1607e-11
1.46874e-10
-1.92115e-10
2.50632e-10
-2.37123e-10
3.77724e-10
-2.99189e-10
3.8777e-10
-1.39603e-10
3.62545e-10
-5.95682e-11
3.07431e-10
1.75319e-11
2.40866e-10
6.74261e-11
1.73739e-10
8.99378e-11
7.40207e-11
1.23529e-10
-2.1116e-11
9.52607e-11
-3.93519e-11
-2.46442e-11
-9.05706e-12
-9.25444e-11
-3.64088e-11
-3.88327e-11
-5.55266e-11
3.71769e-11
-8.53455e-11
9.95306e-11
-2.22839e-10
-3.01146e-11
2.10885e-10
-3.7565e-10
6.39683e-10
7.87323e-11
3.83479e-10
5.18926e-10
-6.88224e-16
7.49715e-10
-2.06309e-19
2.82132e-19
5.57096e-21
-3.23681e-19
1.22107e-19
-5.30917e-19
2.43474e-19
-6.84663e-19
3.85107e-19
-8.01323e-19
5.41567e-19
-8.84179e-19
7.04802e-19
-9.32748e-19
8.7144e-19
-9.47859e-19
1.03434e-18
-9.32296e-19
1.1835e-18
-8.88534e-19
1.31751e-18
-8.20055e-19
1.43533e-18
-7.31695e-19
1.53243e-18
-6.28687e-19
1.60881e-18
-5.15655e-19
1.66506e-18
-3.96726e-19
1.702e-18
-2.76011e-19
1.71851e-18
-1.5655e-19
1.71695e-18
-4.1212e-20
1.70031e-18
6.7271e-20
1.6701e-18
1.67491e-19
1.62753e-18
2.59548e-19
1.57444e-18
3.43716e-19
1.51263e-18
4.19767e-19
1.44346e-18
4.87412e-19
1.36816e-18
5.46754e-19
1.2881e-18
5.98329e-19
1.20469e-18
6.42906e-19
1.11898e-18
6.81249e-19
1.03136e-18
7.13941e-19
9.4169e-19
7.41347e-19
8.49816e-19
7.63772e-19
7.56142e-19
7.81667e-19
6.61543e-19
7.95713e-19
5.66816e-19
8.06706e-19
4.7227e-19
8.15369e-19
3.77844e-19
8.22236e-19
2.83422e-19
8.27634e-19
1.8904e-19
8.31726e-19
9.47541e-20
8.34527e-19
8.35933e-19
-1.21882e-10
2.42997e-09
-2.27857e-10
2.3078e-09
-3.55288e-10
2.22814e-09
-3.67772e-10
2.04592e-09
-3.57573e-10
1.863e-09
-3.89901e-10
1.60819e-09
-3.13907e-10
1.34337e-09
-2.92727e-10
1.22942e-09
-1.53317e-10
7.85654e-10
-1.6474e-10
3.47341e-10
-2.16565e-10
1.28463e-10
-2.26562e-10
-1.52994e-10
-2.62949e-10
-4.91681e-10
-2.0114e-10
-6.94915e-10
-2.059e-10
-9.03585e-10
-2.98816e-10
-9.59655e-10
-4.20027e-10
-9.7137e-10
-4.75853e-10
-8.82533e-10
-4.41191e-10
-8.36197e-10
-4.49888e-10
-7.55695e-10
-4.9203e-10
-6.38479e-10
-4.0637e-10
-6.30005e-10
-3.35386e-10
-5.77256e-10
-3.66744e-10
-4.162e-10
-4.20274e-10
-2.77954e-10
-4.46844e-10
-2.03563e-10
-4.7526e-10
-1.27898e-10
-5.01096e-10
-1.15965e-10
-5.24782e-10
-5.76142e-11
-5.54729e-10
4.34547e-12
-5.93094e-10
2.28897e-11
-6.11781e-10
4.87356e-11
-6.2441e-10
6.0194e-11
-6.40247e-10
6.70213e-11
-6.46526e-10
3.85615e-11
-6.83921e-10
-1.85468e-12
-6.47101e-10
-3.70669e-11
-6.5077e-10
-3.63027e-11
-5.84533e-10
-2.17177e-10
-5.21494e-10
-2.9685e-10
-4.47344e-10
-3.35832e-10
-3.48722e-10
-4.1609e-10
-2.37342e-10
-6.15704e-10
-1.96136e-10
-6.77646e-10
-1.45191e-10
-7.89197e-10
-1.50363e-10
-8.68508e-10
-1.72291e-10
-9.55379e-10
-1.98499e-10
-9.86715e-10
-2.34156e-10
-7.94715e-10
-2.95911e-10
-5.68973e-10
-3.90807e-10
-3.05651e-10
-5.6611e-10
-9.24849e-11
-6.34989e-10
6.5539e-11
-6.77871e-10
2.58368e-10
-6.81804e-10
3.09268e-10
-6.81558e-10
3.35699e-10
-6.52552e-10
2.8298e-10
-4.72317e-10
-3.38722e-11
-3.26752e-10
-7.73663e-11
-1.64902e-10
-2.3346e-10
1.08517e-10
-4.65536e-10
2.79436e-10
-4.08043e-10
4.86824e-10
-5.06579e-10
4.91062e-10
-1.43841e-10
4.2109e-10
1.04046e-11
3.27807e-10
1.10817e-10
2.32754e-10
1.62481e-10
1.72629e-10
1.50065e-10
1.29311e-10
1.6685e-10
7.71488e-11
1.47425e-10
-1.41512e-10
1.94019e-10
-4.13133e-10
1.79079e-10
-5.58792e-10
1.0683e-10
-5.61133e-10
3.95214e-11
-4.6507e-10
3.47188e-12
-3.96425e-10
-9.87551e-11
-6.12742e-10
-1.59328e-10
-4.16022e-10
-1.17983e-10
-2.31775e-11
1.26085e-10
3.16449e-16
7.26539e-10
-4.94068e-19
-4.98324e-19
-2.0106e-19
-6.16891e-19
-3.10532e-20
-7.05169e-19
1.27384e-19
-8.49585e-19
3.02261e-19
-9.80264e-19
4.92998e-19
-1.07693e-18
6.89691e-19
-1.13285e-18
8.87003e-19
-1.147e-18
1.07811e-18
-1.12251e-18
1.25198e-18
-1.06353e-18
1.40587e-18
-9.75154e-19
1.53834e-18
-8.63421e-19
1.64546e-18
-7.35065e-19
1.72774e-18
-5.96064e-19
1.78578e-18
-4.51851e-19
1.82146e-18
-3.07519e-19
1.83385e-18
-1.66756e-19
1.82543e-18
-3.19068e-20
1.80053e-18
9.43969e-20
1.76215e-18
2.09925e-19
1.7117e-18
3.14238e-19
1.65049e-18
4.08112e-19
1.58027e-18
4.92104e-19
1.50281e-18
5.66269e-19
1.41973e-18
6.30751e-19
1.33268e-18
6.86158e-19
1.24304e-18