/*--------------------------------*- C++ -*----------------------------------*\
  =========                 |
  \\      /  F ield         | OpenFOAM: The Open Source CFD Toolbox
   \\    /   O peration     | Website:  https://openfoam.org
    \\  /    A nd           | Version:  6
     \\/     M anipulation  |
\*---------------------------------------------------------------------------*/
FoamFile
{
    version     2.0;
    format      ascii;
    class       volVectorField;
    location    "200";
    object      U;
}
// * * * * * * * * * * * * * * * * * * * * * * * * * * * * * * * * * * * * * //

dimensions      [0 1 -1 0 0 0 0];

internalField   nonuniform List<vector> 
4800
(
(-6.16882e-05 0 2.38543e-05)
(-0.000173687 0 -6.0814e-05)
(-0.000341024 0 0.000226198)
(-0.000576051 0 4.76857e-05)
(-0.00067205 0 9.60698e-05)
(-0.000770587 0 -1.44673e-05)
(-0.000844975 0 1.23086e-05)
(-0.000892991 0 -2.36834e-06)
(-0.000923608 0 -1.32868e-05)
(-0.000966293 0 3.27724e-05)
(-0.00101576 0 1.07907e-05)
(-0.00103747 0 -2.34543e-06)
(-0.0010089 0 -0.000105949)
(-0.000951384 0 -0.000138193)
(-0.000938809 0 -8.9888e-05)
(-0.000894983 0 0.000190552)
(-0.000762602 0 -0.00027227)
(-0.000677187 0 -0.000100155)
(-0.000599413 0 7.2192e-06)
(-0.00049929 0 -4.21173e-05)
(-0.000438151 0 -5.90913e-05)
(-0.000428826 0 -3.75219e-06)
(-0.000418981 0 1.51552e-05)
(-0.000405065 0 -3.75117e-06)
(-0.00041471 0 8.55285e-06)
(-0.00044144 0 9.08858e-06)
(-0.000446617 0 -5.82159e-07)
(-0.000434814 0 -1.81527e-05)
(-0.000428349 0 -1.84914e-05)
(-0.000429193 0 -2.16887e-05)
(-0.000431955 0 -3.09959e-05)
(-0.000434516 0 -4.82016e-05)
(-0.000435471 0 -7.41348e-05)
(-0.00044406 0 -4.9996e-05)
(-0.000444105 0 -4.96906e-05)
(-0.00043522 0 -4.1789e-05)
(-0.000428968 0 -3.84046e-05)
(-0.000428134 0 -3.50597e-05)
(-0.000426491 0 -3.46878e-05)
(-0.000427272 0 -3.15437e-05)
(-0.000441834 0 -1.34446e-05)
(-0.000464535 0 -1.32356e-05)
(-0.000488879 0 -1.92384e-05)
(-0.000506951 0 -1.98706e-05)
(-0.000473569 0 -4.94491e-05)
(-0.000357439 0 -8.77734e-05)
(-0.000278748 0 -8.22319e-05)
(-0.00022357 0 -8.64408e-05)
(-0.000190416 0 -5.20277e-05)
(-0.000129623 0 -2.91586e-05)
(-0.000121787 0 1.91898e-06)
(-0.000116481 0 4.39934e-05)
(-0.000124562 0 -5.6506e-05)
(-0.00018026 0 4.46369e-05)
(-0.00023773 0 -1.25443e-05)
(-0.000280493 0 -1.44571e-05)
(-0.000308963 0 -3.09964e-05)
(-0.000316737 0 -5.04887e-05)
(-0.000296281 0 -9.22131e-05)
(-0.000296007 0 -5.55992e-05)
(-0.000281553 0 -6.23079e-05)
(-0.000263367 0 -5.43462e-05)
(-0.000242682 0 -4.78007e-05)
(-0.000219766 0 -4.29472e-05)
(-0.000196504 0 -4.0194e-05)
(-0.000178947 0 -3.90975e-05)
(-0.000168712 0 -3.954e-05)
(-0.000160499 0 -3.57203e-05)
(-0.000145225 0 -3.34232e-05)
(-0.000129847 0 -3.33977e-05)
(-0.000123263 0 -3.54718e-05)
(-0.000116141 0 -4.79391e-05)
(-0.000101925 0 -4.91396e-05)
(-7.24218e-05 0 -5.64629e-05)
(-8.12225e-05 0 -8.24785e-05)
(-7.26666e-05 0 -6.22707e-05)
(-0.00021379 0 -7.93016e-06)
(-0.000298571 0 -0.000183234)
(-0.000490894 0 -0.000118711)
(4.46794e-06 0 -0.000106186)
(7.56022e-14 0 -2.43226e-14)
(-7.94681e-13 0 -2.43672e-14)
(1.87886e-13 0 -1.55442e-14)
(2.15253e-13 0 -1.29058e-14)
(2.40172e-13 0 -1.30828e-14)
(2.66591e-13 0 -1.38945e-14)
(2.94603e-13 0 -1.45285e-14)
(3.23455e-13 0 -1.4681e-14)
(3.52608e-13 0 -1.44659e-14)
(3.81569e-13 0 -1.41346e-14)
(4.09224e-13 0 -1.35124e-14)
(4.34582e-13 0 -1.2237e-14)
(4.57809e-13 0 -1.05631e-14)
(4.78999e-13 0 -9.03863e-15)
(4.96856e-13 0 -7.50296e-15)
(5.10404e-13 0 -5.46913e-15)
(5.20365e-13 0 -3.15578e-15)
(5.27269e-13 0 -1.1181e-15)
(5.30278e-13 0 6.67491e-16)
(5.28769e-13 0 2.59196e-15)
(5.2334e-13 0 4.64634e-15)
(5.14784e-13 0 6.46617e-15)
(5.03145e-13 0 7.917e-15)
(4.88256e-13 0 9.21253e-15)
(4.70429e-13 0 1.05219e-14)
(4.50162e-13 0 1.17498e-14)
(4.27635e-13 0 1.2716e-14)
(4.02821e-13 0 1.3397e-14)
(3.75922e-13 0 1.39549e-14)
(3.47509e-13 0 1.45865e-14)
(3.18209e-13 0 1.53714e-14)
(2.88302e-13 0 1.62305e-14)
(2.57606e-13 0 1.69943e-14)
(2.25741e-13 0 1.75177e-14)
(1.92526e-13 0 1.77711e-14)
(1.58184e-13 0 1.78522e-14)
(1.23217e-13 0 1.7905e-14)
(8.809e-14 0 1.80153e-14)
(5.2986e-14 0 1.81997e-14)
(1.77203e-14 0 1.85244e-14)
(-7.17954e-05 0 0.000235563)
(-0.000398688 0 0.00014632)
(-0.000431807 0 0.000137671)
(-0.000473991 0 0.000214535)
(-0.000656967 0 0.000148458)
(-0.000767547 0 6.60204e-05)
(-0.000837845 0 9.3412e-05)
(-0.000896904 0 7.65998e-05)
(-0.000943359 0 9.14582e-05)
(-0.000981861 0 4.24694e-05)
(-0.000999487 0 3.08989e-05)
(-0.00100052 0 2.12576e-05)
(-0.000958631 0 -2.25528e-05)
(-0.000907673 0 -7.49094e-05)
(-0.000848479 0 -0.000122581)
(-0.000812823 0 -8.44173e-05)
(-0.000768954 0 -7.58079e-05)
(-0.000642645 0 -0.000186373)
(-0.000548422 0 -0.000111862)
(-0.00047592 0 -0.000112456)
(-0.00042097 0 -0.000114988)
(-0.000395609 0 -6.57261e-06)
(-0.000348405 0 -3.627e-06)
(-0.00032386 0 -8.57231e-06)
(-0.000324438 0 1.7861e-05)
(-0.000337115 0 2.95736e-05)
(-0.000333302 0 9.54956e-07)
(-0.000297415 0 -2.67601e-05)
(-0.000273482 0 -9.52274e-06)
(-0.000261187 0 2.12554e-05)
(-0.000251545 0 1.58648e-05)
(-0.000255737 0 4.99977e-05)
(-0.000262908 0 4.50795e-05)
(-0.000283624 0 5.42116e-05)
(-0.000291575 0 4.18139e-05)
(-0.000296125 0 3.87878e-05)
(-0.000303789 0 1.4898e-05)
(-0.000314567 0 4.98398e-05)
(-0.000323236 0 3.29233e-05)
(-0.000335884 0 5.53049e-05)
(-0.000365503 0 5.54329e-05)
(-0.000411157 0 3.21768e-05)
(-0.000454427 0 1.80933e-05)
(-0.000479317 0 3.05221e-06)
(-0.000468293 0 -5.07347e-05)
(-0.000349091 0 -0.000183628)
(-0.000296536 0 -9.64127e-05)
(-0.000240357 0 -7.51107e-05)
(-0.000125517 0 0.000178407)
(-3.18392e-05 0 -0.000102757)
(8.92271e-06 0 7.65562e-05)
(8.69324e-05 0 2.75618e-05)
(9.0735e-05 0 0.000126997)
(3.44746e-05 0 0.000119569)
(-7.31423e-06 0 9.92028e-05)
(-9.21259e-05 0 6.50295e-05)
(-0.000168307 0 3.40776e-05)
(-0.000150035 0 9.14132e-06)
(-0.00013671 0 -5.03394e-07)
(-0.000129275 0 -5.26817e-06)
(-0.000118596 0 6.83216e-06)
(-0.000105574 0 -2.75183e-06)
(-9.04646e-05 0 -1.27564e-05)
(-7.53382e-05 0 -1.5777e-05)
(-5.787e-05 0 -1.24427e-05)
(-4.88536e-05 0 -7.68382e-06)
(-3.98348e-05 0 -5.03907e-07)
(-2.81299e-05 0 8.45914e-07)
(-1.09081e-05 0 1.73124e-07)
(1.79221e-05 0 -6.72812e-06)
(4.11368e-05 0 -1.35049e-05)
(6.26159e-05 0 -2.1156e-05)
(8.75858e-05 0 9.46737e-06)
(0.000129718 0 -4.43373e-05)
(0.000166039 0 4.35646e-05)
(0.000208684 0 9.06436e-05)
(0.00017533 0 9.6251e-05)
(0.000263378 0 8.96431e-05)
(-0.000210479 0 1.74577e-06)
(4.69348e-06 0 -7.92734e-05)
(9.23589e-14 0 -2.29651e-13)
(-7.87688e-13 0 -7.78258e-14)
(1.98819e-13 0 -4.10608e-14)
(2.17547e-13 0 -3.6286e-14)
(2.39269e-13 0 -3.86026e-14)
(2.65168e-13 0 -4.1546e-14)
(2.93816e-13 0 -4.36662e-14)
(3.23518e-13 0 -4.44978e-14)
(3.53155e-13 0 -4.40324e-14)
(3.82523e-13 0 -4.26347e-14)
(4.11122e-13 0 -4.03478e-14)
(4.37531e-13 0 -3.67809e-14)
(4.61008e-13 0 -3.20776e-14)
(4.82059e-13 0 -2.69949e-14)
(5.00425e-13 0 -2.17303e-14)
(5.14751e-13 0 -1.58454e-14)
(5.24716e-13 0 -9.40532e-15)
(5.31092e-13 0 -3.06034e-15)
(5.33988e-13 0 2.89398e-15)
(5.32748e-13 0 8.68706e-15)
(5.27214e-13 0 1.43608e-14)
(5.18055e-13 0 1.9607e-14)
(5.05891e-13 0 2.42091e-14)
(4.9086e-13 0 2.82568e-14)
(4.72966e-13 0 3.18973e-14)
(4.52356e-13 0 3.51382e-14)
(4.29282e-13 0 3.7955e-14)
(4.0406e-13 0 4.0451e-14)
(3.77112e-13 0 4.2833e-14)
(3.48925e-13 0 4.52516e-14)
(3.19853e-13 0 4.76726e-14)
(2.89925e-13 0 4.98832e-14)
(2.58893e-13 0 5.1627e-14)
(2.26518e-13 0 5.27795e-14)
(1.92861e-13 0 5.34408e-14)
(1.58317e-13 0 5.38643e-14)
(1.2338e-13 0 5.42701e-14)
(8.83847e-14 0 5.47206e-14)
(5.3495e-14 0 5.51757e-14)
(1.8045e-14 0 5.5615e-14)
(-4.92404e-06 0 0.000424551)
(-0.00015339 0 0.000458878)
(-0.000372494 0 0.000354772)
(-0.000533213 0 0.000206045)
(-0.000576102 0 0.000331154)
(-0.000698335 0 0.000237148)
(-0.000755167 0 0.000232015)
(-0.000839927 0 0.000166033)
(-0.000918002 0 8.36707e-05)
(-0.000948372 0 9.17448e-05)
(-0.000956109 0 5.87559e-05)
(-0.00094802 0 -7.07502e-05)
(-0.000923261 0 -0.000163381)
(-0.00088382 0 -0.000129347)
(-0.000811578 0 -0.000143757)
(-0.000750064 0 -0.000168689)
(-0.000707138 0 -0.000136733)
(-0.000601429 0 -0.000251077)
(-0.000527376 0 -0.000244327)
(-0.000504384 0 -0.000127845)
(-0.000428347 0 -0.00016085)
(-0.000397047 0 -2.18209e-05)
(-0.000323064 0 -5.42448e-05)
(-0.000294562 0 -1.85349e-05)
(-0.000291349 0 8.14037e-06)
(-0.000292728 0 1.01603e-05)
(-0.000276963 0 -2.62927e-05)
(-0.000256361 0 -4.67992e-05)
(-0.000236012 0 -6.97017e-05)
(-0.000236996 0 1.83855e-05)
(-0.00021777 0 -4.06608e-05)
(-0.000213822 0 1.68912e-06)
(-0.000210088 0 -3.04295e-06)
(-0.000214174 0 5.04597e-06)
(-0.000224652 0 -5.94823e-06)
(-0.000234089 0 -7.38898e-06)
(-0.00024627 0 -1.14742e-05)
(-0.000266597 0 -9.17009e-06)
(-0.000291079 0 -4.98054e-06)
(-0.000319955 0 1.99711e-05)
(-0.000348421 0 6.9483e-05)
(-0.000372566 0 7.32212e-05)
(-0.000386376 0 5.89021e-05)
(-0.000393936 0 1.69339e-05)
(-0.000367774 0 -6.38497e-05)
(-0.000220297 0 -0.000300902)
(-0.000261824 0 -0.00014966)
(-0.000122275 0 -0.000243266)
(-7.68067e-05 0 -0.000258974)
(1.70521e-05 0 -0.000245659)
(0.000113946 0 7.21405e-06)
(0.000183666 0 -0.000140096)
(0.000228641 0 -2.97748e-05)
(0.000184054 0 0.000110779)
(0.000132381 0 0.000154356)
(8.95509e-05 0 0.000132782)
(0.00011193 0 9.36629e-05)
(8.649e-05 0 3.32143e-05)
(3.71571e-05 0 -1.49926e-05)
(-2.70042e-05 0 -4.08575e-05)
(-3.64555e-05 0 -4.40881e-05)
(-3.02353e-05 0 -4.99461e-05)
(-7.97213e-06 0 -5.20439e-05)
(-2.30048e-07 0 -5.0722e-05)
(2.0371e-05 0 -5.44545e-05)
(3.63657e-05 0 -4.89754e-05)
(5.50355e-05 0 -4.65205e-05)
(7.00346e-05 0 -4.31397e-05)
(7.74354e-05 0 -4.46454e-05)
(8.31827e-05 0 -4.3649e-05)
(8.69669e-05 0 -4.49633e-05)
(9.25359e-05 0 -5.02836e-05)
(0.000116115 0 -4.75635e-05)
(0.000137598 0 -6.48632e-05)
(0.000156905 0 -5.75114e-05)
(0.000198093 0 -2.68477e-05)
(0.000243989 0 -7.16774e-06)
(0.00030379 0 1.92755e-05)
(1.93886e-05 0 3.46761e-05)
(5.29866e-06 0 9.7313e-05)
(6.68888e-14 0 1.27337e-13)
(-5.98552e-13 0 3.27553e-16)
(2.29147e-13 0 -3.47275e-14)
(2.17795e-13 0 -5.23307e-14)
(2.35145e-13 0 -6.30261e-14)
(2.61572e-13 0 -6.97836e-14)
(2.91651e-13 0 -7.39115e-14)
(3.23089e-13 0 -7.57667e-14)
(3.54471e-13 0 -7.53656e-14)
(3.85254e-13 0 -7.28989e-14)
(4.15078e-13 0 -6.86412e-14)
(4.42852e-13 0 -6.26627e-14)
(4.67595e-13 0 -5.51061e-14)
(4.89346e-13 0 -4.64074e-14)
(5.08005e-13 0 -3.69777e-14)
(5.22729e-13 0 -2.6976e-14)
(5.3315e-13 0 -1.65215e-14)
(5.39568e-13 0 -5.94286e-15)
(5.42026e-13 0 4.36623e-15)
(5.40236e-13 0 1.42034e-14)
(5.3426e-13 0 2.34486e-14)
(5.24633e-13 0 3.20011e-14)
(5.11795e-13 0 3.97893e-14)
(4.95944e-13 0 4.68127e-14)
(4.7731e-13 0 5.31404e-14)
(4.5622e-13 0 5.88708e-14)
(4.32948e-13 0 6.41083e-14)
(4.07699e-13 0 6.8947e-14)
(3.80723e-13 0 7.34381e-14)
(3.52348e-13 0 7.75536e-14)
(3.2284e-13 0 8.11774e-14)
(2.92256e-13 0 8.41564e-14)
(2.60502e-13 0 8.64088e-14)
(2.27555e-13 0 8.80193e-14)
(1.93611e-13 0 8.92189e-14)
(1.59013e-13 0 9.02374e-14)
(1.24073e-13 0 9.11618e-14)
(8.89957e-14 0 9.19442e-14)
(5.38803e-14 0 9.24973e-14)
(1.81596e-14 0 9.2705e-14)
(-8.62241e-05 0 0.000506975)
(-5.68357e-05 0 0.000559156)
(-0.000233113 0 0.000508417)
(-0.000411165 0 0.000435581)
(-0.000505564 0 0.000385423)
(-0.000626793 0 0.000266549)
(-0.000707257 0 0.0001856)
(-0.000800801 0 0.000110919)
(-0.00083344 0 0.000168672)
(-0.000858554 0 0.000114767)
(-0.000856123 0 1.09195e-05)
(-0.000844706 0 -1.86002e-05)
(-0.000872818 0 -6.72192e-05)
(-0.000885572 0 -9.08983e-05)
(-0.000788987 0 -0.000274795)
(-0.000687878 0 -0.000280508)
(-0.0006528 0 -0.000205293)
(-0.000564971 0 -0.000336923)
(-0.000532274 0 -0.000274974)
(-0.000506419 0 -0.00018987)
(-0.000430196 0 -0.000219838)
(-0.000412782 0 -0.000105118)
(-0.000351858 0 -0.000120915)
(-0.000339521 0 -8.83809e-05)
(-0.00033747 0 2.53069e-05)
(-0.000295449 0 -1.26382e-05)
(-0.000260069 0 -3.38927e-05)
(-0.000247825 0 -3.64719e-05)
(-0.000233407 0 -8.3901e-05)
(-0.000242465 0 7.05629e-06)
(-0.00023186 0 -1.33906e-05)
(-0.000223586 0 2.49033e-05)
(-0.000219706 0 2.45931e-05)
(-0.000228989 0 2.35767e-05)
(-0.000238247 0 1.63714e-05)
(-0.000238127 0 2.17695e-05)
(-0.000242125 0 3.21598e-05)
(-0.000254847 0 4.98436e-05)
(-0.000266043 0 5.4382e-05)
(-0.000284052 0 6.99275e-05)
(-0.000299094 0 7.54266e-05)
(-0.000298412 0 7.04542e-05)
(-0.000275668 0 5.94348e-06)
(-0.00025539 0 -5.3936e-05)
(-0.00021916 0 -0.000155012)
(-0.000170421 0 -0.00024096)
(-0.000166057 0 -0.000237239)
(1.82694e-05 0 -0.000307751)
(6.99826e-05 0 -0.00030782)
(3.30488e-05 0 -0.000292799)
(0.000222832 0 -9.3013e-05)
(0.000148028 0 -0.000284212)
(0.000298737 0 0.000116364)
(0.000282047 0 0.000174181)
(0.000267642 0 0.000192982)
(0.000248298 0 0.000177108)
(0.000219828 0 0.000141125)
(0.000209613 0 4.76439e-05)
(0.000152301 0 1.67176e-05)
(7.81431e-05 0 -5.79264e-06)
(8.45959e-05 0 -2.06493e-05)
(9.75445e-05 0 -2.60404e-05)
(0.000106936 0 -4.79095e-05)
(0.000109419 0 -4.07612e-05)
(0.000103428 0 -5.14964e-05)
(9.92753e-05 0 -5.20103e-05)
(9.81694e-05 0 -4.24439e-05)
(9.77791e-05 0 -3.52104e-05)
(9.68068e-05 0 -3.17809e-05)
(9.51114e-05 0 -3.19089e-05)
(9.31786e-05 0 -3.48585e-05)
(9.02666e-05 0 -3.74235e-05)
(9.395e-05 0 -4.93454e-05)
(8.72529e-05 0 -4.92286e-05)
(5.84166e-05 0 -4.77046e-05)
(4.70112e-05 0 -3.89815e-05)
(5.48644e-05 0 -4.31164e-05)
(0.000225912 0 -2.95186e-05)
(-0.000160934 0 4.16884e-05)
(4.85003e-06 0 0.000178241)
(5.41822e-15 0 2.71902e-13)
(-9.15252e-13 0 2.17565e-14)
(1.46671e-13 0 -4.50408e-14)
(1.89753e-13 0 -7.43235e-14)
(2.22109e-13 0 -9.05955e-14)
(2.54325e-13 0 -1.00705e-13)
(2.87833e-13 0 -1.06934e-13)
(3.22063e-13 0 -1.09779e-13)
(3.56022e-13 0 -1.09342e-13)
(3.89247e-13 0 -1.05966e-13)
(4.21358e-13 0 -9.99287e-14)
(4.51067e-13 0 -9.12472e-14)
(4.77263e-13 0 -8.0332e-14)
(5.00188e-13 0 -6.7985e-14)
(5.19856e-13 0 -5.45986e-14)
(5.35207e-13 0 -4.02422e-14)
(5.45749e-13 0 -2.52834e-14)
(5.5198e-13 0 -1.03819e-14)
(5.54135e-13 0 4.03275e-15)
(5.5183e-13 0 1.79018e-14)
(5.45012e-13 0 3.11183e-14)
(5.34396e-13 0 4.34645e-14)
(5.20703e-13 0 5.48472e-14)
(5.04212e-13 0 6.53535e-14)
(4.85024e-13 0 7.50625e-14)
(4.63324e-13 0 8.39154e-14)
(4.39359e-13 0 9.1793e-14)
(4.1339e-13 0 9.86567e-14)
(3.85718e-13 0 1.0459e-13)
(3.56664e-13 0 1.09723e-13)
(3.26455e-13 0 1.14136e-13)
(2.95156e-13 0 1.1784e-13)
(2.62756e-13 0 1.20842e-13)
(2.29328e-13 0 1.23229e-13)
(1.95079e-13 0 1.25149e-13)
(1.6026e-13 0 1.26722e-13)
(1.25087e-13 0 1.27989e-13)
(8.97203e-14 0 1.28936e-13)
(5.42558e-14 0 1.29517e-13)
(1.82527e-14 0 1.29688e-13)
(-0.00010332 0 0.000536898)
(-6.33816e-05 0 0.000644788)
(-0.000160822 0 0.000611685)
(-0.0003177 0 0.00055446)
(-0.000394311 0 0.000505136)
(-0.000463537 0 0.000447535)
(-0.000623943 0 0.000339696)
(-0.000663179 0 0.000345313)
(-0.000746828 0 0.000177604)
(-0.000768819 0 0.000113354)
(-0.000776263 0 4.01594e-05)
(-0.000762398 0 -0.000132947)
(-0.00075845 0 -0.000149012)
(-0.000751201 0 -0.000182929)
(-0.000706752 0 -0.00028482)
(-0.000652368 0 -0.000325268)
(-0.000528116 0 -0.000455136)
(-0.000549454 0 -0.000362747)
(-0.000532942 0 -0.000287601)
(-0.000478572 0 -0.000266559)
(-0.000454969 0 -0.000198892)
(-0.000425942 0 -0.000142278)
(-0.000399853 0 -0.000133559)
(-0.000397375 0 -8.17469e-05)
(-0.000358751 0 1.75017e-05)
(-0.000289912 0 -6.09692e-05)
(-0.000265466 0 -7.26581e-05)
(-0.000263445 0 -6.97287e-05)
(-0.00027063 0 -6.19603e-05)
(-0.000272707 0 -1.24112e-05)
(-0.000259717 0 -3.65974e-05)
(-0.000258391 0 -1.17937e-05)
(-0.000257394 0 -1.61402e-05)
(-0.000254035 0 4.03481e-05)
(-0.000237687 0 7.49343e-05)
(-0.000246766 0 -5.97577e-06)
(-0.000243561 0 2.84919e-05)
(-0.000249946 0 4.09746e-05)
(-0.000249127 0 4.4844e-05)
(-0.000238174 0 5.52998e-05)
(-0.000222866 0 8.32097e-05)
(-0.000207302 0 3.84241e-05)
(-0.000176674 0 -1.28458e-05)
(-0.000159041 0 -5.01152e-05)
(-0.00010658 0 -0.000186097)
(-3.11078e-05 0 -0.000311083)
(1.57813e-06 0 -0.000349766)
(7.13968e-05 0 -0.000351065)
(9.78883e-05 0 -0.000355111)
(0.0001103 0 -0.000334335)
(0.000251617 0 -0.000193747)
(0.00014003 0 -0.000232694)
(0.000252865 0 7.78703e-05)
(0.000264908 0 0.000106542)
(0.000274809 0 0.000172202)
(0.000268923 0 0.000171411)
(0.000256612 0 0.000142847)
(0.000236038 0 0.000104754)
(0.00020411 0 6.8846e-05)
(0.000167813 0 3.44228e-05)
(0.000142154 0 -2.22825e-05)
(0.000132872 0 -2.32299e-05)
(0.000129339 0 -4.77898e-05)
(0.000127958 0 -4.51177e-05)
(0.000119327 0 -5.02524e-05)
(0.00011123 0 -5.14528e-05)
(0.000108127 0 -3.87519e-05)
(0.000103642 0 -3.44349e-05)
(9.91714e-05 0 -3.44788e-05)
(9.48485e-05 0 -3.53612e-05)
(8.9559e-05 0 -3.46425e-05)
(7.79016e-05 0 -2.96391e-05)
(6.73238e-05 0 -1.58763e-05)
(-7.97465e-05 0 -1.44882e-06)
(-0.000208723 0 1.70453e-05)
(-0.000226633 0 3.97786e-05)
(-0.000222566 0 2.38448e-05)
(-0.000360329 0 6.00435e-05)
(-0.000459266 0 0.000137725)
(5.29069e-06 0 0.000268085)
(-1.54462e-13 0 -9.24474e-14)
(-8.54251e-13 0 -8.59586e-14)
(1.33577e-13 0 -9.21008e-14)
(1.7274e-13 0 -1.08746e-13)
(2.09051e-13 0 -1.23899e-13)
(2.45272e-13 0 -1.35452e-13)
(2.82577e-13 0 -1.4331e-13)
(3.20681e-13 0 -1.47085e-13)
(3.58285e-13 0 -1.46341e-13)
(3.94667e-13 0 -1.41461e-13)
(4.29796e-13 0 -1.33218e-13)
(4.62449e-13 0 -1.21723e-13)
(4.90857e-13 0 -1.07104e-13)
(5.1508e-13 0 -9.03695e-14)
(5.35748e-13 0 -7.25079e-14)
(5.52044e-13 0 -5.37727e-14)
(5.6301e-13 0 -3.42755e-14)
(5.68884e-13 0 -1.46598e-14)
(5.70309e-13 0 4.33995e-15)
(5.67322e-13 0 2.24862e-14)
(5.59823e-13 0 3.98401e-14)
(5.48362e-13 0 5.633e-14)
(5.33684e-13 0 7.17255e-14)
(5.16159e-13 0 8.58419e-14)
(4.95872e-13 0 9.85842e-14)
(4.7295e-13 0 1.09882e-13)
(4.47689e-13 0 1.19709e-13)
(4.20496e-13 0 1.28152e-13)
(3.91789e-13 0 1.35417e-13)
(3.61895e-13 0 1.41726e-13)
(3.30957e-13 0 1.47209e-13)
(2.98962e-13 0 1.51886e-13)
(2.65891e-13 0 1.55748e-13)
(2.31862e-13 0 1.58851e-13)
(1.97104e-13 0 1.61311e-13)
(1.61853e-13 0 1.63247e-13)
(1.26286e-13 0 1.64731e-13)
(9.05239e-14 0 1.65786e-13)
(5.46324e-14 0 1.66392e-13)
(1.833e-14 0 1.66541e-13)
(-0.000111001 0 0.000584491)
(-0.000158263 0 0.000713377)
(-0.000225696 0 0.000710308)
(-0.000349773 0 0.000614202)
(-0.000434526 0 0.000518855)
(-0.000463629 0 0.000466413)
(-0.000597794 0 0.00032531)
(-0.000616689 0 0.000300054)
(-0.00062818 0 0.00020677)
(-0.000634283 0 0.000167524)
(-0.000665757 0 2.92245e-05)
(-0.000680744 0 -5.29128e-05)
(-0.000677571 0 -0.000103208)
(-0.00062622 0 -0.000237471)
(-0.000595356 0 -0.000299912)
(-0.000599295 0 -0.000278678)
(-0.000623555 0 -0.000220696)
(-0.000552445 0 -0.000330511)
(-0.000385089 0 -0.000440577)
(-0.000419613 0 -0.000292229)
(-0.000426165 0 -0.000244496)
(-0.000393626 0 -0.000205321)
(-0.000410424 0 -0.000145776)
(-0.000394622 0 -7.71376e-05)
(-0.00032421 0 -5.33236e-05)
(-0.000269323 0 -0.000110195)
(-0.000272591 0 -7.99801e-05)
(-0.000279084 0 -7.17579e-05)
(-0.000286028 0 -7.96763e-06)
(-0.00027441 0 -2.43831e-05)
(-0.000274341 0 -1.32778e-05)
(-0.000277995 0 -1.08311e-06)
(-0.000273985 0 2.07888e-05)
(-0.000265115 0 1.3975e-05)
(-0.000258373 0 1.99112e-05)
(-0.000254484 0 1.50857e-05)
(-0.000249605 0 2.17754e-05)
(-0.000240598 0 6.9525e-05)
(-0.000223729 0 5.68531e-05)
(-0.00019572 0 4.35322e-05)
(-0.000157108 0 4.88461e-05)
(-0.000121488 0 1.65344e-05)
(-9.53311e-05 0 -2.55319e-05)
(-7.26358e-05 0 -8.39671e-05)
(-3.4575e-05 0 -0.000202549)
(2.76137e-05 0 -0.000314222)
(4.16351e-05 0 -0.000369604)
(0.000101226 0 -0.000397571)
(0.000114824 0 -0.000386824)
(0.000116941 0 -0.000354191)
(0.000222041 0 -0.00023485)
(4.54303e-05 0 -0.000209645)
(0.000195572 0 -7.48404e-05)
(0.000202183 0 8.26495e-05)
(0.000211053 0 0.000171759)
(0.000216503 0 0.000170722)
(0.000217556 0 0.000144145)
(0.000214635 0 0.00010255)
(0.00019475 0 7.11157e-05)
(0.000159028 0 4.72986e-05)
(0.000139383 0 2.18838e-05)
(0.000128728 0 -5.39459e-05)
(0.000130338 0 -4.73259e-05)
(0.000128308 0 -4.85201e-05)
(0.000126467 0 -3.9673e-05)
(0.000118495 0 -4.21388e-05)
(0.000112979 0 -3.29791e-05)
(0.000108301 0 -2.31019e-05)
(0.00010238 0 -2.10902e-05)
(9.33571e-05 0 -2.89901e-05)
(8.50464e-05 0 -3.41206e-05)
(8.69598e-05 0 -6.41975e-06)
(0.000101658 0 1.41458e-05)
(8.0725e-05 0 6.10716e-05)
(7.85454e-05 0 5.38578e-05)
(8.09659e-06 0 6.93792e-05)
(3.54812e-05 0 -6.77152e-05)
(-0.00029389 0 -0.000208853)
(-0.000499511 0 -0.000104076)
(5.22328e-06 0 0.000241734)
(-1.27496e-13 0 9.30804e-15)
(-8.41771e-13 0 -1.12839e-13)
(1.24379e-13 0 -1.27849e-13)
(1.58447e-13 0 -1.44032e-13)
(1.95683e-13 0 -1.60368e-13)
(2.34948e-13 0 -1.73773e-13)
(2.76201e-13 0 -1.83042e-13)
(3.19033e-13 0 -1.87474e-13)
(3.61646e-13 0 -1.86274e-13)
(4.02369e-13 0 -1.79458e-13)
(4.41096e-13 0 -1.68151e-13)
(4.77181e-13 0 -1.53116e-13)
(5.08616e-13 0 -1.34499e-13)
(5.34783e-13 0 -1.13019e-13)
(5.56453e-13 0 -8.99194e-14)
(5.73439e-13 0 -6.60626e-14)
(5.84862e-13 0 -4.16992e-14)
(5.90595e-13 0 -1.72319e-14)
(5.9128e-13 0 6.69826e-15)
(5.87331e-13 0 2.95742e-14)
(5.78856e-13 0 5.12188e-14)
(5.66281e-13 0 7.15466e-14)
(5.50215e-13 0 9.03601e-14)
(5.3107e-13 0 1.07439e-13)
(5.09065e-13 0 1.22665e-13)
(4.84449e-13 0 1.36047e-13)
(4.57628e-13 0 1.47697e-13)
(4.29098e-13 0 1.57815e-13)
(3.99292e-13 0 1.66643e-13)
(3.68456e-13 0 1.74361e-13)
(3.36615e-13 0 1.81031e-13)
(3.03696e-13 0 1.86632e-13)
(2.69721e-13 0 1.91175e-13)
(2.34891e-13 0 1.94768e-13)
(1.99475e-13 0 1.97579e-13)
(1.63681e-13 0 1.99759e-13)
(1.27626e-13 0 2.01398e-13)
(9.13813e-14 0 2.02524e-13)
(5.50112e-14 0 2.03157e-13)
(1.84015e-14 0 2.03335e-13)
(-0.000120272 0 0.000681765)
(-0.000193926 0 0.000792441)
(-0.000123016 0 0.000834489)
(-0.000238128 0 0.000742492)
(-0.00026401 0 0.000663038)
(-0.000301903 0 0.000584245)
(-0.000349308 0 0.000527409)
(-0.000412628 0 0.000477103)
(-0.00058494 0 0.000147417)
(-0.000502084 0 0.000178761)
(-0.000517438 0 8.44635e-05)
(-0.000527766 0 -6.72305e-05)
(-0.000518826 0 -0.000144196)
(-0.000452264 0 -0.000312285)
(-0.000460203 0 -0.00033287)
(-0.000436636 0 -0.000394196)
(-0.00038195 0 -0.000469536)
(-0.000409683 0 -0.000432461)
(-0.000349181 0 -0.000381969)
(-0.000218319 0 -0.000406448)
(-0.000453192 0 -0.000121305)
(-0.000327085 0 -0.000238215)
(-0.000384742 0 -0.000116636)
(-0.000340375 0 -6.32398e-05)
(-0.000266281 0 -0.000133665)
(-0.000248499 0 -0.000135669)
(-0.000272109 0 -8.02428e-05)
(-0.000277456 0 -2.32278e-05)
(-0.000255856 0 -6.03993e-05)
(-0.000257495 0 -4.13616e-05)
(-0.00026205 0 -2.16887e-05)
(-0.000267569 0 -5.17824e-06)
(-0.000270585 0 1.03565e-05)
(-0.000271371 0 1.48499e-05)
(-0.000268277 0 1.85594e-05)
(-0.000256814 0 4.37048e-06)
(-0.000249626 0 -1.55553e-05)
(-0.000233348 0 7.34262e-05)
(-0.000212083 0 -3.21635e-06)
(-0.000171548 0 2.55006e-05)
(-0.000123297 0 9.91378e-06)
(-7.65353e-05 0 -1.95596e-05)
(-4.59083e-05 0 -4.58328e-05)
(-1.79737e-06 0 -0.000166504)
(5.38757e-05 0 -0.000235606)
(8.288e-05 0 -0.000302372)
(6.0648e-05 0 -0.000376934)
(0.000104736 0 -0.00041749)
(0.000114933 0 -0.000400929)
(0.000125735 0 -0.000340395)
(-1.29695e-05 0 -0.000298927)
(2.5732e-05 0 -0.00017552)
(9.24285e-05 0 1.63476e-05)
(0.000129786 0 9.69368e-05)
(0.000131002 0 0.000157816)
(0.000121626 0 0.000162267)
(0.000144253 0 0.000151468)
(0.000142877 0 0.000134622)
(0.000112776 0 0.000111533)
(9.99146e-05 0 7.38798e-05)
(0.000110114 0 -2.58746e-06)
(0.000114919 0 -3.65794e-05)
(0.000119514 0 -5.08019e-05)
(0.00012831 0 -3.9431e-05)
(0.000125148 0 -4.11376e-05)
(0.00012071 0 -3.41486e-05)
(0.000110878 0 -2.69743e-05)
(0.000100445 0 -1.42167e-05)
(8.96257e-05 0 -1.04981e-05)
(7.91283e-05 0 -2.15482e-05)
(6.31515e-05 0 -2.39248e-05)
(6.93739e-05 0 -1.05596e-05)
(8.75431e-05 0 1.23171e-05)
(0.000113911 0 5.00067e-05)
(0.000158669 0 4.86162e-05)
(0.000125436 0 0.000125)
(0.00016546 0 9.65342e-05)
(0.00033983 0 7.56764e-05)
(-0.000317104 0 -8.64437e-05)
(5.01541e-06 0 0.000107048)
(-3.65604e-14 0 -1.76523e-13)
(-9.16676e-13 0 -1.68269e-13)
(1.02874e-13 0 -1.61883e-13)
(1.40707e-13 0 -1.78636e-13)
(1.79581e-13 0 -1.99046e-13)
(2.22626e-13 0 -2.15999e-13)
(2.68875e-13 0 -2.272e-13)
(3.17449e-13 0 -2.3206e-13)
(3.66301e-13 0 -2.30081e-13)
(4.1279e-13 0 -2.21092e-13)
(4.56138e-13 0 -2.06171e-13)
(4.961e-13 0 -1.86646e-13)
(5.30955e-13 0 -1.63182e-13)
(5.5966e-13 0 -1.36439e-13)
(5.82704e-13 0 -1.0754e-13)
(6.00264e-13 0 -7.771e-14)
(6.11841e-13 0 -4.76476e-14)
(6.17281e-13 0 -1.79187e-14)
(6.17115e-13 0 1.09629e-14)
(6.11842e-13 0 3.84792e-14)
(6.01795e-13 0 6.42906e-14)
(5.87503e-13 0 8.82161e-14)
(5.69576e-13 0 1.10119e-13)
(5.48464e-13 0 1.29894e-13)
(5.24481e-13 0 1.47517e-13)
(4.97981e-13 0 1.63068e-13)
(4.69457e-13 0 1.76708e-13)
(4.39442e-13 0 1.8864e-13)
(4.08335e-13 0 1.9905e-13)
(3.76283e-13 0 2.08053e-13)
(3.43229e-13 0 2.15683e-13)
(3.09107e-13 0 2.21959e-13)
(2.74027e-13 0 2.26973e-13)
(2.38265e-13 0 2.30908e-13)
(2.02096e-13 0 2.33968e-13)
(1.65672e-13 0 2.3632e-13)
(1.29052e-13 0 2.38064e-13)
(9.22827e-14 0 2.39262e-13)
(5.54432e-14 0 2.39975e-13)
(1.85084e-14 0 2.40265e-13)
(-0.000102247 0 0.000825142)
(-8.83182e-05 0 0.000877911)
(-9.39052e-05 0 0.000829284)
(-0.000139312 0 0.000769205)
(-0.000196039 0 0.000693661)
(-0.000256072 0 0.000591836)
(-0.000270515 0 0.000513239)
(-0.000497065 0 0.000261761)
(-0.000309514 0 0.000366255)
(-0.000421117 0 0.000114339)
(-0.000399046 0 -1.33503e-05)
(-0.000383941 0 -6.78739e-05)
(-0.000362179 0 -0.000143724)
(-0.000373295 0 -0.000232191)
(-0.000370595 0 -0.000293367)
(-0.000370884 0 -0.000378081)
(-0.00036866 0 -0.000423706)
(-0.000242347 0 -0.000485711)
(-0.00023159 0 -0.000401733)
(-0.000454015 0 -0.000170697)
(-0.000292983 0 -0.000251911)
(-0.000317859 0 -0.000177847)
(-0.000293018 0 -0.000165111)
(-0.000265802 0 -0.000139654)
(-0.000214567 0 -0.00017183)
(-0.000242255 0 -0.000108018)
(-0.000264192 0 -1.21768e-05)
(-0.000234699 0 -6.31587e-05)
(-0.000237536 0 -4.65172e-05)
(-0.000249563 0 -2.26511e-05)
(-0.000252286 0 -1.36605e-05)
(-0.000257371 0 1.56189e-05)
(-0.0002636 0 1.52781e-05)
(-0.000267271 0 1.72552e-05)
(-0.000264582 0 2.03438e-05)
(-0.000257778 0 1.35764e-05)
(-0.000253859 0 -9.12901e-06)
(-0.000235276 0 3.34599e-05)
(-0.000206947 0 -9.71693e-06)
(-0.000165598 0 -2.51017e-05)
(-0.000120084 0 -3.6901e-05)
(-7.41827e-05 0 -7.43115e-05)
(-3.73864e-05 0 -9.32287e-05)
(3.36804e-05 0 -0.0002008)
(4.4515e-05 0 -0.000253804)
(5.49975e-05 0 -0.000306565)
(7.50143e-05 0 -0.000365281)
(6.10884e-05 0 -0.000422499)
(5.97707e-05 0 -0.000398697)
(1.52049e-05 0 -0.00031979)
(4.31686e-05 0 -0.000261473)
(-6.47223e-06 0 -0.000145368)
(-4.35891e-05 0 -3.29968e-05)
(-0.00010306 0 7.88802e-05)
(-8.13537e-05 0 0.000124314)
(-3.71588e-05 0 0.000130619)
(-4.19184e-05 0 0.000142505)
(-1.42112e-05 0 0.00011368)
(6.4817e-05 0 9.11122e-05)
(3.09016e-05 0 7.03986e-05)
(7.04886e-05 0 -3.88814e-06)
(9.08557e-05 0 -4.15842e-05)
(0.00011744 0 -5.44071e-05)
(0.000130655 0 -4.95025e-05)
(0.000132386 0 -3.0922e-05)
(0.000126054 0 -1.88136e-05)
(0.000112577 0 -5.12396e-06)
(9.39243e-05 0 2.97465e-06)
(7.69611e-05 0 1.78692e-06)
(6.037e-05 0 9.79291e-08)
(3.42499e-05 0 -1.36707e-05)
(4.56515e-05 0 -2.2739e-05)
(5.04828e-05 0 -2.62171e-05)
(8.77449e-05 0 6.30854e-06)
(0.000134571 0 5.72619e-05)
(0.000171121 0 -3.61361e-05)
(0.000188272 0 5.39094e-05)
(0.000501433 0 0.000113161)
(-0.000611057 0 4.92635e-05)
(5.97275e-06 0 0.000155216)
(-1.50453e-13 0 5.28917e-15)
(-7.43496e-13 0 -1.32147e-13)
(1.14493e-13 0 -1.72924e-13)
(1.21763e-13 0 -2.09967e-13)
(1.58583e-13 0 -2.40988e-13)
(2.06817e-13 0 -2.64085e-13)
(2.60139e-13 0 -2.78296e-13)
(3.16151e-13 0 -2.83687e-13)
(3.72613e-13 0 -2.80497e-13)
(4.2628e-13 0 -2.68831e-13)
(4.75542e-13 0 -2.49718e-13)
(5.2017e-13 0 -2.24766e-13)
(5.58824e-13 0 -1.95248e-13)
(5.90426e-13 0 -1.62168e-13)
(6.15182e-13 0 -1.26661e-13)
(6.33332e-13 0 -9.00987e-14)
(6.44653e-13 0 -5.35137e-14)
(6.49205e-13 0 -1.7839e-14)
(6.47678e-13 0 1.6296e-14)
(6.40658e-13 0 4.84969e-14)
(6.28593e-13 0 7.85351e-14)
(6.1211e-13 0 1.06228e-13)
(5.91893e-13 0 1.31427e-13)
(5.68468e-13 0 1.54066e-13)
(5.42238e-13 0 1.74182e-13)
(5.1364e-13 0 1.9191e-13)
(4.83201e-13 0 2.07452e-13)
(4.51439e-13 0 2.21012e-13)
(4.18705e-13 0 2.32745e-13)
(3.85089e-13 0 2.42746e-13)
(3.50522e-13 0 2.51073e-13)
(3.14986e-13 0 2.57819e-13)
(2.7867e-13 0 2.63158e-13)
(2.41886e-13 0 2.67328e-13)
(2.04887e-13 0 2.70564e-13)
(1.67776e-13 0 2.7305e-13)
(1.30568e-13 0 2.74915e-13)
(9.32921e-14 0 2.76252e-13)
(5.60144e-14 0 2.77125e-13)
(1.86921e-14 0 2.77567e-13)
(-5.66264e-05 0 0.000942763)
(-5.84739e-05 0 0.000878613)
(-8.32971e-05 0 0.00081341)
(-0.000178938 0 0.000764886)
(-0.000154803 0 0.000714427)
(-0.000209618 0 0.000614836)
(-0.000207563 0 0.00055365)
(-0.000190207 0 0.000485782)
(-0.00027539 0 0.000330557)
(-0.000325375 0 0.000107222)
(-0.000261742 0 4.55224e-05)
(-0.000246707 0 -2.02587e-05)
(-0.000192858 0 -0.000223776)
(-0.000262736 0 -0.000244008)
(-0.000177587 0 -0.000371951)
(-0.000180684 0 -0.000441836)
(-0.000157178 0 -0.000478027)
(-0.000194177 0 -0.000405551)
(-0.000343576 0 -0.000291504)
(-0.000260172 0 -0.000302349)
(-0.000243104 0 -0.000262142)
(-0.000239161 0 -0.000222208)
(-0.000219558 0 -0.000202475)
(-0.000186554 0 -0.000194551)
(-0.000197241 0 -0.000148019)
(-0.000213868 0 -0.000103389)
(-0.000210829 0 -8.50553e-05)
(-0.000214049 0 -6.39926e-05)
(-0.000223226 0 -3.61813e-05)
(-0.000235991 0 -1.68117e-05)
(-0.000241804 0 -1.45552e-05)
(-0.000247752 0 -1.31587e-06)
(-0.000252921 0 1.49748e-05)
(-0.000255661 0 1.97496e-05)
(-0.000255905 0 1.33793e-05)
(-0.000256658 0 -2.3219e-05)
(-0.000255919 0 3.51205e-05)
(-0.000238636 0 -3.9004e-05)
(-0.000219787 0 -1.44415e-05)
(-0.000173449 0 -9.77217e-05)
(-0.00014186 0 -8.97291e-05)
(-0.000114476 0 -0.000109259)
(-6.20536e-05 0 -0.00017184)
(-2.59878e-05 0 -0.000244433)
(-2.78029e-05 0 -0.000282612)
(-3.10944e-05 0 -0.000334127)
(4.03309e-05 0 -0.000371174)
(3.54338e-05 0 -0.000414146)
(-2.8215e-05 0 -0.00036008)
(-8.50481e-05 0 -0.000271831)
(-0.000251278 0 -8.59776e-05)
(-0.000138637 0 -8.44552e-05)
(-0.000185198 0 2.16297e-05)
(-0.000167114 0 8.44724e-05)
(-0.000154912 0 0.000123712)
(-0.000133243 0 0.000139305)
(-0.000138749 0 0.00013171)