/*--------------------------------*- C++ -*----------------------------------*\
  =========                 |
  \\      /  F ield         | OpenFOAM: The Open Source CFD Toolbox
   \\    /   O peration     | Website:  https://openfoam.org
    \\  /    A nd           | Version:  6
     \\/     M anipulation  |
\*---------------------------------------------------------------------------*/
FoamFile
{
    version     2.0;
    format      ascii;
    class       volScalarField;
    location    "2950";
    object      T;
}
// * * * * * * * * * * * * * * * * * * * * * * * * * * * * * * * * * * * * * //

dimensions      [0 0 0 1 0 0 0];

internalField   nonuniform List<scalar> 
4800
(
552.463
552.289
552.119
551.954
551.796
551.646
551.506
551.376
551.255
551.144
551.042
550.948
550.861
550.781
550.705
550.634
550.566
550.501
550.438
550.376
550.316
550.258
550.2
550.142
550.086
550.03
549.975
549.92
549.864
549.809
549.752
549.693
549.633
549.572
549.509
549.445
549.379
549.313
549.246
549.179
549.112
549.045
548.977
548.91
548.843
548.776
548.709
548.643
548.578
548.514
548.45
548.386
548.324
548.262
548.2
548.139
548.077
548.016
547.954
547.892
547.83
547.766
547.701
547.634
547.566
547.495
547.42
547.343
547.26
547.172
547.079
546.977
546.868
546.75
546.622
546.484
546.336
546.179
546.014
545.844
545.67
545.499
545.332
545.17
545.01
544.855
544.702
544.553
544.406
544.262
544.121
543.981
543.845
543.71
543.577
543.446
543.316
543.188
543.062
542.937
542.814
542.691
542.57
542.45
542.33
542.212
542.094
541.977
541.861
541.745
541.63
541.515
541.4
541.286
541.173
541.059
540.946
540.833
540.719
540.606
552.462
552.288
552.117
551.953
551.795
551.646
551.506
551.376
551.255
551.144
551.042
550.948
550.862
550.782
550.707
550.636
550.568
550.502
550.439
550.377
550.317
550.257
550.199
550.142
550.085
550.029
549.974
549.918
549.863
549.806
549.749
549.69
549.629
549.567
549.503
549.438
549.371
549.304
549.237
549.169
549.101
549.033
548.965
548.898
548.831
548.764
548.698
548.632
548.567
548.503
548.439
548.376
548.313
548.251
548.19
548.129
548.067
548.006
547.945
547.883
547.82
547.756
547.691
547.625
547.556
547.485
547.411
547.332
547.25
547.162
547.068
546.967
546.858
546.74
546.613
546.475
546.328
546.172
546.008
545.838
545.666
545.495
545.329
545.167
545.008
544.852
544.7
544.551
544.404
544.26
544.119
543.98
543.843
543.708
543.575
543.444
543.315
543.187
543.061
542.936
542.813
542.69
542.569
542.449
542.33
542.211
542.094
541.977
541.86
541.745
541.629
541.515
541.4
541.286
541.172
541.059
540.946
540.832
540.719
540.606
552.462
552.287
552.116
551.951
551.794
551.645
551.505
551.374
551.254
551.144
551.043
550.95
550.865
550.785
550.71
550.64
550.572
550.506
550.442
550.38
550.319
550.259
550.201
550.143
550.086
550.03
549.974
549.917
549.86
549.802
549.743
549.683
549.621
549.557
549.492
549.425
549.357
549.288
549.22
549.15
549.081
549.013
548.944
548.876
548.809
548.742
548.676
548.61
548.546
548.482
548.418
548.356
548.294
548.232
548.171
548.11
548.049
547.988
547.927
547.865
547.802
547.738
547.673
547.607
547.538
547.466
547.391
547.313
547.23
547.142
547.048
546.947
546.838
546.721
546.594
546.458
546.312
546.158
545.996
545.827
545.657
545.488
545.322
545.16
545.002
544.847
544.696
544.547
544.4
544.257
544.116
543.977
543.84
543.706
543.573
543.442
543.313
543.186
543.06
542.935
542.811
542.689
542.568
542.448
542.329
542.21
542.093
541.976
541.86
541.744
541.629
541.514
541.4
541.286
541.172
541.059
540.945
540.832
540.719
540.606
552.462
552.286
552.115
551.95
551.793
551.644
551.504
551.374
551.255
551.146
551.046
550.955
550.87
550.791
550.717
550.647
550.579
550.513
550.449
550.386
550.324
550.264
550.205
550.147
550.089
550.032
549.975
549.916
549.857
549.797
549.736
549.673
549.609
549.543
549.476
549.407
549.337
549.267
549.196
549.126
549.055
548.985
548.916
548.847
548.779
548.712
548.646
548.581
548.516
548.453
548.39
548.328
548.266
548.205
548.144
548.084
548.023
547.962
547.901
547.839
547.776
547.712
547.647
547.579
547.51
547.438
547.363
547.284
547.201
547.113
547.019
546.918
546.81
546.694
546.568
546.433
546.29
546.138
545.979
545.815
545.646
545.477
545.312
545.152
544.994
544.84
544.689
544.54
544.395
544.252
544.111
543.972
543.836
543.702
543.57
543.439
543.31
543.183
543.057
542.933
542.809
542.687
542.566
542.446
542.327
542.209
542.092
541.975
541.859
541.743
541.628
541.513
541.399
541.285
541.172
541.058
540.945
540.832
540.719
540.606
552.461
552.286
552.114
551.949
551.792
551.643
551.505
551.377
551.259
551.151
551.053
550.963
550.879
550.8
550.726
550.656
550.588
550.522
550.457
550.394
550.332
550.272
550.212
550.154
550.095
550.036
549.976
549.914
549.852
549.788
549.724
549.659
549.593
549.525
549.455
549.384
549.312
549.24
549.168
549.095
549.023
548.952
548.882
548.812
548.744
548.676
548.61
548.545
548.48
548.417
548.355
548.293
548.232
548.171
548.11
548.05
547.99
547.929
547.867
547.805
547.742
547.678
547.612
547.544
547.475
547.402
547.327
547.248
547.165
547.077
546.984
546.883
546.776
546.66
546.536
546.403
546.262
546.112
545.955
545.793
545.628
545.462
545.299
545.14
544.984
544.83
544.68
544.532
544.387
544.245
544.104
543.967
543.831
543.697
543.565
543.435
543.306
543.179
543.054
542.93
542.807
542.685
542.564
542.444
542.325
542.207
542.09
541.974
541.858
541.742
541.627
541.513
541.399
541.285
541.171
541.058
540.945
540.832
540.719
540.606
552.462
552.286
552.115
551.95
551.793
551.646
551.508
551.382
551.266
551.161
551.064
550.975
550.892
550.814
550.74
550.669
550.6
550.534
550.469
550.405
550.343
550.282
550.222
550.162
550.101
550.039
549.975
549.91
549.844
549.777
549.709
549.641
549.572
549.501
549.429
549.356
549.282
549.208
549.134
549.06
548.987
548.915
548.843
548.772
548.703
548.636
548.569
548.503
548.439
548.376
548.314
548.252
548.191
548.13
548.07
548.01
547.949
547.888
547.827
547.764
547.701
547.636
547.57
547.502
547.432
547.36
547.284
547.205
547.123
547.035
546.942
546.843
546.737
546.622
546.5
546.369
546.23
546.083
545.929
545.77
545.608
545.445
545.284
545.126
544.971
544.818
544.669
544.522
544.378
544.236
544.097
543.959
543.824
543.691
543.559
543.429
543.301
543.175
543.05
542.926
542.803
542.682
542.561
542.442
542.323
542.205
542.088
541.972
541.856
541.741
541.626
541.512
541.398
541.284
541.171
541.057
540.945
540.832
540.719
540.606
552.462
552.287
552.117
551.953
551.797
551.651
551.516
551.392
551.278
551.175
551.08
550.992
550.91
550.832
550.758
550.687
550.617
550.55
550.484
550.419
550.356
550.294
550.232
550.17
550.107
550.041
549.973
549.904
549.833
549.762
549.691
549.619
549.546
549.473
549.399
549.323
549.248
549.172
549.096
549.021
548.947
548.873
548.8
548.728
548.658
548.59
548.522
548.457
548.392
548.329
548.267
548.205
548.144
548.084
548.023
547.963
547.902
547.841
547.78
547.717
547.653
547.588
547.522
547.454
547.383
547.311
547.235
547.157
547.075
546.988
546.896
546.798
546.693
546.581
546.461
546.333
546.196
546.052
545.902
545.746
545.587
545.425
545.266
545.109
544.955
544.804
544.656
544.51
544.367
544.226
544.087
543.95
543.816
543.683
543.552
543.423
543.296
543.17
543.045
542.921
542.799
542.678
542.558
542.439
542.32
542.203
542.086
541.97
541.854
541.739
541.625
541.51
541.397
541.283
541.17
541.057
540.944
540.831
540.719
540.606
552.463
552.289
552.12
551.958
551.804
551.66
551.528
551.407
551.296
551.194
551.101
551.014
550.933
550.856
550.782
550.71
550.64
550.571
550.504
550.438
550.373
550.309
550.245
550.179
550.112
550.041
549.969
549.895
549.82
549.744
549.669
549.593
549.517
549.441
549.364
549.287
549.209
549.131
549.054
548.978
548.902
548.827
548.753
548.68
548.609
548.539
548.471
548.405
548.34
548.277
548.215
548.153
548.092
548.032
547.971
547.911
547.85
547.789
547.727
547.665
547.601
547.535
547.469
547.4
547.329
547.257
547.182
547.103
547.022
546.936
546.845
546.749
546.646
546.537
546.419
546.294
546.161
546.021
545.874
545.721
545.564
545.403
545.246
545.09
544.938
544.788
544.641
544.496
544.354
544.214
544.076
543.94
543.807
543.675
543.544
543.416
543.289
543.163
543.039
542.916
542.794
542.674
542.554
542.435
542.317
542.2
542.083
541.968
541.852
541.737
541.623
541.509
541.395
541.282
541.169
541.056
540.944
540.831
540.719
540.606
552.465
552.295
552.13
551.97
551.818
551.677
551.546
551.427
551.319
551.219
551.128
551.042
550.962
550.886
550.812
550.74
550.669
550.599
550.531
550.463
550.396
550.329
550.261
550.191
550.118
550.042
549.964
549.885
549.805
549.725
549.645
549.565
549.485
549.406
549.327
549.247
549.167
549.088
549.009
548.931
548.853
548.776
548.701
548.627
548.555
548.485
548.416
548.349
548.284
548.22
548.158
548.096
548.036
547.976
547.915
547.855
547.794
547.733
547.671
547.608
547.543
547.478
547.411
547.342
547.271
547.198
547.123
547.045
546.964
546.88
546.791
546.696
546.596
546.489
546.375
546.253
546.124
545.987
545.843
545.693
545.538
545.379
545.223
545.07
544.919
544.771
544.625
544.481
544.34
544.201
544.064
543.929
543.796
543.665
543.536
543.408
543.281
543.156
543.033
542.91
542.789
542.669
542.55
542.431
542.314
542.197
542.081
541.965
541.85
541.735
541.621
541.508
541.394
541.281
541.168
541.055
540.943
540.831
540.718
540.606
552.466
552.299
552.136
551.98
551.833
551.695
551.569
551.453
551.347
551.249
551.16
551.076
550.997
550.921
550.848
550.775
550.704
550.634
550.563
550.493
550.423
550.352
550.28
550.204
550.125
550.043
549.96
549.875
549.79
549.706
549.621
549.537
549.454
549.371
549.289
549.207
549.124
549.043
548.961
548.881
548.802
548.724
548.646
548.571
548.498
548.426
548.357
548.289
548.223
548.16
548.097
548.036
547.975
547.916
547.856
547.795
547.735
547.673
547.611
547.547
547.483
547.417
547.349
547.28
547.209
547.136
547.061
546.984
546.904
546.82
546.733
546.641
546.543
546.439
546.328
546.21
546.084
545.95
545.81
545.662
545.51
545.353
545.199
545.047
544.898
544.751
544.606
544.464
544.324
544.186
544.05
543.917
543.785
543.654
543.526
543.399
543.273
543.149
543.026
542.904
542.783
542.664
542.545
542.427
542.31
542.193
542.077
541.962
541.847
541.733
541.619
541.506
541.393
541.28
541.167
541.055
540.942
540.83
540.718
540.606
552.467
552.304
552.145
551.993
551.85
551.718
551.595
551.483
551.38
551.285
551.197
551.115
551.037
550.962
550.889
550.817
550.745
550.673
550.601
550.529
550.455
550.381
550.303
550.221
550.135
550.047
549.957
549.867
549.777
549.687
549.599
549.511
549.424
549.338
549.252
549.167
549.082
548.997
548.914
548.831
548.749
548.669
548.59
548.513
548.438
548.365
548.295
548.227
548.16
548.097
548.034
547.973
547.913
547.853
547.793
547.733
547.672
547.61
547.548
547.484
547.419
547.353
547.285
547.215
547.144
547.071
546.997
546.92
546.84
546.758
546.672
546.582
546.487
546.386
546.278
546.163
546.041
545.91
545.773
545.629
545.48
545.325
545.173
545.023
544.875
544.73
544.587
544.446
544.307
544.17
544.036
543.903
543.772
543.643
543.515
543.389
543.264
543.14
543.018
542.897
542.777
542.658
542.54
542.422
542.305
542.189
542.074
541.959
541.845
541.731
541.617
541.504
541.391
541.278
541.166
541.054
540.942
540.83
540.718
540.606
552.47
552.312
552.158
552.011
551.872
551.744
551.626
551.517
551.417
551.325
551.239
551.159
551.082
551.008
550.936
550.864
550.792
550.719
550.645
550.569
550.493
550.414
550.33
550.241
550.148
550.052
549.956
549.861
549.766
549.672
549.579
549.488
549.397
549.307
549.218
549.129
549.04
548.953
548.866
548.781
548.697
548.614
548.533
548.454
548.378
548.303
548.232
548.163
548.096
548.032
547.969
547.908
547.848
547.788
547.729
547.668
547.608
547.546
547.483
547.419
547.353
547.287
547.218
547.149
547.077
547.004
546.93
546.853
546.775
546.694
546.609
546.522
546.429
546.331
546.226
546.115
545.996
545.869
545.735
545.595
545.448
545.296
545.145
544.997
544.851
544.707
544.565
544.426
544.288
544.153
544.02
543.888
543.758
543.63
543.503
543.378
543.254
543.131
543.01
542.89
542.77
542.652
542.534
542.417
542.301
542.185
542.07
541.956
541.842
541.728
541.615
541.502
541.389
541.277
541.165
541.053
540.941
540.829
540.717
540.606
552.473
552.321
552.173
552.031
551.897
551.774
551.66
551.555
551.459
551.37
551.287
551.208
551.133
551.06
550.988
550.916
550.843
550.769
550.693
550.615
550.534
550.45
550.36
550.264
550.164
550.062
549.961
549.86
549.76
549.661
549.564
549.469
549.374
549.28
549.187
549.094
549.001
548.91
548.82
548.732
548.645
548.56
548.477
548.396
548.317
548.242
548.169
548.099
548.031
547.966
547.903
547.842
547.781
547.722
547.662
547.602
547.541
547.48
547.416
547.352
547.286
547.219
547.15
547.08
547.009
546.935
546.861
546.785
546.707
546.627
546.545
546.459
546.369
546.274
546.172
546.064
545.949
545.826
545.696
545.559
545.415
545.264
545.116
544.969
544.825
544.683
544.543
544.405
544.269
544.135
544.003
543.872
543.743
543.616
543.491
543.366
543.243
543.122
543.001
542.881
542.763
542.645
542.528
542.412
542.296
542.181
542.066
541.952
541.839
541.725
541.612
541.5
541.388
541.275
541.164
541.052
540.94
540.829
540.717
540.606
552.476
552.33
552.188
552.052
551.925
551.807
551.698
551.597
551.504
551.418
551.338
551.261
551.188
551.116
551.045
550.973
550.899
550.824
550.746
550.665
550.58
550.49
550.395
550.292
550.185
550.078
549.971
549.864
549.759
549.657
549.555
549.456
549.357
549.259
549.161
549.063
548.967
548.871
548.777
548.686
548.596
548.508
548.423
548.339
548.259
548.181
548.107
548.035
547.966
547.901
547.837
547.775
547.715
547.655
547.595
547.535
547.474
547.412
547.349
547.284
547.218
547.15
547.081
547.011
546.939
546.866
546.791
546.716
546.639
546.56
546.479
546.395
546.307
546.215
546.116
546.012
545.9
545.781
545.654
545.521
545.38
545.231
545.085
544.94
544.798
544.657
544.519
544.382
544.248
544.115
543.984
543.855
543.728
543.602
543.477
543.354
543.232
543.111
542.992
542.873
542.755
542.638
542.522
542.406
542.291
542.176
542.062
541.949
541.835
541.722
541.61
541.498
541.386
541.274
541.162
541.051
540.939
540.828
540.717
540.606
552.479
552.34
552.204
552.075
551.954
551.841
551.737
551.642
551.553
551.47
551.392
551.318
551.246
551.175
551.105
551.033
550.96
550.883
550.803
550.719
550.63
550.535
550.434
550.326
550.214
550.101
549.988
549.876
549.766
549.658
549.553
549.449
549.346
549.243
549.141
549.038
548.937
548.838
548.74
548.645
548.552
548.461
548.373
548.287
548.204
548.125
548.048
547.974
547.904
547.836
547.771
547.709
547.648
547.587
547.528
547.468
547.406
547.344
547.281
547.216
547.149
547.081
547.012
546.941
546.869
546.795
546.721
546.645
546.569
546.491
546.412
546.329
546.244
546.154
546.059
545.958
545.85
545.734
545.611
545.481
545.344
545.197
545.052
544.91
544.769
544.63
544.493
544.359
544.226
544.095
543.965
543.837
543.711
543.587
543.463
543.341
543.22
543.101
542.982
542.864
542.747
542.631
542.515
542.4
542.285
542.171
542.058
541.945
541.832
541.719
541.607
541.495
541.384
541.272
541.161
541.05
540.938
540.827
540.716
540.605
552.483
552.35
552.222
552.099
551.984
551.878
551.779
551.688
551.603
551.524
551.449
551.377
551.308
551.238
551.169
551.098
551.025
550.947
550.865
550.778
550.685
550.585
550.479
550.367
550.251
550.133
550.014
549.896
549.78
549.667
549.557
549.449
549.342
549.234
549.127
549.02
548.914
548.81
548.708
548.609
548.513
548.419
548.328
548.24
548.154
548.072
547.992
547.916
547.844
547.774
547.708
547.644
547.582
547.521
547.461
547.4
547.339
547.276
547.212
547.147
547.08
547.012
546.942
546.871
546.798
546.725
546.65
546.575
546.499
546.422
546.343
546.263
546.18
546.093
546.002
545.904
545.8
545.688
545.568
545.441
545.306
545.162
545.019
544.878
544.739
544.602
544.467
544.334
544.202
544.073
543.945
543.819
543.694
543.571
543.449
543.328
543.208
543.089
542.972
542.855
542.738
542.623
542.508
542.394
542.28
542.166
542.053
541.941
541.828
541.716
541.605
541.493
541.382
541.27
541.159
541.048
540.938
540.827
540.716
540.605
552.487
552.362
552.241
552.125
552.017
551.917
551.823
551.737
551.656
551.58
551.508
551.439
551.372
551.304
551.236
551.166
551.093
551.015
550.932
550.842
550.746
550.642
550.532
550.416
550.296
550.174
550.05
549.926
549.803
549.684
549.568
549.455
549.344
549.232
549.12
549.008
548.897
548.789
548.684
548.581
548.481
548.384
548.29
548.198
548.11
548.024
547.942
547.863
547.787
547.716
547.647
547.581
547.518
547.456
547.395
547.334
547.271
547.209
547.144
547.079
547.012
546.943
546.873
546.801
546.729
546.655
546.58
546.505
546.429
546.352
546.275
546.196
546.115
546.031
545.942
545.848
545.747
545.639
545.523
545.399
545.267
545.125
544.984
544.845
544.708
544.573
544.439
544.308
544.178
544.05
543.924
543.799
543.676
543.554
543.433
543.314
543.195
543.078
542.961
542.845
542.73
542.615
542.501
542.387
542.274
542.161
542.049
541.937
541.825
541.713
541.602
541.491
541.38
541.269
541.158
541.047
540.937
540.826
540.716
540.605
552.491
552.373
552.26
552.152
552.051
551.957
551.869
551.787
551.711
551.638
551.569
551.503
551.438
551.373
551.306
551.237
551.165
551.087
551.003
550.912
550.814
550.707
550.594
550.475
550.352
550.226
550.097
549.966
549.835
549.708
549.586
549.467
549.352
549.236
549.12
549.003
548.888
548.776
548.666
548.56
548.457
548.356
548.259
548.164
548.072
547.983
547.897
547.814
547.736
547.662
547.59
547.522
547.457
547.393
547.331
547.269
547.206
547.143
547.078
547.012
546.945
546.875
546.805
546.733
546.66
546.586
546.511
546.436
546.36
546.284
546.207
546.129
546.049
545.967
545.881
545.791
545.693
545.589
545.476
545.356
545.227
545.087
544.948
544.811
544.676
544.543
544.411
544.281
544.153
544.027
543.902
543.779
543.657
543.536
543.417
543.299
543.182
543.065
542.95
542.835
542.721
542.607
542.494
542.381
542.268
542.156
542.044
541.933
541.821
541.71
541.599
541.488
541.378
541.267
541.157
541.046
540.936
540.826
540.715
540.605
552.495
552.385
552.28
552.18
552.085
551.997
551.915
551.838
551.766
551.697
551.631
551.567
551.505
551.442
551.378
551.311
551.24
551.163
551.079
550.988
550.888
550.78
550.665
550.544
550.418
550.287
550.153
550.014
549.876
549.741
549.61
549.485
549.364
549.245
549.125
549.005
548.887
548.771
548.657
548.548
548.441
548.337
548.236
548.137
548.041
547.948
547.858
547.772
547.69
547.613
547.539
547.468
547.4
547.335
547.271
547.207
547.144
547.08
547.015
546.948
546.88
546.81
546.739
546.666
546.593
546.518
546.443
546.368
546.292
546.216
546.139
546.061
545.983
545.903
545.819
545.732
545.638
545.537
545.428
545.312
545.186
545.048
544.912
544.777
544.643
544.511
544.381
544.253
544.127
544.002
543.879
543.757
543.637
543.518
543.401
543.284
543.168
543.053
542.939
542.825
542.712
542.599
542.486
542.374
542.262
542.151
542.04
541.928
541.818
541.707
541.596
541.486
541.375
541.265
541.155
541.045
540.935
540.825
540.715
540.605
552.499
552.398
552.301
552.208
552.12
552.039
551.962
551.89
551.821
551.756
551.693
551.633
551.573
551.513
551.451
551.386
551.317
551.241
551.159
551.068
550.968
550.86
550.744
550.621
550.491
550.355
550.215
550.068
549.922
549.779
549.641
549.509
549.383
549.259
549.136
549.013
548.892
548.773
548.657
548.544
548.433
548.326
548.221
548.118
548.018
547.92
547.826
547.736
547.65
547.569
547.492
547.418
547.348
547.281
547.215
547.15
547.085
547.02
546.954
546.887
546.819
546.748
546.677
546.603
546.529
546.453
546.378
546.301
546.225
546.149
546.072
545.995
545.917
545.837
545.756
545.671
545.581
545.483
545.379
545.266
545.144
545.009
544.874
544.741
544.609
544.479
544.35
544.224
544.099
543.976
543.855
543.735
543.617
543.5
543.384
543.269
543.154
543.04
542.927
542.815
542.702
542.59
542.479
542.368
542.257
542.146
542.035
541.924
541.814
541.704
541.594
541.483
541.373
541.264
541.154
541.044
540.934
540.824
540.715
540.605
552.503
552.411
552.321
552.236
552.155
552.08
552.008
551.941
551.877
551.815
551.756
551.699
551.642
551.585
551.525
551.463
551.396
551.323
551.242
551.152
551.052
550.943
550.825
550.699
550.565
550.426
550.28
550.125
549.972
549.822
549.678
549.539
549.407
549.279
549.152
549.027
548.903
548.781
548.663
548.547
548.434
548.323
548.213
548.106
548.001
547.899
547.801
547.707
547.617
547.532
547.452
547.376
547.303
547.233
547.164
547.098
547.032
546.965
546.899
546.83
546.761
546.691
546.618
546.544
546.469
546.393
546.315
546.238
546.161
546.084
546.007
545.929
545.851
545.773
545.693
545.61
545.522
545.429
545.328
545.219
545.102
544.968
544.836
544.704
544.574
544.445
544.318
544.194
544.071
543.95
543.83
543.713
543.596
543.481
543.366
543.253
543.14
543.028
542.916
542.804
542.693
542.582
542.472
542.361
542.251
542.14
542.03
541.92
541.81
541.701
541.591
541.481
541.371
541.262
541.152
541.043
540.933
540.824
540.714
540.605
552.507
552.423
552.342
552.264
552.19
552.12
552.054
551.992
551.932
551.875
551.819
551.765
551.712
551.657
551.6
551.54
551.476
551.405
551.325
551.236
551.136
551.025
550.904
550.774
550.637
550.494
550.344
550.184
550.024
549.868
549.718
549.573
549.435
549.303
549.172
549.044
548.918
548.795
548.674
548.556
548.439
548.325
548.212
548.101
547.992
547.885
547.783
547.684
547.591
547.503
547.419
547.34
547.265
547.192
547.122
547.053
546.985
546.917
546.849
546.78
546.709
546.638
546.565
546.49
546.414
546.336
546.258
546.179
546.1
546.021
545.943
545.865
545.787
545.709
545.629
545.548
545.463
545.373
545.276
545.172
545.059
544.93
544.798
544.667
544.538
544.41
544.285
544.162
544.041
543.922
543.805
543.689
543.575
543.461
543.349
543.237
543.126
543.015
542.904
542.794
542.684
542.574
542.464
542.355
542.245
542.135
542.026
541.916
541.807
541.698
541.588
541.479
541.37
541.26
541.151
541.042
540.932
540.823
540.714
540.605
552.512
552.436
552.362
552.291
552.224
552.161
552.1
552.043
551.987
551.934
551.882
551.832
551.782
551.73
551.676
551.618
551.556
551.486
551.407
551.317
551.217
551.104
550.98
550.845
550.704
550.558
550.404
550.241
550.076
549.915
549.76
549.61
549.467
549.329
549.195
549.065
548.937
548.811
548.688
548.567
548.448
548.331
548.215
548.101
547.988
547.878
547.772
547.67
547.574
547.482
547.397
547.315
547.237
547.162
547.09
547.018
546.948
546.878
546.808
546.737
546.665
546.592
546.517
546.441
546.364
546.285
546.205
546.124
546.043
545.963
545.883
545.804
545.725
545.647
545.568
545.487
545.405
545.317
545.225
545.125
545.016
544.891
544.759
544.629
544.5
544.374
544.25
544.129
544.01
543.893
543.778
543.665
543.553
543.442
543.331
543.221
543.112
543.002
542.893
542.784
542.675
542.566
542.457
542.348
542.24
542.131
542.022
541.913
541.804
541.695
541.586
541.477
541.368
541.259
541.15
541.041
540.932
540.823
540.714
540.605
552.516
552.448
552.382
552.319
552.259
552.201
552.146
552.094
552.043
551.994
551.945
551.898
551.85
551.801
551.749
551.694
551.634
551.566
551.488
551.398
551.295
551.179
551.05
550.909
550.764
550.615
550.458
550.291
550.123
549.961
549.802
549.648
549.499
549.355
549.216
549.083
548.953
548.826
548.701
548.578
548.457
548.338
548.22
548.103
547.988
547.876
547.768
547.665
547.567
547.474
547.386
547.303
547.223
547.145
547.07
546.996
546.924
546.851
546.778
546.704
546.63
546.554
546.478
546.4
546.32
546.239
546.158
546.075
545.992
545.909
545.827
545.746
545.666
545.587
545.508
545.429
545.347
545.262
545.173
545.077
544.972
544.85
544.719
544.589
544.461
544.336
544.213
544.094
543.977
543.863
543.751
543.64
543.53
543.421
543.313
543.205
543.098
542.99
542.882
542.774
542.667
542.559
542.451
542.343
542.234
542.126
542.018
541.909
541.801
541.692
541.583
541.475
541.366
541.257
541.148
541.04
540.931
540.822
540.713
540.604
552.52
552.46
552.402
552.346
552.293
552.242
552.192
552.144
552.098
552.052
552.007
551.962
551.917
551.871
551.822
551.77
551.712
551.645
551.566
551.475
551.371
551.251
551.115
550.968
550.817
550.665
550.504
550.335
550.166
550.004
549.844
549.685
549.529
549.378
549.234
549.097
548.965
548.836
548.71
548.585
548.463
548.342
548.223
548.106
547.991
547.878
547.771
547.668
547.571
547.478
547.391
547.306
547.224
547.145
547.067
546.99
546.915
546.839
546.763
546.685
546.607
546.528
546.449
546.368
546.285
546.202
546.118
546.033
545.947
545.862
545.777
545.693
545.612
545.531
545.452
545.373
545.292
545.21
545.123
545.03
544.928
544.809
544.678
544.549
544.42
544.295
544.174
544.056
543.943
543.831
543.722
543.614
543.508
543.401
543.295
543.19
543.084
542.978
542.872
542.765
542.658
542.552
542.444
542.337
542.229
542.122
542.014
541.906
541.798
541.689
541.581
541.473
541.364
541.256
541.147
541.039
540.93
540.822
540.713
540.604
552.524
552.473
552.422
552.374
552.327
552.282
552.238
552.195
552.152
552.109
552.067
552.024
551.982
551.938
551.893
551.843
551.787
551.721
551.643
551.55
551.444
551.319
551.176
551.023
550.868
550.711
550.546
550.375
550.207
550.044
549.88
549.716
549.553
549.395
549.245
549.104
548.969
548.837
548.709
548.583
548.462
548.341
548.224
548.107
547.994
547.885
547.782
547.682
547.589
547.499
547.412
547.327
547.243
547.163
547.082
547.003
546.924
546.846
546.765
546.683
546.599
546.517
546.433
546.349
546.262
546.176
546.089
546.002
545.913
545.824
545.734
545.647
545.563
545.479
545.399
545.32
545.24
545.159
545.074
544.985
544.887
544.772
544.636
544.507
544.376
544.251
544.131
544.016
543.906
543.798
543.693
543.588
543.485
543.381
543.278
543.175
543.071
542.966
542.862
542.756
542.651
542.545
542.439
542.332
542.225
542.118
542.01
541.903
541.795
541.687
541.579
541.471
541.363
541.255
541.146
541.038
540.93
540.821
540.713
540.604
552.528
552.485
552.442
552.401
552.361
552.322
552.282
552.244
552.204
552.164
552.124
552.083
552.043
552.002
551.96
551.915
551.862
551.798
551.718
551.624
551.515
551.385
551.237
551.079
550.921
550.757
550.586
550.413
550.245
550.077
549.91
549.741
549.571
549.404
549.246
549.112
548.97
548.831
548.703
548.574
548.462
548.338
548.231
548.115
548.009
547.902
547.809
547.714
547.63
547.545
547.459
547.375
547.285
547.207
547.123
547.042
546.957
546.881
546.794
546.708
546.611
546.532
546.439
546.352
546.257
546.173
546.083
545.995
545.899
545.805
545.706
545.61
545.533
545.435
545.35
545.272
545.193
545.114
545.032
544.947
544.856
544.748
544.614
544.466
544.326
544.201
544.083
543.972
543.866
543.764
543.662
543.562
543.462
543.362
543.261
543.16
543.058
542.956
542.853
542.749
542.644
542.539
542.433
542.327
542.221
542.114
542.007
541.9
541.793
541.685
541.577
541.47
541.362
541.254
541.145
541.037
540.929
540.821
540.712
540.604
552.532
552.497
552.462
552.428
552.394
552.36
552.325
552.289
552.252
552.214
552.175
552.136
552.098
552.06
552.023
551.984
551.935
551.872
551.792
551.695
551.583
551.448
551.299
551.141
550.978
550.801
550.618
550.461
550.291
550.108
549.937
549.764
549.591
549.417
549.249
549.106
548.957
548.822
548.692
548.562
548.443
548.321
548.214
548.106
548.008
547.904
547.813
547.715
547.628
547.542
547.46
547.381
547.293
547.214
547.121
547.043
546.958
546.88
546.784
546.713
546.614
546.533
546.43
546.355
546.252
546.172
546.064
545.982
545.863
545.782
545.659
545.584
545.474
545.397
545.3
545.219
545.135
545.059
544.984
544.906
544.825
544.728
544.595
544.382
544.259
544.146
544.029
543.924
543.824
543.728
543.632
543.536
543.44
543.343
543.246
543.147
543.047
542.946
542.844
542.742
542.638
542.534
542.429
542.323
542.217
542.111
542.005
541.898
541.791
541.683
541.576
541.468
541.361
541.253
541.145
541.037
540.929
540.82
540.712
540.604
552.536
552.508
552.481
552.453
552.425
552.395
552.363
552.33
552.294
552.256
552.218
552.18
552.144
552.11
552.08
552.047
552.007
551.947
551.866
551.763
551.649
551.534
551.388
551.229
551.064
550.869
550.667
550.471
550.287
550.103
549.929
549.755
549.585
549.419
549.259
549.112
548.967
548.831
548.698
548.569
548.451
548.332
548.224
548.114
548.013
547.907
547.811
547.712
547.627
547.538
547.443
547.352
547.258
547.175
547.079
547.001
546.899
546.815
546.71
546.629
546.503
546.424
546.313
546.239
546.124
546.05
545.931
545.858
545.735
545.664
545.561
545.491
545.399
545.332
545.249
545.182
545.107
545.036
544.961
544.885
544.805
544.725
544.625
544.362
544.21
544.07
543.965
543.87
543.78
543.691
543.601
543.511
543.419
543.326
543.232
543.135
543.037
542.938
542.837
542.736
542.633
542.529
542.425
542.32
542.215
542.109
542.003
541.896
541.789
541.682
541.575
541.467
541.36
541.252
541.144
541.036
540.928
540.82
540.712
540.604
552.539
552.519
552.498
552.477
552.453
552.425
552.394
552.36
552.324
552.284
552.246
552.209
552.176
552.147
552.128
552.102
552.101
552.042
551.965
551.844
551.728
551.586
551.413
551.259
551.088
550.886
550.687
550.49
550.302
550.104
549.932
549.751
549.588
549.424
549.274
549.12
548.98
548.84
548.709
548.587
548.469
548.36
548.249
548.141
548.026
547.924
547.81
547.72
547.626
547.542
547.444
547.353
547.249
547.161
547.058
546.97
546.873
546.777
546.66
546.563
546.473
546.393
546.288
546.2
546.094
545.999
545.899
545.804
545.709
545.62
545.528
545.446
545.36
545.284
545.205
545.132
545.058
544.987
544.92
544.854
544.79
544.727
544.656
544.55
544.191
544.026
543.892
543.811
543.735
543.657
543.572
543.486
543.4
543.311
543.22
543.126
543.03
542.932
542.832
542.731
542.629
542.526
542.422
542.318
542.212
542.107
542.001
541.894
541.788
541.681
541.574
541.466
541.359
541.251
541.144
541.036
540.928
540.82
540.712
540.604
552.542
552.527
552.513
552.501
552.483
552.451
552.416
552.371
552.33
552.283
552.249
552.219
552.199
552.176
552.191
552.164
552.149
552.078
552
551.851
551.729
551.559
551.399
551.243
551.098
550.903
550.717
550.51
550.327
550.123
549.961
549.765
549.611
549.429
549.289
549.129
548.998
548.861
548.738
548.617
548.495
548.378
548.252
548.128
548.002
547.889
547.77
547.672
547.588
547.489
547.389
547.291
547.19
547.093
546.997
546.9
546.808
546.707
546.612
546.52
546.422
546.329
546.229
546.13
546.028
545.928
545.829
545.732
545.637
545.544
545.455
545.373
545.295
545.222
545.153
545.088
545.027
544.967
544.912
544.856
544.758
544.569
544.411
544.395
544.128
543.949
543.842
543.755
543.695
543.628
543.546
543.463
543.383
543.299
543.211
543.119
543.024
542.927
542.828
542.728
542.626
542.524
542.42
542.316
542.211
542.106
542
541.894
541.787
541.68
541.573
541.466
541.358
541.251
541.143