0 	0.000436547 	0 	0.00351316
0.010101 	0.0112481 	-2.68214e-06 	0.00970357
0.020202 	0.0158523 	-1.46602e-07 	0.00282235
0.030303 	-0.0142208 	1.41245e-06 	-0.00194933
0.040404 	8.73595e-11 	5.83779e-15 	-1.96414e-11
0.0505051 	1.271e-11 	4.79529e-16 	1.09206e-11
