/*--------------------------------*- C++ -*----------------------------------*\
  =========                 |
  \\      /  F ield         | OpenFOAM: The Open Source CFD Toolbox
   \\    /   O peration     | Website:  https://openfoam.org
    \\  /    A nd           | Version:  6
     \\/     M anipulation  |
\*---------------------------------------------------------------------------*/
FoamFile
{
    version     2.0;
    format      ascii;
    class       volVectorField;
    location    "750";
    object      U;
}
// * * * * * * * * * * * * * * * * * * * * * * * * * * * * * * * * * * * * * //

dimensions      [0 1 -1 0 0 0 0];

internalField   nonuniform List<vector> 
4800
(
(4.52233e-05 0 -0.000182091)
(-2.51425e-05 0 -6.24817e-05)
(-0.00012703 0 4.82557e-05)
(-0.000163102 0 4.92508e-05)
(-0.000216649 0 -3.52088e-05)
(-0.00024671 0 4.75642e-05)
(-0.000280656 0 -5.74507e-05)
(-0.000313085 0 4.65694e-05)
(-0.000352624 0 -4.28377e-05)
(-0.000404207 0 6.29439e-05)
(-0.000450278 0 2.3331e-06)
(-0.000487266 0 -9.47112e-06)
(-0.000519615 0 -1.5542e-05)
(-0.000538844 0 -8.3707e-06)
(-0.000546564 0 -4.30594e-06)
(-0.000551609 0 8.20271e-06)
(-0.000570168 0 2.7042e-05)
(-0.000610294 0 3.5585e-05)
(-0.000647041 0 4.27603e-05)
(-0.000674797 0 3.6487e-05)
(-0.00070023 0 8.02689e-06)
(-0.000727474 0 -8.6863e-06)
(-0.000745632 0 -3.85491e-06)
(-0.000748599 0 -1.57861e-05)
(-0.000709108 0 -7.64154e-05)
(-0.000655286 0 -7.85873e-05)
(-0.00061491 0 -4.57828e-05)
(-0.000576641 0 -2.59836e-05)
(-0.000542144 0 -3.21132e-05)
(-0.000515458 0 -3.86937e-05)
(-0.000490993 0 -2.89624e-05)
(-0.000465195 0 -2.3849e-05)
(-0.000444009 0 -2.94043e-05)
(-0.000425573 0 -2.97017e-05)
(-0.000404182 0 -2.63749e-05)
(-0.000383185 0 -2.15401e-05)
(-0.000365615 0 -1.15208e-06)
(-0.00035449 0 1.6265e-06)
(-0.000353084 0 2.77965e-06)
(-0.000387929 0 4.33426e-05)
(-0.000518605 0 0.000136323)
(-0.00069572 0 7.92224e-05)
(-0.000830923 0 -4.82446e-05)
(-0.000937328 0 -7.81324e-05)
(-0.00102884 0 -6.25867e-05)
(-0.00108551 0 -0.000100251)
(-0.0011234 0 -9.73703e-05)
(-0.00114378 0 -0.000100441)
(-0.00114955 0 -0.000108103)
(-0.00114563 0 -0.00012183)
(-0.00111175 0 -0.000137373)
(-0.00107985 0 -0.000106318)
(-0.00104999 0 -5.71844e-05)
(-0.00100869 0 -5.43726e-05)
(-0.000974565 0 -7.14533e-05)
(-0.000955481 0 -6.71918e-05)
(-0.000938912 0 -6.35433e-05)
(-0.000917288 0 -7.49922e-05)
(-0.000901108 0 -8.13984e-05)
(-0.000889581 0 -9.39133e-05)
(-0.000876766 0 -9.11142e-05)
(-0.000855397 0 -8.59334e-05)
(-0.000835837 0 -9.80632e-05)
(-0.00081857 0 -8.13164e-05)
(-0.000797082 0 -7.83883e-05)
(-0.000779793 0 -8.15474e-05)
(-0.000772504 0 -8.43258e-05)
(-0.000771276 0 -8.90382e-05)
(-0.000788487 0 -0.000120839)
(-0.000811329 0 -0.000134941)
(-0.000821886 0 -0.000145758)
(-0.000808925 0 -0.000172465)
(-0.000755951 0 -0.000208321)
(-0.000737505 0 -0.000211551)
(-0.000733721 0 -0.000218484)
(-0.000727492 0 -0.000238596)
(-0.000704237 0 -0.000251499)
(-0.000687951 0 -0.00027639)
(-0.000750789 0 -0.000362024)
(2.99015e-06 0 -0.000634096)
(-1.19038e-13 0 6.13322e-13)
(5.22801e-13 0 3.25058e-13)
(8.21758e-13 0 1.53282e-13)
(5.97553e-13 0 7.15527e-14)
(4.9451e-13 0 3.22123e-14)
(4.5061e-13 0 1.23163e-14)
(4.3719e-13 0 1.66835e-15)
(4.40304e-13 0 -4.27948e-15)
(4.52638e-13 0 -7.62004e-15)
(4.69959e-13 0 -9.35659e-15)
(4.89606e-13 0 -1.0015e-14)
(5.09787e-13 0 -9.91669e-15)
(5.29171e-13 0 -9.26537e-15)
(5.46721e-13 0 -8.18668e-15)
(5.61693e-13 0 -6.7865e-15)
(5.73586e-13 0 -5.17163e-15)
(5.82013e-13 0 -3.42089e-15)
(5.86689e-13 0 -1.57916e-15)
(5.87489e-13 0 3.09717e-16)
(5.8443e-13 0 2.19201e-15)
(5.77583e-13 0 4.02918e-15)
(5.67074e-13 0 5.80729e-15)
(5.53113e-13 0 7.51549e-15)
(5.35974e-13 0 9.13122e-15)
(5.15932e-13 0 1.06289e-14)
(4.93249e-13 0 1.19934e-14)
(4.68187e-13 0 1.32196e-14)
(4.41002e-13 0 1.43074e-14)
(4.11925e-13 0 1.5261e-14)
(3.81166e-13 0 1.60904e-14)
(3.48923e-13 0 1.68089e-14)
(3.15385e-13 0 1.74257e-14)
(2.80726e-13 0 1.79435e-14)
(2.45089e-13 0 1.83623e-14)
(2.08606e-13 0 1.86867e-14)
(1.71427e-13 0 1.89303e-14)
(1.33737e-13 0 1.91153e-14)
(9.57287e-14 0 1.92673e-14)
(5.75525e-14 0 1.94137e-14)
(1.92179e-14 0 1.96005e-14)
(-0.000105826 0 9.57615e-05)
(-7.87163e-05 0 6.95901e-05)
(-0.000102955 0 7.00662e-05)
(-0.00013139 0 4.80966e-05)
(-0.00014741 0 7.53781e-05)
(-0.000194086 0 4.29249e-05)
(-0.000218039 0 8.04323e-05)
(-0.000263218 0 6.51116e-05)
(-0.000284536 0 0.000110007)
(-0.000349065 0 6.7158e-05)
(-0.000399428 0 6.64458e-05)
(-0.000437233 0 5.62208e-05)
(-0.000457476 0 6.76828e-05)
(-0.000480375 0 4.73512e-05)
(-0.000502878 0 3.40754e-05)
(-0.000523436 0 2.21275e-05)
(-0.000536223 0 2.80099e-05)
(-0.00054343 0 2.47153e-05)
(-0.000551625 0 3.25347e-05)
(-0.000570526 0 4.17074e-05)
(-0.00059297 0 3.08594e-05)
(-0.000603119 0 2.15529e-05)
(-0.000604613 0 1.22378e-05)
(-0.000585883 0 -3.50588e-05)
(-0.000562173 0 -4.84307e-05)
(-0.000541286 0 -5.4487e-05)
(-0.000511375 0 -7.93059e-05)
(-0.00047739 0 -8.65816e-05)
(-0.00044758 0 -8.27722e-05)
(-0.000424442 0 -5.28353e-05)
(-0.000400241 0 -3.142e-05)
(-0.000382514 0 -3.33092e-05)
(-0.000373153 0 -3.51255e-05)
(-0.000363736 0 -3.3157e-05)
(-0.000348952 0 -5.13446e-05)
(-0.000334813 0 -6.2748e-05)
(-0.000330781 0 -3.19566e-05)
(-0.0003302 0 -2.33857e-05)
(-0.000351002 0 2.0917e-05)
(-0.000376065 0 0.000113903)
(-0.000433138 0 0.00020434)
(-0.000558839 0 0.000238886)
(-0.000668344 0 0.000219346)
(-0.000738099 0 0.000178073)
(-0.000767364 0 0.000173359)
(-0.000781247 0 0.000156498)
(-0.00079487 0 0.000124439)
(-0.000801293 0 0.000105068)
(-0.00080113 0 7.09698e-05)
(-0.000800202 0 4.99182e-05)
(-0.000792601 0 3.12927e-05)
(-0.000777053 0 -5.62695e-07)
(-0.000762453 0 -1.38377e-05)
(-0.000748637 0 -1.5649e-05)
(-0.000740433 0 -3.72167e-06)
(-0.000735445 0 3.05955e-06)
(-0.000734515 0 1.34428e-05)
(-0.000734543 0 2.28621e-05)
(-0.000737277 0 2.47767e-05)
(-0.000739141 0 2.37118e-05)
(-0.000732841 0 1.39712e-05)
(-0.000714237 0 -3.35738e-05)
(-0.000680479 0 3.67563e-06)
(-0.000634244 0 1.05479e-05)
(-0.00058906 0 3.54877e-05)
(-0.000545265 0 4.56049e-05)
(-0.000510356 0 6.82557e-05)
(-0.000491241 0 8.51277e-05)
(-0.000475461 0 0.000108813)
(-0.000457588 0 9.78208e-05)
(-0.000442729 0 9.0251e-05)
(-0.000415169 0 5.44878e-05)
(-0.000377942 0 4.81824e-05)
(-0.000365899 0 0.000103046)
(-0.000355796 0 0.000113762)
(-0.000357144 0 0.000146475)
(-0.000358284 0 0.00013356)
(-0.000456465 0 -0.000185183)
(-0.00074896 0 -0.000158822)
(3.32175e-06 0 -0.000652377)
(-3.59059e-13 0 1.7991e-12)
(8.82557e-15 0 8.15775e-13)
(5.68254e-13 0 3.69807e-13)
(4.76555e-13 0 1.72365e-13)
(4.35273e-13 0 7.72243e-14)
(4.20066e-13 0 2.76875e-14)
(4.20594e-13 0 2.43947e-16)
(4.31016e-13 0 -1.5528e-14)
(4.4756e-13 0 -2.45335e-14)
(4.67564e-13 0 -2.92179e-14)
(4.89046e-13 0 -3.09117e-14)
(5.10536e-13 0 -3.04408e-14)
(5.30901e-13 0 -2.83545e-14)
(5.492e-13 0 -2.50289e-14)
(5.64708e-13 0 -2.07761e-14)
(5.76951e-13 0 -1.58811e-14)
(5.85605e-13 0 -1.05678e-14)
(5.90419e-13 0 -4.98868e-15)
(5.91261e-13 0 7.2795e-16)
(5.88149e-13 0 6.45217e-15)
(5.81198e-13 0 1.20749e-14)
(5.7056e-13 0 1.75211e-14)
(5.56437e-13 0 2.273e-14)
(5.39088e-13 0 2.76375e-14)
(5.18794e-13 0 3.21826e-14)
(4.9584e-13 0 3.6321e-14)
(4.70501e-13 0 4.00305e-14)
(4.43043e-13 0 4.33109e-14)
(4.13708e-13 0 4.61797e-14)
(3.82714e-13 0 4.86638e-14)
(3.50258e-13 0 5.07908e-14)
(3.1652e-13 0 5.25844e-14)
(2.81663e-13 0 5.40687e-14)
(2.45832e-13 0 5.5275e-14)
(2.09174e-13 0 5.62441e-14)
(1.71856e-13 0 5.7021e-14)
(1.34074e-13 0 5.76473e-14)
(9.60271e-14 0 5.81554e-14)
(5.78857e-14 0 5.8564e-14)
(1.94047e-14 0 5.88783e-14)
(-9.15889e-05 0 0.00011071)
(-7.0918e-05 0 0.000109371)
(-7.5395e-05 0 0.000109912)
(-0.000135696 0 6.74255e-05)
(-0.000137937 0 0.000114177)
(-0.000185413 0 7.73888e-05)
(-0.00019692 0 8.85366e-05)
(-0.000208262 0 8.65681e-05)
(-0.000209061 0 0.000102694)
(-0.00022328 0 0.000100712)
(-0.00025691 0 0.000123064)
(-0.000310339 0 8.30393e-05)
(-0.000362407 0 1.78164e-05)
(-0.0003942 0 2.6212e-05)
(-0.000415163 0 1.29745e-05)
(-0.000423678 0 2.15824e-05)
(-0.00043037 0 4.04092e-05)
(-0.000431024 0 4.68676e-05)
(-0.00042584 0 5.40085e-05)
(-0.00042115 0 4.8963e-05)
(-0.000418674 0 4.2217e-05)
(-0.000413449 0 2.4271e-05)
(-0.000401487 0 -4.81359e-06)
(-0.000391741 0 -2.53508e-05)
(-0.000381289 0 -6.4726e-05)
(-0.000369668 0 -8.33563e-05)
(-0.000368078 0 -6.83272e-05)
(-0.000366546 0 -6.04515e-05)
(-0.000363263 0 -5.52988e-05)
(-0.000345483 0 -5.60178e-05)
(-0.000321679 0 -6.00721e-05)
(-0.000306429 0 -5.03018e-05)
(-0.000290547 0 -3.36737e-05)
(-0.000275391 0 -3.09615e-05)
(-0.000271617 0 -3.26264e-05)
(-0.000274506 0 -2.90193e-05)
(-0.000279514 0 -1.51488e-05)
(-0.000290283 0 1.69612e-05)
(-0.00031062 0 9.07409e-05)
(-0.000320536 0 0.00016281)
(-0.000319864 0 0.000266893)
(-0.000433621 0 0.000241097)
(-0.000508743 0 0.000163324)
(-0.000516051 0 9.46478e-05)
(-0.000510077 0 6.17234e-05)
(-0.000558116 0 -1.48007e-05)
(-0.000577694 0 -3.84464e-05)
(-0.000583262 0 -4.00156e-05)
(-0.000575725 0 -5.85303e-05)
(-0.000577162 0 -5.97524e-05)
(-0.000593701 0 -7.068e-05)
(-0.000603411 0 -7.55654e-05)
(-0.000607471 0 -7.48702e-05)
(-0.000611795 0 -7.2861e-05)
(-0.000620754 0 -5.47648e-05)
(-0.000627623 0 -3.93828e-05)
(-0.000636384 0 -3.38682e-05)
(-0.000644145 0 -3.75917e-05)
(-0.000648899 0 -4.00894e-05)
(-0.000650513 0 -3.64101e-05)
(-0.000650554 0 -4.02343e-05)
(-0.000650878 0 -4.69351e-05)
(-0.000627952 0 -0.000103644)
(-0.000584054 0 -0.000121793)
(-0.000541556 0 -0.000113621)
(-0.000489732 0 -0.000107425)
(-0.000428737 0 -0.00010993)
(-0.000371936 0 -6.49452e-05)
(-0.000303412 0 -4.2811e-05)
(-0.000239924 0 -6.53765e-05)
(-0.00021142 0 -7.23073e-05)
(-0.000212467 0 -4.21663e-05)
(-0.000177833 0 -0.000106865)
(-0.000176399 0 -1.93965e-05)
(-0.000114869 0 -5.27669e-05)
(-7.07062e-05 0 -3.83135e-05)
(-9.00917e-05 0 -1.52098e-05)
(0.000219616 0 -2.92511e-05)
(-0.000510583 0 -0.000313082)
(3.25653e-06 0 -0.000726121)
(-4.59107e-13 0 1.05835e-12)
(-1.05689e-12 0 6.4573e-13)
(1.78532e-13 0 3.37254e-13)
(3.05124e-13 0 1.70408e-13)
(3.49832e-13 0 7.60152e-14)
(3.7363e-13 0 2.03283e-14)
(3.93974e-13 0 -1.34955e-14)
(4.15527e-13 0 -3.41611e-14)
(4.38948e-13 0 -4.63238e-14)
(4.6358e-13 0 -5.25721e-14)
(4.88383e-13 0 -5.44578e-14)
(5.12344e-13 0 -5.30315e-14)
(5.34583e-13 0 -4.90551e-14)
(5.54299e-13 0 -4.31016e-14)
(5.70841e-13 0 -3.56614e-14)
(5.83794e-13 0 -2.71766e-14)
(5.92905e-13 0 -1.8013e-14)
(5.97984e-13 0 -8.44444e-15)
(5.9893e-13 0 1.30896e-15)
(5.95777e-13 0 1.10451e-14)
(5.88652e-13 0 2.05848e-14)
(5.77729e-13 0 2.97845e-14)
(5.6323e-13 0 3.85331e-14)
(5.45427e-13 0 4.67405e-14)
(5.24615e-13 0 5.43297e-14)
(5.01097e-13 0 6.12371e-14)
(4.75177e-13 0 6.74216e-14)
(4.47151e-13 0 7.28735e-14)
(4.17278e-13 0 7.76151e-14)
(3.85778e-13 0 8.16894e-14)
(3.52843e-13 0 8.51489e-14)
(3.18663e-13 0 8.80514e-14)
(2.83417e-13 0 9.04635e-14)
(2.47264e-13 0 9.24587e-14)
(2.10352e-13 0 9.4108e-14)
(1.72831e-13 0 9.54684e-14)
(1.34871e-13 0 9.65742e-14)
(9.66454e-14 0 9.7436e-14)
(5.82755e-14 0 9.80357e-14)
(1.95322e-14 0 9.83181e-14)
(-8.19196e-05 0 0.00014813)
(-7.08447e-05 0 0.000139446)
(-0.00012872 0 0.000101092)
(-0.000119201 0 0.000144371)
(-0.000182553 0 0.000117008)
(-0.000220545 0 8.33182e-05)
(-0.000211592 0 0.000109947)
(-0.000225699 0 8.87228e-05)
(-0.000228878 0 9.7372e-05)
(-0.000216326 0 0.000121086)
(-0.000206709 0 0.000128518)
(-0.000206367 0 0.000141773)
(-0.000231081 0 0.000132166)
(-0.000276779 0 7.69581e-05)
(-0.000290512 0 9.30564e-05)
(-0.000314169 0 4.50287e-05)
(-0.000318892 0 5.1063e-05)
(-0.000319404 0 4.68169e-05)
(-0.000310666 0 4.16192e-05)
(-0.000291875 0 4.6728e-05)
(-0.000267943 0 3.41104e-05)
(-0.000244795 0 1.04988e-05)
(-0.000228695 0 -1.10699e-05)
(-0.000223501 0 -3.17613e-05)
(-0.000226816 0 -5.22458e-05)
(-0.00023803 0 -6.06569e-05)
(-0.000243533 0 -7.28131e-05)
(-0.000247736 0 -8.30124e-05)
(-0.000254071 0 -8.08406e-05)
(-0.000257105 0 -7.52208e-05)
(-0.000259635 0 -6.79895e-05)
(-0.000261571 0 -2.74112e-05)
(-0.000232715 0 -4.25887e-05)
(-0.000210757 0 -4.84409e-05)
(-0.000202065 0 -3.6048e-05)
(-0.000199836 0 -1.88754e-05)
(-0.000200648 0 -6.84893e-06)
(-0.000209975 0 3.02703e-05)
(-0.000215188 0 7.57319e-05)
(-0.000212781 0 0.000168007)
(-0.000189868 0 0.000273282)
(-0.000155881 0 0.000337844)
(-0.000146293 0 0.000318241)
(-0.000299918 0 0.000218338)
(-0.000444485 0 0.000143229)
(-0.000457423 0 0.000143622)
(-0.000459929 0 0.000156671)
(-0.000494786 0 8.74323e-05)
(-0.000522722 0 3.19995e-05)
(-0.00055293 0 1.60873e-05)
(-0.000574011 0 2.77306e-06)
(-0.000583024 0 -1.02988e-05)
(-0.000583331 0 -1.76288e-05)
(-0.000568103 0 -2.03652e-05)
(-0.000562446 0 -7.26243e-07)
(-0.00056526 0 -7.4003e-07)
(-0.000573118 0 1.32598e-05)
(-0.000578776 0 7.88559e-06)
(-0.000579605 0 4.61756e-06)
(-0.000573884 0 -9.85262e-06)
(-0.000560309 0 -4.42659e-05)
(-0.00054217 0 -7.48292e-05)
(-0.000524713 0 -9.93811e-05)
(-0.000501651 0 -0.000119029)
(-0.000468109 0 -0.000123968)
(-0.000419622 0 -0.000141662)
(-0.000371933 0 -0.000128725)
(-0.000325741 0 -0.000100026)
(-0.000275519 0 -9.69341e-05)
(-0.000231725 0 -0.000114904)
(-0.000216556 0 -7.78055e-05)
(-0.000211931 0 -1.08637e-05)
(-0.000138829 0 -0.000156531)
(-0.000160769 0 -6.8373e-05)
(-0.000119841 0 -8.14694e-05)
(-8.47378e-05 0 -9.57242e-05)
(-0.000114821 0 -7.4623e-05)
(0.000167021 0 -0.00014202)
(-0.00050465 0 -0.000209485)
(4.26733e-06 0 -0.000790264)
(-5.7422e-13 0 -3.17122e-13)
(-9.33963e-13 0 1.82572e-13)
(9.32746e-14 0 1.61951e-13)
(2.15474e-13 0 9.49004e-14)
(2.85193e-13 0 3.48669e-14)
(3.30556e-13 0 -1.00679e-14)
(3.66105e-13 0 -4.14965e-14)
(3.98188e-13 0 -6.23162e-14)
(4.29149e-13 0 -7.49405e-14)
(4.59429e-13 0 -8.11009e-14)
(4.88587e-13 0 -8.20479e-14)
(5.15939e-13 0 -7.88012e-14)
(5.40831e-13 0 -7.2218e-14)
(5.62594e-13 0 -6.29953e-14)
(5.80633e-13 0 -5.1762e-14)
(5.946e-13 0 -3.91244e-14)
(6.04337e-13 0 -2.56194e-14)
(6.09741e-13 0 -1.16562e-14)
(6.1075e-13 0 2.44966e-15)
(6.07425e-13 0 1.64174e-14)
(5.99937e-13 0 2.99971e-14)
(5.88508e-13 0 4.29915e-14)
(5.73393e-13 0 5.52602e-14)
(5.54884e-13 0 6.67025e-14)
(5.33291e-13 0 7.72396e-14)
(5.08932e-13 0 8.68052e-14)
(4.82138e-13 0 9.5352e-14)
(4.53237e-13 0 1.02867e-13)
(4.22524e-13 0 1.09382e-13)
(3.90248e-13 0 1.14971e-13)
(3.5662e-13 0 1.19728e-13)
(3.21835e-13 0 1.23756e-13)
(2.8607e-13 0 1.27146e-13)
(2.49476e-13 0 1.2998e-13)
(2.12184e-13 0 1.32325e-13)
(1.74322e-13 0 1.34234e-13)
(1.36041e-13 0 1.35747e-13)
(9.74886e-14 0 1.3688e-13)
(5.87678e-14 0 1.37627e-13)
(1.96871e-14 0 1.37973e-13)
(-7.12828e-05 0 0.000209089)
(-6.3669e-05 0 0.000187789)
(-0.00018819 0 0.000128864)
(-0.000186031 0 0.000172547)
(-0.000209666 0 0.000184588)
(-0.000242397 0 0.000157846)
(-0.000283184 0 7.11389e-05)
(-0.000281983 0 9.40441e-05)
(-0.000279246 0 0.000124912)
(-0.000276154 0 9.80654e-05)
(-0.00025054 0 0.000109064)
(-0.000239291 0 0.000119875)
(-0.000232864 0 0.000128507)
(-0.000235137 0 0.000103236)
(-0.00023229 0 7.07663e-05)
(-0.000226324 0 3.98126e-05)
(-0.000216643 0 4.60691e-05)
(-0.000214659 0 4.24723e-05)
(-0.000214998 0 1.99034e-05)
(-0.000204942 0 1.00112e-05)
(-0.000192035 0 -1.18707e-05)
(-0.000169644 0 -3.36745e-05)
(-0.000151546 0 -4.37842e-05)
(-0.000141747 0 -5.61686e-05)
(-0.000136283 0 -6.77339e-05)
(-0.000137794 0 -6.59109e-05)
(-0.000139875 0 -6.98039e-05)
(-0.000156475 0 -5.88168e-05)
(-0.00017678 0 -4.59744e-05)
(-0.000186711 0 -5.77858e-05)
(-0.000192225 0 -5.99453e-05)
(-0.000185577 0 -7.46899e-05)
(-0.000167922 0 -8.2592e-05)
(-0.000156445 0 -7.18083e-05)
(-0.000149457 0 -5.00045e-05)
(-0.000131567 0 -2.44768e-05)
(-0.000113174 0 -2.80884e-06)
(-0.00011229 0 3.91076e-05)
(-0.000115106 0 0.000102811)
(-0.000112646 0 0.000155902)
(-2.67805e-05 0 0.000226712)
(-4.16832e-05 0 0.000317034)
(-8.81658e-06 0 0.000359529)
(-7.96809e-05 0 0.000337945)
(-0.000173193 0 0.000271928)
(-0.000358865 0 0.000124944)
(-0.000448533 0 4.95578e-05)
(-0.000454148 0 4.4236e-05)
(-0.000461944 0 1.02428e-05)
(-0.000498065 0 1.34814e-05)
(-0.000523128 0 -1.6362e-05)
(-0.000528693 0 -5.57565e-05)
(-0.000529542 0 -6.34161e-05)
(-0.000513145 0 -0.00010591)
(-0.000507912 0 -9.39981e-05)
(-0.000515879 0 1.64785e-05)
(-0.000500286 0 -4.0519e-05)
(-0.000493101 0 -2.07304e-07)
(-0.000477662 0 -3.02237e-05)
(-0.000468462 0 -3.17612e-05)
(-0.000457607 0 -5.20031e-05)
(-0.000439609 0 -9.2798e-05)
(-0.000419188 0 -0.000122409)
(-0.000394895 0 -0.000144059)
(-0.000362002 0 -0.000164365)
(-0.000324225 0 -0.000172373)
(-0.000280563 0 -0.000175811)
(-0.00024896 0 -0.000154086)
(-0.00021184 0 -0.000146037)
(-0.00019707 0 -0.000115833)
(-0.000189963 0 -6.13713e-05)
(-0.000129832 0 -0.000106157)
(-0.000115601 0 -8.9136e-05)
(-0.000118006 0 -6.49322e-05)
(-8.49743e-05 0 -9.71707e-05)
(-5.58934e-05 0 -0.000107818)
(-8.77501e-05 0 -0.000103293)
(0.000155466 0 -0.000142427)
(-0.000388698 0 -0.000201865)
(4.39675e-06 0 -0.000737985)
(-4.59747e-13 0 -3.94453e-13)
(-8.46937e-13 0 4.36713e-15)
(9.11826e-14 0 3.21817e-14)
(1.78195e-13 0 1.15879e-14)
(2.44864e-13 0 -2.22659e-14)
(2.97266e-13 0 -5.47745e-14)
(3.41726e-13 0 -8.08618e-14)
(3.82083e-13 0 -9.93843e-14)
(4.20163e-13 0 -1.10655e-13)
(4.56473e-13 0 -1.15394e-13)
(4.90683e-13 0 -1.14371e-13)
(5.22174e-13 0 -1.08434e-13)
(5.50389e-13 0 -9.84639e-14)
(5.74755e-13 0 -8.52642e-14)
(5.94712e-13 0 -6.95835e-14)
(6.09936e-13 0 -5.21755e-14)
(6.20373e-13 0 -3.37641e-14)
(6.26053e-13 0 -1.49303e-14)
(6.27004e-13 0 3.9032e-15)
(6.23324e-13 0 2.23976e-14)
(6.15226e-13 0 4.02494e-14)
(6.02992e-13 0 5.72015e-14)
(5.86941e-13 0 7.30689e-14)
(5.67406e-13 0 8.77392e-14)
(5.44718e-13 0 1.01148e-13)
(5.1921e-13 0 1.13256e-13)
(4.91239e-13 0 1.24043e-13)
(4.61181e-13 0 1.33522e-13)
(4.29382e-13 0 1.41753e-13)
(3.96124e-13 0 1.48842e-13)
(3.61628e-13 0 1.5491e-13)
(3.26081e-13 0 1.60073e-13)
(2.89641e-13 0 1.64429e-13)
(2.52443e-13 0 1.68056e-13)
(2.14606e-13 0 1.71026e-13)
(1.76252e-13 0 1.73409e-13)
(1.37517e-13 0 1.75263e-13)
(9.85255e-14 0 1.76627e-13)
(5.93684e-14 0 1.77517e-13)
(1.98782e-14 0 1.77937e-13)
(-8.78223e-05 0 0.000272439)
(-6.52385e-05 0 0.000255847)
(-0.000174536 0 0.000230299)
(-0.000243351 0 0.000203239)
(-0.000274134 0 0.000187456)
(-0.000290476 0 0.000170164)
(-0.000325689 0 0.000101057)
(-0.000337824 0 0.000101632)
(-0.000359723 0 8.5387e-05)
(-0.000364657 0 8.97468e-05)
(-0.000359805 0 0.00010041)
(-0.000330769 0 0.000117783)
(-0.000298785 0 0.000112803)
(-0.000285816 0 9.24134e-05)
(-0.000277236 0 8.21673e-05)
(-0.000263679 0 4.92393e-05)
(-0.000229675 0 4.95358e-05)
(-0.000207417 0 4.02983e-05)
(-0.000183421 0 4.28521e-05)
(-0.000164353 0 1.21911e-05)
(-0.000145246 0 1.38069e-05)
(-0.000133059 0 -1.59978e-05)
(-0.000114364 0 -3.47648e-05)
(-0.000102883 0 -4.37076e-05)
(-8.54546e-05 0 -6.44673e-05)
(-7.49101e-05 0 -6.33412e-05)
(-7.41445e-05 0 -5.82369e-05)
(-8.8144e-05 0 -4.0796e-05)
(-8.99004e-05 0 -5.66225e-05)
(-0.000107864 0 -5.38595e-05)
(-0.0001213 0 -6.28925e-05)
(-0.000124588 0 -7.00178e-05)
(-0.000119797 0 -7.55513e-05)
(-0.00010614 0 -7.92617e-05)
(-9.54162e-05 0 -6.99684e-05)
(-8.39242e-05 0 -4.03949e-05)
(-3.61246e-05 0 -2.30723e-05)
(-1.58437e-05 0 2.12663e-05)
(1.34094e-05 0 7.47471e-05)
(8.21373e-05 0 0.000121523)
(8.97504e-05 0 0.000194209)
(0.000117284 0 0.000254301)
(0.000107731 0 0.00034481)
(4.29735e-05 0 0.000394728)
(-2.71654e-05 0 0.000357004)
(-8.47123e-05 0 0.000318469)
(-0.000169426 0 0.000241761)
(-0.000355437 0 9.96283e-05)
(-0.000417557 0 3.15466e-05)
(-0.000429328 0 2.4293e-05)
(-0.000432625 0 1.22734e-05)
(-0.000443899 0 -3.55906e-05)
(-0.000452342 0 -4.16896e-05)
(-0.000461217 0 -2.85387e-05)
(-0.000466337 0 -2.43362e-05)
(-0.000459999 0 -2.67743e-05)
(-0.000437768 0 -2.12088e-05)
(-0.000416655 0 -2.06701e-05)
(-0.000399161 0 -3.48545e-05)
(-0.000386403 0 -5.158e-05)
(-0.000369922 0 -7.49377e-05)
(-0.000353725 0 -0.000100394)
(-0.000332557 0 -0.000139874)
(-0.000312367 0 -0.00016623)
(-0.000284295 0 -0.000193211)
(-0.000237961 0 -0.000219259)
(-0.000208671 0 -0.000194955)
(-0.000194144 0 -0.000146532)
(-0.000161771 0 -0.000128164)
(-0.00013208 0 -0.000125122)
(-8.95706e-05 0 -0.000147469)
(-4.29825e-06 0 -0.000172093)
(-3.66008e-05 0 -0.000114617)
(-2.92652e-05 0 -9.17681e-05)
(-4.43815e-05 0 -9.19636e-05)
(4.71144e-05 0 -0.000149882)
(-0.000108687 0 -0.000176502)
(0.000297152 0 -0.000271572)
(-0.000159102 0 -0.000179053)
(4.2915e-06 0 -0.000656871)
(-3.43651e-13 0 -3.76662e-13)
(-8.05227e-13 0 -6.68262e-14)
(1.00812e-13 0 -4.93952e-14)
(1.61184e-13 0 -5.85065e-14)
(2.18831e-13 0 -8.08844e-14)
(2.7196e-13 0 -1.05951e-13)
(3.21495e-13 0 -1.27803e-13)
(3.68394e-13 0 -1.43751e-13)
(4.1314e-13 0 -1.52947e-13)
(4.55713e-13 0 -1.55442e-13)
(4.95546e-13 0 -1.51648e-13)
(5.31846e-13 0 -1.42249e-13)
(5.64001e-13 0 -1.2814e-13)
(5.91474e-13 0 -1.10244e-13)
(6.13722e-13 0 -8.94397e-14)
(6.30419e-13 0 -6.66205e-14)
(6.41583e-13 0 -4.26896e-14)
(6.47408e-13 0 -1.84276e-14)
(6.48078e-13 0 5.59278e-15)
(6.43771e-13 0 2.89609e-14)
(6.34741e-13 0 5.13393e-14)
(6.21328e-13 0 7.24332e-14)
(6.03931e-13 0 9.2017e-14)
(5.82964e-13 0 1.09962e-13)
(5.58808e-13 0 1.26227e-13)
(5.31826e-13 0 1.40825e-13)
(5.02403e-13 0 1.53792e-13)
(4.70947e-13 0 1.65188e-13)
(4.37845e-13 0 1.75105e-13)
(4.03405e-13 0 1.83663e-13)
(3.67851e-13 0 1.90993e-13)
(3.31353e-13 0 1.97218e-13)
(2.94052e-13 0 2.02445e-13)
(2.56074e-13 0 2.06766e-13)
(2.17537e-13 0 2.10275e-13)
(1.78559e-13 0 2.13063e-13)
(1.3926e-13 0 2.15215e-13)
(9.97427e-14 0 2.16788e-13)
(6.00781e-14 0 2.17813e-13)
(2.01077e-14 0 2.18306e-13)
(-5.39613e-05 0 0.000363124)
(-0.000145756 0 0.000306856)
(-0.000286345 0 0.00022777)
(-0.000277398 0 0.000237926)
(-0.000345186 0 0.000173074)
(-0.000358384 0 0.000156954)
(-0.000353454 0 0.0001632)
(-0.000411193 0 8.98065e-05)
(-0.000425327 0 0.000123955)
(-0.00045142 0 8.6841e-05)
(-0.000462682 0 6.72139e-05)
(-0.000457185 0 9.19225e-05)
(-0.000426471 0 8.00001e-05)
(-0.000405498 0 5.68154e-05)
(-0.000390912 0 5.33394e-05)
(-0.000373711 0 8.26071e-06)
(-0.000333748 0 -4.91612e-05)
(-0.000292462 0 1.47718e-06)
(-0.000261075 0 4.77794e-06)
(-0.000228748 0 -7.38616e-05)
(-0.000199114 0 -5.4592e-07)
(-0.000171541 0 -5.66757e-05)
(-0.000132467 0 -8.11905e-05)
(-0.000107601 0 -3.55545e-05)
(-7.51092e-05 0 -7.19669e-05)
(-5.11891e-05 0 -5.87482e-05)
(-3.65984e-05 0 -5.46651e-05)
(-2.29674e-05 0 -4.51469e-05)
(-2.61111e-05 0 -3.64343e-05)
(-4.77457e-05 0 -3.31588e-05)
(-6.78368e-05 0 -4.97793e-05)
(-7.37413e-05 0 -7.03035e-05)
(-6.25554e-05 0 -8.94362e-05)
(-6.14787e-05 0 -9.30125e-05)
(-2.53681e-05 0 -0.000100998)
(3.3843e-05 0 -0.000114441)
(6.28876e-05 0 -8.08857e-05)
(7.41621e-05 0 -2.93279e-05)
(0.000106668 0 3.32466e-05)
(0.000118508 0 0.000103705)
(0.000125958 0 0.000179976)
(0.000146973 0 0.000254903)
(0.000143764 0 0.000346164)
(0.000184839 0 0.000418306)
(0.000116725 0 0.000422425)
(3.84433e-05 0 0.000383587)
(-2.31033e-05 0 0.000322755)
(-6.28949e-05 0 0.000263463)
(-0.000136364 0 0.000180745)
(-0.000288988 0 5.03295e-05)
(-0.000354421 0 -1.4059e-05)
(-0.000364806 0 -2.68713e-05)
(-0.000365245 0 -3.4671e-05)
(-0.00036412 0 -4.3148e-05)
(-0.000372743 0 -4.13209e-05)
(-0.000376757 0 -3.15591e-05)
(-0.000363804 0 -5.23749e-05)
(-0.000339642 0 -6.61065e-05)
(-0.000324712 0 -6.77441e-05)
(-0.000317852 0 -6.55316e-05)
(-0.000311031 0 -8.3452e-05)
(-0.00029968 0 -0.000124046)
(-0.000282487 0 -0.00016389)
(-0.000271276 0 -0.000186824)
(-0.000234586 0 -0.000229359)
(-0.000197708 0 -0.000238263)
(-0.000150619 0 -0.000223711)
(-0.00010565 0 -0.000199129)
(-8.66092e-05 0 -0.000175886)
(-6.62166e-05 0 -0.00015987)
(-3.32397e-05 0 -0.000150414)
(8.93173e-06 0 -0.000141985)
(2.5417e-06 0 -0.000104234)
(-6.63097e-06 0 -8.41997e-05)
(1.88131e-05 0 -0.000114857)
(9.21082e-05 0 -0.000143171)
(-3.69884e-05 0 -0.000204654)
(0.000315453 0 -0.000298535)
(-0.000480873 0 -0.000164034)
(4.78427e-06 0 -0.000662486)
(-4.82322e-13 0 -5.17645e-13)
(-8.29997e-13 0 -1.24057e-13)
(9.98191e-14 0 -1.03771e-13)
(1.46868e-13 0 -1.14456e-13)
(1.97423e-13 0 -1.36061e-13)
(2.50348e-13 0 -1.59514e-13)
(3.03925e-13 0 -1.79779e-13)
(3.56938e-13 0 -1.94091e-13)
(4.08472e-13 0 -2.01254e-13)
(4.57773e-13 0 -2.01084e-13)
(5.03876e-13 0 -1.93879e-13)
(5.45681e-13 0 -1.80293e-13)
(5.82394e-13 0 -1.6128e-13)
(6.13456e-13 0 -1.37924e-13)
(6.38335e-13 0 -1.11274e-13)
(6.56687e-13 0 -8.23729e-14)
(6.68566e-13 0 -5.22951e-14)
(6.74336e-13 0 -2.20296e-14)
(6.74392e-13 0 7.66337e-15)
(6.69071e-13 0 3.62684e-14)
(6.58698e-13 0 6.34222e-14)
(6.4367e-13 0 8.88299e-14)
(6.2447e-13 0 1.12259e-13)
(6.01616e-13 0 1.33576e-13)
(5.75581e-13 0 1.52759e-13)
(5.46774e-13 0 1.69865e-13)
(5.15603e-13 0 1.84993e-13)
(4.82495e-13 0 1.98256e-13)
(4.47857e-13 0 2.09778e-13)
(4.12011e-13 0 2.197e-13)
(3.75184e-13 0 2.28169e-13)
(3.37533e-13 0 2.35325e-13)
(2.99189e-13 0 2.41296e-13)
(2.60273e-13 0 2.46204e-13)
(2.20903e-13 0 2.50166e-13)
(1.81192e-13 0 2.533e-13)
(1.41241e-13 0 2.55708e-13)
(1.01123e-13 0 2.5746e-13)
(6.08866e-14 0 2.586e-13)
(2.03715e-14 0 2.59152e-13)
(-6.32889e-05 0 0.000419743)
(0.000178415 0 0.000424114)
(-4.81416e-05 0 0.00040281)
(-0.000193505 0 0.000341117)
(-0.000285536 0 0.000290216)
(-0.000319223 0 0.000272031)
(-0.000401525 0 0.000174568)
(-0.000427756 0 0.000161678)
(-0.000456223 0 0.000160076)
(-0.000483477 0 0.000115185)
(-0.000490043 0 9.48324e-05)
(-0.000492158 0 9.29137e-05)
(-0.000480339 0 3.08608e-05)
(-0.000449542 0 3.01971e-05)
(-0.000431235 0 4.00519e-05)
(-0.000410579 0 -2.12795e-05)
(-0.000373083 0 -6.29537e-05)
(-0.000339227 0 -3.52652e-05)
(-0.000305702 0 -5.44768e-05)
(-0.000278472 0 -7.31351e-05)
(-0.000258375 0 -6.53432e-05)
(-0.000227514 0 -0.000107839)
(-0.000193386 0 -0.000134833)
(-0.000190952 0 -9.42757e-05)
(-0.000126475 0 -0.000157566)
(-0.000110908 0 -0.000104916)
(-5.29172e-05 0 -9.16833e-05)
(-1.28925e-05 0 -3.73721e-05)
(8.8629e-06 0 4.95384e-06)
(-8.94997e-06 0 -1.54834e-05)
(-2.63638e-05 0 -3.98758e-05)
(-2.83502e-05 0 -7.23174e-05)
(-1.95778e-05 0 -0.000100268)
(1.44889e-05 0 -0.000126142)
(5.65866e-05 0 -0.000141414)
(7.56188e-05 0 -0.000132323)
(9.8714e-05 0 -9.79398e-05)
(0.000112766 0 -4.73457e-05)
(0.000143146 0 2.20647e-05)
(0.000153846 0 9.42826e-05)
(0.000170732 0 0.000162791)
(0.000179337 0 0.000257775)
(0.000195104 0 0.000335881)
(0.000246271 0 0.000394315)
(0.00023842 0 0.000459158)
(0.000180954 0 0.000453972)
(0.000129003 0 0.000388273)
(4.58135e-05 0 0.000299981)
(-2.30562e-05 0 0.000233782)
(-5.92988e-05 0 0.000179634)
(-0.000137215 0 0.000113174)
(-0.000250941 0 1.76662e-05)
(-0.000283928 0 -2.81535e-05)
(-0.000293704 0 -4.40433e-05)
(-0.000298603 0 -3.86025e-05)
(-0.00029831 0 -3.86576e-05)
(-0.000283097 0 -5.38608e-05)
(-0.000264789 0 -6.17178e-05)
(-0.000256693 0 -6.48802e-05)
(-0.000254739 0 -7.2801e-05)
(-0.000259342 0 -0.000104593)
(-0.000270328 0 -0.000119695)
(-0.000261863 0 -0.000172208)
(-0.000251692 0 -0.000206542)
(-0.000219044 0 -0.000242537)
(-0.000139012 0 -0.000278521)
(-8.78278e-05 0 -0.000254614)
(-2.01452e-05 0 -0.000225812)
(6.02921e-05 0 -0.000212716)
(0.000124736 0 -0.000219898)
(0.00019539 0 -0.00019366)
(0.000202695 0 -0.000163515)
(0.000141562 0 -0.000117572)
(0.000123037 0 -0.00010187)
(0.000135096 0 -0.000137594)
(0.000156651 0 -0.000155219)
(5.51079e-05 0 -0.000196189)
(0.000249684 0 -0.000224055)
(-0.000537702 0 -0.000139133)
(4.78342e-06 0 -0.000601716)
(-4.306e-13 0 -3.18577e-13)
(-7.03207e-13 0 -8.96982e-14)
(1.10728e-13 0 -1.25903e-13)
(1.29062e-13 0 -1.57992e-13)
(1.73783e-13 0 -1.8807e-13)
(2.28242e-13 0 -2.14926e-13)
(2.86917e-13 0 -2.36313e-13)
(3.46919e-13 0 -2.50276e-13)
(4.06147e-13 0 -2.55755e-13)
(4.63088e-13 0 -2.52644e-13)
(5.16338e-13 0 -2.41372e-13)
(5.64445e-13 0 -2.22756e-13)
(6.06369e-13 0 -1.97917e-13)
(6.4148e-13 0 -1.68182e-13)
(6.69273e-13 0 -1.34831e-13)
(6.89398e-13 0 -9.90898e-14)
(7.01926e-13 0 -6.21988e-14)
(7.07367e-13 0 -2.53381e-14)
(7.06376e-13 0 1.05349e-14)
(6.9953e-13 0 4.47692e-14)
(6.87303e-13 0 7.69635e-14)
(6.70165e-13 0 1.06849e-13)
(6.48677e-13 0 1.34232e-13)
(6.23463e-13 0 1.58999e-13)
(5.95097e-13 0 1.81149e-13)
(5.64061e-13 0 2.00772e-13)
(5.30793e-13 0 2.18014e-13)
(4.95731e-13 0 2.33042e-13)
(4.59289e-13 0 2.4603e-13)
(4.21796e-13 0 2.57156e-13)
(3.83476e-13 0 2.66598e-13)
(3.44481e-13 0 2.74528e-13)
(3.04931e-13 0 2.81107e-13)
(2.64944e-13 0 2.86486e-13)
(2.24633e-13 0 2.90811e-13)
(1.841e-13 0 2.94219e-13)
(1.4342e-13 0 2.96825e-13)
(1.02635e-13 0 2.98711e-13)
(6.17699e-14 0 2.99931e-13)
(2.06596e-14 0 3.00518e-13)
(-8.39152e-05 0 0.000430095)
(-0.000196867 0 0.000423018)
(-0.000167916 0 0.000437418)
(-0.000150052 0 0.000419023)
(-0.000291185 0 0.000320956)
(-0.000288957 0 0.000318783)
(-0.000394279 0 0.000198924)
(-0.000412061 0 0.00018495)
(-0.000427094 0 0.00018657)
(-0.000445943 0 0.000147261)
(-0.000468627 0 -1.21782e-05)
(-0.000433725 0 0.000157861)
(-0.000428676 0 -8.63135e-06)
(-0.000388743 0 2.22422e-06)
(-0.000366593 0 -1.02641e-05)
(-0.000344708 0 -5.84222e-05)
(-0.000317606 0 -8.85134e-05)
(-0.000299419 0 -6.79695e-05)
(-0.000280868 0 -6.86799e-05)
(-0.000264963 0 -8.01089e-05)
(-0.000253073 0 -8.15806e-05)
(-0.000236082 0 -0.000110719)
(-0.000206439 0 -0.000148766)
(-0.000209738 0 -0.000128355)
(-0.000164921 0 -0.000178306)
(-0.000161219 0 -0.000159125)
(-0.000109778 0 -0.000169137)
(-0.000101297 0 -0.000110839)
(-3.28461e-05 0 -6.16921e-05)
(1.69752e-05 0 1.06937e-05)
(4.47682e-06 0 -1.81295e-05)
(-9.40835e-06 0 -7.52834e-05)
(2.65929e-05 0 -0.00011732)
(6.24158e-05 0 -0.000142113)
(7.12555e-05 0 -0.000151739)
(9.49339e-05 0 -0.000147498)
(0.000100176 0 -0.000123364)
(0.000135771 0 -7.26591e-05)
(0.000167129 0 6.70583e-06)
(0.000181126 0 8.05015e-05)
(0.000201613 0 0.000143756)
(0.000232076 0 0.000216736)
(0.00023511 0 0.000308509)
(0.000269448 0 0.000376306)
(0.000260946 0 0.00045906)
(0.00029225 0 0.000481349)
(0.000256904 0 0.000442996)
(0.000165897 0 0.000375791)
(7.68519e-05 0 0.00029756)
(9.4964e-06 0 0.000214635)
(-5.17803e-05 0 0.000159729)
(-0.000113495 0 0.000117932)
(-0.000192314 0 3.10895e-05)
(-0.000238648 0 -3.07805e-05)