/*--------------------------------*- C++ -*----------------------------------*\
  =========                 |
  \\      /  F ield         | OpenFOAM: The Open Source CFD Toolbox
   \\    /   O peration     | Website:  https://openfoam.org
    \\  /    A nd           | Version:  6
     \\/     M anipulation  |
\*---------------------------------------------------------------------------*/
FoamFile
{
    version     2.0;
    format      ascii;
    class       volScalarField;
    location    "2900";
    object      dmdt;
}
// * * * * * * * * * * * * * * * * * * * * * * * * * * * * * * * * * * * * * //

dimensions      [0 0 0 0 0 0 0];

internalField   nonuniform List<scalar> 
4800
(
-0.218962
-0.215694
-0.212402
-0.209076
-0.205715
-0.202332
-0.198948
-0.195595
-0.192302
-0.189102
-0.186037
-0.183126
-0.180367
-0.17775
-0.175263
-0.172892
-0.170626
-0.168457
-0.166378
-0.16439
-0.162498
-0.160708
-0.159022
-0.157438
-0.15595
-0.154549
-0.15323
-0.151986
-0.15081
-0.149693
-0.148621
-0.147578
-0.146549
-0.145521
-0.144484
-0.143435
-0.14237
-0.141285
-0.14018
-0.139056
-0.137916
-0.136762
-0.135593
-0.134405
-0.133195
-0.131957
-0.130683
-0.129371
-0.128017
-0.126613
-0.125149
-0.123618
-0.122021
-0.120364
-0.118645
-0.11684
-0.114934
-0.112929
-0.110824
-0.108616
-0.1063
-0.103873
-0.101326
-0.0986546
-0.0958585
-0.0929208
-0.0898284
-0.0865825
-0.0831687
-0.0795612
-0.075724
-0.0716236
-0.0672272
-0.0624926
-0.0573759
-0.0518398
-0.045847
-0.03936
-0.0323421
-0.0247658
-0.0167377
-0.00918389
-0.00664241
-0.00465949
-0.002451
4.02512e-05
0.002751
0.0056175
0.00859336
0.0116471
0.0147576
0.0179102
0.0210948
0.0243036
0.0275308
0.0307719
0.034023
0.0372812
0.040544
0.0438093
0.0470757
0.0503417
0.0536064
0.0568691
0.0601291
0.0633861
0.0666399
0.0698903
0.0731374
0.0763811
0.0796217
0.0828592
0.086094
0.0893262
0.0925562
0.0957842
0.0990106
0.102236
0.10546
0.108684
-0.218956
-0.215679
-0.21238
-0.209051
-0.205691
-0.202312
-0.198934
-0.195587
-0.192309
-0.189138
-0.1861
-0.183211
-0.180469
-0.177862
-0.175381
-0.173014
-0.170752
-0.168588
-0.166517
-0.164537
-0.162654
-0.160871
-0.159191
-0.15761
-0.156124
-0.154726
-0.153409
-0.15217
-0.150999
-0.149887
-0.148818
-0.147778
-0.14675
-0.145725
-0.144694
-0.143651
-0.142592
-0.141515
-0.140419
-0.139308
-0.138183
-0.137045
-0.135892
-0.134718
-0.133521
-0.132291
-0.131021
-0.12971
-0.128353
-0.126939
-0.125461
-0.123914
-0.122305
-0.120629
-0.118882
-0.117039
-0.115099
-0.113068
-0.110936
-0.108696
-0.106347
-0.103887
-0.101311
-0.0986112
-0.0957853
-0.0928219
-0.089705
-0.0864315
-0.0829904
-0.0793616
-0.0755117
-0.0714096
-0.0670219
-0.0623083
-0.057227
-0.0517444
-0.045823
-0.0394238
-0.0324908
-0.0248829
-0.0160751
-0.00323887
-0.00602466
-0.0048555
-0.00270973
-0.00015524
0.00261958
0.0055325
0.00853936
0.0116134
0.014737
0.0178983
0.0210886
0.0243011
0.0275308
0.0307734
0.0340255
0.0372843
0.0405475
0.043813
0.0470793
0.0503452
0.0536098
0.0568722
0.060132
0.0633888
0.0666424
0.0698926
0.0731394
0.0763829
0.0796232
0.0828606
0.0860951
0.0893272
0.092557
0.0957849
0.0990111
0.102236
0.10546
0.108684
-0.218947
-0.215652
-0.212341
-0.209009
-0.205653
-0.202283
-0.198919
-0.195592
-0.192345
-0.189217
-0.186228
-0.183379
-0.180664
-0.178077
-0.17561
-0.173253
-0.171001
-0.168849
-0.16679
-0.164826
-0.162958
-0.161188
-0.159519
-0.157947
-0.156469
-0.155077
-0.153769
-0.152539
-0.151379
-0.150277
-0.149219
-0.148187
-0.147168
-0.146152
-0.145131
-0.144101
-0.143057
-0.141997
-0.140923
-0.139837
-0.138741
-0.137634
-0.136509
-0.135361
-0.134188
-0.132975
-0.131711
-0.130403
-0.129038
-0.127609
-0.126106
-0.124532
-0.122891
-0.121174
-0.119371
-0.117463
-0.11547
-0.113383
-0.111189
-0.108888
-0.10648
-0.103956
-0.101314
-0.0985509
-0.095659
-0.0926384
-0.0894753
-0.0861555
-0.0826654
-0.0789919
-0.0751121
-0.070998
-0.0666221
-0.0619487
-0.0569324
-0.0515444
-0.0457541
-0.0395369
-0.0328723
-0.0257539
-0.0182688
-0.0110263
-0.00846301
-0.00599606
-0.00335323
-0.000547447
0.00237404
0.00537763
0.00844194
0.0115528
0.0147004
0.0178774
0.0210779
0.0242973
0.0275315
0.030777
0.034031
0.0372909
0.0405546
0.0438203
0.0470866
0.0503523
0.0536165
0.0568786
0.0601379
0.0633942
0.0666473
0.069897
0.0731434
0.0763864
0.0796264
0.0828633
0.0860975
0.0893292
0.0925586
0.0957862
0.0990121
0.102237
0.105461
0.108684
-0.218937
-0.215626
-0.212303
-0.208964
-0.205614
-0.202261
-0.198927
-0.195641
-0.192442
-0.189362
-0.186417
-0.18361
-0.180932
-0.178375
-0.175934
-0.173598
-0.171362
-0.169226
-0.167186
-0.165243
-0.163396
-0.161647
-0.159996
-0.158439
-0.156973
-0.155595
-0.154299
-0.153084
-0.151942
-0.150861
-0.149823
-0.148812
-0.147814
-0.146818
-0.145819
-0.144811
-0.143792
-0.142761
-0.141718
-0.140665
-0.139606
-0.138539
-0.137451
-0.136337
-0.135192
-0.134003
-0.132747
-0.131442
-0.130068
-0.128617
-0.127081
-0.12547
-0.123785
-0.122013
-0.120143
-0.118163
-0.116094
-0.113921
-0.111638
-0.109246
-0.106737
-0.104108
-0.101363
-0.0985019
-0.0955148
-0.0924055
-0.0891664
-0.0857809
-0.082231
-0.0785039
-0.0745874
-0.0704585
-0.0660894
-0.0614543
-0.0565159
-0.051247
-0.0456269
-0.0396523
-0.033363
-0.0268677
-0.0204357
-0.0147521
-0.0106887
-0.00730582
-0.00414084
-0.00103364
0.00206896
0.00518495
0.0083206
0.0114775
0.0146552
0.017852
0.0210658
0.0242939
0.0275339
0.0307833
0.0340397
0.037301
0.0405654
0.0438314
0.0470976
0.0503629
0.0536266
0.056888
0.0601467
0.0634023
0.0666546
0.0699036
0.0731493
0.0763917
0.079631
0.0828674
0.086101
0.0893321
0.0925611
0.0957882
0.0990137
0.102238
0.105461
0.108684
-0.218929
-0.215602
-0.21227
-0.208931
-0.205588
-0.202258
-0.19896
-0.195724
-0.192578
-0.189552
-0.186657
-0.183895
-0.181259
-0.178739
-0.176328
-0.174019
-0.171812
-0.169702
-0.167688
-0.165771
-0.163952
-0.162229
-0.160603
-0.159068
-0.157623
-0.156265
-0.15499
-0.153799
-0.152684
-0.151633
-0.150628
-0.149651
-0.148686
-0.147724
-0.146758
-0.145785
-0.1448
-0.143806
-0.142803
-0.141792
-0.140779
-0.139757
-0.13871
-0.137632
-0.136516
-0.135348
-0.134098
-0.132796
-0.131415
-0.129944
-0.128377
-0.126724
-0.124986
-0.123148
-0.121205
-0.11915
-0.116992
-0.114717
-0.112323
-0.109805
-0.107158
-0.104387
-0.101498
-0.0984996
-0.0953891
-0.092166
-0.0888234
-0.0853457
-0.0817204
-0.0779383
-0.073985
-0.0698381
-0.0654725
-0.0608732
-0.0560139
-0.0508653
-0.0454222
-0.0397079
-0.0337856
-0.0277885
-0.0219631
-0.0167038
-0.0122513
-0.00838689
-0.00485277
-0.00149515
0.00177135
0.00499393
0.00819921
0.011402
0.0146103
0.0178277
0.0210554
0.024293
0.0275394
0.030793
0.034052
0.0373149
0.0405801
0.0438463
0.0471122
0.050377
0.05364
0.0569006
0.0601583
0.063413
0.0666644
0.0699124
0.0731572
0.0763987
0.0796372
0.0828727
0.0861056
0.089336
0.0925643
0.0957908
0.0990157
0.102239
0.105462
0.108684
-0.218926
-0.215593
-0.212255
-0.208914
-0.205578
-0.202268
-0.199006
-0.19582
-0.192737
-0.189774
-0.186936
-0.184221
-0.181626
-0.179147
-0.176774
-0.174502
-0.172331
-0.170255
-0.168274
-0.166392
-0.164607
-0.16292
-0.161326
-0.159822
-0.158406
-0.157077
-0.155833
-0.154675
-0.153597
-0.152589
-0.151628
-0.150697
-0.149777
-0.148858
-0.147936
-0.147005
-0.146064
-0.145115
-0.144158
-0.143196
-0.14223
-0.141252
-0.140244
-0.139198
-0.138109
-0.136958
-0.135727
-0.134432
-0.133045
-0.131557
-0.129963
-0.12827
-0.126479
-0.124571
-0.122555
-0.120416
-0.118151
-0.115757
-0.113234
-0.110572
-0.107761
-0.104815
-0.101749
-0.0985787
-0.0953112
-0.0919454
-0.0884774
-0.0848952
-0.081186
-0.0773392
-0.0733412
-0.0691719
-0.0648119
-0.060245
-0.0554519
-0.0504184
-0.0451502
-0.0396719
-0.0340443
-0.0283945
-0.0229075
-0.0178074
-0.0132222
-0.00912302
-0.00537115
-0.00184731
0.00153653
0.00483952
0.00809958
0.0113399
0.0145742
0.0178097
0.02105
0.0242965
0.027549
0.0308067
0.0340684
0.0373328
0.0405987
0.0438649
0.0471305
0.0503946
0.0536567
0.0569162
0.0601727
0.0634262
0.0666764
0.0699233
0.0731669
0.0764074
0.0796448
0.0828794
0.0861113
0.0893409
0.0925683
0.095794
0.0990181
0.102241
0.105463
0.108685
-0.218923
-0.215586
-0.212246
-0.208907
-0.205583
-0.202295
-0.199071
-0.195939
-0.192918
-0.190018
-0.187239
-0.184577
-0.182029
-0.179593
-0.177261
-0.175032
-0.172902
-0.170867
-0.168929
-0.16709
-0.165347
-0.163701
-0.162148
-0.160685
-0.159309
-0.158019
-0.156814
-0.155698
-0.154667
-0.153708
-0.152801
-0.151923
-0.151057
-0.150191
-0.149322
-0.148442
-0.147551
-0.146651
-0.145744
-0.14483
-0.143911
-0.142972
-0.142
-0.140985
-0.139924
-0.138798
-0.137594
-0.136308
-0.134918
-0.133417
-0.131801
-0.130074
-0.128234
-0.126264
-0.124175
-0.121944
-0.119571
-0.117052
-0.114382
-0.111548
-0.108541
-0.105389
-0.10212
-0.098756
-0.0953066
-0.0917773
-0.0881648
-0.08446
-0.0806542
-0.0767356
-0.0726885
-0.0684928
-0.0641322
-0.0595935
-0.0548639
-0.0499372
-0.0448157
-0.0395238
-0.0341139
-0.0286881
-0.0233816
-0.0183425
-0.0136985
-0.0094966
-0.00564576
-0.00204316
0.00139921
0.00474504
0.00803667
0.0113006
0.0145526
0.0178015
0.0210519
0.0243058
0.0275636
0.030825
0.034089
0.0373548
0.0406212
0.0438873
0.0471523
0.0504155
0.0536764
0.0569346
0.0601899
0.0634419
0.0666907
0.0699362
0.0731785
0.0764176
0.0796538
0.0828872
0.0861181
0.0893466
0.0925731
0.0957978
0.0990211
0.102243
0.105464
0.108685
-0.218921
-0.21558
-0.212239
-0.208904
-0.205594
-0.202338
-0.19916
-0.196084
-0.193124
-0.190286
-0.187566
-0.184959
-0.182461
-0.180072
-0.177786
-0.175602
-0.173518
-0.17153
-0.16964
-0.16785
-0.166158
-0.164562
-0.163059
-0.161643
-0.160314
-0.159071
-0.157916
-0.15685
-0.155871
-0.154968
-0.154118
-0.153299
-0.152492
-0.151685
-0.150874
-0.15005
-0.149213
-0.148364
-0.147508
-0.146644
-0.145769
-0.14487
-0.143935
-0.142954
-0.141925
-0.140831
-0.139656
-0.138387
-0.137
-0.135492
-0.133858
-0.1321
-0.130215
-0.128193
-0.126036
-0.123716
-0.121233
-0.118576
-0.115737
-0.112707
-0.109478
-0.106099
-0.102606
-0.0990285
-0.0953819
-0.0916736
-0.0879038
-0.0840675
-0.0801537
-0.0761506
-0.0720451
-0.0678172
-0.0634502
-0.0589339
-0.0542566
-0.049412
-0.0444008
-0.039241
-0.0339724
-0.0286658
-0.0234363
-0.0184058
-0.0137229
-0.00950411
-0.00565758
-0.0020643
0.00137277
0.00471917
0.00801587
0.0112873
0.0145475
0.0178043
0.0210616
0.0243212
0.0275834
0.0308479
0.034114
0.0373807
0.0406474
0.0439132
0.0471775
0.0504396
0.0536992
0.0569559
0.0602095
0.0634599
0.0667071
0.069951
0.0731918
0.0764294
0.0796642
0.0828963
0.0861259
0.0893532
0.0925786
0.0958022
0.0990244
0.102246
0.105466
0.108686
-0.218912
-0.215558
-0.212213
-0.20889
-0.205609
-0.202394
-0.199269
-0.196254
-0.193357
-0.19058
-0.187919
-0.185367
-0.182922
-0.180581
-0.178343
-0.176208
-0.174173
-0.172236
-0.1704
-0.168665
-0.167029
-0.165491
-0.164043
-0.162684
-0.16141
-0.160222
-0.159121
-0.15811
-0.157187
-0.156342
-0.155552
-0.154795
-0.154051
-0.153307
-0.152557
-0.151792
-0.15101
-0.150216
-0.149413
-0.148599
-0.147769
-0.146913
-0.146018
-0.145077
-0.144086
-0.14303
-0.141889
-0.14064
-0.139263
-0.137755
-0.136111
-0.134326
-0.1324
-0.130329
-0.128102
-0.125698
-0.123105
-0.120302
-0.117279
-0.114029
-0.110555
-0.106929
-0.1032
-0.0994012
-0.0955496
-0.0916537
-0.0877146
-0.0837311
-0.0796967
-0.0755987
-0.0714235
-0.0671539
-0.0627724
-0.0582668
-0.0536265
-0.0488429
-0.0439116
-0.0388402
-0.0336547
-0.0284035
-0.0231678
-0.0180523
-0.013271
-0.00912353
-0.00540221
-0.00191638
0.00144902
0.00475472
0.00803189
0.0112965
0.0145568
0.0178168
0.0210785
0.0243423
0.027608
0.0308752
0.0341429
0.0374106
0.0406774
0.0439427
0.047206
0.0504668
0.0537248
0.0569798
0.0602317
0.0634802
0.0667256
0.0699677
0.0732067
0.0764427
0.0796759
0.0829065
0.0861347
0.0893607
0.0925848
0.0958072
0.0990282
0.102248
0.105467
0.108686
-0.218901
-0.215529
-0.212181
-0.208874
-0.20563
-0.202465
-0.1994
-0.19645
-0.193617
-0.190901
-0.188296
-0.185798
-0.183406
-0.181116
-0.178928
-0.176843
-0.174861
-0.172982
-0.171205
-0.169532
-0.167957
-0.16648
-0.165094
-0.163795
-0.162582
-0.161454
-0.160413
-0.159459
-0.158595
-0.157809
-0.157081
-0.156387
-0.155707
-0.155028
-0.154341
-0.153637
-0.152915
-0.152178
-0.15143
-0.150669
-0.149888
-0.149079
-0.14823
-0.147333
-0.146386
-0.145375
-0.144269
-0.143045
-0.141685
-0.140183
-0.138532
-0.136726
-0.134764
-0.132645
-0.130353
-0.127868
-0.125156
-0.122194
-0.118968
-0.115476
-0.111738
-0.107855
-0.103884
-0.0998572
-0.0957962
-0.0917113
-0.087605
-0.0834724
-0.0793052
-0.0750972
-0.0708401
-0.0665169
-0.0621089
-0.0576013
-0.0529832
-0.048242
-0.0433664
-0.0383519
-0.0332051
-0.0279356
-0.0225781
-0.017214
-0.0121624
-0.00829559
-0.00489664
-0.00163656
0.0015947
0.0048278
0.0080691
0.0113185
0.0145744
0.0178355
0.0211003
0.0243677
0.0276367
0.0309063
0.0341756
0.0374439
0.0407107
0.0439754
0.0472375
0.0504969
0.0537532
0.0570063
0.0602561
0.0635026
0.066746
0.0699861
0.0732232
0.0764574
0.0796888
0.0829178
0.0861444
0.0893689
0.0925916
0.0958127
0.0990324
0.102251
0.105469
0.108687
-0.218892
-0.215506
-0.21216
-0.208875
-0.205669
-0.202562
-0.199563
-0.196678
-0.193909
-0.191251
-0.188699
-0.186253
-0.183912
-0.181674
-0.179537
-0.177504
-0.175581
-0.173764
-0.172052
-0.170444
-0.168935
-0.167522
-0.166201
-0.164966
-0.163817
-0.162753
-0.161775
-0.160884
-0.160079
-0.159355
-0.15869
-0.158059
-0.157443
-0.156828
-0.156204
-0.155563
-0.154903
-0.154227
-0.153537
-0.152832
-0.152106
-0.151349
-0.150551
-0.149705
-0.148808
-0.147844
-0.146775
-0.14558
-0.144244
-0.142754
-0.141101
-0.139278
-0.137283
-0.135113
-0.132758
-0.130185
-0.127345
-0.124209
-0.120766
-0.11702
-0.113012
-0.108868
-0.104656
-0.100405
-0.0961333
-0.0918523
-0.0875706
-0.083285
-0.0789857
-0.0746654
-0.0703162
-0.0659256
-0.0614777
-0.056956
-0.0523464
-0.047633
-0.0427996
-0.0378256
-0.0326854
-0.0273363
-0.0217315
-0.0158026
-0.00979519
-0.0069554
-0.00423207
-0.00131702
0.00174603
0.00489887
0.00810392
0.0113392
0.0145922
0.0178553
0.0211241
0.0243957
0.0276683
0.0309405
0.0342115
0.0374805
0.0407472
0.0440111
0.047272
0.0505296
0.053784
0.057035
0.0602827
0.063527
0.0667681
0.0700061
0.0732411
0.0764733
0.0797029
0.08293
0.0861549
0.0893778
0.0925989
0.0958186
0.099037
0.102254
0.105471
0.108687
-0.218897
-0.215521
-0.212188
-0.20893
-0.205767
-0.202708
-0.199767
-0.196941
-0.19423
-0.191627
-0.189126
-0.186726
-0.184431
-0.182244
-0.180163
-0.178191
-0.176332
-0.17458
-0.172936
-0.171396
-0.169956
-0.168611
-0.167357
-0.166189
-0.165106
-0.164108
-0.163196
-0.162369
-0.161626
-0.160965
-0.160363
-0.159796
-0.159245
-0.158692
-0.158131
-0.157554
-0.156958
-0.156347
-0.15572
-0.155074
-0.154406
-0.153707
-0.152965
-0.152173
-0.151332
-0.150415
-0.149385
-0.148226
-0.146918
-0.145445
-0.143794
-0.141956
-0.139927
-0.137706
-0.135284
-0.132616
-0.129638
-0.126318
-0.12265
-0.118646
-0.114366
-0.109964
-0.105517
-0.101049
-0.0965749
-0.0921082
-0.0876535
-0.0832094
-0.0787731
-0.0743342
-0.0698825
-0.0654094
-0.060904
-0.0563522
-0.0517381
-0.0470427
-0.0422418
-0.0372999
-0.032174
-0.0267835
-0.0209461
-0.0140543
-0.00244004
-0.00537613
-0.00372337
-0.00113377
0.00181275
0.00492106
0.00811112
0.0113448
0.0146021
0.0178717
0.0211472
0.0244248
0.0277019
0.0309774
0.0342502
0.0375201
0.0407866
0.0440496
0.047309
0.0505649
0.0538171
0.0570659
0.0603112
0.0635531
0.0667919
0.0700275
0.0732603
0.0764904
0.0797179
0.0829431
0.0861662
0.0893873
0.0926069
0.0958249
0.0990419
0.102258
0.105473
0.108688
-0.218907
-0.215554
-0.212247
-0.209021
-0.2059
-0.202892
-0.200003
-0.197232
-0.194576
-0.192026
-0.189576
-0.187225
-0.184978
-0.18284
-0.180812
-0.178901
-0.177107
-0.175424
-0.17385
-0.172381
-0.171012
-0.169738
-0.168554
-0.167457
-0.166444
-0.165515
-0.164671
-0.163911
-0.163234
-0.162636
-0.162097
-0.161594
-0.161105
-0.160615
-0.160116
-0.159603
-0.159073
-0.158528
-0.157964
-0.157381
-0.156775
-0.156135
-0.155451
-0.154719
-0.153933
-0.153062
-0.152077
-0.150959
-0.149682
-0.148228
-0.146579
-0.144727
-0.142667
-0.140396
-0.137903
-0.135139
-0.132024
-0.128515
-0.124617
-0.120352
-0.115811
-0.111165
-0.106486
-0.101801
-0.0971234
-0.0924694
-0.0878451
-0.0832489
-0.0786753
-0.0741118
-0.0695525
-0.0649914
-0.0604196
-0.0558253
-0.0511931
-0.0465039
-0.0417346
-0.0368491
-0.0317996
-0.0265177
-0.0209159
-0.0149504
-0.0091167
-0.00663348
-0.00410619
-0.00129787
0.00171972
0.00486167
0.00807426
0.0113261
0.0145989
0.0178817
0.0211679
0.0244537
0.0277368
0.0310163
0.0342915
0.0375623
0.0408286
0.0440907
0.0473485
0.0506024
0.0538524
0.0570987
0.0603415
0.0635809
0.0668171
0.0700503
0.0732807
0.0765085
0.0797338
0.082957
0.0861781
0.0893975
0.0926152
0.0958317
0.099047
0.102261
0.105475
0.108689
-0.21892
-0.215597
-0.212329
-0.209144
-0.206064
-0.203101
-0.200259
-0.197537
-0.194929
-0.192425
-0.190022
-0.187721
-0.185524
-0.183438
-0.181468
-0.179621
-0.177895
-0.176283
-0.174782
-0.173388
-0.172095
-0.170896
-0.169787
-0.168764
-0.167825
-0.166969
-0.166197
-0.165508
-0.1649
-0.164368
-0.163892
-0.16345
-0.163022
-0.162593
-0.162156
-0.161707
-0.161242
-0.160762
-0.160264
-0.159745
-0.1592
-0.158619
-0.157996
-0.157324
-0.15659
-0.155767
-0.154831
-0.153752
-0.152506
-0.151072
-0.149429
-0.147565
-0.145474
-0.143153
-0.140592
-0.137738
-0.134491
-0.130794
-0.126669
-0.122157
-0.117371
-0.112489
-0.107582
-0.102684
-0.0978114
-0.0929759
-0.0881849
-0.0834372
-0.0787242
-0.0740356
-0.0693651
-0.0647087
-0.0600626
-0.0554176
-0.0507611
-0.0460758
-0.0413405
-0.0365294
-0.0316032
-0.0265301
-0.0213117
-0.0161136
-0.0114884
-0.0079609
-0.004805
-0.00167872
0.00149878
0.00472825
0.00799443
0.0112827
0.0145819
0.0178844
0.0211855
0.0244821
0.0277729
0.0310573
0.0343352
0.0376071
0.0408733
0.0441342
0.0473904
0.050642
0.0538896
0.0571333
0.0603733
0.06361
0.0668436
0.0700742
0.0733021
0.0765274
0.0797505
0.0829715
0.0861906
0.0894081
0.092624
0.0958387
0.0990524
0.102265
0.105478
0.10869
-0.218939
-0.215652
-0.21242
-0.209274
-0.206236
-0.203317
-0.20052
-0.197841
-0.195275
-0.192814
-0.190454
-0.188198
-0.186053
-0.184025
-0.182118
-0.180339
-0.178683
-0.177146
-0.175723
-0.174408
-0.173194
-0.172075
-0.171046
-0.170102
-0.169242
-0.168464
-0.167769
-0.167156
-0.166621
-0.166157
-0.165744
-0.165362
-0.164992
-0.164623
-0.164248
-0.163862
-0.163462
-0.163046
-0.162611
-0.162154
-0.161669
-0.161146
-0.160583
-0.159967
-0.159283
-0.158511
-0.15762
-0.156581
-0.155366
-0.153949
-0.152309
-0.150434
-0.148315
-0.145949
-0.143329
-0.140395
-0.137022
-0.133147
-0.128818
-0.124089
-0.119078
-0.113968
-0.10884
-0.103745
-0.09869
-0.093684
-0.0887319
-0.0838318
-0.0789756
-0.074154
-0.0693627
-0.0646035
-0.0598744
-0.055169
-0.050481
-0.0457996
-0.0411054
-0.0363803
-0.0316053
-0.0267597
-0.0218847
-0.0171392
-0.0128413
-0.00901613
-0.00550325
-0.00212131
0.00121892
0.00455145
0.00788557
0.0112209
0.0145541
0.0178816
0.021201
0.0245107
0.0278104
0.0311004
0.0343814
0.0376545
0.0409204
0.0441801
0.0474343
0.0506836
0.0539285
0.0571693
0.0604065
0.0636404
0.0668711
0.070099
0.0733243
0.0765471
0.0797679
0.0829866
0.0862036
0.089419
0.0926331
0.095846
0.099058
0.102269
0.10548
0.10869
-0.218953
-0.215699
-0.212502
-0.209396
-0.206399
-0.20352
-0.200762
-0.198122
-0.195594
-0.193172
-0.190855
-0.188648
-0.186558
-0.184592
-0.182753
-0.181044
-0.179462
-0.178002
-0.17666
-0.175428
-0.174299
-0.173264
-0.17232
-0.171461
-0.170685
-0.169991
-0.169377
-0.168846
-0.168386
-0.16799
-0.16764
-0.167318
-0.167007
-0.166698
-0.166386
-0.166064
-0.165728
-0.165374
-0.165
-0.164601
-0.164172
-0.163706
-0.163196
-0.162631
-0.161998
-0.161273
-0.160425
-0.159419
-0.158227
-0.156823
-0.155189
-0.153307
-0.151166
-0.148762
-0.146089
-0.14308
-0.139585
-0.135547
-0.13104
-0.126122
-0.120912
-0.115597
-0.11027
-0.104996
-0.0997741
-0.094608
-0.0895002
-0.0844493
-0.0794475
-0.0744863
-0.0695663
-0.0646954
-0.0598774
-0.0551089
-0.0503865
-0.0457059
-0.0410544
-0.0364158
-0.0317765
-0.0271241
-0.0224828
-0.017969
-0.0137587
-0.00979735
-0.00608618
-0.0025315
0.000938039
0.00436367
0.00776518
0.0111502
0.0145206
0.0178759
0.0212158
0.0245402
0.0278498
0.031146
0.0344303
0.0377045
0.04097
0.0442282
0.0474802
0.0507269
0.0539689
0.0572067
0.0604409
0.0636717
0.0668995
0.0701245
0.0733471
0.0765674
0.0797856
0.0830021
0.0862169
0.0894303
0.0926424
0.0958535
0.0990637
0.102273
0.105482
0.108691
-0.218975
-0.215762
-0.212602
-0.209527
-0.206559
-0.20371
-0.200983
-0.198375
-0.195882
-0.1935
-0.191229
-0.189074
-0.187042
-0.185138
-0.183366
-0.181729
-0.180223
-0.178844
-0.177586
-0.176441
-0.175398
-0.17445
-0.173594
-0.172823
-0.172136
-0.17153
-0.171003
-0.170555
-0.170172
-0.169846
-0.16956
-0.169299
-0.169051
-0.168806
-0.168558
-0.1683
-0.168026
-0.167733
-0.167416
-0.167072
-0.166696
-0.166282
-0.165821
-0.165305
-0.164719
-0.164037
-0.163222
-0.162242
-0.16107
-0.159682
-0.158055
-0.15617
-0.154014
-0.15158
-0.148861
-0.145779
-0.142168
-0.137983
-0.133318
-0.128234
-0.122853
-0.117365
-0.111875
-0.10645
-0.101079
-0.0957658
-0.0905099
-0.0853056
-0.0801447
-0.0750306
-0.0699764
-0.064994
-0.0600886
-0.0552595
-0.0505076
-0.0458302
-0.0412147
-0.0366435
-0.0320972
-0.0275625
-0.0230536
-0.0186361
-0.0144031
-0.0103401
-0.00651623
-0.002861
0.000693282
0.00418906
0.00764787
0.0110791
0.0144862
0.0178702
0.0212317
0.0245716
0.0278917
0.0311944
0.034482
0.0377572
0.041022
0.0442785
0.047528
0.0507717
0.0540105
0.0572451
0.0604761
0.0637037
0.0669284
0.0701505
0.0733703
0.076588
0.0798037
0.0830178
0.0862304
0.0894417
0.0926519
0.0958611
0.0990695
0.102277
0.105485
0.108692
-0.218999
-0.21583
-0.212709
-0.209666
-0.206724
-0.203898
-0.201195
-0.198613
-0.19615
-0.193805
-0.19158
-0.189481
-0.18751
-0.185671
-0.183968
-0.182403
-0.180974
-0.179674
-0.178497
-0.177433
-0.176473
-0.17561
-0.174841
-0.174159
-0.173561
-0.173045
-0.172607
-0.172243
-0.171939
-0.171686
-0.171469
-0.171275
-0.171095
-0.170917
-0.170735
-0.17054
-0.170328
-0.170094
-0.169833
-0.169543
-0.169219
-0.168853
-0.168439
-0.167969
-0.167426
-0.16678
-0.165993
-0.165038
-0.163892
-0.162525
-0.160913
-0.159036
-0.156878
-0.154431
-0.151676
-0.148528
-0.14481
-0.14049
-0.135675
-0.130444
-0.12492
-0.119289
-0.113665
-0.108114
-0.102611
-0.097156
-0.0917455
-0.0863732
-0.0810433
-0.075773
-0.0705829
-0.0654902
-0.0605019
-0.055622
-0.0508516
-0.0461785
-0.0415834
-0.0370441
-0.0325421
-0.0280567
-0.0235765
-0.0191396
-0.0148055
-0.0106264
-0.00675825
-0.00307926
0.000506341
0.00404196
0.0075428
0.0110133
0.0144545
0.0178664
0.0212495
0.0246054
0.0279364
0.0312456
0.0345365
0.0378125
0.0410763
0.0443306
0.0475773
0.0508178
0.0540532
0.0572843
0.0605118
0.0637362
0.0669577
0.0701768
0.0733937
0.0766087
0.0798219
0.0830336
0.0862439
0.0894531
0.0926613
0.0958687
0.0990753
0.102281
0.105487
0.108693
-0.219019
-0.215891
-0.212813
-0.209809
-0.206901
-0.204104
-0.201425
-0.198869
-0.196435
-0.194128
-0.19195
-0.189904
-0.187994
-0.186221
-0.184586
-0.18309
-0.181729
-0.180498
-0.17939
-0.178397
-0.17751
-0.176723
-0.176032
-0.175431
-0.174917
-0.174487
-0.174135
-0.173852
-0.173626
-0.173448
-0.173305
-0.173183
-0.173073
-0.172964
-0.172849
-0.172719
-0.172571
-0.172397
-0.172195
-0.171961
-0.171689
-0.171375
-0.171012
-0.17059
-0.170087
-0.169476
-0.168725
-0.167809
-0.166701
-0.16537
-0.16379
-0.161942
-0.159805
-0.157364
-0.154592
-0.15139
-0.147571
-0.143114
-0.138153
-0.132787
-0.127135
-0.121378
-0.115648
-0.109995
-0.104372
-0.0987732
-0.0931959
-0.0876406
-0.082128
-0.07669
-0.0713582
-0.0661552
-0.0610894
-0.0561708
-0.0513929
-0.0467265
-0.0421428
-0.0376096
-0.0330974
-0.0285837
-0.0240504
-0.0194978
-0.0149404
-0.0105309
-0.00674451
-0.00316104
0.000386881
0.00392767
0.00745367
0.0109553
0.0144267
0.017865
0.0212696
0.0246415
0.0279835
0.0312994
0.0345936
0.0378701
0.0411327
0.0443845
0.0476279
0.0508648
0.0540965
0.057324
0.0605479
0.0637688
0.0669871
0.0702031
0.0734171
0.0766293
0.07984
0.0830493
0.0862574
0.0894644
0.0926707
0.0958762
0.0990811
0.102285
0.10549
0.108694
-0.219051
-0.215987
-0.212968
-0.210018
-0.207158
-0.2044
-0.201757
-0.199233
-0.196835
-0.194568
-0.192435
-0.190439
-0.188582
-0.186866
-0.185288
-0.183847
-0.182539
-0.181359
-0.180298
-0.179349
-0.178507
-0.177769
-0.17713
-0.176587
-0.176136
-0.175773
-0.17549
-0.175278
-0.175124
-0.175018
-0.174947
-0.174897
-0.174858
-0.17482
-0.174775
-0.174715
-0.174635
-0.174529
-0.174392
-0.174221
-0.174012
-0.17376
-0.173457
-0.173092
-0.172643
-0.172089
-0.171402
-0.170553
-0.169515
-0.168256
-0.166744
-0.164958
-0.162877
-0.160481
-0.157717
-0.154468
-0.150542
-0.145935
-0.140831
-0.135342
-0.129573
-0.123704
-0.11788
-0.112128
-0.106381
-0.100624
-0.0948598
-0.0890995
-0.0833816
-0.0777542
-0.0722628
-0.0669393
-0.0617978
-0.0568509
-0.0520748
-0.0474192
-0.042838
-0.0382852
-0.033719
-0.029118
-0.0244641
-0.0197125
-0.014732
-0.00965892
-0.00638756
-0.00311017
0.000324356
0.00384222
0.00738039
0.0109059
0.0144035
0.0178661
0.0212913
0.0246792
0.0280324
0.0313552
0.0346525
0.0379294
0.0411905
0.0444395
0.0476794
0.0509124
0.0541401
0.0573637
0.0605839
0.0638012
0.0670162
0.070229
0.0734401
0.0766496
0.0798577
0.0830646
0.0862705
0.0894755
0.0926798
0.0958834
0.0990866
0.102289
0.105492
0.108694
-0.219114
-0.216171
-0.213261
-0.210407
-0.207629
-0.204939
-0.202352
-0.199878
-0.197525
-0.195302
-0.193211
-0.191257
-0.18944
-0.187761
-0.186219
-0.184808
-0.183522
-0.18235
-0.181287
-0.180331
-0.179482
-0.178738
-0.178098
-0.177561
-0.177126
-0.176787
-0.176537
-0.176365
-0.17626
-0.176208
-0.176195
-0.176208
-0.176236
-0.176268
-0.176296
-0.176312
-0.176309
-0.176282
-0.176226
-0.176138
-0.176014
-0.175848
-0.175633
-0.175359
-0.175007
-0.174558
-0.173986
-0.173259
-0.172349
-0.171224
-0.169842
-0.168178
-0.16621
-0.163904
-0.161176
-0.157898
-0.153858
-0.149088
-0.143842
-0.138226
-0.13233
-0.126347
-0.120427
-0.114565
-0.108672
-0.102736
-0.0967628
-0.0907692
-0.0848115
-0.0789547
-0.0732647
-0.0677912
-0.0625629
-0.0575895
-0.0528249
-0.0481942
-0.0436277
-0.039065
-0.0344613
-0.0297885
-0.0250033
-0.0199843
-0.0143039
-0.00670184
-0.00581865
-0.0030556
0.000270405
0.00377467
0.00732336
0.010867
0.0143856
0.0178695
0.0213138
0.0247174
0.0280819
0.0314118
0.0347125
0.0379898
0.0412492
0.0444951
0.0477312
0.05096
0.0541836
0.057403
0.0606193
0.063833
0.0670446
0.0702543
0.0734624
0.0766692
0.0798748
0.0830794
0.0862831
0.0894861
0.0926885
0.0958904
0.0990919
0.102293
0.105494
0.108695
-0.219232
-0.216518
-0.21382
-0.211151
-0.208526
-0.205961
-0.203471
-0.201073
-0.19878
-0.196605
-0.194553
-0.192629
-0.190834
-0.189167
-0.187625
-0.186198
-0.184875
-0.183644
-0.182501
-0.181451
-0.180499
-0.17965
-0.178909
-0.178283
-0.177773
-0.177376
-0.177085
-0.176889
-0.176777
-0.176733
-0.176744
-0.176794
-0.176872
-0.176965
-0.177064
-0.177161
-0.177249
-0.177321
-0.177375
-0.177406
-0.17741
-0.177381
-0.177313
-0.177196
-0.177015
-0.176753
-0.176384
-0.175876
-0.175195
-0.174302
-0.173146
-0.171697
-0.169923
-0.167771
-0.165128
-0.161845
-0.15768
-0.15274
-0.147361
-0.14161
-0.135564
-0.129444
-0.123399
-0.11739
-0.111329
-0.105195
-0.0989873
-0.0927284
-0.0864852
-0.0803373
-0.0743802
-0.0686966
-0.0633429
-0.0583274
-0.0535823
-0.0490012
-0.0444848
-0.0399574
-0.0353701
-0.030684
-0.0258647
-0.0208807
-0.0156424
-0.0103393
-0.00680303
-0.00335282
0.000170275
0.00372925
0.00729308
0.0108458
0.0143765
0.0178759
0.0213366
0.0247548
0.0281307
0.031468
0.0347723
0.0380501
0.0413077
0.0445505
0.0477826
0.0510071
0.0542263
0.0574415
0.0606538
0.0638638
0.067072
0.0702786
0.0734838
0.0766879
0.0798911
0.0830934
0.086295
0.0894961
0.0926967
0.095897
0.0990969
0.102297
0.105496
0.108696
-0.219452
-0.217164
-0.214856
-0.212521
-0.210171
-0.207821
-0.205494
-0.203216
-0.201009
-0.19889
-0.196869
-0.194954
-0.193148
-0.191451
-0.189855
-0.188344
-0.1869
-0.185507
-0.184165
-0.182887
-0.181685
-0.180573
-0.179572
-0.178696
-0.177957
-0.177358
-0.176893
-0.176556
-0.176335
-0.176214
-0.17618
-0.176215
-0.176304
-0.176435
-0.176596
-0.176779
-0.176976
-0.17718
-0.177388
-0.177594
-0.177793
-0.17798
-0.178149
-0.178291
-0.178397
-0.178446
-0.178415
-0.178265
-0.177955
-0.177437
-0.176645
-0.175538
-0.174062
-0.172149
-0.169654
-0.166411
-0.162123
-0.157016
-0.151523
-0.145658
-0.139469
-0.133188
-0.126975
-0.120773
-0.114516
-0.10816
-0.101692
-0.0951217
-0.0885206
-0.0819958
-0.0756859
-0.0697231
-0.0642048
-0.0591446
-0.0544398
-0.0499279
-0.0454826
-0.041019
-0.0364734
-0.0317819
-0.0269142
-0.0219156
-0.0167961
-0.011771
-0.00739887
-0.00348392
0.000195519
0.00377411
0.00731931
0.0108552
0.0143813
0.0178868
0.0213594
0.0247905
0.0281774
0.0315223
0.0348305
0.0381091
0.0413652
0.0446048
0.0478328
0.0510529
0.0542676
0.0574786
0.0606869
0.0638932
0.0670979
0.0703014
0.0735038
0.0767054
0.0799062
0.0831063
0.086306
0.0895053
0.0927042
0.0959029
0.0991014
0.1023
0.105498
0.108696
-0.21984
-0.218302
-0.216671
-0.21491
-0.21302
-0.211021
-0.20895
-0.20685
-0.204756
-0.202696
-0.20069
-0.198753
-0.196892
-0.195104
-0.19338
-0.191694
-0.190012
-0.188313
-0.186605
-0.18491
-0.18325
-0.18165
-0.180149
-0.178785
-0.177582
-0.176555
-0.175707
-0.175036
-0.174536
-0.174195
-0.173996
-0.173919
-0.173948
-0.174067
-0.174264
-0.174528
-0.174852
-0.175228
-0.175653
-0.176119
-0.176618
-0.177142
-0.177682
-0.178227
-0.17876
-0.17927
-0.179735
-0.180117
-0.180353
-0.180374
-0.180111
-0.179494
-0.178445
-0.176868
-0.174604
-0.171472
-0.167097
-0.161858
-0.156297
-0.150391
-0.144113
-0.137666
-0.131242
-0.124792
-0.118304
-0.111713
-0.10497
-0.0980833
-0.0910874
-0.0841215
-0.0773802
-0.0710751
-0.065389
-0.0603567
-0.0557841
-0.0513576
-0.0469472
-0.0424991
-0.0379347
-0.0331066
-0.027989
-0.0228185
-0.0175513
-0.012251
-0.00729087
-0.00316116
0.000493563
0.00397372
0.00742846
0.0109058
0.0144042
0.0179035
0.0213819
0.0248236
0.0282208
0.0315734
0.0348859
0.0381657
0.0414203
0.0446569
0.0478809
0.0510966
0.0543068
0.0575135
0.0607179
0.0639206
0.067122
0.0703225
0.0735222
0.0767213
0.0799198
0.083118
0.0863158
0.0895134
0.0927108
0.0959081
0.0991053
0.102302
0.1055
0.108697
-0.220485
-0.22019
-0.219671
-0.218837
-0.217674
-0.216213
-0.214516
-0.212657
-0.210697
-0.208687
-0.206663
-0.204653
-0.202671
-0.200715
-0.198767
-0.196784
-0.194707
-0.192518
-0.190233
-0.187882
-0.185493
-0.183107
-0.180792
-0.178617
-0.176629