/*--------------------------------*- C++ -*----------------------------------*\
  =========                 |
  \\      /  F ield         | OpenFOAM: The Open Source CFD Toolbox
   \\    /   O peration     | Website:  https://openfoam.org
    \\  /    A nd           | Version:  6
     \\/     M anipulation  |
\*---------------------------------------------------------------------------*/
FoamFile
{
    version     2.0;
    format      ascii;
    class       surfaceScalarField;
    location    "2900";
    object      phi;
}
// * * * * * * * * * * * * * * * * * * * * * * * * * * * * * * * * * * * * * //

dimensions      [0 3 -1 0 0 0 0];

internalField   nonuniform List<scalar> 
9440
(
1.43972e-10
-1.43972e-10
2.21035e-10
-7.70613e-11
2.79879e-10
-5.88437e-11
2.24867e-10
5.50126e-11
1.22341e-10
1.02526e-10
-7.06051e-11
1.92946e-10
-2.63181e-10
1.92576e-10
-4.50784e-10
1.87603e-10
-7.97075e-10
3.46292e-10
-1.24834e-09
4.51267e-10
-1.44585e-09
1.97512e-10
-1.62479e-09
1.78936e-10
-1.71176e-09
8.69761e-11
-1.76393e-09
5.21674e-11
-1.81817e-09
5.42484e-11
-1.86481e-09
4.66405e-11
-1.95787e-09
9.30621e-11
-2.03748e-09
7.96134e-11
-2.27546e-09
2.37975e-10
-2.50126e-09
2.25812e-10
-2.76202e-09
2.60762e-10
-2.93923e-09
1.77213e-10
-3.06448e-09
1.25245e-10
-3.14391e-09
7.94356e-11
-3.20268e-09
5.87706e-11
-3.29085e-09
8.81713e-11
-3.36969e-09
7.88446e-11
-3.43445e-09
6.47632e-11
-3.44803e-09
1.35767e-11
-3.3923e-09
-5.57318e-11
-3.20271e-09
-1.8958e-10
-2.97885e-09
-2.23869e-10
-2.84115e-09
-1.37699e-10
-2.80008e-09
-4.1071e-11
-2.78538e-09
-1.4696e-11
-2.78693e-09
1.55319e-12
-2.80187e-09
1.49386e-11
-2.85975e-09
5.78774e-11
-2.98401e-09
1.24258e-10
-3.15626e-09
1.72243e-10
-3.30795e-09
1.5169e-10
-3.38558e-09
7.76292e-11
-3.43911e-09
5.35341e-11
-3.47935e-09
4.02346e-11
-3.37684e-09
-1.02506e-10
-3.26378e-09
-1.13062e-10
-3.16051e-09
-1.03268e-10
-2.97395e-09
-1.86556e-10
-2.6338e-09
-3.40157e-10
-2.28989e-09
-3.43905e-10
-1.94287e-09
-3.4702e-10
-1.81399e-09
-1.28884e-10
-1.65534e-09
-1.58647e-10
-1.296e-09
-3.59346e-10
-5.71405e-10
-7.24591e-10
-1.76583e-10
-3.94822e-10
1.3849e-11
-1.90431e-10
2.19939e-10
-2.06089e-10
5.01621e-10
-2.8168e-10
6.97192e-10
-1.9557e-10
9.45422e-10
-2.48228e-10
1.15279e-09
-2.07362e-10
1.25762e-09
-1.04835e-10
1.3627e-09
-1.05078e-10
1.64845e-09
-2.85746e-10
1.59665e-09
5.17988e-11
1.68645e-09
-8.98008e-11
1.81135e-09
-1.24895e-10
1.96676e-09
-1.55404e-10
2.07307e-09
-1.06306e-10
2.06172e-09
1.13499e-11
2.04021e-09
2.15137e-11
1.99427e-09
4.5938e-11
1.87565e-09
1.18627e-10
1.68432e-09
1.9133e-10
1.48571e-09
1.98611e-10
1.23834e-09
2.47369e-10
1.00371e-09
2.34628e-10
7.92289e-10
2.11415e-10
5.28225e-10
2.64064e-10
-2.95268e-15
5.28229e-10
-3.38465e-19
-1.80579e-17
3.35441e-18
-3.69288e-18
2.50231e-18
8.53921e-19
1.32883e-18
1.1738e-18
4.76417e-19
8.50878e-19
-6.13657e-20
5.34972e-19
-3.73689e-19
3.09272e-19
-5.33025e-19
1.56985e-19
-5.88147e-19
5.40853e-20
-5.71128e-19
-1.66005e-20
-5.04158e-19
-6.57655e-20
-4.032e-19
-9.97229e-20
-2.79927e-19
-1.22273e-19
-1.43502e-19
-1.35943e-19
-1.45694e-21
-1.42364e-19
1.4032e-19
-1.42638e-19
2.7737e-19
-1.37828e-19
4.05865e-19
-1.29024e-19
5.22472e-19
-1.17093e-19
6.24698e-19
-1.02663e-19
7.11042e-19
-8.64261e-20
7.80706e-19
-6.92306e-20
8.3331e-19
-5.18005e-20
8.69068e-19
-3.45169e-20
8.8885e-19
-1.75865e-20
8.93724e-19
-1.31496e-21
8.84414e-19
1.38867e-20
8.6125e-19
2.7708e-20
8.24563e-19
4.00732e-20
7.75119e-19
5.10813e-20
7.14276e-19
6.08667e-20
6.43825e-19
6.95226e-20
5.65647e-19
7.71016e-20
4.81345e-19
8.36313e-20
3.92042e-19
8.91053e-20
2.98434e-19
9.34617e-20
2.01118e-19
9.6583e-20
1.01039e-19
9.83072e-20
9.82892e-20
1.05448e-10
-2.49419e-10
1.95431e-10
-1.67043e-10
2.35592e-10
-9.90041e-11
1.58235e-10
1.3237e-10
4.73524e-11
2.13409e-10
-1.13382e-10
3.5368e-10
-3.5219e-10
4.31384e-10
-6.75585e-10
5.10999e-10
-9.34508e-10
6.05215e-10
-1.18061e-09
6.97368e-10
-1.44683e-09
4.6374e-10
-1.53562e-09
2.67723e-10
-1.59534e-09
1.46702e-10
-1.71653e-09
1.73358e-10
-1.77738e-09
1.15106e-10
-1.82539e-09
9.46524e-11
-1.95855e-09
2.2623e-10
-2.05582e-09
1.76888e-10
-2.18571e-09
3.67869e-10
-2.43932e-09
4.79419e-10
-2.59879e-09
4.20242e-10
-2.81489e-09
3.93312e-10
-2.93944e-09
2.49799e-10
-3.07189e-09
2.11893e-10
-3.18248e-09
1.69364e-10
-3.30108e-09
2.06775e-10
-3.41075e-09
1.88517e-10
-3.48633e-09
1.40342e-10
-3.51431e-09
4.15591e-11
-3.48166e-09
-8.83852e-11
-3.40811e-09
-2.63125e-10
-3.34041e-09
-2.91574e-10
-3.25844e-09
-2.19667e-10
-3.19054e-09
-1.08971e-10
-3.14187e-09
-6.33729e-11
-3.14561e-09
5.2978e-12
-3.18118e-09
5.0507e-11
-3.2536e-09
1.30295e-10
-3.37627e-09
2.46924e-10
-3.50802e-09
3.03989e-10
-3.62851e-09
2.72179e-10
-3.65776e-09
1.06883e-10
-3.67841e-09
7.41836e-11
-3.68461e-09
4.64284e-11
-3.56466e-09
-2.22452e-10
-3.44228e-09
-2.35441e-10
-3.36796e-09
-1.77589e-10
-3.13756e-09
-4.16953e-10
-2.90967e-09
-5.68045e-10
-2.58267e-09
-6.7091e-10
-2.34707e-09
-5.82623e-10
-2.11064e-09
-3.65308e-10
-1.74812e-09
-5.21167e-10
-1.4382e-09
-6.69271e-10
-8.25262e-10
-1.33753e-09
-6.35433e-10
-5.84651e-10
-4.28248e-10
-3.97615e-10
1.18774e-11
-6.46212e-10
2.7006e-10
-5.39859e-10
4.28245e-10
-3.53752e-10
6.14865e-10
-4.34845e-10
8.70804e-10
-4.63298e-10
1.08584e-09
-3.19871e-10
1.20233e-09
-2.21556e-10
1.52241e-09
-6.0583e-10
1.52185e-09
5.23685e-11
1.60492e-09
-1.72864e-10
1.61396e-09
-1.33935e-10
1.81169e-09
-3.5313e-10
1.87606e-09
-1.70669e-10
1.94272e-09
-5.5309e-11
1.93733e-09
2.69105e-11
1.92077e-09
6.24907e-11
1.77559e-09
2.63809e-10
1.6437e-09
3.23224e-10
1.48293e-09
3.59373e-10
1.28901e-09
4.41289e-10
1.07949e-09
4.44142e-10
9.03177e-10
3.87728e-10
8.56622e-10
3.10615e-10
4.21266e-11
1.34272e-09
2.45666e-17
4.21275e-11
7.68249e-18
1.31959e-17
2.82195e-18
5.71466e-18
1.00637e-18
2.98695e-18
1.60536e-19
1.69246e-18
-2.87066e-19
9.7821e-19
-5.25976e-19
5.4514e-19
-6.35925e-19
2.65679e-19
-6.58833e-19
7.71212e-20
-6.20293e-19
-5.40469e-20
-5.38116e-19
-1.46546e-19
-4.25751e-19
-2.11199e-19
-2.93597e-19
-2.54365e-19
-1.49923e-19
-2.80097e-19
-1.73047e-21
-2.91307e-19
1.4513e-19
-2.90387e-19
2.86173e-19
-2.79462e-19
4.17796e-19
-2.60484e-19
5.36902e-19
-2.35255e-19
6.40935e-19
-2.05379e-19
7.28238e-19
-1.72264e-19
7.98136e-19
-1.37161e-19
8.50594e-19
-1.01241e-19
8.85999e-19
-6.56353e-20
9.05122e-19
-3.13949e-20
9.08926e-19
6.57401e-22
8.98235e-19
3.00583e-20
8.73615e-19
5.67308e-20
8.35571e-19
8.08636e-20
7.84905e-19
1.02711e-19
7.22932e-19
1.2242e-19
6.51404e-19
1.39966e-19
5.72176e-19
1.55214e-19
4.86819e-19
1.68035e-19
3.96398e-19
1.78397e-19
3.01555e-19
1.86369e-19
2.02842e-19
1.92086e-19
1.01021e-19
1.95707e-19
1.97585e-19
6.24183e-11
-3.11836e-10
6.94139e-11
-1.74037e-10
7.6644e-11
-1.06234e-10
8.78863e-11
1.21127e-10
-4.58988e-11
3.47194e-10
-2.38779e-10
5.46561e-10
-5.41643e-10
7.3425e-10
-9.27407e-10
8.96765e-10
-1.17096e-09
8.48774e-10
-1.22935e-09
7.55753e-10
-1.26922e-09
5.0362e-10
-1.34851e-09
3.47008e-10
-1.43242e-09
2.3062e-10
-1.53446e-09
2.75401e-10
-1.65319e-09
2.33835e-10
-1.7843e-09
2.25761e-10
-1.84408e-09
2.86021e-10
-1.95682e-09
2.89629e-10
-2.07315e-09
4.84204e-10
-2.22998e-09
6.36243e-10
-2.41997e-09
6.10237e-10
-2.64406e-09
6.17408e-10
-2.78264e-09
3.88387e-10
-2.92658e-09
3.55829e-10
-3.05056e-09
2.93343e-10
-3.1641e-09
3.20319e-10
-3.30136e-09
3.25778e-10
-3.39947e-09
2.38452e-10
-3.47645e-09
1.18543e-10
-3.52182e-09
-4.30171e-11
-3.57987e-09
-2.05067e-10
-3.63525e-09
-2.36198e-10
-3.64663e-09
-2.08288e-10
-3.63652e-09
-1.19076e-10
-3.65329e-09
-4.66066e-11
-3.68745e-09
3.94558e-11
-3.72375e-09
8.68062e-11
-3.7534e-09
1.5995e-10
-3.75813e-09
2.51647e-10
-3.78211e-09
3.27965e-10
-3.80507e-09
2.95142e-10
-3.77925e-09
8.10574e-11
-3.74839e-09
4.33214e-11
-3.69284e-09
-9.12822e-12
-3.60436e-09
-3.10926e-10
-3.38954e-09
-4.50268e-10
-3.28842e-09
-2.78707e-10
-3.15922e-09
-5.46155e-10
-3.00139e-09
-7.25867e-10
-2.66006e-09
-1.01224e-09
-2.46407e-09
-7.78612e-10
-2.16669e-09
-6.6269e-10
-1.8835e-09
-8.04353e-10
-1.64964e-09
-9.03133e-10
-1.50308e-09
-1.48409e-09
-1.23922e-09
-8.48502e-10
-7.53522e-10
-8.83315e-10
-4.67538e-10
-9.32194e-10
-2.64059e-10
-7.43334e-10
9.64146e-11
-7.14222e-10
4.1602e-10
-7.54447e-10
6.52777e-10
-7.00051e-10
8.7483e-10
-5.4192e-10
1.05887e-09
-4.05594e-10
1.12229e-09
-6.69241e-10
1.36311e-09
-1.88448e-10
1.44976e-09
-2.59518e-10
1.50575e-09
-1.89914e-10
1.52309e-09
-3.70469e-10
1.55487e-09
-2.02446e-10
1.57058e-09
-7.10151e-11
1.54163e-09
5.58656e-11
1.65316e-09
-4.90429e-11
1.57756e-09
3.39413e-10
1.50561e-09
3.95166e-10
1.38805e-09
4.76931e-10
1.22479e-09
6.04548e-10
1.02676e-09
6.42174e-10
6.45703e-10
7.6878e-10
5.78781e-11
8.98443e-10
-2.6303e-10
1.66363e-09
-1.05892e-15
-2.209e-10
5.05711e-19
7.82492e-18
9.54135e-20
6.12378e-18
-2.87079e-19
3.36739e-18
-5.53592e-19
1.95601e-18
-7.20136e-19
1.14188e-18
-8.05437e-19
6.2832e-19
-8.24482e-19
2.83371e-19
-7.90001e-19
4.1733e-20
-7.12793e-19
-1.31703e-19
-6.02769e-19
-2.56751e-19
-4.68916e-19
-3.44991e-19
-3.19329e-19
-4.03576e-19
-1.61133e-19
-4.3744e-19
-8.10183e-22
-4.50311e-19
1.56055e-19
-4.45474e-19
3.05151e-19
-4.2613e-19
4.43025e-19
-3.95343e-19
5.66777e-19
-3.55791e-19
6.74051e-19
-3.09707e-19
7.6334e-19
-2.5912e-19
8.34057e-19
-2.05976e-19
8.86199e-19
-1.52015e-19
9.20239e-19
-9.86826e-20
9.37174e-19
-4.71854e-20
9.38327e-19
1.45041e-21
9.24908e-19
4.64562e-20
8.97748e-19
8.7446e-20
8.57419e-19
1.24415e-19
8.04614e-19
1.57566e-19
7.40478e-19
1.87095e-19
6.66652e-19
2.13078e-19
5.84998e-19
2.35501e-19
4.97181e-19
2.54355e-19
4.04371e-19
2.69699e-19
3.07271e-19
2.81669e-19
2.06464e-19
2.90446e-19
1.029e-19
2.96241e-19
2.99273e-19
1.90789e-11
-3.30915e-10
4.83397e-11
-2.03298e-10
-1.23178e-11
-4.55762e-11
-7.34295e-11
1.82239e-10
-1.6493e-10
4.38695e-10
-3.46385e-10
7.28018e-10
-5.73785e-10
9.61651e-10
-8.05852e-10
1.12883e-09
-1.02536e-09
1.06829e-09
-1.14413e-09
8.74522e-10
-1.20517e-09
5.64668e-10
-1.21106e-09
3.52902e-10
-1.33256e-09
3.52115e-10
-1.37428e-09
3.1713e-10
-1.37422e-09
2.33778e-10
-1.56905e-09
4.20584e-10
-1.68537e-09
4.02345e-10
-1.81595e-09
4.20212e-10
-1.91065e-09
5.78911e-10
-2.02108e-09
7.46678e-10
-2.18655e-09
7.75705e-10
-2.32951e-09
7.60371e-10
-2.55804e-09
6.16917e-10
-2.70318e-09
5.00973e-10
-2.86647e-09
4.56632e-10
-3.00172e-09
4.55568e-10
-3.18368e-09
5.07739e-10
-3.3497e-09
4.04477e-10
-3.48655e-09
2.55389e-10
-3.58785e-09
5.82881e-11
-3.6813e-09
-1.11623e-10
-3.73775e-09
-1.79742e-10
-3.78705e-09
-1.58987e-10
-3.81095e-09
-9.51748e-11
-3.83966e-09
-1.7902e-11
-3.83293e-09
3.27339e-11
-3.85813e-09
1.11999e-10
-3.85897e-09
1.60792e-10
-3.83432e-09
2.26997e-10
-3.84193e-09
3.3557e-10
-3.83767e-09
2.90877e-10
-3.79405e-09
3.74418e-11
-3.66203e-09
-8.8709e-11
-3.52943e-09
-1.41732e-10
-3.48546e-09
-3.54895e-10
-3.05484e-09
-8.80894e-10
-2.97212e-09
-3.61427e-10
-2.85062e-09
-6.67656e-10
-2.76347e-09
-8.13009e-10
-2.76586e-09
-1.00985e-09
-2.55068e-09
-9.93795e-10
-2.26648e-09
-9.46889e-10
-1.99445e-09
-1.07638e-09
-1.7211e-09
-1.17648e-09
-1.75602e-09
-1.44917e-09
-1.40459e-09
-1.19993e-09
-1.10614e-09
-1.18177e-09
-8.81411e-10
-1.15692e-09
-5.24679e-10
-1.10006e-09
-1.49733e-10
-1.08916e-09
6.30903e-11
-9.67266e-10
3.05716e-10
-9.42672e-10
5.83254e-10
-8.19453e-10
8.27234e-10
-6.49571e-10
8.11009e-10
-6.53013e-10
1.04518e-09
-4.22616e-10
1.1518e-09
-3.66136e-10
1.34875e-09
-3.86857e-10
1.2715e-09
-2.93216e-10
1.26761e-09
-1.98557e-10
1.25371e-09
-5.71132e-11
1.30529e-09
4.28975e-12
1.30081e-09
-4.45673e-11
1.31072e-09
3.29507e-10
1.27659e-09
4.29293e-10
1.26135e-09
4.92169e-10
1.10795e-09
7.57942e-10
8.60388e-10
8.89734e-10
6.12374e-10
1.01679e-09
3.34258e-10
1.17656e-09
2.26657e-10
1.77123e-09
-5.9225e-16
5.75934e-12
-5.67676e-18
-1.73351e-18
-2.65962e-18
3.1057e-18
-1.69731e-18
2.4035e-18
-1.36746e-18
1.62419e-18
-1.2337e-18
1.00643e-18
-1.15039e-18
5.43964e-19
-1.06612e-18
1.98249e-19
-9.63437e-19
-6.21186e-20
-8.37841e-19
-2.58247e-19
-6.91008e-19
-4.03885e-19
-5.27501e-19
-5.07816e-19
-3.53193e-19
-5.76089e-19
-1.74004e-19
-6.13569e-19
4.02774e-21
-6.24432e-19
1.75399e-19
-6.12625e-19
3.35937e-19
-5.82121e-19
4.82577e-19
-5.36983e-19
6.12861e-19
-4.80984e-19
7.24638e-19
-4.17225e-19
8.16485e-19
-3.48245e-19
8.88018e-19
-2.76302e-19
9.39531e-19
-2.03454e-19
9.71736e-19
-1.31482e-19
9.8581e-19
-6.18783e-20
9.83333e-19
4.09383e-21
9.65897e-19
6.53895e-20
9.34716e-19
1.21287e-19
8.9057e-19
1.71484e-19
8.34143e-19
2.16057e-19
7.66461e-19
2.55306e-19
6.89075e-19
2.89561e-19
6.03851e-19
3.19076e-19
5.12525e-19
3.4401e-19
4.16341e-19
3.64468e-19
3.16048e-19
3.80559e-19
2.12258e-19
3.92427e-19
1.05932e-19
4.0027e-19
4.04292e-19
-5.34418e-11
-2.77473e-10
-7.58208e-11
-1.80919e-10
-8.22157e-11
-3.91812e-11
-1.45821e-10
2.45845e-10
-2.45719e-10
5.38594e-10
-3.56753e-10
8.39054e-10
-5.14651e-10
1.11955e-09
-7.09146e-10
1.32333e-09
-9.09784e-10
1.26893e-09
-1.03364e-09
9.98385e-10
-1.13407e-09
6.65099e-10
-1.14932e-09
3.68151e-10
-1.12297e-09
3.2577e-10
-1.18376e-09
3.77915e-10
-1.32675e-09
3.76777e-10
-1.36427e-09
4.58099e-10
-1.50588e-09
5.43966e-10
-1.64804e-09
5.62365e-10
-1.72253e-09
6.53409e-10
-1.81885e-09
8.43001e-10
-1.96649e-09
9.23344e-10
-2.09445e-09
8.88336e-10
-2.30786e-09
8.30328e-10
-2.49425e-09
6.87358e-10
-2.65763e-09
6.20017e-10
-2.84276e-09
6.40696e-10
-3.03512e-09
7.00103e-10
-3.25607e-09
6.25426e-10
-3.43742e-09
4.36746e-10
-3.58381e-09
2.04671e-10
-3.71023e-09
1.48048e-11
-3.77233e-09
-1.17645e-10
-3.80197e-09
-1.29342e-10
-3.79488e-09
-1.02265e-10
-3.76148e-09
-5.12946e-11
-3.72517e-09
-3.57878e-12
-3.72483e-09
1.11654e-10
-3.69165e-09
1.27612e-10
-3.64639e-09
1.81743e-10
-3.55809e-09
2.47263e-10
-3.40797e-09
1.40763e-10
-3.29612e-09
-7.44112e-11
-3.15811e-09
-2.26727e-10
-2.97513e-09
-3.24714e-10
-2.77591e-09
-5.54112e-10
-2.80077e-09
-8.56042e-10
-2.64216e-09
-5.20034e-10
-2.51208e-09
-7.97741e-10
-2.43097e-09
-8.94112e-10
-2.4159e-09
-1.02492e-09
-2.4173e-09
-9.92397e-10
-2.25959e-09
-1.1046e-09
-2.01366e-09
-1.32231e-09
-1.84806e-09
-1.34208e-09
-1.83271e-09
-1.46452e-09
-1.45976e-09
-1.57288e-09
-1.06505e-09
-1.57647e-09
-7.94505e-10
-1.42746e-09
-5.47078e-10
-1.34749e-09
-3.13151e-10
-1.32309e-09
-9.07984e-11
-1.18962e-09
8.55631e-11
-1.11903e-09
2.87756e-10
-1.02164e-09
5.05338e-10
-8.6715e-10
6.41287e-10
-7.88959e-10
8.0225e-10
-5.83577e-10
9.34064e-10
-4.97948e-10
9.35093e-10
-3.87884e-10
9.618e-10
-3.19922e-10
1.00163e-09
-2.38392e-10
1.03708e-09
-9.25575e-11
1.0757e-09
-3.43278e-11
9.71248e-10
5.98806e-11
1.07464e-09
2.26115e-10
1.09929e-09
4.04642e-10
9.98063e-10
5.93395e-10
8.60372e-10
8.95631e-10
7.61534e-10
9.8857e-10
5.99538e-10
1.17878e-09
4.38991e-10
1.33711e-09
3.78705e-10
1.83152e-09
-3.30634e-16
3.84465e-10
-4.82276e-18
-1.61522e-18
-3.36059e-18
1.64303e-18
-2.47546e-18
1.51804e-18
-1.98481e-18
1.13339e-18
-1.69616e-18
7.17926e-19
-1.4961e-18
3.44815e-19
-1.32649e-18
2.9594e-20
-1.15957e-18
-2.28725e-19
-9.83479e-19
-4.34291e-19
-7.94938e-19
-5.91722e-19
-5.95775e-19
-7.05036e-19
-3.90673e-19
-7.77987e-19
-1.84868e-19
-8.147e-19
1.58355e-20
-8.19532e-19
2.05903e-19
-7.97082e-19
3.81075e-19
-7.52066e-19
5.38576e-19
-6.89387e-19
6.7662e-19
-6.13811e-19
7.93617e-19
-5.29423e-19
8.88428e-19
-4.39522e-19
9.60866e-19
-3.46825e-19
1.0115e-18
-2.53656e-19
1.04134e-18
-1.62005e-19
1.05178e-18
-7.35526e-20
1.04463e-18
1.02426e-20
1.0218e-18
8.81116e-20
9.84913e-19
1.59088e-19
9.35143e-19
2.22668e-19
8.73391e-19
2.78863e-19
8.00716e-19
3.28065e-19
7.1859e-19
3.70806e-19
6.28785e-19
4.07548e-19
5.32983e-19
4.38584e-19
4.32431e-19
4.64067e-19
3.27916e-19
4.84109e-19
2.20102e-19
4.98862e-19
1.09954e-19
5.08554e-19
5.13435e-19
1.41527e-11
-2.91625e-10
-1.4137e-11
-1.52629e-10
-6.12892e-11
7.97133e-12
-1.7186e-10
3.56417e-10
-3.3449e-10
7.01226e-10
-4.665e-10
9.71066e-10
-6.46605e-10
1.29966e-09
-7.80514e-10
1.45724e-09
-8.70373e-10
1.35879e-09
-9.17011e-10
1.04503e-09
-9.84896e-10
7.32986e-10
-1.11491e-09
4.98163e-10
-1.12951e-09
3.40378e-10
-1.10632e-09
3.54727e-10
-1.2328e-09
5.03256e-10
-1.27561e-09
5.00912e-10
-1.31878e-09
5.87141e-10
-1.44962e-09
6.93211e-10
-1.59389e-09
7.97677e-10
-1.64965e-09
8.98758e-10
-1.72319e-09
9.96887e-10
-1.84654e-09
1.01169e-09
-2.00214e-09
9.85935e-10
-2.22152e-09
9.06738e-10
-2.43491e-09
8.33407e-10
-2.60653e-09
8.12312e-10
-2.79276e-09
8.86342e-10
-3.0031e-09
8.35765e-10
-3.19601e-09
6.2966e-10
-3.31472e-09
3.23376e-10
-3.40147e-09
1.01557e-10
-3.45485e-09
-6.42567e-11
-3.47423e-09
-1.09961e-10
-3.47986e-09
-9.66343e-11
-3.45449e-09
-7.66699e-11
-3.41707e-09
-4.09915e-11
-3.34106e-09
3.56453e-11
-3.26292e-09
4.94765e-11
-3.15912e-09
7.79352e-11
-3.00617e-09
9.43124e-11
-2.80715e-09
-5.82513e-11
-2.6501e-09
-2.31467e-10
-2.52593e-09
-3.50894e-10
-2.44125e-09
-4.09399e-10
-2.39492e-09
-6.0044e-10
-2.51712e-09
-7.3385e-10
-2.25949e-09
-7.77662e-10
-2.13445e-09
-9.22778e-10
-2.05454e-09
-9.74031e-10
-2.02571e-09
-1.05375e-09
-1.98451e-09
-1.03359e-09
-1.99226e-09
-1.09685e-09
-1.90521e-09
-1.40936e-09
-1.88554e-09
-1.36175e-09
-1.68877e-09
-1.66129e-09
-1.48367e-09
-1.77797e-09
-1.27637e-09
-1.78378e-09
-1.00112e-09
-1.7027e-09
-6.18829e-10
-1.72978e-09
-2.85816e-10
-1.6561e-09
-9.62213e-11
-1.37921e-09
2.35637e-11
-1.23881e-09
1.10183e-10
-1.10826e-09
2.54571e-10
-1.01154e-09
3.7709e-10
-9.11477e-10
4.98284e-10
-7.04771e-10
6.32851e-10
-6.32515e-10
7.03265e-10
-4.58299e-10
7.45853e-10
-3.62511e-10
7.65071e-10
-2.57611e-10
8.06745e-10
-1.34233e-10
8.14818e-10
-4.24013e-11
8.35957e-10
3.87417e-11
8.19883e-10
2.42189e-10
8.09436e-10
4.15089e-10
7.14296e-10
6.88536e-10
7.69495e-10
8.40432e-10
6.61495e-10
1.09657e-09
5.37301e-10
1.30298e-09
4.59542e-10
1.41487e-09
4.28474e-10
1.86259e-09
-3.26959e-16
8.1294e-10
-4.20584e-18
-7.86588e-19
-3.48438e-18
9.21725e-19
-2.85898e-18
8.94029e-19
-2.39975e-18
6.76307e-19
-2.06927e-18
3.89807e-19
-1.81132e-18
9.04157e-20
-1.58481e-18
-1.93413e-19
-1.36513e-18
-4.45591e-19
-1.14091e-18
-6.56746e-19
-9.08252e-19
-8.22397e-19
-6.68726e-19
-9.41445e-19
-4.27386e-19
-1.01524e-18
-1.897e-19
-1.04717e-18
3.82856e-20
-1.04178e-18
2.50919e-19
-1.00441e-18
4.43754e-19
-9.40585e-19
6.14152e-19
-8.5609e-19
7.61008e-19
-7.56718e-19
8.83518e-19
-6.4767e-19
9.81125e-19
-5.33228e-19
1.05403e-18
-4.16797e-19
1.10315e-18
-3.011e-19
1.12979e-18
-1.88327e-19
1.13558e-18
-8.02402e-20
1.1225e-18
2.1693e-20
1.09277e-18
1.16208e-19
1.04849e-18
2.02303e-19
9.91338e-19
2.79406e-19
9.22593e-19
3.47472e-19
8.43457e-19
4.06901e-19
7.55332e-19
4.58314e-19
6.59821e-19
5.02296e-19
5.58467e-19
5.39265e-19
4.52473e-19
5.69481e-19
3.42669e-19
5.93141e-19
2.29794e-19
6.10488e-19
1.14835e-19
6.21838e-19
6.27503e-19
4.48415e-13
-2.92074e-10
-1.12497e-11
-1.40931e-10
-7.84667e-11
7.51887e-11
-1.92628e-10
4.7058e-10
-3.53491e-10
8.6209e-10
-5.62523e-10
1.1801e-09
-7.47276e-10
1.48441e-09
-8.28262e-10
1.53823e-09
-8.64688e-10
1.39522e-09
-8.98378e-10
1.07872e-09
-9.42336e-10
7.76946e-10
-1.03713e-09
5.92962e-10
-1.12353e-09
4.26779e-10
-1.11209e-09
3.43289e-10
-1.18431e-09
5.7548e-10
-1.24622e-09
5.6282e-10
-1.27687e-09
6.17798e-10
-1.35992e-09
7.76259e-10
-1.43783e-09
8.75591e-10
-1.49783e-09
9.5876e-10
-1.57236e-09
1.07142e-09
-1.65607e-09
1.09539e-09
-1.78026e-09
1.11012e-09
-1.9276e-09
1.05408e-09
-2.11353e-09
1.01934e-09
-2.27279e-09
9.71575e-10
-2.40973e-09
1.02328e-09
-2.57736e-09
1.00339e-09
-2.77688e-09
8.29184e-10
-2.92741e-09
4.73907e-10
-2.99284e-09
1.66995e-10
-3.01311e-09
-4.39905e-11
-3.00934e-09
-1.13728e-10
-2.98146e-09
-1.24517e-10
-2.91093e-09
-1.47194e-10
-2.82228e-09
-1.29637e-10
-2.71633e-09
-7.03113e-11
-2.64893e-09
-1.79164e-11
-2.54089e-09
-3.01046e-11
-2.38212e-09
-6.44607e-11
-2.25499e-09
-1.8538e-10
-2.1663e-09
-3.20157e-10
-2.10974e-09
-4.07453e-10
-2.06191e-09
-4.57224e-10
-2.01364e-09
-6.48714e-10
-1.99511e-09
-7.52381e-10
-1.95007e-09
-8.22709e-10
-1.84347e-09
-1.02938e-09
-1.76922e-09
-1.04828e-09
-1.72691e-09
-1.09606e-09
-1.66828e-09
-1.09223e-09
-1.60996e-09
-1.15517e-09
-1.63134e-09
-1.38798e-09
-1.62574e-09
-1.36734e-09
-1.5391e-09
-1.74793e-09
-1.47611e-09
-1.84097e-09
-1.25382e-09
-2.00606e-09
-8.7345e-10
-2.08307e-09
-5.13433e-10
-2.0898e-09
-1.53716e-10
-2.01582e-09
-8.7571e-11
-1.44535e-09
-6.35782e-11
-1.2628e-09
3.44726e-11
-1.20631e-09
1.35215e-10
-1.11228e-09
1.89281e-10
-9.65543e-10
3.33357e-10
-8.48847e-10
3.70209e-10
-6.69369e-10
4.38958e-10
-5.27049e-10
5.07001e-10
-4.30556e-10
5.9305e-10
-3.43662e-10
6.30323e-10
-1.71506e-10
6.53209e-10
-6.52877e-11
6.54612e-10
3.73394e-11
6.42092e-10
2.54711e-10
6.60985e-10
3.96199e-10
6.80602e-10
6.68922e-10
6.92447e-10
8.28591e-10
6.82298e-10
1.10672e-09
6.12324e-10
1.37295e-09
5.54752e-10
1.47244e-09
4.75395e-10
1.94195e-09
-2.81291e-16
1.28834e-09
-3.80273e-18
7.97038e-19
-3.5109e-18
6.30957e-19
-3.0756e-18
4.61514e-19
-2.68566e-18
2.89989e-19
-2.36866e-18
7.58435e-20
-2.09515e-18
-1.781e-19
-1.83698e-18
-4.46464e-19
-1.57629e-18
-7.01599e-19
-1.30656e-18
-9.23048e-19
-1.0273e-18
-1.09855e-18
-7.42525e-19
-1.22252e-18
-4.5931e-19
-1.29448e-18
-1.84315e-19
-1.31756e-18
7.56587e-20
-1.29706e-18
3.14743e-19
-1.23946e-18
5.28249e-19
-1.15147e-18
7.13525e-19
-1.03996e-18
8.70056e-19
-9.11769e-19
9.9796e-19
-7.73292e-19
1.09756e-18
-6.29948e-19
1.16973e-18
-4.86053e-19
1.21593e-18
-3.44896e-19
1.23788e-18
-2.08919e-19
1.23751e-18
-7.99007e-20
1.21701e-18
4.08303e-20
1.17887e-18
1.52215e-19
1.1256e-18
2.53431e-19
1.0594e-18
3.43991e-19
9.82022e-19
4.23863e-19
8.9487e-19
4.93442e-19
7.99314e-19
5.53375e-19
6.96791e-19
6.04338e-19
5.88683e-19
6.46886e-19
4.76133e-19
6.81441e-19
3.60016e-19
7.08368e-19
2.41144e-19
7.28061e-19
1.20499e-19
7.40945e-19
7.47381e-19
5.65963e-11
-3.4867e-10
8.81667e-11
-1.72502e-10
4.04715e-13
1.62951e-10
-2.31201e-10
7.02186e-10
-4.59194e-10
1.09008e-09
-6.14496e-10
1.3354e-09
-7.76368e-10
1.64629e-09
-8.50568e-10
1.61243e-09
-9.15186e-10
1.45984e-09
-9.23875e-10
1.08741e-09
-9.64937e-10
8.18009e-10
-1.02834e-09
6.56364e-10
-1.12581e-09
5.24254e-10
-1.13065e-09
3.4813e-10
-1.15652e-09
6.01356e-10
-1.24208e-09
6.4839e-10
-1.27158e-09
6.47301e-10
-1.34337e-09
8.48051e-10
-1.40554e-09
9.37763e-10
-1.44684e-09
1.00006e-09
-1.46535e-09
1.08994e-09
-1.49105e-09
1.12109e-09
-1.54953e-09
1.16861e-09
-1.67099e-09
1.17554e-09
-1.83675e-09
1.1851e-09
-2.00089e-09
1.13572e-09
-2.08729e-09
1.10968e-09
-2.1539e-09
1.07001e-09
-2.24602e-09
9.21304e-10
-2.36647e-09
5.94362e-10
-2.51152e-09
3.12048e-10
-2.57633e-09
2.08224e-11
-2.58392e-09
-1.06135e-10
-2.56132e-09
-1.47122e-10
-2.49746e-09
-2.11047e-10
-2.40578e-09
-2.2132e-10
-2.30036e-09
-1.75725e-10
-2.21401e-09
-1.04273e-10
-2.11021e-09
-1.33905e-10
-1.99011e-09
-1.84553e-10
-1.9027e-09
-2.72789e-10
-1.83935e-09
-3.83507e-10
-1.80272e-09
-4.44079e-10
-1.78307e-09
-4.76877e-10
-1.81432e-09
-6.17467e-10
-1.79769e-09
-7.69012e-10
-1.69097e-09
-9.29426e-10
-1.6116e-09
-1.10875e-09
-1.55499e-09
-1.10489e-09
-1.51987e-09
-1.13117e-09
-1.44787e-09
-1.16423e-09
-1.4008e-09
-1.20224e-09
-1.47748e-09
-1.31129e-09
-1.32998e-09
-1.51484e-09
-1.28321e-09
-1.7947e-09
-1.22576e-09
-1.89842e-09
-1.10723e-09
-2.12459e-09
-8.39961e-10
-2.35034e-09
-5.24025e-10
-2.40573e-09
-1.45788e-10
-2.39405e-09
-6.13966e-11
-1.52975e-09
-8.10058e-11
-1.2432e-09
-1.04182e-10
-1.18313e-09
-4.65597e-11
-1.1699e-09
-9.16389e-12
-1.00294e-09
6.20444e-11
-9.20057e-10
1.70655e-10
-7.77981e-10
2.75613e-10
-6.32009e-10
3.31731e-10
-4.86676e-10
4.16612e-10
-4.28544e-10
4.85785e-10
-2.40678e-10
5.19115e-10
-9.86165e-11
5.21103e-10
3.53545e-11
5.67277e-10
2.08541e-10
5.70276e-10
3.93205e-10
6.0507e-10
6.34132e-10
5.94644e-10
8.39022e-10
5.93644e-10
1.10772e-09
5.21415e-10
1.44518e-09
3.75794e-10
1.61806e-09
3.25302e-10
1.99244e-09
1.78359e-16
1.61364e-09
-3.9802e-18
3.25342e-18
-3.67915e-18
3.31511e-19
-3.24604e-18
3.08048e-20
-2.8992e-18
-5.42152e-20
-2.62261e-18
-2.00489e-19
-2.36351e-18
-4.34213e-19
-2.09212e-18
-7.13418e-19
-1.79774e-18
-9.91555e-19
-1.48206e-18
-1.23558e-18
-1.15127e-18
-1.42665e-18
-8.14483e-19
-1.55635e-18
-4.82395e-19
-1.62381e-18
-1.63814e-19
-1.63305e-18
1.33265e-19
-1.59107e-18
4.02725e-19
-1.50627e-18
6.39767e-19
-1.38721e-18
8.41712e-19
-1.24225e-18
1.00853e-18
-1.07947e-18
1.1413e-18
-9.06363e-19
1.24145e-18
-7.29461e-19
1.31089e-18
-5.5402e-19
1.3519e-18
-3.84002e-19
1.3669e-18
-2.22186e-19
1.35824e-18
-7.0392e-20
1.3284e-18
7.023e-20
1.28008e-18
1.98934e-19
1.21616e-18
3.15234e-19
1.13928e-18
4.18913e-19
1.0516e-18
5.10101e-19
9.54803e-19
5.89282e-19
8.50277e-19
6.57181e-19
7.39339e-19
7.14588e-19
6.23238e-19
7.62223e-19
5.0306e-19
8.00707e-19
3.79708e-19
8.306e-19
2.54028e-19
8.52454e-19
1.26935e-19
8.6679e-19
8.73996e-19
-2.48021e-11
-3.23868e-10
-3.19061e-11
-1.65397e-10
-1.72207e-10
3.03253e-10
-3.40015e-10
8.69994e-10
-5.1995e-10
1.27002e-09
-7.12274e-10
1.52773e-09
-8.04535e-10
1.73855e-09
-8.90178e-10
1.69807e-09
-9.1134e-10
1.481e-09
-9.36786e-10
1.11285e-09
-9.7834e-10
8.59565e-10
-1.01228e-09
6.90306e-10
-1.10477e-09
6.16746e-10
-1.20313e-09
4.46496e-10
-1.17315e-09
5.7138e-10
-1.22627e-09
7.01518e-10
-1.30524e-09
7.26269e-10
-1.32982e-09
8.72635e-10
-1.41187e-09
1.01982e-09
-1.45239e-09
1.04057e-09
-1.44902e-09
1.08657e-09
-1.43671e-09
1.10878e-09
-1.41905e-09
1.15096e-09
-1.43948e-09
1.19597e-09
-1.50573e-09
1.25135e-09
-1.63711e-09
1.2671e-09
-1.73792e-09
1.2105e-09
-1.80844e-09
1.14052e-09
-1.82795e-09
9.40816e-10
-1.9084e-09
6.74807e-10
-1.99824e-09
4.01894e-10
-2.1345e-09
1.57077e-10
-2.19948e-09
-4.11457e-11
-2.18177e-09
-1.64834e-10
-2.14268e-09
-2.50143e-10
-2.09656e-09
-2.67434e-10
-2.03554e-09
-2.36749e-10
-1.95304e-09
-1.86768e-10
-1.87624e-09
-2.10709e-10
-1.79859e-09
-2.62202e-10
-1.73082e-09
-3.40554e-10
-1.68019e-09
-4.34139e-10
-1.63865e-09
-4.85616e-10
-1.60844e-09
-5.07089e-10
-1.61323e-09
-6.12675e-10
-1.57534e-09
-8.0691e-10
-1.4872e-09
-1.01757e-09
-1.46789e-09
-1.12806e-09
-1.4024e-09
-1.17039e-09
-1.3217e-09
-1.21187e-09
-1.2307e-09
-1.25524e-09
-1.18119e-09
-1.25175e-09
-1.19458e-09
-1.29789e-09
-1.18134e-09
-1.52808e-09
-1.20499e-09
-1.77105e-09
-1.05321e-09
-2.0502e-09
-8.64312e-10
-2.31348e-09
-6.83549e-10
-2.53111e-09
-3.82226e-10
-2.70706e-09
-1.06936e-10
-2.66934e-09
-1.76554e-11
-1.61903e-09
-1.12372e-10
-1.14848e-09
-1.43723e-10
-1.15178e-09
-1.19664e-10
-1.19396e-09
-6.4318e-11
-1.05829e-09
-4.9936e-11
-9.3444e-10
-4.10447e-11
-7.86873e-10
2.60324e-11
-6.99086e-10
1.52416e-10
-6.13059e-10
2.29056e-10
-5.05184e-10
3.11004e-10
-3.22624e-10
3.74243e-10
-1.61852e-10
3.98745e-10
1.08578e-11
4.50783e-10
1.56508e-10
4.65616e-10
3.78377e-10
5.2397e-10
5.75782e-10
5.03178e-10
8.59817e-10
5.09388e-10
1.10152e-09
4.19267e-10
1.53531e-09
4.32162e-10
1.60517e-09
4.0587e-10
2.01873e-09
1.00526e-15
2.01951e-09
-5.42701e-18
2.4037e-18
-3.9787e-18
-1.11601e-18
-3.33002e-18
-6.18175e-19
-3.04491e-18
-3.40405e-19
-2.85633e-18
-3.934e-19
-2.64272e-18
-6.50255e-19
-2.37026e-18
-9.85958e-19
-2.04176e-18
-1.31901e-18
-1.67313e-18
-1.60378e-18
-1.28097e-18
-1.81825e-18
-8.81941e-19
-1.95432e-18
-4.91644e-19
-2.01327e-18
-1.21834e-19
-2.00169e-18
2.18073e-19
-1.92958e-18
5.21784e-19
-1.8083e-18
7.84719e-19
-1.64908e-18
1.0045e-18
-1.46247e-18
1.18164e-18
-1.25807e-18
1.31821e-18
-1.0445e-18
1.41689e-18
-8.29199e-19
1.48091e-18
-6.18198e-19
1.51372e-18
-4.16028e-19
1.51869e-18
-2.25791e-19
1.49886e-18
-4.93606e-20
1.4571e-18
1.12291e-19
1.39638e-18
2.5877e-19
1.31984e-18
3.9003e-19
1.23046e-18
5.06284e-19
1.13078e-18
6.08007e-19
1.0227e-18
6.95932e-19
9.07684e-19
7.70978e-19
7.86974e-19
8.34116e-19
6.61722e-19
8.86263e-19
5.32954e-19
9.28242e-19
4.01562e-19
9.60799e-19
2.68364e-19
9.84617e-19
1.34141e-19
1.00028e-18
1.00819e-18
-1.01023e-10
-2.22845e-10
-2.45821e-10
-2.05994e-11
-3.56179e-10
4.13611e-10
-5.51624e-10
1.06544e-09
-6.17155e-10
1.33555e-09
-8.33855e-10
1.74442e-09
-8.80445e-10
1.78514e-09
-9.36017e-10
1.75365e-09
-9.34437e-10
1.47942e-09
-9.72641e-10
1.15106e-09
-1.02554e-09
9.12464e-10
-1.05908e-09
7.23854e-10
-1.11062e-09
6.68284e-10
-1.21885e-09
5.54734e-10
-1.23218e-09
5.84714e-10
-1.28646e-09
7.55801e-10
-1.37959e-09
8.19396e-10
-1.41906e-09
9.1211e-10
-1.43147e-09
1.03223e-09
-1.44408e-09
1.05318e-09
-1.44441e-09
1.0869e-09
-1.42588e-09
1.09025e-09
-1.37406e-09
1.09914e-09
-1.3248e-09
1.14671e-09
-1.29217e-09
1.21872e-09
-1.29192e-09
1.26685e-09
-1.3555e-09
1.27408e-09
-1.4757e-09
1.26072e-09
-1.57196e-09
1.03708e-09
-1.62221e-09
7.25061e-10
-1.62808e-09
4.07766e-10
-1.65616e-09
1.85153e-10
-1.73998e-09
4.26752e-11
-1.78808e-09
-1.16732e-10
-1.78529e-09
-2.52927e-10
-1.77508e-09
-2.77645e-10
-1.75483e-09
-2.57004e-10
-1.71019e-09
-2.31407e-10
-1.66601e-09
-2.5489e-10
-1.61802e-09
-3.10185e-10
-1.57842e-09
-3.80159e-10
-1.54964e-09
-4.62918e-10
-1.53011e-09
-5.05151e-10
-1.49688e-09
-5.40316e-10
-1.48961e-09
-6.19948e-10
-1.40651e-09
-8.90005e-10
-1.35299e-09
-1.07109e-09
-1.31405e-09
-1.16701e-09
-1.25129e-09
-1.23315e-09
-1.19143e-09
-1.27173e-09
-1.13314e-09
-1.31353e-09
-1.04669e-09
-1.33819e-09
-9.78888e-10
-1.3657e-09
-9.81343e-10
-1.52562e-09
-9.39251e-10
-1.81314e-09
-7.74215e-10
-2.21523e-09
-6.1593e-10
-2.47177e-09
-4.59331e-10
-2.6877e-09
-2.94945e-10
-2.87144e-09
-1.72704e-10
-2.79159e-09
-1.25501e-10
-1.66623e-09
-1.99575e-10
-1.07441e-09
-2.90016e-10
-1.06134e-09
-3.18812e-10
-1.16516e-09
-2.47171e-10
-1.12993e-09
-1.88527e-10
-9.93084e-10
-8.92174e-11
-8.86182e-10
-5.283e-11
-7.35473e-10
-4.57642e-11
-6.20124e-10
2.09388e-11
-5.71885e-10
1.2211e-10
-4.23792e-10
2.07123e-10
-2.46861e-10
2.55407e-10
-3.7421e-11
2.98271e-10
1.13649e-10
3.5844e-10
3.1821e-10
4.02199e-10
5.32024e-10
3.90518e-10
8.71497e-10
4.02621e-10
1.08941e-09
4.34264e-10
1.50366e-09
5.03207e-10
1.53622e-09
4.23806e-10
2.09813e-09
1.5245e-15
2.44331e-09
-5.27027e-18
8.88233e-18
-3.47987e-18
-2.90814e-18
-3.05131e-18
-1.04845e-18
-3.09741e-18
-2.99552e-19
-3.11319e-18
-3.82026e-19
-2.97842e-18
-7.88336e-19
-2.70331e-18
-1.26331e-18
-2.32653e-18
-1.69723e-18
-1.8876e-18
-2.04478e-18
-1.41705e-18
-2.29013e-18
-9.40882e-19
-2.43118e-18
-4.80065e-19
-2.47483e-18
-4.97286e-20
-2.43253e-18
3.39357e-19
-2.31877e-18
6.81004e-19
-2.14902e-18
9.71323e-19
-1.93806e-18
1.2089e-18
-1.69937e-18
1.39521e-18
-1.44458e-18
1.5335e-18