/*--------------------------------*- C++ -*----------------------------------*\
  =========                 |
  \\      /  F ield         | OpenFOAM: The Open Source CFD Toolbox
   \\    /   O peration     | Website:  https://openfoam.org
    \\  /    A nd           | Version:  6
     \\/     M anipulation  |
\*---------------------------------------------------------------------------*/
FoamFile
{
    version     2.0;
    format      ascii;
    class       surfaceScalarField;
    location    "9700";
    object      phi;
}
// * * * * * * * * * * * * * * * * * * * * * * * * * * * * * * * * * * * * * //

dimensions      [0 3 -1 0 0 0 0];

internalField   nonuniform List<scalar> 
9440
(
4.53146e-13
-4.53146e-13
8.89686e-13
-4.36686e-13
1.31138e-12
-4.21808e-13
1.70152e-12
-3.90258e-13
2.05246e-12
-3.51045e-13
2.36104e-12
-3.08683e-13
2.62586e-12
-2.64931e-13
2.84719e-12
-2.21443e-13
3.02682e-12
-1.79732e-13
3.16748e-12
-1.4076e-13
3.27235e-12
-1.04981e-13
3.34476e-12
-7.25025e-14
3.38856e-12
-4.38985e-14
3.40703e-12
-1.85661e-14
3.40111e-12
5.81777e-15
3.37652e-12
2.4507e-14
3.33363e-12
4.2794e-14
3.27799e-12
5.5553e-14
3.21091e-12
6.7002e-14
3.13509e-12
7.57417e-14
3.0488e-12
8.62144e-14
2.95767e-12
9.1057e-14
2.86313e-12
9.44735e-14
2.76569e-12
9.73759e-14
2.6674e-12
9.82216e-14
2.5685e-12
9.88427e-14
2.47002e-12
9.84302e-14
2.37347e-12
9.6501e-14
2.27913e-12
9.42911e-14
2.18726e-12
9.18298e-14
2.09831e-12
8.89194e-14
2.01262e-12
8.56544e-14
1.93025e-12
8.23375e-14
1.85129e-12
7.89343e-14
1.77595e-12
7.53206e-14
1.70387e-12
7.20656e-14
1.63513e-12
6.87306e-14
1.56935e-12
6.57734e-14
1.50648e-12
6.28699e-14
1.44633e-12
6.01527e-14
1.38866e-12
5.76698e-14
1.33332e-12
5.53536e-14
1.28009e-12
5.32464e-14
1.22893e-12
5.11839e-14
1.17942e-12
4.95338e-14
1.13162e-12
4.78294e-14
1.08497e-12
4.66788e-14
1.03985e-12
4.51586e-14
9.95964e-13
4.39331e-14
9.53301e-13
4.27109e-14
9.11818e-13
4.15344e-14
8.71239e-13
4.06358e-14
8.31554e-13
3.97462e-14
7.92826e-13
3.87932e-14
7.5492e-13
3.79745e-14
7.1793e-13
3.70657e-14
6.81717e-13
3.62903e-14
6.46397e-13
3.54e-14
6.11677e-13
3.48059e-14
5.77753e-13
3.40131e-14
5.44609e-13
3.32356e-14
5.1227e-13
3.24349e-14
4.80644e-13
3.1724e-14
4.49732e-13
3.10149e-14
4.19504e-13
3.03302e-14
3.90048e-13
2.95659e-14
3.61264e-13
2.88939e-14
3.33165e-13
2.82125e-14
3.05694e-13
2.75849e-14
2.79072e-13
2.6738e-14
2.5331e-13
2.58814e-14
2.2853e-13
2.48991e-14
2.05134e-13
2.35161e-14
1.8408e-13
2.11785e-14
1.687e-13
1.55026e-14
1.6974e-13
-9.13036e-16
2.22004e-13
-5.21369e-14
1.21394e-13
1.00737e-13
-7.82612e-17
1.216e-13
6.28678e-22
-1.20441e-21
6.32948e-22
-3.10193e-24
6.37343e-22
-4.1876e-24
6.50216e-22
-2.22305e-24
6.61486e-22
5.68687e-25
6.7012e-22
3.56722e-24
6.75548e-22
6.51405e-24
6.7803e-22
9.35748e-24
6.76892e-22
1.17873e-23
6.73015e-22
1.42172e-23
6.66346e-22
1.63885e-23
6.5704e-22
1.82497e-23
6.45253e-22
2.01108e-23
6.31552e-22
2.16618e-23
6.15784e-22
2.28509e-23
5.98362e-22
2.39882e-23
5.79492e-22
2.49705e-23
5.59226e-22
2.5746e-23
5.37874e-22
2.63664e-23
5.15747e-22
2.68317e-23
4.92948e-22
2.72453e-23
4.69373e-22
2.74004e-23
4.45385e-22
2.76072e-23
4.20983e-22
2.77623e-23
3.96426e-22
2.7814e-23
3.71559e-22
2.77623e-23
3.46589e-22
2.77623e-23
3.21566e-22
2.76589e-23
2.96648e-22
2.75038e-23
2.71677e-22
2.7297e-23
2.46758e-22
2.70902e-23
2.2184e-22
2.68317e-23
1.96869e-22
2.65732e-23
1.72105e-22
2.64181e-23
1.47497e-22
2.62113e-23
1.22991e-22
2.60562e-23
9.84345e-23
2.5746e-23
7.38259e-23
2.55392e-23
4.93206e-23
2.54358e-23
2.48671e-23
2.54875e-23
2.55909e-23
4.66041e-13
-9.19332e-13
9.17819e-13
-8.88693e-13
1.34497e-12
-8.49162e-13
1.73998e-12
-7.85458e-13
2.09461e-12
-7.05875e-13
2.40461e-12
-6.18868e-13
2.66893e-12
-5.29439e-13
2.88845e-12
-4.41158e-13
3.06538e-12
-3.56849e-13
3.20274e-12
-2.78303e-13
3.30415e-12
-2.06568e-13
3.37323e-12
-1.41761e-13
3.41392e-12
-8.47634e-14
3.42859e-12
-3.33987e-14
3.42031e-12
1.39291e-14
3.39249e-12
5.21724e-14
3.34752e-12
8.76135e-14
3.28983e-12
1.13101e-13
3.22094e-12
1.35742e-13
3.14243e-12
1.5412e-13
3.05466e-12
1.73855e-13
2.96191e-12
1.83687e-13
2.86594e-12
1.90324e-13
2.76705e-12
1.96156e-13
2.66782e-12
1.97359e-13
2.56785e-12
1.98714e-13
2.46856e-12
1.97634e-13
2.37142e-12
1.93563e-13
2.27655e-12
1.89089e-13
2.18431e-12
1.84e-13
2.09516e-12
1.78014e-13
2.00934e-12
1.71424e-13
1.92679e-12
1.64843e-13
1.84794e-12
1.57754e-13
1.77254e-12
1.50689e-13
1.70065e-12
1.4394e-13
1.63198e-12
1.37393e-13
1.56646e-12
1.31287e-13
1.50377e-12
1.25566e-13
1.44392e-12
1.20014e-13
1.38633e-12
1.15284e-13
1.33119e-12
1.10518e-13
1.27821e-12
1.06265e-13
1.22712e-12
1.02321e-13
1.17775e-12
9.89553e-14
1.13014e-12
9.55051e-14
1.08372e-12
9.31719e-14
1.03862e-12
9.03364e-14
9.94966e-13
8.76681e-14
9.52384e-13
8.53873e-14
9.10972e-13
8.30491e-14
8.70452e-13
8.12656e-14
8.30789e-13
7.9525e-14
7.92147e-13
7.75588e-14
7.54228e-13
7.60268e-14
7.17232e-13
7.41993e-14
6.81063e-13
7.26077e-14
6.45691e-13
7.09249e-14
6.11008e-13
6.96479e-14
5.7709e-13
6.80957e-14
5.43986e-13
6.65134e-14
5.11706e-13
6.48915e-14
4.80113e-13
6.35021e-14
4.49195e-13
6.21199e-14
4.19016e-13
6.07007e-14
3.89572e-13
5.92077e-14
3.60697e-13
5.79676e-14
3.32547e-13
5.65705e-14
3.05147e-13
5.51919e-14
2.78466e-13
5.36315e-14
2.52496e-13
5.20676e-14
2.27396e-13
5.02199e-14
2.03209e-13
4.79243e-14
1.80011e-13
4.45952e-14
1.56903e-13
3.88358e-14
1.26671e-13
2.95453e-14
6.38501e-14
1.09081e-14
3.56554e-14
1.29156e-13
-6.08595e-17
1.57494e-13
6.28676e-22
-2.27647e-21
6.31811e-22
-5.94536e-24
6.39411e-22
-8.78879e-25
6.53059e-22
4.70459e-24
6.64485e-22
1.03398e-23
6.73015e-22
1.60783e-23
6.78392e-22
2.15584e-23
6.80408e-22
2.65732e-23
6.79374e-22
3.12261e-23
6.75186e-22
3.54654e-23
6.6831e-22
3.92394e-23
6.58798e-22
4.27549e-23
6.46804e-22
4.55983e-23
6.32742e-22
4.81833e-23
6.16922e-22
5.0458e-23
5.99344e-22
5.22675e-23
5.80164e-22
5.37667e-23
5.59846e-22
5.50592e-23
5.38391e-22
5.59898e-23
5.16109e-22
5.67136e-23
4.93155e-22
5.72823e-23
4.6958e-22
5.75925e-23
4.4554e-22
5.77993e-23
4.20983e-22
5.77993e-23
3.96426e-22
5.77476e-23
3.71508e-22
5.74891e-23
3.46537e-22
5.71789e-23
3.21411e-22
5.6817e-23
2.96441e-22
5.64551e-23
2.71419e-22
5.59381e-23
2.46552e-22
5.53694e-23
2.21529e-22
5.48007e-23
1.96714e-22
5.43871e-23
1.7195e-22
5.37667e-23
1.4729e-22
5.31981e-23
1.22733e-22
5.25777e-23
9.82277e-23
5.20607e-23
7.37742e-23
5.16988e-23
4.93206e-23
5.12335e-23
2.49705e-23
5.0975e-23
5.07165e-23
4.89448e-13
-1.40889e-12
9.63517e-13
-1.36296e-12
1.41035e-12
-1.29617e-12
1.8192e-12
-1.19448e-12
2.18187e-12
-1.06872e-12
2.49486e-12
-9.32019e-13
2.7582e-12
-7.92948e-13
2.97388e-12
-6.57002e-13
3.14507e-12
-5.282e-13
3.27587e-12
-4.0926e-13
3.37013e-12
-3.00987e-13
3.43239e-12
-2.04175e-13
3.46659e-12
-1.19104e-13
3.47277e-12
-3.97259e-14
3.46032e-12
2.62438e-14
3.42577e-12
8.65834e-14
3.37619e-12
1.37062e-13
3.31375e-12
1.75415e-13
3.24105e-12
2.08318e-13
3.15692e-12
2.38124e-13
3.06595e-12
2.64714e-13
2.97011e-12
2.79422e-13
2.87105e-12
2.89291e-13
2.76947e-12
2.97644e-13
2.66827e-12
2.98469e-13
2.56604e-12
3.00852e-13
2.46535e-12
2.98248e-13
2.36697e-12
2.91876e-13
2.27109e-12
2.84904e-13
2.17817e-12
2.76865e-13
2.08855e-12
2.67584e-13
2.00244e-12
2.57491e-13
1.91983e-12
2.47407e-13
1.84112e-12
2.36431e-13
1.76598e-12
2.25806e-13
1.69425e-12
2.15661e-13
1.62593e-12
2.05694e-13
1.56058e-12
1.96633e-13
1.49833e-12
1.87819e-13
1.4389e-12
1.79462e-13
1.38181e-12
1.72389e-13
1.32698e-12
1.65369e-13
1.27439e-12
1.58893e-13
1.22359e-12
1.53151e-13
1.17458e-12
1.48017e-13
1.12729e-12
1.42841e-13
1.0811e-12
1.39423e-13
1.03624e-12
1.35263e-13
9.92666e-13
1.31319e-13
9.50191e-13
1.27941e-13
9.08907e-13
1.24419e-13
8.68563e-13
1.21704e-13
8.2894e-13
1.1925e-13
7.90293e-13
1.16314e-13
7.52402e-13
1.1403e-13
7.15486e-13
1.11237e-13
6.79351e-13
1.08868e-13
6.44047e-13
1.06361e-13
6.09427e-13
1.04407e-13
5.7553e-13
1.02135e-13
5.42471e-13
9.9722e-14
5.1008e-13
9.74338e-14
4.78457e-13
9.52834e-14
4.47614e-13
9.31268e-14
4.17443e-13
9.10376e-14
3.87912e-13
8.89126e-14
3.5915e-13
8.69031e-14
3.30993e-13
8.49028e-14
3.03516e-13
8.28479e-14
2.76754e-13
8.05765e-14
2.50617e-13
7.83877e-14
2.25078e-13
7.59452e-14
1.99793e-13
7.34015e-14
1.74329e-13
7.02524e-14
1.46314e-13
6.70436e-14
1.1112e-13
6.49309e-14
5.34789e-14
6.87458e-14
3.11448e-14
1.51687e-13
-5.74125e-17
1.88853e-13
6.22059e-22
-3.48089e-21
6.36929e-22
-8.99559e-24
6.44994e-22
-1.03398e-25
6.58643e-22
8.84049e-24
6.70223e-22
1.77327e-23
6.78495e-22
2.61596e-23
6.83458e-22
3.41729e-23
6.85061e-22
4.16692e-23
6.8351e-22
4.86486e-23
6.79012e-22
5.49041e-23
6.71722e-22
6.0591e-23
6.61745e-22
6.55024e-23
6.49389e-22
6.98968e-23
6.34965e-22
7.36191e-23
6.18679e-22
7.68244e-23
6.00947e-22
7.96161e-23
5.81456e-22
8.17358e-23
5.60829e-22
8.34419e-23
5.39167e-22
8.48377e-23
5.16626e-22
8.58717e-23
4.93517e-22
8.65955e-23
4.69787e-22
8.70608e-23
4.45489e-22
8.71642e-23
4.20932e-22
8.70608e-23
3.96168e-22
8.6854e-23
3.71249e-22
8.64921e-23
3.46175e-22
8.59234e-23
3.21101e-22
8.53547e-23
2.95924e-22
8.47343e-23
2.70902e-22
8.39071e-23
2.46035e-22
8.29766e-23
2.21116e-22
8.20977e-23
1.96094e-22
8.11154e-23
1.7133e-22
8.02365e-23
1.46721e-22
7.92543e-23
1.22216e-22
7.84788e-23
9.78141e-23
7.75999e-23
7.33606e-23
7.6721e-23
4.90622e-23
7.61006e-23
2.4712e-23
7.54802e-23
7.50149e-23
5.30202e-13
-1.9392e-12
1.03849e-12
-1.87145e-12
1.51453e-12
-1.77237e-12
1.94415e-12
-1.62426e-12
2.31817e-12
-1.44289e-12
2.63405e-12
-1.24807e-12
2.89419e-12
-1.05325e-12
3.10259e-12
-8.65565e-13
3.26417e-12
-6.8993e-13
3.38412e-12
-5.29372e-13
3.46742e-12
-3.84435e-13
3.51953e-12
-2.56436e-13
3.54199e-12
-1.41705e-13
3.53824e-12
-3.61203e-14
3.51827e-12
4.60753e-14
3.47512e-12
1.29599e-13
3.41866e-12
1.93387e-13
3.34828e-12
2.45678e-13
3.2706e-12
2.85878e-13
3.17797e-12
3.30632e-13
3.08257e-12
3.60004e-13
2.9818e-12
3.8009e-13
2.87835e-12
3.92646e-13
2.77297e-12
4.02927e-13
2.66838e-12
4.02973e-13
2.56321e-12
4.05948e-13
2.46024e-12
4.01136e-13
2.35998e-12
3.9207e-13
2.26266e-12
3.82158e-13
2.16863e-12
3.70836e-13
2.0785e-12
3.57667e-13
1.99199e-12
3.4396e-13
1.9092e-12
3.30158e-13
1.83057e-12
3.15026e-13
1.75564e-12
3.00714e-13
1.68444e-12
2.86838e-13
1.61658e-12
2.73549e-13
1.55187e-12
2.61339e-13
1.49018e-12
2.49509e-13
1.43118e-12
2.38477e-13
1.37468e-12
2.28909e-13
1.32062e-12
2.19448e-13
1.26862e-12
2.10931e-13
1.21838e-12
2.03422e-13
1.16971e-12
1.96733e-13
1.12296e-12
1.89642e-13
1.0773e-12
1.85143e-13
1.03262e-12
1.80005e-13
9.89336e-13
1.74676e-13
9.47073e-13
1.70284e-13
9.05965e-13
1.65611e-13
8.65712e-13
1.62051e-13
8.26213e-13
1.58847e-13
7.87674e-13
1.54958e-13
7.49977e-13
1.51837e-13
7.13066e-13
1.48264e-13
6.76949e-13
1.45108e-13
6.41649e-13
1.41791e-13
6.07061e-13
1.39131e-13
5.73258e-13
1.36079e-13
5.40174e-13
1.32948e-13
5.07869e-13
1.29889e-13
4.76335e-13
1.26968e-13
4.45497e-13
1.24125e-13
4.15384e-13
1.21312e-13
3.85883e-13
1.18582e-13
3.57015e-13
1.15939e-13
3.28834e-13
1.13256e-13
3.0138e-13
1.1048e-13
2.74503e-13
1.07631e-13
2.48189e-13
1.04884e-13
2.22352e-13
1.01966e-13
1.96795e-13
9.91426e-14
1.70727e-13
9.65061e-14
1.43283e-13
9.46752e-14
1.14277e-13
9.41241e-14
8.5097e-14
9.81118e-14
3.57602e-14
2.01215e-13
-5.60616e-17
2.24823e-13
6.35294e-22
-4.72501e-21
6.45873e-22
-1.22009e-23
6.53938e-22
3.10193e-25
6.67535e-22
1.28213e-23
6.78702e-22
2.48154e-23
6.86457e-22
3.63443e-23
6.91006e-22
4.71493e-23
6.9204e-22
5.71789e-23
6.89817e-22
6.63296e-23
6.84699e-22
7.47565e-23
6.76737e-22
8.22528e-23
6.66139e-22
8.88185e-23
6.53163e-22
9.45054e-23
6.38118e-22
9.94685e-23
6.21471e-22
1.03708e-22
6.03066e-22
1.07068e-22
5.83111e-22
1.09912e-22
5.62173e-22
1.12238e-22
5.40149e-22
1.13996e-22
5.1735e-22
1.15185e-22
4.93982e-22
1.1596e-22
4.69942e-22
1.16426e-22
4.45385e-22
1.16529e-22
4.20725e-22
1.16374e-22
3.95806e-22
1.15909e-22
3.7068e-22
1.1534e-22
3.45606e-22
1.14513e-22
3.20429e-22
1.13582e-22
2.95097e-22
1.12445e-22
2.69971e-22
1.11359e-22
2.45156e-22
1.10067e-22
2.20133e-22
1.08671e-22
1.95163e-22
1.07223e-22
1.70399e-22
1.05879e-22
1.45842e-22
1.04535e-22
1.21285e-22
1.03191e-22
9.69869e-23
1.02002e-22
7.26885e-23
1.00813e-22
4.84418e-23
9.97787e-23
2.42467e-23
9.88998e-23
9.8176e-23
5.88617e-13
-2.52793e-12
1.14807e-12
-2.43109e-12
1.66603e-12
-2.2905e-12
2.12372e-12
-2.08212e-12
2.5117e-12
-1.83103e-12
2.82855e-12
-1.56508e-12
3.08146e-12
-1.30632e-12
3.27782e-12
-1.06208e-12
3.42453e-12
-8.36795e-13
3.52898e-12
-6.33974e-13
3.59668e-12
-4.52288e-13
3.63404e-12
-2.93946e-13
3.63956e-12
-1.47367e-13
3.62748e-12
-2.41805e-14
3.59293e-12
8.04886e-14
3.54018e-12
1.82214e-13
3.47435e-12
2.59092e-13
3.39459e-12
3.25316e-13
3.30708e-12
3.7327e-13
3.20617e-12
4.31431e-13
3.10405e-12
4.62012e-13
2.99661e-12
4.8743e-13
2.88698e-12
5.02176e-13
2.77704e-12
5.12774e-13
2.66755e-12
5.12369e-13
2.55858e-12
5.14846e-13
2.45272e-12
5.06918e-13
2.35001e-12
4.94706e-13
2.2507e-12
4.81411e-13
2.15557e-12
4.65912e-13
2.06457e-12
4.48618e-13
1.97751e-12
4.30972e-13
1.89469e-12
4.12952e-13
1.81629e-12
3.9339e-13
1.74174e-12
3.75242e-13
1.67126e-12
3.57305e-13
1.60402e-12
3.40775e-13
1.54013e-12
3.25231e-13
1.47938e-12
3.10265e-13
1.42127e-12
2.96596e-13
1.36564e-12
2.84556e-13
1.31233e-12
2.72787e-13
1.26101e-12
2.62274e-13
1.21144e-12
2.53035e-13
1.16343e-12
2.44781e-13
1.1171e-12
2.36033e-13
1.07236e-12
2.29943e-13
1.02798e-12
2.24448e-13
9.8491e-13
2.1782e-13
9.42925e-13
2.12345e-13
9.0205e-13
2.06572e-13
8.62032e-13
2.0216e-13
8.22783e-13
1.98193e-13
7.84413e-13
1.93432e-13
7.46668e-13
1.89694e-13
7.09896e-13
1.85153e-13
6.7382e-13
1.81304e-13
6.38578e-13
1.7716e-13
6.03967e-13
1.73876e-13
5.70305e-13
1.69879e-13
5.37274e-13
1.66123e-13
5.05051e-13
1.62259e-13
4.73509e-13
1.58663e-13
4.42635e-13
1.55155e-13
4.12589e-13
1.5152e-13
3.83043e-13
1.4829e-13
3.5421e-13
1.44941e-13
3.26069e-13
1.41566e-13
2.9854e-13
1.38181e-13
2.7156e-13
1.34788e-13
2.45205e-13
1.31415e-13
2.19395e-13
1.27955e-13
1.94094e-13
1.24625e-13
1.69244e-13
1.21539e-13
1.44171e-13
1.19934e-13
1.20124e-13
1.18358e-13
9.51155e-14
1.23308e-13
3.91888e-14
2.5733e-13
-5.49084e-17
2.64217e-13
6.41912e-22
-6.00884e-21
6.58332e-22
-1.54579e-23
6.66397e-22
8.27181e-25
6.79581e-22
1.68538e-23
6.90127e-22
3.23117e-23
6.97262e-22
4.67874e-23
7.00984e-22
6.05393e-23
7.01242e-22
7.32055e-23
6.98192e-22
8.48377e-23
6.92195e-22
9.52809e-23
6.83251e-22
1.04587e-22
6.71826e-22
1.12755e-22
6.58126e-22
1.1989e-22
6.42358e-22
1.25887e-22
6.24832e-22
1.31056e-22
6.05806e-22
1.35244e-22
5.85489e-22
1.38708e-22
5.6393e-22
1.41293e-22
5.41338e-22
1.43257e-22
5.18229e-22
1.44653e-22
4.94396e-22
1.4548e-22
4.69994e-22
1.45894e-22
4.4523e-22
1.45791e-22
4.20311e-22
1.4548e-22
3.95186e-22
1.44912e-22
3.69853e-22
1.43929e-22
3.44624e-22
1.4274e-22
3.19292e-22
1.41293e-22
2.94011e-22
1.39742e-22
2.6873e-22
1.38036e-22
2.43708e-22
1.36226e-22
2.18686e-22
1.3421e-22
1.93767e-22
1.32297e-22
1.69055e-22
1.30488e-22
1.4455e-22
1.28575e-22
1.20096e-22
1.26714e-22
9.57979e-23
1.24956e-22
7.16545e-23
1.23353e-22
4.75629e-23
1.21854e-22
2.3523e-23
1.20613e-22
1.19683e-22
6.70457e-13
-3.19849e-12
1.30476e-12
-3.06559e-12
1.88012e-12
-2.86602e-12
2.37162e-12
-2.57378e-12
2.77478e-12
-2.23436e-12
3.08728e-12
-1.87774e-12
3.32556e-12
-1.54476e-12
3.50251e-12
-1.23918e-12
3.62728e-12
-9.61715e-13
3.71118e-12
-7.18024e-13
3.75619e-12
-4.97444e-13
3.7722e-12
-3.101e-13
3.76349e-12
-1.38795e-13
3.73769e-12
1.47564e-15
3.68493e-12
1.33122e-13
3.62029e-12
2.46722e-13
3.54178e-12
3.37474e-13
3.45293e-12
4.14044e-13
3.34969e-12
4.76389e-13
3.24154e-12
5.39471e-13
3.12965e-12
5.73796e-13
3.01381e-12
6.03166e-13
2.89647e-12
6.19421e-13
2.78098e-12
6.28175e-13
2.665e-12
6.28261e-13
2.55157e-12
6.28203e-13
2.44204e-12
6.16377e-13
2.33649e-12
6.00186e-13
2.23492e-12
5.8292e-13
2.13828e-12
5.62501e-13
2.04641e-12
5.40435e-13
1.95874e-12
5.18599e-13
1.87599e-12
4.95666e-13
1.79791e-12
4.71449e-13
1.7242e-12
4.4893e-13
1.65444e-12
4.27045e-13
1.58821e-12
4.06998e-13
1.5254e-12
3.88038e-13
1.46577e-12
3.69899e-13
1.40867e-12
3.53698e-13
1.35433e-12
3.38914e-13
1.30184e-12
3.25304e-13
1.2517e-12
3.12449e-13
1.20287e-12
3.01899e-13
1.15603e-12
2.91663e-13
1.10983e-12
2.82285e-13
1.06623e-12
2.73601e-13
1.02225e-12
2.68489e-13
9.794e-13
2.60742e-13
9.37915e-13
2.53909e-13
8.97143e-13
2.47427e-13
8.57461e-13
2.41934e-13
8.18386e-13
2.37362e-13
7.80179e-13
2.31741e-13
7.42589e-13
2.27392e-13
7.05906e-13
2.21949e-13
6.69956e-13
2.17374e-13
6.3474e-13
2.125e-13
6.00249e-13
2.08495e-13
5.66511e-13
2.03752e-13
5.33536e-13
1.99239e-13
5.01414e-13
1.94526e-13
4.69983e-13
1.90246e-13
4.39242e-13
1.8605e-13
4.09217e-13
1.81702e-13
3.79732e-13
1.77935e-13
3.50886e-13
1.7395e-13
3.22753e-13
1.69865e-13
2.95168e-13
1.65936e-13
2.68148e-13
1.61979e-13
2.41767e-13
1.5797e-13
2.16053e-13
1.53849e-13
1.91241e-13
1.49612e-13
1.67546e-13
1.45414e-13
1.44674e-13
1.42986e-13
1.25753e-13
1.37462e-13
1.07756e-13
1.41486e-13
2.93038e-14
3.35968e-13
-5.36312e-17
2.93718e-13
6.61764e-22
-7.29267e-21
6.74669e-22
-1.8715e-23
6.82424e-22
1.49927e-24
6.95039e-22
2.12482e-23
7.04706e-22
4.017e-23
7.11014e-22
5.81094e-23
7.1365e-22
7.48082e-23
7.12823e-22
9.01627e-23
7.08635e-22
1.04173e-22
7.01449e-22
1.16891e-22
6.91471e-22
1.27955e-22
6.7896e-22
1.37726e-22
6.64123e-22
1.46101e-22
6.47579e-22
1.53235e-22
6.29071e-22
1.59232e-22
6.0927e-22
1.64144e-22
5.88022e-22
1.67969e-22
5.65947e-22
1.70968e-22
5.42734e-22
1.73036e-22
5.19056e-22
1.74587e-22
4.94757e-22
1.75414e-22
4.69942e-22
1.75621e-22
4.4492e-22
1.75414e-22
4.19743e-22
1.7469e-22
3.94203e-22
1.73553e-22
3.68664e-22
1.72209e-22
3.43228e-22
1.70503e-22
3.17741e-22
1.68538e-22
2.92305e-22
1.66418e-22
2.66973e-22
1.64092e-22
2.41744e-22
1.6161e-22
2.16773e-22
1.59077e-22
1.91958e-22
1.56285e-22
1.67246e-22
1.53545e-22
1.42637e-22
1.51012e-22
1.1839e-22
1.48531e-22
9.41952e-23
1.46101e-22
7.01036e-23
1.43878e-22
4.62704e-23
1.41965e-22
2.25924e-23
1.40207e-22
1.38915e-22
7.82685e-13
-3.98129e-12
1.52321e-12
-3.80629e-12
2.18508e-12
-3.52805e-12
2.70822e-12
-3.09708e-12
3.12305e-12
-2.64935e-12
3.42026e-12
-2.17509e-12
3.63278e-12
-1.75744e-12
3.77878e-12
-1.38533e-12
3.87142e-12
-1.0545e-12
3.92556e-12
-7.72318e-13
3.94514e-12
-5.17165e-13
3.93712e-12
-3.02226e-13
3.91175e-12
-1.13569e-13
3.86428e-12
4.88173e-14
3.79446e-12
2.02807e-13
3.71554e-12
3.25514e-13
3.61948e-12
4.33403e-13
3.52093e-12
5.12471e-13
3.39853e-12
5.9868e-13
3.28268e-12
6.5521e-13
3.15783e-12
6.98535e-13
3.03275e-12
7.28153e-13
2.90584e-12
7.46235e-13
2.784e-12
7.49926e-13
2.65964e-12
7.52529e-13
2.5411e-12
7.46673e-13
2.42741e-12
7.29995e-13
2.31849e-12
7.09042e-13
2.21456e-12
6.86788e-13
2.11613e-12
6.60875e-13
2.02321e-12
6.33306e-13
1.93506e-12
6.06709e-13
1.8528e-12
5.77889e-13
1.77555e-12
5.4868e-13
1.70278e-12
5.21677e-13
1.63409e-12
4.95713e-13
1.56913e-12
4.7195e-13
1.50763e-12
4.49534e-13
1.44941e-12
4.28126e-13
1.39371e-12
4.09407e-13
1.34073e-12
3.91913e-13
1.28965e-12
3.76406e-13
1.24059e-12
3.61533e-13
1.1927e-12
3.49826e-13
1.14709e-12
3.37318e-13
1.10126e-12
3.28162e-13
1.05866e-12
3.16255e-13
1.01575e-12
3.11468e-13
9.73207e-13
3.03351e-13
9.32135e-13
2.95059e-13
8.91587e-13
2.88058e-13
8.52184e-13
2.81427e-13
8.13334e-13
2.76307e-13
7.7524e-13
2.6994e-13
7.37732e-13
2.65006e-13
7.01039e-13
2.58755e-13
6.65253e-13
2.53277e-13
6.30107e-13
2.47769e-13
5.95778e-13
2.42954e-13
5.61989e-13
2.37671e-13
5.29151e-13
2.32216e-13
4.97037e-13
2.26782e-13
4.65647e-13
2.21784e-13
4.35085e-13
2.1676e-13
4.0508e-13
2.11865e-13
3.75595e-13
2.07577e-13
3.4697e-13
2.02734e-13
3.1886e-13
1.98142e-13
2.91226e-13
1.93735e-13
2.64131e-13
1.89242e-13
2.37643e-13
1.84632e-13
2.11836e-13
1.7983e-13
1.87122e-13
1.74496e-13
1.64158e-13
1.68555e-13
1.4476e-13
1.62561e-13
1.27686e-13
1.54714e-13
7.1219e-14
1.98133e-13
1.19479e-14
3.95418e-13
-5.20366e-17
3.05862e-13
6.88234e-22
-8.47061e-21
6.94832e-22
-2.18686e-23
7.02173e-22
2.37814e-24
7.1396e-22
2.63147e-23
7.22646e-22
4.89588e-23
7.27661e-22
7.02587e-23
7.29005e-22
9.0111e-23
7.26885e-22
1.08464e-22
7.21302e-22
1.24956e-22
7.12616e-22
1.39742e-22
7.01191e-22
1.52718e-22
6.87284e-22
1.6404e-22
6.71309e-22
1.73708e-22
6.53524e-22
1.81876e-22
6.33982e-22
1.88494e-22
6.13096e-22
1.93974e-22
5.91021e-22
1.98161e-22
5.68015e-22
2.01367e-22
5.44233e-22
2.03486e-22
5.19831e-22
2.04831e-22
4.95016e-22
2.05451e-22
4.69735e-22
2.05451e-22
4.44196e-22
2.04727e-22
4.18605e-22
2.0359e-22
3.92859e-22
2.01935e-22
3.66958e-22
1.99971e-22
3.41264e-22
1.97696e-22
3.15621e-22
1.95008e-22
2.89979e-22
1.92009e-22
2.64439e-22
1.88804e-22
2.3921e-22
1.85547e-22
2.14033e-22
1.82031e-22
1.89166e-22
1.78516e-22
1.64609e-22
1.74949e-22
1.40207e-22
1.7133e-22
1.15909e-22
1.67969e-22
9.19722e-23
1.64816e-22
6.81907e-23
1.61817e-22
4.45644e-23
1.59284e-22
2.11965e-23
1.57164e-22
1.55355e-22
9.41966e-13
-4.92335e-12
1.8351e-12
-4.69961e-12
2.60493e-12
-4.29803e-12
3.16541e-12
-3.65772e-12
3.56994e-12
-3.05403e-12
3.83871e-12
-2.44401e-12
4.00583e-12
-1.92471e-12
4.10454e-12
-1.48419e-12
4.15447e-12
-1.10458e-12
4.16839e-12
-7.86384e-13
4.16055e-12
-5.0947e-13
4.12705e-12
-2.68864e-13
4.08019e-12
-6.68422e-14
4.00587e-12
1.23002e-13
3.9208e-12
2.87745e-13
3.82195e-12
4.24242e-13
3.71119e-12
5.44047e-13
3.59161e-12
6.31938e-13
3.45663e-12
7.33541e-13
3.3269e-12
7.84836e-13
3.1882e-12
8.37122e-13
3.05157e-12
8.64688e-13
2.91485e-12
8.82861e-13
2.78325e-12
8.81441e-13
2.6509e-12
8.84795e-13
2.52631e-12
8.71189e-13
2.40807e-12
8.48165e-13
2.29507e-12
8.21978e-13
2.18856e-12
7.93237e-13
2.08878e-12
7.60602e-13
1.9945e-12
7.27536e-13
1.90654e-12
6.94636e-13
1.82487e-12
6.59522e-13
1.74859e-12
6.24929e-13
1.67721e-12
5.93036e-13
1.6098e-12
5.63117e-13
1.54649e-12
5.35248e-13
1.48691e-12
5.09107e-13
1.4303e-12
4.84746e-13
1.37631e-12
4.63406e-13
1.32478e-12
4.43462e-13
1.27546e-12
4.25744e-13
1.22765e-12
4.09381e-13
1.18134e-12
3.96168e-13
1.13656e-12
3.8214e-13
1.09261e-12
3.72167e-13
1.04937e-12
3.59553e-13
1.00842e-12
3.52483e-13
9.66229e-13
3.45607e-13
9.25477e-13
3.35887e-13
8.85149e-13
3.28468e-13
8.4605e-13
3.20613e-13
8.07497e-13
3.14952e-13
7.69408e-13
3.08128e-13
7.32208e-13
3.02312e-13
6.95459e-13
2.95614e-13
6.59788e-13
2.89064e-13
6.24563e-13
2.83115e-13
5.90458e-13
2.77185e-13
5.56772e-13
2.71485e-13
5.23978e-13
2.65145e-13
4.92063e-13
2.58835e-13
4.60869e-13
2.5312e-13
4.30284e-13
2.47492e-13
4.0031e-13
2.41987e-13
3.7109e-13
2.36953e-13
3.42442e-13
2.31538e-13
3.14348e-13
2.26394e-13
2.86778e-13
2.21468e-13
2.59532e-13
2.16653e-13
2.32784e-13
2.11548e-13
2.06606e-13
2.06175e-13
1.81099e-13
2.00172e-13
1.57122e-13
1.92702e-13
1.37995e-13
1.81861e-13
1.3071e-13
1.62173e-13
4.83053e-14
2.80711e-13
1.31375e-14
4.3076e-13
-5.06148e-17
3.1919e-13
7.08087e-22
-9.54267e-21
7.1913e-22
-2.50739e-23
7.26006e-22
3.67061e-24
7.36708e-22
3.16914e-23
7.43946e-22
5.83679e-23
7.47565e-22
8.35452e-23
7.47358e-22
1.06965e-22
7.43325e-22
1.2811e-22
7.36036e-22
1.47238e-22
7.25593e-22
1.64092e-22
7.12513e-22
1.7893e-22
6.97003e-22
1.91699e-22
6.79477e-22
2.02556e-22
6.60194e-22
2.11603e-22
6.39462e-22
2.18944e-22
6.17335e-22
2.24735e-22
5.94226e-22
2.29181e-22
5.70134e-22
2.32386e-22
5.45629e-22
2.34506e-22
5.204e-22
2.35488e-22
4.95016e-22
2.35798e-22
4.69063e-22
2.35178e-22
4.43059e-22
2.34092e-22
4.16951e-22
2.32334e-22
3.90895e-22
2.30008e-22
3.64683e-22
2.27216e-22
3.38575e-22
2.24114e-22
3.12623e-22
2.20444e-22
2.86773e-22
2.16566e-22
2.61182e-22
2.1243e-22
2.35695e-22
2.07933e-22
2.10517e-22
2.0328e-22
1.85599e-22
1.98627e-22
1.6099e-22
1.93922e-22
1.36847e-22
1.89218e-22
1.12755e-22
1.84668e-22
8.89736e-23
1.80429e-22
6.57092e-23
1.76655e-22
4.24447e-23
1.73243e-22
1.94387e-23
1.70451e-22
1.68228e-22
1.16879e-12
-6.09225e-12
2.26613e-12
-5.79712e-12
3.14834e-12
-5.1804e-12
3.78495e-12
-4.29448e-12
4.15527e-12
-3.4245e-12
4.36075e-12
-2.64964e-12
4.45292e-12
-2.01702e-12
4.48507e-12
-1.51648e-12
4.47597e-12
-1.09562e-12
4.44387e-12
-7.54425e-13
4.39616e-12
-4.61902e-13
4.33928e-12
-2.12115e-13
4.2635e-12
8.80167e-15
4.16429e-12
2.22085e-13
4.06149e-12
3.90423e-13
3.94032e-12
5.45293e-13
3.81382e-12
6.70424e-13
3.66558e-12
7.80062e-13
3.52437e-12
8.74639e-13
3.37223e-12
9.36874e-13
3.22021e-12
9.89043e-13
3.06927e-12
1.01553e-12
2.92169e-12
1.03035e-12
2.77744e-12
1.02561e-12
2.63765e-12
1.0245e-12
2.5061e-12
1.00266e-12
2.38223e-12
9.7197e-13
2.26519e-12
9.38956e-13
2.15599e-12
9.02372e-13
2.05471e-12
8.6183e-13
1.95924e-12
8.22961e-13
1.8721e-12
7.81745e-13
1.79155e-12
7.40034e-13
1.71674e-12
6.99709e-13
1.64706e-12
6.62694e-13
1.58153e-12
6.28633e-13
1.52039e-12
5.9638e-13
1.46306e-12
5.66439e-13
1.4085e-12
5.39308e-13
1.35661e-12
5.15299e-13
1.30697e-12
4.93123e-13
1.25987e-12
4.72865e-13
1.21345e-12
4.55827e-13
1.16871e-12
4.40944e-13
1.12492e-12
4.25974e-13
1.08281e-12
4.14325e-13
1.03925e-12
4.03163e-13
1.00025e-12
3.9155e-13
9.58906e-13
3.87018e-13
9.18139e-13
3.76727e-13
8.78303e-13
3.68383e-13
8.39227e-13
3.59775e-13
8.01009e-13
3.53261e-13
7.62959e-13
3.46275e-13
7.25954e-13
3.39418e-13
6.89165e-13
3.32511e-13
6.53546e-13
3.248e-13
6.18248e-13
3.1853e-13
5.84473e-13
3.11081e-13
5.50773e-13
3.05315e-13
5.18091e-13
2.97957e-13
4.86294e-13
2.90766e-13
4.55174e-13
2.84377e-13
4.24782e-13
2.78027e-13
3.94947e-13
2.71968e-13
3.6596e-13
2.66089e-13
3.37451e-13
2.60197e-13
3.09411e-13
2.54589e-13
2.81753e-13
2.49283e-13
2.54511e-13
2.44053e-13
2.27514e-13
2.38706e-13
2.00721e-13
2.33132e-13
1.74162e-13
2.26894e-13
1.47439e-13
2.19593e-13
1.20407e-13
2.09061e-13
8.87916e-14
1.93957e-13
2.7171e-14
3.42498e-13
1.40054e-14
4.44094e-13
-4.90989e-17
3.33376e-13
7.34557e-22
-1.04824e-20
7.47823e-22
-2.82275e-23
7.54027e-22
5.27328e-24
7.63436e-22
3.79986e-23
7.69123e-22
6.91213e-23
7.70881e-22
9.82277e-23
7.68503e-22
1.25059e-22
7.62506e-22
1.4941e-22
7.52838e-22
1.71226e-22
7.4043e-22
1.90407e-22
7.25282e-22
2.07054e-22
7.07912e-22
2.21271e-22
6.88473e-22
2.3311e-22
6.67535e-22
2.42881e-22
6.45201e-22
2.50687e-22
6.21781e-22
2.56788e-22
5.97431e-22
2.61182e-22
5.72254e-22
2.64129e-22
5.46611e-22
2.6599e-22
5.20659e-22
2.66714e-22
4.94447e-22
2.66456e-22
4.67926e-22
2.65267e-22
4.41249e-22
2.63354e-22
4.14676e-22
2.60769e-22
3.88103e-22
2.57615e-22
3.61581e-22
2.53789e-22
3.34956e-22
2.4955e-22
3.08693e-22
2.44794e-22
2.82637e-22
2.39727e-22
2.56685e-22
2.34196e-22
2.31042e-22
2.28457e-22
2.05865e-22
2.22408e-22
1.80894e-22
2.16204e-22
1.56285e-22
2.1e-22
1.32349e-22
2.039e-22
1.08516e-22
1.97955e-22
8.51996e-23
1.92475e-22
6.24004e-23
1.87512e-22
3.96013e-23
1.83065e-22
1.72157e-23
1.7955e-22
1.76862e-22
1.50189e-12
-7.59424e-12
2.89573e-12
-7.19113e-12
3.97206e-12
-6.25688e-12
4.62291e-12
-4.94546e-12
4.8973e-12
-3.69904e-12
4.97579e-12
-2.72827e-12
4.95848e-12
-1.99985e-12
4.90377e-12
-1.46191e-12
4.83053e-12
-1.02252e-12
4.74159e-12
-6.65624e-13
4.65043e-12
-3.70877e-13
4.56333e-12
-1.25146e-13
4.45805e-12
1.13948e-13
4.34209e-12
3.37921e-13
4.21162e-12
5.20769e-13
4.07581e-12
6.80983e-13
3.91738e-12
8.28739e-13
3.75414e-12
9.43192e-13
3.59211e-12
1.03656e-12
3.4204e-12
1.10848e-12
3.25138e-12
1.15797e-12
3.08428e-12
1.18254e-12
2.92336e-12
1.19117e-12
2.76655e-12
1.18234e-12
2.61762e-12
1.17335e-12
2.47851e-12
1.14171e-12
2.34844e-12
1.10197e-12
2.22746e-12
1.05988e-12
2.1164e-12
1.01338e-12
2.01295e-12
9.65226e-13
1.91775e-12
9.18123e-13
1.83176e-12
8.67693e-13
1.75274e-12
8.19025e-13
1.6798e-12
7.72616e-13
1.612e-12
7.30482e-13
1.54925e-12
6.91365e-13
1.49067e-12
6.54952e-13
1.43604e-12
6.21063e-13
1.38393e-12
5.91427e-13
1.33467e-12
5.64572e-13
1.28758e-12
5.40221e-13
1.242e-12
5.18473e-13
1.19774e-12
5.00115e-13
1.15477e-12
4.8395e-13
1.11254e-12
4.68243e-13
1.0717e-12
4.55216e-13
1.02992e-12
4.44997e-13
9.90632e-13
4.30898e-13
9.51059e-13
4.26656e-13
9.1031e-13
4.17547e-13
8.71082e-13
4.07686e-13
8.31714e-13
3.99227e-13
7.93993e-13
3.91072e-13
7.56084e-13
3.84277e-13
7.1905e-13
3.76553e-13
6.82069e-13
3.69596e-13
6.4646e-13
3.60521e-13
6.11389e-13
3.53715e-13
5.77541e-13
3.45049e-13
5.44059e-13
3.3892e-13
5.113e-13
3.30843e-13
4.79625e-13
3.2257e-13
4.4875e-13
3.15388e-13
4.18728e-13
3.08185e-13
3.89063e-13
3.01773e-13
3.60233e-13
2.95065e-13
3.31927e-13
2.88648e-13
3.04018e-13
2.82647e-13
2.76412e-13
2.77041e-13
2.4916e-13
2.7146e-13
2.21859e-13
2.6616e-13
1.94496e-13
2.60651e-13
1.66361e-13
2.55186e-13
1.36048e-13
2.50067e-13
1.01328e-13
2.43945e-13
4.87012e-14
2.46745e-13
1.30308e-14
3.7833e-13
1.04684e-14
4.46819e-13
-4.7037e-17
3.44021e-13
7.80879e-22
-1.10912e-20
7.81272e-22
-3.14846e-23
7.86804e-22
7.59972e-24
7.94559e-22
4.55983e-23
7.98229e-22
8.1529e-23
7.97712e-22
1.1503e-22
7.92904e-22
1.4548e-22
7.84271e-22
1.73139e-22
7.7207e-22
1.97541e-22
7.57077e-22
2.18944e-22
7.395e-22
2.37246e-22
7.19751e-22
2.52704e-22
6.98296e-22
2.65577e-22
6.75341e-22
2.75916e-22
6.51198e-22
2.83981e-22
6.26227e-22
2.9003e-22
6.00378e-22
2.94321e-22
5.74115e-22
2.97113e-22
5.47335e-22
2.98302e-22
5.20452e-22
2.98457e-22
4.93258e-22
2.97371e-22
4.66013e-22
2.95407e-22
4.38716e-22
2.92408e-22
4.11522e-22
2.88738e-22
3.84225e-22
2.84395e-22
3.5729e-22
2.79535e-22
3.30252e-22
2.739e-22
3.03627e-22
2.678e-22
2.77054e-22
2.61131e-22
2.50998e-22
2.53996e-22
2.25045e-22
2.46552e-22
1.99609e-22
2.38797e-22
1.7469e-22
2.30783e-22
1.50185e-22
2.22822e-22
1.26404e-22
2.14912e-22
1.03036e-22
2.07312e-22
8.02365e-23
2.00178e-22
5.79026e-23
1.93664e-22
3.60858e-23
1.88184e-22
1.44757e-23
1.83634e-22
1.80325e-22
2.10901e-12
-9.70334e-12
3.97144e-12
-9.05372e-12
5.21348e-12
-7.49906e-12
5.78057e-12
-5.5127e-12
5.83931e-12
-3.75793e-12
5.68201e-12
-2.5711e-12
5.50056e-12
-1.81854e-12
5.32339e-12
-1.28488e-12
5.19195e-12
-8.91216e-13
5.06113e-12
-5.34934e-13
4.92485e-12
-2.34731e-13
4.78928e-12
1.03025e-14
4.66786e-12
2.35245e-13
4.53127e-12
4.74387e-13
4.37907e-12
6.72848e-13
4.21484e-12
8.45096e-13
4.03326e-12
1.0102e-12
3.85204e-12
1.1243e-12
3.66032e-12
1.22818e-12
3.46945e-12
1.29925e-12
3.27983e-12
1.34749e-12
3.09423e-12
1.36805e-12
2.91889e-12
1.36642e-12
2.74768e-12
1.35347e-12
2.58848e-12
1.33246e-12
2.44161e-12
1.28851e-12
2.3055e-12
1.23801e-12
2.18069e-12
1.18463e-12
2.0675e-12
1.12651e-12
1.9623e-12