0 	2.73986e-28 	0 	-7.25912e-21
0.010101 	2.65517e-20 	1.69481e-22 	-4.83148e-20
0.020202 	2.05239e-20 	-6.72474e-23 	-1.00733e-19
0.030303 	-5.03032e-20 	-3.36237e-23 	-3.17875e-21
0.040404 	5.28175e-20 	1.35346e-22 	-6.51172e-20
0.0505051 	-3.42412e-20 	-6.79287e-23 	3.38209e-20
