0.010101 	5.11491e-13 	-5.34155e-16 	5.1538e-15
0.020202 	1.65027e-14 	-4.62208e-17 	2.84429e-16
