/*--------------------------------*- C++ -*----------------------------------*\
  =========                 |
  \\      /  F ield         | OpenFOAM: The Open Source CFD Toolbox
   \\    /   O peration     | Website:  https://openfoam.org
    \\  /    A nd           | Version:  6
     \\/     M anipulation  |
\*---------------------------------------------------------------------------*/
FoamFile
{
    version     2.0;
    format      ascii;
    class       volScalarField;
    location    "390";
    object      Su;
}
// * * * * * * * * * * * * * * * * * * * * * * * * * * * * * * * * * * * * * //

dimensions      [0 0 -1 0 0 0 0];

internalField   nonuniform List<scalar> 
5964
(
0.356983
0.306753
0.263834
0.228919
0.200687
0.177832
0.158872
0.142517
0.127578
0.113126
0.0985252
0.0833199
0.0674474
0.0509859
0.0252551
0.0377432
0.0408967
0.0434216
0.0453683
0.046827
0.0478968
0.0486649
0.0491995
0.0495501
0.0497517
0.0498282
0.0497962
0.0496676
0.0494515
0.0491553
0.0487856
0.0483484
0.0478495
0.0472943
0.0466882
0.0460363
0.0453432
0.0446135
0.0438512
0.0430601
0.0422435
0.0414044
0.0405455
0.0396691
0.0387772
0.0378717
0.036954
0.0360255
0.0350872
0.0341402
0.0331852
0.0322228
0.0312538
0.0302785
0.0292974
0.0283108
0.027319
0.0263224
0.0253211
0.0243153
0.0233052
0.0222911
0.0212731
0.0202513
0.0192259
0.0181971
0.017165
0.01613
0.0150923
0.014052
0.0130096
0.0119654
0.0109197
0.00987273
0.00882428
0.00777373
0.00671972
0.00566047
0.00459432
0.00351751
0.00240598
0.00116611
-0.00034669
-0.00182689
0.357067
0.307515
0.265123
0.230205
0.201982
0.179151
0.160283
0.144051
0.129245
0.114998
0.100541
0.0852704
0.0691
0.0521639
0.0256012
0.0384354
0.0415959
0.0440961
0.0459756
0.0473493
0.0483353
0.0490294
0.0495019
0.0498018
0.0499621
0.050005
0.0499454
0.0497941
0.0495591
0.0492472
0.0488643
0.048416
0.0479078
0.0473447
0.046732
0.0460744
0.0453767
0.0446429
0.0438773
0.0430833
0.0422642
0.041423
0.0405623
0.0396844
0.0387913
0.0378846
0.0369659
0.0360365
0.0350974
0.0341497
0.033194
0.0322311
0.0312615
0.0302857
0.0293042
0.0283172
0.027325
0.026328
0.0253263
0.0243202
0.0233099
0.0222955
0.0212771
0.0202551
0.0192294
0.0182004
0.0171681
0.0161329
0.0150949
0.0140544
0.0130118
0.0119674
0.0109215
0.00987425
0.00882558
0.00777481
0.00672064
0.00566145
0.00459663
0.00352763
0.00245099
0.00133401
0.000131825
-0.000913775
0.357815
0.309406
0.267198
0.232076
0.20385
0.181164
0.162528
0.146487
0.131889
0.117911
0.103627
0.0883335
0.0718418
0.0541309
0.0270091
0.0396893
0.0430347
0.045491
0.0472127
0.0483989
0.0492084
0.0497515
0.0500998
0.050299
0.0503778
0.0503543
0.0502403
0.0500441
0.0497719
0.0494289
0.0490199
0.0485498
0.048023
0.0474445
0.0468186
0.04615
0.0454429
0.0447013
0.0439289
0.0431292
0.0423054
0.0414601
0.0405959
0.0397149
0.0388192
0.0379102
0.0369896
0.0360584
0.0351178
0.0341686
0.0332117
0.0322477
0.031277
0.0303003
0.0293178
0.02833
0.027337
0.0263393
0.0253369
0.0243302
0.0233192
0.0223042
0.0212853
0.0202627
0.0192365
0.018207
0.0171743
0.0161386
0.0151002
0.0140593
0.0130162
0.0119714
0.010925
0.00987731
0.00882817
0.00777696
0.00672237
0.00566292
0.00459879
0.00353523
0.0024828
0.00144568
0.000427247
-0.000390686
0.358545
0.311129
0.2693
0.234327
0.206244
0.183831
0.165489
0.149717
0.135397
0.121588
0.107278
0.0919498
0.0753493
0.0568989
0.0286587
0.0417686
0.0454528
0.0477265
0.0491189
0.0499759
0.050502
0.0508139
0.050977
0.051028
0.0509875
0.050867
0.0506736
0.0504118
0.0500849
0.0496963
0.049249
0.0487467
0.0481928
0.0475914
0.0469463
0.0462615
0.0455406
0.0447874
0.0440052
0.0431973
0.0423663
0.0415151
0.0406457
0.0397603
0.0388607
0.0379485
0.0370249
0.0360911
0.0351482
0.034197
0.0332382
0.0322725
0.0313003
0.0303221
0.0293383
0.0283492
0.0273551
0.0263562
0.0253528
0.0243451
0.0233332
0.0223172
0.0212975
0.0202741
0.0192472
0.0182169
0.0171835
0.0161471
0.0151081
0.0140665
0.0130228
0.0119773
0.0109303
0.00988193
0.00883211
0.00778021
0.0067249
0.00566462
0.00459953
0.00353471
0.00247771
0.00141358
0.000286372
-0.000747717
0.359249
0.312787
0.27139
0.236648
0.208779
0.186752
0.168899
0.153583
0.139587
0.125927
0.111633
0.0965192
0.0803236
0.0617288
0.0325575
0.0458471
0.0494003
0.0509738
0.0517169
0.0520557
0.0521813
0.0521842
0.0521066
0.0519673
0.0517742
0.0515297
0.0512343
0.050888
0.0504907
0.0500431
0.0495463
0.0490023
0.0484134
0.0477824
0.0471124
0.0464065
0.045668
0.0448998
0.044105
0.0432863
0.0424462
0.0415872
0.0407112
0.0398201
0.0389155
0.0379989
0.0370715
0.0361344
0.0351885
0.0342346
0.0332734
0.0323054
0.0313312
0.0303511
0.0293655
0.0283748
0.0273791
0.0263788
0.025374
0.0243649
0.0233518
0.0223347
0.0213138
0.0202893
0.0192614
0.0182302
0.0171958
0.0161586
0.0151186
0.0140762
0.0130317
0.0119853
0.0109374
0.00988817
0.00883746
0.00778464
0.00672832
0.00566671
0.00459935
0.00352893
0.00245117
0.00130245
-9.39706e-05
-0.00160048
0.359442
0.313366
0.272484
0.238273
0.210883
0.189402
0.172189
0.157509
0.144062
0.130879
0.116995
0.102489
0.0874978
0.0720736
0.0574995
0.0559597
0.0555229
0.0552521
0.0549235
0.0545549
0.0541799
0.0538123
0.0534509
0.0530883
0.0527157
0.0523246
0.0519082
0.0514611
0.0509795
0.0504611
0.0499049
0.0493108
0.0486797
0.0480132
0.0473133
0.0465822
0.0458224
0.0450363
0.0442264
0.0433948
0.0425439
0.0416755
0.0407916
0.0398936
0.0389831
0.0380613
0.0371293
0.0361882
0.0352386
0.0342814
0.0333172
0.0323465
0.0313697
0.0303873
0.0293995
0.0284067
0.0274092
0.026407
0.0254005
0.0243898
0.0233751
0.0223565
0.0213342
0.0203084
0.0192792
0.0182467
0.0172112
0.0161729
0.0151318
0.0140884
0.0130428
0.0119954
0.0109464
0.00989607
0.0088443
0.00779041
0.0067329
0.00566975
0.00460002
0.00352596
0.00244361
0.00129141
-0.000103833
-0.00160224
0.359513
0.313583
0.272982
0.239334
0.212685
0.19209
0.175798
0.161913
0.149133
0.136414
0.122956
0.109181
0.0953772
0.0819831
0.0704454
0.0653485
0.0620287
0.0599377
0.0584524
0.057314
0.0563985
0.0556317
0.0549631
0.0543564
0.0537854
0.0532308
0.0526782
0.052117
0.0515396
0.0509406
0.0503164
0.0496651
0.0489858
0.0482788
0.0475448
0.046785
0.046001
0.0451945
0.0443673
0.0435212
0.0426579
0.041779
0.0408859
0.0399802
0.0390628
0.0381351
0.0371978
0.036252
0.0352982
0.0343372
0.0333695
0.0323956
0.0314159
0.0304307
0.0294403
0.0284451
0.0274452
0.0264409
0.0254323
0.0244196
0.0234031
0.0223827
0.0213587
0.0203313
0.0193006
0.0182666
0.0172297
0.01619
0.0151477
0.0141029
0.0130561
0.0120075
0.0109573
0.0099057
0.00885272
0.00779766
0.00673896
0.00567433
0.00460234
0.00352452
0.00243608
0.00127001
-0.000177214
-0.00180782
0.359396
0.313438
0.273202
0.240371
0.214837
0.195461
0.180191
0.167053
0.154782
0.142455
0.129481
0.116241
0.103106
0.0905719
0.0796895
0.0731137
0.0679728
0.064471
0.0619914
0.0601536
0.0587276
0.0575709
0.0565931
0.0557344
0.0549544
0.0542248
0.053525
0.0528396
0.0521573
0.0514697
0.0507709
0.0500568
0.0493247
0.0485732
0.0478018
0.0470106
0.0462002
0.0453715
0.0445256
0.0436635
0.0427867
0.0418962
0.0409933
0.0400789
0.0391541
0.0382198
0.0372767
0.0363256
0.0353671
0.0344018
0.0334302
0.0324526
0.0314695
0.0304812
0.0294878
0.0284898
0.0274873
0.0264804
0.0254694
0.0244545
0.0234357
0.0224133
0.0213874
0.0203581
0.0193255
0.0182899
0.0172513
0.01621
0.0151662
0.01412
0.0130717
0.0120216
0.01097
0.00991709
0.00886279
0.00780652
0.00674675
0.00568112
0.00460803
0.00353035
0.00245499
0.00136947
0.000214961
-0.000864167
0.359356
0.313396
0.273658
0.242002
0.217914
0.19994
0.185741
0.173418
0.161685
0.149663
0.136781
0.123557
0.110477
0.0979651
0.0868871
0.0792929
0.0729642
0.0685067
0.0653113
0.0629301
0.0610749
0.0595668
0.0582943
0.0571858
0.056193
0.0552819
0.0544275
0.0536108
0.0528172
0.0520356
0.0512575
0.0504766
0.0496884
0.0488898
0.0480789
0.0472545
0.0464163
0.0455641
0.0446984
0.0438196
0.0429286
0.0420259
0.0411125
0.040189
0.0392562
0.0383148
0.0373655
0.0364087
0.0354451
0.0344751
0.0334991
0.0325175
0.0315306
0.0305387
0.0295421
0.0285409
0.0275353
0.0265256
0.0255119
0.0244944
0.0234731
0.0224483
0.0214201
0.0203887
0.019354
0.0183164
0.017276
0.0162329
0.0151873
0.0141394
0.0130895
0.0120379
0.0109847
0.00993026
0.00887454
0.00781706
0.00675644
0.0056904
0.00461719
0.00353942
0.00246761
0.00141612
0.000410803
-0.000367401
0.359774
0.314759
0.275994
0.245281
0.222338
0.205518
0.192335
0.180801
0.169578
0.157733
0.144771
0.131233
0.117659
0.104499
0.0925965
0.0839132
0.0768321
0.0718829
0.0682985
0.0655669
0.0633847
0.0615747
0.060029
0.0586776
0.0574719
0.0563764
0.0553634
0.0544114
0.0535029
0.0526241
0.0517641
0.0509143
0.0500684
0.0492214
0.04837
0.0475117
0.046645
0.0457689
0.0448831
0.0439873
0.0430817
0.0421666
0.0412424
0.0403095
0.0393684
0.0384197
0.0374637
0.036501
0.0355319
0.0345569
0.0335762
0.0325902
0.0315992
0.0306034
0.029603
0.0285983
0.0275894
0.0265765
0.0255598
0.0245393
0.0235153
0.0224878
0.0214571
0.0204231
0.0193862
0.0183464
0.0173038
0.0162586
0.0152111
0.0141614
0.0131096
0.0120562
0.0110013
0.00994519
0.00888796
0.00782926
0.00676798
0.00570214
0.00462974
0.00355085
0.00246743
0.00137742
0.000301469
-0.000532607
0.360442
0.316754
0.279255
0.249736
0.227962
0.212167
0.199956
0.189023
0.178101
0.166175
0.153044
0.139031
0.124628
0.110317
0.0969435
0.0867285
0.0794767
0.0745987
0.0709698
0.0680675
0.0656449
0.0635721
0.0617692
0.0601805
0.0587631
0.0574823
0.0563095
0.0552209
0.0541965
0.0532199
0.0522776
0.051359
0.0504554
0.0495603
0.0486687
0.0477769
0.0468821
0.0459825
0.0450768
0.0441642
0.0432442
0.0423168
0.0413818
0.0404395
0.0394901
0.0385339
0.0375711
0.0366022
0.0356274
0.034647
0.0336614
0.0326707
0.0316752
0.0306751
0.0296707
0.0286622
0.0276496
0.0266331
0.025613
0.0245893
0.0235622
0.0225317
0.0214981
0.0204615
0.019422
0.0183796
0.0173347
0.0162873
0.0152375
0.0141857
0.013132
0.0120766
0.0110198
0.00996189
0.00890303
0.00784306
0.00678122
0.00571603
0.00464563
0.00356808
0.0024765
0.00134654
0.000171859
-0.000785595
0.36114
0.318806
0.282807
0.254866
0.234376
0.219511
0.208133
0.197644
0.186913
0.17487
0.161427
0.146724
0.131299
0.115542
0.0999793
0.0867794
0.0809452
0.0768987
0.0735005
0.0705177
0.0678816
0.0655525
0.0634934
0.0616671
0.060038
0.0585726
0.0572414
0.0560179
0.0548795
0.0538072
0.0527848
0.0517993
0.0508401
0.0498988
0.0489687
0.0480449
0.0471234
0.0462014
0.0452768
0.0443481
0.0434144
0.0424751
0.0415298
0.0405783
0.0396206
0.0386569
0.0376873
0.0367121
0.0357313
0.0347454
0.0337545
0.0327588
0.0317586
0.030754
0.0297452
0.0287324
0.0277158
0.0266955
0.0256717
0.0246444
0.0236139
0.0225802
0.0215434
0.0205038
0.0194614
0.0184163
0.0173687
0.0163188
0.0152666
0.0142125
0.0131565
0.012099
0.0110401
0.0099803
0.00891968
0.00785833
0.00679588
0.00573149
0.00466426
0.00359419
0.00252124
0.00144262
0.000387499
-0.000409713
0.362031
0.321712
0.287563
0.26093
0.241398
0.227236
0.216485
0.206243
0.195482
0.183167
0.169329
0.154033
0.137707
0.120636
0.102436
0.0696748
0.082166
0.0795085
0.0762365
0.073054
0.0701327
0.06751
0.0651772
0.0631071
0.0612658
0.0596187
0.0581331
0.0567797
0.0555326
0.0543696
0.0532718
0.0522239
0.051213
0.050229
0.0492636
0.0483104
0.0473645
0.0464221
0.0454803
0.044537
0.0435906
0.0426403
0.0416852
0.0407249
0.0397593
0.0387884
0.037812
0.0368304
0.0358436
0.034852
0.0338556
0.0328546
0.0318494
0.0308399
0.0298265
0.0288092
0.0277882
0.0267637
0.0257358
0.0247047
0.0236704
0.0226331
0.0215929
0.02055
0.0195044
0.0184563
0.0174059
0.0163532
0.0152984
0.0142417
0.0131833
0.0121234
0.0110623
0.0100004
0.00893787
0.00787498
0.00681172
0.00574774
0.00468291
0.0036193
0.00256573
0.00154742
0.000636075
2.54638e-05
0.363137
0.324984
0.292703
0.267533
0.248957
0.235263
0.224859
0.214626
0.203657
0.190996
0.176731
0.160918
0.144025
0.126651
0.109337
0.0939731
0.0885594
0.0837111
0.0795119
0.0757545
0.0723959
0.0694153
0.0667836
0.0644628
0.0624116
0.0605892
0.0589578
0.0574834
0.0561363
0.0548907
0.0537252
0.0526215
0.051565
0.0505435
0.0495473
0.0485688
0.0476018
0.0466417
0.045685
0.0447288
0.0437714
0.0428112
0.0418473
0.040879
0.0399059
0.0389279
0.037945
0.036957
0.0359642
0.0349667
0.0339647
0.0329582
0.0319476
0.030933
0.0299146
0.0288925
0.0278668
0.0268378
0.0258055
0.0247702
0.0237318
0.0226906
0.0216467
0.0206002
0.0195512
0.0184998
0.0174462
0.0163904
0.0153328
0.0142733
0.0132122
0.0121498
0.0110863
0.0100221
0.00895753
0.00789297
0.00682871
0.00576473
0.00470111
0.00364012
0.00259355
0.00159941
0.000750768
0.000223259
0.364639
0.328857
0.298283
0.274489
0.256708
0.243317
0.232996
0.222526
0.21118
0.198042
0.183234
0.166972
0.149833
0.132625
0.116385
0.102902
0.0950257
0.088327
0.08298
0.0784697
0.0745787
0.0711987
0.0682557
0.0656869
0.0634356
0.0614509
0.0596875
0.0581058
0.0566713
0.0553549
0.0541319
0.0529818
0.0518876
0.0508355
0.0498144
0.0488155
0.0478317
0.0468575
0.0458887
0.0449222
0.0439555
0.042987
0.0420154
0.0410399
0.04006
0.0390755
0.0380861
0.037092
0.0360931
0.0350897
0.0340818
0.0330697
0.0320535
0.0310334
0.0300097
0.0289824
0.0279517
0.0269178
0.0258808
0.0248409
0.0237982
0.0227528
0.0217048
0.0206543
0.0196016
0.0185466
0.0174896
0.0164306
0.0153698
0.0143073
0.0132434
0.0121782
0.0111121
0.0100454
0.0089786
0.00791226
0.00684694
0.00578302
0.00472072
0.00366191
0.00261736
0.00162445
0.000775129
0.000241543
0.365828
0.332409
0.303828
0.281243
0.264064
0.250891
0.240342
0.229415
0.217473
0.203718
0.188428
0.171903
0.154738
0.137804
0.122237
0.10927
0.100435
0.0925164
0.0861852
0.0809502
0.0765315
0.0727609
0.0695221
0.0667249
0.0642951
0.0621697
0.0602947
0.0586244
0.0571196
0.0557475
0.0544803
0.0532951
0.0521732
0.051099
0.0500603
0.0490471
0.0480515
0.0470674
0.04609
0.0451159
0.0441422
0.0431672
0.0421892
0.0412076
0.0402216
0.039231
0.0382356
0.0372354
0.0362305
0.035221
0.0342071
0.0331891
0.032167
0.0311412
0.0301118
0.029079
0.0280429
0.0270038
0.0259618
0.024917
0.0238695
0.0228195
0.0217672
0.0207125
0.0196557
0.0185969
0.0175362
0.0164736
0.0154094
0.0143437
0.0132767
0.0122085
0.0111396
0.0100702
0.00900096
0.00793266
0.0068662
0.00580248
0.00474224
0.00368717
0.00264452
0.00163653
0.000719507
6.11907e-05
0.366999
0.335886
0.309107
0.287522
0.270851
0.257889
0.246867
0.235246
0.222422
0.207914
0.192113
0.175326
0.158184
0.14161
0.126554
0.113815
0.104514
0.0958305
0.088779
0.0829618
0.0780995
0.0739961
0.0705074
0.0675214
0.0649479
0.0627126
0.0607536
0.059019
0.0574652
0.0560557
0.0547602
0.0535538
0.0524157
0.0513294
0.0502814
0.0492608
0.0482592
0.04727
0.046288
0.0453093
0.0443312
0.0433515
0.0423687
0.041382
0.0403908
0.0393946
0.0383935
0.0373874
0.0363764
0.0353608
0.0343408
0.0333166
0.0322884
0.0312565
0.0302211
0.0291824
0.0281407
0.0270959
0.0260485
0.0249984
0.0239459
0.022891
0.0218339
0.0207748
0.0197137
0.0186507
0.0175859
0.0165196
0.0154517
0.0143825
0.0133121
0.0122408
0.0111687
0.0100964
0.00902445
0.00795384
0.0068858
0.00582172
0.00476279
0.00370982
0.00266099
0.00159809
0.000476962
-0.000552975
0.368081
0.338938
0.31371
0.293179
0.277037
0.264205
0.252433
0.239867
0.225971
0.210619
0.194255
0.177268
0.160256
0.144024
0.129319
0.116727
0.107183
0.0980587
0.0905482
0.0843333
0.0791552
0.0748116
0.0711438
0.0680259
0.065356
0.0630511
0.0610423
0.0592727
0.057695
0.0562696
0.0549642
0.053752
0.052611
0.0515236
0.0504754
0.0494552
0.0484539
0.0474647
0.0464822
0.0455024
0.0445224
0.0435402
0.0425542
0.0415636
0.0405678
0.0395667
0.0385602
0.0375483
0.0365313
0.0355095
0.0344831
0.0334525
0.0324179
0.0313796
0.0303378
0.0292929
0.028245
0.0271943
0.026141
0.0250853
0.0240273
0.0229672
0.0219051
0.0208411
0.0197753
0.0187079
0.0176389
0.0165685
0.0154967
0.0144237
0.0133497
0.0122749
0.0111995
0.0101239
0.00904889
0.00797545
0.00690501
0.00583919
0.00477923
0.00372427
0.00266109
0.00152198
0.000135059
-0.00138578
0.369089
0.341782
0.317976
0.298352
0.282475
0.269166
0.256165
0.242319
0.227265
0.211254
0.19467
0.177827
0.161011
0.144947
0.130493
0.118056
0.108436
0.0991186
0.0913819
0.0849579
0.0796095
0.0751376
0.0713785
0.0681989
0.0654901
0.063163
0.0611443
0.0593733
0.0577999
0.0563827
0.0550875
0.0538865
0.0527568
0.0516802
0.0506418
0.04963
0.0486357
0.0476519
0.0466732
0.0456957
0.0447166
0.0437339
0.0427462
0.0417528
0.0407534
0.0397478
0.0387361
0.0377186
0.0366956
0.0356674
0.0346344
0.033597
0.0325556
0.0315105
0.030462
0.0294105
0.028356
0.0272989
0.0262395
0.0251777
0.0241139
0.0230482
0.0219807
0.0209115
0.0198408
0.0187686
0.017695
0.0166202
0.0155443
0.0144673
0.0133895
0.0123109
0.0112319
0.0101528
0.00907425
0.00799736
0.00692356
0.00585451
0.00479152
0.0037342
0.00267355
0.00156695
0.000328001
-0.000865837
0.370016
0.344373
0.321835
0.302973
0.287023
0.272695
0.2582
0.243065
0.226862
0.209892
0.192796
0.175879
0.159429
0.14393
0.129964
0.117815
0.10829
0.0989891
0.0912311
0.0847785
0.0794096
0.0749306
0.0711776
0.0680152
0.0653317
0.0630353
0.0610503
0.0593144
0.0577759
0.0563924
0.0551289
0.053957
0.0528535
0.0518
0.0507815
0.0497865
0.0488059
0.0478329
0.0468624
0.0458906
0.044915
0.0439338
0.0429459
0.0419508
0.0409484
0.0399387
0.0389221
0.0378989
0.0368697
0.0358349
0.034795
0.0337506
0.032702
0.0316497
0.030594
0.0295353
0.0284739
0.02741
0.0263439
0.0252758
0.0242058
0.0231341
0.0220608
0.0209861
0.01991
0.0188327
0.0177543
0.0166749
0.0155945
0.0145133
0.0134314
0.0123488
0.0112659
0.010183
0.00910059
0.00801972
0.00694178
0.0058684
0.00480076
0.00373726
0.00266525
0.00153996
0.000300795
-0.000821896
0.370801
0.346552
0.324992
0.306532
0.290028
0.27422
0.258015
0.240948
0.223394
0.205758
0.188531
0.171996
0.156149
0.141243
0.127836
0.116079
0.10678
0.0976756
0.0900821
0.0837736
0.078534
0.0741726
0.0705279
0.0674656
0.0648749
0.0626647
0.0607593
0.0590965
0.0576245
0.056301
0.0550911
0.0539664
0.0529042
0.051886
0.0508975
0.0499274
0.0489672
0.0480102
0.047052
0.0460891
0.0451194
0.0441414
0.0431546
0.0421586
0.0411537
0.0401403
0.0391188
0.0380899
0.0370543
0.0360125
0.0349654
0.0339135
0.0328572
0.0317972
0.0307339
0.0296676
0.0285988
0.0275276
0.0264545
0.0253795
0.0243028
0.0232247
0.0221453
0.0210647
0.0199831
0.0189004
0.0178169
0.0167325
0.0156474
0.0145617
0.0134754
0.0123887
0.0113017
0.0102147
0.00912812
0.00804289
0.00696034
0.00588218
0.00480945
0.0037383
0.00264514
0.00145481
6.6533e-05
-0.00124521
0.371489
0.348334
0.327194
0.308295
0.290783
0.273352
0.255166
0.2364
0.217799
0.199894
0.182987
0.167085
0.151826
0.137322
0.124314
0.112915
0.103933
0.0951871
0.087939
0.0819473
0.0769881
0.0728704
0.0694366
0.0665578
0.0641279
0.0620593
0.0602792
0.0587272
0.0573531
0.0561156
0.0549807
0.053921
0.0529145
0.0519436
0.0509947
0.0500573
0.0491234
0.0481873
0.0472451
0.0462938
0.0453321
0.0443589
0.0433741
0.0423779
0.0413709
0.0403537
0.0393272
0.0382924
0.03725
0.0362009
0.035146
0.0340861
0.0330217
0.0319534
0.0308819
0.0298076
0.0287308
0.0276519
0.0265712
0.0254889
0.0244052
0.0233203
0.0222344
0.0211476
0.0200599
0.0189716
0.0178826
0.016793
0.015703
0.0146125
0.0135217
0.0124305
0.0113392
0.010248
0.00915707
0.00806729
0.00697993
0.00589691
0.00481985
0.00374564
0.00265317
0.00148411
0.000193379
-0.000922988
0.372051
0.349744
0.328619
0.308424
0.28908
0.269561
0.2493
0.229023
0.209632
0.191768
0.175433
0.160409
0.146027
0.132063
0.11939
0.108307
0.099725
0.0915172
0.084815
0.0793252
0.0748024
0.0710545
0.0679321
0.0653171
0.0631126
0.0612385
0.0596271
0.0582218
0.0569753
0.0558483
0.0548087
0.0538306
0.0528933
0.0519805
0.0510799
0.0501819
0.0492798
0.0483687
0.0474455
0.0465082
0.045556
0.0445887
0.0436066
0.0426105
0.0416013
0.0405803
0.0395485
0.0385072
0.0374575
0.0364006
0.0353374
0.0342688
0.0331956
0.0321186
0.0310383
0.0299553
0.02887
0.0277828
0.0266941
0.025604
0.0245128
0.0234208
0.022328
0.0212345
0.0201405
0.0190462
0.0179514
0.0168564
0.0157611
0.0146656
0.01357
0.0124743
0.0113786
0.010283
0.00918763
0.00809323
0.00700098
0.00591295
0.00483143
0.00375499
0.00266796
0.00153383
0.000360535
-0.000558394
0.372465
0.350568
0.328941
0.307269
0.285253
0.263379
0.241226
0.21997
0.200482
0.183116
0.167554
0.153201
0.139239
0.125529
0.113005
0.102124
0.0940562
0.086634
0.0807311
0.0759562
0.0720343
0.06878
0.0660633
0.0637851
0.0618645
0.0602323
0.0588288
0.0576027
0.0565106
0.0555162
0.0545901
0.0537082
0.0528519
0.0520067
0.0511617
0.0503089
0.0494429
0.04856
0.0476581
0.0467363
0.0457947
0.0448337
0.0438545
0.0428583
0.0418467
0.0408213
0.0397837
0.0387354
0.0376778
0.0366123
0.03554
0.0344621
0.0333795
0.032293
0.0312033
0.030111
0.0290166
0.0279206
0.0268233
0.0257249
0.0246258
0.0235261
0.022426
0.0213256
0.0202249
0.0191242
0.0180234
0.0169226
0.0158218
0.0147211
0.0136206
0.0125201
0.0114198
0.0103197
0.00921995
0.00812095
0.00702374
0.00593034
0.00484354
0.00376397
0.0026826
0.00158087
0.000496185
-0.000297381
0.372484
0.350532
0.328402
0.30508
0.279945
0.255271
0.231392
0.209583
0.190435
0.173786
0.159114
0.145404
0.131595
0.117799
0.105004
0.0940288
0.0867091
0.0804833
0.0757309
0.0719225
0.068772
0.0661276
0.0638989
0.0620196
0.0604317
0.0590813
0.0579187
0.0568992
0.0559843
0.0551413
0.0543437
0.0535702
0.0528045
0.0520343
0.0512505
0.0504471
0.0496201
0.0487674
0.0478882
0.0469827
0.0460518
0.0450971
0.0441203
0.0431236
0.0421089
0.0410784
0.0400341
0.0389779
0.0379115
0.0368366
0.0357544
0.0346664
0.0335735
0.0324768
0.031377
0.0302747
0.0291707
0.0280652
0.0269588
0.0258517
0.0247441
0.0236364
0.0225285
0.0214207
0.020313
0.0192056
0.0180984
0.0169916
0.0158851
0.0147789
0.0136732
0.0125678
0.0114628
0.0103582
0.00925406
0.00815053
0.00704835
0.00594906
0.00485507
0.00376743
0.0026798
0.00158097
0.000518676
-0.000239975
0.372372
0.350055
0.327034
0.301947
0.273827
0.246446
0.221049
0.198844
0.180221
0.164415
0.150686
0.137596
0.123658
0.109206
0.095207
0.0832223
0.0773069
0.073035
0.0699216
0.0673606
0.0651419
0.0632032
0.0615254
0.0600908
0.0588721
0.0578339
0.0569378
0.0561466
0.0554266
0.0547494
0.0540919
0.0534358
0.0527675
0.0520772
0.0513582
0.0506065
0.04982
0.0489982
0.0481418
0.0472522
0.0463315
0.0453823
0.0444071
0.0434087
0.0423898
0.0413531
0.040301
0.0392358
0.0381595
0.0370741
0.0359811
0.034882
0.033778
0.0326702
0.0315595
0.0304466
0.0293322
0.0282167
0.0271006
0.0259842
0.0248677
0.0237514
0.0226354
0.0215198
0.0204048
0.0192903
0.0181765
0.0170633
0.0159508
0.014839
0.0137278
0.0126174
0.0115076
0.0103985
0.00928991
0.00818201
0.00707504
0.00596985
0.00486793
0.00376978
0.00267011
0.00156116
0.000494194
-0.000264873
0.372086
0.348887
0.324577
0.297828
0.266948
0.236867
0.210185
0.187873
0.170068
0.155306
0.142615
0.130142
0.115994
0.100208
0.0832553
0.067392
0.0653911
0.0644591
0.0635603
0.062489
0.0613107
0.0601329
0.0590404
0.0580769
0.0572503
0.0565446
0.0559328
0.0553847
0.0548719
0.0543702
0.05386
0.0533265
0.0527591
0.0521509
0.0514979
0.0507981
0.0500517
0.04926
0.0484251
0.0475501
0.0466381
0.0456927
0.0447175
0.0437158
0.0426912
0.0416468
0.0405854
0.0395099
0.0384225
0.0373253
0.0362204
0.0351092
0.0339932
0.0328734
0.031751
0.0306267
0.0295012
0.0283751
0.0272487
0.0261224
0.0249965
0.0238712
0.0227466
0.0216229
0.0205001
0.0193783
0.0182575
0.0171377
0.0160189
0.0149012
0.0137844
0.0126687
0.011554
0.0104403
0.00932741
0.00821536
0.00710408
0.00599392
0.00488597
0.00378205
0.00268343
0.00159592
0.000578627
-0.000130181
0.371622
0.34727
0.321282
0.292577
0.259325
0.226912
0.199306
0.177484
0.16069
0.147009
0.135323
0.123475
0.109362
0.0919754
0.0679157
0.0272428
0.0515897
0.0556057
0.0571665
0.0576171
0.0574736
0.0570496
0.0565424
0.0560569
0.0556327
0.0552708
0.0549535
0.054657
0.0543578
0.0540359
0.0536756
0.0532658
0.0527993
0.0522722
0.0516833
0.0510335
0.0503248
0.0495606
0.0487447
0.0478817
0.0469759
0.046032
0.0450543
0.0440473
0.0430149
0.0419609
0.0408886
0.039801
0.038701
0.0375909
0.0364727
0.0353483
0.0342191
0.0330865
0.0319515
0.030815
0.0296777
0.0285402
0.0274029
0.0262662
0.0251304
0.0239956
0.0228621
0.0217298
0.0205989
0.0194694
0.0183413
0.0172146
0.0160894
0.0149655
0.0138429
0.0127218
0.011602
0.0104835
0.00936638
0.00825038
0.00713541
0.00602158
0.00490992
0.00380349
0.00270769
0.00163207
0.000623232
-0.000105086
0.370972
0.345068
0.317007
0.2864
0.252194
0.219537
0.191877
0.170363
0.154215
0.141199
0.129892
0.118558
0.10506
0.0879533
0.066958
0.0453191
0.0448884
0.0485233
0.0514343
0.0530719
0.0538114
0.0540672
0.0541154
0.0541011
0.0540825
0.0540698
0.0540516
0.0540092
0.0539241
0.0537808
0.0535679
0.0532783
0.0529086
0.0524582
0.051929
0.0513243
0.0506489
0.0499079
0.049107
0.0482521
0.047349
0.0464033
0.0454203
0.0444052
0.0433626
0.0422967
0.0412114
0.04011
0.0389957
0.037871
0.0367383
0.0355994
0.034456
0.0333095
0.032161
0.0310114
0.0298616
0.028712
0.0275632
0.0264155
0.0252692
0.0241245
0.0229816
0.0218404
0.020701
0.0195635
0.0184279
0.017294
0.016162
0.0150317
0.0139032
0.0127764
0.0116514
0.0105281
0.00940658
0.00828675
0.00716856
0.00605216
0.00493839
0.00382906
0.00272334
0.00160543
0.000464701
-0.000478403
0.370154
0.342479
0.312365
0.279694
0.244193
0.211565
0.185188
0.165211
0.150223
0.138029
0.127079
0.116077
0.103265
0.0867983
0.0645836
0.0203807
0.034203
0.0416052
0.046403
0.0490239
0.0504298
0.0512499
0.0518125
0.0522638
0.0526557
0.0529969
0.0532789
0.0534882
0.053612
0.0536404
0.0535671
0.0533895
0.0531082
0.0527264
0.052249
0.0516824
0.0510334
0.0503095
0.049518
0.0486662
0.0477612
0.0468096
0.0458177
0.0447913
0.0437355
0.0426552
0.0415545
0.0404373
0.0393069
0.038166
0.0370172
0.0358625
0.0347037
0.0335422
0.0323793
0.0312158
0.0300526
0.0288903
0.0277294
0.0265702
0.0254129
0.0242578
0.023105
0.0219545
0.0208063
0.0196605
0.018517
0.0173757
0.0162366
0.0150998
0.013965
0.0128325
0.011702
0.0105738
0.00944776
0.00832406
0.00720285
0.00608455
0.00496986
0.00385854
0.00274003
0.00156628
0.00026289
-0.000933476
0.369196
0.339563
0.307522
0.273561
0.238585
0.206977
0.181924
0.163483
0.149733
0.138456
0.127987
0.117327
0.104968
0.0898103
0.0706075
0.0436558
0.0176191
0.036549
0.0428281
0.0456815
0.0473459
0.0485851
0.0496422
0.0505781
0.0514006
0.0521057
0.0526878
0.0531417
0.0534634
0.0536506
0.0537032
0.0536242
0.0534186
0.0530934
0.052657
0.0521184
0.0514871
0.0507722
0.0499831
0.0491282
0.0482158
0.0472536
0.0462485
0.0452069
0.0441347
0.043037
0.0419185
0.0407832
0.0396346
0.0384758
0.0373094
0.0361375
0.0349621
0.0337845
0.0326061
0.0314279
0.0302506
0.0290749
0.0279012
0.0267299
0.0255611
0.0243952
0.0232321
0.0220719
0.0209146
0.0197601
0.0186085
0.0174595
0.0163132
0.0151695
0.0140284
0.0128898
0.0117538
0.0106204
0.00948969
0.00836192
0.00723759
0.0061176
0.00500337
0.0038959
0.00279025
0.00166219
0.000492931
-0.000483794
0.368124
0.336504
0.30321
0.268846
0.234309
0.203881
0.18098
0.164872
0.153162
0.143446
0.134026
0.123861
0.111734
0.0974778
0.0814057
0.0622164
0.0388822
0.0409225
0.0418328
0.0429782
0.0443395
0.0459288
0.047557
0.0490601
0.0503634
0.0514516
0.0523326
0.0530187
0.0535204
0.0538466
0.0540056
0.0540063
0.053859
0.0535748
0.0531652
0.0526422
0.0520174
0.0513021
0.0505069
0.0496416
0.0487154
0.047737
0.0467138
0.045653
0.0445607
0.0434425
0.0423034
0.0411476
0.0399788
0.0388002
0.0376146
0.0364241
0.0352308
0.0340361
0.0328413
0.0316474
0.0304553
0.0292654
0.0280784
0.0268944
0.0257137
0.0245364
0.0233627
0.0221924
0.0210256
0.0198623
0.0187022
0.0175453
0.0163915
0.0152408
0.0140931
0.0129484
0.0118066
0.0106678
0.00953219
0.00840008
0.00727227
0.00615031
0.00503642
0.00393238
0.00283507
0.00173213
0.000640966
-0.000199785
0.367019
0.333316
0.298143
0.262791
0.229641
0.202184
0.182441
0.169108
0.159801
0.152012
0.144117
0.135068
0.123914
0.110425
0.0957128
0.078357
0.0598946
0.0303162
0.0402309
0.0396218
0.0407111
0.0429609
0.0454692
0.0477321
0.0496045
0.0511004
0.0522728
0.0531694
0.0538246
0.0542625
0.0545015
0.0545578
0.0544469
0.054184
0.0537842
0.0532618
0.0526306
0.0519036
0.0510926
0.0502086
0.0492616
0.0482608
0.0472144
0.0461298
0.0450136
0.0438716
0.042709
0.0415301
0.040339
0.0391388
0.0379323
0.0367219
0.0355094
0.0342965
0.0330843
0.031874
0.0306662
0.0294616
0.0282605
0.0270634
0.0258702
0.0246813
0.0234965
0.0223158
0.0211392
0.0199666
0.0187979
0.0176329
0.0164714
0.0153135
0.014159
0.0130079
0.0118602
0.0107159
0.00957514
0.00843838
0.00730666
0.00618205
0.00506723
0.00396181
0.00285086
0.00169119
0.0004669
-0.00053118
0.365971
0.330391
0.294186
0.259022
0.227482
0.202755
0.185854
0.175337
0.168582
0.163025
0.157024
0.149709
0.139941
0.127763
0.11359
0.0968464
0.0777167
0.0546695
0.0231848
0.0341492
0.0353784
0.0392655
0.0433406
0.0466833
0.0492283
0.0511396
0.052576
0.0536458
0.0544161
0.0549292
0.0552151
0.0552971
0.0551963
0.0549318
0.0545218
0.0539829
0.0533307
0.0525794
0.0517421
0.0508303
0.0498549
0.0488252
0.04775
0.0466369
0.0454928
0.0443236
0.0431345
0.0419302
0.0407145
0.0394908
0.0382619
0.03703
0.0357972
0.034565
0.0333346
0.032107
0.0308829
0.0296628
0.0284473
0.0272364
0.0260304
0.0248293
0.0236331
0.0224417
0.0212551
0.020073
0.0188954
0.017722
0.0165527
0.0153874
0.0142259
0.0130683
0.0119145
0.0107645
0.00961843
0.00847672
0.00734058
0.00621237
0.00509479
0.00398418
0.00284936
0.00160171
0.000166205
-0.00109805
0.364956
0.327625
0.290471
0.255709
0.226243
0.204458
0.190614
0.182983
0.17839
0.175337
0.171163
0.166055
0.157968
0.147492
0.134336
0.118498
0.100003
0.078706
0.056281
0.0152285
0.0264227
0.0345198
0.0413976
0.0461778
0.0494205
0.0516863
0.0533171
0.0544983
0.0553307
0.0558733
0.0561658
0.0562386
0.0561175
0.0558253
0.0553827
0.0548084
0.0541193
0.0533304
0.0524553
0.0515063
0.0504944
0.0494292
0.0483195
0.0471732
0.0459971
0.0447972
0.0435789
0.0423466
0.0411043
0.0398553
0.0386024
0.0373478
0.0360935
0.034841
0.0335915
0.0323458
0.0311047
0.0298687
0.0286381
0.0274131
0.0261938
0.0249802
0.0237723
0.0225699
0.0213729
0.0201812
0.0189944
0.0178124
0.0166351
0.0154622
0.0142937
0.0131294
0.0119693
0.0108135
0.00966191
0.00851499
0.00737387
0.00624094
0.00511908
0.00400534
0.00287072
0.00163344
0.000232881
-0.000974192
0.363947
0.324806
0.286886
0.253106
0.226381
0.2078
0.196863
0.191514
0.188607
0.187853
0.1853
0.182582
0.176358
0.167942
0.156549
0.1421
0.124669
0.103563
0.0795592
0.0487003
0.0072512
0.0294059
0.0406327
0.0467954
0.0504601
0.052873
0.0545652
0.0557684