/*--------------------------------*- C++ -*----------------------------------*\
  =========                 |
  \\      /  F ield         | OpenFOAM: The Open Source CFD Toolbox
   \\    /   O peration     | Website:  https://openfoam.org
    \\  /    A nd           | Version:  6
     \\/     M anipulation  |
\*---------------------------------------------------------------------------*/
FoamFile
{
    version     2.0;
    format      ascii;
    class       volScalarField;
    location    "390";
    object      T;
}
// * * * * * * * * * * * * * * * * * * * * * * * * * * * * * * * * * * * * * //

dimensions      [0 0 0 1 0 0 0];

internalField   nonuniform List<scalar> 
5964
(
310.442
309.385
308.482
307.747
307.153
306.672
306.273
305.929
305.615
305.311
305.003
304.683
304.349
304.003
303.639
303.716
303.782
303.834
303.875
303.905
303.928
303.944
303.955
303.962
303.966
303.968
303.967
303.964
303.96
303.954
303.946
303.937
303.927
303.915
303.902
303.889
303.874
303.859
303.843
303.827
303.81
303.792
303.774
303.756
303.738
303.719
303.7
303.68
303.661
303.641
303.621
303.601
303.581
303.561
303.54
303.52
303.499
303.478
303.457
303.436
303.415
303.394
303.373
303.352
303.33
303.309
303.287
303.266
303.244
303.223
303.201
303.179
303.157
303.136
303.114
303.092
303.07
303.048
303.026
303.003
302.98
302.954
302.923
302.892
310.444
309.401
308.509
307.774
307.18
306.7
306.303
305.961
305.65
305.35
305.046
304.724
304.384
304.028
303.657
303.731
303.796
303.848
303.888
303.916
303.937
303.951
303.961
303.967
303.971
303.972
303.97
303.967
303.962
303.956
303.948
303.938
303.928
303.916
303.903
303.89
303.875
303.86
303.844
303.827
303.81
303.793
303.775
303.757
303.738
303.719
303.7
303.681
303.661
303.641
303.621
303.601
303.581
303.561
303.54
303.52
303.499
303.478
303.457
303.437
303.415
303.394
303.373
303.352
303.33
303.309
303.288
303.266
303.244
303.223
303.201
303.179
303.157
303.136
303.114
303.092
303.07
303.048
303.026
303.003
302.981
302.958
302.933
302.911
310.46
309.441
308.553
307.814
307.22
306.742
306.35
306.013
305.705
305.411
305.111
304.789
304.442
304.069
303.675
303.757
303.826
303.877
303.913
303.938
303.955
303.966
303.973
303.978
303.979
303.979
303.976
303.972
303.967
303.96
303.951
303.941
303.93
303.918
303.905
303.891
303.876
303.861
303.845
303.828
303.811
303.794
303.776
303.757
303.739
303.72
303.7
303.681
303.661
303.642
303.622
303.602
303.581
303.561
303.541
303.52
303.499
303.479
303.458
303.437
303.416
303.395
303.373
303.352
303.331
303.309
303.288
303.266
303.244
303.223
303.201
303.179
303.158
303.136
303.114
303.092
303.07
303.048
303.026
303.004
302.982
302.96
302.939
302.922
310.475
309.477
308.597
307.861
307.27
306.798
306.412
306.081
305.779
305.489
305.187
304.865
304.516
304.127
303.688
303.8
303.877
303.924
303.953
303.971
303.982
303.988
303.992
303.993
303.992
303.989
303.985
303.98
303.973
303.965
303.956
303.945
303.934
303.921
303.908
303.894
303.879
303.863
303.847
303.83
303.812
303.795
303.777
303.758
303.739
303.72
303.701
303.682
303.662
303.642
303.622
303.602
303.582
303.562
303.541
303.52
303.5
303.479
303.458
303.437
303.416
303.395
303.374
303.352
303.331
303.309
303.288
303.266
303.245
303.223
303.201
303.179
303.158
303.136
303.114
303.092
303.07
303.048
303.026
303.004
302.982
302.959
302.936
302.914
310.49
309.512
308.641
307.91
307.323
306.86
306.484
306.162
305.867
305.58
305.279
304.961
304.62
304.229
303.691
303.885
303.959
303.992
304.007
304.014
304.017
304.017
304.015
304.012
304.008
304.003
303.997
303.99
303.982
303.972
303.962
303.951
303.938
303.925
303.911
303.897
303.881
303.865
303.849
303.832
303.814
303.796
303.778
303.759
303.741
303.721
303.702
303.683
303.663
303.643
303.623
303.603
303.583
303.562
303.542
303.521
303.5
303.479
303.458
303.437
303.416
303.395
303.374
303.353
303.331
303.31
303.288
303.267
303.245
303.223
303.201
303.18
303.158
303.136
303.114
303.092
303.07
303.048
303.026
303.003
302.981
302.957
302.928
302.897
310.494
309.524
308.664
307.944
307.368
306.916
306.553
306.244
305.962
305.684
305.392
305.087
304.771
304.447
304.14
304.096
304.086
304.081
304.074
304.066
304.058
304.051
304.043
304.036
304.028
304.02
304.011
304.002
303.992
303.981
303.969
303.957
303.944
303.93
303.915
303.9
303.884
303.868
303.851
303.834
303.816
303.798
303.78
303.761
303.742
303.723
303.703
303.684
303.664
303.644
303.624
303.604
303.583
303.563
303.542
303.522
303.501
303.48
303.459
303.438
303.417
303.396
303.374
303.353
303.332
303.31
303.288
303.267
303.245
303.223
303.202
303.18
303.158
303.136
303.114
303.092
303.07
303.048
303.026
303.003
302.981
302.957
302.928
302.897
310.495
309.529
308.674
307.966
307.406
306.972
306.629
306.337
306.068
305.801
305.517
305.228
304.937
304.655
304.412
304.291
304.222
304.178
304.147
304.124
304.105
304.089
304.075
304.062
304.05
304.039
304.027
304.016
304.003
303.991
303.978
303.964
303.95
303.936
303.92
303.904
303.888
303.871
303.854
303.836
303.818
303.8
303.782
303.763
303.744
303.724
303.705
303.685
303.665
303.645
303.625
303.605
303.584
303.564
303.543
303.522
303.502
303.481
303.46
303.439
303.417
303.396
303.375
303.353
303.332
303.31
303.289
303.267
303.245
303.224
303.202
303.18
303.158
303.136
303.114
303.092
303.07
303.048
303.026
303.003
302.981
302.956
302.926
302.892
310.493
309.526
308.679
307.988
307.451
307.043
306.722
306.445
306.187
305.928
305.655
305.376
305.1
304.836
304.607
304.453
304.346
304.273
304.221
304.183
304.153
304.129
304.109
304.091
304.075
304.059
304.045
304.031
304.016
304.002
303.987
303.973
303.957
303.942
303.926
303.909
303.892
303.875
303.857
303.839
303.821
303.803
303.784
303.765
303.745
303.726
303.706
303.687
303.667
303.646
303.626
303.606
303.585
303.565
303.544
303.523
303.502
303.481
303.46
303.439
303.418
303.397
303.375
303.354
303.332
303.311
303.289
303.268
303.246
303.224
303.202
303.18
303.158
303.137
303.115
303.093
303.071
303.048
303.026
303.004
302.981
302.959
302.934
302.912
310.492
309.525
308.689
308.022
307.516
307.137
306.839
306.579
306.332
306.079
305.808
305.53
305.255
304.991
304.758
304.582
304.45
304.357
304.29
304.241
304.202
304.171
304.144
304.121
304.1
304.081
304.064
304.047
304.03
304.014
303.998
303.981
303.965
303.948
303.931
303.914
303.897
303.879
303.861
303.843
303.824
303.805
303.786
303.767
303.748
303.728
303.708
303.688
303.668
303.648
303.628
303.607
303.587
303.566
303.545
303.524
303.503
303.482
303.461
303.44
303.419
303.398
303.376
303.355
303.333
303.311
303.29
303.268
303.246
303.224
303.203
303.181
303.159
303.137
303.115
303.093
303.071
303.049
303.026
303.004
302.981
302.959
302.939
302.922
310.501
309.554
308.738
308.091
307.609
307.255
306.977
306.735
306.498
306.249
305.976
305.692
305.406
305.129
304.879
304.678
304.53
304.427
304.353
304.296
304.25
304.213
304.18
304.152
304.127
304.104
304.083
304.063
304.044
304.026
304.008
303.99
303.973
303.955
303.937
303.92
303.902
303.883
303.865
303.846
303.827
303.808
303.789
303.77
303.75
303.73
303.71
303.69
303.67
303.65
303.629
303.609
303.588
303.567
303.547
303.526
303.505
303.483
303.462
303.441
303.42
303.398
303.377
303.355
303.334
303.312
303.29
303.269
303.247
303.225
303.203
303.181
303.159
303.137
303.115
303.093
303.071
303.049
303.026
303.004
302.981
302.959
302.936
302.919
310.515
309.596
308.806
308.185
307.727
307.395
307.138
306.908
306.678
306.427
306.151
305.856
305.553
305.251
304.97
304.737
304.586
304.484
304.408
304.348
304.297
304.254
304.217
304.183
304.154
304.127
304.103
304.08
304.059
304.038
304.019
304
303.981
303.962
303.944
303.925
303.906
303.888
303.869
303.85
303.831
303.811
303.792
303.772
303.752
303.733
303.713
303.692
303.672
303.652
303.631
303.61
303.59
303.569
303.548
303.527
303.506
303.485
303.463
303.442
303.421
303.399
303.378
303.356
303.334
303.313
303.291
303.269
303.247
303.225
303.203
303.182
303.159
303.137
303.115
303.093
303.071
303.049
303.027
303.004
302.982
302.958
302.934
302.914
310.53
309.639
308.881
308.293
307.862
307.549
307.31
307.089
306.863
306.61
306.327
306.018
305.693
305.361
305.034
304.738
304.616
304.532
304.461
304.399
304.344
304.295
304.253
304.214
304.181
304.15
304.122
304.097
304.073
304.051
304.029
304.009
303.989
303.969
303.95
303.931
303.911
303.892
303.873
303.854
303.834
303.815
303.795
303.775
303.755
303.735
303.715
303.695
303.674
303.654
303.633
303.612
303.591
303.571
303.549
303.528
303.507
303.486
303.465
303.443
303.422
303.4
303.379
303.357
303.335
303.314
303.292
303.27
303.248
303.226
303.204
303.182
303.16
303.138
303.116
303.094
303.072
303.049
303.027
303.005
302.983
302.96
302.938
302.921
310.548
309.7
308.981
308.421
308.01
307.712
307.486
307.27
307.044
306.784
306.493
306.171
305.828
305.469
305.086
304.619
304.642
304.586
304.518
304.452
304.391
304.336
304.288
304.244
304.206
304.172
304.141
304.113
304.087
304.062
304.04
304.018
303.997
303.976
303.956
303.936
303.917
303.897
303.877
303.858
303.838
303.818
303.798
303.778
303.758
303.738
303.718
303.697
303.677
303.656
303.635
303.614
303.593
303.572
303.551
303.53
303.509
303.487
303.466
303.445
303.423
303.401
303.38
303.358
303.336
303.314
303.292
303.271
303.249
303.227
303.205
303.182
303.16
303.138
303.116
303.094
303.072
303.05
303.028
303.005
302.983
302.962
302.943
302.931
310.572
309.769
309.089
308.56
308.169
307.881
307.662
307.446
307.216
306.949
306.649
306.316
305.961
305.595
305.231
304.907
304.775
304.674
304.586
304.508
304.438
304.376
304.321
304.273
304.23
304.192
304.158
304.127
304.099
304.073
304.049
304.026
304.004
303.983
303.962
303.942
303.921
303.901
303.882
303.862
303.842
303.822
303.802
303.781
303.761
303.741
303.72
303.7
303.679
303.658
303.637
303.616
303.595
303.574
303.553
303.532
303.51
303.489
303.467
303.446
303.424
303.403
303.381
303.359
303.337
303.315
303.293
303.271
303.249
303.227
303.205
303.183
303.161
303.139
303.117
303.094
303.072
303.05
303.028
303.006
302.984
302.963
302.946
302.935
310.603
309.85
309.207
308.706
308.332
308.05
307.833
307.613
307.374
307.097
306.786
306.444
306.083
305.721
305.379
305.095
304.91
304.77
304.659
304.565
304.483
304.413
304.352
304.298
304.251
304.21
304.173
304.14
304.11
304.083
304.057
304.034
304.011
303.989
303.968
303.947
303.926
303.906
303.886
303.866
303.845
303.825
303.805
303.785
303.764
303.744
303.723
303.703
303.682
303.661
303.64
303.619
303.598
303.576
303.555
303.534
303.512
303.491
303.469
303.447
303.426
303.404
303.382
303.36
303.338
303.316
303.294
303.272
303.25
303.228
303.206
303.184
303.161
303.139
303.117
303.095
303.073
303.05
303.028
303.006
302.985
302.964
302.946
302.935
310.628
309.925
309.324
308.848
308.487
308.21
307.988
307.758
307.506
307.217
306.895
306.547
306.186
305.83
305.502
305.229
305.022
304.857
304.725
304.616
304.524
304.446
304.378
304.32
304.269
304.225
304.186
304.151
304.12
304.091
304.065
304.04
304.017
303.994
303.973
303.952
303.931
303.91
303.89
303.87
303.849
303.829
303.809
303.788
303.768
303.747
303.726
303.706
303.685
303.664
303.642
303.621
303.6
303.579
303.557
303.536
303.514
303.492
303.471
303.449
303.427
303.405
303.383
303.361
303.339
303.317
303.295
303.273
303.251
303.229
303.206
303.184
303.162
303.14
303.117
303.095
303.073
303.051
303.029
303.007
302.985
302.964
302.945
302.931
310.653
309.998
309.435
308.98
308.63
308.357
308.125
307.88
307.61
307.305
306.973
306.619
306.259
305.91
305.593
305.325
305.107
304.926
304.779
304.658
304.557
304.471
304.399
304.336
304.283
304.236
304.195
304.159
304.127
304.098
304.071
304.045
304.022
303.999
303.977
303.956
303.935
303.915
303.894
303.874
303.853
303.833
303.812
303.792
303.771
303.75
303.73
303.709
303.688
303.666
303.645
303.624
303.602
303.581
303.559
303.538
303.516
303.494
303.472
303.451
303.429
303.407
303.385
303.363
303.341
303.318
303.296
303.274
303.252
303.23
303.207
303.185
303.163
303.14
303.118
303.096
303.073
303.051
303.029
303.007
302.985
302.963
302.94
302.918
310.676
310.062
309.531
309.099
308.76
308.49
308.242
307.978
307.685
307.362
307.018
306.66
306.302
305.961
305.651
305.386
305.163
304.973
304.816
304.687
304.579
304.488
304.412
304.347
304.291
304.243
304.201
304.165
304.132
304.102
304.075
304.05
304.026
304.003
303.981
303.96
303.939
303.919
303.898
303.878
303.857
303.837
303.816
303.796
303.775
303.754
303.733
303.712
303.691
303.67
303.648
303.627
303.605
303.584
303.562
303.54
303.518
303.496
303.474
303.452
303.43
303.408
303.386
303.364
303.342
303.32
303.297
303.275
303.253
303.23
303.208
303.186
303.163
303.141
303.118
303.096
303.074
303.052
303.03
303.008
302.985
302.962
302.933
302.901
310.697
310.122
309.621
309.208
308.874
308.594
308.321
308.029
307.712
307.375
307.026
306.672
306.318
305.98
305.676
305.414
305.189
304.995
304.834
304.7
304.588
304.495
304.417
304.351
304.294
304.246
304.204
304.167
304.134
304.104
304.077
304.052
304.029
304.006
303.985
303.964
303.943
303.922
303.902
303.882
303.861
303.841
303.82
303.8
303.779
303.758
303.737
303.716
303.694
303.673
303.651
303.63
303.608
303.586
303.564
303.543
303.521
303.499
303.476
303.454
303.432
303.41
303.388
303.366
303.343
303.321
303.299
303.276
303.254
303.231
303.209
303.186
303.164
303.141
303.119
303.097
303.074
303.052
303.03
303.008
302.986
302.963
302.937
302.912
310.716
310.177
309.702
309.306
308.97
308.668
308.363
308.045
307.704
307.347
306.987
306.631
306.285
305.959
305.665
305.409
305.186
304.992
304.83
304.696
304.584
304.491
304.413
304.347
304.291
304.243
304.202
304.165
304.133
304.105
304.078
304.054
304.031
304.009
303.988
303.967
303.947
303.926
303.906
303.886
303.865
303.845
303.824
303.804
303.783
303.762
303.741
303.719
303.698
303.676
303.655
303.633
303.611
303.589
303.567
303.545
303.523
303.501
303.479
303.456
303.434
303.412
303.389
303.367
303.345
303.322
303.3
303.277
303.255
303.232
303.21
303.187
303.165
303.142
303.12
303.097
303.075
303.052
303.03
303.008
302.986
302.962
302.936
302.913
310.733
310.223
309.769
309.38
309.033
308.7
308.359
308
307.631
307.26
306.897
306.549
306.216
305.902
305.62
305.373
305.154
304.965
304.807
304.675
304.566
304.475
304.399
304.335
304.281
304.235
304.196
304.161
304.13
304.103
304.077
304.054
304.032
304.011
303.99
303.97
303.95
303.93
303.91
303.89
303.87
303.849
303.829
303.808
303.787
303.766
303.745
303.723
303.702
303.68
303.658
303.636
303.614
303.592
303.57
303.548
303.526
303.503
303.481
303.459
303.436
303.414
303.391
303.369
303.346
303.324
303.301
303.278
303.256
303.233
303.211
303.188
303.165
303.143
303.12
303.097
303.075
303.052
303.03
303.008
302.985
302.96
302.931
302.904
310.747
310.26
309.815
309.418
309.049
308.682
308.3
307.905
307.513
307.136
306.781
306.446
306.125
305.82
305.546
305.306
305.095
304.913
304.762
304.637
304.534
304.448
304.376
304.316
304.266
304.223
304.186
304.153
304.125
304.099
304.075
304.053
304.032
304.012
303.992
303.973
303.953
303.934
303.914
303.894
303.874
303.854
303.833
303.813
303.792
303.77
303.749
303.728
303.706
303.684
303.662
303.64
303.618
303.595
303.573
303.551
303.528
303.506
303.483
303.461
303.438
303.416
303.393
303.37
303.348
303.325
303.302
303.28
303.257
303.234
303.212
303.189
303.166
303.143
303.121
303.098
303.075
303.053
303.03
303.008
302.985
302.961
302.934
302.911
310.759
310.29
309.845
309.42
309.013
308.602
308.176
307.749
307.341
306.965
306.622
306.306
306.003
305.709
305.442
305.209
305.007
304.836
304.697
304.582
304.488
304.41
304.345
304.291
304.245
304.206
304.172
304.143
304.117
304.093
304.072
304.051
304.032
304.013
303.994
303.975
303.956
303.937
303.918
303.899
303.879
303.859
303.838
303.817
303.796
303.775
303.754
303.732
303.71
303.688
303.666
303.644
303.621
303.599
303.576
303.554
303.531
303.509
303.486
303.463
303.441
303.418
303.395
303.372
303.349
303.327
303.304
303.281
303.258
303.235
303.213
303.19
303.167
303.144
303.121
303.099
303.076
303.053
303.031
303.008
302.986
302.962
302.938
302.918
310.768
310.307
309.852
309.396
308.933
308.472
308.006
307.559
307.149
306.783
306.456
306.154
305.86
305.572
305.308
305.079
304.889
304.735
304.612
304.512
304.43
304.363
304.306
304.259
304.219
304.185
304.155
304.13
304.107
304.086
304.067
304.049
304.031
304.013
303.996
303.978
303.96
303.941
303.923
303.903
303.884
303.864
303.843
303.823
303.802
303.78
303.759
303.737
303.715
303.693
303.67
303.648
303.625
303.603
303.58
303.557
303.534
303.511
303.489
303.466
303.443
303.42
303.397
303.374
303.351
303.328
303.305
303.282
303.26
303.237
303.214
303.191
303.168
303.145
303.122
303.099
303.076
303.053
303.031
303.008
302.986
302.963
302.94
302.924
310.768
310.306
309.841
309.35
308.821
308.302
307.799
307.34
306.937
306.587
306.278
305.99
305.699
305.409
305.14
304.909
304.736
304.606
304.507
304.428
304.362
304.307
304.261
304.222
304.189
304.161
304.136
304.115
304.096
304.079
304.062
304.046
304.03
304.014
303.997
303.981
303.963
303.946
303.927
303.909
303.889
303.869
303.849
303.828
303.807
303.786
303.764
303.742
303.72
303.697
303.675
303.652
303.629
303.606
303.583
303.561
303.538
303.515
303.491
303.468
303.445
303.422
303.399
303.376
303.353
303.33
303.307
303.284
303.261
303.238
303.215
303.192
303.169
303.146
303.123
303.1
303.077
303.054
303.031
303.008
302.986
302.963
302.941
302.925
310.766
310.296
309.812
309.284
308.692
308.116
307.582
307.114
306.722
306.39
306.101
305.825
305.532
305.228
304.933
304.681
304.54
304.451
304.386
304.333
304.287
304.246
304.212
304.182
304.156
304.135
304.116
304.099
304.084
304.07
304.057
304.043
304.029
304.015
304
303.984
303.968
303.951
303.933
303.914
303.895
303.875
303.855
303.834
303.813
303.791
303.769
303.747
303.725
303.702
303.679
303.656
303.633
303.61
303.587
303.564
303.541
303.518
303.494
303.471
303.448
303.425
303.401
303.378
303.355
303.332
303.309
303.285
303.262
303.239
303.216
303.193
303.17
303.147
303.123
303.1
303.077
303.054
303.031
303.009
302.986
302.963
302.94
302.924
310.76
310.272
309.76
309.197
308.547
307.914
307.353
306.883
306.509
306.198
305.931
305.669
305.371
305.039
304.682
304.348
304.292
304.273
304.254
304.232
304.207
304.183
304.16
304.14
304.122
304.108
304.095
304.084
304.073
304.062
304.052
304.041
304.029
304.016
304.003
303.988
303.972
303.956
303.939
303.92
303.901
303.882
303.861
303.841
303.819
303.797
303.775
303.753
303.73
303.707
303.684
303.661
303.638
303.615
303.591
303.568
303.544
303.521
303.497
303.474
303.451
303.427
303.404
303.38
303.357
303.334
303.31
303.287
303.264
303.24
303.217
303.194
303.171
303.147
303.124
303.101
303.078
303.055
303.032
303.009
302.986
302.963
302.942
302.927
310.75
310.238
309.691
309.087
308.387
307.705
307.124
306.665
306.311
306.024
305.778
305.528
305.231
304.865
304.39
303.751
304.005
304.088
304.121
304.13
304.127
304.118
304.108
304.098
304.089
304.081
304.075
304.068
304.062
304.055
304.048
304.039
304.03
304.019
304.006
303.993
303.978
303.962
303.945
303.927
303.908
303.889
303.868
303.847
303.826
303.804
303.782
303.759
303.736
303.713
303.69
303.666
303.643
303.619
303.595
303.572
303.548
303.524
303.501
303.477
303.453
303.43
303.406
303.383
303.359
303.335
303.312
303.289
303.265
303.242
303.218
303.195
303.172
303.148
303.125
303.102
303.079
303.055
303.032
303.009
302.986
302.964
302.943
302.928
310.736
310.191
309.601
308.957
308.237
307.55
306.968
306.515
306.175
305.901
305.663
305.425
305.141
304.781
304.339
303.874
303.865
303.941
304.001
304.035
304.051
304.056
304.057
304.057
304.056
304.056
304.056
304.055
304.053
304.05
304.046
304.04
304.032
304.023
304.012
303.999
303.985
303.969
303.953
303.935
303.916
303.896
303.876
303.855
303.833
303.811
303.788
303.765
303.742
303.719
303.695
303.671
303.648
303.624
303.6
303.576
303.552
303.528
303.504
303.48
303.456
303.432
303.409
303.385
303.361
303.337
303.314
303.29
303.267
303.243
303.22
303.196
303.173
303.149
303.126
303.103
303.079
303.056
303.033
303.01
302.987
302.963
302.94
302.92
310.719
310.137
309.503
308.816
308.069
307.382
306.827
306.407
306.091
305.835
305.604
305.373
305.103
304.757
304.289
303.588
303.642
303.797
303.896
303.951
303.98
303.997
304.009
304.019
304.027
304.034
304.04
304.044
304.047
304.047
304.046
304.042
304.036
304.028
304.018
304.006
303.993
303.978
303.961
303.944
303.925
303.905
303.884
303.863
303.841
303.818
303.795
303.772
303.749
303.725
303.701
303.677
303.653
303.629
303.604
303.58
303.556
303.532
303.508
303.483
303.459
303.435
303.411
303.387
303.363
303.339
303.316
303.292
303.268
303.244
303.221
303.197
303.174
303.15
303.127
303.103
303.08
303.057
303.033
303.01
302.987
302.963
302.935
302.911
310.699
310.075
309.401
308.687
307.951
307.285
306.758
306.37
306.081
305.844
305.623
305.399
305.139
304.82
304.416
303.881
303.33
303.691
303.822
303.881
303.916
303.942
303.964
303.983
304.001
304.015
304.027
304.037
304.044
304.047
304.049
304.047
304.043
304.036
304.027
304.016
304.002
303.987
303.971
303.953
303.934
303.914
303.893
303.872
303.849
303.826
303.803
303.779
303.755
303.731
303.707
303.683
303.658
303.634
303.609
303.585
303.56
303.536
303.511
303.487
303.462
303.438
303.414
303.39
303.366
303.342
303.318
303.294
303.27
303.246
303.222
303.198
303.175
303.151
303.128
303.104
303.081
303.057
303.034
303.011
302.988
302.965
302.94
302.92
310.676
310.011
309.311
308.587
307.861
307.22
306.738
306.399
306.153
305.949
305.75
305.536
305.281
304.981
304.643
304.239
303.848
303.782
303.801
303.825
303.853
303.887
303.921
303.952
303.979
304.002
304.02
304.034
304.045
304.052
304.055
304.055
304.052
304.046
304.037
304.026
304.013
303.999
303.982
303.964
303.945
303.924
303.903
303.881
303.858
303.835
303.811
303.787
303.763
303.738
303.713
303.689
303.664
303.639
303.614
303.589
303.564
303.54
303.515
303.49
303.466
303.441
303.417
303.392
303.368
303.344
303.319
303.295
303.271
303.247
303.223
303.2
303.176
303.152
303.129
303.105
303.081
303.058
303.035
303.012
302.989
302.966
302.943
302.926
310.653
309.944
309.204
308.46
307.762
307.185
306.769
306.489
306.293
306.129
305.963
305.772
305.538
305.254
304.944
304.579
304.195
303.79
303.768
303.755
303.778
303.825
303.877
303.924
303.963
303.994
304.019
304.037
304.051
304.06
304.065
304.066
304.064
304.059
304.05
304.039
304.026
304.011
303.994
303.976
303.956
303.935
303.913
303.891
303.868
303.844
303.82
303.795
303.77
303.745
303.72
303.695
303.67
303.644
303.619
303.594
303.569
303.544
303.519
303.494
303.469
303.444
303.419
303.395
303.37
303.346
303.321
303.297
303.273
303.249
303.225
303.201
303.177
303.153
303.129
303.106
303.082
303.059
303.036
303.013
302.989
302.965
302.94
302.919
310.631
309.882
309.121
308.381
307.717
307.197
306.841
306.62
306.477
306.361
306.234
306.08
305.875
305.619
305.32
304.968
304.565
304.094
303.721
303.641
303.667
303.748
303.833
303.902
303.955
303.995
304.025
304.047
304.063
304.074
304.08
304.082
304.08
304.074
304.066
304.054
304.041
304.025
304.008
303.989
303.968
303.947
303.925
303.901
303.878
303.853
303.828
303.803
303.778
303.752
303.727
303.701
303.676
303.65
303.624
303.599
303.573
303.548
303.522
303.497
303.472
303.447
303.422
303.397
303.373
303.348
303.324
303.299
303.275
303.25
303.226
303.202
303.178
303.154
303.13
303.107
303.083
303.059
303.036
303.013
302.989
302.963
302.933
302.907
310.61
309.824
309.042
308.311
307.691
307.232
306.941
306.781
306.684
306.62
306.532
306.424
306.254
306.034
305.757
305.424
305.034
304.586
304.125
303.413
303.48
303.649
303.792
303.892
303.959
304.007
304.041
304.065
304.082
304.094
304.1
304.101
304.099
304.093
304.084
304.072
304.057
304.041
304.023
304.003
303.982
303.96
303.936
303.913
303.888
303.863
303.838
303.812
303.786
303.76
303.734
303.708
303.682
303.656
303.63
303.604
303.578
303.552
303.526
303.501
303.476
303.45
303.425
303.4
303.375
303.35
303.326
303.301
303.276
303.252
303.228
303.203
303.179
303.155
303.131
303.107
303.084
303.06
303.037
303.013
302.99
302.964
302.935
302.91
310.589
309.765
308.967
308.256
307.694
307.303
307.073
306.96
306.899
306.883
306.829
306.772
306.641
306.464
306.224
305.92
305.553
305.109
304.604
303.955
303.161
303.542
303.776
303.905
303.981
304.031
304.067
304.092
304.109
304.12
304.125
304.125
304.122
304.114
304.104
304.091
304.075
304.058
304.039
304.018
303.996
303.973
303.949
303.924
303.899
303.873
303.847
303.821
303.794
303.768
303.741
303.715
303.688
303.662
303.635
303.609
303.583
303.556
303.53
303.505
303.479
303.453
303.428
303.403
303.378
303.353
303.328
303.303
303.278
303.254
303.229
303.205
303.18
303.156
303.132
303.108
303.084
303.061
303.037
303.014
302.99
302.967
302.942
302.923
310.575
309.735
308.946
308.268
307.748
307.407
307.219
307.141
307.113
307.126
307.111
307.098
307.007
306.877
306.679
306.415
306.082
305.671
305.193
304.64
304.048
303.536
303.839
303.959
304.026
304.071
304.104
304.127
304.143
304.152
304.155
304.154
304.148
304.139
304.127
304.112
304.095
304.077
304.056
304.034
304.011
303.987
303.962
303.937
303.91
303.884
303.857
303.83
303.803
303.776
303.749
303.722
303.695
303.668
303.641
303.614
303.587
303.561
303.535
303.508
303.482
303.457
303.431
303.405
303.38
303.355
303.33
303.305
303.28
303.255
303.231
303.206
303.182
303.157
303.133
303.109
303.085
303.061
303.037
303.014
302.991
302.968
302.948
302.934
310.576
309.744
308.973
308.324
307.841
307.533
307.371
307.317
307.316
307.348
307.372
307.386
307.335
307.248
307.095
306.877
306.587
306.224
305.788
305.287
304.744
304.229
304.064
304.063
304.092
304.125
304.152
304.172
304.184
304.19
304.191
304.187
304.178
304.167
304.153
304.136
304.117
304.096
304.074
304.051
304.027
304.002
303.976
303.949
303.922
303.895
303.867
303.84
303.812
303.784
303.756
303.729
303.701
303.674
303.646
303.619
303.592
303.565
303.539
303.512
303.486
303.46
303.434
303.408
303.383
303.357
303.332
303.307
303.282
303.257
303.232
303.207
303.183
303.158
303.134
303.11
303.086
303.061
303.038
303.014
302.99
302.968
302.949
302.937
310.58
309.763
309.021
308.403
307.948
307.663
307.522
307.483
307.501
307.548
307.6
307.633
307.619
307.567
307.457
307.287
307.044
306.729
306.335
305.865
305.32
304.734
304.155
304.15
304.162
304.186
304.209
304.225
304.233
304.235
304.231
304.223
304.212
304.197
304.18
304.161
304.14
304.118
304.094
304.069
304.043
304.017
303.99
303.962
303.934
303.906
303.878
303.849
303.821
303.792
303.764
303.736
303.708
303.68
303.652
303.624
303.597
303.57
303.543
303.516
303.49
303.463
303.437
303.411
303.385
303.36
303.334
303.309
303.283
303.258
303.233
303.209
303.184
303.159
303.135
303.11
303.086
303.062
303.038
303.014
302.99
302.967
302.948
302.936
310.585
309.787
309.073
308.484
308.055
307.792
307.67
307.641
307.671
307.729
307.796
307.845
307.858
307.838
307.765
307.643
307.445
307.174
306.817
306.372
305.842
305.245
304.647
304.241
304.228
304.254
304.274
304.286
304.289
304.285
304.276
304.264
304.248
304.229
304.209
304.187
304.164
304.139
304.114
304.087
304.06
304.032
304.004
303.975
303.946
303.917
303.888
303.859
303.83
303.801
303.772
303.743
303.714
303.686
303.658
303.63
303.602
303.574
303.547
303.52
303.493
303.467
303.44
303.414
303.388
303.362
303.336
303.311
303.285
303.26
303.235
303.21
303.185
303.16
303.136
303.111
303.087
303.062
303.038
303.014
302.989
302.966
302.945
302.931
310.595
309.818
309.128
308.563
308.157
307.916
307.811
307.794
307.831
307.896
307.97
308.03
308.061
308.069
308.027
307.944
307.787
307.558
307.24
306.826
306.311
305.691
304.966
303.998
304.265
304.329
304.35
304.355
304.351
304.34
304.325
304.307
304.286
304.263
304.24
304.215
304.189
304.162
304.134
304.106
304.077
304.048
304.018
303.989
303.959
303.929
303.899
303.869
303.839
303.809
303.78
303.75
303.721
303.692
303.663
303.635
303.607
303.579
303.551
303.524
303.497
303.47
303.443
303.417
303.39
303.364
303.338
303.313
303.287
303.262
303.236
303.211
303.186
303.161
303.136
303.112
303.087
303.063
303.038
303.014
302.989
302.964
302.939
302.916
310.607
309.854
309.185
308.644
308.263
308.042
307.95
307.94
307.981
308.049
308.127
308.195
308.238
308.266
308.25
308.199
308.079
307.887
307.607
307.224
306.73
306.124
305.419
304.706
304.493
304.444
304.438
304.432
304.419
304.4
304.377
304.352
304.326
304.299
304.271
304.242
304.214
304.184
304.155
304.125
304.094
304.064
304.033
304.002
303.971
303.94
303.909
303.879
303.848
303.818
303.787
303.757
303.728
303.698
303.669
303.64
303.612
303.584
303.556
303.528
303.5
303.473
303.446
303.419
303.393
303.367
303.34
303.314
303.289
303.263
303.238
303.212
303.187
303.162
303.137
303.112
303.088
303.063
303.039
303.014
302.989
302.963
302.932
302.898
310.618
309.888
309.242
308.725
308.37
308.167
308.084
308.079
308.124
308.194
308.271
308.343
308.396
308.437
308.444
308.417
308.332
308.176
307.932
307.581
307.115
306.53
305.83
305.105
304.563
304.519
304.523
304.514
304.492
304.463
304.431
304.398
304.366
304.334
304.302
304.27
304.239
304.207
304.175
304.143
304.111
304.079
304.047
304.015
303.983
303.951
303.92
303.888
303.857
303.826
303.795
303.765
303.734
303.704
303.675
303.646
303.617
303.588
303.56
303.532
303.504
303.476
303.449
303.422
303.395
303.369
303.342
303.316
303.29
303.265
303.239
303.214
303.188
303.163
303.138
303.113
303.088
303.064
303.039
303.014
302.989
302.964
302.937
302.914
310.628
309.919
309.298
308.809
308.478
308.29
308.214
308.213
308.26
308.33
308.407
308.48
308.54
308.59
308.616
308.609
308.551
308.424
308.212
307.9
307.463
306.885
306.167
305.318
304.179
304.547
304.618
304.606
304.57
304.528
304.485
304.445
304.406
304.369
304.333
304.297
304.263
304.229
304.195
304.161
304.128
304.094
304.061
304.028
303.995
303.962
303.93
303.898
303.866
303.834
303.803
303.771
303.741
303.71
303.68
303.651
303.621
303.592
303.564
303.535
303.507
303.48
303.452
303.425
303.398
303.371
303.345
303.318
303.292
303.266
303.24
303.215
303.189
303.164
303.139
303.114
303.089
303.064
303.039
303.014
302.989
302.964
302.941
302.923
310.64
309.954
309.36
308.9
308.589
308.412
308.342
308.345
308.392
308.461
308.536
308.609
308.674
308.731
308.77
308.78
308.746
308.652
308.482
308.207
307.795
307.233