/*--------------------------------*- C++ -*----------------------------------*\
  =========                 |
  \\      /  F ield         | OpenFOAM: The Open Source CFD Toolbox
   \\    /   O peration     | Website:  https://openfoam.org
    \\  /    A nd           | Version:  6
     \\/     M anipulation  |
\*---------------------------------------------------------------------------*/
FoamFile
{
    version     2.0;
    format      ascii;
    class       volScalarField;
    location    "800";
    object      dmdt;
}
// * * * * * * * * * * * * * * * * * * * * * * * * * * * * * * * * * * * * * //

dimensions      [0 0 0 0 0 0 0];

internalField   nonuniform List<scalar> 
4800
(
-0.219121
-0.216179
-0.213237
-0.210299
-0.207362
-0.204424
-0.201484
-0.198536
-0.195572
-0.192589
-0.189582
-0.186548
-0.183492
-0.180426
-0.17737
-0.174347
-0.171377
-0.168478
-0.165672
-0.16299
-0.160463
-0.158111
-0.155947
-0.153969
-0.152164
-0.150514
-0.148995
-0.147583
-0.146255
-0.144994
-0.143783
-0.142609
-0.141461
-0.140327
-0.139199
-0.138067
-0.136922
-0.135755
-0.134557
-0.133319
-0.132031
-0.130683
-0.129265
-0.127767
-0.126183
-0.124504
-0.122725
-0.120842
-0.118857
-0.116773
-0.114594
-0.112328
-0.109985
-0.107575
-0.105109
-0.102597
-0.100048
-0.0974695
-0.0948685
-0.0922495
-0.089614
-0.0869575
-0.084275
-0.0815596
-0.0788042
-0.076003
-0.0731475
-0.0702273
-0.0672326
-0.0641532
-0.0609819
-0.0577138
-0.0543435
-0.0508706
-0.0472969
-0.0436301
-0.0398909
-0.0361095
-0.032311
-0.0285033
-0.0246756
-0.0208511
-0.0170377
-0.0132443
-0.00947681
-0.00573919
-0.00203379
0.00163822
0.0052765
0.00888151
0.0124542
0.015996
0.0195084
0.0229932
0.0264522
0.0298871
0.0332999
0.0366924
0.040066
0.0434226
0.0467636
0.0500905
0.0534044
0.0567068
0.0599987
0.0632813
0.0665553
0.0698219
0.0730818
0.0763357
0.0795844
0.0828285
0.0860687
0.0893055
0.0925394
0.0957709
0.0990005
0.102229
0.105456
0.108682
-0.219115
-0.216162
-0.213211
-0.210268
-0.207333
-0.204402
-0.201471
-0.198531
-0.195574
-0.192596
-0.189591
-0.186561
-0.183511
-0.18045
-0.177395
-0.174369
-0.171401
-0.168516
-0.165739
-0.163092
-0.160598
-0.158281
-0.156149
-0.154195
-0.15241
-0.150775
-0.149267
-0.147862
-0.146539
-0.145279
-0.144068
-0.142891
-0.141738
-0.1406
-0.13947
-0.138334
-0.137187
-0.136019
-0.134819
-0.133577
-0.132286
-0.130933
-0.129509
-0.128003
-0.12641
-0.124723
-0.122937
-0.121051
-0.119065
-0.116981
-0.114803
-0.112538
-0.110195
-0.107786
-0.105321
-0.102811
-0.100265
-0.0976885
-0.0950887
-0.0924689
-0.0898306
-0.0871719
-0.0844889
-0.0817744
-0.0790219
-0.0762227
-0.073367
-0.0704446
-0.0674459
-0.0643607
-0.0611811
-0.0579022
-0.0545219
-0.0510402
-0.0474597
-0.0437899
-0.0400507
-0.0362607
-0.0324258
-0.0285633
-0.0246971
-0.0208568
-0.0170341
-0.0132342
-0.00946209
-0.00572118
-0.00201363
0.00165963
0.00529843
0.00890341
0.0124757
0.0160167
0.0195282
0.0230119
0.0264697
0.0299035
0.0333152
0.0367064
0.040079
0.0434345
0.0467745
0.0501004
0.0534135
0.0567151
0.0600062
0.063288
0.0665614
0.0698273
0.0730866
0.07634
0.0795882
0.0828318
0.0860715
0.0893079
0.0925414
0.0957725
0.0990018
0.10223
0.105456
0.108682
-0.219105
-0.216139
-0.213184
-0.21024
-0.207308
-0.204385
-0.201463
-0.198532
-0.195585
-0.192614
-0.189619
-0.186599
-0.183559
-0.180511
-0.177472
-0.174466
-0.171521
-0.168666
-0.165928
-0.163332
-0.160896
-0.158629
-0.156541
-0.154628
-0.152878
-0.151271
-0.149784
-0.148394
-0.14708
-0.145824
-0.144613
-0.143433
-0.142275
-0.141132
-0.139998
-0.138856
-0.137705
-0.136533
-0.13533
-0.134086
-0.13279
-0.131427
-0.129988
-0.128465
-0.126854
-0.125145
-0.123343
-0.121448
-0.119459
-0.117373
-0.115196
-0.112934
-0.110596
-0.108191
-0.105731
-0.103224
-0.100679
-0.0981025
-0.095501
-0.0928775
-0.0902344
-0.0875709
-0.0848842
-0.0821682
-0.0794171
-0.0766194
-0.0737629
-0.0708367
-0.0678301
-0.064731
-0.0615314
-0.0582265
-0.0548149
-0.0512964
-0.0476756
-0.0439621
-0.0401657
-0.0363136
-0.0324489
-0.028588
-0.0247178
-0.020862
-0.0170245
-0.0132128
-0.00943167
-0.00568443
-0.00197274
0.00170284
0.00534256
0.00894738
0.0125187
0.0160582
0.0195677
0.0230493
0.0265048
0.0299362
0.0333455
0.0367345
0.0401048
0.0434582
0.0467962
0.0501202
0.0534315
0.0567314
0.060021
0.0633014
0.0665734
0.0698381
0.0730962
0.0763485
0.0795957
0.0828384
0.0860772
0.0893127
0.0925454
0.0957758
0.0990043
0.102231
0.105457
0.108683
-0.219101
-0.216127
-0.213166
-0.21022
-0.207291
-0.204374
-0.201461
-0.198541
-0.195606
-0.192648
-0.189664
-0.186656
-0.183633
-0.180608
-0.177601
-0.174633
-0.171731
-0.168925
-0.166243
-0.163705
-0.161331
-0.159128
-0.157098
-0.155236
-0.15353
-0.151961
-0.150501
-0.149131
-0.14783
-0.146582
-0.145375
-0.144197
-0.143039
-0.141896
-0.140759
-0.139614
-0.138461
-0.137288
-0.136084
-0.134834
-0.133528
-0.132149
-0.130691
-0.129147
-0.127508
-0.125773
-0.12395
-0.122038
-0.120035
-0.117942
-0.115761
-0.113499
-0.111161
-0.10876
-0.106303
-0.103799
-0.101253
-0.0986729
-0.0960654
-0.0934354
-0.0907864
-0.088118
-0.0854272
-0.0827088
-0.079955
-0.0771541
-0.0742949
-0.0713645
-0.0683494
-0.0652348
-0.0620128
-0.0586754
-0.0552142
-0.0516316
-0.0479436
-0.0441751
-0.0403491
-0.0364761
-0.0325704
-0.0286585
-0.0247497
-0.0208662
-0.0170064
-0.0131772
-0.00938319
-0.00562694
-0.00190954
0.00176911
0.00540983
0.00901409
0.0125837
0.0161207
0.0196272
0.0231053
0.0265573
0.0299852
0.0333909
0.0367764
0.0401434
0.0434936
0.0468286
0.0501497
0.0534584
0.0567558
0.0600431
0.0633213
0.0665913
0.0698542
0.0731105
0.0763612
0.0796069
0.0828481
0.0860856
0.0893198
0.0925513
0.0957805
0.0990079
0.102234
0.105459
0.108683
-0.219098
-0.216117
-0.213152
-0.210206
-0.20728
-0.204371
-0.201467
-0.198558
-0.195636
-0.192692
-0.189723
-0.186734
-0.183732
-0.180734
-0.177762
-0.174844
-0.172005
-0.169269
-0.166659
-0.164194
-0.161889
-0.159754
-0.15779
-0.155988
-0.154334
-0.152808
-0.151383
-0.150037
-0.148755
-0.147522
-0.146325
-0.145154
-0.144001
-0.142861
-0.141726
-0.140585
-0.139436
-0.138267
-0.137062
-0.135808
-0.134494
-0.133105
-0.131632
-0.130063
-0.128394
-0.126631
-0.124781
-0.122841
-0.120814
-0.118703
-0.116507
-0.114234
-0.11189
-0.109484
-0.107022
-0.10451
-0.101956
-0.0993655
-0.0967465
-0.0941061
-0.0914488
-0.0887751
-0.0860792
-0.0833572
-0.080599
-0.0777931
-0.0749271
-0.0719846
-0.0689511
-0.065814
-0.0625665
-0.059196
-0.0556846
-0.0520337
-0.0482655
-0.0444132
-0.0405063
-0.0365751
-0.0326451
-0.0287186
-0.0247823
-0.0208647
-0.0169755
-0.0131236
-0.00931316
-0.00554584
-0.00182173
0.0018602
0.00550156
0.0091045
0.0126714
0.0162046
0.0197068
0.0231802
0.0266273
0.0300503
0.0334512
0.036832
0.0401945
0.0435405
0.0468714
0.0501888
0.0534939
0.056788
0.0600722
0.0633476
0.066615
0.0698753
0.0731294
0.0763779
0.0796216
0.082861
0.0860967
0.0893293
0.0925592
0.0957869
0.0990128
0.102237
0.105461
0.108684
-0.219095
-0.21611
-0.213143
-0.210198
-0.207279
-0.204378
-0.201485
-0.198589
-0.19568
-0.192751
-0.189802
-0.186838
-0.183868
-0.18091
-0.177986
-0.175125
-0.172351
-0.16969
-0.167158
-0.164772
-0.162546
-0.160487
-0.158595
-0.15686
-0.155264
-0.153785
-0.152398
-0.151084
-0.149827
-0.148615
-0.147435
-0.146279
-0.145138
-0.144007
-0.142879
-0.141747
-0.140609
-0.139449
-0.138251
-0.137002
-0.13569
-0.134298
-0.132811
-0.131221
-0.129526
-0.127736
-0.125858
-0.123887
-0.121828
-0.119684
-0.117459
-0.11516
-0.112794
-0.110371
-0.107893
-0.105362
-0.102786
-0.100174
-0.0975354
-0.0948793
-0.0922112
-0.0895328
-0.0868318
-0.0841053
-0.0813375
-0.0785184
-0.0756338
-0.0726686
-0.0696091
-0.0664439
-0.0631661
-0.0597632
-0.0562261
-0.0525603
-0.0487714
-0.0448769
-0.040908
-0.036894
-0.0328577
-0.0288317
-0.024823
-0.0208531
-0.0169257
-0.0130462
-0.0092168
-0.0054373
-0.00170634
0.00197834
0.00561937
0.00921973
0.0127824
0.0163105
0.0198068
0.023274
0.0267147
0.0301314
0.0335261
0.036901
0.0402579
0.0435985
0.0469244
0.0502371
0.0535378
0.0568279
0.0601083
0.0633801
0.0666442
0.0699015
0.0731527
0.0763986
0.0796398
0.0828769
0.0861104
0.0893409
0.0925688
0.0957947
0.0990188
0.102242
0.105464
0.108685
-0.219097
-0.216114
-0.213148
-0.210206
-0.207291
-0.204399
-0.201517
-0.198633
-0.195739
-0.192827
-0.189901
-0.186968
-0.184041
-0.181135
-0.178272
-0.175474
-0.17277
-0.170184
-0.167736
-0.165438
-0.163298
-0.16132
-0.159503
-0.157838
-0.156303
-0.154874
-0.153531
-0.152252
-0.151028
-0.149845
-0.148689
-0.147553
-0.146429
-0.145313
-0.1442
-0.143086
-0.141962
-0.140819
-0.139637
-0.138404
-0.137103
-0.135712
-0.134216
-0.132612
-0.1309
-0.12909
-0.127189
-0.125188
-0.123098
-0.120918
-0.118654
-0.116317
-0.113915
-0.111458
-0.108946
-0.106379
-0.10377
-0.101128
-0.0984664
-0.0957968
-0.0931232
-0.0904425
-0.087736
-0.0850026
-0.0822214
-0.0793844
-0.0764721
-0.0734673
-0.0703594
-0.0671442
-0.0638172
-0.0603697
-0.0567981
-0.0531043
-0.0492856
-0.0453508
-0.0413191
-0.0372227
-0.0330921
-0.0289569
-0.0248519
-0.0208183
-0.0168468
-0.0129372
-0.009088
-0.00529664
-0.00155985
0.00212611
0.00576509
0.00936102
0.0129177
0.0164387
0.0199273
0.0233866
0.0268194
0.0302283
0.0336155
0.0369832
0.0403332
0.0436674
0.0469873
0.0502943
0.0535898
0.056875
0.0601508
0.0634184
0.0666787
0.0699323
0.0731802
0.076423
0.0796612
0.0828956
0.0861265
0.0893546
0.0925802
0.0958038
0.0990258
0.102247
0.105466
0.108686
-0.2191
-0.216125
-0.213167
-0.210232
-0.207324
-0.204439
-0.201566
-0.198693
-0.195813
-0.192923
-0.190026
-0.187129
-0.184245
-0.181393
-0.178596
-0.175876
-0.173257
-0.170759
-0.1684
-0.166191
-0.164137
-0.162241
-0.1605
-0.158905
-0.157435
-0.156061
-0.154768
-0.153534
-0.152348
-0.151198
-0.150071
-0.148962
-0.147862
-0.146768
-0.145676
-0.144583
-0.14348
-0.142362
-0.141206
-0.139996
-0.138712
-0.137327
-0.135834
-0.134228
-0.13251
-0.13069
-0.128774
-0.126753
-0.124637
-0.122423
-0.120122
-0.117746
-0.115302
-0.112801
-0.11024
-0.107625
-0.104973
-0.102295
-0.0996066
-0.0969192
-0.0942326
-0.09154
-0.0888197
-0.0860702
-0.0832686
-0.0804019
-0.0774445
-0.0743815
-0.0712063
-0.0679171
-0.0645143
-0.0609979
-0.057368
-0.0536215
-0.0497541
-0.045767
-0.0416694
-0.0374914
-0.0332655
-0.029029
-0.0248368
-0.0207405
-0.0167254
-0.0127867
-0.00891947
-0.00511847
-0.00137835
0.00230629
0.00594062
0.00952961
0.0130779
0.0165896
0.0200685
0.023518
0.0269411
0.0303406
0.0337189
0.037078
0.0404201
0.0437467
0.0470596
0.0503601
0.0536495
0.056929
0.0601996
0.0634624
0.0667181
0.0699677
0.0732117
0.0764508
0.0796857
0.0829169
0.086145
0.0893702
0.0925932
0.0958143
0.0990339
0.102252
0.10547
0.108687
-0.219108
-0.216148
-0.213203
-0.210279
-0.207379
-0.204501
-0.201638
-0.198778
-0.195916
-0.193049
-0.19018
-0.18732
-0.184483
-0.181692
-0.17897
-0.176337
-0.173811
-0.171409
-0.169145
-0.167028
-0.165064
-0.163255
-0.161597
-0.160075
-0.158668
-0.15735
-0.156108
-0.154922
-0.153777
-0.152666
-0.151573
-0.150495
-0.149424
-0.148357
-0.14729
-0.146222
-0.145145
-0.144057
-0.142931
-0.141748
-0.140487
-0.139119
-0.137642
-0.136048
-0.134339
-0.132525
-0.130608
-0.128579
-0.126447
-0.124209
-0.12188
-0.119468
-0.11698
-0.114425
-0.111805
-0.109133
-0.106427
-0.1037
-0.100972
-0.0982523
-0.0955421
-0.0928266
-0.0900802
-0.0872996
-0.0844594
-0.0815376
-0.0785116
-0.0753709
-0.0721127
-0.0687351
-0.0652383
-0.0616269
-0.0579101
-0.0540845
-0.0501437
-0.0460882
-0.0419212
-0.0376591
-0.0333418
-0.029019
-0.0247517
-0.0205997
-0.0165463
-0.0125835
-0.00870301
-0.00489694
-0.00115775
0.00252166
0.00614777
0.00972659
0.0132635
0.0167633
0.0202302
0.0236678
0.0270794
0.0304679
0.0338357
0.037185
0.0405178
0.0438359
0.0471407
0.0504338
0.0537163
0.0569895
0.0602542
0.0635116
0.0667623
0.0700071
0.0732468
0.0764819
0.0797131
0.0829408
0.0861655
0.0893877
0.0926077
0.095826
0.0990429
0.102259
0.105474
0.108688
-0.219118
-0.216176
-0.21325
-0.210342
-0.207453
-0.204584
-0.20173
-0.198883
-0.19604
-0.193198
-0.190363
-0.187547
-0.184768
-0.182045
-0.179401
-0.176857
-0.174431
-0.172133
-0.169971
-0.167951
-0.166078
-0.164355
-0.162778
-0.161331
-0.15999
-0.158735
-0.157548
-0.156412
-0.155311
-0.154241
-0.153187
-0.152143
-0.151104
-0.150067
-0.149029
-0.147988
-0.146941
-0.145883
-0.144788
-0.143639
-0.142407
-0.141069
-0.139624
-0.138058
-0.136375
-0.134579
-0.132673
-0.13065
-0.128514
-0.126266
-0.123916
-0.121469
-0.118934
-0.116316
-0.11363
-0.110891
-0.10812
-0.105333
-0.102555
-0.0997911
-0.097044
-0.094287
-0.0914931
-0.0886574
-0.0857466
-0.0827383
-0.0796184
-0.0763818
-0.073025
-0.0695454
-0.0659447
-0.0622268
-0.0584034
-0.0544779
-0.0504452
-0.0463008
-0.0420475
-0.037699
-0.0332974
-0.0289017
-0.0245722
-0.0203738
-0.0162917
-0.0123144
-0.00842939
-0.00462581
-0.000893934
0.00277482
0.00638809
0.00995277
0.0134749
0.0169598
0.0204121
0.0238356
0.0272337
0.0306094
0.0339652
0.0373034
0.0406258
0.0439342
0.0472301
0.050515
0.0537899
0.0570559
0.0603142
0.0635655
0.0668106
0.0700503
0.0732853
0.076516
0.079743
0.0829669
0.086188
0.0894068
0.0926236
0.0958388
0.0990527
0.102266
0.105478
0.10869
-0.219128
-0.216207
-0.2133
-0.210409
-0.207536
-0.204678
-0.201837
-0.199008
-0.196185
-0.19337
-0.190575
-0.187814
-0.185104
-0.182461
-0.179905
-0.177458
-0.175134
-0.17294
-0.170881
-0.168961
-0.167185
-0.165551
-0.164057
-0.162685
-0.161412
-0.16022
-0.159088
-0.158002
-0.156947
-0.155917
-0.154902
-0.153895
-0.152892
-0.151888
-0.150881
-0.149871
-0.148854
-0.147826
-0.146764
-0.145654
-0.144459
-0.143166
-0.141762
-0.140238
-0.138594
-0.13683
-0.134949
-0.13294
-0.130809
-0.128561
-0.126195
-0.123716
-0.121129
-0.118443
-0.115685
-0.112873
-0.110029
-0.107175
-0.104338
-0.101521
-0.0987234
-0.0959038
-0.0930352
-0.0901117
-0.0870976
-0.083976
-0.0807357
-0.0773734
-0.0738905
-0.0702902
-0.0665748
-0.0627474
-0.058814
-0.0547798
-0.0506423
-0.0463989
-0.0420581
-0.0376314
-0.0331485
-0.0286695
-0.0242693
-0.0200328
-0.0159376
-0.0119625
-0.00808778
-0.00429841
-0.000582963
0.003068
0.00666271
0.0102086
0.013712
0.0171788
0.0206136
0.0240206
0.0274032
0.0307644
0.0341067
0.0374324
0.0407433
0.044041
0.0473271
0.0506028
0.0538694
0.0571278
0.060379
0.0636237
0.0668628
0.070097
0.0733267
0.0765527
0.0797753
0.082995
0.0862122
0.0894273
0.0926406
0.0958525
0.0990632
0.102273
0.105482
0.108691
-0.219138
-0.216237
-0.213348
-0.210475
-0.207617
-0.204776
-0.20195
-0.199139
-0.196342
-0.193564
-0.19082
-0.188125
-0.185493
-0.182944
-0.18049
-0.178146
-0.175925
-0.173837
-0.171884
-0.170067
-0.168387
-0.166842
-0.165428
-0.164129
-0.162923
-0.161792
-0.160716
-0.159682
-0.158675
-0.15769
-0.156717
-0.155749
-0.154782
-0.153814
-0.15284
-0.151861
-0.150877
-0.14988
-0.148853
-0.147781
-0.146631
-0.145392
-0.144042
-0.142572
-0.140978
-0.139256
-0.137407
-0.135422
-0.133306
-0.131059
-0.128679
-0.126171
-0.123535
-0.120779
-0.117941
-0.115048
-0.112125
-0.109201
-0.106299
-0.103418
-0.100547
-0.0976359
-0.0946684
-0.0916325
-0.0884911
-0.0852278
-0.0818363
-0.0783206
-0.0746883
-0.0709469
-0.0671001
-0.0631509
-0.0591013
-0.0549531
-0.050704
-0.0463519
-0.0419087
-0.0373858
-0.0328141
-0.0282532
-0.0237817
-0.0195246
-0.0154466
-0.0115044
-0.00766474
-0.00390759
-0.000221244
0.00340283
0.00697215
0.0104938
0.0139743
0.0174194
0.0208338
0.0242218
0.0275868
0.0309318
0.0342592
0.0375711
0.0408693
0.0441554
0.0474308
0.0506967
0.0539543
0.0572044
0.060448
0.0636857
0.0669184
0.0701466
0.0733708
0.0765917
0.0798095
0.0830248
0.0862379
0.0894491
0.0926587
0.0958671
0.0990744
0.102281
0.105487
0.108693
-0.219147
-0.216264
-0.213392
-0.210536
-0.207697
-0.204875
-0.202068
-0.19928
-0.196517
-0.19379
-0.191112
-0.188496
-0.185954
-0.1835
-0.181148
-0.178912
-0.176802
-0.174823
-0.172974
-0.171257
-0.169673
-0.168218
-0.166886
-0.165664
-0.164528
-0.16346
-0.16244
-0.161456
-0.160498
-0.159558
-0.158629
-0.157702
-0.156774
-0.15584
-0.1549
-0.153955
-0.153005
-0.152042
-0.151052
-0.150021
-0.148921
-0.147739
-0.146451
-0.145041
-0.143502
-0.141832
-0.140025
-0.138072
-0.135975
-0.133731
-0.131338
-0.128799
-0.126114
-0.123283
-0.120361
-0.117385
-0.114382
-0.111381
-0.1084
-0.105435
-0.102466
-0.0994499
-0.0963671
-0.0931899
-0.0898909
-0.0864563
-0.0828887
-0.0791982
-0.0753967
-0.0714958
-0.0675021
-0.0634172
-0.0592403
-0.05497
-0.0506033
-0.0461422
-0.0415935
-0.0369603
-0.0322673
-0.0275812
-0.0230055
-0.0187605
-0.0147607
-0.0109082
-0.00714467
-0.00344645
0.000193877
0.00377995
0.00731611
0.0108078
0.0142608
0.0176805
0.0210716
0.0244381
0.0277835
0.0311105
0.0344214
0.0377183
0.0410028
0.0442764
0.0475404
0.0507958
0.0540438
0.0572851
0.0605206
0.0637509
0.0669768
0.0701986
0.0734171
0.0766326
0.0798454
0.0830561
0.0862648
0.0894719
0.0926777
0.0958824
0.0990862
0.102289
0.105492
0.108694
-0.219156
-0.216291
-0.213437
-0.210598
-0.207777
-0.204975
-0.202194
-0.199439
-0.196723
-0.194059
-0.191456
-0.188925
-0.186477
-0.184127
-0.181887
-0.179767
-0.177772
-0.175905
-0.174166
-0.172553
-0.171067
-0.169702
-0.16845
-0.167299
-0.166228
-0.16522
-0.164256
-0.163325
-0.162419
-0.161528
-0.160644
-0.159758
-0.158868
-0.15797
-0.157064
-0.156155
-0.15524
-0.154315
-0.153365
-0.152377
-0.151329
-0.150207
-0.148985
-0.147638
-0.146159
-0.144545
-0.142787
-0.140869
-0.138793
-0.136551
-0.134141
-0.131564
-0.128821
-0.125912
-0.1229
-0.119837
-0.116746
-0.113655
-0.110578
-0.107505
-0.10442
-0.101279
-0.0980524
-0.094711
-0.0912325
-0.0876049
-0.0838424
-0.0799616
-0.0759791
-0.0719081
-0.067755
-0.0635235
-0.0592112
-0.0548108
-0.050327
-0.0457598
-0.0410984
-0.0363213
-0.0314321
-0.0265122
-0.02174
-0.017594
-0.0138016
-0.0101394
-0.00651462
-0.00291118
0.000662703
0.00419842
0.00769322
0.011149
0.0145699
0.0179605
0.0213253
0.0246679
0.0279916
0.031299
0.0345921
0.0378729
0.0411427
0.044403
0.0476548
0.0508992
0.054137
0.0573691
0.0605961
0.0638187
0.0670374
0.0702527
0.0734651
0.076675
0.0798827
0.0830885
0.0862927
0.0894955
0.0926973
0.0958982
0.0990983
0.102298
0.105497
0.108696
-0.219168
-0.216322
-0.213483
-0.21066
-0.20786
-0.205086
-0.20234
-0.19963
-0.196972
-0.194378
-0.191857
-0.189419
-0.187077
-0.18484
-0.182717
-0.180713
-0.178834
-0.17708
-0.17545
-0.173941
-0.17255
-0.171274
-0.170104
-0.169027
-0.168026
-0.167083
-0.166179
-0.165306
-0.164453
-0.163611
-0.162771
-0.161925
-0.161072
-0.16021
-0.159342
-0.158471
-0.157596
-0.156711
-0.155806
-0.154863
-0.153869
-0.152807
-0.15165
-0.150366
-0.148949
-0.147391
-0.145678
-0.143793
-0.141734
-0.139492
-0.137055
-0.134427
-0.131612
-0.128626
-0.125515
-0.122351
-0.119155
-0.115956
-0.112766
-0.10957
-0.106346
-0.103052
-0.0996535
-0.0961251
-0.092447
-0.0886125
-0.0846438
-0.0805648
-0.076395
-0.0721463
-0.0678305
-0.0634476
-0.0589955
-0.0544712
-0.049882
-0.0452155
-0.0404241
-0.0354433
-0.0302225
-0.0248265
-0.0195842
-0.0158145
-0.0124996
-0.00918505
-0.00577777
-0.00230712
0.00118084
0.00465491
0.00810082
0.0115151
0.0148995
0.0182575
0.0215931
0.0249095
0.0282097
0.0314958
0.0347699
0.0380334
0.0412878
0.044534
0.0477731
0.0510059
0.0542332
0.0574556
0.0606739
0.0638884
0.0670997
0.0703083
0.0735144
0.0767185
0.0799208
0.0831217
0.0863213
0.0895198
0.0927174
0.0959143
0.0991107
0.102307
0.105502
0.108698
-0.219173
-0.216341
-0.213523
-0.210724
-0.207949
-0.205206
-0.202505
-0.199852
-0.197263
-0.194748
-0.19232
-0.189987
-0.187757
-0.185636
-0.183631
-0.181746
-0.179984
-0.178347
-0.17683
-0.175427
-0.174137
-0.172954
-0.171867
-0.170866
-0.169936
-0.169058
-0.168217
-0.167405
-0.166608
-0.165817
-0.165021
-0.164216
-0.163402
-0.162579
-0.161754
-0.160926
-0.160094
-0.159255
-0.158396
-0.157502
-0.156563
-0.155561
-0.154467
-0.153243
-0.151884
-0.150378
-0.148702
-0.146843
-0.144794
-0.142539
-0.14006
-0.137365
-0.134459
-0.131374
-0.128141
-0.124858
-0.121546
-0.118227
-0.114909
-0.111573
-0.108194
-0.104727
-0.101137
-0.0973986
-0.0934967
-0.0894373
-0.0852506
-0.0809646
-0.0766016
-0.0721792
-0.067698
-0.0631639
-0.0585774
-0.053943
-0.0492568
-0.0444901
-0.0395632
-0.0343393
-0.028633
-0.0222885
-0.0155995
-0.0132283
-0.0108981
-0.00810889
-0.00497485
-0.00165581
0.00173732
0.0051434
0.00853501
0.0119031
0.015247
0.0185693
0.021873
0.025161
0.0284358
0.0316993
0.0349532
0.0381986
0.0414367
0.0446682
0.0478941
0.0511149
0.0543313
0.0575439
0.0607531
0.0639594
0.0671631
0.0703647
0.0735645
0.0767627
0.0799596
0.0831554
0.0863502
0.0895443
0.0927378
0.0959307
0.0991233
0.102316
0.105508
0.1087
-0.219177
-0.216357
-0.213555
-0.210778
-0.208033
-0.205329
-0.202678
-0.200092
-0.197582
-0.195159
-0.192832
-0.19061
-0.188496
-0.186495
-0.184613
-0.182851
-0.181212
-0.179694
-0.178292
-0.176999
-0.175811
-0.174723
-0.173727
-0.172811
-0.171959
-0.171156
-0.170387
-0.169641
-0.168903
-0.168164
-0.167415
-0.166655
-0.165885
-0.165109
-0.164331
-0.163553
-0.16277
-0.161979
-0.161171
-0.16033
-0.159449
-0.158505
-0.157469
-0.156302
-0.154995
-0.15353
-0.151885
-0.150038
-0.147979
-0.145685
-0.143136
-0.140346
-0.137323
-0.134111
-0.130747
-0.127322
-0.123872
-0.120416
-0.116956
-0.113463
-0.109908
-0.106249
-0.102451
-0.0984878
-0.094346
-0.0900436
-0.0856216
-0.0811197
-0.0765637
-0.0719592
-0.0673137
-0.0626363
-0.0579355
-0.0532234
-0.04848
-0.0436555
-0.0386408
-0.0332263
-0.027041
-0.0191783
-0.00674683
-0.0102054
-0.0094014
-0.00711405
-0.00419317
-0.000993113
0.00231696
0.00565661
0.00899147
0.0123098
0.0156098
0.0188932
0.0221625
0.0254201
0.028668
0.0319076
0.0351403
0.0383668
0.041588
0.0448044
0.0480166
0.0512252
0.0544305
0.0576329
0.060833
0.0640309
0.067227
0.0704216
0.0736149
0.0768072
0.0799986
0.0831892
0.0863793
0.0895689
0.0927582
0.0959471
0.0991359
0.102324
0.105513
0.108701
-0.21918
-0.216366
-0.213573
-0.210812
-0.208094
-0.20543
-0.202834
-0.200318
-0.197894
-0.19557
-0.193352
-0.191246
-0.189253
-0.187378
-0.185622
-0.183988
-0.182476
-0.181084
-0.179805
-0.178631
-0.177557
-0.176576
-0.175681
-0.174859
-0.174096
-0.173376
-0.172686
-0.172013
-0.171341
-0.170663
-0.169971
-0.169267
-0.168551
-0.16783
-0.16711
-0.16639
-0.165663
-0.164929
-0.164178
-0.163398
-0.16258
-0.161696
-0.160714
-0.1596
-0.158338
-0.1569
-0.155263
-0.153396
-0.151281
-0.148899
-0.146239
-0.143318
-0.140154
-0.1368
-0.133295
-0.129708
-0.126106
-0.122501
-0.118885
-0.115221
-0.111475
-0.107605
-0.103579
-0.0993696
-0.0949703
-0.0904104
-0.0857428
-0.0810147
-0.0762496
-0.0714653
-0.066672
-0.0618774
-0.0570904
-0.0523225
-0.0475427
-0.042698
-0.0376908
-0.032341
-0.0264048
-0.0196034
-0.0117484
-0.0108909
-0.00901872
-0.00647093
-0.003512
-0.000344431
0.0029104
0.0061899
0.00946685
0.0127322
0.0159849
0.0192265
0.0224591
0.0256845
0.0289041
0.0321188
0.0353294
0.0385364
0.0417402
0.0449412
0.0481395
0.0513356
0.0545297
0.057722
0.0609127
0.0641022
0.0672906
0.0704782
0.0736651
0.0768514
0.0800373
0.0832229
0.0864082
0.0895934
0.0927785
0.0959634
0.0991484
0.102333
0.105518
0.108703
-0.219179
-0.216363
-0.213569
-0.210814
-0.208114
-0.205485
-0.202941
-0.200496
-0.198158
-0.195933
-0.193827
-0.191841
-0.189975
-0.18823
-0.186607
-0.185108
-0.18373
-0.182472
-0.181324
-0.180278
-0.179327
-0.178464
-0.177682
-0.17697
-0.176309
-0.175688
-0.175091
-0.174505
-0.173914
-0.173313
-0.172696
-0.172063
-0.171418
-0.170768
-0.170119
-0.16947
-0.168816
-0.168152
-0.167471
-0.166764
-0.166015
-0.165191
-0.164266
-0.163201
-0.161967
-0.160534
-0.158873
-0.156952
-0.154746
-0.152238
-0.149426
-0.146331
-0.142986
-0.139456
-0.135784
-0.132021
-0.128256
-0.124489
-0.120703
-0.116856
-0.112902
-0.108803
-0.104526
-0.10005
-0.09538
-0.0905554
-0.0856298
-0.0806535
-0.0756688
-0.0707018
-0.0657678
-0.0608736
-0.0560235
-0.0512231
-0.0464423
-0.0416274
-0.0367022
-0.0315627
-0.0261409
-0.0204994
-0.0152212
-0.0118768
-0.00894813
-0.00596587
-0.00286592
0.000312493
0.00352501
0.00674465
0.00995985
0.0131678
0.0163694
0.0195663
0.02276
0.0259516
0.0291417
0.0323307
0.0355186
0.0387057
0.0418919
0.0450772
0.0482616
0.0514451
0.0546279
0.05781
0.0609916
0.0641727
0.0673535
0.0705341
0.0737145
0.076895
0.0800754
0.083256
0.0864366
0.0896174
0.0927984
0.0959795
0.0991607
0.102342
0.105523
0.108705
-0.219171
-0.21634
-0.213536
-0.210777
-0.208084
-0.205476
-0.202974
-0.200591
-0.198331
-0.196201
-0.194201
-0.19233
-0.190588
-0.188974
-0.187486
-0.186123
-0.184882
-0.183761
-0.18275
-0.181841
-0.181025
-0.180295
-0.179645
-0.17906
-0.178522
-0.178017
-0.177533
-0.177054
-0.176569
-0.17607
-0.175552
-0.175017
-0.17447
-0.173917
-0.173363
-0.17281
-0.172252
-0.171683
-0.171097
-0.170481
-0.169816
-0.169071
-0.168213
-0.167201
-0.165994
-0.164558
-0.162849
-0.160836
-0.158485
-0.155787
-0.152763
-0.149445
-0.145883
-0.142144
-0.138273
-0.134324
-0.130384
-0.126443
-0.122472
-0.118423
-0.114244
-0.109894
-0.105342
-0.100573
-0.0956052
-0.0904886
-0.0852737
-0.0800256
-0.0748049
-0.0696501
-0.0645773
-0.0595907
-0.054687
-0.0498621
-0.0450893
-0.0403287
-0.0355336
-0.0306425
-0.025648
-0.0206593
-0.0159742
-0.0120543
-0.00859879
-0.00533623
-0.00214321
0.00102407
0.00417891
0.0073265
0.0104706
0.0136144
0.0167601
0.0199092
0.023062
0.0262185
0.0293783
0.032541
0.035706
0.038873
0.0420414
0.045211
0.0483815
0.0515525
0.0547242
0.0578962
0.0610687
0.0642415
0.0674148
0.0705885
0.0737627
0.0769374
0.0801126
0.0832882
0.0864643
0.0896408
0.0928177
0.095995
0.0991726
0.10235
0.105528
0.108706
-0.219158
-0.216303
-0.213479
-0.210708
-0.208013
-0.205415
-0.202938
-0.200598
-0.1984
-0.196346
-0.194433
-0.192662
-0.191027
-0.189529
-0.188162
-0.186926
-0.185816
-0.184828
-0.183955
-0.183186
-0.182512
-0.181926
-0.181419
-0.180975
-0.180577
-0.180211
-0.179863
-0.179522
-0.179175
-0.178814
-0.178435
-0.178039
-0.17763
-0.177215
-0.176797
-0.176379
-0.175955
-0.17552
-0.175065
-0.174577
-0.174031
-0.173399
-0.172637
-0.171697
-0.170527
-0.169077
-0.167288
-0.165131
-0.162574
-0.159629
-0.15634
-0.152758
-0.148948
-0.144979
-0.140894
-0.136756
-0.132634
-0.128503
-0.124329
-0.120056
-0.115625
-0.11099
-0.106125
-0.101022
-0.0957176
-0.0902714
-0.0847374
-0.0791864
-0.0737003
-0.0683307
-0.0630931
-0.0579954
-0.0530277
-0.0481767
-0.0434179
-0.0387152
-0.0340395
-0.0293537
-0.02466
-0.0200406
-0.0155265
-0.0114183
-0.00777332
-0.00443107
-0.00125819
0.00183218
0.00488967
0.00794071
0.0109985
0.0140688
0.0171532
0.0202513
0.0233615
0.0264819
0.029611
0.0327473
0.0358894
0.0390363
0.0421872
0.0453412
0.0484979
0.0516568
0.0548174
0.0579796
0.0611432
0.064308
0.067474
0.0706411
0.0738092
0.0769783
0.0801483
0.0833192
0.0864909
0.0896633
0.0928363
0.0960099
0.099184
0.102358
0.105533
0.108708
-0.219149
-0.216275
-0.213434
-0.210651
-0.207949
-0.205353
-0.202885
-0.200565
-0.1984
-0.19639
-0.194531
-0.192822
-0.191258
-0.189837
-0.188557
-0.187413
-0.186403
-0.185521
-0.184761
-0.184113
-0.183569
-0.183119
-0.182754
-0.182457
-0.182213
-0.182007
-0.181825
-0.181656
-0.181488
-0.181314
-0.181126
-0.180926
-0.180716
-0.180499
-0.180279
-0.180055
-0.179826
-0.179584
-0.179319
-0.179016
-0.178647
-0.17818
-0.177565
-0.176737
-0.175632
-0.174165
-0.172271
-0.169919
-0.167104
-0.16387
-0.160284
-0.156423
-0.152367
-0.148174
-0.143887
-0.139573
-0.135264
-0.130927
-0.126528
-0.122005
-0.117291
-0.112335
-0.107114
-0.101631
-0.0959408
-0.0901116
-0.0841986
-0.0782801
-0.0724558
-0.0668043
-0.0613491
-0.0560963
-0.0510291
-0.0461241
-0.041358
-0.036694
-0.0320962
-0.027533
-0.0230034
-0.0185738
-0.0141628
-0.0100158
-0.00640153
-0.00317384
-0.00016101
0.00276168
0.00566619
0.00858772
0.0115402
0.0145263
0.0175437
0.020588
0.0236543
0.0267384
0.0298369
0.032947
0.0360665
0.0391938
0.0423275
0.0454664
0.0486097
0.0517566
0.0549066
0.0580593
0.0612144
0.0643714
0.0675304
0.0706911
0.0738534
0.0770171
0.0801822
0.0833486
0.0865161
0.0896846
0.0928539
0.0960241
0.0991948
0.102366
0.105538
0.10871
-0.219158
-0.216302
-0.213476
-0.210702
-0.208005
-0.205411
-0.202943
-0.200619
-0.198451
-0.196438
-0.19458
-0.192872
-0.191312
-0.189899
-0.188632
-0.187509
-0.186528
-0.185684
-0.184974
-0.184391
-0.183929
-0.183577
-0.183325
-0.183159
-0.183065
-0.183027
-0.183032
-0.183067
-0.183122
-0.183187
-0.183257
-0.183325
-0.183391
-0.183454
-0.183514
-0.18357
-0.183619
-0.183652
-0.183662
-0.183625
-0.183513
-0.183288
-0.182894
-0.182249
-0.181257
-0.17979
-0.177778
-0.175214
-0.172134
-0.168617
-0.164771
-0.160687
-0.15644
-0.152075
-0.147636
-0.143166
-0.138667
-0.134111
-0.129468
-0.124676
-0.119649
-0.114335
-0.108711
-0.102787
-0.0966342
-0.0903282
-0.083944
-0.0775586
-0.0712778
-0.0652315
-0.0594578
-0.0539583
-0.0487138
-0.0436941
-0.0388679
-0.0341931
-0.0296249
-0.025124
-0.0206779
-0.0163324
-0.0119637
-0.00780815
-0.0044216
-0.00152499
0.00116375
0.00381335
0.00650259
0.00925949
0.0120875
0.0149795
0.0179252
0.0209138
0.0239359
0.0269841
0.0300528
0.0331375
0.0362352
0.0393436
0.0424606
0.045585
0.0487154
0.051851
0.0549909
0.0581345
0.0612814
0.0644311
0.0675834
0.0707381
0.0738949
0.0770536
0.080214
0.0833761
0.0865397
0.0897045
0.0928704
0.0960373
0.0992049
0.102373
0.105542
0.108711
-0.2192
-0.21643
-0.213688
-0.210986
-0.208343
-0.205781
-0.203322
-0.200985
-0.198783
-0.19672
-0.194796
-0.193012
-0.191366
-0.189861
-0.1885
-0.187285
-0.186214
-0.185287
-0.184505
-0.183869
-0.183377
-0.183023
-0.182799
-0.182695
-0.1827
-0.182801
-0.182984
-0.183234
-0.18354
-0.18389
-0.184275
-0.184685
-0.18511
-0.185544
-0.185979
-0.186416
-0.186846
-0.187263
-0.18765
-0.187983
-0.188227
-0.188339
-0.188259
-0.187893
-0.187091
-0.185677
-0.1836
-0.180888
-0.177628
-0.173948
-0.169985
-0.165828
-0.161535
-0.157133
-0.152636
-0.148056
-0.143386
-0.138621
-0.133742
-0.128687
-0.123334
-0.117623
-0.111536
-0.105106
-0.0984163
-0.0915234
-0.0845028
-0.0774774
-0.0705903
-0.0639536
-0.057671
-0.0517713
-0.0462291
-0.0409957
-0.0360219
-0.0312538
-0.0266396
-0.022127
-0.0176887
-0.0133348
-0.00889772
-0.00460193
-0.00175776
0.000506119
0.00268039
0.00495247
0.00737215
0.00993679
0.0126267
0.0154184
0.01829
0.0212227
0.0242016
0.0272152
0.0302554
0.0333161
0.0363932
0.0394837
0.0425851
0.0456957
0.048814
0.0519388
0.0550691
0.0582042
0.0613435
0.0644863
0.0676325
0.0707815
0.0739331
0.0770871
0.0802433
0.0834014
0.0865613
0.0897227
0.0928855
0.0960493
0.0992142
0.10238
0.105546
0.108712
-0.2193
-0.216727
-0.214173
-0.211642
-0.209142
-0.206684
-0.204286
-0.201963
-0.199728
-0.19759
-0.195555
-0.193625
-0.191806
-0.190107