/*--------------------------------*- C++ -*----------------------------------*\
  =========                 |
  \\      /  F ield         | OpenFOAM: The Open Source CFD Toolbox
   \\    /   O peration     | Website:  https://openfoam.org
    \\  /    A nd           | Version:  6
     \\/     M anipulation  |
\*---------------------------------------------------------------------------*/
FoamFile
{
    version     2.0;
    format      ascii;
    class       surfaceScalarField;
    location    "800";
    object      phi;
}
// * * * * * * * * * * * * * * * * * * * * * * * * * * * * * * * * * * * * * //

dimensions      [0 3 -1 0 0 0 0];

internalField   nonuniform List<scalar> 
9440
(
9.63869e-11
-9.63869e-11
1.00081e-10
-3.6959e-12
1.33673e-10
-3.3594e-11
1.68346e-10
-3.46742e-11
1.3616e-10
3.21844e-11
7.86879e-11
5.74709e-11
5.51091e-11
2.35779e-11
3.02161e-11
2.48922e-11
7.49667e-12
2.27189e-11
-5.92149e-12
1.34178e-11
-5.74487e-11
5.1527e-11
-1.41028e-10
8.35794e-11
-2.85659e-10
1.44631e-10
-4.55726e-10
1.70067e-10
-5.90382e-10
1.34657e-10
-6.83805e-10
9.34236e-11
-8.375e-10
1.53695e-10
-1.17227e-09
3.34775e-10
-1.65328e-09
4.81003e-10
-2.14748e-09
4.94203e-10
-2.60963e-09
4.62149e-10
-3.10748e-09
4.97853e-10
-3.49335e-09
3.85867e-10
-3.76697e-09
2.73627e-10
-3.98007e-09
2.13099e-10
-4.11211e-09
1.32033e-10
-4.16649e-09
5.43816e-11
-4.18342e-09
1.69283e-11
-4.14645e-09
-3.69614e-11
-4.09873e-09
-4.77206e-11
-4.00647e-09
-9.22615e-11
-3.82333e-09
-1.8314e-10
-3.63127e-09
-1.92056e-10
-3.5295e-09
-1.01768e-10
-3.28285e-09
-2.46651e-10
-3.10225e-09
-1.80604e-10
-2.97215e-09
-1.30098e-10
-2.70028e-09
-2.71875e-10
-2.53175e-09
-1.68522e-10
-2.29193e-09
-2.39822e-10
-2.05397e-09
-2.37958e-10
-1.80911e-09
-2.44862e-10
-1.57341e-09
-2.35695e-10
-1.40425e-09
-1.69155e-10
-1.17936e-09
-2.24894e-10
-1.04942e-09
-1.29938e-10
-9.71141e-10
-7.82731e-11
-9.9562e-10
2.44817e-11
-1.01821e-09
2.25899e-11
-1.02398e-09
5.77658e-12
-1.12261e-09
9.86262e-11
-1.16769e-09
4.50841e-11
-1.23113e-09
6.34453e-11
-1.30692e-09
7.57894e-11
-1.36105e-09
5.41327e-11
-1.42608e-09
6.50236e-11
-1.46614e-09
4.00668e-11
-1.50477e-09
3.86288e-11
-1.51525e-09
1.04841e-11
-1.47688e-09
-3.83708e-11
-1.38331e-09
-9.35768e-11
-1.33608e-09
-4.72278e-11
-1.23716e-09
-9.89162e-11
-1.19391e-09
-4.32553e-11
-1.13521e-09
-5.86937e-11
-1.04432e-09
-9.08957e-11
-9.331e-10
-1.11218e-10
-8.24795e-10
-1.08304e-10
-7.00984e-10
-1.23811e-10
-6.11008e-10
-8.99754e-11
-4.96716e-10
-1.14292e-10
-3.8452e-10
-1.12196e-10
-3.4362e-10
-4.09005e-11
-2.75033e-10
-6.85881e-11
-3.12201e-10
3.71665e-11
-4.0802e-10
9.58175e-11
-5.5992e-10
1.51898e-10
-5.37399e-10
-2.25212e-11
-2.97209e-10
-2.40191e-10
1.00947e-15
-2.9721e-10
-1.25846e-18
-9.26096e-19
-8.67811e-19
-3.90651e-19
-6.16773e-19
-2.51459e-19
-4.0944e-19
-2.07725e-19
-2.19347e-19
-1.90932e-19
-3.7757e-20
-1.82993e-19
1.38314e-19
-1.78056e-19
3.09262e-19
-1.73447e-19
4.7413e-19
-1.67738e-19
6.31609e-19
-1.60485e-19
7.80119e-19
-1.51467e-19
9.18029e-19
-1.40653e-19
1.04384e-18
-1.2816e-19
1.15627e-18
-1.14238e-19
1.25428e-18
-9.92294e-20
1.33706e-18
-8.352e-20
1.40404e-18
-6.74753e-20
1.45502e-18
-5.14105e-20
1.49017e-18
-3.56007e-20
1.50996e-18
-2.0277e-20
1.51507e-18
-5.607e-21
1.50634e-18
8.30237e-21
1.48471e-18
2.13669e-20
1.45115e-18
3.34945e-20
1.40659e-18
4.45994e-20
1.3519e-18
5.46431e-20
1.28801e-18
6.36626e-20
1.21593e-18
7.17572e-20
1.13675e-18
7.90448e-20
1.05152e-18
8.56159e-20
9.61128e-19
9.15048e-20
8.6624e-19
9.66947e-20
7.67342e-19
1.01144e-19
6.6482e-19
1.04821e-19
5.59064e-19
1.07735e-19
4.50527e-19
1.09937e-19
3.3974e-19
1.11512e-19
2.27296e-19
1.12553e-19
1.13817e-19
1.13124e-19
1.13202e-19
3.45898e-11
-1.30979e-10
-1.29714e-11
4.3862e-11
-6.99544e-11
2.33863e-11
-9.40904e-11
-1.05405e-11
-7.61194e-11
1.42114e-11
-3.75035e-11
1.88533e-11
8.88595e-12
-2.28129e-11
-8.35247e-12
4.21297e-11
-8.8147e-13
1.52472e-11
-5.17046e-11
6.42405e-11
-1.11022e-10
1.10844e-10
-2.09171e-10
1.81729e-10
-3.19152e-10
2.54613e-10
-4.93099e-10
3.44015e-10
-7.92166e-10
4.33725e-10
-1.10967e-09
4.10929e-10
-1.3997e-09
4.43722e-10
-1.66019e-09
5.95271e-10
-1.89455e-09
7.15363e-10
-2.29407e-09
8.93723e-10
-2.74563e-09
9.13708e-10
-2.94594e-09
6.98171e-10
-3.19463e-09
6.34555e-10
-3.48608e-09
5.65078e-10
-3.63855e-09
3.65562e-10
-3.72996e-09
2.23447e-10
-3.79063e-09
1.15058e-10
-3.79313e-09
1.94238e-11
-3.76496e-09
-6.51273e-11
-3.73409e-09
-7.85883e-11
-3.6525e-09
-1.73849e-10
-3.5724e-09
-2.63239e-10
-3.52777e-09
-2.3669e-10
-3.38394e-09
-2.45596e-10
-3.20606e-09
-4.2453e-10
-3.04963e-09
-3.37037e-10
-2.81242e-09
-3.67309e-10
-2.64203e-09
-4.42267e-10
-2.43031e-09
-3.80242e-10
-2.29191e-09
-3.7822e-10
-2.06706e-09
-4.62799e-10
-1.7862e-09
-5.25721e-10
-1.5443e-09
-4.77589e-10
-1.35697e-09
-3.56485e-10
-1.1136e-09
-4.6825e-10
-9.48205e-10
-2.95333e-10
-8.54979e-10
-1.71494e-10
-8.08731e-10
-2.17618e-11
-8.13534e-10
2.73962e-11
-8.35791e-10
2.80374e-11
-9.1393e-10
1.76768e-10
-1.00183e-09
1.32985e-10
-1.10536e-09
1.6698e-10
-1.19487e-09
1.65303e-10
-1.25317e-09
1.12432e-10
-1.29666e-09
1.08513e-10
-1.31388e-09
5.72842e-11
-1.32047e-09
4.52197e-11
-1.30234e-09
-7.64528e-12
-1.28491e-09
-5.57993e-11
-1.22682e-09
-1.51669e-10
-1.15104e-09
-1.23006e-10
-1.05984e-09
-1.90116e-10
-9.66955e-10
-1.36139e-10
-8.78247e-10
-1.47402e-10
-7.80809e-10
-1.88334e-10
-6.89999e-10
-2.02027e-10
-5.85712e-10
-2.12592e-10
-4.6874e-10
-2.40783e-10
-3.47174e-10
-2.11542e-10
-2.44541e-10
-2.16926e-10
-1.27958e-10
-2.28781e-10
1.48114e-11
-1.83672e-10
1.44492e-10
-1.98271e-10
2.70997e-10
-8.93402e-11
3.59412e-10
7.40056e-12
6.31296e-10
-1.19987e-10
7.77638e-10
-1.68863e-10
4.19869e-10
1.1758e-10
-1.42471e-16
1.22663e-10
-7.31965e-19
-1.36413e-19
-7.32888e-19
-3.88922e-19
-5.76314e-19
-4.08542e-19
-3.94943e-19
-3.90806e-19
-2.12749e-19
-3.75878e-19
-3.32264e-20
-3.66116e-19
1.42977e-19
-3.58511e-19
3.14971e-19
-3.50075e-19
4.81383e-19
-3.38931e-19
6.40627e-19
-3.2434e-19
7.90934e-19
-3.05932e-19
9.30522e-19
-2.83772e-19
1.05776e-18
-2.58235e-19
1.17128e-18
-2.29927e-19
1.26999e-18
-1.99571e-19
1.3531e-18
-1.67906e-19
1.42011e-18
-1.35607e-19
1.47083e-18
-1.03277e-19
1.50549e-18
-7.14405e-20
1.52463e-18
-4.05361e-20
1.52898e-18
-1.09118e-20
1.5194e-18
1.71483e-20
1.49684e-18
4.34007e-20
1.46226e-18
6.76655e-20
1.41664e-18
8.98773e-20
1.36092e-18
1.10105e-19
1.2961e-18
1.28505e-19
1.22322e-18
1.45238e-19
1.14332e-18
1.60388e-19
1.05741e-18
1.73943e-19
9.66318e-19
1.85828e-19
8.70689e-19
1.95967e-19
7.7102e-19
2.04348e-19
6.67734e-19
2.1105e-19
5.61266e-19
2.16242e-19
4.52102e-19
2.20145e-19
3.40781e-19
2.22984e-19
2.27867e-19
2.24954e-19
1.13895e-19
2.262e-19
2.26867e-19
-1.38412e-10
7.43198e-12
-1.34895e-10
4.03421e-11
-1.24503e-10
1.2992e-11
-1.24978e-10
-1.00679e-11
-9.21615e-11
-1.8607e-11
-5.39357e-11
-1.93741e-11
-1.89154e-11
-5.78346e-11
-1.44617e-12
2.46593e-11
-6.9994e-12
2.07995e-11
-4.83873e-11
1.05628e-10
-8.47604e-11
1.47217e-10
-1.81534e-10
2.78502e-10
-3.13008e-10
3.86087e-10
-5.18155e-10
5.49162e-10
-7.73586e-10
6.89156e-10
-1.07637e-09
7.13715e-10
-1.37104e-09
7.3839e-10
-1.67569e-09
8.99917e-10
-1.97723e-09
1.01691e-09
-2.0996e-09
1.0161e-09
-2.31992e-09
1.13402e-09
-2.66505e-09
1.0433e-09
-2.85432e-09
8.23828e-10
-2.98919e-09
6.99947e-10
-3.10578e-09
4.8215e-10
-3.1501e-09
2.67768e-10
-3.14573e-09
1.10695e-10
-3.12554e-09
-7.67648e-13
-3.1027e-09
-8.79636e-11
-3.09074e-09
-9.05471e-11
-3.10493e-09
-1.59665e-10
-3.13719e-09
-2.30975e-10
-3.15404e-09
-2.19837e-10
-3.11882e-09
-2.8082e-10
-3.05548e-09
-4.87867e-10
-2.98589e-09
-4.06624e-10
-2.82558e-09
-5.27619e-10
-2.75718e-09
-5.10665e-10
-2.52013e-09
-6.173e-10
-2.27023e-09
-6.28115e-10
-1.97936e-09
-7.53668e-10
-1.76615e-09
-7.38928e-10
-1.59952e-09
-6.44213e-10
-1.35889e-09
-5.97117e-10
-1.23737e-09
-5.8976e-10
-1.13163e-09
-4.01067e-10
-1.04568e-09
-2.57443e-10
-8.71494e-10
-1.95945e-10
-7.9069e-10
-5.34039e-11
-7.98304e-10
3.56542e-11
-7.79141e-10
1.57607e-10
-8.1952e-10
1.73367e-10
-8.79243e-10
2.26705e-10
-9.28161e-10
2.14223e-10
-9.80872e-10
1.65144e-10
-1.0214e-09
1.49036e-10
-1.04577e-09
8.16622e-11
-1.04008e-09
3.95321e-11
-1.02698e-09
-2.07506e-11
-1.02667e-09
-5.61117e-11
-1.00982e-09
-1.68519e-10
-9.44731e-10
-1.88093e-10
-9.04112e-10
-2.30736e-10
-7.97891e-10
-2.42361e-10
-6.64388e-10
-2.80906e-10
-5.47272e-10
-3.0545e-10
-4.53574e-10
-2.95726e-10
-3.64286e-10
-3.0188e-10
-2.70969e-10
-3.34101e-10
-1.98213e-10
-2.84299e-10
-1.51748e-10
-2.63391e-10
-8.31882e-11
-2.97342e-10
6.59418e-11
-3.32803e-10
1.68171e-10
-3.00502e-10
2.6729e-10
-1.88461e-10
2.11514e-10
6.3175e-11
-2.1266e-10
3.04186e-10
-5.28875e-10
1.4735e-10
-2.49956e-10
-1.61341e-10
9.49593e-17
-1.27294e-10
-1.03903e-18
-9.35472e-19
-7.51951e-19
-6.76285e-19
-5.58024e-19
-6.03449e-19
-3.79465e-19
-5.70909e-19
-2.02441e-19
-5.5494e-19
-2.50796e-20
-5.4585e-19
1.51704e-19
-5.37898e-19
3.26115e-19
-5.27203e-19
4.95974e-19
-5.11559e-19
6.59035e-19
-4.90132e-19
8.13094e-19
-4.62622e-19
9.56059e-19
-4.29277e-19
1.08607e-18
-3.90731e-19
1.20164e-18
-3.47895e-19
1.30166e-18
-3.01859e-19
1.3854e-18
-2.53766e-19
1.45244e-18
-2.04681e-19
1.50267e-18
-1.55541e-19
1.5364e-18
-1.07164e-19
1.55426e-18
-6.02486e-20
1.55704e-18
-1.53382e-20
1.54566e-18
2.71633e-20
1.5211e-18
6.69509e-20
1.48447e-18
1.03803e-19
1.43686e-18
1.37611e-19
1.37932e-18
1.684e-19
1.31284e-18
1.96297e-19
1.23837e-18
2.21455e-19
1.15688e-18
2.43975e-19
1.0693e-18
2.63882e-19
9.76457e-19
2.81159e-19
8.7907e-19
2.9581e-19
7.77722e-19
3.07913e-19
6.72926e-19
3.17645e-19
5.65168e-19
3.25267e-19
4.54941e-19
3.31082e-19
3.42751e-19
3.35388e-19
2.29113e-19
3.38441e-19
1.14562e-19
3.40439e-19
3.41526e-19
-6.11359e-11
6.85662e-11
-9.44601e-11
7.36637e-11
-1.29915e-10
4.84448e-11
-1.38993e-10
-9.91945e-13
-1.07237e-10
-5.03646e-11
-4.70011e-11
-7.9612e-11
-9.04458e-12
-9.57926e-11
3.23772e-11
-1.67639e-11
2.17866e-11
3.13889e-11
4.14027e-12
1.23273e-10
-7.37907e-11
2.25147e-10
-1.82596e-10
3.87307e-10
-3.08743e-10
5.12233e-10
-4.46002e-10
6.86421e-10
-6.16279e-10
8.59433e-10
-8.93532e-10
9.90969e-10
-1.22122e-09
1.06608e-09
-1.46614e-09
1.14484e-09
-1.74778e-09
1.29854e-09
-1.99213e-09
1.26046e-09
-2.0731e-09
1.21499e-09
-2.25205e-09
1.22225e-09
-2.42092e-09
9.92708e-10
-2.50908e-09
7.88105e-10
-2.61351e-09
5.8658e-10
-2.60508e-09
2.59337e-10
-2.63856e-09
1.44176e-10
-2.65195e-09
1.26269e-11
-2.65766e-09
-8.225e-11
-2.64709e-09
-1.01121e-10
-2.68941e-09
-1.1734e-10
-2.72494e-09
-1.95452e-10
-2.79083e-09
-1.53946e-10
-2.77908e-09
-2.92565e-10
-2.79555e-09
-4.714e-10
-2.83264e-09
-3.69534e-10
-2.84052e-09
-5.19736e-10
-2.69941e-09
-6.51778e-10
-2.51876e-09
-7.97946e-10
-2.32003e-09
-8.2684e-10
-2.2012e-09
-8.72501e-10
-2.10105e-09
-8.3907e-10
-1.9004e-09
-8.4486e-10
-1.68142e-09
-8.16091e-10
-1.6325e-09
-6.38681e-10
-1.54547e-09
-4.88088e-10
-1.34783e-09
-4.55083e-10
-1.16769e-09
-3.7608e-10
-1.01563e-09
-2.05459e-10
-9.20154e-10
-5.98233e-11
-8.17558e-10
5.50122e-11
-8.12627e-10
1.68438e-10
-8.15649e-10
2.29729e-10
-8.10721e-10
2.09295e-10
-8.00712e-10
1.55135e-10
-7.8568e-10
1.34005e-10
-7.95395e-10
9.13771e-11
-7.92404e-10
3.65418e-11
-7.99407e-10
-1.3747e-11
-7.86633e-10
-6.88867e-11
-7.8222e-10
-1.72932e-10
-7.30813e-10
-2.39501e-10
-6.83837e-10
-2.77712e-10
-5.89272e-10
-3.36927e-10
-4.83232e-10
-3.86948e-10
-3.89515e-10
-3.99169e-10
-2.41016e-10
-4.44226e-10
-9.53402e-11
-4.47558e-10
5.79366e-11
-4.87378e-10
1.31688e-10
-3.58051e-10
1.99766e-10
-3.3147e-10
2.39409e-10
-3.36985e-10
2.014e-10
-2.94795e-10
1.57278e-10
-2.5638e-10
1.31479e-10
-1.62664e-10
2.55304e-10
-6.06504e-11
5.29478e-10
3.00119e-11
4.66171e-10
2.10657e-10
1.40585e-10
1.64245e-10
2.01499e-16
1.32911e-11
-8.16588e-19
-9.2107e-19
-6.78577e-19
-8.14687e-19
-5.24945e-19
-7.58121e-19
-3.62961e-19
-7.3418e-19
-1.92819e-19
-7.26525e-19
-1.66011e-20
-7.23526e-19
1.62675e-19
-7.18619e-19
3.41759e-19
-7.07748e-19
5.17401e-19
-6.88781e-19
6.86546e-19
-6.61027e-19
8.46438e-19
-6.24445e-19
9.94605e-19
-5.79608e-19
1.12891e-18
-5.2751e-19
1.24767e-18
-4.69442e-19
1.34975e-18
-4.06904e-19
1.43448e-18
-3.41483e-19
1.50158e-18
-2.74688e-19
1.55105e-18
-2.07844e-19
1.58331e-18
-1.42099e-19
1.59917e-18
-7.84201e-20
1.59954e-18
-1.75574e-20
1.58544e-18
3.99547e-20
1.55795e-18
9.3739e-20
1.51828e-18
1.43518e-19
1.46765e-18
1.89115e-19
1.40722e-18
2.30482e-19
1.338e-18
2.67705e-19
1.26089e-18
3.0095e-19
1.17678e-18
3.30394e-19
1.08657e-18
3.56187e-19
9.91108e-19
3.78448e-19
8.91173e-19
3.97311e-19
7.87454e-19
4.12958e-19
6.80548e-19
4.25646e-19
5.70984e-19
4.35693e-19
4.59247e-19
4.43448e-19
3.45803e-19
4.49252e-19
2.31111e-19
4.53401e-19
1.15649e-19
4.56134e-19
4.57612e-19
-8.65495e-11
1.55114e-10
-1.2859e-10
1.15702e-10
-1.50596e-10
7.04496e-11
-1.55869e-10
4.27845e-12
-1.26653e-10
-7.95819e-11
-7.07184e-11
-1.35548e-10
-4.69496e-11
-1.19563e-10
3.1739e-13
-6.40321e-11
1.05994e-11
2.11057e-11
-1.29224e-11
1.46794e-10
-9.21338e-11
3.04358e-10
-2.237e-10
5.18873e-10
-4.11104e-10
6.99636e-10
-6.29433e-10
9.0475e-10
-8.51599e-10
1.0816e-09
-1.01113e-09
1.1505e-09
-1.15815e-09
1.2131e-09
-1.32529e-09
1.31197e-09
-1.47639e-09
1.44965e-09
-1.66427e-09
1.44833e-09
-1.82296e-09
1.37368e-09
-1.93395e-09
1.33324e-09
-2.0618e-09
1.12056e-09
-2.12373e-09
8.50038e-10
-2.18866e-09
6.51512e-10
-2.15824e-09
2.28919e-10
-2.15222e-09
1.38163e-10
-2.19839e-09
5.87999e-11
-2.23696e-09
-4.36881e-11
-2.25804e-09
-8.00366e-11
-2.28554e-09
-8.9844e-11
-2.35714e-09
-1.23848e-10
-2.44319e-09
-6.78986e-11
-2.52047e-09
-2.15283e-10
-2.6437e-09
-3.48164e-10
-2.64126e-09
-3.71981e-10
-2.62821e-09
-5.32778e-10
-2.59243e-09
-6.87556e-10
-2.60314e-09
-7.8724e-10
-2.57245e-09
-8.57523e-10
-2.48171e-09
-9.63244e-10
-2.28506e-09
-1.03571e-09
-2.12406e-09
-1.00586e-09
-2.01013e-09
-9.30012e-10
-1.9256e-09
-7.23209e-10
-1.84211e-09
-5.71578e-10
-1.7071e-09
-5.90084e-10
-1.59645e-09
-4.86735e-10
-1.41045e-09
-3.91457e-10
-1.17936e-09
-2.90907e-10
-1.06412e-09
-6.02266e-11
-9.29484e-10
3.3803e-11
-8.94293e-10
1.94539e-10
-8.34961e-10
1.49964e-10
-8.11177e-10
1.31352e-10
-7.63287e-10
8.61167e-11
-7.33552e-10
6.16418e-11
-7.31e-10
3.39895e-11
-7.37635e-10
-7.11143e-12
-7.35905e-10
-7.06171e-11
-7.43158e-10
-1.6568e-10
-6.85321e-10
-2.97338e-10
-6.68416e-10
-2.94619e-10
-5.54918e-10
-4.50426e-10
-4.40037e-10
-5.0183e-10
-2.71729e-10
-5.6748e-10
-8.17573e-11
-6.34199e-10
6.38075e-11
-5.93124e-10
1.67181e-10
-5.90753e-10
2.64616e-10
-4.55486e-10
3.71152e-10
-4.38008e-10
4.42226e-10
-4.08059e-10
1.79416e-10
-3.19857e-11
-2.2367e-10
1.46705e-10
-6.04671e-10
2.18337e-10
-8.13217e-10
1.47894e-10
-9.94175e-10
2.10969e-10
-8.10334e-10
2.68158e-11
-3.02818e-10
-3.43272e-10
2.39794e-16
-2.89527e-10
-7.65402e-19
-1.54136e-18
-6.21483e-19
-9.59008e-19
-5.00478e-19
-8.80054e-19
-3.54782e-19
-8.80938e-19
-1.89302e-19
-8.9314e-19
-1.11813e-20
-9.02723e-19
1.73803e-19
-9.04593e-19
3.60726e-19
-8.95627e-19
5.45154e-19
-8.74291e-19
7.23128e-19
-8.40332e-19
8.91275e-19
-7.94184e-19
1.0467e-18
-7.36929e-19
1.18698e-18
-6.70088e-19
1.31021e-18
-5.95455e-19
1.41517e-18
-5.15019e-19
1.50128e-18
-4.3087e-19
1.56842e-18
-3.45003e-19
1.61679e-18
-2.5918e-19
1.64699e-18
-1.74916e-19
1.66003e-18
-9.34873e-20
1.65706e-18
-1.58944e-20
1.63923e-18
5.71656e-20
1.60773e-18
1.25239e-19
1.56387e-18
1.88022e-19
1.50902e-18
2.45315e-19
1.44444e-18
2.97046e-19
1.37124e-18
3.43295e-19
1.29033e-18
3.84273e-19
1.20258e-18
4.20267e-19
1.10883e-18
4.51579e-19
1.00997e-18
4.78497e-19
9.0682e-19
5.01301e-19
8.00142e-19
5.20288e-19
6.90595e-19
5.35787e-19
5.78739e-19
5.48159e-19
4.65051e-19
5.57786e-19
3.49953e-19
5.65037e-19
2.33844e-19
5.70241e-19
1.17127e-19
5.73666e-19
5.75495e-19
-1.05792e-10
2.60904e-10
-1.86777e-10
1.96685e-10
-2.22074e-10
1.05746e-10
-2.00954e-10
-1.68426e-11
-1.37712e-10
-1.42825e-10
-8.07297e-11
-1.92531e-10
-3.12434e-11
-1.6905e-10
9.57768e-12
-1.04854e-10
1.94937e-11
1.1189e-11
-1.71492e-11
1.83436e-10
-1.08477e-10
3.95685e-10
-2.15406e-10
6.25802e-10
-4.10493e-10
8.94723e-10
-6.31433e-10
1.12569e-09
-8.25501e-10
1.27567e-09
-1.00909e-09
1.33409e-09
-1.13702e-09
1.34103e-09
-1.22898e-09
1.40394e-09
-1.35896e-09
1.57962e-09
-1.54355e-09
1.63293e-09
-1.67423e-09
1.50436e-09
-1.72208e-09
1.38109e-09
-1.7847e-09
1.18318e-09
-1.79334e-09
8.58679e-10
-1.80407e-09
6.62242e-10
-1.93211e-09
3.56959e-10
-1.86975e-09
7.58104e-11
-1.87497e-09
6.40175e-11
-1.93622e-09
1.7558e-11
-1.97404e-09
-4.22168e-11
-1.99904e-09
-6.48395e-11
-2.03061e-09
-9.22811e-11
-2.0357e-09
-6.28011e-11
-2.198e-09
-5.29811e-11
-2.39867e-09
-1.475e-10
-2.49524e-09
-2.75408e-10
-2.55096e-09
-4.77052e-10
-2.56557e-09
-6.72948e-10
-2.59788e-09
-7.54929e-10
-2.57526e-09
-8.80141e-10
-2.48364e-09
-1.05486e-09
-2.32788e-09
-1.19146e-09
-2.20286e-09
-1.13089e-09
-2.09452e-09
-1.03835e-09
-2.03219e-09
-7.85533e-10
-1.97695e-09
-6.2682e-10
-1.89566e-09
-6.71368e-10
-1.83233e-09
-5.50066e-10
-1.71474e-09
-5.09037e-10
-1.58501e-09
-4.2064e-10
-1.43372e-09
-2.11514e-10
-1.28821e-09
-1.11708e-10
-1.17304e-09
7.93742e-11
-1.05483e-09
3.17509e-11
-9.53574e-10
3.00968e-11
-9.24956e-10
5.74983e-11
-9.16695e-10
5.3381e-11
-9.35935e-10
5.32295e-11
-9.82677e-10
3.96305e-11
-1.05378e-09
4.85671e-13
-1.11023e-09
-1.09229e-10
-1.01812e-09
-3.89448e-10
-1.0014e-09
-3.11339e-10
-8.6237e-10
-5.89463e-10
-7.80296e-10
-5.83906e-10
-6.29324e-10
-7.18454e-10
-4.60266e-10
-8.03259e-10
-2.17655e-10
-8.35736e-10
-1.7925e-11
-7.90484e-10
1.83239e-10
-6.5665e-10
3.42477e-10
-5.97246e-10
4.25457e-10
-4.91039e-10
4.91452e-10
-9.79808e-11
5.44824e-10
9.33326e-11
4.51176e-10
3.11984e-10
2.50695e-10
3.48375e-10
2.11846e-10
2.49818e-10
3.37409e-11
2.0492e-10
-1.94361e-10
-1.15171e-10
2.81485e-16
-4.83889e-10
-1.9591e-19
8.11122e-19
-5.42007e-19
-6.13387e-19
-5.00842e-19
-9.22192e-19
-3.66471e-19
-1.01645e-18
-1.9838e-19
-1.06255e-18
-1.25534e-20
-1.08994e-18
1.83004e-19
-1.10153e-18
3.82063e-19
-1.09601e-18
5.79113e-19
-1.07272e-18
7.69275e-19
-1.03205e-18
9.4853e-19
-9.75127e-19
1.11354e-18
-9.03744e-19
1.26161e-18
-8.20158e-19
1.39065e-18
-7.26856e-19
1.49932e-18
-6.26443e-19
1.58715e-18
-5.21589e-19
1.65424e-18
-4.14835e-19
1.70105e-18
-3.08426e-19
1.72842e-18
-2.04279e-19
1.73762e-18
-1.04005e-19
1.73012e-18
-8.87342e-21
1.7073e-18
8.02337e-20
1.67052e-18
1.62788e-19
1.62117e-18
2.385e-19
1.56075e-18
3.0723e-19
1.49069e-18
3.68969e-19
1.41222e-18
4.23858e-19
1.32633e-18
4.72194e-19
1.23389e-18
5.14383e-19
1.13575e-18
5.50881e-19
1.03277e-18
5.82141e-19
9.25807e-19
6.08596e-19
8.1564e-19
6.30658e-19
7.02968e-19
6.48734e-19
5.88366e-19
6.63237e-19
4.72301e-19
6.74575e-19
3.55157e-19
6.83146e-19
2.3727e-19
6.89308e-19
1.18956e-19
6.93355e-19
6.95485e-19
-7.55039e-11
3.36407e-10
-1.70521e-10
2.91702e-10
-2.35867e-10
1.7109e-10
-2.56139e-10
3.42892e-12
-1.79182e-10
-2.19783e-10
-1.12481e-10
-2.59232e-10
-2.63254e-11
-2.55206e-10
2.98209e-11
-1.61e-10
1.12426e-11
2.97672e-11
-6.80547e-11
2.62734e-10
-1.63604e-10
4.91234e-10
-2.57189e-10
7.19388e-10
-3.35256e-10
9.72789e-10
-4.53877e-10
1.24431e-09
-6.33404e-10
1.4552e-09
-8.89603e-10
1.59029e-09
-1.15011e-09
1.60154e-09
-1.28696e-09
1.54078e-09
-1.31061e-09
1.60327e-09
-1.34408e-09
1.66641e-09
-1.43012e-09
1.5904e-09
-1.47195e-09
1.42292e-09
-1.52246e-09
1.2337e-09
-1.52999e-09
8.66209e-10
-1.42345e-09
5.55701e-10
-1.54552e-09
4.79039e-10
-1.68078e-09
2.11071e-10
-1.71678e-09
1.00009e-10
-1.72615e-09
2.69371e-11
-1.71946e-09
-4.89136e-11
-1.74152e-09
-4.27756e-11
-1.79937e-09
-3.44262e-11
-1.83828e-09
-2.3898e-11
-1.8965e-09
5.24284e-12
-2.03775e-09
-6.24432e-12
-2.15465e-09
-1.58503e-10
-2.34052e-09
-2.91182e-10
-2.47397e-09
-5.39497e-10
-2.5145e-09
-7.14393e-10
-2.48317e-09
-9.11474e-10
-2.4017e-09
-1.13633e-09
-2.3728e-09
-1.22036e-09
-2.29325e-09
-1.21043e-09
-2.21393e-09
-1.11767e-09
-2.14118e-09
-8.58279e-10
-2.0666e-09
-7.01402e-10
-1.99432e-09
-7.43647e-10
-1.98155e-09
-5.62831e-10
-1.90554e-09
-5.85049e-10
-1.85437e-09
-4.71807e-10
-1.74636e-09
-3.19528e-10
-1.68078e-09
-1.77287e-10
-1.57211e-09
-2.92952e-11
-1.46902e-09
-7.13389e-11
-1.35924e-09
-7.96794e-11
-1.34588e-09
4.41376e-11
-1.34312e-09
5.06216e-11
-1.38142e-09
9.15221e-11
-1.4418e-09
1.00017e-10
-1.41719e-09
-2.41323e-11
-1.37304e-09
-1.53373e-10
-1.24604e-09
-5.16452e-10
-1.1401e-09
-4.17279e-10
-1.01281e-09
-7.1676e-10
-8.8042e-10
-7.16295e-10
-6.70814e-10
-9.2806e-10
-4.55123e-10
-1.01895e-09
-2.69818e-10
-1.02104e-09
-1.09078e-10
-9.51225e-10
1.24676e-10
-8.90405e-10
3.17352e-10
-7.89923e-10
4.6036e-10
-6.34048e-10
6.46324e-10
-2.83945e-10
7.66277e-10
-2.66198e-11
7.88505e-10
2.89756e-10
7.00194e-10
4.36686e-10
5.19362e-10
4.3065e-10
4.21957e-10
3.02324e-10
2.52639e-10
5.41458e-11
3.13964e-16
-2.31252e-10
-1.56381e-18
-2.07548e-18
-8.50271e-19
-1.32753e-18
-5.9458e-19
-1.1791e-18
-4.12073e-19
-1.20042e-18
-2.25274e-19
-1.25117e-18
-2.36618e-20
-1.29366e-18
1.88731e-19
-1.31622e-18
4.05358e-19
-1.31496e-18
6.1978e-19
-1.28942e-18
8.26196e-19
-1.2408e-18
1.01991e-18
-1.17109e-18
1.19713e-18
-1.08301e-18
1.35491e-18
-9.79806e-19
1.49106e-18
-8.6487e-19
1.60417e-18
-7.41625e-19
1.6939e-18
-6.13453e-19
1.76065e-18
-4.83524e-19
1.8052e-18
-3.54613e-19
1.8287e-18
-2.2905e-19
1.83275e-18
-1.08758e-19
1.81922e-18
4.75223e-21
1.78986e-18
1.1043e-19
1.74623e-18
2.07676e-19
1.6899e-18
2.96246e-19
1.62249e-18
3.76123e-19
1.54558e-18
4.47449e-19
1.46055e-18
5.10515e-19
1.36851e-18
5.65755e-19
1.27039e-18
6.13717e-19
1.16701e-18
6.55006e-19
1.05923e-18
6.90232e-19
9.47869e-19
7.1997e-19
8.33717e-19
7.44755e-19
7.1747e-19
7.65081e-19
5.99705e-19
7.8142e-19
4.80872e-19
7.94224e-19
3.61319e-19
8.0392e-19
2.41317e-19
8.10892e-19
1.21086e-19
8.15457e-19
8.17825e-19
-1.08557e-10
4.44964e-10
-1.76822e-10
3.59967e-10
-2.15912e-10
2.1018e-10
-2.54369e-10
4.18861e-11
-2.00256e-10
-2.73895e-10
-1.2143e-10
-3.38058e-10
-5.85832e-11
-3.18053e-10
-5.81068e-11
-1.61476e-10
-7.80297e-11
4.96907e-11
-1.05571e-10
2.90275e-10
-1.59829e-10
5.45492e-10
-2.5673e-10
8.1629e-10
-3.80313e-10
1.09637e-09
-5.33227e-10
1.39722e-09
-7.03603e-10
1.62557e-09
-8.52238e-10
1.73893e-09
-1.00917e-09
1.75847e-09
-1.16003e-09
1.69164e-09
-1.21736e-09
1.6606e-09
-1.24183e-09
1.69088e-09
-1.32953e-09
1.67811e-09
-1.41453e-09
1.50792e-09
-1.47617e-09
1.29534e-09
-1.55725e-09
9.47289e-10
-1.50857e-09
5.0702e-10
-1.42375e-09
3.94219e-10
-1.44128e-09
2.28602e-10
-1.48729e-09
1.46018e-10
-1.54411e-09
8.37539e-11
-1.55651e-09
-3.6514e-11
-1.56628e-09
-3.30026e-11
-1.57528e-09
-2.5421e-11
-1.58386e-09
-1.53174e-11
-1.60491e-09
2.62955e-11
-1.66604e-09
5.48841e-11
-1.79069e-09
-3.38456e-11
-1.98779e-09
-9.40814e-11
-2.10206e-09
-4.25224e-10
-2.16024e-09
-6.56204e-10
-2.19787e-09
-8.73838e-10
-2.1876e-09
-1.1466e-09
-2.24823e-09
-1.15973e-09
-2.26584e-09
-1.19282e-09
-2.21954e-09
-1.16397e-09
-2.13382e-09
-9.44004e-10
-2.05809e-09
-7.7713e-10
-2.05291e-09
-7.48823e-10
-2.00672e-09
-6.09026e-10
-1.97164e-09
-6.20123e-10
-1.96739e-09
-4.76055e-10
-1.93292e-09
-3.53998e-10
-1.8394e-09
-2.70809e-10
-1.7386e-09
-1.30091e-10
-1.64756e-09
-1.62386e-10
-1.59988e-09
-1.27352e-10
-1.56259e-09
6.84184e-12
-1.54736e-09
3.53956e-11
-1.54248e-09
8.66385e-11
-1.50781e-09
6.53443e-11
-1.46525e-09
-6.66939e-11
-1.38492e-09
-2.33698e-10
-1.31877e-09
-5.82606e-10
-1.12599e-09
-6.10055e-10
-9.97863e-10
-8.44891e-10
-7.22893e-10
-9.91266e-10
-4.57079e-10
-1.19388e-09
-2.36565e-10
-1.23947e-09
-7.46305e-11
-1.18298e-09
5.75429e-11
-1.0834e-09
1.57078e-10
-9.89941e-10
3.10665e-10
-9.43511e-10
4.87644e-10
-8.11027e-10
7.18276e-10
-5.14578e-10
8.41219e-10
-1.49562e-10
9.73163e-10
1.57812e-10
9.15057e-10
4.94792e-10
7.2874e-10
6.16966e-10
6.29855e-10
4.01209e-10
3.75587e-10
3.08412e-10
2.93457e-16
1.44335e-10
-6.42641e-19
-1.24716e-18
-7.01331e-19
-1.26957e-18
-6.15397e-19
-1.2664e-18
-4.6234e-19
-1.35514e-18
-2.67284e-19
-1.44837e-18
-4.57581e-20
-1.51781e-18
1.90175e-19
-1.55524e-18
4.30892e-19
-1.55897e-18
6.68408e-19
-1.53022e-18
8.95906e-19
-1.47155e-18
1.10799e-18
-1.38617e-18
1.30034e-18
-1.27796e-18
1.46985e-18
-1.15135e-18
1.61431e-18
-1.01093e-18
1.73234e-18
-8.61171e-19
1.82383e-18
-7.06362e-19
1.88956e-18
-5.50419e-19
1.93076e-18
-3.96712e-19
1.94899e-18
-2.47989e-19
1.94626e-18
-1.06429e-19
1.9249e-18
2.63074e-20
1.8871e-18
1.49079e-19
1.8348e-18
2.61261e-19
1.76977e-18
3.62667e-19
1.69381e-18
4.53433e-19
1.60865e-18
5.33913e-19
1.51579e-18
6.04624e-19
1.41648e-18
6.66203e-19
1.31168e-18
7.19381e-19
1.20224e-18
7.64929e-19
1.08897e-18
8.03612e-19
9.72654e-19
8.36147e-19
8.54043e-19
8.63189e-19
7.33809e-19
8.85333e-19
6.12508e-19
9.03124e-19
4.90568e-19
9.17066e-19
3.68291e-19
9.27625e-19
2.45881e-19
9.35213e-19
1.23454e-19
9.40163e-19
9.42696e-19
-6.74687e-11
5.12432e-10
-1.27226e-10
4.19726e-10
-1.5692e-10
2.39875e-10
-2.04429e-10
8.93957e-11
-1.7828e-10
-3.00043e-10
-1.0386e-10
-4.12477e-10
-4.66436e-11
-3.75268e-10
-2.74717e-11
-1.80647e-10
-3.96234e-11
6.18432e-11
-8.62433e-11
3.36896e-10
-1.83901e-10
6.4315e-10
-3.47682e-10
9.80071e-10
-5.21123e-10
1.26981e-09
-6.27846e-10
1.50395e-09
-6.9741e-10
1.69513e-09
-7.7934e-10
1.82086e-09
-9.03568e-10
1.8827e-09
-1.04571e-09
1.83378e-09
-1.13377e-09
1.74866e-09
-1.15021e-09
1.70732e-09
-1.14646e-09
1.67436e-09
-1.16902e-09
1.53047e-09
-1.1262e-09
1.25252e-09
-1.14777e-09
9.68857e-10
-1.30517e-09
6.64427e-10
-1.35031e-09
4.39355e-10
-1.36691e-09
2.452e-10
-1.31878e-09
9.78906e-11
-1.34939e-09
1.1436e-10
-1.37637e-09
-9.52332e-12
-1.39128e-09
-1.81003e-11
-1.38347e-09
-3.32259e-11
-1.3683e-09
-3.04843e-11
-1.35832e-09
1.63238e-11
-1.3488e-09
4.53678e-11
-1.4316e-09
4.89578e-11
-1.5603e-09
3.46165e-11
-1.68006e-09
-3.0546e-10
-1.77864e-09
-5.57623e-10
-1.91074e-09
-7.41736e-10
-1.99547e-09
-1.06186e-09
-2.1199e-09
-1.0353e-09
-2.17561e-09
-1.1371e-09
-2.23084e-09
-1.10874e-09
-2.16387e-09
-1.01097e-09
-2.03254e-09
-9.08452e-10
-1.95135e-09
-8.30015e-10
-1.87782e-09
-6.82558e-10
-1.89005e-09
-6.07889e-10
-1.89408e-09
-4.72027e-10
-1.82635e-09
-4.21729e-10
-1.74592e-09
-3.51242e-10
-1.61384e-09
-2.62171e-10
-1.54698e-09
-2.29238e-10
-1.52969e-09
-1.44649e-10
-1.47892e-09
-4.39291e-11
-1.46526e-09
2.17361e-11
-1.50727e-09
1.28647e-10
-1.47949e-09
3.75694e-11
-1.49283e-09
-5.33574e-11
-1.346e-09
-3.8053e-10
-1.22524e-09
-7.03368e-10
-1.04089e-09
-7.94405e-10
-7.84594e-10
-1.10118e-09
-4.54016e-10
-1.32184e-09
-1.93583e-10
-1.45431e-09
1.88542e-11
-1.4519e-09
1.64943e-10
-1.32907e-09
3.17491e-10
-1.23595e-09
4.06634e-10
-1.07909e-09
4.35569e-10
-9.72447e-10
4.95373e-10
-8.70832e-10
7.32575e-10
-7.5178e-10
8.45181e-10
-2.62168e-10
9.28043e-10
7.49496e-11
1.00721e-09
4.15623e-10
9.07731e-10
7.16445e-10
6.53659e-10
6.55279e-10
4.3751e-10
5.2456e-10
2.0932e-16
5.81843e-10
-3.02122e-19
5.46781e-19
-6.97653e-19
-8.74715e-19
-7.03638e-19
-1.26156e-18
-5.55102e-19
-1.50501e-18
-3.3626e-19
-1.669e-18
-8.27395e-20
-1.77363e-18
1.86596e-19
-1.82756e-18
4.59634e-19
-1.83546e-18
7.27083e-19
-1.80135e-18
9.81287e-19
-1.72946e-18
1.21619e-18
-1.62449e-18
1.42695e-18
-1.4917e-18
1.61027e-18
-1.33694e-18
1.76406e-18
-1.16626e-18
1.88715e-18
-9.85448e-19
1.97977e-18
-7.99929e-19
2.04327e-18
-6.14513e-19
2.07949e-18
-4.33243e-19
2.09055e-18
-2.59314e-19
2.079e-18
-9.51125e-20
2.04767e-18
5.76718e-20
1.99928e-18
1.97958e-19
1.9362e-18
3.25209e-19
1.86054e-18
4.39358e-19
1.7743e-18
5.40716e-19
1.67936e-18
6.29877e-19
1.57737e-18
7.07619e-19
1.46965e-18
7.74848e-19
1.35722e-18
8.32526e-19
1.24092e-18
8.81628e-19
1.1215e-18
9.23091e-19
9.99696e-19
9.57783e-19
8.76188e-19
9.8649e-19
7.516e-19
1.00991e-18
6.26451e-19
1.02868e-18
5.01126e-19
1.04336e-18
3.75879e-19
1.05446e-18
2.50832e-19
1.06242e-18
1.25987e-19
1.06759e-18
1.07021e-18
-4.36087e-11
5.56042e-10
-9.12027e-11
4.6732e-10
-7.7384e-11
2.26057e-10
-7.9017e-11
9.10294e-11
-1.17561e-10
-2.61499e-10
-7.70197e-11
-4.53017e-10
-5.34172e-11
-3.9887e-10
-4.93383e-11
-1.84726e-10
-4.59672e-11
5.84727e-11
-1.13096e-10
4.04025e-10
-2.38194e-10
7.68249e-10
-3.71094e-10
1.11297e-09
-5.33966e-10
1.43268e-09
-7.01394e-10
1.67138e-09
-8.35251e-10
1.82899e-09
-9.21255e-10
1.90686e-09
-9.38977e-10
1.90042e-09
-9.64015e-10
1.85882e-09
-1.0109e-09
1.79555e-09
-1.04847e-09
1.74488e-09
-1.07924e-09
1.70513e-09
-1.13736e-09
1.5886e-09
-1.15018e-09
1.26534e-09
-1.13121e-09
9.49885e-10
-1.16933e-09
7.02547e-10
-1.19123e-09
4.61253e-10
-1.24191e-09
2.95882e-10
-1.24018e-09
9.61631e-11
-1.19065e-09
6.48276e-11
-1.1758e-09
-2.43665e-11
-1.16715e-09
-2.67507e-11
-1.17022e-09
-3.01547e-11
-1.17856e-09
-2.21445e-11
-1.17135e-09
9.11819e-12
-1.16051e-09
3.45347e-11
-1.16701e-09
5.54599e-11
-1.16913e-09
3.67409e-11
-1.28633e-09
-1.88253e-10
-1.53394e-09
-3.10013e-10
-1.5809e-09
-6.94772e-10
-1.79361e-09
-8.49149e-10
-1.92589e-09
-9.03016e-10
-2.00879e-09
-1.0542e-09
-2.09045e-09
-1.02708e-09
-2.0647e-09
-1.03672e-09
-2.01631e-09
-9.56842e-10
-1.87171e-09
-9.74617e-10
-1.73624e-09
-8.1803e-10
-1.65397e-09
-6.90153e-10
-1.58395e-09
-5.42053e-10
-1.53951e-09
-4.66169e-10
-1.47507e-09
-4.1568e-10
-1.36836e-09
-3.6888e-10
-1.36315e-09
-2.34441e-10
-1.33386e-09
-1.73938e-10
-1.31945e-09
-5.83383e-11
-1.31146e-09
1.37434e-11
-1.37016e-09
1.87349e-10
-1.38987e-09
5.72782e-11
-1.40545e-09
-3.77809e-11
-1.30622e-09
-4.79758e-10
-1.1553e-09
-8.54292e-10
-9.52751e-10
-9.96952e-10
-6.29682e-10
-1.42425e-09
-3.67747e-10
-1.58378e-09
-1.47122e-10
-1.67493e-09
8.42322e-11
-1.68326e-09
3.58807e-10
-1.60364e-09
5.39763e-10
-1.4169e-09
6.64463e-10
-1.20379e-09
6.97488e-10
-1.00547e-09
6.5424e-10
-8.27585e-10
7.33592e-10
-8.31132e-10
8.78602e-10
-4.07179e-10
9.23463e-10
3.00884e-11
9.32617e-10
4.06468e-10
7.821e-10
8.6696e-10
4.95132e-10
9.42245e-10
2.61645e-10
7.58046e-10
1.42285e-16
8.43487e-10
-1.09721e-18
8.4585e-19
-1.08397e-18
-8.88247e-19
-9.46589e-19
-1.39946e-18
-7.1863e-19
-1.73344e-18
-4.40454e-19
-1.9479e-18
-1.36241e-19
-2.07888e-18
1.78805e-19
-2.14438e-18
4.9375e-19
-2.15285e-18
7.98966e-19
-2.10967e-18
1.08626e-18
-2.02014e-18
1.34899e-18
-1.89037e-18
1.58171e-18
-1.72724e-18
1.78096e-18
-1.53839e-18
1.94487e-18
-1.33157e-18
2.07267e-18
-1.11423e-18
2.16519e-18
-8.93151e-19
2.22454e-18
-6.74163e-19
2.25341e-18
-4.62054e-19
2.25475e-18
-2.605e-19
2.23178e-18
-7.2085e-20