/*--------------------------------*- C++ -*----------------------------------*\
  =========                 |
  \\      /  F ield         | OpenFOAM: The Open Source CFD Toolbox
   \\    /   O peration     | Website:  https://openfoam.org
    \\  /    A nd           | Version:  6
     \\/     M anipulation  |
\*---------------------------------------------------------------------------*/
FoamFile
{
    version     2.0;
    format      ascii;
    class       volVectorField;
    location    "800";
    object      U;
}
// * * * * * * * * * * * * * * * * * * * * * * * * * * * * * * * * * * * * * //

dimensions      [0 1 -1 0 0 0 0];

internalField   nonuniform List<vector> 
4800
(
(-5.6187e-07 0 -7.04764e-05)
(5.36193e-05 0 -0.000139254)
(4.40187e-05 0 -0.000132471)
(5.99371e-05 0 -0.000116228)
(6.95552e-05 0 -6.05659e-05)
(2.45327e-05 0 -2.07884e-05)
(1.80741e-05 0 1.20338e-06)
(1.2116e-05 0 -2.79465e-06)
(1.01184e-05 0 1.04745e-06)
(-2.16247e-06 0 -2.06498e-05)
(-9.64279e-06 0 -7.83339e-06)
(-3.53709e-05 0 4.83103e-06)
(-8.05958e-05 0 1.94939e-05)
(-0.000153146 0 -1.28844e-06)
(-0.000216617 0 -4.79102e-05)
(-0.000267501 0 -7.93415e-05)
(-0.000295468 0 -0.000118856)
(-0.000334803 0 -8.11616e-05)
(-0.000538992 0 -4.36921e-05)
(-0.000746591 0 -0.000212777)
(-0.000929113 0 -0.000121232)
(-0.00116319 0 0.000194055)
(-0.0013321 0 0.000119211)
(-0.00147012 0 1.58904e-05)
(-0.00156683 0 4.24025e-05)
(-0.00162937 0 3.90243e-06)
(-0.00166218 0 -2.42479e-05)
(-0.00167395 0 -3.26335e-05)
(-0.00167014 0 -5.53953e-05)
(-0.00163744 0 -6.35124e-05)
(-0.00161364 0 -4.39682e-05)
(-0.00159832 0 -7.45836e-05)
(-0.00156611 0 -0.000100644)
(-0.00145208 0 -1.31408e-05)
(-0.00133996 0 -9.5241e-05)
(-0.00126592 0 -0.000142245)
(-0.00120869 0 -0.000128076)
(-0.00114563 0 -6.96764e-05)
(-0.00107756 0 -2.92363e-05)
(-0.000982973 0 -6.59882e-05)
(-0.000876335 0 -8.71333e-05)
(-0.000782356 0 -8.14459e-05)
(-0.000702565 0 -8.11003e-05)
(-0.000618177 0 -6.23904e-05)
(-0.000510633 0 -8.96504e-05)
(-0.000434033 0 -5.70829e-05)
(-0.000404096 0 -2.85143e-05)
(-0.000401683 0 1.3382e-05)
(-0.000399535 0 8.6493e-06)
(-0.000406411 0 6.52448e-06)
(-0.000432927 0 3.67537e-05)
(-0.000454589 0 3.17519e-06)
(-0.000485757 0 1.55311e-05)
(-0.000513703 0 2.1119e-05)
(-0.000534671 0 8.51865e-06)
(-0.000557958 0 6.03514e-06)
(-0.000582179 0 -6.77142e-07)
(-0.000599165 0 4.33241e-06)
(-0.000606188 0 2.51601e-06)
(-0.000605524 0 4.15798e-06)
(-0.000578809 0 -2.92708e-06)
(-0.000542131 0 -7.44168e-06)
(-0.000509834 0 -2.42696e-05)
(-0.000489135 0 -4.60848e-05)
(-0.000466184 0 -5.79016e-05)
(-0.000433696 0 -5.94762e-05)
(-0.000398452 0 -7.25093e-05)
(-0.00035708 0 -8.29678e-05)
(-0.000311162 0 -6.4901e-05)
(-0.000263668 0 -5.3455e-05)
(-0.000213734 0 -6.09598e-05)
(-0.000178151 0 -6.33251e-05)
(-0.000148034 0 -6.1851e-05)
(-0.000114932 0 -5.02341e-05)
(-0.000100997 0 -7.83352e-05)
(-3.9607e-05 0 -0.000157959)
(-0.000129038 0 -0.000193207)
(-0.000369251 0 -3.2355e-06)
(-0.000495654 0 -9.00164e-05)
(5.91839e-06 0 -9.13151e-05)
(-9.11178e-13 0 -1.88472e-13)
(-1.54236e-12 0 -7.81315e-14)
(-2.96915e-13 0 -5.02911e-14)
(-2.05242e-13 0 -4.15437e-14)
(-1.25758e-13 0 -3.8185e-14)
(-5.14216e-14 0 -3.65976e-14)
(2.00698e-14 0 -3.56108e-14)
(8.94644e-14 0 -3.46894e-14)
(1.56678e-13 0 -3.35476e-14)
(2.21148e-13 0 -3.2097e-14)
(2.82346e-13 0 -3.02935e-14)
(3.3963e-13 0 -2.81306e-14)
(3.92374e-13 0 -2.5632e-14)
(4.40023e-13 0 -2.28476e-14)
(4.82111e-13 0 -1.98459e-14)
(5.18268e-13 0 -1.6704e-14)
(5.48219e-13 0 -1.34951e-14)
(5.71813e-13 0 -1.02821e-14)
(5.89039e-13 0 -7.12013e-15)
(6.00026e-13 0 -4.05539e-15)
(6.05007e-13 0 -1.1214e-15)
(6.04282e-13 0 1.66047e-15)
(5.9821e-13 0 4.27339e-15)
(5.87172e-13 0 6.69891e-15)
(5.71549e-13 0 8.91988e-15)
(5.51699e-13 0 1.09286e-14)
(5.27983e-13 0 1.27325e-14)
(5.00788e-13 0 1.43514e-14)
(4.70536e-13 0 1.5809e-14)
(4.37655e-13 0 1.71232e-14)
(4.0253e-13 0 1.8301e-14)
(3.65474e-13 0 1.93389e-14)
(3.26716e-13 0 2.02287e-14)
(2.86432e-13 0 2.09643e-14)
(2.44777e-13 0 2.1547e-14)
(2.01918e-13 0 2.19874e-14)
(1.58053e-13 0 2.23025e-14)
(1.13407e-13 0 2.25105e-14)
(6.82226e-14 0 2.26247e-14)
(2.27634e-14 0 2.26404e-14)
(-1.69177e-05 0 -4.5952e-05)
(1.94701e-05 0 8.60669e-05)
(-3.8582e-05 0 5.96299e-05)
(-3.79902e-05 0 2.74081e-05)
(-2.00497e-05 0 2.3237e-05)
(-3.02992e-05 0 1.95031e-05)
(-8.29107e-06 0 6.29839e-06)
(-2.12279e-06 0 1.4452e-05)
(-3.15477e-06 0 5.97011e-06)
(-1.24637e-05 0 8.09199e-06)
(-2.97026e-05 0 3.10645e-05)
(-6.18472e-05 0 4.48876e-05)
(-0.000104008 0 7.15527e-05)
(-0.000159438 0 9.67557e-05)
(-0.000206544 0 0.000136283)
(-0.000367044 0 0.000137366)
(-0.000543212 0 0.000154277)
(-0.000583382 0 0.000159635)
(-0.00060465 0 0.000230299)
(-0.00077567 0 0.000399657)
(-0.00097091 0 0.000317748)
(-0.00110958 0 0.00014298)
(-0.00123081 0 0.000164038)
(-0.00135147 0 0.000177159)
(-0.00143245 0 0.000108361)
(-0.00148181 0 7.15745e-05)
(-0.00150973 0 4.02821e-05)
(-0.00151476 0 3.575e-05)
(-0.00151026 0 1.54789e-05)
(-0.00150521 0 -5.37335e-06)
(-0.00148034 0 -7.80001e-05)
(-0.0014496 0 -0.000147707)
(-0.0014243 0 -0.000147482)
(-0.00137944 0 -0.000151312)
(-0.0013125 0 -0.000203956)
(-0.00124804 0 -0.00013114)
(-0.00117159 0 -5.83598e-05)
(-0.00109843 0 -0.000186172)
(-0.00106033 0 -0.000129956)
(-0.000983211 0 -0.000171642)
(-0.000865281 0 -0.000157899)
(-0.000751566 0 -0.000142148)
(-0.000668968 0 -0.000123275)
(-0.000592764 0 -7.92312e-05)
(-0.000493186 0 -8.62439e-05)
(-0.000414058 0 -5.57992e-05)
(-0.000361187 0 -4.68205e-05)
(-0.000338051 0 3.95105e-06)
(-0.000323924 0 7.46858e-06)
(-0.000325259 0 -2.36572e-06)
(-0.000351737 0 4.32491e-05)
(-0.000376611 0 3.39523e-05)
(-0.000425557 0 4.68427e-05)
(-0.000463543 0 5.28686e-05)
(-0.000492179 0 4.20635e-05)
(-0.000513003 0 4.61967e-05)
(-0.000524045 0 3.28579e-05)
(-0.000527837 0 3.05647e-05)
(-0.000528771 0 9.71974e-06)
(-0.000524261 0 -3.57252e-05)
(-0.000500351 0 -8.46746e-05)
(-0.000480493 0 -3.84585e-05)
(-0.000442728 0 -7.34626e-05)
(-0.000419861 0 -7.37901e-06)
(-0.000376583 0 3.55737e-06)
(-0.000332835 0 -1.87902e-05)
(-0.000294935 0 -3.10947e-05)
(-0.000257351 0 -2.5222e-05)
(-0.000209068 0 -5.1336e-05)
(-0.000169569 0 -2.67345e-05)
(-0.000121769 0 -4.94243e-05)
(-6.65564e-05 0 -5.68698e-05)
(-3.04682e-05 0 -1.23248e-06)
(4.225e-05 0 -5.00488e-05)
(8.68592e-05 0 3.12491e-05)
(0.000127939 0 9.72695e-05)
(0.000235368 0 0.000132142)
(0.000268147 0 -2.13953e-05)
(-6.34145e-05 0 -1.26893e-05)
(6.42206e-06 0 -5.58938e-05)
(-9.45954e-13 0 -2.14009e-13)
(-1.41866e-12 0 -1.55914e-13)
(-2.61839e-13 0 -1.32e-13)
(-1.9425e-13 0 -1.19707e-13)
(-1.21537e-13 0 -1.13362e-13)
(-4.91934e-14 0 -1.09822e-13)
(2.1951e-14 0 -1.07314e-13)
(9.15889e-14 0 -1.04704e-13)
(1.59271e-13 0 -1.01334e-13)
(2.24402e-13 0 -9.6965e-14)
(2.86312e-13 0 -9.14799e-14)
(3.44291e-13 0 -8.4885e-14)
(3.97657e-13 0 -7.7279e-14)
(4.45809e-13 0 -6.88329e-14)
(4.88255e-13 0 -5.97601e-14)
(5.24618e-13 0 -5.02851e-14)
(5.54641e-13 0 -4.06165e-14)
(5.78188e-13 0 -3.09375e-14)
(5.95265e-13 0 -2.14082e-14)
(6.06025e-13 0 -1.21626e-14)
(6.10723e-13 0 -3.30376e-15)
(6.09677e-13 0 5.09012e-15)
(6.03248e-13 0 1.29535e-14)
(5.91819e-13 0 2.0232e-14)
(5.75779e-13 0 2.68953e-14)
(5.55512e-13 0 3.29496e-14)
(5.31406e-13 0 3.84336e-14)
(5.03864e-13 0 4.3399e-14)
(4.73308e-13 0 4.78865e-14)
(4.40147e-13 0 5.19118e-14)
(4.04746e-13 0 5.54665e-14)
(3.67401e-13 0 5.85324e-14)
(3.28342e-13 0 6.10983e-14)
(2.87751e-13 0 6.31743e-14)
(2.458e-13 0 6.47955e-14)
(2.02674e-13 0 6.60163e-14)
(1.58576e-13 0 6.68992e-14)
(1.1373e-13 0 6.75013e-14)
(6.83525e-14 0 6.78647e-14)
(2.27791e-14 0 6.80138e-14)
(-6.94239e-05 0 -2.52318e-05)
(-5.38829e-05 0 -8.93986e-06)
(-6.35145e-05 0 -5.67149e-06)
(-5.1691e-05 0 1.36407e-05)
(-3.58048e-05 0 2.02455e-05)
(-3.2516e-05 0 8.24122e-06)
(-1.85386e-05 0 -1.85198e-05)
(-2.63954e-06 0 2.82446e-05)
(-4.07308e-06 0 1.48319e-05)
(-7.96851e-06 0 5.57233e-05)
(-3.34184e-05 0 5.49036e-05)
(-4.75085e-05 0 8.69088e-05)
(-9.48767e-05 0 0.000123206)
(-0.00016281 0 0.000171095)
(-0.000234503 0 0.000203634)
(-0.00033933 0 0.000206974)
(-0.00050846 0 0.000254346)
(-0.000624213 0 0.000349746)
(-0.000704546 0 0.000305072)
(-0.000771507 0 0.00030898)
(-0.000868052 0 0.000436973)
(-0.00101007 0 0.00033301)
(-0.00110931 0 0.000253209)
(-0.00117898 0 0.000226037)
(-0.00123072 0 0.000138233)
(-0.0012554 0 8.34298e-05)
(-0.00126251 0 5.93882e-05)
(-0.00125498 0 -1.4452e-05)
(-0.00123874 0 -6.37109e-05)
(-0.0012359 0 -4.86501e-05)
(-0.00123971 0 -5.37489e-05)
(-0.00125132 0 -6.83713e-05)
(-0.00125725 0 -7.04509e-05)
(-0.00125515 0 -9.21759e-05)
(-0.00124326 0 -0.00013723)
(-0.00122046 0 -0.000168481)
(-0.00114975 0 -0.000290291)
(-0.0011079 0 -0.00023642)
(-0.00103904 0 -0.000217552)
(-0.000966035 0 -0.000143046)
(-0.000864721 0 -0.000212427)
(-0.000750223 0 -0.000293737)
(-0.000662164 0 -0.000249598)
(-0.000607952 0 -0.000186366)
(-0.000508222 0 -0.000302672)
(-0.000480583 0 -0.000200126)
(-0.000425287 0 -0.000122082)
(-0.0003764 0 -3.27789e-05)
(-0.000338052 0 1.44285e-05)
(-0.000323676 0 1.25709e-05)
(-0.000315528 0 9.08874e-05)
(-0.000319647 0 6.50257e-05)
(-0.000339836 0 7.59053e-05)
(-0.000359218 0 6.59357e-05)
(-0.000381331 0 3.91031e-05)
(-0.000405706 0 3.29819e-05)
(-0.000415589 0 6.13249e-06)
(-0.000417975 0 -1.23338e-06)
(-0.000415087 0 -3.17982e-05)
(-0.000416702 0 -2.80968e-05)
(-0.000404451 0 -5.8726e-05)
(-0.000391695 0 -7.63213e-05)
(-0.000372296 0 -9.01276e-05)
(-0.000341674 0 -0.000103835)
(-0.000288726 0 -0.000119078)
(-0.000239435 0 -0.0001289)
(-0.000201646 0 -0.000123968)
(-0.000155845 0 -0.000127861)
(-0.000127898 0 -0.000123302)
(-8.20499e-05 0 -0.000122049)
(-8.38644e-05 0 -0.000105506)
(-4.05947e-05 0 -0.000121583)
(-8.73332e-06 0 -0.00015443)
(6.11215e-05 0 -0.000136494)
(5.52278e-05 0 -0.00010708)
(0.000110745 0 -2.10552e-05)
(0.000216087 0 -2.70558e-05)
(-0.000362368 0 -4.74721e-05)
(-0.000500025 0 -3.26363e-05)
(6.50911e-06 0 -1.38841e-05)
(-1.02824e-12 0 -2.1416e-13)
(-1.48673e-12 0 -2.13041e-13)
(-2.61993e-13 0 -2.02398e-13)
(-1.87496e-13 0 -1.92343e-13)
(-1.1638e-13 0 -1.86164e-13)
(-4.55027e-14 0 -1.82393e-13)
(2.53258e-14 0 -1.79282e-13)
(9.55631e-14 0 -1.75456e-13)
(1.64418e-13 0 -1.70098e-13)
(2.31002e-13 0 -1.62895e-13)
(2.94426e-13 0 -1.53711e-13)
(3.53831e-13 0 -1.4261e-13)
(4.08426e-13 0 -1.29793e-13)
(4.57542e-13 0 -1.15564e-13)
(5.00659e-13 0 -1.00286e-13)
(5.37411e-13 0 -8.43343e-14)
(5.67567e-13 0 -6.80577e-14)
(5.91021e-13 0 -5.17635e-14)
(6.07813e-13 0 -3.5721e-14)
(6.18131e-13 0 -2.0157e-14)
(6.22259e-13 0 -5.25e-15)
(6.20539e-13 0 8.8623e-15)
(6.13351e-13 0 2.20703e-14)
(6.01114e-13 0 3.42938e-14)
(5.84267e-13 0 4.54977e-14)
(5.63238e-13 0 5.57009e-14)
(5.38432e-13 0 6.49605e-14)
(5.10241e-13 0 7.33386e-14)
(4.79049e-13 0 8.08725e-14)
(4.45235e-13 0 8.7565e-14)
(4.09151e-13 0 9.33973e-14)
(3.71105e-13 0 9.83554e-14)
(3.31358e-13 0 1.02452e-13)
(2.9013e-13 0 1.05739e-13)
(2.47619e-13 0 1.08302e-13)
(2.04022e-13 0 1.10245e-13)
(1.59538e-13 0 1.11674e-13)
(1.14373e-13 0 1.12679e-13)
(6.87351e-14 0 1.13328e-13)
(2.29125e-14 0 1.13679e-13)
(-4.54865e-05 0 3.04984e-05)
(-2.7702e-05 0 3.35961e-05)
(-5.22115e-05 0 1.84245e-05)
(-5.74928e-05 0 -4.54609e-06)
(-4.58242e-05 0 -2.32705e-05)
(-3.39524e-05 0 -1.48956e-05)
(-1.26174e-05 0 -2.94851e-05)
(7.28288e-06 0 -7.22297e-06)
(1.07055e-05 0 4.2734e-06)
(6.87515e-06 0 3.82111e-05)
(-1.89767e-05 0 7.58006e-05)
(-5.24518e-05 0 0.000130989)
(-9.39613e-05 0 0.000174459)
(-0.000149924 0 0.000247213)
(-0.000205808 0 0.000321699)
(-0.000268346 0 0.000353549)
(-0.000419106 0 0.000354138)
(-0.00056982 0 0.000404436)
(-0.000623038 0 0.000509828)
(-0.000744878 0 0.000428116)
(-0.000832995 0 0.000399277)
(-0.000858572 0 0.000481801)
(-0.000947405 0 0.000384648)
(-0.00099845 0 0.000306204)
(-0.0010271 0 0.000228845)
(-0.00104121 0 0.000133155)
(-0.00105349 0 1.50605e-05)
(-0.00105918 0 -4.03584e-06)
(-0.00105914 0 -2.05922e-05)
(-0.00105687 0 -3.37403e-05)
(-0.00106301 0 -6.59116e-05)
(-0.00108844 0 -9.4991e-05)
(-0.00110806 0 -0.000102945)
(-0.00110874 0 -0.000126561)
(-0.00109904 0 -0.000223707)
(-0.00113901 0 -0.000106492)
(-0.00114655 0 -0.000133669)
(-0.00112424 0 -0.000209784)
(-0.00102497 0 -0.000340745)
(-0.000952179 0 -0.000391372)
(-0.00090931 0 -0.000394575)
(-0.000881913 0 -0.000298222)
(-0.000786178 0 -0.000304124)
(-0.000698169 0 -0.000333261)
(-0.000692611 0 -0.000225523)
(-0.000650652 0 -0.000193771)
(-0.000593089 0 -0.000148404)
(-0.000496646 0 -0.0001914)
(-0.000439496 0 -0.000111587)
(-0.00038469 0 -1.02414e-05)
(-0.000339716 0 3.38397e-05)
(-0.00032992 0 7.07986e-05)
(-0.000329887 0 0.000104223)
(-0.000323373 0 0.000100246)
(-0.000322466 0 8.8876e-05)
(-0.00031888 0 9.20861e-05)
(-0.000317079 0 6.3842e-05)
(-0.000317184 0 3.43588e-05)
(-0.000317403 0 1.72012e-05)
(-0.000326582 0 -1.03137e-05)
(-0.000317497 0 -7.4251e-05)
(-0.000301873 0 -7.75652e-05)
(-0.000283829 0 -9.36768e-05)
(-0.000261573 0 -0.000105745)
(-0.000215759 0 -0.000130125)
(-0.000170519 0 -0.00013804)
(-0.000137736 0 -0.000135861)
(-6.01973e-05 0 -0.000143581)
(1.64098e-06 0 -0.000159287)
(3.96535e-05 0 -0.000118597)
(6.38999e-05 0 -0.0001084)
(8.65949e-05 0 -0.000102088)
(0.000128343 0 -0.000102263)
(8.29231e-05 0 -9.91811e-05)
(-5.81238e-06 0 -5.7343e-05)
(8.55963e-05 0 2.56028e-05)
(0.000169244 0 0.000109238)
(0.000288699 0 0.000124348)
(-0.000317827 0 7.59051e-05)
(7.20982e-06 0 3.73747e-05)
(-1.10031e-12 0 -3.71769e-13)
(-1.43725e-12 0 -2.98194e-13)
(-2.40703e-13 0 -2.72314e-13)
(-1.7758e-13 0 -2.61018e-13)
(-1.11155e-13 0 -2.56293e-13)
(-4.18826e-14 0 -2.53875e-13)
(2.92157e-14 0 -2.51304e-13)
(1.00886e-13 0 -2.4699e-13)
(1.71832e-13 0 -2.40068e-13)
(2.40789e-13 0 -2.30232e-13)
(3.06597e-13 0 -2.17413e-13)
(3.68209e-13 0 -2.01777e-13)
(4.24703e-13 0 -1.83648e-13)
(4.75316e-13 0 -1.63467e-13)
(5.19485e-13 0 -1.41752e-13)
(5.56847e-13 0 -1.1905e-13)
(5.87212e-13 0 -9.58738e-14)
(6.10524e-13 0 -7.2677e-14)
(6.26872e-13 0 -4.98528e-14)
(6.36496e-13 0 -2.77337e-14)
(6.39742e-13 0 -6.57911e-15)
(6.36997e-13 0 1.34236e-14)
(6.28679e-13 0 3.2138e-14)
(6.15246e-13 0 4.94644e-14)
(5.97186e-13 0 6.53453e-14)
(5.74975e-13 0 7.97764e-14)
(5.49043e-13 0 9.28004e-14)
(5.19776e-13 0 1.04481e-13)
(4.87534e-13 0 1.14874e-13)
(4.52672e-13 0 1.24014e-13)
(4.15536e-13 0 1.31921e-13)
(3.76456e-13 0 1.38624e-13)
(3.35725e-13 0 1.44174e-13)
(2.936e-13 0 1.48658e-13)
(2.50306e-13 0 1.52192e-13)
(2.06046e-13 0 1.54906e-13)
(1.6101e-13 0 1.56928e-13)
(1.15383e-13 0 1.58369e-13)
(6.93521e-14 0 1.59315e-13)
(2.31299e-14 0 1.59827e-13)
(-4.8783e-05 0 4.31609e-05)
(-4.25593e-05 0 3.73823e-05)
(-5.96778e-05 0 3.29283e-05)
(-6.57562e-05 0 1.74896e-05)
(-5.91433e-05 0 -1.69086e-05)
(-3.7888e-05 0 -4.32911e-05)
(-2.54374e-05 0 -3.52423e-05)
(-1.30551e-05 0 -5.91194e-06)
(4.50412e-06 0 1.75768e-05)
(-3.55921e-06 0 4.82146e-05)
(-1.70705e-05 0 9.6033e-05)
(-6.92244e-05 0 0.000176027)
(-0.00012269 0 0.000235075)
(-0.000189576 0 0.00030915)
(-0.000303546 0 0.000362389)
(-0.000379253 0 0.000383421)
(-0.000415313 0 0.00042157)
(-0.000492852 0 0.000483284)
(-0.000560758 0 0.000550565)
(-0.000631281 0 0.000581649)
(-0.000699164 0 0.00056151)
(-0.000753501 0 0.000507623)
(-0.000807148 0 0.000418488)
(-0.000846847 0 0.00032909)
(-0.000875077 0 0.000245543)
(-0.000878007 0 7.11434e-05)
(-0.000853228 0 0.000109837)
(-0.000868765 0 3.24491e-05)
(-0.000890297 0 -2.67817e-05)
(-0.000897268 0 -3.07952e-05)
(-0.000905532 0 -3.6879e-05)
(-0.000920081 0 -7.4078e-05)
(-0.000952197 0 -1.21994e-05)
(-0.000993995 0 -0.000103635)
(-0.00104335 0 -0.000177931)
(-0.00106431 0 -0.000193174)
(-0.00105093 0 -0.000251333)
(-0.00104202 0 -0.000265545)
(-0.00104156 0 -0.000287925)
(-0.00104317 0 -0.000313276)
(-0.00101955 0 -0.000360819)
(-0.000943883 0 -0.000379288)
(-0.000880917 0 -0.000342673)
(-0.00081676 0 -0.000323683)
(-0.000777663 0 -0.000266345)
(-0.000760072 0 -0.00017626)
(-0.000708327 0 -0.000203657)
(-0.000673561 0 -0.000124676)
(-0.000600981 0 -9.06905e-05)
(-0.000515601 0 -8.14576e-05)
(-0.000441978 0 -4.80813e-05)
(-0.000395081 0 2.76106e-05)
(-0.000364597 0 4.54946e-05)
(-0.00034645 0 4.9714e-05)
(-0.000330163 0 3.00711e-05)
(-0.00031777 0 1.03007e-05)
(-0.000302237 0 7.54535e-06)
(-0.000289546 0 2.39333e-06)
(-0.000293218 0 -1.18146e-05)
(-0.000302094 0 -2.17545e-05)
(-0.000295313 0 -3.49546e-05)
(-0.000287783 0 -8.34948e-05)
(-0.000270539 0 -8.54887e-05)
(-0.000252508 0 -0.000118811)
(-0.000202971 0 -0.000151423)
(-0.000151363 0 -0.00016248)
(-6.15512e-05 0 -0.000190165)
(1.83503e-05 0 -0.00017353)
(3.55707e-05 0 -0.000211143)
(9.07096e-05 0 -0.000159584)
(0.000123539 0 -0.000139395)
(0.000165376 0 -0.000132824)
(0.000194298 0 -5.86157e-05)
(2.64356e-05 0 -2.68157e-06)
(-0.000274253 0 2.03859e-05)
(-0.000272425 0 -2.23341e-05)
(-0.000330414 0 -9.07396e-06)
(-0.000396553 0 -2.75861e-05)
(-0.000593155 0 -6.55742e-05)
(7.38852e-06 0 -9.21393e-05)
(-1.23078e-12 0 -4.94305e-13)
(-1.4246e-12 0 -3.54739e-13)
(-2.24391e-13 0 -3.27635e-13)
(-1.71051e-13 0 -3.23024e-13)
(-1.08815e-13 0 -3.23933e-13)
(-4.00951e-14 0 -3.2525e-13)
(3.25251e-14 0 -3.24643e-13)
(1.06905e-13 0 -3.20675e-13)
(1.81176e-13 0 -3.12614e-13)
(2.53656e-13 0 -3.00272e-13)
(3.22881e-13 0 -2.83726e-13)
(3.87596e-13 0 -2.63307e-13)
(4.46736e-13 0 -2.3952e-13)
(4.99438e-13 0 -2.12979e-13)
(5.45076e-13 0 -1.84385e-13)
(5.8329e-13 0 -1.54471e-13)
(6.1394e-13 0 -1.23938e-13)
(6.37042e-13 0 -9.34047e-14)
(6.52757e-13 0 -6.3403e-14)
(6.61405e-13 0 -3.43815e-14)
(6.63417e-13 0 -6.69035e-15)
(6.59257e-13 0 1.94241e-14)
(6.49392e-13 0 4.37956e-14)
(6.34322e-13 0 6.6308e-14)
(6.14579e-13 0 8.6886e-14)
(5.90693e-13 0 1.05506e-13)
(5.63137e-13 0 1.222e-13)
(5.32314e-13 0 1.37045e-13)
(4.98582e-13 0 1.50132e-13)
(4.62282e-13 0 1.61553e-13)
(4.23761e-13 0 1.71389e-13)
(3.83358e-13 0 1.79722e-13)
(3.41392e-13 0 1.86649e-13)
(2.98147e-13 0 1.92286e-13)
(2.53867e-13 0 1.9677e-13)
(2.08758e-13 0 2.00247e-13)
(1.63001e-13 0 2.02858e-13)
(1.16759e-13 0 2.04728e-13)
(7.01941e-14 0 2.0596e-13)
(2.34253e-14 0 2.06621e-13)
(-4.85431e-05 0 7.6319e-05)
(-5.95567e-05 0 5.23374e-05)
(-9.01736e-05 0 2.1666e-05)
(-8.65867e-05 0 -1.16651e-05)
(-6.9539e-05 0 -4.19831e-05)
(-4.32627e-05 0 -6.61909e-05)
(-2.38017e-05 0 -5.95528e-05)
(-5.7556e-06 0 -4.1816e-05)
(-1.54646e-06 0 -4.68956e-06)
(4.31674e-07 0 5.33541e-05)
(-2.54096e-05 0 0.000127467)
(-6.90249e-05 0 0.000221699)
(-0.00011414 0 0.00031596)
(-0.000209632 0 0.000387919)
(-0.000289202 0 0.000462557)
(-0.000375635 0 0.000494525)
(-0.000421806 0 0.00051687)
(-0.000469628 0 0.000545519)
(-0.000504671 0 0.000604689)
(-0.000579851 0 0.000606954)
(-0.000665625 0 0.000552193)
(-0.000680589 0 0.000535741)
(-0.000714639 0 0.000450976)
(-0.000709805 0 0.00035137)
(-0.000714571 0 0.00028272)
(-0.000766629 0 9.40759e-05)
(-0.00075108 0 -3.27409e-06)
(-0.000741819 0 1.10497e-05)
(-0.00076435 0 -1.37137e-05)
(-0.000787676 0 -3.07675e-05)
(-0.000800002 0 -3.61363e-05)
(-0.000803097 0 -3.38501e-05)
(-0.00079902 0 -3.21138e-05)
(-0.000843274 0 -4.47081e-05)
(-0.00093758 0 -8.28029e-05)
(-0.00099113 0 -0.000120157)
(-0.00101194 0 -0.000189235)
(-0.00101813 0 -0.000295899)
(-0.00103736 0 -0.00032577)
(-0.00104183 0 -0.000344611)
(-0.00101887 0 -0.000389606)
(-0.000952541 0 -0.000461181)
(-0.00090142 0 -0.00047115)
(-0.000855257 0 -0.000406672)
(-0.000825311 0 -0.000325747)
(-0.000796882 0 -0.000281503)
(-0.000776064 0 -0.000246671)
(-0.000749604 0 -0.000225316)
(-0.000710122 0 -0.000191659)
(-0.000660541 0 -0.000138546)
(-0.000612602 0 7.97704e-06)
(-0.000544537 0 -2.4693e-05)
(-0.000489177 0 7.24388e-05)
(-0.000444685 0 1.98454e-05)
(-0.000399382 0 3.51429e-05)
(-0.000373095 0 2.96103e-05)
(-0.00036572 0 2.02642e-05)
(-0.000371426 0 1.15804e-05)
(-0.000387419 0 -7.74962e-06)
(-0.000404981 0 -3.66766e-05)
(-0.000433841 0 -6.88848e-05)
(-0.000437107 0 -0.000118997)
(-0.000409995 0 -0.000132178)
(-0.000364279 0 -0.000222156)
(-0.000329356 0 -0.000224034)
(-0.000285157 0 -0.000257635)
(-0.000232173 0 -0.000289856)
(-0.000127728 0 -0.000298753)
(-6.13662e-05 0 -0.000273308)
(5.88703e-05 0 -0.000194506)
(9.29927e-05 0 -0.000199018)
(0.000151221 0 -0.000201476)
(0.000217485 0 3.52742e-06)
(0.00022109 0 6.71578e-05)
(0.000185436 0 0.000104254)
(0.000156178 0 0.000122362)
(-1.06769e-05 0 9.37215e-05)
(0.0002816 0 9.88082e-05)
(-0.000660438 0 -0.000148071)
(8.20188e-06 0 -0.000192575)
(-1.36682e-12 0 -1.53667e-13)
(-1.31304e-12 0 -3.14479e-13)
(-2.08569e-13 0 -3.60449e-13)
(-1.73461e-13 0 -3.79477e-13)
(-1.12969e-13 0 -3.91138e-13)
(-4.2185e-14 0 -3.98532e-13)
(3.4091e-14 0 -4.01224e-13)
(1.13013e-13 0 -3.98328e-13)
(1.92235e-13 0 -3.89401e-13)
(2.69678e-13 0 -3.74476e-13)
(3.43561e-13 0 -3.53862e-13)
(4.12415e-13 0 -3.28135e-13)
(4.75031e-13 0 -2.98049e-13)
(5.30451e-13 0 -2.64462e-13)
(5.77993e-13 0 -2.28292e-13)
(6.17293e-13 0 -1.90492e-13)
(6.48278e-13 0 -1.51967e-13)
(6.71059e-13 0 -1.13521e-13)
(6.85895e-13 0 -7.5839e-14)
(6.93209e-13 0 -3.94985e-14)
(6.93547e-13 0 -4.95356e-15)
(6.87483e-13 0 2.74799e-14)
(6.75563e-13 0 5.76054e-14)
(6.58337e-13 0 8.53044e-14)
(6.36384e-13 0 1.10509e-13)
(6.10289e-13 0 1.33203e-13)
(5.80582e-13 0 1.53431e-13)
(5.47709e-13 0 1.71293e-13)
(5.12043e-13 0 1.8693e-13)
(4.73928e-13 0 2.00492e-13)
(4.33705e-13 0 2.12127e-13)
(3.91716e-13 0 2.21979e-13)
(3.48289e-13 0 2.30189e-13)
(3.03722e-13 0 2.36904e-13)
(2.58267e-13 0 2.42279e-13)
(2.12133e-13 0 2.46472e-13)
(1.65492e-13 0 2.49637e-13)
(1.18485e-13 0 2.5191e-13)
(7.12451e-14 0 2.53404e-13)
(2.37912e-14 0 2.54196e-13)
(-3.76777e-05 0 0.000121195)
(-4.35679e-05 0 0.000101483)
(-9.72635e-05 0 5.96955e-05)
(-0.000102785 0 -8.36865e-06)
(-8.74419e-05 0 -7.42563e-05)
(-6.08011e-05 0 -9.18482e-05)
(-3.49802e-05 0 -8.73901e-05)
(3.98783e-06 0 -6.6787e-05)
(5.87763e-06 0 -7.86563e-06)
(-1.12451e-05 0 7.93554e-05)
(-5.42294e-05 0 0.000178795)
(-8.21584e-05 0 0.000267689)
(-0.00014028 0 0.000371593)
(-0.000139493 0 0.000483375)
(-0.00021292 0 0.000559447)
(-0.000289396 0 0.000604639)
(-0.000411475 0 0.000590926)
(-0.0005096 0 0.000565923)
(-0.000524625 0 0.000610395)
(-0.000516679 0 0.000659938)
(-0.000554591 0 0.000631632)
(-0.000583921 0 0.000585106)
(-0.000608087 0 0.000527381)
(-0.00064434 0 0.00037499)
(-0.000591979 0 0.000301843)
(-0.000581546 0 0.000265813)
(-0.000658765 0 8.95567e-05)
(-0.000685125 0 3.89197e-05)
(-0.000688571 0 2.04168e-05)
(-0.00068567 0 -7.29467e-06)
(-0.000686859 0 -8.1033e-06)
(-0.00070228 0 -2.52295e-05)
(-0.000718441 0 -2.66035e-05)
(-0.000749059 0 -2.19504e-05)
(-0.000787335 0 -4.07278e-05)
(-0.000835458 0 -7.59839e-05)
(-0.000904369 0 -0.000180559)
(-0.000970695 0 -0.000260935)
(-0.00100847 0 -0.000302388)
(-0.00100095 0 -0.000363685)
(-0.000969492 0 -0.00043718)
(-0.000956118 0 -0.000472453)
(-0.000951806 0 -0.000436503)
(-0.000889703 0 -0.000428263)
(-0.000875179 0 -0.000296598)
(-0.000847723 0 -0.000234149)
(-0.000797598 0 -0.000301055)
(-0.000804118 0 -0.00022355)
(-0.000777968 0 -0.00022075)
(-0.000750098 0 -0.000193823)
(-0.000721289 0 -0.000151649)
(-0.000701088 0 -5.04362e-05)
(-0.000654268 0 -3.33577e-06)
(-0.000604566 0 6.26306e-06)
(-0.000560583 0 -1.45111e-05)
(-0.000536318 0 7.79835e-06)
(-0.000533102 0 1.83957e-05)
(-0.000546059 0 2.95969e-05)
(-0.000568611 0 3.293e-05)
(-0.000577776 0 3.09638e-05)
(-0.000572919 0 -5.17821e-05)
(-0.000505771 0 -0.0002199)
(-0.000495447 0 -0.000130758)
(-0.00041115 0 -0.000267842)
(-0.000389552 0 -0.000252791)
(-0.000308286 0 -0.000317447)
(-0.000243617 0 -0.000343968)
(-0.000135029 0 -0.00036249)
(-7.45996e-05 0 -0.000323034)
(7.48934e-06 0 -0.000313067)
(7.42773e-05 0 -0.000285086)
(0.00015809 0 -0.000200423)
(0.000231833 0 -8.29255e-05)
(0.000299852 0 1.01163e-05)
(0.000306879 0 0.000152594)
(0.000302422 0 0.000154506)
(0.000222242 0 0.000122212)
(0.000272208 0 0.000102051)
(-0.000277334 0 1.46865e-05)
(7.46389e-06 0 -0.000129335)
(-1.26353e-12 0 -2.61394e-13)
(-1.67166e-12 0 -3.88184e-13)
(-2.88968e-13 0 -4.20258e-13)
(-2.01329e-13 0 -4.43373e-13)
(-1.27468e-13 0 -4.62745e-13)
(-4.97854e-14 0 -4.76719e-13)
(3.30147e-14 0 -4.83549e-13)
(1.18817e-13 0 -4.82194e-13)
(2.05028e-13 0 -4.72428e-13)
(2.89195e-13 0 -4.54569e-13)
(3.69222e-13 0 -4.29243e-13)
(4.43409e-13 0 -3.97352e-13)
(5.10408e-13 0 -3.59993e-13)
(5.69194e-13 0 -3.18345e-13)
(6.19047e-13 0 -2.73614e-13)
(6.59615e-13 0 -2.27009e-13)
(6.90911e-13 0 -1.79672e-13)
(7.1317e-13 0 -1.32608e-13)
(7.26779e-13 0 -8.66659e-14)
(7.3229e-13 0 -4.25526e-14)
(7.30395e-13 0 -8.24239e-16)
(7.21816e-13 0 3.81327e-14)
(7.07217e-13 0 7.40929e-14)
(6.87225e-13 0 1.06949e-13)
(6.62477e-13 0 1.36671e-13)
(6.33614e-13 0 1.63283e-13)
(6.01227e-13 0 1.86875e-13)
(5.65814e-13 0 2.0759e-13)
(5.2778e-13 0 2.2562e-13)
(4.8748e-13 0 2.41177e-13)
(4.45248e-13 0 2.54475e-13)
(4.0142e-13 0 2.65713e-13)
(3.56317e-13 0 2.75083e-13)
(3.10237e-13 0 2.82763e-13)
(2.63435e-13 0 2.88931e-13)
(2.16115e-13 0 2.9376e-13)
(1.68438e-13 0 2.97413e-13)
(1.20527e-13 0 3.0004e-13)
(7.24804e-14 0 3.01762e-13)
(2.42171e-14 0 3.02662e-13)
(-5.75329e-05 0 0.000151695)
(-5.50039e-05 0 0.000122788)
(-9.40428e-05 0 6.40631e-05)
(-9.51623e-05 0 -1.86865e-06)
(-8.98879e-05 0 -0.00010614)
(-7.4433e-05 0 -0.000121823)
(-3.03423e-05 0 -0.000123395)
(-2.41976e-05 0 -6.69668e-05)
(-3.37524e-05 0 2.35542e-05)
(-4.13805e-05 0 0.00012592)
(-5.4231e-05 0 0.000212098)
(-8.56167e-05 0 0.000307073)
(-0.000135841 0 0.000420162)
(-0.000172613 0 0.000535134)
(-0.000246558 0 0.000608355)
(-0.000310727 0 0.000651787)
(-0.000364259 0 0.000666175)
(-0.000445889 0 0.000646733)
(-0.000484793 0 0.000654443)
(-0.00048468 0 0.000678175)
(-0.000510902 0 0.000654906)
(-0.000553843 0 0.000568952)
(-0.000562038 0 0.00049187)
(-0.000639897 0 0.000304088)
(-0.000639652 0 8.37868e-05)
(-0.000577664 0 8.13282e-05)
(-0.0005683 0 8.0237e-05)
(-0.000588852 0 5.85066e-05)
(-0.000612657 0 2.06874e-05)
(-0.000620994 0 -1.52023e-05)
(-0.000624839 0 -2.31324e-05)
(-0.00062736 0 -1.26164e-05)
(-0.000627737 0 -8.20916e-07)
(-0.000635127 0 3.15089e-05)
(-0.000649111 0 4.38964e-05)
(-0.00068098 0 -4.76555e-05)
(-0.000758123 0 -6.34894e-05)
(-0.000826663 0 -0.00017871)
(-0.00087525 0 -0.000269307)
(-0.000882156 0 -0.000382211)
(-0.000858017 0 -0.000500431)
(-0.00088761 0 -0.000509373)
(-0.000906455 0 -0.000499431)
(-0.000907815 0 -0.000446467)
(-0.000867259 0 -0.000379673)
(-0.00084075 0 -0.000302378)
(-0.000815094 0 -0.000283171)
(-0.000815188 0 -0.000216191)
(-0.000788393 0 -0.000234317)
(-0.000791181 0 -0.00017657)
(-0.000785559 0 -0.000113705)
(-0.000758564 0 -7.3755e-05)
(-0.000725122 0 4.46851e-06)
(-0.000681276 0 -4.04323e-05)
(-0.000647443 0 -4.77288e-05)
(-0.000629808 0 2.94286e-05)
(-0.000622626 0 1.60715e-05)
(-0.000624488 0 2.91669e-05)
(-0.000622482 0 2.82168e-05)
(-0.000606191 0 -6.44776e-05)
(-0.000588101 0 -8.2795e-05)
(-0.000529253 0 -0.000202353)
(-0.000495851 0 -0.000191753)
(-0.000409925 0 -0.000296571)
(-0.000371111 0 -0.000314363)
(-0.000224187 0 -0.000418184)
(-0.000135852 0 -0.000424202)
(-8.03528e-05 0 -0.000402351)
(2.27925e-05 0 -0.000398303)
(2.91957e-05 0 -0.000385573)
(7.24446e-05 0 -0.000342063)
(0.000156357 0 -0.000300973)
(0.000249831 0 -0.000148831)
(0.00031329 0 -4.03235e-05)
(0.000376479 0 8.74818e-05)
(0.000380142 0 0.000215595)
(0.000306962 0 0.000254837)
(0.000363058 0 0.000130983)
(-0.000225738 0 8.24735e-05)
(7.92037e-06 0 7.41454e-07)
(-1.26321e-12 0 -6.71886e-13)
(-1.47955e-12 0 -5.19422e-13)
(-2.63345e-13 0 -4.891e-13)
(-2.15546e-13 0 -5.11111e-13)
(-1.45923e-13 0 -5.3991e-13)
(-6.26064e-14 0 -5.62294e-13)
(2.88844e-14 0 -5.74292e-13)
(1.24213e-13 0 -5.74785e-13)
(2.1986e-13 0 -5.6393e-13)
(3.12863e-13 0 -5.42469e-13)
(4.00778e-13 0 -5.11451e-13)
(4.81665e-13 0 -4.72195e-13)
(5.54037e-13 0 -4.26231e-13)
(6.1683e-13 0 -3.7516e-13)
(6.6933e-13 0 -3.20559e-13)
(7.11235e-13 0 -2.63963e-13)
(7.42679e-13 0 -2.06789e-13)
(7.64065e-13 0 -1.50265e-13)
(7.7595e-13 0 -9.54079e-14)
(7.7905e-13 0 -4.30374e-14)
(7.74233e-13 0 6.21193e-15)
(7.624e-13 0 5.19018e-14)
(7.4438e-13 0 9.37874e-14)
(7.20914e-13 0 1.31783e-13)
(6.92718e-13 0 1.65911e-13)
(6.60493e-13 0 1.96272e-13)
(6.24889e-13 0 2.23028e-13)
(5.86454e-13 0 2.46392e-13)
(5.4563e-13 0 2.66619e-13)
(5.02783e-13 0 2.83987e-13)
(4.58241e-13 0 2.98769e-13)
(4.12324e-13 0 3.11223e-13)
(3.65339e-13 0 3.21589e-13)
(3.1757e-13 0 3.30083e-13)
(2.69264e-13 0 3.36909e-13)
(2.20615e-13 0 3.42258e-13)
(1.71772e-13 0 3.46309e-13)
(1.22835e-13 0 3.49221e-13)
(7.3867e-14 0 3.51124e-13)
(2.46908e-14 0 3.52104e-13)
(-3.05609e-05 0 0.000194592)
(-4.59413e-05 0 0.000149409)
(-6.72138e-05 0 8.89757e-05)
(-7.32601e-05 0 2.02435e-05)
(-7.80937e-05 0 -0.000128383)
(-5.95653e-05 0 -0.000158128)
(-3.23108e-05 0 -0.000144874)
(-1.5766e-05 0 -7.72878e-05)
(-1.59517e-05 0 8.58014e-06)
(-2.21913e-05 0 0.000106021)
(-6.04332e-05 0 0.000227161)
(-9.60687e-05 0 0.000351473)
(-0.000171187 0 0.000461011)
(-0.000242885 0 0.000568521)
(-0.000259712 0 0.000663939)
(-0.000287475 0 0.000721375)
(-0.000329347 0 0.000734532)
(-0.000395849 0 0.000709562)
(-0.000434442 0 0.000694055)
(-0.000468665 0 0.000677288)
(-0.000459514 0 0.00067897)
(-0.000468375 0 0.000619683)
(-0.000462858 0 0.000526751)
(-0.000444621 0 0.00045866)
(-0.000509741 0 0.000318583)
(-0.000538008 0 0.000215315)
(-0.000554251 0 7.99043e-05)
(-0.000534425 0 5.08785e-05)
(-0.000530432 0 4.07437e-05)
(-0.000546383 0 -1.97978e-05)
(-0.000555366 0 -1.07924e-05)
(-0.000555787 0 -1.06247e-05)
(-0.000548299 0 -1.02834e-05)
(-0.000542621 0 -8.09579e-06)
(-0.000545695 0 1.02295e-06)
(-0.000553851 0 5.89973e-06)
(-0.000571367 0 -2.62797e-06)
(-0.000633128 0 -0.000131381)
(-0.000714535 0 -0.000258575)
(-0.000754434 0 -0.000339651)
(-0.000771627 0 -0.000440308)
(-0.000834452 0 -0.000454025)
(-0.000861233 0 -0.000474285)
(-0.00086724 0 -0.000479866)
(-0.000903188 0 -0.000358734)
(-0.000846881 0 -0.000329778)
(-0.000787009 0 -0.000317069)
(-0.000759578 0 -0.000264102)
(-0.000746619 0 -0.000253349)
(-0.000765199 0 -0.00018275)
(-0.000751407 0 -0.000141804)
(-0.000708386 0 -0.000127072)
(-0.000674016 0 -7.83772e-05)
(-0.000643352 0 -6.03194e-05)