/*--------------------------------*- C++ -*----------------------------------*\
  =========                 |
  \\      /  F ield         | OpenFOAM: The Open Source CFD Toolbox
   \\    /   O peration     | Website:  https://openfoam.org
    \\  /    A nd           | Version:  6
     \\/     M anipulation  |
\*---------------------------------------------------------------------------*/
FoamFile
{
    version     2.0;
    format      ascii;
    class       surfaceScalarField;
    location    "5600";
    object      phi;
}
// * * * * * * * * * * * * * * * * * * * * * * * * * * * * * * * * * * * * * //

dimensions      [0 3 -1 0 0 0 0];

internalField   nonuniform List<scalar> 
9440
(
-9.04831e-16
9.06148e-16
-1.15478e-15
3.37871e-16
-1.50628e-16
-9.31457e-16
2.80674e-15
-2.88775e-15
8.31586e-15
-5.43951e-15
1.70289e-14
-8.64493e-15
2.93257e-14
-1.22294e-14
4.55606e-14
-1.61662e-14
6.59765e-14
-2.03483e-14
9.08302e-14
-2.47875e-14
1.20097e-13
-2.92001e-14
1.53847e-13
-3.36838e-14
1.92062e-13
-3.81509e-14
2.34226e-13
-4.20991e-14
2.79992e-13
-4.57025e-14
3.28883e-13
-4.88283e-14
3.81084e-13
-5.21384e-14
4.37575e-13
-5.64294e-14
4.95997e-13
-5.83604e-14
5.55661e-13
-5.9604e-14
6.16855e-13
-6.11368e-14
6.82144e-13
-6.52301e-14
7.4632e-13
-6.41185e-14
8.11575e-13
-6.51959e-14
8.77593e-13
-6.59625e-14
9.43464e-13
-6.58156e-14
1.00909e-12
-6.55721e-14
1.07426e-12
-6.51195e-14
1.13862e-12
-6.43049e-14
1.20209e-12
-6.34091e-14
1.2644e-12
-6.22637e-14
1.32534e-12
-6.08845e-14
1.38477e-12
-5.93794e-14
1.44245e-12
-5.76261e-14
1.49836e-12
-5.58501e-14
1.55222e-12
-5.38117e-14
1.60397e-12
-5.16954e-14
1.65335e-12
-4.93267e-14
1.70034e-12
-4.69433e-14
1.74471e-12
-4.43171e-14
1.78636e-12
-4.16012e-14
1.82502e-12
-3.86165e-14
1.86062e-12
-3.55455e-14
1.893e-12
-3.23291e-14
1.92178e-12
-2.87396e-14
1.9471e-12
-2.52733e-14
1.96856e-12
-2.14157e-14
1.98602e-12
-1.74085e-14
1.99918e-12
-1.31193e-14
2.00801e-12
-8.78318e-15
2.01219e-12
-4.13574e-15
2.01158e-12
6.48785e-16
2.00596e-12
5.66158e-15
1.99515e-12
1.0848e-14
1.97899e-12
1.61964e-14
1.95748e-12
2.15512e-14
1.93031e-12
2.72106e-14
1.89755e-12
3.27903e-14
1.85888e-12
3.87088e-14
1.81463e-12
4.42846e-14
1.76462e-12
5.00479e-14
1.70887e-12
5.57849e-14
1.64738e-12
6.15162e-14
1.58029e-12
6.71284e-14
1.50771e-12
7.26157e-14
1.42986e-12
7.78782e-14
1.34688e-12
8.30145e-14
1.25903e-12
8.78796e-14
1.16668e-12
9.23879e-14
1.07025e-12
9.64581e-14
9.70165e-13
1.00116e-13
8.67062e-13
1.03134e-13
7.6182e-13
1.05273e-13
6.5634e-13
1.05512e-13
5.54723e-13
1.01648e-13
4.69205e-13
8.55485e-14
4.38799e-13
3.04372e-14
2.1433e-13
2.24498e-13
-1.9135e-17
2.14381e-13
3.65367e-21
1.50548e-22
3.64533e-21
6.46235e-24
3.63443e-21
1.14254e-23
3.61948e-21
1.75776e-23
3.59834e-21
2.41433e-23
3.57078e-21
3.0554e-23
3.53702e-21
3.68095e-23
3.49716e-21
4.27032e-23
3.45177e-21
4.83384e-23
3.40106e-21
5.37667e-23
3.34533e-21
5.87298e-23
3.28494e-21
6.33827e-23
3.22001e-21
6.77771e-23
3.1513e-21
7.1913e-23
3.07835e-21
7.57387e-23
3.00174e-21
7.95127e-23
2.92165e-21
8.308e-23
2.8379e-21
8.65438e-23
2.75084e-21
8.98525e-23
2.66032e-21
9.33163e-23
2.56648e-21
9.67284e-23
2.46908e-21
1.00141e-22
2.36822e-21
1.03604e-22
2.26389e-21
1.07223e-22
2.15579e-21
1.10842e-22
2.04417e-21
1.14409e-22
1.92888e-21
1.1808e-22
1.81008e-21
1.21751e-22
1.68755e-21
1.25473e-22
1.56156e-21
1.28937e-22
1.43206e-21
1.32349e-22
1.2994e-21
1.35813e-22
1.16379e-21
1.39018e-22
1.02524e-21
1.41913e-22
8.84256e-22
1.44602e-22
7.40947e-22
1.47031e-22
5.95622e-22
1.49099e-22
4.48746e-22
1.50857e-22
3.00318e-22
1.52201e-22
1.5096e-22
1.53442e-22
1.55096e-22
-6.71942e-16
1.66784e-15
-2.38111e-15
2.19148e-15
-2.75607e-15
-4.32445e-16
-8.32666e-16
-4.68869e-15
4.06148e-15
-1.02114e-14
1.22211e-14
-1.66841e-14
2.413e-14
-2.40154e-14
4.01419e-14
-3.20597e-14
6.05289e-14
-4.06175e-14
8.53271e-14
-4.94698e-14
1.14789e-13
-5.85447e-14
1.48845e-13
-6.76242e-14
1.87352e-13
-7.65425e-14
2.29841e-13
-8.44764e-14
2.76019e-13
-9.17673e-14
3.25008e-13
-9.77056e-14
3.78079e-13
-1.05101e-13
4.34933e-13
-1.13177e-13
4.93653e-13
-1.16974e-13
5.53582e-13
-1.19428e-13
6.15676e-13
-1.23126e-13
6.80832e-13
-1.30285e-13
7.45577e-13
-1.28762e-13
8.11084e-13
-1.30603e-13
8.7754e-13
-1.32318e-13
9.43713e-13
-1.31891e-13
1.00956e-12
-1.31323e-13
1.07499e-12
-1.30448e-13
1.13959e-12
-1.28806e-13
1.20327e-12
-1.26998e-13
1.26576e-12
-1.24655e-13
1.32689e-12
-1.21914e-13
1.38649e-12
-1.18891e-13
1.44437e-12
-1.15416e-13
1.50032e-12
-1.11706e-13
1.55442e-12
-1.07817e-13
1.60625e-12
-1.03438e-13
1.65582e-12
-9.88012e-14
1.70294e-12
-9.39744e-14
1.74747e-12
-8.87608e-14
1.7892e-12
-8.32404e-14
1.8281e-12
-7.74342e-14
1.86389e-12
-7.12447e-14
1.89642e-12
-6.4776e-14
1.92543e-12
-5.76679e-14
1.95094e-12
-5.0698e-14
1.97265e-12
-4.30472e-14
1.99025e-12
-3.49302e-14
2.00371e-12
-2.6504e-14
2.01269e-12
-1.76921e-14
2.01706e-12
-8.43063e-15
2.0166e-12
1.18627e-15
2.0111e-12
1.12323e-14
2.00052e-12
2.15002e-14
1.98453e-12
3.22518e-14
1.96306e-12
4.30955e-14
1.936e-12
5.43284e-14
1.90322e-12
6.56417e-14
1.86464e-12
7.73488e-14
1.82041e-12
8.85799e-14
1.77038e-12
1.00134e-13
1.71462e-12
1.1161e-13
1.65307e-12
1.23131e-13
1.58585e-12
1.34401e-13
1.51314e-12
1.45381e-13
1.43506e-12
1.56023e-13
1.35176e-12
1.66367e-13
1.26362e-12
1.76078e-13
1.17095e-12
1.85112e-13
1.07404e-12
1.93422e-13
9.73303e-13
2.00914e-13
8.69245e-13
2.07247e-13
7.62465e-13
2.12108e-13
6.5312e-13
2.14911e-13
5.40446e-13
2.14376e-13
4.17661e-13
2.08389e-13
2.54781e-13
1.93375e-13
1.36729e-13
3.42604e-13
-1.46772e-17
3.51166e-13
3.65284e-21
2.86206e-22
3.6503e-21
9.92617e-24
3.64068e-21
2.3523e-23
3.626e-21
3.71714e-23
3.60485e-21
5.07165e-23
3.57699e-21
6.36929e-23
3.54292e-21
7.6204e-23
3.5028e-21
8.81464e-23
3.4572e-21
9.94168e-23
3.40602e-21
1.09963e-22
3.35003e-21
1.19993e-22
3.28928e-21
1.29247e-22
3.2242e-21
1.37984e-22
3.15507e-21
1.46152e-22
3.08213e-21
1.53907e-22
3.00535e-21
1.61197e-22
2.92507e-21
1.68331e-22
2.84121e-21
1.75207e-22
2.7543e-21
1.82083e-22
2.66373e-21
1.88804e-22
2.56995e-21
1.95577e-22
2.47255e-21
2.02401e-22
2.37184e-21
2.09432e-22
2.26746e-21
2.16411e-22
2.15936e-21
2.23546e-22
2.04784e-21
2.30939e-22
1.93255e-21
2.38487e-22
1.81375e-21
2.45983e-22
1.69107e-21
2.53324e-22
1.56497e-21
2.60562e-22
1.43547e-21
2.67748e-22
1.30255e-21
2.74572e-22
1.16669e-21
2.81138e-22
1.02793e-21
2.87187e-22
8.86686e-22
2.92615e-22
7.43015e-22
2.97475e-22
5.9738e-22
3.01714e-22
4.5009e-22
3.0523e-22
3.01611e-22
3.0797e-22
1.52563e-22
3.09986e-22
3.11072e-22
-4.05792e-15
5.79883e-15
-6.12498e-15
4.38219e-15
-6.7571e-15
3.05611e-16
-5.36688e-15
-5.97488e-15
-1.23543e-15
-1.42376e-14
6.27469e-15
-2.40912e-14
1.75688e-14
-3.52051e-14
3.31012e-14
-4.74919e-14
5.3048e-14
-6.04623e-14
7.77172e-14
-7.40412e-14
1.07038e-13
-8.77641e-14
1.41176e-13
-1.01665e-13
1.79839e-13
-1.15106e-13
2.2268e-13
-1.2722e-13
2.69043e-13
-1.38033e-13
3.18231e-13
-1.46798e-13
3.72663e-13
-1.59439e-13
4.30222e-13
-1.70643e-13
4.89179e-13
-1.7584e-13
5.49579e-13
-1.79738e-13
6.1369e-13
-1.87149e-13
6.78766e-13
-1.95269e-13
7.44237e-13
-1.94146e-13
8.10458e-13
-1.96738e-13
8.77605e-13
-1.99379e-13
9.44172e-13
-1.98373e-13
1.01058e-12
-1.97647e-13
1.07643e-12
-1.96216e-13
1.1415e-12
-1.93787e-13
1.20556e-12
-1.90975e-13
1.26842e-12
-1.87434e-13
1.32991e-12
-1.83325e-13
1.38986e-12
-1.78755e-13
1.44808e-12
-1.73561e-13
1.50436e-12
-1.67911e-13
1.55869e-12
-1.62063e-13
1.61086e-12
-1.55532e-13
1.66069e-12
-1.48555e-13
1.70818e-12
-1.41388e-13
1.753e-12
-1.33502e-13
1.79506e-12
-1.25229e-13
1.83425e-12
-1.16542e-13
1.87043e-12
-1.0735e-13
1.90332e-12
-9.76015e-14
1.93276e-12
-8.70347e-14
1.95858e-12
-7.64486e-14
1.98062e-12
-6.50151e-14
1.99867e-12
-5.29085e-14
2.0125e-12
-4.0277e-14
2.02192e-12
-2.70431e-14
2.02667e-12
-1.31168e-14
2.0266e-12
1.32086e-15
2.02146e-12
1.64252e-14
2.01107e-12
3.19515e-14
1.99534e-12
4.80417e-14
1.97421e-12
6.42871e-14
1.94734e-12
8.12479e-14
1.91474e-12
9.82976e-14
1.87625e-12
1.15894e-13
1.83204e-12
1.32848e-13
1.78197e-12
1.5026e-13
1.72597e-12
1.67659e-13
1.66419e-12
1.84964e-13
1.59675e-12
2.01892e-13
1.52369e-12
2.18498e-13
1.4451e-12
2.34661e-13
1.36137e-12
2.50149e-13
1.27263e-12
2.64868e-13
1.17917e-12
2.78623e-13
1.08136e-12
2.91271e-13
9.79545e-13
3.0278e-13
8.74104e-13
3.12735e-13
7.65132e-13
3.21127e-13
6.52434e-13
3.27657e-13
5.34087e-13
3.32772e-13
4.04672e-13
3.37848e-13
2.47913e-13
3.5018e-13
1.30373e-13
4.60194e-13
-1.41778e-17
4.81591e-13
3.66773e-21
4.36753e-22
3.66384e-21
1.44757e-23
3.65433e-21
3.55688e-23
3.63954e-21
5.65068e-23
3.61783e-21
7.68761e-23
3.58955e-21
9.66767e-23
3.55476e-21
1.15547e-22
3.51407e-21
1.33383e-22
3.4678e-21
1.50392e-22
3.4161e-21
1.66263e-22
3.35928e-21
1.81049e-22
3.29802e-21
1.9506e-22
3.23231e-21
2.08088e-22
3.16288e-21
2.20392e-22
3.08942e-21
2.31817e-22
3.01249e-21
2.42778e-22
2.93194e-21
2.53169e-22
2.84803e-21
2.63354e-22
2.76103e-21
2.73487e-22
2.67055e-21
2.83516e-22
2.57672e-21
2.93649e-22
2.47953e-21
3.03886e-22
2.37887e-21
3.14225e-22
2.27464e-21
3.24927e-22
2.1668e-21
3.35835e-22
2.05529e-21
3.46951e-22
1.94005e-21
3.58169e-22
1.82114e-21
3.6944e-22
1.69831e-21
3.80762e-22
1.57216e-21
3.9198e-22
1.44234e-21
4.02734e-22
1.30912e-21
4.13125e-22
1.17279e-21
4.23e-22
1.03336e-21
4.32202e-22
8.91546e-22
4.40629e-22
7.47254e-22
4.48073e-22
6.00895e-22
4.54381e-22
4.5283e-22
4.59706e-22
3.03627e-22
4.6379e-22
1.53701e-22
4.66737e-22
4.68133e-22
-5.91042e-15
1.17772e-14
-1.0334e-14
8.92279e-15
-1.29766e-14
3.05143e-15
-1.33041e-14
-5.54416e-15
-1.07134e-14
-1.67287e-14
-4.54284e-15
-3.01617e-14
5.715e-15
-4.53653e-14
2.04289e-14
-6.21048e-14
3.9944e-14
-7.98802e-14
6.43183e-14
-9.8316e-14
9.37861e-14
-1.17135e-13
1.28247e-13
-1.36028e-13
1.67196e-13
-1.53961e-13
2.1092e-13
-1.70851e-13
2.57805e-13
-1.84825e-13
3.07515e-13
-1.96417e-13
3.64257e-13
-2.16088e-13
4.22666e-13
-2.2896e-13
4.82307e-13
-2.35393e-13
5.43146e-13
-2.4049e-13
6.10944e-13
-2.5486e-13
6.75328e-13
-2.59569e-13
7.42262e-13
-2.60993e-13
8.09556e-13
-2.63949e-13
8.77546e-13
-2.67288e-13
9.44904e-13
-2.65649e-13
1.01213e-12
-2.64796e-13
1.07869e-12
-2.62687e-13
1.14441e-12
-2.59432e-13
1.20902e-12
-2.555e-13
1.27248e-12
-2.50819e-13
1.33454e-12
-2.45309e-13
1.39495e-12
-2.39084e-13
1.45365e-12
-2.32177e-13
1.51039e-12
-2.24574e-13
1.56515e-12
-2.16758e-13
1.61773e-12
-2.0803e-13
1.66803e-12
-1.98783e-13
1.71587e-12
-1.89154e-13
1.7612e-12
-1.78757e-13
1.80385e-12
-1.67808e-13
1.84353e-12
-1.56145e-13
1.88014e-12
-1.43894e-13
1.91359e-12
-1.30987e-13
1.94361e-12
-1.16985e-13
1.97003e-12
-1.02798e-13
1.99273e-12
-8.76512e-14
2.01138e-12
-7.14974e-14
2.0258e-12
-5.46243e-14
2.03576e-12
-3.69483e-14
2.04109e-12
-1.83754e-14
2.04155e-12
9.19078e-16
2.03693e-12
2.11058e-14
2.02708e-12
4.18562e-14
2.01184e-12
6.33419e-14
1.99095e-12
8.52331e-14
1.96432e-12
1.07933e-13
1.93193e-12
1.30737e-13
1.89365e-12
1.54228e-13
1.84943e-12
1.77119e-13
1.79927e-12
2.0047e-13
1.74319e-12
2.23792e-13
1.6812e-12
2.47006e-13
1.61338e-12
2.69768e-13
1.53981e-12
2.92108e-13
1.46059e-12
3.13934e-13
1.37602e-12
3.34766e-13
1.28634e-12
3.54596e-13
1.19183e-12
3.73178e-13
1.09277e-12
3.90378e-13
9.89513e-13
4.06081e-13
8.82426e-13
4.19864e-13
7.71745e-13
4.31854e-13
6.57286e-13
4.42162e-13
5.38844e-13
4.51256e-13
4.16195e-13
4.60544e-13
2.92741e-13
4.73678e-13
1.32341e-13
6.20638e-13
-1.31319e-17
6.13981e-13
3.68841e-21
5.54213e-22
3.68493e-21
1.87667e-23
3.67522e-21
4.76663e-23
3.65991e-21
7.59972e-23
3.63763e-21
1.03501e-22
3.60837e-21
1.30022e-22
3.57265e-21
1.55458e-22
3.53108e-21
1.7955e-22
3.48362e-21
2.02194e-22
3.43084e-21
2.23442e-22
3.37329e-21
2.43295e-22
3.3111e-21
2.61803e-22
3.24456e-21
2.78915e-22
3.17436e-21
2.94942e-22
3.10043e-21
3.10038e-22
3.02283e-21
3.24358e-22
2.94218e-21
3.38214e-22
2.85822e-21
3.51603e-22
2.771e-21
3.6489e-22
2.68069e-21
3.78125e-22
2.58696e-21
3.91412e-22
2.48992e-21
4.05112e-22
2.38952e-21
4.19122e-22
2.28555e-21
4.33339e-22
2.17786e-21
4.4797e-22
2.0665e-21
4.62963e-22
1.95137e-21
4.7811e-22
1.83241e-21
4.93413e-22
1.70952e-21
5.08716e-22
1.58291e-21
5.23812e-22
1.45274e-21
5.38495e-22
1.31899e-21
5.52608e-22
1.18194e-21
5.65998e-22
1.04178e-21
5.78458e-22
8.99042e-22
5.89832e-22
7.53562e-22
5.99913e-22
6.06168e-22
6.08546e-22
4.56966e-22
6.15681e-22
3.06522e-22
6.21213e-22
1.55148e-22
6.24832e-22
6.26796e-22
-8.56162e-15
2.04047e-14
-1.60243e-14
1.65016e-14
-2.1674e-14
8.79839e-15
-2.45851e-14
-2.53481e-15
-2.4228e-14
-1.69886e-14
-1.99467e-14
-3.43463e-14
-1.11286e-14
-5.40874e-14
2.58507e-15
-7.57232e-14
2.14582e-14
-9.86587e-14
4.56835e-14
-1.22445e-13
7.53372e-14
-1.46694e-13
1.10213e-13
-1.70812e-13
1.49874e-13
-1.93529e-13
1.94864e-13
-2.1575e-13
2.42245e-13
-2.32114e-13
2.94046e-13
-2.48129e-13
3.52693e-13
-2.74647e-13
4.12086e-13
-2.88266e-13
4.72963e-13
-2.96185e-13
5.35779e-13
-3.03219e-13
6.05918e-13
-3.24917e-13
6.71192e-13
-3.24759e-13
7.39625e-13
-3.29344e-13
8.08543e-13
-3.32786e-13
8.77454e-13
-3.36116e-13
9.46045e-13
-3.34162e-13
1.01431e-12
-3.32984e-13
1.08182e-12
-3.30116e-13
1.14832e-12
-3.25858e-13
1.21384e-12
-3.20936e-13
1.27799e-12
-3.14901e-13
1.34065e-12
-3.07885e-13
1.40171e-12
-3.00073e-13
1.46104e-12
-2.9143e-13
1.51836e-12
-2.81815e-13
1.57378e-12
-2.72109e-13
1.62692e-12
-2.61099e-13
1.67787e-12
-2.49657e-13
1.72631e-12
-2.3753e-13
1.7722e-12
-2.24574e-13
1.81539e-12
-2.10924e-13
1.85578e-12
-1.96467e-13
1.89312e-12
-1.81161e-13
1.92732e-12
-1.65127e-13
1.95817e-12
-1.4777e-13
1.98529e-12
-1.29849e-13
2.00877e-12
-1.11065e-13
2.02825e-12
-9.0922e-14
2.04347e-12
-6.97845e-14
2.05426e-12
-4.76758e-14
2.06046e-12
-2.45085e-14
2.06163e-12
-1.95179e-16
2.05777e-12
2.50178e-14
2.04853e-12
5.11623e-14
2.03384e-12
7.80845e-14
2.01349e-12
1.05638e-13
1.98721e-12
1.34267e-13
1.95511e-12
1.62888e-13
1.91695e-12
1.9244e-13
1.87288e-12
2.21235e-13
1.82263e-12
2.5077e-13
1.76638e-12
2.80095e-13
1.70399e-12
3.09442e-13
1.63567e-12
3.38133e-13
1.56145e-12
3.66377e-13
1.48138e-12
3.94054e-13
1.39582e-12
4.20369e-13
1.305e-12
4.45462e-13
1.20904e-12
4.69176e-13
1.1083e-12
4.91163e-13
1.00332e-12
5.11112e-13
8.94313e-13
5.28913e-13
7.81913e-13
5.443e-13
6.66567e-13
5.57551e-13
5.48643e-13
5.69222e-13
4.29804e-13
5.79425e-13
3.07345e-13
5.9618e-13
1.34594e-13
7.93434e-13
-1.22901e-17
7.48623e-13
3.71901e-21
6.79945e-22
3.71389e-21
2.37297e-23
3.70349e-21
6.02291e-23
3.68742e-21
9.62115e-23
3.66426e-21
1.3116e-22
3.6338e-21
1.64712e-22
3.59679e-21
1.96662e-22
3.55367e-21
2.27009e-22
3.50487e-21
2.55495e-22
3.45079e-21
2.82017e-22
3.3917e-21
3.06677e-22
3.32821e-21
3.29425e-22
3.26059e-21
3.50673e-22
3.18945e-21
3.70525e-22
3.11475e-21
3.89033e-22
3.03668e-21
4.06508e-22
2.95557e-21
4.23465e-22
2.87151e-21
4.39905e-22
2.78424e-21
4.5619e-22
2.69397e-21
4.72527e-22
2.6006e-21
4.89019e-22
2.50393e-21
5.05924e-22
2.40379e-21
5.23347e-22
2.30013e-21
5.41286e-22
2.19286e-21
5.59846e-22
2.0817e-21
5.78768e-22
1.96673e-21
5.98103e-22
1.84771e-21
6.17594e-22
1.72462e-21
6.37136e-22
1.59765e-21
6.56316e-22
1.46685e-21
6.75031e-22
1.33233e-21
6.93074e-22
1.19445e-21
7.10238e-22
1.05316e-21
7.26213e-22
9.0902e-22
7.40689e-22
7.62247e-22
7.5351e-22
6.13251e-22
7.64418e-22
4.62497e-22
7.73414e-22
3.10244e-22
7.80342e-22
1.57061e-22
7.85046e-22
7.87476e-22
-1.24497e-14
3.29194e-14
-2.37158e-14
2.78737e-14
-3.29207e-14
1.80985e-14
-3.91557e-14
3.79565e-15
-4.16512e-14
-1.43986e-14
-3.9712e-14
-3.61933e-14
-3.27092e-14
-6.09983e-14
-2.03574e-14
-8.79825e-14
-2.23116e-15
-1.16694e-13
2.18986e-14
-1.46486e-13
5.18432e-14
-1.7655e-13
8.6905e-14
-2.05786e-13
1.28368e-13
-2.34903e-13
1.73818e-13
-2.6111e-13
2.21614e-13
-2.79824e-13
2.78614e-13
-3.05045e-13
3.38051e-13
-3.33999e-13
3.98709e-13
-3.4884e-13
4.60854e-13
-3.58248e-13
5.28845e-13
-3.7113e-13
5.98582e-13
-3.94573e-13
6.66525e-13
-3.92623e-13
7.36492e-13
-3.99231e-13
8.07634e-13
-4.0385e-13
8.775e-13
-4.05904e-13
9.47718e-13
-4.043e-13
1.01717e-12
-4.02363e-13
1.08581e-12
-3.98682e-13
1.15343e-12
-3.93397e-13
1.21992e-12
-3.87358e-13
1.28498e-12
-3.79884e-13
1.34849e-12
-3.71318e-13
1.41036e-12
-3.6187e-13
1.47042e-12
-3.51424e-13
1.52855e-12
-3.39872e-13
1.58457e-12
-3.28065e-13
1.6384e-12
-3.14859e-13
1.69007e-12
-3.01259e-13
1.73924e-12
-2.8663e-13
1.78585e-12
-2.7111e-13
1.82988e-12
-2.54884e-13
1.87108e-12
-2.37599e-13
1.90931e-12
-2.19324e-13
1.94441e-12
-2.00167e-13
1.97621e-12
-1.7951e-13
2.00431e-12
-1.57882e-13
2.02877e-12
-1.35455e-13
2.04927e-12
-1.11366e-13
2.0656e-12
-8.60513e-14
2.07747e-12
-5.94872e-14
2.08458e-12
-3.15569e-14
2.08682e-12
-2.37843e-15
2.08383e-12
2.80579e-14
2.07539e-12
5.96637e-14
2.06148e-12
9.20468e-14
2.04176e-12
1.25404e-13
2.01604e-12
1.60036e-13
1.98427e-12
1.94717e-13
1.94642e-12
2.3034e-13
1.90231e-12
2.65387e-13
1.85206e-12
3.01074e-13
1.79562e-12
3.36579e-13
1.7329e-12
3.72206e-13
1.66392e-12
4.07157e-13
1.58888e-12
4.41466e-13
1.50783e-12
4.75149e-13
1.42109e-12
5.0716e-13
1.32869e-12
5.37905e-13
1.23097e-12
5.66932e-13
1.12832e-12
5.93861e-13
1.02108e-12
6.18395e-13
9.09824e-13
6.4021e-13
7.95219e-13
6.58948e-13
6.78212e-13
6.74601e-13
5.60112e-13
6.87363e-13
4.43428e-13
6.96152e-13
3.16448e-13
7.23203e-13
1.23063e-13
9.86859e-13
-1.19329e-17
8.71731e-13
3.75541e-21
7.80862e-22
3.75039e-21
2.86411e-23
3.73953e-21
7.34123e-23
3.72231e-21
1.17305e-22
3.69776e-21
1.59801e-22
3.6657e-21
2.00643e-22
3.62719e-21
2.39572e-22
3.58211e-21
2.76123e-22
3.53144e-21
3.10503e-22
3.47535e-21
3.42246e-22
3.41455e-21
3.71559e-22
3.34946e-21
3.98701e-22
3.28044e-21
4.23723e-22
3.20791e-21
4.46936e-22
3.13222e-21
4.68701e-22
3.05364e-21
4.89381e-22
2.97206e-21
5.09026e-22
2.88779e-21
5.2831e-22
2.80063e-21
5.47387e-22
2.71046e-21
5.66515e-22
2.61751e-21
5.86213e-22
2.52135e-21
6.06375e-22
2.42173e-21
6.27261e-22
2.31869e-21
6.48975e-22
2.21183e-21
6.71361e-22
2.10104e-21
6.94573e-22
1.98611e-21
7.18096e-22
1.86731e-21
7.42033e-22
1.74375e-21
7.65866e-22
1.61641e-21
7.89596e-22
1.48489e-21
8.12757e-22
1.34955e-21
8.34987e-22
1.21037e-21
8.55977e-22
1.06763e-21
8.75519e-22
9.21841e-22
8.93303e-22
7.73207e-22
9.09072e-22
6.22247e-22
9.22668e-22
4.69425e-22
9.33577e-22
3.14846e-22
9.41797e-22
1.59439e-22
9.47535e-22
9.50379e-22
-1.73681e-14
5.03484e-14
-3.33724e-14
4.39833e-14
-4.702e-14
3.18369e-14
-5.73826e-14
1.42485e-14
-6.34152e-14
-8.27939e-15
-6.44376e-14
-3.50822e-14
-5.97194e-14
-6.56269e-14
-4.89021e-14
-9.8713e-14
-3.15471e-14
-1.33962e-13
-7.59929e-15
-1.70346e-13
2.22491e-14
-2.06312e-13
5.8548e-14
-2.42e-13
1.02018e-13
-2.78289e-13
1.47017e-13
-3.06025e-13
1.96962e-13
-3.29686e-13
2.59537e-13
-3.67538e-13
3.19968e-13
-3.94346e-13
3.82428e-13
-4.11219e-13
4.45409e-13
-4.21151e-13
5.22887e-13
-4.48529e-13
5.88966e-13
-4.60577e-13
6.6129e-13
-4.64869e-13
7.32938e-13
-4.70803e-13
8.06684e-13
-4.77522e-13
8.77876e-13
-4.77023e-13
9.49817e-13
-4.76169e-13
1.02078e-12
-4.73258e-13
1.09083e-12
-4.68657e-13
1.15976e-12
-4.62248e-13
1.22731e-12
-4.54838e-13
1.29344e-12
-4.45944e-13
1.35796e-12
-4.35773e-13
1.42076e-12
-4.24591e-13
1.4817e-12
-4.12297e-13
1.54062e-12
-3.98721e-13
1.59752e-12
-3.84905e-13
1.65216e-12
-3.69434e-13
1.70461e-12
-3.53641e-13
1.75466e-12
-3.36613e-13
1.80225e-12
-3.18636e-13
1.84715e-12
-2.99715e-13
1.88935e-12
-2.79734e-13
1.92861e-12
-2.58527e-13
1.96472e-12
-2.36213e-13
1.99779e-12
-2.12516e-13
2.02706e-12
-1.87094e-13
2.05288e-12
-1.61215e-13
2.07468e-12
-1.33106e-13
2.0923e-12
-1.03618e-13
2.10541e-12
-7.25345e-14
2.11381e-12
-3.98999e-14
2.11717e-12
-5.69117e-15
2.1153e-12
2.99847e-14
2.10787e-12
6.71492e-14
2.09487e-12
1.05094e-13
2.07592e-12
1.44407e-13
2.05089e-12
1.85116e-13
2.01956e-12
2.26096e-13
1.98206e-12
2.67888e-13
1.93799e-12
3.09503e-13
1.88782e-12
3.51286e-13
1.83104e-12
3.93407e-13
1.76781e-12
4.35484e-13
1.69828e-12
4.76733e-13
1.62226e-12
5.17525e-13
1.54005e-12
5.57402e-13
1.45187e-12
5.95387e-13
1.35776e-12
6.3205e-13
1.25795e-12
6.66789e-13
1.15282e-12
6.99037e-13
1.04284e-12
7.28415e-13
9.28513e-13
7.54574e-13
8.10737e-13
7.76764e-13
6.90966e-13
7.94412e-13
5.7122e-13
8.07151e-13
4.51982e-13
8.15427e-13
2.61029e-13
9.14196e-13
1.16097e-13
1.13183e-12
-1.08233e-17
9.87874e-13
3.80008e-21
8.61926e-22
3.79516e-21
3.37593e-23
3.78342e-21
8.71125e-23
3.76486e-21
1.39432e-22
3.7386e-21
1.90045e-22
3.70468e-21
2.38487e-22
3.66374e-21
2.84498e-22
3.61649e-21
3.27564e-22
3.56318e-21
3.67682e-22
3.50466e-21
4.04646e-22
3.44164e-21
4.38716e-22
3.37448e-21
4.6989e-22
3.3036e-21
4.98583e-22
3.22973e-21
5.25053e-22
3.1529e-21
5.49662e-22
3.07334e-21
5.72771e-22
2.99129e-21
5.95053e-22
2.90687e-21
6.16767e-22
2.81965e-21
6.38428e-22
2.73016e-21
6.60452e-22
2.63767e-21
6.82941e-22
2.54224e-21
7.06309e-22
2.44339e-21
7.30659e-22
2.34118e-21
7.56095e-22
2.23499e-21
7.82565e-22
2.12451e-21
8.0981e-22
2.0101e-21
8.38089e-22
1.89109e-21
8.66575e-22
1.76748e-21
8.95165e-22
1.63963e-21
9.23702e-22
1.50712e-21
9.51516e-22
1.37059e-21
9.78296e-22
1.22991e-21
1.00358e-21
1.08547e-21
1.027e-21
9.37661e-22
1.0483e-21
7.86752e-22
1.06706e-21
6.33207e-22
1.08304e-21
4.77697e-22
1.09617e-21
3.20584e-22
1.10594e-21
1.62334e-22
1.11245e-21
1.11571e-21
-2.34352e-14
7.38429e-14
-4.53494e-14
6.59918e-14
-6.45749e-14
5.11491e-14
-7.99259e-14
2.9684e-14
-9.02651e-14
2.14308e-15
-9.47734e-14
-3.04903e-14
-9.28289e-14
-6.74855e-14
-8.37328e-14
-1.07725e-13
-6.7262e-14
-1.50353e-13
-4.39356e-14
-1.93591e-13
-1.36903e-14
-2.36477e-13
2.53322e-14
-2.80941e-13
6.87298e-14
-3.21605e-13
1.1349e-13
-3.50703e-13
1.716e-13
-3.87718e-13
2.34799e-13
-4.30658e-13
2.98077e-13
-4.57546e-13
3.62416e-13
-4.75483e-13
4.3158e-13
-4.90239e-13
5.11916e-13
-5.2879e-13
5.79265e-13
-5.27851e-13
6.55324e-13
-5.40855e-13
7.29917e-13
-5.45322e-13
8.05207e-13
-5.52742e-13
8.78993e-13
-5.50736e-13
9.52687e-13
-5.49794e-13
1.02548e-12
-5.45979e-13
1.09692e-12
-5.40034e-13
1.16725e-12
-5.32512e-13
1.23616e-12
-5.23676e-13
1.30342e-12
-5.13143e-13
1.36915e-12
-5.01432e-13
1.433e-12
-4.88381e-13
1.49496e-12
-4.7419e-13
1.55483e-12
-4.58523e-13
1.61253e-12
-4.4254e-13
1.66832e-12
-4.25164e-13
1.72164e-12
-4.06892e-13
1.77263e-12
-3.87544e-13
1.82118e-12
-3.67131e-13
1.86712e-12
-3.45587e-13
1.91042e-12
-3.22974e-13
1.95092e-12
-2.98967e-13
1.9884e-12
-2.73632e-13
2.0227e-12
-2.46764e-13
2.05356e-12
-2.17894e-13
2.08079e-12
-1.88391e-13
2.1042e-12
-1.56457e-13
2.12334e-12
-1.22699e-13
2.13801e-12
-8.71561e-14
2.14793e-12
-4.97629e-14
2.15284e-12
-1.05518e-14
2.15227e-12
3.06058e-14
2.14609e-12
7.3379e-14
2.13416e-12
1.17081e-13
2.11605e-12
1.62557e-13
2.09186e-12
2.09363e-13
2.06109e-12
2.56913e-13
2.02418e-12
3.04837e-13
1.9801e-12
3.53634e-13
1.92995e-12
4.01477e-13
1.87305e-12
4.5035e-13
1.80933e-12
4.99249e-13
1.7389e-12
5.47205e-13
1.66183e-12
5.94635e-13
1.5784e-12
6.40868e-13
1.48851e-12
6.85311e-13
1.39234e-12
7.28263e-13
1.29019e-12
7.68976e-13
1.18223e-12
8.07036e-13
1.06891e-12
8.41773e-13
9.50733e-13
8.72793e-13
8.28304e-13
8.99231e-13
7.03087e-13
9.19666e-13
5.78792e-13
9.31482e-13
4.66357e-13
9.27903e-13
2.36505e-13
1.14409e-12
1.25283e-13
1.24309e-12
-1.07671e-17
1.1132e-12
3.85467e-21
9.21483e-22
3.84851e-21
3.91877e-23
3.83569e-21
1.01898e-22
3.81547e-21
1.63213e-22
3.78704e-21
2.22408e-22
3.75064e-21
2.78812e-22
3.7068e-21
3.32061e-22
3.6566e-21
3.81796e-22
3.6002e-21
4.27652e-22
3.53873e-21
4.6989e-22
3.47287e-21
5.08509e-22
3.40307e-21
5.43561e-22
3.33013e-21
5.75511e-22
3.25434e-21
6.04721e-22
3.17601e-21
6.31708e-22
3.09557e-21
6.57143e-22
3.01306e-21
6.81442e-22
2.92848e-21
7.05327e-22
2.84168e-21
7.29108e-22
2.7526e-21
7.5351e-22
2.66109e-21
7.78791e-22
2.56659e-21
8.05157e-22
2.46888e-21
8.33023e-22
2.3676e-21
8.62284e-22
2.26229e-21
8.93045e-22
2.15284e-21
9.25047e-22
2.03854e-21
9.57979e-22
1.91968e-21
9.91583e-22
1.79596e-21
1.02539e-21
1.66739e-21
1.05889e-21
1.5339e-21
1.09172e-21
1.39587e-21
1.12326e-21
1.25328e-21
1.15299e-21
1.10672e-21
1.18059e-21
9.56428e-22
1.20546e-21
8.02727e-22
1.22728e-21
6.4639e-22
1.24594e-21
4.87468e-22
1.26099e-21
3.27098e-22
1.27246e-21
1.6554e-22
1.27991e-21
1.28316e-21
-3.09376e-14
1.04836e-13
-6.01479e-14
9.5294e-14
-8.6104e-14
7.71866e-14
-1.07439e-13
5.10989e-14
-1.22999e-13
1.77823e-14
-1.31626e-13
-2.17833e-14
-1.32798e-13
-6.62344e-14
-1.25841e-13
-1.14603e-13
-1.10566e-13
-1.6555e-13
-8.78006e-14
-2.16279e-13
-5.57202e-14
-2.68481e-13
-1.42068e-14
-3.22376e-13
2.68017e-14
-3.62539e-13
7.61505e-14
-3.99975e-13
1.42748e-13
-4.5424e-13
2.05117e-13
-4.92952e-13
2.71697e-13
-5.24053e-13
3.39615e-13
-5.43328e-13
4.22253e-13
-5.72804e-13
4.93595e-13
-6.0006e-13
5.7133e-13
-6.05516e-13
6.48272e-13
-6.17725e-13
7.2745e-13
-6.2443e-13
8.03652e-13
-6.28874e-13
8.80745e-13
-6.27761e-13
9.56487e-13
-6.25469e-13
1.03109e-12
-6.20518e-13
1.1043e-12
-6.13173e-13
1.17629e-12
-6.04444e-13
1.24659e-12
-5.93906e-13
1.31525e-12
-5.8174e-13
1.38211e-12
-5.68226e-13
1.44714e-12
-5.53358e-13
1.51019e-12
-5.3717e-13
1.5711e-12
-5.19375e-13
1.62992e-12
-5.01295e-13
1.68668e-12
-4.8187e-13
1.74096e-12
-4.61109e-13
1.793e-12
-4.39533e-13
1.84266e-12
-4.16728e-13
1.88982e-12
-3.92692e-13
1.93432e-12
-3.67415e-13
1.97613e-12
-3.40722e-13
2.01519e-12
-3.12636e-13
2.05117e-12
-2.82688e-13
2.08385e-12
-2.50525e-13
2.11265e-12
-2.17132e-13
2.13799e-12
-1.81738e-13
2.15901e-12
-1.4367e-13
2.17551e-12
-1.0361e-13
2.18724e-12
-6.14405e-14
2.1937e-12
-1.69612e-14
2.19469e-12
2.96679e-14
2.1902e-12
7.79112e-14
2.17941e-12
1.27921e-13
2.16243e-12
1.79579e-13
2.13927e-12
2.32568e-13
2.10918e-12
2.87042e-13
2.07285e-12
3.41217e-13
2.02896e-12
3.97566e-13
1.9788e-12
4.5168e-13
1.92158e-12
5.07602e-13
1.85741e-12
5.63459e-13
1.78617e-12
6.18487e-13
1.70795e-12
6.72893e-13
1.62317e-12
7.25691e-13
1.53139e-12
7.7713e-13
1.433e-12
8.2669e-13
1.32808e-12
8.73934e-13
1.21704e-12
9.18114e-13
1.09996e-12
9.58885e-13
9.77185e-13
9.95606e-13
8.48951e-13
1.0275e-12
7.15148e-13
1.05351e-12
5.75364e-13
1.0713e-12
4.22951e-13
1.08035e-12
2.47303e-13
1.31977e-12
1.31484e-13
1.35895e-12
-1.01688e-17
1.24472e-12
3.91754e-21
9.69459e-22
3.91122e-21
4.55983e-23
3.897e-21
1.1808e-22
3.87467e-21
1.88907e-22
3.8435e-21
2.57201e-22
3.80384e-21
3.22032e-22
3.75654e-21
3.83036e-22
3.70251e-21
4.39647e-22
3.64244e-21
4.91604e-22
3.57735e-21
5.38857e-22
3.50792e-21
5.81611e-22
3.43502e-21
6.20179e-22
3.35939e-21
6.54869e-22
3.28132e-21
6.86457e-22
3.20145e-21
7.15253e-22
3.11992e-21
7.42291e-22
3.03689e-21
7.68296e-22
2.95226e-21
7.93732e-22
2.86608e-21
8.19374e-22
2.77793e-21
8.45844e-22
2.68746e-21
8.73555e-22
2.5944e-21
9.02919e-22
2.49819e-21
9.34197e-22
2.39836e-21
9.67388e-22
2.29419e-21
1.00254e-21
2.18577e-21
1.0394e-21
2.07219e-21
1.07751e-21
1.95354e-21
1.11664e-21
1.82957e-21
1.15599e-21
1.70022e-21
1.19507e-21
1.56549e-21
1.23317e-21
1.42554e-21
1.26983e-21
1.28084e-21
1.30446e-21
1.13158e-21
1.33626e-21
9.78296e-22
1.36495e-21
8.21339e-22
1.39013e-21
6.61434e-22
1.41127e-21
4.98945e-22
1.42828e-21
3.34439e-22
1.44095e-21
1.68848e-22
1.44907e-21
1.45268e-21
-4.01036e-14
1.44991e-13
-7.80234e-14
1.33299e-13
-1.12115e-13
1.11351e-13
-1.40755e-13
7.98106e-14
-1.6242e-13
3.95207e-14
-1.76204e-13
-7.92778e-15
-1.81001e-13
-6.13661e-14
-1.75413e-13
-1.20121e-13
-1.62742e-13
-1.78147e-13
-1.39707e-13
-2.39243e-13
-1.02589e-13
-3.05527e-13
-6.6328e-14
-3.58566e-13
-2.31819e-14
-4.05613e-13
4.1089e-14
-4.64177e-13
1.03945e-13
-5.17024e-13
1.72384e-13
-5.6132e-13
2.38229e-13
-5.89827e-13
3.21843e-13
-6.26874e-13
4.03569e-13
-6.54462e-13
4.78038e-13
-6.74461e-13
5.60996e-13
-6.88409e-13
6.42374e-13
-6.99037e-13
7.24036e-13
-7.06028e-13
8.03522e-13
-7.08298e-13
8.83255e-13
-7.07429e-13
9.61334e-13
-7.03486e-13
1.03794e-12
-6.97067e-13
1.11322e-12
-6.88383e-13
1.18682e-12
-6.77984e-13
1.25872e-12
-6.65746e-13
1.32884e-12
-6.51804e-13
1.39704e-12
-6.36362e-13
1.46329e-12
-6.1955e-13
1.52751e-12
-6.01333e-13
1.58951e-12
-5.81323e-13
1.64961e-12
-5.61342e-13
1.70734e-12
-5.39538e-13
1.76282e-12
-5.16533e-13
1.81581e-12
-4.92469e-13
1.8666e-12
-4.67464e-13
1.91498e-12
-4.41022e-13
1.961e-12
-4.13377e-13
2.00432e-12
-3.8399e-13
2.04497e-12
-3.53235e-13
2.08281e-12
-3.20478e-13
2.11766e-12
-2.85324e-13
2.14853e-12
-2.47952e-13
2.17584e-12
-2.08996e-13
2.19907e-12
-1.66848e-13
2.21787e-12
-1.22361e-13
2.23165e-12
-7.51717e-14
2.24007e-12
-2.53339e-14
2.24317e-12
2.66092e-14
2.2403e-12
8.08339e-14
2.23084e-12
1.37422e-13
2.21518e-12
1.95283e-13
2.19324e-12
2.54553e-13
2.16399e-12
3.16334e-13
2.12817e-12
3.77077e-13
2.0848e-12
4.40974e-13
2.03438e-12
5.02137e-13
1.97722e-12
5.64801e-13
1.91243e-12
6.28294e-13
1.84048e-12
6.90476e-13
1.76111e-12
7.52301e-13
1.67464e-12
8.12196e-13
1.5809e-12
8.709e-13
1.48007e-12
9.27557e-13
1.37228e-12
9.81764e-13
1.25773e-12
1.03269e-12
1.13659e-12
1.08007e-12
1.00902e-12
1.12321e-12
8.74747e-13
1.16181e-12
7.3272e-13
1.19557e-12
5.79268e-13
1.22479e-12
3.98236e-13
1.26142e-12
2.62427e-13
1.45561e-12
1.34415e-13
1.48699e-12
-9.19116e-18
1.37917e-12
3.9895e-21
9.72768e-22
3.9837e-21
5.24226e-23
3.96783e-21
1.35813e-22
3.94296e-21
2.17135e-22
3.90833e-21
2.952e-22
3.86485e-21
3.69078e-22
3.8132e-21
4.38044e-22
3.75442e-21
5.01633e-22
3.68974e-21
5.59639e-22
3.6201e-21
6.11804e-22
3.54649e-21
6.58643e-22
3.46976e-21
7.0026e-22
3.39098e-21
7.37432e-22
3.31017e-21
7.70467e-22
3.22849e-21
8.00866e-22
3.14582e-21
8.28835e-22
3.06238e-21
8.55512e-22
2.97785e-21
8.81878e-22
2.89255e-21
9.08761e-22
2.80564e-21
9.36834e-22
2.71682e-21
9.66767e-22
2.62573e-21
9.98924e-22
2.53133e-21
1.03356e-21
2.43351e-21
1.07094e-21
2.3311e-21
1.11065e-21
2.22388e-21
1.15262e-21
2.11128e-21
1.19652e-21
1.99289e-21
1.24149e-21
1.8686e-21
1.28689e-21
1.73832e-21
1.33202e-21
1.60215e-21
1.37602e-21
1.46018e-21
1.4182e-21
1.31263e-21
1.45775e-21
1.16028e-21
1.49404e-21
1.00337e-21
1.52667e-21
8.42484e-22
1.55484e-21
6.78495e-22
1.57857e-21
5.11611e-22
1.59729e-21
3.42556e-22
1.61104e-21
1.72519e-22
1.61988e-21
1.62334e-21
-5.11323e-14
1.96171e-13
-9.98465e-14
1.82093e-13
-1.43777e-13
1.55351e-13
-1.8134e-13
1.17443e-13
-2.09987e-13
6.82355e-14
-2.28244e-13
1.03965e-14
-2.381e-13
-5.14421e-14
-2.37478e-13
-1.20674e-13
-2.24811e-13
-1.90749e-13
-1.94918e-13
-2.6907e-13
-1.65094e-13
-3.35283e-13
-1.29111e-13
-3.94483e-13