/*--------------------------------*- C++ -*----------------------------------*\
  =========                 |
  \\      /  F ield         | OpenFOAM: The Open Source CFD Toolbox
   \\    /   O peration     | Website:  https://openfoam.org
    \\  /    A nd           | Version:  6
     \\/     M anipulation  |
\*---------------------------------------------------------------------------*/
FoamFile
{
    version     2.0;
    format      ascii;
    class       volVectorField;
    location    "5600";
    object      U;
}
// * * * * * * * * * * * * * * * * * * * * * * * * * * * * * * * * * * * * * //

dimensions      [0 1 -1 0 0 0 0];

internalField   nonuniform List<vector> 
4800
(
(6.95916e-10 0 7.96519e-10)
(-7.5231e-10 0 -2.48581e-09)
(-4.24998e-10 0 -3.86054e-09)
(3.29301e-10 0 -4.45259e-09)
(1.9908e-09 0 -4.81575e-09)
(4.80892e-09 0 -5.14268e-09)
(8.99315e-09 0 -5.46092e-09)
(1.46882e-08 0 -5.81475e-09)
(2.20166e-08 0 -6.21802e-09)
(3.10744e-08 0 -6.69082e-09)
(4.19026e-08 0 -7.19552e-09)
(5.45107e-08 0 -7.7639e-09)
(6.88856e-08 0 -8.38366e-09)
(8.49441e-08 0 -8.97111e-09)
(1.02533e-07 0 -9.53364e-09)
(1.21485e-07 0 -1.00481e-08)
(1.4177e-07 0 -1.06088e-08)
(1.63668e-07 0 -1.13939e-08)
(1.8664e-07 0 -1.17472e-08)
(2.10144e-07 0 -1.19567e-08)
(2.3454e-07 0 -1.22303e-08)
(2.59989e-07 0 -1.30336e-08)
(2.85791e-07 0 -1.27791e-08)
(3.11714e-07 0 -1.29772e-08)
(3.37984e-07 0 -1.30954e-08)
(3.64361e-07 0 -1.30586e-08)
(3.90643e-07 0 -1.29869e-08)
(4.16784e-07 0 -1.28781e-08)
(4.42679e-07 0 -1.27013e-08)
(4.6823e-07 0 -1.25096e-08)
(4.93376e-07 0 -1.22708e-08)
(5.18005e-07 0 -1.19872e-08)
(5.42075e-07 0 -1.16812e-08)
(5.65481e-07 0 -1.13289e-08)
(5.88193e-07 0 -1.09693e-08)
(6.10141e-07 0 -1.05605e-08)
(6.31253e-07 0 -1.01399e-08)
(6.51467e-07 0 -9.66838e-09)
(6.70744e-07 0 -9.19452e-09)
(6.89006e-07 0 -8.67504e-09)
(7.06204e-07 0 -8.13781e-09)
(7.22265e-07 0 -7.54748e-09)
(7.37109e-07 0 -6.94091e-09)
(7.50702e-07 0 -6.30533e-09)
(7.62939e-07 0 -5.59611e-09)
(7.73761e-07 0 -4.91233e-09)
(7.83114e-07 0 -4.15029e-09)
(7.90893e-07 0 -3.35888e-09)
(7.97016e-07 0 -2.51094e-09)
(8.01411e-07 0 -1.6539e-09)
(8.04011e-07 0 -7.34814e-10)
(8.04726e-07 0 2.11759e-10)
(8.03478e-07 0 1.20306e-09)
(8.00198e-07 0 2.23114e-09)
(7.94807e-07 0 3.29194e-09)
(7.87277e-07 0 4.35379e-09)
(7.77555e-07 0 5.47561e-09)
(7.65571e-07 0 6.58244e-09)
(7.51303e-07 0 7.75486e-09)
(7.34733e-07 0 8.86053e-09)
(7.15883e-07 0 9.99952e-09)
(6.9473e-07 0 1.11331e-08)
(6.71283e-07 0 1.22624e-08)
(6.45568e-07 0 1.33642e-08)
(6.17632e-07 0 1.44391e-08)
(5.87547e-07 0 1.54668e-08)
(5.55379e-07 0 1.64658e-08)
(5.21218e-07 0 1.7409e-08)
(4.85176e-07 0 1.82837e-08)
(4.47419e-07 0 1.90696e-08)
(4.08118e-07 0 1.9775e-08)
(3.67487e-07 0 2.03671e-08)
(3.25836e-07 0 2.07949e-08)
(2.83718e-07 0 2.08691e-08)
(2.42487e-07 0 2.016e-08)
(2.05292e-07 0 1.74286e-08)
(1.76914e-07 0 4.76837e-09)
(1.16566e-07 0 3.06447e-08)
(1.69145e-11 0 4.24455e-08)
(1.39523e-15 0 3.03495e-17)
(7.64159e-16 0 1.29247e-18)
(1.45595e-15 0 2.28509e-18)
(1.45078e-15 0 3.51552e-18)
(1.44356e-15 0 4.82867e-18)
(1.43382e-15 0 6.1108e-18)
(1.42156e-15 0 7.36191e-18)
(1.40684e-15 0 8.54064e-18)
(1.38979e-15 0 9.66767e-18)
(1.37057e-15 0 1.07533e-17)
(1.34928e-15 0 1.1746e-17)
(1.32605e-15 0 1.26765e-17)
(1.30099e-15 0 1.35554e-17)
(1.27426e-15 0 1.43826e-17)
(1.24593e-15 0 1.51477e-17)
(1.21602e-15 0 1.59025e-17)
(1.18468e-15 0 1.6616e-17)
(1.15191e-15 0 1.73088e-17)
(1.11775e-15 0 1.79705e-17)
(1.08223e-15 0 1.86633e-17)
(1.04536e-15 0 1.93457e-17)
(1.00711e-15 0 2.00281e-17)
(9.6746e-16 0 2.07209e-17)
(9.26422e-16 0 2.14447e-17)
(8.83936e-16 0 2.21684e-17)
(8.39992e-16 0 2.28819e-17)
(7.9461e-16 0 2.3616e-17)
(7.47792e-16 0 2.43501e-17)
(6.99526e-16 0 2.50946e-17)
(6.49823e-16 0 2.57874e-17)
(5.98724e-16 0 2.64698e-17)
(5.46291e-16 0 2.71625e-17)
(4.92638e-16 0 2.78036e-17)
(4.37806e-16 0 2.83826e-17)
(3.81899e-16 0 2.89203e-17)
(3.25041e-16 0 2.94063e-17)
(2.67314e-16 0 2.98199e-17)
(2.08873e-16 0 3.01714e-17)
(1.49813e-16 0 3.04402e-17)
(9.02558e-17 0 3.06884e-17)
(3.01921e-17 0 3.10193e-17)
(7.04084e-10 0 1.03763e-09)
(-8.90189e-10 0 3.11411e-09)
(-1.22391e-09 0 3.04827e-09)
(-9.47123e-10 0 1.89682e-09)
(3.86742e-10 0 1.34909e-10)
(2.96837e-09 0 -2.06405e-09)
(6.9608e-09 0 -4.57427e-09)
(1.25376e-08 0 -7.32536e-09)
(1.98164e-08 0 -1.02307e-08)
(2.88554e-08 0 -1.32349e-08)
(3.97156e-08 0 -1.62502e-08)
(5.24247e-08 0 -1.92437e-08)
(6.69289e-08 0 -2.21629e-08)
(8.31202e-08 0 -2.47272e-08)
(1.00826e-07 0 -2.7057e-08)
(1.19913e-07 0 -2.90054e-08)
(1.40424e-07 0 -3.11009e-08)
(1.62528e-07 0 -3.37387e-08)
(1.85606e-07 0 -3.49338e-08)
(2.09281e-07 0 -3.56725e-08)
(2.33891e-07 0 -3.66823e-08)
(2.59475e-07 0 -3.91141e-08)
(2.85383e-07 0 -3.85039e-08)
(3.11474e-07 0 -3.91243e-08)
(3.37889e-07 0 -3.96085e-08)
(3.644e-07 0 -3.9532e-08)
(3.90787e-07 0 -3.93644e-08)
(4.17028e-07 0 -3.91065e-08)
(4.43022e-07 0 -3.86244e-08)
(4.68662e-07 0 -3.80917e-08)
(4.93885e-07 0 -3.73986e-08)
(5.18587e-07 0 -3.65785e-08)
(5.42731e-07 0 -3.56777e-08)
(5.66205e-07 0 -3.46357e-08)
(5.8897e-07 0 -3.35399e-08)
(6.10976e-07 0 -3.23558e-08)
(6.32147e-07 0 -3.10584e-08)
(6.52417e-07 0 -2.96582e-08)
(6.71759e-07 0 -2.82156e-08)
(6.90076e-07 0 -2.66481e-08)
(7.07323e-07 0 -2.5e-08)
(7.23448e-07 0 -2.32418e-08)
(7.38373e-07 0 -2.13881e-08)
(7.52039e-07 0 -1.94475e-08)
(7.64353e-07 0 -1.73077e-08)
(7.75254e-07 0 -1.5216e-08)
(7.84695e-07 0 -1.29121e-08)
(7.92555e-07 0 -1.04848e-08)
(7.98765e-07 0 -7.93909e-09)
(8.03252e-07 0 -5.30617e-09)
(8.05922e-07 0 -2.52198e-09)
(8.06703e-07 0 3.62967e-10)
(8.05509e-07 0 3.37664e-09)
(8.02297e-07 0 6.47153e-09)
(7.96984e-07 0 9.69537e-09)
(7.89499e-07 0 1.29374e-08)
(7.79807e-07 0 1.63219e-08)
(7.67842e-07 0 1.97055e-08)
(7.53589e-07 0 2.32363e-08)
(7.3704e-07 0 2.66073e-08)
(7.18193e-07 0 3.00802e-08)
(6.97034e-07 0 3.35343e-08)
(6.73571e-07 0 3.69986e-08)
(6.47819e-07 0 4.03928e-08)
(6.19832e-07 0 4.37082e-08)
(5.89675e-07 0 4.6911e-08)
(5.57399e-07 0 5.00321e-08)
(5.23114e-07 0 5.29743e-08)
(4.86948e-07 0 5.57134e-08)
(4.49033e-07 0 5.82158e-08)
(4.09502e-07 0 6.04761e-08)
(3.68538e-07 0 6.23718e-08)
(3.26358e-07 0 6.38109e-08)
(2.83103e-07 0 6.44919e-08)
(2.38641e-07 0 6.37576e-08)
(1.92282e-07 0 5.9354e-08)
(1.33697e-07 0 4.40347e-08)
(8.18829e-08 0 1.17287e-07)
(2.07594e-11 0 1.10957e-07)
(1.39452e-15 0 8.74405e-17)
(7.65693e-16 0 3.2777e-18)
(1.4582e-15 0 6.98968e-18)
(1.45334e-15 0 1.09498e-17)
(1.44617e-15 0 1.4972e-17)
(1.43637e-15 0 1.88494e-17)
(1.42398e-15 0 2.26027e-17)
(1.40914e-15 0 2.61699e-17)
(1.392e-15 0 2.9551e-17)
(1.37264e-15 0 3.2746e-17)
(1.35121e-15 0 3.57445e-17)
(1.32786e-15 0 3.85259e-17)
(1.3027e-15 0 4.11522e-17)
(1.27585e-15 0 4.36131e-17)
(1.24744e-15 0 4.59292e-17)
(1.2175e-15 0 4.81419e-17)
(1.18608e-15 0 5.02822e-17)
(1.15326e-15 0 5.23502e-17)
(1.1191e-15 0 5.43871e-17)
(1.08361e-15 0 5.64241e-17)
(1.04674e-15 0 5.8461e-17)
(1.0085e-15 0 6.05083e-17)
(9.68877e-16 0 6.26072e-17)
(9.27859e-16 0 6.47269e-17)
(8.85363e-16 0 6.68776e-17)
(8.41439e-16 0 6.90696e-17)
(7.96079e-16 0 7.13133e-17)
(7.4926e-16 0 7.35467e-17)
(7.00963e-16 0 7.57594e-17)
(6.51208e-16 0 7.78997e-17)
(6.00089e-16 0 8.00194e-17)
(5.47604e-16 0 8.2077e-17)
(4.93848e-16 0 8.40312e-17)
(4.38923e-16 0 8.582e-17)
(3.82923e-16 0 8.74433e-17)
(3.2594e-16 0 8.89012e-17)
(2.68079e-16 0 9.01627e-17)
(2.09494e-16 0 9.12174e-17)
(1.5034e-16 0 9.20342e-17)
(9.08348e-17 0 9.26856e-17)
(3.05126e-17 0 9.32336e-17)
(6.64475e-11 0 1.3235e-09)
(-2.37387e-09 0 7.70995e-10)
(-2.77681e-09 0 -6.76761e-10)
(-2.67987e-09 0 -2.7807e-09)
(-1.62194e-09 0 -5.50188e-09)
(6.71346e-10 0 -8.71717e-09)
(4.40985e-09 0 -1.23435e-08)
(9.76142e-09 0 -1.63429e-08)
(1.68565e-08 0 -2.05792e-08)
(2.57849e-08 0 -2.49921e-08)
(3.65907e-08 0 -2.94797e-08)
(4.92908e-08 0 -3.4006e-08)
(6.38628e-08 0 -3.844e-08)
(8.01573e-08 0 -4.239e-08)
(9.79234e-08 0 -4.59983e-08)
(1.1717e-07 0 -4.89374e-08)
(1.38041e-07 0 -5.28295e-08)
(1.60476e-07 0 -5.66842e-08)
(1.83676e-07 0 -5.85403e-08)
(2.07645e-07 0 -5.98614e-08)
(2.32723e-07 0 -6.18771e-08)
(2.58617e-07 0 -6.51605e-08)
(2.84702e-07 0 -6.45434e-08)
(3.11093e-07 0 -6.54423e-08)
(3.37787e-07 0 -6.62969e-08)
(3.64498e-07 0 -6.60425e-08)
(3.91085e-07 0 -6.57673e-08)
(4.17522e-07 0 -6.53134e-08)
(4.43693e-07 0 -6.44992e-08)
(4.69499e-07 0 -6.35717e-08)
(4.94874e-07 0 -6.23947e-08)
(5.19724e-07 0 -6.10273e-08)
(5.44008e-07 0 -5.95091e-08)
(5.67622e-07 0 -5.7776e-08)
(5.90519e-07 0 -5.59061e-08)
(6.12636e-07 0 -5.39579e-08)
(6.33921e-07 0 -5.17766e-08)
(6.54312e-07 0 -4.94551e-08)
(6.73783e-07 0 -4.7058e-08)
(6.92229e-07 0 -4.44391e-08)
(7.096e-07 0 -4.16783e-08)
(7.25852e-07 0 -3.8784e-08)
(7.4091e-07 0 -3.57045e-08)
(7.54726e-07 0 -3.24614e-08)
(7.67201e-07 0 -2.89245e-08)
(7.78249e-07 0 -2.54215e-08)
(7.87821e-07 0 -2.15993e-08)
(7.95832e-07 0 -1.75551e-08)
(8.02207e-07 0 -1.33446e-08)
(8.06856e-07 0 -8.93601e-09)
(8.09688e-07 0 -4.29816e-09)
(8.10623e-07 0 5.11529e-10)
(8.09579e-07 0 5.54125e-09)
(8.06481e-07 0 1.07014e-08)
(8.01259e-07 0 1.60663e-08)
(7.9389e-07 0 2.14864e-08)
(7.84303e-07 0 2.71205e-08)
(7.72416e-07 0 3.27896e-08)
(7.58219e-07 0 3.8651e-08)
(7.4169e-07 0 4.42835e-08)
(7.22836e-07 0 5.00749e-08)
(7.01625e-07 0 5.58428e-08)
(6.78071e-07 0 6.16039e-08)
(6.52226e-07 0 6.72372e-08)
(6.24125e-07 0 7.27481e-08)
(5.93799e-07 0 7.80988e-08)
(5.61332e-07 0 8.32557e-08)
(5.2684e-07 0 8.81305e-08)
(4.90399e-07 0 9.26787e-08)
(4.52144e-07 0 9.68642e-08)
(4.12216e-07 0 1.00656e-07)
(3.70756e-07 0 1.03913e-07)
(3.27859e-07 0 1.06561e-07)
(2.83508e-07 0 1.08413e-07)
(2.37295e-07 0 1.09287e-07)
(1.88254e-07 0 1.08951e-07)
(1.30035e-07 0 1.08444e-07)
(7.67667e-08 0 1.63026e-07)
(2.11936e-11 0 1.65557e-07)
(1.39929e-15 0 1.4484e-16)
(7.68952e-16 0 4.88037e-18)
(1.46363e-15 0 1.18183e-17)
(1.45877e-15 0 1.87356e-17)
(1.45147e-15 0 2.55185e-17)
(1.44148e-15 0 3.20739e-17)
(1.42886e-15 0 3.83502e-17)
(1.41377e-15 0 4.43059e-17)
(1.39637e-15 0 4.99617e-17)
(1.37678e-15 0 5.52453e-17)
(1.35508e-15 0 6.02084e-17)
(1.33146e-15 0 6.48613e-17)
(1.30607e-15 0 6.92143e-17)
(1.27904e-15 0 7.33089e-17)
(1.25046e-15 0 7.71449e-17)
(1.22038e-15 0 8.07949e-17)
(1.18889e-15 0 8.43001e-17)
(1.156e-15 0 8.77122e-17)
(1.12181e-15 0 9.1114e-17)
(1.08632e-15 0 9.4464e-17)
(1.04945e-15 0 9.78451e-17)
(1.01125e-15 0 1.01257e-16)
(9.71679e-16 0 1.04731e-16)
(9.30702e-16 0 1.08268e-16)
(8.88289e-16 0 1.11876e-16)
(8.44417e-16 0 1.15578e-16)
(7.99067e-16 0 1.19331e-16)
(7.52238e-16 0 1.23084e-16)
(7.03889e-16 0 1.26817e-16)
(6.54093e-16 0 1.30508e-16)
(6.02901e-16 0 1.34096e-16)
(5.50292e-16 0 1.37539e-16)
(4.96381e-16 0 1.40828e-16)
(4.41229e-16 0 1.43878e-16)
(3.8498e-16 0 1.46649e-16)
(3.2776e-16 0 1.4911e-16)
(2.6963e-16 0 1.51219e-16)
(2.10745e-16 0 1.52987e-16)
(1.51291e-16 0 1.54352e-16)
(9.14655e-17 0 1.55345e-16)
(3.07401e-17 0 1.55841e-16)
(-2.7867e-10 0 3.65591e-09)
(-3.61667e-09 0 2.63231e-09)
(-4.86513e-09 0 5.62511e-10)
(-5.50786e-09 0 -2.43215e-09)
(-5.10301e-09 0 -6.30528e-09)
(-3.3902e-09 0 -1.09277e-08)
(-1.28085e-10 0 -1.6153e-08)
(4.85333e-09 0 -2.1916e-08)
(1.16952e-08 0 -2.80277e-08)
(2.04762e-08 0 -3.43963e-08)
(3.12539e-08 0 -4.08718e-08)
(4.40245e-08 0 -4.74093e-08)
(5.87568e-08 0 -5.373e-08)
(7.52708e-08 0 -5.94352e-08)
(9.3226e-08 0 -6.45047e-08)
(1.12827e-07 0 -6.86819e-08)
(1.34325e-07 0 -7.47073e-08)
(1.57256e-07 0 -7.98211e-08)
(1.8062e-07 0 -8.23057e-08)
(2.05119e-07 0 -8.40976e-08)
(2.30954e-07 0 -8.76705e-08)
(2.57274e-07 0 -9.12238e-08)
(2.83648e-07 0 -9.08836e-08)
(3.10527e-07 0 -9.20528e-08)
(3.37606e-07 0 -9.32952e-08)
(3.64626e-07 0 -9.27501e-08)
(3.91545e-07 0 -9.24354e-08)
(4.18284e-07 0 -9.17313e-08)
(4.44724e-07 0 -9.05963e-08)
(4.70774e-07 0 -8.92463e-08)
(4.96383e-07 0 -8.76084e-08)
(5.21461e-07 0 -8.56887e-08)
(5.45951e-07 0 -8.35284e-08)
(5.69754e-07 0 -8.11121e-08)
(5.92835e-07 0 -7.84622e-08)
(6.15133e-07 0 -7.57322e-08)
(6.36588e-07 0 -7.2684e-08)
(6.57151e-07 0 -6.94339e-08)
(6.76789e-07 0 -6.60807e-08)
(6.95406e-07 0 -6.24247e-08)
(7.12996e-07 0 -5.85845e-08)
(7.29467e-07 0 -5.45115e-08)
(7.44705e-07 0 -5.02263e-08)
(7.58719e-07 0 -4.56981e-08)
(7.71423e-07 0 -4.07667e-08)
(7.82707e-07 0 -3.58361e-08)
(7.9253e-07 0 -3.05116e-08)
(8.00795e-07 0 -2.48578e-08)
(8.07408e-07 0 -1.89564e-08)
(8.12284e-07 0 -1.27753e-08)
(8.15339e-07 0 -6.27718e-09)
(8.16496e-07 0 4.71794e-10)
(8.15662e-07 0 7.52856e-09)
(8.12774e-07 0 1.47799e-08)
(8.07755e-07 0 2.23007e-08)
(8.0054e-07 0 2.99241e-08)
(7.91046e-07 0 3.78568e-08)
(7.79249e-07 0 4.58256e-08)
(7.65136e-07 0 5.40501e-08)
(7.4865e-07 0 6.20085e-08)
(7.29778e-07 0 7.01668e-08)
(7.08532e-07 0 7.83122e-08)
(6.84915e-07 0 8.64105e-08)
(6.58954e-07 0 9.43525e-08)
(6.30677e-07 0 1.02138e-07)
(6.00121e-07 0 1.09733e-07)
(5.67361e-07 0 1.17005e-07)
(5.32514e-07 0 1.23911e-07)
(4.95674e-07 0 1.30379e-07)
(4.56959e-07 0 1.36346e-07)
(4.16491e-07 0 1.41788e-07)
(3.7442e-07 0 1.4653e-07)
(3.30859e-07 0 1.50602e-07)
(2.85837e-07 0 1.53947e-07)
(2.393e-07 0 1.56693e-07)
(1.91465e-07 0 1.59359e-07)
(1.41177e-07 0 1.64416e-07)
(7.69487e-08 0 2.15998e-07)
(2.12255e-11 0 2.18175e-07)
(1.40925e-15 0 1.9851e-16)
(7.73847e-16 0 6.64846e-18)
(1.47203e-15 0 1.6647e-17)
(1.46703e-15 0 2.65008e-17)
(1.45951e-15 0 3.60754e-17)
(1.4492e-15 0 4.53398e-17)
(1.4362e-15 0 5.4201e-17)
(1.42074e-15 0 6.25866e-17)
(1.40294e-15 0 7.05172e-17)
(1.38289e-15 0 7.79411e-17)
(1.36083e-15 0 8.48687e-17)
(1.33688e-15 0 9.13724e-17)
(1.31113e-15 0 9.74005e-17)
(1.28378e-15 0 1.03067e-16)
(1.25496e-15 0 1.08371e-16)
(1.22465e-15 0 1.13427e-16)
(1.193e-15 0 1.18276e-16)
(1.16008e-15 0 1.22991e-16)
(1.12584e-15 0 1.27675e-16)
(1.09034e-15 0 1.32328e-16)
(1.05353e-15 0 1.37012e-16)
(1.01537e-15 0 1.41799e-16)
(9.75887e-16 0 1.46669e-16)
(9.35014e-16 0 1.51653e-16)
(8.92683e-16 0 1.56761e-16)
(8.48874e-16 0 1.61983e-16)
(8.03575e-16 0 1.67256e-16)
(7.56757e-16 0 1.72571e-16)
(7.08387e-16 0 1.77896e-16)
(6.58488e-16 0 1.83158e-16)
(6.0713e-16 0 1.88246e-16)
(5.54345e-16 0 1.93147e-16)
(5.00186e-16 0 1.978e-16)
(4.44744e-16 0 2.02132e-16)
(3.88165e-16 0 2.06092e-16)
(3.30521e-16 0 2.09597e-16)
(2.71946e-16 0 2.12585e-16)
(2.12627e-16 0 2.15077e-16)
(1.52698e-16 0 2.17001e-16)
(9.2334e-17 0 2.18314e-16)
(3.10296e-17 0 2.18986e-16)
(-7.41822e-10 0 6.80299e-09)
(-5.2951e-09 0 5.49304e-09)
(-7.75431e-09 0 2.78927e-09)
(-9.51393e-09 0 -1.20105e-09)
(-1.00702e-08 0 -6.34485e-09)
(-9.18165e-09 0 -1.25234e-08)
(-6.58596e-09 0 -1.95333e-08)
(-2.09556e-09 0 -2.72288e-08)
(4.4177e-09 0 -3.53878e-08)
(1.30436e-08 0 -4.38511e-08)
(2.3813e-08 0 -5.24678e-08)
(3.6698e-08 0 -6.11498e-08)
(5.17202e-08 0 -6.92904e-08)
(6.84955e-08 0 -7.69462e-08)
(8.68488e-08 0 -8.31743e-08)
(1.07208e-07 0 -8.84945e-08)
(1.29324e-07 0 -9.81627e-08)
(1.52777e-07 0 -1.03383e-07)
(1.76617e-07 0 -1.0599e-07)
(2.0195e-07 0 -1.08469e-07)
(2.2857e-07 0 -1.16275e-07)
(2.55392e-07 0 -1.16567e-07)
(2.82332e-07 0 -1.18009e-07)
(3.09802e-07 0 -1.19218e-07)
(3.37384e-07 0 -1.20682e-07)
(3.64836e-07 0 -1.19862e-07)
(3.92213e-07 0 -1.19492e-07)
(4.19343e-07 0 -1.18494e-07)
(4.46131e-07 0 -1.16993e-07)
(4.72525e-07 0 -1.15227e-07)
(4.98447e-07 0 -1.13088e-07)
(5.2378e-07 0 -1.10583e-07)
(5.48523e-07 0 -1.07779e-07)
(5.72584e-07 0 -1.04671e-07)
(5.95907e-07 0 -1.0123e-07)
(6.18455e-07 0 -9.77314e-08)
(6.40148e-07 0 -9.37875e-08)
(6.60958e-07 0 -8.96418e-08)
(6.80844e-07 0 -8.53013e-08)
(6.99693e-07 0 -8.06339e-08)
(7.17499e-07 0 -7.57089e-08)
(7.3423e-07 0 -7.04842e-08)
(7.49751e-07 0 -6.49868e-08)
(7.64061e-07 0 -5.91906e-08)
(7.7708e-07 0 -5.29231e-08)
(7.88667e-07 0 -4.64974e-08)
(7.98793e-07 0 -3.97123e-08)
(8.07375e-07 0 -3.24548e-08)
(8.14315e-07 0 -2.48514e-08)
(8.19521e-07 0 -1.68967e-08)
(8.22912e-07 0 -8.54724e-09)
(8.24385e-07 0 1.75278e-10)
(8.23846e-07 0 9.25164e-09)
(8.21231e-07 0 1.86221e-08)
(8.16443e-07 0 2.83223e-08)
(8.09451e-07 0 3.82068e-08)
(8.00128e-07 0 4.84625e-08)
(7.88462e-07 0 5.87504e-08)
(7.74427e-07 0 6.93561e-08)
(7.58004e-07 0 7.97052e-08)
(7.39139e-07 0 9.02675e-08)
(7.17841e-07 0 1.00808e-07)
(6.94113e-07 0 1.11311e-07)
(6.67971e-07 0 1.21609e-07)
(6.39463e-07 0 1.31724e-07)
(6.08607e-07 0 1.41622e-07)
(5.7548e-07 0 1.51046e-07)
(5.40203e-07 0 1.60044e-07)
(5.02849e-07 0 1.68502e-07)
(4.63511e-07 0 1.76336e-07)
(4.22361e-07 0 1.83464e-07)
(3.79562e-07 0 1.89776e-07)
(3.35283e-07 0 1.95236e-07)
(2.89737e-07 0 1.99919e-07)
(2.43096e-07 0 2.04043e-07)
(1.9598e-07 0 2.08103e-07)
(1.46809e-07 0 2.14475e-07)
(7.855e-08 0 2.81613e-07)
(2.11799e-11 0 2.73345e-07)
(1.42203e-15 0 2.4738e-16)
(7.80533e-16 0 8.49928e-18)
(1.48348e-15 0 2.15791e-17)
(1.47818e-15 0 3.44417e-17)
(1.47033e-15 0 4.69322e-17)
(1.45961e-15 0 5.8947e-17)
(1.44612e-15 0 7.04241e-17)
(1.43009e-15 0 8.13119e-17)
(1.41171e-15 0 9.15379e-17)
(1.39113e-15 0 1.01092e-16)
(1.3685e-15 0 1.09994e-16)
(1.34398e-15 0 1.18245e-16)
(1.31776e-15 0 1.25918e-16)
(1.29001e-15 0 1.33093e-16)
(1.26084e-15 0 1.39814e-16)
(1.23029e-15 0 1.46173e-16)
(1.19845e-15 0 1.52336e-16)
(1.16541e-15 0 1.58302e-16)
(1.13115e-15 0 1.64216e-16)
(1.09564e-15 0 1.7013e-16)
(1.05892e-15 0 1.76086e-16)
(1.02091e-15 0 1.82207e-16)
(9.81543e-16 0 1.88494e-16)
(9.40784e-16 0 1.94925e-16)
(8.98597e-16 0 2.01563e-16)
(8.54912e-16 0 2.08346e-16)
(8.09686e-16 0 2.15243e-16)
(7.62888e-16 0 2.22201e-16)
(7.14467e-16 0 2.2917e-16)
(6.64454e-16 0 2.36026e-16)
(6.129e-16 0 2.42705e-16)
(5.59836e-16 0 2.49136e-16)
(5.05356e-16 0 2.55247e-16)
(4.49521e-16 0 2.60934e-16)
(3.92435e-16 0 2.66104e-16)
(3.34253e-16 0 2.70685e-16)
(2.751e-16 0 2.74593e-16)
(2.1515e-16 0 2.77819e-16)
(1.54548e-16 0 2.80311e-16)
(9.34611e-17 0 2.81976e-16)
(3.14122e-17 0 2.82854e-16)
(-1.43462e-09 0 1.11142e-08)
(-7.63075e-09 0 9.36304e-09)
(-1.15495e-08 0 5.87583e-09)
(-1.46944e-08 0 7.45593e-10)
(-1.64802e-08 0 -5.79909e-09)
(-1.66297e-08 0 -1.36466e-08)
(-1.48703e-08 0 -2.25749e-08)
(-1.10194e-08 0 -3.23244e-08)
(-4.9206e-09 0 -4.26768e-08)
(3.53116e-09 0 -5.33834e-08)
(1.42871e-08 0 -6.4291e-08)
(2.73599e-08 0 -7.51654e-08)
(4.28323e-08 0 -8.50818e-08)
(5.96699e-08 0 -9.53256e-08)
(7.85855e-08 0 -1.02531e-07)
(1.00168e-07 0 -1.09733e-07)
(1.23138e-07 0 -1.21507e-07)
(1.46931e-07 0 -1.27231e-07)
(1.71673e-07 0 -1.30966e-07)
(1.98225e-07 0 -1.34292e-07)
(2.25591e-07 0 -1.43849e-07)
(2.53015e-07 0 -1.43383e-07)
(2.80801e-07 0 -1.45623e-07)
(3.08997e-07 0 -1.4713e-07)
(3.37186e-07 0 -1.48353e-07)
(3.65192e-07 0 -1.47588e-07)
(3.9311e-07 0 -1.46979e-07)
(4.20715e-07 0 -1.45674e-07)
(4.47951e-07 0 -1.43769e-07)
(4.7476e-07 0 -1.41584e-07)
(5.01059e-07 0 -1.38885e-07)
(5.26743e-07 0 -1.35771e-07)
(5.51818e-07 0 -1.32327e-07)
(5.76189e-07 0 -1.28509e-07)
(5.99814e-07 0 -1.24281e-07)
(6.22655e-07 0 -1.19976e-07)
(6.44599e-07 0 -1.15141e-07)
(6.65696e-07 0 -1.10135e-07)
(6.85866e-07 0 -1.04779e-07)
(7.05014e-07 0 -9.90926e-08)
(7.23122e-07 0 -9.31184e-08)
(7.40179e-07 0 -8.67724e-08)
(7.56063e-07 0 -8.00546e-08)
(7.70708e-07 0 -7.30231e-08)
(7.84102e-07 0 -6.54146e-08)
(7.96078e-07 0 -5.75099e-08)
(8.066e-07 0 -4.9259e-08)
(8.15579e-07 0 -4.04214e-08)
(8.22943e-07 0 -3.11292e-08)
(8.28584e-07 0 -2.1393e-08)
(8.32379e-07 0 -1.11754e-08)
(8.34247e-07 0 -4.79711e-10)
(8.34092e-07 0 1.06584e-08)
(8.31817e-07 0 2.22001e-08)
(8.27343e-07 0 3.40607e-08)
(8.20624e-07 0 4.62373e-08)
(8.11563e-07 0 5.89032e-08)
(8.00054e-07 0 7.15568e-08)
(7.86155e-07 0 8.45908e-08)
(7.6978e-07 0 9.73512e-08)
(7.5092e-07 0 1.10412e-07)
(7.29571e-07 0 1.2335e-07)
(7.05741e-07 0 1.36378e-07)
(6.79408e-07 0 1.49088e-07)
(6.50604e-07 0 1.61598e-07)
(6.19385e-07 0 1.73851e-07)
(5.85826e-07 0 1.85563e-07)
(5.5e-07 0 1.96711e-07)
(5.11978e-07 0 2.07248e-07)
(4.719e-07 0 2.17036e-07)
(4.29921e-07 0 2.25932e-07)
(3.86222e-07 0 2.33853e-07)
(3.41053e-07 0 2.40671e-07)
(2.94744e-07 0 2.46444e-07)
(2.47605e-07 0 2.51338e-07)
(2.00969e-07 0 2.55118e-07)
(1.51476e-07 0 2.64478e-07)
(7.87645e-08 0 3.52026e-07)
(2.04725e-11 0 3.25507e-07)
(1.43694e-15 0 2.9284e-16)
(7.88999e-16 0 1.04742e-17)
(1.49798e-15 0 2.67283e-17)
(1.49237e-15 0 4.27032e-17)
(1.48401e-15 0 5.81922e-17)
(1.47269e-15 0 7.30711e-17)
(1.45858e-15 0 8.72469e-17)
(1.44186e-15 0 1.00627e-16)
(1.42271e-15 0 1.132e-16)
(1.40136e-15 0 1.24853e-16)
(1.37798e-15 0 1.35647e-16)
(1.3528e-15 0 1.45625e-16)
(1.32598e-15 0 1.54879e-16)
(1.29767e-15 0 1.63492e-16)
(1.26803e-15 0 1.71547e-16)
(1.23717e-15 0 1.79178e-16)
(1.20514e-15 0 1.86498e-16)
(1.17197e-15 0 1.93643e-16)
(1.13768e-15 0 2.00715e-16)
(1.10222e-15 0 2.07808e-16)
(1.06559e-15 0 2.15046e-16)
(1.02777e-15 0 2.2246e-16)
(9.88615e-16 0 2.30122e-16)
(9.48083e-16 0 2.38052e-16)
(9.06104e-16 0 2.46241e-16)
(8.62574e-16 0 2.54668e-16)
(8.1743e-16 0 2.6324e-16)
(7.70684e-16 0 2.71925e-16)
(7.22211e-16 0 2.806e-16)
(6.72033e-16 0 2.89182e-16)
(6.20261e-16 0 2.97558e-16)
(5.66888e-16 0 3.05612e-16)
(5.11983e-16 0 3.13243e-16)
(4.55601e-16 0 3.20346e-16)
(3.97895e-16 0 3.26798e-16)
(3.3901e-16 0 3.32516e-16)
(2.79091e-16 0 3.37417e-16)
(2.18334e-16 0 3.41398e-16)
(1.56854e-16 0 3.44428e-16)
(9.48569e-17 0 3.46516e-16)
(3.18878e-17 0 3.47571e-16)
(-2.3153e-09 0 1.72102e-08)
(-1.05737e-08 0 1.49629e-08)
(-1.63151e-08 0 1.058e-08)
(-2.11711e-08 0 4.19111e-09)
(-2.44945e-08 0 -3.96405e-09)
(-2.5944e-08 0 -1.37025e-08)
(-2.52433e-08 0 -2.47889e-08)
(-2.2146e-08 0 -3.68331e-08)
(-1.65008e-08 0 -4.96172e-08)
(-8.29464e-09 0 -6.28477e-08)
(2.34347e-09 0 -7.64131e-08)
(1.6033e-08 0 -8.89688e-08)
(3.1654e-08 0 -1.02134e-07)
(4.86944e-08 0 -1.13478e-07)
(6.87275e-08 0 -1.21583e-07)
(9.15059e-08 0 -1.33819e-07)
(1.15587e-07 0 -1.45467e-07)
(1.39633e-07 0 -1.51967e-07)
(1.65765e-07 0 -1.56094e-07)
(1.94021e-07 0 -1.61822e-07)
(2.22197e-07 0 -1.72246e-07)
(2.50136e-07 0 -1.70878e-07)
(2.79082e-07 0 -1.73997e-07)
(3.08126e-07 0 -1.76022e-07)
(3.37027e-07 0 -1.76523e-07)
(3.657e-07 0 -1.75965e-07)
(3.94251e-07 0 -1.75002e-07)
(4.22447e-07 0 -1.7337e-07)
(4.50216e-07 0 -1.71027e-07)
(4.77499e-07 0 -1.68347e-07)
(5.04229e-07 0 -1.65074e-07)
(5.30327e-07 0 -1.61332e-07)
(5.55794e-07 0 -1.57213e-07)
(5.80522e-07 0 -1.52669e-07)
(6.04477e-07 0 -1.47648e-07)
(6.27663e-07 0 -1.42529e-07)
(6.49941e-07 0 -1.36786e-07)
(6.71351e-07 0 -1.30921e-07)
(6.91849e-07 0 -1.24599e-07)
(7.11394e-07 0 -1.17883e-07)
(7.29853e-07 0 -1.10876e-07)
(7.47274e-07 0 -1.03419e-07)
(7.63586e-07 0 -9.55093e-08)
(7.78633e-07 0 -8.72364e-08)
(7.92479e-07 0 -7.83588e-08)
(8.04938e-07 0 -6.89566e-08)
(8.15971e-07 0 -5.92815e-08)
(8.25493e-07 0 -4.8847e-08)
(8.33361e-07 0 -3.78909e-08)
(8.39511e-07 0 -2.63579e-08)
(8.43813e-07 0 -1.42452e-08)
(8.46162e-07 0 -1.56943e-09)
(8.46459e-07 0 1.16598e-08)
(8.44603e-07 0 2.54034e-08)
(8.40516e-07 0 3.94783e-08)
(8.34129e-07 0 5.40034e-08)
(8.25373e-07 0 6.90702e-08)
(8.14073e-07 0 8.41962e-08)
(8.00346e-07 0 9.9697e-08)
(7.8404e-07 0 1.14995e-07)
(7.65208e-07 0 1.30534e-07)
(7.4382e-07 0 1.46056e-07)
(7.1981e-07 0 1.61563e-07)
(6.93255e-07 0 1.76811e-07)
(6.64155e-07 0 1.91824e-07)
(6.32513e-07 0 2.06601e-07)
(5.98434e-07 0 2.20536e-07)
(5.6197e-07 0 2.34019e-07)
(5.23186e-07 0 2.46785e-07)
(4.82197e-07 0 2.58625e-07)
(4.39174e-07 0 2.69413e-07)
(3.94311e-07 0 2.79011e-07)
(3.479e-07 0 2.872e-07)
(3.0041e-07 0 2.93858e-07)
(2.52281e-07 0 2.98898e-07)
(2.04788e-07 0 3.02065e-07)
(1.42476e-07 0 3.30355e-07)
(7.61266e-08 0 4.33924e-07)
(1.92775e-11 0 3.71981e-07)
(1.45643e-15 0 3.29359e-16)
(7.99472e-16 0 1.24801e-17)
(1.51572e-15 0 3.2105e-17)
(1.50966e-15 0 5.13472e-17)
(1.50069e-15 0 6.99691e-17)
(1.48866e-15 0 8.78259e-17)
(1.47368e-15 0 1.04814e-16)
(1.45604e-15 0 1.20737e-16)
(1.43593e-15 0 1.35637e-16)
(1.41357e-15 0 1.49378e-16)
(1.38926e-15 0 1.62055e-16)
(1.36322e-15 0 1.73718e-16)
(1.33562e-15 0 1.84461e-16)
(1.30667e-15 0 1.94398e-16)
(1.27653e-15 0 2.03673e-16)
(1.24525e-15 0 2.1243e-16)
(1.21293e-15 0 2.20816e-16)
(1.17963e-15 0 2.29015e-16)
(1.1453e-15 0 2.37163e-16)
(1.10996e-15 0 2.45393e-16)
(1.07357e-15 0 2.53831e-16)
(1.03598e-15 0 2.62537e-16)
(9.97125e-16 0 2.71584e-16)
(9.56914e-16 0 2.81014e-16)
(9.15234e-16 0 2.90785e-16)
(8.719e-16 0 3.00877e-16)
(8.26922e-16 0 3.11237e-16)
(7.80238e-16 0 3.21722e-16)
(7.31714e-16 0 3.32206e-16)
(6.81421e-16 0 3.4266e-16)
(6.2935e-16 0 3.52855e-16)
(5.75542e-16 0 3.62657e-16)
(5.201e-16 0 3.71911e-16)
(4.63076e-16 0 3.80503e-16)
(4.04626e-16 0 3.8832e-16)
(3.44883e-16 0 3.95227e-16)
(2.83992e-16 0 4.01141e-16)
(2.22181e-16 0 4.05949e-16)
(1.59656e-16 0 4.09547e-16)
(9.65837e-17 0 4.11998e-16)
(3.24668e-17 0 4.13218e-16)
(-3.40027e-09 0 2.55533e-08)
(-1.42157e-08 0 2.27567e-08)
(-2.22431e-08 0 1.73605e-08)
(-2.92037e-08 0 9.53512e-09)
(-3.43952e-08 0 -4.92703e-10)
(-3.74007e-08 0 -1.24052e-08)
(-3.7975e-08 0 -2.59598e-08)
(-3.5732e-08 0 -4.06028e-08)
(-3.06279e-08 0 -5.61536e-08)
(-2.29872e-08 0 -7.25142e-08)
(-1.18472e-08 0 -8.79918e-08)
(2.3184e-09 0 -1.0358e-07)
(1.76883e-08 0 -1.19798e-07)
(3.546e-08 0 -1.31561e-07)
(5.75551e-08 0 -1.41626e-07)
(8.11802e-08 0 -1.59894e-07)
(1.0605e-07 0 -1.69801e-07)
(1.31223e-07 0 -1.77384e-07)
(1.59595e-07 0 -1.8114e-07)
(1.8899e-07 0 -1.96735e-07)
(2.17884e-07 0 -1.96675e-07)
(2.47173e-07 0 -2.0114e-07)
(2.77259e-07 0 -2.02799e-07)
(3.07258e-07 0 -2.0622e-07)
(3.36939e-07 0 -2.05241e-07)
(3.66512e-07 0 -2.05094e-07)
(3.95764e-07 0 -2.03716e-07)
(4.24593e-07 0 -2.01625e-07)
(4.52934e-07 0 -1.9882e-07)
(4.80767e-07 0 -1.9559e-07)
(5.07992e-07 0 -1.9171e-07)
(5.34559e-07 0 -1.87345e-07)
(5.60476e-07 0 -1.82498e-07)
(5.85629e-07 0 -1.77209e-07)
(6.09957e-07 0 -1.71364e-07)
(6.33498e-07 0 -1.65425e-07)
(6.5619e-07 0 -1.58814e-07)
(6.77981e-07 0 -1.52055e-07)
(6.98846e-07 0 -1.44761e-07)
(7.1876e-07 0 -1.37084e-07)
(7.37646e-07 0 -1.28996e-07)
(7.55476e-07 0 -1.20483e-07)
(7.72243e-07 0 -1.11444e-07)
(7.87848e-07 0 -1.01894e-07)
(8.02188e-07 0 -9.18068e-08)
(8.15228e-07 0 -8.09238e-08)
(8.26838e-07 0 -6.98943e-08)
(8.36991e-07 0 -5.78454e-08)
(8.45469e-07 0 -4.52117e-08)
(8.52238e-07 0 -3.18854e-08)
(8.57157e-07 0 -1.78737e-08)
(8.60116e-07 0 -3.18704e-09)
(8.60985e-07 0 1.21432e-08)
(8.59643e-07 0 2.81865e-08)
(8.5601e-07 0 4.4486e-08)
(8.50023e-07 0 6.14353e-08)
(8.41568e-07 0 7.89647e-08)
(8.30603e-07 0 9.66432e-08)
(8.17066e-07 0 1.14653e-07)
(8.00887e-07 0 1.32629e-07)
(7.82061e-07 0 1.50578e-07)
(7.60639e-07 0 1.68814e-07)
(7.36517e-07 0 1.87e-07)
(7.09696e-07 0 2.04833e-07)
(6.80196e-07 0 2.22511e-07)
(6.48092e-07 0 2.39683e-07)
(6.13427e-07 0 2.56185e-07)
(5.7622e-07 0 2.72116e-07)
(5.36551e-07 0 2.87209e-07)
(4.94524e-07 0 3.01273e-07)
(4.5027e-07 0 3.14101e-07)
(4.03968e-07 0 3.25548e-07)
(3.55856e-07 0 3.35298e-07)
(3.06411e-07 0 3.42948e-07)
(2.56605e-07 0 3.47908e-07)
(2.08357e-07 0 3.48525e-07)
(1.3624e-07 0 4.06394e-07)
(7.5109e-08 0 4.75638e-07)
(1.83668e-11 0 4.18936e-07)
(1.47797e-15 0 3.57671e-16)
(8.121e-16 0 1.45894e-17)
(1.53684e-15 0 3.78022e-17)
(1.53023e-15 0 6.05289e-17)
(1.5205e-15 0 8.24906e-17)
(1.50754e-15 0 1.0346e-16)
(1.49149e-15 0 1.23312e-16)
(1.47268e-15 0 1.41872e-16)
(1.45136e-15 0 1.59067e-16)
(1.42779e-15 0 1.74907e-16)
(1.40232e-15 0 1.89445e-16)
(1.37519e-15 0 2.0269e-16)
(1.34664e-15 0 2.14819e-16)
(1.31689e-15 0 2.25955e-16)
(1.28607e-15 0 2.36274e-16)
(1.25432e-15 0 2.45983e-16)
(1.22173e-15 0 2.55299e-16)
(1.18831e-15 0 2.64419e-16)
(1.15403e-15 0 2.73507e-16)
(1.11885e-15 0 2.82792e-16)
(1.08274e-15 0 2.92346e-16)
(1.04554e-15 0 3.02293e-16)
(1.00709e-15 0 3.12736e-16)
(9.67295e-16 0 3.23676e-16)
(9.25977e-16 0 3.35122e-16)
(8.83026e-16 0 3.46971e-16)
(8.38275e-16 0 3.59214e-16)
(7.91643e-16 0 3.71632e-16)
(7.43129e-16 0 3.84112e-16)
(6.92671e-16 0 3.96519e-16)
(6.40259e-16 0 4.08648e-16)
(5.85954e-16 0 4.20311e-16)
(5.2983e-16 0 4.31313e-16)
(4.72e-16 0 4.41518e-16)
(4.12629e-16 0 4.50751e-16)
(3.51831e-16 0 4.58868e-16)
(2.89823e-16 0 4.65796e-16)
(2.26772e-16 0 4.71431e-16)
(1.62913e-16 0 4.75681e-16)
(9.85276e-17 0 4.78472e-16)
(3.31079e-17 0 4.79775e-16)
(-4.74206e-09 0 3.66478e-08)
(-1.87142e-08 0 3.32286e-08)
(-2.95413e-08 0 2.6643e-08)
(-3.90241e-08 0 1.71189e-08)
(-4.64774e-08 0 4.90866e-09)
(-5.13776e-08 0 -9.54221e-09)
(-5.33083e-08 0 -2.58323e-08)
(-5.21693e-08 0 -4.36758e-08)
(-4.80443e-08 0 -6.26256e-08)
(-4.02922e-08 0 -8.13699e-08)
(-2.86475e-08 0 -1.00014e-07)
(-1.45485e-08 0 -1.19428e-07)
(6.73926e-10 0 -1.3756e-07)
(2.08751e-08 0 -1.49301e-07)
(4.40946e-08 0 -1.67236e-07)
(6.89578e-08 0 -1.84586e-07)
(9.43173e-08 0 -1.96391e-07)
(1.2242e-07 0 -2.03625e-07)
(1.52811e-07 0 -2.09658e-07)
(1.83059e-07 0 -2.27931e-07)
(2.12963e-07 0 -2.25255e-07)
(2.44205e-07 0 -2.31913e-07)
(2.75364e-07 0 -2.33457e-07)
(3.06354e-07 0 -2.36292e-07)
(3.37056e-07 0 -2.3547e-07)
(3.67599e-07 0 -2.3487e-07)
(3.97646e-07 0 -2.33147e-07)
(4.2719e-07 0 -2.30482e-07)
(4.56215e-07 0 -2.27257e-07)
(4.84659e-07 0 -2.23376e-07)
(5.12439e-07 0 -2.18849e-07)
(5.39508e-07 0 -2.13813e-07)
(5.65894e-07 0 -2.08232e-07)
(5.91499e-07 0 -2.0217e-07)
(6.16259e-07 0 -1.95496e-07)
(6.40205e-07 0 -1.8864e-07)
(6.63356e-07 0 -1.81324e-07)
(6.85524e-07 0 -1.7351e-07)
(7.06769e-07 0 -1.65343e-07)
(7.27112e-07 0 -1.56711e-07)
(7.46502e-07 0 -1.47558e-07)
(7.64796e-07 0 -1.38008e-07)
(7.82049e-07 0 -1.2788e-07)
(7.98238e-07 0 -1.17191e-07)
(8.13251e-07 0 -1.05812e-07)
(8.26981e-07 0 -9.35836e-08)
(8.39262e-07 0 -8.10754e-08)
(8.50104e-07 0 -6.75787e-08)
(8.59382e-07 0 -5.31933e-08)
(8.66867e-07 0 -3.80938e-08)
(8.72515e-07 0 -2.21808e-08)
(8.76146e-07 0 -5.45765e-09)
(8.77658e-07 0 1.21397e-08)
(8.76934e-07 0 3.0351e-08)
(8.73879e-07 0 4.90122e-08)
(8.68356e-07 0 6.85006e-08)
(8.60308e-07 0 8.84714e-08)
(8.49709e-07 0 1.08872e-07)
(8.36426e-07 0 1.29209e-07)
(8.20371e-07 0 1.50319e-07)
(8.01608e-07 0 1.70731e-07)
(7.80123e-07 0 1.91602e-07)
(7.55844e-07 0 2.12619e-07)
(7.28766e-07 0 2.33223e-07)
(6.98883e-07 0 2.53519e-07)
(6.66266e-07 0 2.73405e-07)
(6.30962e-07 0 2.92551e-07)
(5.92927e-07 0 3.11057e-07)
(5.5226e-07 0 3.28649e-07)
(5.09064e-07 0 3.45101e-07)
(4.63435e-07 0 3.60206e-07)
(4.15458e-07 0 3.73766e-07)
(3.65244e-07 0 3.85463e-07)
(3.12886e-07 0 3.94855e-07)
(2.58388e-07 0 4.01085e-07)
(1.9952e-07 0 4.02272e-07)
(1.39082e-07 0 4.89531e-07)