/*--------------------------------*- C++ -*----------------------------------*\
  =========                 |
  \\      /  F ield         | OpenFOAM: The Open Source CFD Toolbox
   \\    /   O peration     | Website:  https://openfoam.org
    \\  /    A nd           | Version:  6
     \\/     M anipulation  |
\*---------------------------------------------------------------------------*/
FoamFile
{
    version     2.0;
    format      ascii;
    class       volScalarField;
    location    "3100";
    object      Su;
}
// * * * * * * * * * * * * * * * * * * * * * * * * * * * * * * * * * * * * * //

dimensions      [0 0 -1 0 0 0 0];

internalField   nonuniform List<scalar> 
4800
(
0.219481
0.217271
0.215093
0.212962
0.210876
0.208826
0.206839
0.204922
0.203035
0.201186
0.199385
0.197638
0.195947
0.194305
0.192707
0.191137
0.189595
0.188078
0.1866
0.185166
0.18378
0.182447
0.181164
0.179927
0.178735
0.177585
0.176475
0.175401
0.174359
0.173342
0.172342
0.171351
0.170362
0.169368
0.168364
0.167346
0.166313
0.165265
0.164202
0.163121
0.162022
0.160907
0.159779
0.15864
0.157495
0.156345
0.155191
0.154031
0.152864
0.151684
0.150484
0.149257
0.147991
0.146674
0.145292
0.143829
0.14227
0.1406
0.138805
0.136873
0.134786
0.132519
0.130039
0.127303
0.124272
0.120903
0.117179
0.113111
0.108722
0.104057
0.0991677
0.0940881
0.08884
0.0834634
0.0779917
0.0724463
0.0668658
0.0613044
0.0558096
0.0504172
0.045144
0.0399927
0.0349523
0.0299892
0.0251181
0.0203389
0.015657
0.0110737
0.0065876
0.00219507
-0.00210889
-0.00632992
-0.0104742
-0.0145481
-0.0185577
-0.0225086
-0.0264064
-0.0302558
-0.0340612
-0.0378268
-0.0415559
-0.0452519
-0.0489176
-0.0525557
-0.0561687
-0.0597586
-0.0633277
-0.0668777
-0.0704106
-0.0739281
-0.0774316
-0.0809229
-0.0844032
-0.0878742
-0.091337
-0.0947931
-0.0982437
-0.10169
-0.105133
-0.108575
0.219461
0.217211
0.21499
0.212812
0.210685
0.20861
0.206576
0.204626
0.202726
0.200862
0.199041
0.197274
0.195568
0.193908
0.192293
0.190715
0.189169
0.187647
0.186166
0.18473
0.183341
0.182005
0.180723
0.179491
0.178306
0.177164
0.176063
0.175001
0.173972
0.172968
0.171982
0.171005
0.170028
0.169044
0.168049
0.167038
0.166009
0.164959
0.163892
0.162806
0.161701
0.16058
0.159446
0.1583
0.157146
0.155989
0.154828
0.153664
0.152495
0.151315
0.150119
0.148897
0.147638
0.146329
0.144956
0.143504
0.141956
0.140297
0.138512
0.13659
0.134514
0.132262
0.129801
0.127092
0.124101
0.120799
0.117154
0.113162
0.108844
0.104234
0.0993898
0.0943349
0.089105
0.0837364
0.0782398
0.072644
0.0670164
0.0614215
0.0558989
0.0504757
0.0451715
0.0399922
0.0349284
0.0299495
0.0250682
0.0202829
0.0155978
0.0110137
0.00652817
0.00213733
-0.00216419
-0.00638232
-0.0105235
-0.0145941
-0.0186003
-0.022548
-0.0264427
-0.0302891
-0.0340917
-0.0378547
-0.0415814
-0.0452751
-0.0489387
-0.0525749
-0.056186
-0.0597743
-0.0633418
-0.0668904
-0.070422
-0.0739382
-0.0774405
-0.0809307
-0.08441
-0.0878799
-0.0913418
-0.094797
-0.0982467
-0.101692
-0.105135
-0.108575
0.21942
0.217087
0.21478
0.212509
0.210294
0.208153
0.206045
0.204022
0.202083
0.200196
0.198349
0.196552
0.194817
0.193129
0.191487
0.189888
0.188337
0.186803
0.185311
0.18387
0.182478
0.18114
0.179862
0.178636
0.177459
0.176332
0.175247
0.174204
0.173197
0.172216
0.171256
0.170303
0.169347
0.168382
0.1674
0.166399
0.165375
0.164325
0.163253
0.162159
0.161043
0.159909
0.158761
0.157602
0.156435
0.155267
0.154098
0.152929
0.151757
0.15058
0.14939
0.148177
0.14693
0.145637
0.144282
0.142849
0.141322
0.139685
0.137923
0.136023
0.133971
0.131745
0.129321
0.126661
0.123732
0.120509
0.116969
0.113101
0.108921
0.104441
0.0996777
0.0946724
0.0894686
0.0840819
0.0785364
0.0728995
0.0672497
0.0616244
0.0560524
0.0505712
0.0452112
0.0399821
0.0348758
0.0298665
0.0249661
0.0201697
0.0154792
0.0108937
0.00640969
0.00202241
-0.00227417
-0.00648648
-0.0106213
-0.0146853
-0.018685
-0.0226263
-0.0265147
-0.0303553
-0.0341524
-0.0379101
-0.041632
-0.0453212
-0.0489807
-0.052613
-0.0562205
-0.0598055
-0.0633699
-0.0669157
-0.0704446
-0.0739582
-0.0774583
-0.0809462
-0.0844234
-0.0878914
-0.0913514
-0.0948047
-0.0982526
-0.101696
-0.105137
-0.108576
0.219355
0.216891
0.214449
0.212046
0.209704
0.207447
0.205245
0.203133
0.201131
0.199202
0.197316
0.195476
0.193704
0.191993
0.190324
0.188699
0.187128
0.185578
0.184066
0.182614
0.181221
0.179883
0.178607
0.177388
0.176224
0.175114
0.174053
0.173036
0.172058
0.171107
0.170181
0.169259
0.168331
0.167389
0.166425
0.165434
0.164415
0.163365
0.162286
0.161181
0.160052
0.158902
0.157737
0.156558
0.155374
0.15419
0.153009
0.151834
0.15066
0.149487
0.148305
0.147105
0.145875
0.144604
0.143273
0.141867
0.140369
0.138762
0.137032
0.135165
0.133149
0.130966
0.128595
0.126001
0.123154
0.120032
0.116616
0.112895
0.108866
0.104529
0.0998932
0.0949756
0.0898081
0.0844272
0.0788841
0.0732462
0.0675696
0.0618867
0.0562385
0.0506751
0.0452379
0.0399416
0.0347807
0.0297326
0.0248076
0.0199971
0.0153
0.0107135
0.00623243
0.00185089
-0.00243806
-0.00664153
-0.0107668
-0.0148211
-0.018811
-0.0227427
-0.026622
-0.0304538
-0.0342426
-0.0379926
-0.0417073
-0.0453899
-0.0490432
-0.0526697
-0.056272
-0.059852
-0.0634118
-0.0669533
-0.0704782
-0.0739881
-0.0774847
-0.0809693
-0.0844434
-0.0879084
-0.0913655
-0.0948161
-0.0982615
-0.101703
-0.105141
-0.108577
0.219267
0.216629
0.214014
0.211444
0.208943
0.206542
0.204223
0.201996
0.199897
0.197906
0.19597
0.194087
0.192276
0.19054
0.188845
0.187192
0.185594
0.184015
0.182477
0.181006
0.179606
0.178269
0.176999
0.175792
0.174645
0.173558
0.172523
0.171539
0.170597
0.169683
0.168792
0.167905
0.167007
0.166088
0.165142
0.164163
0.163148
0.1621
0.161015
0.159896
0.158748
0.157578
0.156392
0.155192
0.153988
0.152788
0.151594
0.150411
0.149235
0.148064
0.146892
0.145705
0.144494
0.143247
0.141944
0.140569
0.139105
0.137534
0.135842
0.134018
0.13205
0.129924
0.12762
0.125108
0.12236
0.119354
0.116072
0.112494
0.108611
0.104423
0.0999236
0.0951213
0.0900396
0.0847111
0.0791866
0.0735347
0.0678181
0.0620793
0.0563645
0.0507273
0.0452155
0.03985
0.0346293
0.0295384
0.0245869
0.0197617
0.0150588
0.0104728
0.00599686
0.00162368
-0.0026547
-0.00684622
-0.0109588
-0.0150001
-0.0189771
-0.0228962
-0.0267633
-0.0305836
-0.0343617
-0.0381015
-0.0418068
-0.0454805
-0.0491256
-0.0527446
-0.0563399
-0.0599134
-0.0634671
-0.067003
-0.0705226
-0.0740276
-0.0775195
-0.0809998
-0.0844698
-0.0879308
-0.0913843
-0.0948313
-0.0982731
-0.101711
-0.105146
-0.108579
0.219165
0.216322
0.213507
0.210743
0.208054
0.205474
0.203008
0.200649
0.198423
0.196346
0.19435
0.19242
0.190562
0.188798
0.187077
0.185393
0.183769
0.182151
0.180578
0.179086
0.177676
0.176341
0.17508
0.173885
0.172758
0.171698
0.170696
0.169747
0.168844
0.16797
0.167118
0.166266
0.165399
0.164505
0.163577
0.162609
0.161598
0.160549
0.159459
0.158325
0.157158
0.155966
0.154756
0.153532
0.152305
0.151086
0.14988
0.14869
0.147512
0.146345
0.145182
0.144009
0.142817
0.141592
0.140316
0.138972
0.137542
0.13601
0.134363
0.132591
0.130682
0.128625
0.126403
0.123987
0.121351
0.11847
0.11532
0.111882
0.108143
0.104093
0.0997247
0.0950338
0.0900298
0.0847641
0.0792929
0.0736617
0.067926
0.0621434
0.0563729
0.0506776
0.0451045
0.0396778
0.0344037
0.0292737
0.0242981
0.0194606
0.0147543
0.0101715
0.00570369
0.00134201
-0.0029226
-0.00709894
-0.0111956
-0.0152208
-0.0191818
-0.0230854
-0.0269376
-0.0307438
-0.0345085
-0.0382359
-0.0419295
-0.0455924
-0.0492275
-0.0528371
-0.0564237
-0.0599892
-0.0635355
-0.0670643
-0.0705775
-0.0740764
-0.0775626
-0.0810374
-0.0845023
-0.0879586
-0.0914074
-0.0948499
-0.0982875
-0.101721
-0.105152
-0.108581
0.219051
0.215983
0.212949
0.209977
0.207088
0.204309
0.201663
0.19915
0.196775
0.194571
0.192493
0.190512
0.18861
0.186804
0.185048
0.183335
0.181682
0.180027
0.178417
0.1769
0.175476
0.174138
0.172886
0.171704
0.170606
0.169575
0.168606
0.167697
0.166836
0.166002
0.16519
0.164374
0.163534
0.162664
0.161751
0.160795
0.159789
0.158735
0.157637
0.156491
0.155305
0.154089
0.152853
0.151605
0.150352
0.149114
0.147894
0.146697
0.145518
0.144355
0.143201
0.142042
0.140867
0.139663
0.138412
0.137096
0.135699
0.134208
0.132609
0.130896
0.129054
0.127079
0.12495
0.12264
0.120122
0.117366
0.114345
0.111037
0.107425
0.103495
0.0992385
0.0946601
0.0897737
0.0846076
0.0792075
0.0736206
0.0678797
0.0620502
0.0562357
0.0505045
0.0448887
0.0394138
0.0340942
0.0289304
0.0239357
0.0190906
0.0143854
0.00980985
0.00535394
0.00100736
-0.00323999
-0.0073978
-0.0114754
-0.0154813
-0.0194234
-0.0233087
-0.0271433
-0.0309329
-0.0346819
-0.0383946
-0.0420745
-0.0457246
-0.0493478
-0.0529465
-0.0565228
-0.0600788
-0.0636162
-0.0671369
-0.0706423
-0.074134
-0.0776134
-0.081082
-0.0845408
-0.0879913
-0.0914347
-0.094872
-0.0983044
-0.101733
-0.105159
-0.108584
0.218932
0.215627
0.212364
0.209168
0.206063
0.203073
0.200225
0.197531
0.194998
0.19265
0.190464
0.188406
0.186456
0.1846
0.1828
0.181054
0.179364
0.177682
0.176041
0.174494
0.17305
0.171703
0.170455
0.169289
0.16822
0.167225
0.166292
0.165425
0.16461
0.163817
0.16304
0.162257
0.161442
0.160592
0.159691
0.158742
0.157739
0.156678
0.155569
0.15441
0.153204
0.151966
0.150707
0.149436
0.14816
0.146901
0.145667
0.144462
0.143281
0.142122
0.140974
0.139826
0.138667
0.137481
0.136251
0.13496
0.133595
0.132144
0.130595
0.128944
0.127178
0.125289
0.123255
0.121049
0.118645
0.11601
0.113113
0.109927
0.106435
0.102624
0.0984827
0.0940288
0.0892635
0.0841994
0.0788758
0.073326
0.0676086
0.0618155
0.0560173
0.0502516
0.0445767
0.039048
0.033689
0.0285006
0.0234953
0.0186497
0.0139514
0.00938835
0.00494885
0.000621451
-0.00360492
-0.00774076
-0.011796
-0.0157796
-0.0197
-0.0235643
-0.0273789
-0.0311494
-0.0348805
-0.0385764
-0.0422406
-0.0458762
-0.0494858
-0.0530718
-0.0566364
-0.0601815
-0.0637088
-0.06722
-0.0707166
-0.0742001
-0.0776718
-0.081133
-0.0845849
-0.0880289
-0.091466
-0.0948973
-0.0983239
-0.101747
-0.105167
-0.108586
0.218812
0.215267
0.211769
0.208339
0.204999
0.201777
0.198712
0.195824
0.193124
0.190621
0.188315
0.186164
0.184147
0.182232
0.180376
0.178589
0.176854
0.175148
0.173486
0.171911
0.170445
0.169085
0.167832
0.166682
0.165638
0.164682
0.163789
0.162961
0.162195
0.161441
0.160695
0.159938
0.159143
0.158308
0.157416
0.15647
0.155465
0.154395
0.153274
0.152101
0.150876
0.149616
0.148337
0.147046
0.145751
0.144475
0.143228
0.142014
0.14083
0.139672
0.138529
0.137389
0.136241
0.135069
0.133855
0.132584
0.131246
0.129834
0.128333
0.126743
0.125046
0.12324
0.121299
0.119193
0.116899
0.114381
0.111604
0.108538
0.105163
0.101475
0.0974529
0.0931073
0.0884583
0.0835218
0.0783196
0.0728801
0.067255
0.0615006
0.0556775
0.0498551
0.0441214
0.0385529
0.0331737
0.0279768
0.0229731
0.0181364
0.0134524
0.00890787
0.00448991
0.000186119
-0.00401535
-0.00812567
-0.0121553
-0.0161138
-0.0200096
-0.0238503
-0.0276425
-0.0313917
-0.0351029
-0.03878
-0.0424267
-0.0460459
-0.0496403
-0.0532123
-0.0567637
-0.0602966
-0.0638125
-0.0673131
-0.0707998
-0.074274
-0.077737
-0.0811901
-0.0846343
-0.0880709
-0.091501
-0.0949255
-0.0983456
-0.101762
-0.105177
-0.108589
0.218696
0.214919
0.211184
0.207517
0.203943
0.200491
0.1972
0.194098
0.19121
0.188533
0.186086
0.183835
0.181739
0.179754
0.177831
0.17598
0.174196
0.17246
0.170778
0.169183
0.167698
0.166326
0.165072
0.163932
0.162905
0.161985
0.161131
0.160338
0.159612
0.158892
0.158172
0.157436
0.156656
0.155829
0.154943
0.153994
0.152983
0.151904
0.150769
0.149579
0.148337
0.14706
0.145763
0.144456
0.143149
0.14186
0.140602
0.139379
0.138191
0.137031
0.135888
0.134751
0.133609
0.132445
0.131241
0.129985
0.12867
0.127288
0.125828
0.12429
0.122657
0.120927
0.119071
0.117061
0.114873
0.112467
0.109808
0.106862
0.103607
0.100038
0.0961392
0.091919
0.0873926
0.082569
0.0774702
0.0721224
0.0665602
0.0608287
0.0550049
0.0491873
0.0434627
0.0379026
0.0325367
0.0273548
0.0223674
0.0175502
0.0128889
0.00836953
0.00397865
-0.000296803
-0.00446927
-0.00855047
-0.0125513
-0.0164817
-0.0203503
-0.024165
-0.0279324
-0.0316583
-0.0353474
-0.0390039
-0.0426313
-0.0462326
-0.0498103
-0.0533667
-0.0569037
-0.0604231
-0.0639265
-0.0674154
-0.0708913
-0.0743553
-0.0778087
-0.0812528
-0.0846885
-0.088117
-0.0915394
-0.0949565
-0.0983695
-0.101779
-0.105187
-0.108593
0.218584
0.214583
0.210622
0.206731
0.202933
0.199256
0.195743
0.192429
0.189352
0.186505
0.183897
0.181508
0.179298
0.177222
0.175221
0.173285
0.171431
0.169658
0.167957
0.166348
0.164846
0.163461
0.162206
0.161072
0.160061
0.159168
0.158349
0.157586
0.156884
0.156188
0.155485
0.154762
0.153994
0.15317
0.152283
0.15133
0.150309
0.149221
0.148071
0.146864
0.145607
0.144317
0.143007
0.141689
0.140373
0.139077
0.137811
0.136581
0.135387
0.134222
0.133074
0.131934
0.130792
0.129628
0.128427
0.127179
0.125881
0.124522
0.123096
0.1216
0.120021
0.118354
0.11657
0.114647
0.112559
0.110264
0.107725
0.104899
0.101767
0.0983247
0.0945584
0.090465
0.0860566
0.0813444
0.0763482
0.0710842
0.065582
0.0598996
0.0541222
0.0483441
0.0426529
0.0371242
0.0317902
0.0266379
0.0216795
0.0168922
0.0122619
0.00777458
0.00341658
-0.000825631
-0.00496485
-0.00901324
-0.012982
-0.0168813
-0.0207201
-0.0245064
-0.0282468
-0.0319472
-0.0356125
-0.0392466
-0.0428531
-0.0464349
-0.0499945
-0.053534
-0.0570553
-0.0605601
-0.0640499
-0.0675262
-0.0709902
-0.0744432
-0.0778863
-0.0813206
-0.0847471
-0.0881669
-0.0915809
-0.0949901
-0.0983953
-0.101798
-0.105198
-0.108596
0.218482
0.21428
0.210116
0.206015
0.20201
0.198131
0.194419
0.190903
0.187617
0.184573
0.181785
0.179236
0.17688
0.174681
0.172587
0.170567
0.168631
0.166788
0.165048
0.163417
0.161904
0.160512
0.159258
0.158133
0.157138
0.156259
0.155466
0.154723
0.154032
0.153345
0.152648
0.151929
0.151166
0.15034
0.149448
0.148487
0.147455
0.146355
0.145192
0.143972
0.142704
0.141405
0.140087
0.138764
0.137446
0.136146
0.134877
0.133641
0.132438
0.131263
0.130106
0.128958
0.127808
0.126641
0.125439
0.124197
0.12291
0.121569
0.120169
0.118706
0.117173
0.115558
0.113835
0.111986
0.109986
0.107789
0.105362
0.102653
0.0996493
0.0963407
0.0927109
0.08875
0.0844705
0.0798781
0.0749914
0.0698241
0.0644073
0.0587999
0.0530898
0.0473666
0.041715
0.0362242
0.0309366
0.0258291
0.0209114
0.0161635
0.0115723
0.0071241
0.00280489
-0.00139898
-0.00550057
-0.00951231
-0.0134456
-0.0173109
-0.0211173
-0.0248727
-0.028584
-0.032257
-0.0358965
-0.0395065
-0.0430906
-0.0466514
-0.0501915
-0.0537129
-0.0572173
-0.0607065
-0.0641818
-0.0676445
-0.0710959
-0.074537
-0.077969
-0.0813929
-0.0848096
-0.0882201
-0.0916252
-0.0950258
-0.0984228
-0.101817
-0.105209
-0.1086
0.218397
0.214023
0.209685
0.205409
0.201226
0.197157
0.193236
0.189498
0.185986
0.182724
0.179738
0.177017
0.174507
0.172169
0.16996
0.16785
0.165833
0.16392
0.162128
0.160459
0.158923
0.157516
0.156254
0.155133
0.154153
0.153278
0.152498
0.151761
0.151067
0.150376
0.149674
0.148951
0.148182
0.14735
0.146448
0.145476
0.144432
0.14332
0.142146
0.140916
0.139642
0.138339
0.13702
0.135697
0.134381
0.133083
0.131813
0.130575
0.129366
0.128182
0.127014
0.125854
0.124691
0.123515
0.12231
0.121072
0.119795
0.11847
0.117092
0.115657
0.114159
0.112585
0.110911
0.109117
0.107183
0.105074
0.102752
0.100161
0.0972867
0.0941105
0.0906139
0.0867887
0.0826472
0.0781895
0.0734294
0.0683857
0.063099
0.0576182
0.0520029
0.0463326
0.0407099
0.035243
0.0299838
0.0249333
0.0200647
0.0153651
0.010821
0.00641874
0.00214438
-0.00201587
-0.00607524
-0.0100463
-0.0139407
-0.0177689
-0.02154
-0.0252621
-0.0289421
-0.0325857
-0.0361977
-0.039782
-0.0433421
-0.0468807
-0.0504
-0.0539021
-0.0573887
-0.0608613
-0.0643211
-0.0677694
-0.0712074
-0.074636
-0.0780563
-0.0814692
-0.0848755
-0.0882761
-0.0916718
-0.0950634
-0.0984518
-0.101837
-0.105221
-0.108604
0.218331
0.213821
0.209349
0.204941
0.200607
0.196361
0.192239
0.188286
0.184546
0.181056
0.177847
0.174927
0.172243
0.169742
0.167388
0.165167
0.163062
0.161074
0.159217
0.157499
0.15593
0.154501
0.15322
0.152096
0.151119
0.150236
0.149453
0.148706
0.147996
0.147289
0.146575
0.145838
0.145054
0.144207
0.143291
0.142304
0.141247
0.140124
0.138943
0.137711
0.136438
0.135138
0.133823
0.132504
0.131194
0.1299
0.128631
0.127392
0.126179
0.124989
0.123812
0.122642
0.121471
0.120287
0.119079
0.117843
0.116572
0.11526
0.113902
0.112489
0.111016
0.109477
0.107847
0.106104
0.104224
0.102183
0.0999459
0.0974543
0.0946897
0.0916334
0.0882718
0.0845955
0.0806023
0.0762901
0.0716749
0.0667709
0.0615977
0.0561968
0.0506499
0.0450579
0.0395215
0.0341324
0.0289376
0.0239487
0.0191396
0.014497
0.0100078
0.00565853
0.00143529
-0.0026758
-0.00668805
-0.0106142
-0.0144659
-0.0182537
-0.0219867
-0.0256731
-0.0293195
-0.0329317
-0.0365144
-0.0400715
-0.0436062
-0.0471211
-0.0506186
-0.0541004
-0.0575681
-0.0610231
-0.0644667
-0.0678999
-0.0713239
-0.0747394
-0.0781474
-0.0815487
-0.0849442
-0.0883345
-0.0917204
-0.0951026
-0.0984819
-0.101859
-0.105234
-0.108608
0.218297
0.213715
0.209159
0.204644
0.200172
0.195765
0.191454
0.18728
0.1833
0.179568
0.176121
0.172973
0.170086
0.167405
0.164896
0.162546
0.160341
0.158273
0.156349
0.154572
0.152955
0.151495
0.150186
0.149042
0.148046
0.147142
0.146334
0.145563
0.144824
0.144094
0.14336
0.142599
0.14179
0.140921
0.139988
0.138987
0.137921
0.136791
0.135602
0.134368
0.133099
0.131806
0.130502
0.129195
0.127898
0.126616
0.125353
0.124116
0.122901
0.121705
0.12052
0.11934
0.118159
0.116968
0.115761
0.114532
0.113273
0.111977
0.110639
0.109248
0.107799
0.106285
0.104687
0.102985
0.101151
0.0991609
0.0969791
0.0945666
0.0919117
0.0889845
0.0857584
0.08222
0.0783627
0.0741819
0.0696873
0.0648932
0.0598274
0.0545407
0.049104
0.0436174
0.0381801
0.0328904
0.0277874
0.0228749
0.0181354
0.0135584
0.00913195
0.00484288
0.000677327
-0.00337865
-0.00733853
-0.0112151
-0.0150201
-0.0187639
-0.0224559
-0.0261038
-0.0297143
-0.0332931
-0.0368447
-0.040373
-0.0438809
-0.0473711
-0.0508455
-0.054306
-0.057754
-0.0611908
-0.0646175
-0.068035
-0.0714443
-0.0748462
-0.0782415
-0.0816308
-0.085015
-0.0883947
-0.0917705
-0.0951431
-0.098513
-0.101881
-0.105247
-0.108613
0.218279
0.213664
0.209069
0.204491
0.199921
0.195361
0.19085
0.186445
0.18221
0.178216
0.174517
0.171134
0.168043
0.165182
0.162514
0.160019
0.157689
0.155526
0.15353
0.151689
0.150013
0.148516
0.147169
0.145986
0.144946
0.144008
0.143156
0.142344
0.141562
0.140799
0.140034
0.139242
0.138402
0.137506
0.136549
0.135533
0.134461
0.133331
0.132144
0.130912
0.129648
0.128364
0.12707
0.125777
0.124494
0.123225
0.121976
0.120747
0.119534
0.118337
0.11715
0.115967
0.114781
0.113586
0.112378
0.111152
0.109902
0.108621
0.107303
0.105937
0.104515
0.103026
0.101457
0.0997846
0.0979861
0.0960376
0.0939094
0.0915644
0.0889874
0.0861535
0.0830413
0.0796381
0.0759286
0.0719003
0.067547
0.0628857
0.0579544
0.0528067
0.0474951
0.0421071
0.0367535
0.0315521
0.0265436
0.0217143
0.0170517
0.012548
0.00819201
0.00397063
-0.000130187
-0.00412461
-0.00802634
-0.0118483
-0.0156021
-0.0192982
-0.0229458
-0.0265524
-0.0301247
-0.033668
-0.0371868
-0.0406847
-0.0441646
-0.0476288
-0.0510792
-0.0545176
-0.0579451
-0.061363
-0.0647721
-0.0681734
-0.0715676
-0.0749555
-0.0783377
-0.0817148
-0.0850875
-0.0884563
-0.0918217
-0.0951844
-0.0985447
-0.101903
-0.105261
-0.108617
0.218288
0.21368
0.209063
0.20443
0.199775
0.195098
0.190416
0.185782
0.181282
0.177015
0.173054
0.169436
0.166131
0.163079
0.160244
0.157602
0.155144
0.152873
0.150788
0.148869
0.147122
0.145565
0.144172
0.142938
0.141836
0.140841
0.139931
0.139067
0.138236
0.137428
0.136618
0.135788
0.134912
0.133986
0.133004
0.13197
0.130886
0.129759
0.128583
0.127364
0.126114
0.124842
0.123561
0.122285
0.121017
0.119764
0.11853
0.117313
0.116107
0.114913
0.113725
0.112541
0.111354
0.110161
0.108958
0.10774
0.1065
0.105232
0.103933
0.10259
0.101193
0.0997291
0.0981901
0.0965487
0.0947837
0.0928674
0.0907739
0.0884793
0.0859691
0.083217
0.0802072
0.0769264
0.0733481
0.0694655
0.0652728
0.0607721
0.0559881
0.050976
0.0457893
0.0405088
0.0352454
0.0301272
0.0252115
0.0204673
0.0158869
0.0114635
0.00718581
0.00304022
-0.000988102
-0.00491382
-0.00875103
-0.0125127
-0.0162106
-0.0198549
-0.0234546
-0.027017
-0.0305486
-0.0340544
-0.0375386
-0.0410046
-0.0444551
-0.0478923
-0.0513179
-0.0547334
-0.0581398
-0.0615382
-0.0649293
-0.068314
-0.0716928
-0.0750664
-0.0784352
-0.0817999
-0.0851608
-0.0885186
-0.0918735
-0.0952261
-0.0985768
-0.101926
-0.105274
-0.108622
0.218312
0.213743
0.209135
0.204465
0.199735
0.194935
0.190069
0.185204
0.180453
0.175922
0.171698
0.167832
0.164305
0.161062
0.158067
0.155285
0.152697
0.150313
0.148137
0.146142
0.144337
0.142699
0.141229
0.139917
0.138744
0.137672
0.136681
0.135748
0.134859
0.133993
0.133131
0.132258
0.131344
0.130388
0.129385
0.128334
0.12724
0.126108
0.124939
0.123736
0.122504
0.121253
0.119992
0.118736
0.117488
0.116253
0.115035
0.113831
0.112635
0.111447
0.110263
0.109081
0.107896
0.106706
0.105508
0.104298
0.103069
0.101813
0.10053
0.0992099
0.097838
0.0964022
0.0948917
0.0932809
0.0915462
0.0896602
0.0876024
0.0853519
0.0829011
0.0802222
0.0772976
0.0741212
0.0706727
0.0669378
0.0629042
0.0585696
0.0539422
0.0490646
0.0439987
0.0388278
0.0336604
0.0286229
0.0237916
0.0191314
0.0146371
0.0103011
0.00611062
0.00204998
-0.00189706
-0.00574611
-0.00951174
-0.0132071
-0.0168438
-0.020432
-0.02398
-0.0274953
-0.0309835
-0.0344497
-0.0378976
-0.0413304
-0.0447504
-0.0481597
-0.0515596
-0.0549515
-0.0583363
-0.0617148
-0.0650877
-0.0684555
-0.0718187
-0.0751778
-0.0785332
-0.0818853
-0.0852344
-0.088581
-0.0919254
-0.095268
-0.098609
-0.101949
-0.105288
-0.108626
0.218345
0.213827
0.209232
0.20453
0.199709
0.194778
0.189762
0.184709
0.179722
0.174939
0.170466
0.166362
0.162624
0.159199
0.156036
0.153106
0.150383
0.147876
0.145582
0.143486
0.141596
0.139886
0.138337
0.136935
0.135674
0.134516
0.133426
0.132412
0.131454
0.130517
0.129599
0.128675
0.12772
0.126734
0.125709
0.124645
0.123543
0.12241
0.121247
0.120057
0.118844
0.117614
0.116378
0.115147
0.113924
0.112711
0.111513
0.110325
0.10914
0.107961
0.106784
0.105609
0.104429
0.103245
0.102053
0.100851
0.0996309
0.0983873
0.0971169
0.0958108
0.0944568
0.093044
0.091558
0.0899789
0.0882804
0.0864295
0.0844088
0.0821983
0.0797928
0.0771816
0.0743491
0.0712763
0.0679509
0.0643568
0.0604743
0.0562959
0.0518269
0.0470979
0.0421633
0.0370985
0.0320113
0.0270392
0.0222787
0.0176993
0.0132955
0.00905607
0.00496353
0.000998725
-0.00285694
-0.00662038
-0.0103068
-0.0139293
-0.0174994
-0.0210267
-0.0245195
-0.0279844
-0.0314268
-0.0348513
-0.0382613
-0.0416595
-0.0450481
-0.0484286
-0.0518023
-0.0551702
-0.0585331
-0.0618914
-0.0652458
-0.0685966
-0.0719441
-0.0752887
-0.0786306
-0.0819701
-0.0853075
-0.088643
-0.0919769
-0.0953095
-0.0986409
-0.101971
-0.105301
-0.108631
0.218381
0.213922
0.209358
0.204648
0.199775
0.194737
0.189569
0.184346
0.179162
0.174135
0.169395
0.165036
0.161072
0.157446
0.154107
0.151035
0.148194
0.145574
0.143164
0.140963
0.138964
0.137154
0.135504
0.134009
0.132647
0.131388
0.130191
0.129087
0.128043
0.12703
0.126049
0.12507
0.124069
0.123051
0.122005
0.12093
0.119824
0.118692
0.117536
0.116359
0.115165
0.113961
0.112752
0.111548
0.110354
0.109167
0.10799
0.106821
0.10565
0.104482
0.103317
0.10215
0.100978
0.0997999
0.0986159
0.0974205
0.0962089
0.0949749
0.0937142
0.0924177
0.0910736
0.0896734
0.0882
0.0866399
0.0849724
0.0831643
0.0811919
0.0790364
0.0766811
0.0741286
0.071382
0.0684149
0.0652108
0.0617529
0.0580209
0.0539997
0.049685
0.0450969
0.0402841
0.0353151
0.0302909
0.0253656
0.0206585
0.0161574
0.0118524
0.00772267
0.00374232
-0.000113395
-0.00386609
-0.00753412
-0.011133
-0.0146759
-0.0181737
-0.0216357
-0.0250694
-0.0284809
-0.0318752
-0.0352562
-0.0386268
-0.0419893
-0.0453455
-0.0486967
-0.0520438
-0.0553874
-0.0587281
-0.0620663
-0.0654021
-0.0687359
-0.0720678
-0.075398
-0.0787265
-0.0820536
-0.0853794
-0.088704
-0.0920276
-0.0953502
-0.0986722
-0.101994
-0.105314
-0.108635
0.218409
0.213999
0.209463
0.204747
0.19982
0.19469
0.189395
0.184006
0.178618
0.173362
0.168392
0.163803
0.159627
0.155837
0.152357
0.149144
0.146164
0.143411
0.140879
0.138564
0.136451
0.134528
0.132758
0.131155
0.129686
0.128316
0.12701
0.125808
0.124667
0.123569
0.122518
0.121476
0.120426
0.119375
0.118307
0.117221
0.116112
0.114984
0.11384
0.11268
0.111508
0.110333
0.109156
0.107982
0.106818
0.105657
0.1045
0.103352
0.102201
0.101044
0.0998929
0.0987328
0.0975706
0.0963974
0.0952211
0.0940316
0.0928264
0.0915995
0.0903441
0.0890521
0.087713
0.0863199
0.0848537
0.0833044
0.0816527
0.0798783
0.0779505
0.0758641
0.0735814
0.0710982
0.0684323
0.0655691
0.0624861
0.0591611
0.0555717
0.0516994
0.047532
0.0430767
0.0383687
0.0334694
0.0284782
0.0235752
0.0189038
0.0144837
0.0102946
0.00629562
0.00244692
-0.00128358
-0.00492037
-0.00848263
-0.0119857
-0.0154422
-0.0188622
-0.0222544
-0.0256255
-0.0289809
-0.0323248
-0.0356606
-0.0389906
-0.0423166
-0.0456399
-0.0489614
-0.0522816
-0.0556009
-0.0589195
-0.0622375
-0.0655551
-0.0688721
-0.0721886
-0.0755046
-0.07882
-0.0821349
-0.0854494
-0.0887633
-0.0920768
-0.0953899
-0.0987026
-0.102015
-0.105327
-0.108639
0.218421
0.214031
0.209506
0.204784
0.199827
0.194637
0.189253
0.183745
0.178216
0.172788
0.167606
0.1628
0.158423
0.154448
0.150791
0.147413
0.144291
0.141409
0.138755
0.136321
0.134089
0.132045
0.130145
0.128414
0.126822
0.125333
0.123918
0.12261
0.121367
0.120175
0.119041
0.117931
0.11683
0.115739
0.114648
0.113552
0.11244
0.111318
0.110191
0.109054
0.107912
0.106769
0.105627
0.104487
0.103354
0.102219
0.101085
0.099957
0.0988242
0.0976837
0.096543
0.0953925
0.0942353
0.0930663
0.0918944
0.0907081
0.0895067
0.0882834
0.087028
0.0857349
0.0843965
0.0830069
0.0815451
0.0800051
0.0783622
0.0766123
0.0747137
0.0726852
0.070488
0.0681011
0.0655238
0.0627594
0.0597915
0.0565966
0.0531467
0.0494197
0.0453945
0.0410647
0.0364525
0.0316041
0.0266004
0.0216521
0.0169676
0.0126424
0.00860601
0.00477271
0.00108189
-0.0025047
-0.00601211
-0.0094585
-0.0128579
-0.0162216
-0.0195589
-0.0228773
-0.0261826
-0.0294794
-0.0327713
-0.0360606
-0.0393491
-0.0426381
-0.0459282
-0.0492199
-0.0525133
-0.0558085
-0.0591052
-0.0624035
-0.065703
-0.0690036
-0.0723051
-0.0756073
-0.0789101
-0.0822132
-0.0855167
-0.0888203
-0.0921241
-0.0954279
-0.0987318
-0.102036
-0.10534
-0.108644
0.218411
0.214002
0.209459
0.204715
0.199733
0.194502
0.189064
0.183497
0.177877
0.17231
0.166945
0.161929
0.157321
0.153135
0.149326
0.145824
0.142587
0.139584
0.136807
0.134249
0.131896
0.129729
0.1277
0.125833
0.124106
0.122484
0.120955
0.119528
0.118177
0.116887
0.11566
0.114472
0.113315
0.112181
0.111064
0.109959
0.108842
0.10773
0.106627
0.10552
0.104414
0.103311
0.102207
0.101105
0.100004
0.0988991
0.0977918
0.0966816
0.0955641
0.094443
0.0933078
0.092166
0.0910087
0.0898403
0.0886655
0.0874771
0.0862741
0.0850496
0.0837895
0.0824919
0.0811518
0.0797623
0.0783058
0.0767766
0.0751463
0.0734222
0.0715528
0.0695712
0.067449
0.0651711
0.0627126
0.0600631
0.0572111
0.0541445
0.0508265
0.0472324
0.043334
0.0391108
0.0345639
0.0297242
0.0246485
0.0195458
0.0147371
0.0105735
0.00677259
0.00316075
-0.000339687
-0.00376336
-0.00712933
-0.0104513
-0.0137404
-0.0170061
-0.0202564
-0.0234977
-0.0267347
-0.0299711
-0.0332095
-0.0364515
-0.0396982
-0.04295
-0.0462071
-0.0494693
-0.0527363
-0.0560077
-0.0592832
-0.0625622
-0.0658444
-0.0691291
-0.0724162
-0.0757052
-0.0789958
-0.0822876
-0.0855806
-0.0888745
-0.092169
-0.0954641
-0.0987595
-0.102055
-0.105351
-0.108647
0.218382
0.213914
0.209306
0.204504
0.199489
0.194251
0.188813
0.183241
0.177603
0.171974
0.166509
0.161354
0.156572
0.152187
0.148184
0.144505
0.141119
0.137985
0.135084
0.132402
0.129928
0.12764
0.125488
0.12347
0.121599
0.119833
0.118175
0.116617
0.115141
0.113743
0.112411
0.111136
0.109917
0.108737
0.107589
0.10647
0.105356
0.104259
0.103184
0.102115
0.10105
0.0999914
0.0989302
0.0978686
0.0968026
0.0957293
0.0946509
0.0935625
0.0924638
0.0913577
0.0902298
0.0890906
0.08793
0.0867555
0.08557
0.0843708
0.0831574
0.0819251
0.0806567
0.0793532
0.0780109
0.0766198
0.075172
0.0736593
0.072055
0.0703721
0.0685558
0.0666259
0.0645809
0.0624001
0.0600638
0.0575515
0.0548277
0.0518897
0.0486961
0.0452204
0.0414295
0.0372874
0.0327687
0.0278788
0.022629
0.0171714
0.0119139
0.00819698
0.00480431
0.00148845
-0.00179144
-0.00503883
-0.00825581
-0.0114478
-0.014622
-0.017786
-0.0209461
-0.0241077
-0.0272746
-0.0304495
-0.0336338
-0.0368284
-0.0400334
-0.0432484
-0.046473
-0.0497064
-0.0529478
-0.0561964
-0.0594514
-0.062712
-0.0659775
-0.0692472
-0.0725205
-0.075797
-0.0790761
-0.0823574
-0.0856405
-0.0889251
-0.092211
-0.0954978
-0.0987854
-0.102074
-0.105362
-0.108651
0.218329
0.213749
0.209028
0.204138
0.199079
0.193854
0.188479
0.182987
0.177419
0.17184
0.166369
0.161097
0.156113
0.151497
0.14728
0.143433
0.13991
0.136656
0.133644
0.130848
0.128257
0.125848
0.123579
0.121401
0.119375
0.117446
0.115631
0.113916
0.112295
0.110771
0.109326
0.107961
0.106676
0.105448
0.104264
0.10313
0.102023
0.100949
0.0999044
0.0988759
0.0978565
0.096844
0.0958289
0.0948095
0.0937819
0.0927447
0.0916974
0.0906365
0.0895625
0.0884711
0.0873534
0.0862125
0.0850438
0.0838537
0.0826479
0.081428
0.080195
0.0789466
0.0776668
0.0763576
0.0750147
0.0736265
0.0721963
0.0707157
0.0691605
0.0675371
0.065819
0.0639746
0.062032
0.0599634
0.0577468
0.0553695
0.0527739
0.049948
0.0468524
0.0434645
0.0397434
0.0356497
0.0311223
0.0261442
0.0206453
0.0145461
0.00382657
0.00554159
0.00280486
-0.000174878
-0.00323221
-0.00630505
-0.00937307
-0.0124336
-0.0154906
-0.0185503
-0.0216181
-0.0246986
-0.0277946
-0.0309077
-0.0340382
-0.0371859
-0.0403499
-0.0435292
-0.0467224
-0.0499281
-0.053145
-0.0563719
-0.0596075
-0.0628508
-0.0661007
-0.0693563
-0.0726169
-0.0758817
-0.0791501
-0.0824216
-0.0856956
-0.0889717
-0.0922496
-0.0955289
-0.0988092
-0.10209
-0.105372
-0.108654
0.21823
0.213463
0.20859
0.203605
0.198522
0.193348
0.188093
0.182781
0.177426
0.172022
0.166582
0.1612
0.156053
0.151267
0.146868
0.142839
0.139143
0.135749
0.132618
0.129709
0.126998
0.124465
0.122075
0.119734
0.117503
0.115378
0.113363
0.11145
0.109649
0.107977
0.106422
0.104984
0.103645
0.102376
0.10116
0.100016
0.0989166