/*--------------------------------*- C++ -*----------------------------------*\
  =========                 |
  \\      /  F ield         | OpenFOAM: The Open Source CFD Toolbox
   \\    /   O peration     | Website:  https://openfoam.org
    \\  /    A nd           | Version:  6
     \\/     M anipulation  |
\*---------------------------------------------------------------------------*/
FoamFile
{
    version     2.0;
    format      ascii;
    class       volScalarField;
    location    "3100";
    object      T;
}
// * * * * * * * * * * * * * * * * * * * * * * * * * * * * * * * * * * * * * //

dimensions      [0 0 0 1 0 0 0];

internalField   nonuniform List<scalar> 
4800
(
552.51
552.43
552.351
552.273
552.198
552.123
552.051
551.982
551.913
551.846
551.781
551.718
551.656
551.597
551.539
551.482
551.426
551.371
551.317
551.265
551.215
551.167
551.12
551.075
551.032
550.99
550.95
550.911
550.873
550.836
550.8
550.764
550.728
550.692
550.656
550.619
550.582
550.544
550.505
550.466
550.426
550.386
550.345
550.303
550.262
550.22
550.178
550.136
550.094
550.051
550.008
549.963
549.917
549.869
549.819
549.766
549.71
549.649
549.584
549.514
549.438
549.356
549.266
549.167
549.057
548.935
548.8
548.652
548.493
548.324
548.146
547.962
547.772
547.577
547.378
547.177
546.975
546.773
546.574
546.378
546.187
546
545.818
545.638
545.461
545.288
545.118
544.952
544.789
544.63
544.474
544.32
544.17
544.022
543.877
543.734
543.592
543.453
543.315
543.178
543.043
542.909
542.776
542.644
542.513
542.383
542.253
542.125
541.996
541.869
541.742
541.615
541.489
541.363
541.238
541.112
540.987
540.862
540.737
540.612
552.509
552.427
552.347
552.268
552.191
552.115
552.042
551.971
551.902
551.834
551.768
551.704
551.643
551.582
551.524
551.467
551.41
551.355
551.302
551.25
551.199
551.151
551.104
551.059
551.016
550.975
550.935
550.897
550.859
550.823
550.787
550.752
550.716
550.681
550.645
550.608
550.571
550.532
550.494
550.454
550.414
550.374
550.333
550.291
550.249
550.207
550.165
550.123
550.08
550.038
549.994
549.95
549.904
549.857
549.807
549.754
549.698
549.638
549.573
549.504
549.428
549.347
549.257
549.159
549.051
548.931
548.799
548.654
548.497
548.33
548.155
547.971
547.782
547.587
547.387
547.185
546.98
546.778
546.577
546.381
546.188
546
545.817
545.637
545.459
545.286
545.116
544.95
544.787
544.628
544.472
544.319
544.168
544.021
543.875
543.732
543.591
543.452
543.314
543.177
543.042
542.908
542.775
542.643
542.512
542.382
542.253
542.124
541.996
541.869
541.742
541.615
541.489
541.363
541.237
541.112
540.987
540.862
540.737
540.612
552.508
552.423
552.339
552.257
552.177
552.099
552.022
551.949
551.879
551.81
551.743
551.678
551.615
551.554
551.495
551.437
551.38
551.325
551.271
551.218
551.168
551.119
551.073
551.028
550.986
550.945
550.906
550.868
550.831
550.796
550.761
550.726
550.692
550.657
550.621
550.585
550.548
550.509
550.471
550.431
550.39
550.349
550.308
550.266
550.223
550.181
550.139
550.096
550.054
550.011
549.968
549.924
549.879
549.832
549.783
549.731
549.675
549.616
549.552
549.483
549.409
549.328
549.24
549.144
549.037
548.921
548.792
548.652
548.5
548.338
548.165
547.983
547.795
547.599
547.398
547.194
546.989
546.785
546.583
546.384
546.19
546
545.815
545.634
545.456
545.282
545.112
544.945
544.783
544.623
544.468
544.315
544.165
544.017
543.872
543.729
543.588
543.449
543.311
543.175
543.04
542.906
542.774
542.642
542.511
542.381
542.252
542.123
541.995
541.868
541.741
541.614
541.488
541.363
541.237
541.112
540.987
540.862
540.737
540.612
552.505
552.416
552.327
552.24
552.155
552.073
551.993
551.917
551.844
551.774
551.706
551.639
551.575
551.513
551.452
551.393
551.336
551.28
551.225
551.173
551.122
551.074
551.027
550.983
550.941
550.901
550.862
550.825
550.79
550.755
550.722
550.688
550.655
550.621
550.586
550.55
550.513
550.475
550.436
550.395
550.355
550.313
550.271
550.228
550.185
550.142
550.099
550.056
550.014
549.971
549.928
549.885
549.84
549.794
549.746
549.695
549.641
549.582
549.52
549.452
549.379
549.3
549.214
549.12
549.016
548.903
548.779
548.644
548.498
548.341
548.173
547.994
547.807
547.612
547.411
547.206
547.001
546.794
546.59
546.388
546.191
545.999
545.811
545.629
545.45
545.275
545.105
544.939
544.776
544.617
544.462
544.309
544.16
544.013
543.868
543.725
543.585
543.446
543.308
543.172
543.037
542.904
542.771
542.64
542.509
542.379
542.25
542.122
541.994
541.867
541.74
541.614
541.488
541.362
541.237
541.111
540.986
540.862
540.737
540.612
552.502
552.406
552.311
552.218
552.128
552.04
551.956
551.876
551.799
551.727
551.657
551.589
551.523
551.46
551.399
551.339
551.281
551.224
551.168
551.114
551.064
551.015
550.969
550.925
550.884
550.844
550.807
550.771
550.737
550.704
550.671
550.639
550.607
550.573
550.539
550.504
550.467
550.429
550.389
550.349
550.307
550.265
550.222
550.178
550.135
550.091
550.048
550.005
549.962
549.92
549.877
549.834
549.79
549.745
549.698
549.648
549.595
549.538
549.477
549.41
549.339
549.262
549.178
549.087
548.988
548.879
548.76
548.63
548.489
548.337
548.174
548
547.815
547.622
547.422
547.217
547.01
546.801
546.594
546.39
546.19
545.995
545.806
545.622
545.442
545.267
545.096
544.93
544.768
544.609
544.454
544.302
544.153
544.006
543.862
543.72
543.579
543.441
543.304
543.168
543.034
542.901
542.768
542.637
542.507
542.377
542.248
542.12
541.992
541.865
541.739
541.612
541.487
541.361
541.236
541.111
540.986
540.861
540.737
540.612
552.498
552.395
552.293
552.193
552.095
552.002
551.912
551.827
551.746
551.671
551.598
551.528
551.461
551.397
551.335
551.274
551.215
551.156
551.099
551.045
550.994
550.945
550.9
550.856
550.815
550.777
550.74
550.706
550.673
550.642
550.611
550.58
550.548
550.516
550.482
550.447
550.411
550.373
550.333
550.292
550.25
550.206
550.162
550.118
550.074
550.029
549.986
549.942
549.9
549.857
549.815
549.773
549.729
549.685
549.639
549.59
549.538
549.483
549.423
549.359
549.289
549.215
549.134
549.047
548.951
548.847
548.732
548.608
548.472
548.325
548.167
547.997
547.815
547.624
547.426
547.221
547.013
546.804
546.595
546.388
546.186
545.989
545.798
545.612
545.432
545.256
545.085
544.919
544.757
544.599
544.444
544.293
544.144
543.998
543.854
543.713
543.573
543.435
543.299
543.163
543.029
542.897
542.765
542.634
542.504
542.374
542.246
542.118
541.99
541.864
541.737
541.611
541.485
541.36
541.235
541.11
540.985
540.861
540.737
540.612
552.494
552.383
552.273
552.165
552.06
551.959
551.863
551.772
551.686
551.606
551.531
551.459
551.39
551.325
551.261
551.199
551.139
551.079
551.021
550.966
550.914
550.865
550.82
550.777
550.737
550.7
550.665
550.632
550.6
550.57
550.541
550.511
550.481
550.449
550.416
550.381
550.345
550.307
550.267
550.225
550.182
550.138
550.093
550.048
550.003
549.958
549.914
549.87
549.827
549.785
549.743
549.701
549.659
549.615
549.57
549.522
549.471
549.417
549.359
549.297
549.23
549.159
549.082
548.998
548.906
548.806
548.697
548.577
548.446
548.303
548.149
547.983
547.806
547.618
547.423
547.22
547.012
546.8
546.59
546.382
546.178
545.98
545.787
545.6
545.418
545.243
545.072
544.906
544.744
544.587
544.433
544.282
544.134
543.989
543.846
543.705
543.566
543.428
543.292
543.158
543.024
542.892
542.76
542.63
542.5
542.371
542.243
542.115
541.988
541.861
541.735
541.609
541.484
541.359
541.234
541.109
540.985
540.861
540.736
540.612
552.49
552.37
552.252
552.136
552.023
551.915
551.811
551.714
551.622
551.537
551.457
551.383
551.312
551.245
551.179
551.116
551.055
550.994
550.934
550.878
550.826
550.777
550.732
550.689
550.651
550.615
550.581
550.549
550.52
550.491
550.463
550.434
550.405
550.374
550.341
550.307
550.271
550.232
550.192
550.15
550.106
550.061
550.016
549.97
549.923
549.878
549.833
549.789
549.746
549.704
549.663
549.621
549.579
549.536
549.491
549.445
549.395
549.342
549.286
549.226
549.162
549.094
549.02
548.94
548.853
548.757
548.652
548.537
548.41
548.272
548.122
547.96
547.787
547.604
547.411
547.209
547.002
546.792
546.582
546.373
546.167
545.966
545.772
545.584
545.402
545.227
545.056
544.891
544.73
544.573
544.419
544.269
544.122
543.978
543.836
543.695
543.557
543.42
543.285
543.151
543.018
542.886
542.755
542.625
542.496
542.367
542.24
542.112
541.985
541.859
541.733
541.608
541.482
541.358
541.233
541.108
540.984
540.86
540.736
540.612
552.485
552.357
552.23
552.106
551.985
551.868
551.756
551.652
551.554
551.463
551.379
551.301
551.228
551.159
551.092
551.027
550.964
550.902
550.842
550.785
550.731
550.682
550.637
550.595
550.557
550.522
550.49
550.46
550.432
550.405
550.378
550.35
550.321
550.291
550.259
550.225
550.188
550.149
550.109
550.066
550.022
549.976
549.93
549.883
549.836
549.79
549.744
549.7
549.657
549.615
549.574
549.533
549.491
549.448
549.404
549.358
549.31
549.259
549.204
549.147
549.085
549.02
548.949
548.873
548.79
548.698
548.597
548.486
548.364
548.23
548.084
547.927
547.758
547.579
547.39
547.193
546.989
546.78
546.569
546.358
546.15
545.948
545.753
545.565
545.383
545.208
545.038
544.873
544.713
544.557
544.404
544.255
544.109
543.966
543.824
543.685
543.548
543.412
543.277
543.144
543.011
542.88
542.75
542.62
542.491
542.363
542.236
542.109
541.982
541.856
541.731
541.606
541.481
541.356
541.232
541.107
540.983
540.859
540.736
540.612
552.481
552.344
552.209
552.076
551.946
551.821
551.702
551.589
551.484
551.387
551.299
551.217
551.141
551.069
550.999
550.932
550.867
550.804
550.743
550.686
550.632
550.582
550.537
550.495
550.458
550.425
550.394
550.365
550.338
550.312
550.286
550.26
550.231
550.201
550.169
550.135
550.098
550.059
550.018
549.975
549.93
549.883
549.836
549.789
549.742
549.695
549.649
549.605
549.562
549.52
549.478
549.437
549.396
549.353
549.31
549.264
549.216
549.166
549.113
549.058
548.998
548.936
548.868
548.795
548.716
548.629
548.532
548.426
548.307
548.178
548.037
547.884
547.719
547.545
547.36
547.166
546.964
546.756
546.545
546.334
546.126
545.925
545.73
545.542
545.362
545.187
545.018
544.854
544.694
544.539
544.388
544.24
544.095
543.952
543.812
543.674
543.537
543.402
543.268
543.135
543.004
542.873
542.744
542.615
542.486
542.359
542.232
542.105
541.979
541.853
541.728
541.603
541.479
541.354
541.23
541.106
540.983
540.859
540.735
540.612
552.477
552.332
552.188
552.047
551.91
551.776
551.649
551.529
551.417
551.314
551.219
551.133
551.052
550.977
550.905
550.834
550.767
550.703
550.641
550.583
550.528
550.478
550.433
550.391
550.355
550.322
550.293
550.265
550.24
550.214
550.189
550.163
550.135
550.105
550.073
550.038
550.001
549.962
549.92
549.876
549.831
549.784
549.736
549.689
549.641
549.594
549.548
549.503
549.46
549.418
549.376
549.335
549.293
549.251
549.208
549.162
549.115
549.066
549.014
548.96
548.903
548.842
548.778
548.708
548.632
548.549
548.457
548.354
548.241
548.116
547.979
547.831
547.671
547.5
547.319
547.128
546.929
546.722
546.513
546.303
546.097
545.897
545.703
545.516
545.337
545.163
544.995
544.832
544.674
544.52
544.37
544.223
544.079
543.938
543.799
543.661
543.526
543.391
543.258
543.127
542.996
542.866
542.737
542.609
542.481
542.354
542.227
542.101
541.975
541.85
541.725
541.601
541.477
541.353
541.229
541.105
540.982
540.858
540.735
540.612
552.474
552.321
552.17
552.021
551.876
551.735
551.601
551.473
551.354
551.244
551.143
551.05
550.965
550.885
550.809
550.736
550.666
550.599
550.536
550.476
550.422
550.371
550.326
550.285
550.249
550.217
550.188
550.161
550.136
550.111
550.086
550.06
550.032
550.002
549.97
549.935
549.898
549.858
549.816
549.771
549.725
549.678
549.631
549.583
549.535
549.488
549.442
549.397
549.353
549.31
549.268
549.227
549.185
549.143
549.099
549.054
549.008
548.959
548.908
548.855
548.8
548.741
548.678
548.611
548.539
548.459
548.371
548.273
548.164
548.044
547.912
547.769
547.613
547.447
547.27
547.082
546.886
546.683
546.476
546.268
546.063
545.864
545.672
545.487
545.309
545.136
544.97
544.809
544.652
544.499
544.351
544.205
544.062
543.922
543.784
543.648
543.513
543.38
543.248
543.117
542.987
542.858
542.73
542.602
542.475
542.348
542.222
542.097
541.972
541.847
541.722
541.598
541.474
541.351
541.227
541.104
540.981
540.857
540.734
540.611
552.47
552.312
552.155
551.999
551.848
551.7
551.558
551.422
551.295
551.177
551.068
550.97
550.879
550.794
550.714
550.637
550.564
550.495
550.43
550.369
550.314
550.262
550.217
550.176
550.14
550.109
550.08
550.054
550.029
550.004
549.978
549.952
549.924
549.894
549.861
549.826
549.788
549.748
549.705
549.661
549.614
549.567
549.519
549.471
549.424
549.376
549.33
549.285
549.242
549.199
549.156
549.114
549.072
549.029
548.986
548.941
548.895
548.847
548.797
548.745
548.69
548.633
548.572
548.507
548.437
548.361
548.277
548.183
548.078
547.963
547.836
547.698
547.547
547.386
547.213
547.03
546.838
546.64
546.436
546.23
546.027
545.828
545.638
545.455
545.278
545.107
544.943
544.783
544.628
544.477
544.33
544.186
544.044
543.906
543.769
543.634
543.5
543.368
543.237
543.107
542.978
542.85
542.722
542.595
542.469
542.343
542.217
542.092
541.968
541.843
541.719
541.595
541.472
541.349
541.225
541.102
540.98
540.857
540.734
540.611
552.468
552.305
552.142
551.982
551.825
551.671
551.522
551.378
551.243
551.116
551
550.894
550.797
550.706
550.62
550.54
550.464
550.391
550.324
550.262
550.205
550.153
550.107
550.066
550.03
549.998
549.97
549.943
549.917
549.892
549.866
549.839
549.811
549.78
549.747
549.711
549.672
549.632
549.589
549.544
549.498
549.451
549.403
549.355
549.308
549.261
549.215
549.17
549.126
549.083
549.04
548.998
548.955
548.912
548.869
548.824
548.778
548.73
548.681
548.63
548.576
548.52
548.461
548.398
548.33
548.256
548.175
548.084
547.984
547.873
547.751
547.618
547.473
547.317
547.149
546.972
546.784
546.588
546.387
546.184
545.983
545.788
545.6
545.419
545.244
545.076
544.913
544.755
544.602
544.453
544.308
544.165
544.025
543.888
543.753
543.619
543.487
543.356
543.226
543.097
542.969
542.841
542.714
542.588
542.462
542.337
542.212
542.088
541.963
541.839
541.716
541.593
541.469
541.346
541.224
541.101
540.978
540.856
540.734
540.611
552.467
552.301
552.135
551.972
551.81
551.65
551.493
551.342
551.198
551.062
550.937
550.823
550.718
550.621
550.53
550.445
550.365
550.29
550.22
550.156
550.097
550.044
549.997
549.955
549.919
549.886
549.857
549.829
549.802
549.776
549.749
549.721
549.692
549.661
549.627
549.591
549.552
549.511
549.468
549.423
549.377
549.33
549.283
549.235
549.188
549.142
549.096
549.051
549.007
548.964
548.921
548.878
548.835
548.792
548.748
548.704
548.658
548.611
548.563
548.512
548.46
548.405
548.347
548.285
548.218
548.146
548.067
547.98
547.883
547.777
547.66
547.532
547.392
547.24
547.077
546.904
546.72
546.528
546.331
546.132
545.935
545.743
545.558
545.38
545.208
545.042
544.881
544.726
544.575
544.428
544.284
544.143
544.005
543.87
543.736
543.603
543.472
543.343
543.214
543.086
542.959
542.832
542.706
542.581
542.455
542.331
542.207
542.083
541.959
541.836
541.712
541.59
541.467
541.344
541.222
541.1
540.977
540.855
540.733
540.611
552.466
552.299
552.132
551.966
551.8
551.635
551.471
551.312
551.158
551.013
550.879
550.756
550.644
550.54
550.444
550.353
550.269
550.19
550.118
550.051
549.99
549.936
549.887
549.844
549.807
549.773
549.742
549.712
549.684
549.656
549.628
549.6
549.569
549.537
549.502
549.465
549.426
549.385
549.342
549.298
549.252
549.205
549.158
549.112
549.065
549.019
548.974
548.929
548.885
548.842
548.799
548.756
548.713
548.669
548.626
548.581
548.536
548.489
548.442
548.392
548.34
548.286
548.23
548.169
548.104
548.033
547.956
547.871
547.777
547.675
547.562
547.438
547.304
547.158
547
546.831
546.652
546.465
546.273
546.077
545.883
545.694
545.513
545.338
545.169
545.005
544.847
544.694
544.545
544.401
544.259
544.12
543.984
543.85
543.718
543.587
543.458
543.329
543.201
543.075
542.948
542.823
542.698
542.573
542.449
542.325
542.201
542.078
541.955
541.832
541.709
541.587
541.464
541.342
541.22
541.098
540.976
540.854
540.733
540.611
552.466
552.299
552.132
551.964
551.795
551.626
551.456
551.288
551.124
550.97
550.826
550.695
550.575
550.464
550.361
550.265
550.176
550.094
550.018
549.949
549.885
549.829
549.778
549.734
549.694
549.658
549.625
549.593
549.563
549.534
549.505
549.474
549.443
549.409
549.374
549.336
549.297
549.256
549.213
549.169
549.124
549.078
549.031
548.985
548.939
548.893
548.849
548.805
548.761
548.718
548.674
548.632
548.588
548.545
548.502
548.457
548.412
548.366
548.319
548.271
548.22
548.167
548.111
548.052
547.988
547.918
547.842
547.759
547.668
547.568
547.459
547.34
547.21
547.069
546.917
546.754
546.581
546.399
546.211
546.019
545.828
545.643
545.465
545.293
545.126
544.966
544.811
544.66
544.514
544.372
544.233
544.096
543.962
543.83
543.699
543.57
543.442
543.315
543.189
543.063
542.938
542.813
542.689
542.565
542.442
542.318
542.195
542.073
541.95
541.828
541.705
541.583
541.462
541.34
541.218
541.097
540.975
540.854
540.732
540.611
552.467
552.302
552.135
551.965
551.794
551.62
551.443
551.267
551.094
550.93
550.777
550.636
550.509
550.391
550.282
550.181
550.088
550.001
549.922
549.85
549.784
549.725
549.672
549.624
549.582
549.543
549.507
549.473
549.441
549.409
549.378
549.346
549.313
549.279
549.242
549.204
549.165
549.123
549.081
549.037
548.993
548.947
548.902
548.856
548.811
548.766
548.722
548.678
548.635
548.592
548.549
548.506
548.463
548.42
548.376
548.333
548.288
548.243
548.196
548.148
548.098
548.046
547.991
547.933
547.87
547.802
547.727
547.645
547.557
547.459
547.353
547.238
547.113
546.978
546.831
546.674
546.506
546.329
546.146
545.958
545.771
545.588
545.413
545.244
545.081
544.924
544.772
544.624
544.481
544.342
544.205
544.071
543.939
543.809
543.68
543.553
543.426
543.301
543.176
543.051
542.927
542.803
542.68
542.557
542.434
542.312
542.19
542.067
541.945
541.824
541.702
541.58
541.459
541.338
541.216
541.095
540.974
540.853
540.732
540.611
552.469
552.305
552.138
551.968
551.793
551.614
551.432
551.249
551.068
550.894
550.732
550.583
550.448
550.323
550.209
550.102
550.004
549.913
549.829
549.753
549.685
549.623
549.567
549.516
549.47
549.428
549.389
549.352
549.317
549.283
549.25
549.216
549.182
549.146
549.109
549.07
549.03
548.989
548.947
548.904
548.86
548.816
548.771
548.726
548.682
548.638
548.594
548.551
548.508
548.465
548.423
548.38
548.337
548.294
548.251
548.208
548.163
548.118
548.072
548.025
547.976
547.924
547.871
547.813
547.752
547.685
547.611
547.531
547.444
547.349
547.246
547.135
547.014
546.884
546.743
546.592
546.43
546.258
546.079
545.896
545.711
545.531
545.358
545.192
545.032
544.879
544.73
544.586
544.446
544.31
544.176
544.045
543.915
543.787
543.661
543.535
543.41
543.286
543.162
543.039
542.916
542.794
542.671
542.549
542.427
542.305
542.184
542.062
541.941
541.82
541.698
541.577
541.456
541.335
541.214
541.093
540.973
540.852
540.731
540.61
552.47
552.308
552.143
551.972
551.795
551.612
551.425
551.235
551.047
550.865
550.693
550.535
550.391
550.26
550.139
550.027
549.924
549.829
549.742
549.662
549.589
549.524
549.464
549.41
549.36
549.315
549.271
549.231
549.194
549.157
549.121
549.086
549.05
549.013
548.975
548.936
548.896
548.855
548.813
548.77
548.727
548.683
548.639
548.596
548.552
548.509
548.467
548.424
548.382
548.339
548.297
548.255
548.212
548.17
548.127
548.083
548.039
547.995
547.949
547.902
547.853
547.802
547.749
547.692
547.632
547.566
547.495
547.416
547.331
547.238
547.139
547.031
546.915
546.79
546.654
546.508
546.352
546.186
546.011
545.831
545.649
545.47
545.299
545.136
544.98
544.83
544.686
544.546
544.41
544.277
544.146
544.018
543.891
543.765
543.641
543.517
543.394
543.271
543.149
543.027
542.906
542.784
542.663
542.541
542.42
542.299
542.178
542.057
541.936
541.816
541.695
541.574
541.454
541.333
541.213
541.092
540.972
540.851
540.731
540.61
552.471
552.311
552.146
551.975
551.797
551.611
551.419
551.223
551.028
550.837
550.657
550.49
550.339
550.201
550.075
549.959
549.851
549.751
549.659
549.575
549.498
549.429
549.364
549.306
549.253
549.203
549.156
549.112
549.071
549.031
548.993
548.955
548.917
548.879
548.841
548.801
548.761
548.72
548.679
548.637
548.594
548.551
548.509
548.466
548.424
548.382
548.34
548.298
548.257
548.215
548.173
548.131
548.089
548.046
548.003
547.96
547.917
547.872
547.827
547.78
547.731
547.681
547.627
547.571
547.511
547.447
547.377
547.301
547.219
547.129
547.032
546.928
546.816
546.696
546.565
546.425
546.274
546.112
545.942
545.764
545.583
545.405
545.236
545.075
544.923
544.778
544.639
544.504
544.372
544.242
544.115
543.99
543.866
543.743
543.621
543.499
543.378
543.257
543.136
543.015
542.895
542.774
542.654
542.534
542.413
542.293
542.173
542.052
541.932
541.812
541.692
541.571
541.451
541.331
541.211
541.091
540.97
540.85
540.73
540.61
552.471
552.312
552.148
551.977
551.797
551.609
551.413
551.214
551.013
550.816
550.628
550.454
550.295
550.151
550.018
549.896
549.783
549.678
549.582
549.494
549.413
549.339
549.27
549.207
549.149
549.095
549.044
548.996
548.951
548.908
548.867
548.827
548.787
548.747
548.708
548.668
548.628
548.587
548.546
548.505
548.464
548.422
548.381
548.34
548.298
548.257
548.216
548.175
548.134
548.093
548.051
548.01
547.968
547.925
547.883
547.84
547.796
547.752
547.706
547.659
547.611
547.56
547.507
547.452
547.392
547.329
547.26
547.186
547.106
547.02
546.926
546.826
546.719
546.603
546.478
546.342
546.196
546.039
545.872
545.696
545.515
545.335
545.166
545.009
544.862
544.723
544.589
544.459
544.332
544.207
544.084
543.962
543.841
543.72
543.6
543.481
543.362
543.242
543.123
543.004
542.884
542.765
542.646
542.526
542.406
542.287
542.167
542.048
541.928
541.808
541.688
541.568
541.449
541.329
541.209
541.089
540.969
540.85
540.73
540.61
552.471
552.311
552.146
551.974
551.793
551.604
551.406
551.204
551.001
550.799
550.604
550.422
550.255
550.103
549.965
549.838
549.721
549.612
549.511
549.418
549.333
549.255
549.181
549.113
549.051
548.992
548.936
548.885
548.836
548.789
548.744
548.701
548.659
548.618
548.578
548.538
548.497
548.457
548.417
548.377
548.337
548.297
548.257
548.217
548.177
548.137
548.097
548.056
548.016
547.975
547.934
547.893
547.851
547.808
547.766
547.723
547.679
547.635
547.589
547.542
547.493
547.443
547.39
547.335
547.275
547.213
547.145
547.073
546.996
546.914
546.825
546.729
546.625
546.514
546.393
546.263
546.122
545.969
545.804
545.628
545.444
545.259
545.085
544.934
544.796
544.665
544.538
544.414
544.292
544.171
544.052
543.933
543.815
543.698
543.58
543.463
543.346
543.228
543.11
542.992
542.874
542.756
542.637
542.519
542.4
542.281
542.162
542.043
541.924
541.804
541.685
541.566
541.446
541.327
541.207
541.088
540.968
540.849
540.729
540.61
552.47
552.308
552.141
551.966
551.784
551.595
551.397
551.195
550.991
550.786
550.588
550.401
550.228
550.069
549.924
549.79
549.668
549.554
549.449
549.352
549.262
549.179
549.101
549.028
548.96
548.896
548.836
548.779
548.726
548.675
548.627
548.58
548.536
548.493
548.452
548.411
548.371
548.331
548.292
548.253
548.215
548.176
548.138
548.099
548.061
548.022
547.983
547.943
547.903
547.863
547.822
547.781
547.739
547.696
547.653
547.61
547.566
547.521
547.475
547.428
547.379
547.329
547.276
547.221
547.163
547.102
547.037
546.967
546.892
546.813
546.729
546.638
546.539
546.432
546.316
546.19
546.053
545.902
545.738
545.561
545.371
545.173
544.982
544.847
544.724
544.604
544.485
544.367
544.251
544.135
544.02
543.905
543.79
543.676
543.561
543.446
543.33
543.214
543.098
542.982
542.865
542.747
542.63
542.512
542.394
542.276
542.157
542.039
541.92
541.801
541.682
541.563
541.444
541.325
541.206
541.087
540.967
540.848
540.729
540.61
552.468
552.302
552.13
551.953
551.77
551.58
551.385
551.186
550.984
550.782
550.583
550.392
550.211
550.044
549.891
549.751
549.624
549.506
549.397
549.295
549.201
549.114
549.032
548.953
548.879
548.809
548.743
548.681
548.622
548.567
548.515
548.465
548.419
548.374
548.331
548.29
548.25
548.211
548.173
548.136
548.099
548.062
548.025
547.988
547.951
547.914
547.876
547.837
547.798
547.759
547.718
547.677
547.634
547.591
547.547
547.503
547.458
547.413
547.367
547.319
547.271
547.22
547.168
547.115
547.058
547
546.937
546.871
546.8
546.725
546.645
546.558
546.464
546.362
546.249
546.127
545.991
545.843
545.679
545.498
545.298
545.077
544.825
544.751
544.652
544.544
544.433
544.321
544.21
544.099
543.988
543.877
543.766
543.654
543.542
543.429
543.316
543.201
543.087
542.971
542.856
542.739
542.623
542.506
542.388
542.271
542.153
542.035
541.916
541.798
541.68
541.561
541.442
541.323
541.204
541.086
540.967
540.848
540.729
540.61
552.464
552.291
552.114
551.934
551.749
551.562
551.371
551.178
550.984
550.788
550.591
550.396
550.209
550.036
549.876
549.73
549.596
549.473
549.36
549.254
549.156
549.064
548.977
548.892
548.811
548.734
548.661
548.592
548.526
548.466
548.41
548.357
548.309
548.263
548.219
548.178
548.138
548.1
548.063
548.026
547.991
547.955
547.92
547.884
547.849
547.813
547.776
547.739
547.701
547.662
547.622
547.581
547.537
547.493
547.449
547.403
547.358
547.312
547.266
547.218
547.169
547.119
547.069
547.017
546.964
546.909
546.852
546.789
546.723
546.653
546.577
546.496
546.406
546.307
546.197
546.075
545.941
545.792
545.625
545.44
545.235
545.006
544.747
544.681
544.589
544.487
544.382
544.277
544.171
544.064
543.958
543.851
543.743
543.634
543.524
543.414
543.302
543.189
543.076
542.962
542.847
542.732
542.616
542.5
542.383
542.266
542.149
542.031
541.913
541.795
541.677
541.559
541.44
541.322
541.203
541.085
540.966
540.847
540.728
540.609
552.458
552.275
552.092
551.909
551.725
551.541
551.356
551.17
550.982
550.793
550.602
550.411
550.223
550.046
549.881
549.73
549.591
549.462
549.344
549.234
549.131
549.033
548.941
548.85
548.76
548.673
548.59
548.511
548.438
548.373
548.314
548.261
548.212
548.165
548.12
548.079
548.039
548.001
547.963
547.927
547.892
547.857
547.822
547.788
547.754
547.72
547.685
547.65
547.613
547.575
547.535
547.492
547.448
547.402
547.356
547.312
547.268
547.223
547.176
547.129
547.081
547.032
546.983
546.935
546.888
546.839
546.787
546.728
546.663
546.596
546.524
546.446
546.357
546.262
546.159
546.038
545.897
545.753
545.582
545.376
545.176
544.961
544.774
544.642
544.536
544.435
544.334
544.233
544.132
544.031
543.928
543.825
543.721
543.615
543.508
543.399
543.289
543.178
543.066
542.954
542.84
542.725
542.61
542.495
542.379
542.262
542.145
542.028
541.911
541.793
541.675
541.557
541.439
541.32
541.202
541.084
540.965
540.847
540.728
540.609
552.45
552.254
552.064
551.879
551.697
551.518
551.34
551.16
550.98
550.796
550.613
550.43
550.249
550.078
549.916
549.766
549.622
549.487
549.362
549.244
549.133
549.028
548.931
548.845
548.742
548.642
548.544
548.454
548.373
548.303
548.247
548.196
548.146
548.096
548.054
548.016
547.974
547.931
547.89
547.851
547.813
547.777
547.742
547.71
547.678
547.647
547.615
547.58
547.542
547.502
547.46
547.416
547.368
547.32
547.275
547.236
547.198
547.157
547.114
547.068
547.022
546.974
546.93
546.89
546.856
546.814
546.759
546.695
546.618
546.548
546.477
546.385
546.274
546.203
546.147
545.982
545.802
545.78
545.59
545.153
545.106
544.924
544.745
544.571
544.476
544.38
544.286
544.191
544.096
543.999
543.901
543.802
543.701
543.598
543.493
543.387
543.278
543.169
543.058
542.946
542.833
542.72
542.605
542.49
542.375
542.259
542.142
542.025
541.908
541.791
541.673
541.555
541.437
541.319
541.201
541.083
540.965
540.846
540.728
540.609
552.44
552.228
552.032
551.846
551.668
551.497
551.328
551.158
550.984
550.801
550.621
550.445
550.281
550.143
549.998
549.865
549.718
549.572
549.442
549.313
549.187
549.067
548.979
548.971
548.85
548.73
548.608
548.504
548.42
548.352
548.308
548.263
548.198
548.133
548.104
548.077
548.022
547.962
547.912
547.871
547.825
547.786
547.754
547.728
547.704
547.676
547.638
547.592
547.541
547.491
547.446
547.398
547.342
547.292
547.259
547.234
547.21
547.168
547.13
547.089
547.05
547.013
546.994
546.97
546.962
546.908
546.809
546.715
546.592
546.584
546.487
546.198
546.09
546.285
546.103
545.201
545.484
546.623
545.421
544.544
545.635
545.204
544.386
544.501
544.414
544.324
544.238
544.151
544.061
543.969
543.876
543.781
543.683
543.583
543.48
543.376
543.269
543.161
543.051
542.94
542.828
542.715
542.601
542.487
542.371
542.256
542.14
542.023
541.906
541.789
541.672
541.554
541.436
541.318
541.2
541.082
540.964
540.846
540.727
540.609
552.431
552.205
552.005
551.817
551.643
551.486
551.338
551.179
551.017
550.836
550.668
550.488
550.348
550.35
550.24
550.153
549.985
549.821
549.694
549.552
549.402
549.249
549.134
549.011
548.818
548.698
548.574
548.48
548.395
548.334
548.332
548.296
548.181
548.076
548.085
548.079
547.988
547.891
547.841
547.797
547.733
547.695
547.685
547.688
547.682
547.645
547.569
547.486
547.406
547.337
547.298
547.261
547.183
547.169
547.216
547.2
547.155
547.042
547.018
547.002
546.991
547.021
547.142
547.105
547.041
546.918
546.768
546.631
546.485
546.552
546.516
546.191
546.036
546.205
546.18
545.644
545.477
545.909
545.677
544.967
545.001
545.049
544.514
544.448
544.341
544.264
544.192
544.114
544.029
543.942
543.853
543.763
543.668
543.571
543.47
543.367
543.262
543.155
543.046
542.935
542.824
542.711
542.598
542.484
542.369
542.254
542.138
542.021
541.905
541.788
541.671
541.553
541.435
541.318
541.2
541.082
540.964
540.846
540.727
540.609
552.452
552.226
552.027
551.812
551.648
551.538
551.488
551.31
551.158
551.008
550.964
550.741
550.572
550.453
550.283
550.208
550.039
549.896
549.782
549.639
549.548
549.37
549.199
548.944
548.688
548.598
548.529
548.514
548.471
548.39
548.358
548.295
548.183
548.067
548.071
548.046
548.01
547.92
547.831
547.778
547.674
547.643
547.683
547.73
547.694
547.585
547.413
547.296
547.224
547.124
547.113
547.103
547.022
547.037
547.152
547.122
547.11
547.036
547.03
546.995
546.94
546.925
546.95
546.933
546.92
546.845
546.757
546.632
546.509
546.465
546.425
546.263
546.132
546.138
546.115
545.853
545.614
545.563
545.494
545.178
544.928
544.816
544.451
544.332
544.28
544.21
544.152
544.085
544
543.916
543.834
543.748
543.658
543.562
543.463
543.361
543.257
543.15
543.042
542.932
542.821
542.709
542.596
542.482
542.367
542.252
542.136
542.02
541.904
541.787
541.67
541.552
541.435
541.317
541.199