/*--------------------------------*- C++ -*----------------------------------*\
  =========                 |
  \\      /  F ield         | OpenFOAM: The Open Source CFD Toolbox
   \\    /   O peration     | Website:  https://openfoam.org
    \\  /    A nd           | Version:  6
     \\/     M anipulation  |
\*---------------------------------------------------------------------------*/
FoamFile
{
    version     2.0;
    format      ascii;
    class       surfaceScalarField;
    location    "2650";
    object      phi;
}
// * * * * * * * * * * * * * * * * * * * * * * * * * * * * * * * * * * * * * //

dimensions      [0 3 -1 0 0 0 0];

internalField   nonuniform List<scalar> 
9440
(
7.75328e-11
-7.75328e-11
-2.0618e-11
9.815e-11
-8.58243e-11
6.52056e-11
-2.10258e-10
1.24433e-10
-3.10769e-10
1.0051e-10
-6.764e-10
3.6563e-10
-8.65341e-10
1.88941e-10
-1.39489e-09
5.29546e-10
-1.62723e-09
2.32341e-10
-2.09472e-09
4.67492e-10
-2.28642e-09
1.91694e-10
-2.65483e-09
3.68417e-10
-2.83222e-09
1.77384e-10
-3.01617e-09
1.83957e-10
-2.92553e-09
-9.06456e-11
-2.93344e-09
7.91174e-12
-2.76722e-09
-1.6622e-10
-2.37951e-09
-3.87713e-10
-2.23515e-09
-1.44361e-10
-2.00281e-09
-2.32334e-10
-1.84657e-09
-1.56238e-10
-5.25095e-10
-1.32148e-09
-3.17867e-10
-2.07227e-10
5.97326e-11
-3.77599e-10
2.05025e-10
-1.45291e-10
4.19519e-10
-2.14493e-10
7.71018e-10
-3.51498e-10
1.24409e-09
-4.73066e-10
1.70499e-09
-4.609e-10
1.71639e-09
-1.14063e-11
1.93515e-09
-2.18752e-10
2.06806e-09
-1.3291e-10
2.26729e-09
-1.99229e-10
2.40902e-09
-1.41732e-10
2.49505e-09
-8.60219e-11
2.56325e-09
-6.82004e-11
2.6247e-09
-6.14475e-11
2.65345e-09
-2.87469e-11
2.63064e-09
2.28059e-11
2.58021e-09
5.04287e-11
2.52684e-09
5.33778e-11
2.49182e-09
3.5021e-11
2.48678e-09
5.04528e-12
2.47957e-09
7.20461e-12
2.44886e-09
3.07116e-11
2.45406e-09
-5.19375e-12
2.50051e-09
-4.6448e-11
2.6122e-09
-1.11694e-10
2.71215e-09
-9.99485e-11
2.89643e-09
-1.84274e-10
3.09651e-09
-2.00075e-10
3.12079e-09
-2.42795e-11
3.13752e-09
-1.67291e-11
3.33026e-09
-1.9274e-10
3.19654e-09
1.33714e-10
3.40697e-09
-2.10424e-10
3.4992e-09
-9.2231e-11
3.59132e-09
-9.21213e-11
3.67903e-09
-8.7702e-11
3.74666e-09
-6.76347e-11
3.82354e-09
-7.68822e-11
3.80541e-09
1.81332e-11
3.79181e-09
1.35974e-11
3.73955e-09
5.22632e-11
3.69009e-09
4.94617e-11
3.57629e-09
1.13803e-10
3.45597e-09
1.20314e-10
3.16084e-09
2.95133e-10
2.79787e-09
3.62965e-10
1.94906e-09
8.48813e-10
9.39063e-10
1.00999e-09
-4.77089e-10
1.41615e-09
-1.21854e-09
7.41454e-10
-1.79969e-09
5.81145e-10
-1.88363e-09
8.39397e-11
-1.60912e-09
-2.74513e-10
-1.32221e-09
-2.86905e-10
-9.6374e-10
-3.58475e-10
-2.05928e-11
-9.43148e-10
5.85062e-16
-2.05944e-11
-1.0816e-17
4.15165e-18
-5.22491e-18
-5.59113e-18
-3.48809e-18
-1.73768e-18
-3.31461e-18
-1.74476e-19
-3.50658e-18
1.91074e-19
-3.66289e-18
1.55497e-19
-3.69e-18
2.64124e-20
-3.58864e-18
-1.01905e-19
-3.38153e-18
-2.07474e-19
-3.09275e-18
-2.88978e-19
-2.74327e-18
-3.4955e-19
-2.35082e-18
-3.92414e-19
-1.93059e-18
-4.2009e-19
-1.49584e-18
-4.34508e-19
-1.05827e-18
-4.37244e-19
-6.28145e-19
-4.29705e-19
-2.14407e-19
-4.13234e-19
1.75335e-19
-3.89163e-19
5.34798e-19
-3.58817e-19
8.59006e-19
-3.23499e-19
1.14425e-18
-2.84473e-19
1.388e-18
-2.42929e-19
1.58883e-18
-1.99965e-19
1.74633e-18
-1.56564e-19
1.86089e-18
-1.13586e-19
1.93367e-18
-7.1754e-20
1.96641e-18
-3.16636e-20
1.96133e-18
6.2171e-21
1.92097e-18
4.15352e-20
1.84816e-18
7.40409e-20
1.74586e-18
1.03572e-19
1.61715e-18
1.30037e-19
1.46511e-18
1.53405e-19
1.29283e-18
1.73684e-19
1.10336e-18
1.90913e-19
8.99693e-19
2.05148e-19
6.84745e-19
2.16456e-19
4.61363e-19
2.24912e-19
2.32284e-19
2.30624e-19
2.33838e-19
-6.32169e-11
-1.43167e-11
-2.78368e-10
3.13299e-10
-4.36513e-10
2.2335e-10
-5.8059e-10
2.68509e-10
-8.89412e-10
4.09331e-10
-1.01831e-09
4.94532e-10
-1.42734e-09
5.97965e-10
-1.46146e-09
5.63669e-10
-2.03786e-09
8.08741e-10
-2.21992e-09
6.49549e-10
-2.68259e-09
6.54364e-10
-2.81435e-09
5.00172e-10
-3.09584e-09
4.58879e-10
-3.18525e-09
2.73366e-10
-2.99561e-09
-2.80287e-10
-2.97217e-09
-1.55249e-11
-2.96528e-09
-1.73111e-10
-2.45428e-09
-8.98712e-10
-2.3093e-09
-2.89337e-10
-2.18687e-09
-3.5477e-10
-1.56166e-09
-7.81445e-10
-1.07819e-09
-1.80494e-09
-6.90838e-10
-5.94579e-10
-6.73092e-10
-3.95343e-10
-1.16443e-10
-7.01939e-10
2.90362e-10
-6.21296e-10
6.94124e-10
-7.55259e-10
1.08862e-09
-8.67557e-10
1.44637e-09
-8.18653e-10
1.74879e-09
-3.13818e-10
1.88647e-09
-3.56432e-10
2.06542e-09
-3.1186e-10
2.20322e-09
-3.37022e-10
2.28986e-09
-2.28372e-10
2.39006e-09
-1.86215e-10
2.4885e-09
-1.66636e-10
2.59224e-09
-1.65193e-10
2.69304e-09
-1.29538e-10
2.72999e-09
-1.4138e-11
2.69864e-09
8.17816e-11
2.65631e-09
9.57032e-11
2.58424e-09
1.07093e-10
2.51791e-09
7.13823e-11
2.45578e-09
6.93346e-11
2.40564e-09
8.08618e-11
2.41833e-09
-1.78864e-11
2.4389e-09
-6.70102e-11
2.54613e-09
-2.18925e-10
2.66277e-09
-2.16585e-10
2.83666e-09
-3.58163e-10
2.87336e-09
-2.36774e-10
3.02404e-09
-1.74952e-10
3.18488e-09
-1.77572e-10
3.25235e-09
-2.60207e-10
3.36211e-09
2.39523e-11
3.3861e-09
-2.3441e-10
3.5085e-09
-2.14627e-10
3.54085e-09
-1.2447e-10
3.59485e-09
-1.41705e-10
3.65285e-09
-1.25628e-10
3.71117e-09
-1.35207e-10
3.70381e-09
2.54903e-11
3.72583e-09
-8.4153e-12
3.64065e-09
1.37436e-10
3.60713e-09
8.29834e-11
3.4217e-09
2.99233e-10
3.34528e-09
1.96728e-10
3.03223e-09
6.08182e-10
2.7751e-09
6.20097e-10
2.58501e-09
1.0389e-09
2.34378e-09
1.25123e-09
2.40281e-09
1.35712e-09
1.88092e-09
1.26334e-09
1.28004e-09
1.18202e-09
5.81163e-10
7.8282e-10
-1.75471e-10
4.82118e-10
-7.95056e-11
-3.82872e-10
2.85044e-10
-7.23026e-10
2.88718e-10
-9.46824e-10
-2.70642e-14
2.6815e-10
-1.15605e-17
-2.74693e-14
-1.372e-18
-1.57805e-17
-1.92493e-18
-1.18629e-18
-2.94899e-18
8.4811e-19
-3.54216e-18
7.82826e-19
-3.79197e-18
4.04093e-19
-3.81832e-18
5.18516e-20
-3.69421e-18
-2.26586e-19
-3.46304e-18
-4.38922e-19
-3.15333e-18
-5.98729e-19
-2.78613e-18
-7.16589e-19
-2.37849e-18
-7.99731e-19
-1.94501e-18
-8.53089e-19
-1.49858e-18
-8.80287e-19
-1.05073e-18
-8.84296e-19
-6.11675e-19
-8.67822e-19
-1.90337e-19
-8.33507e-19
2.05681e-19
-7.84001e-19
5.70116e-19
-7.21965e-19
8.98033e-19
-6.50031e-19
1.18579e-18
-5.70749e-19
1.43096e-18
-4.86526e-19
1.63223e-18
-3.99575e-19
1.7893e-18
-3.11878e-19
1.90272e-18
-2.25156e-19
1.97376e-18
-1.4086e-19
2.0043e-18
-6.01727e-20
1.99665e-18
1.59797e-20
1.95348e-18
8.69035e-20
1.87769e-18
1.52113e-19
1.77233e-18
2.11298e-19
1.64051e-18
2.64295e-19
1.48538e-18
3.1105e-19
1.31006e-18
3.51594e-19
1.1176e-18
3.86016e-19
9.11e-19
4.14434e-19
6.93201e-19
4.36983e-19
4.67075e-19
4.53791e-19
2.35498e-19
4.64969e-19
4.70549e-19
-1.0254e-10
8.82224e-11
-2.01352e-10
4.1211e-10
-4.83951e-10
5.05948e-10
-7.41199e-10
5.25755e-10
-1.08798e-09
7.56115e-10
-1.38531e-09
7.91858e-10
-1.60893e-09
8.21586e-10
-1.87725e-09
8.31987e-10
-2.12e-09
1.05149e-09
-2.45064e-09
9.80187e-10
-2.71056e-09
9.14283e-10
-2.93275e-09
7.22362e-10
-3.06777e-09
5.93905e-10
-3.19446e-09
4.00054e-10
-3.05169e-09
-4.23054e-10
-2.97155e-09
-9.56714e-11
-2.75036e-09
-3.94296e-10
-2.65362e-09
-9.95453e-10
-2.25295e-09
-6.90006e-10
-1.89334e-09
-7.14376e-10
-1.49824e-09
-1.17654e-09
-1.68216e-09
-1.62102e-09
-1.23704e-09
-1.0397e-09
-6.60168e-10
-9.72213e-10
-2.04154e-10
-1.15795e-09
1.11049e-10
-9.36497e-10
3.93425e-10
-1.03763e-09
6.55684e-10
-1.12981e-09
9.61856e-10
-1.12482e-09
1.41597e-09
-7.67932e-10
1.66311e-09
-6.03567e-10
1.96272e-09
-6.11471e-10
2.11754e-09
-4.9184e-10
2.19644e-09
-3.07263e-10
2.2493e-09
-2.39079e-10
2.32105e-09
-2.38385e-10
2.4546e-09
-2.9874e-10
2.57634e-09
-2.51276e-10
2.69542e-09
-1.33208e-10
2.72835e-09
4.88481e-11
2.70588e-09
1.1818e-10
2.70362e-09
1.09348e-10
2.69061e-09
8.44025e-11
2.63479e-09
1.25154e-10
2.57456e-09
1.4109e-10
2.56809e-09
-1.14068e-11
2.5208e-09
-1.97177e-11
2.56189e-09
-2.60018e-10
2.66067e-09
-3.15363e-10
2.73269e-09
-4.30175e-10
2.89006e-09
-3.9414e-10
3.07265e-09
-3.5754e-10
3.21544e-09
-3.20364e-10
3.24272e-09
-2.8749e-10
3.52341e-09
-2.56731e-10
3.51194e-09
-2.22943e-10
3.5435e-09
-2.46184e-10
3.51351e-09
-9.44812e-11
3.5671e-09
-1.95289e-10
3.51907e-09
-7.75964e-11
3.50753e-09
-1.23666e-10
3.36364e-09
1.69378e-10
3.42467e-09
-6.94413e-11
3.22268e-09
3.39418e-10
3.33916e-09
-3.34969e-11
3.11024e-09
5.28153e-10
3.0451e-09
2.61874e-10
2.87451e-09
7.78768e-10
2.75148e-09
7.43127e-10
2.71403e-09
1.07635e-09
2.75211e-09
1.21314e-09
2.67627e-09
1.43297e-09
2.35098e-09
1.58862e-09
1.84115e-09
1.69184e-09
1.31386e-09
1.31012e-09
1.03068e-09
7.6529e-10
4.57684e-10
1.90126e-10
4.46094e-10
-7.11437e-10
-1.58048e-10
-3.42684e-10
-1.28524e-10
2.38625e-10
6.3622e-17
-1.28552e-10
1.17741e-17
3.41062e-17
1.09749e-19
1.04774e-17
-3.0141e-18
3.97068e-18
-3.92089e-18
1.68848e-18
-4.14421e-18
6.26541e-19
-4.09676e-18
3.84436e-21
-3.90655e-18
-4.17042e-19
-3.62284e-18
-7.22627e-19
-3.27119e-18
-9.50205e-19
-2.86928e-18
-1.11817e-18
-2.43185e-18
-1.2367e-18
-1.9722e-18
-1.31216e-18
-1.50259e-18
-1.34922e-18
-1.03426e-18
-1.35184e-18
-5.7736e-19
-1.32383e-18
-1.40831e-19
-1.26906e-18
2.67718e-19
-1.1915e-18
6.4205e-19
-1.09517e-18
9.77315e-19
-9.84096e-19
1.27001e-18
-8.62172e-19
1.51791e-18
-7.33074e-19
1.71993e-18
-6.00173e-19
1.87603e-18
-4.66472e-19
1.98702e-18
-3.34569e-19
2.05445e-18
-2.06638e-19
2.08045e-18
-8.44372e-20
2.06757e-18
3.06682e-20
2.01869e-18
1.37673e-19
1.93687e-18
2.35885e-19
1.82532e-18
3.24881e-19
1.68727e-18
4.04451e-19
1.52593e-18
4.74553e-19
1.34448e-18
5.35267e-19
1.14601e-18
5.86754e-19
9.33549e-19
6.29217e-19
7.10009e-19
6.62872e-19
4.78253e-19
6.87921e-19
2.41078e-19
7.04527e-19
7.12791e-19
-3.52031e-10
4.40252e-10
-5.2396e-10
5.84039e-10
-7.76471e-10
7.58458e-10
-1.01932e-09
7.68604e-10
-1.1919e-09
9.28694e-10
-1.45913e-09
1.05909e-09
-1.66099e-09
1.02345e-09
-2.12906e-09
1.30005e-09
-2.45359e-09
1.37601e-09
-2.7269e-09
1.2535e-09
-2.88555e-09
1.07294e-09
-2.99362e-09
8.30424e-10
-3.0351e-09
6.35391e-10
-3.0943e-09
4.59253e-10
-2.99302e-09
-5.24337e-10
-2.88618e-09
-2.0251e-10
-2.82168e-09
-4.588e-10
-2.8692e-09
-9.47928e-10
-2.46768e-09
-1.09153e-09
-2.04891e-09
-1.13314e-09
-1.72209e-09
-1.50336e-09
-1.72173e-09
-1.62138e-09
-1.23718e-09
-1.52425e-09
-8.20887e-10
-1.3885e-09
-6.84817e-10
-1.29402e-09
-3.16713e-10
-1.3046e-09
-2.60737e-11
-1.32827e-09
1.51144e-10
-1.30703e-09
3.93251e-10
-1.36693e-09
7.98143e-10
-1.17282e-09
1.16541e-09
-9.70831e-10
1.30669e-09
-7.52753e-10
1.48917e-09
-6.74311e-10
1.72837e-09
-5.46469e-10
1.89897e-09
-4.09674e-10
2.08836e-09
-4.27766e-10
2.2653e-09
-4.75684e-10
2.35834e-09
-3.44314e-10
2.49694e-09
-2.71799e-10
2.60463e-09
-5.88414e-11
2.60637e-09
1.16437e-10
2.64533e-09
7.039e-11
2.67357e-09
5.6165e-11
2.69485e-09
1.03878e-10
2.65113e-09
1.84819e-10
2.69326e-09
-5.35391e-11
2.71729e-09
-4.37404e-11
2.78441e-09
-3.27143e-10
2.91161e-09
-4.42558e-10
2.94112e-09
-4.59684e-10
3.04871e-09
-5.0173e-10
3.09618e-09
-4.05e-10
3.13055e-09
-3.54736e-10
3.21852e-09
-3.7546e-10
3.28812e-09
-3.26333e-10
3.27959e-09
-2.14408e-10
3.24938e-09
-2.15975e-10
3.20825e-09
-5.33454e-11
3.24224e-09
-2.29277e-10
3.15032e-09
1.4321e-11
3.14943e-09
-1.22779e-10
3.09593e-09
2.22882e-10
2.9931e-09
3.3393e-11
2.92497e-09
4.07544e-10
2.85002e-09
4.14515e-11
2.73655e-09
6.4162e-10
2.65661e-09
3.41819e-10
2.69112e-09
7.44251e-10
2.60326e-09
8.30983e-10
2.61821e-09
1.06141e-09
2.61444e-09
1.2169e-09
2.57647e-09
1.47094e-09
2.46893e-09
1.69617e-09
2.37262e-09
1.78815e-09
2.08609e-09
1.59664e-09
1.64306e-09
1.20832e-09
5.01892e-10
1.3313e-09
1.89348e-10
-3.98894e-10
-6.80031e-10
5.26693e-10
-1.18742e-09
7.46014e-10
3.70174e-16
-1.31597e-09
-1.19389e-17
1.91305e-20
-6.39638e-18
4.93425e-18
-5.29599e-18
2.86917e-18
-4.98283e-18
1.37443e-18
-4.76691e-18
4.10113e-19
-4.51764e-18
-2.45562e-19
-4.21213e-18
-7.22386e-19
-3.85042e-18
-1.08394e-18
-3.43915e-18
-1.36092e-18
-2.9878e-18
-1.56885e-18
-2.50731e-18
-1.71642e-18
-2.00926e-18
-1.80937e-18
-1.50521e-18
-1.85235e-18
-1.00625e-18
-1.84982e-18
-5.22592e-19
-1.80647e-18
-6.32658e-20
-1.72733e-18
3.64045e-19
-1.61771e-18
7.53124e-19
-1.4831e-18
1.09924e-18
-1.32902e-18
1.39911e-18
-1.16079e-18
1.65081e-18
-9.83462e-19
1.85363e-18
-8.01615e-19
2.00793e-18
-6.19319e-19
2.11495e-18
-4.40063e-19
2.17665e-18
-2.66742e-19
2.19555e-18
-1.01666e-19
2.17457e-18
5.33976e-20
2.1169e-18
1.97173e-19
2.02587e-18
3.28813e-19
1.90489e-18
4.47826e-19
1.75737e-18
5.5401e-19
1.58664e-18
6.47378e-19
1.39597e-18
7.28102e-19
1.18848e-18
7.96449e-19
9.67203e-19
8.52739e-19
7.35058e-19
8.97297e-19
4.94859e-19
9.30421e-19
2.49342e-19
9.52355e-19
9.63267e-19
-3.3058e-10
7.70831e-10
-4.76283e-10
7.2974e-10
-5.84797e-10
8.66971e-10
-1.00694e-09
1.19074e-09
-1.26024e-09
1.18199e-09
-1.65357e-09
1.45243e-09
-1.98225e-09
1.35212e-09
-2.36139e-09
1.67919e-09
-2.62158e-09
1.63621e-09
-2.74204e-09
1.37395e-09
-2.86451e-09
1.19541e-09
-2.99177e-09
9.57683e-10
-3.01456e-09
6.58176e-10
-2.98128e-09
4.25972e-10
-3.07205e-09
-4.33564e-10
-2.88665e-09
-3.87907e-10
-2.67776e-09
-6.67685e-10
-2.63059e-09
-9.95102e-10
-2.48531e-09
-1.23681e-09
-2.09021e-09
-1.52823e-09
-1.89306e-09
-1.70051e-09
-1.68652e-09
-1.82793e-09
-1.3745e-09
-1.83627e-09
-1.11392e-09
-1.64908e-09
-8.17419e-10
-1.59052e-09
-5.51269e-10
-1.57075e-09
-3.60938e-10
-1.5186e-09
-1.93825e-10
-1.47414e-09
-1.00702e-10
-1.46005e-09
9.3286e-11
-1.36681e-09
5.03093e-10
-1.38064e-09
8.13535e-10
-1.06319e-09
9.45203e-10
-8.05977e-10
1.1299e-09
-7.31169e-10
1.33708e-09
-6.16849e-10
1.66478e-09
-7.5546e-10
1.80459e-09
-6.15491e-10
2.03488e-09
-5.74602e-10
2.21414e-09
-4.51058e-10
2.35377e-09
-1.9847e-10
2.44279e-09
2.74157e-11
2.5054e-09
7.78339e-12
2.56298e-09
-1.40765e-12
2.6601e-09
6.76157e-12
2.63981e-09
2.05104e-10
2.64589e-09
-5.96094e-11
2.79794e-09
-1.95791e-10
2.87972e-09
-4.08918e-10
2.91842e-09
-4.8126e-10
3.01161e-09
-5.5287e-10
3.00751e-09
-4.97624e-10
2.9995e-09
-3.96988e-10
2.98507e-09
-3.40305e-10
2.95385e-09
-3.44239e-10
2.95861e-09
-3.31093e-10
2.9315e-09
-1.87302e-10
2.85266e-09
-1.37132e-10
2.84421e-09
-4.48913e-11
2.76246e-09
-1.4753e-10
2.713e-09
6.37897e-11
2.58946e-09
7.62394e-13
2.65195e-09
1.60387e-10
2.50592e-09
1.79423e-10
2.60871e-09
3.04758e-10
2.42065e-09
2.29504e-10
2.54233e-09
5.19944e-10
2.38214e-09
5.02005e-10
2.39294e-09
7.33457e-10
2.44534e-09
7.78581e-10
2.45002e-09
1.05672e-09
2.44333e-09
1.2236e-09
2.45011e-09
1.46415e-09
2.43759e-09
1.70868e-09
2.42092e-09
1.80482e-09
2.12238e-09
1.89517e-09
1.68133e-09
1.64937e-09
1.05023e-09
1.96239e-09
-1.36294e-10
7.8763e-10
-6.38965e-10
1.02936e-09
-4.04194e-10
5.11242e-10
3.28379e-16
-1.72017e-09
-1.17944e-17
-3.39619e-18
-8.46105e-18
1.60033e-18
-6.79033e-18
1.19758e-18
-5.94715e-18
5.30785e-19
-5.42258e-18
-1.14436e-19
-4.99447e-18
-6.73243e-19
-4.57369e-18
-1.14241e-18
-4.1274e-18
-1.52925e-18
-3.64709e-18
-1.84011e-18
-3.13538e-18
-2.07934e-18
-2.60026e-18
-2.25025e-18
-2.05223e-18
-2.35609e-18
-1.50268e-18
-2.40059e-18
-9.62906e-19
-2.3883e-18
-4.43448e-19
-2.32467e-18
4.6355e-20
-2.2159e-18
4.9865e-19
-2.06879e-18
9.0721e-19
-1.89046e-18
1.26746e-18
-1.68805e-18
1.57644e-18
-1.46852e-18
1.83266e-18
-1.23838e-18
2.03593e-18
-1.00354e-18
2.18719e-18
-7.69164e-19
2.28827e-18
-5.39666e-19
2.34173e-18
-3.18644e-19
2.35062e-18
-1.08927e-19
2.31835e-18
8.73688e-20
2.24854e-18
2.68763e-19
2.14488e-18
4.3432e-19
2.01108e-18
5.83555e-19
1.85074e-18
7.16337e-19
1.66737e-18
8.32801e-19
1.46431e-18
9.33264e-19
1.24477e-18
1.01815e-18
1.01176e-18
1.08794e-18
7.68183e-19
1.1431e-18
5.16793e-19
1.18406e-18
2.60254e-19
1.21115e-18
1.22462e-18
-8.66951e-11
8.57526e-10
-4.17873e-10
1.06092e-09
-7.37669e-10
1.18677e-09
-1.15345e-09
1.60653e-09
-1.50152e-09
1.53005e-09
-1.82878e-09
1.77969e-09
-2.18917e-09
1.71251e-09
-2.37416e-09
1.86418e-09
-2.59387e-09
1.85592e-09
-2.69348e-09
1.47356e-09
-2.74898e-09
1.25091e-09
-2.85592e-09
1.06463e-09
-2.86828e-09
6.70534e-10
-2.7731e-09
3.30785e-10
-2.94641e-09
-2.60254e-10
-2.91451e-09
-4.19807e-10
-2.47743e-09
-1.10476e-09
-2.59371e-09
-8.7882e-10
-2.40039e-09
-1.43013e-09
-2.14434e-09
-1.78429e-09
-1.97532e-09
-1.86953e-09
-1.74942e-09
-2.05383e-09
-1.50994e-09
-2.07575e-09
-1.15471e-09
-2.0043e-09
-9.4936e-10
-1.79587e-09
-8.02358e-10
-1.71775e-09
-6.46386e-10
-1.67457e-09
-5.25784e-10
-1.59474e-09
-4.19369e-10
-1.56646e-09
-2.21857e-10
-1.56432e-09
-5.0287e-11
-1.5522e-09
2.38336e-10
-1.35181e-09
5.64317e-10
-1.13196e-09
7.78417e-10
-9.45267e-10
9.00674e-10
-7.39104e-10
1.08905e-09
-9.43833e-10
1.34775e-09
-8.74188e-10
1.56755e-09
-7.94401e-10
1.73814e-09
-6.21644e-10
1.92065e-09
-3.80981e-10
2.10348e-09
-1.5541e-10
2.26317e-09
-1.51901e-10
2.39489e-09
-1.33132e-10
2.49986e-09
-9.82017e-11
2.66062e-09
4.43457e-11
2.7167e-09
-1.15683e-10
2.87163e-09
-3.50721e-10
2.91422e-09
-4.51505e-10
2.87283e-09
-4.3987e-10
2.87307e-09
-5.53105e-10
2.84027e-09
-4.64826e-10
2.81197e-09
-3.68685e-10
2.76611e-09
-2.94449e-10
2.64368e-09
-2.21807e-10
2.56817e-09
-2.55581e-10
2.49051e-09
-1.09641e-10
2.42314e-09
-6.97613e-11
2.41621e-09
-3.79616e-11
2.29073e-09
-2.20462e-11
2.30428e-09
5.02438e-11
2.19299e-09
1.12048e-10
2.19913e-09
1.5425e-10
2.18571e-09
1.92842e-10
2.20772e-09
2.82752e-10
2.11668e-09
3.20538e-10
2.16813e-09
4.68495e-10
2.11006e-09
5.6007e-10
2.17103e-09
6.72492e-10
2.1577e-09
7.91911e-10
2.19751e-09
1.01691e-09
2.25613e-09
1.16498e-09
2.28211e-09
1.43817e-09
2.17734e-09
1.81345e-09
2.22803e-09
1.75414e-09
2.14227e-09
1.98093e-09
1.98005e-09
1.81159e-09
1.75173e-09
2.19071e-09
8.8445e-10
1.65491e-09
5.31725e-10
1.38209e-09
1.78512e-10
8.64455e-10
2.5792e-16
-1.54166e-09
-1.12437e-17
-6.39907e-18
-8.86347e-18
-7.80301e-19
-7.45677e-18
-2.09551e-19
-6.59236e-18
-3.33466e-19
-5.98139e-18
-7.24668e-19
-5.46363e-18
-1.18979e-18
-4.96053e-18
-1.64394e-18
-4.43826e-18
-2.04971e-18
-3.88631e-18
-2.39009e-18
-3.30629e-18
-2.6573e-18
-2.7061e-18
-2.84837e-18
-2.09673e-18
-2.96342e-18
-1.4904e-18
-3.00498e-18
-8.99273e-19
-2.97762e-18
-3.34681e-19
-2.8876e-18
1.93463e-19
-2.74252e-18
6.76986e-19
-2.55091e-18
1.10961e-18
-2.32176e-18
1.48699e-18
-2.06414e-18
1.80658e-18
-1.78684e-18
2.06751e-18
-1.49802e-18
2.2703e-18
-1.20501e-18
2.41668e-18
-9.14173e-19
2.50929e-18
-6.3084e-19
2.55144e-18
-3.59291e-19
2.54691e-18
-1.02819e-19
2.49974e-18
1.36188e-19
2.4141e-18
3.56135e-19
2.29412e-18
5.56094e-19
2.14386e-18
7.35681e-19
1.9672e-18
8.94928e-19
1.76783e-18
1.03417e-18
1.5492e-18
1.15394e-18
1.31456e-18
1.2549e-18
1.06692e-18
1.33771e-18
8.09138e-19
1.40305e-18
5.43886e-19
1.4515e-18
2.73725e-19
1.48351e-18
1.49941e-18
-2.40594e-10
1.09812e-09
-4.69278e-10
1.2896e-09
-7.06611e-10
1.4241e-09
-8.6712e-10
1.76703e-09
-1.15285e-09
1.81579e-09
-1.42151e-09
2.04834e-09
-1.90601e-09
2.19701e-09
-2.27062e-09
2.22879e-09
-2.45974e-09
2.04503e-09
-2.47842e-09
1.49224e-09
-2.48312e-09
1.25561e-09
-2.47086e-09
1.05237e-09
-2.5179e-09
7.17577e-10
-2.54642e-09
3.59303e-10
-2.62041e-09
-1.86267e-10
-2.67955e-09
-3.60661e-10
-2.30657e-09
-1.47775e-09
-2.43416e-09
-7.51234e-10
-2.33323e-09
-1.53105e-09
-2.11664e-09
-2.00088e-09
-2.00741e-09
-1.97875e-09
-1.71474e-09
-2.3465e-09
-1.46906e-09
-2.32144e-09
-1.25546e-09
-2.2179e-09
-1.11702e-09
-1.93431e-09
-9.27328e-10
-1.90744e-09
-7.53086e-10
-1.84881e-09
-5.67459e-10
-1.78037e-09
-3.22864e-10
-1.81106e-09
-1.87429e-10
-1.69975e-09
-2.04457e-10
-1.53517e-09
-1.62258e-10
-1.39401e-09
2.80103e-11
-1.32222e-09
3.38907e-10
-1.25616e-09
7.67052e-10
-1.16725e-09
9.09835e-10
-1.08661e-09
1.00317e-09
-9.67524e-10
1.18492e-09
-9.76143e-10
1.38672e-09
-8.23445e-10
1.6055e-09
-5.99754e-10
1.86064e-09
-4.10548e-10
2.09558e-09
-3.86839e-10
2.27601e-09
-3.13563e-10
2.34509e-09
-1.67272e-10
2.50842e-09
-1.18985e-10
2.65346e-09
-2.6072e-10
2.68048e-09
-3.77739e-10
2.68261e-09
-4.53636e-10
2.63395e-09
-3.9121e-10
2.55674e-09
-4.7589e-10
2.49654e-09
-4.04627e-10
2.46464e-09
-3.36783e-10
2.3996e-09
-2.29406e-10
2.285e-09
-1.07204e-10
2.2492e-09
-2.19779e-10
2.16487e-09
-2.53096e-11
2.0968e-09
-1.68776e-12
2.09893e-09
-4.00952e-11
2.0353e-09
4.15833e-11
1.98631e-09
9.92349e-11
1.999e-09
9.93619e-11
1.93503e-09
2.18218e-10
1.89425e-09
2.33618e-10
1.90413e-09
2.7288e-10
1.84414e-09
3.80519e-10
1.85136e-09
4.61275e-10
1.87067e-09
5.40765e-10
1.94094e-09
6.02223e-10
1.9627e-09
7.70152e-10
2.00041e-09
9.79189e-10
2.10811e-09
1.05729e-09
2.16377e-09
1.3825e-09
2.27936e-09
1.69787e-09
2.21361e-09
1.81989e-09
2.02105e-09
2.17348e-09
1.73496e-09
2.09769e-09
1.78786e-09
2.1378e-09
1.46738e-09
1.97539e-09
1.22617e-09
1.6233e-09
6.78032e-10
1.41259e-09
1.33887e-16
-8.63628e-10
-9.05595e-18
-5.35128e-18
-8.29244e-18
-1.54399e-18
-7.58035e-18
-9.21387e-19
-6.98347e-18
-9.29337e-19
-6.44651e-18
-1.25996e-18
-5.91779e-18
-1.7163e-18
-5.3663e-18
-2.19281e-18
-4.77864e-18
-2.63445e-18
-4.15352e-18
-3.01208e-18
-3.49736e-18
-3.31025e-18
-2.82114e-18
-3.52139e-18
-2.13829e-18
-3.6432e-18
-1.46303e-18
-3.67738e-18
-8.09253e-19
-3.62882e-18
-1.89604e-19
-3.50498e-18
3.85079e-19
-3.31523e-18
9.06137e-19
-3.07024e-18
1.36723e-18
-2.78131e-18
1.76429e-18
-2.45981e-18
2.09541e-18
-2.11663e-18
2.36052e-18
-1.76183e-18
2.56113e-18
-1.40432e-18
2.70002e-18
-1.05172e-18
2.78084e-18
-7.10279e-19
2.80792e-18
-3.84919e-19
2.78592e-18
-7.93073e-20
2.71969e-18
2.04005e-19
2.61405e-18
4.63431e-19
2.4737e-18
6.98178e-19
2.30311e-18
9.08084e-19
2.10644e-18
1.09346e-18
1.8876e-18
1.25494e-18
1.65016e-18
1.39338e-18
1.39737e-18
1.50971e-18
1.13226e-18
1.6049e-18
8.5758e-19
1.67983e-18
5.75898e-19
1.73529e-18
2.89632e-19
1.7719e-18
1.79007e-18
-2.04451e-10
1.30257e-09
-5.80524e-10
1.66567e-09
-1.02148e-09
1.86506e-09
-1.35266e-09
2.09821e-09
-1.80057e-09
2.26369e-09
-2.06441e-09
2.31218e-09
-2.12518e-09
2.25778e-09
-2.11105e-09
2.21467e-09
-2.1781e-09
2.11207e-09
-2.24492e-09
1.55907e-09
-2.24821e-09
1.2589e-09
-2.09667e-09
9.00828e-10
-2.0706e-09
6.91507e-10
-2.12302e-09
4.11716e-10
-2.23824e-09
-7.10442e-11
-2.13329e-09
-4.6561e-10
-2.18714e-09
-1.4239e-09
-2.07799e-09
-8.60381e-10
-2.01329e-09
-1.59575e-09
-1.9694e-09
-2.04477e-09
-1.84007e-09
-2.10809e-09
-1.71623e-09
-2.47033e-09
-1.58851e-09
-2.44916e-09
-1.33404e-09
-2.47237e-09
-9.96574e-10
-2.27177e-09
-8.54287e-10
-2.04973e-09
-7.68513e-10
-1.93458e-09
-5.56213e-10
-1.99266e-09
-2.74878e-10
-2.09239e-09
-8.04928e-11
-1.89413e-09
-3.4731e-11
-1.58093e-09
-4.36631e-11
-1.38508e-09
6.03099e-12
-1.37191e-09
6.68915e-11
-1.31702e-09
2.792e-10
-1.37955e-09
5.43652e-10
-1.35106e-09
8.258e-10
-1.24967e-09
1.01607e-09
-1.16642e-09
1.22441e-09
-1.03178e-09
1.47863e-09
-8.53973e-10
1.70486e-09
-6.36774e-10
1.91319e-09
-5.95165e-10
2.1451e-09
-5.45465e-10
2.29772e-09
-3.19895e-10
2.41273e-09
-2.33991e-10
2.47323e-09
-3.21216e-10
2.45071e-09
-3.55219e-10
2.43773e-09
-4.40651e-10
2.38125e-09
-3.3473e-10
2.30342e-09
-3.98054e-10
2.19102e-09
-2.92234e-10
2.1161e-09
-2.61858e-10
2.06779e-09
-1.8109e-10
1.99179e-09
-3.12072e-11
1.94963e-09
-1.77619e-10
1.96687e-09
-4.25473e-11
1.89599e-09
6.91936e-11
1.87612e-09
-2.02244e-11
1.84359e-09
7.41156e-11
1.78146e-09
1.61368e-10
1.74155e-09
1.39264e-10
1.73281e-09
2.26966e-10
1.68252e-09
2.83906e-10
1.64597e-09
3.09428e-10
1.60845e-09
4.18042e-10
1.6143e-09
4.55425e-10
1.64976e-09
5.05306e-10
1.63769e-09
6.1429e-10
1.62355e-09
7.84293e-10
1.68768e-09
9.15056e-10
1.58468e-09
1.16029e-09
1.49329e-09
1.47388e-09
1.60611e-09
1.58505e-09
1.74739e-09
1.67861e-09
1.87538e-09
2.04549e-09
1.75727e-09
2.2158e-09
1.62965e-09
2.26541e-09
1.404e-09
2.20105e-09
1.18015e-09
1.84714e-09
8.43181e-10
1.74956e-09
-5.14337e-17
-2.04465e-11
-7.71397e-18
-6.63554e-18
-7.66954e-18
-1.58827e-18
-7.58798e-18
-1.00185e-18
-7.31396e-18
-1.20134e-18
-6.90285e-18
-1.6683e-18
-6.39431e-18
-2.22143e-18
-5.80793e-18
-2.77526e-18
-5.15628e-18
-3.28178e-18
-4.45169e-18
-3.71207e-18
-3.70849e-18
-4.04872e-18
-2.94296e-18
-4.28224e-18
-2.17247e-18
-4.40921e-18
-1.41447e-18
-4.43126e-18
-6.85408e-19
-4.35423e-18
1.46408e-22
-4.18738e-18
6.30071e-19
-3.9425e-18
1.19506e-18
-3.63301e-18
1.68873e-18
-3.27311e-18
2.10747e-18
-2.87694e-18
2.45021e-18
-2.45793e-18
2.71803e-18
-2.02831e-18
2.91374e-18
-1.59873e-18
3.04146e-18
-1.17813e-18
3.1062e-18
-7.73686e-19
3.11353e-18
-3.90856e-19
3.06923e-18
-3.35622e-20
2.97912e-18
2.9564e-19
2.8488e-18
5.95335e-19
2.68361e-18
8.65032e-19
2.48848e-18
1.10495e-18
2.26793e-18
1.31581e-18
2.02604e-18
1.49868e-18
1.76649e-18
1.65483e-18
1.49256e-18
1.78559e-18
1.2072e-18
1.89225e-18
9.1304e-19
1.976e-18
6.12501e-19
2.03786e-18
3.07806e-19
2.07863e-18
2.09885e-18
-2.83487e-10
1.58605e-09
-4.7803e-10
1.86021e-09
-8.02689e-10
2.18971e-09
-9.54058e-10
2.24958e-09
-1.15082e-09
2.46045e-09
-1.36665e-09
2.52801e-09
-1.70489e-09
2.59603e-09
-1.96258e-09
2.47235e-09
-1.94937e-09
2.09887e-09
-2.06254e-09
1.67223e-09
-1.96773e-09
1.16409e-09
-1.92806e-09
8.61161e-10
-1.89068e-09
6.5412e-10
-1.85769e-09
3.78729e-10
-1.87258e-09
-5.61547e-11
-1.89258e-09
-4.4561e-10
-2.20973e-09
-1.10675e-09
-2.02473e-09
-1.04539e-09
-1.91918e-09
-1.7013e-09
-1.87291e-09
-2.09104e-09
-1.74723e-09
-2.23376e-09
-1.6275e-09
-2.59006e-09
-1.4352e-09
-2.64145e-09
-1.19422e-09
-2.71335e-09
-8.68322e-10
-2.59767e-09
-7.46245e-10
-2.17181e-09
-6.33881e-10
-2.04694e-09
-4.11641e-10
-2.2149e-09
-1.35254e-10
-2.36877e-09
1.37125e-10
-2.16651e-09
2.10335e-10
-1.65414e-09
1.68001e-10
-1.34274e-09
1.23064e-10
-1.32698e-09
1.28005e-10
-1.32196e-09
1.70476e-10
-1.42202e-09
2.78299e-10
-1.45888e-09
5.07032e-10
-1.4784e-09
7.57199e-10
-1.41658e-09
1.0185e-09
-1.29308e-09
1.31244e-09
-1.14792e-09
1.51268e-09
-8.3701e-10
1.70412e-09
-7.866e-10
1.93347e-09
-7.74818e-10
2.05453e-09
-4.40948e-10
2.15224e-09
-3.31703e-10
2.1573e-09
-3.26268e-10
2.13247e-09
-3.30392e-10
2.07474e-09
-3.8292e-10
2.04052e-09
-3.00508e-10
1.97685e-09
-3.34377e-10
1.98817e-09
-3.03556e-10
1.91775e-09
-1.91436e-10
1.86566e-09
-1.28995e-10
1.84021e-09
-5.76211e-12
1.74961e-09
-8.70169e-11
1.74407e-09
-3.69996e-11
1.70256e-09
1.10699e-10
1.65731e-09
2.50265e-11
1.60452e-09
1.26909e-10
1.5924e-09
1.73484e-10
1.51731e-09
2.14356e-10
1.51e-09
2.3428e-10
1.48136e-09
3.12541e-10
1.41092e-09
3.79866e-10
1.41586e-09
4.13109e-10
1.42003e-09
4.51256e-10
1.39525e-09
5.3008e-10
1.36494e-09
6.44604e-10
1.43471e-09
7.14524e-10
1.4972e-09
8.52562e-10
1.57566e-09
1.08183e-09
1.80158e-09
1.24796e-09
1.8065e-09
1.58013e-09
1.55947e-09
1.92564e-09
1.34152e-09
2.26344e-09
1.32197e-09
2.23535e-09
1.37528e-09
2.21211e-09
1.32858e-09
2.24775e-09
1.28882e-09
1.88691e-09
1.09919e-09
1.93918e-09
-3.019e-16
1.07875e-09
-4.29784e-18
4.53482e-18
-7.08278e-18
1.19724e-18
-7.78712e-18
-2.95385e-19
-7.78074e-18
-1.20457e-18
-7.45598e-18
-1.98906e-18
-6.94814e-18
-2.72453e-18
-6.31445e-18
-3.40357e-18
-5.58657e-18
-4.00372e-18
-4.78835e-18
-4.50396e-18
-3.94201e-18
-4.88852e-18
-3.06992e-18
-5.14781e-18
-2.19452e-18
-5.27836e-18
-1.33745e-18
-5.28257e-18
-5.18557e-19
-5.16803e-18
2.45032e-19
-4.94662e-18
9.39559e-19
-4.63342e-18
1.55496e-18
-4.24548e-18
2.0849e-18
-3.80067e-18
2.52647e-18
-3.31657e-18
2.87983e-18
-2.80966e-18
3.1476e-18
-2.29464e-18
3.33434e-18
-1.78413e-18
3.44591e-18
-1.28841e-18
3.48903e-18
-8.15515e-19
3.47082e-18
-3.71316e-19
3.39843e-18
4.02072e-20
3.27881e-18
4.16706e-19
3.1185e-18
7.57161e-19
2.92353e-18
1.06159e-18
2.69934e-18
1.33078e-18
2.4508e-18
1.56606e-18
2.18219e-18
1.76907e-18
1.89725e-18
1.9416e-18
1.59922e-18
2.08548e-18
1.29095e-18
2.20242e-18
9.74901e-19
2.29398e-18
6.53268e-19
2.36144e-18
3.28029e-19
2.40582e-18
2.42781e-18
-1.22388e-10
1.70844e-09
-3.417e-10
2.07952e-09
-5.66072e-10
2.41408e-09
-9.14691e-10
2.5982e-09
-1.23924e-09
2.785e-09
-1.47627e-09
2.76504e-09
-1.58187e-09
2.70162e-09
-1.60806e-09
2.49854e-09
-1.50117e-09
1.99198e-09
-1.55417e-09
1.72523e-09
-1.60505e-09
1.21497e-09
-1.62033e-09
8.76439e-10
-1.59465e-09
6.28445e-10
-1.62692e-09
4.10997e-10
-1.59219e-09
-9.08904e-11
-1.52886e-09
-5.08933e-10
-1.71854e-09
-9.17076e-10
-1.74143e-09
-1.02249e-09
-1.77679e-09
-1.66594e-09
-1.83794e-09
-2.0299e-09
-1.67854e-09
-2.39316e-09
-1.55529e-09
-2.71331e-09
-1.33211e-09
-2.86463e-09
-1.13892e-09
-2.90655e-09
-8.2693e-10
-2.90965e-09
-4.97581e-10
-2.50115e-09
-4.08086e-10
-2.13644e-09
-2.16067e-10
-2.40692e-09
1.35738e-12
-2.5862e-09
2.46126e-10
-2.41128e-09
4.04441e-10
-1.81245e-09
3.54503e-10
-1.2928e-09
2.71848e-10
-1.24432e-09
2.76024e-10
-1.32613e-09
3.47349e-10
-1.49334e-09
4.35813e-10
-1.54734e-09
5.41657e-10
-1.58424e-09
6.78671e-10
-1.55359e-09
8.45177e-10
-1.45958e-09
1.05141e-09
-1.35415e-09
1.23675e-09
-1.02234e-09
1.43562e-09
-9.85474e-10
1.55422e-09
-8.93415e-10
1.62604e-09
-5.12763e-10
1.71491e-09
-4.20574e-10
1.7459e-09
-3.57251e-10
1.76477e-09
-3.49265e-10
1.77403e-09
-3.92178e-10
1.7781e-09
-3.0457e-10
1.7197e-09
-2.75983e-10
1.72987e-09
-3.13723e-10
1.71202e-09
-1.73583e-10
1.64676e-09
-6.37349e-11
1.63827e-09
2.73403e-12
1.59557e-09
-4.43198e-11
1.53123e-09
2.73357e-11
1.51105e-09
1.3088e-10
1.47461e-09
6.1474e-11
1.41621e-09
1.85305e-10
1.36735e-09
2.22343e-10
1.3487e-09
2.3301e-10
1.26968e-09
3.13296e-10
1.25632e-09
3.25902e-10
1.24642e-09
3.89769e-10
1.24389e-09
4.15638e-10
1.20684e-09
4.88305e-10
1.17149e-09
5.65432e-10
1.198e-09
6.18097e-10
1.16062e-09
7.51903e-10
1.10895e-09
9.04235e-10
1.02375e-09
1.16703e-09
1.01576e-09
1.25595e-09
1.19787e-09
1.39802e-09
1.4257e-09
1.69781e-09
1.52087e-09
2.16827e-09
1.36974e-09
2.38648e-09
1.19922e-09
2.38263e-09
9.66717e-10
2.48025e-09
6.47641e-10
2.20599e-09
3.52159e-10
2.23467e-09
-5.88398e-16
1.43091e-09
-8.59546e-18
2.13351e-18
-8.57491e-18
1.17776e-18
-8.69591e-18
-1.71206e-19
-8.56501e-18
-1.3312e-18
-8.19145e-18
-2.35741e-18
-7.62718e-18
-3.28273e-18
-6.9146e-18
-4.10927e-18
-6.08681e-18
-4.82392e-18
-5.17292e-18
-5.40969e-18
-4.20129e-18
-5.85166e-18
-3.20048e-18
-6.14008e-18
-2.19873e-18
-6.27182e-18
-1.22291e-18
-6.25069e-18
-2.97148e-19
-6.08691e-18
5.58233e-19
-5.79611e-18
1.32749e-18
-5.39781e-18
1.99978e-18
-4.91386e-18
2.569e-18
-4.36681e-18
3.03339e-18
-3.77854e-18
3.39484e-18
-3.16917e-18
3.65812e-18
-2.55631e-18
3.83005e-18
-1.95465e-18
3.9188e-18
-1.37586e-18
3.93323e-18
-8.28671e-19
3.88234e-18
-3.19153e-19
3.77493e-18
1.48935e-19
3.61927e-18
5.73742e-19
3.42293e-18
9.54931e-19
3.19272e-18
1.2933e-18
2.93462e-18