/*--------------------------------*- C++ -*----------------------------------*\
  =========                 |
  \\      /  F ield         | OpenFOAM: The Open Source CFD Toolbox
   \\    /   O peration     | Website:  https://openfoam.org
    \\  /    A nd           | Version:  6
     \\/     M anipulation  |
\*---------------------------------------------------------------------------*/
FoamFile
{
    version     2.0;
    format      ascii;
    class       volScalarField;
    location    "2650";
    object      T;
}
// * * * * * * * * * * * * * * * * * * * * * * * * * * * * * * * * * * * * * //

dimensions      [0 0 0 1 0 0 0];

internalField   nonuniform List<scalar> 
4800
(
552.44
552.222
552.005
551.791
551.584
551.384
551.193
551.014
550.848
550.696
550.559
550.437
550.328
550.231
550.146
550.069
549.999
549.935
549.875
549.819
549.764
549.712
549.661
549.61
549.558
549.506
549.455
549.403
549.351
549.298
549.245
549.191
549.136
549.081
549.026
548.97
548.915
548.859
548.803
548.746
548.69
548.634
548.577
548.522
548.467
548.412
548.358
548.306
548.255
548.204
548.155
548.106
548.057
548.008
547.96
547.911
547.861
547.811
547.76
547.707
547.651
547.593
547.532
547.466
547.395
547.318
547.232
547.137
547.03
546.908
546.77
546.615
546.446
546.265
546.076
545.881
545.68
545.475
545.268
545.064
544.884
544.766
544.675
544.588
544.498
544.404
544.307
544.205
544.101
543.995
543.887
543.778
543.667
543.557
543.445
543.333
543.221
543.108
542.995
542.882
542.769
542.655
542.542
542.428
542.315
542.201
542.087
541.974
541.86
541.746
541.632
541.518
541.404
541.291
541.177
541.063
540.949
540.835
540.721
540.607
552.44
552.219
552.001
551.787
551.579
551.379
551.189
551.011
550.847
550.696
550.56
550.439
550.331
550.235
550.151
550.074
550.004
549.94
549.88
549.823
549.768
549.715
549.663
549.61
549.558
549.505
549.453
549.4
549.347
549.293
549.239
549.185
549.13
549.074
549.018
548.963
548.907
548.851
548.794
548.738
548.682
548.626
548.57
548.514
548.459
548.404
548.35
548.298
548.246
548.196
548.146
548.097
548.048
547.999
547.951
547.902
547.852
547.802
547.75
547.697
547.641
547.583
547.522
547.456
547.385
547.308
547.223
547.129
547.024
546.906
546.774
546.627
546.465
546.289
546.102
545.905
545.701
545.491
545.271
545.04
544.821
544.741
544.669
544.59
544.502
544.408
544.31
544.208
544.103
543.996
543.888
543.778
543.668
543.557
543.445
543.333
543.22
543.108
542.995
542.882
542.768
542.655
542.542
542.428
542.314
542.201
542.087
541.973
541.86
541.746
541.632
541.518
541.404
541.29
541.177
541.063
540.949
540.835
540.721
540.607
552.439
552.217
551.998
551.783
551.574
551.374
551.186
551.009
550.847
550.698
550.565
550.445
550.339
550.245
550.161
550.085
550.016
549.951
549.89
549.832
549.776
549.721
549.667
549.612
549.558
549.504
549.449
549.394
549.339
549.284
549.229
549.173
549.117
549.06
549.003
548.947
548.89
548.834
548.778
548.722
548.666
548.61
548.554
548.498
548.443
548.388
548.334
548.281
548.229
548.178
548.128
548.079
548.03
547.981
547.933
547.883
547.833
547.783
547.731
547.677
547.621
547.563
547.501
547.436
547.365
547.289
547.205
547.113
547.011
546.898
546.772
546.632
546.478
546.31
546.128
545.934
545.729
545.513
545.278
545.004
544.617
544.706
544.672
544.6
544.512
544.416
544.316
544.212
544.106
543.999
543.89
543.779
543.669
543.557
543.445
543.333
543.22
543.107
542.994
542.881
542.768
542.655
542.541
542.428
542.314
542.2
542.087
541.973
541.859
541.746
541.632
541.518
541.404
541.29
541.176
541.063
540.949
540.835
540.721
540.607
552.438
552.215
551.995
551.779
551.571
551.372
551.185
551.01
550.85
550.704
550.574
550.457
550.353
550.261
550.178
550.102
550.033
549.968
549.906
549.847
549.789
549.731
549.674
549.618
549.561
549.503
549.446
549.388
549.329
549.271
549.213
549.155
549.097
549.039
548.981
548.923
548.866
548.809
548.753
548.697
548.641
548.585
548.53
548.474
548.419
548.364
548.31
548.257
548.205
548.153
548.103
548.053
548.004
547.954
547.905
547.856
547.805
547.754
547.702
547.648
547.592
547.534
547.472
547.407
547.337
547.261
547.179
547.089
546.991
546.882
546.762
546.629
546.483
546.323
546.148
545.961
545.759
545.546
545.323
545.091
544.877
544.793
544.714
544.626
544.53
544.429
544.325
544.219
544.111
544.002
543.892
543.781
543.67
543.558
543.445
543.333
543.22
543.107
542.994
542.881
542.767
542.654
542.541
542.427
542.314
542.2
542.086
541.973
541.859
541.745
541.631
541.518
541.404
541.29
541.176
541.062
540.949
540.835
540.721
540.607
552.438
552.214
551.994
551.779
551.571
551.373
551.187
551.015
550.857
550.716
550.589
550.475
550.374
550.283
550.201
550.126
550.056
549.99
549.927
549.866
549.806
549.746
549.686
549.626
549.565
549.504
549.443
549.381
549.319
549.257
549.196
549.135
549.074
549.013
548.953
548.893
548.835
548.777
548.72
548.664
548.608
548.552
548.497
548.442
548.387
548.332
548.278
548.224
548.172
548.12
548.069
548.019
547.969
547.919
547.869
547.82
547.769
547.718
547.665
547.611
547.555
547.496
547.435
547.37
547.3
547.226
547.146
547.058
546.963
546.859
546.744
546.617
546.479
546.326
546.16
545.981
545.788
545.585
545.378
545.178
545.005
544.875
544.764
544.658
544.552
544.445
544.336
544.227
544.117
544.006
543.895
543.783
543.671
543.558
543.446
543.333
543.22
543.107
542.993
542.88
542.767
542.653
542.54
542.426
542.313
542.199
542.086
541.972
541.858
541.745
541.631
541.517
541.403
541.29
541.176
541.062
540.948
540.835
540.721
540.607
552.438
552.215
551.996
551.781
551.574
551.378
551.195
551.026
550.872
550.734
550.611
550.5
550.401
550.312
550.231
550.156
550.086
550.019
549.954
549.891
549.828
549.765
549.702
549.638
549.574
549.508
549.443
549.376
549.31
549.244
549.178
549.112
549.048
548.984
548.921
548.858
548.797
548.738
548.68
548.623
548.567
548.511
548.456
548.401
548.346
548.291
548.237
548.183
548.13
548.078
548.027
547.976
547.926
547.876
547.826
547.776
547.725
547.674
547.621
547.567
547.51
547.452
547.391
547.326
547.258
547.185
547.106
547.021
546.928
546.828
546.718
546.597
546.465
546.321
546.164
545.994
545.812
545.623
545.431
545.248
545.083
544.938
544.81
544.69
544.575
544.461
544.348
544.236
544.123
544.01
543.898
543.785
543.672
543.559
543.445
543.332
543.219
543.106
542.992
542.879
542.766
542.652
542.539
542.425
542.312
542.198
542.085
541.971
541.858
541.744
541.63
541.517
541.403
541.289
541.176
541.062
540.948
540.834
540.721
540.607
552.439
552.217
551.999
551.786
551.582
551.389
551.209
551.044
550.894
550.76
550.64
550.533
550.436
550.348
550.267
550.192
550.122
550.053
549.987
549.921
549.856
549.79
549.723
549.655
549.586
549.516
549.446
549.375
549.304
549.232
549.161
549.091
549.021
548.953
548.886
548.82
548.756
548.694
548.634
548.576
548.519
548.463
548.407
548.352
548.298
548.243
548.189
548.135
548.081
548.029
547.978
547.927
547.877
547.827
547.777
547.726
547.675
547.624
547.571
547.517
547.461
547.402
547.341
547.277
547.209
547.137
547.06
546.977
546.888
546.79
546.685
546.57
546.444
546.307
546.158
545.998
545.827
545.651
545.472
545.297
545.134
544.983
544.846
544.718
544.596
544.477
544.36
544.244
544.129
544.014
543.9
543.786
543.672
543.559
543.445
543.332
543.218
543.105
542.991
542.878
542.764
542.651
542.537
542.424
542.311
542.197
542.084
541.97
541.857
541.743
541.63
541.516
541.402
541.289
541.175
541.061
540.948
540.834
540.721
540.607
552.44
552.22
552.004
551.793
551.592
551.403
551.228
551.067
550.923
550.793
550.677
550.572
550.477
550.39
550.31
550.235
550.163
550.093
550.025
549.957
549.889
549.819
549.748
549.676
549.603
549.528
549.452
549.376
549.3
549.224
549.147
549.071
548.996
548.922
548.849
548.779
548.712
548.647
548.584
548.524
548.466
548.409
548.352
548.297
548.242
548.187
548.133
548.079
548.026
547.973
547.922
547.871
547.821
547.771
547.721
547.671
547.62
547.569
547.516
547.462
547.406
547.348
547.287
547.224
547.156
547.085
547.009
546.928
546.841
546.747
546.645
546.535
546.415
546.285
546.144
545.992
545.832
545.665
545.496
545.329
545.167
545.015
544.873
544.74
544.613
544.49
544.369
544.251
544.134
544.018
543.902
543.787
543.673
543.558
543.444
543.33
543.217
543.103
542.99
542.876
542.763
542.649
542.536
542.422
542.309
542.196
542.082
541.969
541.856
541.742
541.629
541.515
541.402
541.288
541.175
541.061
540.947
540.834
540.72
540.607
552.441
552.225
552.013
551.806
551.61
551.425
551.254
551.098
550.958
550.832
550.719
550.616
550.523
550.437
550.357
550.282
550.209
550.137
550.068
549.997
549.926
549.853
549.778
549.702
549.624
549.544
549.463
549.382
549.3
549.218
549.136
549.054
548.972
548.891
548.813
548.738
548.666
548.597
548.531
548.468
548.408
548.349
548.291
548.235
548.18
548.125
548.07
548.017
547.964
547.912
547.861
547.81
547.761
547.711
547.661
547.611
547.56
547.509
547.456
547.402
547.347
547.289
547.229
547.166
547.099
547.029
546.955
546.875
546.79
546.699
546.601
546.495
546.381
546.256
546.122
545.978
545.826
545.668
545.507
545.346
545.187
545.035
544.892
544.756
544.626
544.5
544.377
544.256
544.138
544.02
543.903
543.788
543.672
543.557
543.443
543.329
543.215
543.101
542.988
542.874
542.761
542.647
542.534
542.421
542.307
542.194
542.081
541.968
541.854
541.741
541.628
541.514
541.401
541.287
541.174
541.061
540.947
540.834
540.72
540.607
552.444
552.232
552.024
551.822
551.63
551.45
551.284
551.133
550.998
550.876
550.766
550.666
550.573
550.488
550.409
550.333
550.259
550.187
550.115
550.042
549.968
549.891
549.813
549.732
549.649
549.564
549.478
549.39
549.302
549.214
549.125
549.037
548.949
548.862
548.777
548.696
548.619
548.545
548.475
548.409
548.345
548.284
548.226
548.169
548.113
548.057
548.003
547.949
547.897
547.845
547.794
547.745
547.695
547.646
547.596
547.546
547.496
547.445
547.392
547.339
547.283
547.226
547.166
547.104
547.038
546.969
546.896
546.818
546.735
546.647
546.552
546.45
546.34
546.222
546.095
545.958
545.813
545.662
545.507
545.35
545.195
545.046
544.903
544.766
544.634
544.506
544.382
544.26
544.14
544.021
543.903
543.787
543.671
543.556
543.441
543.327
543.213
543.099
542.985
542.872
542.758
542.645
542.532
542.419
542.306
542.192
542.079
541.966
541.853
541.74
541.626
541.513
541.4
541.287
541.173
541.06
540.947
540.833
540.72
540.607
552.446
552.24
552.036
551.839
551.652
551.478
551.318
551.173
551.042
550.924
550.817
550.719
550.628
550.543
550.464
550.388
550.313
550.24
550.166
550.091
550.014
549.934
549.851
549.765
549.677
549.587
549.495
549.401
549.306
549.211
549.116
549.021
548.925
548.832
548.741
548.653
548.57
548.492
548.417
548.347
548.281
548.217
548.156
548.098
548.041
547.985
547.93
547.877
547.825
547.774
547.724
547.674
547.626
547.577
547.527
547.478
547.428
547.377
547.325
547.272
547.217
547.16
547.101
547.039
546.974
546.906
546.834
546.758
546.677
546.592
546.5
546.401
546.296
546.182
546.061
545.931
545.793
545.648
545.499
545.348
545.197
545.049
544.907
544.77
544.638
544.509
544.384
544.261
544.14
544.02
543.902
543.785
543.669
543.553
543.438
543.324
543.21
543.096
542.982
542.869
542.756
542.643
542.53
542.416
542.303
542.19
542.077
541.964
541.851
541.738
541.625
541.512
541.399
541.286
541.173
541.059
540.946
540.833
540.72
540.607
552.448
552.246
552.048
551.858
551.678
551.511
551.357
551.217
551.09
550.975
550.871
550.774
550.685
550.601
550.522
550.445
550.37
550.296
550.22
550.143
550.063
549.979
549.892
549.802
549.708
549.612
549.513
549.413
549.311
549.209
549.106
549.003
548.901
548.8
548.703
548.609
548.521
548.437
548.358
548.284
548.214
548.147
548.084
548.024
547.966
547.91
547.855
547.802
547.75
547.699
547.65
547.601
547.552
547.504
547.455
547.406
547.356
547.305
547.254
547.201
547.146
547.09
547.032
546.971
546.907
546.84
546.77
546.695
546.616
546.533
546.444
546.349
546.247
546.139
546.022
545.898
545.767
545.629
545.486
545.34
545.192
545.047
544.906
544.77
544.638
544.509
544.383
544.259
544.138
544.018
543.899
543.782
543.666
543.55
543.435
543.321
543.206
543.093
542.979
542.866
542.753
542.64
542.527
542.414
542.301
542.188
542.075
541.963
541.85
541.737
541.624
541.511
541.398
541.285
541.172
541.059
540.946
540.833
540.72
540.607
552.451
552.255
552.064
551.88
551.707
551.545
551.396
551.261
551.139
551.028
550.926
550.832
550.744
550.661
550.582
550.505
550.43
550.354
550.276
550.196
550.113
550.027
549.936
549.84
549.74
549.637
549.531
549.424
549.315
549.205
549.094
548.984
548.875
548.767
548.663
548.564
548.47
548.381
548.298
548.22
548.146
548.076
548.011
547.948
547.889
547.832
547.776
547.723
547.672
547.622
547.572
547.524
547.476
547.427
547.379
547.33
547.281
547.231
547.18
547.127
547.073
547.018
546.96
546.9
546.837
546.771
546.702
546.63
546.553
546.472
546.385
546.294
546.196
546.092
545.981
545.862
545.737
545.604
545.467
545.326
545.182
545.039
544.901
544.766
544.634
544.505
544.379
544.256
544.134
544.014
543.895
543.778
543.661
543.546
543.431
543.316
543.202
543.089
542.975
542.862
542.749
542.637
542.524
542.411
542.298
542.186
542.073
541.961
541.848
541.735
541.622
541.51
541.397
541.284
541.171
541.058
540.945
540.832
540.719
540.606
552.455
552.267
552.083
551.906
551.739
551.584
551.441
551.311
551.193
551.084
550.985
550.892
550.805
550.723
550.644
550.567
550.491
550.413
550.334
550.252
550.166
550.075
549.979
549.878
549.771
549.661
549.548
549.433
549.317
549.199
549.08
548.962
548.846
548.732
548.621
548.517
548.417
548.324
548.237
548.155
548.078
548.005
547.936
547.872
547.81
547.752
547.696
547.643
547.591
547.541
547.492
547.444
547.396
547.348
547.3
547.252
547.203
547.153
547.103
547.051
546.997
546.942
546.885
546.826
546.764
546.7
546.632
546.562
546.487
546.408
546.325
546.237
546.142
546.042
545.936
545.822
545.702
545.575
545.443
545.307
545.168
545.027
544.891
544.757
544.627
544.499
544.373
544.25
544.128
544.008
543.889
543.772
543.656
543.54
543.425
543.311
543.198
543.084
542.971
542.858
542.746
542.633
542.521
542.408
542.296
542.183
542.071
541.958
541.846
541.733
541.621
541.508
541.396
541.283
541.17
541.058
540.945
540.832
540.719
540.606
552.459
552.278
552.102
551.933
551.773
551.624
551.487
551.361
551.247
551.141
551.044
550.954
550.868
550.786
550.708
550.63
550.553
550.474
550.393
550.308
550.219
550.124
550.023
549.916
549.803
549.685
549.563
549.44
549.315
549.189
549.063
548.937
548.813
548.693
548.578
548.468
548.364
548.267
548.175
548.09
548.009
547.933
547.862
547.795
547.731
547.671
547.615
547.561
547.509
547.459
547.41
547.362
547.314
547.266
547.219
547.171
547.122
547.073
547.023
546.972
546.919
546.865
546.809
546.75
546.69
546.627
546.561
546.492
546.419
546.343
546.263
546.177
546.087
545.99
545.888
545.779
545.664
545.542
545.415
545.284
545.149
545.012
544.877
544.745
544.616
544.489
544.364
544.241
544.12
544
543.882
543.765
543.649
543.534
543.419
543.305
543.192
543.079
542.966
542.854
542.741
542.629
542.517
542.405
542.293
542.18
542.068
541.956
541.844
541.732
541.619
541.507
541.394
541.282
541.169
541.057
540.944
540.832
540.719
540.606
552.463
552.29
552.122
551.96
551.808
551.665
551.534
551.413
551.302
551.201
551.106
551.017
550.932
550.851
550.772
550.695
550.617
550.537
550.453
550.366
550.273
550.175
550.068
549.955
549.834
549.707
549.577
549.445
549.311
549.176
549.041
548.908
548.778
548.652
548.531
548.417
548.309
548.208
548.114
548.025
547.941
547.862
547.788
547.718
547.653
547.591
547.533
547.478
547.426
547.375
547.327
547.279
547.231
547.183
547.136
547.088
547.04
546.991
546.942
546.891
546.839
546.786
546.73
546.673
546.613
546.552
546.488
546.42
546.35
546.276
546.198
546.116
546.029
545.937
545.838
545.734
545.623
545.507
545.385
545.258
545.127
544.993
544.861
544.731
544.603
544.477
544.353
544.231
544.11
543.991
543.873
543.757
543.641
543.526
543.412
543.299
543.186
543.073
542.961
542.849
542.737
542.625
542.513
542.401
542.289
542.178
542.066
541.954
541.842
541.73
541.617
541.505
541.393
541.281
541.168
541.056
540.944
540.831
540.719
540.606
552.467
552.303
552.143
551.989
551.844
551.708
551.582
551.466
551.359
551.26
551.167
551.08
550.997
550.917
550.838
550.76
550.681
550.599
550.513
550.423
550.327
550.223
550.111
549.991
549.863
549.728
549.589
549.447
549.304
549.16
549.017
548.877
548.74
548.609
548.484
548.366
548.254
548.15
548.052
547.96
547.873
547.792
547.715
547.643
547.575
547.512
547.452
547.396
547.343
547.292
547.243
547.194
547.147
547.099
547.051
547.004
546.956
546.908
546.859
546.809
546.758
546.705
546.651
546.594
546.536
546.476
546.413
546.348
546.28
546.208
546.133
546.054
545.971
545.882
545.788
545.688
545.581
545.469
545.352
545.229
545.102
544.971
544.841
544.713
544.587
544.462
544.339
544.218
544.098
543.98
543.863
543.747
543.632
543.518
543.404
543.291
543.179
543.067
542.955
542.843
542.732
542.62
542.509
542.397
542.286
542.174
542.063
541.951
541.839
541.728
541.616
541.504
541.392
541.28
541.167
541.055
540.943
540.831
540.718
540.606
552.472
552.317
552.165
552.019
551.881
551.751
551.631
551.52
551.416
551.32
551.23
551.144
551.062
550.983
550.904
550.826
550.745
550.662
550.574
550.48
550.379
550.27
550.152
550.024
549.889
549.746
549.598
549.447
549.295
549.143
548.993
548.846
548.704
548.567
548.437
548.314
548.199
548.091
547.991
547.896
547.807
547.723
547.644
547.57
547.501
547.435
547.374
547.316
547.261
547.209
547.159
547.111
547.062
547.015
546.967
546.92
546.872
546.825
546.776
546.727
546.676
546.625
546.571
546.516
546.459
546.399
546.338
546.275
546.209
546.14
546.068
545.992
545.911
545.826
545.736
545.64
545.538
545.431
545.318
545.199
545.076
544.947
544.82
544.694
544.569
544.445
544.324
544.203
544.084
543.967
543.851
543.736
543.621
543.508
543.395
543.283
543.172
543.06
542.949
542.838
542.727
542.616
542.505
542.394
542.282
542.171
542.06
541.949
541.837
541.726
541.614
541.502
541.39
541.278
541.166
541.054
540.942
540.83
540.718
540.606
552.477
552.331
552.188
552.05
551.919
551.795
551.68
551.573
551.473
551.38
551.292
551.208
551.127
551.048
550.97
550.891
550.809
550.723
550.632
550.535
550.429
550.314
550.189
550.054
549.911
549.76
549.604
549.445
549.285
549.127
548.97
548.818
548.669
548.526
548.391
548.263
548.144
548.033
547.93
547.834
547.742
547.656
547.575
547.499
547.428
547.36
547.297
547.238
547.182
547.129
547.078
547.028
546.979
546.931
546.884
546.836
546.789
546.742
546.694
546.645
546.595
546.544
546.492
546.438
546.382
546.324
546.264
546.203
546.139
546.072
546.003
545.93
545.853
545.771
545.684
545.592
545.494
545.391
545.283
545.168
545.048
544.922
544.797
544.672
544.549
544.426
544.306
544.186
544.069
543.952
543.837
543.723
543.61
543.498
543.386
543.274
543.163
543.053
542.942
542.832
542.721
542.611
542.5
542.39
542.279
542.168
542.057
541.946
541.835
541.723
541.612
541.501
541.389
541.277
541.166
541.054
540.942
540.83
540.718
540.606
552.481
552.344
552.21
552.08
551.956
551.839
551.729
551.626
551.53
551.439
551.353
551.271
551.191
551.113
551.035
550.955
550.871
550.783
550.689
550.587
550.476
550.355
550.223
550.081
549.929
549.771
549.607
549.441
549.275
549.111
548.949
548.791
548.636
548.487
548.346
548.214
548.091
547.977
547.871
547.772
547.679
547.591
547.508
547.43
547.357
547.288
547.224
547.163
547.105
547.051
546.998
546.948
546.898
546.85
546.802
546.754
546.707
546.66
546.612
546.564
546.515
546.465
546.414
546.361
546.307
546.251
546.192
546.133
546.071
546.007
545.94
545.87
545.795
545.717
545.633
545.545
545.451
545.352
545.247
545.136
545.02
544.896
544.772
544.649
544.526
544.405
544.286
544.168
544.051
543.936
543.822
543.709
543.597
543.486
543.375
543.265
543.155
543.045
542.935
542.825
542.715
542.606
542.496
542.385
542.275
542.165
542.054
541.943
541.832
541.721
541.61
541.499
541.388
541.276
541.165
541.053
540.941
540.829
540.718
540.606
552.485
552.357
552.231
552.109
551.992
551.881
551.776
551.678
551.585
551.497
551.414
551.334
551.255
551.178
551.099
551.018
550.933
550.842
550.744
550.638
550.521
550.393
550.252
550.102
549.942
549.776
549.605
549.433
549.262
549.094
548.928
548.765
548.605
548.45
548.303
548.165
548.038
547.92
547.812
547.711
547.616
547.526
547.442
547.363
547.289
547.219
547.153
547.091
547.032
546.976
546.922
546.871
546.82
546.771
546.723
546.675
546.628
546.581
546.533
546.486
546.438
546.389
546.339
546.288
546.235
546.181
546.124
546.067
546.007
545.945
545.88
545.813
545.741
545.666
545.585
545.5
545.41
545.314
545.212
545.104
544.991
544.871
544.747
544.624
544.503
544.382
544.264
544.147
544.032
543.918
543.806
543.694
543.584
543.474
543.364
543.255
543.146
543.037
542.928
542.819
542.71
542.6
542.491
542.381
542.271
542.161
542.051
541.941
541.83
541.719
541.608
541.497
541.386
541.275
541.164
541.052
540.941
540.829
540.717
540.606
552.49
552.37
552.252
552.137
552.027
551.922
551.822
551.728
551.639
551.555
551.474
551.395
551.317
551.24
551.161
551.078
550.991
550.898
550.797
550.685
550.562
550.426
550.277
550.117
549.949
549.775
549.596
549.417
549.242
549.072
548.904
548.737
548.572
548.412
548.26
548.118
547.986
547.864
547.753
547.649
547.553
547.462
547.377
547.297
547.222
547.151
547.085
547.022
546.962
546.905
546.85
546.798
546.746
546.696
546.647
546.599
546.552
546.505
546.458
546.411
546.364
546.317
546.268
546.219
546.168
546.116
546.063
546.007
545.95
545.89
545.827
545.762
545.692
545.619
545.541
545.459
545.371
545.278
545.179
545.074
544.963
544.844
544.72
544.598
544.477
544.357
544.24
544.124
544.011
543.898
543.788
543.678
543.569
543.46
543.352
543.244
543.136
543.028
542.92
542.812
542.704
542.595
542.486
542.377
542.268
542.158
542.048
541.938
541.828
541.717
541.607
541.496
541.385
541.274
541.163
541.051
540.94
540.829
540.717
540.606
552.494
552.382
552.272
552.164
552.061
551.962
551.867
551.777
551.692
551.609
551.529
551.452
551.376
551.299
551.22
551.137
551.048
550.952
550.846
550.729
550.599
550.454
550.295
550.126
549.948
549.764
549.578
549.393
549.215
549.043
548.874
548.705
548.538
548.374
548.218
548.071
547.934
547.808
547.693
547.587
547.489
547.397
547.311
547.23
547.155
547.085
547.018
546.956
546.896
546.838
546.783
546.729
546.677
546.626
546.577
546.528
546.481
546.434
546.388
546.342
546.296
546.251
546.205
546.158
546.11
546.061
546.01
545.957
545.901
545.844
545.783
545.719
545.652
545.58
545.504
545.423
545.337
545.246
545.149
545.046
544.936
544.817
544.694
544.571
544.449
544.33
544.213
544.099
543.987
543.877
543.768
543.66
543.553
543.446
543.34
543.233
543.127
543.02
542.913
542.805
542.698
542.59
542.481
542.373
542.264
542.155
542.045
541.935
541.825
541.715
541.605
541.494
541.384
541.273
541.162
541.051
540.939
540.828
540.717
540.606
552.498
552.393
552.29
552.19
552.092
551.999
551.909
551.823
551.741
551.661
551.583
551.507
551.431
551.354
551.275
551.191
551.101
551.002
550.893
550.771
550.633
550.478
550.309
550.129
549.94
549.745
549.55
549.358
549.176
549.004
548.836
548.668
548.501
548.335
548.176
548.024
547.883
547.753
547.634
547.525
547.424
547.331
547.244
547.164
547.089
547.02
546.955
546.893
546.833
546.776
546.721
546.667
546.614
546.562
546.512
546.463
546.415
546.369
546.324
546.28
546.237
546.194
546.152
546.108
546.064
546.018
545.97
545.919
545.866
545.81
545.75
545.688
545.621
545.551
545.475
545.396
545.311
545.22
545.124
545.021
544.911
544.792
544.667
544.542
544.419
544.3
544.184
544.071
543.962
543.854
543.747
543.642
543.537
543.432
543.327
543.222
543.117
543.011
542.905
542.799
542.692
542.585
542.477
542.369
542.26
542.152
542.042
541.933
541.823
541.713
541.603
541.493
541.382
541.272
541.161
541.05
540.939
540.828
540.717
540.606
552.501
552.404
552.307
552.213
552.122
552.033
551.948
551.865
551.785
551.707
551.63
551.555
551.479
551.403
551.323
551.24
551.149
551.049
550.936
550.808
550.661
550.497
550.317
550.126
549.926
549.721
549.514
549.314
549.127
548.955
548.79
548.624
548.458
548.294
548.133
547.977
547.832
547.699
547.578
547.466
547.363
547.268
547.181
547.101
547.027
546.959
546.896
546.835
546.777
546.72
546.665
546.61
546.556
546.504
546.453
546.403
546.356
546.312
546.269
546.229
546.189
546.151
546.113
546.074
546.034
545.991
545.946
545.897
545.844
545.789
545.73
545.669
545.603
545.534
545.46
545.38
545.295
545.204
545.107
545.003
544.891
544.77
544.641
544.512
544.386
544.266
544.151
544.041
543.934
543.829
543.725
543.622
543.52
543.417
543.314
543.211
543.107
543.003
542.898
542.792
542.686
542.58
542.473
542.365
542.257
542.149
542.04
541.931
541.821
541.712
541.602
541.492
541.381
541.271
541.16
541.049
540.938
540.828
540.717
540.606
552.504
552.413
552.322
552.234
552.148
552.064
551.983
551.903
551.824
551.746
551.67
551.594
551.518
551.442
551.363
551.28
551.19
551.088
550.972
550.838
550.683
550.509
550.318
550.117
549.908
549.695
549.48
549.271
549.076
548.9
548.736
548.572
548.41
548.249
548.089
547.933
547.785
547.649
547.526
547.414
547.309
547.213
547.125
547.046
546.973
546.907
546.845
546.786
546.729
546.672
546.616
546.56
546.505
546.451
546.399
546.351
546.306
546.265
546.226
546.191
546.157
546.124
546.091
546.058
546.023
545.984
545.94
545.891
545.839
545.784
545.726
545.667
545.601
545.532
545.456
545.377
545.29
545.197
545.097
544.993
544.879
544.754
544.61
544.479
544.347
544.226
544.113
544.006
543.903
543.802
543.702
543.602
543.502
543.402
543.301
543.2
543.098
542.995
542.891
542.786
542.681
542.575
542.468
542.361
542.254
542.146
542.037
541.929
541.819
541.71
541.6
541.49
541.38
541.27
541.159
541.049
540.938
540.827
540.716
540.605
552.507
552.421
552.336
552.254
552.172
552.093
552.013
551.934
551.855
551.777
551.699
551.621
551.545
551.47
551.394
551.312
551.222
551.118
550.997
550.853
550.688
550.503
550.303
550.095
549.884
549.669
549.449
549.227
549.017
548.834
548.672
548.513
548.357
548.204
548.051
547.895
547.745
547.611
547.492
547.379
547.273
547.173
547.084
547.005
546.933
546.869
546.808
546.75
546.693
546.634
546.573
546.516
546.459
546.404
546.354
546.31
546.269
546.233
546.2
546.173
546.144
546.115
546.087
546.058
546.03
545.995
545.954
545.909
545.86
545.81
545.753
545.695
545.62
545.546
545.465
545.386
545.289
545.194
545.088
544.987
544.874
544.749
544.6
544.441
544.297
544.177
544.069
543.968
543.87
543.774
543.678
543.582
543.485
543.388
543.289
543.189
543.089
542.987
542.884
542.78
542.676
542.571
542.465
542.358
542.251
542.143
542.035
541.927
541.818
541.709
541.599
541.489
541.379
541.269
541.159
541.048
540.938
540.827
540.716
540.605
552.509
552.428
552.349
552.271
552.194
552.116
552.037
551.958
551.877
551.795
551.714
551.636
551.56
551.487
551.414
551.334
551.242
551.132
551
550.842
550.665
550.471
550.264
550.054
549.852
549.642
549.425
549.189
548.96
548.761
548.599
548.445
548.3
548.162
548.022
547.87
547.721
547.594
547.49
547.379
547.27
547.163
547.07
546.987
546.909
546.844
546.783
546.724
546.666
546.601
546.523
546.469
546.419
546.366
546.321
546.285
546.248
546.219
546.19
546.177
546.145
546.124
546.094
546.068
546.055
546.025
545.995
545.961
545.937
545.907
545.863
545.774
545.697
545.636
545.538
545.441
545.252
545.167
544.997
544.9
544.813
544.758
544.59
544.357
544.222
544.116
544.019
543.927
543.836
543.745
543.654
543.562
543.468
543.374
543.277
543.18
543.081
542.98
542.878
542.775
542.672
542.567
542.462
542.355
542.249
542.141
542.033
541.925
541.816
541.707
541.598
541.488
541.378
541.268
541.158
541.048
540.937
540.827
540.716
540.605
552.511
552.435
552.359
552.285
552.209
552.131
552.049
551.966
551.882
551.798
551.716
551.639
551.567
551.499
551.429
551.347
551.246
551.119
550.966
550.78
550.587
550.391
550.175
549.974
549.809
549.617
549.398
549.15
548.913
548.681
548.497
548.342
548.203
548.078
547.958
547.825
547.699
547.586
547.489
547.375
547.268
547.162
547.062
546.963
546.875
546.788
546.711
546.635
546.578
546.525
546.469
546.424
546.365
546.33
546.28
546.234
546.197
546.159
546.128
546.115
546.084
546.084
546.025
546.027
546.002
546.01
545.987
545.942
545.918
545.895
545.831
545.753
545.66
545.598
545.492
545.412
545.276
545.178
545.052
544.949
544.84
544.744
544.605
544.285
544.138
544.047
543.965
543.883
543.801
543.716
543.63
543.542
543.453
543.361
543.267
543.171
543.073
542.974
542.873
542.771
542.668
542.564
542.459
542.353
542.247
542.139
542.032
541.924
541.815
541.706
541.597
541.488
541.378
541.268
541.158
541.047
540.937
540.826
540.716
540.605
552.513
552.439
552.367
552.295
552.216
552.129
552.035
551.943
551.857
551.778
551.708
551.644
551.587
551.527
551.459
551.348
551.214
551.05
550.873
550.63
550.43
550.247
550.001
549.812
549.666
549.481
549.277
549.022
548.802
548.609
548.414
548.257
548.126
547.994
547.881
547.761
547.656
547.575
547.489
547.387
547.273
547.171
547.037
546.919
546.807
546.714
546.617
546.548
546.479
546.424
546.396
546.373
546.385
546.346
546.303
546.22
546.168
546.126
546.097
546.086
546.049
546.045
545.996
545.986
545.967
545.967
545.95
545.917
545.882
545.84
545.774
545.699
545.612
545.531
545.44
545.35
545.245
545.146
545.046
544.953
544.853
544.749
544.614
544.257
544.071
543.98
543.909
543.841
543.768
543.689
543.607
543.524
543.439
543.35
543.258
543.164
543.068
542.969
542.869
542.768
542.665
542.561
542.457
542.351
542.245
542.138
542.031
541.923
541.814
541.706
541.596
541.487
541.377
541.267
541.157
541.047
540.937
540.826
540.716
540.605
552.513
552.441
552.372
552.31
552.212
552.097
551.973
551.854
551.771
551.717
551.69
551.67
551.663
551.603
551.549
551.321
551.104
550.855
550.629
550.394
550.211
550.004
549.815
549.596
549.434
549.249
549.094
548.902
548.734
548.527
548.327
548.17
548.08
547.895
547.782
547.667
547.567
547.54
547.421
547.372
547.221
547.123
546.961
546.857
546.744
546.658
546.563
546.492
546.427
546.364
546.352
546.328
546.357
546.317
546.293
546.232
546.202
546.151
546.118
546.085
546.049
546.02
545.991
545.971
545.948
545.929
545.893
545.857
545.811
545.761
545.7
545.627
545.55
545.47
545.389
545.304
545.215
545.12
545.031
544.939
544.796
544.524
544.331
544.192
543.998
543.929
543.857
543.803
543.741
543.664
543.585
543.509
543.428
543.342
543.252
543.159
543.064
542.966
542.867
542.766
542.663
542.56
542.455
542.35
542.244
542.137
542.03
541.922
541.814
541.705
541.596
541.487