/*--------------------------------*- C++ -*----------------------------------*\
  =========                 |
  \\      /  F ield         | OpenFOAM: The Open Source CFD Toolbox
   \\    /   O peration     | Website:  https://openfoam.org
    \\  /    A nd           | Version:  6
     \\/     M anipulation  |
\*---------------------------------------------------------------------------*/
FoamFile
{
    version     2.0;
    format      ascii;
    class       volVectorField;
    location    "2650";
    object      U;
}
// * * * * * * * * * * * * * * * * * * * * * * * * * * * * * * * * * * * * * //

dimensions      [0 1 -1 0 0 0 0];

internalField   nonuniform List<vector> 
4800
(
(-7.2154e-06 0 -2.83218e-05)
(9.12083e-06 0 -0.000129883)
(5.11292e-05 0 -0.000139557)
(-7.3236e-05 0 -9.82192e-05)
(-0.000156685 0 -0.000182236)
(-0.000233975 0 9.64551e-05)
(-0.000197419 0 -0.000253954)
(-0.000460843 0 0.000124658)
(-0.000606761 0 -0.000253918)
(-0.000751832 0 0.000179685)
(-0.000877203 0 -0.000193621)
(-0.00100436 0 0.000158177)
(-0.0011137 0 -7.89321e-05)
(-0.00117971 0 2.18624e-05)
(-0.00120624 0 -1.03926e-05)
(-0.00120721 0 -9.93271e-06)
(-0.00109636 0 -6.12693e-05)
(-0.000993606 0 -0.00011599)
(-0.000961602 0 -0.000138172)
(-0.00095064 0 -0.000175321)
(-0.000761732 0 -0.000225487)
(-0.000359756 0 -0.000503007)
(-0.000306074 0 -0.000164042)
(6.52774e-05 0 -0.000332642)
(-1.559e-05 0 -2.15501e-05)
(0.000134067 0 2.66435e-05)
(0.000251638 0 -5.70766e-05)
(0.000365683 0 -0.000182589)
(0.000559618 0 -8.43318e-05)
(0.000742596 0 -2.12739e-05)
(0.000778097 0 -0.000111642)
(0.000792755 0 -6.81759e-05)
(0.00083919 0 -6.269e-05)
(0.000934497 0 -4.17666e-05)
(0.00101667 0 -6.05449e-05)
(0.00102092 0 -5.36034e-05)
(0.00102941 0 -4.64287e-05)
(0.00105611 0 -3.08714e-05)
(0.00106248 0 -2.02761e-05)
(0.00105198 0 -1.67441e-05)
(0.00102993 0 -5.57165e-06)
(0.00100326 0 8.44765e-07)
(0.000992873 0 -6.21821e-06)
(0.000994173 0 -1.06555e-05)
(0.000996735 0 -4.80695e-06)
(0.000999022 0 -3.25621e-05)
(0.00100154 0 -5.76645e-05)
(0.00102089 0 -5.84961e-05)
(0.0010773 0 -8.26893e-06)
(0.0011498 0 -6.33908e-05)
(0.00121822 0 -0.000135861)
(0.0012621 0 -2.41012e-05)
(0.00126725 0 -1.03961e-05)
(0.0012957 0 -5.72363e-05)
(0.00137488 0 0.000197652)
(0.00140392 0 -7.57703e-05)
(0.00139144 0 -6.60726e-05)
(0.00140387 0 -5.97427e-05)
(0.00144003 0 -5.68029e-05)
(0.00148975 0 -2.97032e-05)
(0.00152747 0 -5.72715e-05)
(0.00152798 0 -6.98654e-05)
(0.00152012 0 -7.24756e-05)
(0.00150572 0 -6.94966e-05)
(0.00148532 0 -6.59862e-05)
(0.00145464 0 -3.7556e-05)
(0.00140716 0 -3.41706e-05)
(0.00133507 0 2.3687e-05)
(0.00123189 0 4.72828e-05)
(0.00107099 0 0.00011484)
(0.000850061 0 -4.57553e-05)
(0.000254785 0 0.000129926)
(-0.000884273 0 -0.000690567)
(-0.000622343 0 -0.000435793)
(-0.000624105 0 -0.000220383)
(-0.000598455 0 -0.000190865)
(-0.000521514 0 -0.000256842)
(-0.000441094 0 -0.000274423)
(-0.000654216 0 -0.000373921)
(6.8814e-06 0 9.8784e-05)
(-3.73205e-12 0 3.03379e-13)
(-4.40823e-12 0 -1.1182e-12)
(-1.74261e-12 0 -3.47532e-13)
(-1.36055e-12 0 -3.48957e-14)
(-1.36425e-12 0 3.82148e-14)
(-1.43389e-12 0 3.10994e-14)
(-1.47058e-12 0 5.28247e-15)
(-1.45573e-12 0 -2.0381e-14)
(-1.39404e-12 0 -4.14947e-14)
(-1.29486e-12 0 -5.77956e-14)
(-1.16721e-12 0 -6.99101e-14)
(-1.01882e-12 0 -7.84827e-14)
(-8.56281e-13 0 -8.4018e-14)
(-6.85287e-13 0 -8.69017e-14)
(-5.10823e-13 0 -8.74489e-14)
(-3.37283e-13 0 -8.59409e-14)
(-1.68511e-13 0 -8.26468e-14)
(-7.81452e-15 0 -7.78326e-14)
(1.42027e-13 0 -7.17633e-14)
(2.78761e-13 0 -6.46998e-14)
(4.0065e-13 0 -5.68945e-14)
(5.06448e-13 0 -4.85857e-14)
(5.95366e-13 0 -3.99929e-14)
(6.67032e-13 0 -3.13129e-14)
(7.21443e-13 0 -2.27171e-14)
(7.58912e-13 0 -1.43508e-14)
(7.80017e-13 0 -6.33272e-15)
(7.85548e-13 0 1.24342e-15)
(7.7646e-13 0 8.30704e-15)
(7.53826e-13 0 1.48082e-14)
(7.18804e-13 0 2.07143e-14)
(6.72601e-13 0 2.60075e-14)
(6.1645e-13 0 3.06811e-14)
(5.51587e-13 0 3.47369e-14)
(4.79238e-13 0 3.81826e-14)
(4.00611e-13 0 4.10296e-14)
(3.16887e-13 0 4.32911e-14)
(2.29221e-13 0 4.49823e-14)
(1.38729e-13 0 4.61248e-14)
(4.64569e-14 0 4.67675e-14)
(-6.83505e-05 0 -1.0733e-05)
(-6.68722e-05 0 0.000118569)
(-0.000116545 0 9.00046e-05)
(-0.000178424 0 0.000104666)
(-0.000326503 0 0.00012317)
(-0.000442882 0 7.32943e-05)
(-0.000488927 0 0.000243833)
(-0.000591858 0 0.000237563)
(-0.000683299 0 0.000333076)
(-0.000876183 0 0.000181209)
(-0.000972215 0 0.000303706)
(-0.00112781 0 0.000161058)
(-0.00120754 0 0.000149393)
(-0.0012369 0 9.93359e-05)
(-0.00124195 0 -5.93671e-05)
(-0.0012492 0 -7.80885e-06)
(-0.00117318 0 -0.000142238)
(-0.00101894 0 -0.000184525)
(-0.000946433 0 2.15648e-05)
(-0.000915137 0 1.09894e-05)
(-0.000894446 0 -2.37577e-05)
(-0.000312314 0 -0.000807545)
(-0.00041777 0 -0.000170177)
(-0.000266132 0 -7.23518e-05)
(-0.000175179 0 -7.94683e-05)
(3.33754e-05 0 -0.000143752)
(0.000144285 0 -0.000247429)
(0.000364419 0 -0.000236538)
(0.000487621 0 -0.000274842)
(0.000651028 0 1.20848e-05)
(0.00072259 0 -0.000126831)
(0.00079778 0 -6.35261e-05)
(0.000855667 0 -0.000118996)
(0.00092649 0 -0.000108892)
(0.000966052 0 -4.81203e-05)
(0.000979454 0 -2.44875e-05)
(0.00100276 0 -1.5673e-05)
(0.00105195 0 -5.00985e-06)
(0.00109624 0 2.5715e-05)
(0.00109278 0 4.02852e-05)
(0.00107496 0 2.66001e-05)
(0.00105054 0 3.90509e-06)
(0.00102464 0 5.92428e-06)
(0.000999518 0 1.83055e-05)
(0.000973717 0 3.35432e-05)
(0.000968479 0 2.25106e-05)
(0.000978081 0 4.54123e-07)
(0.000997668 0 -5.49272e-05)
(0.00103102 0 -7.81589e-05)
(0.00108261 0 -0.000112046)
(0.00114451 0 -0.000124011)
(0.0011903 0 -4.06655e-05)
(0.00122893 0 -2.20726e-05)
(0.00127781 0 -0.000106212)
(0.00134231 0 8.55758e-05)
(0.00140076 0 -0.000134859)
(0.00141414 0 -5.93239e-05)
(0.00141149 0 -4.03045e-05)
(0.00141867 0 -2.60673e-05)
(0.00143958 0 -3.40735e-05)
(0.00147753 0 -2.6259e-05)
(0.00149001 0 6.97367e-05)
(0.00148658 0 7.64935e-05)
(0.00147519 0 9.50997e-05)
(0.00145018 0 8.30754e-05)
(0.00140852 0 0.000106458)
(0.00135401 0 9.73798e-05)
(0.00128645 0 0.000150612)
(0.00121804 0 0.000148329)
(0.00107905 0 0.000357359)
(0.00104732 0 0.000522702)
(0.000850082 0 0.000577013)
(0.000880542 0 0.000695308)
(0.000719165 0 0.000612873)
(0.000436472 0 0.000365347)
(7.08957e-05 0 8.20934e-05)
(-0.000229647 0 -0.000157063)
(0.000256043 0 -0.000201424)
(-0.000360736 0 -0.000382042)
(7.03628e-06 0 0.000208133)
(-3.49943e-12 0 1.03904e-12)
(-4.03984e-12 0 -4.13294e-12)
(-6.59389e-13 0 -5.84795e-13)
(-9.74782e-13 0 1.34727e-13)
(-1.29822e-12 0 1.9478e-13)
(-1.46683e-12 0 1.11918e-13)
(-1.52206e-12 0 1.56528e-14)
(-1.50251e-12 0 -6.56982e-14)
(-1.43145e-12 0 -1.29279e-13)
(-1.32327e-12 0 -1.77541e-13)
(-1.18789e-12 0 -2.13228e-13)
(-1.03293e-12 0 -2.38429e-13)
(-8.647e-13 0 -2.54636e-13)
(-6.88717e-13 0 -2.62959e-13)
(-5.09862e-13 0 -2.64308e-13)
(-3.32481e-13 0 -2.59505e-13)
(-1.60402e-13 0 -2.49348e-13)
(3.06893e-15 0 -2.34633e-13)
(1.55159e-13 0 -2.16156e-13)
(2.9363e-13 0 -1.94706e-13)
(4.16764e-13 0 -1.71044e-13)
(5.2335e-13 0 -1.45891e-13)
(6.12639e-13 0 -1.19908e-13)
(6.84308e-13 0 -9.36886e-14)
(7.38405e-13 0 -6.77484e-14)
(7.75297e-13 0 -4.25228e-14)
(7.95612e-13 0 -1.83672e-14)
(8.00188e-13 0 4.43935e-15)
(7.90024e-13 0 2.56878e-14)
(7.66233e-13 0 4.52308e-14)
(7.30003e-13 0 6.2974e-14)
(6.82568e-13 0 7.88665e-14)
(6.2518e-13 0 9.2891e-14)
(5.59089e-13 0 1.05056e-13)
(4.85531e-13 0 1.15386e-13)
(4.05719e-13 0 1.23916e-13)
(3.2084e-13 0 1.30688e-13)
(2.32055e-13 0 1.35741e-13)
(1.40515e-13 0 1.39119e-13)
(4.70996e-14 0 1.40877e-13)
(-0.000123776 0 1.91539e-05)
(1.3552e-06 0 0.000190814)
(-0.000139453 0 0.000170114)
(-0.000233067 0 0.000209043)
(-0.000353344 0 0.000279762)
(-0.000490909 0 0.000274841)
(-0.000599118 0 0.000294013)
(-0.000735968 0 0.000257352)
(-0.00079072 0 0.000397088)
(-0.000913493 0 0.000398562)
(-0.00104781 0 0.000330012)
(-0.00115843 0 0.000262667)
(-0.00121669 0 0.000250422)
(-0.0012453 0 0.00015067)
(-0.00122831 0 -0.000117969)
(-0.00122228 0 2.15557e-05)
(-0.0012373 0 -4.64974e-05)
(-0.00101345 0 -0.000591974)
(-0.000957139 0 -0.000191094)
(-0.000854817 0 -0.000233366)
(-0.000760812 0 -0.00043503)
(-0.000578602 0 -0.00057931)
(-0.000558067 0 -0.00029104)
(-0.00046698 0 -0.000193155)
(-3.36051e-05 0 -0.000470442)
(-0.000110381 0 -0.000313271)
(9.0489e-05 0 -0.000338958)
(0.000146875 0 -0.000425461)
(0.00036963 0 -0.0003807)
(0.000493006 0 -0.000238889)
(0.000597016 0 -0.000138465)
(0.000698322 0 -0.000204114)
(0.000835758 0 -0.000148428)
(0.000896832 0 -6.13012e-05)
(0.000894164 0 -7.17506e-05)
(0.000904866 0 -8.4762e-05)
(0.00094063 0 -0.000100924)
(0.00100309 0 -7.95934e-05)
(0.00107218 0 -1.82167e-05)
(0.00109408 0 3.13634e-05)
(0.00109051 0 4.15653e-05)
(0.00107879 0 6.91749e-05)
(0.00107327 0 2.20477e-05)
(0.00106813 0 1.56628e-05)
(0.00104784 0 1.80128e-05)
(0.00102075 0 -5.34344e-05)
(0.00102126 0 -6.14143e-05)
(0.00102107 0 -0.000127849)
(0.00104648 0 -0.000104892)
(0.00107951 0 -0.00022968)
(0.00115113 0 -0.000107975)
(0.00119816 0 -0.000135837)
(0.00125152 0 -0.000129098)
(0.00129735 0 -9.31293e-05)
(0.00133567 0 -0.000101642)
(0.00139818 0 -9.92684e-05)
(0.00142665 0 -8.40357e-05)
(0.00142009 0 -6.04605e-05)
(0.0014088 0 -9.46935e-05)
(0.00141486 0 -6.73227e-05)
(0.00140652 0 -6.78962e-05)
(0.00138237 0 -2.81318e-05)
(0.0013459 0 -6.18133e-05)
(0.00133066 0 2.08752e-05)
(0.00130905 0 6.93409e-06)
(0.00129046 0 0.000107281)
(0.00126212 0 4.08495e-05)
(0.00120604 0 0.000237042)
(0.00118233 0 0.000199423)
(0.00108167 0 0.000422678)
(0.00109458 0 0.000488044)
(0.00107247 0 0.000626363)
(0.00103056 0 0.000602182)
(0.000863144 0 0.000610234)
(0.000704202 0 0.00043419)
(0.000252716 0 0.000409796)
(0.000399445 0 0.00014439)
(0.000232146 0 -0.000222888)
(-0.000216518 0 -0.000356879)
(-9.08851e-05 0 6.68235e-06)
(-1.52085e-08 0 5.43259e-09)
(-1.4587e-12 0 4.06478e-12)
(2.52493e-12 0 1.85819e-12)
(-5.80878e-13 0 9.63753e-13)
(-1.38699e-12 0 4.94261e-13)
(-1.61302e-12 0 2.06127e-13)
(-1.64819e-12 0 1.11392e-14)
(-1.60066e-12 0 -1.28726e-13)
(-1.50588e-12 0 -2.3231e-13)
(-1.37881e-12 0 -3.09787e-13)
(-1.22809e-12 0 -3.66952e-13)
(-1.06023e-12 0 -4.07286e-13)
(-8.80811e-13 0 -4.3305e-13)
(-6.94959e-13 0 -4.45901e-13)
(-5.07369e-13 0 -4.47226e-13)
(-3.22323e-13 0 -4.38331e-13)
(-1.43638e-13 0 -4.20514e-13)
(2.53773e-14 0 -3.951e-13)
(1.81953e-13 0 -3.63427e-13)
(3.23873e-13 0 -3.26825e-13)
(4.49466e-13 0 -2.86584e-13)
(5.57585e-13 0 -2.4392e-13)
(6.47568e-13 0 -1.9995e-13)
(7.19192e-13 0 -1.5567e-13)
(7.72609e-13 0 -1.11945e-13)
(8.08293e-13 0 -6.94996e-14)
(8.2698e-13 0 -2.8922e-14)
(8.29603e-13 0 9.32957e-15)
(8.17251e-13 0 4.49152e-14)
(7.91112e-13 0 7.75997e-14)
(7.52439e-13 0 1.07236e-13)
(7.02518e-13 0 1.33749e-13)
(6.42639e-13 0 1.57121e-13)
(5.74082e-13 0 1.77372e-13)
(4.98099e-13 0 1.94554e-13)
(4.15913e-13 0 2.0873e-13)
(3.28712e-13 0 2.19971e-13)
(2.37652e-13 0 2.28342e-13)
(1.43866e-13 0 2.33899e-13)
(4.82157e-14 0 2.36668e-13)
(-0.000164923 0 0.000120868)
(-0.000187531 0 0.000167531)
(-0.000234611 0 0.000237488)
(-0.000376962 0 0.00025152)
(-0.000431251 0 0.00034831)
(-0.000503593 0 0.000396883)
(-0.000618204 0 0.000431695)
(-0.000781201 0 0.00049127)
(-0.000915338 0 0.000502115)
(-0.00105386 0 0.000403183)
(-0.00113181 0 0.000360584)
(-0.00118212 0 0.00031315)
(-0.00122533 0 0.000228275)
(-0.00124907 0 0.000148598)
(-0.00119346 0 -0.000243919)
(-0.00116665 0 -7.90993e-05)
(-0.00116988 0 -0.000186639)
(-0.00116339 0 -0.000226868)
(-0.00100065 0 -0.00040428)
(-0.000943967 0 -0.000382323)
(-0.000837041 0 -0.000585056)
(-0.000666085 0 -0.000665689)
(-0.000550235 0 -0.000530067)
(-0.000370641 0 -0.000537563)
(-0.000315962 0 -0.00047012)
(-0.000210772 0 -0.000471325)
(-9.88496e-05 0 -0.000496209)
(-2.7792e-05 0 -0.000511599)
(0.000112052 0 -0.00054607)
(0.000265222 0 -0.000395035)
(0.000380322 0 -0.000317694)
(0.000489321 0 -0.000280414)
(0.000609451 0 -0.000249139)
(0.000680876 0 -0.000174723)
(0.000729047 0 -0.000123269)
(0.000783751 0 -0.000112039)
(0.0008565 0 -0.00015237)
(0.000945909 0 -0.000149473)
(0.00100921 0 -0.000116628)
(0.00103461 0 -1.37917e-06)
(0.0010422 0 5.59037e-05)
(0.00104926 0 2.18609e-05)
(0.0010614 0 3.9837e-05)
(0.00108122 0 7.19088e-05)
(0.00107473 0 8.73407e-05)
(0.00106549 0 5.36947e-05)
(0.00107653 0 4.48592e-05)
(0.00109686 0 -8.92218e-05)
(0.00112709 0 -0.000172416)
(0.00117339 0 -0.000149806)
(0.00119597 0 -0.000201346)
(0.00124269 0 -0.000130232)
(0.00127314 0 -9.57369e-05)
(0.00127141 0 -0.000136116)
(0.00128484 0 -0.000154927)
(0.00132015 0 -9.23097e-05)
(0.00131363 0 -0.00010645)
(0.00129698 0 -2.71936e-06)
(0.00127396 0 -6.98779e-05)
(0.00127793 0 -8.2423e-06)
(0.00126343 0 -4.95057e-05)
(0.00124577 0 0.000113549)
(0.00122002 0 -6.33644e-05)
(0.00117972 0 0.0002185)
(0.00116975 0 -7.71157e-05)
(0.00112177 0 0.000284261)
(0.00113286 0 2.12484e-05)
(0.00108985 0 0.000288162)
(0.00105388 0 0.000381886)
(0.00104317 0 0.000438371)
(0.00104427 0 0.000512485)
(0.00104621 0 0.000599275)
(0.00101041 0 0.000659018)
(0.000944552 0 0.000699091)
(0.000934599 0 0.000544829)
(0.000803134 0 0.000358657)
(0.00045389 0 0.000309511)
(0.000247615 0 -8.83778e-05)
(-0.000399378 0 0.00022764)
(-0.000543159 0 0.000187576)
(-5.29437e-07 0 -0.000109754)
(-2.83967e-12 0 6.18512e-12)
(-4.32584e-12 0 3.08234e-12)
(-2.33846e-12 0 1.36797e-12)
(-2.05574e-12 0 6.12582e-13)
(-1.94995e-12 0 2.07331e-13)
(-1.85691e-12 0 -4.83435e-14)
(-1.74596e-12 0 -2.27886e-13)
(-1.61251e-12 0 -3.61314e-13)
(-1.45792e-12 0 -4.62226e-13)
(-1.28539e-12 0 -5.37405e-13)
(-1.09902e-12 0 -5.90625e-13)
(-9.03314e-13 0 -6.24307e-13)
(-7.02893e-13 0 -6.40313e-13)
(-5.02292e-13 0 -6.40331e-13)
(-3.05769e-13 0 -6.26061e-13)
(-1.17172e-13 0 -5.99279e-13)
(6.01559e-14 0 -5.61841e-13)
(2.23434e-13 0 -5.15655e-13)
(3.70473e-13 0 -4.62623e-13)
(4.9967e-13 0 -4.04593e-13)
(6.09984e-13 0 -3.43307e-13)
(7.00889e-13 0 -2.80358e-13)
(7.72312e-13 0 -2.17158e-13)
(8.24576e-13 0 -1.54926e-13)
(8.5832e-13 0 -9.46758e-14)
(8.74441e-13 0 -3.72206e-14)
(8.74025e-13 0 1.68132e-14)
(8.58294e-13 0 6.69691e-14)
(8.28554e-13 0 1.1294e-13)
(7.86152e-13 0 1.54541e-13)
(7.32453e-13 0 1.91692e-13)
(6.68803e-13 0 2.24386e-13)
(5.96522e-13 0 2.52674e-13)
(5.16889e-13 0 2.76641e-13)
(4.31136e-13 0 2.96391e-13)
(3.40452e-13 0 3.12034e-13)
(2.45983e-13 0 3.23668e-13)
(1.4884e-13 0 3.31376e-13)
(4.98684e-14 0 3.35211e-13)
(-0.00012431 0 0.000242993)
(-0.000214128 0 0.000274645)
(-0.000148437 0 0.000390833)
(-0.000321644 0 0.000435964)
(-0.00046878 0 0.00046316)
(-0.000520886 0 0.000519419)
(-0.000754362 0 0.000456497)
(-0.000875939 0 0.000615281)
(-0.00102399 0 0.000591111)
(-0.00106966 0 0.000569747)
(-0.00111505 0 0.000489889)
(-0.00118263 0 0.00034147)
(-0.00121169 0 0.000273425)
(-0.00122645 0 0.000209293)
(-0.00120166 0 -0.000265864)
(-0.0011699 0 -0.000122122)
(-0.001145 0 -0.000224354)
(-0.00107073 0 -0.000445213)
(-0.00100348 0 -0.000473541)
(-0.000931074 0 -0.000549248)
(-0.000867763 0 -0.000648391)
(-0.000765533 0 -0.00065905)
(-0.000530977 0 -0.000711026)
(-0.000497658 0 -0.000607662)
(-0.000400925 0 -0.000597839)
(-0.000263801 0 -0.00060937)
(-0.000195792 0 -0.000588226)
(-0.000178549 0 -0.000569846)
(5.68664e-06 0 -0.000588977)
(-1.91946e-05 0 -0.000581487)
(6.00508e-05 0 -0.000523875)
(0.000313807 0 -0.000357068)
(0.000370057 0 -0.000291413)
(0.000410782 0 -0.000266594)
(0.000493737 0 -0.000219566)
(0.000581481 0 -0.000232148)
(0.000696446 0 -0.000267006)
(0.000815289 0 -0.000183697)
(0.000866433 0 -0.000122587)
(0.000913188 0 -5.31222e-05)
(0.000964129 0 3.27573e-05)
(0.000994291 0 3.68961e-05)
(0.00101067 0 3.07178e-05)
(0.00103385 0 3.33292e-05)
(0.00106974 0 5.67556e-05)
(0.0010642 0 -0.000112079)
(0.0010831 0 -6.24333e-05)
(0.00111878 0 -0.000190616)
(0.00118622 0 -0.000216845)
(0.00120082 0 -0.000207068)
(0.00120151 0 -0.000198553)
(0.00120337 0 -0.000177898)
(0.00119825 0 -0.000178833)
(0.0011829 0 -0.000183135)
(0.00117529 0 -9.94713e-05)
(0.00117739 0 -7.78624e-05)
(0.00116575 0 -7.67737e-05)
(0.00114281 0 -4.70786e-05)
(0.00110596 0 -0.000119573)
(0.00109663 0 2.24974e-05)
(0.00106482 0 -5.59076e-05)
(0.00105137 0 8.97948e-05)
(0.00102268 0 8.05161e-05)
(0.0010199 0 0.000113127)
(0.00101803 0 5.55181e-05)
(0.000991091 0 0.000221544)
(0.000981896 0 0.000215199)
(0.000954637 0 0.000314735)
(0.000966212 0 0.000312451)
(0.000971067 0 0.000419142)
(0.000997254 0 0.000463297)
(0.000977907 0 0.000582521)
(0.000982219 0 0.00067728)
(0.00095975 0 0.000704603)
(0.000933646 0 0.000687569)
(0.000891285 0 0.000550098)
(0.000445946 0 0.000743717)
(0.000671028 0 -0.000290394)
(-0.000558991 0 0.00018308)
(-0.000443619 0 0.000177498)
(4.26313e-06 0 -0.000626073)
(-3.1799e-12 0 -7.24068e-13)
(-5.02203e-12 0 1.30693e-12)
(-3.05027e-12 0 8.13353e-13)
(-2.54746e-12 0 3.81043e-13)
(-2.27395e-12 0 5.91352e-14)
(-2.08341e-12 0 -1.83761e-13)
(-1.91363e-12 0 -3.72959e-13)
(-1.74022e-12 0 -5.22639e-13)
(-1.5549e-12 0 -6.40207e-13)
(-1.35649e-12 0 -7.29638e-13)
(-1.14713e-12 0 -7.93336e-13)
(-9.30499e-13 0 -8.33092e-13)
(-7.10983e-13 0 -8.50587e-13)
(-4.93117e-13 0 -8.47624e-13)
(-2.81271e-13 0 -8.26228e-13)
(-7.94186e-14 0 -7.88646e-13)
(1.09001e-13 0 -7.373e-13)
(2.81172e-13 0 -6.74712e-13)
(4.34935e-13 0 -6.03414e-13)
(5.68781e-13 0 -5.25863e-13)
(6.8182e-13 0 -4.44369e-13)
(7.73717e-13 0 -3.6103e-13)
(8.44623e-13 0 -2.77697e-13)
(8.95091e-13 0 -1.95946e-13)
(9.25999e-13 0 -1.17077e-13)
(9.38469e-13 0 -4.21185e-14)
(9.33793e-13 0 2.81533e-14)
(9.13377e-13 0 9.31871e-14)
(8.78684e-13 0 1.52626e-13)
(8.31192e-13 0 2.06276e-13)
(7.72363e-13 0 2.54069e-13)
(7.03621e-13 0 2.96036e-13)
(6.26336e-13 0 3.32273e-13)
(5.41816e-13 0 3.6292e-13)
(4.51306e-13 0 3.88136e-13)
(3.55989e-13 0 4.0808e-13)
(2.56995e-13 0 4.22896e-13)
(1.55409e-13 0 4.32701e-13)
(5.20507e-14 0 4.37578e-13)
(-9.66664e-05 0 0.000344564)
(1.50078e-05 0 0.000381703)
(-0.000322464 0 0.000396667)
(-0.000301583 0 0.000560052)
(-0.000602154 0 0.000484307)
(-0.000596435 0 0.0006144)
(-0.000850582 0 0.000572327)
(-0.000935248 0 0.000693998)
(-0.00098241 0 0.000712485)
(-0.00107122 0 0.000555485)
(-0.00109061 0 0.000477862)
(-0.00111827 0 0.000412496)
(-0.0011553 0 0.000244408)
(-0.00115365 0 0.000116524)
(-0.00116211 0 -0.000105008)
(-0.00113503 0 -0.000211012)
(-0.00108071 0 -0.000260598)
(-0.00103525 0 -0.000436305)
(-0.000998105 0 -0.000526939)
(-0.000894538 0 -0.000671791)
(-0.000868311 0 -0.000714883)
(-0.000721202 0 -0.000820542)
(-0.000619964 0 -0.000805713)
(-0.000519077 0 -0.000742912)
(-0.00039868 0 -0.000717815)
(-0.000357497 0 -0.000671023)
(-0.000310396 0 -0.000647508)
(-0.00023346 0 -0.000624712)
(-0.000182548 0 -0.000621858)
(-0.000181078 0 -0.000601715)
(-5.2529e-05 0 -0.000600703)
(1.88859e-05 0 -0.000507591)
(0.000204255 0 -0.000361604)
(0.000269438 0 -0.000309696)
(0.000365433 0 -0.000263925)
(0.000338709 0 -0.000439497)
(0.000545714 0 -0.00028873)
(0.000602954 0 -0.000240736)
(0.000648906 0 -0.000219086)
(0.000736945 0 -0.000104575)
(0.000822319 0 9.06809e-06)
(0.000875444 0 2.13481e-07)
(0.000920568 0 -2.31705e-05)
(0.000973772 0 -3.76745e-05)
(0.00103871 0 0.000108005)
(0.00109533 0 4.0923e-05)
(0.00110522 0 -0.000121756)
(0.00114736 0 -0.000139683)
(0.0011764 0 -0.000134983)
(0.00114028 0 -0.000219157)
(0.00112309 0 -0.000183071)
(0.00112789 0 -0.000153025)
(0.00112366 0 -0.000123003)
(0.00109499 0 -0.000102017)
(0.00103056 0 -0.000144343)
(0.00100441 0 -6.37042e-05)
(0.000987048 0 -2.09733e-05)
(0.000970662 0 5.43073e-06)
(0.000943975 0 1.98371e-06)
(0.000914198 0 5.21835e-05)
(0.000895293 0 5.78078e-05)
(0.000885355 0 3.95342e-05)
(0.000870843 0 8.88635e-05)
(0.000877202 0 0.000119418)
(0.000869505 0 0.000131283)
(0.000856284 0 0.000194842)
(0.000855824 0 0.00021263)
(0.000848438 0 0.000278386)
(0.00087497 0 0.000301238)
(0.000863559 0 0.000453512)
(0.000879654 0 0.000514168)
(0.000931235 0 0.00053343)
(0.000909291 0 0.000689529)
(0.000885961 0 0.000775275)
(0.000837499 0 0.000814618)
(0.000917329 0 0.000637029)
(0.000762591 0 0.000659517)
(0.000655078 0 0.000595123)
(0.000259569 0 0.000527706)
(-0.000280649 0 0.000323209)
(5.58204e-06 0 -0.000629885)
(-3.04758e-12 0 -1.93776e-12)
(-5.12298e-12 0 1.64011e-13)
(-3.26404e-12 0 1.97608e-13)
(-2.80979e-12 0 3.9465e-14)
(-2.51474e-12 0 -1.67821e-13)
(-2.289e-12 0 -3.72606e-13)
(-2.08483e-12 0 -5.57271e-13)
(-1.87976e-12 0 -7.15793e-13)
(-1.66491e-12 0 -8.46041e-13)
(-1.43852e-12 0 -9.47329e-13)
(-1.20248e-12 0 -1.01973e-12)
(-9.60565e-13 0 -1.0639e-12)
(-7.17425e-13 0 -1.08111e-12)
(-4.77934e-13 0 -1.07318e-12)
(-2.46791e-13 0 -1.04245e-12)
(-2.82435e-14 0 -9.91684e-13)
(1.7409e-13 0 -9.2394e-13)
(3.5732e-13 0 -8.42442e-13)
(5.19321e-13 0 -7.50439e-13)
(6.58715e-13 0 -6.51073e-13)
(7.74818e-13 0 -5.47281e-13)
(8.67561e-13 0 -4.41709e-13)
(9.37397e-13 0 -3.36667e-13)
(9.85195e-13 0 -2.34101e-13)
(1.01215e-12 0 -1.35587e-13)
(1.01967e-12 0 -4.23492e-14)
(1.00933e-12 0 4.47114e-14)
(9.82768e-13 0 1.24979e-13)
(9.41643e-13 0 1.98083e-13)
(8.87595e-13 0 2.63847e-13)
(8.22212e-13 0 3.22253e-13)
(7.47007e-13 0 3.73394e-13)
(6.63407e-13 0 4.17441e-13)
(5.72752e-13 0 4.5461e-13)
(4.76296e-13 0 4.85131e-13)
(3.75212e-13 0 5.09231e-13)
(2.70605e-13 0 5.27111e-13)
(1.63522e-13 0 5.38932e-13)
(5.47451e-14 0 5.44807e-13)
(-0.000160969 0 0.000405816)
(-5.42095e-05 0 0.000454704)
(-0.000329515 0 0.000516929)
(-0.0002393 0 0.000705897)
(-0.000447854 0 0.000737156)
(-0.000446212 0 0.000866785)
(-0.000697631 0 0.000859227)
(-0.000879007 0 0.000803732)
(-0.000937556 0 0.000764098)
(-0.00101714 0 0.000605644)
(-0.001002 0 0.000503883)
(-0.000980329 0 0.000437868)
(-0.00100363 0 0.000276126)
(-0.00102242 0 0.000132636)
(-0.00105508 0 -8.28844e-05)
(-0.00105041 0 -0.000134663)
(-0.000804696 0 -0.000718711)
(-0.00108738 0 -0.000261798)
(-0.00094494 0 -0.000620613)
(-0.000843256 0 -0.000757352)
(-0.000852827 0 -0.000764913)
(-0.000773751 0 -0.000844654)
(-0.000632386 0 -0.000910612)
(-0.000449656 0 -0.000879279)
(-0.000513598 0 -0.000732598)
(-0.000409931 0 -0.000727801)
(-0.000336541 0 -0.000707547)
(-0.000280036 0 -0.000672314)
(-0.000180689 0 -0.000670006)
(-0.000130417 0 -0.000656135)
(-6.57634e-05 0 -0.000605336)
(-7.80828e-05 0 -0.000556684)
(-1.98384e-05 0 -0.00053219)
(3.44604e-05 0 -0.000476661)
(0.000246196 0 -0.000374864)
(0.00035102 0 -0.000326731)
(0.00039425 0 -0.000344893)
(0.000415671 0 -0.000380702)
(0.00051732 0 -0.000288821)
(0.000607875 0 -0.000190216)
(0.00069847 0 -0.000118463)
(0.000781809 0 -0.000111797)
(0.000868545 0 -7.90894e-05)
(0.000937603 0 -9.66497e-06)
(0.000979776 0 -1.97163e-05)
(0.00102667 0 -8.46007e-05)
(0.00107451 0 -0.000150863)
(0.00107423 0 -0.000204599)
(0.00106847 0 -0.000212108)
(0.00104283 0 -0.000228609)
(0.00101677 0 -0.000174855)
(0.000992165 0 -0.00010872)
(0.00097421 0 -7.69625e-05)
(0.000950715 0 -4.74293e-05)
(0.000898014 0 -4.78332e-05)
(0.000866804 0 -1.55084e-05)
(0.000853902 0 -2.64121e-05)
(0.000838078 0 -2.03509e-05)
(0.000825327 0 -6.96504e-06)
(0.000809382 0 -1.29244e-05)
(0.000784085 0 6.71879e-05)
(0.000782976 0 5.92248e-05)
(0.000775991 0 4.77761e-05)
(0.00075315 0 0.000118131)
(0.000747683 0 0.00013519)
(0.000742211 0 0.000174837)
(0.000736836 0 0.000231297)
(0.000757289 0 0.000251459)
(0.000778154 0 0.000317159)
(0.000807298 0 0.000352369)
(0.000809032 0 0.000442741)
(0.000839606 0 0.000530429)
(0.000859919 0 0.000622334)
(0.000979302 0 0.00056418)
(0.000821077 0 0.000799701)
(0.000790473 0 0.000817608)
(0.000595801 0 0.000920199)
(0.000716846 0 0.000730382)
(0.000614642 0 0.000566422)
(5.31984e-06 0 0.000567063)
(5.72149e-06 0 -0.000384961)
(-2.58823e-12 0 -2.32635e-12)
(-4.63091e-12 0 -4.64857e-13)
(-3.17455e-12 0 -2.26187e-13)
(-2.91273e-12 0 -2.5256e-13)
(-2.68598e-12 0 -3.96926e-13)
(-2.47286e-12 0 -5.81217e-13)
(-2.25682e-12 0 -7.67351e-13)
(-2.02899e-12 0 -9.36832e-13)
(-1.78643e-12 0 -1.08044e-12)
(-1.53018e-12 0 -1.19351e-12)
(-1.2637e-12 0 -1.27395e-12)
(-9.91887e-13 0 -1.32132e-12)
(-7.20265e-13 0 -1.33647e-12)
(-4.54457e-13 0 -1.32129e-12)
(-1.99772e-13 0 -1.27852e-12)
(3.9095e-14 0 -1.21155e-12)
(2.58243e-13 0 -1.12423e-12)
(4.54673e-13 0 -1.02061e-12)
(6.26304e-13 0 -9.0479e-13)
(7.7194e-13 0 -7.80695e-13)
(8.91185e-13 0 -6.5197e-13)
(9.8433e-13 0 -5.21866e-13)
(1.05223e-12 0 -3.93179e-13)
(1.09617e-12 0 -2.68224e-13)
(1.11775e-12 0 -1.48842e-13)
(1.11877e-12 0 -3.64253e-14)
(1.10112e-12 0 6.80386e-14)
(1.06675e-12 0 1.63913e-13)
(1.01755e-12 0 2.50855e-13)
(9.55362e-13 0 3.28753e-13)
(8.8191e-13 0 3.97677e-13)
(7.9881e-13 0 4.57822e-13)
(7.07552e-13 0 5.09464e-13)
(6.09506e-13 0 5.52921e-13)
(5.05927e-13 0 5.88522e-13)
(3.97968e-13 0 6.16577e-13)
(2.86696e-13 0 6.37358e-13)
(1.73106e-13 0 6.51081e-13)
(5.79263e-14 0 6.57897e-13)
(-9.60826e-05 0 0.000485172)
(-9.34455e-05 0 0.000571164)
(-0.000356409 0 0.000640623)
(-0.000439189 0 0.000746951)
(-0.000631327 0 0.000760676)
(-0.000814185 0 0.000738357)
(-0.000902616 0 0.000777866)
(-0.000818936 0 0.000888407)
(-0.000812607 0 0.000873323)
(-0.000958786 0 0.000585893)
(-0.000917126 0 0.000456645)
(-0.000854233 0 0.000375949)
(-0.000818029 0 0.000304814)
(-0.000846326 0 0.000167623)
(-0.00090176 0 -6.67428e-05)
(-0.000890944 0 -0.000175131)
(-0.000724799 0 -0.000614047)
(-0.000959409 0 -0.000412593)
(-0.000837865 0 -0.000678467)
(-0.000730563 0 -0.000848224)
(-0.000815203 0 -0.000819925)
(-0.00065862 0 -0.000973609)
(-0.000733408 0 -0.000905367)
(-0.000528091 0 -0.000920021)
(-0.000467754 0 -0.000828116)
(-0.000362047 0 -0.000795117)
(-0.000327804 0 -0.000752483)
(-0.000304498 0 -0.000733542)
(-0.0001362 0 -0.000743984)
(-0.000143452 0 -0.000681064)
(4.05407e-05 0 -0.000622648)
(-5.18127e-05 0 -0.000561067)
(1.09009e-05 0 -0.000545996)
(-1.12638e-05 0 -0.000509356)
(5.94622e-05 0 -0.000515652)
(0.000153742 0 -0.000499289)
(0.000294422 0 -0.000416593)
(0.00036107 0 -0.000390657)
(0.000451072 0 -0.000348295)
(0.00053553 0 -0.00027887)
(0.000627004 0 -0.00021288)
(0.000715565 0 -0.000226008)
(0.000823724 0 -0.000158475)
(0.000903149 0 -9.37869e-05)
(0.000954276 0 -8.49758e-05)
(0.000980815 0 -0.000135295)
(0.000986655 0 -0.000152262)
(0.000975338 0 -0.000173332)
(0.000969756 0 -0.000118647)
(0.000938597 0 -0.000147702)
(0.000903597 0 -0.000131452)
(0.000855587 0 -0.000152088)
(0.000833268 0 -9.56579e-05)
(0.00082134 0 -3.89235e-05)
(0.000782119 0 -0.000125724)
(0.000773701 0 -1.5862e-07)
(0.000773983 0 1.64726e-05)
(0.000757067 0 -1.43295e-05)
(0.000733848 0 4.2769e-05)
(0.000721289 0 7.90254e-05)
(0.000710036 0 1.45378e-05)
(0.000678229 0 0.000144114)
(0.000673925 0 0.000133595)
(0.000672818 0 8.36696e-05)
(0.00064678 0 0.000166167)
(0.000640922 0 0.000195242)
(0.00065099 0 0.000203802)
(0.000661519 0 0.000253446)
(0.000655547 0 0.000338767)
(0.00063027 0 0.000442277)
(0.000721555 0 0.000405951)
(0.00059846 0 0.000688551)
(0.000566826 0 0.000820679)
(0.000662107 0 0.000826928)
(0.000733389 0 0.000848567)
(0.000758729 0 0.000833185)
(0.000680654 0 0.000867486)
(0.000556467 0 0.000896868)
(0.000604879 0 0.000749127)
(7.27359e-05 0 0.000722508)
(5.41682e-06 0 -0.000172078)
(-2.21298e-12 0 -2.37828e-12)
(-4.2618e-12 0 -6.26453e-13)
(-3.0515e-12 0 -3.84648e-13)
(-2.98036e-12 0 -4.26135e-13)
(-2.84334e-12 0 -5.85651e-13)
(-2.65943e-12 0 -7.87545e-13)
(-2.44045e-12 0 -9.93615e-13)
(-2.19284e-12 0 -1.18324e-12)
(-1.92159e-12 0 -1.34483e-12)
(-1.63204e-12 0 -1.47179e-12)
(-1.33029e-12 0 -1.56073e-12)
(-1.02309e-12 0 -1.61048e-12)
(-7.17389e-13 0 -1.62173e-12)
(-4.19976e-13 0 -1.59661e-12)
(-1.37052e-13 0 -1.53847e-12)
(1.26043e-13 0 -1.45154e-12)
(3.65027e-13 0 -1.34065e-12)
(5.76758e-13 0 -1.21088e-12)
(7.59239e-13 0 -1.06735e-12)
(9.11535e-13 0 -9.14913e-13)
(1.03365e-12 0 -7.58028e-13)
(1.12635e-12 0 -6.00611e-13)
(1.19104e-12 0 -4.45971e-13)
(1.22953e-12 0 -2.96793e-13)
(1.24395e-12 0 -1.55155e-13)
(1.23655e-12 0 -2.25739e-14)
(1.20967e-12 0 9.99289e-14)
(1.16558e-12 0 2.11753e-13)
(1.10648e-12 0 3.12642e-13)
(1.03442e-12 0 4.02606e-13)
(9.51281e-13 0 4.81853e-13)
(8.58793e-13 0 5.50725e-13)
(7.58506e-13 0 6.09642e-13)
(6.5181e-13 0 6.5906e-13)
(5.39952e-13 0 6.99429e-13)
(4.24047e-13 0 7.31167e-13)
(3.05108e-13 0 7.54631e-13)
(1.84061e-13 0 7.70105e-13)
(6.15612e-14 0 7.77785e-13)
(-0.000164785 0 0.000564029)
(-0.000145685 0 0.0007072)
(-0.000223134 0 0.00080785)
(-0.00036018 0 0.000885855)
(-0.000439455 0 0.000973613)
(-0.000535256 0 0.00102705)
(-0.000586054 0 0.00104798)
(-0.000758827 0 0.000932432)
(-0.000797693 0 0.000822169)
(-0.000863923 0 0.000587655)
(-0.000778687 0 0.000521443)
(-0.000785191 0 0.000334853)
(-0.000751926 0 0.000236063)
(-0.0007552 0 0.000159205)
(-0.000774931 0 5.67429e-06)
(-0.000739491 0 -0.000226619)
(-0.000629031 0 -0.000564182)
(-0.000905463 0 -0.000345496)
(-0.000780419 0 -0.000662139)
(-0.000710868 0 -0.000840685)
(-0.000764626 0 -0.000883537)
(-0.000635873 0 -0.00103313)
(-0.000637713 0 -0.00104026)
(-0.000559898 0 -0.00101514)
(-0.000329408 0 -0.000967519)
(-0.00035446 0 -0.000818186)
(-0.000294084 0 -0.000795339)
(-0.000231469 0 -0.00084135)
(-5.81277e-05 0 -0.000870612)
(-6.3194e-05 0 -0.000768257)
(9.15607e-05 0 -0.000627487)
(7.69394e-05 0 -0.000543264)
(5.02071e-05 0 -0.000546938)
(6.10416e-05 0 -0.000525275)
(6.12814e-05 0 -0.000557263)
(8.58385e-05 0 -0.000577201)
(0.000147421 0 -0.000577747)
(0.000252671 0 -0.000526757)
(0.000358248 0 -0.000461663)
(0.00044916 0 -0.000389099)
(0.000558621 0 -0.00030297)
(0.000643114 0 -0.000285605)
(0.000720079 0 -0.000332707)
(0.000827755 0 -0.000224403)
(0.000859187 0 -0.000133089)
(0.000861498 0 -0.000133514)
(0.000860728 0 -0.000126488)
(0.000836461 0 -0.000159927)
(0.000826334 0 -0.000116068)
(0.000802396 0 -0.000151144)
(0.000795085 0 -8.92563e-05)
(0.000779756 0 -7.27043e-05)
(0.000758475 0 -6.75459e-05)
(0.000744105 0 2.97157e-06)
(0.000717993 0 -3.43595e-05)
(0.000693089 0 -3.87679e-05)
(0.000687071 0 4.25627e-05)
(0.00067578 0 -3.58786e-06)
(0.000651449 0 2.63538e-05)
(0.000632283 0 7.17225e-05)
(0.000619665 0 9.46964e-05)
(0.000606296 0 4.99397e-05)
(0.000589539 0 0.000112865)
(0.000574151 0 0.000167132)
(0.000564934 0 0.000173523)
(0.000566092 0 0.000176831)
(0.000564566 0 0.000208715)