/*--------------------------------*- C++ -*----------------------------------*\
  =========                 |
  \\      /  F ield         | OpenFOAM: The Open Source CFD Toolbox
   \\    /   O peration     | Website:  https://openfoam.org
    \\  /    A nd           | Version:  6
     \\/     M anipulation  |
\*---------------------------------------------------------------------------*/
FoamFile
{
    version     2.0;
    format      ascii;
    class       surfaceScalarField;
    location    "480";
    object      phi;
}
// * * * * * * * * * * * * * * * * * * * * * * * * * * * * * * * * * * * * * //

dimensions      [0 3 -1 0 0 0 0];

internalField   nonuniform List<scalar> 
11773
(
-1.39288e-08
1.39288e-08
-3.63563e-08
2.24393e-08
-4.85874e-08
1.22405e-08
-5.31902e-08
4.6118e-09
-5.51144e-08
1.9333e-09
-3.98689e-08
-1.52364e-08
-4.10905e-08
1.23067e-09
-4.81443e-08
7.06279e-09
-2.94727e-08
-1.86624e-08
-1.66251e-08
-1.28385e-08
-2.65211e-08
9.90523e-09
-2.10146e-08
-5.49726e-09
-1.82433e-08
-2.76201e-09
-4.4087e-09
-1.38253e-08
-5.5579e-09
1.15858e-09
-5.58196e-12
-5.54292e-09
1.18583e-13
4.86491e-14
9.574e-14
2.28433e-14
8.27681e-14
1.29844e-14
7.42317e-14
8.5474e-15
6.79705e-14
6.26931e-15
6.30123e-14
4.96354e-15
5.88767e-14
4.13873e-15
5.53059e-14
3.57184e-15
5.21509e-14
3.15449e-15
4.93184e-14
2.83067e-15
4.67461e-14
2.56953e-15
4.43898e-14
2.35294e-15
4.22165e-14
2.16954e-15
4.02006e-14
2.01178e-15
3.83221e-14
1.87439e-15
3.65645e-14
1.75355e-15
3.49142e-14
1.64639e-15
3.33596e-14
1.5507e-15
3.18913e-14
1.46473e-15
3.05007e-14
1.38708e-15
2.91808e-14
1.31661e-15
2.79252e-14
1.25237e-15
2.67287e-14
1.19357e-15
2.55863e-14
1.13953e-15
2.4494e-14
1.08968e-15
2.34479e-14
1.04355e-15
2.24448e-14
1.0007e-15
2.14817e-14
9.6079e-16
2.05561e-14
9.23493e-16
1.96656e-14
8.88543e-16
1.88081e-14
8.55704e-16
1.79816e-14
8.24773e-16
1.71845e-14
7.95571e-16
1.64152e-14
7.67945e-16
1.56721e-14
7.41759e-16
1.49541e-14
7.16897e-16
1.42598e-14
6.93256e-16
1.35881e-14
6.70749e-16
1.2938e-14
6.49297e-16
1.23084e-14
6.28833e-16
1.16985e-14
6.093e-16
1.11073e-14
5.90647e-16
1.0534e-14
5.72831e-16
9.97774e-15
5.55813e-16
9.43784e-15
5.39561e-16
8.91352e-15
5.24049e-16
8.40405e-15
5.09252e-16
7.90874e-15
4.95149e-16
7.42691e-15
4.81725e-16
6.95789e-15
4.68966e-16
6.50103e-15
4.56859e-16
6.0557e-15
4.45395e-16
5.62125e-15
4.34567e-16
5.19706e-15
4.24368e-16
4.78251e-15
4.14793e-16
4.37698e-15
4.05839e-16
3.97986e-15
3.97502e-16
3.59055e-15
3.89778e-16
3.20843e-15
3.82662e-16
2.8329e-15
3.76148e-16
2.46339e-15
3.70221e-16
2.09933e-15
3.64856e-16
1.7402e-15
3.60009e-16
1.38553e-15
3.55628e-16
1.03488e-15
3.51682e-16
6.87727e-16
3.48248e-16
3.43248e-16
3.45626e-16
3.44429e-16
-3.35811e-08
4.75217e-08
-4.66113e-08
3.54885e-08
-4.94699e-08
1.51157e-08
-5.19828e-08
7.14102e-09
-4.74441e-08
-2.5892e-09
-5.01515e-08
-1.25126e-08
-4.89831e-08
7.86045e-11
-4.14121e-08
-4.91814e-10
-3.99176e-08
-2.01404e-08
-3.1694e-08
-2.10457e-08
-3.99815e-08
1.82093e-08
-2.33841e-08
-2.2078e-08
-1.19017e-08
-1.42277e-08
-5.47746e-09
-2.02327e-08
-4.77586e-09
4.73825e-10
-4.44523e-12
-1.03012e-08
9.59341e-14
4.85939e-14
8.71011e-14
3.1686e-14
7.88904e-14
2.12135e-14
7.22485e-14
1.52038e-14
6.68397e-14
1.16878e-14
6.23026e-14
9.50609e-15
5.83924e-14
8.05093e-15
5.49521e-14
7.01127e-15
5.18785e-14
6.22502e-15
4.91004e-14
5.60395e-15
4.65667e-14
5.0973e-15
4.4239e-14
4.67395e-15
4.20877e-14
4.31374e-15
4.00894e-14
4.00286e-15
3.8225e-14
3.73151e-15
3.64791e-14
3.49245e-15
3.48385e-14
3.28019e-15
3.32922e-14
3.09045e-15
3.18309e-14
2.91986e-15
3.04464e-14
2.76567e-15
2.91317e-14
2.62567e-15
2.78808e-14
2.49798e-15
2.66882e-14
2.38105e-15
2.55494e-14
2.27357e-15
2.44602e-14
2.1744e-15
2.34169e-14
2.0826e-15
2.24163e-14
1.99733e-15
2.14554e-14
1.91788e-15
2.05318e-14
1.84362e-15
1.96431e-14
1.77403e-15
1.87872e-14
1.70863e-15
1.79622e-14
1.64702e-15
1.71664e-14
1.58884e-15
1.63983e-14
1.5338e-15
1.56564e-14
1.48161e-15
1.49394e-14
1.43206e-15
1.4246e-14
1.38493e-15
1.35753e-14
1.34005e-15
1.2926e-14
1.29727e-15
1.22972e-14
1.25646e-15
1.16881e-14
1.21749e-15
1.10976e-14
1.18027e-15
1.0525e-14
1.14472e-15
9.96945e-15
1.11076e-15
9.4302e-15
1.07833e-15
8.90651e-15
1.04736e-15
8.39766e-15
1.01783e-15
7.90295e-15
9.89681e-16
7.42172e-15
9.62888e-16
6.95328e-15
9.37422e-16
6.497e-15
9.13263e-16
6.05224e-15
8.90391e-16
5.61835e-15
8.68791e-16
5.19472e-15
8.48453e-16
4.78073e-15
8.29366e-16
4.37575e-15
8.11524e-16
3.97919e-15
7.94917e-16
3.59042e-15
7.79541e-16
3.20884e-15
7.65384e-16
2.83385e-15
7.52433e-16
2.46485e-15
7.40665e-16
2.10125e-15
7.30037e-16
1.7425e-15
7.20488e-16
1.38804e-15
7.1194e-16
1.03734e-15
7.04354e-16
6.8979e-16
6.97847e-16
3.44677e-16
6.92849e-16
6.9006e-16
-2.49257e-08
7.24568e-08
-4.34638e-08
5.40435e-08
-5.46104e-08
2.62768e-08
-5.43197e-08
6.8648e-09
-5.36967e-08
-3.19781e-09
-6.61476e-08
-4.72357e-11
-6.3375e-08
-2.67958e-09
-6.13133e-08
-2.53903e-09
-6.15954e-08
-1.98439e-08
-4.59203e-08
-3.67061e-08
-3.70993e-08
9.40299e-09
-2.6825e-08
-3.23377e-08
-1.22729e-08
-2.87651e-08
-1.15299e-08
-2.09609e-08
-5.43677e-09
-5.60439e-09
-4.34613e-12
-1.57217e-08
8.11048e-14
4.85687e-14
7.79217e-14
3.48771e-14
7.3629e-14
2.55231e-14
6.91761e-14
1.96702e-14
6.49381e-14
1.5935e-14
6.10383e-14
1.34112e-14
5.74923e-14
1.15991e-14
5.42738e-14
1.02292e-14
5.13447e-14
9.15165e-15
4.86665e-14
8.27805e-15
4.62055e-14
7.55323e-15
4.39327e-14
6.94086e-15
4.18243e-14
6.41591e-15
3.98603e-14
5.96051e-15
3.80239e-14
5.56151e-15
3.63012e-14
5.20899e-15
3.468e-14
4.89531e-15
3.31503e-14
4.61443e-15
3.17032e-14
4.36155e-15
3.03309e-14
4.13274e-15
2.90268e-14
3.92477e-15
2.77852e-14
3.73495e-15
2.66008e-14
3.56101e-15
2.54692e-14
3.40102e-15
2.43863e-14
3.25333e-15
2.33486e-14
3.11654e-15
2.2353e-14
2.98943e-15
2.13966e-14
2.87094e-15
2.0477e-14
2.76016e-15
1.95919e-14
2.65629e-15
1.87393e-14
2.55864e-15
1.79172e-14
2.46663e-15
1.71242e-14
2.37971e-15
1.63585e-14
2.29745e-15
1.56189e-14
2.21944e-15
1.4904e-14
2.14534e-15
1.42126e-14
2.07485e-15
1.35437e-14
2.00771e-15
1.28961e-14
1.94369e-15
1.2269e-14
1.8826e-15
1.16614e-14
1.82427e-15
1.10723e-14
1.76855e-15
1.05011e-14
1.71531e-15
9.94694e-15
1.66444e-15
9.40899e-15
1.61586e-15
8.88656e-15
1.56947e-15
8.37893e-15
1.52522e-15
7.88543e-15
1.48304e-15
7.40536e-15
1.44289e-15
6.93809e-15
1.40472e-15
6.48295e-15
1.36851e-15
6.03931e-15
1.33423e-15
5.60655e-15
1.30186e-15
5.18403e-15
1.27137e-15
4.77114e-15
1.24276e-15
4.36726e-15
1.21602e-15
3.97179e-15
1.19114e-15
3.5841e-15
1.1681e-15
3.20359e-15
1.1469e-15
2.82966e-15
1.12751e-15
2.46168e-15
1.10992e-15
2.09905e-15
1.09407e-15
1.74116e-15
1.0799e-15
1.38741e-15
1.06733e-15
1.03721e-15
1.0563e-15
6.89935e-16
1.04695e-15
3.44845e-16
1.03981e-15
1.03586e-15
-2.66604e-08
9.91263e-08
-4.07394e-08
6.81395e-08
-6.00213e-08
4.55733e-08
-6.43695e-08
1.12276e-08
-7.20294e-08
4.47663e-09
-8.79746e-08
1.59125e-08
-9.11831e-08
5.43396e-10
-8.65813e-08
-7.12635e-09
-6.33084e-08
-4.31022e-08
-6.09413e-08
-3.90585e-08
-4.55456e-08
-5.9782e-09
-3.1955e-08
-4.59135e-08
-2.36938e-08
-3.70114e-08
-1.92486e-08
-2.53911e-08
-2.74665e-09
-2.20914e-08
-4.45074e-12
-1.84519e-08
6.91008e-14
4.85941e-14
6.97224e-14
3.42636e-14
6.85029e-14
2.67599e-14
6.59091e-14
2.22784e-14
6.27347e-14
1.91192e-14
5.94594e-14
1.66923e-14
5.63013e-14
1.47595e-14
5.33391e-14
1.31911e-14
5.05886e-14
1.18998e-14
4.80407e-14
1.0822e-14
4.56779e-14
9.91091e-15
4.34815e-14
9.13145e-15
4.14338e-14
8.45742e-15
3.95189e-14
7.869e-15
3.7723e-14
7.35102e-15
3.6034e-14
6.89174e-15
3.44414e-14
6.4819e-15
3.2936e-14
6.1141e-15
3.15098e-14
5.78235e-15
3.01556e-14
5.48173e-15
2.88673e-14
5.20815e-15
2.76394e-14
4.95817e-15
2.64672e-14
4.72889e-15
2.53462e-14
4.51782e-15
2.42727e-14
4.32284e-15
2.32435e-14
4.14212e-15
2.22553e-14
3.97408e-15
2.13057e-14
3.81734e-15
2.03921e-14
3.67072e-15
1.95124e-14
3.53317e-15
1.86646e-14
3.4038e-15
1.7847e-14
3.28183e-15
1.7058e-14
3.16656e-15
1.62961e-14
3.05742e-15
1.55598e-14
2.95388e-15
1.48481e-14
2.85549e-15
1.41597e-14
2.76187e-15
1.34934e-14
2.67266e-15
1.28485e-14
2.58757e-15
1.22237e-14
2.50636e-15
1.16184e-14
2.42878e-15
1.10316e-14
2.35466e-15
1.04624e-14
2.28383e-15
9.91023e-15
2.21614e-15
9.37422e-15
2.15147e-15
8.85367e-15
2.08972e-15
8.34788e-15
2.03079e-15
7.85616e-15
1.97462e-15
7.37785e-15
1.92115e-15
6.9123e-15
1.87031e-15
6.45887e-15
1.82207e-15
6.01692e-15
1.7764e-15
5.58583e-15
1.73326e-15
5.16497e-15
1.69265e-15
4.75373e-15
1.65453e-15
4.3515e-15
1.6189e-15
3.95766e-15
1.58574e-15
3.5716e-15
1.55505e-15
3.1927e-15
1.52682e-15
2.82035e-15
1.50102e-15
2.45392e-15
1.47764e-15
2.09278e-15
1.45664e-15
1.7363e-15
1.43794e-15
1.38384e-15
1.42146e-15
1.03477e-15
1.40714e-15
6.88463e-16
1.39511e-15
3.44203e-16
1.38598e-15
1.38107e-15
-1.46638e-08
1.13799e-07
-3.4809e-08
8.83026e-08
-5.69699e-08
6.7749e-08
-7.49364e-08
2.92092e-08
-1.05153e-07
3.47083e-08
-1.1052e-07
2.12941e-08
-1.17021e-07
7.05905e-09
-1.06814e-07
-1.73179e-08
-1.01191e-07
-4.87108e-08
-9.30436e-08
-4.71907e-08
-6.17942e-08
-3.72127e-08
-4.28896e-08
-6.48028e-08
-3.38621e-08
-4.60236e-08
-1.57034e-08
-4.35345e-08
-4.09049e-09
-3.3689e-08
-4.63831e-12
-2.25254e-08
5.65308e-14
4.80776e-14
6.31435e-14
2.76595e-14
6.45779e-14
2.53436e-14
6.31457e-14
2.37266e-14
6.06146e-14
2.16613e-14
5.77734e-14
1.95401e-14
5.49352e-14
1.76006e-14
5.22161e-14
1.59102e-14
4.96528e-14
1.44607e-14
4.72509e-14
1.322e-14
4.50033e-14
1.21533e-14
4.28991e-14
1.12298e-14
4.09262e-14
1.0424e-14
3.90728e-14
9.71585e-15
3.73281e-14
9.0892e-15
3.56823e-14
8.53126e-15
3.41263e-14
8.03173e-15
3.26523e-14
7.58225e-15
3.12532e-14
7.17595e-15
2.99226e-14
6.8071e-15
2.86548e-14
6.47091e-15
2.7445e-14
6.16332e-15
2.62886e-14
5.88086e-15
2.51816e-14
5.62058e-15
2.41206e-14
5.37991e-15
2.31023e-14
5.15664e-15
2.2124e-14
4.94886e-15
2.11832e-14
4.75491e-15
2.02775e-14
4.57335e-15
1.94049e-14
4.40291e-15
1.85636e-14
4.24249e-15
1.77519e-14
4.09116e-15
1.69682e-14
3.94807e-15
1.62112e-14
3.8125e-15
1.54794e-14
3.68382e-15
1.47718e-14
3.56149e-15
1.40873e-14
3.44502e-15
1.34247e-14
3.334e-15
1.27831e-14
3.22807e-15
1.21616e-14
3.12692e-15
1.15592e-14
3.03028e-15
1.09753e-14
2.9379e-15
1.04089e-14
2.8496e-15
9.8594e-15
2.76519e-15
9.32595e-15
2.68453e-15
8.80789e-15
2.60749e-15
8.30453e-15
2.53396e-15
7.81518e-15
2.46386e-15
7.33921e-15
2.3971e-15
6.87595e-15
2.33363e-15
6.42478e-15
2.2734e-15
5.98508e-15
2.21636e-15
5.55621e-15
2.16248e-15
5.13756e-15
2.11174e-15
4.72852e-15
2.06413e-15
4.32847e-15
2.01962e-15
3.93681e-15
1.97821e-15
3.55292e-15
1.93989e-15
3.17617e-15
1.90464e-15
2.80595e-15
1.87246e-15
2.44161e-15
1.84333e-15
2.08252e-15
1.81722e-15
1.72802e-15
1.79407e-15
1.37745e-15
1.77378e-15
1.03016e-15
1.75628e-15
6.85538e-16
1.74167e-15
3.42909e-16
1.7306e-15
1.72504e-15
-3.06722e-08
1.44481e-07
-4.1419e-08
9.90681e-08
-6.33231e-08
8.96688e-08
-8.05444e-08
4.64462e-08
-1.098e-07
6.39794e-08
-1.1861e-07
3.01192e-08
-1.23048e-07
1.15117e-08
-1.01905e-07
-3.84446e-08
-1.04428e-07
-4.61723e-08
-9.33623e-08
-5.82411e-08
-5.63816e-08
-7.41775e-08
-5.07635e-08
-7.04051e-08
-3.74372e-08
-5.93342e-08
-2.50963e-08
-5.58596e-08
-1.06402e-08
-4.81291e-08
1.11815e-10
-3.32648e-08
3.86106e-14
1.16828e-10
6.11125e-14
5.16794e-15
6.31646e-14
2.33102e-14
6.13408e-14
2.55663e-14
5.87617e-14
2.42519e-14
5.60807e-14
2.22283e-14
5.34613e-14
2.02234e-14
5.09536e-14
1.84183e-14
4.85735e-14
1.68386e-14
4.6324e-14
1.54656e-14
4.42018e-14
1.42703e-14
4.22007e-14
1.32249e-14
4.03131e-14
1.23051e-14
3.8531e-14
1.14913e-14
3.68464e-14
1.07672e-14
3.52515e-14
1.01196e-14
3.37393e-14
9.53774e-15
3.2303e-14
9.01261e-15
3.09365e-14
8.53675e-15
2.96344e-14
8.10388e-15
2.83916e-14
7.70863e-15
2.72037e-14
7.34646e-15
2.60666e-14
7.01343e-15
2.49768e-14
6.70617e-15
2.39309e-14
6.42173e-15
2.29262e-14
6.15759e-15
2.196e-14
5.91154e-15
2.10299e-14
5.68164e-15
2.0134e-14
5.46624e-15
1.92702e-14
5.26386e-15
1.84368e-14
5.07324e-15
1.76323e-14
4.89327e-15
1.68552e-14
4.72298e-15
1.61041e-14
4.56154e-15
1.5378e-14
4.4082e-15
1.46755e-14
4.26234e-15
1.39957e-14
4.1234e-15
1.33376e-14
3.99089e-15
1.27002e-14
3.86439e-15
1.20826e-14
3.74354e-15
1.1484e-14
3.62803e-15
1.09037e-14
3.51758e-15
1.03407e-14
3.41196e-15
9.7945e-15
3.31097e-15
9.26425e-15
3.21443e-15
8.74928e-15
3.12219e-15
8.24893e-15
3.03414e-15
7.76254e-15
2.95017e-15
7.28946e-15
2.87019e-15
6.82906e-15
2.79413e-15
6.38071e-15
2.72193e-15
5.9438e-15
2.65356e-15
5.5177e-15
2.58897e-15
5.1018e-15
2.52813e-15
4.69551e-15
2.47104e-15
4.2982e-15
2.41767e-15
3.90926e-15
2.36801e-15
3.52808e-15
2.32207e-15
3.15403e-15
2.27983e-15
2.78649e-15
2.24129e-15
2.42481e-15
2.20645e-15
2.06834e-15
2.17527e-15
1.71641e-15
2.14772e-15
1.36833e-15
2.1237e-15
1.02347e-15
2.1031e-15
6.81201e-16
2.08598e-15
3.40902e-16
2.073e-15
2.06707e-15
1.92394e-10
1.44299e-07
-4.01431e-08
1.39422e-07
-6.90517e-08
1.18594e-07
-1.01762e-07
7.91728e-08
-1.00848e-07
6.3082e-08
-1.14737e-07
4.40241e-08
-1.15973e-07
1.27636e-08
-1.08826e-07
-4.55759e-08
-1.01695e-07
-5.32866e-08
-8.15583e-08
-7.83615e-08
-5.98226e-08
-9.58968e-08
-5.50495e-08
-7.51623e-08
-3.70647e-08
-7.73027e-08
-2.62818e-08
-6.66258e-08
-1.60934e-08
-5.83009e-08
9.04079e-09
-5.83857e-08
1.23507e-14
9.16332e-09
7.70443e-14
4.82669e-14
6.51499e-14
3.52131e-14
6.01939e-14
3.05394e-14
5.69938e-14
2.74648e-14
5.433e-14
2.49001e-14
5.18863e-14
2.2671e-14
4.95765e-14
2.07287e-14
4.73776e-14
1.90356e-14
4.52839e-14
1.75555e-14
4.32929e-14
1.62561e-14
4.14019e-14
1.51098e-14
3.9607e-14
1.40935e-14
3.79034e-14
1.31881e-14
3.62856e-14
1.23781e-14
3.47482e-14
1.16504e-14
3.32856e-14
1.0994e-14
3.18923e-14
1.03998e-14
3.05634e-14
9.85988e-15
2.92942e-14
9.36767e-15
2.80803e-14
8.91738e-15
2.69178e-14
8.50406e-15
2.58033e-14
8.12342e-15
2.47334e-14
7.77174e-15
2.37053e-14
7.44577e-15
2.27163e-14
7.14269e-15
2.17643e-14
6.86004e-15
2.08469e-14
6.59567e-15
1.99623e-14
6.3477e-15
1.91088e-14
6.11449e-15
1.82847e-14
5.89464e-15
1.74887e-14
5.68688e-15
1.67193e-14
5.49013e-15
1.59754e-14
5.30346e-15
1.52558e-14
5.12603e-15
1.45594e-14
4.95713e-15
1.38853e-14
4.79613e-15
1.32324e-14
4.6425e-15
1.26e-14
4.49575e-15
1.19871e-14
4.35549e-15
1.1393e-14
4.22135e-15
1.08168e-14
4.09304e-15
1.0258e-14
3.97028e-15
9.71565e-15
3.85285e-15
9.18919e-15
3.74056e-15
8.67791e-15
3.63324e-15
8.18115e-15
3.53076e-15
7.69828e-15
3.433e-15
7.22866e-15
3.33985e-15
6.77166e-15
3.25126e-15
6.32668e-15
3.16714e-15
5.8931e-15
3.08746e-15
5.47032e-15
3.01218e-15
5.05772e-15
2.94127e-15
4.65471e-15
2.87471e-15
4.26068e-15
2.81249e-15
3.87501e-15
2.75461e-15
3.49709e-15
2.70106e-15
3.1263e-15
2.65184e-15
2.762e-15
2.60697e-15
2.40355e-15
2.56643e-15
2.05028e-15
2.53022e-15
1.70152e-15
2.49831e-15
1.35657e-15
2.4706e-15
1.01477e-15
2.44698e-15
6.75488e-16
2.42744e-15
3.38086e-16
2.41262e-15
2.40636e-15
-4.19236e-08
1.86232e-07
-5.9052e-08
1.5657e-07
-6.14383e-08
1.20998e-07
-9.29865e-08
1.10738e-07
-9.82924e-08
6.84049e-08
-1.02689e-07
4.8438e-08
-1.06282e-07
1.63729e-08
-1.01896e-07
-4.9945e-08
-8.35613e-08
-7.16045e-08
-6.81237e-08
-9.37822e-08
-5.96338e-08
-1.0437e-07
-3.67815e-08
-9.79975e-08
-2.27577e-08
-9.13092e-08
-1.66786e-08
-7.26878e-08
-1.85865e-08
-5.63755e-08
-2.48015e-08
-5.21565e-08
-5.97753e-12
-1.56231e-08
6.55651e-14
4.84727e-14
6.10476e-14
3.97388e-14
5.75013e-14
3.41042e-14
5.47509e-14
3.02291e-14
5.23824e-14
2.72775e-14
5.01906e-14
2.48675e-14
4.80994e-14
2.28211e-14
4.60875e-14
2.10459e-14
4.41521e-14
1.94871e-14
4.22952e-14
1.81079e-14
4.0518e-14
1.68808e-14
3.88202e-14
1.57845e-14
3.72e-14
1.48014e-14
3.56542e-14
1.39169e-14
3.41792e-14
1.31186e-14
3.27709e-14
1.23957e-14
3.14252e-14
1.17393e-14
3.0138e-14
1.11412e-14
2.89054e-14
1.05947e-14
2.77239e-14
1.00937e-14
2.659e-14
9.63299e-15
2.55007e-14
9.20801e-15
2.44534e-14
8.81476e-15
2.34453e-14
8.44973e-15
2.24742e-14
8.10987e-15
2.15382e-14
7.7925e-15
2.06351e-14
7.49528e-15
1.97635e-14
7.21618e-15
1.89217e-14
6.95341e-15
1.81082e-14
6.7054e-15
1.73218e-14
6.47081e-15
1.65613e-14
6.24844e-15
1.58255e-14
6.03726e-15
1.51134e-14
5.83636e-15
1.44239e-14
5.64497e-15
1.37562e-14
5.4624e-15
1.31094e-14
5.28806e-15
1.24827e-14
5.12143e-15
1.18752e-14
4.96206e-15
1.12862e-14
4.80957e-15
1.07149e-14
4.66362e-15
1.01608e-14
4.52392e-15
9.62296e-15
4.39024e-15
9.10088e-15
4.26234e-15
8.59385e-15
4.14007e-15
8.10125e-15
4.02326e-15
7.62245e-15
3.91179e-15
7.15684e-15
3.80556e-15
6.70379e-15
3.70448e-15
6.26272e-15
3.60849e-15
5.83302e-15
3.51755e-15
5.41409e-15
3.4316e-15
5.00533e-15
3.35063e-15
4.60615e-15
3.27462e-15
4.21593e-15
3.20357e-15
3.83408e-15
3.13747e-15
3.45998e-15
3.07632e-15
3.093e-15
3.02014e-15
2.73251e-15
2.96893e-15
2.37786e-15
2.92271e-15
2.02839e-15
2.88149e-15
1.6834e-15
2.84524e-15
1.34222e-15
2.81388e-15
1.00413e-15
2.78727e-15
6.68462e-16
2.76543e-15
3.34473e-16
2.74896e-15
2.74212e-15
-2.45831e-08
2.10827e-07
-4.83325e-08
1.80341e-07
-7.39146e-08
1.46598e-07
-7.9621e-08
1.16462e-07
-8.63988e-08
7.52e-08
-8.46552e-08
4.6712e-08
-8.63115e-08
1.80467e-08
-8.12265e-08
-5.50122e-08
-7.16412e-08
-8.11723e-08
-6.1832e-08
-1.03575e-07
-4.68588e-08
-1.19326e-07
-1.99653e-08
-1.24872e-07
-2.78095e-09
-1.08475e-07
1.04843e-08
-8.59352e-08
7.20103e-09
-5.30734e-08
-1.26161e-08
-3.23212e-08
-5.8709e-12
-2.82183e-08
5.79075e-14
4.87088e-14
5.61103e-14
4.15448e-14
5.41093e-14
3.61251e-14
5.21697e-14
3.21839e-14
5.02764e-14
2.91809e-14
4.84036e-14
2.67458e-14
4.65503e-14
2.46761e-14
4.4728e-14
2.28669e-14
4.29499e-14
2.12617e-14
4.12262e-14
1.98264e-14
3.95635e-14
1.85373e-14
3.79648e-14
1.73764e-14
3.64309e-14
1.63283e-14
3.49605e-14
1.53802e-14
3.35516e-14
1.45205e-14
3.22013e-14
1.37393e-14
3.09067e-14
1.30275e-14
2.96646e-14
1.23773e-14
2.84719e-14
1.17817e-14
2.73256e-14
1.12346e-14
2.6223e-14
1.07306e-14
2.51615e-14
1.02647e-14
2.41389e-14
9.83298e-15
2.31528e-14
9.43157e-15
2.22015e-14
9.05727e-15
2.12831e-14
8.70724e-15
2.0396e-14
8.37898e-15
1.95386e-14
8.07031e-15
1.87098e-14
7.77933e-15
1.79081e-14
7.50438e-15
1.71324e-14
7.24399e-15
1.63817e-14
6.9969e-15
1.56549e-14
6.762e-15
1.49511e-14
6.53834e-15
1.42694e-14
6.32506e-15
1.3609e-14
6.12144e-15
1.29689e-14
5.92685e-15
1.23486e-14
5.74073e-15
1.17471e-14
5.5626e-15
1.11639e-14
5.39205e-15
1.05981e-14
5.22872e-15
1.00492e-14
5.07231e-15
9.51656e-15
4.92255e-15
8.99942e-15
4.77921e-15
8.49721e-15
4.64211e-15
8.00931e-15
4.51109e-15
7.53513e-15
4.386e-15
7.07405e-15
4.26676e-15
6.62549e-15
4.15326e-15
6.18886e-15
4.04545e-15
5.76357e-15
3.94327e-15
5.34902e-15
3.84669e-15
4.94464e-15
3.75569e-15
4.54982e-15
3.67024e-15
4.16397e-15
3.59036e-15
3.78648e-15
3.51604e-15
3.41675e-15
3.4473e-15
3.05414e-15
3.38416e-15
2.69803e-15
3.32662e-15
2.34776e-15
3.27473e-15
2.00268e-15
3.2285e-15
1.66209e-15
3.18791e-15
1.3253e-15
3.1529e-15
9.91573e-16
3.12337e-15
6.60136e-16
3.09934e-15
3.30117e-16
3.08148e-15
3.07362e-15
-7.37675e-09
2.18216e-07
-2.50327e-08
1.98018e-07
-5.81887e-08
1.79773e-07
-6.21068e-08
1.20399e-07
-7.06917e-08
8.38034e-08
-6.8961e-08
4.49999e-08
-7.02237e-08
1.93278e-08
-5.97766e-08
-6.54408e-08
-4.07208e-08
-1.0021e-07
-1.44805e-08
-1.29796e-07
7.68346e-10
-1.34556e-07
1.04617e-08
-1.34547e-07
1.61235e-08
-1.14119e-07
1.56617e-08
-8.54549e-08
8.36819e-09
-4.57611e-08
-2.21813e-09
-2.17156e-08
-5.95903e-12
-3.04149e-08
5.16456e-14
4.87552e-14
5.13703e-14
4.18296e-14
5.0663e-14
3.6854e-14
4.9545e-14
3.33186e-14
4.81492e-14
3.05882e-14
4.65964e-14
2.83052e-14
4.49712e-14
2.63037e-14
4.33275e-14
2.45098e-14
4.16981e-14
2.28879e-14
4.01025e-14
2.14169e-14
3.85519e-14
2.00818e-14
3.70521e-14
1.88693e-14
3.56055e-14
1.77677e-14
3.42126e-14
1.67659e-14
3.28723e-14
1.58538e-14
3.15829e-14
1.50219e-14
3.03422e-14
1.42617e-14
2.91479e-14
1.35655e-14
2.79976e-14
1.29262e-14
2.6889e-14
1.23378e-14
2.582e-14
1.17945e-14
2.47883e-14
1.12916e-14
2.37923e-14
1.08245e-14
2.283e-14
1.03896e-14
2.19e-14
9.98334e-15
2.10006e-14
9.60283e-15
2.01307e-14
9.24543e-15
1.92889e-14
8.90888e-15
1.84741e-14
8.59116e-15
1.76852e-14
8.29052e-15
1.69212e-14
8.00546e-15
1.61812e-14
7.73463e-15
1.54643e-14
7.47687e-15
1.47696e-14
7.23117e-15
1.40964e-14
6.99665e-15
1.34439e-14
6.77255e-15
1.28113e-14
6.55819e-15
1.2198e-14
6.353e-15
1.16032e-14
6.15648e-15
1.10263e-14
5.96819e-15
1.04666e-14
5.78776e-15
9.92361e-15
5.61487e-15
9.39658e-15
5.44923e-15
8.88493e-15
5.29063e-15
8.38807e-15
5.13884e-15
7.90541e-15
4.99372e-15
7.43637e-15
4.85513e-15
6.98036e-15
4.72295e-15
6.53681e-15
4.5971e-15
6.10514e-15
4.47751e-15
5.68478e-15
4.36413e-15
5.27514e-15
4.25694e-15
4.87566e-15
4.15591e-15
4.48574e-15
4.06104e-15
4.10479e-15
3.97234e-15
3.73222e-15
3.8898e-15
3.3674e-15
3.81347e-15
3.00973e-15
3.74336e-15
2.65857e-15
3.6795e-15
2.31326e-15
3.62193e-15
1.97315e-15
3.57067e-15
1.63756e-15
3.52574e-15
1.30578e-15
3.48709e-15
9.77022e-16
3.45465e-15
6.50478e-16
3.42854e-15
3.25159e-16
3.40949e-15
3.40026e-15
-5.16287e-08
2.69857e-07
-5.79242e-08
2.04339e-07
-4.45257e-08
1.66395e-07
-5.22526e-08
1.28145e-07
-5.21832e-08
8.37533e-08
-4.61271e-08
3.89631e-08
-3.27402e-08
5.96009e-09
-2.66203e-08
-7.15415e-08
-1.10612e-08
-1.15749e-07
1.0166e-08
-1.51004e-07
2.60582e-08
-1.50428e-07
3.17344e-08
-1.40204e-07
3.49739e-08
-1.17338e-07
2.62131e-08
-7.66744e-08
2.02432e-08
-3.97714e-08
9.50867e-09
-1.09609e-08
-6.19845e-12
-2.08837e-08
4.56017e-14
4.87131e-14
4.70249e-14
4.04167e-14
4.75753e-14
3.63267e-14
4.71608e-14
3.37514e-14
4.61558e-14
3.16061e-14
4.48491e-14
2.96197e-14
4.34055e-14
2.77507e-14
4.19121e-14
2.6003e-14
4.04148e-14
2.43823e-14
3.89379e-14
2.28889e-14
3.74947e-14
2.15189e-14
3.60919e-14
2.02652e-14
3.47327e-14
1.91196e-14
3.34182e-14
1.8073e-14
3.21482e-14
1.71166e-14
3.09216e-14
1.62416e-14
2.97369e-14
1.54397e-14
2.85925e-14
1.47036e-14
2.74867e-14
1.40262e-14
2.64178e-14
1.34012e-14
2.5384e-14
1.28231e-14
2.43839e-14
1.22868e-14
2.3416e-14
1.17879e-14
2.2479e-14
1.13223e-14
2.15715e-14
1.08868e-14
2.06925e-14
1.04781e-14
1.98408e-14
1.00935e-14
1.90156e-14
9.73084e-15
1.82158e-14
9.38792e-15
1.74406e-14
9.06295e-15
1.66891e-14
8.75438e-15
1.59606e-14
8.46083e-15
1.52543e-14
8.1811e-15
1.45694e-14
7.91415e-15
1.39054e-14
7.65907e-15
1.32614e-14
7.41507e-15
1.26369e-14
7.18146e-15
1.20312e-14
6.95766e-15
1.14437e-14
6.74313e-15
1.08737e-14
6.53744e-15
1.03207e-14
6.34019e-15
9.78403e-15
6.15106e-15
9.26318e-15
5.96977e-15
8.75754e-15
5.79606e-15
8.26655e-15
5.62975e-15
7.78964e-15
5.47065e-15
7.32624e-15
5.31865e-15
6.87581e-15
5.17361e-15
6.43777e-15
5.03547e-15
6.01158e-15
4.90415e-15
5.59667e-15
4.77961e-15
5.19246e-15
4.66183e-15
4.79841e-15
4.55079e-15
4.41392e-15
4.4465e-15
4.03841e-15
4.34896e-15
3.67129e-15
4.25821e-15
3.31195e-15
4.17427e-15
2.95977e-15
4.09718e-15
2.61412e-15
4.02698e-15
2.27436e-15
3.96372e-15
1.93981e-15
3.90744e-15
1.6098e-15
3.85815e-15
1.28359e-15
3.81586e-15
9.60414e-16
3.78054e-15
6.39447e-16
3.75236e-15
3.19751e-16
3.73208e-15
3.72159e-15
2.01002e-08
2.49769e-07
-5.54558e-10
2.2502e-07
-1.85936e-08
1.84455e-07
-2.51665e-08
1.34739e-07
-2.26979e-08
8.13053e-08
-1.62843e-08
3.25699e-08
4.10981e-10
-1.07148e-08
3.0185e-09
-7.41287e-08
1.68461e-08
-1.29557e-07
2.43527e-08
-1.58489e-07
3.29881e-08
-1.59043e-07
3.94205e-08
-1.46616e-07
4.20683e-08
-1.19966e-07
3.75444e-08
-7.213e-08
3.23824e-08
-3.45885e-08
1.39021e-08
7.54067e-09
-6.46887e-12
-6.95803e-09
3.83539e-14
4.88185e-14
4.34563e-14
3.53256e-14
4.53302e-14
3.4478e-14
4.529e-14
3.38117e-14
4.44228e-14
3.24876e-14
4.3218e-14
3.08334e-14
4.188e-14
2.90928e-14
4.04975e-14
2.73859e-14
3.91114e-14
2.57658e-14
3.77424e-14
2.42534e-14
3.64009e-14
2.28543e-14
3.50927e-14
2.15666e-14
3.38202e-14
2.03847e-14
3.25846e-14
1.93012e-14
3.13858e-14
1.8308e-14
3.02234e-14
1.7397e-14
2.90962e-14
1.65602e-14
2.80033e-14
1.57901e-14
2.69435e-14
1.508e-14
2.59157e-14
1.44234e-14
2.49186e-14
1.38149e-14
2.39513e-14
1.32491e-14
2.30127e-14
1.27218e-14
2.2102e-14
1.22288e-14
2.12181e-14
1.17665e-14
2.03603e-14
1.1332e-14
1.95279e-14
1.09224e-14
1.872e-14
1.05354e-14
1.7936e-14
1.01688e-14
1.71752e-14
9.82092e-15
1.64369e-14
9.49005e-15
1.57206e-14
9.17483e-15
1.50255e-14
8.87405e-15
1.43511e-14
8.58665e-15
1.36968e-14
8.31171e-15
1.3062e-14
8.04843e-15
1.24461e-14
7.79611e-15
1.18486e-14
7.55414e-15
1.12688e-14
7.32201e-15
1.07063e-14
7.09926e-15
1.01604e-14
6.88549e-15
9.63068e-15
6.68038e-15
9.11651e-15
6.48364e-15
8.61738e-15
6.29503e-15
8.13275e-15
6.11433e-15
7.66208e-15
5.94139e-15
7.20483e-15
5.77607e-15
6.76046e-15
5.61826e-15
6.32844e-15
5.46788e-15
5.90822e-15
5.32488e-15
5.49925e-15
5.1892e-15
5.10099e-15
5.06085e-15
4.71288e-15
4.93981e-15
4.33434e-15
4.82609e-15
3.96481e-15
4.71972e-15
3.60368e-15
4.62073e-15
3.25037e-15
4.52917e-15
2.90425e-15
4.44508e-15
2.56469e-15
4.36852e-15
2.23105e-15
4.29955e-15
1.90264e-15
4.23822e-15
1.57879e-15
4.18458e-15
1.25875e-15
4.13865e-15
9.41744e-16
4.10045e-15
6.27011e-16
4.07015e-15
3.13764e-16
4.04844e-15
4.03703e-15
-9.01468e-09
2.58797e-07
-2.23126e-08
2.38342e-07
-2.49609e-08
1.87126e-07
-2.20866e-08
1.31887e-07
-1.87298e-08
7.79702e-08
1.04126e-09
1.28204e-08
2.72592e-08
-3.69112e-08
3.26795e-08
-7.95276e-08
5.51358e-08
-1.51992e-07
6.38414e-08
-1.67174e-07
6.72101e-08
-1.62391e-07
6.336e-08
-1.42744e-07
5.49256e-08
-1.1151e-07
4.46298e-08
-6.18124e-08
3.56648e-08
-2.56014e-08
1.91515e-08
2.4076e-08
1.21286e-11
1.21992e-08
2.65271e-14
1.91461e-11
4.27276e-14
1.91374e-14
4.47582e-14
3.2476e-14
4.41389e-14
3.44537e-14
4.29808e-14
3.36618e-14
4.16992e-14
3.21252e-14
4.039e-14
3.04072e-14
3.9083e-14
2.86941e-14
3.77909e-14
2.70558e-14
3.65209e-14
2.55191e-14
3.52769e-14
2.40925e-14
3.40611e-14
2.27756e-14
3.28748e-14
2.15638e-14
3.17183e-14
2.04503e-14
3.05914e-14
1.94275e-14
2.9494e-14
1.84873e-14
2.84254e-14
1.7622e-14
2.7385e-14
1.6824e-14
2.63723e-14
1.60867e-14
2.53865e-14
1.54035e-14
2.44271e-14
1.47689e-14
2.34935e-14
1.41777e-14
2.25851e-14
1.36255e-14
2.17014e-14
1.3108e-14
2.08418e-14
1.26219e-14
2.0006e-14
1.21639e-14
1.91934e-14
1.17314e-14
1.84036e-14
1.13218e-14
1.7636e-14
1.09333e-14
1.68902e-14
1.05638e-14
1.61657e-14
1.02119e-14
1.5462e-14
9.87609e-15
1.47788e-14
9.55519e-15
1.41153e-14
9.24816e-15
1.34713e-14
8.95407e-15
1.28461e-14
8.67212e-15
1.22394e-14
8.40162e-15
1.16505e-14
8.14196e-15
1.1079e-14
7.89263e-15
1.05244e-14
7.65317e-15
9.98612e-15
7.42319e-15
9.46375e-15
7.20236e-15
8.95674e-15
6.99039e-15
8.46459e-15
6.78704e-15
7.98679e-15
6.59212e-15
7.52283e-15
6.40546e-15
7.07219e-15
6.22693e-15
6.63437e-15
6.05642e-15
6.20884e-15
5.89387e-15
5.79508e-15
5.73921e-15
5.39256e-15
5.59243e-15
5.00074e-15
5.45351e-15
4.61908e-15
5.32246e-15
4.24701e-15
5.1993e-15
3.88398e-15
5.08407e-15
3.52939e-15
4.97682e-15
3.18265e-15
4.87761e-15
2.84316e-15
4.78649e-15
2.51026e-15
4.70354e-15
2.18332e-15
4.62883e-15
1.86166e-15
4.56244e-15
1.54458e-15
4.50443e-15
1.23133e-15
4.45486e-15
9.21121e-16
4.41377e-15
6.13264e-16
4.38127e-15
3.07136e-16
4.35789e-15
4.34595e-15
-1.39265e-08
2.72738e-07
-1.56201e-08
2.40061e-07
-1.86498e-08
1.90179e-07
-7.01105e-09
1.20271e-07
3.68372e-09
6.72982e-08
3.60188e-08
-1.94921e-08
6.04681e-08
-6.1338e-08
8.09227e-08
-9.99598e-08
8.12841e-08
-1.52331e-07
8.2344e-08
-1.68212e-07
7.97922e-08
-1.59817e-07
7.35304e-08
-1.36461e-07
5.88379e-08
-9.67949e-08
4.8737e-08
-5.16883e-08
3.53258e-08
-1.2167e-08
2.35964e-08
3.58284e-08
4.65756e-09
3.11562e-08
6.57445e-14
4.68452e-09
5.44484e-14
4.90312e-14
4.6504e-14
4.04313e-14
4.34534e-14
3.7528e-14
4.16411e-14
3.54918e-14
4.01997e-14
3.35781e-14
3.88942e-14
3.17189e-14
3.76521e-14
2.99381e-14
3.64487e-14
2.82577e-14
3.52747e-14
2.66891e-14
3.41267e-14
2.52349e-14
3.30029e-14
2.38927e-14
3.19026e-14
2.26568e-14
3.08254e-14
2.15201e-14
2.9771e-14
2.04745e-14
2.87392e-14
1.95119e-14
2.77297e-14
1.86245e-14
2.67425e-14
1.78047e-14
2.57774e-14
1.70456e-14
2.48342e-14
1.63409e-14
2.3913e-14
1.56847e-14
2.30135e-14
1.50721e-14
2.21357e-14
1.44984e-14
2.12796e-14
1.39597e-14
2.04448e-14
1.34523e-14
1.96314e-14
1.29733e-14
1.88391e-14
1.252e-14
1.80677e-14
1.20898e-14
1.73169e-14
1.16808e-14
1.65865e-14
1.12913e-14
1.58763e-14
1.09195e-14
1.51858e-14
1.05641e-14
1.45147e-14
1.02241e-14
1.38627e-14
9.89822e-15
1.32293e-14
9.58569e-15
1.26143e-14
9.2857e-15
1.20171e-14
8.99756e-15
1.14373e-14
8.72068e-15
1.08745e-14
8.45455e-15
1.03282e-14
8.19873e-15
9.79801e-15
7.95284e-15
9.28344e-15
7.71654e-15
8.78403e-15
7.48956e-15
8.2993e-15
7.27168e-15
7.82877e-15
7.06268e-15
7.37197e-15
6.86242e-15
6.9284e-15
6.67077e-15
6.49758e-15
6.48764e-15
6.07901e-15
6.31295e-15
5.67218e-15
6.14668e-15
5.27659e-15
5.9888e-15
4.8917e-15
5.83931e-15
4.51699e-15
5.69824e-15
4.15191e-15
5.56562e-15
3.7959e-15
5.44151e-15
3.44839e-15
5.32596e-15
3.10878e-15
5.21906e-15
2.77646e-15
5.12087e-15
2.45081e-15
5.03148e-15
2.13117e-15
4.95099e-15
1.81687e-15
4.87948e-15
1.5072e-15
4.81706e-15
1.2014e-15
4.76382e-15
8.98697e-16
4.7198e-15
5.98358e-16
4.68507e-15
2.99783e-16
4.65999e-15
4.64766e-15
-1.16641e-08
2.84418e-07
-5.60529e-09
2.3403e-07
5.19883e-10
1.84078e-07
5.53757e-09
1.15278e-07
2.96895e-08
4.31701e-08
5.25936e-08
-4.23725e-08
6.88797e-08
-7.76008e-08
9.25556e-08
-1.23612e-07
1.03212e-07
-1.62964e-07
9.86538e-08
-1.6363e-07
8.78633e-08
-1.49004e-07
7.62962e-08
-1.2487e-07
6.01903e-08
-8.06653e-08
5.08712e-08
-4.23453e-08
2.2481e-08
1.62474e-08
1.05912e-08
4.77423e-08
1.47715e-08
2.69951e-08
-5.93063e-12
1.94733e-08
4.68889e-14
4.87447e-14
4.39603e-14
4.33712e-14
4.16743e-14
3.98393e-14
3.99699e-14
3.72154e-14
3.85758e-14
3.49849e-14
3.73383e-14
3.29637e-14
3.61837e-14
3.10953e-14
3.50778e-14
2.93628e-14
3.40038e-14
2.77596e-14
3.29536e-14
2.62799e-14
3.19229e-14
2.4917e-14
3.09094e-14
2.36632e-14
2.99121e-14
2.251e-14
2.89305e-14
2.14487e-14
2.79645e-14
2.04707e-14
2.70144e-14
1.95677e-14
2.60805e-14
1.87321e-14
2.51631e-14
1.79568e-14
2.42627e-14
1.72354e-14
2.33797e-14
1.65622e-14
2.25145e-14
1.59321e-14
2.16675e-14
1.53405e-14
2.0839e-14
1.47836e-14
2.00292e-14
1.42578e-14
1.92383e-14
1.37601e-14
1.84665e-14
1.3288e-14
1.77138e-14
1.2839e-14
1.69801e-14
1.24112e-14
1.62654e-14
1.20029e-14
1.55696e-14
1.16125e-14
1.48926e-14
1.12387e-14
1.42341e-14
1.08804e-14