/*--------------------------------*- C++ -*----------------------------------*\
  =========                 |
  \\      /  F ield         | OpenFOAM: The Open Source CFD Toolbox
   \\    /   O peration     | Website:  https://openfoam.org
    \\  /    A nd           | Version:  6
     \\/     M anipulation  |
\*---------------------------------------------------------------------------*/
FoamFile
{
    version     2.0;
    format      ascii;
    class       volScalarField;
    location    "480";
    object      Su;
}
// * * * * * * * * * * * * * * * * * * * * * * * * * * * * * * * * * * * * * //

dimensions      [0 0 -1 0 0 0 0];

internalField   nonuniform List<scalar> 
5964
(
0.360364
0.316011
0.276964
0.244784
0.219093
0.198831
0.182576
0.169177
0.15805
0.148454
0.139608
0.131317
0.12355
0.11621
0.109267
0.102828
0.0978895
0.0925126
0.0879268
0.0840169
0.0806358
0.0776517
0.0749636
0.0725007
0.0702149
0.0680742
0.0660565
0.0641459
0.0623305
0.0606002
0.0589469
0.057363
0.0558418
0.0543772
0.0529634
0.0515954
0.0502683
0.0489779
0.0477202
0.0464917
0.0452892
0.0441097
0.0429506
0.0418096
0.0406845
0.0395733
0.0384743
0.0373859
0.0363065
0.035235
0.0341702
0.0331109
0.0320562
0.0310052
0.0299571
0.0289113
0.027867
0.0268237
0.025781
0.0247383
0.0236953
0.0226516
0.0216069
0.020561
0.0195137
0.0184648
0.0174142
0.0163618
0.0153074
0.0142511
0.0131928
0.0121325
0.0110701
0.0100057
0.00893916
0.00787032
0.00679875
0.00572401
0.00464732
0.00357673
0.0025382
0.00159159
0.000840907
0.000416654
0.359858
0.315165
0.276375
0.244383
0.218757
0.198382
0.182118
0.168953
0.157958
0.148378
0.139583
0.131353
0.123559
0.116042
0.108858
0.102204
0.0971371
0.0917731
0.0872936
0.0835164
0.0802541
0.0773615
0.0747387
0.0723209
0.0700662
0.0679474
0.0659458
0.0640477
0.0622423
0.0605208
0.0588751
0.0572982
0.0557833
0.0543246
0.0529163
0.0515533
0.050231
0.0489449
0.0476912
0.0464664
0.0452672
0.0440908
0.0429345
0.0417959
0.0406729
0.0395637
0.0384664
0.0373794
0.0363014
0.0352311
0.0341672
0.0331087
0.0320548
0.0310044
0.0299568
0.0289114
0.0278675
0.0268245
0.025782
0.0247395
0.0236966
0.022653
0.0216084
0.0205626
0.0195154
0.0184665
0.0174159
0.0163634
0.0153091
0.0142527
0.0131944
0.012134
0.0110715
0.010007
0.00894045
0.00787163
0.00680019
0.00572564
0.00464877
0.00357615
0.00253092
0.00157009
0.000799275
0.000359055
0.359863
0.315001
0.275863
0.243644
0.217917
0.197501
0.181421
0.168612
0.157941
0.148602
0.139963
0.131751
0.123703
0.115749
0.108048
0.100903
0.0955236
0.0902228
0.0860124
0.0825341
0.0795196
0.0768076
0.0743092
0.0719753
0.0697781
0.0676998
0.0657282
0.0638537
0.0620678
0.060363
0.0587323
0.057169
0.0556668
0.0542198
0.0528225
0.0514696
0.0501567
0.0488793
0.0476337
0.0464162
0.0452236
0.0440532
0.0429023
0.0417687
0.0406501
0.0395447
0.0384507
0.0373668
0.0362914
0.0352233
0.0341614
0.0331046
0.032052
0.0310029
0.0299563
0.0289118
0.0278686
0.0268262
0.0257841
0.024742
0.0236994
0.022656
0.0216116
0.0205659
0.0195187
0.0184698
0.0174192
0.0163667
0.0153123
0.0142559
0.0131974
0.0121369
0.0110743
0.0100097
0.00894309
0.00787436
0.00680329
0.00572936
0.00465254
0.00357666
0.00251927
0.0015316
0.000721957
0.000250208
0.359892
0.314982
0.275458
0.242786
0.216852
0.196614
0.181018
0.168827
0.158776
0.149754
0.14114
0.132809
0.124268
0.115567
0.106963
0.0988363
0.09274
0.0876965
0.0840723
0.0811278
0.0785006
0.0760466
0.0737154
0.0714911
0.069368
0.0673427
0.0654111
0.0635687
0.06181
0.0601293
0.0585203
0.0569771
0.0554935
0.0540639
0.0526827
0.0513451
0.0500462
0.0487818
0.0475481
0.0463415
0.045159
0.0439976
0.0428548
0.0417284
0.0406163
0.0395166
0.0384278
0.0373482
0.0362767
0.035212
0.0341529
0.0330987
0.0320482
0.0310009
0.0299558
0.0289125
0.0278704
0.0268288
0.0257875
0.0247459
0.0237037
0.0226606
0.0216164
0.0205708
0.0195237
0.0184748
0.0174242
0.0163717
0.0153171
0.0142606
0.013202
0.0121413
0.0110786
0.0100138
0.00894713
0.00787864
0.00680833
0.00573572
0.00465983
0.00358088
0.002509
0.00148728
0.000626875
0.000113229
0.360113
0.315267
0.275411
0.242345
0.216253
0.196538
0.181834
0.170509
0.161051
0.152259
0.143676
0.135067
0.125781
0.116004
0.105885
0.0957972
0.0879163
0.0839062
0.0815323
0.0794412
0.0773238
0.0751676
0.0730153
0.0709044
0.0688586
0.0668901
0.0650035
0.0631988
0.0614732
0.0598225
0.0582413
0.056724
0.0552648
0.0538581
0.0524984
0.0511808
0.0499005
0.0486533
0.0474355
0.0462434
0.045074
0.0439246
0.0427926
0.0416758
0.0405722
0.0394801
0.0383979
0.0373243
0.0362578
0.0351975
0.0341423
0.0330913
0.0320436
0.0309986
0.0299555
0.0289139
0.0278731
0.0268326
0.0257921
0.0247512
0.0237095
0.0226669
0.0216229
0.0205775
0.0195304
0.0184816
0.017431
0.0163783
0.0153236
0.0142669
0.0132081
0.0121472
0.0110842
0.0100193
0.00895258
0.00788451
0.00681537
0.00574488
0.00467123
0.00359109
0.00250675
0.00145215
0.000540268
-1.70263e-05
0.359945
0.314992
0.275256
0.242498
0.217078
0.198341
0.184736
0.174476
0.165616
0.157085
0.148451
0.139202
0.12889
0.117664
0.105328
0.0916741
0.0784099
0.0785966
0.0787356
0.0777891
0.076189
0.074286
0.0722742
0.070253
0.0682723
0.066356
0.0645143
0.0627499
0.0610618
0.0594461
0.0578981
0.0564122
0.0549828
0.0536042
0.0522711
0.0509782
0.049721
0.0484953
0.0472971
0.046123
0.04497
0.0438353
0.0427166
0.0416117
0.0405187
0.039436
0.038362
0.0372956
0.0362354
0.0351805
0.0341299
0.0330829
0.0320386
0.0309964
0.0299558
0.0289161
0.0278769
0.0268378
0.0257983
0.0247582
0.0237172
0.0226749
0.0216313
0.020586
0.0195391
0.0184903
0.0174395
0.0163867
0.0153318
0.0142749
0.0132158
0.0121545
0.0110912
0.0100261
0.00895939
0.00789182
0.00682404
0.00575604
0.00468529
0.00360515
0.00251026
0.00142497
0.000462799
-0.000138493
0.360337
0.315493
0.275714
0.243551
0.219439
0.202162
0.189796
0.180595
0.172292
0.164106
0.155322
0.145274
0.134029
0.121431
0.106859
0.0881785
0.0352867
0.073064
0.0768512
0.0767301
0.0753414
0.0735122
0.0715452
0.0695647
0.0676252
0.0657505
0.0639505
0.0622273
0.0605795
0.0590031
0.0574932
0.056044
0.0546496
0.0533044
0.0520026
0.0507393
0.0495096
0.0483093
0.0471345
0.0459818
0.0448482
0.0437311
0.0426282
0.0415373
0.0404569
0.0393852
0.0383209
0.0372629
0.0362101
0.0351616
0.0341165
0.0330741
0.0320337
0.0309949
0.029957
0.0289196
0.0278822
0.0268446
0.0258063
0.0247671
0.0237267
0.022685
0.0216416
0.0205966
0.0195497
0.0185008
0.0174499
0.0163969
0.0153418
0.0142845
0.013225
0.0121633
0.0110997
0.0100342
0.00896742
0.00790025
0.00683364
0.00576767
0.00469887
0.00361695
0.00250856
0.00138794
0.000369095
-0.000281852
0.359835
0.315196
0.276946
0.246381
0.223764
0.207842
0.19671
0.188512
0.180807
0.172843
0.163773
0.153161
0.141226
0.12774
0.11273
0.0963778
0.0788495
0.0793828
0.0783722
0.0768237
0.0749165
0.0728814
0.0708396
0.0688452
0.0669215
0.0650775
0.0633155
0.061634
0.0600293
0.0584963
0.0570292
0.0556218
0.0542676
0.0529607
0.0516953
0.0504661
0.0492682
0.0480973
0.0469495
0.0458215
0.0447104
0.0436135
0.0425287
0.041454
0.0403879
0.0393289
0.0382757
0.0372273
0.0361829
0.0351416
0.0341026
0.0330655
0.0320296
0.0309944
0.0299596
0.0289247
0.0278894
0.0268534
0.0258164
0.0247781
0.0237385
0.0226972
0.0216542
0.0206092
0.0195623
0.0185133
0.0174622
0.016409
0.0153535
0.0142957
0.0132358
0.0121736
0.0111094
0.0100435
0.00897651
0.00790945
0.00684351
0.00577867
0.00471046
0.00362542
0.00250379
0.00135227
0.000286146
-0.000405171
0.360495
0.317003
0.279812
0.250794
0.229833
0.215176
0.205048
0.197673
0.190417
0.182465
0.173102
0.162081
0.149435
0.135255
0.119952
0.104544
0.091457
0.0850414
0.0805606
0.0773282
0.0746571
0.0722876
0.0701099
0.068073
0.0661521
0.0643337
0.0626091
0.0609711
0.0594131
0.0579279
0.0565087
0.0551481
0.0538394
0.0525759
0.0513517
0.0501611
0.0489992
0.0478616
0.0467444
0.0456443
0.0445585
0.0434843
0.0424199
0.0413634
0.0403133
0.0392684
0.0382276
0.03719
0.0361548
0.0351214
0.0340893
0.0330579
0.0320268
0.0309957
0.0299641
0.028932
0.0278988
0.0268645
0.0258288
0.0247916
0.0237526
0.0227118
0.021669
0.0206242
0.0195772
0.018528
0.0174766
0.0164229
0.015367
0.0143087
0.0132482
0.0121854
0.0111205
0.010054
0.00898646
0.0079191
0.00685318
0.00578869
0.00472091
0.00363579
0.00251271
0.00135792
0.000287721
-0.00040611
0.361563
0.319991
0.284365
0.25694
0.237305
0.223682
0.214231
0.207374
0.200344
0.192311
0.182557
0.170898
0.157313
0.142161
0.126109
0.11049
0.0972056
0.0884305
0.0818673
0.0774458
0.0741917
0.0715603
0.0692776
0.0672119
0.0653004
0.0635118
0.0618284
0.0602384
0.0587318
0.0572997
0.0559337
0.0546255
0.0533676
0.0521527
0.0509745
0.0498271
0.0487054
0.0476049
0.0465217
0.0454526
0.0443947
0.0433457
0.0423038
0.0412672
0.0402348
0.0392053
0.038178
0.037152
0.0361269
0.0351021
0.0340773
0.0330521
0.0320262
0.0309993
0.0299713
0.0289419
0.027911
0.0268785
0.0258441
0.0248078
0.0237695
0.0227291
0.0216864
0.0206416
0.0195944
0.0185449
0.0174931
0.0164389
0.0153824
0.0143235
0.0132622
0.0121986
0.0111329
0.0100655
0.00899711
0.00792889
0.00686223
0.00579736
0.00473054
0.00365034
0.00254155
0.00141663
0.000390165
-0.000266955
0.362114
0.322394
0.289374
0.264008
0.245667
0.232934
0.223886
0.217035
0.209752
0.20117
0.190631
0.178122
0.163688
0.14765
0.130755
0.114215
0.0995663
0.089023
0.081456
0.0766295
0.0732338
0.0705609
0.0682766
0.0662296
0.0643502
0.0626037
0.06097
0.0594347
0.057986
0.0566133
0.0553066
0.0540567
0.0528551
0.0516942
0.0505669
0.0494672
0.0483897
0.04733
0.0462841
0.0452489
0.0442216
0.0432001
0.0421825
0.0411676
0.0401542
0.0391413
0.0381284
0.037115
0.0361006
0.035085
0.0340678
0.0330491
0.0320285
0.0310061
0.0299817
0.0289552
0.0279265
0.0268957
0.0258626
0.0248271
0.0237894
0.0227492
0.0217066
0.0206616
0.0196141
0.0185642
0.0175118
0.016457
0.0153998
0.0143401
0.0132779
0.0122134
0.0111466
0.010078
0.00900833
0.00793862
0.0068703
0.0058041
0.0047381
0.00366583
0.0025811
0.00150544
0.000548052
-5.37316e-05
0.364156
0.327456
0.296043
0.271911
0.254599
0.242418
0.233376
0.225881
0.217817
0.20819
0.196562
0.183092
0.167891
0.151171
0.133492
0.115626
0.0988337
0.0859719
0.0787554
0.0746283
0.0716864
0.0692499
0.0670874
0.0651143
0.0632938
0.0616047
0.0600312
0.0585593
0.0571763
0.0558702
0.0546297
0.0534446
0.0523054
0.0512038
0.0501324
0.0490849
0.0480558
0.0470404
0.046035
0.0450364
0.044042
0.04305
0.0420586
0.0410667
0.0400735
0.0390783
0.0380807
0.0370804
0.0360772
0.0350711
0.034062
0.0330499
0.0320348
0.0310168
0.029996
0.0289723
0.0279459
0.0269166
0.0258846
0.02485
0.0238126
0.0227725
0.0217298
0.0206845
0.0196365
0.018586
0.0175329
0.0164773
0.0154192
0.0143585
0.0132953
0.0122296
0.0111616
0.0100916
0.00902012
0.00794827
0.00687733
0.00580846
0.00474157
0.00367462
0.00260839
0.00156862
0.000655564
8.35305e-05
0.365296
0.330853
0.301696
0.279335
0.263082
0.251319
0.241976
0.233358
0.224051
0.213078
0.200285
0.185861
0.169938
0.152676
0.134264
0.114895
0.0949081
0.0768356
0.0734344
0.0716399
0.0697283
0.0677208
0.0657481
0.0638778
0.0621327
0.0605132
0.0590106
0.057612
0.0563038
0.0550727
0.0539061
0.0527927
0.0517222
0.0506856
0.0496752
0.0486843
0.0477074
0.0467399
0.0457778
0.0448184
0.0438592
0.0428984
0.0419347
0.0409671
0.0399952
0.0390185
0.0380367
0.03705
0.0360584
0.035062
0.034061
0.0330556
0.032046
0.0310324
0.0300151
0.0289941
0.0279696
0.0269418
0.0259108
0.0248767
0.0238395
0.0227993
0.0217563
0.0207104
0.0196618
0.0186105
0.0175565
0.0164999
0.0154406
0.0143788
0.0133144
0.0122474
0.0111779
0.0101061
0.00903261
0.0079581
0.00688378
0.00581103
0.00474076
0.0036726
0.00260711
0.00156239
0.000625217
1.76207e-05
0.366411
0.334382
0.307463
0.28665
0.271113
0.259337
0.249043
0.238835
0.227698
0.215154
0.201327
0.1862
0.169789
0.152167
0.133334
0.112879
0.08891
0.0275861
0.0668088
0.0687959
0.067875
0.0661752
0.0643303
0.0625421
0.0608715
0.0593291
0.0579076
0.0565931
0.05537
0.0542234
0.0531393
0.0521051
0.05111
0.0501442
0.0491999
0.04827
0.0473491
0.0464325
0.0455167
0.0445987
0.0436765
0.0427485
0.0418137
0.0408715
0.0399216
0.0389639
0.0379985
0.0370256
0.0360457
0.0350591
0.0340661
0.0330674
0.0320631
0.0310538
0.0300397
0.0290212
0.0279985
0.0269718
0.0259415
0.0249076
0.0238704
0.0228299
0.0217863
0.0207397
0.0196902
0.0186378
0.0175827
0.0165248
0.0154643
0.0144011
0.0133352
0.0122667
0.0111955
0.0101219
0.00904603
0.00796858
0.00689056
0.00581343
0.00473843
0.00366449
0.00258572
0.00150231
0.00048319
-0.000215831
0.367652
0.338059
0.313083
0.293301
0.277928
0.265345
0.253384
0.241251
0.228457
0.214547
0.199575
0.183714
0.167013
0.14946
0.130999
0.111527
0.0912269
0.0669684
0.0699778
0.0685366
0.0667133
0.0647618
0.0628691
0.0611117
0.0595077
0.0580498
0.0567215
0.0555037
0.0543778
0.0533263
0.052334
0.0513871
0.0504741
0.0495852
0.0487118
0.0478472
0.0469858
0.0461232
0.0452559
0.0443814
0.0434978
0.0426039
0.041699
0.0407828
0.0398554
0.038917
0.0379681
0.0370091
0.0360408
0.0350639
0.0340788
0.0330864
0.0320872
0.0310818
0.0300707
0.0290543
0.028033
0.0270073
0.0259773
0.0249434
0.0239057
0.0228646
0.0218201
0.0207725
0.0197217
0.0186681
0.0176115
0.0165522
0.0154902
0.0144254
0.0133579
0.0122876
0.0112146
0.0101389
0.00906062
0.00798018
0.00689852
0.00581732
0.00473859
0.00366183
0.00257843
0.00147788
0.000416217
-0.000333542
0.368907
0.341439
0.317759
0.298326
0.282538
0.268445
0.25464
0.240552
0.225808
0.210568
0.194903
0.178681
0.161824
0.144434
0.12688
0.10938
0.0926872
0.0786924
0.0726822
0.0685815
0.0656511
0.0632924
0.0612913
0.0595539
0.058026
0.0566689
0.055451
0.054346
0.0533311
0.0523867
0.0514961
0.050645
0.0498213
0.0490148
0.0482173
0.0474219
0.0466233
0.0458172
0.0450005
0.044171
0.0433272
0.0424683
0.0415939
0.0407042
0.0397995
0.0388804
0.0379478
0.0370026
0.0360457
0.035078
0.0341005
0.0331141
0.0321195
0.0311176
0.0301089
0.0290942
0.028074
0.0270486
0.0260186
0.0249842
0.0239459
0.0229037
0.021858
0.020809
0.0197567
0.0187015
0.0176432
0.0165822
0.0155184
0.0144518
0.0133824
0.0123103
0.0112352
0.0101573
0.00907655
0.00799317
0.00690808
0.0058234
0.00474303
0.00367165
0.00261138
0.00156712
0.000599817
-5.88159e-05
0.369969
0.344228
0.321451
0.301723
0.284518
0.268394
0.252227
0.2359
0.219599
0.203516
0.187506
0.171342
0.15486
0.138243
0.1219
0.106044
0.0915179
0.0797069
0.0726857
0.0675425
0.0640593
0.0614976
0.0594812
0.0578189
0.0564064
0.0551803
0.0540971
0.0531244
0.0522364
0.051412
0.0506337
0.0498868
0.0491592
0.0484408
0.0477236
0.0470009
0.0462678
0.0455204
0.0447559
0.0439726
0.0431694
0.0423459
0.0415022
0.0406389
0.0397567
0.0388568
0.0379402
0.0370082
0.0360622
0.0351032
0.0341327
0.0331516
0.0321611
0.031162
0.0301553
0.0291417
0.0281219
0.0270965
0.026066
0.0250307
0.0239911
0.0229475
0.0219002
0.0208494
0.0197953
0.0187381
0.0176779
0.0166149
0.015549
0.0144803
0.0134089
0.0123346
0.0112574
0.0101772
0.00909392
0.00800766
0.0069192
0.00583096
0.00474876
0.00368362
0.00265289
0.0016855
0.000851325
0.000320147
0.370722
0.346084
0.323635
0.303202
0.283816
0.264891
0.246226
0.22806
0.210831
0.19467
0.179069
0.163387
0.147362
0.13134
0.115853
0.101047
0.0875854
0.0766936
0.0699304
0.0649566
0.0616155
0.0592068
0.0573589
0.0558734
0.0546383
0.0535846
0.0526658
0.0518476
0.0511036
0.0504124
0.0497568
0.0491223
0.0484972
0.047872
0.0472389
0.0465919
0.0459265
0.0452393
0.0445281
0.0437916
0.0430292
0.0422411
0.0414279
0.0405906
0.0397304
0.0388489
0.0379476
0.0370281
0.0360921
0.0351412
0.0341768
0.0332003
0.032213
0.0312162
0.0302107
0.0291976
0.0281776
0.0271515
0.0261199
0.0250832
0.0240419
0.0229964
0.0219471
0.0208941
0.0198378
0.0187783
0.0177157
0.0166503
0.0155821
0.014511
0.0134373
0.0123606
0.0112811
0.0101986
0.00911277
0.0080237
0.00693185
0.00583952
0.0047533
0.00368789
0.00266999
0.00174154
0.000970833
0.00048872
0.371261
0.347275
0.324481
0.302697
0.280558
0.258486
0.237385
0.217845
0.200355
0.184812
0.170248
0.155475
0.140131
0.124602
0.109356
0.0945048
0.0807226
0.0696607
0.0643459
0.0607598
0.0582794
0.0564001
0.0549186
0.0537209
0.0527308
0.0518941
0.0511707
0.0505295
0.0499463
0.0494011
0.0488779
0.0483632
0.0478464
0.0473185
0.0467727
0.0462035
0.0456072
0.044981
0.0443234
0.0436336
0.0429118
0.0421586
0.0413751
0.0405629
0.0397238
0.0388597
0.0379727
0.0370646
0.0361377
0.0351936
0.0342344
0.0332615
0.0322766
0.031281
0.030276
0.0292626
0.0282417
0.0272142
0.0261808
0.0251421
0.0240985
0.0230506
0.0219988
0.0209432
0.0198842
0.018822
0.0177567
0.0166886
0.0156177
0.014544
0.0134676
0.0123885
0.0113065
0.0102214
0.00913316
0.00804141
0.00694633
0.00584969
0.00475759
0.00368468
0.00265676
0.00170576
0.000868528
0.000270147
0.371465
0.347491
0.323748
0.299942
0.27467
0.249444
0.226279
0.206058
0.188965
0.174556
0.161432
0.147874
0.133393
0.118265
0.102766
0.086695
0.0703231
0.056217
0.055548
0.0551613
0.0542601
0.0532029
0.0522307
0.0514049
0.0507153
0.0501343
0.049634
0.0491902
0.0487827
0.0483946
0.048012
0.0476234
0.0472192
0.0467918
0.0463353
0.0458452
0.0453185
0.0447533
0.0441488
0.0435051
0.0428227
0.0421032
0.0413482
0.0405598
0.0397403
0.0388922
0.0380179
0.03712
0.0362007
0.0352623
0.034307
0.0333366
0.032353
0.0313576
0.030352
0.0293374
0.0283148
0.0272851
0.0262492
0.0252078
0.0241614
0.0231105
0.0220555
0.0209968
0.0199347
0.0188694
0.0178011
0.0167299
0.0156559
0.0145793
0.0135001
0.0124181
0.0113334
0.0102459
0.00915517
0.00806097
0.00696313
0.00586275
0.0047646
0.00367989
0.00262202
0.00158034
0.000501174
-0.000477397
0.371259
0.346624
0.321178
0.294334
0.265707
0.237808
0.213254
0.193013
0.176931
0.16411
0.152678
0.140583
0.127219
0.112694
0.0969331
0.0791005
0.0571488
0.0247924
0.0438348
0.048996
0.0500303
0.0498461
0.0494136
0.0489948
0.0486392
0.0483415
0.0480856
0.0478549
0.0476347
0.0474122
0.0471765
0.0469182
0.0466296
0.0463044
0.045938
0.0455271
0.0450695
0.0445644
0.0440117
0.0434123
0.0427678
0.04208
0.0413515
0.040585
0.0397832
0.0389493
0.0380861
0.0371965
0.0362832
0.0353489
0.0343961
0.0334268
0.0324431
0.0314469
0.0304396
0.0294227
0.0283974
0.0273647
0.0263256
0.0252807
0.0242307
0.0231762
0.0221176
0.0210553
0.0199895
0.0189206
0.0178488
0.0167742
0.0156969
0.014617
0.0135346
0.0124496
0.0113621
0.0102719
0.00917881
0.00808249
0.0069826
0.00587969
0.00477694
0.00368068
0.0025878
0.00143547
6.15952e-05
-0.00138515
0.370641
0.344451
0.316554
0.28617
0.254269
0.224293
0.199064
0.179576
0.164888
0.153831
0.144109
0.133742
0.121863
0.108455
0.0934074
0.0757766
0.052642
0.0144068
0.0377378
0.0445124
0.0462248
0.0465533
0.0465772
0.0465621
0.046556
0.0465584
0.0465603
0.0465526
0.0465269
0.0464751
0.0463898
0.0462642
0.0460924
0.0458698
0.045593
0.04526
0.0448699
0.0444227
0.0439196
0.0433621
0.0427528
0.0420943
0.0413897
0.0406425
0.0398561
0.039034
0.0381796
0.0372963
0.0363871
0.0354552
0.034503
0.0335333
0.0325482
0.0315496
0.0305395
0.0295192
0.0284902
0.0274535
0.0264102
0.0253611
0.0243068
0.023248
0.0221852
0.0211186
0.0200488
0.0189758
0.0179001
0.0168216
0.0157406
0.0146571
0.0135712
0.012483
0.0113924
0.0102995
0.00920406
0.00810589
0.00700462
0.0059004
0.00479505
0.0036922
0.00258799
0.00144157
0.00017982
-0.000980464
0.369518
0.340963
0.310557
0.277708
0.244453
0.214497
0.189112
0.169411
0.154924
0.144573
0.13592
0.127192
0.11694
0.104868
0.0909315
0.0748524
0.056626
0.0388164
0.0399983
0.0418658
0.0427975
0.0433356
0.0437689
0.0441626
0.0445181
0.0448297
0.0450954
0.0453143
0.0454851
0.0456054
0.0456712
0.0456784
0.0456228
0.0455015
0.0453126
0.0450551
0.0447296
0.0443373
0.0438803
0.0433613
0.0427838
0.0421511
0.0414673
0.0407364
0.0399624
0.0391493
0.0383012
0.0374217
0.0365144
0.0355826
0.0346293
0.0336573
0.0326691
0.0316668
0.0306524
0.0296275
0.0285936
0.0275519
0.0265035
0.0254493
0.0243899
0.0233261
0.0222584
0.021187
0.0201125
0.019035
0.0179549
0.0168722
0.015787
0.0146996
0.01361
0.0125182
0.0114244
0.0103286
0.00923077
0.00813085
0.00702851
0.00592343
0.00481551
0.00370359
0.0025776
0.00140602
0.000181699
-0.000816237
0.368375
0.337442
0.30473
0.270027
0.235253
0.204543
0.179705
0.161188
0.147632
0.137652
0.129367
0.121391
0.112476
0.101748
0.0889315
0.0736983
0.0560789
0.0388215
0.0372767
0.0380968
0.0390958
0.04008
0.0410101
0.041849
0.0425791
0.0432019
0.0437285
0.0441701
0.0445342
0.044824
0.0450391
0.0451772
0.0452359
0.0452133
0.045109
0.0449235
0.0446585
0.0443167
0.0439015
0.0434167
0.0428667
0.0422558
0.0415888
0.0408704
0.0401053
0.039298
0.0384531
0.0375746
0.0366666
0.0357326
0.0347761
0.0337999
0.0328068
0.0317991
0.0307789
0.029748
0.028708
0.0276602
0.0266057
0.0255455
0.0244802
0.0234107
0.0223373
0.0212606
0.0201808
0.0190983
0.0180133
0.0169259
0.0158363
0.0147446
0.013651
0.0125554
0.011458
0.0103591
0.00925873
0.00815693
0.00705341
0.00594727
0.0048363
0.0037142
0.00256223
0.0013437
7.17049e-05
-0.000930304
0.367087
0.333656
0.298762
0.262489
0.227216
0.196991
0.173171
0.155783
0.143233
0.133659
0.125476
0.117571
0.109129
0.0993069
0.087383
0.0724007
0.0524539
0.0130728
0.0303882
0.0332205
0.0351082
0.0368288
0.03837
0.0396921
0.0407997
0.0417224
0.0424954
0.0431471
0.0436956
0.044149
0.0445094
0.0447754
0.0449452
0.045018
0.0449942
0.0448759
0.0446664
0.0443698
0.0439909
0.0435349
0.0430072
0.0424131
0.0417583
0.0410481
0.0402878
0.0394827
0.0386375
0.037757
0.0368454
0.0359067
0.0349445
0.0339619
0.032962
0.0319471
0.0309196
0.0298813
0.0288339
0.0277788
0.0267171
0.0256499
0.0245779
0.0235018
0.0224221
0.0213393
0.0202538
0.0191657
0.0180753
0.0169829
0.0158884
0.0147921
0.0136941
0.0125944
0.0114933
0.010391
0.00928774
0.00818371
0.00707857
0.00597096
0.00485752
0.00373125
0.00257909
0.00138859
0.00021285
-0.000648768
0.365907
0.330294
0.293733
0.256626
0.221318
0.191893
0.169616
0.153649
0.142092
0.13305
0.12507
0.117159
0.108745
0.0992551
0.0879739
0.0741435
0.0569137
0.0323213
0.0285375
0.0288507
0.0311642
0.0337395
0.0359708
0.0377875
0.0392488
0.0404376
0.0414266
0.0422663
0.0429847
0.0435935
0.0440944
0.044485
0.0447627
0.0449269
0.0449789
0.0449224
0.0447623
0.0445045
0.0441557
0.0437222
0.0432107
0.0426278
0.0419797
0.0412728
0.0405128
0.0397056
0.0388565
0.0379705
0.0370522
0.0361059
0.0351354
0.0341442
0.0331353
0.0321114
0.0310748
0.0300276
0.0289714
0.0279078
0.0268378
0.0257626
0.0246829
0.0235995
0.0225128
0.0214233
0.0203313
0.0192372
0.018141
0.017043
0.0159433
0.014842
0.0137393
0.0126352
0.01153
0.010424
0.00931759
0.00821085
0.00710347
0.00599374
0.00487772
0.00374952
0.00260592
0.00146448
0.000416372
-0.00028489
0.365617
0.328884
0.290618
0.252574
0.217686
0.189364
0.16864
0.154355
0.144328
0.136367
0.129024
0.121414
0.113118
0.103742
0.0927008
0.0796114
0.0640128
0.0444375
0.010725
0.0226346
0.0269446
0.0309548
0.0339778
0.0362556
0.0380013
0.0393887
0.0405431
0.0415381
0.0424085
0.0431639
0.0438015
0.0443145
0.0446978
0.0449498
0.0450728
0.045072
0.0449545
0.0447285
0.0444023
0.0439841
0.0434821
0.0429039
0.0422567
0.0415474
0.0407828
0.0399689
0.0391116
0.0382163
0.037288
0.036331
0.0353496
0.0343472
0.0333272
0.0322923
0.0312449
0.0301871
0.0291208
0.0280473
0.0269679
0.0258837
0.0247954
0.0237037
0.0226093
0.0215124
0.0204134
0.0193127
0.0182102
0.0171063
0.016001
0.0148944
0.0137866
0.0126778
0.0115683
0.0104583
0.00934815
0.00823816
0.00712789
0.00601543
0.00489646
0.0037652
0.00262225
0.00149842
0.000502998
-0.000129774
0.364407
0.325548
0.286089
0.248302
0.215049
0.188759
0.169991
0.157659
0.149337
0.142767
0.136572
0.129823
0.122122
0.113185
0.102471
0.0899032
0.0755325
0.0581139
0.0341267
0.00779425
0.0229661
0.0290108
0.0326642
0.0352467
0.0371305
0.0386025
0.0398497
0.0409601
0.0419636
0.0428591
0.0436327
0.0442688
0.0447573
0.0450948
0.0452842
0.0453328
0.0452506
0.0450482
0.0447365
0.0443258
0.0438256
0.0432449
0.042592
0.0418745
0.0410996
0.0402742
0.0394043
0.0384957
0.0375536
0.0365828
0.0355875
0.0345714
0.033538
0.03249
0.0314299
0.03036
0.029282
0.0281973
0.0271073
0.026013
0.0249152
0.0238145
0.0227115
0.0216066
0.0205001
0.0193921
0.0182829
0.0171726
0.0160612
0.014949
0.0138359
0.0127221
0.0116079
0.0104935
0.00937935
0.00826558
0.00715182
0.00603622
0.00491429
0.00377903
0.00262729
0.00148385
0.000456977
-0.000203544
0.363903
0.324839
0.286361
0.249123
0.215551
0.189921
0.172999
0.162735
0.156228
0.1513
0.146629
0.141256
0.13464
0.126674
0.116749
0.10491
0.0917883
0.0760738
0.0576732
0.0371982
0.0113434
0.0290756
0.0322734
0.034899
0.0366831
0.0380693
0.0393239
0.0405122
0.0416356
0.0426708
0.0435852
0.0443496
0.0449458
0.0453679
0.0456198
0.0457116
0.0456567
0.0454693
0.0451633
0.0447512
0.0442446
0.0436537
0.0429879
0.0422556
0.0414648
0.0406224
0.0397352
0.0388091
0.0378496
0.0368616
0.0358494
0.034817
0.0337677
0.0327045
0.0316299
0.0305461
0.0294549
0.0283578
0.027256
0.0261505
0.0250422
0.0239317
0.0228194
0.0217058
0.020591
0.0194754
0.0183589
0.0172418
0.0161241
0.0150058
0.0138871
0.0127681
0.0116489
0.0105298
0.00941121
0.00829318
0.00717543
0.00605639
0.00493182
0.00379314
0.00262907
0.00144571
0.00033663
-0.000411772
0.363143
0.322272
0.282057
0.245243
0.214281
0.191428
0.17696
0.168834
0.164171
0.160961
0.157941
0.154311
0.149059
0.142639
0.134081
0.123863
0.111929
0.0977188
0.0810113
0.0639977
0.0466367
0.0188335
0.0321767
0.03529
0.0366246
0.0376816
0.0388891
0.0401521
0.0414006
0.0425857
0.0436535
0.0445568
0.0452669
0.0457746
0.0460856
0.0462141
0.0461781
0.0459964
0.0456863
0.0452634
0.0447414
0.0441321
0.0434459
0.042692
0.041879
0.0410143
0.0401048
0.0391568
0.038176
0.0371673
0.0361352
0.0350837
0.0340162
0.0329356
0.0318446
0.0307453
0.0296394
0.0285284
0.0274137
0.026296
0.0251763
0.0240551
0.0229327
0.0218097
0.0206862
0.0195623
0.0184381
0.0173138
0.0161893
0.0150647
0.0139401
0.0128155
0.0116911
0.0105671
0.00944377
0.00832113
0.00719901
0.00607636
0.00494997
0.00381142
0.00264366
0.00143418
0.00025473
-0.000580173
0.362064
0.319275
0.277984
0.241852
0.213633
0.193958
0.181934
0.175636
0.172593
0.171026
0.169407
0.167763
0.163944
0.159392
0.15247
0.144134
0.133319
0.120559
0.105052
0.0883236
0.0690115
0.0475056
0.0211974
0.0370936
0.0367258
0.037038
0.0383399
0.0398011
0.041226
0.042588
0.0438312
0.0448904
0.0457243
0.0463203
0.0466872
0.0468454
0.0468191
0.0466327
0.0463082
0.0458645
0.0453176
0.044681
0.0439665
0.0431839
0.0423423
0.0414496
0.0405128
0.0395385
0.0385324
0.0374995
0.0364444
0.0353711
0.034283
0.033183
0.0320736
0.0309571
0.029835
0.028709
0.0275801
0.0264492
0.0253171
0.0241843
0.0230512
0.0219181
0.0207852
0.0196526
0.0185203
0.0173884
0.0162568
0.0151256
0.0139948
0.0128644
0.0117346
0.0106054
0.00947712
0.00834965
0.00722293
0.00609655
0.00496913
0.00383501
0.00267717
0.00147059
0.00025862
-0.000641492
0.361435
0.318071
0.277637
0.242747
0.215843
0.198052
0.187693
0.182823
0.181061
0.180838
0.180283
0.180489
0.178272
0.175533
0.170343
0.163909
0.154457
0.143219
0.129006
0.11246
0.0935889
0.0747904
0.056978
0.0466351
0.0357489
0.0348354
0.0371999
0.0393274
0.0410714
0.0426622
0.0441142
0.0453532
0.0463239
0.0470116
0.0474307
0.0476103
0.0475832
0.0473808
0.0470305
0.046555
0.0459732
0.0453004
0.0445493
0.0437307
0.042854
0.0419275
0.0409584
0.0399533
0.038918
0.0378575
0.0367764
0.0356786
0.0345675
0.0334459
0.0323164
0.031181
0.0300414
0.0288989
0.0277547
0.0266096
0.0254642
0.0243191
0.0231746
0.0220308
0.020888
0.0197461
0.0186052
0.0174653
0.0163263
0.0151882
0.0140509
0.0129145
0.0117791
0.0106447
0.00951128
0.0083789
0.00724743
0.00611696
0.00498742
0.00385472
0.00269805
0.00146775
0.000156835
-0.00090199
0.361646
0.31868
0.278948
0.245332
0.21998
0.203465
0.194042
0.19011
0.189139
0.189902
0.190566
0.191606
0.191248
0.190086
0.186489
0.182004
0.174193
0.164492
0.151567
0.135828
0.118009
0.0991507
0.0782545
0.0562624
0.0139108
0.0276577
0.0348189
0.0386292
0.040908
0.0427968
0.0445038
0.0459538
0.0470765
0.0478581
0.0483233
0.0485137
0.0484732
0.0482419
0.0478533
0.0473346
0.0467074
0.0459888
0.0451927
0.0443307
0.0434125
0.0424465
0.0414401
0.0403999
0.0393315
0.0382401
0.03713
0.0360051
0.0348687
0.0337236
0.0325722
0.0314163
0.0302577
0.0290976
0.027937
0.0267767
0.0256173
0.024459
0.0233024
0.0221473
0.020994
0.0198425
0.0186926
0.0175443
0.0163975
0.0152522
0.0141083
0.0129657
0.0118245
0.0106847
0.0095462
0.0084089
0.00727267
0.00613775
0.00500443
0.00386823
0.00270193
0.00143075
3.43985e-06
-0.00122221
0.361838
0.319701
0.281352
0.249074
0.22484
0.209103
0.200441
0.197189
0.196731
0.198133
0.199917
0.201434
0.202405
0.202582
0.200472
0.197654
0.191759
0.183459
0.172081
0.157504
0.140412
0.120903
0.0982836
0.0735676
0.042049
0.0131546
0.0324477
0.0381018
0.0407893
0.0429971
0.0450141
0.0467122
0.0480008
0.0488739
0.0493742
0.0495607
0.0494914
0.0492162
0.0487756
0.0482012
0.0475176
0.0467436
0.0458942
0.0449814
0.0440153
0.0430042
0.0419557
0.0408761
0.039771
0.0386455
0.0375036
0.0363492
0.0351854
0.0340149
0.0328399
0.0316622
0.0304833
0.0293044
0.0281264
0.02695
0.0257756
0.0246036
0.0234342
0.0222673
0.0211031
0.0199414
0.0187821
0.0176251
0.0164703
0.0153175
0.0141667
0.0130177
0.0118706
0.0107253
0.00958169
0.00843951
0.0072986
0.00615913
0.00502144
0.00388186
0.00271819
0.00147455
0.000136551
-0.000950679
0.362074
0.320942
0.284171
0.253239
0.22983
0.214835
0.206838
0.204005
0.203923
0.205685
0.208037
0.210121
0.211851
0.212872
0.212283
0.210646
0.206752
0.199954
0.190419
0.177385
0.161467
0.14238
0.119925
0.0949636
0.0671982
0.0377852
0.0385587
0.038878
0.0408162
0.0432912
0.0456862
0.0476687
0.0491271
0.0500789
0.0505947
0.0507566
0.0506389
0.0503023
0.0497945
0.0491513
0.0483999
0.0475608
0.0466497
0.0456791
0.0446588
0.0435975
0.0425023
0.0413794
0.0402343
0.0390716
0.0378954
0.0367093
0.0355161
0.0343185
0.0331183
0.0319175
0.0307171
0.0295184
0.0283221
0.0271288
0.0259388
0.0247523
0.0235695
0.0223903
0.0212146
0.0200424
0.0188733
0.0177074
0.0165442
0.0153838
0.0142259
0.0130704
0.0119172
0.0107663
0.00961746
0.0084704
0.00732481
0.00618053
0.00503687
0.00388825
0.00271233
0.00146731
0.000178705
-0.000805714
0.362415
0.322064
0.286039
0.256325
0.234404
0.220485
0.213111
0.210586
0.21076
0.212692
0.215226
0.217695
0.219835
0.221439
0.222106
0.221513
0.219308
0.214211
0.206447
0.195244
0.180935
0.162999
0.141323
0.116242
0.0878478
0.0594734
0.0391449
0.0379753
0.0405214
0.0437076
0.0466083
0.0488916
0.0504986
0.0514971
0.0519966
0.0521055