/*--------------------------------*- C++ -*----------------------------------*\
  =========                 |
  \\      /  F ield         | OpenFOAM: The Open Source CFD Toolbox
   \\    /   O peration     | Website:  https://openfoam.org
    \\  /    A nd           | Version:  6
     \\/     M anipulation  |
\*---------------------------------------------------------------------------*/
FoamFile
{
    version     2.0;
    format      ascii;
    class       volScalarField;
    location    "330";
    object      dmdt;
}
// * * * * * * * * * * * * * * * * * * * * * * * * * * * * * * * * * * * * * //

dimensions      [0 0 0 0 0 0 0];

internalField   nonuniform List<scalar> 
5964
(
-0.356977
-0.306499
-0.262601
-0.226426
-0.196921
-0.172297
-0.151043
-0.132254
-0.114949
-0.0983382
-0.0820432
-0.0657317
-0.049164
-0.0235853
-0.0369573
-0.0412303
-0.0450255
-0.0482646
-0.0509561
-0.0531332
-0.0548356
-0.0561044
-0.05698
-0.0575023
-0.0577101
-0.057641
-0.0573312
-0.0568148
-0.0561242
-0.0552889
-0.0543362
-0.0532901
-0.052172
-0.0510003
-0.0497909
-0.0485567
-0.0473087
-0.0460555
-0.0448039
-0.0435592
-0.0423252
-0.0411048
-0.0398999
-0.0387114
-0.0375401
-0.036386
-0.0352488
-0.0341281
-0.0330232
-0.0319334
-0.0308578
-0.0297956
-0.028746
-0.027708
-0.0266809
-0.0256638
-0.0246562
-0.0236572
-0.0226663
-0.0216829
-0.0207064
-0.0197363
-0.0187723
-0.0178137
-0.0168603
-0.0159117
-0.0149674
-0.014027
-0.0130903
-0.0121567
-0.0112259
-0.0102975
-0.00937109
-0.00844629
-0.00752273
-0.00659992
-0.00567723
-0.00475411
-0.00383137
-0.00291491
-0.00202406
-0.00120562
-0.000547583
-0.000170252
-0.356827
-0.306936
-0.264034
-0.22818
-0.198427
-0.173557
-0.152243
-0.133374
-0.116008
-0.0994091
-0.0830529
-0.0664797
-0.0493436
-0.0233895
-0.0368467
-0.0414189
-0.0452874
-0.0485243
-0.0511931
-0.0533442
-0.0550221
-0.0562692
-0.057126
-0.057632
-0.0578256
-0.0577439
-0.0574229
-0.0568964
-0.0561966
-0.0553529
-0.0543925
-0.0533395
-0.0522152
-0.051038
-0.0498236
-0.0485851
-0.0473333
-0.0460767
-0.0448223
-0.0435752
-0.0423392
-0.0411171
-0.0399107
-0.0387211
-0.0375487
-0.0363937
-0.0352558
-0.0341345
-0.0330291
-0.0319389
-0.0308629
-0.0298004
-0.0287504
-0.0277122
-0.0266848
-0.0256676
-0.0246598
-0.0236606
-0.0226695
-0.0216859
-0.0207093
-0.0197391
-0.0187749
-0.0178162
-0.0168627
-0.0159139
-0.0149695
-0.014029
-0.0130922
-0.0121585
-0.0112277
-0.0102992
-0.0093728
-0.00844807
-0.00752469
-0.00660225
-0.00568016
-0.00475772
-0.00383496
-0.00291559
-0.00201502
-0.00117666
-0.000491274
-9.2661e-05
-0.357545
-0.308669
-0.266064
-0.230033
-0.199853
-0.174539
-0.153026
-0.134105
-0.116838
-0.100516
-0.0843332
-0.0676485
-0.0498103
-0.0240142
-0.0369533
-0.0420009
-0.0458817
-0.0490625
-0.051669
-0.0537622
-0.0553891
-0.0565923
-0.0574116
-0.0578856
-0.0580515
-0.0579455
-0.0576026
-0.0570565
-0.0563388
-0.0554789
-0.0545036
-0.0534371
-0.0523006
-0.0511124
-0.0498883
-0.0486413
-0.047382
-0.046119
-0.0448591
-0.0436072
-0.0423672
-0.0411417
-0.0399324
-0.0387404
-0.037566
-0.0364093
-0.03527
-0.0341475
-0.033041
-0.0319499
-0.0308732
-0.02981
-0.0287595
-0.0277207
-0.0266929
-0.0256752
-0.024667
-0.0236675
-0.0226761
-0.0216921
-0.0207152
-0.0197447
-0.0187802
-0.0178212
-0.0168674
-0.0159184
-0.0149737
-0.014033
-0.013096
-0.0121621
-0.0112311
-0.0103026
-0.00937618
-0.00845156
-0.00752848
-0.00660661
-0.00568546
-0.00476413
-0.00384143
-0.00291763
-0.00200212
-0.00113286
-0.000404851
2.72504e-05
-0.358252
-0.310149
-0.267379
-0.230739
-0.199871
-0.17393
-0.152094
-0.133282
-0.116447
-0.100666
-0.0850001
-0.0688671
-0.0524483
-0.0374317
-0.0398867
-0.0434051
-0.0468814
-0.0498908
-0.0523806
-0.0543787
-0.0559261
-0.0570629
-0.0578268
-0.0582539
-0.0583796
-0.0582385
-0.0578644
-0.0572901
-0.0565467
-0.0556632
-0.0546664
-0.0535802
-0.052426
-0.0512219
-0.0499837
-0.0487241
-0.0474539
-0.0461815
-0.0449134
-0.0436546
-0.0424087
-0.0411781
-0.0399647
-0.0387691
-0.0375917
-0.0364325
-0.0352911
-0.0341668
-0.0330589
-0.0319665
-0.0308887
-0.0298245
-0.0287731
-0.0277336
-0.026705
-0.0256867
-0.0246779
-0.0236778
-0.0226859
-0.0217015
-0.0207241
-0.0197531
-0.0187882
-0.0178288
-0.0168746
-0.0159251
-0.0149801
-0.0140391
-0.0131017
-0.0121676
-0.0112363
-0.0103076
-0.00938117
-0.00845664
-0.00753384
-0.00661255
-0.00569234
-0.00477218
-0.00384979
-0.00292242
-0.00199387
-0.00109694
-0.000330263
0.000132455
-0.358608
-0.310689
-0.26726
-0.229571
-0.197727
-0.171276
-0.149428
-0.131004
-0.114803
-0.0997134
-0.0847517
-0.069131
-0.0528316
-0.0389234
-0.0409789
-0.04468
-0.0481014
-0.0509692
-0.0533098
-0.0551767
-0.0566155
-0.0576638
-0.0583556
-0.058723
-0.058798
-0.0586129
-0.0581996
-0.0575898
-0.0568139
-0.0559006
-0.0548764
-0.0537653
-0.0525883
-0.0513638
-0.0501074
-0.0488318
-0.0475475
-0.0462629
-0.0449843
-0.0437165
-0.0424629
-0.041226
-0.040007
-0.0388069
-0.0376257
-0.0364632
-0.0353191
-0.0341925
-0.0330826
-0.0319885
-0.0309092
-0.0298437
-0.0287912
-0.0277506
-0.0267212
-0.0257021
-0.0246924
-0.0236916
-0.022699
-0.0217139
-0.0207359
-0.0197643
-0.0187988
-0.0178389
-0.0168841
-0.0159341
-0.0149886
-0.0140471
-0.0131093
-0.0121748
-0.0112432
-0.0103143
-0.00938769
-0.00846317
-0.00754053
-0.00661963
-0.00570011
-0.00478089
-0.00385923
-0.00293079
-0.00199613
-0.00108455
-0.000295748
0.000185591
-0.35858
-0.310244
-0.265822
-0.227043
-0.194654
-0.168251
-0.146815
-0.128975
-0.113448
-0.0989916
-0.0845878
-0.069191
-0.0477393
-0.0131469
-0.0402557
-0.0460775
-0.0496411
-0.0523143
-0.054442
-0.0561319
-0.0574315
-0.0583713
-0.0589771
-0.0592747
-0.0592914
-0.0590556
-0.0585973
-0.0579465
-0.0571328
-0.0561846
-0.0551282
-0.0539875
-0.0527837
-0.0515349
-0.0502568
-0.048962
-0.0476609
-0.0463617
-0.0450704
-0.0437919
-0.0425291
-0.0412844
-0.0400589
-0.0388532
-0.0376674
-0.0365011
-0.0353536
-0.0342242
-0.0331119
-0.0320157
-0.0309347
-0.0298677
-0.0288138
-0.027772
-0.0267414
-0.0257212
-0.0247106
-0.0237089
-0.0227154
-0.0217295
-0.0207507
-0.0197784
-0.0188121
-0.0178515
-0.016896
-0.0159454
-0.0149992
-0.0140571
-0.0131187
-0.0121837
-0.0112518
-0.0103225
-0.00939566
-0.00847102
-0.00754839
-0.00662763
-0.00570841
-0.0047898
-0.00386922
-0.00294223
-0.00200831
-0.00109376
-0.000294909
0.000199513
-0.358146
-0.308967
-0.263772
-0.224277
-0.191611
-0.165525
-0.144756
-0.127646
-0.1128
-0.0991566
-0.0858738
-0.0721042
-0.0579477
-0.0461828
-0.0469206
-0.0493916
-0.0518243
-0.0539538
-0.0557469
-0.0572059
-0.0583387
-0.0591544
-0.0596653
-0.0598875
-0.0598416
-0.0595516
-0.0590448
-0.0583494
-0.0574944
-0.0565077
-0.0554154
-0.0542416
-0.0530074
-0.0517313
-0.0504285
-0.049112
-0.0477918
-0.0464759
-0.0451703
-0.0438794
-0.0426063
-0.0413527
-0.0401197
-0.0389077
-0.0377165
-0.0365457
-0.0353944
-0.0342618
-0.0331468
-0.0320482
-0.0309651
-0.0298962
-0.0288407
-0.0277974
-0.0267655
-0.0257441
-0.0247324
-0.0237296
-0.0227351
-0.0217482
-0.0207684
-0.0197952
-0.0188281
-0.0178666
-0.0169103
-0.0159589
-0.0150119
-0.0140691
-0.01313
-0.0121944
-0.0112619
-0.0103322
-0.009405
-0.00848011
-0.00755732
-0.00663646
-0.00571731
-0.00479923
-0.0038805
-0.00295792
-0.00203079
-0.0011192
-0.000306064
0.000218486
-0.357934
-0.30811
-0.26217
-0.222232
-0.189679
-0.164306
-0.144424
-0.128278
-0.114397
-0.101589
-0.0890076
-0.0762054
-0.0639436
-0.0547527
-0.0521927
-0.0527354
-0.054169
-0.0557181
-0.0571355
-0.0583377
-0.05929
-0.0599761
-0.0603904
-0.0605373
-0.060429
-0.0600848
-0.0595287
-0.0587874
-0.0578892
-0.0568616
-0.055731
-0.0545215
-0.0532546
-0.0519486
-0.0506191
-0.0492787
-0.0479376
-0.0466034
-0.0452821
-0.0439778
-0.0426931
-0.0414297
-0.0401885
-0.0389695
-0.0377725
-0.0365967
-0.0354413
-0.034305
-0.0331869
-0.0320857
-0.0310002
-0.0299294
-0.028872
-0.0278271
-0.0267936
-0.0257708
-0.0247578
-0.0237537
-0.022758
-0.02177
-0.0207892
-0.0198149
-0.0188467
-0.0178842
-0.016927
-0.0159746
-0.0150268
-0.0140831
-0.0131432
-0.0122068
-0.0112736
-0.0103433
-0.00941564
-0.00849035
-0.00756724
-0.00664615
-0.00572698
-0.00480966
-0.0038939
-0.00297832
-0.00205999
-0.00114106
-0.00026735
0.000362524
-0.357111
-0.306214
-0.260303
-0.221056
-0.189363
-0.16493
-0.146054
-0.131003
-0.118024
-0.105826
-0.0935369
-0.0808343
-0.0680311
-0.0572666
-0.0551366
-0.0554209
-0.0563597
-0.0574467
-0.0585077
-0.0594559
-0.0602324
-0.0607959
-0.0611214
-0.0611996
-0.0610342
-0.0606391
-0.0600356
-0.0592491
-0.0583072
-0.0572379
-0.0560677
-0.0548211
-0.0535197
-0.0521823
-0.0508245
-0.0494589
-0.0480955
-0.046742
-0.045404
-0.0440853
-0.0427883
-0.0415146
-0.0402645
-0.0390381
-0.0378348
-0.0366537
-0.0354937
-0.0343536
-0.0332322
-0.0321281
-0.0310401
-0.029967
-0.0289075
-0.0278608
-0.0268257
-0.0258013
-0.0247867
-0.0237813
-0.0227842
-0.0217949
-0.0208128
-0.0198373
-0.018868
-0.0179043
-0.016946
-0.0159926
-0.0150437
-0.014099
-0.0131582
-0.0122209
-0.0112869
-0.0103558
-0.00942752
-0.00850167
-0.0075781
-0.00665664
-0.00573738
-0.00482089
-0.00390825
-0.00299881
-0.00208126
-0.00111916
-8.50462e-05
0.000795394
-0.35715
-0.306107
-0.259907
-0.221162
-0.190851
-0.16777
-0.150209
-0.136577
-0.124482
-0.112796
-0.100319
-0.0867496
-0.0716798
-0.0360524
-0.0569847
-0.0578961
-0.0584465
-0.0590709
-0.059779
-0.0604893
-0.0611117
-0.0615738
-0.0618284
-0.0618518
-0.0616391
-0.0611998
-0.060553
-0.0597236
-0.0587393
-0.0576285
-0.0564183
-0.0551339
-0.0537973
-0.0524277
-0.0510407
-0.0496491
-0.0482628
-0.0468893
-0.0455339
-0.0442003
-0.0428906
-0.0416061
-0.0403469
-0.0391128
-0.0379029
-0.0367162
-0.0355515
-0.0344073
-0.0332824
-0.0321752
-0.0310845
-0.0300089
-0.0289473
-0.0278985
-0.0268616
-0.0258354
-0.0248192
-0.0238122
-0.0228137
-0.021823
-0.0208394
-0.0198626
-0.0188919
-0.017927
-0.0169674
-0.0160127
-0.0150627
-0.0141168
-0.0131749
-0.0122366
-0.0113016
-0.0103697
-0.00944056
-0.00851399
-0.00758979
-0.00666782
-0.0057483
-0.00483231
-0.00392191
-0.00301636
-0.00209526
-0.00108424
0.000115023
0.00124963
-0.357316
-0.30672
-0.261273
-0.223253
-0.19405
-0.172468
-0.156781
-0.144624
-0.133258
-0.122077
-0.109387
-0.0954486
-0.0807438
-0.0676503
-0.0634589
-0.0613633
-0.0605815
-0.060518
-0.0608543
-0.0613634
-0.0618759
-0.0622746
-0.0624871
-0.0624758
-0.0622297
-0.0617552
-0.0610708
-0.0602018
-0.0591771
-0.0580257
-0.0567761
-0.055454
-0.0540821
-0.05268
-0.0512636
-0.0498458
-0.0484364
-0.0470427
-0.0456698
-0.0443211
-0.0429987
-0.0417032
-0.0404347
-0.0391928
-0.0379762
-0.0367838
-0.0356142
-0.0344659
-0.0333373
-0.0322269
-0.0311333
-0.0300552
-0.0289912
-0.0279403
-0.0269013
-0.0258733
-0.0248553
-0.0238466
-0.0228464
-0.0218541
-0.020869
-0.0198906
-0.0189185
-0.0179521
-0.0169911
-0.0160351
-0.0150837
-0.0141366
-0.0131934
-0.0122539
-0.0113178
-0.0103848
-0.0094547
-0.00852723
-0.00760221
-0.00667954
-0.00575952
-0.00484352
-0.0039344
-0.00303335
-0.00212534
-0.00115344
-5.90259e-05
0.000907261
-0.356698
-0.3055
-0.261205
-0.225924
-0.199096
-0.179339
-0.165478
-0.154634
-0.143927
-0.133382
-0.120536
-0.106209
-0.091114
-0.0777197
-0.0692745
-0.064399
-0.0622216
-0.0615205
-0.0615891
-0.0619987
-0.0624816
-0.0628739
-0.0630824
-0.0630614
-0.0627974
-0.0622973
-0.0615813
-0.0606764
-0.0596133
-0.0584229
-0.0571347
-0.0557755
-0.0543689
-0.0529348
-0.0514894
-0.0500457
-0.0486134
-0.0471998
-0.0458097
-0.0444462
-0.043111
-0.0418048
-0.0405271
-0.0392773
-0.0380542
-0.0368561
-0.0356816
-0.034529
-0.0333966
-0.032283
-0.0311864
-0.0301056
-0.0290392
-0.027986
-0.0269449
-0.0259148
-0.0248949
-0.0238843
-0.0228823
-0.0218883
-0.0209015
-0.0199215
-0.0189477
-0.0179798
-0.0170172
-0.0160597
-0.0151068
-0.0141583
-0.0132137
-0.0122729
-0.0113355
-0.0104012
-0.0094699
-0.00854132
-0.00761528
-0.0066917
-0.00577088
-0.00485418
-0.00394439
-0.00304266
-0.00213576
-0.00117871
-0.000143962
0.000719997
-0.358167
-0.30938
-0.26612
-0.231688
-0.20611
-0.18797
-0.175622
-0.166067
-0.155995
-0.145979
-0.132632
-0.116939
-0.0998423
-0.083925
-0.0722178
-0.0655445
-0.0626448
-0.0617504
-0.061842
-0.0623389
-0.0629092
-0.0633668
-0.0636143
-0.0636086
-0.0633411
-0.0628236
-0.0620804
-0.0611424
-0.0600426
-0.0588143
-0.0574885
-0.0560933
-0.0546529
-0.0531877
-0.0517143
-0.0502455
-0.0487912
-0.0473583
-0.0459516
-0.0445738
-0.0432264
-0.0419098
-0.0406233
-0.0393659
-0.0381362
-0.0369326
-0.0357533
-0.0345965
-0.0334604
-0.0323434
-0.0312438
-0.0301602
-0.0290913
-0.0280357
-0.0269923
-0.02596
-0.0249381
-0.0239255
-0.0229215
-0.0219256
-0.0209369
-0.0199551
-0.0189796
-0.0180099
-0.0170457
-0.0160865
-0.015132
-0.0141818
-0.0132357
-0.0122934
-0.0113545
-0.0104188
-0.00948612
-0.00855622
-0.00762895
-0.00670422
-0.00578232
-0.00486446
-0.00395296
-0.00304777
-0.00213227
-0.00115124
-4.99874e-05
0.000940672
-0.358987
-0.312205
-0.271112
-0.238231
-0.214147
-0.197615
-0.186633
-0.178582
-0.169306
-0.159515
-0.145502
-0.127922
-0.107584
-0.0868698
-0.0702864
-0.0636502
-0.0613456
-0.0610234
-0.0615687
-0.0623931
-0.0631833
-0.0637777
-0.0641014
-0.0641299
-0.0638676
-0.0633365
-0.0625677
-0.0615969
-0.060461
-0.0591954
-0.0578329
-0.0564027
-0.0549297
-0.0534347
-0.0519346
-0.0504421
-0.048967
-0.047516
-0.0460937
-0.0447025
-0.0433437
-0.0420172
-0.0407224
-0.0394578
-0.038222
-0.0370131
-0.0358291
-0.0346681
-0.0335284
-0.032408
-0.0313054
-0.030219
-0.0291474
-0.0280893
-0.0270435
-0.026009
-0.0249848
-0.02397
-0.022964
-0.021966
-0.0209753
-0.0199916
-0.0190141
-0.0180425
-0.0170765
-0.0161155
-0.0151592
-0.0142073
-0.0132595
-0.0123155
-0.0113749
-0.0104376
-0.00950336
-0.00857192
-0.00764317
-0.00671704
-0.00579381
-0.00487462
-0.00396204
-0.00305732
-0.0021451
-0.00115031
9.5824e-05
0.00151416
-0.35962
-0.314438
-0.275592
-0.245078
-0.223129
-0.208299
-0.198584
-0.191705
-0.183057
-0.172866
-0.158098
-0.138609
-0.114695
-0.0876332
-0.0436604
-0.0581615
-0.0583486
-0.059464
-0.060899
-0.0622699
-0.0633855
-0.0641641
-0.0645825
-0.0646494
-0.0643909
-0.0638428
-0.0630451
-0.0620392
-0.0608657
-0.0595624
-0.0581637
-0.0566994
-0.0551953
-0.0536723
-0.0521471
-0.0506327
-0.0491384
-0.0476709
-0.0462343
-0.0448309
-0.0434617
-0.0421263
-0.0408238
-0.0395527
-0.0383111
-0.0370971
-0.0359087
-0.0347438
-0.0336004
-0.0324768
-0.0313711
-0.0302819
-0.0292075
-0.0281468
-0.0270985
-0.0260616
-0.025035
-0.024018
-0.0230097
-0.0220095
-0.0210167
-0.0200308
-0.0190513
-0.0180777
-0.0171096
-0.0161466
-0.0151884
-0.0142346
-0.013285
-0.0123391
-0.0113967
-0.0104577
-0.00952162
-0.00858844
-0.00765799
-0.0067302
-0.00580533
-0.00488451
-0.00397077
-0.00306765
-0.00216199
-0.00114645
0.000346171
0.00254465
-0.360574
-0.317336
-0.280752
-0.252761
-0.232957
-0.21973
-0.210995
-0.204729
-0.196766
-0.18632
-0.171062
-0.149804
-0.122447
-0.0902433
-0.041666
-0.05213
-0.0546063
-0.0575802
-0.0601563
-0.0621797
-0.0636521
-0.0646129
-0.0651115
-0.0651998
-0.0649296
-0.064352
-0.0635163
-0.0624693
-0.0612547
-0.0599122
-0.0584771
-0.0569799
-0.0554462
-0.0538971
-0.0523491
-0.0508148
-0.0493035
-0.0478212
-0.0463721
-0.044958
-0.0435795
-0.0422363
-0.040927
-0.0396499
-0.0384032
-0.0371846
-0.0359921
-0.0348234
-0.0336766
-0.0325497
-0.031441
-0.0303489
-0.0292717
-0.0282083
-0.0271574
-0.0261179
-0.0250889
-0.0240694
-0.0230587
-0.0220562
-0.021061
-0.0200729
-0.0190911
-0.0181153
-0.017145
-0.0161799
-0.0152196
-0.0142638
-0.0133121
-0.0123643
-0.01142
-0.0104789
-0.00954094
-0.00860584
-0.00767349
-0.00674383
-0.00581708
-0.00489434
-0.00397916
-0.00307931
-0.00220224
-0.00132161
-0.000307062
0.00085373
-0.36203
-0.321696
-0.287772
-0.261902
-0.24361
-0.231514
-0.223463
-0.217459
-0.21001
-0.199307
-0.183443
-0.160685
-0.130567
-0.0941378
-0.040642
-0.0332756
-0.0505213
-0.0560262
-0.0597912
-0.0624003
-0.0641504
-0.0652243
-0.0657478
-0.0658152
-0.0655023
-0.0648732
-0.0639846
-0.062887
-0.0616259
-0.0602417
-0.0587698
-0.0572405
-0.0556791
-0.0541062
-0.0525379
-0.0509863
-0.0494603
-0.0479656
-0.0465058
-0.0450827
-0.0436966
-0.0423466
-0.0410316
-0.0397494
-0.0384981
-0.0372755
-0.0360791
-0.034907
-0.0337568
-0.0326268
-0.0315151
-0.03042
-0.0293401
-0.0282739
-0.0272202
-0.0261781
-0.0251464
-0.0241243
-0.0231111
-0.022106
-0.0211084
-0.0201177
-0.0191336
-0.0181554
-0.0171828
-0.0162154
-0.0152529
-0.0142949
-0.013341
-0.012391
-0.0114446
-0.0105014
-0.00956138
-0.00862421
-0.00768981
-0.00675814
-0.0058294
-0.00490462
-0.00398748
-0.00308797
-0.00222647
-0.00143052
-0.00071983
-0.000166391
-0.363743
-0.326598
-0.295307
-0.27141
-0.254482
-0.243301
-0.235905
-0.229815
-0.222326
-0.211099
-0.194497
-0.170618
-0.138585
-0.0990561
-0.0412283
-0.0320309
-0.049444
-0.0559988
-0.0603519
-0.0632194
-0.0650405
-0.0660887
-0.066542
-0.066523
-0.0661225
-0.0654119
-0.0644508
-0.0632906
-0.0619762
-0.0605473
-0.0590382
-0.057478
-0.0558911
-0.0542971
-0.0527113
-0.0511454
-0.0496074
-0.0481028
-0.0466347
-0.0452045
-0.0438123
-0.0424571
-0.0411373
-0.039851
-0.0385959
-0.0373696
-0.0361699
-0.0349945
-0.0338413
-0.0327082
-0.0315935
-0.0304954
-0.0294126
-0.0283435
-0.027287
-0.026242
-0.0252075
-0.0241827
-0.0231667
-0.0221589
-0.0211587
-0.0201654
-0.0191787
-0.018198
-0.0172229
-0.0162531
-0.0152882
-0.0143278
-0.0133716
-0.0124193
-0.0114706
-0.0105253
-0.00958299
-0.00864363
-0.00770708
-0.00677332
-0.00584253
-0.00491567
-0.0039962
-0.0030943
-0.00223408
-0.00146078
-0.000841067
-0.000464386
-0.365479
-0.331621
-0.303004
-0.280973
-0.265354
-0.254889
-0.247903
-0.241379
-0.233268
-0.221417
-0.204152
-0.179396
-0.145877
-0.104254
-0.0428707
-0.0332859
-0.0513605
-0.057914
-0.0621426
-0.0648176
-0.0664228
-0.0672595
-0.0675205
-0.0673346
-0.0667934
-0.0659669
-0.0649116
-0.0636758
-0.0623013
-0.060825
-0.0592785
-0.0576891
-0.0560793
-0.0544674
-0.0528677
-0.0512906
-0.0497438
-0.0482321
-0.0467581
-0.045323
-0.0439266
-0.0425676
-0.0412443
-0.0399548
-0.0386965
-0.0374672
-0.0362646
-0.0350862
-0.03393
-0.0327939
-0.0316762
-0.0305752
-0.0294893
-0.0284173
-0.0273578
-0.0263099
-0.0252724
-0.0242446
-0.0232258
-0.0222151
-0.021212
-0.020216
-0.0192265
-0.0182431
-0.0172654
-0.0162929
-0.0153254
-0.0143625
-0.0134039
-0.0124492
-0.0114981
-0.0105504
-0.0096058
-0.00866417
-0.00772538
-0.00678942
-0.00585645
-0.0049272
-0.00400458
-0.00309774
-0.00223022
-0.00145052
-0.000836235
-0.000480938
-0.367213
-0.336649
-0.310757
-0.290619
-0.276146
-0.265904
-0.258617
-0.251134
-0.241999
-0.229562
-0.212042
-0.187312
-0.153483
-0.110315
-0.0452775
-0.0369976
-0.056405
-0.0618833
-0.0652328
-0.0672294
-0.0683086
-0.0687351
-0.0686754
-0.0682394
-0.067504
-0.0665277
-0.0653577
-0.0640348
-0.0625947
-0.0610694
-0.0594866
-0.0578706
-0.0562414
-0.0546155
-0.0530056
-0.0514212
-0.049869
-0.0483532
-0.046876
-0.0454383
-0.0440394
-0.0426782
-0.0413527
-0.0400609
-0.0388003
-0.0375686
-0.0363633
-0.0351822
-0.0340232
-0.0328842
-0.0317636
-0.0306595
-0.0295705
-0.0284954
-0.0274328
-0.0263817
-0.0253411
-0.0243102
-0.0232882
-0.0222745
-0.0212684
-0.0202694
-0.0192769
-0.0182907
-0.0173101
-0.0163349
-0.0153647
-0.0143991
-0.0134378
-0.0124806
-0.011527
-0.0105768
-0.00962984
-0.00868584
-0.00774472
-0.00680643
-0.00587098
-0.00493872
-0.00401152
-0.00309664
-0.00221506
-0.00141277
-0.000758499
-0.000313902
-0.36889
-0.341434
-0.318042
-0.299579
-0.285893
-0.275703
-0.267682
-0.259161
-0.248934
-0.235639
-0.217951
-0.193854
-0.160619
-0.116474
-0.0474145
-0.0616185
-0.064936
-0.0677309
-0.0694519
-0.0703322
-0.0706114
-0.0704525
-0.06996
-0.0692023
-0.0682279
-0.0670744
-0.0657742
-0.0643563
-0.062848
-0.0612743
-0.059658
-0.0580193
-0.0563752
-0.0547398
-0.0531242
-0.0515366
-0.0499828
-0.0484662
-0.0469886
-0.0455506
-0.0441513
-0.0427894
-0.041463
-0.0401699
-0.0389077
-0.037674
-0.0364665
-0.0352829
-0.0341212
-0.0329794
-0.0318557
-0.0307485
-0.0296563
-0.0285779
-0.0275119
-0.0264575
-0.0254136
-0.0243794
-0.0233541
-0.0223371
-0.0213278
-0.0203256
-0.0193301
-0.0183407
-0.0173571
-0.016379
-0.0154059
-0.0144375
-0.0134735
-0.0125135
-0.0115573
-0.0106046
-0.00965509
-0.00870865
-0.00776511
-0.00682432
-0.00588609
-0.00495019
-0.00401722
-0.00309199
-0.00219122
-0.00134613
-0.000529115
0.000563527
-0.370308
-0.34556
-0.324393
-0.307457
-0.29426
-0.283889
-0.27458
-0.264498
-0.252721
-0.238518
-0.220895
-0.197886
-0.16654
-0.122739
-0.0314231
-0.0711425
-0.0739747
-0.0745162
-0.0743507
-0.0738579
-0.0731565
-0.072294
-0.071293
-0.0701665
-0.0689246
-0.0675783
-0.0661404
-0.0646258
-0.063051
-0.0614328
-0.0597881
-0.0581322
-0.0564789
-0.0548396
-0.0532234
-0.0516371
-0.0500856
-0.0485717
-0.0470967
-0.0456607
-0.0442629
-0.042902
-0.0415758
-0.0402823
-0.0390191
-0.037784
-0.0365746
-0.0353887
-0.0342244
-0.0330797
-0.0319529
-0.0308424
-0.0297469
-0.0286649
-0.0275955
-0.0265375
-0.0254901
-0.0244523
-0.0234235
-0.0224031
-0.0213903
-0.0203847
-0.0193859
-0.0183933
-0.0174065
-0.0164252
-0.015449
-0.0144777
-0.0135107
-0.0125479
-0.011589
-0.0106336
-0.00968153
-0.00873256
-0.00778649
-0.00684308
-0.00590188
-0.0049621
-0.00402316
-0.00308746
-0.00216534
-0.00124258
0.000105575
0.00419647
-0.371417
-0.348719
-0.329344
-0.313739
-0.300758
-0.289587
-0.278545
-0.266747
-0.253547
-0.238462
-0.220562
-0.198516
-0.170951
-0.136437
-0.0903278
-0.0895628
-0.0850164
-0.0818956
-0.0794764
-0.0774703
-0.0757146
-0.0741044
-0.0725687
-0.0710591
-0.0695439
-0.0680046
-0.0664325
-0.0648271
-0.0631928
-0.061538
-0.0598726
-0.0582072
-0.0565516
-0.0549147
-0.0533035
-0.0517236
-0.0501786
-0.0486708
-0.0472013
-0.0457698
-0.0443755
-0.0430169
-0.0416921
-0.040399
-0.0391355
-0.0378993
-0.0366881
-0.0355001
-0.0343331
-0.0331854
-0.0320554
-0.0309415
-0.0298424
-0.0287568
-0.0276836
-0.0266218
-0.0255705
-0.024529
-0.0234965
-0.0224723
-0.0214559
-0.0204467
-0.0194443
-0.0184483
-0.0174581
-0.0164735
-0.0154941
-0.0145196
-0.0135496
-0.0125839
-0.011622
-0.0106639
-0.00970911
-0.00875751
-0.00780882
-0.00686267
-0.0059184
-0.00497478
-0.00403036
-0.00308618
-0.00215298
-0.00124542
-0.000228412
0.00160195
-0.372226
-0.350954
-0.332558
-0.317581
-0.304398
-0.291674
-0.278768
-0.265215
-0.25054
-0.23473
-0.217324
-0.197402
-0.173792
-0.145981
-0.117973
-0.104018
-0.0947602
-0.0886132
-0.084177
-0.0807745
-0.0780303
-0.0757132
-0.0736711
-0.0718006
-0.0700311
-0.0683158
-0.0666253
-0.0649433
-0.0632629
-0.0615834
-0.0599081
-0.0582427
-0.0565933
-0.054966
-0.053366
-0.0517976
-0.0502635
-0.0487655
-0.0473042
-0.0458794
-0.0444903
-0.0431354
-0.041813
-0.0405211
-0.0392576
-0.0380206
-0.0368079
-0.0356176
-0.0344479
-0.0332971
-0.0321636
-0.0310461
-0.0299431
-0.0288535
-0.0277763
-0.0267104
-0.0256551
-0.0246095
-0.023573
-0.0225449
-0.0215246
-0.0205116
-0.0195054
-0.0185057
-0.017512
-0.0165239
-0.0155411
-0.0145633
-0.0135901
-0.0126212
-0.0116564
-0.0106953
-0.00973775
-0.00878341
-0.00783199
-0.00688299
-0.00593554
-0.00498808
-0.00403847
-0.00308633
-0.00213816
-0.00117828
0.000210685
0.0043289
-0.372875
-0.352526
-0.334254
-0.318547
-0.304238
-0.289432
-0.274361
-0.259223
-0.243502
-0.227332
-0.210242
-0.191371
-0.170499
-0.147955
-0.126665
-0.112748
-0.101696
-0.0937744
-0.0879106
-0.0834224
-0.0798703
-0.0769605
-0.0744898
-0.0723147
-0.0703338
-0.0684764
-0.0666952
-0.0649597
-0.0632523
-0.0615642
-0.0598927
-0.0582386
-0.056605
-0.0549953
-0.0534131
-0.0518615
-0.0503426
-0.0488578
-0.0474076
-0.0459917
-0.0446093
-0.0432593
-0.04194
-0.0406497
-0.0393866
-0.0381489
-0.0369346
-0.0357419
-0.0345693
-0.0334152
-0.032278
-0.0311564
-0.0300493
-0.0289554
-0.0278738
-0.0268036
-0.0257439
-0.024694
-0.0236531
-0.0226208
-0.0215963
-0.0205793
-0.0195692
-0.0185656
-0.0175681
-0.0165763
-0.01559
-0.0146087
-0.0136321
-0.01266
-0.011692
-0.0107279
-0.00976738
-0.00881018
-0.0078559
-0.00690392
-0.00595322
-0.00500197
-0.00404758
-0.00308895
-0.00213485
-0.00121325
-0.000308322
0.000852483
-0.373283
-0.353338
-0.334376
-0.31668
-0.30068
-0.283316
-0.266134
-0.249664
-0.233443
-0.217582
-0.201621
-0.184789
-0.166908
-0.148195
-0.130454
-0.117271
-0.105807
-0.0970778
-0.0903847
-0.0851812
-0.0810598
-0.0777183
-0.0749325
-0.0725362
-0.070407
-0.0684565
-0.0666229
-0.0648646
-0.0631548
-0.061478
-0.0598264
-0.0581968
-0.0565894
-0.0550058
-0.0534482
-0.0519188
-0.0504193
-0.0489509
-0.0475142
-0.0461089
-0.0447346
-0.0433903
-0.0420747
-0.0407863
-0.0395237
-0.0382851
-0.0370691
-0.0358738
-0.034698
-0.0335401
-0.0323988
-0.0312729
-0.0301611
-0.0290626
-0.0279763
-0.0269013
-0.0258369
-0.0247823
-0.0237369
-0.0227
-0.0216712
-0.0206498
-0.0196355
-0.0186279
-0.0176264
-0.0166308
-0.0156407
-0.0146557
-0.0136756
-0.0127
-0.0117288
-0.0107615
-0.00979792
-0.00883773
-0.00788047
-0.00692544
-0.00597154
-0.00501693
-0.00405903
-0.00309657
-0.0021384
-0.00122379
-0.000439715
0.000102049
-0.373394
-0.35329
-0.333317
-0.312756
-0.294371
-0.274498
-0.255664
-0.238051
-0.221704
-0.206642
-0.191947
-0.176919
-0.161252
-0.145482
-0.130517
-0.118608
-0.107456
-0.0985525
-0.0915083
-0.0859343
-0.0814913
-0.077899
-0.0749329
-0.0724172
-0.0702178
-0.0682347
-0.066396
-0.0646516
-0.0629685
-0.0613259
-0.059712
-0.058121
-0.0565509
-0.055002
-0.0534757
-0.0519737
-0.0504975
-0.0490484
-0.0476271
-0.0462339
-0.0448686
-0.0435305
-0.0422189
-0.0409325
-0.0396701
-0.0384305
-0.0372123
-0.036014
-0.0348345
-0.0336724
-0.0325265
-0.0313957
-0.030279
-0.0291754
-0.0280839
-0.0270038
-0.0259343
-0.0248747
-0.0238244
-0.0227827
-0.0217491
-0.0207232
-0.0197045
-0.0186925
-0.0176868
-0.0166872
-0.0156931
-0.0147043
-0.0137205
-0.0127414
-0.0117667
-0.0107961
-0.00982929
-0.00886597
-0.00790561
-0.00694751
-0.00599061
-0.00503336
-0.00407379
-0.00311118
-0.00215388
-0.00124013
-0.000468346
5.6596e-08
-0.373258
-0.352517
-0.330762
-0.306984
-0.286022
-0.263991
-0.243565
-0.225329
-0.209291
-0.195135
-0.181761
-0.1685
-0.154862
-0.141326
-0.128524
-0.117674
-0.107085
-0.0983651
-0.0913083
-0.0856491
-0.0811147
-0.0774542
-0.0744515
-0.0719292
-0.0697476
-0.0678005
-0.0660099
-0.0643208
-0.0626963
-0.0611124
-0.0595553
-0.0580174
-0.0564958
-0.0549901
-0.0535013
-0.0520313
-0.0505818
-0.0491543
-0.0477502
-0.04637
-0.0450141
-0.0436825
-0.0423746
-0.0410899
-0.0398274
-0.0385862
-0.0373652
-0.0361633
-0.0349795
-0.0338126
-0.0326615
-0.0315253
-0.0304031
-0.0292938
-0.0281968
-0.0271111
-0.0260361
-0.0249711
-0.0239155
-0.0228687
-0.0218301
-0.0207994
-0.019776
-0.0187594
-0.0177494
-0.0167454
-0.0157473
-0.0147545
-0.0137668
-0.012784
-0.0118057
-0.0108316
-0.00986142
-0.00889483
-0.00793127
-0.00697006
-0.00601028
-0.00505082
-0.00409043
-0.00312877
-0.00217242
-0.0012544
-0.000470101
6.63744e-06
-0.37284
-0.35092
-0.327168
-0.30045
-0.276136
-0.25227
-0.230378
-0.211868
-0.196638
-0.183697
-0.171775
-0.160008
-0.147964
-0.136074
-0.124807
-0.114979
-0.105044
-0.0966972
-0.0898567
-0.0843396
-0.0799195
-0.076367
-0.0734738
-0.071063
-0.0689931
-0.0671553
-0.0654696
-0.0638794
-0.0623467
-0.0608468
-0.0593655
-0.057895
-0.0564324
-0.0549775
-0.0535319
-0.0520978
-0.0506775
-0.0492734
-0.0478873
-0.0465205
-0.0451741
-0.0438485
-0.042544
-0.0412602
-0.0399969
-0.0387533
-0.0375288
-0.0363225
-0.0351336
-0.0339612
-0.0328043
-0.031662
-0.0305336
-0.0294182
-0.028315
-0.0272232
-0.0261423
-0.0250715
-0.0240102
-0.022958
-0.0219142
-0.0208783
-0.0198499
-0.0188286
-0.017814
-0.0168056
-0.0158031
-0.0148062
-0.0138145
-0.0128278
-0.0118457
-0.0108679
-0.00989427
-0.00892425
-0.00795737
-0.00699297
-0.00603029
-0.00506855
-0.00410691
-0.00314459
-0.00218494
-0.00125417
-0.000443765
5.87115e-05
-0.372068
-0.348458
-0.322697
-0.293518
-0.265579
-0.239911
-0.217484
-0.199231
-0.184869
-0.17303
-0.162385
-0.151858
-0.141019
-0.130268
-0.119958
-0.110925
-0.101591
-0.0936947
-0.087225
-0.0820362
-0.0779174
-0.0746438
-0.0720065
-0.069828
-0.0679661
-0.0663128
-0.0647897
-0.0633422
-0.061934
-0.0605425
-0.0591549
-0.0577648
-0.0563706
-0.0549732
-0.0535752
-0.0521799
-0.0507907
-0.0494107
-0.0480427
-0.0466891
-0.0453516
-0.0440313
-0.0427291
-0.0414453
-0.0401801
-0.0389331
-0.0377041
-0.0364924
-0.0352975
-0.0341187
-0.0329551
-0.0318061
-0.0306708
-0.0295486
-0.0284386
-0.0273403
-0.026253
-0.0251759
-0.0241087
-0.0230506
-0.0220011
-0.0209599
-0.0199263
-0.0189
-0.0178805
-0.0168674
-0.0158605
-0.0148592
-0.0138634
-0.0128726
-0.0118866
-0.0109051
-0.00992779
-0.00895421
-0.00798389
-0.0070162
-0.00605051
-0.00508628
-0.00412294
-0.0031596
-0.00219805
-0.00126104
-0.000437997
7.70574e-05
-0.371196
-0.345593
-0.317505
-0.285789
-0.255079
-0.227862
-0.20516
-0.187492
-0.174144
-0.163444
-0.153952
-0.144437
-0.134435
-0.124273
-0.114354
-0.105765
-0.096872
-0.0894351
-0.0834551
-0.0787655
-0.0751309
-0.0723074
-0.0700746
-0.0682504
-0.0666932
-0.065299
-0.0639947
-0.0627314
-0.0614783
-0.0602172
-0.058939
-0.0576404
-0.0563222
-0.0549872
-0.0536399
-0.052285
-0.0509274
-0.0495714
-0.0482211
-0.0468796
-0.0455498
-0.0442334
-0.0429322
-0.041647
-0.0403785
-0.0391268
-0.037892
-0.0366738
-0.0354718
-0.0342855
-0.0331144
-0.0319577
-0.0308148
-0.0296851
-0.0285678
-0.0274624
-0.0263681
-0.0252844
-0.0242107
-0.0231464
-0.022091
-0.021044
-0.020005
-0.0189734
-0.0179489
-0.016931
-0.0159194
-0.0149137
-0.0139135
-0.0129185
-0.0119285
-0.0109431
-0.00996195
-0.0089847
-0.00801082
-0.00703973
-0.0060709
-0.005104
-0.004139
-0.00317638
-0.00222093
-0.00129937
-0.000501167
-8.38858e-06
-0.370142
-0.342265
-0.311666
-0.277382
-0.244525
-0.216555
-0.194152
-0.177305
-0.164808
-0.154972
-0.146386
-0.137665
-0.128264
-0.118306
-0.10826
-0.0995865
-0.0908877
-0.0839033
-0.0785431
-0.0745407
-0.0715878
-0.0693956
-0.0677207
-0.0663738
-0.0652162
-0.0641519
-0.0631182
-0.0620764
-0.0610047
-0.0598923
-0.058736
-0.0575371
-0.0562999
-0.0550304
-0.0537351
-0.0524208
-0.0510942
-0.0497611
-0.0484268
-0.0470958
-0.0457717
-0.0444575
-0.0431553
-0.041867
-0.0405934
-0.0393355
-0.0380934
-0.0368673
-0.035657
-0.0344622
-0.0332824
-0.0321171
-0.0309658
-0.0298278
-0.0287026
-0.0275894
-0.0264876
-0.0253967
-0.0243162
-0.0232453
-0.0221836
-0.0211306
-0.0200858
-0.0190488
-0.018019
-0.0169961
-0.0159797
-0.0149693
-0.0139647
-0.0129654
-0.0119712
-0.0109818
-0.00999674
-0.00901569
-0.00803815
-0.00706355
-0.00609138
-0.00512142
-0.00415409
-0.00319173
-0.00224397
-0.00134502
-0.000585793
-0.00012872
-0.368961
-0.33869
-0.305745
-0.269707
-0.235761