/*--------------------------------*- C++ -*----------------------------------*\
  =========                 |
  \\      /  F ield         | OpenFOAM: The Open Source CFD Toolbox
   \\    /   O peration     | Website:  https://openfoam.org
    \\  /    A nd           | Version:  6
     \\/     M anipulation  |
\*---------------------------------------------------------------------------*/
FoamFile
{
    version     2.0;
    format      ascii;
    class       surfaceScalarField;
    location    "330";
    object      phi;
}
// * * * * * * * * * * * * * * * * * * * * * * * * * * * * * * * * * * * * * //

dimensions      [0 3 -1 0 0 0 0];

internalField   nonuniform List<scalar> 
11773
(
-2.2912e-08
2.2912e-08
-5.37944e-08
3.08815e-08
-6.86247e-08
1.48296e-08
-7.20136e-08
3.38819e-09
-6.01451e-08
-1.18693e-08
-5.50885e-08
-5.05741e-09
-5.25097e-08
-2.57961e-09
-3.71553e-08
-1.53553e-08
-3.12054e-08
-5.95086e-09
-2.77364e-08
-3.46999e-09
-1.89851e-08
-8.7523e-09
-9.84732e-09
-9.13889e-09
1.77251e-10
-1.00257e-08
1.71602e-13
1.76375e-10
1.18484e-13
4.8358e-14
9.50658e-14
2.34181e-14
8.10836e-14
1.39803e-14
7.14388e-14
9.64245e-15
6.41586e-14
7.27768e-15
5.83446e-14
5.81123e-15
5.35246e-14
4.8171e-15
4.94207e-14
4.10094e-15
4.58554e-14
3.5622e-15
4.27088e-14
3.14342e-15
3.98965e-14
2.80916e-15
3.7357e-14
2.53638e-15
3.50445e-14
2.30946e-15
3.29239e-14
2.11754e-15
3.09682e-14
1.95282e-15
2.91558e-14
1.80963e-15
2.74694e-14
1.68373e-15
2.5895e-14
1.57193e-15
2.4421e-14
1.47179e-15
2.30376e-14
1.38138e-15
2.17365e-14
1.2992e-15
2.05109e-14
1.22404e-15
1.93546e-14
1.15495e-15
1.82624e-14
1.09111e-15
1.72296e-14
1.03189e-15
1.62522e-14
9.76739e-16
1.53265e-14
9.25207e-16
1.44493e-14
8.76912e-16
1.36176e-14
8.3153e-16
1.28289e-14
7.88785e-16
1.20806e-14
7.48442e-16
1.13707e-14
7.10296e-16
1.06969e-14
6.7417e-16
1.00576e-14
6.39911e-16
9.4508e-15
6.07385e-16
8.87502e-15
5.76475e-16
8.3287e-15
5.47076e-16
7.8104e-15
5.19098e-16
7.31879e-15
4.92461e-16
6.85257e-15
4.67092e-16
6.41054e-15
4.42927e-16
5.99155e-15
4.1991e-16
5.59449e-15
3.97989e-16
5.21831e-15
3.77118e-16
4.86201e-15
3.57257e-16
4.5246e-15
3.38366e-16
4.20515e-15
3.20414e-16
3.90275e-15
3.03368e-16
3.61653e-15
2.87202e-16
3.34563e-15
2.71889e-16
3.08922e-15
2.57406e-16
2.84649e-15
2.43733e-16
2.61667e-15
2.30848e-16
2.39897e-15
2.18736e-16
2.19264e-15
2.07377e-16
1.99695e-15
1.96757e-16
1.81118e-15
1.8686e-16
1.63462e-15
1.77673e-16
1.46657e-15
1.6918e-16
1.30635e-15
1.61368e-16
1.15331e-15
1.54221e-16
1.00678e-15
1.47724e-16
8.66145e-16
1.41853e-16
7.30808e-16
1.36576e-16
6.00218e-16
1.31848e-16
4.73887e-16
1.27606e-16
3.5137e-16
1.23806e-16
2.32179e-16
1.20492e-16
1.15538e-16
1.17952e-16
1.16854e-16
-4.29218e-08
6.58328e-08
-5.04397e-08
3.83979e-08
-5.12867e-08
1.56752e-08
-5.00241e-08
2.12423e-09
-4.80532e-08
-1.38416e-08
-3.33557e-08
-1.97564e-08
-2.70252e-08
-8.91172e-09
-1.64118e-08
-2.59703e-08
-1.15684e-08
-1.0796e-08
-9.53135e-09
-5.50896e-09
-5.91493e-09
-1.23707e-08
-2.46908e-09
-1.25867e-08
2.09974e-10
-1.27064e-08
1.07272e-13
3.85687e-10
9.65353e-14
4.87961e-14
8.67466e-14
3.32047e-14
7.72506e-14
2.34722e-14
6.93436e-14
1.75449e-14
6.28562e-14
1.37602e-14
5.74603e-14
1.1202e-14
5.28873e-14
9.38475e-15
4.89418e-14
8.04098e-15
4.54841e-14
7.01429e-15
4.24138e-14
6.20813e-15
3.96573e-14
5.56015e-15
3.71596e-14
5.02857e-15
3.48791e-14
4.58461e-15
3.27835e-14
4.20792e-15
3.08476e-14
3.88379e-15
2.90511e-14
3.60144e-15
2.73777e-14
3.35277e-15
2.5814e-14
3.13165e-15
2.43489e-14
2.93333e-15
2.29729e-14
2.75412e-15
2.16782e-14
2.59108e-15
2.0458e-14
2.44187e-15
1.93064e-14
2.3046e-15
1.82182e-14
2.17772e-15
1.71889e-14
2.05994e-15
1.62146e-14
1.95021e-15
1.52917e-14
1.84763e-15
1.44169e-14
1.75146e-15
1.35875e-14
1.66105e-15
1.28008e-14
1.57587e-15
1.20543e-14
1.49545e-15
1.1346e-14
1.41938e-15
1.06738e-14
1.34733e-15
1.00359e-14
1.27897e-15
9.43045e-15
1.21406e-15
8.85591e-15
1.15236e-15
8.31075e-15
1.09367e-15
7.79356e-15
1.0378e-15
7.30298e-15
9.84599e-16
6.83775e-15
9.33924e-16
6.39667e-15
8.8565e-16
5.97858e-15
8.39663e-16
5.58239e-15
7.95863e-16
5.20705e-15
7.5416e-16
4.85155e-15
7.1447e-16
4.51492e-15
6.76721e-16
4.19623e-15
6.40846e-16
3.89457e-15
6.06783e-16
3.60906e-15
5.74478e-16
3.33886e-15
5.43879e-16
3.08313e-15
5.14941e-16
2.84107e-15
4.87621e-16
2.6119e-15
4.6188e-16
2.39484e-15
4.37682e-16
2.18914e-15
4.14992e-16
1.99407e-15
3.9378e-16
1.8089e-15
3.74014e-16
1.63294e-15
3.55666e-16
1.46548e-15
3.38708e-16
1.30584e-15
3.23112e-16
1.15336e-15
3.08849e-16
1.00738e-15
2.95886e-16
8.67271e-16
2.84182e-16
7.32415e-16
2.73685e-16
6.02224e-16
2.64321e-16
4.7614e-16
2.55997e-16
3.53632e-16
2.48642e-16
2.34142e-16
2.42326e-16
1.16996e-16
2.37452e-16
2.34892e-16
-2.68026e-08
9.26347e-08
-3.71203e-08
4.87142e-08
-3.91051e-08
1.76587e-08
-3.60515e-08
-9.30622e-10
-3.16923e-08
-1.82021e-08
-2.1525e-08
-2.9925e-08
-5.89246e-09
-2.45456e-08
-3.35849e-09
-2.85058e-08
3.50825e-09
-1.76643e-08
1.31987e-08
-1.52011e-08
1.15758e-08
-1.07494e-08
9.74783e-09
-1.07604e-08
7.87368e-09
-1.08337e-08
1.86274e-13
8.25861e-09
8.28005e-14
4.82055e-14
7.8168e-14
3.78354e-14
7.20208e-14
2.96158e-14
6.60008e-14
2.35609e-14
6.05945e-14
1.91622e-14
5.58529e-14
1.59391e-14
5.16987e-14
1.35343e-14
4.80343e-14
1.17006e-14
4.47726e-14
1.0271e-14
4.18433e-14
9.13254e-15
3.91907e-14
8.20775e-15
3.67715e-14
7.44291e-15
3.45514e-14
6.79998e-15
3.25031e-14
6.25159e-15
3.06048e-14
5.77771e-15
2.88387e-14
5.36344e-15
2.71901e-14
4.99751e-15
2.56468e-14
4.6713e-15
2.41988e-14
4.37814e-15
2.28373e-14
4.11274e-15
2.15549e-14
3.87094e-15
2.03453e-14
3.64937e-15
1.92028e-14
3.44529e-15
1.81225e-14
3.25648e-15
1.71003e-14
3.08106e-15
1.61322e-14
2.91751e-15
1.52148e-14
2.76453e-15
1.4345e-14
2.62101e-15
1.35201e-14
2.48604e-15
1.27374e-14
2.3588e-15
1.19947e-14
2.23863e-15
1.12898e-14
2.12493e-15
1.06208e-14
2.01718e-15
9.98576e-15
1.91495e-15
9.38305e-15
1.81784e-15
8.81106e-15
1.72551e-15
8.2683e-15
1.63766e-15
7.75337e-15
1.55403e-15
7.26494e-15
1.47438e-15
6.80175e-15
1.3985e-15
6.36262e-15
1.32621e-15
5.94639e-15
1.25733e-15
5.55199e-15
1.19173e-15
5.17837e-15
1.12926e-15
4.82453e-15
1.0698e-15
4.4895e-15
1.01325e-15
4.17236e-15
9.59498e-16
3.87221e-15
9.08462e-16
3.58816e-15
8.60057e-16
3.31939e-15
8.14209e-16
3.06505e-15
7.70848e-16
2.82435e-15
7.2991e-16
2.59651e-15
6.91339e-16
2.38075e-15
6.55078e-16
2.17633e-15
6.21079e-16
1.98251e-15
5.89294e-16
1.79858e-15
5.59677e-16
1.62382e-15
5.32188e-16
1.45755e-15
5.06783e-16
1.29907e-15
4.83422e-16
1.14773e-15
4.62063e-16
1.00285e-15
4.42661e-16
8.63805e-16
4.25163e-16
7.29949e-16
4.09503e-16
6.00664e-16
3.95594e-16
4.75348e-16
3.83324e-16
3.53414e-16
3.72605e-16
2.34272e-16
3.63512e-16
1.17255e-16
3.56522e-16
3.53167e-16
-1.81651e-08
1.10799e-07
-2.86812e-08
5.92288e-08
-3.23607e-08
2.13369e-08
-2.91887e-08
-4.10403e-09
-2.40779e-08
-2.33142e-08
-2.35415e-08
-3.04628e-08
-1.29583e-08
-3.51303e-08
-7.11538e-09
-3.43501e-08
5.80769e-09
-3.05889e-08
1.78761e-08
-2.72711e-08
1.83518e-08
-1.12266e-08
1.4469e-08
-6.87926e-09
-1.37986e-09
5.01382e-09
5.52742e-13
6.87729e-09
7.36596e-14
4.85787e-14
7.09206e-14
4.05728e-14
6.66797e-14
3.38534e-14
6.21187e-14
2.81181e-14
5.7749e-14
2.35277e-14
5.37295e-14
1.99542e-14
5.00799e-14
1.71792e-14
4.6773e-14
1.50027e-14
4.37693e-14
1.32698e-14
4.10297e-14
1.18672e-14
3.85194e-14
1.07131e-14
3.62088e-14
9.74858e-15
3.40731e-14
8.93095e-15
3.20913e-14
8.22869e-15
3.02463e-14
7.61834e-15
2.85233e-14
7.08219e-15
2.69102e-14
6.60673e-15
2.53964e-14
6.18146e-15
2.39731e-14
5.79818e-15
2.26325e-14
5.45038e-15
2.13681e-14
5.13285e-15
2.01738e-14
4.84138e-15
1.90448e-14
4.57252e-15
1.79763e-14
4.32344e-15
1.69644e-14
4.09178e-15
1.60056e-14
3.87557e-15
1.50964e-14
3.67316e-15
1.4234e-14
3.48313e-15
1.34158e-14
3.30429e-15
1.26392e-14
3.13561e-15
1.1902e-14
2.97621e-15
1.12023e-14
2.82532e-15
1.0538e-14
2.68227e-15
9.90735e-15
2.54649e-15
9.30874e-15
2.41748e-15
8.7406e-15
2.29478e-15
8.20146e-15
2.17801e-15
7.68995e-15
2.06682e-15
7.20476e-15
1.9609e-15
6.74465e-15
1.85997e-15
6.30845e-15
1.7638e-15
5.89504e-15
1.67217e-15
5.50334e-15
1.58487e-15
5.13231e-15
1.50174e-15
4.78098e-15
1.42261e-15
4.44837e-15
1.34733e-15
4.13358e-15
1.27578e-15
3.8357e-15
1.20785e-15
3.55387e-15
1.14341e-15
3.28724e-15
1.08237e-15
3.03501e-15
1.02463e-15
2.79636e-15
9.70128e-16
2.57052e-15
9.18771e-16
2.35673e-15
8.70491e-16
2.15423e-15
8.25221e-16
1.9623e-15
7.829e-16
1.78022e-15
7.43468e-16
1.60728e-15
7.0687e-16
1.44279e-15
6.73053e-16
1.28607e-15
6.41962e-16
1.13643e-15
6.13546e-16
9.93226e-16
5.87749e-16
8.55794e-16
5.64509e-16
7.23487e-16
5.43753e-16
5.95663e-16
5.25387e-16
4.71687e-16
5.09291e-16
3.50938e-16
4.95365e-16
2.32797e-16
4.83677e-16
1.16602e-16
4.74753e-16
4.70794e-16
-1.49861e-08
1.25784e-07
-2.522e-08
6.9461e-08
-3.42359e-08
3.03513e-08
-3.84946e-08
1.53153e-10
-4.83902e-08
-1.34201e-08
-5.12721e-08
-2.75823e-08
-4.7726e-08
-3.86779e-08
-3.687e-08
-4.52076e-08
-2.16185e-08
-4.58418e-08
-2.49275e-09
-4.63984e-08
8.72263e-09
-2.24436e-08
1.10893e-08
-9.24757e-09
-3.12706e-09
1.92285e-08
4.22395e-13
3.74832e-09
6.66001e-14
3.7068e-14
6.49931e-14
4.21781e-14
6.16205e-14
3.72225e-14
5.80691e-14
3.16656e-14
5.45963e-14
2.69963e-14
5.12813e-14
2.32648e-14
4.81603e-14
2.02955e-14
4.52456e-14
1.79125e-14
4.25341e-14
1.59762e-14
4.00148e-14
1.43814e-14
3.76729e-14
1.30499e-14
3.54928e-14
1.19236e-14
3.34597e-14
1.09592e-14
3.15598e-14
1.01238e-14
2.97808e-14
9.39274e-15
2.81119e-14
8.7468e-15
2.65434e-14
8.17117e-15
2.50669e-14
7.65418e-15
2.36751e-14
7.18663e-15
2.23613e-14
6.7611e-15
2.11199e-14
6.37164e-15
1.99456e-14
6.01336e-15
1.88339e-14
5.68227e-15
1.77807e-14
5.37504e-15
1.67824e-14
5.08891e-15
1.58355e-14
4.82154e-15
1.49371e-14
4.57095e-15
1.40845e-14
4.33548e-15
1.3275e-14
4.11369e-15
1.25065e-14
3.90435e-15
1.17767e-14
3.70639e-15
1.10837e-14
3.51889e-15
1.04257e-14
3.34106e-15
9.80091e-15
3.17218e-15
9.20776e-15
3.01165e-15
8.64473e-15
2.85893e-15
8.11041e-15
2.71353e-15
7.60344e-15
2.57505e-15
7.12257e-15
2.44309e-15
6.66657e-15
2.31733e-15
6.2343e-15
2.19748e-15
5.82464e-15
2.08325e-15
5.43653e-15
1.97441e-15
5.06898e-15
1.87075e-15
4.72098e-15
1.77207e-15
4.39161e-15
1.67819e-15
4.07994e-15
1.58895e-15
3.7851e-15
1.5042e-15
3.50622e-15
1.4238e-15
3.24247e-15
1.34765e-15
2.99304e-15
1.27562e-15
2.75713e-15
1.20761e-15
2.53397e-15
1.14353e-15
2.3228e-15
1.08329e-15
2.12288e-15
1.0268e-15
1.93347e-15
9.73993e-16
1.75386e-15
9.24794e-16
1.58335e-15
8.79135e-16
1.42125e-15
8.3695e-16
1.26686e-15
7.98176e-16
1.11952e-15
7.6275e-16
9.7855e-16
7.3061e-16
8.43299e-16
7.01686e-16
7.13107e-16
6.75902e-16
5.87315e-16
6.53162e-16
4.65268e-16
6.33345e-16
3.46315e-16
6.16343e-16
2.29813e-16
6.0222e-16
1.15077e-16
5.91539e-16
5.86908e-16
-1.18901e-08
1.37673e-07
-2.68765e-08
8.44456e-08
-4.52609e-08
4.8734e-08
-5.54655e-08
1.03561e-08
-6.35548e-08
-5.33246e-09
-6.29843e-08
-2.81545e-08
-5.79085e-08
-4.37553e-08
-4.81847e-08
-5.4933e-08
-2.98798e-08
-6.41483e-08
-2.73177e-08
-4.89623e-08
-1.09723e-08
-3.87906e-08
-6.42098e-09
-1.38005e-08
-3.73237e-09
1.65386e-08
1.15684e-13
1.53393e-11
7.10604e-14
8.16821e-14
6.06155e-14
5.26213e-14
5.67193e-14
4.11151e-14
5.39513e-14
3.44295e-14
5.13057e-14
2.96376e-14
4.86631e-14
2.5903e-14
4.60598e-14
2.28939e-14
4.35399e-14
2.04274e-14
4.11306e-14
1.83804e-14
3.88444e-14
1.66623e-14
3.66845e-14
1.52046e-14
3.4648e-14
1.39548e-14
3.27296e-14
1.28725e-14
3.09223e-14
1.19261e-14
2.9219e-14
1.10913e-14
2.76126e-14
1.03488e-14
2.60962e-14
9.68336e-15
2.46636e-14
9.08292e-15
2.33089e-14
8.5377e-15
2.20271e-14
8.03981e-15
2.08131e-14
7.58278e-15
1.96628e-14
7.16129e-15
1.8572e-14
6.77095e-15
1.75373e-14
6.40806e-15
1.65554e-14
6.06954e-15
1.56232e-14
5.75276e-15
1.4738e-14
5.4555e-15
1.38972e-14
5.17587e-15
1.30986e-14
4.91222e-15
1.23399e-14
4.66316e-15
1.16192e-14
4.42746e-15
1.09346e-14
4.20407e-15
1.02844e-14
3.99206e-15
9.6668e-15
3.79062e-15
9.0804e-15
3.59905e-15
8.52372e-15
3.41672e-15
7.99538e-15
3.24307e-15
7.49407e-15
3.07761e-15
7.01857e-15
2.91991e-15
6.56768e-15
2.76958e-15
6.14029e-15
2.62627e-15
5.73531e-15
2.48966e-15
5.3517e-15
2.35947e-15
4.98846e-15
2.23545e-15
4.64464e-15
2.11737e-15
4.3193e-15
2.00502e-15
4.01154e-15
1.89821e-15
3.72049e-15
1.79676e-15
3.4453e-15
1.70053e-15
3.18514e-15
1.60935e-15
2.93921e-15
1.52312e-15
2.70673e-15
1.44169e-15
2.48691e-15
1.36496e-15
2.27902e-15
1.29282e-15
2.08231e-15
1.22518e-15
1.89606e-15
1.16195e-15
1.71954e-15
1.10304e-15
1.55207e-15
1.04838e-15
1.39295e-15
9.9788e-16
1.24149e-15
9.51477e-16
1.09702e-15
9.09098e-16
9.58875e-16
8.70672e-16
8.26381e-16
8.36127e-16
6.98878e-16
8.05384e-16
5.75696e-16
7.78349e-16
4.56163e-16
7.54907e-16
3.39609e-16
7.34946e-16
2.25386e-16
7.18507e-16
1.12853e-16
7.06147e-16
7.00813e-16
-2.28202e-08
1.60493e-07
-3.6286e-08
9.79091e-08
-5.33783e-08
6.58245e-08
-7.14481e-08
2.8424e-08
-8.48362e-08
8.05376e-09
-8.91162e-08
-2.38763e-08
-8.7577e-08
-4.52962e-08
-8.5116e-08
-5.73958e-08
-7.88853e-08
-7.03806e-08
-6.06717e-08
-6.71775e-08
-2.82185e-08
-7.12455e-08
-1.89436e-08
-2.30771e-08
-1.47925e-11
-2.39147e-09
1.94056e-14
4.84261e-14
4.54932e-14
5.55944e-14
5.04841e-14
4.76275e-14
5.08285e-14
4.07668e-14
4.97276e-14
3.55262e-14
4.80137e-14
3.13471e-14
4.60109e-14
2.79011e-14
4.38867e-14
2.50131e-14
4.17374e-14
2.25715e-14
3.96191e-14
2.04933e-14
3.75636e-14
1.87123e-14
3.55879e-14
1.71748e-14
3.36999e-14
1.58373e-14
3.19022e-14
1.46648e-14
3.0194e-14
1.36292e-14
2.85727e-14
1.27077e-14
2.70346e-14
1.18821e-14
2.55758e-14
1.11377e-14
2.41921e-14
1.04626e-14
2.28794e-14
9.84675e-15
2.16336e-14
9.28227e-15
2.04509e-14
8.76243e-15
1.9328e-14
8.28169e-15
1.82614e-14
7.83539e-15
1.7248e-14
7.41961e-15
1.62851e-14
7.03104e-15
1.53699e-14
6.66684e-15
1.45001e-14
6.3246e-15
1.36732e-14
6.00225e-15
1.28873e-14
5.698e-15
1.21403e-14
5.4103e-15
1.14302e-14
5.13779e-15
1.07555e-14
4.87932e-15
1.01144e-14
4.63385e-15
9.50542e-15
4.40048e-15
8.92704e-15
4.17842e-15
8.37789e-15
3.96696e-15
7.85666e-15
3.76548e-15
7.36209e-15
3.57344e-15
6.89298e-15
3.39034e-15
6.44819e-15
3.21573e-15
6.02662e-15
3.04923e-15
5.62722e-15
2.89048e-15
5.24898e-15
2.73916e-15
4.89091e-15
2.59499e-15
4.55207e-15
2.45769e-15
4.23156e-15
2.32703e-15
3.92847e-15
2.2028e-15
3.64196e-15
2.0848e-15
3.37119e-15
1.97284e-15
3.11533e-15
1.86677e-15
2.8736e-15
1.76643e-15
2.64521e-15
1.67167e-15
2.42941e-15
1.58238e-15
2.22545e-15
1.49844e-15
2.03259e-15
1.41973e-15
1.85011e-15
1.34614e-15
1.67731e-15
1.2776e-15
1.51349e-15
1.21399e-15
1.35795e-15
1.15525e-15
1.21001e-15
1.10128e-15
1.06901e-15
1.05201e-15
9.3426e-16
1.00736e-15
8.05102e-16
9.67258e-16
6.80865e-16
9.31624e-16
5.60873e-16
9.00374e-16
4.44435e-16
8.73402e-16
3.30867e-16
8.50591e-16
2.1956e-16
8.31906e-16
1.10042e-16
8.17768e-16
8.11924e-16
-8.68028e-09
1.69172e-07
-2.77913e-08
1.17018e-07
-5.3406e-08
9.14373e-08
-8.25068e-08
5.7523e-08
-9.91881e-08
2.47331e-08
-9.90788e-08
-2.39874e-08
-1.02137e-07
-4.22396e-08
-9.59984e-08
-6.35366e-08
-8.37429e-08
-8.26378e-08
-6.08177e-08
-9.01044e-08
-4.36977e-08
-8.83672e-08
-1.94817e-08
-4.72947e-08
5.88426e-13
-2.18754e-08
2.57147e-14
4.88189e-14
3.84826e-14
4.2825e-14
4.44427e-14
4.16642e-14
4.62113e-14
3.89941e-14
4.60448e-14
3.56884e-14
4.49769e-14
3.24104e-14
4.34663e-14
2.94068e-14
4.17363e-14
2.67378e-14
3.99083e-14
2.43942e-14
3.80529e-14
2.23431e-14
3.6213e-14
2.05465e-14
3.44146e-14
1.89675e-14
3.2673e-14
1.75732e-14
3.09967e-14
1.63356e-14
2.93898e-14
1.52306e-14
2.78536e-14
1.42387e-14
2.63875e-14
1.33432e-14
2.499e-14
1.25306e-14
2.36589e-14
1.17894e-14
2.23914e-14
1.11102e-14
2.1185e-14
1.04851e-14
2.00368e-14
9.90748e-15
1.89442e-14
9.37164e-15
1.79043e-14
8.87289e-15
1.69148e-14
8.40719e-15
1.59732e-14
7.97109e-15
1.50772e-14
7.56162e-15
1.42247e-14
7.17625e-15
1.34136e-14
6.81278e-15
1.26421e-14
6.4693e-15
1.19083e-14
6.14414e-15
1.12105e-14
5.83588e-15
1.0547e-14
5.54323e-15
9.91645e-15
5.26509e-15
9.31727e-15
5.00048e-15
8.7481e-15
4.74854e-15
8.20762e-15
4.5085e-15
7.69459e-15
4.27968e-15
7.20779e-15
4.06148e-15
6.74607e-15
3.85336e-15
6.30833e-15
3.65483e-15
5.89351e-15
3.46545e-15
5.50058e-15
3.28485e-15
5.12855e-15
3.11265e-15
4.77648e-15
2.94854e-15
4.44343e-15
2.79223e-15
4.12851e-15
2.64345e-15
3.83086e-15
2.50198e-15
3.54962e-15
2.36757e-15
3.28398e-15
2.24004e-15
3.03313e-15
2.11919e-15
2.79628e-15
2.00487e-15
2.57267e-15
1.8969e-15
2.36153e-15
1.79516e-15
2.16215e-15
1.6995e-15
1.97377e-15
1.6098e-15
1.7957e-15
1.52595e-15
1.62723e-15
1.44785e-15
1.46766e-15
1.37538e-15
1.3163e-15
1.30845e-15
1.17248e-15
1.24699e-15
1.03553e-15
1.19089e-15
9.04761e-16
1.14009e-15
7.79521e-16
1.0945e-15
6.59133e-16
1.05405e-15
5.42913e-16
1.01866e-15
4.30156e-16
9.88248e-16
3.20166e-16
9.62691e-16
2.12406e-16
9.41792e-16
1.06698e-16
9.25613e-16
9.19709e-16
-3.25471e-08
2.01718e-07
-5.1055e-08
1.35523e-07
-6.10945e-08
1.01474e-07
-8.25706e-08
7.89966e-08
-1.08892e-07
5.10523e-08
-1.13495e-07
-1.9386e-08
-1.31539e-07
-2.41971e-08
-1.27953e-07
-6.71248e-08
-1.22329e-07
-8.82639e-08
-1.03111e-07
-1.09325e-07
-7.22773e-08
-1.19203e-07
-1.65068e-08
-1.03067e-07
1.9327e-10
-3.8577e-08
2.04937e-14
1.926e-10
3.74607e-14
2.5856e-14
4.20891e-14
3.70326e-14
4.32981e-14
3.77811e-14
4.31563e-14
3.58257e-14
4.23305e-14
3.32316e-14
4.11153e-14
3.06169e-14
3.96728e-14
2.81749e-14
3.81035e-14
2.59578e-14
3.64733e-14
2.39675e-14
3.48262e-14
2.21876e-14
3.31917e-14
2.0596e-14
3.1589e-14
1.917e-14
3.00306e-14
1.78881e-14
2.85239e-14
1.67316e-14
2.70733e-14
1.56839e-14
2.56807e-14
1.47307e-14
2.43465e-14
1.38599e-14
2.30701e-14
1.30612e-14
2.18505e-14
1.23258e-14
2.06859e-14
1.1646e-14
1.95745e-14
1.10155e-14
1.85144e-14
1.04288e-14
1.75035e-14
9.88124e-15
1.65399e-14
9.36869e-15
1.56216e-14
8.8877e-15
1.47467e-14
8.43524e-15
1.39133e-14
8.00869e-15
1.31196e-14
7.60579e-15
1.2364e-14
7.22454e-15
1.16449e-14
6.86322e-15
1.09607e-14
6.52031e-15
1.03099e-14
6.19447e-15
9.69105e-15
5.88452e-15
9.10288e-15
5.58944e-15
8.54406e-15
5.30829e-15
8.01335e-15
5.04027e-15
7.50955e-15
4.78464e-15
7.03152e-15
4.54075e-15
6.57815e-15
4.30803e-15
6.14839e-15
4.08595e-15
5.7412e-15
3.87404e-15
5.35559e-15
3.67188e-15
4.99062e-15
3.47908e-15
4.64534e-15
3.29529e-15
4.31887e-15
3.1202e-15
4.01032e-15
2.95352e-15
3.71884e-15
2.79499e-15
3.44361e-15
2.64435e-15
3.1838e-15
2.50141e-15
2.93865e-15
2.36594e-15
2.70736e-15
2.23776e-15
2.48918e-15
2.11672e-15
2.28337e-15
2.00263e-15
2.0892e-15
1.89537e-15
1.90594e-15
1.79479e-15
1.73289e-15
1.70076e-15
1.56936e-15
1.61318e-15
1.41464e-15
1.53193e-15
1.26807e-15
1.45691e-15
1.12896e-15
1.38802e-15
9.96636e-16
1.32518e-15
8.7044e-16
1.26829e-15
7.497e-16
1.21728e-15
6.33746e-16
1.17207e-15
5.21892e-16
1.13261e-15
4.13433e-16
1.09883e-15
3.07678e-16
1.07059e-15
2.04149e-16
1.04748e-15
1.0261e-16
1.02933e-15
1.02343e-15
-2.07236e-08
2.22439e-07
-4.82347e-08
1.63031e-07
-7.73535e-08
1.30591e-07
-9.48449e-08
9.64847e-08
-9.20951e-08
4.82998e-08
-1.27086e-07
1.56025e-08
-1.37146e-07
-1.41391e-08
-1.29973e-07
-7.42999e-08
-1.28216e-07
-9.00224e-08
-1.08436e-07
-1.29107e-07
-9.22465e-08
-1.35394e-07
-5.84528e-08
-1.36863e-07
1.83336e-09
-9.88646e-08
9.03943e-14
2.0251e-09
4.72808e-14
4.73106e-14
4.27429e-14
4.15683e-14
4.15746e-14
3.8945e-14
4.08711e-14
3.65245e-14
4.00275e-14
3.40702e-14
3.89648e-14
3.16744e-14
3.77211e-14
2.94129e-14
3.63526e-14
2.73204e-14
3.49089e-14
2.54051e-14
3.34288e-14
2.36615e-14
3.19411e-14
2.20774e-14
3.04666e-14
2.06382e-14
2.90194e-14
1.93291e-14
2.76093e-14
1.81357e-14
2.62426e-14
1.70448e-14
2.4923e-14
1.60448e-14
2.36526e-14
1.51252e-14
2.24322e-14
1.42769e-14
2.12617e-14
1.34918e-14
2.01405e-14
1.27632e-14
1.90676e-14
1.20848e-14
1.80418e-14
1.14515e-14
1.70617e-14
1.08587e-14
1.61257e-14
1.03024e-14
1.52323e-14
9.7792e-15
1.438e-14
9.28608e-15
1.35672e-14
8.82038e-15
1.27925e-14
8.3798e-15
1.20542e-14
7.96233e-15
1.13511e-14
7.56619e-15
1.06818e-14
7.18981e-15
1.00448e-14
6.83181e-15
9.43889e-15
6.49097e-15
8.86285e-15
6.16622e-15
8.31545e-15
5.85658e-15
7.79553e-15
5.56121e-15
7.30195e-15
5.27934e-15
6.83365e-15
5.01028e-15
6.38955e-15
4.75342e-15
5.96865e-15
4.50821e-15
5.56995e-15
4.27414e-15
5.19252e-15
4.05076e-15
4.8354e-15
3.83766e-15
4.49772e-15
3.63447e-15
4.17858e-15
3.44085e-15
3.87714e-15
3.25649e-15
3.59257e-15
3.08111e-15
3.32405e-15
2.91444e-15
3.07078e-15
2.75625e-15
2.832e-15
2.60632e-15
2.60694e-15
2.46445e-15
2.39486e-15
2.33045e-15
2.19501e-15
2.20416e-15
2.00669e-15
2.08541e-15
1.82917e-15
1.97405e-15
1.66177e-15
1.86996e-15
1.50378e-15
1.773e-15
1.35452e-15
1.68306e-15
1.21332e-15
1.60002e-15
1.0795e-15
1.52379e-15
9.52402e-16
1.45427e-15
8.31356e-16
1.39137e-15
7.15699e-16
1.335e-15
6.04766e-16
1.28511e-15
4.9788e-16
1.24163e-15
3.94361e-16
1.20452e-15
2.93536e-16
1.17361e-15
1.94811e-16
1.14841e-15
9.76917e-17
1.12866e-15
1.12225e-15
-5.59271e-09
2.2803e-07
-1.88693e-08
1.76304e-07
-4.27078e-08
1.54428e-07
-9.12192e-08
1.44994e-07
-1.0731e-07
6.43884e-08
-1.32621e-07
4.09107e-08
-1.29537e-07
-1.72257e-08
-1.2501e-07
-7.88291e-08
-1.3479e-07
-8.0244e-08
-1.22114e-07
-1.41785e-07
-1.13092e-07
-1.44419e-07
-9.54161e-08
-1.5454e-07
-6.82658e-08
-1.26017e-07
7.04186e-13
-6.62426e-08
4.22401e-14
4.86759e-14
4.04391e-14
4.33674e-14
3.9446e-14
3.99337e-14
3.87111e-14
3.72546e-14
3.79182e-14
3.48579e-14
3.69737e-14
3.26135e-14
3.58794e-14
3.05014e-14
3.4668e-14
2.85257e-14
3.33765e-14
2.66902e-14
3.20382e-14
2.49933e-14
3.06794e-14
2.34296e-14
2.93203e-14
2.19906e-14
2.7976e-14
2.06669e-14
2.66571e-14
1.94482e-14
2.5371e-14
1.83248e-14
2.41227e-14
1.72873e-14
2.29154e-14
1.63271e-14
2.17509e-14
1.54363e-14
2.06301e-14
1.46079e-14
1.95532e-14
1.38358e-14
1.852e-14
1.31142e-14
1.75297e-14
1.24383e-14
1.65816e-14
1.18039e-14
1.56745e-14
1.1207e-14
1.48074e-14
1.06443e-14
1.39791e-14
1.01128e-14
1.31882e-14
9.61001e-15
1.24335e-14
9.13356e-15
1.17139e-14
8.68143e-15
1.1028e-14
8.25185e-15
1.03746e-14
7.84322e-15
9.75258e-15
7.45414e-15
9.16069e-15
7.08337e-15
8.59781e-15
6.72979e-15
8.06283e-15
6.39242e-15
7.55466e-15
6.07038e-15
7.07225e-15
5.76286e-15
6.61458e-15
5.46917e-15
6.18063e-15
5.18866e-15
5.76944e-15
4.92074e-15
5.38008e-15
4.6649e-15
5.01161e-15
4.42066e-15
4.66315e-15
4.18759e-15
4.33382e-15
3.9653e-15
4.02277e-15
3.75342e-15
3.72917e-15
3.55163e-15
3.45222e-15
3.35962e-15
3.19111e-15
3.17713e-15
2.94507e-15
3.00389e-15
2.71333e-15
2.83968e-15
2.49516e-15
2.68427e-15
2.28981e-15
2.53748e-15
2.09657e-15
2.39911e-15
1.91472e-15
2.269e-15
1.74356e-15
2.14699e-15
1.58241e-15
2.03294e-15
1.43056e-15
1.9267e-15
1.28736e-15
1.82816e-15
1.15212e-15
1.7372e-15
1.02418e-15
1.65372e-15
9.02888e-16
1.5776e-15
7.87572e-16
1.50876e-15
6.77578e-16
1.44711e-15
5.72244e-16
1.39259e-15
4.70909e-16
1.34515e-15
3.72911e-16
1.30473e-15
2.77596e-16
1.27115e-15
1.84264e-16
1.244e-15
9.22407e-17
1.22295e-15
1.21565e-15
-5.25716e-08
2.80601e-07
-9.90942e-08
2.22823e-07
-1.03082e-07
1.58412e-07
-8.13071e-08
1.23217e-07
-1.00492e-07
8.35712e-08
-1.17397e-07
5.78126e-08
-1.18636e-07
-1.59892e-08
-1.17131e-07
-8.03366e-08
-1.28683e-07
-6.86944e-08
-1.15369e-07
-1.55102e-07
-1.00764e-07
-1.59026e-07
-7.17998e-08
-1.83507e-07
-4.18056e-08
-1.56013e-07
8.22429e-13
-1.08051e-07
3.75994e-14
4.8289e-14
3.74318e-14
4.35328e-14
3.70943e-14
4.02668e-14
3.66036e-14
3.774e-14
3.59428e-14
3.55131e-14
3.51144e-14
3.34361e-14
3.41407e-14
3.1469e-14
3.30535e-14
2.96065e-14
3.18854e-14
2.78515e-14
3.06656e-14
2.62063e-14
2.9418e-14
2.46702e-14
2.81615e-14
2.32401e-14
2.69108e-14
2.19108e-14
2.56766e-14
2.06758e-14
2.44667e-14
1.95282e-14
2.32869e-14
1.84609e-14
2.21411e-14
1.74671e-14
2.10317e-14
1.65402e-14
1.99605e-14
1.56742e-14
1.89282e-14
1.48635e-14
1.79351e-14
1.41032e-14
1.69811e-14
1.33887e-14
1.60659e-14
1.27159e-14
1.51887e-14
1.20814e-14
1.43489e-14
1.14818e-14
1.35456e-14
1.09144e-14
1.27777e-14
1.03765e-14
1.20442e-14
9.86597e-15
1.13442e-14
9.38078e-15
1.06766e-14
8.91915e-15
1.00402e-14
8.47951e-15
9.4341e-15
8.06045e-15
8.85719e-15
7.66072e-15
8.30843e-15
7.27919e-15
7.78679e-15
6.91487e-15
7.29129e-15
6.56684e-15
6.82092e-15
6.23431e-15
6.37473e-15
5.91655e-15
5.95177e-15
5.61289e-15
5.55113e-15
5.32273e-15
5.17188e-15
5.04554e-15
4.81317e-15
4.78082e-15
4.47411e-15
4.52812e-15
4.15388e-15
4.28703e-15
3.85165e-15
4.05718e-15
3.56661e-15
3.83822e-15
3.29796e-15
3.62983e-15
3.04495e-15
3.43173e-15
2.8068e-15
3.24365e-15
2.58278e-15
3.06534e-15
2.37214e-15
2.89657e-15
2.17417e-15
2.73714e-15
1.98816e-15
2.58685e-15
1.8134e-15
2.44552e-15
1.64921e-15
2.31298e-15
1.4949e-15
2.18909e-15
1.3498e-15
2.07369e-15
1.21324e-15
1.96666e-15
1.08455e-15
1.86787e-15
9.63075e-16
1.77722e-15
8.4816e-16
1.69458e-15
7.39151e-16
1.61988e-15
6.35394e-16
1.55302e-15
5.36236e-16
1.49395e-15
4.41018e-16
1.4426e-15
3.49079e-16
1.39892e-15
2.5976e-16
1.36275e-15
1.72421e-16
1.33363e-15
8.64594e-17
1.31122e-15
1.30329e-15
4.06371e-09
2.76534e-07
-1.38192e-08
2.40703e-07
-5.52186e-08
1.99807e-07
-6.61855e-08
1.3418e-07
-8.24223e-08
9.98055e-08
-9.14705e-08
6.68587e-08
-1.09839e-07
2.37686e-09
-1.07381e-07
-8.2797e-08
-1.19352e-07
-5.67257e-08
-1.09071e-07
-1.65386e-07
-9.51292e-08
-1.72971e-07
-8.50057e-08
-1.93633e-07
-5.02938e-08
-1.90728e-07
7.27041e-13
-1.58348e-07
3.34582e-14
5.01136e-14
3.45783e-14
4.24104e-14
3.48788e-14
3.99622e-14
3.46459e-14
3.79674e-14
3.41144e-14
3.60388e-14
3.33821e-14
3.41623e-14
3.25011e-14
3.23435e-14
3.15097e-14
3.05911e-14
3.04396e-14
2.89145e-14
2.93174e-14
2.73213e-14
2.81645e-14
2.58158e-14
2.6998e-14
2.43992e-14
2.58314e-14
2.30701e-14
2.4675e-14
2.18251e-14
2.35365e-14
2.06598e-14
2.24219e-14
1.95691e-14
2.13353e-14
1.85476e-14
2.02797e-14
1.759e-14
1.92573e-14
1.66913e-14
1.82692e-14
1.58467e-14
1.73164e-14
1.50516e-14
1.63991e-14
1.43021e-14
1.55172e-14
1.35943e-14
1.46707e-14
1.2925e-14
1.38589e-14
1.22911e-14
1.30813e-14
1.16899e-14
1.23373e-14
1.1119e-14
1.16259e-14
1.05761e-14
1.09464e-14
1.00595e-14
1.02979e-14
9.56719e-15
9.67948e-15
9.09778e-15
9.09021e-15
8.64985e-15
8.52915e-15
8.22214e-15
7.99538e-15
7.81355e-15
7.48795e-15
7.42306e-15
7.00595e-15
7.04977e-15
6.54845e-15
6.69286e-15
6.11457e-15
6.3516e-15
5.70339e-15
6.02531e-15
5.31406e-15
5.71339e-15
4.94571e-15
5.41528e-15
4.59749e-15
5.13047e-15
4.26858e-15
4.8585e-15
3.95817e-15
4.59895e-15
3.66545e-15
4.35143e-15
3.38966e-15
4.11558e-15
3.13001e-15
3.89107e-15
2.88576e-15
3.67759e-15
2.65616e-15
3.47488e-15
2.44049e-15
3.28267e-15
2.23802e-15
3.10073e-15
2.04805e-15
2.92883e-15
1.86989e-15
2.76677e-15
1.70284e-15
2.61437e-15
1.54622e-15
2.47144e-15
1.39936e-15
2.33783e-15
1.26159e-15
2.21339e-15
1.13225e-15
2.09797e-15
1.01069e-15
1.99146e-15
8.96249e-16
1.89372e-15
7.88287e-16
1.80466e-15
6.86155e-16
1.72417e-15
5.89208e-16
1.65217e-15
4.96802e-16
1.58859e-15
4.08284e-16
1.53339e-15
3.22989e-16
1.48652e-15
2.4023e-16
1.44784e-15
1.59401e-16
1.41681e-15
8.00952e-17
1.39289e-15
1.38459e-15
-1.29191e-08
2.89451e-07
-1.91311e-08
2.46911e-07
-3.56601e-08
2.16334e-07
-6.27746e-08
1.61292e-07
-7.36959e-08
1.10723e-07
-8.19271e-08
7.50871e-08
-1.06973e-07
2.74203e-08
-9.4814e-08
-9.49589e-08
-7.31867e-08
-7.83559e-08
-7.04373e-08
-1.68138e-07
-5.68789e-08
-1.86533e-07
-4.9959e-08
-2.00555e-07
-3.25512e-08
-2.08138e-07
1.20754e-12
-1.90903e-07
2.67316e-14
1.65266e-13
3.24432e-14
3.66962e-14
3.31293e-14
3.92719e-14
3.29486e-14
3.8143e-14
3.24608e-14
3.65207e-14
3.17792e-14
3.48376e-14
3.09575e-14
3.31585e-14
3.00343e-14
3.15072e-14
2.90394e-14
2.9902e-14
2.79961e-14
2.83569e-14
2.6923e-14
2.68812e-14
2.58348e-14
2.54796e-14
2.47434e-14
2.41539e-14
2.3658e-14
2.2903e-14
2.2586e-14
2.17247e-14
2.15328e-14
2.06153e-14
2.05028e-14
1.9571e-14
1.94992e-14
1.85875e-14
1.85244e-14
1.76605e-14
1.758e-14
1.67859e-14
1.66671e-14
1.59598e-14
1.57864e-14
1.51786e-14
1.49382e-14
1.44388e-14
1.41225e-14
1.37374e-14
1.33393e-14
1.30716e-14
1.25881e-14
1.24388e-14
1.18686e-14
1.18368e-14
1.118e-14
1.12634e-14
1.05217e-14
1.07167e-14
9.89315e-15
1.01952e-14
9.29342e-15
9.69723e-15
8.72177e-15
9.22152e-15
8.17736e-15
8.76683e-15
7.65936e-15
8.33205e-15
7.16692e-15
7.91619e-15
6.69921e-15
7.51836e-15
6.25536e-15
7.13773e-15
5.83453e-15
6.77356e-15
5.4359e-15
6.42518e-15
5.05862e-15
6.09198e-15
4.70189e-15
5.7734e-15
4.36489e-15
5.4689e-15
4.04683e-15
5.17804e-15
3.74693e-15
4.90036e-15
3.46442e-15
4.63548e-15
3.19855e-15
4.38302e-15
2.94856e-15
4.14265e-15
2.71372e-15
3.91405e-15
2.49332e-15
3.69694e-15
2.28663e-15
3.49104e-15
2.09296e-15
3.29611e-15
1.91161e-15
3.11192e-15
1.7419e-15
2.93826e-15
1.58315e-15
2.77493e-15
1.4347e-15
2.62176e-15
1.29587e-15
2.47857e-15
1.16601e-15
2.3452e-15
1.04448e-15
2.22152e-15
9.30615e-16
2.10738e-15
8.23782e-16
2.00267e-15
7.23338e-16
1.90726e-15
6.28648e-16
1.82107e-15
5.39076e-16
1.744e-15
4.5399e-16
1.67597e-15
3.72754e-16
1.61695e-15
2.94709e-16
1.56693e-15
2.19139e-16
1.5258e-15
1.45414e-16
1.49294e-15
7.29615e-17
1.46776e-15
1.45879e-15
-2.02195e-08
3.0967e-07
-3.01117e-08
2.56801e-07
-3.80385e-08
2.24256e-07
-5.43217e-08
1.77572e-07
-5.99258e-08
1.16325e-07
-5.89024e-08
7.40604e-08
-6.24324e-08
3.09473e-08
-7.58811e-08
-8.15132e-08
-5.99838e-08
-9.42564e-08
-7.17483e-08
-1.56376e-07
-5.99431e-08
-1.9834e-07
-3.81079e-08
-2.22394e-07
-1.98965e-08
-2.26352e-07
1.22396e-12
-2.10803e-07
5.19558e-14
2.31237e-13
3.47126e-14
5.39368e-14
3.21339e-14
4.18461e-14
3.15159e-14
3.87553e-14
3.09743e-14
3.70563e-14
3.02973e-14
3.55082e-14
2.95018e-14
3.3947e-14
2.86212e-14
3.23804e-14
2.76812e-14
3.08343e-14
2.67008e-14
2.93293e-14
2.56947e-14
2.78791e-14
2.46748e-14
2.64914e-14
2.36505e-14
2.517e-14
2.26299e-14
2.39158e-14
2.16193e-14
2.27277e-14
2.06238e-14
2.16035e-14
1.96477e-14
2.05402e-14
1.8694e-14
1.95346e-14
1.77654e-14
1.8583e-14
1.68636e-14
1.76821e-14
1.59901e-14
1.68283e-14
1.51457e-14
1.60184e-14
1.4331e-14
1.52494e-14
1.35465e-14
1.45185e-14
1.2792e-14
1.38231e-14
1.20677e-14
1.31608e-14
1.1373e-14
1.25294e-14
1.07078e-14
1.19271e-14
1.00714e-14
1.13519e-14
9.46335e-15
1.08025e-14
8.88299e-15
1.02772e-14
8.32964e-15
9.77478e-15
7.80258e-15
9.29407e-15
7.30107e-15
8.83398e-15
6.82435e-15
8.39355e-15
6.37164e-15
7.97189e-15