/*--------------------------------*- C++ -*----------------------------------*\
  =========                 |
  \\      /  F ield         | OpenFOAM: The Open Source CFD Toolbox
   \\    /   O peration     | Website:  https://openfoam.org
    \\  /    A nd           | Version:  6
     \\/     M anipulation  |
\*---------------------------------------------------------------------------*/
FoamFile
{
    version     2.0;
    format      ascii;
    class       volVectorField;
    location    "330";
    object      U;
}
// * * * * * * * * * * * * * * * * * * * * * * * * * * * * * * * * * * * * * //

dimensions      [0 1 -1 0 0 0 0];

internalField   nonuniform List<vector> 
5964
(
(-0.000549828 0 -0.00413298)
(-0.00270815 0 -0.00094729)
(-0.00335253 0 0.000141374)
(-0.00345056 0 -0.000494022)
(-0.00323903 0 -0.000784596)
(-0.00322682 0 -6.80668e-05)
(-0.00262877 0 -0.000677529)
(-0.00207738 0 -0.000710309)
(-0.00208898 0 -5.03044e-05)
(-0.00153005 0 -0.000786332)
(-0.00103321 0 -0.00059624)
(-0.000627545 0 -0.000669087)
(1.42839e-05 0 -0.000656119)
(2.83252e-08 0 3.88853e-06)
(2.98575e-09 0 1.14231e-09)
(5.3808e-09 0 5.53182e-10)
(4.43842e-09 0 3.30244e-10)
(3.84309e-09 0 2.27774e-10)
(3.41663e-09 0 1.71913e-10)
(3.0867e-09 0 1.37273e-10)
(2.81876e-09 0 1.1379e-10)
(2.5939e-09 0 9.68724e-11)
(2.40066e-09 0 8.41465e-11)
(2.23154e-09 0 7.42541e-11)
(2.0814e-09 0 6.63582e-11)
(1.94655e-09 0 5.99144e-11)
(1.82429e-09 0 5.45542e-11)
(1.71259e-09 0 5.00206e-11)
(1.60988e-09 0 4.61296e-11)
(1.51493e-09 0 4.27471e-11)
(1.42678e-09 0 3.97731e-11)
(1.34462e-09 0 3.71323e-11)
(1.2678e-09 0 3.47666e-11)
(1.19581e-09 0 3.26309e-11)
(1.12817e-09 0 3.06897e-11)
(1.0645e-09 0 2.89144e-11)
(1.00449e-09 0 2.72822e-11)
(9.4783e-10 0 2.57743e-11)
(8.94286e-10 0 2.43753e-11)
(8.43635e-10 0 2.30726e-11)
(7.95682e-10 0 2.18553e-11)
(7.50255e-10 0 2.07144e-11)
(7.07197e-10 0 1.96424e-11)
(6.66369e-10 0 1.86327e-11)
(6.27642e-10 0 1.76797e-11)
(5.90899e-10 0 1.67786e-11)
(5.56034e-10 0 1.59253e-11)
(5.22948e-10 0 1.5116e-11)
(4.91549e-10 0 1.43477e-11)
(4.61753e-10 0 1.36175e-11)
(4.3348e-10 0 1.29231e-11)
(4.06655e-10 0 1.22622e-11)
(3.81208e-10 0 1.16329e-11)
(3.57073e-10 0 1.10337e-11)
(3.34188e-10 0 1.04628e-11)
(3.12493e-10 0 9.91913e-12)
(2.91932e-10 0 9.40131e-12)
(2.72448e-10 0 8.90831e-12)
(2.53992e-10 0 8.43913e-12)
(2.36513e-10 0 7.9929e-12)
(2.19962e-10 0 7.56883e-12)
(2.04294e-10 0 7.16617e-12)
(1.89462e-10 0 6.78429e-12)
(1.75424e-10 0 6.42257e-12)
(1.62138e-10 0 6.08046e-12)
(1.49561e-10 0 5.75746e-12)
(1.37654e-10 0 5.45311e-12)
(1.26378e-10 0 5.16698e-12)
(1.15694e-10 0 4.89867e-12)
(1.05564e-10 0 4.6478e-12)
(9.59529e-11 0 4.41402e-12)
(8.68232e-11 0 4.19699e-12)
(7.814e-11 0 3.99637e-12)
(6.98688e-11 0 3.81183e-12)
(6.19756e-11 0 3.64302e-12)
(5.44273e-11 0 3.48954e-12)
(4.71918e-11 0 3.35086e-12)
(4.02382e-11 0 3.22622e-12)
(3.35377e-11 0 3.11451e-12)
(2.70641e-11 0 3.01432e-12)
(2.07939e-11 0 2.92454e-12)
(1.47036e-11 0 2.84627e-12)
(8.76136e-12 0 2.78627e-12)
(2.91118e-12 0 2.76034e-12)
(-0.00205601 0 0.00362966)
(-0.00253861 0 0.00202676)
(-0.00275514 0 0.000708626)
(-0.00265612 0 0.000207188)
(-0.00220983 0 -0.00125135)
(-0.00199046 0 -0.000570236)
(-0.00173578 0 0.00025166)
(-0.000811744 0 -0.000900655)
(-0.000734571 0 -0.000432543)
(-0.000838563 0 6.42407e-05)
(-0.000210137 0 -0.000621243)
(-6.77028e-05 0 -0.000537328)
(2.2068e-05 0 -0.000562353)
(-4.2261e-08 0 8.06124e-06)
(2.43257e-09 0 2.29498e-09)
(4.61814e-09 0 1.33754e-09)
(4.13222e-09 0 8.84705e-10)
(3.69372e-09 0 6.42219e-10)
(3.33103e-09 0 4.96958e-10)
(3.0316e-09 0 4.01886e-10)
(2.78042e-09 0 3.35477e-10)
(2.56578e-09 0 2.86817e-10)
(2.37924e-09 0 2.49838e-10)
(2.21475e-09 0 2.20903e-10)
(2.06793e-09 0 1.977e-10)
(1.93554e-09 0 1.787e-10)
(1.81515e-09 0 1.62852e-10)
(1.70488e-09 0 1.4942e-10)
(1.6033e-09 0 1.37873e-10)
(1.50926e-09 0 1.2782e-10)
(1.42183e-09 0 1.18972e-10)
(1.34027e-09 0 1.11108e-10)
(1.26395e-09 0 1.04058e-10)
(1.19236e-09 0 9.76888e-11)
(1.12507e-09 0 9.18963e-11)
(1.0617e-09 0 8.65965e-11)
(1.00194e-09 0 8.17216e-11)
(9.455e-10 0 7.72165e-11)
(8.92147e-10 0 7.30354e-11)
(8.41663e-10 0 6.91405e-11)
(7.93859e-10 0 6.55001e-11)
(7.48563e-10 0 6.20875e-11)
(7.05623e-10 0 5.88799e-11)
(6.64901e-10 0 5.58581e-11)
(6.2627e-10 0 5.30053e-11)
(5.89616e-10 0 5.03074e-11)
(5.54831e-10 0 4.77519e-11)
(5.2182e-10 0 4.5328e-11)
(4.9049e-10 0 4.30263e-11)
(4.60759e-10 0 4.08387e-11)
(4.32546e-10 0 3.87577e-11)
(4.05778e-10 0 3.67771e-11)
(3.80385e-10 0 3.48912e-11)
(3.56302e-10 0 3.30949e-11)
(3.33466e-10 0 3.13837e-11)
(3.11817e-10 0 2.97537e-11)
(2.913e-10 0 2.82012e-11)
(2.7186e-10 0 2.67231e-11)
(2.53445e-10 0 2.53164e-11)
(2.36006e-10 0 2.39784e-11)
(2.19494e-10 0 2.27069e-11)
(2.03863e-10 0 2.14996e-11)
(1.89068e-10 0 2.03546e-11)
(1.75066e-10 0 1.92701e-11)
(1.61814e-10 0 1.82444e-11)
(1.49271e-10 0 1.72761e-11)
(1.37398e-10 0 1.63637e-11)
(1.26154e-10 0 1.55059e-11)
(1.15502e-10 0 1.47016e-11)
(1.05404e-10 0 1.39497e-11)
(9.58229e-11 0 1.3249e-11)
(8.67236e-11 0 1.25986e-11)
(7.80703e-11 0 1.19974e-11)
(6.98285e-11 0 1.14444e-11)
(6.1964e-11 0 1.09387e-11)
(5.44438e-11 0 1.0479e-11)
(4.72353e-11 0 1.00638e-11)
(4.0307e-11 0 9.69122e-12)
(3.36287e-11 0 9.35831e-12)
(2.71714e-11 0 9.06149e-12)
(2.09076e-11 0 8.79796e-12)
(1.481e-11 0 8.5705e-12)
(8.84754e-12 0 8.39537e-12)
(2.94792e-12 0 8.30898e-12)
(-0.00168153 0 0.00392358)
(-0.00169741 0 0.00208512)
(-0.00183783 0 0.000812245)
(-0.00191884 0 6.457e-05)
(-0.00175568 0 -0.00018128)
(-0.00105194 0 -0.00154277)
(-0.00104556 0 -0.000962164)
(5.43732e-05 0 -0.00154735)
(2.20812e-05 0 -0.000612377)
(0.000128084 0 -0.000322661)
(0.000748285 0 -0.000428338)
(0.000740175 0 -0.00056009)
(0.00078178 0 -0.000530916)
(7.68841e-07 0 1.89394e-05)
(2.08493e-09 0 2.29136e-09)
(4.05591e-09 0 1.67811e-09)
(3.7843e-09 0 1.25405e-09)
(3.47772e-09 0 9.71003e-10)
(3.18981e-09 0 7.77693e-10)
(2.93411e-09 0 6.41127e-10)
(2.70997e-09 0 5.41394e-10)
(2.51296e-09 0 4.66336e-10)
(2.33844e-09 0 4.08315e-10)
(2.18245e-09 0 3.62378e-10)
(2.0418e-09 0 3.25226e-10)
(1.91401e-09 0 2.94602e-10)
(1.79711e-09 0 2.68927e-10)
(1.68956e-09 0 2.47075e-10)
(1.59012e-09 0 2.28225e-10)
(1.49779e-09 0 2.11769e-10)
(1.41175e-09 0 1.97251e-10)
(1.33132e-09 0 1.84322e-10)
(1.25595e-09 0 1.72712e-10)
(1.18516e-09 0 1.62209e-10)
(1.11854e-09 0 1.52646e-10)
(1.05575e-09 0 1.43888e-10)
(9.96485e-10 0 1.35824e-10)
(9.4048e-10 0 1.28367e-10)
(8.87505e-10 0 1.21441e-10)
(8.37355e-10 0 1.14986e-10)
(7.89846e-10 0 1.08949e-10)
(7.44815e-10 0 1.03287e-10)
(7.02114e-10 0 9.79628e-11)
(6.61607e-10 0 9.29451e-11)
(6.23172e-10 0 8.82067e-11)
(5.86697e-10 0 8.37239e-11)
(5.52079e-10 0 7.94766e-11)
(5.1922e-10 0 7.5447e-11)
(4.88033e-10 0 7.16197e-11)
(4.58434e-10 0 6.79812e-11)
(4.30346e-10 0 6.45196e-11)
(4.03696e-10 0 6.12243e-11)
(3.78414e-10 0 5.80861e-11)
(3.54436e-10 0 5.50967e-11)
(3.31701e-10 0 5.22486e-11)
(3.10148e-10 0 4.95354e-11)
(2.89723e-10 0 4.6951e-11)
(2.70371e-10 0 4.44902e-11)
(2.52041e-10 0 4.21481e-11)
(2.34684e-10 0 3.99205e-11)
(2.18252e-10 0 3.78034e-11)
(2.02698e-10 0 3.57932e-11)
(1.87978e-10 0 3.38867e-11)
(1.74048e-10 0 3.20808e-11)
(1.60868e-10 0 3.0373e-11)
(1.48394e-10 0 2.87606e-11)
(1.36589e-10 0 2.72414e-11)
(1.25411e-10 0 2.58132e-11)
(1.14824e-10 0 2.44741e-11)
(1.0479e-10 0 2.32222e-11)
(9.52716e-11 0 2.20557e-11)
(8.62338e-11 0 2.09729e-11)
(7.76408e-11 0 1.99722e-11)
(6.94581e-11 0 1.9052e-11)
(6.16516e-11 0 1.82105e-11)
(5.41878e-11 0 1.7446e-11)
(4.70339e-11 0 1.67562e-11)
(4.01576e-11 0 1.61383e-11)
(3.35272e-11 0 1.55885e-11)
(2.71121e-11 0 1.51021e-11)
(2.08822e-11 0 1.46751e-11)
(1.48078e-11 0 1.43111e-11)
(8.85736e-12 0 1.40309e-11)
(2.95445e-12 0 1.38912e-11)
(-0.00143438 0 0.00458531)
(-0.0012225 0 0.00251845)
(-0.0014861 0 0.000908314)
(-0.00146378 0 -0.000105421)
(-0.0013745 0 -0.00112632)
(-0.00118502 0 -0.00149267)
(-0.000925369 0 -0.00186026)
(-0.000810037 0 -0.00152321)
(0.000249475 0 -0.00114661)
(0.000513368 0 -0.000769904)
(0.000997258 0 -0.000301295)
(0.000907575 0 -0.000369423)
(0.000149213 0 -0.000242772)
(-8.38573e-06 0 0.000738914)
(1.85954e-09 0 2.28625e-09)
(3.64297e-09 0 1.85216e-09)
(3.4671e-09 0 1.49927e-09)
(3.24532e-09 0 1.22076e-09)
(3.02029e-09 0 1.00842e-09)
(2.80891e-09 0 8.47873e-10)
(2.61567e-09 0 7.25514e-10)
(2.44039e-09 0 6.30786e-10)
(2.28138e-09 0 5.56083e-10)
(2.13667e-09 0 4.96056e-10)
(2.00439e-09 0 4.46948e-10)
(1.88292e-09 0 4.06098e-10)
(1.77088e-09 0 3.71597e-10)
(1.66713e-09 0 3.42054e-10)
(1.57071e-09 0 3.16442e-10)
(1.48081e-09 0 2.93991e-10)
(1.39675e-09 0 2.74116e-10)
(1.31796e-09 0 2.56364e-10)
(1.24396e-09 0 2.40385e-10)
(1.17432e-09 0 2.259e-10)
(1.10868e-09 0 2.12688e-10)
(1.04673e-09 0 2.00569e-10)
(9.88186e-10 0 1.89397e-10)
(9.32815e-10 0 1.79053e-10)
(8.80397e-10 0 1.69437e-10)
(8.3074e-10 0 1.60467e-10)
(7.83671e-10 0 1.52071e-10)
(7.39034e-10 0 1.44192e-10)
(6.96687e-10 0 1.36779e-10)
(6.56503e-10 0 1.29789e-10)
(6.18362e-10 0 1.23185e-10)
(5.82156e-10 0 1.16935e-10)
(5.47786e-10 0 1.11011e-10)
(5.15158e-10 0 1.05388e-10)
(4.84185e-10 0 1.00047e-10)
(4.54786e-10 0 9.49675e-11)
(4.26886e-10 0 9.0134e-11)
(4.00413e-10 0 8.55318e-11)
(3.753e-10 0 8.11483e-11)
(3.51481e-10 0 7.69718e-11)
(3.28897e-10 0 7.29924e-11)
(3.0749e-10 0 6.92008e-11)
(2.87203e-10 0 6.5589e-11)
(2.67985e-10 0 6.21495e-11)
(2.49784e-10 0 5.88757e-11)
(2.32551e-10 0 5.57617e-11)
(2.16238e-10 0 5.28019e-11)
(2.00801e-10 0 4.99915e-11)
(1.86194e-10 0 4.73259e-11)
(1.72374e-10 0 4.4801e-11)
(1.59301e-10 0 4.2413e-11)
(1.46932e-10 0 4.01584e-11)
(1.35228e-10 0 3.80341e-11)
(1.24151e-10 0 3.60371e-11)
(1.13662e-10 0 3.41646e-11)
(1.03724e-10 0 3.2414e-11)
(9.42999e-11 0 3.0783e-11)
(8.53545e-11 0 2.92691e-11)
(7.68524e-11 0 2.78701e-11)
(6.87587e-11 0 2.65839e-11)
(6.10393e-11 0 2.54081e-11)
(5.36607e-11 0 2.43404e-11)
(4.65895e-11 0 2.33781e-11)
(3.97929e-11 0 2.25179e-11)
(3.32384e-11 0 2.17554e-11)
(2.68939e-11 0 2.10854e-11)
(2.07275e-11 0 2.05032e-11)
(1.47083e-11 0 2.00123e-11)
(8.80374e-12 0 1.96364e-11)
(2.93799e-12 0 1.94636e-11)
(-0.00128908 0 0.00547447)
(-0.000995957 0 0.00304023)
(-0.00145585 0 0.00117135)
(-0.00168646 0 -7.1336e-05)
(-0.00223495 0 -0.00104306)
(-0.00255789 0 -0.000941623)
(-0.00254401 0 -0.00109616)
(-0.00218368 0 -0.00142993)
(-0.0019521 0 -0.00178423)
(-0.000558918 0 -0.00236719)
(0.000688443 0 -0.00121283)
(0.000283957 0 -0.000642098)
(0.000431013 0 0.00174452)
(-3.51156e-06 0 0.000374356)
(1.67967e-09 0 2.02316e-09)
(3.31574e-09 0 1.95474e-09)
(3.19027e-09 0 1.67896e-09)
(3.01581e-09 0 1.41221e-09)
(2.83882e-09 0 1.19348e-09)
(2.66778e-09 0 1.02092e-09)
(2.50562e-09 0 8.85227e-10)
(2.35354e-09 0 7.77524e-10)
(2.21177e-09 0 6.90851e-10)
(2.07998e-09 0 6.20046e-10)
(1.95749e-09 0 5.6133e-10)
(1.84355e-09 0 5.11942e-10)
(1.73739e-09 0 4.69845e-10)
(1.63829e-09 0 4.33524e-10)
(1.54559e-09 0 4.01836e-10)
(1.45871e-09 0 3.73913e-10)
(1.37714e-09 0 3.49084e-10)
(1.30042e-09 0 3.26826e-10)
(1.22815e-09 0 3.06728e-10)
(1.15997e-09 0 2.8846e-10)
(1.09559e-09 0 2.7176e-10)
(1.03472e-09 0 2.56411e-10)
(9.77121e-10 0 2.42239e-10)
(9.22574e-10 0 2.29098e-10)
(8.70881e-10 0 2.16867e-10)
(8.21868e-10 0 2.05443e-10)
(7.75373e-10 0 1.94743e-10)
(7.31253e-10 0 1.84692e-10)
(6.89373e-10 0 1.75228e-10)
(6.49613e-10 0 1.66298e-10)
(6.1186e-10 0 1.57857e-10)
(5.76011e-10 0 1.49863e-10)
(5.4197e-10 0 1.42283e-10)
(5.09647e-10 0 1.35087e-10)
(4.78959e-10 0 1.28247e-10)
(4.49826e-10 0 1.21741e-10)
(4.22177e-10 0 1.15548e-10)
(3.95939e-10 0 1.0965e-10)
(3.71049e-10 0 1.04031e-10)
(3.47443e-10 0 9.86765e-11)
(3.25061e-10 0 9.35735e-11)
(3.03847e-10 0 8.87107e-11)
(2.83746e-10 0 8.40776e-11)
(2.64706e-10 0 7.96651e-11)
(2.46676e-10 0 7.54648e-11)
(2.29609e-10 0 7.1469e-11)
(2.13456e-10 0 6.76708e-11)
(1.98174e-10 0 6.4064e-11)
(1.83718e-10 0 6.06428e-11)
(1.70046e-10 0 5.7402e-11)
(1.57115e-10 0 5.43367e-11)
(1.44886e-10 0 5.14427e-11)
(1.33319e-10 0 4.87158e-11)
(1.22375e-10 0 4.61523e-11)
(1.12017e-10 0 4.37485e-11)
(1.02207e-10 0 4.15014e-11)
(9.29092e-11 0 3.94078e-11)
(8.40874e-11 0 3.74647e-11)
(7.57065e-11 0 3.56693e-11)
(6.77318e-11 0 3.4019e-11)
(6.01291e-11 0 3.25109e-11)
(5.28646e-11 0 3.11423e-11)
(4.59048e-11 0 2.99101e-11)
(3.92165e-11 0 2.88107e-11)
(3.27665e-11 0 2.78397e-11)
(2.65218e-11 0 2.69914e-11)
(2.04493e-11 0 2.62608e-11)
(1.45166e-11 0 2.56511e-11)
(8.69013e-12 0 2.5188e-11)
(2.89958e-12 0 2.49851e-11)
(-0.00096763 0 0.00644501)
(-0.000887503 0 0.00371831)
(-0.00160234 0 0.00195179)
(-0.00279437 0 0.000415637)
(-0.00302116 0 0.000245947)
(-0.00318626 0 -0.00137093)
(-0.00296101 0 -0.0021772)
(-0.00275946 0 -0.00255991)
(-0.00260849 0 -0.00271118)
(-0.00089327 0 -0.00241321)
(-0.00066884 0 -0.00151504)
(-0.000866673 0 -0.000582443)
(-0.000241274 0 3.12395e-05)
(-1.61132e-07 0 7.17705e-07)
(1.79948e-09 0 2.80506e-09)
(3.31784e-09 0 2.23934e-09)
(2.95647e-09 0 1.85049e-09)
(2.78856e-09 0 1.5613e-09)
(2.65215e-09 0 1.33781e-09)
(2.5189e-09 0 1.16144e-09)
(2.38672e-09 0 1.02022e-09)
(2.25763e-09 0 9.05666e-10)
(2.13343e-09 0 8.11572e-10)
(2.01512e-09 0 7.33315e-10)
(1.90309e-09 0 6.67429e-10)
(1.79735e-09 0 6.11302e-10)
(1.6977e-09 0 5.62952e-10)
(1.60383e-09 0 5.20864e-10)
(1.51537e-09 0 4.83875e-10)
(1.43198e-09 0 4.51076e-10)
(1.35329e-09 0 4.2176e-10)
(1.27899e-09 0 3.95365e-10)
(1.20876e-09 0 3.71441e-10)
(1.14232e-09 0 3.49628e-10)
(1.07944e-09 0 3.29632e-10)
(1.01986e-09 0 3.11212e-10)
(9.63396e-10 0 2.94171e-10)
(9.09843e-10 0 2.78341e-10)
(8.5903e-10 0 2.63585e-10)
(8.10799e-10 0 2.49786e-10)
(7.65006e-10 0 2.36845e-10)
(7.21517e-10 0 2.24678e-10)
(6.8021e-10 0 2.13211e-10)
(6.40971e-10 0 2.02382e-10)
(6.03696e-10 0 1.92138e-10)
(5.68286e-10 0 1.82432e-10)
(5.34652e-10 0 1.73223e-10)
(5.02706e-10 0 1.64476e-10)
(4.7237e-10 0 1.56158e-10)
(4.43568e-10 0 1.48244e-10)
(4.16229e-10 0 1.40707e-10)
(3.90285e-10 0 1.33527e-10)
(3.65673e-10 0 1.26685e-10)
(3.42331e-10 0 1.20163e-10)
(3.20201e-10 0 1.13947e-10)
(2.99228e-10 0 1.08021e-10)
(2.79358e-10 0 1.02375e-10)
(2.60539e-10 0 9.69969e-11)
(2.42724e-10 0 9.18765e-11)
(2.25863e-10 0 8.70049e-11)
(2.09911e-10 0 8.23737e-11)
(1.94823e-10 0 7.79754e-11)
(1.80555e-10 0 7.38031e-11)
(1.67066e-10 0 6.98505e-11)
(1.54314e-10 0 6.61119e-11)
(1.4226e-10 0 6.25819e-11)
(1.30863e-10 0 5.92556e-11)
(1.20087e-10 0 5.61285e-11)
(1.09892e-10 0 5.31964e-11)
(1.00242e-10 0 5.04554e-11)
(9.11017e-11 0 4.79016e-11)
(8.24344e-11 0 4.55318e-11)
(7.42052e-11 0 4.33424e-11)
(6.63796e-11 0 4.13304e-11)
(5.89232e-11 0 3.94925e-11)
(5.18021e-11 0 3.78256e-11)
(4.49828e-11 0 3.63263e-11)
(3.84317e-11 0 3.4991e-11)
(3.21152e-11 0 3.38152e-11)
(2.59996e-11 0 3.27934e-11)
(2.00509e-11 0 3.19202e-11)
(1.42361e-11 0 3.11983e-11)
(8.52253e-12 0 3.0654e-11)
(2.84353e-12 0 3.04186e-11)
(-0.00155073 0 0.00713151)
(-0.00124704 0 0.00424806)
(-0.00200967 0 0.00264198)
(-0.00352404 0 0.000829076)
(-0.00390853 0 -0.000204639)
(-0.00438489 0 -0.000790529)
(-0.00443102 0 -0.00155043)
(-0.00438994 0 -0.00227422)
(-0.00441935 0 -0.00234652)
(-0.00409193 0 -0.000587265)
(-0.00186031 0 -0.00128022)
(-0.000973694 0 0.000136979)
(-1.29693e-05 0 0.001512)
(4.94566e-10 0 2.25803e-09)
(1.63524e-09 0 3.24278e-09)
(2.41833e-09 0 2.36808e-09)
(2.55276e-09 0 1.93422e-09)
(2.5337e-09 0 1.6525e-09)
(2.46278e-09 0 1.44058e-09)
(2.36913e-09 0 1.27096e-09)
(2.26514e-09 0 1.13166e-09)
(2.15746e-09 0 1.01572e-09)
(2.04993e-09 0 9.18276e-10)
(1.94476e-09 0 8.35621e-10)
(1.84319e-09 0 7.64869e-10)
(1.74584e-09 0 7.03752e-10)
(1.65297e-09 0 6.50488e-10)
(1.56463e-09 0 6.03668e-10)
(1.48074e-09 0 5.6218e-10)
(1.40113e-09 0 5.25139e-10)
(1.32562e-09 0 4.91837e-10)
(1.254e-09 0 4.61704e-10)
(1.18605e-09 0 4.34278e-10)
(1.12159e-09 0 4.09183e-10)
(1.0604e-09 0 3.86107e-10)
(1.0023e-09 0 3.64795e-10)
(9.47133e-10 0 3.45032e-10)
(8.94724e-10 0 3.26638e-10)
(8.44928e-10 0 3.09462e-10)
(7.97606e-10 0 2.93376e-10)
(7.5263e-10 0 2.7827e-10)
(7.09879e-10 0 2.6405e-10)
(6.69242e-10 0 2.50635e-10)
(6.30616e-10 0 2.37956e-10)
(5.93902e-10 0 2.25951e-10)
(5.59011e-10 0 2.14568e-10)
(5.25857e-10 0 2.03762e-10)
(4.94358e-10 0 1.93491e-10)
(4.6444e-10 0 1.8372e-10)
(4.3603e-10 0 1.74417e-10)
(4.09059e-10 0 1.65556e-10)
(3.83464e-10 0 1.57111e-10)
(3.59183e-10 0 1.49061e-10)
(3.36155e-10 0 1.41385e-10)
(3.14326e-10 0 1.34067e-10)
(2.9364e-10 0 1.2709e-10)
(2.74046e-10 0 1.2044e-10)
(2.55493e-10 0 1.14105e-10)
(2.37933e-10 0 1.08072e-10)
(2.2132e-10 0 1.02332e-10)
(2.05607e-10 0 9.68742e-11)
(1.90751e-10 0 9.16904e-11)
(1.76709e-10 0 8.67725e-11)
(1.6344e-10 0 8.21131e-11)
(1.50902e-10 0 7.77057e-11)
(1.39057e-10 0 7.3544e-11)
(1.27864e-10 0 6.96222e-11)
(1.17288e-10 0 6.59352e-11)
(1.07289e-10 0 6.24781e-11)
(9.78318e-11 0 5.92463e-11)
(8.88799e-11 0 5.62355e-11)
(8.03981e-11 0 5.34418e-11)
(7.23511e-11 0 5.08612e-11)
(6.47046e-11 0 4.84903e-11)
(5.74242e-11 0 4.63253e-11)
(5.0476e-11 0 4.4363e-11)
(4.38264e-11 0 4.25996e-11)
(3.74417e-11 0 4.10317e-11)
(3.12879e-11 0 3.96549e-11)
(2.53306e-11 0 3.8464e-11)
(1.95352e-11 0 3.74536e-11)
(1.3869e-11 0 3.66239e-11)
(8.30492e-12 0 3.5998e-11)
(2.77272e-12 0 3.57339e-11)
(-0.000435919 0 0.0082794)
(-0.000594784 0 0.0053194)
(-0.00174277 0 0.00395846)
(-0.00403414 0 0.00198605)
(-0.00467195 0 0.00128696)
(-0.00504431 0 -0.000733091)
(-0.00501571 0 -0.00243911)
(-0.00519613 0 -0.00315919)
(-0.00458714 0 -0.00432989)
(-0.00398259 0 -0.00493468)
(-0.00173554 0 -0.00458898)
(-0.00177876 0 -0.0017205)
(-6.09124e-06 0 -0.000439333)
(6.50338e-10 0 2.29712e-09)
(1.61756e-09 0 2.32489e-09)
(2.08945e-09 0 2.10926e-09)
(2.2842e-09 0 1.88412e-09)
(2.32456e-09 0 1.68223e-09)
(2.29346e-09 0 1.50608e-09)
(2.22849e-09 0 1.35373e-09)
(2.14684e-09 0 1.22246e-09)
(2.05719e-09 0 1.10942e-09)
(1.96438e-09 0 1.01189e-09)
(1.87127e-09 0 9.27375e-10)
(1.77959e-09 0 8.53756e-10)
(1.6904e-09 0 7.89226e-10)
(1.60428e-09 0 7.32293e-10)
(1.52155e-09 0 6.81728e-10)
(1.44235e-09 0 6.36529e-10)
(1.3667e-09 0 5.95875e-10)
(1.29455e-09 0 5.59095e-10)
(1.2258e-09 0 5.25637e-10)
(1.16032e-09 0 4.95047e-10)
(1.09799e-09 0 4.66947e-10)
(1.03866e-09 0 4.41021e-10)
(9.82198e-10 0 4.17008e-10)
(9.28465e-10 0 3.94684e-10)
(8.77332e-10 0 3.73861e-10)
(8.28674e-10 0 3.54381e-10)
(7.82372e-10 0 3.36105e-10)
(7.38316e-10 0 3.18918e-10)
(6.96399e-10 0 3.02717e-10)
(6.56522e-10 0 2.87416e-10)
(6.18592e-10 0 2.7294e-10)
(5.82519e-10 0 2.59221e-10)
(5.4822e-10 0 2.46202e-10)
(5.15615e-10 0 2.33833e-10)
(4.84629e-10 0 2.2207e-10)
(4.5519e-10 0 2.10873e-10)
(4.27231e-10 0 2.00208e-10)
(4.00686e-10 0 1.90043e-10)
(3.75493e-10 0 1.80353e-10)
(3.51593e-10 0 1.71111e-10)
(3.2893e-10 0 1.62297e-10)
(3.07448e-10 0 1.5389e-10)
(2.87095e-10 0 1.45874e-10)
(2.67821e-10 0 1.38232e-10)
(2.49575e-10 0 1.30949e-10)
(2.32313e-10 0 1.24014e-10)
(2.15986e-10 0 1.17413e-10)
(2.00551e-10 0 1.11136e-10)
(1.85965e-10 0 1.05174e-10)
(1.72185e-10 0 9.95168e-11)
(1.59171e-10 0 9.41566e-11)
(1.46883e-10 0 8.90857e-11)
(1.35281e-10 0 8.42971e-11)
(1.24326e-10 0 7.97845e-11)
(1.13982e-10 0 7.55419e-11)
(1.04212e-10 0 7.15637e-11)
(9.49788e-11 0 6.78449e-11)
(8.6247e-11 0 6.43805e-11)
(7.79813e-11 0 6.11662e-11)
(7.0147e-11 0 5.81977e-11)
(6.27095e-11 0 5.54709e-11)
(5.56348e-11 0 5.29819e-11)
(4.88891e-11 0 5.07272e-11)
(4.24386e-11 0 4.87029e-11)
(3.62496e-11 0 4.69056e-11)
(3.02878e-11 0 4.53314e-11)
(2.45183e-11 0 4.3976e-11)
(1.89057e-11 0 4.28335e-11)
(1.34191e-11 0 4.18984e-11)
(8.04038e-12 0 4.11822e-11)
(2.68844e-12 0 4.09047e-11)
(-0.00157556 0 0.00877559)
(-0.002052 0 0.00579315)
(-0.00279511 0 0.00444926)
(-0.0034912 0 0.00360995)
(-0.00524996 0 0.0012518)
(-0.00570418 0 -0.000703613)
(-0.00633752 0 -0.00155985)
(-0.00654436 0 -0.00279458)
(-0.00641521 0 -0.00359986)
(-0.00611616 0 -0.00421542)
(-0.00387969 0 -0.00526639)
(-0.00209692 0 -0.00405753)
(5.49623e-06 0 -0.0025055)
(5.20165e-10 0 1.85428e-09)
(1.46024e-09 0 1.62239e-09)
(2.0044e-09 0 1.85898e-09)
(2.15149e-09 0 1.81359e-09)
(2.17838e-09 0 1.68931e-09)
(2.154e-09 0 1.5506e-09)
(2.10257e-09 0 1.41788e-09)
(2.03561e-09 0 1.29715e-09)
(1.95972e-09 0 1.18942e-09)
(1.8791e-09 0 1.09395e-09)
(1.79652e-09 0 1.00947e-09)
(1.71384e-09 0 9.34572e-10)
(1.63227e-09 0 8.6795e-10)
(1.55262e-09 0 8.08433e-10)
(1.47539e-09 0 7.55014e-10)
(1.40088e-09 0 7.06832e-10)
(1.32923e-09 0 6.63164e-10)
(1.26053e-09 0 6.23399e-10)
(1.19475e-09 0 5.87024e-10)
(1.13186e-09 0 5.53606e-10)
(1.07178e-09 0 5.22783e-10)
(1.01443e-09 0 4.94244e-10)
(9.5972e-10 0 4.67728e-10)
(9.07538e-10 0 4.43011e-10)
(8.57788e-10 0 4.19903e-10)
(8.10369e-10 0 3.98239e-10)
(7.65185e-10 0 3.77879e-10)
(7.2214e-10 0 3.58699e-10)
(6.81143e-10 0 3.40596e-10)
(6.42108e-10 0 3.23476e-10)
(6.0495e-10 0 3.07261e-10)
(5.69589e-10 0 2.91878e-10)
(5.3595e-10 0 2.77268e-10)
(5.0396e-10 0 2.63377e-10)
(4.73548e-10 0 2.50156e-10)
(4.44647e-10 0 2.37563e-10)
(4.17194e-10 0 2.25561e-10)
(3.91128e-10 0 2.14118e-10)
(3.66389e-10 0 2.03202e-10)
(3.42921e-10 0 1.92789e-10)
(3.20669e-10 0 1.82853e-10)
(2.9958e-10 0 1.73374e-10)
(2.79604e-10 0 1.64332e-10)
(2.60692e-10 0 1.5571e-10)
(2.42796e-10 0 1.47492e-10)
(2.2587e-10 0 1.39664e-10)
(2.09869e-10 0 1.32212e-10)
(1.9475e-10 0 1.25125e-10)
(1.80471e-10 0 1.18392e-10)
(1.6699e-10 0 1.12003e-10)
(1.54266e-10 0 1.05948e-10)
(1.42262e-10 0 1.0022e-10)
(1.30936e-10 0 9.48099e-11)
(1.20253e-10 0 8.97116e-11)
(1.10175e-10 0 8.49182e-11)
(1.00665e-10 0 8.04234e-11)
(9.16871e-11 0 7.62217e-11)
(8.32063e-11 0 7.23077e-11)
(7.51874e-11 0 6.86766e-11)
(6.75959e-11 0 6.53236e-11)
(6.03975e-11 0 6.22443e-11)
(5.35582e-11 0 5.94347e-11)
(4.70444e-11 0 5.68908e-11)
(4.08224e-11 0 5.46089e-11)
(3.48585e-11 0 5.25854e-11)
(2.91184e-11 0 5.08173e-11)
(2.35672e-11 0 4.93011e-11)
(1.81697e-11 0 4.80303e-11)
(1.28964e-11 0 4.69908e-11)
(7.72933e-12 0 4.61797e-11)
(2.58545e-12 0 4.59009e-11)
(-0.00104997 0 0.00993317)
(-0.00130873 0 0.00694867)
(-0.00319595 0 0.00511738)
(-0.00493766 0 0.00350872)
(-0.004601 0 0.00330093)
(-0.00627661 0 -0.000289197)
(-0.00673214 0 -0.000953119)
(-0.00660129 0 -0.00348978)
(-0.00659417 0 -0.00450944)
(-0.00617528 0 -0.0055911)
(-0.00540828 0 -0.00603947)
(-0.00235627 0 -0.00601979)
(0.000141812 0 -0.00353526)
(2.21292e-07 0 9.47356e-06)
(1.19157e-09 0 1.72832e-09)
(2.26832e-09 0 1.85671e-09)
(2.12454e-09 0 1.81243e-09)
(2.07737e-09 0 1.70906e-09)
(2.03839e-09 0 1.58981e-09)
(1.99036e-09 0 1.47145e-09)
(1.93224e-09 0 1.36034e-09)
(1.86642e-09 0 1.25854e-09)
(1.79557e-09 0 1.16628e-09)
(1.72189e-09 0 1.08305e-09)
(1.64712e-09 0 1.00803e-09)
(1.57248e-09 0 9.40351e-10)
(1.49886e-09 0 8.79147e-10)
(1.42687e-09 0 8.23636e-10)
(1.3569e-09 0 7.73118e-10)
(1.28921e-09 0 7.2698e-10)
(1.22395e-09 0 6.84688e-10)
(1.16119e-09 0 6.45782e-10)
(1.10095e-09 0 6.09865e-10)
(1.0432e-09 0 5.76594e-10)
(9.87921e-10 0 5.45676e-10)
(9.35042e-10 0 5.16858e-10)
(8.84499e-10 0 4.89919e-10)
(8.36218e-10 0 4.64671e-10)
(7.90124e-10 0 4.4095e-10)
(7.46138e-10 0 4.18614e-10)
(7.04182e-10 0 3.97537e-10)
(6.64181e-10 0 3.77612e-10)
(6.26058e-10 0 3.58745e-10)
(5.89741e-10 0 3.40852e-10)
(5.55159e-10 0 3.23861e-10)
(5.22243e-10 0 3.07707e-10)
(4.90927e-10 0 2.92335e-10)
(4.61146e-10 0 2.77693e-10)
(4.32839e-10 0 2.63737e-10)
(4.05946e-10 0 2.50429e-10)
(3.80409e-10 0 2.37732e-10)
(3.56173e-10 0 2.25615e-10)
(3.33183e-10 0 2.1405e-10)
(3.11388e-10 0 2.03012e-10)
(2.90736e-10 0 1.92477e-10)
(2.7118e-10 0 1.82425e-10)
(2.52672e-10 0 1.72836e-10)
(2.35165e-10 0 1.63695e-10)
(2.18615e-10 0 1.54986e-10)
(2.02979e-10 0 1.46693e-10)
(1.88213e-10 0 1.38805e-10)
(1.74277e-10 0 1.3131e-10)
(1.6113e-10 0 1.24197e-10)
(1.48732e-10 0 1.17455e-10)
(1.37044e-10 0 1.11076e-10)
(1.2603e-10 0 1.05051e-10)
(1.1565e-10 0 9.9373e-11)
(1.0587e-10 0 9.40341e-11)
(9.66516e-11 0 8.90277e-11)
(8.79607e-11 0 8.43478e-11)
(7.97617e-11 0 7.99886e-11)
(7.202e-11 0 7.59446e-11)
(6.47014e-11 0 7.2211e-11)
(5.77718e-11 0 6.8783e-11)
(5.11975e-11 0 6.56562e-11)
(4.49451e-11 0 6.28265e-11)
(3.89809e-11 0 6.02901e-11)
(3.32715e-11 0 5.80436e-11)
(2.77832e-11 0 5.60845e-11)
(2.24817e-11 0 5.44099e-11)
(1.73328e-11 0 5.30126e-11)
(1.23048e-11 0 5.18716e-11)
(7.37013e-12 0 5.09761e-11)
(2.46152e-12 0 5.06853e-11)
(-0.000602125 0 0.0110784)
(-0.000243903 0 0.00839812)
(-0.00157088 0 0.00745933)
(-0.00269845 0 0.00619016)
(-0.00591963 0 0.00208448)
(-0.00583877 0 0.00153587)
(-0.00681329 0 -0.000369741)
(-0.00621881 0 -0.00368992)
(-0.00702791 0 -0.00422655)
(-0.00601235 0 -0.00643286)
(-0.00649182 0 -0.00636258)
(-0.00555484 0 -0.006387)
(-0.00362788 0 -0.00344383)
(-0.000124429 0 0.000195466)
(1.1176e-09 0 2.2674e-09)
(2.08325e-09 0 2.00636e-09)
(2.01285e-09 0 1.86328e-09)
(1.96931e-09 0 1.74281e-09)
(1.93082e-09 0 1.62822e-09)
(1.88704e-09 0 1.51861e-09)
(1.83567e-09 0 1.4153e-09)
(1.77757e-09 0 1.3192e-09)
(1.71451e-09 0 1.2306e-09)
(1.64825e-09 0 1.14933e-09)
(1.58028e-09 0 1.07497e-09)
(1.5118e-09 0 1.00698e-09)
(1.44369e-09 0 9.44787e-10)
(1.37658e-09 0 8.87808e-10)
(1.31095e-09 0 8.35503e-10)
(1.24709e-09 0 7.87373e-10)
(1.18521e-09 0 7.42967e-10)
(1.12545e-09 0 7.01886e-10)
(1.06787e-09 0 6.63774e-10)
(1.01249e-09 0 6.28321e-10)
(9.59324e-10 0 5.95252e-10)
(9.08338e-10 0 5.64326e-10)
(8.59497e-10 0 5.35336e-10)
(8.12752e-10 0 5.08095e-10)
(7.68049e-10 0 4.82444e-10)
(7.25328e-10 0 4.58241e-10)
(6.84528e-10 0 4.35363e-10)
(6.45586e-10 0 4.13701e-10)
(6.08439e-10 0 3.9316e-10)
(5.73024e-10 0 3.73654e-10)
(5.39278e-10 0 3.55111e-10)
(5.07142e-10 0 3.37463e-10)
(4.76555e-10 0 3.20654e-10)
(4.47458e-10 0 3.0463e-10)
(4.19796e-10 0 2.89347e-10)
(3.93512e-10 0 2.74762e-10)
(3.68552e-10 0 2.6084e-10)
(3.44865e-10 0 2.47546e-10)
(3.22399e-10 0 2.34852e-10)
(3.01104e-10 0 2.22731e-10)
(2.80933e-10 0 2.11158e-10)
(2.61838e-10 0 2.00112e-10)
(2.43773e-10 0 1.89573e-10)
(2.26695e-10 0 1.79522e-10)
(2.1056e-10 0 1.69943e-10)
(1.95324e-10 0 1.60822e-10)
(1.80948e-10 0 1.52143e-10)
(1.67391e-10 0 1.43895e-10)
(1.54612e-10 0 1.36066e-10)
(1.42574e-10 0 1.28646e-10)
(1.31238e-10 0 1.21623e-10)
(1.20566e-10 0 1.1499e-10)
(1.10523e-10 0 1.08739e-10)
(1.01072e-10 0 1.0286e-10)
(9.21773e-11 0 9.73475e-11)
(8.38039e-11 0 9.21944e-11)
(7.59173e-11 0 8.73945e-11)
(6.8483e-11 0 8.29422e-11)
(6.14671e-11 0 7.88321e-11)
(5.4836e-11 0 7.50592e-11)
(4.85561e-11 0 7.16189e-11)
(4.25942e-11 0 6.85069e-11)
(3.69171e-11 0 6.57193e-11)
(3.14916e-11 0 6.32528e-11)
(2.62842e-11 0 6.11051e-11)
(2.12616e-11 0 5.92735e-11)
(1.63907e-11 0 5.77502e-11)
(1.16374e-11 0 5.65137e-11)
(6.96701e-12 0 5.55498e-11)
(2.32417e-12 0 5.52259e-11)
(-0.00165756 0 0.0116137)
(-0.00385105 0 0.00868364)
(-0.00657943 0 0.0061857)
(-0.00283081 0 0.00655245)
(-0.00539768 0 0.00347151)
(-0.00517006 0 0.00251593)
(-0.00583144 0 -0.00155882)
(-0.00508859 0 -0.00394975)
(-0.00738912 0 -0.0035373)
(-0.00534664 0 -0.00718471)
(-0.00596823 0 -0.00726735)
(-0.0049297 0 -0.00811319)
(-0.000622891 0 -0.0080968)
(-8.35231e-05 0 -0.00484003)
(9.80755e-10 0 2.29052e-09)
(1.89054e-09 0 2.05277e-09)
(1.87782e-09 0 1.89451e-09)
(1.85695e-09 0 1.77153e-09)
(1.82794e-09 0 1.66231e-09)
(1.79042e-09 0 1.56023e-09)
(1.74501e-09 0 1.46387e-09)
(1.69308e-09 0 1.3732e-09)
(1.63626e-09 0 1.28839e-09)
(1.57609e-09 0 1.20944e-09)
(1.51392e-09 0 1.13621e-09)
(1.45082e-09 0 1.06844e-09)
(1.38765e-09 0 1.00577e-09)
(1.32504e-09 0 9.47811e-10)
(1.26345e-09 0 8.94166e-10)
(1.20324e-09 0 8.44447e-10)
(1.14464e-09 0 7.98288e-10)
(1.08782e-09 0 7.5535e-10)
(1.03287e-09 0 7.15326e-10)
(9.79871e-10 0 6.77936e-10)
(9.28837e-10 0 6.4293e-10)
(8.79778e-10 0 6.10087e-10)
(8.3268e-10 0 5.79208e-10)
(7.87518e-10 0 5.50119e-10)
(7.44257e-10 0 5.22663e-10)
(7.02853e-10 0 4.96705e-10)
(6.63262e-10 0 4.72122e-10)
(6.25433e-10 0 4.48808e-10)
(5.89315e-10 0 4.26666e-10)
(5.54854e-10 0 4.05614e-10)
(5.21997e-10 0 3.85576e-10)
(4.90691e-10 0 3.66486e-10)
(4.60883e-10 0 3.48285e-10)
(4.32519e-10 0 3.30921e-10)
(4.05549e-10 0 3.14345e-10)
(3.7992e-10 0 2.98517e-10)
(3.55583e-10 0 2.83398e-10)
(3.32489e-10 0 2.68954e-10)
(3.10589e-10 0 2.55155e-10)
(2.89837e-10 0 2.41972e-10)
(2.70186e-10 0 2.2938e-10)
(2.51592e-10 0 2.17358e-10)
(2.3401e-10 0 2.05883e-10)
(2.17398e-10 0 1.94937e-10)
(2.01714e-10 0 1.84502e-10)
(1.86917e-10 0 1.74563e-10)
(1.72966e-10 0 1.65105e-10)
(1.59821e-10 0 1.56115e-10)
(1.47446e-10 0 1.4758e-10)
(1.358e-10 0 1.39489e-10)
(1.24848e-10 0 1.31831e-10)
(1.14553e-10 0 1.24597e-10)
(1.04877e-10 0 1.17779e-10)
(9.57872e-11 0 1.11367e-10)
(8.72468e-11 0 1.05354e-10)
(7.92217e-11 0 9.97329e-11)
(7.16776e-11 0 9.44975e-11)
(6.45805e-11 0 8.96416e-11)
(5.7897e-11 0 8.51593e-11)
(5.15937e-11 0 8.10456e-11)
(4.56374e-11 0 7.72956e-11)
(3.99952e-11 0 7.39048e-11)
(3.46342e-11 0 7.08693e-11)
(2.95214e-11 0 6.81859e-11)
(2.46237e-11 0 6.58523e-11)
(1.99079e-11 0 6.38657e-11)
(1.53408e-11 0 6.22182e-11)
(1.08896e-11 0 6.08889e-11)
(6.52295e-12 0 5.98622e-11)
(2.1785e-12 0 5.95024e-11)
(-0.00111987 0 0.0130786)
(0.000194508 0 0.0109724)
(-0.000613478 0 0.00910872)
(-0.00382013 0 0.00597392)
(-0.00393307 0 0.0043398)
(-0.00432166 0 0.00261306)
(-0.00456982 0 -0.00286891)
(-0.00434737 0 -0.00382592)
(-0.00734421 0 -0.00323444)
(-0.00469412 0 -0.00761303)
(-0.00550824 0 -0.00769677)
(-0.00443192 0 -0.00845448)
(-0.00235948 0 -0.00860174)
(-2.09357e-05 0 -0.00671705)
(8.39466e-10 0 2.3245e-09)
(1.71429e-09 0 2.03017e-09)
(1.75009e-09 0 1.89518e-09)
(1.7518e-09 0 1.78837e-09)
(1.73254e-09 0 1.6902e-09)
(1.7007e-09 0 1.59681e-09)
(1.66005e-09 0 1.50738e-09)
(1.61287e-09 0 1.42199e-09)
(1.56093e-09 0 1.34093e-09)
(1.50569e-09 0 1.26443e-09)
(1.44836e-09 0 1.19258e-09)
(1.38992e-09 0 1.12534e-09)
(1.33113e-09 0 1.06254e-09)
(1.2726e-09 0 1.00396e-09)
(1.21478e-09 0 9.49323e-10)
(1.15801e-09 0 8.98346e-10)
(1.10254e-09 0 8.5074e-10)
(1.04857e-09 0 8.06226e-10)
(9.96208e-10 0 7.6454e-10)
(9.45549e-10 0 7.25437e-10)
(8.96645e-10 0 6.88696e-10)
(8.49523e-10 0 6.54112e-10)
(8.0419e-10 0 6.21502e-10)
(7.6064e-10 0 5.90702e-10)
(7.18855e-10 0 5.61565e-10)
(6.78809e-10 0 5.33959e-10)
(6.40469e-10 0 5.07767e-10)
(6.03796e-10 0 4.82884e-10)
(5.68751e-10 0 4.59218e-10)
(5.3529e-10 0 4.36685e-10)
(5.03367e-10 0 4.15212e-10)
(4.72937e-10 0 3.94731e-10)