/*--------------------------------*- C++ -*----------------------------------*\
  =========                 |
  \\      /  F ield         | OpenFOAM: The Open Source CFD Toolbox
   \\    /   O peration     | Website:  https://openfoam.org
    \\  /    A nd           | Version:  6
     \\/     M anipulation  |
\*---------------------------------------------------------------------------*/
FoamFile
{
    version     2.0;
    format      ascii;
    class       volScalarField;
    location    "3650";
    object      dmdt;
}
// * * * * * * * * * * * * * * * * * * * * * * * * * * * * * * * * * * * * * //

dimensions      [0 0 0 0 0 0 0];

internalField   nonuniform List<scalar> 
4800
(
-0.217922
-0.212626
-0.207443
-0.202445
-0.197688
-0.193216
-0.189059
-0.185216
-0.181679
-0.178433
-0.175447
-0.17269
-0.170134
-0.167743
-0.165474
-0.163299
-0.1612
-0.159161
-0.157173
-0.155221
-0.153297
-0.1514
-0.149534
-0.147692
-0.145868
-0.144061
-0.142274
-0.14051
-0.138775
-0.137077
-0.135409
-0.133767
-0.132157
-0.130579
-0.129029
-0.127516
-0.126046
-0.12462
-0.123239
-0.121909
-0.120628
-0.119396
-0.11821
-0.117068
-0.115976
-0.114929
-0.113918
-0.112938
-0.111974
-0.111011
-0.11003
-0.109009
-0.107922
-0.106741
-0.105438
-0.10398
-0.102332
-0.10046
-0.0983311
-0.0959108
-0.0931775
-0.0901288
-0.0867892
-0.0832039
-0.0794363
-0.0755413
-0.0715567
-0.0675131
-0.0634359
-0.0593522
-0.0552913
-0.0512714
-0.0473015
-0.0433886
-0.0395366
-0.0357465
-0.0320181
-0.0283534
-0.0247593
-0.0212141
-0.0176664
-0.0141037
-0.0105585
-0.00703294
-0.00353112
-5.54505e-05
0.00339287
0.00681358
0.0102073
0.013575
0.0169181
0.0202382
0.0235368
0.0268155
0.030076
0.0333197
0.036548
0.0397623
0.0429638
0.0461538
0.0493332
0.0525032
0.0556647
0.0588185
0.0619655
0.0651064
0.0682419
0.0713727
0.0744994
0.0776225
0.0807424
0.0838596
0.0869746
0.0900876
0.093199
0.0963091
0.0994182
0.102527
0.105634
0.108742
-0.21794
-0.212676
-0.207522
-0.202548
-0.197817
-0.193378
-0.189245
-0.185422
-0.181897
-0.178655
-0.175665
-0.172895
-0.170321
-0.167903
-0.165606
-0.163406
-0.161282
-0.159215
-0.157192
-0.155209
-0.153261
-0.151342
-0.149451
-0.147583
-0.145735
-0.143907
-0.142101
-0.14032
-0.138568
-0.136853
-0.135173
-0.133522
-0.131901
-0.130311
-0.12875
-0.127226
-0.125743
-0.124305
-0.122913
-0.121572
-0.12028
-0.11904
-0.117853
-0.116709
-0.115617
-0.114574
-0.113568
-0.112594
-0.111641
-0.110689
-0.109722
-0.108716
-0.107644
-0.106478
-0.105187
-0.103742
-0.102106
-0.100249
-0.0981372
-0.0957377
-0.0930399
-0.0900287
-0.0867111
-0.0831315
-0.0793601
-0.0754679
-0.0714971
-0.0674677
-0.0634043
-0.0593358
-0.0552854
-0.0512718
-0.0473077
-0.0434007
-0.0395536
-0.0357665
-0.0320412
-0.0283846
-0.024787
-0.0212146
-0.0176396
-0.0140644
-0.0105148
-0.00698767
-0.00348584
-1.11677e-05
0.00343547
0.00685408
0.0102454
0.0136107
0.0169513
0.020269
0.0235653
0.0268419
0.0301004
0.0333422
0.0365688
0.0397815
0.0429816
0.0461702
0.0493484
0.0525171
0.0556775
0.0588303
0.0619762
0.0651162
0.0682509
0.0713809
0.0745067
0.077629
0.0807482
0.0838647
0.086979
0.0900914
0.0932022
0.0963117
0.0994202
0.102528
0.105635
0.108742
-0.217967
-0.212763
-0.207671
-0.202751
-0.198076
-0.193688
-0.189597
-0.185805
-0.182299
-0.179063
-0.176064
-0.173273
-0.170662
-0.168199
-0.165855
-0.163605
-0.161426
-0.1593
-0.157217
-0.155176
-0.153176
-0.151209
-0.149269
-0.147356
-0.145467
-0.1436
-0.141756
-0.139941
-0.138154
-0.136404
-0.134696
-0.13302
-0.131375
-0.129762
-0.128177
-0.126628
-0.125123
-0.123663
-0.122249
-0.12089
-0.119582
-0.118331
-0.117141
-0.115992
-0.1149
-0.113863
-0.112869
-0.111909
-0.110975
-0.110047
-0.109105
-0.108127
-0.107083
-0.105945
-0.104679
-0.10326
-0.101648
-0.0998169
-0.0977388
-0.0953721
-0.0927085
-0.0897417
-0.0864698
-0.0829279
-0.079186
-0.075316
-0.0713625
-0.0673542
-0.0633172
-0.059276
-0.0552491
-0.0512509
-0.0472954
-0.0433934
-0.0395486
-0.0357614
-0.0320324
-0.0283558
-0.024724
-0.0211308
-0.0175539
-0.0139768
-0.0104236
-0.00689491
-0.00339373
7.85587e-05
0.00352155
0.00693569
0.0103221
0.0136823
0.017018
0.0203308
0.0236225
0.0268948
0.0301493
0.0333874
0.0366105
0.0398201
0.0430172
0.046203
0.0493786
0.052545
0.0557031
0.0588538
0.0619978
0.0651359
0.0682688
0.0713971
0.0745214
0.0776421
0.0807599
0.083875
0.086988
0.0900991
0.0932086
0.0963169
0.0994242
0.102531
0.105637
0.108743
-0.217991
-0.212844
-0.20784
-0.20303
-0.198448
-0.194128
-0.19009
-0.186335
-0.182848
-0.17961
-0.176594
-0.173772
-0.171117
-0.168596
-0.166188
-0.163865
-0.161601
-0.159391
-0.157231
-0.155117
-0.153046
-0.151011
-0.149006
-0.147029
-0.14508
-0.143157
-0.141261
-0.139396
-0.13756
-0.13576
-0.134003
-0.132282
-0.130594
-0.128944
-0.127323
-0.125738
-0.1242
-0.122707
-0.121262
-0.119873
-0.118542
-0.117275
-0.116077
-0.114928
-0.113838
-0.112811
-0.111839
-0.110902
-0.109994
-0.109097
-0.10819
-0.107253
-0.106249
-0.10515
-0.103922
-0.102539
-0.100963
-0.099169
-0.0971334
-0.0948137
-0.0922004
-0.0892904
-0.0860864
-0.0826178
-0.0789322
-0.0750907
-0.0711536
-0.0671655
-0.0631565
-0.0591471
-0.055151
-0.0511804
-0.047246
-0.0433551
-0.0395137
-0.0357253
-0.0319913
-0.0283066
-0.0246585
-0.0210359
-0.0174324
-0.0138411
-0.0102819
-0.00675177
-0.00325245
0.000215447
0.00365228
0.00705919
0.0104379
0.0137902
0.0171181
0.0204235
0.0237082
0.026974
0.0302224
0.033455
0.036673
0.0398777
0.0430704
0.0462521
0.0494239
0.0525867
0.0557415
0.058889
0.0620301
0.0651654
0.0682956
0.0714214
0.0745433
0.0776618
0.0807773
0.0838904
0.0870013
0.0901105
0.0932182
0.0963247
0.0994302
0.102535
0.105639
0.108743
-0.218062
-0.213041
-0.20813
-0.203404
-0.198906
-0.194662
-0.190685
-0.186967
-0.183494
-0.180249
-0.177211
-0.174352
-0.171647
-0.169058
-0.166559
-0.164132
-0.161768
-0.159462
-0.157207
-0.155003
-0.152845
-0.150728
-0.148648
-0.146601
-0.144582
-0.142593
-0.140634
-0.138705
-0.136805
-0.13494
-0.133118
-0.131335
-0.129589
-0.127881
-0.126209
-0.124574
-0.122989
-0.121453
-0.119972
-0.11855
-0.11719
-0.115907
-0.114693
-0.113543
-0.112458
-0.11144
-0.110495
-0.109592
-0.108721
-0.107865
-0.107001
-0.10611
-0.105158
-0.104107
-0.102931
-0.101598
-0.100062
-0.0983101
-0.0963201
-0.0940579
-0.0915117
-0.0886798
-0.0855644
-0.082178
-0.0785534
-0.0747498
-0.0708393
-0.0668773
-0.0628983
-0.0589234
-0.0549659
-0.0510344
-0.0471347
-0.0432685
-0.0394375
-0.0356471
-0.0318983
-0.028186
-0.0245052
-0.0208589
-0.0172459
-0.0136478
-0.0100841
-0.00655391
-0.00305871
0.000401898
0.00382931
0.00722561
0.0105932
0.0139345
0.0172517
0.020547
0.0238223
0.0270793
0.0303196
0.0335447
0.0367558
0.0399542
0.043141
0.0463173
0.049484
0.052642
0.0557923
0.0589357
0.0620728
0.0652044
0.0683311
0.0714535
0.0745722
0.0776877
0.0808004
0.0839107
0.087019
0.0901256
0.0932308
0.0963349
0.0994381
0.102541
0.105643
0.108745
-0.218138
-0.21326
-0.208473
-0.20385
-0.199441
-0.195269
-0.191341
-0.187652
-0.184193
-0.180944
-0.177885
-0.174981
-0.17221
-0.169533
-0.166932
-0.164391
-0.161909
-0.159489
-0.157127
-0.15482
-0.152566
-0.15036
-0.148196
-0.146071
-0.143977
-0.141913
-0.139879
-0.137875
-0.1359
-0.133957
-0.132055
-0.130193
-0.128374
-0.126591
-0.124849
-0.123157
-0.121522
-0.11994
-0.118418
-0.116959
-0.115565
-0.11426
-0.113026
-0.111872
-0.110792
-0.109787
-0.108867
-0.108007
-0.107183
-0.106374
-0.105558
-0.10472
-0.103826
-0.10283
-0.101715
-0.10044
-0.0989597
-0.0972672
-0.0953404
-0.0931464
-0.090674
-0.0879195
-0.0848835
-0.0815723
-0.0780149
-0.0742671
-0.0704013
-0.0664759
-0.062531
-0.0585935
-0.0546793
-0.050796
-0.0469429
-0.0431148
-0.0393072
-0.0355193
-0.0317546
-0.028015
-0.0243018
-0.020629
-0.0170011
-0.0133924
-0.0098242
-0.00629614
-0.00280849
0.000640748
0.00405446
0.007436
0.0107886
0.0141153
0.0174187
0.0207011
0.0239644
0.0272104
0.0304405
0.0336562
0.0368588
0.0400492
0.0432287
0.0463981
0.0495585
0.0527106
0.0558554
0.0589935
0.0621257
0.0652527
0.068375
0.0714933
0.0746081
0.0777198
0.0808289
0.0839358
0.0870408
0.0901443
0.0932465
0.0963476
0.0994479
0.102548
0.105647
0.108746
-0.218206
-0.213463
-0.208806
-0.204295
-0.199976
-0.195879
-0.192009
-0.18836
-0.184918
-0.181666
-0.178582
-0.175628
-0.172781
-0.170008
-0.167294
-0.164629
-0.162017
-0.159466
-0.156981
-0.154562
-0.152204
-0.149905
-0.147653
-0.145445
-0.14327
-0.141122
-0.139
-0.136906
-0.134842
-0.132812
-0.130824
-0.128874
-0.126974
-0.125108
-0.123289
-0.12153
-0.119838
-0.118206
-0.116638
-0.115136
-0.113704
-0.112373
-0.11112
-0.109955
-0.108877
-0.107893
-0.106998
-0.106179
-0.105407
-0.10465
-0.103888
-0.103106
-0.10227
-0.101336
-0.100285
-0.0990767
-0.0976627
-0.0960331
-0.0941657
-0.0920416
-0.0896473
-0.0869751
-0.0840242
-0.080798
-0.0773217
-0.0736445
-0.0698355
-0.0659568
-0.0620527
-0.058155
-0.0542842
-0.0504484
-0.0466452
-0.0428635
-0.0390935
-0.0353281
-0.0315641
-0.0278062
-0.0240641
-0.0203542
-0.0166946
-0.0130671
-0.00949445
-0.00597209
-0.00249718
0.000934977
0.00432945
0.00769115
0.0110244
0.0143326
0.0176188
0.0208853
0.024134
0.0273667
0.0305846
0.0337891
0.0369814
0.0401623
0.043333
0.0464943
0.0496471
0.0527922
0.0559303
0.0590622
0.0621886
0.06531
0.0684272
0.0715405
0.0746506
0.0777579
0.0808628
0.0839656
0.0870667
0.0901664
0.093265
0.0963626
0.0994595
0.102556
0.105652
0.108748
-0.218271
-0.213658
-0.209128
-0.204737
-0.200528
-0.196517
-0.192702
-0.189086
-0.185658
-0.182404
-0.179293
-0.176285
-0.173356
-0.170476
-0.167633
-0.16483
-0.16208
-0.159393
-0.156777
-0.154234
-0.151764
-0.149363
-0.147019
-0.144722
-0.142458
-0.140217
-0.137997
-0.135802
-0.133638
-0.131511
-0.129433
-0.127393
-0.125412
-0.12347
-0.121575
-0.119748
-0.117994
-0.116305
-0.114683
-0.113133
-0.111656
-0.110294
-0.10902
-0.107841
-0.10676
-0.10579
-0.104924
-0.104145
-0.103426
-0.102725
-0.102018
-0.101292
-0.100513
-0.0996407
-0.0986551
-0.0975175
-0.0961773
-0.0946233
-0.0928284
-0.0907831
-0.0884719
-0.0858891
-0.08303
-0.0798954
-0.0765064
-0.0729068
-0.0691608
-0.0653308
-0.0614674
-0.0576085
-0.0537785
-0.0499878
-0.0462328
-0.0424974
-0.0387647
-0.0350221
-0.0312647
-0.027495
-0.0237236
-0.0199789
-0.0162963
-0.012656
-0.00908392
-0.00557417
-0.00212001
0.0012872
0.00465537
0.00799125
0.0113
0.0145857
0.0178513
0.0210989
0.0243305
0.0275476
0.0307513
0.0339428
0.0371231
0.040293
0.0434535
0.0466054
0.0497494
0.0528863
0.0560167
0.0591414
0.062261
0.0653761
0.0684872
0.0715949
0.0746995
0.0778017
0.0809017
0.0839998
0.0870965
0.0901919
0.0932862
0.0963798
0.0994728
0.102565
0.105657
0.10875
-0.218339
-0.213863
-0.209467
-0.205198
-0.20109
-0.197159
-0.193406
-0.189826
-0.186409
-0.183143
-0.179991
-0.176913
-0.173889
-0.170895
-0.167924
-0.164985
-0.162094
-0.159266
-0.156512
-0.153841
-0.151254
-0.148746
-0.146308
-0.143919
-0.141556
-0.139207
-0.136878
-0.134573
-0.132303
-0.130078
-0.127907
-0.125786
-0.123724
-0.121713
-0.119748
-0.117851
-0.116029
-0.11428
-0.1126
-0.110997
-0.109469
-0.108064
-0.106769
-0.105578
-0.104498
-0.103539
-0.102693
-0.101952
-0.101281
-0.100631
-0.0999787
-0.099302
-0.0985766
-0.0977652
-0.0968437
-0.095773
-0.0945122
-0.0930386
-0.0913244
-0.0893648
-0.0871463
-0.0846603
-0.0818993
-0.0788611
-0.0755652
-0.072053
-0.0683824
-0.0646113
-0.060794
-0.0569732
-0.0531795
-0.049426
-0.0457105
-0.0420135
-0.038312
-0.0345899
-0.030838
-0.0270597
-0.023271
-0.0195027
-0.0157988
-0.0121455
-0.00858049
-0.00509441
-0.00167285
0.00169881
0.00503206
0.00833533
0.0116144
0.0148734
0.0181148
0.0213409
0.024553
0.0277523
0.0309399
0.0341166
0.0372833
0.0404408
0.0435897
0.0467309
0.0498649
0.0529924
0.0561141
0.0592307
0.0623426
0.0654504
0.0685547
0.0716559
0.0747545
0.0778509
0.0809453
0.0840382
0.0871298
0.0902204
0.0933101
0.0963991
0.0994877
0.102576
0.105664
0.108752
-0.218414
-0.214081
-0.209818
-0.205669
-0.20166
-0.197806
-0.19411
-0.190568
-0.187162
-0.183876
-0.180671
-0.177515
-0.174387
-0.171272
-0.168168
-0.165091
-0.162059
-0.15909
-0.156197
-0.153393
-0.15068
-0.148053
-0.145501
-0.143005
-0.140539
-0.138082
-0.135642
-0.133229
-0.130859
-0.128545
-0.126291
-0.124096
-0.121956
-0.119873
-0.117846
-0.115885
-0.113997
-0.112182
-0.110437
-0.10878
-0.107207
-0.105747
-0.104418
-0.103215
-0.102137
-0.101187
-0.100358
-0.0996471
-0.0990162
-0.0984119
-0.0978073
-0.0971702
-0.0964922
-0.0957357
-0.0948701
-0.0938578
-0.0926659
-0.0912616
-0.0896307
-0.0877647
-0.0856476
-0.0832686
-0.0806188
-0.077694
-0.0745065
-0.0710882
-0.067501
-0.0638028
-0.0600439
-0.0562671
-0.0525048
-0.0487771
-0.0450883
-0.0414185
-0.0377409
-0.0340359
-0.0302936
-0.0265196
-0.0227271
-0.0189338
-0.0151925
-0.0115154
-0.00796857
-0.00452485
-0.0011536
0.00216871
0.0054571
0.00872074
0.0119651
0.0151935
0.0184079
0.0216098
0.0248002
0.0279798
0.0311495
0.0343098
0.0374614
0.040605
0.043741
0.0468701
0.049993
0.0531101
0.0562221
0.0593295
0.0624328
0.0655326
0.0686293
0.0717234
0.0748152
0.0779051
0.0809934
0.0840805
0.0871666
0.0902518
0.0933363
0.0964204
0.0995041
0.102588
0.105671
0.108754
-0.218483
-0.21429
-0.210164
-0.206136
-0.202227
-0.19845
-0.194809
-0.191296
-0.187894
-0.184579
-0.181308
-0.178066
-0.174833
-0.171595
-0.168358
-0.165142
-0.161972
-0.158863
-0.155832
-0.15289
-0.150043
-0.147286
-0.14461
-0.141998
-0.139421
-0.136854
-0.134308
-0.131795
-0.129331
-0.126934
-0.124607
-0.122343
-0.120138
-0.117991
-0.115902
-0.113878
-0.111928
-0.110052
-0.108249
-0.106532
-0.104923
-0.103427
-0.102062
-0.100834
-0.0997468
-0.0987983
-0.0979792
-0.0972842
-0.0966795
-0.0961083
-0.0955384
-0.0949354
-0.0942947
-0.0935807
-0.0927575
-0.0917988
-0.0906749
-0.0893461
-0.087795
-0.0860098
-0.083984
-0.08171
-0.0791778
-0.0763786
-0.0733216
-0.0700278
-0.0665427
-0.062921
-0.0592219
-0.0554922
-0.0517634
-0.0480537
-0.0443782
-0.0407223
-0.0370609
-0.0333678
-0.0296284
-0.0258449
-0.0220312
-0.0182081
-0.0144303
-0.0107241
-0.00722502
-0.00385915
-0.000564792
0.00269133
0.00592473
0.00914259
0.0123482
0.0155431
0.0187282
0.021904
0.0250708
0.0282291
0.0313792
0.0345216
0.0376567
0.0407848
0.0439067
0.0470226
0.0501331
0.0532387
0.0563399
0.0594373
0.0625312
0.0656221
0.0687105
0.0717967
0.0748811
0.077964
0.0810457
0.0841264
0.0872064
0.0902858
0.0933648
0.0964434
0.0995218
0.1026
0.105678
0.108756
-0.218555
-0.214505
-0.210513
-0.2066
-0.202789
-0.199086
-0.19549
-0.191997
-0.188589
-0.185232
-0.181892
-0.178554
-0.175204
-0.171838
-0.16847
-0.165125
-0.161821
-0.158578
-0.155408
-0.152325
-0.149335
-0.146438
-0.143626
-0.140889
-0.1382
-0.135531
-0.132891
-0.130294
-0.127749
-0.125276
-0.122877
-0.120548
-0.118283
-0.116081
-0.113943
-0.111867
-0.109863
-0.107931
-0.106075
-0.104309
-0.102655
-0.101128
-0.0997384
-0.0984922
-0.097394
-0.0964411
-0.0956218
-0.0949278
-0.0943293
-0.0937717
-0.0932189
-0.0926407
-0.0920235
-0.0913367
-0.0905451
-0.0896237
-0.0885393
-0.0872635
-0.0857862
-0.0840914
-0.0821677
-0.0800045
-0.0775908
-0.0749147
-0.0719798
-0.0688069
-0.0654451
-0.0619357
-0.0583159
-0.0546412
-0.0509543
-0.0472645
-0.0435992
-0.0399507
-0.036298
-0.0326128
-0.0288748
-0.0250801
-0.0212361
-0.0173569
-0.0134907
-0.00969149
-0.00631835
-0.00309918
8.10046e-05
0.0032538
0.0064248
0.00959351
0.0127585
0.0159187
0.0190732
0.0222215
0.0253635
0.028499
0.0316281
0.0347511
0.0378682
0.0409797
0.044086
0.0471875
0.0502845
0.0533776
0.0564671
0.0595535
0.0626371
0.0657184
0.0687977
0.0718754
0.0749518
0.0780271
0.0811017
0.0841756
0.087249
0.0903222
0.0933952
0.096468
0.0995408
0.102614
0.105686
0.108759
-0.218629
-0.214728
-0.210874
-0.207078
-0.203355
-0.199711
-0.196146
-0.192657
-0.189224
-0.185811
-0.182391
-0.178949
-0.175478
-0.171983
-0.16849
-0.165019
-0.161587
-0.158209
-0.1549
-0.151669
-0.148531
-0.14549
-0.142546
-0.139687
-0.136891
-0.134132
-0.131409
-0.128737
-0.126124
-0.123587
-0.121127
-0.118741
-0.116424
-0.114176
-0.111996
-0.10988
-0.107832
-0.105857
-0.103958
-0.102155
-0.100467
-0.0989128
-0.0975039
-0.096244
-0.0951367
-0.0941773
-0.0933496
-0.0926437
-0.0920318
-0.0914685
-0.0909135
-0.0903424
-0.0897298
-0.0890458
-0.0882663
-0.08737
-0.08632
-0.0850902
-0.0836728
-0.0820492
-0.0802111
-0.078151
-0.0758544
-0.073306
-0.0705042
-0.0674596
-0.0642042
-0.0607971
-0.057283
-0.0536922
-0.0500668
-0.0464138
-0.042763
-0.0391198
-0.0354712
-0.0317914
-0.0280573
-0.0242571
-0.020383
-0.0164155
-0.0123423
-0.0081804
-0.00521794
-0.00227545
0.00075148
0.00383326
0.00694262
0.0100643
0.0131903
0.0163164
0.0194403
0.0225607
0.0256769
0.0287884
0.0318953
0.0349976
0.0380953
0.0411888
0.0442783
0.0473641
0.0504466
0.0535261
0.0566029
0.0596774
0.0627499
0.0658209
0.0688905
0.0719591
0.0750269
0.0780941
0.0811609
0.0842276
0.0872941
0.0903607
0.0934273
0.096494
0.0995608
0.102628
0.105695
0.108762
-0.218702
-0.21494
-0.211211
-0.207522
-0.203878
-0.200285
-0.196746
-0.193248
-0.189769
-0.186283
-0.182769
-0.179213
-0.175618
-0.171999
-0.168373
-0.164771
-0.16121
-0.1577
-0.15425
-0.150875
-0.147593
-0.144417
-0.141351
-0.138383
-0.135488
-0.132649
-0.12986
-0.127131
-0.124464
-0.121874
-0.119365
-0.116933
-0.114578
-0.112296
-0.110086
-0.107945
-0.105873
-0.103874
-0.101954
-0.100132
-0.0984268
-0.096856
-0.0954335
-0.0941616
-0.0930415
-0.0920709
-0.0912304
-0.0905043
-0.089863
-0.089274
-0.0886991
-0.0881142
-0.0874885
-0.0867891
-0.0859986
-0.0850979
-0.0840551
-0.0828478
-0.0814704
-0.0799057
-0.0781443
-0.0761759
-0.0739862
-0.0715614
-0.0688958
-0.0660008
-0.0628964
-0.0596176
-0.0561997
-0.0526826
-0.0491147
-0.0455031
-0.0418735
-0.0382407
-0.0346003
-0.0309306
-0.0272092
-0.0234199
-0.0195395
-0.0154939
-0.0110685
-0.0033749
-0.00403087
-0.00150505
0.00138335
0.00439792
0.00746163
0.0105457
0.013638
0.0167329
0.0198274
0.0229199
0.0260098
0.0290965
0.0321799
0.0352601
0.0383372
0.0414114
0.0444828
0.0475517
0.0506185
0.0536833
0.0567464
0.0598082
0.0628689
0.0659288
0.0689881
0.0720469
0.0751056
0.0781643
0.0812231
0.0842821
0.0873413
0.0904009
0.0934609
0.0965212
0.0995818
0.102643
0.105704
0.108765
-0.218767
-0.215126
-0.211507
-0.207916
-0.204349
-0.2008
-0.197262
-0.193728
-0.19018
-0.186597
-0.182961
-0.179269
-0.175529
-0.171771
-0.168019
-0.164298
-0.160618
-0.156983
-0.153398
-0.149883
-0.146464
-0.143162
-0.13999
-0.136931
-0.133959
-0.131061
-0.128225
-0.125453
-0.122749
-0.120121
-0.117578
-0.115119
-0.112742
-0.110447
-0.108231
-0.10609
-0.10402
-0.102022
-0.100106
-0.0982914
-0.0965949
-0.0950315
-0.093612
-0.0923374
-0.0912052
-0.0902128
-0.0893454
-0.0885869
-0.0879038
-0.0872721
-0.0866609
-0.0860384
-0.0853764
-0.0846438
-0.0838257
-0.0828995
-0.0818426
-0.0806379
-0.0792767
-0.077746
-0.0760377
-0.0741421
-0.0720445
-0.0697269
-0.0671824
-0.0644208
-0.0614546
-0.0583128
-0.0550186
-0.0515994
-0.0480998
-0.0445409
-0.0409458
-0.0373378
-0.0337175
-0.0300696
-0.0263767
-0.022627
-0.0188103
-0.0149034
-0.0108906
-0.00683612
-0.00394206
-0.00106358
0.00190146
0.00492214
0.00797078
0.0110321
0.0140985
0.0171661
0.020233
0.0232982
0.0263613
0.0294223
0.0324812
0.035538
0.0385931
0.0416465
0.0446986
0.0477494
0.0507993
0.0538484
0.056897
0.0599453
0.0629933
0.0660415
0.0690898
0.0721384
0.0751876
0.0782372
0.0812876
0.0843385
0.0873902
0.0904426
0.0934957
0.0965493
0.0996034
0.102658
0.105713
0.108768
-0.218822
-0.215288
-0.211761
-0.208242
-0.204725
-0.2012
-0.197652
-0.194065
-0.190424
-0.186718
-0.182936
-0.179078
-0.175172
-0.171255
-0.167356
-0.1635
-0.159702
-0.155956
-0.152249
-0.148603
-0.145061
-0.141655
-0.138405
-0.135283
-0.132261
-0.129326
-0.126461
-0.123663
-0.120939
-0.118293
-0.115737
-0.113273
-0.1109
-0.108619
-0.10643
-0.104323
-0.102291
-0.100334
-0.0984593
-0.0966843
-0.0950223
-0.0934895
-0.0920947
-0.090837
-0.08971
-0.0887056
-0.0878093
-0.0870081
-0.0862695
-0.0855794
-0.0849114
-0.0842299
-0.0835079
-0.0827219
-0.0818552
-0.0808849
-0.0797947
-0.0785681
-0.0771975
-0.0756758
-0.0739985
-0.0721537
-0.0701248
-0.067893
-0.0654519
-0.062808
-0.0599678
-0.0569536
-0.0537811
-0.0504752
-0.0470669
-0.0435796
-0.0400383
-0.0364711
-0.0328831
-0.0292672
-0.0256139
-0.0219193
-0.0181871
-0.0144308
-0.0106946
-0.0070555
-0.00380308
-0.000700622
0.00236354
0.00541956
0.00847296
0.0115237
0.0145713
0.0176156
0.0206567
0.023695
0.0267311
0.0297654
0.0327984
0.0358305
0.0388621
0.0418934
0.0449247
0.0479562
0.0509881
0.0540206
0.0570537
0.0600875
0.0631223
0.0661581
0.0691949
0.0722328
0.075272
0.0783123
0.0813539
0.0843966
0.0874405
0.0904854
0.0935313
0.0965781
0.0996256
0.102674
0.105722
0.108771
-0.218863
-0.215404
-0.211938
-0.208459
-0.20496
-0.201426
-0.197839
-0.194181
-0.190429
-0.186578
-0.182634
-0.178606
-0.174516
-0.170401
-0.166311
-0.162292
-0.158359
-0.154501
-0.150691
-0.146941
-0.143306
-0.139832
-0.136541
-0.133388
-0.130339
-0.127379
-0.1245
-0.121695
-0.118974
-0.116337
-0.113798
-0.111362
-0.109027
-0.106795
-0.104666
-0.102632
-0.100681
-0.0988104
-0.0970221
-0.0953316
-0.0937491
-0.0922859
-0.0909463
-0.0897276
-0.0886217
-0.0876185
-0.0867038
-0.0858643
-0.0850731
-0.0843192
-0.0835808
-0.082826
-0.0820299
-0.0811747
-0.0802397
-0.0792093
-0.0780694
-0.076805
-0.0754091
-0.0738752
-0.0721983
-0.0703731
-0.0683863
-0.0662182
-0.0638611
-0.0613181
-0.0585933
-0.0557003
-0.0526493
-0.0494585
-0.0461514
-0.0427507
-0.0392795
-0.035761
-0.0322061
-0.0286183
-0.0249979
-0.0213481
-0.0176809
-0.0140219
-0.0104183
-0.00689494
-0.00353964
-0.000323308
0.00281542
0.00590979
0.00897644
0.0120241
0.0150582
0.0180821
0.0210988
0.0241105
0.0271188
0.0301253
0.033131
0.0361368
0.0391433
0.042151
0.0451602
0.0481711
0.0511839
0.0541986
0.0572153
0.0602341
0.0632548
0.0662777
0.0693025
0.0723294
0.0753582
0.0783889
0.0814214
0.0844557
0.0874915
0.0905289
0.0935675
0.0966073
0.0996481
0.10269
0.105732
0.108774
-0.218884
-0.215458
-0.212009
-0.208533
-0.205017
-0.201442
-0.197785
-0.194022
-0.190129
-0.186106
-0.181971
-0.177734
-0.173423
-0.169088
-0.16479
-0.160592
-0.15651
-0.152535
-0.148642
-0.144825
-0.141137
-0.137631
-0.134324
-0.13116
-0.128098
-0.125132
-0.122257
-0.119468
-0.116777
-0.114186
-0.111706
-0.109339
-0.107089
-0.104955
-0.102934
-0.10102
-0.0991996
-0.0974661
-0.0958138
-0.0942531
-0.092793
-0.0914391
-0.0901917
-0.0890457
-0.0879912
-0.0870159
-0.0861058
-0.0852468
-0.0844204
-0.0836119
-0.0828052
-0.081979
-0.081112
-0.0801862
-0.0791808
-0.0780835
-0.0768833
-0.0755689
-0.0741345
-0.0725766
-0.0708902
-0.0690691
-0.0671041
-0.0649812
-0.0626919
-0.0602353
-0.0576122
-0.0548288
-0.0518909
-0.04881
-0.0456033
-0.0422898
-0.0388847
-0.035403
-0.0318626
-0.0282785
-0.0246593
-0.0210122
-0.0173541
-0.0137156
-0.0101381
-0.00662707
-0.00321562
7.31178e-05
0.0032709
0.00640298
0.00948746
0.0125371
0.0155613
0.0185671
0.0215602
0.0245448
0.0275244
0.0305016
0.0334783
0.0364561
0.0394358
0.0424183
0.0454039
0.0483929
0.0513853
0.0543813
0.0573808
0.0603837
0.06339
0.0663994
0.0694119
0.0724273
0.0754455
0.0784663
0.0814896
0.0845153
0.087543
0.0905726
0.093604
0.0966367
0.0996707
0.102706
0.105741
0.108777
-0.21888
-0.215442
-0.211965
-0.20844
-0.204854
-0.201186
-0.197412
-0.193503
-0.189439
-0.185218
-0.180865
-0.1764
-0.171855
-0.167276
-0.162735
-0.158324
-0.154074
-0.149984
-0.146028
-0.142186
-0.138491
-0.134982
-0.131674
-0.128509
-0.125451
-0.122496
-0.119652
-0.116907
-0.114278
-0.11177
-0.109396
-0.107155
-0.105046
-0.103064
-0.101202
-0.0994545
-0.0978104
-0.0962625
-0.0948006
-0.0934232
-0.0921341
-0.0909343
-0.0898227
-0.0887884
-0.0878214
-0.08691
-0.0860406
-0.0852002
-0.0843736
-0.0835479
-0.0827091
-0.0818424
-0.0809293
-0.0799543
-0.0788999
-0.0777539
-0.0765084
-0.0751551
-0.0736883
-0.0721057
-0.0704056
-0.0685861
-0.0666423
-0.0645632
-0.0623389
-0.0599634
-0.0574334
-0.0547486
-0.0519111
-0.0489241
-0.0457999
-0.0425509
-0.0391814
-0.0357008
-0.0321323
-0.0284981
-0.0248106
-0.0210848
-0.0173445
-0.0136257
-0.00997092
-0.00639262
-0.00290598
0.000460163
0.00372213
0.00689876
0.0100079
0.0130649
0.0160827
0.0190721
0.0220417
0.0249985
0.0279478
0.0308938
0.0338396
0.0367873
0.0397384
0.0426939
0.0456543
0.0486201
0.0515911
0.0545675
0.057549
0.0605354
0.0635265
0.0665221
0.0695219
0.0725256
0.075533
0.0785439
0.0815579
0.0845748
0.0875944
0.0906163
0.0936403
0.096666
0.0996933
0.102722
0.105751
0.108781
-0.218841
-0.215317
-0.211739
-0.208099
-0.204382
-0.200568
-0.196628
-0.192536
-0.18827
-0.183826
-0.17923
-0.174518
-0.169725
-0.16488
-0.160056
-0.155404
-0.150974
-0.14678
-0.142786
-0.138946
-0.135268
-0.131779
-0.128489
-0.125338
-0.122308
-0.119388
-0.116605
-0.113943
-0.11142
-0.109044
-0.10682
-0.104748
-0.102828
-0.101045
-0.0993913
-0.0978587
-0.0964389
-0.0951251
-0.0939022
-0.0927577
-0.0916881
-0.0906906
-0.0897613
-0.0888895
-0.0880639
-0.0872716
-0.0864999
-0.0857378
-0.0849718
-0.0841917
-0.083383
-0.0825343
-0.0816333
-0.0806667
-0.0796139
-0.0784667
-0.0772229
-0.0758748
-0.0744152
-0.0728437
-0.0711613
-0.0693724
-0.0674742
-0.0654573
-0.0633138
-0.0610304
-0.0585959
-0.0560037
-0.053251
-0.0503362
-0.0472632
-0.044036
-0.0406479
-0.0371029
-0.033426
-0.0296405
-0.0257631
-0.0218243
-0.0178625
-0.0139262
-0.0100663
-0.00631488
-0.00268872
0.000796368
0.00415019
0.00739016
0.0105364
0.0136085
0.0166241
0.0195986
0.0225444
0.0254719
0.0283889
0.0313014
0.0342138
0.0371291
0.0400494
0.0429762
0.0459099
0.0488511
0.0517997
0.0547555
0.0577183
0.0606877
0.0636633
0.0666447
0.0696316
0.0726235
0.07562
0.0786208
0.0816255
0.0846337
0.0876451
0.0906594
0.0936761
0.0966949
0.0997155
0.102737
0.10576
0.108784
-0.218742
-0.215025
-0.211259
-0.207431
-0.203519
-0.199497
-0.195337
-0.191012
-0.186506
-0.181813
-0.176954
-0.171972
-0.166908
-0.161782
-0.156658
-0.151744
-0.147116
-0.142816
-0.138801
-0.135007
-0.131391
-0.127968
-0.124728
-0.121601
-0.118607
-0.115746
-0.113047
-0.110507
-0.108132
-0.105927
-0.103889
-0.102019
-0.100321
-0.0987725
-0.0973608
-0.096083
-0.0949276
-0.0938901
-0.0929505
-0.092086
-0.0912841
-0.0905394
-0.0898453
-0.0891934
-0.0885714
-0.0879669
-0.0873693
-0.0867703
-0.0861574
-0.0855219
-0.0848481
-0.0841217
-0.0833449
-0.0824956
-0.0815397
-0.0804863
-0.079341
-0.0780889
-0.0767208
-0.0752439
-0.0736617
-0.0719858
-0.070215
-0.068337
-0.0663371
-0.064193
-0.0618833
-0.0593896
-0.0567042
-0.0538202
-0.0507386
-0.0474519
-0.043955
-0.0402402
-0.0363232
-0.0322209
-0.0279659
-0.0236074
-0.0192093
-0.0148507
-0.0106018
-0.00652143
-0.00264466
0.00103708
0.00453374
0.00786914
0.0110717
0.0141694
0.0171877
0.0201485
0.0230696
0.0259656
0.0288474
0.0317234
0.0345996
0.0374799
0.0403673
0.0432633
0.0461688
0.0490841
0.0520091
0.0549436
0.0578871
0.0608391
0.0637989
0.066766
0.0697398
0.0727198
0.0757055
0.0786963
0.0816917
0.0846914
0.0876948
0.0907015
0.0937111
0.0967231
0.0997371
0.102753
0.105769
0.108787
-0.218569
-0.214529
-0.210467
-0.20635
-0.202152
-0.197847
-0.193408
-0.188805
-0.184014
-0.179028
-0.173866
-0.168589
-0.163234
-0.157816
-0.152401
-0.147238
-0.142421
-0.138021
-0.134003
-0.130301
-0.1268
-0.123493
-0.120346
-0.117273
-0.114317
-0.111523
-0.108917
-0.106518
-0.104318
-0.102316
-0.1005
-0.098852
-0.0973906
-0.0960872
-0.0949264
-0.0939152
-0.093041
-0.0923049
-0.0916828
-0.0911367
-0.0906426
-0.0901941
-0.0897881
-0.0894156
-0.0890677
-0.0887365
-0.0884132
-0.0880923
-0.0877634
-0.0874134
-0.0870233
-0.0865773
-0.086092
-0.0855166
-0.0848233
-0.0840373
-0.0831609
-0.0821708
-0.0810469
-0.0798141
-0.0784778
-0.0770578
-0.0755516
-0.0739412
-0.0721953
-0.0702822
-0.0681642
-0.0658093
-0.0632006
-0.0603218
-0.0571636
-0.053718
-0.0499877
-0.0459417
-0.0415849
-0.0369236
-0.0320132
-0.026932
-0.021791
-0.0167143
-0.0118025
-0.00715317
-0.00285094
0.00114496
0.00485843
0.00833339
0.0116169
0.0147524
0.0177779
0.020725
0.0236191
0.0264801
0.0293229
0.0321587
0.0349952
0.0378377
0.0406896
0.0435529
0.0464285
0.0493168
0.0522174
0.05513
0.0580538
0.060988
0.0639319
0.0668847
0.0698455
0.0728137
0.0757886
0.0787695
0.0817559
0.0847472
0.0877428
0.0907422
0.0937449
0.0967503
0.099758
0.102767
0.105778
0.10879
-0.218325
-0.213812
-0.20931
-0.204782
-0.200192
-0.195512
-0.190715
-0.185771
-0.180651
-0.175328
-0.169797
-0.164142
-0.158438
-0.152707
-0.147037
-0.141671
-0.136724
-0.132267
-0.128303
-0.124788
-0.121481
-0.118346
-0.115327
-0.112342
-0.109425
-0.106688
-0.104166
-0.101892
-0.0998636
-0.0980881
-0.0965254
-0.095109
-0.0938728
-0.0927931
-0.0918539
-0.0910793
-0.0904615
-0.090017
-0.0897151
-0.0895011
-0.0893412
-0.0892209
-0.0891516
-0.0891315
-0.089143
-0.0891812
-0.0892523
-0.0893599
-0.0894849
-0.089603
-0.0896879
-0.0897315
-0.0897503
-0.08968
-0.0895011
-0.0892488
-0.0889026
-0.0884264
-0.0877892
-0.0870392
-0.086182
-0.0852307
-0.0841981
-0.0830499
-0.0817317
-0.0802048
-0.0784169
-0.0763145
-0.0738556
-0.0709964
-0.0676829
-0.0639461
-0.0597964
-0.0551889
-0.050121
-0.0445736
-0.0386287
-0.0324094
-0.0260874
-0.0198669
-0.0138978
-0.00834386
-0.00336099
0.00110684
0.00512911
0.00879442
0.0121844
0.0153681
0.0184025
0.0213331
0.0241953
0.0270159
0.0298147
0.0326056
0.0353985
0.0381998
0.0410137
0.0438423
0.0466866
0.0495467
0.0524223
0.0553125
0.0582163
0.0611328
0.0640608
0.0669993
0.0699473
0.0729039
0.0758684
0.0788398
0.0818174
0.0848006
0.0877887
0.0907811
0.0937771
0.0967763
0.0997779
0.102782
0.105787
0.108792
-0.218004
-0.212853
-0.207743
-0.20266
-0.197562
-0.192406
-0.187158
-0.181786
-0.17626
-0.170543
-0.164605
-0.158531
-0.152419
-0.146316
-0.140387
-0.134875
-0.129881
-0.125428
-0.12156
-0.118317
-0.115313
-0.112421
-0.109597
-0.106779
-0.103922
-0.101219
-0.0987513
-0.0965535
-0.0946485
-0.0930953
-0.0917979
-0.0906084
-0.0895554
-0.0886442
-0.0878594
-0.0872391
-0.0868028
-0.0865857
-0.0865505
-0.0866375
-0.0868104
-0.0870337
-0.0873446
-0.0877608
-0.0882397
-0.0887771
-0.0893882
-0.090094
-0.0908769
-0.0916792
-0.0924648
-0.0932468
-0.094038
-0.0947884
-0.095459
-0.0961102
-0.0966536
-0.097038
-0.0972352
-0.0973109
-0.0972681
-0.0970673
-0.0967432
-0.0962601
-0.0955803
-0.0946718
-0.0934503
-0.0918382
-0.0897497
-0.0870317
-0.0834877
-0.079313
-0.0744794
-0.0690188
-0.0629131
-0.0560615
-0.0485979
-0.0407072
-0.0326196
-0.0246782
-0.0171202
-0.0101984
-0.00415368
0.000962239
0.00538545
0.00928644
0.012801
0.0160358
0.0190741
0.02198
0.0248016
0.0275737
0.0303213
0.0330615
0.0358062
0.0385628
0.041336
0.044128