/*--------------------------------*- C++ -*----------------------------------*\
  =========                 |
  \\      /  F ield         | OpenFOAM: The Open Source CFD Toolbox
   \\    /   O peration     | Website:  https://openfoam.org
    \\  /    A nd           | Version:  6
     \\/     M anipulation  |
\*---------------------------------------------------------------------------*/
FoamFile
{
    version     2.0;
    format      ascii;
    class       surfaceScalarField;
    location    "3650";
    object      phi;
}
// * * * * * * * * * * * * * * * * * * * * * * * * * * * * * * * * * * * * * //

dimensions      [0 3 -1 0 0 0 0];

internalField   nonuniform List<scalar> 
9440
(
-3.6589e-10
3.6589e-10
-6.83306e-10
3.17413e-10
-1.05348e-09
3.70166e-10
-1.28685e-09
2.33371e-10
-1.70774e-09
4.2089e-10
-1.93418e-09
2.26435e-10
-2.16311e-09
2.28926e-10
-2.31974e-09
1.56635e-10
-2.44769e-09
1.27945e-10
-2.40075e-09
-4.6939e-11
-2.31313e-09
-8.76248e-11
-2.1976e-09
-1.15535e-10
-1.80104e-09
-3.96555e-10
-1.38314e-09
-4.17906e-10
-1.03046e-09
-3.52676e-10
-7.49406e-10
-2.81056e-10
-4.41694e-10
-3.07713e-10
-1.04797e-10
-3.36898e-10
3.27726e-10
-4.32522e-10
6.14254e-10
-2.86529e-10
6.96847e-10
-8.2593e-11
9.17327e-10
-2.20481e-10
1.21667e-09
-2.99344e-10
1.45734e-09
-2.40674e-10
1.59467e-09
-1.37323e-10
1.71123e-09
-1.16559e-10
1.83314e-09
-1.21913e-10
1.77743e-09
5.5709e-11
1.93603e-09
-1.58604e-10
2.21039e-09
-2.74362e-10
2.1415e-09
6.88947e-11
2.1939e-09
-5.23969e-11
2.33504e-09
-1.41144e-10
2.38972e-09
-5.46818e-11
2.35361e-09
3.61128e-11
2.47235e-09
-1.18735e-10
2.62689e-09
-1.54541e-10
2.65201e-09
-2.51172e-11
2.8155e-09
-1.63493e-10
3.01937e-09
-2.03863e-10
3.20524e-09
-1.85875e-10
3.40259e-09
-1.9735e-10
3.32931e-09
7.32861e-11
3.48123e-09
-1.51916e-10
3.65084e-09
-1.6961e-10
3.67015e-09
-1.93068e-11
3.85448e-09
-1.84337e-10
3.99259e-09
-1.38102e-10
4.0219e-09
-2.93085e-11
4.07876e-09
-5.68585e-11
4.06982e-09
8.93909e-12
4.02063e-09
4.91857e-11
3.95444e-09
6.61961e-11
3.81355e-09
1.40892e-10
3.71561e-09
9.79335e-11
3.60843e-09
1.07188e-10
3.39085e-09
2.1758e-10
3.22749e-09
1.63361e-10
2.95451e-09
2.72981e-10
2.64144e-09
3.13072e-10
2.0745e-09
5.66935e-10
1.62834e-09
4.46163e-10
1.19526e-09
4.3308e-10
8.80058e-10
3.15206e-10
6.87018e-10
1.93041e-10
4.89585e-10
1.97434e-10
2.79078e-10
2.10508e-10
1.29306e-10
1.49773e-10
-8.36547e-11
2.12961e-10
-2.67119e-10
1.83464e-10
-3.50959e-10
8.38409e-11
-4.22279e-10
7.13211e-11
-4.85521e-10
6.32423e-11
-5.28735e-10
4.32148e-11
-5.56396e-10
2.76612e-11
-5.63003e-10
6.60695e-12
-6.09989e-10
4.69866e-11
-7.07038e-10
9.70489e-11
-3.69387e-10
-3.37652e-10
8.41111e-11
-4.53498e-10
3.9853e-16
8.41101e-11
-5.90975e-18
1.10519e-18
-6.10784e-18
1.98086e-19
-6.11097e-18
2.87533e-21
-6.03131e-18
-7.97252e-20
-5.89196e-18
-1.39216e-19
-5.69981e-18
-1.91852e-19
-5.45864e-18
-2.40765e-19
-5.17247e-18
-2.85709e-19
-4.84618e-18
-3.25779e-19
-4.4856e-18
-3.60028e-19
-4.09732e-18
-3.87656e-19
-3.68849e-18
-4.08092e-19
-3.26655e-18
-4.21021e-19
-2.83898e-18
-4.26393e-19
-2.41312e-18
-4.24401e-19
-1.99592e-18
-4.15454e-19
-1.59376e-18
-4.00145e-19
-1.2123e-18
-3.7921e-19
-8.56373e-19
-3.53487e-19
-5.29918e-19
-3.23874e-19
-2.35965e-19
-2.91283e-19
2.33721e-20
-2.56618e-19
2.46848e-19
-2.20744e-19
4.34005e-19
-1.84467e-19
5.85087e-19
-1.48502e-19
7.00952e-19
-1.13458e-19
7.83007e-19
-7.98258e-20
8.33124e-19
-4.79966e-20
8.5353e-19
-1.82774e-20
8.46699e-19
9.08809e-21
8.15237e-19
3.39112e-20
7.61814e-19
5.60535e-20
6.89124e-19
7.54271e-20
5.99873e-19
9.19899e-20
4.96783e-19
1.05739e-19
3.82584e-19
1.16699e-19
2.6e-19
1.24922e-19
1.31682e-19
1.30515e-19
1.33786e-19
-2.88374e-10
6.5426e-10
-6.39653e-10
6.68686e-10
-9.80411e-10
7.10919e-10
-1.3652e-09
6.18159e-10
-1.61251e-09
6.68195e-10
-1.84236e-09
4.56274e-10
-1.97866e-09
3.65226e-10
-2.1061e-09
2.84076e-10
-2.19361e-09
2.15445e-10
-2.11651e-09
-1.24039e-10
-2.05901e-09
-1.4513e-10
-1.94496e-09
-2.29587e-10
-1.58216e-09
-7.59347e-10
-1.24276e-09
-7.57317e-10
-1.0081e-09
-5.87332e-10
-5.59868e-10
-7.29291e-10
-1.93742e-10
-6.7384e-10
1.12003e-10
-6.42643e-10
3.44395e-10
-6.64915e-10
6.29856e-10
-5.71991e-10
8.94988e-10
-3.47725e-10
1.1152e-09
-4.40692e-10
1.35391e-09
-5.38056e-10
1.45776e-09
-3.44528e-10
1.59731e-09
-2.76869e-10
1.6975e-09
-2.16757e-10
1.79907e-09
-2.23475e-10
1.80023e-09
5.45425e-11
2.00867e-09
-3.67047e-10
2.1278e-09
-3.93486e-10
2.23953e-09
-4.28345e-11
2.39135e-09
-2.04218e-10
2.50323e-09
-2.53021e-10
2.47755e-09
-2.90044e-11
2.60386e-09
-9.01982e-11
2.6928e-09
-2.07672e-10
2.70926e-09
-1.71e-10
2.8582e-09
-1.74048e-10
3.04507e-09
-3.50364e-10
3.08147e-09
-2.40261e-10
3.16535e-09
-2.69751e-10
3.32182e-09
-3.53819e-10
3.31805e-09
7.70637e-11
3.51901e-09
-3.52878e-10
3.64547e-09
-2.96071e-10
3.78544e-09
-1.5927e-10
3.85135e-09
-2.50243e-10
3.95813e-09
-2.44884e-10
4.01191e-09
-8.30885e-11
4.09673e-09
-1.41673e-10
4.12996e-09
-2.42904e-11
4.07705e-09
1.02099e-10
3.98864e-09
1.54604e-10
3.87613e-09
2.53406e-10
3.79393e-09
1.80135e-10
3.56006e-09
3.41058e-10
3.35745e-09
4.20195e-10
3.29856e-09
2.22255e-10
2.89586e-09
6.75681e-10
2.69484e-09
5.14097e-10
2.59295e-09
6.68827e-10
2.15932e-09
8.79794e-10
1.62312e-09
9.69278e-10
1.04471e-09
8.93624e-10
6.16748e-10
6.21003e-10
4.75493e-10
3.38691e-10
3.9155e-10
2.94453e-10
1.83798e-10
3.57526e-10
2.08661e-11
3.75895e-10
-1.31566e-10
3.35898e-10
-2.65639e-10
2.17914e-10
-3.40057e-10
1.45741e-10
-3.74005e-10
9.7191e-11
-3.7565e-10
4.486e-11
-3.60973e-10
1.2985e-11
-3.66892e-10
1.25257e-11
-3.60281e-10
4.0376e-11
3.55568e-13
-2.63588e-10
2.88609e-10
-6.25906e-10
2.31714e-10
-3.96604e-10
2.51392e-16
3.15823e-10
-6.68395e-18
-8.0211e-19
-6.30547e-18
-1.8048e-19
-6.19467e-18
-1.07979e-19
-6.09061e-18
-1.83564e-19
-5.94459e-18
-2.84765e-19
-5.74872e-18
-3.87056e-19
-5.50359e-18
-4.85096e-19
-5.21254e-18
-5.7584e-19
-4.88043e-18
-6.56845e-19
-4.51323e-18
-7.26011e-19
-4.11776e-18
-7.81667e-19
-3.70142e-18
-8.22652e-19
-3.27192e-18
-8.48356e-19
-2.83699e-18
-8.58709e-19
-2.40417e-18
-8.54139e-19
-1.98061e-18
-8.35504e-19
-1.57282e-18
-8.04031e-19
-1.18658e-18
-7.61235e-19
-8.26759e-19
-7.08834e-19
-4.97328e-19
-6.48664e-19
-2.013e-19
-5.82597e-19
5.9246e-20
-5.12476e-19
2.83125e-19
-4.4005e-19
4.6997e-19
-3.66912e-19
6.20131e-19
-2.94451e-19
7.34584e-19
-2.23843e-19
8.14836e-19
-1.56062e-19
8.62843e-19
-9.19168e-20
8.80896e-19
-3.20734e-20
8.71522e-19
2.29365e-20
8.37379e-19
7.27154e-20
7.81188e-19
1.17001e-19
7.05687e-19
1.55657e-19
6.13622e-19
1.88646e-19
5.07743e-19
2.16001e-19
3.90807e-19
2.37789e-19
2.65593e-19
2.5409e-19
1.34953e-19
2.6497e-19
2.70424e-19
-2.33236e-10
8.87493e-10
-3.94905e-10
8.30349e-10
-7.89838e-10
1.10585e-09
-1.31228e-09
1.1406e-09
-1.49666e-09
8.52569e-10
-1.68105e-09
6.40666e-10
-1.81261e-09
4.96784e-10
-1.86336e-09
3.34819e-10
-1.87065e-09
2.22734e-10
-1.798e-09
-1.96688e-10
-1.64894e-09
-2.94195e-10
-1.51251e-09
-3.66025e-10
-1.37468e-09
-8.97172e-10
-1.07044e-09
-1.06156e-09
-7.23465e-10
-9.34305e-10
-3.32694e-10
-1.12006e-09
1.30003e-11
-1.01954e-09
3.08614e-10
-9.38258e-10
3.89431e-10
-7.45733e-10
5.52084e-10
-7.34645e-10
8.42261e-10
-6.37903e-10
1.02605e-09
-6.24481e-10
1.15869e-09
-6.70699e-10
1.32944e-09
-5.15279e-10
1.44373e-09
-3.91158e-10
1.50391e-09
-2.7694e-10
1.52228e-09
-2.41837e-10
1.65042e-09
-7.36006e-11
1.72439e-09
-4.41023e-10
1.78424e-09
-4.53328e-10
2.08804e-09
-3.46639e-10
2.25433e-09
-3.70504e-10
2.35709e-09
-3.5578e-10
2.39617e-09
-6.80858e-11
2.46403e-09
-1.58061e-10
2.54534e-09
-2.88971e-10
2.61974e-09
-2.45401e-10
2.79014e-09
-3.44452e-10
2.90614e-09
-4.66357e-10
3.01952e-09
-3.53643e-10
3.15919e-09
-4.09417e-10
3.25406e-09
-4.48687e-10
3.3578e-09
-2.66721e-11
3.39934e-09
-3.94414e-10
3.49705e-09
-3.9378e-10
3.63257e-09
-2.94793e-10
3.64639e-09
-2.64056e-10
3.74236e-09
-3.40861e-10
3.92307e-09
-2.63788e-10
3.93602e-09
-1.54623e-10
3.99891e-09
-8.71859e-11
3.9563e-09
1.44718e-10
3.88633e-09
2.24573e-10
3.7346e-09
4.05132e-10
3.70472e-09
2.10025e-10
3.45691e-09
5.88862e-10
3.26012e-09
6.16988e-10
3.14898e-09
3.33399e-10
2.92447e-09
9.0019e-10
2.52533e-09
9.13243e-10
2.31942e-09
8.74741e-10
2.00056e-09
1.19866e-09
1.46869e-09
1.50115e-09
8.83654e-10
1.47866e-09
5.81823e-10
9.22835e-10
4.44702e-10
4.75814e-10
3.28914e-10
4.10242e-10
2.08792e-10
4.77649e-10
9.26096e-11
4.92078e-10
2.44582e-12
4.26063e-10
-1.05212e-10
3.25573e-10
-2.36493e-10
2.77023e-10
-3.21678e-10
1.82377e-10
-3.30965e-10
5.41475e-11
-3.405e-10
2.25203e-11
-3.27379e-10
-5.94343e-13
-2.65027e-10
-2.19765e-11
-3.43112e-10
-1.85502e-10
-3.41884e-10
-6.27135e-10
-1.92077e-11
-7.1928e-10
1.777e-16
2.96614e-10
-5.80142e-18
1.71264e-18
-6.2321e-18
2.5015e-19
-6.26939e-18
-7.07755e-20
-6.19098e-18
-2.61898e-19
-6.04688e-18
-4.28606e-19
-5.84676e-18
-5.86717e-19
-5.59433e-18
-7.36897e-19
-5.29354e-18
-8.75839e-19
-4.94959e-18
-9.99852e-19
-4.56888e-18
-1.10563e-18
-4.15874e-18
-1.19055e-18
-3.72713e-18
-1.25282e-18
-3.28227e-18
-1.29151e-18
-2.83241e-18
-1.30657e-18
-2.38554e-18
-1.29868e-18
-1.94913e-18
-1.26923e-18
-1.53003e-18
-1.22014e-18
-1.13418e-18
-1.15381e-18
-7.66589e-19
-1.07293e-18
-4.31261e-19
-9.80358e-19
-1.31179e-19
-8.78983e-19
1.31672e-19
-7.7162e-19
3.56263e-19
-6.60923e-19
5.4243e-19
-5.49316e-19
6.9074e-19
-4.38932e-19
8.02365e-19
-3.31588e-19
8.78982e-19
-2.28785e-19
9.22686e-19
-1.31744e-19
9.35906e-19
-4.14341e-20
9.213e-19
4.14027e-20
8.81665e-19
1.16236e-19
8.19843e-19
1.82732e-19
7.38676e-19
2.40727e-19
6.40977e-19
2.90192e-19
5.29531e-19
3.31187e-19
4.07108e-19
3.63816e-19
2.76473e-19
3.88191e-19
1.40407e-19
4.04403e-19
4.12498e-19
-6.42569e-10
1.53006e-09
-1.01281e-09
1.20058e-09
-1.02371e-09
1.11675e-09
-1.06626e-09
1.18314e-09
-1.28897e-09
1.07528e-09
-1.41935e-09
7.71041e-10
-1.5242e-09
6.01627e-10
-1.52601e-09
3.36635e-10
-1.49158e-09
1.88298e-10
-1.47934e-09
-2.08931e-10
-1.30075e-09
-4.72787e-10
-1.1951e-09
-4.71673e-10
-1.07119e-09
-1.02108e-09
-8.48435e-10
-1.28432e-09
-2.72464e-10
-1.51028e-09
5.41477e-11
-1.44668e-09
2.10412e-10
-1.1758e-09
3.47065e-10
-1.07491e-09
6.29532e-10
-1.0282e-09
7.962e-10
-9.01314e-10
1.00248e-09
-8.44187e-10
1.16915e-09
-7.91146e-10
1.21153e-09
-7.13086e-10
1.2784e-09
-5.82149e-10
1.31778e-09
-4.30534e-10
1.33661e-09
-2.95776e-10
1.3304e-09
-2.35627e-10
1.54732e-09
-2.90521e-10
1.54853e-09
-4.42233e-10
1.71461e-09
-6.19402e-10
1.87611e-09
-5.0814e-10
1.97672e-09
-4.71109e-10
2.04067e-09
-4.19732e-10
2.18147e-09
-2.08887e-10
2.26127e-09
-2.37862e-10
2.41866e-09
-4.46355e-10
2.60818e-09
-4.3492e-10
2.68209e-09
-4.18359e-10
2.6576e-09
-4.41862e-10
2.70175e-09
-3.97798e-10
2.77911e-09
-4.86769e-10
2.78868e-09
-4.58254e-10
3.07786e-09
-3.15853e-10
3.1098e-09
-4.26359e-10
3.2462e-09
-5.30171e-10
3.49988e-09
-5.48473e-10
3.56109e-09
-3.25269e-10
3.57521e-09
-3.54974e-10
3.62203e-09
-3.10611e-10
3.64508e-09
-1.77668e-10
3.70925e-09
-1.51356e-10
3.72385e-09
1.30125e-10
3.61805e-09
3.30368e-10
3.5846e-09
4.38586e-10
3.37073e-09
4.23897e-10
3.10588e-09
8.53713e-10
3.14561e-09
5.77261e-10
3.03224e-09
4.46771e-10
2.75374e-09
1.17868e-09
2.47017e-09
1.19681e-09
2.17586e-09
1.16906e-09
1.75119e-09
1.62332e-09
1.39767e-09
1.85467e-09
1.14175e-09
1.73459e-09
8.43045e-10
1.22154e-09
5.62351e-10
7.5651e-10
3.63415e-10
6.0918e-10
2.39779e-10
6.01286e-10
1.62623e-10
5.69235e-10
9.27928e-11
4.95894e-10
-1.60269e-11
4.34393e-10
-1.05383e-10
3.6638e-10
-2.02973e-10
2.79967e-10
-2.77662e-10
1.28837e-10
-2.96507e-10
4.13653e-11
-2.7316e-10
-2.39411e-11
-1.41239e-10
-1.53897e-10
5.96186e-11
-3.8636e-10
1.7971e-10
-7.47227e-10
1.10448e-10
-6.50018e-10
1.5044e-16
4.07061e-10
-6.84431e-18
2.19916e-19
-6.55211e-18
-4.21445e-20
-6.45964e-18
-1.63423e-19
-6.3569e-18
-3.647e-19
-6.20499e-18
-5.80387e-19
-5.99694e-18
-7.94424e-19
-5.73327e-18
-9.99997e-19
-5.41756e-18
-1.19077e-18
-5.05537e-18
-1.36106e-18
-4.6538e-18
-1.50605e-18
-4.22101e-18
-1.62206e-18
-3.76583e-18
-1.70661e-18
-3.29733e-18
-1.75847e-18
-2.82453e-18
-1.77763e-18
-2.35608e-18
-1.76513e-18
-1.90005e-18
-1.72298e-18
-1.4637e-18
-1.65395e-18
-1.0533e-18
-1.56142e-18
-6.74016e-19
-1.44919e-18
-3.29886e-19
-1.32126e-18
-2.38158e-20
-1.18166e-18
2.42368e-19
-1.03428e-18
4.6787e-19
-8.82773e-19
6.52814e-19
-7.30453e-19
7.98085e-19
-5.80245e-19
9.05167e-19
-4.34622e-19
9.76022e-19
-2.95603e-19
1.013e-18
-1.64786e-19
1.01874e-18
-4.33919e-20
9.96134e-19
6.76838e-20
9.48161e-19
1.67829e-19
8.77838e-19
2.56679e-19
7.88141e-19
3.34077e-19
6.81972e-19
4.00022e-19
5.6216e-19
4.54621e-19
4.31483e-19
4.98033e-19
2.92685e-19
5.30424e-19
1.48502e-19
5.51938e-19
5.62675e-19
-2.1765e-10
1.74771e-09
-5.60054e-10
1.54298e-09
-8.8556e-10
1.44225e-09
-1.0218e-09
1.31937e-09
-1.1418e-09
1.19528e-09
-1.23503e-09
8.6426e-10
-1.15205e-09
5.1865e-10
-1.17561e-09
3.60188e-10
-1.15353e-09
1.66212e-10
-1.23624e-09
-1.26224e-10
-1.08041e-09
-6.28617e-10
-9.41196e-10
-6.10887e-10
-6.38499e-10
-1.32378e-09
-3.93047e-10
-1.52978e-09
-1.87159e-10
-1.71617e-09
7.17125e-12
-1.64101e-09
3.31016e-10
-1.49965e-09
5.04531e-10
-1.24843e-09
6.67568e-10
-1.19124e-09
8.44664e-10
-1.07841e-09
9.84194e-10
-9.83718e-10
1.12061e-09
-9.2756e-10
1.21101e-09
-8.03488e-10
1.24308e-09
-6.14217e-10
1.23181e-09
-4.19266e-10
1.28665e-09
-3.50616e-10
1.3538e-09
-3.02776e-10
1.47252e-09
-4.09241e-10
1.53978e-09
-5.09494e-10
1.66792e-09
-7.47543e-10
1.77831e-09
-6.18527e-10
1.8686e-09
-5.61397e-10
1.89391e-09
-4.45046e-10
2.06162e-09
-3.76594e-10
2.20883e-09
-3.85071e-10
2.23822e-09
-4.75746e-10
2.20416e-09
-4.00861e-10
2.21987e-09
-4.34064e-10
2.22654e-09
-4.48534e-10
2.26894e-09
-4.40193e-10
2.42676e-09
-6.4459e-10
2.47689e-09
-5.08375e-10
2.76922e-09
-6.08182e-10
2.88537e-09
-5.42508e-10
2.90633e-09
-5.51131e-10
3.19651e-09
-8.38653e-10
3.32512e-09
-4.53876e-10
3.382e-09
-4.11845e-10
3.43879e-09
-3.67405e-10
3.46087e-09
-1.99747e-10
3.4471e-09
-1.37578e-10
3.46733e-09
1.09891e-10
3.35151e-09
4.46195e-10
3.39746e-09
3.92633e-10
3.14966e-09
6.71696e-10
3.03163e-09
9.71749e-10
2.89808e-09
7.10817e-10
2.39649e-09
9.48359e-10
2.18045e-09
1.39472e-09
2.06338e-09
1.31389e-09
1.78341e-09
1.44903e-09
1.64837e-09
1.75836e-09
1.53195e-09
1.9711e-09
1.33999e-09
1.92655e-09
9.76769e-10
1.58476e-09
6.06048e-10
1.12723e-09
3.60964e-10
8.54265e-10
2.2141e-10
7.40842e-10
1.4315e-10
6.47496e-10
8.78748e-11
5.5117e-10
2.57853e-11
4.96483e-10
-4.21061e-11
4.34272e-10
-8.77775e-11
3.25639e-10
-1.65088e-10
2.06147e-10
-2.37596e-10
1.13873e-10
-1.97304e-10
-6.42332e-11
-1.46706e-10
-2.04495e-10
-1.04998e-10
-4.28068e-10
-1.0829e-10
-7.43935e-10
-2.04332e-11
-7.37874e-10
2.08648e-16
3.86627e-10
-6.52846e-18
1.1868e-18
-6.67248e-18
1.01731e-19
-6.66004e-18
-1.76198e-19
-6.57184e-18
-4.53129e-19
-6.41903e-18
-7.33223e-19
-6.20252e-18
-1.01071e-18
-5.92405e-18
-1.27795e-18
-5.58784e-18
-1.52618e-18
-5.20036e-18
-1.74748e-18
-4.76981e-18
-1.93534e-18
-4.30556e-18
-2.0849e-18
-3.81769e-18
-2.19299e-18
-3.31648e-18
-2.25813e-18
-2.81203e-18
-2.28042e-18
-2.31393e-18
-2.2614e-18
-1.83102e-18
-2.20384e-18
-1.37117e-18
-2.11152e-18
-9.41063e-19
-1.98901e-18
-5.46088e-19
-1.84138e-18
-1.90287e-19
-1.674e-18
1.23564e-19
-1.49219e-18
3.93879e-19
-1.30107e-18
6.2019e-19
-1.1054e-18
8.03023e-19
-9.09448e-19
9.43708e-19
-7.16955e-19
1.04419e-18
-5.31046e-19
1.10684e-18
-3.54234e-19
1.13439e-18
-1.88452e-19
1.12982e-18
-3.51273e-20
1.09628e-18
1.04747e-19
1.03701e-18
2.30533e-19
9.55236e-19
3.41891e-19
8.54087e-19
4.38715e-19
7.36571e-19
5.2108e-19
6.05571e-19
5.89172e-19
4.63874e-19
6.43238e-19
3.14199e-19
6.83528e-19
1.59239e-19
7.10258e-19
7.23585e-19
-7.7454e-11
1.82516e-09
-2.81563e-10
1.74709e-09
-5.40539e-10
1.70122e-09
-6.84074e-10
1.4629e-09
-7.36795e-10
1.248e-09
-8.2986e-10
9.57321e-10
-9.40981e-10
6.29767e-10
-9.54795e-10
3.74e-10
-9.23539e-10
1.34954e-10
-9.57666e-10
-9.20996e-11
-8.06084e-10
-7.80201e-10
-6.22752e-10
-7.94221e-10
-4.89068e-10
-1.45747e-09
-2.98807e-10
-1.72004e-09
-8.88845e-11
-1.92609e-09
5.10196e-11
-1.78091e-09
2.33791e-10
-1.68242e-09
4.93057e-10
-1.5077e-09
6.5161e-10
-1.34979e-09
8.07289e-10
-1.23409e-09
9.55319e-10
-1.13175e-09
1.01983e-09
-9.92071e-10
1.12796e-09
-9.11624e-10
1.15335e-09
-6.39605e-10
1.16573e-09
-4.31642e-10
1.23216e-09
-4.17047e-10
1.41916e-09
-4.89776e-10
1.54264e-09
-5.32721e-10
1.66758e-09
-6.3444e-10
1.65397e-09
-7.33925e-10
1.65817e-09
-6.22733e-10
1.7317e-09
-6.34921e-10
1.66822e-09
-3.8157e-10
1.63985e-09
-3.48224e-10
1.71607e-09
-4.61287e-10
1.76523e-09
-5.24905e-10
1.78145e-09
-4.17085e-10
1.85323e-09
-5.05839e-10
1.88729e-09
-4.82593e-10
1.9704e-09
-5.23299e-10
2.1322e-09
-8.06385e-10
2.23486e-09
-6.11041e-10
2.36639e-09
-7.39711e-10
2.57229e-09
-7.48399e-10
2.72903e-09
-7.07872e-10
2.7448e-09
-8.54416e-10
3.10381e-09
-8.12885e-10
3.20293e-09
-5.10962e-10
3.16514e-09
-3.29619e-10
3.14513e-09
-1.79729e-10
3.12967e-09
-1.22118e-10
3.15539e-09
8.41708e-11
3.11627e-09
4.8532e-10
3.03025e-09
4.7865e-10
2.90513e-09
7.96819e-10
2.79801e-09
1.07887e-09
2.53557e-09
9.73253e-10
2.37698e-09
1.10695e-09
2.32972e-09
1.44199e-09
2.14405e-09
1.49956e-09
1.88034e-09
1.71274e-09
1.70493e-09
1.93377e-09
1.48517e-09
2.19086e-09
1.22974e-09
2.18198e-09
8.7775e-10
1.93675e-09
5.68152e-10
1.43683e-09
3.3502e-10
1.0874e-09
1.62198e-10
9.13665e-10
6.97637e-11
7.39932e-10
1.8307e-11
6.02627e-10
1.16677e-11
5.03123e-10
3.66155e-11
4.09324e-10
4.82883e-11
3.13966e-10
2.34685e-11
2.30967e-10
-4.79241e-11
1.85266e-10
-1.49117e-10
3.69592e-11
-1.68115e-10
-1.85497e-10
-1.80363e-10
-4.1582e-10
-2.47939e-10
-6.7636e-10
-5.09229e-11
-9.34891e-10
2.93791e-16
3.35704e-10
-6.84867e-18
1.87535e-18
-6.94947e-18
2.02323e-19
-6.93608e-18
-1.90111e-19
-6.85124e-18
-5.38401e-19
-6.69652e-18
-8.88154e-19
-6.46976e-18
-1.23738e-18
-6.17228e-18
-1.575e-18
-5.80914e-18
-1.88855e-18
-5.38822e-18
-2.16728e-18
-4.91936e-18
-2.40279e-18
-4.41365e-18
-2.589e-18
-3.88284e-18
-2.72212e-18
-3.33877e-18
-2.80048e-18
-2.793e-18
-2.82445e-18
-2.25637e-18
-2.79619e-18
-1.73871e-18
-2.71948e-18
-1.24865e-18
-2.59935e-18
-7.93439e-19
-2.4418e-18
-3.78701e-19
-2.25345e-18
-8.47635e-21
-2.04124e-18
3.14681e-19
-1.81205e-18
5.89552e-19
-1.57241e-18
8.16138e-19
-1.32831e-18
9.95515e-19
-1.08505e-18
1.12962e-18
-8.47201e-19
1.221e-18
-6.18516e-19
1.27262e-18
-4.01969e-19
1.28772e-18
-1.99782e-19
1.26969e-18
-1.35242e-20
1.22207e-18
1.55777e-19
1.14837e-18
3.07533e-19
1.05206e-18
4.41496e-19
9.36451e-19
5.57683e-19
8.04663e-19
6.56299e-19
6.59637e-19
7.37669e-19
5.04163e-19
8.02166e-19
3.4093e-19
8.50159e-19
1.72566e-19
8.81962e-19
8.97801e-19
-1.06888e-10
1.93204e-09
-2.4962e-10
1.88982e-09
-4.10111e-10
1.86171e-09
-6.10534e-10
1.66332e-09
-8.03254e-10
1.44072e-09
-8.46752e-10
1.00082e-09
-8.59662e-10
6.42674e-10
-8.14668e-10
3.29003e-10
-7.94998e-10
1.1528e-10
-7.6241e-10
-1.2469e-10
-6.91882e-10
-8.50732e-10
-5.04705e-10
-9.81401e-10
-4.38092e-10
-1.52408e-09
-2.08616e-10
-1.94952e-09
-3.06698e-11
-2.10404e-09
1.25248e-10
-1.93683e-09
1.90896e-10
-1.74807e-09
3.18539e-10
-1.63534e-09
4.76366e-10
-1.50762e-09
6.41863e-10
-1.39959e-09
8.25997e-10
-1.31588e-09
9.76023e-10
-1.1421e-09
1.06561e-09
-1.00122e-09
1.10694e-09
-6.80935e-10
1.21466e-09
-5.39362e-10
1.30773e-09
-5.10112e-10
1.38617e-09
-5.68215e-10
1.52395e-09
-6.70506e-10
1.62266e-09
-7.3315e-10
1.64811e-09
-7.59371e-10
1.52089e-09
-4.9551e-10
1.48971e-09
-6.03743e-10
1.26171e-09
-1.53568e-10
1.18272e-09
-2.69231e-10
1.21321e-09
-4.91778e-10
1.22964e-09
-5.41338e-10
1.32724e-09
-5.14683e-10
1.38923e-09
-5.6783e-10
1.50634e-09
-5.99693e-10
1.63215e-09
-6.49113e-10
1.77997e-09
-9.54199e-10
1.93596e-09
-7.67029e-10
2.08093e-09
-8.84677e-10
2.22897e-09
-8.96442e-10
2.67691e-09
-1.15581e-09
2.77466e-09
-9.52165e-10
2.77966e-09
-8.17882e-10
2.89346e-09
-6.2476e-10
2.86378e-09
-2.99938e-10
2.85023e-09
-1.66175e-10
2.84427e-09
-1.16164e-10
2.79634e-09
1.3211e-10
2.77009e-09
5.11568e-10
2.67153e-09
5.77212e-10
2.66898e-09
7.99364e-10
2.51844e-09
1.22942e-09
2.28876e-09
1.20293e-09
1.89917e-09
1.49655e-09
1.79084e-09
1.55032e-09
1.60965e-09
1.68075e-09
1.41871e-09
1.90368e-09
1.23328e-09
2.11921e-09
1.07658e-09
2.34757e-09
8.88495e-10
2.37006e-09
6.65364e-10
2.15988e-09
4.08149e-10
1.69405e-09
2.04948e-10
1.2906e-09
7.86716e-11
1.03994e-09
-1.84415e-11
8.37045e-10
-5.31681e-11
6.37354e-10
-4.68214e-11
4.96776e-10
1.82592e-11
3.44243e-10
8.96637e-11
2.42562e-10
1.36205e-10
1.84425e-10
1.92466e-10
1.29004e-10
2.11888e-10
1.75367e-11
1.67608e-10
-1.41218e-10
1.48219e-10
-3.96432e-10
1.21102e-10
-6.49243e-10
7.50346e-11
-8.88824e-10
3.4733e-16
4.10737e-10
-7.54058e-18
1.08369e-18
-7.34095e-18
2.40546e-21
-7.28348e-18
-2.48266e-19
-7.20037e-18
-6.22113e-19
-7.04575e-18
-1.04316e-18
-6.80738e-18
-1.47584e-18
-6.48582e-18
-1.89628e-18
-6.08788e-18
-2.28582e-18
-5.62373e-18
-2.63033e-18
-5.10557e-18
-2.91944e-18
-4.54677e-18
-3.14602e-18
-3.9612e-18
-3.30577e-18
-3.36273e-18
-3.39701e-18
-2.76475e-18
-3.4205e-18
-2.17966e-18
-3.37931e-18
-1.61858e-18
-3.27845e-18
-1.0911e-18
-3.12456e-18
-6.05089e-19
-2.92539e-18
-1.66492e-19
-2.68946e-18
2.20712e-19
-2.42561e-18
5.54317e-19
-2.14252e-18
8.33653e-19
-1.84836e-18
1.0594e-18
-1.55052e-18
1.23337e-18
-1.25542e-18
1.3583e-18
-9.68475e-19
1.43755e-18
-6.94055e-19
1.47481e-18
-4.35525e-19
1.47397e-18
-1.95319e-19
1.43899e-18
2.49346e-20
1.37382e-18
2.24269e-19
1.28233e-18
4.02234e-19
1.16825e-18
5.58772e-19
1.03507e-18
6.94106e-19
8.86033e-19
8.08653e-19
7.24135e-19
9.02937e-19
5.52156e-19
9.77515e-19
3.72732e-19
1.03291e-18
1.88405e-19
1.06958e-18
1.08781e-18
-1.44282e-10
2.07632e-09
-3.15022e-10
2.06055e-09
-5.02926e-10
2.04961e-09
-6.05506e-10
1.7659e-09
-5.7808e-10
1.41329e-09
-6.31076e-10
1.05381e-09
-7.58196e-10
7.69792e-10
-7.7495e-10
3.45754e-10
-7.08562e-10
4.88904e-11
-5.47388e-10
-2.85867e-10
-4.31265e-10
-9.66857e-10
-1.99416e-10
-1.21325e-09
-6.00015e-11
-1.6635e-09
2.08644e-11
-2.03039e-09
-1.49431e-12
-2.08168e-09
4.42778e-11
-1.98261e-09
1.05043e-10
-1.80884e-09
2.02537e-10
-1.73284e-09
3.12625e-10
-1.61771e-09
4.51361e-10
-1.53833e-09
5.94307e-10
-1.45883e-09
7.93077e-10
-1.34087e-09
8.2951e-10
-1.03765e-09
1.00789e-09
-8.59312e-10
1.12546e-09
-6.56934e-10
1.2462e-09
-6.30853e-10
1.34924e-09
-6.7126e-10
1.40931e-09
-7.30576e-10
1.38732e-09
-7.11151e-10
1.30773e-09
-6.79789e-10
1.16769e-09
-3.55463e-10
9.42506e-10
-3.78561e-10
8.98598e-10
-1.09659e-10
8.33998e-10
-2.0463e-10
8.7946e-10
-5.37238e-10
9.46365e-10
-6.08242e-10
1.05028e-09
-6.18597e-10
1.12782e-09
-6.4537e-10
1.25413e-09
-7.26004e-10
1.38109e-09
-7.76067e-10
1.62146e-09
-1.19457e-09
1.78979e-09
-9.35357e-10
1.9059e-09
-1.00079e-09
2.09552e-09
-1.08606e-09
2.08901e-09
-1.1493e-09
2.23686e-09
-1.10001e-09
2.39453e-09
-9.75548e-10
2.49425e-09
-7.24479e-10
2.5598e-09
-3.65487e-10
2.56315e-09
-1.69526e-10
2.51852e-09
-7.15323e-11
2.39813e-09
2.52508e-10
2.38408e-09
5.25617e-10
2.37382e-09
5.87475e-10
2.28088e-09
8.92308e-10
2.13521e-09
1.37509e-09
1.90788e-09
1.43026e-09
1.72545e-09
1.67898e-09
1.62553e-09
1.65024e-09
1.38179e-09
1.92449e-09
1.22034e-09
2.06513e-09
1.08258e-09
2.25698e-09
9.48277e-10
2.48187e-09
8.03133e-10
2.5152e-09
5.93998e-10
2.36902e-09
3.47566e-10
1.94048e-09
1.1214e-10
1.52603e-09
-7.19599e-11
1.22404e-09
-1.79807e-10
9.44893e-10
-2.13785e-10
6.71332e-10
-1.86234e-10
4.69225e-10
-6.15022e-11
2.19512e-10
7.61782e-11
1.04881e-10
1.94362e-10
6.62413e-11
2.86044e-10
3.7321e-11
3.19286e-10
-1.57061e-11
3.53592e-10
-1.75525e-10
2.93814e-10
-3.36656e-10
9.23771e-11
-4.47807e-10
1.11694e-11
-8.07618e-10
3.34709e-16
4.21905e-10
-7.39955e-18
1.90302e-18
-7.59066e-18
1.93136e-19
-7.65642e-18
-1.83282e-19
-7.62086e-18
-6.58377e-19
-7.47842e-18
-1.18609e-18
-7.22782e-18
-1.72667e-18
-6.87537e-18
-2.24862e-18
-6.43238e-18
-2.7283e-18
-5.91284e-18
-3.1489e-18
-5.33215e-18
-3.49868e-18
-4.70652e-18
-3.76982e-18
-4.05244e-18
-3.95778e-18
-3.38623e-18
-4.06106e-18
-2.72355e-18
-4.08106e-18
-2.07881e-18
-4.02194e-18
-1.46468e-18
-3.89037e-18
-8.9193e-19
-3.69496e-18
-3.69162e-19
-3.44574e-18
9.73651e-20
-3.15353e-18
5.03804e-19
-2.82945e-18
8.48471e-19
-2.48435e-18
1.13149e-18
-2.12831e-18
1.35449e-18
-1.77027e-18
1.52031e-18
-1.4179e-18
1.63272e-18
-1.07747e-18
1.69608e-18
-7.53928e-19
1.71501e-18
-4.50936e-19
1.69423e-18
-1.71028e-19
1.63833e-18
8.42357e-20
1.55179e-18
3.14074e-19
1.43887e-18
5.18302e-19
1.30358e-18
6.97166e-19
1.14961e-18
8.51207e-19
9.80317e-19
9.81144e-19
7.98714e-19
1.08778e-18
6.07556e-19
1.17193e-18
4.09394e-19
1.23431e-18
2.06643e-19
1.27553e-18
1.29601e-18
-1.71126e-10
2.24745e-09
-3.02058e-10
2.19148e-09
-3.91489e-10
2.13904e-09
-4.87016e-10
1.86142e-09
-5.34775e-10
1.46104e-09
-5.63159e-10
1.08219e-09
-5.65497e-10
7.72127e-10
-6.44722e-10
4.24977e-10
-6.64238e-10
6.84038e-11
-4.16408e-10
-5.33699e-10
-4.06673e-10
-9.76594e-10
-2.34288e-10
-1.38564e-09
-1.22552e-10
-1.77524e-09
-9.13949e-11
-2.06154e-09
-5.92565e-11
-2.11382e-09
-5.42588e-11
-1.98761e-09
-3.72948e-11
-1.8258e-09
-1.91564e-11
-1.75098e-09
5.69413e-11
-1.69381e-09
2.09906e-10
-1.69129e-09
3.98077e-10
-1.647e-09
6.80382e-10
-1.62317e-09
1.05914e-09
-1.41641e-09
1.19389e-09
-9.94061e-10
1.20096e-09
-6.64003e-10
1.23645e-09
-6.66342e-10
1.23025e-09
-6.65062e-10
1.16802e-09
-6.68343e-10
1.02603e-09
-5.69157e-10
7.60286e-10
-4.14046e-10
6.31736e-10
-2.26913e-10
4.1561e-10
-1.62434e-10
5.53636e-10
-2.47684e-10
6.13503e-10
-2.64496e-10
5.7116e-10
-4.94894e-10
6.43599e-10
-6.8068e-10
7.71918e-10
-7.46914e-10
8.93838e-10
-7.67289e-10
1.06312e-09
-8.9529e-10
1.09378e-09
-8.06718e-10
1.18867e-09
-1.28945e-09
1.58726e-09
-1.33394e-09
1.73291e-09
-1.14643e-09
1.81396e-09
-1.16711e-09
1.87563e-09
-1.21097e-09
1.90873e-09
-1.1331e-09
2.06099e-09
-1.12781e-09
2.10899e-09
-7.72475e-10
2.10838e-09
-3.64883e-10
2.1109e-09
-1.72045e-10
1.91802e-09
1.21356e-10
1.94368e-09
2.26845e-10
2.01904e-09
4.50259e-10
1.94604e-09
6.60481e-10
1.76963e-09
1.06871e-09
1.89855e-09
1.24617e-09
1.86826e-09
1.46055e-09
1.77005e-09
1.77719e-09
1.49151e-09
1.92878e-09
1.33603e-09
2.07996e-09
1.18735e-09
2.21381e-09
1.02151e-09
2.42282e-09
8.42077e-10
2.6613e-09
6.10121e-10
2.74716e-09
4.42954e-10
2.53619e-09
2.96711e-10
2.08672e-09
5.88864e-11
1.76385e-09
-1.51068e-10
1.434e-09
-3.01017e-10
1.09484e-09
-3.62079e-10
7.32394e-10
-2.93671e-10
4.00817e-10
-1.44595e-10
7.04351e-11
5.02821e-11
-8.99962e-11
1.95856e-10
-7.93332e-11
3.06309e-10
-7.31317e-11
3.61257e-10
-7.06548e-11
3.25055e-10
-1.39324e-10
1.97947e-10
-2.09548e-10
2.99293e-11
-2.7979e-10
8.24726e-12
-7.85937e-10
1.55108e-16
4.30152e-10
-7.59601e-18
3.33571e-18
-7.96608e-18
5.6277e-19
-8.13058e-18
-1.94966e-20
-8.1481e-18
-6.41556e-19
-8.01901e-18
-1.3157e-18
-7.74976e-18
-1.99621e-18
-7.35505e-18
-2.64338e-18
-6.85298e-18
-3.23008e-18
-6.26263e-18
-3.73851e-18
-5.60329e-18
-4.15674e-18
-4.89448e-18
-4.47689e-18
-4.15572e-18
-4.69446e-18
-3.40623e-18
-4.8083e-18
-2.66443e-18
-4.8206e-18
-1.94723e-18
-4.73695e-18
-1.26928e-18
-4.56606e-18
-6.42703e-19
-4.31913e-18
-7.69521e-20
-4.00902e-18
4.21439e-19
-3.64951e-18
8.48901e-19
-3.25453e-18
1.20452e-18
-2.83748e-18
1.48953e-18
-2.41064e-18
1.70687e-18
-1.98475e-18
1.86074e-18
-1.56877e-18
1.95627e-18
-1.16988e-18
1.99907e-18
-7.93487e-19
1.99492e-18
-4.43441e-19
1.94949e-18
-1.22206e-19
1.86817e-18
1.68898e-19
1.75601e-18
4.29448e-19
1.61773e-18
6.59685e-19
1.45762e-18
8.60307e-19
1.27955e-18
1.0323e-18
1.08696e-18
1.1768e-18
8.82858e-19
1.29498e-18
6.69937e-19
1.38796e-18
4.50613e-19
1.45673e-18
2.27124e-19
1.5021e-18
1.52461e-18
-2.83403e-11
2.27579e-09
-1.96088e-10
2.35923e-09
-2.82194e-10
2.22514e-09
-3.55018e-10
1.93425e-09
-4.39723e-10
1.54575e-09
-5.15414e-10
1.15788e-09
-4.90218e-10
7.46929e-10
-4.4364e-10
3.78395e-10
-4.88147e-10
1.12909e-10
-3.04343e-10
-7.17505e-10
-2.38695e-10
-1.04224e-09
-1.61362e-10
-1.46297e-09
-1.35503e-10
-1.8011e-09
-1.25136e-10
-2.07191e-09
-1.63328e-10
-2.07563e-09
-1.99009e-10
-1.95193e-09
-1.97092e-10
-1.82772e-09
-2.04094e-10
-1.74398e-09
-1.54422e-10
-1.74348e-09
-5.31005e-12
-1.84041e-09
2.96567e-10
-1.94888e-09
5.25348e-10
-1.85196e-09
7.55372e-10
-1.64644e-09
9.67869e-10
-1.20656e-09
1.00978e-09
-7.05914e-10
9.90424e-10
-6.46987e-10
8.89671e-10
-5.64309e-10
7.20218e-10
-4.98889e-10
5.75778e-10
-4.24717e-10
3.95394e-10
-2.33661e-10
3.07231e-10
-1.38749e-10
2.69684e-10
-1.24885e-10
2.64584e-10
-2.42584e-10
4.11375e-10
-4.11285e-10
5.42616e-10
-6.26134e-10
6.10722e-10
-7.48784e-10
6.58544e-10
-7.94735e-10
6.63853e-10
-7.72597e-10
7.4303e-10
-9.74466e-10
1.02001e-09
-1.0837e-09
7.85717e-10
-1.05515e-09
7.65625e-10
-1.31385e-09
1.04454e-09
-1.42535e-09
1.303e-09
-1.42558e-09
1.44956e-09
-1.35752e-09
1.57488e-09
-1.25843e-09
1.64113e-09
-1.19405e-09
1.73996e-09
-8.71306e-10
1.75594e-09
-3.80856e-10
1.668e-09
-8.41054e-11
1.56111e-09
2.28249e-10
1.62444e-09
1.63522e-10
1.59982e-09
4.7488e-10
1.47211e-09
7.8819e-10
1.47388e-09
1.06694e-09
1.35803e-09
1.36203e-09
9.82733e-10
1.83585e-09
8.94104e-10
1.86582e-09
9.82437e-10
1.84045e-09
1.03446e-09
2.02794e-09
9.89609e-10
2.25866e-09
8.81645e-10
2.53079e-09
7.30962e-10
2.81198e-09
6.15537e-10
2.86259e-09
3.40207e-10
2.81152e-09
5.83296e-11
2.3686e-09
-9.17592e-11
1.91394e-09
-2.14241e-10
1.55648e-09
-3.01416e-10
1.18202e-09
-3.74839e-10
8.05817e-10
-3.62628e-10
3.88607e-10
-1.92364e-10
-9.98288e-11
2.38106e-11
-3.0617e-10
1.8931e-10
-2.44833e-10
3.09573e-10
-1.93394e-10
3.65373e-10
-1.26455e-10
3.99339e-10
-1.73291e-10
4.71943e-10
-2.82152e-10
4.96038e-10
-3.03886e-10
2.5257e-10
-5.42469e-10
-2.60192e-16
6.82722e-10
-8.49038e-18
2.89651e-18
-8.54727e-18
6.19249e-19
-8.75168e-18
1.8454e-19
-8.82187e-18
-5.71875e-19
-8.69952e-18
-1.43844e-18
-8.39693e-18
-2.29909e-18
-7.94175e-18
-3.09874e-18
-7.36141e-18
-3.81037e-18
-6.68086e-18
-4.41862e-18
-5.92344e-18
-4.91318e-18
-5.11205e-18
-5.28676e-18
-4.26956e-18
-5.53501e-18
-3.41853e-18
-5.65708e-18
-2.58079e-18
-5.65604e-18
-1.77635e-18
-5.53921e-18
-1.02234e-18
-5.31786e-18
-3.32595e-19
-5.00648e-18
2.82557e-19
-4.62167e-18
8.16419e-19
-4.18095e-18
1.26595e-18
-3.70176e-18
1.63136e-18
-3.20062e-18
1.91542e-18
-2.69235e-18
2.12284e-18
-2.18967e-18
2.25964e-18
-1.70292e-18
2.33266e-18
-1.24009e-18
2.34911e-18
-8.0695e-19
2.31616e-18