/*--------------------------------*- C++ -*----------------------------------*\
  =========                 |
  \\      /  F ield         | OpenFOAM: The Open Source CFD Toolbox
   \\    /   O peration     | Website:  https://openfoam.org
    \\  /    A nd           | Version:  6
     \\/     M anipulation  |
\*---------------------------------------------------------------------------*/
FoamFile
{
    version     2.0;
    format      ascii;
    class       volVectorField;
    location    "3650";
    object      U;
}
// * * * * * * * * * * * * * * * * * * * * * * * * * * * * * * * * * * * * * //

dimensions      [0 1 -1 0 0 0 0];

internalField   nonuniform List<vector> 
4800
(
(4.55783e-05 0 8.04571e-05)
(-0.000300281 0 -2.39472e-05)
(-0.00033979 0 5.87529e-05)
(-0.000500025 0 -0.000143397)
(-0.000631636 0 -1.33419e-05)
(-0.00073515 0 3.62624e-05)
(-0.000836158 0 5.20762e-05)
(-0.000915386 0 -1.48933e-05)
(-0.000953494 0 -3.08485e-06)
(-0.000963124 0 -3.7146e-05)
(-0.000968945 0 -4.8171e-05)
(-0.000949945 0 -4.52827e-05)
(-0.000773187 0 -8.1438e-05)
(-0.000605437 0 -8.19637e-05)
(-0.000464495 0 -0.000103142)
(-0.00035272 0 -6.18688e-05)
(-0.000237163 0 -6.95151e-06)
(-0.000132109 0 -1.33539e-05)
(4.63772e-05 0 -0.000166462)
(0.000194146 0 -5.95048e-05)
(0.000279863 0 2.60061e-05)
(0.000303102 0 -0.000144688)
(0.00039546 0 -0.000189817)
(0.000537123 0 -0.00015793)
(0.000653263 0 -7.89074e-05)
(0.000689183 0 -8.13039e-05)
(0.000711655 0 -6.02464e-05)
(0.000730214 0 -8.67239e-05)
(0.000751267 0 -8.25591e-05)
(0.000795616 0 -0.000144899)
(0.000881674 0 -0.000122535)
(0.00088772 0 -8.42993e-05)
(0.000896084 0 -8.75976e-05)
(0.000939687 0 -8.00178e-05)
(0.000996341 0 4.37817e-05)
(0.000997828 0 -7.93841e-05)
(0.00101964 0 -0.000105777)
(0.00109717 0 -7.86945e-06)
(0.00118975 0 3.78032e-05)
(0.00121294 0 -7.73634e-05)
(0.00124221 0 -9.89436e-05)
(0.00132014 0 6.62489e-06)
(0.00139529 0 -0.000154209)
(0.00139696 0 -0.00013585)
(0.00142477 0 -9.67514e-05)
(0.00149664 0 -1.53557e-06)
(0.00152515 0 -0.000117805)
(0.00154731 0 -8.51982e-05)
(0.00160498 0 -7.47207e-05)
(0.00164061 0 -5.09895e-05)
(0.00163125 0 -5.87467e-05)
(0.00161339 0 -3.20893e-05)
(0.00159363 0 -1.75329e-05)
(0.00156402 0 -3.65808e-06)
(0.00151217 0 2.39796e-05)
(0.0014566 0 -4.42492e-05)
(0.00140018 0 5.70584e-05)
(0.00132991 0 9.87954e-05)
(0.00121739 0 -0.000230323)
(0.00110675 0 -1.18506e-05)
(0.000977702 0 5.75286e-05)
(0.000648491 0 -0.000388737)
(0.000514475 0 -0.00040552)
(0.00040105 0 -0.000217812)
(0.000305417 0 -4.14847e-05)
(0.000245254 0 5.75682e-05)
(0.000175721 0 1.70591e-05)
(9.7641e-05 0 -8.37881e-05)
(-1.47488e-06 0 2.49252e-05)
(-7.75684e-05 0 3.02387e-05)
(-0.000116254 0 6.23039e-06)
(-0.000154866 0 3.48625e-05)
(-0.000183277 0 1.39769e-05)
(-0.000205351 0 -1.16703e-05)
(-0.000221528 0 -3.06987e-05)
(-0.000226365 0 -3.69509e-05)
(-0.000210363 0 -5.00504e-05)
(-0.000206741 0 -6.46307e-05)
(-0.000234311 0 -0.000176814)
(-0.000476039 0 -0.000151555)
(9.09318e-06 0 2.43088e-05)
(-1.58895e-12 0 2.19703e-13)
(-3.44156e-12 0 3.96247e-14)
(-2.44376e-12 0 5.80174e-16)
(-2.42846e-12 0 -1.59425e-14)
(-2.38471e-12 0 -2.78432e-14)
(-2.31835e-12 0 -3.83704e-14)
(-2.23169e-12 0 -4.8153e-14)
(-2.12622e-12 0 -5.71418e-14)
(-2.00373e-12 0 -6.51558e-14)
(-1.86636e-12 0 -7.20056e-14)
(-1.71658e-12 0 -7.75312e-14)
(-1.55716e-12 0 -8.16184e-14)
(-1.39101e-12 0 -8.42042e-14)
(-1.2211e-12 0 -8.52786e-14)
(-1.05042e-12 0 -8.48801e-14)
(-8.81807e-13 0 -8.30909e-14)
(-7.17935e-13 0 -8.00291e-14)
(-5.61212e-13 0 -7.5842e-14)
(-4.13735e-13 0 -7.06974e-14)
(-2.77258e-13 0 -6.47747e-14)
(-1.53177e-13 0 -5.82566e-14)
(-4.25186e-14 0 -5.13236e-14)
(5.4044e-14 0 -4.41488e-14)
(1.36171e-13 0 -3.68933e-14)
(2.03818e-13 0 -2.97004e-14)
(2.57208e-13 0 -2.26916e-14)
(2.96792e-13 0 -1.59652e-14)
(3.23226e-13 0 -9.59932e-15)
(3.37331e-13 0 -3.65548e-15)
(3.40046e-13 0 1.81762e-15)
(3.32387e-13 0 6.78223e-15)
(3.1541e-13 0 1.12107e-14)
(2.90188e-13 0 1.50854e-14)
(2.57799e-13 0 1.8398e-14)
(2.19331e-13 0 2.11478e-14)
(1.75873e-13 0 2.33398e-14)
(1.28517e-13 0 2.49844e-14)
(7.83363e-14 0 2.61031e-14)
(2.63363e-14 0 2.67572e-14)
(-4.50257e-05 0 0.000225115)
(-0.000200505 0 0.000239072)
(-0.000338962 0 0.000230494)
(-0.000522363 0 0.000220719)
(-0.000585371 0 0.000281513)
(-0.000705961 0 0.000119821)
(-0.000774563 0 0.000127921)
(-0.000836267 0 0.000122265)
(-0.000862787 0 8.576e-05)
(-0.000851132 0 -1.2493e-05)
(-0.000844956 0 -3.21292e-05)
(-0.00084841 0 -8.38378e-05)
(-0.000689495 0 -0.000306227)
(-0.000534909 0 -0.000283979)
(-0.000422874 0 -0.000209536)
(-0.000308464 0 -0.00016211)
(-0.000147171 0 -0.00024002)
(-1.48206e-05 0 -0.000235925)
(6.3634e-05 0 -0.000213321)
(0.000215245 0 -0.00016099)
(0.000312439 0 -6.2702e-05)
(0.000386499 0 -6.02899e-05)
(0.000471121 0 -0.000117578)
(0.000576551 0 -9.1246e-05)
(0.000638984 0 -6.67673e-05)
(0.000667469 0 -3.36443e-05)
(0.000698165 0 -6.93527e-05)
(0.000735754 0 0.000102128)
(0.000759664 0 -3.97513e-05)
(0.000819159 0 -8.90918e-05)
(0.000912413 0 0.000150212)
(0.000963389 0 2.65067e-06)
(0.00098746 0 -7.37825e-05)
(0.00102707 0 -8.59547e-06)
(0.00104137 0 -2.11162e-06)
(0.00105705 0 -5.36206e-05)
(0.0010983 0 -7.68027e-05)
(0.00114911 0 2.73691e-05)
(0.00119469 0 -7.15007e-05)
(0.00124085 0 -6.5768e-05)
(0.00126946 0 -3.73925e-05)
(0.00131308 0 -0.000131078)
(0.00140177 0 0.000148237)
(0.00144705 0 -4.1994e-05)
(0.00144212 0 -4.24191e-05)
(0.00146438 0 3.08654e-05)
(0.00150179 0 -7.38954e-05)
(0.00153913 0 -9.6533e-05)
(0.00158416 0 1.73471e-06)
(0.00162337 0 -4.00026e-05)
(0.00164937 0 2.28735e-05)
(0.00164509 0 4.03313e-05)
(0.00162162 0 6.26091e-05)
(0.00157565 0 0.000110051)
(0.00153089 0 1.23095e-05)
(0.00147983 0 9.21502e-05)
(0.00139636 0 0.000117136)
(0.00132782 0 7.1476e-07)
(0.00122153 0 0.000326653)
(0.00113062 0 8.15598e-05)
(0.000986225 0 0.000128823)
(0.000898442 0 0.000413519)
(0.000820039 0 0.000455371)
(0.000537893 0 0.00034773)
(0.000250429 0 0.000200427)
(0.000207832 0 0.00010022)
(0.000167949 0 9.42384e-05)
(0.000126583 0 0.0001327)
(3.61318e-05 0 0.000118874)
(-2.98623e-05 0 0.00010482)
(-7.47388e-05 0 4.97565e-05)
(-0.000134493 0 8.85764e-06)
(-0.000145746 0 2.04383e-05)
(-0.000153974 0 1.71157e-05)
(-0.000143552 0 2.89346e-05)
(-0.000128572 0 3.18012e-05)
(-0.000122996 0 5.56231e-05)
(-0.000178803 0 1.68024e-05)
(0.00027416 0 -0.000179259)
(-0.000354533 0 -0.000159157)
(9.13929e-06 0 4.07504e-05)
(-1.67297e-12 0 5.93487e-14)
(-3.63893e-12 0 3.51866e-15)
(-2.50003e-12 0 -2.10224e-14)
(-2.45706e-12 0 -5.26587e-14)
(-2.40696e-12 0 -8.47963e-14)
(-2.33866e-12 0 -1.15782e-13)
(-2.25046e-12 0 -1.45172e-13)
(-2.14323e-12 0 -1.7231e-13)
(-2.01859e-12 0 -1.96525e-13)
(-1.87873e-12 0 -2.17208e-13)
(-1.7262e-12 0 -2.33865e-13)
(-1.56384e-12 0 -2.46149e-13)
(-1.39467e-12 0 -2.53875e-13)
(-1.22178e-12 0 -2.5702e-13)
(-1.04823e-12 0 -2.55708e-13)
(-8.76956e-13 0 -2.50192e-13)
(-7.10686e-13 0 -2.40835e-13)
(-5.5188e-13 0 -2.28089e-13)
(-4.02667e-13 0 -2.12464e-13)
(-2.64817e-13 0 -1.94508e-13)
(-1.39726e-13 0 -1.74776e-13)
(-2.84108e-14 0 -1.53819e-13)
(6.84742e-14 0 -1.32159e-13)
(1.50619e-13 0 -1.10276e-13)
(2.1802e-13 0 -8.85907e-14)
(2.70943e-13 0 -6.74601e-14)
(3.09884e-13 0 -4.71775e-14)
(3.35536e-13 0 -2.79827e-14)
(3.48748e-13 0 -1.00702e-14)
(3.50483e-13 0 6.40493e-15)
(3.4178e-13 0 2.13253e-14)
(3.23713e-13 0 3.4611e-14)
(2.97375e-13 0 4.62168e-14)
(2.63862e-13 0 5.61272e-14)
(2.24273e-13 0 6.43479e-14)
(1.7971e-13 0 7.08976e-14)
(1.3128e-13 0 7.58023e-14)
(8.01091e-14 0 7.9097e-14)
(2.69905e-14 0 8.08421e-14)
(-4.92617e-05 0 0.000327908)
(-0.000145725 0 0.000346613)
(-0.000202112 0 0.000410018)
(-0.000463996 0 0.000338329)
(-0.000577596 0 0.000276521)
(-0.000645438 0 0.000225028)
(-0.00070928 0 0.000147656)
(-0.000750461 0 9.91702e-05)
(-0.000768616 0 6.88306e-05)
(-0.000716811 0 -0.000104774)
(-0.000672208 0 -7.88287e-05)
(-0.000666612 0 -7.80166e-05)
(-0.000574275 0 -0.00031808)
(-0.000453784 0 -0.000372273)
(-0.000389394 0 -0.000294776)
(-0.000106057 0 -0.000418468)
(-0.000149658 0 -0.000342729)
(0.000134177 0 -0.000364951)
(0.000129994 0 -0.000293298)
(0.000168825 0 -0.000305514)
(0.000315036 0 -0.000237434)
(0.000332885 0 -0.000284988)
(0.000413651 0 -0.000303229)
(0.000535983 0 -0.00019518)
(0.000573752 0 -0.000135602)
(0.000591391 0 -0.000119279)
(0.000605638 0 -8.21036e-05)
(0.000655477 0 6.09325e-06)
(0.000643825 0 -0.000247539)
(0.000734555 0 -0.000289105)
(0.000859196 0 -0.000162221)
(0.000883009 0 -0.000120135)
(0.000910739 0 -9.4414e-05)
(0.0009702 0 -3.18213e-05)
(0.0009952 0 -9.1905e-05)
(0.0010131 0 -8.47352e-05)
(0.00106223 0 -3.87175e-05)
(0.00110593 0 -0.000198493)
(0.00115237 0 -0.00028196)
(0.00121467 0 -0.000170769)
(0.00123822 0 -0.000200332)
(0.00127734 0 -0.000183167)
(0.00135938 0 -1.30119e-05)
(0.00139336 0 -0.000184621)
(0.00139669 0 -0.000195848)
(0.00141506 0 -0.000169986)
(0.00145787 0 -0.000135779)
(0.00150098 0 -0.00015001)
(0.00155096 0 -8.94258e-05)
(0.0015729 0 -2.75857e-05)
(0.00158451 0 -1.32173e-05)
(0.0015878 0 5.40151e-05)
(0.00157565 0 6.65314e-05)
(0.00152648 0 0.000106463)
(0.00143393 0 0.000184536)
(0.00140348 0 0.000174118)
(0.00135354 0 0.00016689)
(0.00126748 0 0.000152165)
(0.00118991 0 0.000246073)
(0.00111301 0 0.000268499)
(0.000966852 0 0.000408576)
(0.000874204 0 0.000447516)
(0.000732595 0 0.000509762)
(0.000421968 0 0.000515174)
(0.000251977 0 0.000314932)
(0.000203037 0 0.000160333)
(0.000157192 0 0.000153338)
(0.000111097 0 0.000181941)
(6.0354e-05 0 0.000183134)
(1.00892e-05 0 0.00015326)
(-1.14196e-05 0 0.000109666)
(-7.47507e-05 0 9.24674e-05)
(-0.000122616 0 5.47313e-05)
(-0.000126922 0 3.13939e-05)
(-0.000135723 0 7.60345e-06)
(-0.000124282 0 -1.18614e-05)
(-0.00011428 0 -1.10104e-05)
(-0.000115706 0 -0.000104246)
(1.19137e-05 0 -0.000270512)
(-0.000569038 0 -0.000221679)
(1.02888e-05 0 0.000156461)
(-1.85474e-12 0 1.80739e-13)
(-3.44856e-12 0 1.39343e-14)
(-2.5003e-12 0 -3.57509e-14)
(-2.49207e-12 0 -8.90925e-14)
(-2.4475e-12 0 -1.42674e-13)
(-2.37873e-12 0 -1.94755e-13)
(-2.28822e-12 0 -2.44399e-13)
(-2.17758e-12 0 -2.90336e-13)
(-2.04863e-12 0 -3.31339e-13)
(-1.9037e-12 0 -3.66328e-13)
(-1.74552e-12 0 -3.94443e-13)
(-1.57717e-12 0 -4.15093e-13)
(-1.40188e-12 0 -4.27974e-13)
(-1.22294e-12 0 -4.33056e-13)
(-1.04359e-12 0 -4.30564e-13)
(-8.66934e-13 0 -4.20946e-13)
(-6.95832e-13 0 -4.04835e-13)
(-5.32841e-13 0 -3.83009e-13)
(-3.80153e-13 0 -3.56353e-13)
(-2.3957e-13 0 -3.25804e-13)
(-1.12488e-13 0 -2.92316e-13)
(9.85712e-17 0 -2.56819e-13)
(9.7587e-14 0 -2.20195e-13)
(1.79739e-13 0 -1.83246e-13)
(2.46634e-13 0 -1.46677e-13)
(2.98621e-13 0 -1.11086e-13)
(3.36269e-13 0 -7.69694e-14)
(3.60334e-13 0 -4.47322e-14)
(3.71718e-13 0 -1.47015e-14)
(3.71441e-13 0 1.28679e-14)
(3.60593e-13 0 3.77903e-14)
(3.40302e-13 0 5.99466e-14)
(3.11704e-13 0 7.92768e-14)
(2.75931e-13 0 9.57676e-14)
(2.34102e-13 0 1.09438e-13)
(1.87328e-13 0 1.20321e-13)
(1.36716e-13 0 1.28456e-13)
(8.33761e-14 0 1.33875e-13)
(2.80815e-14 0 1.36585e-13)
(-0.000129761 0 0.00043512)
(-0.000440348 0 0.000274463)
(-0.00043418 0 0.00033848)
(-0.000353504 0 0.000494627)
(-0.000490245 0 0.000390778)
(-0.000560702 0 0.000289652)
(-0.00059283 0 0.000227248)
(-0.000611607 0 0.000165607)
(-0.000625513 0 0.000114054)
(-0.000611387 0 -8.61254e-05)
(-0.000540385 0 -0.000208283)
(-0.000513124 0 -0.000232224)
(-0.000438097 0 -0.000354337)
(-0.000386899 0 -0.000438052)
(-0.000307933 0 -0.000500558)
(0.0001186 0 -0.000571484)
(4.85267e-05 0 -0.00046798)
(7.54676e-05 0 -0.000418331)
(0.000206532 0 -0.000394139)
(0.000305865 0 -0.000339968)
(0.00035043 0 -0.000316864)
(0.000418119 0 -0.000281893)
(0.000471762 0 -0.000270976)
(0.000509996 0 -0.000213325)
(0.000517336 0 -0.000178214)
(0.00053332 0 -0.000120778)
(0.000535374 0 -0.000112404)
(0.000569025 0 -7.64309e-05)
(0.00061968 0 -0.000193691)
(0.000727045 0 -0.00012786)
(0.000765061 0 -0.000159685)
(0.000775618 0 -0.000187854)
(0.00080515 0 -0.000182711)
(0.000866706 0 -1.98728e-05)
(0.00092372 0 -4.56308e-05)
(0.000956395 0 -0.000183546)
(0.00101419 0 -0.000186362)
(0.00106752 0 -0.000117661)
(0.00106899 0 -0.00011015)
(0.00107165 0 -0.000109626)
(0.00108971 0 -0.000129694)
(0.00112616 0 -0.000152923)
(0.00119554 0 -2.38284e-06)
(0.0012423 0 -0.000160031)
(0.00128426 0 -0.000141737)
(0.0013279 0 -0.000118424)
(0.00141549 0 -0.00015323)
(0.00145264 0 -0.000122558)
(0.00144208 0 -9.45157e-05)
(0.00144579 0 -7.71427e-05)
(0.00146268 0 -6.05267e-05)
(0.00148775 0 5.18374e-05)
(0.00147886 0 0.000101577)
(0.00142113 0 0.000199136)
(0.00137046 0 -7.26161e-05)
(0.00128933 0 0.000261002)
(0.00119655 0 0.000289354)
(0.00117275 0 -1.86205e-05)
(0.00110962 0 0.000354439)
(0.00105269 0 0.000401047)
(0.000984344 0 0.000330894)
(0.000770782 0 0.000534813)
(0.000606563 0 0.000666406)
(0.000487093 0 0.000627314)
(0.000411185 0 0.000407161)
(0.000256401 0 0.000234791)
(0.000172158 0 0.000198398)
(0.000115212 0 0.000211369)
(7.48831e-05 0 0.000213078)
(5.97136e-05 0 0.000185176)
(2.00781e-05 0 0.000151982)
(-4.03847e-05 0 0.000125373)
(-5.02495e-05 0 9.37178e-05)
(-0.000102585 0 1.09319e-05)
(-0.000119716 0 -1.22859e-07)
(-0.000106871 0 -3.36316e-07)
(-6.69901e-05 0 -1.57047e-05)
(-0.000133924 0 -0.000107505)
(0.000363691 0 -0.000281502)
(-0.000515323 0 -0.000297882)
(1.02709e-05 0 0.000135414)
(-1.95126e-12 0 3.8445e-13)
(-3.72408e-12 0 4.1601e-14)
(-2.60235e-12 0 -4.68397e-14)
(-2.5633e-12 0 -1.2532e-13)
(-2.5123e-12 0 -2.01798e-13)
(-2.44039e-12 0 -2.76228e-13)
(-2.34604e-12 0 -3.47379e-13)
(-2.23017e-12 0 -4.13322e-13)
(-2.09459e-12 0 -4.72182e-13)
(-1.94183e-12 0 -5.22336e-13)
(-1.77496e-12 0 -5.62521e-13)
(-1.59737e-12 0 -5.91884e-13)
(-1.41263e-12 0 -6.09998e-13)
(-1.22437e-12 0 -6.1684e-13)
(-1.03612e-12 0 -6.12762e-13)
(-8.51226e-13 0 -5.98441e-13)
(-6.72749e-13 0 -5.74819e-13)
(-5.03398e-13 0 -5.43047e-13)
(-3.45462e-13 0 -5.04424e-13)
(-2.0078e-13 0 -4.60324e-13)
(-7.07403e-14 0 -4.12129e-13)
(4.37105e-14 0 -3.61181e-13)
(1.42048e-13 0 -3.08739e-13)
(2.24137e-13 0 -2.55954e-13)
(2.9018e-13 0 -2.03835e-13)
(3.4065e-13 0 -1.53242e-13)
(3.76238e-13 0 -1.04878e-13)
(3.97804e-13 0 -5.93061e-14)
(4.06348e-13 0 -1.69652e-14)
(4.02975e-13 0 2.18173e-14)
(3.88859e-13 0 5.68131e-14)
(3.652e-13 0 8.78822e-14)
(3.33196e-13 0 1.14961e-13)
(2.94023e-13 0 1.38043e-13)
(2.48826e-13 0 1.57162e-13)
(1.98729e-13 0 1.7237e-13)
(1.44834e-13 0 1.83723e-13)
(8.82374e-14 0 1.91268e-13)
(2.97004e-14 0 1.95035e-13)
(-7.53088e-05 0 0.000621248)
(-0.000181781 0 0.000580485)
(-0.000257512 0 0.000556995)
(-0.000398132 0 0.000487562)
(-0.000453753 0 0.000430452)
(-0.000516816 0 0.000275964)
(-0.00044453 0 0.000252859)
(-0.000473582 0 9.82841e-05)
(-0.000470785 0 3.38308e-05)
(-0.000482608 0 -6.33703e-05)
(-0.000459365 0 -0.000168191)
(-0.000458793 0 -0.000194368)
(-0.000260189 0 -0.000491585)
(-0.000215651 0 -0.000608956)
(-0.000103747 0 -0.000668587)
(-6.33631e-05 0 -0.000618653)
(0.000134844 0 -0.000561908)
(0.000170792 0 -0.000480472)
(0.000194734 0 -0.000459156)
(0.000318596 0 -0.000399408)
(0.000363709 0 -0.000376019)
(0.000407771 0 -0.00035393)
(0.000475639 0 -0.000288233)
(0.000491373 0 -0.000253137)
(0.000498114 0 -0.000177606)
(0.000506209 0 -0.000112133)
(0.000531726 0 -7.3082e-05)
(0.000531895 0 -0.00019895)
(0.00063325 0 -0.000166162)
(0.000652021 0 -0.000311043)
(0.000700146 0 -0.000219246)
(0.000720178 0 -0.000202396)
(0.000748396 0 -0.000167818)
(0.000777582 0 -0.000142421)
(0.000836178 0 -0.000104721)
(0.000898738 0 -0.000147287)
(0.000905458 0 -0.000155401)
(0.00088446 0 -0.000190502)
(0.000882289 0 -0.000219771)
(0.000903226 0 -0.00020672)
(0.000927927 0 -0.000259043)
(0.000992958 0 -0.000274602)
(0.00104967 0 -0.000267352)
(0.00112255 0 -0.000163188)
(0.00115574 0 -0.00024094)
(0.00119632 0 -0.00022072)
(0.0013069 0 -6.01228e-06)
(0.00138212 0 -0.000158623)
(0.00137455 0 -0.000162201)
(0.00137433 0 -7.99167e-05)
(0.00137489 0 -6.62191e-05)
(0.00138418 0 6.70534e-05)
(0.00137091 0 0.000169364)
(0.00134861 0 0.000116799)
(0.00128995 0 0.000282983)
(0.00121803 0 0.000341676)
(0.00115005 0 0.000108692)
(0.00106351 0 0.000282032)
(0.000885374 0 0.000636961)
(0.000871739 0 0.000608484)
(0.000795634 0 0.000572562)
(0.0006584 0 0.00069486)
(0.000630103 0 0.000736608)
(0.00060026 0 0.000707793)
(0.00048297 0 0.000560362)
(0.000265511 0 0.000374167)
(0.000166807 0 0.000286532)
(0.000113613 0 0.000263031)
(7.00994e-05 0 0.000242901)
(5.24423e-05 0 0.000215172)
(2.65661e-05 0 0.000195908)
(-9.21966e-06 0 0.000167821)
(-3.36429e-05 0 0.000120203)
(-3.89352e-05 0 6.9725e-05)
(-8.64787e-05 0 1.36407e-05)
(-8.67436e-05 0 -1.65998e-05)
(-5.44716e-06 0 -9.17351e-05)
(-0.000192002 0 -0.000176554)
(0.000261919 0 -0.000296485)
(-0.000645985 0 -0.000276101)
(1.07346e-05 0 0.000147169)
(-2.07709e-12 0 2.79562e-13)
(-3.68665e-12 0 1.19174e-14)
(-2.6665e-12 0 -6.79241e-14)
(-2.64636e-12 0 -1.63566e-13)
(-2.5981e-12 0 -2.62722e-13)
(-2.52431e-12 0 -3.61027e-13)
(-2.42531e-12 0 -4.5559e-13)
(-2.30238e-12 0 -5.43391e-13)
(-2.15764e-12 0 -6.21708e-13)
(-1.99403e-12 0 -6.88279e-13)
(-1.81507e-12 0 -7.41391e-13)
(-1.62465e-12 0 -7.79919e-13)
(-1.42683e-12 0 -8.03321e-13)
(-1.2257e-12 0 -8.1161e-13)
(-1.02519e-12 0 -8.05305e-13)
(-8.2899e-13 0 -7.85363e-13)
(-6.40438e-13 0 -7.53094e-13)
(-4.62446e-13 0 -7.10086e-13)
(-2.9743e-13 0 -6.58115e-13)
(-1.47275e-13 0 -5.99052e-13)
(-1.33447e-14 0 -5.3477e-13)
(1.03489e-13 0 -4.6707e-13)
(2.02814e-13 0 -3.97634e-13)
(2.84643e-13 0 -3.2798e-13)
(3.49346e-13 0 -2.5944e-13)
(3.97579e-13 0 -1.93134e-13)
(4.30205e-13 0 -1.29967e-13)
(4.48246e-13 0 -7.06477e-14)
(4.52842e-13 0 -1.57038e-14)
(4.45219e-13 0 3.44861e-14)
(4.26658e-13 0 7.96725e-14)
(3.98449e-13 0 1.19714e-13)
(3.61865e-13 0 1.54558e-13)
(3.18132e-13 0 1.8422e-13)
(2.68428e-13 0 2.08759e-13)
(2.13889e-13 0 2.28254e-13)
(1.55615e-13 0 2.4279e-13)
(9.46876e-14 0 2.52439e-13)
(3.18478e-14 0 2.57252e-13)
(-6.03541e-05 0 0.000781596)
(-6.65286e-05 0 0.000701821)
(-0.000107877 0 0.000651838)
(-0.000319891 0 0.000555757)
(-0.000315201 0 0.000521837)
(-0.000276777 0 0.000473629)
(-0.000422178 0 0.000189364)
(-0.000368811 0 0.000167272)
(-0.000379552 0 9.60748e-05)
(-0.000388189 0 -2.96968e-05)
(-0.000328625 0 -0.000296082)
(-0.000383286 0 -0.000264342)
(-0.000106881 0 -0.000578566)
(-0.000208176 0 -0.00066202)
(-1.38851e-05 0 -0.000758179)
(-2.15839e-05 0 -0.000688168)
(6.29952e-05 0 -0.000646244)
(0.000155707 0 -0.000567053)
(0.000206457 0 -0.00051333)
(0.000278999 0 -0.000470335)
(0.000366297 0 -0.000410697)
(0.000394611 0 -0.000387222)
(0.000417459 0 -0.000355129)
(0.000465594 0 -0.000254858)
(0.000481556 0 -0.000158753)
(0.000477012 0 -0.000165065)
(0.000502448 0 -0.000180041)
(0.000595231 0 -0.000145773)
(0.000666326 0 -0.0002268)
(0.00066988 0 -0.000284256)
(0.00066389 0 -0.000278214)
(0.00067048 0 -0.000241521)
(0.000685608 0 -0.000195378)
(0.000672657 0 -0.000161244)
(0.000661408 0 -0.000179825)
(0.000672355 0 -0.000225222)
(0.000730127 0 -0.000186211)
(0.000731872 0 -0.000169665)
(0.000745934 0 -0.00014748)
(0.000774894 0 -0.000145207)
(0.000794994 0 -0.000272999)
(0.000922294 0 -7.71382e-05)
(0.000950247 0 -0.000218734)
(0.000975647 0 -0.000257474)
(0.00106842 0 -0.000201168)
(0.00103103 0 -0.000557476)
(0.00117611 0 -0.000463014)
(0.00128907 0 -0.000191498)
(0.00128858 0 -0.000134636)
(0.00125527 0 -6.44907e-05)
(0.00124107 0 -3.72308e-05)
(0.00125925 0 7.04793e-06)
(0.00125933 0 0.000166499)
(0.00124207 0 0.00016347)
(0.00118365 0 0.000276917)
(0.00112382 0 0.00036531)
(0.00107649 0 0.000334426)
(0.000941918 0 0.00044034)
(0.000940918 0 0.000426624)
(0.000936528 0 0.000427198)
(0.000790729 0 0.000583956)
(0.000718139 0 0.000695363)
(0.000618857 0 0.000834424)
(0.000590779 0 0.000820993)
(0.000427083 0 0.000710845)
(0.000227314 0 0.000513586)
(0.000172664 0 0.000380572)
(9.05846e-05 0 0.000330541)
(4.93343e-05 0 0.000278765)
(1.6801e-05 0 0.000232846)
(6.97568e-06 0 0.000204875)
(2.93621e-07 0 0.000175321)
(2.13147e-05 0 0.000135815)
(1.34151e-05 0 9.16794e-05)
(3.69406e-07 0 6.04851e-05)
(-2.90962e-05 0 -5.05122e-05)
(-4.00024e-05 0 -0.000116388)
(-0.000166556 0 -0.000179858)
(0.00017636 0 -0.000304724)
(-0.000638185 0 -0.000331027)
(1.04156e-05 0 0.000158387)
(-2.09043e-12 0 6.08966e-13)
(-3.80831e-12 0 6.0811e-14)
(-2.77711e-12 0 -7.32618e-14)
(-2.75745e-12 0 -1.98306e-13)
(-2.70948e-12 0 -3.24275e-13)
(-2.63325e-12 0 -4.49619e-13)
(-2.52841e-12 0 -5.70591e-13)
(-2.39628e-12 0 -6.82946e-13)
(-2.23947e-12 0 -7.82953e-13)
(-2.06152e-12 0 -8.67626e-13)
(-1.8666e-12 0 -9.34779e-13)
(-1.6593e-12 0 -9.83021e-13)
(-1.44432e-12 0 -1.01172e-12)
(-1.22636e-12 0 -1.02097e-12)
(-1.00987e-12 0 -1.01152e-12)
(-7.99015e-13 0 -9.84663e-13)
(-5.97472e-13 0 -9.42174e-13)
(-4.08418e-13 0 -8.86161e-13)
(-2.34428e-13 0 -8.18966e-13)
(-7.74355e-14 0 -7.43047e-13)
(6.12408e-14 0 -6.60847e-13)
(1.80846e-13 0 -5.74696e-13)
(2.81138e-13 0 -4.86741e-13)
(3.62331e-13 0 -3.989e-13)
(4.25026e-13 0 -3.12831e-13)
(4.70123e-13 0 -2.29913e-13)
(4.98724e-13 0 -1.51241e-13)
(5.12067e-13 0 -7.76468e-14)
(5.11482e-13 0 -9.7303e-15)
(4.98352e-13 0 5.21048e-14)
(4.74087e-13 0 1.07613e-13)
(4.40086e-13 0 1.56677e-13)
(3.97702e-13 0 1.9928e-13)
(3.48223e-13 0 2.35476e-13)
(2.9286e-13 0 2.65368e-13)
(2.3276e-13 0 2.89081e-13)
(1.69019e-13 0 3.06737e-13)
(1.02699e-13 0 3.18444e-13)
(3.45132e-14 0 3.24277e-13)
(-8.09084e-05 0 0.000784872)
(-6.42529e-05 0 0.000749736)
(-0.0001007 0 0.000700291)
(-0.000226381 0 0.000628067)
(-0.000272951 0 0.000526804)
(-0.000409764 0 0.000301348)
(-0.000335552 0 0.000250909)
(-0.000320298 0 0.000150531)
(-0.000328959 0 2.2023e-05)
(-0.000321556 0 -3.80863e-05)
(-0.000261372 0 -0.000321642)
(-0.000322615 0 -0.000342937)
(-0.000119758 0 -0.000591908)
(-0.000143801 0 -0.000733857)
(-4.05043e-05 0 -0.000812699)
(5.17225e-05 0 -0.000757247)
(5.37101e-05 0 -0.000688299)
(9.31263e-05 0 -0.0006397)
(0.00014725 0 -0.000588317)
(0.000226074 0 -0.000529976)
(0.000278913 0 -0.000498696)
(0.000380068 0 -0.000413587)
(0.000395098 0 -0.000373612)
(0.00046019 0 -0.000232988)
(0.000481329 0 -0.000162455)
(0.000493531 0 -0.000166424)
(0.000522079 0 -0.000213696)
(0.000581547 0 -0.000246235)
(0.000649931 0 -0.000275872)
(0.000648393 0 -0.000301831)
(0.000660941 0 -0.000245348)
(0.00057733 0 -0.000293134)
(0.000588243 0 -0.000123256)
(0.000504822 0 -0.000120509)
(0.000451987 0 -0.000195293)
(0.000484655 0 -0.000209432)
(0.000566181 0 -0.000138125)
(0.000556278 0 -0.000234951)
(0.000586838 0 -0.000233863)
(0.000629622 0 -0.000263697)
(0.000669941 0 -0.000336916)
(0.000755223 0 -0.000370241)
(0.000814575 0 -0.000337659)
(0.000849609 0 -0.000363395)
(0.000911662 0 -0.000419285)
(0.00112155 0 -0.000200573)
(0.0011373 0 -0.000217759)
(0.00113444 0 -0.000170718)
(0.00115184 0 -0.00012058)
(0.00114717 0 -0.000112989)
(0.00114301 0 -8.77936e-05)
(0.00113976 0 4.89378e-05)
(0.00111023 0 0.000220782)
(0.00109872 0 0.000205842)
(0.00107314 0 0.000284899)
(0.00102088 0 0.000439321)
(0.000988329 0 0.00044833)
(0.000881843 0 0.000498621)
(0.000661455 0 0.000738018)
(0.000704304 0 0.000693118)
(0.000608284 0 0.000758464)
(0.000536236 0 0.000846603)
(0.00044804 0 0.000938373)
(0.000408392 0 0.000933706)
(0.000327329 0 0.000813101)
(0.00018449 0 0.000615898)
(9.11325e-05 0 0.000477738)
(6.51814e-05 0 0.000391273)
(4.08588e-06 0 0.000314898)
(-1.27056e-05 0 0.000251892)
(-2.20172e-05 0 0.000200277)
(-7.49135e-06 0 0.000159308)
(1.57782e-05 0 0.000124385)
(5.04671e-05 0 9.67561e-05)
(5.57148e-05 0 7.81708e-05)
(6.73778e-05 0 2.29739e-05)
(0.000134353 0 -3.46364e-05)
(-6.95231e-05 0 -0.000167113)
(0.000360262 0 -0.000263068)
(-0.000535415 0 -0.000377749)
(1.02173e-05 0 0.000151999)
(-2.12129e-12 0 5.87477e-13)
(-4.02839e-12 0 4.09455e-14)
(-2.92488e-12 0 -8.76755e-14)
(-2.89674e-12 0 -2.32103e-13)
(-2.84916e-12 0 -3.86262e-13)
(-2.77063e-12 0 -5.42644e-13)
(-2.65864e-12 0 -6.94256e-13)
(-2.51474e-12 0 -8.34873e-13)
(-2.34232e-12 0 -9.59522e-13)
(-2.14586e-12 0 -1.06445e-12)
(-1.93047e-12 0 -1.147e-12)
(-1.70159e-12 0 -1.20558e-12)
(-1.46479e-12 0 -1.2395e-12)
(-1.2255e-12 0 -1.24899e-12)
(-9.88881e-13 0 -1.2351e-12)
(-7.59648e-13 0 -1.19959e-12)
(-5.41935e-13 0 -1.14478e-12)
(-3.39237e-13 0 -1.07344e-12)
(-1.54316e-13 0 -9.88582e-13)
(1.0844e-14 0 -8.93369e-13)
(1.55006e-13 0 -7.90913e-13)
(2.77594e-13 0 -6.84155e-13)
(3.7861e-13 0 -5.75766e-13)
(4.58553e-13 0 -4.68095e-13)
(5.18334e-13 0 -3.63135e-13)
(5.59169e-13 0 -2.62514e-13)
(5.82471e-13 0 -1.67499e-13)
(5.89756e-13 0 -7.90201e-14)
(5.82593e-13 0 2.28209e-15)
(5.62563e-13 0 7.60092e-14)
(5.31231e-13 0 1.41953e-13)
(4.90116e-13 0 2.00053e-13)
(4.40663e-13 0 2.50358e-13)
(3.8422e-13 0 2.9299e-13)
(3.22034e-13 0 3.28121e-13)
(2.55258e-13 0 3.55936e-13)
(1.84978e-13 0 3.76615e-13)
(1.12227e-13 0 3.90308e-13)
(3.7681e-14 0 3.97123e-13)
(-8.84825e-05 0 0.000790531)
(-7.50316e-05 0 0.000782401)
(-0.000156675 0 0.000754284)
(-0.000256414 0 0.000686453)
(-0.000231058 0 0.000568173)
(-0.000244637 0 0.000430452)
(-0.000271156 0 0.000291202)
(-0.000335024 0 9.9968e-05)
(-0.000286569 0 5.89695e-05)
(-0.000260866 0 -7.69503e-05)
(-0.000182325 0 -0.000388851)
(-0.000166168 0 -0.000487528)
(-4.25892e-05 0 -0.000625512)
(5.62169e-05 0 -0.000787161)
(-3.34872e-05 0 -0.000830783)
(2.12514e-05 0 -0.000787859)
(2.29733e-05 0 -0.000718241)
(4.27193e-05 0 -0.000684472)
(0.000129731 0 -0.000626393)
(0.000129528 0 -0.000598115)
(0.00020688 0 -0.000559411)
(0.000295607 0 -0.000490867)
(0.000321577 0 -0.000435652)
(0.000401096 0 -0.000336373)
(0.000431993 0 -0.000282119)
(0.000461212 0 -0.000261559)
(0.000518061 0 -0.000253269)
(0.000571555 0 -0.000290109)
(0.000562702 0 -0.000311682)
(0.00052459 0 -0.000324623)
(0.000543037 0 -0.000163911)
(0.000407218 0 -0.000194176)
(0.000394159 0 5.10882e-05)
(0.000348277 0 -8.81761e-05)
(0.000308102 0 -0.000197159)
(0.000379293 0 -0.000184061)
(0.000399768 0 -0.000232858)
(0.000437532 0 -0.000224195)
(0.000474747 0 -0.000250673)
(0.0005519 0 -0.000263446)
(0.000543888 0 -0.000418978)
(0.000711689 0 -0.000302688)
(0.00071685 0 -0.000403239)
(0.000798538 0 -0.000357789)
(0.000813311 0 -0.000470387)
(0.000885294 0 -0.000473911)
(0.000941365 0 -0.00037169)
(0.000958603 0 -0.000349076)
(0.00102247 0 -0.000128499)
(0.00103219 0 -1.94521e-05)
(0.00102106 0 -3.54169e-06)
(0.000992619 0 4.18257e-05)
(0.000949651 0 0.00019071)
(0.000942189 0 0.000250579)
(0.000965301 0 0.000301071)
(0.000866047 0 0.000549751)
(0.000855816 0 0.000548063)
(0.000662598 0 0.000712146)
(0.000750562 0 0.0005668)
(0.000565613 0 0.000744665)
(0.000518545 0 0.000803624)
(0.000471057 0 0.000882711)
(0.000401839 0 0.000962461)
(0.000352486 0 0.000970739)
(0.000296476 0 0.000885716)
(0.000170228 0 0.000705449)
(9.02091e-05 0 0.000547453)
(-1.35674e-05 0 0.000443815)
(-5.42918e-05 0 0.000349239)
(-8.33604e-05 0 0.000258121)
(-7.72288e-05 0 0.000202169)
(-5.09554e-05 0 0.000133407)
(-3.81056e-06 0 8.41488e-05)
(4.91295e-05 0 6.13472e-05)
(9.53597e-05 0 4.19659e-05)
(0.000118935 0 1.81558e-05)
(0.000142018 0 -6.09804e-05)
(8.19803e-05 0 -0.000138805)
(0.000334124 0 -0.00019709)
(-0.000547501 0 -0.000341217)
(1.01359e-05 0 0.000169979)
(-2.15072e-12 0 5.92404e-13)
(-4.05193e-12 0 3.91087e-14)
(-3.04942e-12 0 -8.63096e-14)
(-3.05542e-12 0 -2.56098e-13)
(-3.0198e-12 0 -4.45849e-13)
(-2.94125e-12 0 -6.40502e-13)
(-2.82064e-12 0 -8.28979e-13)
(-2.66155e-12 0 -1.00282e-12)
(-2.46905e-12 0 -1.15584e-12)
(-2.249e-12 0 -1.28362e-12)
(-2.00773e-12 0 -1.38317e-12)
(-1.75179e-12 0 -1.45271e-12)
(-1.48773e-12 0 -1.49161e-12)
(-1.22196e-12 0 -1.50031e-12)
(-9.60471e-13 0 -1.48025e-12)
(-7.08698e-13 0 -1.43376e-12)
(-4.71323e-13 0 -1.3639e-12)
(-2.52218e-13 0 -1.27423e-12)
(-5.43594e-14 0 -1.1686e-12)
(1.20234e-13 0 -1.05101e-12)
(2.70455e-13 0 -9.25374e-13)
(3.95993e-13 0 -7.95334e-13)
(4.97198e-13 0 -6.64159e-13)
(5.74961e-13 0 -5.34664e-13)
(6.30607e-13 0 -4.0919e-13)
(6.65759e-13 0 -2.89597e-13)
(6.82218e-13 0 -1.77292e-13)
(6.81848e-13 0 -7.32693e-14)
(6.66511e-13 0 2.18341e-14)
(6.38023e-13 0 1.07669e-13)
(5.98131e-13 0 1.84107e-13)
(5.4849e-13 0 2.51188e-13)
(4.90639e-13 0 3.09063e-13)
(4.25986e-13 0 3.57959e-13)
(3.55806e-13 0 3.98144e-13)
(2.81254e-13 0 4.29888e-13)
(2.0339e-13 0 4.53445e-13)
(1.23207e-13 0 4.69021e-13)
(4.13286e-14 0 4.76765e-13)
(-9.38003e-05 0 0.000842835)
(-8.61455e-05 0 0.000834652)
(-0.00016923 0 0.000840565)
(-0.000152651 0 0.000764557)
(-0.000222949 0 0.000588545)
(-0.000231422 0 0.000434343)
(-0.000201488 0 0.000318247)
(-0.000266063 0 0.000158892)
(-0.000268668 0 -2.88957e-05)
(-0.000209146 0 -0.000132078)
(-0.000167471 0 -0.000388959)
(-0.000121987 0 -0.000532055)
(-5.40192e-05 0 -0.000690286)
(-3.2863e-05 0 -0.000816198)
(-2.94488e-05 0 -0.000840627)
(-2.24876e-05 0 -0.000792806)
(-2.50587e-05 0 -0.000730212)
(-8.19765e-06 0 -0.000699112)
(4.90561e-06 0 -0.000668603)
(3.82832e-05 0 -0.000652547)
(0.00013099 0 -0.000620195)
(0.000168026 0 -0.000599099)
(0.000405129 0 -0.000428891)
(0.000465318 0 -0.000325369)
(0.000483739 0 -0.00024703)
(0.000485057 0 -0.000242682)
(0.00050336 0 -0.000271041)
(0.000480564 0 -0.00029472)
(0.000443388 0 -0.000280005)
(0.000373679 0 -0.000234274)
(0.000308076 0 -0.000107627)
(0.000197841 0 -8.53631e-05)
(0.000176915 0 -0.000113992)
(0.000260469 0 -5.47364e-05)
(0.000225301 0 -0.000213195)
(0.000219255 0 -0.000310702)
(0.000292384 0 -0.00028434)
(0.000332492 0 -0.000293627)
(0.000398782 0 -0.000294983)
(0.000478511 0 -0.000320556)
(0.000344625 0 -0.00054414)
(0.000604924 0 -0.000384067)
(0.000698194 0 -0.000328879)
(0.000663677 0 -0.000452873)
(0.000730753 0 -0.000444236)
(0.000777704 0 -0.000423384)
(0.00076603 0 -0.000440752)
(0.000842265 0 -0.000263742)
(0.000858534 0 -0.000163749)
(0.000847535 0 -0.000100907)
(0.000827613 0 -4.82745e-05)
(0.000759173 0 0.000192513)
(0.000770192 0 0.000207859)
(0.000838535 0 0.000171701)
(0.000775796 0 0.000408219)
(0.000700382 0 0.00056346)
(0.000767664 0 0.000546515)
(0.000749088 0 0.000581418)
(0.000674505 0 0.000647981)
(0.000530618 0 0.000777243)
(0.000513222 0 0.000830094)
(0.000461797 0 0.000912278)
(0.000359855 0 0.00101015)