/*--------------------------------*- C++ -*----------------------------------*\
  =========                 |
  \\      /  F ield         | OpenFOAM: The Open Source CFD Toolbox
   \\    /   O peration     | Website:  https://openfoam.org
    \\  /    A nd           | Version:  6
     \\/     M anipulation  |
\*---------------------------------------------------------------------------*/
FoamFile
{
    version     2.0;
    format      ascii;
    class       volVectorField;
    location    "5700";
    object      U;
}
// * * * * * * * * * * * * * * * * * * * * * * * * * * * * * * * * * * * * * //

dimensions      [0 1 -1 0 0 0 0];

internalField   nonuniform List<vector> 
4800
(
(-2.19024e-09 0 3.68223e-09)
(-9.43913e-09 0 4.30945e-10)
(-1.50033e-08 0 -8.81717e-10)
(-2.02914e-08 0 -1.38564e-09)
(-2.48729e-08 0 -1.63573e-09)
(-2.85433e-08 0 -1.82949e-09)
(-3.11247e-08 0 -2.003e-09)
(-3.24926e-08 0 -2.20434e-09)
(-3.25358e-08 0 -2.45248e-09)
(-3.11541e-08 0 -2.77648e-09)
(-2.82908e-08 0 -3.13791e-09)
(-2.39109e-08 0 -3.58353e-09)
(-1.79872e-08 0 -4.10202e-09)
(-1.05565e-08 0 -4.61375e-09)
(-1.71728e-09 0 -5.12904e-09)
(8.42192e-09 0 -5.62664e-09)
(1.98965e-08 0 -6.20613e-09)
(3.30534e-08 0 -7.04243e-09)
(4.74267e-08 0 -7.48292e-09)
(6.25382e-08 0 -7.80888e-09)
(7.8801e-08 0 -8.22791e-09)
(9.644e-08 0 -9.20988e-09)
(1.14826e-07 0 -9.16277e-09)
(1.3376e-07 0 -9.58189e-09)
(1.53508e-07 0 -9.94963e-09)
(1.73883e-07 0 -1.01769e-08)
(1.94703e-07 0 -1.03818e-08)
(2.15948e-07 0 -1.05626e-08)
(2.37534e-07 0 -1.06818e-08)
(2.59378e-07 0 -1.07944e-08)
(2.81426e-07 0 -1.08615e-08)
(3.03571e-07 0 -1.08848e-08)
(3.25772e-07 0 -1.08872e-08)
(3.47922e-07 0 -1.08379e-08)
(3.69979e-07 0 -1.07775e-08)
(3.91866e-07 0 -1.06608e-08)
(4.13496e-07 0 -1.0528e-08)
(4.3479e-07 0 -1.03295e-08)
(4.55683e-07 0 -1.01176e-08)
(4.7607e-07 0 -9.84597e-09)
(4.95876e-07 0 -9.54317e-09)
(5.14993e-07 0 -9.1659e-09)
(5.33305e-07 0 -8.75628e-09)
(5.50736e-07 0 -8.29567e-09)
(5.67138e-07 0 -7.73878e-09)
(5.82408e-07 0 -7.18463e-09)
(5.96448e-07 0 -6.53195e-09)
(6.09109e-07 0 -5.82582e-09)
(6.20261e-07 0 -5.04134e-09)
(6.29794e-07 0 -4.22915e-09)
(6.37613e-07 0 -3.33135e-09)
(6.43533e-07 0 -2.37217e-09)
(6.47523e-07 0 -1.39877e-09)
(6.49462e-07 0 -3.53053e-10)
(6.49257e-07 0 7.21738e-10)
(6.4687e-07 0 1.81047e-09)
(6.42236e-07 0 2.9564e-09)
(6.35298e-07 0 4.082e-09)
(6.26038e-07 0 5.2678e-09)
(6.14452e-07 0 6.37797e-09)
(6.00583e-07 0 7.50681e-09)
(5.84435e-07 0 8.62067e-09)
(5.66039e-07 0 9.71476e-09)
(5.45453e-07 0 1.07646e-08)
(5.22748e-07 0 1.17775e-08)
(4.98019e-07 0 1.27304e-08)
(4.7136e-07 0 1.36428e-08)
(4.42876e-07 0 1.44897e-08)
(4.12699e-07 0 1.52626e-08)
(3.81003e-07 0 1.5942e-08)
(3.47967e-07 0 1.6542e-08)
(3.13799e-07 0 1.70308e-08)
(2.78806e-07 0 1.73618e-08)
(2.43527e-07 0 1.73523e-08)
(2.09302e-07 0 1.65737e-08)
(1.79171e-07 0 1.39408e-08)
(1.57932e-07 0 1.04518e-09)
(1.05716e-07 0 2.64033e-08)
(-5.37278e-11 0 3.8841e-08)
(1.15317e-15 0 2.60087e-17)
(6.32248e-16 0 1.0133e-18)
(1.20899e-15 0 1.45791e-18)
(1.207e-15 0 2.5746e-18)
(1.20424e-15 0 3.83605e-18)
(1.19887e-15 0 5.07682e-18)
(1.19076e-15 0 6.28657e-18)
(1.17995e-15 0 7.43429e-18)
(1.16659e-15 0 8.51996e-18)
(1.15089e-15 0 9.51258e-18)
(1.13306e-15 0 1.04535e-17)
(1.11328e-15 0 1.13117e-17)
(1.09164e-15 0 1.20975e-17)
(1.06827e-15 0 1.28523e-17)
(1.0434e-15 0 1.35451e-17)
(1.01712e-15 0 1.41861e-17)
(9.89494e-16 0 1.47755e-17)
(9.60646e-16 0 1.53752e-17)
(9.30682e-16 0 1.59439e-17)
(8.99569e-16 0 1.64816e-17)
(8.67402e-16 0 1.70089e-17)
(8.34243e-16 0 1.75466e-17)
(8.00039e-16 0 1.80842e-17)
(7.64791e-16 0 1.86322e-17)
(7.28508e-16 0 1.91492e-17)
(6.91192e-16 0 1.96766e-17)
(6.52842e-16 0 2.02142e-17)
(6.13489e-16 0 2.07622e-17)
(5.73133e-16 0 2.12896e-17)
(5.31774e-16 0 2.17962e-17)
(4.89443e-16 0 2.23029e-17)
(4.46181e-16 0 2.27785e-17)
(4.0203e-16 0 2.32334e-17)
(3.57053e-16 0 2.36263e-17)
(3.11289e-16 0 2.40089e-17)
(2.64801e-16 0 2.43088e-17)
(2.17714e-16 0 2.45776e-17)
(1.70099e-16 0 2.47947e-17)
(1.2204e-16 0 2.49912e-17)
(7.35881e-17 0 2.51773e-17)
(2.46293e-17 0 2.54565e-17)
(-2.14963e-09 0 9.66587e-09)
(-9.48317e-09 0 1.18379e-08)
(-1.5652e-08 0 1.19601e-08)
(-2.13654e-08 0 1.10749e-08)
(-2.62323e-08 0 9.65734e-09)
(-3.01057e-08 0 7.85981e-09)
(-3.28567e-08 0 5.79152e-09)
(-3.43346e-08 0 3.50548e-09)
(-3.44302e-08 0 1.07315e-09)
(-3.30825e-08 0 -1.47508e-09)
(-3.02155e-08 0 -4.0667e-09)
(-2.57728e-08 0 -6.68741e-09)
(-1.97684e-08 0 -9.29949e-09)
(-1.22609e-08 0 -1.16325e-08)
(-3.36722e-09 0 -1.38191e-08)
(6.84355e-09 0 -1.57197e-08)
(1.8481e-08 0 -1.7867e-08)
(3.1774e-08 0 -2.06601e-08)
(4.61885e-08 0 -2.2119e-08)
(6.14084e-08 0 -2.32113e-08)
(7.78272e-08 0 -2.46576e-08)
(9.55446e-08 0 -2.76309e-08)
(1.13993e-07 0 -2.76452e-08)
(1.33048e-07 0 -2.89335e-08)
(1.52906e-07 0 -3.01649e-08)
(1.73381e-07 0 -3.08863e-08)
(1.94282e-07 0 -3.15512e-08)
(2.15607e-07 0 -3.21635e-08)
(2.3728e-07 0 -3.25731e-08)
(2.59203e-07 0 -3.29531e-08)
(2.81322e-07 0 -3.31797e-08)
(3.03541e-07 0 -3.32828e-08)
(3.25818e-07 0 -3.33047e-08)
(3.48043e-07 0 -3.31756e-08)
(3.70165e-07 0 -3.29777e-08)
(3.92125e-07 0 -3.26732e-08)
(4.13831e-07 0 -3.22345e-08)
(4.352e-07 0 -3.16568e-08)
(4.56182e-07 0 -3.1002e-08)
(4.76657e-07 0 -3.01794e-08)
(4.96546e-07 0 -2.92337e-08)
(5.15766e-07 0 -2.81179e-08)
(5.34201e-07 0 -2.68534e-08)
(5.51747e-07 0 -2.54364e-08)
(5.68271e-07 0 -2.37536e-08)
(5.83666e-07 0 -2.20492e-08)
(5.97837e-07 0 -2.0071e-08)
(6.10621e-07 0 -1.78993e-08)
(6.21904e-07 0 -1.55406e-08)
(6.31565e-07 0 -1.30398e-08)
(6.39492e-07 0 -1.03192e-08)
(6.45509e-07 0 -7.38698e-09)
(6.49576e-07 0 -4.42666e-09)
(6.51601e-07 0 -1.27208e-09)
(6.51482e-07 0 2.00142e-09)
(6.49145e-07 0 5.33075e-09)
(6.44538e-07 0 8.79957e-09)
(6.37609e-07 0 1.22528e-08)
(6.28348e-07 0 1.58379e-08)
(6.16764e-07 0 1.92375e-08)
(6.02876e-07 0 2.26977e-08)
(5.86698e-07 0 2.61091e-08)
(5.68261e-07 0 2.94854e-08)
(5.4761e-07 0 3.27476e-08)
(5.24825e-07 0 3.58952e-08)
(5.00002e-07 0 3.88929e-08)
(4.73214e-07 0 4.17755e-08)
(4.44593e-07 0 4.44504e-08)
(4.14282e-07 0 4.69012e-08)
(3.82423e-07 0 4.91054e-08)
(3.49154e-07 0 5.10636e-08)
(3.1466e-07 0 5.26635e-08)
(2.79149e-07 0 5.38214e-08)
(2.42752e-07 0 5.42498e-08)
(2.05306e-07 0 5.33191e-08)
(1.66239e-07 0 4.86872e-08)
(1.14786e-07 0 3.32862e-08)
(7.05605e-08 0 1.05814e-07)
(-4.21138e-11 0 9.98322e-08)
(1.16077e-15 0 7.15193e-17)
(6.33097e-16 0 2.49188e-18)
(1.21054e-15 0 5.34566e-18)
(1.20938e-15 0 8.93355e-18)
(1.20674e-15 0 1.26559e-17)
(1.20131e-15 0 1.63161e-17)
(1.1931e-15 0 1.98523e-17)
(1.18219e-15 0 2.31817e-17)
(1.16867e-15 0 2.6325e-17)
(1.15282e-15 0 2.92719e-17)
(1.13488e-15 0 3.20326e-17)
(1.11495e-15 0 3.45865e-17)
(1.09317e-15 0 3.69336e-17)
(1.0697e-15 0 3.91463e-17)
(1.04472e-15 0 4.12143e-17)
(1.01836e-15 0 4.31271e-17)
(9.90694e-16 0 4.49366e-17)
(9.61804e-16 0 4.66737e-17)
(9.31767e-16 0 4.83694e-17)
(9.00645e-16 0 5.00134e-17)
(8.68498e-16 0 5.16368e-17)
(8.35318e-16 0 5.32394e-17)
(8.01104e-16 0 5.48524e-17)
(7.65856e-16 0 5.64861e-17)
(7.29563e-16 0 5.80991e-17)
(6.92268e-16 0 5.97224e-17)
(6.53938e-16 0 6.13768e-17)
(6.14564e-16 0 6.30208e-17)
(5.74187e-16 0 6.46132e-17)
(5.32808e-16 0 6.61641e-17)
(4.90425e-16 0 6.76737e-17)
(4.47112e-16 0 6.91006e-17)
(4.02868e-16 0 7.04241e-17)
(3.57818e-16 0 7.16338e-17)
(3.11971e-16 0 7.27195e-17)
(2.6537e-16 0 7.36398e-17)
(2.182e-16 0 7.44359e-17)
(1.70513e-16 0 7.5077e-17)
(1.22423e-16 0 7.5594e-17)
(7.40637e-17 0 7.60076e-17)
(2.49188e-17 0 7.64108e-17)
(-2.7235e-09 0 1.56002e-08)
(-1.07766e-08 0 1.52118e-08)
(-1.68946e-08 0 1.40841e-08)
(-2.26845e-08 0 1.24403e-08)
(-2.77412e-08 0 1.03078e-08)
(-3.1836e-08 0 7.77851e-09)
(-3.47967e-08 0 4.90961e-09)
(-3.64799e-08 0 1.70665e-09)
(-3.67661e-08 0 -1.72242e-09)
(-3.55609e-08 0 -5.35466e-09)
(-3.28042e-08 0 -9.11272e-09)
(-2.84477e-08 0 -1.30008e-08)
(-2.24713e-08 0 -1.69079e-08)
(-1.49723e-08 0 -2.04612e-08)
(-6.14067e-09 0 -2.38243e-08)
(4.09934e-09 0 -2.66798e-08)
(1.5955e-08 0 -3.06497e-08)
(2.94452e-08 0 -3.47715e-08)
(4.38516e-08 0 -3.70678e-08)
(5.92329e-08 0 -3.8981e-08)
(7.60001e-08 0 -4.17305e-08)
(9.39178e-08 0 -4.59325e-08)
(1.12449e-07 0 -4.63579e-08)
(1.31712e-07 0 -4.8385e-08)
(1.51778e-07 0 -5.04914e-08)
(1.72393e-07 0 -5.15775e-08)
(1.93443e-07 0 -5.27014e-08)
(2.14926e-07 0 -5.37052e-08)
(2.36745e-07 0 -5.43869e-08)
(2.58816e-07 0 -5.49864e-08)
(2.81078e-07 0 -5.53488e-08)
(3.03443e-07 0 -5.55292e-08)
(3.25867e-07 0 -5.55508e-08)
(3.48247e-07 0 -5.53485e-08)
(3.70523e-07 0 -5.49791e-08)
(3.92623e-07 0 -5.45044e-08)
(4.14482e-07 0 -5.37573e-08)
(4.3602e-07 0 -5.28138e-08)
(4.57184e-07 0 -5.1737e-08)
(4.77849e-07 0 -5.0367e-08)
(4.97931e-07 0 -4.878e-08)
(5.1735e-07 0 -4.6964e-08)
(5.35994e-07 0 -4.48677e-08)
(5.53775e-07 0 -4.2504e-08)
(5.70553e-07 0 -3.97311e-08)
(5.86187e-07 0 -3.68735e-08)
(6.00582e-07 0 -3.35929e-08)
(6.13608e-07 0 -2.99699e-08)
(6.25137e-07 0 -2.60674e-08)
(6.35037e-07 0 -2.18705e-08)
(6.432e-07 0 -1.73512e-08)
(6.49437e-07 0 -1.24227e-08)
(6.53692e-07 0 -7.47941e-09)
(6.55864e-07 0 -2.21358e-09)
(6.55856e-07 0 3.24462e-09)
(6.53638e-07 0 8.81871e-09)
(6.49131e-07 0 1.45994e-08)
(6.42259e-07 0 2.03916e-08)
(6.33021e-07 0 2.63462e-08)
(6.21416e-07 0 3.20249e-08)
(6.07473e-07 0 3.7796e-08)
(5.91189e-07 0 4.34817e-08)
(5.72607e-07 0 4.90919e-08)
(5.51804e-07 0 5.44994e-08)
(5.28854e-07 0 5.97138e-08)
(5.03815e-07 0 6.47074e-08)
(4.76794e-07 0 6.94485e-08)
(4.47933e-07 0 7.38591e-08)
(4.17324e-07 0 7.79071e-08)
(3.85115e-07 0 8.15771e-08)
(3.51454e-07 0 8.4844e-08)
(3.16478e-07 0 8.75883e-08)
(2.80277e-07 0 8.97463e-08)
(2.42823e-07 0 9.11474e-08)
(2.03688e-07 0 9.16024e-08)
(1.61997e-07 0 9.08877e-08)
(1.10949e-07 0 9.00648e-08)
(6.5456e-08 0 1.44058e-07)
(-4.0212e-11 0 1.4693e-07)
(1.16735e-15 0 1.13663e-16)
(6.35908e-16 0 3.59824e-18)
(1.21541e-15 0 9.82277e-18)
(1.21431e-15 0 1.613e-17)
(1.21162e-15 0 2.23132e-17)
(1.20606e-15 0 2.83826e-17)
(1.19761e-15 0 3.41729e-17)
(1.18643e-15 0 3.96737e-17)
(1.17268e-15 0 4.48022e-17)
(1.15658e-15 0 4.96825e-17)
(1.13839e-15 0 5.42217e-17)
(1.1182e-15 0 5.8461e-17)
(1.09619e-15 0 6.23487e-17)
(1.07253e-15 0 6.5978e-17)
(1.04738e-15 0 6.93694e-17)
(1.02085e-15 0 7.25541e-17)
(9.93041e-16 0 7.55836e-17)
(9.64058e-16 0 7.84271e-17)
(9.3399e-16 0 8.12291e-17)
(9.02857e-16 0 8.39795e-17)
(8.7067e-16 0 8.67092e-17)
(8.37448e-16 0 8.93769e-17)
(8.03254e-16 0 9.20652e-17)
(7.68027e-16 0 9.47742e-17)
(7.31755e-16 0 9.75143e-17)
(6.9448e-16 0 1.00275e-16)
(6.5614e-16 0 1.03036e-16)
(6.16725e-16 0 1.05786e-16)
(5.76286e-16 0 1.08474e-16)
(5.34855e-16 0 1.1109e-16)
(4.92379e-16 0 1.13572e-16)
(4.48911e-16 0 1.1595e-16)
(4.04564e-16 0 1.18142e-16)
(3.59348e-16 0 1.20169e-16)
(3.13295e-16 0 1.21926e-16)
(2.66518e-16 0 1.23467e-16)
(2.19141e-16 0 1.2476e-16)
(1.71257e-16 0 1.25814e-16)
(1.2296e-16 0 1.266e-16)
(7.43946e-17 0 1.27117e-16)
(2.50326e-17 0 1.27324e-16)
(-2.969e-09 0 2.34162e-08)
(-1.17259e-08 0 2.26313e-08)
(-1.85093e-08 0 2.10265e-08)
(-2.48759e-08 0 1.87072e-08)
(-3.04475e-08 0 1.56893e-08)
(-3.50185e-08 0 1.20688e-08)
(-3.83881e-08 0 7.94516e-09)
(-4.04139e-08 0 3.34658e-09)
(-4.09652e-08 0 -1.59283e-09)
(-3.99564e-08 0 -6.82349e-09)
(-3.73111e-08 0 -1.22405e-08)
(-3.30011e-08 0 -1.78466e-08)
(-2.70132e-08 0 -2.33973e-08)
(-1.94661e-08 0 -2.85247e-08)
(-1.06351e-08 0 -3.32334e-08)
(-2.40491e-10 0 -3.72796e-08)
(1.20287e-08 0 -4.34193e-08)
(2.58108e-08 0 -4.89068e-08)
(4.01819e-08 0 -5.20067e-08)
(5.58937e-08 0 -5.46377e-08)
(7.32281e-08 0 -5.92818e-08)
(9.14165e-08 0 -6.41097e-08)
(1.10087e-07 0 -6.52596e-08)
(1.29698e-07 0 -6.80283e-08)
(1.5004e-07 0 -7.10502e-08)
(1.70879e-07 0 -7.23997e-08)
(1.92182e-07 0 -7.4064e-08)
(2.13912e-07 0 -7.54207e-08)
(2.35962e-07 0 -7.63973e-08)
(2.58249e-07 0 -7.71994e-08)
(2.80732e-07 0 -7.77324e-08)
(3.03324e-07 0 -7.79942e-08)
(3.25966e-07 0 -7.80031e-08)
(3.48556e-07 0 -7.77418e-08)
(3.71048e-07 0 -7.72063e-08)
(3.93374e-07 0 -7.65518e-08)
(4.15459e-07 0 -7.5526e-08)
(4.37234e-07 0 -7.42188e-08)
(4.58643e-07 0 -7.27274e-08)
(4.79568e-07 0 -7.0835e-08)
(4.99969e-07 0 -6.86485e-08)
(5.19722e-07 0 -6.60986e-08)
(5.38673e-07 0 -6.31964e-08)
(5.56782e-07 0 -5.99101e-08)
(5.73923e-07 0 -5.60553e-08)
(5.89934e-07 0 -5.20298e-08)
(6.0472e-07 0 -4.7461e-08)
(6.18135e-07 0 -4.2388e-08)
(6.30036e-07 0 -3.69128e-08)
(6.40284e-07 0 -3.10083e-08)
(6.48773e-07 0 -2.46942e-08)
(6.55333e-07 0 -1.77118e-08)
(6.59864e-07 0 -1.0754e-08)
(6.62296e-07 0 -3.35133e-09)
(6.62517e-07 0 4.34056e-09)
(6.60465e-07 0 1.21908e-08)
(6.56038e-07 0 2.03569e-08)
(6.49223e-07 0 2.85229e-08)
(6.40019e-07 0 3.68988e-08)
(6.28395e-07 0 4.49344e-08)
(6.14359e-07 0 5.30816e-08)
(5.97957e-07 0 6.11157e-08)
(5.79223e-07 0 6.90105e-08)
(5.5822e-07 0 7.66358e-08)
(5.35012e-07 0 8.39999e-08)
(5.09669e-07 0 9.10884e-08)
(4.82293e-07 0 9.77643e-08)
(4.53027e-07 0 1.04009e-07)
(4.21984e-07 0 1.0976e-07)
(3.89299e-07 0 1.14983e-07)
(3.55099e-07 0 1.19671e-07)
(3.19534e-07 0 1.23675e-07)
(2.82707e-07 0 1.27037e-07)
(2.44636e-07 0 1.29731e-07)
(2.05241e-07 0 1.31897e-07)
(1.64793e-07 0 1.34033e-07)
(1.21658e-07 0 1.38665e-07)
(6.56015e-08 0 1.89354e-07)
(-3.94549e-11 0 1.91969e-07)
(1.17619e-15 0 1.53088e-16)
(6.40232e-16 0 4.84935e-18)
(1.22307e-15 0 1.3907e-17)
(1.22188e-15 0 2.29336e-17)
(1.21901e-15 0 3.17224e-17)
(1.21317e-15 0 4.0263e-17)
(1.20439e-15 0 4.84211e-17)
(1.19282e-15 0 5.61449e-17)
(1.17868e-15 0 6.33931e-17)
(1.16223e-15 0 7.02173e-17)
(1.14365e-15 0 7.65452e-17)
(1.12306e-15 0 8.24182e-17)
(1.10069e-15 0 8.78569e-17)
(1.07672e-15 0 9.28924e-17)
(1.05131e-15 0 9.76073e-17)
(1.02457e-15 0 1.02012e-16)
(9.96556e-16 0 1.06169e-16)
(9.6745e-16 0 1.1016e-16)
(9.37309e-16 0 1.14048e-16)
(9.06125e-16 0 1.17811e-16)
(8.73896e-16 0 1.21575e-16)
(8.40674e-16 0 1.25328e-16)
(8.06501e-16 0 1.29113e-16)
(7.71305e-16 0 1.32897e-16)
(7.35064e-16 0 1.36743e-16)
(6.97799e-16 0 1.4061e-16)
(6.59449e-16 0 1.44446e-16)
(6.20003e-16 0 1.48293e-16)
(5.79492e-16 0 1.52056e-16)
(5.37916e-16 0 1.55727e-16)
(4.95285e-16 0 1.59212e-16)
(4.51651e-16 0 1.6252e-16)
(4.07097e-16 0 1.65591e-16)
(3.61623e-16 0 1.68362e-16)
(3.1527e-16 0 1.70844e-16)
(2.68203e-16 0 1.73005e-16)
(2.20547e-16 0 1.74814e-16)
(1.72364e-16 0 1.76252e-16)
(1.23726e-16 0 1.77296e-16)
(7.47668e-17 0 1.77937e-16)
(2.51153e-17 0 1.78144e-16)
(-3.29511e-09 0 3.18108e-08)
(-1.29961e-08 0 3.08229e-08)
(-2.07352e-08 0 2.87512e-08)
(-2.79929e-08 0 2.56755e-08)
(-3.43372e-08 0 2.16897e-08)
(-3.95859e-08 0 1.68677e-08)
(-4.35268e-08 0 1.1353e-08)
(-4.60024e-08 0 5.23195e-09)
(-4.68949e-08 0 -1.33783e-09)
(-4.61101e-08 0 -8.26362e-09)
(-4.35944e-08 0 -1.54494e-08)
(-3.93368e-08 0 -2.28706e-08)
(-3.32603e-08 0 -2.99633e-08)
(-2.56936e-08 0 -3.68391e-08)
(-1.67304e-08 0 -4.25737e-08)
(-5.84909e-09 0 -4.77018e-08)
(6.7491e-09 0 -5.75093e-08)
(2.07772e-08 0 -6.32254e-08)
(3.53369e-08 0 -6.66373e-08)
(5.16258e-08 0 -7.01993e-08)
(6.94722e-08 0 -7.94148e-08)
(8.79798e-08 0 -8.14121e-08)
(1.06981e-07 0 -8.47642e-08)
(1.27024e-07 0 -8.80904e-08)
(1.47714e-07 0 -9.18777e-08)
(1.68866e-07 0 -9.35329e-08)
(1.90526e-07 0 -9.57407e-08)
(2.12576e-07 0 -9.74243e-08)
(2.34919e-07 0 -9.86697e-08)
(2.57517e-07 0 -9.96968e-08)
(2.80302e-07 0 -1.00377e-07)
(3.03151e-07 0 -1.00698e-07)
(3.2606e-07 0 -1.00707e-07)
(3.48937e-07 0 -1.00393e-07)
(3.71719e-07 0 -9.96915e-08)
(3.94352e-07 0 -9.88831e-08)
(4.16747e-07 0 -9.75598e-08)
(4.38857e-07 0 -9.59384e-08)
(4.6062e-07 0 -9.40128e-08)
(4.819e-07 0 -9.16389e-08)
(5.02652e-07 0 -8.88607e-08)
(5.22813e-07 0 -8.56179e-08)
(5.42213e-07 0 -8.19191e-08)
(5.60797e-07 0 -7.77292e-08)
(5.78438e-07 0 -7.28588e-08)
(5.94946e-07 0 -6.76033e-08)
(6.10228e-07 0 -6.17812e-08)
(6.24147e-07 0 -5.52642e-08)
(6.36553e-07 0 -4.81923e-08)
(6.47298e-07 0 -4.05688e-08)
(6.5626e-07 0 -3.24139e-08)
(6.63276e-07 0 -2.34105e-08)
(6.68202e-07 0 -1.43472e-08)
(6.70975e-07 0 -4.77597e-09)
(6.71463e-07 0 5.20213e-09)
(6.69639e-07 0 1.54046e-08)
(6.6537e-07 0 2.60072e-08)
(6.58643e-07 0 3.65888e-08)
(6.49449e-07 0 4.74183e-08)
(6.37796e-07 0 5.78948e-08)
(6.2366e-07 0 6.84626e-08)
(6.07088e-07 0 7.88718e-08)
(5.88123e-07 0 8.91145e-08)
(5.66822e-07 0 9.90033e-08)
(5.43266e-07 0 1.08567e-07)
(5.17517e-07 0 1.17793e-07)
(4.89685e-07 0 1.26427e-07)
(4.59917e-07 0 1.34545e-07)
(4.28314e-07 0 1.42046e-07)
(3.94985e-07 0 1.48886e-07)
(3.60106e-07 0 1.5501e-07)
(3.23842e-07 0 1.60333e-07)
(2.86354e-07 0 1.64852e-07)
(2.47832e-07 0 1.68668e-07)
(2.08421e-07 0 1.72031e-07)
(1.6879e-07 0 1.75416e-07)
(1.26969e-07 0 1.81285e-07)
(6.70867e-08 0 2.46901e-07)
(-3.86423e-11 0 2.39499e-07)
(1.18911e-15 0 1.84985e-16)
(6.46167e-16 0 6.0591e-18)
(1.23349e-15 0 1.80119e-17)
(1.23214e-15 0 2.98199e-17)
(1.22896e-15 0 4.13384e-17)
(1.22274e-15 0 5.24226e-17)
(1.21348e-15 0 6.30312e-17)
(1.20141e-15 0 7.30194e-17)
(1.18675e-15 0 8.24389e-17)
(1.16974e-15 0 9.12277e-17)
(1.15059e-15 0 9.93444e-17)
(1.12949e-15 0 1.0681e-16)
(1.10666e-15 0 1.13768e-16)
(1.08228e-15 0 1.20179e-16)
(1.05649e-15 0 1.26145e-16)
(1.02941e-15 0 1.31739e-16)
(1.00119e-15 0 1.36971e-16)
(9.71927e-16 0 1.42037e-16)
(9.41642e-16 0 1.46949e-16)
(9.10385e-16 0 1.51726e-16)
(8.78176e-16 0 1.56482e-16)
(8.44996e-16 0 1.6128e-16)
(8.10844e-16 0 1.66139e-16)
(7.75668e-16 0 1.70999e-16)
(7.39458e-16 0 1.75931e-16)
(7.02194e-16 0 1.80873e-16)
(6.63833e-16 0 1.85805e-16)
(6.24335e-16 0 1.90717e-16)
(5.83731e-16 0 1.95546e-16)
(5.4202e-16 0 2.0025e-16)
(4.99183e-16 0 2.04769e-16)
(4.55291e-16 0 2.08998e-16)
(4.10406e-16 0 2.12916e-16)
(3.64621e-16 0 2.16473e-16)
(3.17948e-16 0 2.19668e-16)
(2.70488e-16 0 2.22429e-16)
(2.22398e-16 0 2.24724e-16)
(1.73739e-16 0 2.26513e-16)
(1.24656e-16 0 2.27816e-16)
(7.52528e-17 0 2.28581e-16)
(2.52394e-17 0 2.28829e-16)
(-3.80219e-09 0 4.10461e-08)
(-1.47845e-08 0 3.97143e-08)
(-2.36452e-08 0 3.70521e-08)
(-3.19869e-08 0 3.31155e-08)
(-3.93107e-08 0 2.80801e-08)
(-4.5409e-08 0 2.19995e-08)
(-5.00624e-08 0 1.50201e-08)
(-5.3124e-08 0 7.32188e-09)
(-5.4451e-08 0 -9.65881e-10)
(-5.39298e-08 0 -9.66699e-09)
(-5.15882e-08 0 -1.87178e-08)
(-4.7361e-08 0 -2.79493e-08)
(-4.11044e-08 0 -3.65072e-08)
(-3.37909e-08 0 -4.57226e-08)
(-2.46035e-08 0 -5.22796e-08)
(-1.28664e-08 0 -5.92346e-08)
(2.14796e-10 0 -7.11649e-08)
(1.4218e-08 0 -7.74997e-08)
(2.93092e-08 0 -8.22351e-08)
(4.6497e-08 0 -8.69138e-08)
(6.47555e-08 0 -9.82795e-08)
(8.35938e-08 0 -9.99214e-08)
(1.03166e-07 0 -1.04551e-07)
(1.23727e-07 0 -1.08718e-07)
(1.44842e-07 0 -1.12838e-07)
(1.66395e-07 0 -1.15155e-07)
(1.88475e-07 0 -1.17754e-07)
(2.10913e-07 0 -1.19778e-07)
(2.33645e-07 0 -1.21277e-07)
(2.56621e-07 0 -1.22547e-07)
(2.79765e-07 0 -1.23334e-07)
(3.02969e-07 0 -1.23706e-07)
(3.26231e-07 0 -1.23733e-07)
(3.49456e-07 0 -1.23362e-07)
(3.72593e-07 0 -1.22517e-07)
(3.95591e-07 0 -1.21533e-07)
(4.18331e-07 0 -1.19934e-07)
(4.40834e-07 0 -1.18051e-07)
(4.63013e-07 0 -1.15686e-07)
(4.84743e-07 0 -1.12838e-07)
(5.05969e-07 0 -1.09524e-07)
(5.26652e-07 0 -1.05634e-07)
(5.46627e-07 0 -1.01147e-07)
(5.65773e-07 0 -9.60996e-08)
(5.84029e-07 0 -9.02174e-08)
(6.01171e-07 0 -8.37501e-08)
(6.17095e-07 0 -7.66684e-08)
(6.31656e-07 0 -6.8725e-08)
(6.44717e-07 0 -6.00531e-08)
(6.56112e-07 0 -5.06904e-08)
(6.65662e-07 0 -4.06464e-08)
(6.73261e-07 0 -2.96186e-08)
(6.7869e-07 0 -1.83384e-08)
(6.81885e-07 0 -6.54305e-09)
(6.82737e-07 0 5.76464e-09)
(6.81199e-07 0 1.83664e-08)
(6.77164e-07 0 3.15266e-08)
(6.70536e-07 0 4.46016e-08)
(6.61378e-07 0 5.79614e-08)
(6.49655e-07 0 7.09189e-08)
(6.35382e-07 0 8.40159e-08)
(6.18606e-07 0 9.6814e-08)
(5.99374e-07 0 1.09524e-07)
(5.77721e-07 0 1.2173e-07)
(5.53718e-07 0 1.3355e-07)
(5.27465e-07 0 1.44947e-07)
(4.99081e-07 0 1.55656e-07)
(4.68676e-07 0 1.65678e-07)
(4.36343e-07 0 1.74995e-07)
(4.0224e-07 0 1.83508e-07)
(3.66536e-07 0 1.91115e-07)
(3.2941e-07 0 1.97768e-07)
(2.91104e-07 0 2.03382e-07)
(2.51926e-07 0 2.08051e-07)
(2.12121e-07 0 2.12001e-07)
(1.73132e-07 0 2.14922e-07)
(1.31359e-07 0 2.23423e-07)
(6.72241e-08 0 3.09139e-07)
(-3.8377e-11 0 2.84011e-07)
(1.20249e-15 0 2.11545e-16)
(6.53772e-16 0 7.28953e-18)
(1.24684e-15 0 2.22305e-17)
(1.24521e-15 0 3.6975e-17)
(1.2416e-15 0 5.13266e-17)
(1.23486e-15 0 6.50784e-17)
(1.22499e-15 0 7.81893e-17)
(1.21224e-15 0 9.05453e-17)
(1.19688e-15 0 1.02126e-16)
(1.17913e-15 0 1.12889e-16)
(1.15925e-15 0 1.22774e-16)
(1.13749e-15 0 1.31863e-16)
(1.11405e-15 0 1.40259e-16)
(1.08912e-15 0 1.47983e-16)
(1.06287e-15 0 1.55127e-16)
(1.03538e-15 0 1.61817e-16)
(1.00685e-15 0 1.68104e-16)
(9.77417e-16 0 1.74132e-16)
(9.47008e-16 0 1.79995e-16)
(9.15668e-16 0 1.85774e-16)
(8.8346e-16 0 1.91492e-16)
(8.50331e-16 0 1.97252e-16)
(8.16231e-16 0 2.03104e-16)
(7.81096e-16 0 2.08998e-16)
(7.44918e-16 0 2.14984e-16)
(7.07674e-16 0 2.21012e-16)
(6.69303e-16 0 2.27061e-16)
(6.29743e-16 0 2.33037e-16)
(5.89004e-16 0 2.38973e-16)
(5.47118e-16 0 2.44701e-16)
(5.04032e-16 0 2.50181e-16)
(4.59819e-16 0 2.55351e-16)
(4.14573e-16 0 2.60128e-16)
(3.68364e-16 0 2.64501e-16)
(3.21225e-16 0 2.68358e-16)
(2.73259e-16 0 2.71698e-16)
(2.24652e-16 0 2.74438e-16)
(1.75455e-16 0 2.76589e-16)
(1.25783e-16 0 2.78119e-16)
(7.57904e-17 0 2.79039e-16)
(2.53634e-17 0 2.79298e-16)
(-4.44678e-09 0 5.16444e-08)
(-1.70286e-08 0 4.99342e-08)
(-2.72794e-08 0 4.66013e-08)
(-3.69442e-08 0 4.17345e-08)
(-4.54804e-08 0 3.5506e-08)
(-5.26324e-08 0 2.80184e-08)
(-5.81873e-08 0 1.9414e-08)
(-6.19365e-08 0 9.97925e-09)
(-6.37427e-08 0 -1.77613e-10)
(-6.35891e-08 0 -1.08633e-08)
(-6.15681e-08 0 -2.20606e-08)
(-5.69993e-08 0 -3.25391e-08)
(-5.09465e-08 0 -4.39728e-08)
(-4.38315e-08 0 -5.40081e-08)
(-3.39388e-08 0 -6.12727e-08)
(-2.14862e-08 0 -7.32025e-08)
(-7.73849e-09 0 -8.50137e-08)
(6.04567e-09 0 -9.22477e-08)
(2.20882e-08 0 -9.75762e-08)
(4.05221e-08 0 -1.05043e-07)
(5.92296e-08 0 -1.17538e-07)
(7.82383e-08 0 -1.18842e-07)
(9.86367e-08 0 -1.24818e-07)
(1.19791e-07 0 -1.30116e-07)
(1.41403e-07 0 -1.34111e-07)
(1.63438e-07 0 -1.37282e-07)
(1.86021e-07 0 -1.40194e-07)
(2.08947e-07 0 -1.42568e-07)
(2.32143e-07 0 -1.44315e-07)
(2.55554e-07 0 -1.45777e-07)
(2.79113e-07 0 -1.46676e-07)
(3.02737e-07 0 -1.47105e-07)
(3.2642e-07 0 -1.47134e-07)
(3.50048e-07 0 -1.46702e-07)
(3.73578e-07 0 -1.45727e-07)
(3.97003e-07 0 -1.44582e-07)
(4.20184e-07 0 -1.42709e-07)
(4.4313e-07 0 -1.40587e-07)
(4.65792e-07 0 -1.37859e-07)
(4.88101e-07 0 -1.3455e-07)
(5.09894e-07 0 -1.30741e-07)
(5.31175e-07 0 -1.26236e-07)
(5.51835e-07 0 -1.21008e-07)
(5.71668e-07 0 -1.15114e-07)
(5.9067e-07 0 -1.08305e-07)
(6.08603e-07 0 -1.00612e-07)
(6.25348e-07 0 -9.23143e-08)
(6.40759e-07 0 -8.29175e-08)
(6.54618e-07 0 -7.26548e-08)
(6.66788e-07 0 -6.151e-08)
(6.77077e-07 0 -4.95187e-08)
(6.85401e-07 0 -3.64776e-08)
(6.91444e-07 0 -2.28207e-08)
(6.95146e-07 0 -8.77309e-09)
(6.96444e-07 0 5.97183e-09)
(6.95249e-07 0 2.10712e-08)
(6.91481e-07 0 3.68239e-08)
(6.84982e-07 0 5.2533e-08)
(6.7587e-07 0 6.85016e-08)
(6.6406e-07 0 8.40898e-08)
(6.49629e-07 0 9.97165e-08)
(6.32613e-07 0 1.15102e-07)
(6.12997e-07 0 1.3024e-07)
(5.90909e-07 0 1.4488e-07)
(5.66413e-07 0 1.59047e-07)
(5.39558e-07 0 1.72771e-07)
(5.10506e-07 0 1.85464e-07)
(4.79338e-07 0 1.97538e-07)
(4.46162e-07 0 2.08787e-07)
(4.11108e-07 0 2.19037e-07)
(3.74362e-07 0 2.2821e-07)
(3.36123e-07 0 2.36225e-07)
(2.96668e-07 0 2.42904e-07)
(2.56454e-07 0 2.48181e-07)
(2.15823e-07 0 2.52026e-07)
(1.76402e-07 0 2.53987e-07)
(1.2191e-07 0 2.81058e-07)
(6.42143e-08 0 3.82799e-07)
(-3.81108e-11 0 3.2264e-07)
(1.2212e-15 0 2.2843e-16)
(6.63185e-16 0 8.50962e-18)
(1.2632e-15 0 2.66456e-17)
(1.26123e-15 0 4.45127e-17)
(1.25706e-15 0 6.18111e-17)
(1.2496e-15 0 7.83961e-17)
(1.23895e-15 0 9.41021e-17)
(1.22534e-15 0 1.08888e-16)
(1.20908e-15 0 1.2264e-16)
(1.19039e-15 0 1.35358e-16)
(1.16958e-15 0 1.47021e-16)
(1.14698e-15 0 1.57743e-16)
(1.12278e-15 0 1.67494e-16)
(1.09716e-15 0 1.76438e-16)
(1.07031e-15 0 1.84689e-16)
(1.04238e-15 0 1.92361e-16)
(1.01352e-15 0 1.99619e-16)
(9.83838e-16 0 2.06537e-16)
(9.53295e-16 0 2.13237e-16)
(9.21883e-16 0 2.19875e-16)
(8.89654e-16 0 2.26513e-16)
(8.56597e-16 0 2.33203e-16)
(8.2259e-16 0 2.39986e-16)
(7.87548e-16 0 2.46872e-16)
(7.51463e-16 0 2.53893e-16)
(7.1426e-16 0 2.60996e-16)
(6.75858e-16 0 2.6812e-16)
(6.36236e-16 0 2.75203e-16)
(5.95374e-16 0 2.82213e-16)
(5.53218e-16 0 2.88986e-16)
(5.09822e-16 0 2.95459e-16)
(4.65237e-16 0 3.01559e-16)
(4.19556e-16 0 3.07205e-16)
(3.72841e-16 0 3.12323e-16)
(3.25134e-16 0 3.16852e-16)
(2.76568e-16 0 3.20739e-16)
(2.27299e-16 0 3.23945e-16)
(1.77441e-16 0 3.26447e-16)
(1.27107e-16 0 3.28215e-16)
(7.64315e-17 0 3.29249e-16)
(2.55082e-17 0 3.29538e-16)
(-5.23059e-09 0 6.39525e-08)
(-1.97791e-08 0 6.18334e-08)
(-3.17665e-08 0 5.77586e-08)
(-4.30516e-08 0 5.18478e-08)
(-5.30513e-08 0 4.42437e-08)
(-6.14502e-08 0 3.51599e-08)
(-6.80779e-08 0 2.47225e-08)
(-7.25966e-08 0 1.33546e-08)
(-7.49825e-08 0 1.09489e-09)
(-7.55464e-08 0 -1.20653e-08)
(-7.32805e-08 0 -2.45942e-08)
(-6.85814e-08 0 -3.75739e-08)
(-6.32315e-08 0 -5.16242e-08)
(-5.58705e-08 0 -6.17504e-08)
(-4.4459e-08 0 -7.07855e-08)
(-3.17235e-08 0 -8.86088e-08)
(-1.77588e-08 0 -9.87273e-08)
(-3.43969e-09 0 -1.07177e-07)
(1.43592e-08 0 -1.12322e-07)
(3.33105e-08 0 -1.30053e-07)
(5.24094e-08 0 -1.32532e-07)
(7.22046e-08 0 -1.40109e-07)
(9.34759e-08 0 -1.45232e-07)
(1.15223e-07 0 -1.52533e-07)
(1.37397e-07 0 -1.55738e-07)
(1.60102e-07 0 -1.59986e-07)
(1.83249e-07 0 -1.63203e-07)
(2.06694e-07 0 -1.65831e-07)
(2.30393e-07 0 -1.67836e-07)
(2.54316e-07 0 -1.69464e-07)
(2.78363e-07 0 -1.70464e-07)
(3.02465e-07 0 -1.70974e-07)
(3.26628e-07 0 -1.70971e-07)
(3.50733e-07 0 -1.70482e-07)
(3.74715e-07 0 -1.69367e-07)
(3.98591e-07 0 -1.68072e-07)
(4.22306e-07 0 -1.65996e-07)
(4.45783e-07 0 -1.63625e-07)
(4.68991e-07 0 -1.60555e-07)
(4.91879e-07 0 -1.56889e-07)
(5.14346e-07 0 -1.52565e-07)
(5.36319e-07 0 -1.4753e-07)
(5.57745e-07 0 -1.41651e-07)
(5.78474e-07 0 -1.34899e-07)
(5.98335e-07 0 -1.27233e-07)
(6.17222e-07 0 -1.18344e-07)
(6.34928e-07 0 -1.08899e-07)
(6.51343e-07 0 -9.80219e-08)
(6.66174e-07 0 -8.61354e-08)
(6.79298e-07 0 -7.31811e-08)
(6.90498e-07 0 -5.91935e-08)
(6.99685e-07 0 -4.4218e-08)
(7.0652e-07 0 -2.78509e-08)
(7.10875e-07 0 -1.15127e-08)
(7.12682e-07 0 5.71927e-09)
(7.11896e-07 0 2.34594e-08)
(7.0838e-07 0 4.19088e-08)
(7.02097e-07 0 6.0396e-08)
(6.93022e-07 0 7.9047e-08)
(6.81137e-07 0 9.74484e-08)
(6.6648e-07 0 1.15559e-07)
(6.49166e-07 0 1.33671e-07)
(6.29172e-07 0 1.51442e-07)
(6.0656e-07 0 1.68556e-07)
(5.81411e-07 0 1.85223e-07)
(5.53869e-07 0 2.01115e-07)
(5.24036e-07 0 2.16096e-07)
(4.91975e-07 0 2.30307e-07)
(4.57807e-07 0 2.43536e-07)
(4.21662e-07 0 2.55646e-07)
(3.83686e-07 0 2.66485e-07)
(3.4406e-07 0 2.75979e-07)
(3.03016e-07 0 2.83867e-07)
(2.61005e-07 0 2.89812e-07)
(2.19006e-07 0 2.93278e-07)
(1.78503e-07 0 2.92784e-07)
(1.15735e-07 0 3.47711e-07)
(6.2473e-08 0 4.17758e-07)
(-3.72709e-11 0 3.61188e-07)
(1.24279e-15 0 2.34113e-16)
(6.74637e-16 0 9.63666e-18)
(1.28283e-15 0 3.12571e-17)
(1.28037e-15 0 5.24743e-17)
(1.27548e-15 0 7.29573e-17)
(1.26713e-15 0 9.25202e-17)
(1.25548e-15 0 1.10946e-16)
(1.24079e-15 0 1.28213e-16)
(1.22335e-15 0 1.44198e-16)
(1.20351e-15 0 1.5887e-16)
(1.18163e-15 0 1.72302e-16)
(1.15796e-15 0 1.84544e-16)
(1.13275e-15 0 1.95608e-16)
(1.1063e-15 0 2.05699e-16)
(1.07878e-15 0 2.14922e-16)
(1.05032e-15 0 2.23473e-16)
(1.02104e-15 0 2.31518e-16)
(9.91035e-16 0 2.3921e-16)
(9.60336e-16 0 2.46655e-16)
(9.28945e-16 0 2.54048e-16)
(8.96788e-16 0 2.61482e-16)
(8.63794e-16 0 2.69041e-16)
(8.299e-16 0 2.76702e-16)
(7.95003e-16 0 2.84571e-16)
(7.59031e-16 0 2.92605e-16)
(7.21891e-16 0 3.00753e-16)
(6.8352e-16 0 3.08952e-16)
(6.43836e-16 0 3.17141e-16)
(6.02777e-16 0 3.25216e-16)
(5.60363e-16 0 3.33054e-16)
(5.16605e-16 0 3.4055e-16)
(4.71565e-16 0 3.47581e-16)
(4.25347e-16 0 3.54106e-16)
(3.78011e-16 0 3.59958e-16)
(3.29632e-16 0 3.65149e-16)
(2.80352e-16 0 3.69564e-16)
(2.30349e-16 0 3.73193e-16)
(1.79726e-16 0 3.76036e-16)
(1.28585e-16 0 3.78032e-16)
(7.71036e-17 0 3.792e-16)
(2.56529e-17 0 3.79531e-16)
(-6.19699e-09 0 7.83346e-08)
(-2.31665e-08 0 7.5762e-08)
(-3.72661e-08 0 7.08284e-08)
(-5.04608e-08 0 6.36929e-08)
(-6.22133e-08 0 5.45031e-08)
(-7.21224e-08 0 4.35822e-08)
(-7.98633e-08 0 3.11684e-08)
(-8.53852e-08 0 1.73982e-08)
(-8.87998e-08 0 2.55446e-09)
(-8.94548e-08 0 -1.22376e-08)
(-8.69743e-08 0 -2.7205e-08)
(-8.28295e-08 0 -4.34216e-08)
(-7.81694e-08 0 -5.88467e-08)
(-6.89229e-08 0 -6.85395e-08)
(-5.71183e-08 0 -8.52775e-08)
(-4.37834e-08 0 -1.01963e-07)
(-3.00979e-08 0 -1.14108e-07)
(-1.34513e-08 0 -1.22216e-07)
(5.63075e-09 0 -1.30171e-07)
(2.48741e-08 0 -1.50623e-07)
(4.44311e-08 0 -1.51247e-07)
(6.56313e-08 0 -1.61417e-07)
(8.75937e-08 0 -1.67167e-07)
(1.09967e-07 0 -1.7452e-07)
(1.32871e-07 0 -1.78627e-07)
(1.56327e-07 0 -1.83163e-07)
(1.80107e-07 0 -1.86795e-07)
(2.0416e-07 0 -1.8961e-07)
(2.28474e-07 0 -1.91953e-07)
(2.52977e-07 0 -1.93673e-07)
(2.77573e-07 0 -1.94762e-07)
(3.02199e-07 0 -1.95322e-07)
(3.26874e-07 0 -1.95304e-07)
(3.51493e-07 0 -1.94754e-07)
(3.75987e-07 0 -1.93512e-07)
(4.00371e-07 0 -1.91996e-07)
(4.24673e-07 0 -1.89907e-07)
(4.487e-07 0 -1.87161e-07)
(4.72488e-07 0 -1.83877e-07)
(4.96043e-07 0 -1.79901e-07)
(5.19295e-07 0 -1.75119e-07)
(5.42062e-07 0 -1.6961e-07)
(5.64342e-07 0 -1.63152e-07)
(5.86056e-07 0 -1.55714e-07)
(6.07024e-07 0 -1.47131e-07)
(6.27058e-07 0 -1.37194e-07)
(6.45899e-07 0 -1.26475e-07)
(6.63458e-07 0 -1.14272e-07)
(6.79524e-07 0 -1.00676e-07)
(6.9378e-07 0 -8.58858e-08)
(7.06079e-07 0 -6.98712e-08)
(7.162e-07 0 -5.27425e-08)
(7.23984e-07 0 -3.37778e-08)
(7.2913e-07 0 -1.48689e-08)
(7.31575e-07 0 4.92398e-09)
(7.31253e-07 0 2.55139e-08)
(7.28069e-07 0 4.66853e-08)
(7.22012e-07 0 6.81975e-08)
(7.12997e-07 0 8.93923e-08)
(7.00969e-07 0 1.11103e-07)
(6.8608e-07 0 1.31796e-07)
(6.6838e-07 0 1.52566e-07)
(6.47892e-07 0 1.73126e-07)
(6.24692e-07 0 1.92893e-07)
(5.9885e-07 0 2.11989e-07)
(5.70506e-07 0 2.30334e-07)
(5.39791e-07 0 2.47642e-07)
(5.06713e-07 0 2.64063e-07)
(4.71414e-07 0 2.79388e-07)
(4.34032e-07 0 2.93464e-07)
(3.94678e-07 0 3.06146e-07)
(3.53444e-07 0 3.17317e-07)
(3.10434e-07 0 3.26735e-07)