/*--------------------------------*- C++ -*----------------------------------*\
  =========                 |
  \\      /  F ield         | OpenFOAM: The Open Source CFD Toolbox
   \\    /   O peration     | Website:  https://openfoam.org
    \\  /    A nd           | Version:  6
     \\/     M anipulation  |
\*---------------------------------------------------------------------------*/
FoamFile
{
    version     2.0;
    format      ascii;
    class       surfaceScalarField;
    location    "3400";
    object      phi;
}
// * * * * * * * * * * * * * * * * * * * * * * * * * * * * * * * * * * * * * //

dimensions      [0 3 -1 0 0 0 0];

internalField   nonuniform List<scalar> 
9440
(
-1.68204e-10
1.68204e-10
-3.01004e-10
1.32805e-10
-3.46374e-10
4.53729e-11
-3.55929e-10
9.55818e-12
-1.98374e-10
-1.57551e-10
3.67016e-11
-2.35072e-10
4.36907e-10
-4.00201e-10
8.2859e-10
-3.91679e-10
1.23657e-09
-4.07974e-10
1.83694e-09
-6.00368e-10
1.8032e-09
3.37428e-11
2.39161e-09
-5.88405e-10
3.00437e-09
-6.12757e-10
3.58645e-09
-5.82081e-10
3.72008e-09
-1.33627e-10
4.02144e-09
-3.01349e-10
4.26152e-09
-2.40085e-10
4.48182e-09
-2.20296e-10
4.918e-09
-4.36186e-10
5.2601e-09
-3.42096e-10
5.66776e-09
-4.07659e-10
5.86559e-09
-1.97828e-10
6.05208e-09
-1.86492e-10
6.19182e-09
-1.39739e-10
6.20847e-09
-1.66444e-11
6.19559e-09
1.28796e-11
6.19083e-09
4.76441e-12
6.14867e-09
4.21597e-11
6.0867e-09
6.19733e-11
6.02084e-09
6.58608e-11
5.93935e-09
8.14892e-11
5.84852e-09
9.08304e-11
5.74997e-09
9.85539e-11
5.66682e-09
8.31553e-11
5.61305e-09
5.37677e-11
5.61061e-09
2.43739e-12
5.64619e-09
-3.55821e-11
5.69251e-09
-4.63226e-11
5.69894e-09
-6.42943e-12
5.7516e-09
-5.26662e-11
5.78021e-09
-2.86042e-11
5.79264e-09
-1.24313e-11
5.81363e-09
-2.0985e-11
5.84685e-09
-3.32148e-11
5.86897e-09
-2.21154e-11
5.92963e-09
-6.06515e-11
5.99445e-09
-6.48212e-11
5.98646e-09
7.99704e-12
5.98169e-09
4.77527e-12
5.99698e-09
-1.52937e-11
6.01591e-09
-1.8938e-11
5.9979e-09
1.80097e-11
5.96852e-09
2.93712e-11
5.93519e-09
3.33333e-11
5.86961e-09
6.55741e-11
5.76908e-09
1.00529e-10
5.68622e-09
8.28674e-11
5.58767e-09
9.85513e-11
5.45271e-09
1.3496e-10
5.3175e-09
1.35214e-10
5.07544e-09
2.42062e-10
4.94344e-09
1.32002e-10
4.73184e-09
2.11602e-10
4.45654e-09
2.75298e-10
4.20538e-09
2.51156e-10
3.9099e-09
2.95477e-10
3.39184e-09
5.18057e-10
3.11429e-09
2.77551e-10
2.42467e-09
6.8962e-10
1.71404e-09
7.10629e-10
8.77611e-10
8.36433e-10
1.83078e-10
6.94536e-10
1.24991e-11
1.70583e-10
-1.44582e-10
1.57085e-10
-4.38214e-10
2.93633e-10
-8.59392e-10
4.21179e-10
-9.99561e-10
1.40169e-10
-1.03584e-09
3.62815e-11
-1.02736e-09
-8.48119e-12
-9.43433e-10
-8.39367e-11
-7.80431e-10
-1.63007e-10
-5.28932e-10
-2.51507e-10
-1.58194e-10
-3.70753e-10
4.81046e-14
-1.5828e-10
4.69785e-19
-3.83198e-19
8.59922e-19
-3.90137e-19
1.27495e-18
-4.29554e-19
1.71002e-18
-4.44404e-19
2.14577e-18
-4.45694e-19
2.57558e-18
-4.41267e-19
2.99683e-18
-4.33462e-19
3.40859e-18
-4.23439e-19
3.80929e-18
-4.10434e-19
4.19619e-18
-3.93898e-19
4.5643e-18
-3.73144e-19
4.90774e-18
-3.47061e-19
5.22061e-18
-3.14654e-19
5.49715e-18
-2.75767e-19
5.73232e-18
-2.31436e-19
5.9205e-18
-1.83034e-19
6.05583e-18
-1.3092e-19
6.13616e-18
-7.52702e-20
6.16229e-18
-1.81595e-20
6.13236e-18
3.73239e-20
6.04281e-18
9.03486e-20
5.8948e-18
1.42862e-19
5.69526e-18
1.96308e-19
5.45108e-18
2.49067e-19
5.16474e-18
2.97745e-19
4.83606e-18
3.403e-19
4.46637e-18
3.77383e-19
4.05989e-18
4.10958e-19
3.62192e-18
4.42181e-19
3.15669e-18
4.70599e-19
2.66727e-18
4.94956e-19
2.15693e-18
5.14447e-19
1.63022e-18
5.2928e-19
1.09246e-18
5.40352e-19
5.48288e-19
5.4861e-19
5.54979e-19
-1.5242e-10
3.20628e-10
-2.35161e-10
2.15553e-10
-1.71474e-10
-1.83084e-11
-3.83891e-11
-1.2352e-10
1.00818e-10
-2.96752e-10
3.10577e-10
-4.44824e-10
5.89474e-10
-6.79091e-10
9.21772e-10
-7.23971e-10
1.3565e-09
-8.42692e-10
1.75163e-09
-9.95496e-10
1.95053e-09
-1.65152e-10
2.23152e-09
-8.69389e-10
2.88537e-09
-1.2666e-09
3.36133e-09
-1.05803e-09
3.69162e-09
-4.63915e-10
3.89964e-09
-5.09366e-10
4.05915e-09
-3.99595e-10
4.37938e-09
-5.40517e-10
4.67799e-09
-7.34804e-10
5.00486e-09
-6.68963e-10
5.28746e-09
-6.90258e-10
5.72044e-09
-6.30803e-10
5.95422e-09
-4.20272e-10
6.09476e-09
-2.80277e-10
6.09422e-09
-1.61022e-11
6.09492e-09
1.21839e-11
6.07831e-09
2.13838e-11
6.02511e-09
9.53629e-11
5.95326e-09
1.33825e-10
5.87762e-09
1.41498e-10
5.79876e-09
1.60361e-10
5.71187e-09
1.77717e-10
5.63476e-09
1.75658e-10
5.55222e-09
1.65702e-10
5.46801e-09
1.37974e-10
5.43441e-09
3.6035e-11
5.44843e-09
-4.96091e-11
5.45981e-09
-5.76995e-11
5.53225e-09
-7.88719e-11
5.54826e-09
-6.86778e-11
5.63089e-09
-1.11227e-10
5.65156e-09
-3.30952e-11
5.7315e-09
-1.0092e-10
5.79562e-09
-9.73202e-11
5.75652e-09
1.69872e-11
5.83368e-09
-1.37802e-10
5.96145e-09
-1.92589e-10
5.90142e-09
6.80329e-11
5.89485e-09
1.13402e-11
5.91491e-09
-3.53518e-11
5.94236e-09
-4.63989e-11
5.93685e-09
2.35147e-11
5.9238e-09
4.24165e-11
5.90938e-09
4.77477e-11
5.8716e-09
1.03354e-10
5.78129e-09
1.90845e-10
5.75678e-09
1.07383e-10
5.63396e-09
2.21374e-10
5.54096e-09
2.27971e-10
5.35654e-09
3.1964e-10
5.20687e-09
3.9173e-10
4.94425e-09
3.94617e-10
4.72339e-09
4.32465e-10
4.31037e-09
6.8831e-10
4.19467e-09
3.66845e-10
3.78201e-09
7.0814e-10
3.32539e-09
9.74675e-10
3.13018e-09
4.72758e-10
2.8844e-09
9.35406e-10
2.32928e-09
1.26575e-09
1.81389e-09
1.35183e-09
1.15217e-09
1.35625e-09
5.50567e-10
7.72191e-10
1.15947e-10
5.91707e-10
-8.54511e-11
4.95033e-10
-2.02768e-10
5.38496e-10
-7.94178e-11
1.6816e-11
-1.61283e-10
1.1814e-10
-3.8913e-10
2.19357e-10
-5.79133e-10
1.06053e-10
-6.45442e-10
-9.6712e-11
-4.91586e-10
-4.05369e-10
-2.83232e-10
-5.79083e-10
-2.09584e-15
-4.41402e-10
4.6451e-19
-3.11959e-19
8.22082e-19
-7.4218e-19
1.26159e-18
-8.78972e-19
1.71014e-18
-9.11015e-19
2.15138e-18
-9.07923e-19
2.58338e-18
-8.94015e-19
3.00686e-18
-8.75753e-19
3.4216e-18
-8.54613e-19
3.82583e-18
-8.28658e-19
4.21695e-18
-7.95328e-19
4.59039e-18
-7.52406e-19
4.94015e-18
-6.98287e-19
5.25949e-18
-6.32041e-19
5.54148e-18
-5.53785e-19
5.78072e-18
-4.64548e-19
5.97262e-18
-3.65771e-19
6.11148e-18
-2.59962e-19
6.19328e-18
-1.50691e-19
6.21778e-18
-4.03273e-20
6.18539e-18
7.1188e-20
6.09532e-18
1.8422e-19
5.94824e-18
2.96783e-19
5.74802e-18
4.04825e-19
5.49976e-18
5.0497e-19
5.2073e-18
5.96499e-19
4.87314e-18
6.80734e-19
4.49994e-18
7.58917e-19
4.09112e-18
8.30822e-19
3.65034e-18
8.95095e-19
3.18105e-18
9.50531e-19
2.68676e-18
9.96937e-19
2.17177e-18
1.03503e-18
1.6413e-18
1.0657e-18
1.10072e-18
1.08942e-18
5.54656e-19
1.10595e-18
1.1142e-18
-1.01451e-10
4.22082e-10
-1.47977e-10
2.62085e-10
-8.5132e-11
-8.11487e-11
2.51019e-11
-2.33749e-10
5.01516e-11
-3.21796e-10
1.83068e-10
-5.77735e-10
4.3339e-10
-9.29406e-10
7.66627e-10
-1.0572e-09
1.19984e-09
-1.2759e-09
1.50975e-09
-1.3054e-09
1.95627e-09
-6.11674e-10
2.09367e-09
-1.00678e-09
2.6728e-09
-1.84572e-09
3.12236e-09
-1.50759e-09
3.53529e-09
-8.76846e-10
3.74825e-09
-7.22321e-10
3.97838e-09
-6.29723e-10
4.3832e-09
-9.45335e-10
4.63422e-09
-9.85825e-10
5.09691e-09
-1.13165e-09
5.38376e-09
-9.77102e-10
5.54997e-09
-7.97011e-10
5.73831e-09
-6.08615e-10
5.89186e-09
-4.33826e-10
5.89489e-09
-1.91293e-11
5.90749e-09
-4.09303e-13
5.86267e-09
6.62102e-11
5.7976e-09
1.60435e-10
5.72995e-09
2.01478e-10
5.63016e-09
2.41294e-10
5.4931e-09
2.97423e-10
5.36102e-09
3.09791e-10
5.23249e-09
3.04188e-10
5.13718e-09
2.61017e-10
5.05792e-09
2.1723e-10
4.9772e-09
1.1675e-10
4.96239e-09
-3.48009e-11
4.98461e-09
-7.99218e-11
5.01798e-09
-1.12243e-10
5.03049e-09
-8.11873e-11
5.04639e-09
-1.27118e-10
5.08871e-09
-7.54062e-11
5.13162e-09
-1.43833e-10
5.18995e-09
-1.55637e-10
5.23741e-09
-3.04659e-11
5.262e-09
-1.6239e-10
5.29678e-09
-2.27369e-10
5.34915e-09
1.56712e-11
5.47331e-09
-1.12826e-10
5.56943e-09
-1.31478e-10
5.61289e-09
-8.98587e-11
5.61467e-09
2.17275e-11
5.61872e-09
3.83616e-11
5.60249e-09
6.39689e-11
5.53787e-09
1.67982e-10
5.46535e-09
2.63363e-10
5.42801e-09
1.44729e-10
5.28225e-09
3.67129e-10
5.15153e-09
3.58701e-10
4.96093e-09
5.10236e-10
4.81949e-09
5.33169e-10
4.58426e-09
6.29849e-10
4.31013e-09
7.06591e-10
4.07168e-09
9.26755e-10
3.79719e-09
6.4134e-10
3.54343e-09
9.61894e-10
3.24397e-09
1.27414e-09
2.93306e-09
7.83661e-10
2.73122e-09
1.13725e-09
2.42861e-09
1.56837e-09
2.0341e-09
1.74634e-09
1.66682e-09
1.72354e-09
9.4219e-10
1.49682e-09
6.15764e-10
9.18134e-10
3.05911e-10
8.04886e-10
5.01384e-10
3.43022e-10
3.44891e-10
1.73307e-10
2.46727e-10
2.16302e-10
1.52141e-10
3.13941e-10
1.13462e-10
1.44727e-10
-4.10612e-11
5.77974e-11
-1.97842e-10
-2.48623e-10
-2.59455e-10
-5.17534e-10
-6.3662e-15
-7.00879e-10
3.59195e-20
-1.17533e-18
6.86757e-19
-1.39981e-18
1.23091e-18
-1.42971e-18
1.71451e-18
-1.40731e-18
2.16632e-18
-1.37639e-18
2.60164e-18
-1.34757e-18
3.028e-18
-1.32011e-18
3.44755e-18
-1.29054e-18
3.85916e-18
-1.25397e-18
4.25987e-18
-1.20598e-18
4.64451e-18
-1.14313e-18
5.00639e-18
-1.06297e-18
5.33775e-18
-9.63785e-19
5.63072e-18
-8.4568e-19
5.8795e-18
-7.11155e-19
6.07843e-18
-5.62899e-19
6.22075e-18
-4.02711e-19
6.30364e-18
-2.33533e-19
6.32929e-18
-6.04217e-20
6.29842e-18
1.11575e-19
6.20788e-18
2.79711e-19
6.05628e-18
4.43341e-19
5.84817e-18
6.02067e-19
5.59129e-18
7.54485e-19
5.29153e-18
8.98387e-19
4.95133e-18
1.03159e-18
4.57185e-18
1.15248e-18
4.15539e-18
1.26021e-18
3.70578e-18
1.35459e-18
3.22746e-18
1.43605e-18
2.72485e-18
1.50531e-18
2.20244e-18
1.56309e-18
1.66501e-18
1.60973e-18
1.11725e-18
1.64515e-18
5.62911e-19
1.66885e-18
1.68027e-18
-8.36737e-11
5.05759e-10
2.45312e-11
1.53885e-10
7.34651e-11
-1.30078e-10
-2.07155e-11
-1.39563e-10
-2.32114e-10
-1.10392e-10
-2.33014e-10
-5.76829e-10
1.59652e-11
-1.17838e-09
4.15501e-10
-1.45673e-09
8.6193e-10
-1.72232e-09
1.33251e-09
-1.77597e-09
2.01582e-09
-1.29498e-09
2.0733e-09
-1.06426e-09
2.39145e-09
-2.16387e-09
2.888e-09
-2.00414e-09
3.34862e-09
-1.33746e-09
3.61159e-09
-9.85286e-10
4.00246e-09
-1.0206e-09
4.43403e-09
-1.3769e-09
4.84396e-09
-1.39575e-09
5.00063e-09
-1.28832e-09
5.12593e-09
-1.1024e-09
5.31887e-09
-9.8995e-10
5.48163e-09
-7.71376e-10
5.74472e-09
-6.96908e-10
5.80246e-09
-7.68698e-11
5.80649e-09
-4.43737e-12
5.831e-09
4.1703e-11
5.75267e-09
2.38773e-10
5.64518e-09
3.08974e-10
5.49595e-09
3.90521e-10
5.29638e-09
4.97001e-10
5.1233e-09
4.82872e-10
4.97633e-09
4.51153e-10
4.82724e-09
4.10109e-10
4.69735e-09
3.47115e-10
4.56189e-09
2.52215e-10
4.47919e-09
4.78977e-11
4.49399e-09
-9.47316e-11
4.48783e-09
-1.0608e-10
4.56002e-09
-1.53373e-10
4.59274e-09
-1.59836e-10
4.67806e-09
-1.60727e-10
4.68655e-09
-1.52317e-10
4.65182e-09
-1.20902e-10
4.71259e-09
-9.12285e-11
4.7224e-09
-1.72198e-10
4.7152e-09
-2.20164e-10
4.76041e-09
-2.95394e-11
4.79616e-09
-1.48581e-10
4.89733e-09
-2.32652e-10
4.8955e-09
-8.80254e-11
4.91244e-09
4.78078e-12
4.92223e-09
2.8567e-11
4.94205e-09
4.4147e-11
4.86795e-09
2.42076e-10
4.81171e-09
3.19606e-10
4.73468e-09
2.21757e-10
4.61991e-09
4.81906e-10
4.44963e-09
5.28985e-10
4.29471e-09
6.65147e-10
4.09857e-09
7.29314e-10
3.97981e-09
7.4861e-10
3.7094e-09
9.76997e-10
3.54459e-09
1.09156e-09
3.30176e-09
8.84165e-10
3.02754e-09
1.23611e-09
2.86231e-09
1.43938e-09
2.60749e-09
1.03848e-09
2.38845e-09
1.35628e-09
2.36111e-09
1.59571e-09
2.26295e-09
1.84451e-09
2.04714e-09
1.93935e-09
1.59768e-09
1.94627e-09
1.05151e-09
1.46431e-09
7.76249e-10
1.08014e-09
6.19907e-10
4.99364e-10
5.84647e-10
2.08566e-10
5.31264e-10
2.69684e-10
4.05479e-10
4.39729e-10
2.84847e-10
2.65365e-10
1.486e-10
1.94059e-10
-1.19827e-10
1.98212e-11
-2.1424e-10
-4.23122e-10
-3.11589e-15
-9.15111e-10
-1.87116e-19
-2.59046e-18
6.58165e-19
-2.25051e-18
1.25452e-18
-2.03318e-18
1.7466e-18
-1.91169e-18
2.19598e-18
-1.84182e-18
2.62911e-18
-1.79811e-18
3.05756e-18
-1.7653e-18
3.48412e-18
-1.7325e-18
3.90715e-18
-1.69029e-18
4.32272e-18
-1.63144e-18
4.72467e-18
-1.55093e-18
5.10558e-18
-1.44595e-18
5.45586e-18
-1.3147e-18
5.76524e-18
-1.15678e-18
6.02776e-18
-9.746e-19
6.23861e-18
-7.72087e-19
6.38993e-18
-5.53381e-19
6.47675e-18
-3.23455e-19
6.50129e-18
-8.83682e-20
6.46655e-18
1.46252e-19
6.37151e-18
3.76769e-19
6.21501e-18
6.01267e-19
6.00059e-18
8.17967e-19
5.73519e-18
1.02427e-18
5.42473e-18
1.2172e-18
5.07222e-18
1.3944e-18
4.67957e-18
1.55465e-18
4.24977e-18
1.69766e-18
3.78724e-18
1.82366e-18
3.29672e-18
1.93305e-18
2.78262e-18
2.02624e-18
2.24909e-18
2.1036e-18
1.70043e-18
2.16534e-18
1.14094e-18
2.21146e-18
5.74338e-19
2.24185e-18
2.25639e-18
-4.56786e-11
5.51441e-10
-8.82394e-12
1.17036e-10
1.02043e-12
-1.39917e-10
-1.705e-10
3.19623e-11
-4.6986e-10
1.88973e-10
-2.35614e-10
-8.11069e-10
1.18272e-10
-1.53226e-09
5.03446e-10
-1.8419e-09
7.2737e-10
-1.94624e-09
1.08494e-09
-2.13353e-09
1.78816e-09
-1.99819e-09
2.26218e-09
-1.53827e-09
2.29337e-09
-2.19505e-09
2.6812e-09
-2.39197e-09
3.05003e-09
-1.70629e-09
3.44459e-09
-1.37984e-09
3.85855e-09
-1.43455e-09
4.37835e-09
-1.8967e-09
4.53654e-09
-1.55394e-09
4.67825e-09
-1.43004e-09
4.83881e-09
-1.26296e-09
5.09677e-09
-1.2479e-09
5.15692e-09
-8.31528e-10
5.35189e-09
-8.9188e-10
5.60345e-09
-3.28422e-10
5.6556e-09
-5.65824e-11
5.74878e-09
-5.14804e-11
5.70522e-09
2.82345e-10
5.57971e-09
4.34486e-10
5.41754e-09
5.52689e-10
5.23884e-09
6.75699e-10
5.02753e-09
6.94188e-10
4.82769e-09
6.50993e-10
4.60643e-09
6.31368e-10
4.45198e-09
5.01562e-10
4.30155e-09
4.02645e-10
4.19718e-09
1.52269e-10
4.19513e-09
-9.26863e-11
4.14855e-09
-5.95016e-11
4.16744e-09
-1.72256e-10
4.18451e-09
-1.76909e-10
4.22165e-09
-1.97862e-10
4.24276e-09
-1.7342e-10
4.17747e-09
-5.56099e-11
4.15142e-09
-6.5178e-11
4.14714e-09
-1.67918e-10
4.13867e-09
-2.11691e-10
4.12296e-09
-1.38279e-11
4.23837e-09
-2.63997e-10
4.45336e-09
-4.47644e-10
4.41937e-09
-5.40344e-11
4.39726e-09
2.68859e-11
4.47108e-09
-4.5258e-11
4.51494e-09
2.81576e-13
4.49314e-09
2.63878e-10
4.46808e-09
3.44663e-10
4.38086e-09
3.08985e-10
4.33243e-09
5.30332e-10
4.24213e-09
6.19279e-10
4.1739e-09
7.33378e-10
4.01782e-09
8.85398e-10
3.845e-09
9.21425e-10
3.59694e-09
1.22506e-09
3.32106e-09
1.36745e-09
3.09276e-09
1.11247e-09
2.82599e-09
1.50289e-09
2.69829e-09
1.56709e-09
2.42512e-09
1.31165e-09
2.26338e-09
1.51802e-09
2.25484e-09
1.60424e-09
2.2808e-09
1.81855e-09
2.2054e-09
2.01474e-09
2.01673e-09
2.13494e-09
1.63871e-09
1.84233e-09
1.24009e-09
1.47876e-09
1.12e-09
6.19454e-10
8.11325e-10
5.17241e-10
6.44403e-10
4.36607e-10
6.27529e-10
4.56603e-10
4.72575e-10
4.20318e-10
3.4631e-10
3.20326e-10
3.46974e-10
1.91654e-11
1.06404e-10
-1.82547e-10
1.65341e-15
-8.08702e-10
1.53969e-19
-4.32985e-18
8.76601e-19
-2.9765e-18
1.37707e-18
-2.54234e-18
1.81748e-18
-2.36356e-18
2.24033e-18
-2.27828e-18
2.66192e-18
-2.23436e-18
3.09037e-18
-2.20735e-18
3.52633e-18
-2.18084e-18
3.966e-18
-2.14122e-18
4.40323e-18
-2.07793e-18
4.82964e-18
-1.98373e-18
5.23683e-18
-1.85509e-18
5.61377e-18
-1.69039e-18
5.94743e-18
-1.49013e-18
6.23027e-18
-1.25788e-18
6.45732e-18
-9.98894e-19
6.61986e-18
-7.18433e-19
6.71184e-18
-4.22418e-19
6.73591e-18
-1.18092e-19
6.69707e-18
1.86854e-19
6.59601e-18
4.85969e-19
6.43171e-18
7.74781e-19
6.20689e-18
1.05017e-18
5.92812e-18
1.30952e-18
5.60193e-18
1.55058e-18
5.23247e-18
1.77176e-18
4.82258e-18
1.97222e-18
4.37577e-18
2.15166e-18
3.89662e-18
2.30999e-18
3.38992e-18
2.44726e-18
2.85998e-18
2.56366e-18
2.31082e-18
2.65954e-18
1.74656e-18
2.73534e-18
1.17133e-18
2.79148e-18
5.88879e-19
2.82827e-18
2.84597e-18
1.13476e-10
4.37968e-10
1.95873e-10
3.46436e-11
6.86474e-11
-1.26874e-11
-2.58304e-10
3.58918e-10
-5.96805e-10
5.27479e-10
-3.20084e-10
-1.08778e-09
-1.65247e-11
-1.83581e-09
4.17043e-10
-2.27546e-09
7.31076e-10
-2.26027e-09
9.28069e-10
-2.33052e-09
1.40243e-09
-2.47255e-09
2.11262e-09
-2.24846e-09
2.17684e-09
-2.25926e-09
2.38875e-09
-2.60388e-09
2.94391e-09
-2.26145e-09
3.31689e-09
-1.75282e-09
3.62507e-09
-1.74274e-09
3.99064e-09
-2.26226e-09
4.16763e-09
-1.73093e-09
4.35267e-09
-1.61508e-09
4.58089e-09
-1.49117e-09
4.82753e-09
-1.49455e-09
5.06762e-09
-1.07162e-09
5.05535e-09
-8.79603e-10
5.16244e-09
-4.35511e-10
5.29369e-09
-1.87827e-10
5.35465e-09
-1.1244e-10
5.42497e-09
2.12022e-10
5.43305e-09
4.26412e-10
5.27723e-09
7.08518e-10
5.13105e-09
8.2188e-10
4.96886e-09
8.56378e-10
4.74191e-09
8.77943e-10
4.54422e-09
8.29057e-10
4.31863e-09
7.27152e-10
4.22317e-09
4.981e-10
4.16012e-09
2.15323e-10
4.02917e-09
3.82622e-11
3.92711e-09
4.25558e-11
3.82675e-09
-7.18893e-11
3.78482e-09
-1.34981e-10
3.74381e-09
-1.5685e-10
3.71958e-09
-1.49183e-10
3.65641e-09
7.55413e-12
3.63646e-09
-4.52273e-11
3.72241e-09
-2.53864e-10
3.68233e-09
-1.71606e-10
3.77598e-09
-1.07489e-10
3.99538e-09
-4.83391e-10
4.27414e-09
-7.26412e-10
4.39443e-09
-1.74323e-10
4.54047e-09
-1.19154e-10
4.66815e-09
-1.72939e-10
4.71507e-09
-4.66425e-11
4.66037e-09
3.1858e-10
4.61385e-09
3.9118e-10
4.65256e-09
2.70279e-10
4.58411e-09
5.98776e-10
4.4546e-09
7.48787e-10
4.37037e-09
8.17612e-10
4.24896e-09
1.0068e-09
3.98791e-09
1.18248e-09
3.74916e-09
1.46382e-09
3.48167e-09
1.63494e-09
3.08092e-09
1.51322e-09
2.75857e-09
1.82525e-09
2.52636e-09
1.7993e-09
2.35141e-09
1.48661e-09
2.27726e-09
1.59217e-09
2.2478e-09
1.6337e-09
2.22265e-09
1.8437e-09
2.18301e-09
2.05437e-09
2.17145e-09
2.1465e-09
2.0136e-09
2.00018e-09
1.73991e-09
1.75245e-09
1.06534e-09
1.29403e-09
9.00635e-10
6.81944e-10
8.76575e-10
4.6067e-10
8.04773e-10
5.28407e-10
7.60897e-10
4.64194e-10
7.90183e-10
2.91037e-10
6.45936e-10
1.63413e-10
3.22423e-10
1.40967e-10
4.77543e-15
-4.86283e-10
1.50807e-18
-2.07493e-18
1.31168e-18
-2.78265e-18
1.55674e-18
-2.79615e-18
1.90364e-18
-2.71955e-18
2.28468e-18
-2.66898e-18
2.68892e-18
-2.64999e-18
3.11688e-18
-2.64679e-18
3.56595e-18
-2.64098e-18
4.02929e-18
-2.61547e-18
4.49743e-18
-2.5561e-18
4.95829e-18
-2.45301e-18
5.40152e-18
-2.30194e-18
5.81404e-18
-2.10196e-18
6.17967e-18
-1.8552e-18
6.48926e-18
-1.56703e-18
6.73778e-18
-1.24473e-18
6.91587e-18
-8.95849e-19
7.01616e-18
-5.28268e-19
7.04085e-18
-1.50757e-19
6.99619e-18
2.27422e-19
6.88482e-18
5.97919e-19
6.7071e-18
9.54392e-19
6.46624e-18
1.29248e-18
6.16919e-18
1.60916e-18
5.82311e-18
1.90229e-18
5.43293e-18
2.17043e-18
5.00202e-18
2.41281e-18
4.5341e-18
2.62905e-18
4.03389e-18
2.81904e-18
3.50632e-18
2.9829e-18
2.95586e-18
3.12102e-18
2.38663e-18
3.23411e-18
1.80269e-18
3.32305e-18
1.20811e-18
3.38869e-18
6.06582e-19
3.43172e-18
3.45269e-18
1.68435e-10
2.69536e-10
2.61803e-10
-5.87204e-11
1.56165e-10
9.29549e-11
-2.08863e-11
5.35975e-10
-1.2164e-10
6.28238e-10
-1.20294e-10
-1.08913e-09
9.06529e-11
-2.04676e-09
2.65615e-10
-2.45042e-09
6.32051e-10
-2.6267e-09
9.25202e-10
-2.62367e-09
1.15039e-09
-2.69773e-09
1.65828e-09
-2.75634e-09
2.01716e-09
-2.61813e-09
2.10274e-09
-2.68946e-09
2.50603e-09
-2.66473e-09
3.08297e-09
-2.32976e-09
3.48238e-09
-2.14214e-09
3.77825e-09
-2.55813e-09
3.95276e-09
-1.90544e-09
4.18298e-09
-1.84529e-09
4.4849e-09
-1.79309e-09
4.5364e-09
-1.54605e-09
4.68786e-09
-1.22308e-09
4.74383e-09
-9.35574e-10
4.82007e-09
-5.11745e-10
4.863e-09
-2.30753e-10
4.8065e-09
-5.59425e-11
4.85388e-09
1.64651e-10
5.01352e-09
2.66769e-10
4.94857e-09
7.73468e-10
4.84142e-09
9.29036e-10
4.6664e-09
1.0314e-09
4.45664e-09
1.0877e-09
4.29004e-09
9.9566e-10
4.07461e-09
9.4258e-10
3.80216e-09
7.70552e-10
3.7381e-09
2.7938e-10
3.66354e-09
1.12824e-10
3.58752e-09
1.18572e-10
3.56272e-09
-4.70826e-11
3.47153e-09
-4.37897e-11
3.36316e-09
-4.84831e-11
3.22697e-09
-1.2991e-11
3.06165e-09
1.72876e-10
3.03126e-09
-1.48446e-11
3.30018e-09
-5.22783e-10
3.39157e-09
-2.6299e-10
3.60078e-09
-3.16703e-10
3.83057e-09
-7.13184e-10
4.10186e-09
-9.97702e-10
4.45491e-09
-5.27371e-10
4.65546e-09
-3.19704e-10
4.81148e-09
-3.28956e-10
5.0167e-09
-2.51864e-10
4.97597e-09
3.59308e-10
4.98261e-09
3.84538e-10
4.96325e-09
2.89635e-10
4.88575e-09
6.76275e-10
4.80091e-09
8.33631e-10
4.65597e-09
9.62547e-10
4.48515e-09
1.17763e-09
4.24848e-09
1.41915e-09
3.98562e-09
1.72668e-09
3.74013e-09
1.88043e-09
3.33479e-09
1.91857e-09
2.98822e-09
2.17182e-09
2.78065e-09
2.00687e-09
2.5839e-09
1.68336e-09
2.39001e-09
1.78606e-09
2.23252e-09
1.79118e-09
2.10882e-09
1.96739e-09
2.07904e-09
2.08415e-09
2.05789e-09
2.16764e-09
1.97498e-09
2.08309e-09
1.75333e-09
1.9741e-09
1.39693e-09
1.65043e-09
1.20338e-09
8.75489e-10
8.38139e-10
8.25905e-10
9.16251e-10
4.50294e-10
1.04968e-09
3.30758e-10
8.33536e-10
5.07182e-10
4.25827e-10
5.71122e-10
2.18562e-10
3.48232e-10
4.53374e-15
-2.67731e-10
8.01356e-19
-3.23084e-18
1.29902e-18
-3.28259e-18
1.63413e-18
-3.1383e-18
1.95497e-18
-3.04754e-18
2.30391e-18
-3.02566e-18
2.69212e-18
-3.04898e-18
3.12268e-18
-3.09014e-18
3.59147e-18
-3.12329e-18
4.08866e-18
-3.12622e-18
4.60052e-18
-3.08066e-18
5.10936e-18
-2.97398e-18
5.6015e-18
-2.80104e-18
6.0608e-18
-2.56192e-18
6.46783e-18
-2.26178e-18
6.81156e-18
-1.9092e-18
7.08666e-18
-1.51467e-18
7.28345e-18
-1.08908e-18
7.39367e-18
-6.43009e-19
7.41903e-18
-1.86903e-19
7.36669e-18
2.68938e-19
7.2413e-18
7.15069e-19
7.04519e-18
1.14383e-18
6.78292e-18
1.5496e-18
6.46231e-18
1.92841e-18
6.09126e-18
2.27755e-18
5.67531e-18
2.5953e-18
5.21826e-18
2.88076e-18
4.72409e-18
3.13368e-18
4.19775e-18
3.35433e-18
3.64444e-18
3.54335e-18
3.06895e-18
3.70179e-18
2.47557e-18
3.83094e-18
1.86834e-18
3.93225e-18
1.25115e-18
4.00698e-18
6.27549e-19
4.05613e-18
4.08036e-18
2.18007e-10
5.15317e-11
2.70378e-10
-1.11087e-10
2.29997e-10
1.3334e-10
2.46557e-10
5.1942e-10
3.6989e-10
5.0491e-10
2.66471e-10
-9.85702e-10
3.11408e-10
-2.09169e-09
5.01756e-10
-2.64076e-09
7.85005e-10
-2.90994e-09
1.15431e-09
-2.99297e-09
1.46702e-09
-3.01044e-09
1.72882e-09
-3.01813e-09
2.05754e-09
-2.94685e-09
2.28757e-09
-2.91949e-09
2.46531e-09
-2.84247e-09
2.89758e-09
-2.76203e-09
3.33896e-09
-2.58351e-09
3.50115e-09
-2.72032e-09
3.8777e-09
-2.28199e-09
4.10554e-09
-2.07313e-09
4.22582e-09
-1.91338e-09
4.29675e-09
-1.61698e-09
4.41934e-09
-1.34566e-09
4.423e-09
-9.39228e-10
4.52342e-09
-6.12163e-10
4.43497e-09
-1.42305e-10
4.38424e-09
-5.21074e-12
4.45771e-09
9.11877e-11
4.48213e-09
2.42351e-10
4.4415e-09
8.14102e-10
4.40234e-09
9.68199e-10
4.28111e-09
1.15263e-09
4.14236e-09
1.22645e-09
3.84884e-09
1.28918e-09
3.9032e-09
8.88225e-10
3.64362e-09
1.03013e-09
3.41746e-09
5.05536e-10
3.28111e-09
2.49173e-10
3.11634e-09
2.83343e-10
2.91911e-09
1.50155e-10
2.70865e-09
1.66668e-10
2.63563e-09
2.45336e-11
2.69451e-09
-7.18731e-11
2.78478e-09
8.26095e-11
2.97833e-09
-2.08397e-10
3.34906e-09
-8.93518e-10
3.37803e-09
-2.91963e-10
3.93424e-09
-8.72914e-10
4.16204e-09
-9.4098e-10
4.15635e-09
-9.92012e-10
4.26385e-09
-6.34865e-10
4.42485e-09
-4.80707e-10
4.49106e-09
-3.95163e-10
4.58681e-09
-3.4761e-10
4.73171e-09
2.14402e-10
4.85327e-09
2.62982e-10
4.84555e-09
2.97354e-10
4.79833e-09
7.23483e-10
4.766e-09
8.65959e-10
4.63797e-09
1.09058e-09
4.33593e-09
1.47967e-09
4.20019e-09
1.55489e-09
3.90487e-09
2.02201e-09
3.59276e-09
2.19254e-09
3.34299e-09
2.16835e-09
3.07816e-09
2.43664e-09
2.7461e-09
2.33892e-09
2.4518e-09
1.97766e-09
2.30303e-09
1.93482e-09
2.081e-09
2.0132e-09
2.01449e-09
2.0339e-09
1.96084e-09
2.13779e-09
1.91082e-09
2.21766e-09
1.83353e-09
2.16037e-09
1.75334e-09
2.05429e-09
1.67298e-09
1.73079e-09
1.29767e-09
1.25079e-09
1.27568e-09
8.47884e-10
9.69642e-10
7.56328e-10
5.65024e-10
7.35372e-10
2.9984e-10
7.72365e-10
1.16008e-10
7.54958e-10
2.90478e-11
4.35192e-10
2.26203e-15
-2.38692e-10
7.50371e-19
-6.20284e-18
1.44399e-18
-3.97862e-18
1.72554e-18
-3.42568e-18
1.9775e-18
-3.3076e-18
2.28064e-18
-3.3387e-18
2.65097e-18
-3.43275e-18
3.08953e-18
-3.54476e-18
3.58853e-18
-3.63931e-18
4.13422e-18
-3.68781e-18
4.7072e-18
-3.66725e-18
5.2823e-18
-3.56268e-18
5.84063e-18
-3.36838e-18
6.36095e-18
-3.08564e-18
6.82041e-18
-2.72376e-18
7.20608e-18
-2.29581e-18
7.51226e-18
-1.81659e-18
7.72952e-18
-1.3014e-18
7.84978e-18
-7.64684e-19
7.87488e-18
-2.19392e-19
7.81282e-18
3.22704e-19
7.67006e-18
8.51107e-19
7.45095e-18
1.35713e-18
7.16173e-18
1.83419e-18
6.81145e-18
2.27759e-18
6.409e-18
2.68415e-18
5.96076e-18
3.05195e-18
5.47118e-18
3.38015e-18
4.94474e-18
3.66888e-18
4.38677e-18
3.91899e-18
3.80287e-18
4.13194e-18
3.19811e-18
4.30957e-18
2.57687e-18
4.45391e-18
1.94307e-18
4.56694e-18
1.30029e-18
4.65033e-18
6.51784e-19
4.70529e-18
4.73261e-18
1.05929e-10
-5.43944e-11
1.07378e-10
-1.12532e-10
1.83848e-10
5.68735e-11
3.55773e-10
3.47498e-10
6.44336e-10
2.16352e-10
6.89703e-10
-1.03106e-09
6.908e-10
-2.09278e-09
8.0356e-10
-2.75351e-09
9.56771e-10
-3.06314e-09
1.1824e-09
-3.2186e-09
1.55363e-09
-3.38166e-09
1.83624e-09
-3.30073e-09
2.15692e-09
-3.26752e-09
2.52331e-09
-3.28588e-09
2.76568e-09
-3.08483e-09
3.05338e-09
-3.04973e-09
3.41222e-09
-2.94235e-09
3.44645e-09
-2.75455e-09
3.67057e-09
-2.50611e-09
3.91704e-09
-2.3196e-09
3.96374e-09
-1.96007e-09
4.20361e-09
-1.85684e-09
4.13968e-09
-1.28173e-09
4.17171e-09
-9.71256e-10
4.23717e-09
-6.7762e-10
4.20701e-09
-1.12151e-10
4.10132e-09
1.0048e-10
4.03449e-09
1.5802e-10
3.81701e-09
4.59842e-10
3.77718e-09
8.53929e-10
3.79164e-09
9.53739e-10
3.72334e-09
1.22093e-09
3.64825e-09
1.30154e-09
3.53288e-09
1.40454e-09
3.29975e-09
1.12136e-09
3.39913e-09
9.30754e-10
3.16292e-09
7.41753e-10
2.95751e-09
4.54583e-10
2.73196e-09
5.0889e-10
2.40804e-09
4.74084e-10
2.33177e-09
2.42936e-10
2.31768e-09
3.86187e-11
2.51319e-09
-2.67381e-10
2.8787e-09
-2.82913e-10
3.15983e-09
-4.89527e-10
3.30345e-09
-1.03714e-09
3.75464e-09
-7.43161e-10
3.77615e-09
-8.94426e-10
3.75976e-09
-9.24579e-10
3.74533e-09
-9.77581e-10
3.78647e-09
-6.76008e-10
3.86014e-09
-5.54365e-10
3.91641e-09
-4.51433e-10
3.84038e-09
-2.71586e-10
4.02825e-09
2.65352e-11
4.20322e-09
8.80084e-11
4.34764e-09
1.52926e-10
4.26171e-09
8.09412e-10
4.30052e-09
8.2714e-10
4.40003e-09
9.91073e-10
4.14808e-09
1.73163e-09
3.98007e-09
1.72289e-09
3.67859e-09
2.32349e-09
3.39527e-09
2.47586e-09
3.09868e-09
2.46494e-09
2.77789e-09
2.75743e-09
2.52393e-09
2.59287e-09
2.34254e-09
2.15906e-09
2.1074e-09
2.16995e-09
1.90975e-09
2.21084e-09
1.87044e-09
2.07322e-09
1.75983e-09
2.24839e-09
1.71907e-09
2.25842e-09
1.65655e-09
2.22288e-09
1.52458e-09
2.18626e-09
1.3272e-09
1.92817e-09
1.14924e-09
1.42875e-09
1.12458e-09
8.72532e-10
1.04197e-09
8.38935e-10
9.86758e-10
7.90586e-10
8.56138e-10
9.02986e-10
7.17684e-10
8.93417e-10
3.22107e-10
8.30769e-10
-3.87656e-16
8.34121e-11
2.97474e-18
-1.77747e-18
1.9974e-18
-3.00434e-18
1.84418e-18
-3.27884e-18
1.94691e-18
-3.42012e-18
2.18659e-18
-3.59016e-18
2.53896e-18
-3.79911e-18
2.99498e-18
-4.01633e-18
3.54003e-18
-4.20086e-18
4.15478e-18
-4.31677e-18
4.81177e-18
-4.33525e-18
5.4766e-18
-4.23964e-18
6.12337e-18
-4.02445e-18
6.72283e-18
-3.69283e-18
7.24835e-18
-3.259e-18
7.68531e-18
-2.74198e-18
8.02745e-18
-2.16214e-18
8.26624e-18
-1.54038e-18
8.39507e-18
-8.96207e-19
8.41697e-18
-2.46433e-19
8.34122e-18
3.94709e-19
8.17608e-18
1.01514e-18
7.92801e-18
1.60509e-18
7.60513e-18
2.1573e-18
7.21802e-18
2.66685e-18
6.7768e-18
3.13074e-18
6.28897e-18
3.54745e-18
5.75991e-18
3.91675e-18
5.19486e-18
4.23948e-18
4.59972e-18
4.51739e-18
3.9805e-18
4.75283e-18
3.34245e-18
4.94846e-18
2.6899e-18
5.10701e-18
2.02646e-18
5.23096e-18
1.35526e-18
5.32232e-18
6.79103e-19
5.38255e-18
5.41255e-18
1.93881e-10
-2.48273e-10
2.4411e-10
-1.62757e-10
3.40305e-10
-3.93188e-11
4.71932e-10
2.15875e-10
7.80053e-10
-9.17664e-11
9.13095e-10
-1.1641e-09
9.49517e-10
-2.1292e-09
1.00252e-09
-2.80651e-09
1.09662e-09
-3.15723e-09
1.22293e-09
-3.3449e-09
1.45793e-09
-3.61665e-09
1.74692e-09
-3.58972e-09
1.94128e-09
-3.46188e-09
2.12953e-09
-3.47413e-09
2.46777e-09
-3.42306e-09
2.78524e-09
-3.36719e-09
3.05173e-09
-3.20884e-09
3.4152e-09
-3.11801e-09
3.55274e-09
-2.64366e-09
3.93771e-09
-2.70457e-09
3.73369e-09
-1.75605e-09
4.12821e-09
-2.25136e-09
3.8576e-09
-1.01112e-09
3.69263e-09
-8.06278e-10
3.93756e-09
-9.22551e-10
3.78438e-09
4.10313e-11
3.5722e-09
3.12657e-10
3.48012e-09
2.50102e-10
3.19712e-09
7.4285e-10
3.16744e-09
8.83608e-10
3.16283e-09
9.5835e-10
3.11204e-09
1.27172e-09
3.0388e-09
1.37479e-09
3.01331e-09
1.43003e-09
2.74581e-09
1.38886e-09
2.84378e-09
8.3279e-10
2.71806e-09
8.67472e-10
2.48169e-09
6.90958e-10
2.33807e-09
6.52509e-10
2.29971e-09
5.12448e-10
2.39305e-09
1.49597e-10
2.54136e-09
-1.09701e-10
2.63431e-09
-3.60327e-10
2.9631e-09
-6.1171e-10
3.21485e-09
-7.41278e-10
3.07621e-09
-8.98509e-10
3.20346e-09
-8.70413e-10
3.18919e-09
-8.80149e-10
3.15332e-09
-8.88714e-10
3.11739e-09
-9.41649e-10
3.18235e-09
-7.40966e-10
3.19533e-09
-5.67341e-10
3.26164e-09
-5.1774e-10
3.21316e-09
-2.23107e-10
3.29392e-09
-5.42258e-11
3.33904e-09
4.28857e-11
3.3646e-09
1.27355e-10
3.47019e-09
7.03821e-10
3.6888e-09
6.08528e-10
3.71045e-09
9.69421e-10
3.61998e-09
1.8221e-09
3.6021e-09
1.74078e-09
3.38546e-09
2.54012e-09
3.11338e-09
2.74795e-09
2.78055e-09
2.79776e-09
2.55956e-09
2.97842e-09
2.3551e-09
2.79733e-09
2.15512e-09
2.35903e-09
1.91131e-09
2.41377e-09
1.76189e-09
2.36027e-09
1.69313e-09
2.14198e-09
1.61632e-09
2.32521e-09
1.52252e-09
2.35222e-09
1.3514e-09
2.394e-09
1.18841e-09
2.34926e-09
1.14968e-09
1.9669e-09
1.17177e-09
1.40666e-09
1.08919e-09
9.55114e-10
9.44689e-10
9.83438e-10
6.75638e-10
1.05964e-09
4.94693e-10
1.08393e-09
2.56001e-10
1.13211e-09
-8.34454e-11
1.17021e-09
1.15132e-18
-3.42132e-14
1.74833e-18
-2.30347e-18
1.72341e-18
-2.98353e-18
1.70342e-18
-3.26652e-18
1.77722e-18
-3.50439e-18
1.97764e-18
-3.80133e-18
2.32174e-18
-4.15376e-18
2.81045e-18
-4.51536e-18
3.42412e-18
-4.82719e-18
4.13631e-18
-5.03947e-18
4.90738e-18
-5.1147e-18
5.69178e-18
-5.03498e-18
6.45498e-18
-4.79652e-18
7.15667e-18
-4.40698e-18
7.76537e-18
-3.88644e-18
8.26514e-18
-3.26178e-18
8.64921e-18
-2.56118e-18
8.91041e-18
-1.81252e-18
9.04485e-18
-1.04143e-18
9.05811e-18
-2.69564e-19
8.96165e-18
4.85509e-19
8.76603e-18
1.20962e-18
8.48021e-18
1.89178e-18
8.11469e-18
2.52426e-18
7.68191e-18
3.10239e-18
7.19352e-18
3.62393e-18
6.65826e-18
4.08846e-18
6.08264e-18
4.49697e-18
5.47277e-18
4.85155e-18
4.83516e-18
5.15512e-18
4.17613e-18
5.4111e-18
3.501e-18
5.623e-18
2.81385e-18
5.79422e-18
2.11782e-18
5.92772e-18
1.41549e-18
6.02588e-18
7.09102e-19
6.09046e-18
6.12252e-18
1.91689e-10
-4.3996e-10
2.7056e-10
-2.41625e-10
3.49442e-10
-1.18198e-10
4.91015e-10
7.43052e-11
7.01621e-10
-3.02369e-10
8.80301e-10
-1.34278e-09
9.88729e-10
-2.23762e-09
1.02178e-09
-2.83956e-09
1.13889e-09
-3.27434e-09
1.30794e-09
-3.51395e-09