/*--------------------------------*- C++ -*----------------------------------*\
  =========                 |
  \\      /  F ield         | OpenFOAM: The Open Source CFD Toolbox
   \\    /   O peration     | Website:  https://openfoam.org
    \\  /    A nd           | Version:  6
     \\/     M anipulation  |
\*---------------------------------------------------------------------------*/
FoamFile
{
    version     2.0;
    format      ascii;
    class       volScalarField;
    location    "3400";
    object      T;
}
// * * * * * * * * * * * * * * * * * * * * * * * * * * * * * * * * * * * * * //

dimensions      [0 0 0 1 0 0 0];

internalField   nonuniform List<scalar> 
4800
(
552.542
552.525
552.508
552.492
552.476
552.461
552.446
552.431
552.416
552.401
552.386
552.371
552.355
552.339
552.323
552.305
552.288
552.269
552.25
552.23
552.21
552.189
552.168
552.145
552.12
552.095
552.067
552.038
552.007
551.975
551.94
551.902
551.863
551.821
551.778
551.732
551.686
551.638
551.589
551.539
551.488
551.438
551.386
551.335
551.284
551.234
551.184
551.135
551.086
551.039
550.993
550.948
550.904
550.861
550.819
550.777
550.734
550.691
550.646
550.598
550.546
550.489
550.423
550.349
550.262
550.161
550.042
549.904
549.743
549.557
549.347
549.114
548.864
548.6
548.324
548.04
547.75
547.46
547.17
546.883
546.603
546.332
546.072
545.821
545.581
545.35
545.13
544.92
544.721
544.531
544.349
544.175
544.008
543.847
543.692
543.543
543.397
543.256
543.118
542.984
542.852
542.723
542.596
542.472
542.348
542.227
542.107
541.988
541.87
541.753
541.636
541.521
541.405
541.291
541.176
541.062
540.948
540.834
540.72
540.607
552.542
552.525
552.509
552.493
552.477
552.462
552.446
552.432
552.417
552.402
552.386
552.371
552.355
552.339
552.322
552.304
552.286
552.267
552.247
552.227
552.207
552.186
552.163
552.14
552.116
552.09
552.062
552.033
552.002
551.969
551.933
551.896
551.856
551.814
551.769
551.723
551.676
551.627
551.577
551.527
551.476
551.424
551.373
551.321
551.27
551.219
551.168
551.119
551.071
551.024
550.978
550.933
550.89
550.847
550.805
550.763
550.721
550.678
550.634
550.586
550.535
550.478
550.413
550.338
550.252
550.151
550.033
549.896
549.738
549.557
549.351
549.122
548.874
548.61
548.335
548.052
547.765
547.475
547.183
546.892
546.608
546.332
546.068
545.815
545.574
545.343
545.123
544.913
544.714
544.525
544.344
544.171
544.004
543.844
543.69
543.54
543.395
543.254
543.117
542.982
542.851
542.722
542.595
542.471
542.348
542.226
542.106
541.987
541.87
541.752
541.636
541.52
541.405
541.29
541.176
541.062
540.948
540.834
540.72
540.607
552.542
552.526
552.509
552.494
552.478
552.463
552.447
552.432
552.417
552.402
552.387
552.371
552.354
552.337
552.32
552.301
552.282
552.263
552.243
552.222
552.2
552.178
552.155
552.132
552.107
552.08
552.053
552.023
551.991
551.958
551.921
551.883
551.842
551.799
551.753
551.706
551.657
551.606
551.555
551.503
551.451
551.398
551.346
551.293
551.241
551.189
551.138
551.088
551.04
550.993
550.947
550.903
550.86
550.818
550.777
550.736
550.695
550.653
550.609
550.562
550.512
550.455
550.391
550.318
550.232
550.132
550.016
549.881
549.726
549.55
549.35
549.128
548.884
548.624
548.351
548.07
547.783
547.491
547.197
546.903
546.614
546.332
546.06
545.803
545.559
545.327
545.108
544.9
544.702
544.514
544.334
544.162
543.997
543.838
543.684
543.536
543.391
543.251
543.114
542.98
542.849
542.72
542.594
542.469
542.346
542.225
542.105
541.987
541.869
541.752
541.636
541.52
541.405
541.29
541.176
541.062
540.948
540.834
540.72
540.607
552.542
552.526
552.51
552.495
552.479
552.464
552.449
552.434
552.419
552.403
552.387
552.371
552.353
552.335
552.317
552.297
552.277
552.257
552.235
552.213
552.191
552.167
552.143
552.119
552.093
552.066
552.038
552.008
551.975
551.941
551.904
551.864
551.822
551.777
551.73
551.681
551.629
551.577
551.523
551.47
551.415
551.361
551.306
551.252
551.199
551.146
551.094
551.044
550.995
550.948
550.903
550.859
550.817
550.776
550.736
550.696
550.656
550.615
550.573
550.528
550.478
550.423
550.36
550.288
550.203
550.104
549.99
549.857
549.706
549.535
549.342
549.128
548.891
548.636
548.365
548.085
547.796
547.502
547.205
546.908
546.612
546.323
546.045
545.781
545.535
545.303
545.084
544.879
544.683
544.498
544.32
544.15
543.987
543.829
543.677
543.529
543.385
543.245
543.109
542.976
542.845
542.717
542.591
542.467
542.345
542.224
542.104
541.985
541.868
541.751
541.635
541.519
541.404
541.289
541.175
541.061
540.947
540.834
540.72
540.607
552.542
552.527
552.512
552.496
552.481
552.466
552.451
552.436
552.421
552.405
552.388
552.371
552.352
552.333
552.313
552.292
552.271
552.248
552.225
552.202
552.177
552.153
552.127
552.101
552.075
552.047
552.018
551.987
551.954
551.919
551.881
551.84
551.796
551.749
551.7
551.648
551.594
551.539
551.483
551.426
551.37
551.313
551.256
551.2
551.145
551.091
551.038
550.987
550.937
550.89
550.845
550.803
550.761
550.721
550.683
550.644
550.606
550.567
550.526
550.483
550.436
550.382
550.321
550.25
550.167
550.069
549.957
549.826
549.678
549.512
549.325
549.118
548.889
548.64
548.373
548.093
547.803
547.506
547.205
546.903
546.601
546.305
546.019
545.749
545.499
545.268
545.053
544.85
544.659
544.476
544.302
544.134
543.973
543.817
543.666
543.52
543.378
543.239
543.103
542.971
542.841
542.713
542.588
542.464
542.342
542.221
542.102
541.984
541.866
541.749
541.634
541.518
541.403
541.289
541.175
541.061
540.947
540.833
540.72
540.607
552.543
552.528
552.513
552.499
552.484
552.469
552.455
552.44
552.424
552.407
552.39
552.371
552.351
552.33
552.309
552.286
552.262
552.238
552.213
552.187
552.161
552.134
552.107
552.08
552.052
552.023
551.992
551.96
551.926
551.89
551.851
551.809
551.763
551.715
551.663
551.608
551.551
551.493
551.434
551.374
551.315
551.255
551.196
551.138
551.081
551.024
550.97
550.918
550.868
550.82
550.777
550.735
550.694
550.656
550.619
550.582
550.545
550.509
550.47
550.429
550.384
550.333
550.274
550.205
550.123
550.028
549.916
549.788
549.643
549.48
549.298
549.096
548.873
548.63
548.368
548.089
547.797
547.498
547.194
546.886
546.578
546.273
545.978
545.7
545.449
545.222
545.011
544.815
544.628
544.45
544.28
544.115
543.956
543.803
543.654
543.509
543.368
543.231
543.096
542.965
542.835
542.708
542.584
542.46
542.339
542.218
542.099
541.981
541.864
541.748
541.632
541.517
541.402
541.288
541.174
541.06
540.947
540.833
540.72
540.607
552.543
552.529
552.516
552.502
552.487
552.473
552.459
552.444
552.428
552.41
552.392
552.372
552.35
552.327
552.303
552.278
552.252
552.225
552.198
552.169
552.141
552.112
552.083
552.054
552.024
551.993
551.961
551.928
551.892
551.855
551.815
551.771
551.724
551.673
551.619
551.561
551.501
551.439
551.377
551.314
551.251
551.188
551.127
551.066
551.006
550.948
550.893
550.84
550.788
550.741
550.697
550.656
550.616
550.579
550.544
550.509
550.474
550.439
550.404
550.365
550.323
550.274
550.218
550.151
550.072
549.978
549.868
549.742
549.598
549.438
549.259
549.061
548.843
548.605
548.347
548.07
547.779
547.478
547.169
546.855
546.538
546.221
545.913
545.628
545.381
545.162
544.961
544.773
544.593
544.42
544.254
544.093
543.938
543.786
543.64
543.497
543.357
543.221
543.088
542.957
542.829
542.703
542.579
542.456
542.335
542.215
542.097
541.979
541.862
541.746
541.63
541.516
541.401
541.287
541.173
541.059
540.946
540.833
540.72
540.607
552.544
552.531
552.518
552.505
552.492
552.479
552.465
552.449
552.433
552.415
552.395
552.373
552.35
552.325
552.298
552.27
552.241
552.211
552.18
552.149
552.118
552.086
552.054
552.023
551.991
551.958
551.924
551.889
551.852
551.813
551.771
551.725
551.676
551.623
551.566
551.506
551.443
551.377
551.312
551.245
551.179
551.113
551.049
550.986
550.924
550.863
550.807
550.752
550.7
550.651
550.607
550.566
550.527
550.491
550.457
550.424
550.391
550.359
550.325
550.29
550.25
550.205
550.151
550.087
550.009
549.917
549.809
549.684
549.542
549.383
549.207
549.012
548.797
548.563
548.309
548.036
547.746
547.444
547.131
546.809
546.48
546.149
545.824
545.525
545.292
545.091
544.904
544.726
544.554
544.388
544.226
544.069
543.917
543.768
543.624
543.483
543.345
543.21
543.079
542.949
542.822
542.697
542.573
542.451
542.331
542.211
542.093
541.976
541.86
541.744
541.629
541.514
541.4
541.286
541.172
541.059
540.946
540.832
540.719
540.606
552.544
552.533
552.521
552.509
552.497
552.485
552.471
552.456
552.439
552.42
552.399
552.375
552.349
552.322
552.292
552.261
552.228
552.194
552.16
552.125
552.091
552.056
552.022
551.987
551.953
551.918
551.882
551.844
551.805
551.764
551.719
551.672
551.621
551.565
551.506
551.442
551.376
551.308
551.239
551.169
551.099
551.03
550.963
550.897
550.833
550.771
550.712
550.656
550.602
550.553
550.508
550.467
550.428
550.393
550.36
550.327
550.296
550.266
550.235
550.202
550.166
550.123
550.072
550.01
549.935
549.844
549.737
549.613
549.473
549.315
549.141
548.948
548.736
548.505
548.253
547.983
547.695
547.393
547.08
546.754
546.417
546.07
545.713
545.369
545.18
545.012
544.845
544.679
544.515
544.354
544.197
544.044
543.894
543.749
543.607
543.468
543.332
543.199
543.068
542.94
542.814
542.69
542.567
542.446
542.326
542.207
542.09
541.973
541.857
541.741
541.627
541.512
541.398
541.284
541.171
541.058
540.945
540.832
540.719
540.606
552.545
552.535
552.525
552.514
552.503
552.491
552.478
552.463
552.446
552.426
552.403
552.377
552.349
552.318
552.285
552.25
552.213
552.175
552.137
552.098
552.06
552.021
551.984
551.947
551.909
551.872
551.834
551.794
551.752
551.708
551.661
551.611
551.557
551.499
551.437
551.37
551.301
551.23
551.158
551.086
551.013
550.941
550.87
550.802
550.735
550.671
550.61
550.552
550.497
550.447
550.402
550.36
550.321
550.286
550.253
550.221
550.191
550.163
550.134
550.103
550.07
550.029
549.981
549.921
549.847
549.758
549.653
549.529
549.39
549.234
549.06
548.87
548.66
548.431
548.182
547.914
547.63
547.33
547.016
546.689
546.347
545.986
545.586
545.07
545.062
544.942
544.792
544.634
544.476
544.32
544.167
544.017
543.871
543.728
543.588
543.451
543.317
543.186
543.057
542.93
542.805
542.682
542.56
542.44
542.321
542.203
542.086
541.969
541.854
541.739
541.624
541.51
541.396
541.283
541.17
541.057
540.944
540.831
540.719
540.606
552.546
552.537
552.529
552.519
552.51
552.499
552.486
552.472
552.454
552.433
552.408
552.38
552.349
552.314
552.277
552.237
552.196
552.153
552.11
552.067
552.024
551.981
551.941
551.9
551.86
551.821
551.78
551.737
551.692
551.645
551.595
551.542
551.486
551.425
551.36
551.291
551.219
551.145
551.07
550.994
550.919
550.844
550.771
550.7
550.631
550.564
550.501
550.442
550.386
550.335
550.289
550.247
550.208
550.172
550.139
550.108
550.078
550.05
550.022
549.993
549.961
549.923
549.876
549.818
549.745
549.658
549.553
549.431
549.293
549.138
548.966
548.776
548.568
548.341
548.096
547.833
547.552
547.254
546.943
546.619
546.284
545.938
545.586
545.252
545.073
544.913
544.754
544.596
544.44
544.287
544.137
543.99
543.847
543.706
543.569
543.434
543.302
543.173
543.045
542.92
542.796
542.674
542.553
542.433
542.315
542.198
542.081
541.965
541.85
541.736
541.622
541.508
541.395
541.282
541.169
541.056
540.943
540.831
540.719
540.606
552.547
552.54
552.533
552.525
552.517
552.507
552.496
552.481
552.463
552.44
552.414
552.383
552.348
552.31
552.268
552.223
552.177
552.129
552.08
552.031
551.984
551.937
551.893
551.848
551.805
551.763
551.719
551.673
551.626
551.575
551.522
551.466
551.407
551.343
551.275
551.203
551.128
551.052
550.974
550.897
550.819
550.741
550.665
550.591
550.52
550.452
550.388
550.327
550.271
550.219
550.171
550.129
550.089
550.053
550.02
549.988
549.958
549.93
549.902
549.874
549.843
549.806
549.759
549.701
549.629
549.542
549.438
549.318
549.181
549.027
548.856
548.668
548.463
548.239
547.998
547.739
547.463
547.171
546.865
546.547
546.223
545.897
545.581
545.297
545.078
544.893
544.723
544.562
544.406
544.254
544.107
543.963
543.822
543.684
543.549
543.417
543.286
543.159
543.033
542.909
542.786
542.665
542.545
542.427
542.309
542.192
542.077
541.961
541.847
541.733
541.619
541.506
541.393
541.28
541.167
541.055
540.943
540.83
540.718
540.606
552.548
552.543
552.538
552.532
552.526
552.517
552.506
552.492
552.473
552.449
552.421
552.387
552.348
552.304
552.257
552.207
552.155
552.101
552.046
551.992
551.94
551.888
551.839
551.791
551.744
551.699
551.652
551.603
551.552
551.499
551.443
551.384
551.321
551.254
551.183
551.109
551.032
550.953
550.873
550.792
550.712
550.633
550.555
550.479
550.406
550.336
550.271
550.209
550.152
550.099
550.051
550.008
549.968
549.931
549.896
549.863
549.832
549.803
549.775
549.746
549.714
549.677
549.631
549.573
549.5
549.413
549.31
549.191
549.055
548.903
548.734
548.548
548.345
548.125
547.888
547.634
547.364
547.078
546.779
546.469
546.155
545.845
545.551
545.286
545.061
544.866
544.691
544.527
544.371
544.222
544.076
543.935
543.796
543.661
543.528
543.398
543.27
543.144
543.02
542.897
542.776
542.656
542.537
542.42
542.303
542.187
542.072
541.957
541.843
541.729
541.616
541.503
541.391
541.278
541.166
541.054
540.942
540.83
540.718
540.606
552.549
552.547
552.544
552.541
552.536
552.529
552.519
552.505
552.485
552.46
552.429
552.391
552.348
552.3
552.246
552.19
552.131
552.07
552.009
551.949
551.891
551.835
551.781
551.729
551.679
551.629
551.579
551.527
551.473
551.417
551.357
551.294
551.228
551.159
551.085
551.009
550.929
550.848
550.766
550.683
550.602
550.521
550.442
550.364
550.29
550.219
550.152
550.09
550.032
549.979
549.93
549.885
549.844
549.806
549.769
549.735
549.702
549.672
549.642
549.611
549.577
549.538
549.49
549.431
549.359
549.271
549.168
549.049
548.915
548.765
548.599
548.416
548.217
548.002
547.77
547.521
547.256
546.977
546.684
546.382
546.078
545.78
545.498
545.243
545.022
544.827
544.651
544.489
544.335
544.188
544.045
543.906
543.77
543.638
543.507
543.379
543.253
543.129
543.006
542.885
542.765
542.646
542.529
542.412
542.296
542.181
542.067
541.953
541.839
541.726
541.613
541.501
541.388
541.276
541.164
541.053
540.941
540.829
540.717
540.606
552.55
552.551
552.551
552.55
552.548
552.543
552.534
552.52
552.5
552.473
552.439
552.398
552.35
552.295
552.236
552.172
552.106
552.039
551.971
551.904
551.84
551.778
551.72
551.663
551.608
551.555
551.501
551.446
551.388
551.328
551.266
551.2
551.131
551.058
550.982
550.903
550.822
550.739
550.655
550.571
550.488
550.406
550.326
550.248
550.173
550.101
550.033
549.97
549.912
549.858
549.808
549.762
549.719
549.679
549.641
549.605
549.571
549.538
549.505
549.471
549.433
549.39
549.339
549.278
549.204
549.117
549.015
548.897
548.765
548.617
548.454
548.276
548.081
547.87
547.643
547.399
547.14
546.867
546.581
546.286
545.986
545.692
545.418
545.174
544.962
544.774
544.604
544.446
544.296
544.152
544.012
543.877
543.744
543.613
543.486
543.36
543.236
543.113
542.992
542.873
542.754
542.637
542.52
542.405
542.29
542.175
542.061
541.948
541.835
541.723
541.61
541.498
541.386
541.274
541.163
541.051
540.94
540.828
540.717
540.606
552.552
552.556
552.56
552.562
552.562
552.559
552.551
552.538
552.518
552.489
552.452
552.406
552.353
552.292
552.225
552.154
552.08
552.006
551.931
551.857
551.786
551.719
551.656
551.594
551.535
551.477
551.418
551.359
551.299
551.235
551.169
551.1
551.028
550.953
550.875
550.794
550.712
550.627
550.542
550.458
550.374
550.291
550.211
550.133
550.057
549.984
549.916
549.852
549.792
549.738
549.687
549.639
549.595
549.553
549.513
549.474
549.437
549.402
549.365
549.328
549.285
549.239
549.184
549.12
549.044
548.956
548.854
548.738
548.608
548.463
548.303
548.129
547.939
547.733
547.511
547.273
547.02
546.752
546.471
546.178
545.879
545.583
545.309
545.08
544.885
544.711
544.551
544.4
544.255
544.115
543.979
543.846
543.717
543.589
543.463
543.34
543.218
543.097
542.978
542.86
542.743
542.627
542.511
542.397
542.283
542.169
542.056
541.943
541.831
541.719
541.607
541.495
541.384
541.273
541.161
541.05
540.939
540.828
540.717
540.606
552.554
552.562
552.569
552.575
552.578
552.578
552.572
552.559
552.538
552.508
552.468
552.417
552.357
552.289
552.214
552.136
552.055
551.973
551.891
551.811
551.733
551.659
551.589
551.523
551.459
551.396
551.333
551.27
551.206
551.139
551.07
550.998
550.923
550.845
550.764
550.682
550.598
550.514
550.429
550.344
550.26
550.177
550.097
550.018
549.942
549.87
549.801
549.737
549.676
549.62
549.568
549.518
549.472
549.427
549.385
549.344
549.303
549.265
549.224
549.183
549.135
549.085
549.026
548.959
548.881
548.792
548.69
548.575
548.447
548.306
548.151
547.981
547.797
547.597
547.38
547.148
546.9
546.637
546.359
546.067
545.761
545.449
545.157
544.96
544.795
544.642
544.494
544.352
544.213
544.077
543.945
543.816
543.689
543.564
543.441
543.32
543.2
543.081
542.964
542.847
542.731
542.617
542.502
542.389
542.276
542.163
542.051
541.939
541.827
541.715
541.604
541.493
541.382
541.271
541.16
541.049
540.938
540.827
540.716
540.605
552.556
552.569
552.58
552.59
552.597
552.6
552.597
552.585
552.563
552.53
552.486
552.43
552.364
552.289
552.207
552.12
552.031
551.941
551.852
551.764
551.679
551.599
551.523
551.451
551.382
551.314
551.247
551.179
551.111
551.041
550.969
550.894
550.816
550.736
550.653
550.569
550.485
550.4
550.315
550.231
550.148
550.065
549.985
549.907
549.831
549.759
549.69
549.625
549.564
549.506
549.451
549.4
549.351
549.304
549.259
549.214
549.17
549.128
549.083
549.038
548.986
548.931
548.869
548.799
548.719
548.629
548.527
548.414
548.289
548.151
548.001
547.836
547.656
547.461
547.251
547.026
546.786
546.531
546.258
545.966
545.649
545.3
544.911
544.82
544.704
544.576
544.442
544.307
544.172
544.041
543.912
543.785
543.661
543.539
543.419
543.3
543.182
543.065
542.949
542.834
542.72
542.606
542.493
542.381
542.269
542.157
542.045
541.934
541.823
541.712
541.601
541.49
541.379
541.269
541.158
541.047
540.937
540.826
540.716
540.605
552.559
552.576
552.592
552.607
552.619
552.626
552.625
552.614
552.592
552.557
552.509
552.448
552.375
552.292
552.202
552.107
552.01
551.912
551.815
551.721
551.629
551.541
551.458
551.379
551.304
551.231
551.159
551.088
551.015
550.942
550.866
550.789
550.709
550.627
550.543
550.459
550.373
550.289
550.205
550.121
550.039
549.957
549.878
549.8
549.725
549.653
549.584
549.518
549.455
549.396
549.339
549.285
549.233
549.183
549.135
549.087
549.039
548.992
548.943
548.894
548.839
548.78
548.715
548.642
548.561
548.47
548.37
548.258
548.134
548
547.853
547.692
547.518
547.329
547.127
546.912
546.687
546.45
546.198
545.921
545.601
545.22
544.762
544.724
544.641
544.531
544.404
544.27
544.136
544.006
543.879
543.755
543.634
543.514
543.396
543.279
543.164
543.049
542.935
542.821
542.709
542.596
542.484
542.373
542.262
542.151
542.04
541.929
541.818
541.708
541.598
541.487
541.377
541.267
541.156
541.046
540.936
540.826
540.715
540.605
552.562
552.584
552.606
552.627
552.644
552.655
552.658
552.649
552.626
552.589
552.537
552.47
552.39
552.299
552.201
552.098
551.992
551.886
551.781
551.679
551.58
551.485
551.395
551.31
551.229
551.15
551.073
550.996
550.92
550.843
550.765
550.685
550.603
550.52
550.435
550.35
550.265
550.181
550.098
550.015
549.933
549.853
549.775
549.698
549.624
549.551
549.482
549.415
549.351
549.289
549.23
549.173
549.118
549.065
549.013
548.962
548.911
548.861
548.808
548.755
548.697
548.635
548.567
548.493
548.411
548.32
548.221
548.111
547.989
547.857
547.713
547.556
547.385
547.203
547.011
546.815
546.621
546.431
546.238
546.018
545.728
545.328
544.829
544.738
544.644
544.527
544.392
544.249
544.109
543.976
543.848
543.726
543.607
543.489
543.374
543.259
543.145
543.033
542.92
542.808
542.697
542.586
542.475
542.365
542.255
542.144
542.034
541.924
541.814
541.704
541.595
541.485
541.375
541.265
541.155
541.045
540.935
540.825
540.715
540.605
552.565
552.594
552.622
552.649
552.672
552.689
552.696
552.689
552.666
552.627
552.57
552.498
552.412
552.313
552.206
552.095
551.981
551.866
551.754
551.643
551.537
551.435
551.338
551.245
551.158
551.072
550.989
550.908
550.827
550.747
550.665
550.583
550.5
550.415
550.331
550.246
550.161
550.078
549.995
549.914
549.833
549.754
549.677
549.601
549.527
549.454
549.384
549.316
549.25
549.186
549.124
549.064
549.006
548.95
548.895
548.841
548.788
548.734
548.68
548.623
548.564
548.5
548.431
548.356
548.273
548.182
548.083
547.974
547.854
547.722
547.577
547.418
547.248
547.07
546.896
546.741
546.621
546.548
546.51
546.457
546.272
545.827
544.949
544.903
544.748
544.588
544.419
544.251
544.093
543.951
543.82
543.698
543.58
543.465
543.351
543.239
543.127
543.016
542.906
542.796
542.686
542.576
542.467
542.357
542.248
542.138
542.029
541.92
541.81
541.701
541.591
541.482
541.372
541.263
541.153
541.044
540.934
540.824
540.715
540.605
552.568
552.604
552.639
552.673
552.704
552.728
552.739
552.735
552.712
552.671
552.611
552.534
552.441
552.334
552.217
552.094
551.971
551.848
551.729
551.612
551.5
551.392
551.287
551.188
551.093
551.001
550.912
550.825
550.74
550.656
550.571
550.487
550.402
550.317
550.232
550.147
550.063
549.98
549.899
549.818
549.739
549.661
549.584
549.509
549.435
549.362
549.291
549.221
549.152
549.086
549.021
548.958
548.898
548.839
548.781
548.725
548.67
548.616
548.56
548.503
548.443
548.378
548.309
548.233
548.149
548.057
547.956
547.844
547.718
547.578
547.422
547.251
547.072
546.9
546.767
546.714
546.778
546.989
547.327
547.694
547.805
547.489
546.599
545.469
544.994
544.725
544.493
544.279
544.091
543.932
543.795
543.671
543.554
543.441
543.329
543.219
543.11
543.001
542.892
542.783
542.675
542.566
542.458
542.35
542.241
542.132
542.024
541.915
541.806
541.697
541.589
541.479
541.37
541.261
541.152
541.043
540.933
540.824
540.714
540.605
552.572
552.617
552.66
552.702
552.74
552.771
552.788
552.787
552.766
552.724
552.662
552.58
552.48
552.366
552.24
552.109
551.975
551.842
551.714
551.59
551.471
551.357
551.247
551.14
551.038
550.94
550.844
550.752
550.662
550.574
550.486
550.399
550.312
550.226
550.14
550.056
549.972
549.89
549.809
549.729
549.65
549.572
549.496
549.42
549.346
549.272
549.199
549.127
549.056
548.986
548.919
548.853
548.791
548.73
548.672
548.616
548.562
548.508
548.453
548.397
548.337
548.272
548.201
548.121
548.032
547.931
547.817
547.688
547.539
547.369
547.177
546.973
546.777
546.632
546.618
546.839
547.333
548.176
549.284
550.52
551.146
550.887
549.089
545.688
545.174
544.892
544.603
544.328
544.099
543.917
543.771
543.644
543.528
543.417
543.308
543.2
543.092
542.985
542.878
542.771
542.664
542.557
542.45
542.342
542.235
542.127
542.019
541.911
541.803
541.694
541.586
541.477
541.368
541.259
541.15
541.041
540.932
540.823
540.714
540.605
552.577
552.631
552.684
552.734
552.781
552.82
552.844
552.847
552.828
552.786
552.721
552.635
552.53
552.407
552.271
552.128
551.983
551.843
551.708
551.578
551.454
551.335
551.219
551.106
550.998
550.892
550.791
550.692
550.597
550.504
550.413
550.323
550.233
550.145
550.058
549.973
549.889
549.806
549.725
549.645
549.565
549.486
549.408
549.331
549.257
549.182
549.106
549.031
548.957
548.884
548.815
548.748
548.685
548.625
548.569
548.515
548.464
548.413
548.361
548.304
548.243
548.174
548.094
547.999
547.886
547.755
547.598
547.417
547.204
546.956
546.684
546.416
546.231
546.204
546.558
547.53
548.884
550.944
553.247
555.918
557.429
557.895
553.799
545.142
545.144
545.075
544.731
544.383
544.106
543.902
543.746
543.618
543.502
543.393
543.286
543.181
543.076
542.97
542.865
542.76
542.654
542.548
542.442
542.335
542.229
542.122
542.014
541.907
541.799
541.691
541.583
541.475
541.366
541.258
541.149
541.04
540.931
540.823
540.714
540.605
552.582
552.647
552.71
552.772
552.828
552.876
552.907
552.915
552.899
552.857
552.791
552.703
552.593
552.463
552.318
552.165
552.011
551.861
551.717
551.581
551.452
551.328
551.208
551.091
550.977
550.864
550.755
550.649
550.548
550.45
550.354
550.26
550.167
550.076
549.986
549.898
549.813
549.728
549.645
549.562
549.48
549.398
549.317
549.237
549.159
549.083
549.005
548.926
548.849
548.775
548.705
548.639
548.578
548.522
548.47
548.421
548.373
548.323
548.27
548.208
548.134
548.044
547.934
547.79
547.606
547.389
547.12
546.809
546.452
546.037
545.634
545.31
545.322
545.781
547.096
550.143
552.627
556.532
560.347
563.84
567.033
568.336
565.404
552.028
546.051
545.401
544.848
544.411
544.096
543.877
543.718
543.59
543.476
543.37
543.266
543.162
543.059
542.956
542.853
542.749
542.644
542.54
542.435
542.329
542.223
542.117
542.01
541.903
541.796
541.688
541.581
541.473
541.365
541.256
541.148
541.039
540.931
540.822
540.713
540.604
552.589
552.665
552.741
552.814
552.881
552.939
552.977
552.991
552.978
552.939
552.873
552.783
552.671
552.535
552.382
552.221
552.061
551.904
551.751
551.607
551.471
551.342
551.219
551.101
550.981
550.86
550.742
550.627
550.517
550.412
550.31
550.21
550.111
550.014
549.919
549.827
549.737
549.648
549.559
549.47
549.382
549.294
549.208
549.122
549.039
548.959
548.879
548.798
548.72
548.647
548.579
548.517
548.462
548.413
548.367
548.32
548.269
548.208
548.134
548.042
547.918
547.759
547.559
547.295
546.936
546.507
545.986
545.404
544.796
544.085
543.602
543.492
544.341
545.854
549.133
552.93
558.251
562.009
566.069
567.827
568.723
567.45
563.604
549.352
545.745
545.317
544.79
544.357
544.049
543.837
543.683
543.56
543.45
543.347
543.245
543.145
543.044
542.943
542.841
542.739
542.636
542.532
542.428
542.323
542.218
542.112
542.006
541.9
541.793
541.686
541.578
541.471
541.363
541.255
541.147
541.038
540.93
540.822
540.713
540.604
552.596
552.686
552.776
552.862
552.94
553.006
553.052
553.072
553.065
553.028
552.964
552.876
552.764
552.628
552.471
552.308
552.145
551.983
551.82
551.664
551.517
551.38
551.254
551.141
551.014
550.883
550.752
550.622
550.5
550.385
550.273
550.162
550.054
549.948
549.846
549.746
549.647
549.548
549.447
549.345
549.245
549.147
549.052
548.96
548.867
548.78
548.701
548.624
548.551
548.486
548.424
548.37
548.324
548.284
548.241
548.179
548.092
547.974
547.816
547.625
547.361
547.007
546.542
546.013
545.346
544.523
543.625
542.811
542.043
541.253
540.566
540.502
541.693
543.725
546.852
550.314
554.16
557.552
561.917
564.208
565.322
563.685
559.123
547.156
545.811
545.153
544.63
544.243
543.973
543.784
543.644
543.528
543.424
543.324
543.226
543.128
543.03
542.93
542.83
542.729
542.628
542.525
542.422
542.318
542.213
542.108
542.003
541.897
541.79
541.684
541.576
541.469
541.362
541.254
541.146
541.038
540.929
540.821
540.713
540.604
552.603
552.709
552.814
552.914
553.003
553.077
553.13
553.156
553.154
553.121
553.06
552.977
552.872
552.742
552.59
552.431
552.273
552.11
551.931
551.757
551.59
551.433
551.3
551.219
551.076
550.935
550.789
550.63
550.49
550.358
550.23
550.099
549.98
549.865
549.748
549.634
549.517
549.396
549.27
549.144
549.026
548.914
548.805
548.701
548.602
548.505
548.436
548.384
548.333
548.289
548.241
548.21
548.194
548.169
548.125
548.007
547.813
547.568
547.225
546.811
546.291
545.559
544.503
543.527
542.544
541.761
541.104
540.857
540.567
540.833
540.551
540.954
541.553
542.985
544.859
547.895
550.429
553.183
556.51
558.474
559.46
558.682
556.414
549.807
545.644
544.856
544.413
544.101
543.884
543.727
543.604
543.497
543.398
543.303
543.208
543.113
543.017
542.919
542.821
542.721
542.621
542.519
542.416
542.313
542.209
542.105
542
541.894
541.788
541.682
541.575
541.468
541.36
541.253
541.145
541.037
540.929
540.821
540.712
540.604
552.61
552.732
552.854
552.968
553.066
553.145
553.203
553.235
553.238
553.207
553.15
553.078
552.991
552.883
552.745
552.591
552.439
552.277
552.089
551.898
551.689
551.498
551.374
551.289
551.139
551.015
550.866
550.708
550.568
550.422
550.276
550.122
549.967
549.822
549.69
549.557
549.402
549.233
549.056
548.888
548.745
548.61
548.475
548.338
548.223
548.139
548.121
548.135
548.085
548.042
548.007
548.047
548.157
548.134
548.062
547.926
547.558
547.169
546.751
546.213
545.792
545.316
544.392
543.685
543.17
542.595
542.158
541.854
541.635
541.583
541.472
541.705
542.156
542.753
543.822
545.41
547.099
549.192
551.523
552.647
554.157
554.175
553.048
549.307
545.486
544.566
544.19
543.963
543.799
543.672
543.565
543.467
543.374
543.283
543.192
543.099
543.005
542.91
542.813
542.714
542.615
542.514
542.412
542.309
542.206
542.102
541.997
541.892
541.786
541.68
541.573
541.467
541.359
541.252
541.144
541.036
540.929
540.82
540.712
540.604
552.612
552.745
552.886
553.018
553.123
553.201
553.266
553.299
553.297
553.259
553.209
553.151
553.106
553.044
552.933
552.802
552.649
552.473
552.255
552.036
551.822
551.619
551.459
551.311
551.143
551.056
550.939
550.804
550.637
550.465
550.294
550.117
549.945
549.805
549.675
549.521
549.321
549.118
548.88
548.645
548.454
548.287
548.161
547.979
547.868
547.808
547.928
548.136
547.985
547.871
547.801
547.872
548.302
548.285
548.154
547.988
547.732
547.46
547.255
546.846
546.463
546.151
545.57
545.08
544.732
544.362
543.979
543.68
543.48
543.264
543.109
543.139
543.27
543.574
543.986
544.694
545.628
546.885
548.468
549.515
551.223
551.821
550.956
548.634
545.391
544.39
544.022
543.846
543.73
543.626
543.532
543.44
543.351
543.265
543.177
543.088
542.996
542.902
542.806
542.709
542.61
542.51
542.409
542.307
542.204
542.1
541.995
541.89
541.785
541.679
541.572
541.466
541.359
541.251
541.144
541.036
540.928
540.82
540.712
540.604
552.603
552.738
552.895
553.048
553.159
553.229
553.332
553.345
553.301
553.225
553.184
553.145
553.199
553.209
553.152
553.072
552.87
552.628
552.385
552.18
551.99
551.73
551.511
551.312
551.115
551.057
550.937
550.754
550.504
550.278
550.075
549.883
549.74
549.709
549.575
549.317
548.997
548.767
548.495
548.212
547.986
547.82
547.931
547.862
547.701
547.617
547.767
547.958
547.931
547.903
547.763
547.751
548.129
548.198
548.154
548.04
547.916
547.78
547.691
547.488
547.218
546.995
546.735
546.473
546.217
545.924
545.614
545.336
545.166
544.922
544.682
544.528
544.509
544.529
544.617
544.857
545.381
546.226
547.393
548.106
549.634
550.286
549.057
547.068
544.809
544.252
543.912
543.78
543.674
543.591
543.506
543.414
543.329
543.248
543.166
543.079
542.989
542.897
542.802
542.705
542.607
542.507
542.406
542.305
542.202
542.098
541.994
541.889
541.784
541.678
541.572
541.465
541.358
541.251
541.143
541.036