/*--------------------------------*- C++ -*----------------------------------*\
  =========                 |
  \\      /  F ield         | OpenFOAM: The Open Source CFD Toolbox
   \\    /   O peration     | Website:  https://openfoam.org
    \\  /    A nd           | Version:  6
     \\/     M anipulation  |
\*---------------------------------------------------------------------------*/
FoamFile
{
    version     2.0;
    format      ascii;
    class       volScalarField;
    location    "2600";
    object      dmdt;
}
// * * * * * * * * * * * * * * * * * * * * * * * * * * * * * * * * * * * * * //

dimensions      [0 0 0 0 0 0 0];

internalField   nonuniform List<scalar> 
4800
(
-0.220193
-0.219415
-0.218671
-0.21795
-0.217231
-0.216502
-0.215755
-0.214989
-0.214201
-0.213394
-0.212571
-0.211732
-0.210871
-0.209988
-0.209085
-0.20816
-0.207215
-0.206247
-0.205257
-0.204245
-0.203215
-0.202168
-0.201105
-0.200027
-0.198938
-0.197838
-0.196731
-0.195616
-0.194497
-0.193375
-0.192249
-0.191116
-0.189971
-0.1888
-0.187586
-0.186315
-0.184985
-0.183596
-0.182151
-0.180656
-0.179121
-0.177564
-0.175996
-0.174429
-0.172864
-0.171299
-0.16973
-0.168152
-0.166556
-0.164929
-0.163266
-0.161563
-0.159816
-0.158022
-0.156179
-0.154282
-0.15233
-0.15032
-0.148247
-0.146109
-0.143901
-0.141615
-0.139241
-0.136764
-0.134161
-0.131405
-0.128462
-0.125293
-0.121849
-0.118077
-0.113919
-0.109321
-0.104232
-0.0986067
-0.0924247
-0.0856683
-0.0783674
-0.0705421
-0.0623133
-0.0540534
-0.0461227
-0.0386477
-0.031622
-0.0251109
-0.0190982
-0.0135423
-0.00838759
-0.00357619
0.000947522
0.0052339
0.00932721
0.0132652
0.0170792
0.0207949
0.0244328
0.0280093
0.031537
0.035026
0.0384839
0.0419167
0.045329
0.0487245
0.0521059
0.0554755
0.0588351
0.0621861
0.0655298
0.068867
0.0721987
0.0755256
0.0788483
0.0821674
0.0854834
0.0887967
0.0921078
0.0954171
0.0987249
0.102032
0.105337
0.108643
-0.220183
-0.219381
-0.218599
-0.217827
-0.21706
-0.21629
-0.215506
-0.214704
-0.213885
-0.21305
-0.212198
-0.211335
-0.210458
-0.209565
-0.208655
-0.207726
-0.206776
-0.205806
-0.204812
-0.203797
-0.202762
-0.201711
-0.200644
-0.199561
-0.198465
-0.197356
-0.196236
-0.195108
-0.193975
-0.19284
-0.191703
-0.190563
-0.189417
-0.188255
-0.187056
-0.185802
-0.184487
-0.183111
-0.181685
-0.18021
-0.178692
-0.17714
-0.175569
-0.173992
-0.172413
-0.170831
-0.169243
-0.167646
-0.166033
-0.164393
-0.162719
-0.161005
-0.159245
-0.157439
-0.155583
-0.153674
-0.151709
-0.149684
-0.147596
-0.145441
-0.143213
-0.140906
-0.138508
-0.136005
-0.13338
-0.130605
-0.127647
-0.124471
-0.121029
-0.117264
-0.113127
-0.108557
-0.103503
-0.0979204
-0.0917735
-0.0850745
-0.077839
-0.0702074
-0.0622797
-0.0542259
-0.0462474
-0.0385489
-0.0313812
-0.0248513
-0.0188575
-0.0133319
-0.00820957
-0.00342851
0.00106854
0.00533242
0.00940726
0.0133304
0.0171326
0.020839
0.0244696
0.0280403
0.0315635
0.0350489
0.0385039
0.0419343
0.0453447
0.0487385
0.0521185
0.0554868
0.0588453
0.0621953
0.065538
0.0688744
0.0722053
0.0755314
0.0788535
0.0821719
0.0854873
0.0888001
0.0921106
0.0954194
0.0987267
0.102033
0.105338
0.108643
-0.220155
-0.219284
-0.21842
-0.217561
-0.21671
-0.215861
-0.215012
-0.214144
-0.213263
-0.212373
-0.211474
-0.210571
-0.209659
-0.208737
-0.207804
-0.206858
-0.205898
-0.204922
-0.203925
-0.202905
-0.201864
-0.200805
-0.199728
-0.198633
-0.197522
-0.196395
-0.195256
-0.194105
-0.192947
-0.19179
-0.190633
-0.189479
-0.188328
-0.187177
-0.186004
-0.184782
-0.1835
-0.182156
-0.180756
-0.179306
-0.17781
-0.176275
-0.174709
-0.173123
-0.171526
-0.169917
-0.168295
-0.166661
-0.165014
-0.163344
-0.161642
-0.159903
-0.15812
-0.156291
-0.154411
-0.152477
-0.150487
-0.148436
-0.146321
-0.144137
-0.141876
-0.139533
-0.137094
-0.134552
-0.131887
-0.129078
-0.12609
-0.122894
-0.119445
-0.115693
-0.111581
-0.107059
-0.10206
-0.0965533
-0.0904865
-0.0838884
-0.0767691
-0.0692537
-0.0614826
-0.0535093
-0.0455429
-0.0379015
-0.0307781
-0.0242957
-0.0183649
-0.0129091
-0.00785524
-0.00313639
0.0013069
0.00552593
0.00956426
0.0134582
0.0172373
0.0209255
0.024542
0.0281015
0.0316159
0.0350942
0.0385436
0.0419693
0.0453758
0.0487663
0.0521434
0.0555093
0.0588655
0.0622135
0.0655544
0.0688891
0.0722184
0.0755431
0.0788638
0.082181
0.0854951
0.0888068
0.0921162
0.0954239
0.0987301
0.102035
0.10534
0.108644
-0.22011
-0.219127
-0.218138
-0.217162
-0.216206
-0.215253
-0.214316
-0.213361
-0.212403
-0.211443
-0.210479
-0.209516
-0.208553
-0.207588
-0.206619
-0.205643
-0.20466
-0.203666
-0.202656
-0.201625
-0.200575
-0.199505
-0.198414
-0.197303
-0.196175
-0.195026
-0.193868
-0.192691
-0.191509
-0.190327
-0.189151
-0.187983
-0.186825
-0.185675
-0.184515
-0.183321
-0.182072
-0.180761
-0.179391
-0.177969
-0.176497
-0.174977
-0.173417
-0.171826
-0.170213
-0.168581
-0.166929
-0.165262
-0.16358
-0.161877
-0.160143
-0.158372
-0.156558
-0.154698
-0.152786
-0.150821
-0.148799
-0.146713
-0.144562
-0.142338
-0.140037
-0.137648
-0.13516
-0.132568
-0.129849
-0.126986
-0.123952
-0.120715
-0.117239
-0.113478
-0.109374
-0.104887
-0.0999524
-0.0945348
-0.0885776
-0.0820978
-0.0751211
-0.0677273
-0.0600637
-0.0522335
-0.0444027
-0.0368589
-0.0298092
-0.0234271
-0.0176115
-0.0122728
-0.00732828
-0.00270579
0.00165604
0.00580819
0.00979274
0.013644
0.0173896
0.0210517
0.0246476
0.0281911
0.0316928
0.035161
0.0386021
0.0420211
0.0454219
0.0488076
0.0521805
0.0555427
0.0588956
0.0622406
0.0655788
0.068911
0.072238
0.0755606
0.0788792
0.0821945
0.0855068
0.0888167
0.0921245
0.0954306
0.0987353
0.102039
0.105342
0.108644
-0.220038
-0.218911
-0.217774
-0.216659
-0.215581
-0.214511
-0.213467
-0.212412
-0.211362
-0.210321
-0.209285
-0.208257
-0.207234
-0.206214
-0.205197
-0.20418
-0.203161
-0.202138
-0.201101
-0.200051
-0.198986
-0.197903
-0.196796
-0.195671
-0.194527
-0.193358
-0.19218
-0.190981
-0.189773
-0.188565
-0.187361
-0.186174
-0.185006
-0.18385
-0.18269
-0.181506
-0.18028
-0.178996
-0.177651
-0.176251
-0.174795
-0.173288
-0.171736
-0.170147
-0.16853
-0.166891
-0.165227
-0.163541
-0.161833
-0.1601
-0.158335
-0.156531
-0.154682
-0.152787
-0.150839
-0.148836
-0.146774
-0.144648
-0.142454
-0.140186
-0.137837
-0.135398
-0.132856
-0.130207
-0.12743
-0.124504
-0.121406
-0.118107
-0.11458
-0.110778
-0.106653
-0.102165
-0.0972614
-0.0919048
-0.086039
-0.0796718
-0.0728213
-0.0655568
-0.0580344
-0.0503946
-0.0427742
-0.0353836
-0.0284454
-0.0222276
-0.0165916
-0.0114264
-0.00663747
-0.0021476
0.00210501
0.00616931
0.0100843
0.0138811
0.0175843
0.0212133
0.0247834
0.0283067
0.0317924
0.0352478
0.0386784
0.0420888
0.0454824
0.0488618
0.0522293
0.0555866
0.0589353
0.0622764
0.065611
0.0689399
0.0722639
0.0755836
0.0788995
0.0822123
0.0855222
0.0888298
0.0921355
0.0954394
0.0987421
0.102044
0.105345
0.108645
-0.219945
-0.218641
-0.21734
-0.216076
-0.214862
-0.213674
-0.212512
-0.211352
-0.210203
-0.209074
-0.207961
-0.206862
-0.205774
-0.204695
-0.203624
-0.202558
-0.201497
-0.200435
-0.199364
-0.198287
-0.197201
-0.196098
-0.194971
-0.193827
-0.192665
-0.191477
-0.190276
-0.189058
-0.187829
-0.1866
-0.185373
-0.184162
-0.182973
-0.181798
-0.180623
-0.179431
-0.17821
-0.176938
-0.175606
-0.174223
-0.172781
-0.171287
-0.169748
-0.168169
-0.166556
-0.164917
-0.163247
-0.16155
-0.159822
-0.158065
-0.156271
-0.154435
-0.152551
-0.150619
-0.148631
-0.146589
-0.144483
-0.142314
-0.140074
-0.137762
-0.135367
-0.132876
-0.130288
-0.127578
-0.124736
-0.121755
-0.118593
-0.115224
-0.111632
-0.107765
-0.103593
-0.0990834
-0.0941986
-0.0888917
-0.0831077
-0.0768512
-0.0701122
-0.0629389
-0.055495
-0.0479305
-0.0404516
-0.0333097
-0.0266294
-0.0206759
-0.0153044
-0.0103812
-0.00579944
-0.00147943
0.00263759
0.00659545
0.0104278
0.0141606
0.0178143
0.0214051
0.0249455
0.0284453
0.0319125
0.0353529
0.0387713
0.0421715
0.0455564
0.0489283
0.0522893
0.0556408
0.0589842
0.0623205
0.0656507
0.0689756
0.0722958
0.075612
0.0789247
0.0822343
0.0855413
0.0888461
0.092149
0.0954504
0.0987505
0.10205
0.105348
0.108646
-0.219842
-0.218351
-0.216879
-0.215457
-0.214097
-0.21278
-0.211494
-0.210226
-0.208976
-0.207752
-0.206555
-0.20538
-0.204223
-0.203081
-0.201952
-0.200832
-0.199723
-0.198614
-0.197502
-0.196389
-0.195275
-0.194144
-0.192991
-0.191822
-0.190638
-0.189432
-0.188212
-0.186978
-0.185734
-0.18449
-0.183246
-0.182014
-0.180802
-0.179601
-0.178401
-0.17719
-0.175956
-0.174676
-0.173346
-0.171971
-0.170538
-0.169052
-0.167523
-0.16595
-0.164341
-0.162699
-0.161025
-0.159318
-0.157574
-0.155795
-0.153973
-0.152106
-0.150188
-0.148219
-0.146191
-0.144109
-0.141961
-0.139751
-0.137468
-0.135115
-0.132679
-0.130143
-0.127519
-0.124762
-0.121867
-0.11883
-0.11561
-0.112174
-0.108512
-0.104557
-0.100291
-0.0957163
-0.0907988
-0.0854991
-0.0797663
-0.0735884
-0.066946
-0.0598704
-0.0525208
-0.0450619
-0.0377384
-0.0307671
-0.0243417
-0.018761
-0.0137622
-0.00916226
-0.00484253
-0.000727668
0.00323146
0.00706873
0.0108091
0.0144718
0.0180718
0.0216211
0.0251292
0.0286037
0.0320505
0.0354745
0.0388793
0.042268
0.0456431
0.0490065
0.0523599
0.0557047
0.0590419
0.0623727
0.0656977
0.0690178
0.0723336
0.0756456
0.0789544
0.0822603
0.0855638
0.0888653
0.092165
0.0954633
0.0987605
0.102057
0.105353
0.108648
-0.219734
-0.218033
-0.216378
-0.214798
-0.213299
-0.211852
-0.210438
-0.209053
-0.207698
-0.206375
-0.205089
-0.203831
-0.202599
-0.201388
-0.200196
-0.199017
-0.197855
-0.196694
-0.195534
-0.194379
-0.193229
-0.192067
-0.190882
-0.189685
-0.188477
-0.187252
-0.186016
-0.184769
-0.183515
-0.182261
-0.181007
-0.179757
-0.178525
-0.177297
-0.176068
-0.174831
-0.173573
-0.172272
-0.17093
-0.169547
-0.168111
-0.166624
-0.165095
-0.163521
-0.16191
-0.160263
-0.158581
-0.156861
-0.155102
-0.153301
-0.151454
-0.149557
-0.147605
-0.145602
-0.143534
-0.141416
-0.13923
-0.13698
-0.134663
-0.132273
-0.129799
-0.127229
-0.124573
-0.121779
-0.118846
-0.115765
-0.112493
-0.109019
-0.105317
-0.101328
-0.0969955
-0.0923484
-0.0873555
-0.081993
-0.0762295
-0.0700447
-0.0634128
-0.0563413
-0.04897
-0.0414434
-0.0341027
-0.0273524
-0.0214471
-0.0164671
-0.0119993
-0.00781753
-0.00381196
7.05198e-05
0.00385789
0.00756762
0.0112126
0.0148032
0.0183482
0.0218552
0.0253302
0.0287784
0.032204
0.0356106
0.0390009
0.0423772
0.0457416
0.0490956
0.0524405
0.0557777
0.059108
0.0624324
0.0657516
0.0690662
0.0723769
0.0756841
0.0789884
0.0822901
0.0855896
0.0888873
0.0921834
0.0954781
0.0987719
0.102065
0.105357
0.108649
-0.219626
-0.217719
-0.215876
-0.214128
-0.212479
-0.210896
-0.209352
-0.207845
-0.206377
-0.20495
-0.203566
-0.202219
-0.200906
-0.19962
-0.19836
-0.197119
-0.195898
-0.194683
-0.193472
-0.192272
-0.191078
-0.189881
-0.188662
-0.187433
-0.186198
-0.184953
-0.183702
-0.182443
-0.181179
-0.179917
-0.178654
-0.177391
-0.176138
-0.174887
-0.173628
-0.172363
-0.171072
-0.169746
-0.16838
-0.166975
-0.165523
-0.164023
-0.162484
-0.160901
-0.159281
-0.157624
-0.155929
-0.154194
-0.152417
-0.150596
-0.148723
-0.146796
-0.144813
-0.142777
-0.140672
-0.138519
-0.136301
-0.134019
-0.131673
-0.129253
-0.126748
-0.124157
-0.121471
-0.118661
-0.115705
-0.112597
-0.109275
-0.105759
-0.102012
-0.0979962
-0.0936427
-0.0889512
-0.0839051
-0.0784789
-0.0726651
-0.0664555
-0.0597875
-0.052636
-0.0450926
-0.0373041
-0.0296215
-0.0227842
-0.0178389
-0.0138419
-0.010109
-0.00643404
-0.00277495
0.000866741
0.00448297
0.00806845
0.0116215
0.015143
0.0186353
0.0221012
0.0255439
0.0289661
0.0323706
0.0357594
0.0391346
0.0424979
0.0458509
0.0491946
0.0525304
0.0558592
0.0591819
0.0624992
0.0658118
0.0691204
0.0724254
0.0757273
0.0790266
0.0823235
0.0856186
0.0889119
0.0922039
0.0954947
0.0987847
0.102074
0.105363
0.108651
-0.219516
-0.217393
-0.215355
-0.21344
-0.211641
-0.209917
-0.208238
-0.206606
-0.20502
-0.203483
-0.201994
-0.200552
-0.199151
-0.197785
-0.196451
-0.195144
-0.19386
-0.192588
-0.191323
-0.190074
-0.188835
-0.187598
-0.186344
-0.185081
-0.183817
-0.182549
-0.18128
-0.180008
-0.178734
-0.177461
-0.176189
-0.174913
-0.173641
-0.172366
-0.17108
-0.169783
-0.16846
-0.167102
-0.165706
-0.164271
-0.162793
-0.161271
-0.159712
-0.15811
-0.156474
-0.154801
-0.15309
-0.151334
-0.149539
-0.147693
-0.145794
-0.143838
-0.141827
-0.139758
-0.137625
-0.135437
-0.133186
-0.13088
-0.128512
-0.126072
-0.123552
-0.12095
-0.118238
-0.115417
-0.112461
-0.109352
-0.106036
-0.102513
-0.0987453
-0.0947014
-0.0903379
-0.0856271
-0.0805513
-0.0750963
-0.069246
-0.0629928
-0.0562769
-0.0490494
-0.0412822
-0.0329488
-0.0241657
-0.0159761
-0.0134581
-0.011105
-0.00829561
-0.00515185
-0.0018202
0.00160549
0.00507147
0.00854838
0.0120207
0.0154809
0.0189257
0.0223542
0.0257667
0.0291642
0.032548
0.0359192
0.0392792
0.0426291
0.04597
0.049303
0.0526289
0.0559487
0.0592631
0.0625727
0.0658781
0.06918
0.0724787
0.0757748
0.0790685
0.0823603
0.0856503
0.088939
0.0922265
0.095513
0.0987987
0.102084
0.105369
0.108653
-0.219405
-0.217071
-0.214839
-0.212745
-0.210784
-0.208911
-0.207094
-0.20533
-0.203623
-0.201972
-0.200377
-0.198835
-0.197341
-0.19589
-0.194475
-0.193099
-0.191749
-0.190418
-0.189097
-0.187795
-0.186509
-0.185226
-0.183937
-0.182641
-0.181346
-0.180053
-0.178762
-0.177474
-0.176187
-0.174902
-0.173617
-0.172327
-0.171035
-0.169738
-0.168428
-0.1671
-0.165744
-0.164354
-0.162924
-0.161454
-0.159943
-0.158391
-0.156803
-0.155178
-0.153518
-0.151824
-0.15009
-0.14831
-0.14649
-0.144617
-0.14269
-0.140704
-0.138662
-0.136563
-0.134405
-0.132187
-0.12991
-0.127583
-0.125198
-0.122744
-0.12022
-0.117618
-0.114904
-0.112078
-0.109126
-0.106013
-0.102705
-0.0991838
-0.095432
-0.0914037
-0.087062
-0.0823787
-0.0773205
-0.0718751
-0.0660311
-0.0597738
-0.0530322
-0.0457538
-0.0378985
-0.0292077
-0.0183889
-0.00242704
-0.00904396
-0.00894333
-0.00692427
-0.00415226
-0.00104045
0.00223648
0.00559442
0.00898977
0.012399
0.0158095
0.0192143
0.0226103
0.0259958
0.0293705
0.0327347
0.0360887
0.0394335
0.0427697
0.0460982
0.0494199
0.0527354
0.0560455
0.0593509
0.0626522
0.0659499
0.0692445
0.0725365
0.0758262
0.0791139
0.0824
0.0856847
0.0889683
0.0922509
0.0955327
0.0988139
0.102095
0.105375
0.108655
-0.219291
-0.216734
-0.214298
-0.212025
-0.209902
-0.207877
-0.205918
-0.204021
-0.202189
-0.200422
-0.198718
-0.197072
-0.195484
-0.193946
-0.192449
-0.190995
-0.189575
-0.188181
-0.186803
-0.185445
-0.184108
-0.182779
-0.18145
-0.180121
-0.178797
-0.177477
-0.176163
-0.174856
-0.173553
-0.172254
-0.170953
-0.169648
-0.168337
-0.167019
-0.165687
-0.164332
-0.162945
-0.161521
-0.160056
-0.158549
-0.157
-0.155413
-0.15379
-0.152133
-0.150444
-0.148721
-0.146958
-0.145154
-0.143303
-0.141398
-0.13944
-0.137423
-0.135348
-0.13322
-0.131034
-0.128789
-0.126492
-0.124151
-0.121755
-0.119297
-0.116774
-0.114179
-0.111478
-0.10867
-0.105737
-0.102646
-0.099369
-0.0958711
-0.0921408
-0.0881368
-0.0838379
-0.0792176
-0.0742329
-0.0688551
-0.0630799
-0.0569064
-0.0503006
-0.0432618
-0.0358241
-0.0280043
-0.0200057
-0.0124169
-0.0106082
-0.00878562
-0.00638611
-0.00356414
-0.000487454
0.00273506
0.00603847
0.00938466
0.0127513
0.0161252
0.0194988
0.0228677
0.0262298
0.0295838
0.0329295
0.0362669
0.0395965
0.0429189
0.0462347
0.0495445
0.052849
0.0561489
0.0594448
0.0627372
0.0660267
0.0693135
0.0725982
0.0758811
0.0791624
0.0824425
0.0857214
0.0889995
0.0922769
0.0955537
0.0988301
0.102106
0.105382
0.108658
-0.219173
-0.21639
-0.213747
-0.211287
-0.208995
-0.206813
-0.204709
-0.202677
-0.200718
-0.198832
-0.197016
-0.195266
-0.193579
-0.19195
-0.190372
-0.188839
-0.187347
-0.185887
-0.184449
-0.183034
-0.181642
-0.180265
-0.178894
-0.177529
-0.176175
-0.174829
-0.17349
-0.172162
-0.170842
-0.169527
-0.168209
-0.166889
-0.16556
-0.164222
-0.162871
-0.161493
-0.16008
-0.158625
-0.157125
-0.15558
-0.15399
-0.152363
-0.150702
-0.149007
-0.147283
-0.145526
-0.143727
-0.141893
-0.140008
-0.138068
-0.136076
-0.134024
-0.131918
-0.129759
-0.127546
-0.125276
-0.122958
-0.120601
-0.118197
-0.115744
-0.113233
-0.110655
-0.107973
-0.105186
-0.102275
-0.0992181
-0.0959822
-0.0925348
-0.0888598
-0.0849193
-0.0806874
-0.0761455
-0.0712711
-0.0660211
-0.0604006
-0.0544265
-0.0480952
-0.0414481
-0.0346274
-0.0278493
-0.021487
-0.0158697
-0.0122468
-0.00926402
-0.0063259
-0.00328044
-0.000123044
0.0031172
0.00641118
0.00973697
0.0130795
0.0164291
0.0197793
0.0231264
0.0264682
0.0298035
0.0331318
0.0364531
0.0397677
0.043076
0.0463786
0.0496761
0.0529692
0.0562583
0.0595442
0.0628272
0.0661079
0.0693865
0.0726635
0.0759391
0.0792137
0.0824873
0.0857602
0.0890325
0.0923044
0.0955759
0.0988472
0.102118
0.105389
0.10866
-0.21905
-0.21603
-0.213173
-0.210521
-0.208056
-0.205716
-0.203464
-0.201295
-0.199209
-0.197203
-0.195274
-0.193419
-0.191633
-0.189911
-0.188249
-0.186636
-0.185068
-0.183538
-0.182039
-0.180566
-0.179118
-0.17769
-0.176275
-0.174871
-0.173485
-0.172111
-0.170747
-0.169399
-0.168057
-0.166725
-0.165389
-0.164055
-0.162711
-0.161356
-0.159989
-0.158593
-0.157158
-0.155678
-0.154145
-0.152563
-0.150933
-0.149265
-0.147565
-0.145828
-0.144061
-0.142266
-0.140431
-0.13856
-0.136638
-0.134661
-0.132634
-0.130547
-0.12841
-0.126217
-0.123976
-0.121684
-0.119347
-0.116973
-0.114561
-0.112112
-0.109616
-0.107062
-0.104418
-0.101668
-0.0987953
-0.0957785
-0.0925944
-0.0892153
-0.0856161
-0.0817641
-0.077627
-0.0731909
-0.0684578
-0.0633888
-0.0579812
-0.0522649
-0.0462735
-0.0401007
-0.0339114
-0.0279253
-0.0223815
-0.0173782
-0.013285
-0.00973441
-0.00640645
-0.00313818
0.000133391
0.00342498
0.00673582
0.0100601
0.0133918
0.0167259
0.0200588
0.023388
0.0267119
0.0300299
0.0333415
0.0366469
0.0399463
0.0432402
0.0465293
0.0498141
0.0530951
0.056373
0.0596483
0.0629215
0.0661929
0.0694629
0.0727318
0.0759998
0.0792672
0.0825341
0.0858007
0.0890669
0.0923331
0.0955991
0.098865
0.102131
0.105397
0.108663
-0.218924
-0.21566
-0.21258
-0.209728
-0.207086
-0.204585
-0.202183
-0.199875
-0.197658
-0.195532
-0.193492
-0.191533
-0.189649
-0.187834
-0.186085
-0.184393
-0.18275
-0.181148
-0.179581
-0.178048
-0.176543
-0.175062
-0.173599
-0.172153
-0.170728
-0.169322
-0.16793
-0.166564
-0.165201
-0.163847
-0.162493
-0.161144
-0.159787
-0.158419
-0.157038
-0.15563
-0.15418
-0.15268
-0.151119
-0.149504
-0.147836
-0.146131
-0.144394
-0.142617
-0.140805
-0.138969
-0.137095
-0.13518
-0.133218
-0.131201
-0.129135
-0.127016
-0.124851
-0.122632
-0.120366
-0.11805
-0.115689
-0.113293
-0.110872
-0.108423
-0.105945
-0.103421
-0.100817
-0.0981031
-0.0952745
-0.0923112
-0.089195
-0.0858873
-0.0823687
-0.078631
-0.074634
-0.0703447
-0.0657777
-0.060916
-0.0557572
-0.050341
-0.0447107
-0.0389787
-0.0333137
-0.0278743
-0.0227423
-0.018007
-0.0138002
-0.00999846
-0.00644107
-0.00301065
0.000360559
0.00370639
0.00704182
0.0103725
0.0136996
0.017023
0.0203417
0.023655
0.0269624
0.0302636
0.0335587
0.036848
0.040132
0.0434111
0.0466861
0.0499576
0.0532261
0.0564923
0.0597565
0.0630193
0.0662811
0.069542
0.0728025
0.0760626
0.0793226
0.0825825
0.0858425
0.0891025
0.0923627
0.0956229
0.0988834
0.102144
0.105404
0.108665
-0.218798
-0.215283
-0.21197
-0.208911
-0.206086
-0.203419
-0.200864
-0.198414
-0.196067
-0.193821
-0.191669
-0.189607
-0.187626
-0.18572
-0.183882
-0.182105
-0.180385
-0.178713
-0.177079
-0.175482
-0.173917
-0.172382
-0.170868
-0.169376
-0.167908
-0.166463
-0.165036
-0.16365
-0.162266
-0.160889
-0.159514
-0.158148
-0.15678
-0.155403
-0.154011
-0.152594
-0.151133
-0.149619
-0.148039
-0.146398
-0.144697
-0.142959
-0.141188
-0.139377
-0.137526
-0.135645
-0.133732
-0.131779
-0.129782
-0.127733
-0.125632
-0.123477
-0.121275
-0.119025
-0.116738
-0.114408
-0.112035
-0.109625
-0.107191
-0.104731
-0.102254
-0.0997541
-0.0971992
-0.0945396
-0.0917615
-0.0888561
-0.08582
-0.0826109
-0.079194
-0.0755683
-0.0717161
-0.067593
-0.0632098
-0.0585748
-0.0536783
-0.0485545
-0.0432645
-0.0379216
-0.0326537
-0.0275803
-0.0227012
-0.0181185
-0.0139116
-0.0100164
-0.00634539
-0.00281971
0.000617585
0.00400273
0.00735707
0.0106925
0.0140151
0.0173282
0.0206331
0.0239307
0.0272213
0.0305055
0.0337836
0.0370563
0.0403242
0.043588
0.0468483
0.0501059
0.0533613
0.0566152
0.059868
0.0631201
0.0663718
0.0696234
0.0728751
0.0761271
0.0793794
0.0826321
0.0858853
0.0891389
0.0923929
0.0956474
0.0989021
0.102157
0.105412
0.108668
-0.21867
-0.214895
-0.211334
-0.208058
-0.205044
-0.202211
-0.199505
-0.196915
-0.194438
-0.192072
-0.18981
-0.187646
-0.18557
-0.183573
-0.18165
-0.179788
-0.177984
-0.176233
-0.174529
-0.172866
-0.171239
-0.169645
-0.16808
-0.166541
-0.165028
-0.16354
-0.162072
-0.160656
-0.159251
-0.15785
-0.156452
-0.155066
-0.153685
-0.152299
-0.150899
-0.149473
-0.148005
-0.14648
-0.144887
-0.14323
-0.141506
-0.139741
-0.137945
-0.13611
-0.134234
-0.132319
-0.130369
-0.128383
-0.126355
-0.124278
-0.122149
-0.119966
-0.117734
-0.115455
-0.113141
-0.110791
-0.108404
-0.105985
-0.103546
-0.101083
-0.0986059
-0.096117
-0.0935976
-0.0909919
-0.08827
-0.0854274
-0.0824726
-0.0793706
-0.0760741
-0.0725737
-0.0688704
-0.0649246
-0.0607319
-0.0563134
-0.0516664
-0.0468214
-0.0418322
-0.0367873
-0.0317858
-0.0269555
-0.0222874
-0.017849
-0.0136965
-0.00979321
-0.00608686
-0.00252336
0.000942555
0.00434407
0.00770369
0.0110357
0.014349
0.0176486
0.0209375
0.0242177
0.0274902
0.0307562
0.0340163
0.0372714
0.0405224
0.04377
0.047015
0.0502581
0.0534999
0.0567411
0.0599819
0.0632229
0.0664642
0.0697062
0.072949
0.0761926
0.079437
0.0826824
0.0859287
0.0891758
0.0924236
0.0956721
0.0989211
0.102171
0.10542
0.10867
-0.218534
-0.214489
-0.210668
-0.207163
-0.203953
-0.200953
-0.198094
-0.195365
-0.19276
-0.190276
-0.187907
-0.185643
-0.183473
-0.181386
-0.179375
-0.177429
-0.175543
-0.173712
-0.171931
-0.170197
-0.168501
-0.166843
-0.165223
-0.163639
-0.162085
-0.160554
-0.159045
-0.157585
-0.156153
-0.154729
-0.153303
-0.151898
-0.150502
-0.149107
-0.147698
-0.146261
-0.144783
-0.14325
-0.141649
-0.139983
-0.13825
-0.136469
-0.134653
-0.132801
-0.130906
-0.128967
-0.126989
-0.124974
-0.12292
-0.120822
-0.11867
-0.116466
-0.114211
-0.111911
-0.109574
-0.107204
-0.104802
-0.102376
-0.0999333
-0.0974742
-0.0950033
-0.0925255
-0.0900326
-0.087475
-0.084812
-0.0820349
-0.0791565
-0.0761622
-0.0729978
-0.0696357
-0.0660813
-0.0623146
-0.0583202
-0.0541127
-0.049695
-0.0450878
-0.0403445
-0.035539
-0.0307509
-0.026076
-0.0215757
-0.0172748
-0.0132052
-0.00934438
-0.005657
-0.00210241
0.00135649
0.004749
0.00809646
0.0114134
0.0147091
0.0179895
0.0212584
0.024518
0.0277702
0.031016
0.0342565
0.0374929
0.0407258
0.0439564
0.0471852
0.0504132
0.0536409
0.0568688
0.0600974
0.0633269
0.0665577
0.0697898
0.0730234
0.0762585
0.0794951
0.082733
0.0859723
0.0892128
0.0924544
0.0956969
0.0989402
0.102184
0.105428
0.108673
-0.218383
-0.214045
-0.209949
-0.2062
-0.202788
-0.199624
-0.196617
-0.193754
-0.191025
-0.188428
-0.185954
-0.183592
-0.18133
-0.179155
-0.177057
-0.175026
-0.173055
-0.171143
-0.169283
-0.167477
-0.16571
-0.16398
-0.162294
-0.16066
-0.159066
-0.157494
-0.155945
-0.154442
-0.152975
-0.15152
-0.150064
-0.148638
-0.147229
-0.145825
-0.144405
-0.142953
-0.141456
-0.139906
-0.138297
-0.136626
-0.134895
-0.133116
-0.131297
-0.129436
-0.12753
-0.125576
-0.123579
-0.121545
-0.119473
-0.117357
-0.115188
-0.112968
-0.1107
-0.108386
-0.106036
-0.103653
-0.101241
-0.0988076
-0.0963623
-0.0939085
-0.0914482
-0.0889858
-0.0865167
-0.0840014
-0.0813962
-0.0786874
-0.0758819
-0.0729836
-0.0699531
-0.0667481
-0.063354
-0.0597569
-0.055947
-0.0519338
-0.0477239
-0.0433315
-0.0388057
-0.0342007
-0.0295798
-0.0250008
-0.0206165
-0.0164411
-0.0124692
-0.00868516
-0.00505817
-0.00155169
0.00186762
0.00522606
0.00854287
0.0118312
0.0150997
0.0183539
0.0215974
0.0248326
0.0280612
0.0312845
0.0345036
0.0377196
0.0409334
0.0441458
0.0473578
0.0505701
0.0537831
0.0569974
0.0602134
0.0634313
0.0666513
0.0698735
0.0730979
0.0763244
0.0795529
0.0827835
0.0860158
0.0892497
0.092485
0.0957216
0.0989592
0.102198
0.105436
0.108676
-0.21821
-0.213544
-0.209154
-0.205151
-0.20153
-0.198201
-0.195054
-0.192067
-0.189225
-0.186525
-0.183954
-0.181499
-0.179148
-0.176882
-0.174691
-0.172568
-0.170511
-0.168519
-0.16658
-0.164699
-0.162865
-0.161061
-0.159297
-0.157591
-0.155942
-0.154332
-0.15276
-0.15122
-0.149714
-0.148222
-0.146732
-0.145275
-0.143848
-0.142439
-0.141022
-0.139567
-0.138062
-0.136494
-0.134876
-0.133198
-0.131467
-0.129691
-0.127875
-0.126015
-0.124106
-0.122148
-0.120143
-0.1181
-0.116019
-0.113892
-0.111712
-0.109485
-0.10721
-0.104892
-0.102536
-0.100147
-0.0977308
-0.0952944
-0.0928493
-0.0904054
-0.0879574
-0.0855099
-0.0830608
-0.0805843
-0.0780377
-0.0754004
-0.0726725
-0.0698573
-0.0669376
-0.0638734
-0.0606391
-0.0572264
-0.0536044
-0.0497808
-0.0457586
-0.0415491
-0.0371891
-0.0327247
-0.0282259
-0.0237378
-0.0194414
-0.0153698
-0.0115044
-0.00782717
-0.00429807
-0.000875447
0.00247432
0.00577526
0.00904367
0.0122902
0.0155215
0.0187421
0.0219546
0.0251609
0.0283626
0.0315607
0.0347563
0.0379503
0.0411436
0.0443371
0.0475314
0.0507273
0.0539253
0.0571257
0.0603289
0.063535
0.0667442
0.0699563
0.0731715
0.0763894
0.07961
0.0828332
0.0860585
0.089286
0.0925151
0.0957458
0.0989778
0.102211
0.105444
0.108678
-0.218018
-0.212981
-0.208259
-0.203979
-0.200144
-0.196655
-0.193384
-0.190285
-0.187342
-0.184549
-0.181891
-0.179353
-0.176917
-0.174568
-0.172293
-0.170078
-0.167924
-0.165844
-0.16383
-0.161876
-0.159977
-0.158118
-0.156293
-0.154514
-0.152791
-0.151114
-0.149505
-0.147939
-0.146403
-0.144881
-0.14337
-0.141878
-0.140417
-0.138987
-0.137558
-0.136094
-0.134584
-0.133005
-0.131384
-0.129705
-0.127977
-0.126207
-0.124399
-0.122545
-0.120642
-0.11869
-0.11669
-0.114649
-0.11257
-0.110443
-0.108263
-0.106038
-0.103765
-0.101449
-0.0990967
-0.096709
-0.0942943
-0.0918585
-0.0894137
-0.0869807
-0.084549
-0.082116
-0.079681
-0.0772332
-0.0747405
-0.0721779
-0.0695362
-0.0668095
-0.0639998
-0.0610657
-0.0579743
-0.0547349
-0.0512849
-0.0476406
-0.0437885
-0.0397402
-0.0355253
-0.0311815
-0.026769
-0.0223365
-0.0180701
-0.0140561
-0.010309
-0.00677768
-0.00338903
-8.62397e-05
0.00316631
0.0063891
0.00959373
0.0127867
0.015972
0.0191518
0.0223278
0.0255011
0.0286724
0.0318427
0.0350127
0.0381831
0.0413548
0.0445284
0.0477044
0.0508836
0.0540662
0.0572525
0.0604428
0.0636371
0.0668354
0.0700376
0.0732435
0.076453
0.0796658
0.0828817
0.0861003
0.0893213
0.0925445
0.0957695
0.0989959
0.102224
0.105452
0.108681
-0.217816
-0.21239
-0.207314
-0.202724
-0.198644
-0.194985
-0.1916
-0.188401
-0.185366
-0.182489
-0.179754
-0.177147
-0.174646
-0.172225
-0.169875
-0.167588
-0.165361
-0.163203
-0.161119
-0.159091
-0.157116
-0.155188
-0.153296
-0.151448
-0.149656
-0.147909
-0.146235
-0.144622
-0.143047
-0.141491
-0.139959
-0.138444
-0.136953
-0.135495
-0.134049
-0.132563
-0.131043
-0.129462
-0.127838
-0.126165
-0.124447
-0.122689
-0.120895
-0.119055
-0.117166
-0.115227
-0.113242
-0.111216
-0.109152
-0.107039
-0.104868
-0.102653
-0.100391
-0.0980826
-0.0957355
-0.0933528
-0.0909446
-0.0885189
-0.0860847
-0.0836613
-0.0812439
-0.0788245
-0.0764034
-0.0739786
-0.0715292
-0.0690386
-0.0664879
-0.063856
-0.0611572
-0.0583519
-0.0553915
-0.052308
-0.0490215
-0.0455402
-0.0418412
-0.0379366
-0.0338393
-0.0295766
-0.0252079
-0.0207793
-0.0164602
-0.0124396
-0.0088566
-0.00554336
-0.00235245
0.000792905
0.00392447
0.00705339
0.0101829
0.0133137
0.0164457
0.019579
0.0227137
0.0258498
0.0289878
0.0321278
0.0352703
0.0384158
0.0415648
0.0447177
0.047875
0.0510371
0.0542042
0.0573764
0.0605538
0.0637363
0.0669239
0.0701163
0.0733133
0.0765145
0.0797197
0.0829285
0.0861405
0.0893554
0.0925727
0.0957922
0.0990134
0.102236
0.105459
0.108683
-0.2176
-0.211761
-0.206322
-0.201422
-0.197079
-0.193218
-0.189701
-0.186416
-0.183312
-0.180369
-0.177573
-0.174904
-0.172346
-0.169873
-0.167466
-0.165119
-0.162819
-0.160583
-0.158422
-0.156321
-0.154275
-0.152276
-0.150307
-0.148384
-0.146515
-0.144697
-0.142952
-0.14128
-0.139659
-0.138067
-0.136511
-0.134976
-0.133465
-0.131981
-0.130517
-0.12901
-0.127477
-0.125894
-0.124271
-0.122607
-0.120901
-0.119159
-0.117384
-0.115567
-0.113702
-0.111789
-0.109829
-0.107828
-0.10579
-0.103705
-0.101561
-0.0993621
-0.0971205
-0.0948271
-0.0924959
-0.0901243
-0.0877198
-0.0853006
-0.0828796
-0.0804698
-0.0780675
-0.0756635
-0.0732588
-0.0708557
-0.0684434
-0.06601
-0.0635353
-0.0609966
-0.0583968
-0.0557142
-0.052897
-0.0499531
-0.0468291
-0.0435064
-0.0399627
-0.0361974
-0.0322121
-0.0280136
-0.0236184
-0.0190792
-0.0145416
-0.0103516
-0.00709652
-0.00414779
-0.00123133
0.00172344
0.0047202
0.00774826
0.0107975
0.0138612
0.0169354
0.0200178
0.0231072
0.026203
0.0293049
0.0324125
0.035526
0.0386455
0.041771
0.0449029
0.0480412
0.0511861
0.0543377
0.0574959
0.0606606
0.0638317
0.0670088
0.0701917
0.07338
0.0765732
0.0797711
0.0829731
0.0861788
0.0893878
0.0925996
0.0958138
0.0990299
0.102248
0.105466
0.108686
-0.217387
-0.211135
-0.205311
-0.200084
-0.195467
-0.191388
-0.187718
-0.18434
-0.181178
-0.178194
-0.175361
-0.172659
-0.170066
-0.167548
-0.165083
-0.162681
-0.160319
-0.158025
-0.155794
-0.153623
-0.151494
-0.149408
-0.147348
-0.14533
-0.143362
-0.141461
-0.139639
-0.137903
-0.136234
-0.134611
-0.133032
-0.131482
-0.12996
-0.128459
-0.126977
-0.125459
-0.123919
-0.122339
-0.120724
-0.119072
-0.11738
-0.115656
-0.113904
-0.112114
-0.110279
-0.108405
-0.106483
-0.104522
-0.102523
-0.100477
-0.0983706
-0.0962035
-0.0939903
-0.091718
-0.0894055
-0.0870526
-0.0846593
-0.0822485
-0.079838
-0.0774409
-0.0750544
-0.0726705
-0.0702887
-0.0679102
-0.065536
-0.063155
-0.0607469
-0.0582931
-0.0557852
-0.0532068
-0.0505366
-0.0477286
-0.0447632
-0.0416044
-0.0382267
-0.0346041
-0.0307117
-0.0265511
-0.0220894
-0.0173169
-0.0122553
-0.0072931
-0.00499443
-0.00268502
-0.000113321
0.00264646
0.00551713
0.00845118
0.0114228
0.0144189
0.0174328
0.0204614
0.0235026
0.0265555
0.0296192
0.032693
0.0357764
0.038869
0.0419708
0.0450814
0.0482007
0.0513287
0.054465
0.0576096
0.060762
0.0639219
0.067089
0.0702628
0.0734428
0.0766285
0.0798194
0.083015
0.0862147
0.0894182
0.0926248
0.095834
0.0990455
0.102259
0.105473
0.108688
-0.217187
-0.210531
-0.204322
-0.198767
-0.193886
-0.189592
-0.185763
-0.182279
-0.179048
-0.176022
-0.17317
-0.170453
-0.167834
-0.165275
-0.162754
-0.160295
-0.157879
-0.155524
-0.153232