/*--------------------------------*- C++ -*----------------------------------*\
  =========                 |
  \\      /  F ield         | OpenFOAM: The Open Source CFD Toolbox
   \\    /   O peration     | Website:  https://openfoam.org
    \\  /    A nd           | Version:  6
     \\/     M anipulation  |
\*---------------------------------------------------------------------------*/
FoamFile
{
    version     2.0;
    format      ascii;
    class       surfaceScalarField;
    location    "2600";
    object      phi;
}
// * * * * * * * * * * * * * * * * * * * * * * * * * * * * * * * * * * * * * //

dimensions      [0 3 -1 0 0 0 0];

internalField   nonuniform List<scalar> 
9440
(
-3.54292e-10
3.54292e-10
6.79401e-11
-4.22233e-10
2.03826e-09
-1.97032e-09
3.45548e-09
-1.41722e-09
4.79497e-09
-1.33949e-09
5.55356e-09
-7.58593e-10
6.18273e-09
-6.29165e-10
6.62873e-09
-4.45997e-10
6.96108e-09
-3.32355e-10
7.23118e-09
-2.70097e-10
7.80729e-09
-5.76112e-10
8.09235e-09
-2.85068e-10
8.13393e-09
-4.15781e-11
8.16606e-09
-3.21312e-11
8.18537e-09
-1.93125e-11
8.16401e-09
2.13662e-11
8.13617e-09
2.78391e-11
8.07451e-09
6.16555e-11
7.99325e-09
8.12636e-11
7.92431e-09
6.8934e-11
7.87549e-09
4.88266e-11
7.8056e-09
6.98865e-11
7.7341e-09
7.15035e-11
7.70008e-09
3.40195e-11
7.68649e-09
1.35886e-11
7.72075e-09
-3.42605e-11
7.80269e-09
-8.19411e-11
7.93096e-09
-1.28269e-10
8.10916e-09
-1.78194e-10
8.30731e-09
-1.98151e-10
8.52835e-09
-2.21044e-10
8.81679e-09
-2.88435e-10
9.10331e-09
-2.86518e-10
9.1647e-09
-6.13891e-11
9.0691e-09
9.56031e-11
8.85027e-09
2.18831e-10
8.58741e-09
2.62855e-10
8.31761e-09
2.69801e-10
7.93663e-09
3.80983e-10
7.43139e-09
5.0524e-10
6.96317e-09
4.68221e-10
6.61584e-09
3.47332e-10
6.43847e-09
1.77377e-10
6.40945e-09
2.90238e-11
6.43674e-09
-2.72935e-11
6.51021e-09
-7.34689e-11
6.66002e-09
-1.49807e-10
6.86751e-09
-2.07483e-10
6.98463e-09
-1.17125e-10
7.01324e-09
-2.8605e-11
7.02655e-09
-1.33062e-11
7.03669e-09
-1.01411e-11
7.04176e-09
-5.06571e-12
7.04161e-09
1.46354e-13
7.02588e-09
1.57342e-11
7.0084e-09
1.74823e-11
6.98385e-09
2.45518e-11
6.96843e-09
1.54255e-11
6.94345e-09
2.49843e-11
6.91803e-09
2.54157e-11
6.93905e-09
-2.10156e-11
6.96393e-09
-2.48792e-11
7.01651e-09
-5.25745e-11
7.083e-09
-6.64935e-11
7.09666e-09
-1.36536e-11
7.06852e-09
2.81434e-11
6.98792e-09
8.05991e-11
6.87151e-09
1.16414e-10
6.57825e-09
2.9326e-10
6.35881e-09
2.19433e-10
5.85044e-09
5.08372e-10
5.48493e-09
3.65516e-10
4.92853e-09
5.56404e-10
4.42057e-09
5.07954e-10
4.0093e-09
4.11278e-10
3.27149e-09
7.37808e-10
3.01169e-09
2.59803e-10
1.51506e-09
1.49662e-09
5.7899e-11
1.45717e-09
-9.61299e-10
1.0192e-09
-4.26529e-10
-5.34769e-10
-9.68024e-16
-4.26527e-10
-1.22532e-17
-1.90639e-17
-8.13529e-18
-4.11795e-18
-7.21247e-18
-9.21726e-19
-6.9089e-18
-3.02476e-19
-6.65027e-18
-2.57518e-19
-6.31393e-18
-3.35168e-19
-5.88424e-18
-4.28498e-19
-5.37258e-18
-5.10461e-19
-4.79691e-18
-5.74482e-19
-4.17656e-18
-6.19155e-19
-3.53037e-18
-6.44994e-19
-2.87583e-18
-6.53346e-19
-2.22864e-18
-6.46008e-19
-1.60244e-18
-6.25032e-19
-1.00869e-18
-5.92601e-19
-4.56641e-19
-5.50925e-19
4.66165e-20
-5.02157e-19
4.96023e-19
-4.48324e-19
8.8837e-19
-3.91277e-19
1.22209e-18
-3.3266e-19
1.49703e-18
-2.73886e-19
1.71423e-18
-2.16135e-19
1.87564e-18
-1.60359e-19
1.98399e-18
-1.07297e-19
2.04253e-18
-5.74936e-20
2.0549e-18
-1.13256e-20
2.02497e-18
3.09747e-20
1.95671e-18
6.92921e-20
1.85413e-18
1.03604e-19
1.72119e-18
1.33957e-19
1.56175e-18
1.60446e-19
1.37955e-18
1.83199e-19
1.17819e-18
2.02356e-19
9.61113e-19
2.18061e-19
7.31639e-19
2.30451e-19
4.92955e-19
2.39654e-19
2.4812e-19
2.458e-19
2.49082e-19
9.35885e-11
2.60702e-10
1.96614e-09
-2.29479e-09
2.89884e-09
-2.90302e-09
4.03657e-09
-2.55495e-09
4.89105e-09
-2.19398e-09
5.63313e-09
-1.50067e-09
6.05677e-09
-1.05281e-09
6.36703e-09
-7.5625e-10
6.77603e-09
-7.41364e-10
7.05947e-09
-5.5353e-10
7.11156e-09
-6.28208e-10
7.25245e-09
-4.25959e-10
7.52189e-09
-3.11019e-10
7.78109e-09
-2.91334e-10
7.93742e-09
-1.75636e-10
8.00064e-09
-4.18599e-11
7.99428e-09
3.42017e-11
7.92597e-09
1.2996e-10
7.81968e-09
1.87556e-10
7.69221e-09
1.96407e-10
7.62455e-09
1.16483e-10
7.59671e-09
9.77256e-11
7.59271e-09
7.55096e-11
7.6052e-09
2.15295e-11
7.60654e-09
1.22419e-11
7.64459e-09
-7.23035e-11
7.68998e-09
-1.27336e-10
7.78286e-09
-2.2115e-10
7.92577e-09
-3.21097e-10
8.11734e-09
-3.89716e-10
8.32948e-09
-4.33188e-10
8.54811e-09
-5.07059e-10
8.77611e-09
-5.14519e-10
8.94712e-09
-2.32399e-10
8.84107e-09
2.0166e-10
8.5566e-09
5.03304e-10
8.1969e-09
6.22557e-10
7.85997e-09
6.06725e-10
7.60887e-09
6.32086e-10
7.39003e-09
7.24088e-10
7.08533e-09
7.72918e-10
6.72576e-09
7.06906e-10
6.45187e-09
4.51276e-10
6.3191e-09
1.61792e-10
6.29335e-09
-1.53816e-12
6.3462e-09
-1.26319e-10
6.45038e-09
-2.53982e-10
6.57913e-09
-3.36227e-10
6.68328e-09
-2.21271e-10
6.79193e-09
-1.37253e-10
6.85592e-09
-7.729e-11
6.85509e-09
-9.31112e-12
6.84805e-09
1.97607e-12
6.83635e-09
1.18581e-11
6.80657e-09
4.55121e-11
6.79655e-09
2.75043e-11
6.75603e-09
6.50754e-11
6.71492e-09
5.65398e-11
6.66998e-09
6.99292e-11
6.63264e-09
6.27567e-11
6.62061e-09
-8.98461e-12
6.6108e-09
-1.50584e-11
6.60123e-09
-4.3001e-11
6.59041e-09
-5.56778e-11
6.57618e-09
5.80889e-13
6.51622e-09
8.81112e-11
6.48607e-09
1.10749e-10
6.32346e-09
2.79029e-10
6.21902e-09
3.97703e-10
5.82782e-09
6.10632e-10
5.6655e-09
6.7069e-10
5.11663e-09
9.14393e-10
4.85258e-09
8.2045e-10
4.25636e-09
1.10418e-09
3.81092e-09
8.56723e-10
3.21793e-09
1.3308e-09
2.59577e-09
8.81961e-10
2.72363e-09
1.36877e-09
2.42307e-09
1.75772e-09
2.38606e-09
1.05621e-09
1.28476e-09
5.6653e-10
-4.27562e-16
8.58238e-10
2.69207e-18
1.65579e-17
-4.93847e-18
3.51335e-18
-6.59244e-18
7.34133e-19
-6.86318e-18
-2.96819e-20
-6.72722e-18
-3.91436e-19
-6.40676e-18
-6.53564e-19
-5.9662e-18
-8.66975e-19
-5.4366e-18
-1.03795e-18
-4.84158e-18
-1.16738e-18
-4.2024e-18
-1.25621e-18
-3.53872e-18
-1.30655e-18
-2.86849e-18
-1.32148e-18
-2.20766e-18
-1.30476e-18
-1.57001e-18
-1.26065e-18
-9.67014e-19
-1.19359e-18
-4.07873e-19
-1.1081e-18
1.0045e-19
-1.00854e-18
5.53069e-19
-8.99029e-19
9.46987e-19
-7.83297e-19
1.28087e-18
-6.6465e-19
1.55479e-18
-5.45923e-19
1.77e-18
-4.2947e-19
1.9287e-18
-3.17183e-19
2.03379e-18
-2.10516e-19
2.0887e-18
-1.10538e-19
2.0972e-18
-1.79752e-20
2.06328e-18
6.67344e-20
1.99102e-18
1.43385e-19
1.88448e-18
2.11955e-19
1.74768e-18
2.72558e-19
1.58451e-18
3.25405e-19
1.39871e-18
3.70763e-19
1.1939e-18
4.08928e-19
9.73504e-19
4.40196e-19
7.40842e-19
4.64845e-19
4.991e-19
4.83121e-19
2.51402e-19
4.95215e-19
5.01236e-19
5.33538e-10
-2.72837e-10
2.46518e-09
-4.22644e-09
3.12392e-09
-3.56177e-09
4.04395e-09
-3.47497e-09
4.25836e-09
-2.40839e-09
4.97782e-09
-2.22013e-09
4.9599e-09
-1.0349e-09
5.13421e-09
-9.30561e-10
5.16981e-09
-7.76973e-10
5.32297e-09
-7.06691e-10
5.43868e-09
-7.43917e-10
5.69496e-09
-6.8224e-10
5.85656e-09
-4.72615e-10
5.9525e-09
-3.87276e-10
6.05717e-09
-2.80308e-10
6.21502e-09
-1.99713e-10
6.38464e-09
-1.35418e-10
6.50611e-09
8.49532e-12
6.55601e-09
1.37649e-10
6.57444e-09
1.77981e-10
6.57993e-09
1.10994e-10
6.57193e-09
1.05723e-10
6.5637e-09
8.37365e-11
6.55367e-09
3.15646e-11
6.53932e-09
2.65862e-11
6.56144e-09
-9.44155e-11
6.51963e-09
-8.55328e-11
6.52978e-09
-2.31293e-10
6.58766e-09
-3.78972e-10
6.66584e-09
-4.679e-10
6.78941e-09
-5.56755e-10
6.92246e-09
-6.40107e-10
7.07411e-09
-6.66167e-10
7.24713e-09
-4.05423e-10
7.36507e-09
8.37311e-11
7.37601e-09
4.92357e-10
7.3007e-09
6.97868e-10
7.14603e-09
7.61399e-10
6.95086e-09
8.27262e-10
6.75526e-09
9.19692e-10
6.57926e-09
9.48921e-10
6.4842e-09
8.01967e-10
6.41927e-09
5.16207e-10
6.31625e-09
2.64818e-10
6.21141e-09
1.03297e-10
6.08701e-09
-1.9129e-12
5.9611e-09
-1.28068e-10
5.84532e-09
-2.20447e-10
5.76444e-09
-1.40383e-10
5.70876e-09
-8.15702e-11
5.67936e-09
-4.78904e-11
5.65741e-09
1.26374e-11
5.64751e-09
1.18883e-11
5.62823e-09
3.11399e-11
5.59436e-09
7.9382e-11
5.55619e-09
6.56731e-11
5.50431e-09
1.1696e-10
5.47179e-09
8.90688e-11
5.45805e-09
8.36662e-11
5.47659e-09
4.42191e-11
5.44888e-09
1.8729e-11
5.41523e-09
1.85963e-11
5.42889e-09
-5.66643e-11
5.39276e-09
-1.95357e-11
5.40949e-09
-1.61545e-11
5.41208e-09
8.55241e-11
5.37457e-09
1.48264e-10
5.33478e-09
3.18816e-10
5.26279e-09
4.697e-10
5.13575e-09
7.37678e-10
4.99661e-09
8.0983e-10
4.72981e-09
1.18119e-09
4.42193e-09
1.12833e-09
4.05846e-09
1.46765e-09
3.49539e-09
1.4198e-09
3.25528e-09
1.57091e-09
2.449e-09
1.68824e-09
2.24646e-09
1.57131e-09
2.16214e-09
1.84204e-09
1.17446e-09
2.04389e-09
4.09149e-10
1.33185e-09
-4.6473e-16
1.26739e-09
-1.035e-17
4.78459e-19
-7.71646e-18
8.80575e-19
-7.35533e-18
3.74671e-19
-7.22415e-18
-1.59079e-19
-6.98865e-18
-6.25155e-19
-6.61973e-18
-1.02074e-18
-6.13717e-18
-1.34777e-18
-5.56604e-18
-1.60731e-18
-4.93041e-18
-1.80122e-18
-4.25274e-18
-1.93209e-18
-3.55365e-18
-2.00384e-18
-2.85178e-18
-2.02155e-18
-2.16355e-18
-1.99122e-18
-1.50295e-18
-1.91949e-18
-8.81522e-19
-1.81329e-18
-3.08317e-19
-1.6796e-18
2.09964e-19
-1.52515e-18
6.68801e-19
-1.35621e-18
1.06563e-18
-1.17849e-18
1.39959e-18
-9.96979e-19
1.67124e-18
-8.15944e-19
1.88229e-18
-6.38901e-19
2.03537e-18
-4.68644e-19
2.13377e-18
-3.07306e-19
2.18126e-18
-1.56426e-19
2.18191e-18
-1.70267e-20
2.13993e-18
1.103e-19
2.05959e-18
2.25308e-19
1.94509e-18
3.28023e-19
1.80053e-18
4.18671e-19
1.62986e-18
4.97609e-19
1.43688e-18
5.65279e-19
1.22516e-18
6.22156e-19
9.98154e-19
6.6871e-19
7.59118e-19
7.05376e-19
5.11194e-19
7.32531e-19
2.57423e-19
7.50468e-19
7.5938e-19
1.83745e-09
-2.11029e-09
2.02818e-09
-4.41717e-09
2.96316e-09
-4.49674e-09
3.51147e-09
-4.02329e-09
3.53647e-09
-2.43339e-09
3.94393e-09
-2.62759e-09
3.78672e-09
-8.7769e-10
3.85782e-09
-1.00166e-09
3.93702e-09
-8.56174e-10
3.96406e-09
-7.33738e-10
3.91087e-09
-6.90726e-10
3.86538e-09
-6.36752e-10
3.94519e-09
-5.52427e-10
4.06477e-09
-5.06849e-10
4.21664e-09
-4.32184e-10
4.36342e-09
-3.46491e-10
4.48336e-09
-2.55362e-10
4.61194e-09
-1.20081e-10
4.764e-09
-1.44134e-11
4.91865e-09
2.33347e-11
4.99085e-09
3.87859e-11
4.9708e-09
1.25773e-10
4.95935e-09
9.519e-11
4.93118e-09
5.97403e-11
4.85904e-09
9.8723e-11
4.90768e-09
-1.43057e-10
4.8776e-09
-5.54507e-11
4.94576e-09
-2.99454e-10
5.05263e-09
-4.85834e-10
5.23084e-09
-6.46108e-10
5.498e-09
-8.23915e-10
5.63482e-09
-7.76928e-10
5.61786e-09
-6.49206e-10
5.57167e-09
-3.59226e-10
5.71684e-09
-6.14362e-11
5.89752e-09
3.11677e-10
5.96465e-09
6.30738e-10
5.92051e-09
8.05543e-10
5.83307e-09
9.14706e-10
5.8036e-09
9.49164e-10
5.86374e-09
8.8878e-10
5.91135e-09
7.54361e-10
5.83999e-09
5.87571e-10
5.67946e-09
4.2535e-10
5.47096e-09
3.11794e-10
5.22391e-09
2.4514e-10
4.97874e-09
1.1711e-10
4.73223e-09
2.6065e-11
4.59144e-09
4.03744e-13
4.50766e-09
2.22208e-12
4.4485e-09
1.12683e-11
4.4061e-09
5.50387e-11
4.39344e-09
2.45519e-11
4.3292e-09
9.53817e-11
4.33022e-09
7.83684e-11
4.30763e-09
8.82633e-11
4.30131e-09
1.23288e-10
4.32804e-09
6.23359e-11
4.30866e-09
1.03046e-10
4.32581e-09
2.70751e-11
4.3174e-09
2.71425e-11
4.28455e-09
5.14437e-11
4.32677e-09
-9.88795e-11
4.26605e-09
4.11911e-11
4.20183e-09
4.80638e-11
4.25496e-09
3.23937e-11
4.20073e-09
2.02502e-10
4.2205e-09
2.99047e-10
4.19413e-09
4.9607e-10
4.17906e-09
7.52749e-10
4.07985e-09
9.09039e-10
4.07888e-09
1.18217e-09
3.94136e-09
1.26585e-09
3.72526e-09
1.68376e-09
3.38118e-09
1.76388e-09
3.07687e-09
1.87522e-09
2.58983e-09
2.17529e-09
2.21781e-09
1.94333e-09
1.75059e-09
2.30926e-09
1.14429e-09
2.65019e-09
4.43173e-10
2.03297e-09
-4.18296e-16
1.71056e-09
-9.94667e-18
-8.5014e-18
-8.22128e-18
-8.44024e-19
-7.88816e-18
4.30795e-20
-7.68944e-18
-3.56161e-19
-7.38356e-18
-9.29357e-19
-6.94638e-18
-1.45624e-18
-6.39671e-18
-1.89577e-18
-5.75994e-18
-2.24242e-18
-5.06129e-18
-2.49819e-18
-4.32449e-18
-2.6672e-18
-3.57135e-18
-2.75527e-18
-2.82145e-18
-2.76974e-18
-2.09181e-18
-2.71915e-18
-1.39676e-18
-2.61284e-18
-7.47833e-19
-2.46054e-18
-1.53861e-19
-2.27192e-18
3.789e-19
-2.05628e-18
8.46525e-19
-1.82223e-18
1.24714e-18
-1.57751e-18
1.58063e-18
-1.32888e-18
1.84828e-18
-1.08202e-18
2.05255e-18
-8.41593e-19
2.1967e-18
-6.11236e-19
2.28465e-18
-3.93689e-19
2.32066e-18
-1.90883e-19
2.30924e-18
-4.05308e-21
2.25494e-18
1.66136e-19
2.1623e-18
3.19477e-19
2.03573e-18
4.56115e-19
1.87947e-18
5.76447e-19
1.69753e-18
6.81037e-19
1.49375e-18
7.70545e-19
1.27172e-18
8.45663e-19
1.03482e-18
9.07068e-19
7.86273e-19
9.55376e-19
5.29131e-19
9.91117e-19
2.66334e-19
1.0147e-18
1.02642e-18
1.7155e-09
-3.82579e-09
2.29863e-09
-5.0003e-09
2.58913e-09
-4.78724e-09
2.87417e-09
-4.30833e-09
3.09991e-09
-2.65913e-09
2.64728e-09
-2.17496e-09
2.63429e-09
-8.64704e-10
2.56471e-09
-9.3208e-10
2.56192e-09
-8.53385e-10
2.53517e-09
-7.06989e-10
2.54337e-09
-6.98929e-10
2.5444e-09
-6.37781e-10
2.54799e-09
-5.56021e-10
2.56727e-09
-5.26131e-10
2.61335e-09
-4.78256e-10
2.68846e-09
-4.21606e-10
2.78107e-09
-3.47973e-10
2.8536e-09
-1.92606e-10
3.00301e-09
-1.63826e-10
3.13586e-09
-1.0952e-10
3.23267e-09
-5.80207e-11
3.32482e-09
3.36233e-11
3.42084e-09
-8.33888e-13
3.51786e-09
-3.72755e-11
3.57973e-09
3.68528e-11
3.66905e-09
-2.32375e-10
3.83498e-09
-2.21381e-10
3.92809e-09
-3.92567e-10
4.01001e-09
-5.67748e-10
3.98496e-09
-6.21061e-10
3.96912e-09
-8.08069e-10
4.02083e-09
-8.28641e-10
4.0861e-09
-7.14469e-10
4.1629e-09
-4.36025e-10
4.24726e-09
-1.45801e-10
4.40753e-09
1.51411e-10
4.55179e-09
4.86485e-10
4.58232e-09
7.75014e-10
4.68083e-09
8.16196e-10
4.76218e-09
8.6782e-10
4.80713e-09
8.43832e-10
4.79177e-09
7.6972e-10
4.67274e-09
7.066e-10
4.52678e-09
5.71313e-10
4.42303e-09
4.15552e-10
4.32107e-09
3.47095e-10
4.21172e-09
2.26463e-10
4.07363e-09
1.64167e-10
3.97955e-09
9.44853e-11
3.89036e-09
9.14081e-11
3.83574e-09
6.58951e-11
3.76705e-09
1.23737e-10
3.74587e-09
4.57283e-11
3.6954e-09
1.45856e-10
3.68481e-09
8.89619e-11
3.65004e-09
1.23031e-10
3.65993e-09
1.13402e-10
3.63234e-09
8.9931e-11
3.64044e-09
9.49512e-11
3.61009e-09
5.74283e-11
3.57227e-09
6.49623e-11
3.56828e-09
5.54387e-11
3.47454e-09
-5.14176e-12
3.49304e-09
2.26921e-11
3.44349e-09
9.76175e-11
3.3029e-09
1.72983e-10
3.23165e-09
2.73763e-10
3.21762e-09
3.13078e-10
3.16803e-09
5.45654e-10
3.17813e-09
7.42654e-10
3.09239e-09
9.94786e-10
3.05729e-09
1.21727e-09
2.91126e-09
1.41188e-09
2.68684e-09
1.90817e-09
2.5558e-09
1.89492e-09
2.13925e-09
2.29177e-09
1.90389e-09
2.41066e-09
1.55663e-09
2.29058e-09
1.31352e-09
2.55238e-09
1.45429e-09
2.50943e-09
9.8884e-10
2.49841e-09
-4.4593e-16
2.6994e-09
-2.28884e-18
1.61592e-17
-7.33319e-18
4.20113e-18
-8.28648e-18
9.97878e-19
-8.26186e-18
-3.79275e-19
-7.90978e-18
-1.2799e-18
-7.3856e-18
-1.97887e-18
-6.74336e-18
-2.53646e-18
-6.01571e-18
-2.96851e-18
-5.23029e-18
-3.28204e-18
-4.41256e-18
-3.48334e-18
-3.58582e-18
-3.58038e-18
-2.77086e-18
-3.58306e-18
-1.98551e-18
-3.50285e-18
-1.24446e-18
-3.35225e-18
-5.59215e-19
-3.14415e-18
6.17833e-20
-2.8913e-18
6.12952e-19
-2.60585e-18
1.09124e-18
-2.29894e-18
1.49578e-18
-1.98048e-18
1.82748e-18
-1.65904e-18
2.08871e-18
-1.34172e-18
2.2829e-18
-1.03425e-18
2.41425e-18
-7.41055e-19
2.48746e-18
-4.6537e-19
2.50749e-18
-2.09399e-19
2.47943e-18
2.55261e-20
2.40828e-18
2.38784e-19
2.29894e-18
4.30316e-19
2.15607e-18
6.0048e-19
1.98406e-18
7.49932e-19
1.78704e-18
8.79515e-19
1.56887e-18
9.90168e-19
1.33312e-18
1.08285e-18
1.08313e-18
1.15849e-18
8.22014e-19
1.21791e-18
5.52719e-19
1.26183e-18
2.78049e-19
1.29078e-18
1.30516e-18
1.32488e-09
-5.15067e-09
1.39973e-09
-5.07515e-09
1.92294e-09
-5.31046e-09
1.91158e-09
-4.29697e-09
2.11201e-09
-2.85957e-09
1.64888e-09
-1.71184e-09
1.69706e-09
-9.12878e-10
1.54385e-09
-7.78876e-10
1.54871e-09
-8.58242e-10
1.60364e-09
-7.61918e-10
1.60029e-09
-6.9558e-10
1.59391e-09
-6.31409e-10
1.62662e-09
-5.88724e-10
1.66277e-09
-5.62283e-10
1.68913e-09
-5.0462e-10
1.77135e-09
-5.03825e-10
1.84172e-09
-4.1834e-10
1.95174e-09
-3.02628e-10
2.12539e-09
-3.3748e-10
2.31803e-09
-3.02154e-10
2.42637e-09
-1.66368e-10
2.56538e-09
-1.05386e-10
2.71335e-09
-1.48802e-10
2.84701e-09
-1.7093e-10
3.02322e-09
-1.39362e-10
3.05252e-09
-2.61676e-10
3.17543e-09
-3.4429e-10
3.21223e-09
-4.29367e-10
3.21074e-09
-5.66256e-10
3.17259e-09
-5.82912e-10
3.07795e-09
-7.1342e-10
2.9673e-09
-7.17996e-10
2.86713e-09
-6.14292e-10
2.84616e-09
-4.15055e-10
2.84302e-09
-1.42663e-10
2.95382e-09
4.06119e-11
3.09779e-09
3.42518e-10
3.25734e-09
6.15463e-10
3.45197e-09
6.21573e-10
3.543e-09
7.76796e-10
3.57914e-09
8.07693e-10
3.64809e-09
7.00768e-10
3.71723e-09
6.37464e-10
3.75026e-09
5.38286e-10
3.76251e-09
4.03305e-10
3.75374e-09
3.55864e-10
3.72865e-09
2.51556e-10
3.66785e-09
2.24971e-10
3.61778e-09
1.44558e-10
3.57497e-09
1.34224e-10
3.49586e-09
1.45008e-10
3.47974e-09
1.3986e-10
3.39246e-09
1.33012e-10
3.36453e-09
1.73786e-10
3.33564e-09
1.17858e-10
3.2782e-09
1.80472e-10
3.27997e-09
1.11631e-10
3.18631e-09
1.83597e-10
3.21462e-09
6.664e-11
3.14923e-09
1.22829e-10
3.02547e-09
1.88721e-10
3.07879e-09
2.12063e-12
2.90685e-09
1.668e-10
2.68663e-09
2.42917e-10
2.72805e-09
5.61965e-11
2.64864e-09
2.524e-10
2.51819e-09
4.04211e-10
2.50359e-09
3.27683e-10
2.44964e-09
5.99601e-10
2.45635e-09
7.35944e-10
2.50184e-09
9.49298e-10
2.62132e-09
1.09779e-09
2.52611e-09
1.50709e-09
2.50751e-09
1.92677e-09
2.30854e-09
2.09389e-09
2.11949e-09
2.48082e-09
1.73522e-09
2.79493e-09
1.20647e-09
2.81933e-09
7.37349e-10
3.02151e-09
4.20571e-11
3.20472e-09
-3.98919e-10
2.93939e-09
-5.71968e-16
2.30049e-09
-1.42444e-17
-4.273e-18
-1.0535e-17
4.92514e-19
-9.66263e-18
1.27085e-19
-9.1617e-18
-8.78671e-19
-8.60812e-18
-1.83202e-18
-7.94296e-18
-2.64261e-18
-7.17542e-18
-3.30257e-18
-6.32923e-18
-3.81328e-18
-5.43159e-18
-4.17824e-18
-4.5096e-18
-4.40386e-18
-3.58851e-18
-4.49998e-18
-2.69066e-18
-4.47938e-18
-1.8349e-18
-4.35705e-18
-1.03635e-18
-4.14922e-18
-3.0637e-19
-3.87255e-18
3.47237e-19
-3.54334e-18
9.19864e-19
-3.17692e-18
1.40969e-18
-2.78723e-18
1.81722e-18
-2.38649e-18
2.1448e-18
-1.98511e-18
2.39618e-18
-1.5916e-18
2.5761e-18
-1.21268e-18
2.68994e-18
-8.53407e-19
2.74343e-18
-5.17379e-19
2.74242e-18
-2.0691e-19
2.69268e-18
7.67303e-20
2.59982e-18
3.3312e-19
2.46911e-18
5.62483e-19
2.30552e-18
7.65519e-19
2.11364e-18
9.43249e-19
1.8977e-18
1.09689e-18
1.66156e-18
1.22772e-18
1.40876e-18
1.33706e-18
1.14255e-18
1.42609e-18
8.65928e-19
1.49593e-18
5.81675e-19
1.54746e-18
2.92425e-19
1.58141e-18
1.59825e-18
8.42906e-10
-5.99357e-09
1.74706e-09
-5.9793e-09
1.79597e-09
-5.35937e-09
1.66715e-09
-4.16815e-09
1.30893e-09
-2.50134e-09
1.00781e-09
-1.41073e-09
1.09256e-09
-9.97625e-10
1.14535e-09
-8.31669e-10
1.11061e-09
-8.23501e-10
1.16319e-09
-8.14502e-10
1.1929e-09
-7.25285e-10
1.24542e-09
-6.83932e-10
1.31222e-09
-6.55524e-10
1.37888e-09
-6.28949e-10
1.43932e-09
-5.65059e-10
1.55525e-09
-6.19753e-10
1.61264e-09
-4.75735e-10
1.75223e-09
-4.42217e-10
1.88168e-09
-4.66924e-10
2.05166e-09
-4.72136e-10
2.17212e-09
-2.86828e-10
2.28926e-09
-2.22533e-10
2.4211e-09
-2.8064e-10
2.54962e-09
-2.99446e-10
2.67604e-09
-2.65788e-10
2.76919e-09
-3.54825e-10
2.82039e-09
-3.95484e-10
2.83397e-09
-4.42946e-10
2.79141e-09
-5.23697e-10
2.71279e-09
-5.04294e-10
2.53102e-09
-5.31646e-10
2.41324e-09
-6.00215e-10
2.24203e-09
-4.43075e-10
2.138e-09
-3.11026e-10
2.15447e-09
-1.59137e-10
2.19217e-09
2.91597e-12
2.21571e-09
3.1898e-10
2.46445e-09
3.66722e-10
2.64988e-09
4.3615e-10
2.79785e-09
6.28832e-10
2.97649e-09
6.29047e-10
3.13751e-09
5.39753e-10
3.25444e-09
5.2054e-10
3.33182e-09
4.60901e-10
3.37456e-09
3.60575e-10
3.42068e-09
3.0974e-10
3.42966e-09
2.42582e-10
3.41832e-09
2.36315e-10
3.3861e-09
1.7678e-10
3.32415e-09
1.96177e-10
3.28064e-09
1.88515e-10
3.22367e-09
1.96836e-10
3.1655e-09
1.91185e-10
3.11142e-09
2.27868e-10
3.07053e-09
1.58753e-10
3.02072e-09
2.30288e-10
2.94877e-09
1.83578e-10
2.92321e-09
2.0916e-10
2.85379e-09
1.36059e-10
2.79003e-09
1.86596e-10
2.73194e-09
2.46808e-10
2.71784e-09
1.62272e-11
2.52004e-09
3.64606e-10
2.5059e-09
2.57059e-10
2.37252e-09
1.89569e-10
2.25849e-09
3.66436e-10
2.12238e-09
5.40324e-10
1.97537e-09
4.74697e-10
1.66065e-09
9.14318e-10
1.24968e-09
1.14692e-09
1.29421e-09
9.04772e-10
1.23168e-09
1.16032e-09
1.32718e-09
1.4116e-09
1.49367e-09
1.76029e-09
1.55127e-09
2.0363e-09
1.53549e-09
2.4966e-09
1.28427e-09
3.04615e-09
1.0968e-09
3.0068e-09
7.09777e-10
3.40854e-09
8.54621e-10
3.05988e-09
6.83253e-10
3.11076e-09
-4.82084e-16
2.98374e-09
-9.47771e-18
7.4174e-18
-1.08993e-17
1.91472e-18
-1.06674e-17
-1.03209e-19
-1.01143e-17
-1.43026e-18
-9.41813e-18
-2.52676e-18
-8.60276e-18
-3.45664e-18
-7.68613e-18
-4.2179e-18
-6.69419e-18
-4.80394e-18
-5.65722e-18
-5.21392e-18
-4.60572e-18
-5.45405e-18
-3.56791e-18
-5.53643e-18
-2.56832e-18
-5.47757e-18
-1.62708e-18
-5.29685e-18
-7.59685e-19
-5.01514e-18
2.2844e-20
-4.65359e-18
7.13657e-19
-4.23265e-18
1.30956e-18
-3.77132e-18
1.81043e-18
-3.28661e-18
2.21861e-18
-2.7932e-18
2.53832e-18
-2.30336e-18
2.7751e-18
-1.82694e-18
2.93537e-18
-1.3715e-18
3.02596e-18
-9.42569e-19
3.05389e-18
-5.43877e-19
3.02606e-18
-1.77644e-19
2.94907e-18
1.55137e-19
2.82918e-18
4.54434e-19
2.67214e-18
7.2093e-19
2.48325e-18
9.55818e-19
2.26728e-18
1.16061e-18
2.02853e-18
1.33701e-18
1.77089e-18
1.48674e-18
1.4978e-18
1.61151e-18
1.21238e-18
1.71287e-18
9.17463e-19
1.79219e-18
6.15623e-19
1.85065e-18
3.09268e-19
1.8891e-18
1.90817e-18
5.55938e-10
-6.54951e-09
7.971e-10
-6.22046e-09
1.0577e-09
-5.61997e-09
1.08187e-09
-4.19233e-09
9.63681e-10
-2.38315e-09
7.92131e-10
-1.23918e-09
7.92853e-10
-9.98349e-10
8.65108e-10
-9.03926e-10
9.1003e-10
-8.68424e-10
9.87297e-10
-8.91769e-10
1.0669e-09
-8.04884e-10
1.14195e-09
-7.58992e-10
1.22575e-09
-7.39323e-10
1.31636e-09
-7.1956e-10
1.40415e-09
-6.52843e-10
1.49537e-09
-7.10981e-10
1.56164e-09
-5.42003e-10
1.67761e-09
-5.58183e-10
1.80659e-09
-5.95904e-10
1.9099e-09
-5.75445e-10
2.06854e-09
-4.45476e-10
2.16417e-09
-3.18156e-10
2.26952e-09
-3.85992e-10
2.39721e-09
-4.27141e-10
2.50742e-09
-3.75998e-10
2.5933e-09
-4.40696e-10
2.62668e-09
-4.2887e-10
2.62909e-09
-4.45352e-10
2.57628e-09
-4.70883e-10
2.51864e-09
-4.46651e-10
2.38229e-09
-3.95298e-10
2.24976e-09
-4.67686e-10
2.12489e-09
-3.18201e-10
2.01836e-09
-2.04491e-10
2.01849e-09
-1.59265e-10
1.97225e-09
4.9157e-11
2.10788e-09
1.83354e-10
2.23152e-09
2.43076e-10
2.35501e-09
3.12663e-10
2.54413e-09
4.39722e-10
2.71705e-09
4.56129e-10
2.87264e-09
3.84159e-10
2.95975e-09
4.33438e-10
3.07305e-09
3.47598e-10
3.13454e-09
2.99092e-10
3.1804e-09
2.63883e-10
3.18102e-09
2.41967e-10
3.18187e-09
2.3546e-10
3.14452e-09
2.1414e-10
3.08841e-09
2.52287e-10
3.05338e-09
2.23544e-10
2.97075e-09
2.79473e-10
2.95976e-09
2.02174e-10
2.86752e-09
3.20112e-10
2.83893e-09
1.87348e-10
2.78461e-09
2.84605e-10
2.66431e-09
3.03883e-10
2.67169e-09
2.01786e-10
2.57614e-09
2.31611e-10
2.47385e-09
2.8889e-10
2.488e-09
2.32656e-10
2.32105e-09
1.83179e-10
2.23217e-09
4.53492e-10
2.13869e-09
3.50532e-10
2.00865e-09
3.1962e-10
1.7926e-09
5.82485e-10
1.92194e-09
4.10987e-10
1.71126e-09
6.85381e-10
1.68695e-09
9.38621e-10
1.49959e-09
1.33429e-09
1.29242e-09
1.11195e-09
1.10605e-09
1.34669e-09
9.78491e-10
1.53915e-09
9.49945e-10
1.78884e-09
7.98297e-10
2.18795e-09
5.53469e-10
2.74143e-09
4.55784e-10
3.14384e-09
1.68546e-10
3.29404e-09
-5.56856e-11
3.63277e-09
-5.3232e-10
3.53651e-09
-4.4499e-10
3.02343e-09
-5.67402e-16
2.53875e-09
-1.49784e-17
-1.39051e-18
-1.29159e-17
-1.47105e-19
-1.19935e-17
-1.02402e-18
-1.12101e-17
-2.21219e-18
-1.03475e-17
-3.38797e-18
-9.36393e-18
-4.43894e-18
-8.27216e-18
-5.30849e-18
-7.10418e-18
-5.97078e-18
-5.89734e-18
-6.41963e-18
-4.6881e-18
-6.66215e-18
-3.50905e-18
-6.71429e-18
-2.3876e-18
-6.59778e-18
-1.34537e-18
-6.33779e-18
-3.98134e-19
-5.96102e-18
4.43779e-19
-5.49411e-18
1.17498e-18
-4.96244e-18
1.79427e-18
-4.38919e-18
2.30383e-18
-3.79475e-18
2.70845e-18
-3.19641e-18
3.01474e-18
-2.60826e-18
3.23054e-18
-2.04134e-18
3.3643e-18
-1.50387e-18
3.42466e-18
-1.00155e-18
3.42013e-18
-5.37975e-19
3.35884e-18
-1.14982e-19
3.24837e-18
2.66975e-19
3.09567e-18
6.08493e-19
2.90703e-18
9.10932e-19
2.68804e-18
1.17616e-18
2.44367e-18
1.40633e-18
2.17827e-18
1.60375e-18
1.89565e-18
1.77069e-18
1.59916e-18
1.90932e-18
1.29171e-18
2.02162e-18
9.75914e-19
2.1093e-18
6.54081e-19
2.17378e-18
3.28335e-19
2.21614e-18
2.23713e-18
3.86293e-10
-6.93581e-09
9.31001e-10
-6.76517e-09
9.72932e-10
-5.6619e-09
7.82764e-10
-4.00216e-09
6.41249e-10
-2.24164e-09
6.40126e-10
-1.23806e-09
6.5765e-10
-1.01587e-09
7.03403e-10
-9.49679e-10
7.72928e-10
-9.37951e-10
8.36247e-10
-9.55089e-10
9.39795e-10
-9.08433e-10
1.03993e-09
-8.5913e-10
1.1286e-09
-8.27989e-10
1.22954e-09
-8.20506e-10
1.35475e-09
-7.78053e-10
1.42365e-09
-7.79879e-10
1.54538e-09
-6.63729e-10
1.63932e-09
-6.52123e-10
1.77074e-09
-7.27329e-10
1.83916e-09
-6.43867e-10
1.99592e-09
-6.02234e-10
2.06966e-09
-3.91892e-10
2.16675e-09
-4.83085e-10
2.25508e-09
-5.15473e-10
2.35627e-09
-4.77189e-10
2.4198e-09
-5.04224e-10
2.44097e-09
-4.50035e-10
2.4429e-09
-4.47288e-10
2.41121e-09
-4.39188e-10
2.35612e-09
-3.91559e-10
2.28573e-09
-3.24911e-10
2.1579e-09
-3.39851e-10
2.08847e-09
-2.48769e-10
2.03663e-09
-1.52652e-10
2.01631e-09
-1.38941e-10
2.03078e-09
3.46813e-11
2.09761e-09
1.16532e-10
2.15176e-09
1.88921e-10
2.22524e-09
2.39184e-10
2.3607e-09
3.04264e-10
2.4876e-09
3.29236e-10
2.58903e-09
2.82733e-10
2.6884e-09
3.34068e-10
2.77885e-09
2.57145e-10
2.83049e-09
2.47458e-10
2.85971e-09
2.34668e-10
2.84758e-09
2.54091e-10
2.86705e-09
2.15993e-10
2.83097e-09
2.50223e-10
2.81796e-09
2.65299e-10
2.73166e-09
3.09848e-10
2.72745e-09
2.83685e-10
2.62761e-09
3.0202e-10
2.56282e-09
3.84909e-10
2.50818e-09
2.41984e-10
2.45619e-09
3.36603e-10
2.4721e-09
2.8797e-10
2.39379e-09
2.80104e-10
2.27417e-09
3.51229e-10
2.19167e-09
3.71394e-10
2.13458e-09
2.8975e-10
1.92294e-09
3.94813e-10
2.03066e-09
3.45775e-10
1.87279e-09
5.08412e-10
1.69866e-09
4.93744e-10
1.39117e-09
8.89979e-10
1.08303e-09
7.19134e-10
8.58077e-10
9.10331e-10
8.06136e-10
9.90564e-10
9.4602e-10
1.1944e-09
7.18882e-10
1.33909e-09
6.21622e-10
1.44395e-09
4.14165e-10
1.74661e-09
1.77098e-10
2.0259e-09
1.24557e-10
2.24049e-09
5.23456e-11
2.81364e-09
-2.25929e-10
3.42211e-09
-7.73544e-10
3.84166e-09
-1.14615e-09
4.00538e-09
-1.2999e-09
3.69026e-09
-7.55411e-10
2.47895e-09
-6.99303e-16
1.78335e-09
-1.37334e-17
4.95237e-18
-1.37916e-17
-8.8206e-20
-1.31808e-17
-1.63304e-18
-1.23852e-17
-3.00613e-18
-1.13981e-17
-4.3736e-18
-1.02335e-17
-5.60233e-18
-8.93445e-18
-6.6064e-18
-7.55304e-18
-7.35117e-18
-6.13986e-18
-7.83184e-18
-4.74023e-18
-8.06081e-18
-3.39254e-18
-8.06097e-18
-2.12762e-18
-7.86164e-18
-9.68593e-19
-7.49569e-18
6.8772e-20
-6.99718e-18
9.75448e-19
-6.39953e-18
1.74823e-18
-5.73393e-18
2.38871e-18
-5.02835e-18
2.90218e-18
-4.30689e-18
3.29659e-18
-3.58949e-18
3.58166e-18
-2.892e-18
3.76802e-18
-2.22638e-18
3.86661e-18
-1.60115e-18
3.88823e-18
-1.02185e-18
3.84312e-18
-4.91553e-19
3.74079e-18
-1.1346e-20
3.58989e-18
4.19188e-19
3.39811e-18
8.01572e-19
3.17226e-18
1.13809e-18
2.91822e-18
1.43149e-18
2.64109e-18
1.68475e-18
2.34521e-18
1.90091e-18
2.03428e-18
2.08288e-18
1.71145e-18
2.23341e-18
1.37939e-18
2.35494e-18
1.04039e-18
2.44955e-18
6.96447e-19
2.51897e-18
3.49322e-19
2.56451e-18
2.58705e-18
2.70888e-10
-7.2067e-09
2.6405e-10
-6.75834e-09
4.07298e-10
-5.80515e-09
5.41357e-10
-4.13622e-09
5.40731e-10
-2.24102e-09
5.44705e-10
-1.24203e-09
6.02329e-10
-1.0735e-09
6.9201e-10
-1.03936e-09
7.5392e-10
-9.99862e-10
7.86177e-10
-9.87348e-10
8.53193e-10
-9.7545e-10
9.49992e-10
-9.55931e-10
1.05483e-09
-9.32827e-10
1.14919e-09
-9.14873e-10
1.30742e-09
-9.36276e-10
1.3751e-09
-8.47564e-10
1.51251e-09
-8.01134e-10
1.60567e-09
-7.45289e-10
1.7009e-09
-8.22556e-10
1.80651e-09
-7.49481e-10
1.87364e-09
-6.69363e-10
2.0036e-09
-5.21852e-10
2.04721e-09
-5.26693e-10
2.10189e-09
-5.7016e-10
2.18852e-09
-5.63815e-10
2.21866e-09
-5.34362e-10
2.25224e-09
-4.83617e-10
2.24634e-09
-4.41383e-10
2.22165e-09
-4.14504e-10
2.20128e-09
-3.7119e-10
2.15351e-09
-2.77141e-10
2.0815e-09
-2.67834e-10
2.045e-09
-2.12268e-10
2.01511e-09
-1.22764e-10
1.94436e-09
-6.81855e-11
1.94511e-09
3.3936e-11
1.95698e-09
1.04665e-10
1.97651e-09
1.69389e-10
2.02448e-09
1.91219e-10
2.10041e-09
2.28333e-10
2.18549e-09
2.44152e-10
2.24272e-09
2.25509e-10
2.33009e-09
2.46703e-10
2.38754e-09
1.99694e-10
2.42699e-09
2.08007e-10
2.45596e-09
2.05702e-10
2.45039e-09
2.59663e-10
2.48815e-09
1.78237e-10
2.4471e-09
2.91277e-10
2.41039e-09
3.02015e-10
2.38346e-09
3.36778e-10
2.35273e-09
3.14419e-10
2.28641e-09
3.68337e-10
2.31922e-09
3.52104e-10
2.19151e-09
3.69698e-10
2.1318e-09
3.96317e-10
2.11411e-09
3.05658e-10
2.0403e-09
3.53917e-10
1.98037e-09
4.1116e-10
1.94691e-09
4.04857e-10
1.85131e-09
3.8535e-10
1.69791e-09
5.48213e-10
1.58003e-09
4.63655e-10
1.55969e-09
5.28757e-10
1.39171e-09
6.61728e-10
1.46495e-09
8.16736e-10
1.3595e-09
8.24593e-10
1.1987e-09
1.07113e-09
9.81418e-10
1.20784e-09
8.27431e-10
1.34839e-09
6.54939e-10
1.51158e-09
3.45995e-10
1.75289e-09
1.45126e-10
1.94748e-09
-1.24474e-11
2.18348e-09
-2.01324e-10
2.42937e-09
-4.01963e-10
3.01429e-09
-5.28265e-10
3.54842e-09
-7.47645e-10
4.06104e-09
-1.50348e-09
4.76122e-09
-2.11896e-09
4.30574e-09
-1.32535e-09
1.68534e-09
-5.28673e-16
4.58e-10
-1.87721e-17
-1.75405e-17
-1.53353e-17
-3.52425e-18
-1.45531e-17
-2.4132e-18
-1.37521e-17
-3.8052e-18
-1.26266e-17
-5.49748e-18
-1.12376e-17
-6.99005e-18
-9.67922e-18
-8.16358e-18
-8.0337e-18
-8.99572e-18
-6.36883e-18
-9.49584e-18
-4.74039e-18
-9.68844e-18
-3.19321e-18
-9.60733e-18
-1.76166e-18
-9.29233e-18
-4.70093e-19
-8.78632e-18
6.66427e-19
-8.13269e-18
1.64105e-18
-7.37306e-18
2.45381e-18
-6.54554e-18
3.11017e-18
-5.68351e-18
3.61957e-18
-4.81506e-18
3.99409e-18
-3.96277e-18
4.24728e-18
-3.14394e-18
4.39324e-18
-2.3711e-18
4.44591e-18
-1.65258e-18
4.41853e-18
-9.9323e-19
4.32333e-18
-3.95109e-19
4.17133e-18
1.41896e-19
3.97227e-18
6.19483e-19
3.73463e-18
1.04045e-18
3.46566e-18
1.4083e-18
3.17148e-18
1.72689e-18
2.85724e-18
2.00022e-18
2.52719e-18
2.23218e-18
2.18481e-18
2.42647e-18
1.83297e-18
2.58646e-18
1.47401e-18
2.71511e-18
1.10982e-18
2.81494e-18
7.41986e-19
2.888e-18
3.71859e-19
2.93583e-18
2.95947e-18
1.64457e-10
-7.37115e-09
4.69038e-10
-7.06292e-09
5.28484e-10
-5.8646e-09
4.20736e-10
-4.02848e-09
3.93281e-10
-2.21356e-09
4.50923e-10