/*--------------------------------*- C++ -*----------------------------------*\
  =========                 |
  \\      /  F ield         | OpenFOAM: The Open Source CFD Toolbox
   \\    /   O peration     | Website:  https://openfoam.org
    \\  /    A nd           | Version:  6
     \\/     M anipulation  |
\*---------------------------------------------------------------------------*/
FoamFile
{
    version     2.0;
    format      ascii;
    class       volVectorField;
    location    "2600";
    object      U;
}
// * * * * * * * * * * * * * * * * * * * * * * * * * * * * * * * * * * * * * //

dimensions      [0 1 -1 0 0 0 0];

internalField   nonuniform List<vector> 
4800
(
(-0.000293739 0 4.6378e-06)
(0.000341987 0 0.000307216)
(0.000327206 0 -0.000890748)
(0.00106795 0 -0.000625804)
(0.00157627 0 -0.000502851)
(0.00204225 0 -0.000360058)
(0.00232103 0 -0.000463416)
(0.00251924 0 -0.000328333)
(0.00268257 0 -0.00035306)
(0.00285578 0 -0.00043986)
(0.00304705 0 -0.000549907)
(0.00325391 0 -0.000361791)
(0.00327284 0 -0.000271238)
(0.00325685 0 -0.000211619)
(0.00326093 0 -0.000190182)
(0.00327052 0 -0.000168852)
(0.0032656 0 -0.000157619)
(0.00324895 0 -0.000141136)
(0.00321915 0 -0.000130284)
(0.00318333 0 -0.000126078)
(0.00315727 0 -0.000102508)
(0.00313713 0 -7.74955e-05)
(0.00311078 0 -6.59979e-05)
(0.00308157 0 -9.14775e-05)
(0.00307448 0 -0.00011019)
(0.00307773 0 -0.000112235)
(0.00309449 0 -0.000113898)
(0.00313571 0 -0.000134259)
(0.00320027 0 -0.000156253)
(0.00327467 0 -0.000135096)
(0.00334915 0 -0.000164888)
(0.00343647 0 -0.000276308)
(0.00358315 0 -0.000321884)
(0.0036836 0 -0.000243729)
(0.00366639 0 -0.000214278)
(0.00359928 0 -0.00017082)
(0.00349083 0 -0.0001209)
(0.00338019 0 -2.77502e-05)
(0.00326455 0 2.79941e-05)
(0.00309083 0 -2.82987e-05)
(0.00285745 0 -0.000195734)
(0.00269148 0 -0.000258786)
(0.00259954 0 -0.000210698)
(0.00256293 0 -0.00015001)
(0.00256598 0 -0.000145849)
(0.00258639 0 -0.000164993)
(0.00262905 0 -0.000215425)
(0.00269854 0 -0.000263991)
(0.00278399 0 -0.000210167)
(0.00280876 0 -0.000145057)
(0.00280759 0 -0.000132334)
(0.00281056 0 -0.000124616)
(0.00281719 0 -0.000117535)
(0.00281765 0 -0.000114545)
(0.00281503 0 -0.000113604)
(0.00280803 0 -0.000114371)
(0.00279884 0 -0.00011856)
(0.00279121 0 -0.00013409)
(0.00278375 0 -0.000141985)
(0.00277103 0 -0.000114317)
(0.0027684 0 -8.48482e-05)
(0.00277653 0 -7.1046e-05)
(0.00279152 0 -8.09681e-05)
(0.00281604 0 -8.94513e-05)
(0.00284042 0 -5.83165e-05)
(0.00283684 0 -5.30224e-05)
(0.00281666 0 -1.0937e-05)
(0.00277384 0 -7.05631e-05)
(0.00269727 0 9.78775e-05)
(0.00258785 0 -9.90834e-05)
(0.00244074 0 0.000208432)
(0.00228318 0 -6.60781e-05)
(0.00208225 0 0.00022824)
(0.0018869 0 2.9574e-06)
(0.00167264 0 0.000188929)
(0.00148436 0 0.000130582)
(0.00124873 0 0.000155654)
(0.00108476 0 5.20721e-05)
(0.000684197 0 -0.000302305)
(-0.000794526 0 0.00060825)
(-0.000217046 0 -0.000398288)
(-3.46403e-06 0 -0.000210546)
(-1.52874e-12 0 -3.8128e-12)
(-4.07764e-12 0 -8.23593e-13)
(-3.06953e-12 0 -1.84346e-13)
(-2.82426e-12 0 -6.04954e-14)
(-2.71182e-12 0 -5.15038e-14)
(-2.59282e-12 0 -6.70337e-14)
(-2.43958e-12 0 -8.56996e-14)
(-2.25136e-12 0 -1.02092e-13)
(-2.0339e-12 0 -1.14896e-13)
(-1.79469e-12 0 -1.23831e-13)
(-1.54139e-12 0 -1.28999e-13)
(-1.28124e-12 0 -1.30669e-13)
(-1.02089e-12 0 -1.29202e-13)
(-7.66215e-13 0 -1.25006e-13)
(-5.22226e-13 0 -1.1852e-13)
(-2.93066e-13 0 -1.10185e-13)
(-8.2005e-14 0 -1.00431e-13)
(1.08528e-13 0 -8.96647e-14)
(2.76878e-13 0 -7.82555e-14)
(4.22092e-13 0 -6.65321e-14)
(5.43825e-13 0 -5.47773e-14)
(6.42252e-13 0 -4.3227e-14)
(7.17973e-13 0 -3.20719e-14)
(7.71925e-13 0 -2.14594e-14)
(8.05304e-13 0 -1.14987e-14)
(8.19486e-13 0 -2.26511e-15)
(8.15974e-13 0 6.19494e-15)
(7.96335e-13 0 1.38584e-14)
(7.62168e-13 0 2.07207e-14)
(7.15064e-13 0 2.67913e-14)
(6.56589e-13 0 3.20893e-14)
(5.88262e-13 0 3.66398e-14)
(5.11549e-13 0 4.04712e-14)
(4.27861e-13 0 4.36122e-14)
(3.3855e-13 0 4.60902e-14)
(2.44919e-13 0 4.79309e-14)
(1.48215e-13 0 4.91599e-14)
(4.96241e-14 0 4.98163e-14)
(-0.00065442 0 -0.000260601)
(0.000882744 0 -0.000916733)
(0.000851836 0 -0.0012665)
(0.00143421 0 -0.000899696)
(0.00172674 0 -0.000774351)
(0.00205878 0 -0.000478658)
(0.00230671 0 -0.000381048)
(0.00248677 0 -0.000454897)
(0.0026508 0 -0.000290516)
(0.00277872 0 -3.62193e-05)
(0.00284764 0 -2.7976e-05)
(0.00291215 0 7.78366e-05)
(0.0029895 0 7.18727e-05)
(0.00306422 0 3.98371e-05)
(0.0031384 0 7.63413e-05)
(0.00319964 0 0.000139019)
(0.00320423 0 0.000157298)
(0.00319213 0 0.000162655)
(0.00315285 0 0.000155063)
(0.00309028 0 0.000140991)
(0.00305045 0 0.000100229)
(0.00304255 0 8.70944e-05)
(0.00303811 0 8.69293e-05)
(0.00303798 0 8.85245e-05)
(0.00304239 0 9.23315e-05)
(0.0030504 0 5.94478e-05)
(0.00306372 0 2.18882e-05)
(0.00308684 0 -1.8695e-05)
(0.00312518 0 -6.84905e-05)
(0.0031879 0 -0.000126397)
(0.00327487 0 -0.000106229)
(0.00336136 0 -1.22149e-05)
(0.0034481 0 5.8056e-05)
(0.00355845 0 0.000166764)
(0.00357372 0 0.00022049)
(0.00351028 0 0.000244176)
(0.00334923 0 0.000238111)
(0.00317984 0 0.000152414)
(0.00307638 0 0.000166181)
(0.00300007 0 0.000274687)
(0.00290773 0 0.000390094)
(0.00276907 0 0.000425842)
(0.00261625 0 0.000315904)
(0.00253336 0 0.000156619)
(0.00251843 0 0.000112102)
(0.00252299 0 0.000105967)
(0.00255085 0 9.67777e-05)
(0.00259698 0 9.28103e-05)
(0.00264916 0 9.82949e-05)
(0.0027032 0 0.000105908)
(0.00273628 0 0.000113617)
(0.00274255 0 0.000111569)
(0.00274137 0 0.000110049)
(0.0027376 0 0.000108615)
(0.00272961 0 0.000110024)
(0.00271825 0 0.000100397)
(0.00270939 0 0.000103109)
(0.00269752 0 0.000117962)
(0.00267663 0 0.000141564)
(0.00265321 0 0.000116317)
(0.00264576 0 5.11043e-05)
(0.00264601 0 3.61595e-05)
(0.00264221 0 1.88453e-05)
(0.00263445 0 1.91514e-05)
(0.00262916 0 3.58449e-05)
(0.00262116 0 5.9229e-05)
(0.00260173 0 5.75592e-05)
(0.00256432 0 0.000121649)
(0.0025134 0 0.000119776)
(0.00241994 0 0.000210946)
(0.0023001 0 0.000214926)
(0.00214716 0 0.000297452)
(0.00200227 0 0.00022601)
(0.00181491 0 0.000350572)
(0.00166654 0 0.000188697)
(0.00138311 0 0.000517693)
(0.00131448 0 0.000113653)
(0.000920175 0 0.000572429)
(0.000866267 0 0.000633256)
(0.000999699 0 -0.000215175)
(0.000918908 0 -0.0001201)
(2.29489e-06 0 0.000161293)
(-1.98039e-12 0 -5.01178e-13)
(-4.49382e-13 0 -1.20914e-13)
(-2.3062e-12 0 -3.75173e-14)
(-2.69112e-12 0 -6.64315e-14)
(-2.71807e-12 0 -1.29791e-13)
(-2.62677e-12 0 -1.97747e-13)
(-2.47455e-12 0 -2.59095e-13)
(-2.28056e-12 0 -3.09682e-13)
(-2.05564e-12 0 -3.48373e-13)
(-1.8088e-12 0 -3.75074e-13)
(-1.54822e-12 0 -3.90309e-13)
(-1.28144e-12 0 -3.94965e-13)
(-1.01523e-12 0 -3.90154e-13)
(-7.55534e-13 0 -3.77136e-13)
(-5.07404e-13 0 -3.57239e-13)
(-2.74977e-13 0 -3.31805e-13)
(-6.14847e-14 0 -3.0214e-13)
(1.30704e-13 0 -2.69471e-13)
(3.00011e-13 0 -2.34915e-13)
(4.4557e-13 0 -1.99462e-13)
(5.6713e-13 0 -1.63962e-13)
(6.64957e-13 0 -1.29121e-13)
(7.3974e-13 0 -9.55084e-14)
(7.92498e-13 0 -6.35626e-14)
(8.24498e-13 0 -3.36064e-14)
(8.3718e-13 0 -5.86015e-15)
(8.32097e-13 0 1.95418e-14)
(8.10861e-13 0 4.25354e-14)
(7.751e-13 0 6.31117e-14)
(7.26433e-13 0 8.1303e-14)
(6.66437e-13 0 9.71704e-14)
(5.96643e-13 0 1.10793e-13)
(5.18521e-13 0 1.22257e-13)
(4.3348e-13 0 1.31651e-13)
(3.42869e-13 0 1.39059e-13)
(2.47988e-13 0 1.44555e-13)
(1.501e-13 0 1.48203e-13)
(5.02804e-14 0 1.50063e-13)
(-0.00126159 0 0.00101129)
(0.000980763 0 -0.00128533)
(0.00125261 0 -0.00129447)
(0.00142934 0 -0.00120818)
(0.00160917 0 -0.00108345)
(0.00179422 0 -0.000820472)
(0.00195883 0 -0.000645537)
(0.00208868 0 -0.00038304)
(0.00210134 0 -0.00035968)
(0.00212338 0 -0.000392617)
(0.00219159 0 -0.000438602)
(0.00229611 0 -0.000329471)
(0.0023338 0 -0.000173537)
(0.00235612 0 -0.000156813)
(0.00239657 0 -0.000137441)
(0.00245305 0 -0.000128532)
(0.00253296 0 -0.000105273)
(0.00261045 0 -3.02339e-05)
(0.00262212 0 3.39848e-05)
(0.00262553 0 8.11452e-05)
(0.00263114 0 4.32419e-05)
(0.00263172 0 2.6261e-05)
(0.00262902 0 5.44836e-06)
(0.00262221 0 -4.03726e-05)
(0.0026206 0 -3.22888e-05)
(0.00261803 0 -8.38494e-05)
(0.00261885 0 -0.00011241)
(0.00261115 0 -0.000137343)
(0.00261423 0 -0.000161437)
(0.00264473 0 -0.000153685)
(0.00270145 0 -0.000218813)
(0.00275065 0 -0.000387172)
(0.00280086 0 -0.000462431)
(0.0028791 0 -0.000327145)
(0.00295095 0 1.18804e-06)
(0.00295885 0 0.000199272)
(0.00294203 0 0.000251911)
(0.00289226 0 0.000325328)
(0.00281935 0 0.000385574)
(0.00274275 0 0.000415882)
(0.00266263 0 0.000390738)
(0.00259073 0 0.000280493)
(0.00256659 0 0.000103157)
(0.00254928 0 -1.83661e-05)
(0.00251202 0 -0.000107312)
(0.00246256 0 -0.000202334)
(0.00240965 0 -0.000284779)
(0.00235536 0 -0.00032285)
(0.0023235 0 -0.00022768)
(0.00229598 0 -0.000178946)
(0.00227635 0 -0.000140815)
(0.00226869 0 -9.78063e-05)
(0.00226247 0 -8.72847e-05)
(0.00225655 0 -6.89182e-05)
(0.002249 0 -3.78906e-05)
(0.00223024 0 -3.30495e-05)
(0.00221179 0 4.69095e-06)
(0.00219546 0 -1.53947e-05)
(0.00218502 0 -2.24212e-05)
(0.00218375 0 -2.45276e-05)
(0.00218333 0 -2.98609e-05)
(0.00217779 0 -2.6102e-05)
(0.0021629 0 -3.17315e-05)
(0.00215987 0 -5.9914e-05)
(0.00215956 0 -2.94773e-05)
(0.00216363 0 7.78958e-06)
(0.00215807 0 1.35575e-05)
(0.00214209 0 9.86688e-05)
(0.00211889 0 0.0001776)
(0.00208091 0 0.000276038)
(0.00202331 0 0.000268328)
(0.00191728 0 0.000415372)
(0.00182728 0 0.00036049)
(0.00168689 0 0.000510454)
(0.00156606 0 0.000449468)
(0.00135341 0 0.000562615)
(0.00120109 0 0.000539966)
(0.000921387 0 0.00069677)
(0.000844512 0 0.000797231)
(0.000620695 0 0.000873923)
(0.000513347 0 0.000520924)
(-1.87841e-06 0 0.000393964)
(-1.69673e-12 0 3.40725e-12)
(-3.61325e-12 0 8.78782e-13)
(-3.01435e-12 0 2.21761e-13)
(-2.91589e-12 0 -3.77524e-14)
(-2.84255e-12 0 -2.03319e-13)
(-2.72165e-12 0 -3.34861e-13)
(-2.55133e-12 0 -4.4295e-13)
(-2.34064e-12 0 -5.29052e-13)
(-2.09929e-12 0 -5.9372e-13)
(-1.83663e-12 0 -6.37661e-13)
(-1.56128e-12 0 -6.62079e-13)
(-1.28109e-12 0 -6.68605e-13)
(-1.00307e-12 0 -6.59197e-13)
(-7.333e-13 0 -6.36027e-13)
(-4.76895e-13 0 -6.01377e-13)
(-2.37968e-13 0 -5.57541e-13)
(-1.96706e-14 0 -5.06738e-13)
(1.75753e-13 0 -4.51048e-13)
(3.46887e-13 0 -3.92357e-13)
(4.93045e-13 0 -3.32326e-13)
(6.14166e-13 0 -2.72373e-13)
(7.10706e-13 0 -2.13674e-13)
(7.83531e-13 0 -1.57165e-13)
(8.33827e-13 0 -1.03565e-13)
(8.63006e-13 0 -5.3393e-14)
(8.72635e-13 0 -7.00036e-15)
(8.64369e-13 0 3.54068e-14)
(8.39905e-13 0 7.37386e-14)
(8.00935e-13 0 1.07996e-13)
(7.49123e-13 0 1.38246e-13)
(6.86078e-13 0 1.64603e-13)
(6.13348e-13 0 1.87209e-13)
(5.32408e-13 0 2.06217e-13)
(4.44663e-13 0 2.21781e-13)
(3.51454e-13 0 2.34044e-13)
(2.54062e-13 0 2.4313e-13)
(1.53723e-13 0 2.49137e-13)
(5.14845e-14 0 2.52123e-13)
(0.000163352 0 -0.000713316)
(0.000443702 0 -0.00170704)
(0.00124446 0 -0.00158917)
(0.00118941 0 -0.00156759)
(0.00155907 0 -0.00108133)
(0.00129741 0 -0.00116056)
(0.00163562 0 -0.000394632)
(0.00154285 0 -0.000414869)
(0.00154536 0 -0.000318418)
(0.00158349 0 -0.000256279)
(0.00158743 0 -0.000230205)
(0.00155737 0 -0.000254273)
(0.00155728 0 -0.000243732)
(0.00159502 0 -0.000199507)
(0.00165693 0 -0.000141572)
(0.00171618 0 -9.56847e-05)
(0.00176617 0 -6.71835e-05)
(0.00182195 0 -2.96085e-05)
(0.00188525 0 2.45668e-05)
(0.0019407 0 1.50379e-05)
(0.00198204 0 1.53697e-05)
(0.00199908 0 3.66923e-05)
(0.00199284 0 4.21173e-05)
(0.0019754 0 4.51981e-05)
(0.00195953 0 2.58463e-05)
(0.00194452 0 -1.78928e-06)
(0.00196048 0 2.864e-05)
(0.00196802 0 -7.27554e-05)
(0.00198321 0 -0.000162434)
(0.00203113 0 -0.000249405)
(0.00213271 0 -0.00025815)
(0.00223835 0 -0.000169534)
(0.00225254 0 -0.000122687)
(0.00223646 0 -5.32183e-05)
(0.00224686 0 2.0795e-05)
(0.00233141 0 0.000162381)
(0.0023939 0 0.000307954)
(0.00238859 0 0.000319399)
(0.00235662 0 0.000316993)
(0.00232088 0 0.000332613)
(0.00232436 0 0.000339918)
(0.00235689 0 0.000298699)
(0.00235988 0 0.000261559)
(0.00231133 0 0.000214933)
(0.00221717 0 0.000161541)
(0.00212313 0 0.000143983)
(0.00203803 0 0.000108502)
(0.00195019 0 7.87317e-05)
(0.00186528 0 6.38852e-05)
(0.00181086 0 5.95187e-05)
(0.00178804 0 4.36374e-05)
(0.00177259 0 5.86168e-05)
(0.00175796 0 5.24802e-05)
(0.00174785 0 5.26789e-05)
(0.00173473 0 7.48743e-05)
(0.0017247 0 5.39783e-05)
(0.00172316 0 6.29543e-05)
(0.00172307 0 6.53197e-05)
(0.00172884 0 5.16117e-05)
(0.00172655 0 3.91857e-05)
(0.00172747 0 2.60518e-05)
(0.00172609 0 1.83148e-05)
(0.00171088 0 -3.04082e-05)
(0.00170869 0 3.51863e-05)
(0.0017 0 -3.14376e-06)
(0.00168727 0 6.05621e-05)
(0.00168758 0 8.83676e-05)
(0.00168282 0 0.000129398)
(0.00168109 0 0.00017076)
(0.00167619 0 0.00029647)
(0.00166258 0 0.000334275)
(0.00161902 0 0.000443995)
(0.00159101 0 0.000434796)
(0.00152858 0 0.000545987)
(0.00144384 0 0.000549857)
(0.00132711 0 0.000555721)
(0.00110625 0 0.00071827)
(0.00101975 0 0.000591064)
(0.000819956 0 0.000819541)
(0.000502307 0 0.000969331)
(0.000479439 0 0.00068945)
(-1.13644e-06 0 0.000570147)
(-1.84943e-12 0 -1.60461e-12)
(-3.63355e-12 0 7.30628e-15)
(-3.22188e-12 0 8.35497e-14)
(-3.11551e-12 0 -1.03049e-13)
(-3.01459e-12 0 -3.10903e-13)
(-2.86595e-12 0 -4.95396e-13)
(-2.66858e-12 0 -6.48709e-13)
(-2.43133e-12 0 -7.69947e-13)
(-2.16425e-12 0 -8.59882e-13)
(-1.87716e-12 0 -9.19858e-13)
(-1.57917e-12 0 -9.51822e-13)
(-1.27856e-12 0 -9.58257e-13)
(-9.82653e-13 0 -9.42073e-13)
(-6.97714e-13 0 -9.06466e-13)
(-4.28918e-13 0 -8.54767e-13)
(-1.80339e-13 0 -7.90305e-13)
(4.50079e-14 0 -7.16285e-13)
(2.45085e-13 0 -6.35688e-13)
(4.18734e-13 0 -5.512e-13)
(5.65554e-13 0 -4.65172e-13)
(6.85782e-13 0 -3.79594e-13)
(7.80166e-13 0 -2.96099e-13)
(8.4985e-13 0 -2.15976e-13)
(8.96271e-13 0 -1.40199e-13)
(9.21062e-13 0 -6.94618e-14)
(9.2598e-13 0 -4.21595e-15)
(9.12836e-13 0 5.5287e-14)
(8.8345e-13 0 1.08957e-13)
(8.39608e-13 0 1.56828e-13)
(7.8304e-13 0 1.99023e-13)
(7.154e-13 0 2.35729e-13)
(6.38257e-13 0 2.67165e-13)
(5.53094e-13 0 2.93564e-13)
(4.61307e-13 0 3.15155e-13)
(3.64219e-13 0 3.32151e-13)
(2.63081e-13 0 3.4473e-13)
(1.59093e-13 0 3.53035e-13)
(5.32668e-14 0 3.5716e-13)
(-0.000492692 0 -0.00150285)
(0.00105341 0 -0.00176932)
(0.000926629 0 -0.00188193)
(0.00103024 0 -0.00169827)
(0.00139955 0 -0.000990782)
(0.000895718 0 -0.00106989)
(0.00124355 0 -0.000186907)
(0.00106367 0 -0.000349037)
(0.000987359 0 -0.000304399)
(0.00102012 0 -0.000284594)
(0.00102216 0 -0.000279031)
(0.0010184 0 -0.000237329)
(0.00101854 0 -0.000194053)
(0.00102002 0 -0.000193173)
(0.00103286 0 -0.000179809)
(0.00106043 0 -0.000142178)
(0.00109237 0 -9.33455e-05)
(0.0011331 0 -2.52679e-05)
(0.00117292 0 3.29491e-06)
(0.00122439 0 1.99395e-05)
(0.00128113 0 2.37326e-05)
(0.00132509 0 7.82499e-05)
(0.00134836 0 3.84519e-05)
(0.00137653 0 4.87593e-06)
(0.00142713 0 4.87982e-05)
(0.00144528 0 -0.000117575)
(0.00149508 0 -3.79047e-05)
(0.00153746 0 -0.000147518)
(0.00157307 0 -0.000220659)
(0.0016092 0 -0.000252266)
(0.00159018 0 -0.000377375)
(0.00158865 0 -0.0004177)
(0.00161742 0 -0.000360045)
(0.00165296 0 -0.000216922)
(0.00168656 0 -9.42196e-05)
(0.00174094 0 5.68219e-05)
(0.0018048 0 0.000172372)
(0.00184462 0 0.000281513)
(0.00185364 0 0.000362972)
(0.00188254 0 0.000377575)
(0.00192153 0 0.000344245)
(0.00192582 0 0.000316398)
(0.00189833 0 0.000257544)
(0.00183249 0 0.000185534)
(0.00178027 0 0.000126524)
(0.00174685 0 0.000101725)
(0.00170827 0 6.08423e-05)
(0.00166177 0 2.38343e-05)
(0.0016106 0 1.12431e-05)
(0.00157008 0 -4.43866e-06)
(0.00154464 0 1.02013e-05)
(0.00152477 0 1.43195e-05)
(0.00150004 0 9.25471e-06)
(0.00148464 0 5.29067e-05)
(0.00147454 0 2.96249e-06)
(0.00146592 0 4.84805e-05)
(0.00146096 0 5.11683e-05)
(0.00145623 0 4.31644e-07)
(0.00145308 0 5.33105e-05)
(0.0014485 0 -5.28692e-06)
(0.00143773 0 1.93601e-05)
(0.00142421 0 4.06471e-05)
(0.00140171 0 -2.50812e-05)
(0.00137131 0 3.32152e-05)
(0.00133327 0 5.72135e-05)
(0.00131837 0 -7.40906e-06)
(0.00130051 0 0.000111676)
(0.00128979 0 0.000124554)
(0.00126667 0 0.000252178)
(0.00126074 0 0.000314861)
(0.00125135 0 0.0004124)
(0.0012314 0 0.00054057)
(0.00120907 0 0.000663089)
(0.00111183 0 0.000868039)
(0.00104999 0 0.000916193)
(0.000975093 0 0.00094187)
(0.000778509 0 0.00103536)
(0.000725742 0 0.000885782)
(0.000578368 0 0.000980271)
(0.000406955 0 0.00102684)
(0.000773015 0 0.000803849)
(1.6027e-06 0 0.000830634)
(-2.38658e-12 0 1.53166e-12)
(-1.92446e-12 0 6.71437e-13)
(-3.12394e-12 0 2.08194e-13)
(-3.30966e-12 0 -1.47087e-13)
(-3.23432e-12 0 -4.41852e-13)
(-3.05903e-12 0 -6.87022e-13)
(-2.82576e-12 0 -8.86446e-13)
(-2.55181e-12 0 -1.04219e-12)
(-2.2492e-12 0 -1.15605e-12)
(-1.92857e-12 0 -1.23011e-12)
(-1.59968e-12 0 -1.26713e-12)
(-1.27134e-12 0 -1.27056e-12)
(-9.51274e-13 0 -1.2444e-12)
(-6.45993e-13 0 -1.19302e-12)
(-3.60734e-13 0 -1.12094e-12)
(-9.94863e-14 0 -1.03264e-12)
(1.34947e-13 0 -9.32425e-13)
(3.40838e-13 0 -8.24232e-13)
(5.17403e-13 0 -7.11599e-13)
(6.64651e-13 0 -5.97583e-13)
(7.83239e-13 0 -4.84748e-13)
(8.74323e-13 0 -3.75169e-13)
(9.39431e-13 0 -2.70458e-13)
(9.80341e-13 0 -1.71812e-13)
(9.98989e-13 0 -8.00563e-14)
(9.97383e-13 0 4.29459e-15)
(9.77542e-13 0 8.0984e-14)
(9.41445e-13 0 1.49959e-13)
(8.91002e-13 0 2.11319e-13)
(8.28024e-13 0 2.65276e-13)
(7.5422e-13 0 3.1211e-13)
(6.71183e-13 0 3.52143e-13)
(5.80398e-13 0 3.85703e-13)
(4.8325e-13 0 4.13112e-13)
(3.81029e-13 0 4.34658e-13)
(2.74947e-13 0 4.50589e-13)
(1.66154e-13 0 4.61098e-13)
(5.56099e-14 0 4.66316e-13)
(0.000295274 0 -0.00196278)
(0.000305157 0 -0.00217319)
(0.000579868 0 -0.00207281)
(0.000854776 0 -0.0016961)
(0.000781669 0 -0.00120636)
(0.000804404 0 -0.000595122)
(0.000787221 0 -0.000307951)
(0.000708302 0 -0.000238507)
(0.000627417 0 -0.00029235)
(0.000659165 0 -0.000252346)
(0.00065317 0 -0.000254747)
(0.000639029 0 -0.000231758)
(0.000641119 0 -0.000213824)
(0.000654208 0 -0.00019798)
(0.000672231 0 -0.000172072)
(0.000689981 0 -0.000161913)
(0.000721572 0 -0.000152547)
(0.000767867 0 -9.23555e-05)
(0.000809558 0 -0.000107932)
(0.000877288 0 -8.07067e-05)
(0.000956879 0 -4.2403e-05)
(0.00101061 0 -2.49611e-05)
(0.00105021 0 -3.09993e-05)
(0.00110186 0 -3.79503e-05)
(0.0011733 0 -1.58221e-05)
(0.00122177 0 -5.83282e-05)
(0.0012463 0 -0.000129811)
(0.00127811 0 -0.000148645)
(0.00128315 0 -0.000219674)
(0.00128019 0 -0.000238865)
(0.00125114 0 -0.000253824)
(0.00119921 0 -0.000244686)
(0.00116452 0 -0.000227633)
(0.00114305 0 -0.000129817)
(0.00113977 0 -3.36423e-05)
(0.00116522 0 3.92458e-05)
(0.00123622 0 0.000160587)
(0.0013073 0 0.000269245)
(0.00135542 0 0.000263642)
(0.00140039 0 0.000304787)
(0.00143381 0 0.000319282)
(0.00144663 0 0.000287455)
(0.0014622 0 0.000275035)
(0.0014923 0 0.00022436)
(0.00150535 0 0.000182539)
(0.00150455 0 0.000162676)
(0.0014972 0 0.000104589)
(0.00148128 0 8.4075e-05)
(0.00145839 0 3.46437e-05)
(0.00143649 0 5.10535e-05)
(0.00141767 0 1.02615e-05)
(0.00139072 0 7.50714e-05)
(0.00136898 0 2.17124e-06)
(0.00134999 0 5.34102e-05)
(0.00133292 0 4.60957e-05)
(0.00131905 0 2.50857e-05)
(0.00130629 0 3.84714e-05)
(0.00129692 0 4.54302e-05)
(0.0012785 0 3.33647e-06)
(0.00126293 0 4.05215e-05)
(0.00124167 0 9.77122e-06)
(0.0011996 0 1.32657e-05)
(0.00118605 0 2.84062e-05)
(0.00115207 0 1.14437e-05)
(0.00106463 0 7.61874e-05)
(0.00106186 0 0.000102859)
(0.00105159 0 7.96691e-05)
(0.000981307 0 0.000162098)
(0.000989471 0 0.000171347)
(0.000976699 0 0.000224107)
(0.000979089 0 0.000272534)
(0.00101758 0 0.000280611)
(0.0010844 0 0.000324341)
(0.000981215 0 0.000611713)
(0.00102587 0 0.000604665)
(0.000779432 0 0.000911588)
(0.000869579 0 0.000917283)
(0.000580869 0 0.00101901)
(0.000383863 0 0.00110629)
(0.000269356 0 0.00112131)
(-0.000283743 0 0.00115094)
(4.97909e-08 0 0.00104638)
(-3.02977e-12 0 2.37716e-12)
(-4.95582e-12 0 9.38716e-13)
(-4.03951e-12 0 2.2499e-13)
(-3.76485e-12 0 -2.51591e-13)
(-3.55395e-12 0 -6.22385e-13)
(-3.31016e-12 0 -9.24297e-13)
(-3.02365e-12 0 -1.16781e-12)
(-2.70093e-12 0 -1.35636e-12)
(-2.35216e-12 0 -1.49205e-12)
(-1.98824e-12 0 -1.57744e-12)
(-1.61962e-12 0 -1.61607e-12)
(-1.25583e-12 0 -1.61249e-12)
(-9.05112e-13 0 -1.57198e-12)
(-5.74251e-13 0 -1.50029e-12)
(-2.68545e-13 0 -1.40334e-12)
(8.17338e-15 0 -1.28693e-12)
(2.5342e-13 0 -1.15655e-12)
(4.65911e-13 0 -1.01723e-12)
(6.45383e-13 0 -8.73396e-13)
(7.92405e-13 0 -7.2883e-13)
(9.08197e-13 0 -5.86663e-13)
(9.94456e-13 0 -4.49385e-13)
(1.05321e-12 0 -3.18892e-13)
(1.08667e-12 0 -1.9655e-13)
(1.09717e-12 0 -8.32618e-14)
(1.08702e-12 0 2.04513e-14)
(1.0585e-12 0 1.14381e-13)
(1.01378e-12 0 1.9856e-13)
(9.54925e-13 0 2.732e-13)
(8.83831e-13 0 3.38636e-13)
(8.02267e-13 0 3.9528e-13)
(7.1185e-13 0 4.43578e-13)
(6.14063e-13 0 4.83982e-13)
(5.10262e-13 0 5.16917e-13)
(4.01696e-13 0 5.42768e-13)
(2.8952e-13 0 5.61858e-13)
(1.7482e-13 0 5.74439e-13)
(5.84849e-14 0 5.80683e-13)
(-0.000232117 0 -0.00229363)
(0.000690731 0 -0.00222407)
(0.000626701 0 -0.00211838)
(0.000668789 0 -0.0017041)
(0.000670713 0 -0.00100075)
(0.000457563 0 -0.00058847)
(0.000487098 0 -0.000334535)
(0.000464081 0 -0.000282098)
(0.000451973 0 -0.00029535)
(0.000451988 0 -0.000316615)
(0.000476087 0 -0.000285959)
(0.000490099 0 -0.000265888)
(0.000506825 0 -0.000255955)
(0.000537939 0 -0.000244768)
(0.000574242 0 -0.000218284)
(0.000597539 0 -0.000231974)
(0.000645237 0 -0.000182132)
(0.0006832 0 -0.000146639)
(0.000718056 0 -0.000167393)
(0.000776753 0 -0.000160172)
(0.000852647 0 -9.26653e-05)
(0.000904102 0 -7.44885e-05)
(0.000936876 0 -9.62881e-05)
(0.000983831 0 -9.81337e-05)
(0.0010479 0 -9.28308e-05)
(0.00109298 0 -0.000138766)
(0.00112165 0 -0.000152182)
(0.00113179 0 -0.000191788)
(0.00112438 0 -0.000225317)
(0.00111351 0 -0.000195374)
(0.00105196 0 -0.0002743)
(0.000985862 0 -0.000258379)
(0.000937318 0 -0.000209439)
(0.000900239 0 -0.000164034)
(0.000868261 0 -6.75106e-05)
(0.000869 0 2.97947e-06)
(0.000909297 0 9.27644e-05)
(0.000969387 0 0.000171287)
(0.00102945 0 0.000212346)
(0.00109525 0 0.000277396)
(0.00116488 0 0.000284542)
(0.00122209 0 0.000243641)
(0.00127116 0 0.000222371)
(0.00131727 0 0.000208426)
(0.00134579 0 0.000143848)
(0.0013585 0 0.000126836)
(0.00137074 0 9.48078e-05)
(0.00137185 0 9.37255e-05)
(0.00136233 0 8.36086e-05)
(0.00134474 0 6.34624e-05)
(0.00131854 0 0.000121806)
(0.00130192 0 3.68431e-05)
(0.00127659 0 0.000112911)
(0.00125663 0 8.4045e-05)
(0.00123365 0 4.77601e-05)
(0.00121032 0 0.000115708)
(0.00119424 0 4.59518e-05)
(0.00116129 0 0.000132879)
(0.00114126 0 6.49076e-05)
(0.00112736 0 7.00242e-05)
(0.00109647 0 0.000134417)
(0.00106074 0 -2.70602e-05)
(0.00103315 0 0.000112213)
(0.00098773 0 0.000171132)
(0.000943293 0 -4.8162e-05)
(0.000892177 0 0.000143919)
(0.000837272 0 0.000257927)
(0.000835284 0 0.000116204)
(0.000673916 0 0.000413379)
(0.000597995 0 0.000473498)
(0.000460746 0 0.000657788)
(0.000399537 0 0.000743208)
(0.000481941 0 0.000765476)
(0.00058129 0 0.000788615)
(0.000594169 0 0.000851549)
(0.000753013 0 0.000874908)
(0.000319426 0 0.00119728)
(0.000704683 0 0.00109296)
(0.000315006 0 0.00124516)
(0.000205159 0 0.00124673)
(0.000636386 0 0.00110665)
(7.99971e-07 0 0.00111876)
(-2.96526e-12 0 6.28948e-13)
(-4.0754e-12 0 4.81454e-13)
(-4.31333e-12 0 4.77453e-15)
(-4.15633e-12 0 -4.61789e-13)
(-3.90647e-12 0 -8.71759e-13)
(-3.60411e-12 0 -1.21985e-12)
(-3.25776e-12 0 -1.50409e-12)
(-2.87606e-12 0 -1.72344e-12)
(-2.47028e-12 0 -1.87843e-12)
(-2.05259e-12 0 -1.97158e-12)
(-1.63473e-12 0 -2.00728e-12)
(-1.22725e-12 0 -1.99139e-12)
(-8.3908e-13 0 -1.93078e-12)
(-4.77353e-13 0 -1.83287e-12)
(-1.47368e-13 0 -1.70523e-12)
(1.473e-13 0 -1.5552e-12)
(4.04643e-13 0 -1.38965e-12)
(6.23997e-13 0 -1.21477e-12)
(8.05806e-13 0 -1.03594e-12)
(9.51384e-13 0 -8.57695e-13)
(1.06268e-12 0 -6.83707e-13)
(1.14209e-12 0 -5.16835e-13)
(1.19227e-12 0 -3.59195e-13)
(1.21597e-12 0 -2.12251e-13)
(1.21599e-12 0 -7.69109e-14)
(1.19503e-12 0 4.63736e-14)
(1.15565e-12 0 1.57511e-13)
(1.10026e-12 0 2.56682e-13)
(1.03108e-12 0 3.44267e-13)
(9.50105e-13 0 4.20773e-13)
(8.59162e-13 0 4.86779e-13)
(7.59884e-13 0 5.42894e-13)
(6.53737e-13 0 5.89713e-13)
(5.42036e-13 0 6.27792e-13)
(4.25969e-13 0 6.57624e-13)
(3.06617e-13 0 6.79622e-13)
(1.84978e-13 0 6.94103e-13)
(6.18536e-14 0 7.01285e-13)
(0.000193708 0 -0.00251413)
(0.000233367 0 -0.00248257)
(0.000297031 0 -0.00222214)
(0.000457584 0 -0.00165852)
(0.000454205 0 -0.000938281)
(0.000410828 0 -0.000467647)
(0.000312513 0 -0.00037719)
(0.000349357 0 -0.000330109)
(0.000353074 0 -0.000337162)
(0.000369165 0 -0.000345887)
(0.000421784 0 -0.000299691)
(0.000441705 0 -0.000285267)
(0.000469954 0 -0.000274154)
(0.00050771 0 -0.000263586)
(0.000551855 0 -0.00024037)
(0.000571196 0 -0.000269445)
(0.000626541 0 -0.000190229)
(0.000647223 0 -0.000206985)
(0.000687669 0 -0.000212056)
(0.000739155 0 -0.000234483)
(0.000806903 0 -0.000147024)
(0.00085057 0 -0.000113187)
(0.000881448 0 -0.000131802)
(0.000923782 0 -0.000141967)
(0.000986786 0 -0.000122608)
(0.00102555 0 -0.000151221)
(0.00104371 0 -0.000163909)
(0.00105184 0 -0.000165568)
(0.00104434 0 -0.000190347)
(0.00101873 0 -0.000207646)
(0.000985478 0 -0.0001576)
(0.000922654 0 -0.000242232)
(0.000877951 0 -0.000156625)
(0.000836022 0 -8.91359e-05)
(0.000821315 0 -6.90067e-05)
(0.000824822 0 -1.31028e-06)
(0.000837572 0 0.000113656)
(0.00088531 0 0.000120392)
(0.000945166 0 0.000129569)
(0.00099079 0 0.000214401)
(0.00104819 0 0.000224618)
(0.00111117 0 0.000190331)
(0.0011662 0 0.000184067)
(0.00120988 0 0.000159124)
(0.00124034 0 0.000138687)
(0.00126411 0 0.00010851)
(0.00127447 0 9.10491e-05)
(0.00127303 0 9.04341e-05)
(0.00126591 0 5.66196e-05)
(0.00124703 0 9.65503e-05)
(0.00123034 0 3.51978e-05)
(0.00120504 0 0.00012048)
(0.00118379 0 4.97777e-05)
(0.00115698 0 9.84765e-05)
(0.00112549 0 0.000103729)
(0.00110716 0 7.93111e-05)
(0.00108365 0 0.000109247)
(0.00105153 0 5.67189e-05)
(0.00102561 0 6.68131e-05)
(0.000998861 0 0.000102881)
(0.000961718 0 0.000103595)
(0.000940425 0 2.98496e-05)
(0.000901537 0 0.000154589)
(0.000868996 0 4.05707e-05)
(0.000809474 0 0.000158661)
(0.000790668 0 0.00014559)
(0.000713431 0 0.000226609)
(0.000727721 0 0.000149624)
(0.000698456 0 0.000183175)
(0.000625071 0 0.00032152)
(0.000687802 0 0.000107036)
(0.000463309 0 0.000389428)
(0.000371644 0 0.000565805)
(0.000358644 0 0.000741307)
(0.000381081 0 0.000894832)
(0.000265262 0 0.00107943)
(0.000185165 0 0.00125493)
(9.89817e-05 0 0.00136921)
(0.000102635 0 0.00147402)
(2.48184e-05 0 0.00140118)
(-0.000238314 0 0.00127861)
(-1.38529e-06 0 0.00109325)
(-2.76701e-12 0 1.20532e-12)
(-5.57882e-12 0 3.53512e-13)
(-4.98186e-12 0 -2.25449e-13)
(-4.64071e-12 0 -7.28493e-13)
(-4.3115e-12 0 -1.18295e-12)
(-3.9422e-12 0 -1.57911e-12)
(-3.52722e-12 0 -1.90528e-12)
(-3.07527e-12 0 -2.15494e-12)
(-2.6003e-12 0 -2.32671e-12)
(-2.11709e-12 0 -2.42324e-12)
(-1.63943e-12 0 -2.45014e-12)
(-1.17933e-12 0 -2.41507e-12)
(-7.46594e-13 0 -2.32693e-12)
(-3.487e-13 0 -2.19523e-12)
(9.12899e-15 0 -2.02954e-12)
(3.23752e-13 0 -1.83902e-12)
(5.93851e-13 0 -1.6321e-12)
(8.19621e-13 0 -1.41627e-12)
(1.00246e-12 0 -1.19792e-12)
(1.14464e-12 0 -9.82325e-13)
(1.24906e-12 0 -7.73656e-13)
(1.31897e-12 0 -5.75073e-13)
(1.35779e-12 0 -3.88824e-13)
(1.36896e-12 0 -2.1637e-13)
(1.35579e-12 0 -5.85252e-14)
(1.32144e-12 0 8.44224e-14)
(1.26881e-12 0 2.12585e-13)
(1.20054e-12 0 3.26372e-13)
(1.11902e-12 0 4.26395e-13)
(1.02634e-12 0 5.13389e-13)
(9.24388e-13 0 5.88152e-13)
(8.14784e-13 0 6.51486e-13)
(6.98961e-13 0 7.04165e-13)
(5.78174e-13 0 7.46896e-13)
(4.53525e-13 0 7.80298e-13)
(3.25999e-13 0 8.04884e-13)
(1.96483e-13 0 8.21049e-13)
(6.56671e-14 0 8.2906e-13)
(-0.000138859 0 -0.00269331)
(0.000355925 0 -0.0025836)
(0.000344821 0 -0.00224588)
(0.000358491 0 -0.00163077)
(0.000286019 0 -0.000905696)
(0.000294013 0 -0.000479208)
(0.000266244 0 -0.00039142)
(0.000282258 0 -0.000374574)
(0.000296274 0 -0.000369401)
(0.000309029 0 -0.000379841)
(0.000363359 0 -0.00035145)
(0.000401317 0 -0.000322571)
(0.000429429 0 -0.000313946)
(0.000464653 0 -0.000313972)
(0.000521801 0 -0.000287343)
(0.000551619 0 -0.000303126)
(0.00060608 0 -0.000239364)
(0.000631928 0 -0.000246689)
(0.00066827 0 -0.000269895)
(0.000736143 0 -0.000234434)
(0.000776879 0 -0.000205179)
(0.000817885 0 -0.000142289)
(0.000844052 0 -0.00016946)
(0.000876406 0 -0.000198651)
(0.000929868 0 -0.000173947)
(0.000956539 0 -0.000201939)
(0.00097474 0 -0.000175757)
(0.000975193 0 -0.000185193)
(0.000972449 0 -0.000185798)
(0.000959711 0 -0.000157735)
(0.000925837 0 -0.000174184)
(0.000896938 0 -0.00015915)
(0.000856749 0 -0.000110642)
(0.000827226 0 -8.03555e-05)
(0.000826164 0 -7.45247e-05)
(0.000821346 0 2.63265e-05)
(0.000826541 0 4.8322e-05)
(0.000858809 0 8.57067e-05)
(0.000897297 0 0.000141611)
(0.000926093 0 0.000154596)
(0.000962124 0 0.000148104)
(0.00101096 0 0.000116764)
(0.0010559 0 0.000161304)
(0.00109589 0 0.000109628)
(0.00112041 0 0.000100332)
(0.00113774 0 0.000105557)
(0.00114327 0 0.000106734)
(0.00114054 0 0.000104564)
(0.00113439 0 0.000110269)
(0.00112876 0 9.57066e-05)
(0.00111312 0 0.00012226)
(0.00109014 0 0.000111735)
(0.00106372 0 0.000103895)
(0.00103448 0 0.000163035)
(0.00101516 0 5.42774e-05)
(0.000980957 0 0.000159248)
(0.000957495 0 0.000129024)
(0.000938063 0 7.14795e-05)
(0.000919385 0 0.000110925)
(0.000885125 0 0.000140161)
(0.000849913 0 9.52812e-05)
(0.000806439 0 0.000163722)
(0.000760866 0 0.000213376)
(0.000747485 0 0.00016676)
(0.000740982 0 0.000113778)
(0.000588917 0 0.000361941)
(0.00063651 0 0.000199634)
(0.000328341 0 0.000525833)
(0.000298846 0 0.000547746)
(0.000368718 0 0.000537355)
(0.000313279 0 0.000551611)
(0.000289431 0 0.000554936)
(0.000251662 0 0.000637774)
(7.04194e-05 0 0.000791883)
(5.49612e-06 0 0.000922439)
(7.26592e-05 0 0.00112916)
(1.18337e-05 0 0.00132358)
(-0.000228606 0 0.00144919)
(-0.000462998 0 0.0015475)
(-0.000362224 0 0.00151996)
(-0.000509665 0 0.00120731)
(-1.48135e-06 0 0.000960529)
(-2.73836e-12 0 7.12431e-13)
(-5.50499e-12 0 -4.70619e-14)
(-5.39447e-12 0 -5.31414e-13)
(-5.1132e-12 0 -1.04366e-12)
(-4.75664e-12 0 -1.55232e-12)
(-4.32625e-12 0 -2.00825e-12)
(-3.83359e-12 0 -2.38298e-12)