/*--------------------------------*- C++ -*----------------------------------*\
  =========                 |
  \\      /  F ield         | OpenFOAM: The Open Source CFD Toolbox
   \\    /   O peration     | Website:  https://openfoam.org
    \\  /    A nd           | Version:  6
     \\/     M anipulation  |
\*---------------------------------------------------------------------------*/
FoamFile
{
    version     2.0;
    format      ascii;
    class       volScalarField;
    location    "1800";
    object      T;
}
// * * * * * * * * * * * * * * * * * * * * * * * * * * * * * * * * * * * * * //

dimensions      [0 0 0 1 0 0 0];

internalField   nonuniform List<scalar> 
4800
(
552.518
552.454
552.389
552.321
552.249
552.172
552.09
552.002
551.91
551.813
551.712
551.607
551.499
551.39
551.28
551.17
551.06
550.951
550.843
550.736
550.63
550.525
550.421
550.319
550.219
550.12
550.022
549.927
549.833
549.742
549.653
549.567
549.483
549.401
549.322
549.246
549.172
549.1
549.03
548.961
548.894
548.828
548.763
548.698
548.634
548.57
548.505
548.44
548.375
548.309
548.243
548.175
548.106
548.036
547.963
547.889
547.812
547.732
547.649
547.562
547.472
547.379
547.281
547.18
547.075
546.965
546.852
546.734
546.613
546.487
546.358
546.226
546.091
545.954
545.816
545.676
545.536
545.396
545.257
545.12
544.985
544.852
544.722
544.595
544.469
544.346
544.225
544.105
543.987
543.87
543.754
543.639
543.526
543.413
543.301
543.19
543.079
542.969
542.859
542.75
542.641
542.532
542.424
542.316
542.208
542.1
541.993
541.885
541.778
541.671
541.564
541.457
541.35
541.243
541.137
541.03
540.923
540.817
540.71
540.603
552.518
552.454
552.387
552.318
552.245
552.168
552.086
551.999
551.907
551.81
551.709
551.605
551.498
551.389
551.278
551.168
551.058
550.948
550.84
550.732
550.626
550.521
550.418
550.316
550.215
550.116
550.018
549.923
549.829
549.738
549.649
549.562
549.479
549.397
549.318
549.242
549.168
549.096
549.026
548.957
548.889
548.823
548.757
548.692
548.627
548.563
548.498
548.433
548.368
548.302
548.235
548.167
548.098
548.028
547.955
547.88
547.803
547.723
547.64
547.554
547.464
547.37
547.273
547.171
547.066
546.956
546.843
546.726
546.604
546.48
546.351
546.22
546.085
545.949
545.811
545.672
545.532
545.393
545.255
545.117
544.982
544.85
544.72
544.593
544.467
544.344
544.223
544.103
543.985
543.868
543.753
543.638
543.525
543.412
543.3
543.189
543.078
542.968
542.859
542.749
542.641
542.532
542.424
542.316
542.208
542.1
541.993
541.885
541.778
541.671
541.564
541.457
541.35
541.243
541.137
541.03
540.923
540.817
540.71
540.603
552.517
552.451
552.383
552.313
552.239
552.161
552.08
551.993
551.901
551.805
551.705
551.6
551.493
551.384
551.274
551.163
551.052
550.943
550.834
550.726
550.62
550.515
550.411
550.309
550.208
550.109
550.011
549.915
549.822
549.73
549.641
549.555
549.471
549.39
549.312
549.235
549.161
549.088
549.017
548.948
548.88
548.812
548.746
548.68
548.615
548.549
548.484
548.419
548.353
548.287
548.22
548.152
548.082
548.011
547.939
547.864
547.787
547.707
547.623
547.537
547.447
547.353
547.256
547.154
547.049
546.939
546.826
546.709
546.589
546.465
546.337
546.206
546.073
545.938
545.801
545.663
545.525
545.386
545.248
545.112
544.977
544.845
544.715
544.588
544.463
544.34
544.219
544.1
543.982
543.866
543.75
543.636
543.523
543.41
543.299
543.188
543.077
542.967
542.858
542.748
542.64
542.531
542.423
542.315
542.207
542.1
541.992
541.885
541.778
541.671
541.564
541.457
541.35
541.243
541.137
541.03
540.923
540.817
540.71
540.603
552.516
552.447
552.377
552.305
552.23
552.151
552.069
551.983
551.892
551.797
551.697
551.593
551.486
551.377
551.267
551.156
551.045
550.935
550.826
550.718
550.611
550.506
550.402
550.299
550.198
550.099
550.001
549.905
549.812
549.72
549.632
549.546
549.462
549.381
549.302
549.225
549.15
549.076
549.004
548.934
548.864
548.796
548.729
548.662
548.595
548.529
548.463
548.397
548.331
548.264
548.196
548.128
548.058
547.987
547.914
547.839
547.762
547.682
547.599
547.512
547.423
547.329
547.231
547.13
547.025
546.915
546.802
546.686
546.566
546.443
546.317
546.187
546.055
545.921
545.786
545.649
545.512
545.375
545.238
545.102
544.968
544.836
544.707
544.581
544.457
544.334
544.214
544.095
543.978
543.862
543.747
543.633
543.52
543.408
543.296
543.186
543.075
542.965
542.856
542.747
542.638
542.53
542.422
542.314
542.206
542.099
541.992
541.884
541.777
541.67
541.563
541.456
541.35
541.243
541.136
541.03
540.923
540.816
540.71
540.603
552.514
552.443
552.37
552.295
552.218
552.139
552.057
551.971
551.88
551.785
551.686
551.583
551.477
551.369
551.258
551.147
551.036
550.926
550.816
550.708
550.6
550.494
550.39
550.287
550.186
550.086
549.989
549.893
549.8
549.709
549.62
549.534
549.45
549.368
549.288
549.21
549.134
549.059
548.986
548.914
548.843
548.774
548.705
548.637
548.569
548.502
548.435
548.368
548.301
548.233
548.165
548.096
548.026
547.954
547.881
547.806
547.729
547.649
547.567
547.48
547.391
547.298
547.2
547.099
546.994
546.885
546.773
546.657
546.538
546.415
546.29
546.162
546.032
545.9
545.766
545.631
545.495
545.359
545.224
545.09
544.956
544.825
544.697
544.572
544.448
544.327
544.207
544.089
543.972
543.857
543.742
543.629
543.516
543.404
543.293
543.183
543.073
542.963
542.854
542.745
542.637
542.529
542.421
542.313
542.205
542.098
541.991
541.884
541.777
541.67
541.563
541.456
541.349
541.243
541.136
541.029
540.923
540.816
540.71
540.603
552.512
552.437
552.361
552.284
552.206
552.125
552.042
551.956
551.866
551.772
551.674
551.571
551.466
551.358
551.248
551.137
551.026
550.915
550.805
550.696
550.588
550.482
550.377
550.273
550.172
550.072
549.974
549.879
549.786
549.695
549.606
549.519
549.434
549.351
549.27
549.191
549.113
549.037
548.962
548.889
548.816
548.745
548.675
548.605
548.536
548.468
548.4
548.332
548.264
548.196
548.127
548.057
547.987
547.915
547.842
547.767
547.69
547.61
547.527
547.441
547.352
547.259
547.163
547.062
546.958
546.85
546.738
546.622
546.504
546.383
546.259
546.133
546.004
545.873
545.741
545.608
545.474
545.34
545.206
545.073
544.941
544.812
544.685
544.56
544.437
544.317
544.198
544.081
543.965
543.85
543.736
543.624
543.512
543.4
543.29
543.179
543.07
542.961
542.852
542.743
542.635
542.527
542.419
542.312
542.204
542.097
541.99
541.883
541.776
541.669
541.562
541.456
541.349
541.242
541.136
541.029
540.923
540.816
540.71
540.603
552.511
552.432
552.352
552.273
552.192
552.11
552.026
551.94
551.85
551.756
551.659
551.557
551.453
551.345
551.236
551.125
551.013
550.902
550.792
550.682
550.574
550.467
550.362
550.258
550.156
550.056
549.959
549.863
549.77
549.678
549.589
549.501
549.415
549.33
549.248
549.167
549.087
549.009
548.933
548.858
548.784
548.711
548.639
548.568
548.497
548.428
548.358
548.29
548.221
548.152
548.082
548.012
547.942
547.87
547.796
547.721
547.644
547.564
547.482
547.396
547.307
547.215
547.119
547.019
546.915
546.808
546.697
546.583
546.466
546.346
546.223
546.098
545.971
545.842
545.712
545.58
545.448
545.316
545.184
545.053
544.923
544.795
544.669
544.546
544.425
544.305
544.188
544.071
543.956
543.843
543.73
543.617
543.506
543.395
543.285
543.175
543.066
542.957
542.849
542.741
542.633
542.525
542.417
542.31
542.203
542.096
541.989
541.882
541.775
541.668
541.561
541.455
541.348
541.242
541.135
541.029
540.922
540.816
540.71
540.603
552.509
552.426
552.343
552.261
552.178
552.095
552.01
551.923
551.833
551.739
551.643
551.542
551.438
551.331
551.222
551.111
551
550.888
550.777
550.668
550.559
550.452
550.346
550.242
550.14
550.04
549.942
549.846
549.751
549.659
549.568
549.479
549.392
549.306
549.221
549.138
549.057
548.977
548.899
548.822
548.746
548.671
548.598
548.525
548.453
548.382
548.312
548.242
548.172
548.102
548.032
547.962
547.891
547.818
547.745
547.67
547.592
547.513
547.43
547.345
547.257
547.165
547.07
546.971
546.868
546.762
546.652
546.539
546.423
546.304
546.183
546.06
545.934
545.807
545.679
545.549
545.419
545.289
545.159
545.03
544.902
544.776
544.652
544.53
544.41
544.292
544.176
544.061
543.947
543.834
543.722
543.61
543.5
543.39
543.28
543.171
543.062
542.954
542.845
542.738
542.63
542.522
542.415
542.308
542.201
542.094
541.987
541.88
541.774
541.667
541.561
541.454
541.348
541.241
541.135
541.029
540.922
540.816
540.709
540.603
552.507
552.42
552.334
552.249
552.164
552.079
551.992
551.904
551.814
551.721
551.625
551.525
551.422
551.315
551.207
551.096
550.985
550.873
550.762
550.652
550.543
550.435
550.329
550.225
550.122
550.021
549.923
549.826
549.731
549.637
549.545
549.454
549.365
549.277
549.191
549.106
549.022
548.941
548.86
548.781
548.703
548.627
548.552
548.477
548.404
548.332
548.26
548.189
548.118
548.047
547.977
547.906
547.834
547.762
547.688
547.613
547.536
547.456
547.374
547.289
547.201
547.11
547.016
546.917
546.816
546.711
546.603
546.491
546.376
546.259
546.139
546.018
545.894
545.769
545.642
545.515
545.387
545.259
545.131
545.004
544.878
544.754
544.631
544.512
544.394
544.277
544.162
544.049
543.936
543.824
543.713
543.603
543.493
543.383
543.274
543.166
543.058
542.95
542.842
542.734
542.627
542.52
542.413
542.306
542.199
542.092
541.986
541.879
541.773
541.666
541.56
541.453
541.347
541.241
541.134
541.028
540.922
540.816
540.709
540.603
552.505
552.415
552.326
552.238
552.15
552.062
551.974
551.885
551.794
551.701
551.605
551.506
551.403
551.298
551.19
551.08
550.969
550.857
550.746
550.635
550.526
550.418
550.311
550.206
550.103
550.002
549.902
549.804
549.708
549.612
549.518
549.426
549.334
549.245
549.156
549.069
548.984
548.9
548.817
548.736
548.656
548.578
548.501
548.426
548.351
548.277
548.204
548.132
548.06
547.989
547.917
547.846
547.774
547.701
547.627
547.552
547.475
547.396
547.314
547.23
547.142
547.052
546.958
546.861
546.76
546.656
546.549
546.438
546.325
546.21
546.092
545.972
545.851
545.727
545.603
545.477
545.352
545.226
545.1
544.975
544.852
544.729
544.609
544.491
544.375
544.261
544.148
544.036
543.924
543.814
543.704
543.594
543.485
543.377
543.268
543.16
543.053
542.945
542.838
542.731
542.624
542.517
542.41
542.303
542.197
542.09
541.984
541.878
541.771
541.665
541.559
541.452
541.346
541.24
541.134
541.028
540.922
540.815
540.709
540.603
552.503
552.41
552.317
552.226
552.135
552.045
551.956
551.865
551.773
551.68
551.584
551.486
551.384
551.279
551.172
551.063
550.952
550.84
550.729
550.618
550.508
550.399
550.292
550.186
550.082
549.98
549.879
549.78
549.682
549.585
549.489
549.395
549.301
549.209
549.119
549.03
548.942
548.856
548.771
548.688
548.606
548.526
548.447
548.37
548.294
548.219
548.145
548.071
547.999
547.926
547.854
547.782
547.71
547.637
547.563
547.487
547.41
547.331
547.25
547.166
547.079
546.989
546.896
546.8
546.701
546.598
546.492
546.383
546.272
546.158
546.042
545.924
545.804
545.683
545.561
545.437
545.314
545.19
545.066
544.944
544.822
544.702
544.584
544.469
544.355
544.243
544.132
544.021
543.912
543.802
543.694
543.585
543.477
543.37
543.262
543.155
543.048
542.941
542.834
542.727
542.62
542.514
542.407
542.301
542.195
542.088
541.982
541.876
541.77
541.664
541.558
541.452
541.345
541.239
541.133
541.027
540.921
540.815
540.709
540.603
552.501
552.404
552.309
552.214
552.121
552.028
551.936
551.844
551.751
551.658
551.562
551.464
551.363
551.259
551.153
551.044
550.934
550.822
550.711
550.6
550.489
550.38
550.272
550.165
550.06
549.957
549.855
549.754
549.654
549.556
549.458
549.361
549.266
549.171
549.078
548.987
548.897
548.808
548.721
548.636
548.553
548.47
548.39
548.311
548.234
548.158
548.083
548.008
547.934
547.861
547.788
547.715
547.643
547.569
547.495
547.42
547.343
547.265
547.184
547.1
547.013
546.924
546.832
546.737
546.638
546.537
546.433
546.326
546.216
546.104
545.99
545.874
545.756
545.637
545.516
545.395
545.273
545.151
545.029
544.908
544.789
544.672
544.557
544.445
544.334
544.224
544.115
544.006
543.898
543.791
543.683
543.576
543.469
543.362
543.255
543.149
543.042
542.936
542.829
542.723
542.617
542.511
542.405
542.298
542.192
542.086
541.98
541.874
541.768
541.662
541.556
541.451
541.345
541.239
541.133
541.027
540.921
540.815
540.709
540.603
552.5
552.399
552.3
552.202
552.105
552.01
551.915
551.822
551.728
551.634
551.538
551.441
551.34
551.238
551.132
551.025
550.915
550.804
550.692
550.581
550.47
550.36
550.251
550.143
550.037
549.933
549.829
549.727
549.625
549.525
549.425
549.326
549.228
549.131
549.035
548.941
548.849
548.758
548.669
548.582
548.497
548.413
548.331
548.251
548.172
548.094
548.018
547.942
547.868
547.794
547.72
547.647
547.573
547.5
547.425
547.35
547.273
547.194
547.114
547.031
546.945
546.857
546.766
546.671
546.574
546.474
546.372
546.266
546.159
546.049
545.937
545.822
545.707
545.589
545.471
545.351
545.23
545.109
544.989
544.87
544.753
544.639
544.528
544.419
544.311
544.204
544.098
543.991
543.885
543.778
543.672
543.566
543.46
543.354
543.248
543.142
543.036
542.931
542.825
542.719
542.613
542.507
542.401
542.296
542.19
542.084
541.978
541.873
541.767
541.661
541.555
541.449
541.344
541.238
541.132
541.026
540.92
540.815
540.709
540.603
552.498
552.393
552.29
552.189
552.089
551.991
551.894
551.799
551.704
551.609
551.513
551.416
551.316
551.214
551.11
551.004
550.895
550.784
550.673
550.561
550.45
550.339
550.229
550.121
550.013
549.907
549.802
549.698
549.595
549.492
549.39
549.288
549.188
549.088
548.991
548.894
548.8
548.707
548.616
548.527
548.44
548.354
548.27
548.188
548.108
548.029
547.952
547.875
547.799
547.725
547.65
547.576
547.502
547.429
547.354
547.279
547.202
547.124
547.043
546.961
546.876
546.788
546.698
546.605
546.509
546.411
546.309
546.206
546.1
545.992
545.882
545.77
545.656
545.54
545.423
545.305
545.186
545.066
544.946
544.828
544.713
544.603
544.497
544.392
544.288
544.184
544.08
543.975
543.871
543.766
543.661
543.556
543.451
543.346
543.241
543.136
543.031
542.925
542.82
542.715
542.609
542.504
542.398
542.293
542.187
542.082
541.976
541.871
541.765
541.66
541.554
541.448
541.343
541.237
541.131
541.026
540.92
540.814
540.709
540.603
552.496
552.387
552.28
552.175
552.072
551.971
551.872
551.774
551.678
551.582
551.486
551.389
551.29
551.189
551.086
550.981
550.873
550.763
550.652
550.541
550.429
550.318
550.208
550.098
549.989
549.882
549.775
549.669
549.564
549.459
549.354
549.25
549.147
549.045
548.944
548.846
548.749
548.654
548.561
548.47
548.381
548.294
548.208
548.125
548.043
547.963
547.884
547.807
547.73
547.655
547.579
547.505
547.431
547.356
547.281
547.206
547.129
547.051
546.971
546.889
546.805
546.718
546.629
546.537
546.443
546.346
546.247
546.145
546.041
545.935
545.827
545.717
545.605
545.491
545.376
545.259
545.141
545.021
544.901
544.781
544.667
544.563
544.464
544.364
544.264
544.164
544.062
543.96
543.857
543.754
543.65
543.546
543.442
543.338
543.234
543.129
543.025
542.92
542.815
542.71
542.605
542.5
542.395
542.29
542.185
542.08
541.974
541.869
541.764
541.658
541.553
541.447
541.342
541.236
541.131
541.025
540.92
540.814
540.708
540.603
552.493
552.381
552.27
552.161
552.054
551.95
551.848
551.749
551.651
551.554
551.458
551.361
551.262
551.162
551.06
550.956
550.85
550.741
550.631
550.52
550.409
550.297
550.186
550.076
549.966
549.856
549.748
549.64
549.532
549.425
549.318
549.211
549.106
549.001
548.898
548.796
548.697
548.6
548.506
548.413
548.322
548.233
548.146
548.061
547.977
547.896
547.816
547.737
547.66
547.584
547.508
547.433
547.358
547.283
547.208
547.132
547.056
546.978
546.898
546.817
546.733
546.647
546.559
546.469
546.376
546.281
546.183
546.084
545.981
545.877
545.771
545.664
545.554
545.442
545.329
545.214
545.097
544.978
544.856
544.731
544.608
544.519
544.43
544.337
544.242
544.144
544.045
543.944
543.843
543.742
543.639
543.537
543.434
543.33
543.227
543.123
543.019
542.915
542.811
542.706
542.602
542.497
542.392
542.287
542.182
542.077
541.972
541.867
541.762
541.657
541.552
541.446
541.341
541.235
541.13
541.025
540.919
540.814
540.708
540.603
552.491
552.374
552.258
552.146
552.035
551.928
551.824
551.722
551.622
551.524
551.427
551.33
551.232
551.133
551.032
550.929
550.824
550.717
550.608
550.498
550.387
550.276
550.165
550.053
549.942
549.831
549.721
549.61
549.501
549.391
549.281
549.173
549.064
548.957
548.851
548.748
548.646
548.547
548.45
548.355
548.262
548.172
548.083
547.996
547.912
547.829
547.748
547.668
547.589
547.512
547.436
547.36
547.285
547.21
547.135
547.059
546.982
546.904
546.825
546.744
546.661
546.576
546.489
546.4
546.309
546.216
546.12
546.023
545.923
545.821
545.717
545.611
545.504
545.395
545.283
545.17
545.055
544.938
544.815
544.679
544.518
544.476
544.4
544.313
544.221
544.126
544.029
543.93
543.83
543.73
543.629
543.527
543.425
543.323
543.22
543.117
543.013
542.91
542.806
542.702
542.598
542.493
542.389
542.284
542.18
542.075
541.97
541.865
541.76
541.655
541.55
541.445
541.34
541.235
541.129
541.024
540.919
540.813
540.708
540.603
552.489
552.367
552.247
552.129
552.015
551.905
551.797
551.693
551.591
551.491
551.394
551.296
551.199
551.1
551
550.899
550.796
550.691
550.583
550.475
550.365
550.254
550.143
550.031
549.919
549.806
549.694
549.581
549.469
549.357
549.245
549.134
549.023
548.913
548.805
548.699
548.595
548.493
548.394
548.297
548.203
548.111
548.02
547.932
547.846
547.762
547.68
547.599
547.519
547.441
547.364
547.288
547.212
547.137
547.061
546.985
546.909
546.831
546.752
546.672
546.59
546.506
546.42
546.333
546.243
546.151
546.058
545.962
545.864
545.765
545.663
545.56
545.455
545.348
545.24
545.13
545.018
544.904
544.787
544.668
544.55
544.466
544.382
544.295
544.203
544.109
544.014
543.917
543.818
543.719
543.619
543.518
543.417
543.315
543.213
543.11
543.008
542.905
542.801
542.698
542.594
542.49
542.386
542.282
542.177
542.073
541.968
541.864
541.759
541.654
541.549
541.444
541.339
541.234
541.129
541.024
540.918
540.813
540.708
540.603
552.486
552.359
552.234
552.112
551.994
551.879
551.769
551.662
551.558
551.456
551.357
551.259
551.162
551.064
550.966
550.866
550.764
550.661
550.556
550.449
550.341
550.231
550.12
550.008
549.895
549.781
549.667
549.553
549.438
549.324
549.209
549.095
548.982
548.869
548.759
548.65
548.544
548.44
548.339
548.24
548.144
548.05
547.958
547.869
547.781
547.696
547.612
547.53
547.45
547.371
547.293
547.216
547.14
547.064
546.989
546.913
546.836
546.758
546.68
546.6
546.519
546.436
546.352
546.266
546.178
546.088
545.996
545.903
545.808
545.711
545.612
545.511
545.409
545.305
545.199
545.092
544.984
544.875
544.765
544.655
544.549
544.457
544.369
544.279
544.188
544.095
544
543.904
543.807
543.708
543.609
543.509
543.409
543.308
543.206
543.104
543.002
542.9
542.797
542.694
542.59
542.487
542.383
542.279
542.175
542.071
541.966
541.862
541.757
541.653
541.548
541.443
541.338
541.233
541.128
541.023
540.918
540.813
540.708
540.603
552.483
552.351
552.221
552.094
551.971
551.852
551.738
551.628
551.522
551.419
551.318
551.22
551.122
551.025
550.927
550.829
550.729
550.628
550.525
550.42
550.314
550.205
550.095
549.983
549.87
549.755
549.64
549.524
549.408
549.291
549.174
549.058
548.942
548.827
548.714
548.603
548.495
548.389
548.285
548.184
548.086
547.991
547.898
547.807
547.718
547.631
547.546
547.463
547.382
547.302
547.224
547.146
547.069
546.993
546.917
546.841
546.764
546.687
546.609
546.53
546.45
546.368
546.285
546.2
546.114
546.027
545.937
545.846
545.753
545.658
545.562
545.464
545.364
545.263
545.161
545.058
544.953
544.849
544.743
544.639
544.533
544.444
544.356
544.266
544.175
544.082
543.988
543.893
543.796
543.699
543.6
543.501
543.401
543.301
543.2
543.099
542.997
542.895
542.792
542.69
542.587
542.483
542.38
542.276
542.172
542.068
541.964
541.86
541.756
541.651
541.547
541.442
541.337
541.232
541.127
541.023
540.918
540.813
540.708
540.603
552.481
552.343
552.207
552.074
551.946
551.823
551.705
551.592
551.484
551.379
551.277
551.177
551.079
550.982
550.885
550.788
550.69
550.591
550.49
550.388
550.283
550.177
550.068
549.957
549.844
549.729
549.613
549.495
549.377
549.259
549.14
549.021
548.903
548.787
548.672
548.559
548.448
548.34
548.234
548.131
548.03
547.933
547.838
547.745
547.655
547.567
547.482
547.398
547.316
547.235
547.156
547.078
547.001
546.924
546.848
546.772
546.695
546.618
546.54
546.462
546.382
546.302
546.22
546.137
546.053
545.967
545.88
545.791
545.701
545.609
545.516
545.42
545.323
545.225
545.126
545.026
544.926
544.825
544.724
544.626
544.498
544.427
544.343
544.254
544.164
544.071
543.978
543.883
543.787
543.69
543.592
543.494
543.394
543.295
543.194
543.093
542.992
542.89
542.788
542.686
542.583
542.48
542.377
542.274
542.17
542.066
541.963
541.858
541.754
541.65
541.545
541.441
541.336
541.232
541.127
541.022
540.917
540.812
540.707
540.602
552.478
552.334
552.192
552.054
551.92
551.793
551.671
551.555
551.443
551.336
551.233
551.132
551.034
550.936
550.84
550.744
550.648
550.551
550.452
550.352
550.249
550.145
550.038
549.928
549.816
549.702
549.585
549.467
549.348
549.228
549.107
548.987
548.867
548.748
548.631
548.516
548.403
548.292
548.184
548.079
547.977
547.877
547.78
547.686
547.595
547.506
547.419
547.335
547.252
547.171
547.091
547.013
546.935
546.858
546.782
546.705
546.628
546.551
546.474
546.396
546.317
546.238
546.158
546.077
545.994
545.911
545.826
545.74
545.653
545.563
545.473
545.38
545.286
545.191
545.095
544.998
544.901
544.804
544.706
544.609
544.509
544.422
544.334
544.245
544.154
544.061
543.968
543.874
543.778
543.682
543.585
543.487
543.388
543.289
543.189
543.088
542.988
542.886
542.785
542.682
542.58
542.477
542.375
542.271
542.168
542.064
541.961
541.857
541.753
541.649
541.544
541.44
541.335
541.231
541.126
541.022
540.917
540.812
540.707
540.602
552.474
552.324
552.176
552.033
551.894
551.762
551.636
551.517
551.402
551.293
551.188
551.086
550.987
550.889
550.793
550.698
550.603
550.507
550.411
550.313
550.213
550.111
550.006
549.898
549.787
549.674
549.558
549.44
549.32
549.199
549.077
548.954
548.832
548.712
548.592
548.475
548.359
548.247
548.136
548.029
547.925
547.823
547.725
547.629
547.536
547.447
547.359
547.274
547.191
547.11
547.03
546.951
546.873
546.796
546.719
546.642
546.565
546.488
546.41
546.333
546.255
546.177
546.099
546.019
545.939
545.858
545.776
545.693
545.608
545.522
545.434
545.344
545.253
545.161
545.067
544.974
544.88
544.785
544.691
544.598
544.505
544.416
544.326
544.236
544.145
544.053
543.96
543.866
543.771
543.675
543.578
543.48
543.382
543.283
543.184
543.084
542.983
542.882
542.781
542.679
542.577
542.475
542.372
542.269
542.166
542.063
541.959
541.855
541.752
541.647
541.543
541.439
541.335
541.23
541.126
541.021
540.916
540.812
540.707
540.602
552.471
552.314
552.16
552.011
551.868
551.732
551.602
551.48
551.363
551.252
551.144
551.041
550.94
550.842
550.745
550.65
550.556
550.462
550.368
550.273
550.176
550.076
549.973
549.867
549.758
549.645
549.53
549.412
549.291
549.17
549.047
548.923
548.8
548.677
548.556
548.436
548.319
548.204
548.091
547.982
547.875
547.772
547.671
547.574
547.481
547.39
547.302
547.217
547.134
547.053
546.973
546.894
546.816
546.738
546.66
546.583
546.505
546.428
546.351
546.274
546.197
546.12
546.043
545.966
545.888
545.81
545.731
545.65
545.569
545.485
545.4
545.313
545.225
545.135
545.044
544.952
544.86
544.769
544.678
544.588
544.498
544.409
544.319
544.229
544.138
544.046
543.953
543.859
543.764
543.668
543.572
543.475
543.377
543.278
543.179
543.08
542.979
542.879
542.778
542.676
542.574
542.472
542.37
542.267
542.164
542.061
541.958
541.854
541.75
541.646
541.542
541.438
541.334
541.23
541.125
541.021
540.916
540.812
540.707
540.602
552.467
552.304
552.145
551.991
551.844
551.705
551.572
551.447
551.328
551.214
551.105
550.999
550.896
550.796
550.699
550.603
550.51
550.418
550.326
550.233
550.138
550.041
549.94
549.835
549.727
549.616
549.5
549.382
549.262
549.139
549.016
548.892
548.767
548.643
548.52
548.399
548.28
548.162
548.048
547.936
547.827
547.722
547.62
547.522
547.427
547.336
547.248
547.163
547.081
547
546.92
546.841
546.762
546.684
546.606
546.528
546.45
546.373
546.296
546.22
546.144
546.069
545.994
545.919
545.844
545.768
545.692
545.615
545.536
545.455
545.373
545.288
545.201
545.112
545.023
544.932
544.842
544.753
544.665
544.578
544.491
544.402
544.313
544.223
544.132
544.04
543.947
543.853
543.758
543.663
543.567
543.47
543.372
543.274
543.175
543.076
542.976
542.876
542.775
542.674
542.572
542.47
542.368
542.265
542.162
542.059
541.956
541.853
541.749
541.645
541.542
541.437
541.333
541.229
541.125
541.02
540.916
540.811
540.707
540.602
552.465
552.296
552.132
551.975
551.824
551.682
551.548
551.421
551.3
551.184
551.072
550.963
550.858
550.755
550.656
550.56
550.467
550.375
550.285
550.195
550.102
550.007
549.907
549.804
549.696
549.584
549.468
549.35
549.229
549.108
548.985
548.861
548.736
548.611
548.487
548.364
548.243
548.124
548.006
547.892
547.781
547.674
547.571
547.472
547.377
547.286
547.198
547.114
547.032
546.951
546.871
546.791
546.712
546.633
546.554
546.477
546.401
546.325
546.25
546.174
546.098
546.024
545.951
545.878
545.807
545.734
545.662
545.588
545.512
545.434
545.353
545.27
545.183
545.094
545.004
544.913
544.824
544.737
544.652
544.568
544.484
544.397
544.308
544.218
544.127
544.034
543.941
543.848
543.753
543.658
543.562
543.465
543.368
543.27
543.172
543.072
542.973
542.873
542.772
542.671
542.57
542.468
542.366
542.264
542.161
542.058
541.955
541.852
541.748
541.645
541.541
541.437
541.333
541.229
541.124
541.02
540.916
540.811
540.707
540.602
552.463
552.29
552.123
551.962
551.81
551.667
551.532
551.404
551.282
551.163
551.048
550.935
550.826
550.722
550.621
550.523
550.429
550.337
550.248
550.158
550.068
549.974
549.875
549.771
549.66
549.545
549.428
549.31
549.193
549.076
548.956
548.834
548.709
548.584
548.458
548.331
548.206
548.084
547.964
547.847
547.734
547.627
547.525
547.427
547.333
547.242
547.155
547.07
546.988
546.906
546.823
546.741
546.659
546.579
546.503
546.43
546.36
546.289
546.215
546.139
546.061
545.986
545.915
545.847
545.779
545.711
545.643
545.573
545.501
545.425
545.345
545.262
545.174
545.082
544.987
544.892
544.801
544.716
544.636
544.558
544.478
544.393
544.304
544.214
544.122
544.03
543.937
543.843
543.749
543.654
543.558
543.462
543.365
543.267
543.169
543.07
542.97
542.87
542.77
542.669
542.568
542.466
542.364
542.262
542.16
542.057
541.954
541.851
541.747
541.644
541.54
541.436
541.332
541.228
541.124
541.02
540.915
540.811
540.707
540.602
552.461
552.286
552.116
551.954
551.802
551.659
551.524
551.394
551.27
551.148
551.03
550.916
550.804
550.697
550.594
550.494
550.398
550.305
550.215
550.125
550.034
549.942
549.843
549.735
549.618
549.495
549.375
549.261
549.154
549.049
548.939
548.819
548.693
548.565
548.434
548.297
548.16
548.031
547.908
547.791
547.681
547.58
547.486
547.395
547.308
547.219
547.128
547.038
546.951
546.862
546.77
546.68
546.594
546.513
546.446
546.387
546.333
546.272
546.196
546.115
546.031
545.954
545.888
545.825
545.763
545.701
545.64
545.575
545.506
545.431
545.351
545.269
545.18
545.081
544.977
544.868
544.772
544.691
544.614
544.548
544.477
544.391
544.302
544.211
544.119
544.026
543.933
543.84
543.745
543.65
543.555
543.459
543.362
543.264
543.166
543.067
542.968
542.868
542.768
542.667
542.566
542.465
542.363
542.261
542.159
542.056
541.953
541.85
541.747
541.643
541.54
541.436
541.332
541.228
541.124
541.019
540.915
540.811
540.707
540.602
552.461
552.284
552.113
551.951
551.797
551.654
551.514
551.378
551.248
551.123
551.007
550.9
550.792
550.688
550.584
550.478
550.375
550.277
550.183
550.09
550.001
549.913
549.815
549.697
549.565
549.423
549.298
549.199
549.119
549.039
548.939
548.818
548.687
548.557
548.417
548.251
548.078
547.93
547.804
547.695
547.605
547.533
547.464
547.394
547.329
547.243
547.138
547.027
546.917
546.809
546.693
546.591
546.51
546.427
546.389
546.357
546.322
546.271
546.175
546.089
545.998
545.918
545.872
545.821
545.758
545.7
545.654
545.593
545.522
545.443
545.359
545.287
545.204
545.109
544.998
544.853
544.75
544.676
544.586
544.547
544.49
544.394
544.301
544.208
544.116
544.023
543.93
543.837
543.743
543.648
543.552
543.456
543.359
543.262
543.164
543.065
542.966
542.867
542.766
542.666
542.565
542.464
542.362
542.26
542.158
542.055
541.952
541.849
541.746
541.643
541.539
541.435
541.331
541.227
541.123
541.019
540.915
540.811
540.706
540.602
552.464
552.288
552.117
551.952
551.79
551.642
551.479
551.32
551.182
551.05
550.943
550.859
550.773
550.703
550.603
550.483
550.351
550.232
550.137
550.042
549.966
549.897
549.795
549.658
549.509
549.305
549.194
549.14
549.116
549.063
548.948
548.809
548.674
548.564
548.402
548.177
547.911
547.703
547.576
547.498
547.487
547.504
547.486
547.455
547.435
547.35
547.207
547.043
546.864
546.718
546.565
546.46
546.459
546.345
546.396
546.376
546.278
546.234
546.062
546.011
545.938
545.871
545.924
545.864
545.735
545.679
545.708
545.62
545.485
545.414
545.339
545.285
545.218
545.18
545.104
544.894
544.864
544.674
544.515
544.501
544.474
544.395
544.299
544.206
544.113
544.021
543.928
543.834
543.74
543.646
543.55
543.454
543.357
543.26
543.162
543.064
542.965
542.865
542.765
542.665
542.564
542.463
542.361
542.259
542.157
542.054
541.952
541.849
541.746
541.642
541.539
541.435
541.331
541.227
541.123
541.019
540.915
540.811
540.706
540.602
552.472
552.294
552.127
551.952
551.754
551.611
551.366
551.163
551.052
550.898
550.783
550.69
550.658
550.768
550.675
550.582
550.343
550.101
550.045
549.976
549.962
549.914
549.741
549.6
549.534
549.092
549.107
549.191
549.241
549.223
548.939
548.797
548.643
548.577
548.304
547.997
547.59
547.27
547.169
547.133
547.307
547.519
547.636
547.672
547.64
547.53
547.321
547.164
546.781
546.504
546.468
546.359
546.602
546.34
546.569
546.696
546.037
545.96
545.861
545.813
545.725
545.802
546.223
546.067
545.637
545.606
546.041
545.622
545.255
545.2
545.396
545.224
545.238
545.138
545.054
545.063
545.749
544.894
544.392
544.45
544.446
544.417
544.296
544.201
544.11
544.018
543.926
543.833
543.739
543.644
543.549
543.453
543.356
543.259
543.161
543.063
542.964
542.864
542.765
542.664
542.563
542.462
542.361
542.259
542.157
542.054
541.951
541.848
541.745
541.642
541.538
541.435
541.331
541.227
541.123
541.019
540.915
540.811
540.706
540.602