/*--------------------------------*- C++ -*----------------------------------*\
  =========                 |
  \\      /  F ield         | OpenFOAM: The Open Source CFD Toolbox
   \\    /   O peration     | Website:  https://openfoam.org
    \\  /    A nd           | Version:  6
     \\/     M anipulation  |
\*---------------------------------------------------------------------------*/
FoamFile
{
    version     2.0;
    format      ascii;
    class       volVectorField;
    location    "1800";
    object      U;
}
// * * * * * * * * * * * * * * * * * * * * * * * * * * * * * * * * * * * * * //

dimensions      [0 1 -1 0 0 0 0];

internalField   nonuniform List<vector> 
4800
(
(-0.000218422 0 -0.000186402)
(0.000391975 0 -1.93749e-05)
(0.000482589 0 -0.000169334)
(0.000599007 0 -0.000157418)
(0.000754321 0 -0.000106192)
(0.000812181 0 1.38236e-05)
(0.000769683 0 2.95079e-05)
(0.000695502 0 3.17648e-05)
(0.000621456 0 3.56654e-05)
(0.000544825 0 1.66335e-05)
(0.00044368 0 -2.99903e-05)
(0.000296056 0 3.24226e-05)
(0.000216492 0 3.72897e-07)
(0.00021248 0 -3.99407e-05)
(0.000201494 0 -3.0204e-05)
(0.000172264 0 8.88097e-06)
(0.000129448 0 -0.000103368)
(0.000174384 0 -1.04127e-05)
(0.000190608 0 3.05024e-05)
(0.000187915 0 3.82725e-05)
(0.000179352 0 3.41849e-05)
(0.000165162 0 5.69388e-06)
(0.000158815 0 -2.15274e-05)
(0.000161908 0 -2.60434e-05)
(0.000160548 0 -3.4638e-05)
(0.000158376 0 -3.18948e-05)
(0.000153473 0 -4.24495e-05)
(0.000153865 0 -3.19695e-05)
(0.000149592 0 -2.65067e-05)
(0.000140954 0 -2.37047e-05)
(0.00013335 0 -4.22097e-06)
(0.000121128 0 4.32841e-06)
(0.000106066 0 2.5792e-06)
(9.9658e-05 0 6.38137e-07)
(9.5726e-05 0 -4.10539e-07)
(0.000103132 0 -3.48499e-06)
(0.000115301 0 -3.7055e-06)
(0.000131923 0 -2.07705e-05)
(0.000188395 0 -1.73957e-05)
(0.000278648 0 -1.8839e-05)
(0.000369611 0 -9.67383e-05)
(0.000456185 0 1.03445e-05)
(0.000487859 0 -0.000214352)
(0.000531258 0 -2.36995e-05)
(0.000587872 0 -0.00012124)
(0.000675222 0 -0.000189078)
(0.000755896 0 -0.000135886)
(0.000747772 0 -9.5808e-05)
(0.00075648 0 -7.80826e-05)
(0.000788137 0 -6.69611e-05)
(0.000831609 0 -5.70081e-05)
(0.000876778 0 -8.67827e-05)
(0.00090348 0 -5.23771e-05)
(0.000909996 0 -3.64201e-05)
(0.000922461 0 -4.09561e-05)
(0.000945911 0 -2.11591e-05)
(0.000945933 0 -1.448e-05)
(0.00093509 0 3.8108e-06)
(0.000916804 0 -1.03038e-05)
(0.000905408 0 1.08683e-05)
(0.000895405 0 -2.19455e-05)
(0.000883403 0 9.56678e-06)
(0.000868467 0 -2.40669e-05)
(0.000847998 0 1.18045e-05)
(0.000821664 0 6.93216e-07)
(0.000795209 0 2.03094e-05)
(0.000766682 0 4.05143e-06)
(0.000728996 0 -2.32373e-06)
(0.000677337 0 3.12344e-05)
(0.000620167 0 -2.12813e-05)
(0.000548809 0 0.000101664)
(0.000478732 0 -3.38731e-05)
(0.000416807 0 5.67971e-06)
(0.00035852 0 1.12481e-05)
(0.000307884 0 -7.50507e-05)
(0.000255177 0 8.93076e-05)
(0.000196693 0 -7.22548e-05)
(0.000101746 0 -4.16881e-05)
(-0.00012797 0 -9.96494e-05)
(4.4791e-05 0 -0.000120527)
(-6.20971e-08 0 -4.39362e-05)
(-3.87857e-13 0 -1.36095e-14)
(-7.84737e-13 0 -9.65556e-15)
(-7.62824e-13 0 -1.19584e-14)
(-7.33877e-13 0 -1.6736e-14)
(-6.95283e-13 0 -2.20091e-14)
(-6.46597e-13 0 -2.69451e-14)
(-5.88846e-13 0 -3.11411e-14)
(-5.23722e-13 0 -3.44027e-14)
(-4.53182e-13 0 -3.6642e-14)
(-3.7922e-13 0 -3.78457e-14)
(-3.03745e-13 0 -3.80658e-14)
(-2.28531e-13 0 -3.74049e-14)
(-1.552e-13 0 -3.59897e-14)
(-8.51834e-14 0 -3.39481e-14)
(-1.9669e-14 0 -3.14057e-14)
(4.04366e-14 0 -2.84924e-14)
(9.4487e-14 0 -2.5336e-14)
(1.42057e-13 0 -2.20462e-14)
(1.82923e-13 0 -1.87045e-14)
(2.1706e-13 0 -1.53731e-14)
(2.4461e-13 0 -1.2108e-14)
(2.65829e-13 0 -8.96317e-15)
(2.81035e-13 0 -5.98274e-15)
(2.9058e-13 0 -3.19329e-15)
(2.94843e-13 0 -6.06478e-16)
(2.9422e-13 0 1.77245e-15)
(2.89103e-13 0 3.93854e-15)
(2.79863e-13 0 5.88634e-15)
(2.66854e-13 0 7.61285e-15)
(2.50426e-13 0 9.119e-15)
(2.30949e-13 0 1.04101e-14)
(2.08821e-13 0 1.14958e-14)
(1.84471e-13 0 1.23913e-14)
(1.58348e-13 0 1.31182e-14)
(1.30902e-13 0 1.37039e-14)
(1.02544e-13 0 1.41764e-14)
(7.36145e-14 0 1.45583e-14)
(4.43446e-14 0 1.48638e-14)
(1.48228e-14 0 1.51163e-14)
(-0.000424987 0 -0.000397572)
(0.00059608 0 -8.3383e-05)
(0.000574262 0 -0.000240401)
(0.000654755 0 -0.000224235)
(0.000790113 0 -9.17603e-05)
(0.000806096 0 5.66209e-05)
(0.000770558 0 6.4443e-05)
(0.000713228 0 7.75217e-05)
(0.000632942 0 0.000114784)
(0.000541436 0 0.000131133)
(0.000468351 0 0.000130127)
(0.000410802 0 0.000105769)
(0.000370528 0 8.47538e-05)
(0.000304368 0 8.37019e-05)
(0.000212743 0 5.28959e-05)
(0.000167575 0 3.03483e-05)
(0.000155095 0 2.1044e-05)
(0.000136965 0 -1.34879e-05)
(0.000118422 0 -3.06424e-05)
(0.000120306 0 -2.96038e-05)
(0.000131767 0 -2.37213e-05)
(0.000151829 0 -6.2894e-08)
(0.000153079 0 1.32806e-05)
(0.000148053 0 1.80287e-05)
(0.000137502 0 1.92649e-05)
(0.000126766 0 2.29769e-05)
(0.000119559 0 2.9959e-05)
(0.000116654 0 2.46179e-05)
(9.80688e-05 0 2.10628e-05)
(9.301e-05 0 1.97504e-05)
(5.07747e-05 0 3.95864e-05)
(6.24738e-06 0 1.74009e-05)
(1.37352e-05 0 1.29024e-05)
(2.00305e-05 0 8.07248e-06)
(2.04331e-05 0 3.3751e-06)
(6.95836e-05 0 -1.58754e-05)
(0.000127352 0 9.11241e-06)
(0.000147998 0 -0.00010739)
(0.000218226 0 -9.39421e-05)
(0.000286025 0 -0.000106857)
(0.000361012 0 -0.000114173)
(0.000452045 0 3.49606e-05)
(0.000496995 0 -0.00022431)
(0.00059011 0 0.000230745)
(0.000606365 0 -0.000485507)
(0.000715011 0 0.000320245)
(0.000769993 0 0.000129004)
(0.000787949 0 3.81369e-05)
(0.000795855 0 -7.01586e-06)
(0.00082316 0 -1.56137e-06)
(0.000877063 0 9.47521e-06)
(0.000917438 0 -1.33063e-05)
(0.000912899 0 -1.86276e-05)
(0.000909339 0 -4.87145e-06)
(0.000914785 0 4.76958e-07)
(0.000926128 0 1.84273e-05)
(0.000925483 0 2.19417e-05)
(0.000918828 0 2.09147e-05)
(0.000903338 0 1.73009e-05)
(0.000883788 0 3.07626e-05)
(0.000862652 0 2.39892e-05)
(0.000835659 0 1.75205e-05)
(0.000809287 0 3.54784e-05)
(0.000788941 0 2.27148e-05)
(0.000754412 0 2.33949e-05)
(0.000713647 0 6.26795e-05)
(0.000692569 0 5.94093e-05)
(0.000673453 0 6.45634e-05)
(0.000640192 0 6.94804e-05)
(0.000585227 0 0.00010305)
(0.00053169 0 6.21691e-05)
(0.000459699 0 0.000121158)
(0.000390881 0 0.000148038)
(0.000354237 0 7.8833e-05)
(0.000293545 0 0.00012101)
(0.000260398 0 4.94089e-05)
(0.000211636 0 0.000121183)
(0.000161907 0 0.000128661)
(0.000145058 0 9.42999e-05)
(7.96993e-05 0 9.21943e-05)
(-3.91402e-08 0 4.25415e-05)
(-3.92935e-13 0 -2.92676e-14)
(-7.82763e-13 0 -2.32061e-14)
(-7.69689e-13 0 -3.37725e-14)
(-7.43873e-13 0 -4.97852e-14)
(-7.05492e-13 0 -6.64978e-14)
(-6.55729e-13 0 -8.17941e-14)
(-5.96303e-13 0 -9.46062e-14)
(-5.29223e-13 0 -1.04425e-13)
(-4.56625e-13 0 -1.11057e-13)
(-3.80644e-13 0 -1.14532e-13)
(-3.03304e-13 0 -1.15045e-13)
(-2.26455e-13 0 -1.12916e-13)
(-1.51743e-13 0 -1.08525e-13)
(-8.05994e-14 0 -1.02269e-13)
(-1.42134e-14 0 -9.45411e-14)
(4.65063e-14 0 -8.57232e-14)
(1.00933e-13 0 -7.61711e-14)
(1.48688e-13 0 -6.61944e-14)
(1.89596e-13 0 -5.60482e-14)
(2.23657e-13 0 -4.59435e-14)
(2.5102e-13 0 -3.60623e-14)
(2.71955e-13 0 -2.65599e-14)
(2.86805e-13 0 -1.75584e-14)
(2.95956e-13 0 -9.14152e-15)
(2.99809e-13 0 -1.36185e-15)
(2.98765e-13 0 5.74936e-15)
(2.93217e-13 0 1.21752e-14)
(2.83537e-13 0 1.79121e-14)
(2.70086e-13 0 2.29715e-14)
(2.53223e-13 0 2.73784e-14)
(2.33326e-13 0 3.11711e-14)
(2.10802e-13 0 3.43984e-14)
(1.86093e-13 0 3.71183e-14)
(1.59661e-13 0 3.93932e-14)
(1.3196e-13 0 4.12821e-14)
(1.03398e-13 0 4.28298e-14)
(7.43019e-14 0 4.40572e-14)
(4.49025e-14 0 4.49583e-14)
(1.50753e-14 0 4.55082e-14)
(0.000381523 0 -0.00058148)
(0.000307676 0 -0.000586587)
(0.00039208 0 -0.000462782)
(0.000561319 0 -0.000279822)
(0.000665215 0 -0.000237478)
(0.000725929 0 7.21711e-05)
(0.000703301 0 0.000103536)
(0.000668806 0 0.000171042)
(0.000621515 0 0.000215359)
(0.000567523 0 0.000174898)
(0.000495142 0 0.000178429)
(0.000419013 0 0.000201862)
(0.000350034 0 0.000178746)
(0.000258474 0 0.000159799)
(0.000190481 0 0.000122073)
(0.000150024 0 7.14379e-05)
(0.000115057 0 1.00375e-05)
(0.000104904 0 -1.48585e-05)
(0.000101329 0 -8.67563e-07)
(9.25808e-05 0 5.13488e-06)
(9.02719e-05 0 2.16897e-06)
(9.3774e-05 0 8.80392e-07)
(9.30147e-05 0 1.00165e-06)
(9.54469e-05 0 6.78596e-06)
(9.14832e-05 0 9.37813e-06)
(7.96447e-05 0 1.39519e-05)
(6.50217e-05 0 -8.75985e-07)
(3.52924e-05 0 3.04208e-05)
(-1.22464e-05 0 4.46287e-05)
(-3.00809e-05 0 6.35637e-05)
(-5.11734e-05 0 3.95516e-05)
(-4.82722e-05 0 2.83203e-05)
(-2.41509e-05 0 3.46305e-05)
(1.2375e-06 0 2.2562e-05)
(7.58883e-05 0 1.33169e-05)
(4.6054e-05 0 -0.000237223)
(0.000237341 0 -7.94794e-05)
(0.000291417 0 -0.000100347)
(0.000334602 0 -0.000179442)
(0.000359204 0 -0.000276731)
(0.000449963 0 -0.000213044)
(0.000493122 0 -0.000211191)
(0.000553153 0 -0.000160982)
(0.00061145 0 -0.000143901)
(0.000678436 0 -0.000114727)
(0.000712339 0 -0.000181296)
(0.000754427 0 -0.000185641)
(0.000798158 0 -9.1106e-05)
(0.000807267 0 -0.00018136)
(0.000848052 0 -0.000100008)
(0.000880422 0 -5.48912e-05)
(0.000903762 0 -7.33351e-05)
(0.000908267 0 -6.10812e-05)
(0.000905918 0 -5.9532e-05)
(0.000907759 0 -5.03597e-05)
(0.000906996 0 -3.1977e-05)
(0.000897566 0 -3.84648e-06)
(0.000885992 0 3.14404e-05)
(0.000877538 0 3.34706e-05)
(0.000859031 0 4.67174e-05)
(0.000827663 0 6.47728e-05)
(0.000786857 0 5.49356e-05)
(0.000740042 0 3.99553e-05)
(0.000701658 0 0.000107606)
(0.000679462 0 3.11285e-05)
(0.00064017 0 3.18379e-05)
(0.000591646 0 7.05363e-05)
(0.000565022 0 0.000122283)
(0.000558014 0 9.26444e-05)
(0.000526052 0 0.000138821)
(0.000487458 0 0.000145091)
(0.000428973 0 0.000172345)
(0.000365407 0 0.000180853)
(0.000337141 0 0.000123887)
(0.000291067 0 0.00014632)
(0.000295432 0 5.10391e-05)
(0.000227115 0 0.000139487)
(0.000188952 0 0.000140469)
(0.000131886 0 0.000130194)
(9.17674e-05 0 0.000102004)
(3.28765e-09 0 6.17083e-05)
(-4.037e-13 0 7.38375e-15)
(-7.88596e-13 0 -2.01395e-14)
(-7.88977e-13 0 -5.04518e-14)
(-7.66498e-13 0 -8.2281e-14)
(-7.27292e-13 0 -1.12607e-13)
(-6.74706e-13 0 -1.39336e-13)
(-6.11476e-13 0 -1.61238e-13)
(-5.40173e-13 0 -1.77726e-13)
(-4.63289e-13 0 -1.88648e-13)
(-3.83208e-13 0 -1.94161e-13)
(-3.02128e-13 0 -1.94664e-13)
(-2.2201e-13 0 -1.90722e-13)
(-1.44553e-13 0 -1.82991e-13)
(-7.11998e-14 0 -1.72154e-13)
(-3.12343e-15 0 -1.58878e-13)
(5.88065e-14 0 -1.43804e-13)
(1.14016e-13 0 -1.27518e-13)
(1.6218e-13 0 -1.10542e-13)
(2.03174e-13 0 -9.33155e-14)
(2.37046e-13 0 -7.62072e-14)
(2.63993e-13 0 -5.95223e-14)
(2.84333e-13 0 -4.3512e-14)
(2.98454e-13 0 -2.83753e-14)
(3.06777e-13 0 -1.42601e-14)
(3.09734e-13 0 -1.26758e-15)
(3.07757e-13 0 1.0543e-14)
(3.01266e-13 0 2.11504e-14)
(2.90659e-13 0 3.05685e-14)
(2.7632e-13 0 3.88431e-14)
(2.58626e-13 0 4.60465e-14)
(2.37969e-13 0 5.22714e-14)
(2.14768e-13 0 5.76219e-14)
(1.89465e-13 0 6.22023e-14)
(1.62512e-13 0 6.61032e-14)
(1.34338e-13 0 6.9387e-14)
(1.05319e-13 0 7.20791e-14)
(7.5743e-14 0 7.41649e-14)
(4.57955e-14 0 7.55959e-14)
(1.53727e-14 0 7.62939e-14)
(-0.00029139 0 -0.000805901)
(0.000257927 0 -0.000707878)
(0.000342091 0 -0.000543049)
(0.000494579 0 -0.000366086)
(0.000534856 0 -0.000228546)
(0.000568068 0 7.20008e-05)
(0.000570478 0 9.27013e-05)
(0.000590544 0 0.000168442)
(0.000573782 0 0.000238168)
(0.000525435 0 0.000273999)
(0.000447005 0 0.000283262)
(0.00037828 0 0.000255576)
(0.000323324 0 0.000222369)
(0.000227319 0 0.000226335)
(0.00020895 0 0.00014814)
(0.000149917 0 9.51167e-05)
(0.000105288 0 3.94651e-05)
(9.27004e-05 0 4.61033e-06)
(8.53673e-05 0 2.01245e-06)
(6.8486e-05 0 1.68381e-05)
(6.1593e-05 0 3.2396e-06)
(5.64868e-05 0 -2.84682e-06)
(4.9987e-05 0 -2.07387e-06)
(5.71893e-05 0 3.97456e-06)
(6.0355e-05 0 1.89461e-05)
(5.43129e-05 0 2.81761e-05)
(4.24682e-06 0 5.04117e-05)
(-6.36652e-06 0 5.63077e-05)
(-4.31585e-05 0 5.94774e-05)
(-5.90895e-05 0 6.74469e-05)
(-7.83622e-05 0 5.09623e-05)
(-4.14781e-05 0 2.2538e-05)
(7.6993e-06 0 -2.23138e-05)
(8.1213e-05 0 -0.000117481)
(0.000209913 0 -4.3638e-05)
(0.000149882 0 -0.000240194)
(0.000266295 0 -0.000218695)
(0.000375935 0 -8.96299e-05)
(0.000426827 0 -0.00014451)
(0.000453108 0 -0.000262784)
(0.000514267 0 -0.000267708)
(0.000569515 0 -0.000205607)
(0.000595256 0 -0.000211076)
(0.00063621 0 -0.000196268)
(0.000701136 0 -0.00015662)
(0.000720413 0 -0.000301576)
(0.000777683 0 -0.000119026)
(0.000784781 0 -0.000100635)
(0.000810242 0 -3.80642e-05)
(0.000837189 0 -8.29819e-05)
(0.00083504 0 -0.000174659)
(0.000850998 0 -0.000116264)
(0.000863983 0 -3.07102e-05)
(0.000862002 0 -6.42654e-06)
(0.000865408 0 6.59675e-06)
(0.000869097 0 3.71307e-05)
(0.000857654 0 4.27032e-05)
(0.000832977 0 2.09996e-05)
(0.000814904 0 8.52407e-05)
(0.000807322 0 6.15636e-05)
(0.000781232 0 9.56347e-05)
(0.00074397 0 0.000106089)
(0.000702201 0 9.94517e-05)
(0.000636268 0 0.000118499)
(0.000586382 0 0.000167466)
(0.00058514 0 9.19786e-05)
(0.000558298 0 3.90565e-05)
(0.000490804 0 0.000102629)
(0.000468059 0 0.00014126)
(0.000464912 0 0.000158091)
(0.000446402 0 0.000164133)
(0.000404741 0 0.000172616)
(0.000351733 0 0.000177798)
(0.000293516 0 0.000196944)
(0.000278401 0 0.000185637)
(0.000238208 0 0.000196255)
(0.000188653 0 0.000189503)
(0.00013946 0 0.000195218)
(0.000115765 0 0.000173746)
(9.65574e-05 0 0.000141966)
(-2.73818e-08 0 0.000103599)
(-4.28018e-13 0 2.63964e-14)
(-8.39948e-13 0 -1.38222e-14)
(-8.31414e-13 0 -6.55111e-14)
(-8.05936e-13 0 -1.16377e-13)
(-7.62547e-13 0 -1.62398e-13)
(-7.0436e-13 0 -2.01667e-13)
(-6.34694e-13 0 -2.33152e-13)
(-5.56633e-13 0 -2.5643e-13)
(-4.7306e-13 0 -2.71516e-13)
(-3.8666e-13 0 -2.78769e-13)
(-2.99864e-13 0 -2.78824e-13)
(-2.14782e-13 0 -2.72525e-13)
(-1.33175e-13 0 -2.60841e-13)
(-5.64863e-14 0 -2.4477e-13)
(1.41367e-14 0 -2.25283e-13)
(7.78665e-14 0 -2.03304e-13)
(1.34195e-13 0 -1.79686e-13)
(1.82891e-13 0 -1.5519e-13)
(2.23931e-13 0 -1.30459e-13)
(2.5745e-13 0 -1.06014e-13)
(2.83715e-13 0 -8.22736e-14)
(3.03102e-13 0 -5.9579e-14)
(3.16057e-13 0 -3.81998e-14)
(3.23064e-13 0 -1.83376e-14)
(3.24612e-13 0 -1.25428e-16)
(3.21183e-13 0 1.63677e-14)
(3.13242e-13 0 3.11317e-14)
(3.0123e-13 0 4.42085e-14)
(2.85564e-13 0 5.56853e-14)
(2.66652e-13 0 6.56843e-14)
(2.44901e-13 0 7.43486e-14)
(2.20733e-13 0 8.18258e-14)
(1.94574e-13 0 8.825e-14)
(1.66846e-13 0 9.37255e-14)
(1.37936e-13 0 9.8315e-14)
(1.08176e-13 0 1.02035e-13)
(7.78188e-14 0 1.04862e-13)
(4.70315e-14 0 1.06746e-13)
(1.57733e-14 0 1.07642e-13)
(0.000230959 0 -0.000988434)
(0.00026724 0 -0.000856947)
(0.000257303 0 -0.000657034)
(0.000365908 0 -0.000425833)
(0.000379179 0 -0.000148023)
(0.000412998 0 -4.00802e-05)
(0.000465506 0 4.27017e-05)
(0.000511915 0 0.000169016)
(0.000497921 0 0.000289189)
(0.000477734 0 0.000305481)
(0.00042005 0 0.000312109)
(0.000350851 0 0.000302129)
(0.000284456 0 0.000294681)
(0.000193241 0 0.00030529)
(0.000182109 0 0.000232755)
(0.000139357 0 0.000134984)
(0.00010597 0 6.13414e-05)
(7.17174e-05 0 3.18336e-05)
(5.35445e-05 0 1.82473e-05)
(5.86397e-05 0 1.15122e-05)
(5.0414e-05 0 1.08706e-05)
(3.60106e-05 0 1.2132e-05)
(1.26258e-05 0 1.24147e-05)
(7.66925e-06 0 4.75819e-06)
(-8.0256e-06 0 2.24477e-05)
(-1.27351e-05 0 4.47639e-05)
(-1.21752e-05 0 6.56876e-05)
(-2.15401e-05 0 9.21581e-05)
(-5.28699e-05 0 9.08904e-05)
(-6.56349e-05 0 5.92097e-05)
(-6.94297e-05 0 3.55532e-05)
(5.37941e-05 0 -0.000112449)
(0.000121481 0 -0.00013211)
(0.000170097 0 -0.000174388)
(0.000188177 0 -0.000227584)
(0.000338847 0 -0.000114482)
(0.000277894 0 -0.000292581)
(0.0003673 0 -0.000247916)
(0.000421701 0 -0.000272464)
(0.000463815 0 -0.000347699)
(0.000538632 0 -0.00031119)
(0.000570576 0 -0.000266695)
(0.000600304 0 -0.000233806)
(0.000638787 0 -0.000220885)
(0.000693234 0 -0.000217407)
(0.000729614 0 -0.000149514)
(0.000725232 0 -0.000145106)
(0.000728701 0 -0.00013374)
(0.000742069 0 -0.00014122)
(0.000789317 0 -0.000114807)
(0.000807697 0 -7.09281e-05)
(0.000789621 0 -6.90406e-05)
(0.000774369 0 -3.69105e-05)
(0.00077437 0 -6.00045e-05)
(0.000780642 0 -8.76896e-05)
(0.000795006 0 2.5778e-06)
(0.00079316 0 2.36601e-05)
(0.000778093 0 5.62053e-05)
(0.00076391 0 5.08937e-05)
(0.000746274 0 0.000109974)
(0.000727209 0 0.000119165)
(0.000707146 0 9.09189e-05)
(0.000650904 0 0.000186379)
(0.000619812 0 0.000111005)
(0.000535088 0 0.000203021)
(0.000453276 0 0.000267475)
(0.000451347 0 0.000225901)
(0.000459703 0 0.000122179)
(0.000417201 0 0.000169896)
(0.00037007 0 0.0002361)
(0.000337947 0 0.000264955)
(0.000339637 0 0.000238422)
(0.000334928 0 0.000184058)
(0.000287197 0 0.00020263)
(0.000247861 0 0.000223194)
(0.000230677 0 0.000208103)
(0.000175271 0 0.000209717)
(0.000169779 0 0.000192764)
(0.000154418 0 0.000189924)
(0.000130206 0 0.000180756)
(2.56521e-08 0 0.000163709)
(-4.67453e-13 0 1.03114e-13)
(-8.79851e-13 0 3.85001e-15)
(-8.91129e-13 0 -8.12389e-14)
(-8.63311e-13 0 -1.55279e-13)
(-8.12582e-13 0 -2.18886e-13)
(-7.4546e-13 0 -2.71653e-13)
(-6.66239e-13 0 -3.13129e-13)
(-5.78536e-13 0 -3.43191e-13)
(-4.85629e-13 0 -3.62121e-13)
(-3.90517e-13 0 -3.70558e-13)
(-2.95884e-13 0 -3.69432e-13)
(-2.04027e-13 0 -3.59912e-13)
(-1.16798e-13 0 -3.43324e-13)
(-3.56422e-14 0 -3.21035e-13)
(3.83423e-14 0 -2.94378e-13)
(1.04404e-13 0 -2.646e-13)
(1.62129e-13 0 -2.32841e-13)
(2.11406e-13 0 -2.0011e-13)
(2.52351e-13 0 -1.67268e-13)
(2.85231e-13 0 -1.35007e-13)
(3.10428e-13 0 -1.03871e-13)
(3.28407e-13 0 -7.4275e-14)
(3.39695e-13 0 -4.65343e-14)
(3.44851e-13 0 -2.08751e-14)
(3.44439e-13 0 2.56151e-15)
(3.39014e-13 0 2.37153e-14)
(3.29106e-13 0 4.2602e-14)
(3.15213e-13 0 5.93039e-14)
(2.97796e-13 0 7.39556e-14)
(2.77289e-13 0 8.67269e-14)
(2.54111e-13 0 9.78021e-14)
(2.28669e-13 0 1.0736e-13)
(2.01365e-13 0 1.15556e-13)
(1.72577e-13 0 1.22507e-13)
(1.42648e-13 0 1.28284e-13)
(1.11866e-13 0 1.32914e-13)
(8.04537e-14 0 1.36383e-13)
(4.85756e-14 0 1.38665e-13)
(1.62689e-14 0 1.39742e-13)
(-8.15313e-05 0 -0.00111827)
(0.000182244 0 -0.00094509)
(6.94464e-05 0 -0.000733677)
(0.00032228 0 -0.000347813)
(0.000233284 0 -0.000226445)
(0.000308215 0 -0.000111626)
(0.000365586 0 4.89244e-06)
(0.000416308 0 0.000122955)
(0.000427905 0 0.0002753)
(0.000412599 0 0.000342608)
(0.000381081 0 0.00035758)
(0.000327771 0 0.000356235)
(0.000283258 0 0.000346767)
(0.000252232 0 0.000324647)
(0.000197146 0 0.000280878)
(0.00015753 0 0.00017335)
(9.21745e-05 0 0.000102589)
(4.98339e-05 0 5.27736e-05)
(3.35875e-05 0 3.22392e-05)
(2.05129e-05 0 3.11763e-05)
(1.14188e-05 0 2.74694e-05)
(-3.54825e-06 0 3.01299e-05)
(-1.03265e-05 0 2.43477e-05)
(-2.72566e-05 0 2.12659e-05)
(-5.31176e-05 0 4.52202e-05)
(-5.68331e-05 0 6.33804e-05)
(-4.97677e-05 0 8.78187e-05)
(-6.11181e-05 0 9.08261e-05)
(-3.90788e-05 0 9.78735e-05)
(-4.63341e-05 0 7.40638e-05)
(8.41283e-05 0 -6.43132e-05)
(0.000137137 0 -0.000109455)
(0.000175344 0 -0.00016674)
(0.000245435 0 -0.000166927)
(0.000245488 0 -0.000235487)
(0.000261507 0 -0.000288073)
(0.000338792 0 -0.000296426)
(0.000393542 0 -0.000315671)
(0.000461517 0 -0.000310161)
(0.000508861 0 -0.000346279)
(0.000555329 0 -0.00031648)
(0.000566329 0 -0.00028827)
(0.000572969 0 -0.000294191)
(0.000615685 0 -0.000247918)
(0.000644427 0 -0.00023018)
(0.000630635 0 -0.000285065)
(0.000669282 0 -0.000179805)
(0.000679026 0 -0.000156144)
(0.000692344 0 -0.000138505)
(0.000708143 0 -0.000130737)
(0.000716771 0 -0.000118301)
(0.000717869 0 -9.75701e-05)
(0.00072161 0 -6.05948e-05)
(0.000726707 0 -2.00791e-05)
(0.00072284 0 -4.38441e-06)
(0.000715383 0 1.86717e-05)
(0.000711865 0 5.88462e-05)
(0.000707138 0 4.73226e-05)
(0.000691151 0 0.000101454)
(0.00067581 0 0.000119865)
(0.000657593 0 0.000140138)
(0.000624858 0 0.00019311)
(0.000616564 0 0.000142088)
(0.000579595 0 0.000162993)
(0.000531856 0 0.000126589)
(0.000480996 0 0.000120988)
(0.000451729 0 0.000126439)
(0.000403427 0 0.000149116)
(0.000373598 0 0.000197066)
(0.000375267 0 0.000180375)
(0.000357267 0 0.000193199)
(0.000253547 0 0.00029427)
(0.000270131 0 0.000240091)
(0.000232836 0 0.000254102)
(0.000222334 0 0.000249344)
(0.000184933 0 0.000257398)
(0.000207705 0 0.000205856)
(0.000169993 0 0.0002305)
(0.000107531 0 0.000253819)
(7.63227e-05 0 0.000252694)
(-5.53116e-08 0 0.000225554)
(-5.18285e-13 0 1.52677e-13)
(-1.02364e-12 0 7.23435e-15)
(-9.90159e-13 0 -1.07669e-13)
(-9.43531e-13 0 -2.04423e-13)
(-8.78921e-13 0 -2.86008e-13)
(-7.98603e-13 0 -3.52692e-13)
(-7.06232e-13 0 -4.04305e-13)
(-6.05626e-13 0 -4.40937e-13)
(-5.00427e-13 0 -4.63129e-13)
(-3.93971e-13 0 -4.71861e-13)
(-2.89219e-13 0 -4.68446e-13)
(-1.88673e-13 0 -4.54461e-13)
(-9.42973e-14 0 -4.31654e-13)
(-7.54092e-15 0 -4.01826e-13)
(7.05711e-14 0 -3.66724e-13)
(1.39404e-13 0 -3.27971e-13)
(1.98685e-13 0 -2.87028e-13)
(2.48464e-13 0 -2.45175e-13)
(2.89033e-13 0 -2.03491e-13)
(3.20847e-13 0 -1.62843e-13)
(3.44447e-13 0 -1.23893e-13)
(3.60438e-13 0 -8.71233e-14)
(3.69457e-13 0 -5.28711e-14)
(3.7216e-13 0 -2.13537e-14)
(3.69202e-13 0 7.31378e-15)
(3.61224e-13 0 3.31079e-14)
(3.48831e-13 0 5.60871e-14)
(3.32584e-13 0 7.63788e-14)
(3.12987e-13 0 9.41619e-14)
(2.90498e-13 0 1.09646e-13)
(2.65534e-13 0 1.23048e-13)
(2.38487e-13 0 1.34575e-13)
(2.09721e-13 0 1.44407e-13)
(1.79574e-13 0 1.52684e-13)
(1.48343e-13 0 1.59501e-13)
(1.16275e-13 0 1.64909e-13)
(8.35704e-14 0 1.68924e-13)
(5.039e-14 0 1.71548e-13)
(1.68499e-14 0 1.72788e-13)
(-2.01366e-06 0 -0.00119362)
(0.00011122 0 -0.00101761)
(5.76139e-05 0 -0.000754166)
(0.000293492 0 -0.00033753)
(9.85496e-05 0 -0.000339627)
(0.000257913 0 -9.8227e-05)
(0.000294073 0 -2.87502e-06)
(0.000320917 0 0.000117535)
(0.000357799 0 0.00024856)
(0.000336404 0 0.000386858)
(0.000350024 0 0.000392763)
(0.000265124 0 0.000433936)
(0.000220984 0 0.00042737)
(0.000212328 0 0.000387575)
(0.00013962 0 0.000342419)
(0.000112873 0 0.000237481)
(3.71178e-05 0 0.000132632)
(2.24252e-05 0 6.97645e-05)
(1.48018e-05 0 4.53937e-05)
(3.58243e-06 0 3.95738e-05)
(-9.35179e-06 0 3.80363e-05)
(-2.05421e-05 0 3.75808e-05)
(-3.57244e-05 0 3.39128e-05)
(-6.26242e-05 0 4.77319e-05)
(-8.25633e-05 0 5.6902e-05)
(-8.73452e-05 0 6.07876e-05)
(-8.45086e-05 0 6.58773e-05)
(-5.72957e-05 0 9.00793e-05)
(-4.81047e-05 0 8.74549e-05)
(8.03507e-05 0 -7.2251e-05)
(0.000127256 0 -0.000113187)
(0.000166143 0 -0.000163042)
(0.000183658 0 -0.000216793)
(0.000227332 0 -0.00023777)
(0.000264511 0 -0.0002663)
(0.000341501 0 -0.000259723)
(0.000356843 0 -0.000340954)
(0.000376472 0 -0.000417801)
(0.000455525 0 -0.000392001)
(0.000516796 0 -0.000360566)
(0.000551378 0 -0.000330723)
(0.000545043 0 -0.000327723)
(0.000535128 0 -0.000330526)
(0.00055982 0 -0.000285834)
(0.000570957 0 -0.000260115)
(0.000578405 0 -0.000245207)
(0.000602959 0 -0.000173075)
(0.000615707 0 -0.000139469)
(0.000625212 0 -0.000132142)
(0.000638947 0 -0.000122888)
(0.000647063 0 -0.000117493)
(0.000659492 0 -7.46205e-05)
(0.000663715 0 -3.30563e-05)
(0.000660193 0 -3.66609e-05)
(0.000651859 0 -5.44922e-05)
(0.000643887 0 -3.41699e-06)
(0.000631427 0 6.27475e-05)
(0.000629641 0 5.78192e-05)
(0.000621173 0 8.55875e-05)
(0.000605271 0 0.000110576)
(0.000576392 0 0.000167982)
(0.000547771 0 0.000204921)
(0.000475283 0 0.000307478)
(0.000434849 0 0.000333937)
(0.000418794 0 0.000289822)
(0.000387013 0 0.000271678)
(0.000297607 0 0.000326619)
(0.000360213 0 0.000184312)
(0.000333844 0 0.000212805)
(0.000269227 0 0.000281553)
(0.000285405 0 0.000258252)
(0.000267724 0 0.000270346)
(0.000256878 0 0.000258578)
(0.000200259 0 0.000283852)
(0.000199388 0 0.000267825)
(0.000168142 0 0.00026661)
(0.000152686 0 0.00025934)
(9.59144e-05 0 0.000280869)
(9.11255e-05 0 0.000287562)
(6.52621e-05 0 0.00029022)
(-7.6844e-09 0 0.000271437)
(-5.88586e-13 0 1.15998e-13)
(-1.13953e-12 0 -1.98805e-14)
(-1.10243e-12 0 -1.5169e-13)
(-1.04162e-12 0 -2.6844e-13)
(-9.60851e-13 0 -3.67761e-13)
(-8.63757e-13 0 -4.48529e-13)
(-7.54484e-13 0 -5.10225e-13)
(-6.37361e-13 0 -5.52955e-13)
(-5.16553e-13 0 -5.77497e-13)
(-3.95833e-13 0 -5.85231e-13)
(-2.78483e-13 0 -5.77959e-13)
(-1.67236e-13 0 -5.57793e-13)
(-6.41634e-14 0 -5.2701e-13)
(2.92878e-14 0 -4.87924e-13)
(1.12197e-13 0 -4.42762e-13)
(1.841e-13 0 -3.93575e-13)
(2.44925e-13 0 -3.42184e-13)
(2.94944e-13 0 -2.90154e-13)
(3.34683e-13 0 -2.38781e-13)
(3.6483e-13 0 -1.89089e-13)
(3.86148e-13 0 -1.41843e-13)
(3.99429e-13 0 -9.75724e-14)
(4.05465e-13 0 -5.66129e-14)
(4.05036e-13 0 -1.91442e-14)
(3.98901e-13 0 1.47757e-14)
(3.87788e-13 0 4.51854e-14)
(3.72377e-13 0 7.22019e-14)
(3.53288e-13 0 9.60034e-14)
(3.31063e-13 0 1.16813e-13)
(3.06175e-13 0 1.34877e-13)
(2.7904e-13 0 1.50448e-13)
(2.50029e-13 0 1.63769e-13)
(2.19474e-13 0 1.75051e-13)
(1.87671e-13 0 1.84473e-13)
(1.54873e-13 0 1.92166e-13)
(1.21289e-13 0 1.98218e-13)
(8.70926e-14 0 2.02683e-13)
(5.24392e-14 0 2.05594e-13)
(1.75087e-14 0 2.06981e-13)
(-3.77657e-05 0 -0.00124827)
(7.22757e-05 0 -0.00104035)
(5.01686e-06 0 -0.000738303)
(0.000142432 0 -0.000432058)
(6.9485e-05 0 -0.000314372)
(0.000178585 0 -0.000178131)
(0.000242041 0 -3.80858e-05)
(0.000256621 0 8.15109e-05)
(0.000290676 0 0.000219632)
(0.000318533 0 0.00036514)
(0.000273125 0 0.000450978)
(0.000311518 0 0.000425238)
(0.000247179 0 0.000442598)
(0.000194308 0 0.000430044)
(0.000133549 0 0.000384601)
(0.000109159 0 0.000279332)
(1.44169e-05 0 0.000157571)
(2.99985e-05 0 8.40132e-05)
(-6.08465e-07 0 6.06206e-05)
(-1.65296e-05 0 5.40915e-05)
(-3.01638e-05 0 5.40199e-05)
(-4.59402e-05 0 5.80233e-05)
(-6.19401e-05 0 6.14081e-05)
(-7.33688e-05 0 6.34742e-05)
(-8.11663e-05 0 5.90805e-05)
(-8.49983e-05 0 5.61355e-05)
(-6.81334e-05 0 5.03994e-05)
(-4.85126e-05 0 4.95844e-05)
(5.18322e-05 0 -4.30885e-05)
(9.44161e-05 0 -8.60313e-05)
(0.000136242 0 -0.000137993)
(0.00018168 0 -0.000168013)
(0.000201492 0 -0.00021457)
(0.00024239 0 -0.000244562)
(0.000289597 0 -0.000279244)
(0.00033631 0 -0.000329382)
(0.000386132 0 -0.000368257)
(0.000421924 0 -0.000409073)
(0.000459649 0 -0.000403244)
(0.000471985 0 -0.000403795)
(0.000498792 0 -0.000369172)
(0.000498608 0 -0.000360412)
(0.000518622 0 -0.000299561)
(0.000548748 0 -0.000218022)
(0.000517024 0 -0.000250461)
(0.00052278 0 -0.000246169)
(0.000531427 0 -0.000221776)
(0.000540312 0 -0.000197398)
(0.000544938 0 -0.000197615)
(0.00056796 0 -0.000139651)
(0.000569695 0 -0.000123982)
(0.000574055 0 -0.000116872)
(0.000589534 0 -5.30834e-05)
(0.000589952 0 -3.71072e-05)
(0.000588472 0 -1.30643e-05)
(0.00058116 0 2.79208e-05)
(0.000565314 0 3.35769e-05)
(0.000534391 0 9.84819e-05)
(0.000523982 0 0.000139721)
(0.000517987 0 0.000145952)
(0.000524816 0 0.000124103)
(0.000519552 0 0.000115973)
(0.000503621 0 0.000120537)
(0.000484265 0 0.000131658)
(0.00044339 0 0.000181136)
(0.000361219 0 0.000261942)
(0.000363634 0 0.000199473)
(0.000274454 0 0.000260939)
(0.000196289 0 0.000310474)
(0.000270265 0 0.000231982)
(0.000208797 0 0.000274488)
(0.000167502 0 0.000321268)
(0.000191465 0 0.000303023)
(0.000161316 0 0.000307522)
(0.000151027 0 0.000295788)
(0.000119807 0 0.000289947)
(8.92066e-05 0 0.000288771)
(6.00927e-05 0 0.000292709)
(4.64439e-05 0 0.00030437)
(7.79471e-05 0 0.000310653)
(-7.12037e-08 0 0.000302175)
(-6.5401e-13 0 1.30321e-13)
(-1.29069e-12 0 -5.08792e-14)
(-1.23841e-12 0 -2.10121e-13)
(-1.1596e-12 0 -3.49576e-13)
(-1.05901e-12 0 -4.67834e-13)
(-9.41067e-13 0 -5.63228e-13)
(-8.10659e-13 0 -6.3491e-13)
(-6.72898e-13 0 -6.83002e-13)
(-5.32702e-13 0 -7.08564e-13)
(-3.94433e-13 0 -7.13495e-13)
(-2.61781e-13 0 -7.00237e-13)
(-1.37725e-13 0 -6.71599e-13)
(-2.44281e-14 0 -6.30541e-13)
(7.67071e-14 0 -5.80008e-13)
(1.6492e-13 0 -5.22784e-13)
(2.39982e-13 0 -4.61395e-13)
(3.02106e-13 0 -3.98052e-13)
(3.51867e-13 0 -3.34616e-13)
(3.90098e-13 0 -2.72588e-13)
(4.17785e-13 0 -2.13119e-13)
(4.35964e-13 0 -1.57042e-13)
(4.45668e-13 0 -1.04902e-13)
(4.47885e-13 0 -5.70082e-14)
(4.43549e-13 0 -1.34807e-14)
(4.33532e-13 0 2.57021e-14)
(4.1865e-13 0 6.06625e-14)
(3.99649e-13 0 9.15945e-14)
(3.77194e-13 0 1.18742e-13)
(3.51861e-13 0 1.42381e-13)
(3.24134e-13 0 1.62807e-13)
(2.94426e-13 0 1.80319e-13)
(2.63089e-13 0 1.952e-13)
(2.30425e-13 0 2.07713e-13)
(1.96689e-13 0 2.18079e-13)
(1.62088e-13 0 2.26477e-13)
(1.26793e-13 0 2.3304e-13)
(9.0946e-14 0 2.3786e-13)
(5.46884e-14 0 2.41003e-13)
(1.82375e-14 0 2.4252e-13)
(-5.34262e-05 0 -0.00126494)
(2.91124e-05 0 -0.0010415)
(-5.02348e-06 0 -0.000711966)
(-2.32301e-05 0 -0.000507448)
(8.7553e-05 0 -0.000325429)
(8.89977e-05 0 -0.000303824)
(0.000193298 0 -6.971e-05)
(0.000222166 0 6.15753e-05)
(0.000253472 0 0.000183775)
(0.000269603 0 0.000350039)
(0.000287901 0 0.000430667)
(0.00018814 0 0.000495582)
(0.000229641 0 0.000473571)
(0.000198525 0 0.000467234)
(0.000147137 0 0.000431357)
(0.000114515 0 0.000324729)
(1.34068e-05 0 0.00020072)
(2.59499e-05 0 0.0001172)
(-1.27109e-05 0 8.16189e-05)
(-3.74511e-05 0 7.43497e-05)
(-5.14404e-05 0 7.13589e-05)
(-6.23699e-05 0 7.53572e-05)
(-7.05681e-05 0 7.625e-05)
(-7.24766e-05 0 6.98815e-05)
(-6.58821e-05 0 5.85181e-05)
(-4.96822e-05 0 5.78671e-05)
(-3.17433e-05 0 2.78069e-05)
(3.02194e-05 0 -3.00612e-05)
(6.1633e-05 0 -6.71611e-05)
(0.000100496 0 -0.000110556)
(0.000131606 0 -0.000164458)
(0.000146448 0 -0.000224387)
(0.000210716 0 -0.000240149)
(0.000252965 0 -0.00028334)
(0.000261757 0 -0.000367988)
(0.000301691 0 -0.000428177)
(0.000355527 0 -0.000446904)
(0.000417797 0 -0.000427018)
(0.000399324 0 -0.000459542)
(0.000406653 0 -0.000446457)
(0.000430978 0 -0.000403452)
(0.000488476 0 -0.000288975)
(0.000462828 0 -0.000295074)
(0.000487799 0 -0.000242857)
(0.000442487 0 -0.000298596)
(0.000467429 0 -0.0002497)
(0.000485221 0 -0.000198058)
(0.000489314 0 -0.000165353)
(0.000497718 0 -0.000150447)
(0.000506372 0 -0.000128158)
(0.000497639 0 -0.000145103)
(0.000502108 0 -0.000110589)
(0.000509569 0 -4.81258e-05)
(0.000504305 0 -3.03978e-05)
(0.000496439 0 -2.76478e-05)
(0.000486639 0 6.09809e-05)
(0.0004729 0 9.15735e-05)
(0.000464665 0 6.41282e-05)
(0.000406844 0 0.000178683)
(0.000422907 0 0.000173106)
(0.000306378 0 0.000339181)
(0.000276417 0 0.000367569)
(0.000263221 0 0.000363865)
(0.000272729 0 0.000340988)
(0.000272828 0 0.000325572)
(0.000303752 0 0.000280567)
(0.000279551 0 0.000279527)
(0.000235075 0 0.000282558)
(0.000301707 0 0.000195312)
(0.000217898 0 0.000260225)
(0.000172651 0 0.000297753)