/*--------------------------------*- C++ -*----------------------------------*\
  =========                 |
  \\      /  F ield         | OpenFOAM: The Open Source CFD Toolbox
   \\    /   O peration     | Website:  https://openfoam.org
    \\  /    A nd           | Version:  6
     \\/     M anipulation  |
\*---------------------------------------------------------------------------*/
FoamFile
{
    version     2.0;
    format      ascii;
    class       volScalarField;
    location    "360";
    object      dmdt;
}
// * * * * * * * * * * * * * * * * * * * * * * * * * * * * * * * * * * * * * //

dimensions      [0 0 0 0 0 0 0];

internalField   nonuniform List<scalar> 
5964
(
-0.360508
-0.316656
-0.277742
-0.24442
-0.216136
-0.191889
-0.170684
-0.151617
-0.134035
-0.117295
-0.100766
-0.084307
-0.0679876
-0.0518885
-0.0239976
-0.0388977
-0.0418447
-0.0444569
-0.0467385
-0.0487004
-0.0503587
-0.0517318
-0.0528384
-0.0536966
-0.0543238
-0.0547367
-0.0549513
-0.0549836
-0.0548492
-0.0545634
-0.0541413
-0.0535976
-0.0529466
-0.0522018
-0.0513761
-0.0504814
-0.049529
-0.0485287
-0.0474899
-0.0464204
-0.0453273
-0.0442169
-0.0430942
-0.0419637
-0.040829
-0.0396928
-0.0385577
-0.0374252
-0.0362968
-0.0351733
-0.0340553
-0.0329433
-0.0318372
-0.0307372
-0.0296431
-0.0285546
-0.0274715
-0.0263934
-0.0253199
-0.0242507
-0.0231855
-0.0221239
-0.0210656
-0.0200102
-0.0189575
-0.0179071
-0.016859
-0.0158128
-0.0147684
-0.0137258
-0.0126849
-0.0116458
-0.0106086
-0.00957354
-0.00854059
-0.0075097
-0.00648044
-0.00545227
-0.00442613
-0.00340961
-0.00242801
-0.00153921
-0.000840518
-0.000448708
-0.360469
-0.31635
-0.276811
-0.242761
-0.213937
-0.189521
-0.168549
-0.150033
-0.132984
-0.116697
-0.100632
-0.0845486
-0.0684343
-0.0523229
-0.0241611
-0.0391824
-0.0421234
-0.0447188
-0.0469748
-0.048907
-0.0505352
-0.0518799
-0.052961
-0.053797
-0.0544052
-0.0548021
-0.0550034
-0.0550246
-0.054881
-0.0545877
-0.0541595
-0.0536109
-0.052956
-0.0522082
-0.0513801
-0.0504838
-0.04953
-0.048529
-0.0474896
-0.0464198
-0.0453267
-0.0442163
-0.0430938
-0.0419635
-0.040829
-0.0396932
-0.0385583
-0.0374262
-0.036298
-0.0351748
-0.034057
-0.0329452
-0.0318393
-0.0307394
-0.0296454
-0.028557
-0.0274739
-0.0263958
-0.0253224
-0.0242532
-0.023188
-0.0221263
-0.0210679
-0.0200125
-0.0189597
-0.0179093
-0.016861
-0.0158147
-0.0147703
-0.0137276
-0.0126866
-0.0116474
-0.0106102
-0.00957496
-0.00854188
-0.00751082
-0.00648137
-0.00545309
-0.00442715
-0.0034115
-0.00243157
-0.00154438
-0.000844849
-0.000449043
-0.360166
-0.31517
-0.274386
-0.239139
-0.209641
-0.185162
-0.164635
-0.14692
-0.13083
-0.11547
-0.100264
-0.0848718
-0.0691659
-0.0530814
-0.0244688
-0.0397612
-0.0426943
-0.0452518
-0.0474521
-0.0493213
-0.0508867
-0.0521734
-0.0532031
-0.0539947
-0.0545652
-0.0549304
-0.0551053
-0.0551046
-0.054943
-0.0546349
-0.0541948
-0.0536366
-0.052974
-0.0522203
-0.0513877
-0.050488
-0.0495319
-0.0485292
-0.0474888
-0.0464186
-0.0453253
-0.0442151
-0.043093
-0.0419632
-0.0408292
-0.039694
-0.0385598
-0.0374282
-0.0363006
-0.0351778
-0.0340605
-0.0329491
-0.0318435
-0.0307439
-0.0296501
-0.0285618
-0.0274788
-0.0264007
-0.0253273
-0.0242581
-0.0231928
-0.0221311
-0.0210726
-0.020017
-0.0189641
-0.0179135
-0.0168651
-0.0158186
-0.014774
-0.0137311
-0.01269
-0.0116507
-0.0106132
-0.00957781
-0.00854451
-0.00751319
-0.00648352
-0.00545529
-0.00443016
-0.00341661
-0.00243945
-0.00155101
-0.000835633
-0.000408015
-0.359525
-0.313306
-0.27139
-0.235199
-0.205322
-0.181003
-0.160931
-0.14383
-0.12859
-0.114243
-0.100027
-0.0854525
-0.0702014
-0.0541568
-0.0249385
-0.040675
-0.0435892
-0.0460758
-0.0481791
-0.0499446
-0.0514107
-0.0526079
-0.0535597
-0.054285
-0.0547996
-0.0551181
-0.0552541
-0.0552213
-0.0550333
-0.0547036
-0.0542459
-0.0536737
-0.053
-0.0522376
-0.0513984
-0.0504939
-0.0495343
-0.0485293
-0.0474875
-0.0464166
-0.0453232
-0.0442132
-0.0430917
-0.0419626
-0.0408296
-0.0396953
-0.0385619
-0.0374312
-0.0363044
-0.0351824
-0.0340658
-0.0329549
-0.0318499
-0.0307506
-0.0296571
-0.028569
-0.0274862
-0.0264082
-0.0253347
-0.0242655
-0.0232001
-0.0221382
-0.0210796
-0.0200238
-0.0189707
-0.0179199
-0.0168712
-0.0158245
-0.0147796
-0.0137365
-0.0126951
-0.0116555
-0.0106178
-0.0095821
-0.0085485
-0.00751691
-0.00648711
-0.00545922
-0.00443543
-0.00342401
-0.00244543
-0.00153434
-0.000735308
-0.000157957
-0.358995
-0.311581
-0.268592
-0.231853
-0.202019
-0.178141
-0.158681
-0.142276
-0.127783
-0.114181
-0.100707
-0.0867481
-0.0718102
-0.0557276
-0.0256099
-0.042005
-0.0448604
-0.0472171
-0.0491645
-0.050775
-0.0521001
-0.0531746
-0.0540221
-0.0546599
-0.0551016
-0.0553595
-0.0554454
-0.0553711
-0.055149
-0.0547915
-0.0543113
-0.0537209
-0.0530329
-0.0522594
-0.0514117
-0.0505009
-0.0495369
-0.048529
-0.0474855
-0.0464137
-0.0453203
-0.0442108
-0.04309
-0.041962
-0.0408301
-0.039697
-0.0385649
-0.0374354
-0.0363097
-0.0351887
-0.0340729
-0.0329628
-0.0318584
-0.0307596
-0.0296665
-0.0285787
-0.027496
-0.0264181
-0.0253447
-0.0242753
-0.0232098
-0.0221478
-0.0210889
-0.0200329
-0.0189794
-0.0179283
-0.0168794
-0.0158323
-0.0147871
-0.0137436
-0.0127019
-0.0116619
-0.0106238
-0.00958779
-0.00855385
-0.00752197
-0.00649209
-0.00546458
-0.00444161
-0.00342916
-0.00243502
-0.00144708
-0.000396924
0.00063879
-0.358265
-0.309871
-0.266624
-0.230083
-0.20069
-0.177358
-0.158622
-0.143034
-0.129213
-0.116081
-0.103011
-0.0892524
-0.0743468
-0.058061
-0.0265444
-0.0438708
-0.0465743
-0.0487014
-0.0504095
-0.0518022
-0.0529405
-0.0538588
-0.0545772
-0.0551084
-0.0554621
-0.0556473
-0.0556731
-0.0555493
-0.0552865
-0.0548957
-0.0543885
-0.0537765
-0.0530714
-0.0522846
-0.0514269
-0.0505087
-0.0495395
-0.0485282
-0.0474826
-0.04641
-0.0453165
-0.0442076
-0.0430879
-0.0419612
-0.0408308
-0.0396993
-0.0385687
-0.0374407
-0.0363164
-0.0351966
-0.0340819
-0.0329727
-0.031869
-0.0307709
-0.0296782
-0.0285908
-0.0275083
-0.0264305
-0.0253571
-0.0242877
-0.023222
-0.0221597
-0.0211005
-0.0200442
-0.0189904
-0.0179389
-0.0168895
-0.0158421
-0.0147964
-0.0137525
-0.0127103
-0.0116698
-0.0106313
-0.00959485
-0.00856049
-0.00752825
-0.00649815
-0.00547053
-0.00444675
-0.00342829
-0.00240508
-0.00130376
9.87914e-05
0.00179879
-0.358281
-0.309661
-0.266348
-0.230337
-0.201527
-0.178946
-0.161186
-0.146469
-0.133241
-0.120376
-0.107242
-0.0930325
-0.0777322
-0.0611741
-0.0277979
-0.046432
-0.0487992
-0.0505373
-0.0518958
-0.0529997
-0.0539059
-0.0546381
-0.0552065
-0.0556156
-0.0558694
-0.0559722
-0.0559301
-0.0557502
-0.0554413
-0.0550127
-0.0544749
-0.0538384
-0.0531139
-0.052312
-0.051443
-0.0505164
-0.0495415
-0.0485264
-0.0474788
-0.0464053
-0.0453119
-0.0442039
-0.0430854
-0.0419604
-0.0408318
-0.0397022
-0.0385735
-0.0374472
-0.0363245
-0.0352062
-0.0340928
-0.0329847
-0.031882
-0.0307846
-0.0296924
-0.0286054
-0.0275231
-0.0264454
-0.025372
-0.0243024
-0.0232366
-0.022174
-0.0211145
-0.0200577
-0.0190035
-0.0179515
-0.0169016
-0.0158537
-0.0148075
-0.013763
-0.0127203
-0.0116793
-0.0106403
-0.00960324
-0.00856836
-0.00753564
-0.00650504
-0.00547665
-0.00445066
-0.00342587
-0.00239227
-0.00131009
-0.00010297
0.00107326
-0.359089
-0.311398
-0.26818
-0.232369
-0.204235
-0.182688
-0.16599
-0.152139
-0.139341
-0.126496
-0.112919
-0.0981144
-0.0825001
-0.0656466
-0.029563
-0.0499237
-0.0515751
-0.0526867
-0.0535681
-0.0543173
-0.0549562
-0.0554819
-0.0558867
-0.0561639
-0.0563097
-0.0563237
-0.056208
-0.0559673
-0.0556082
-0.0551386
-0.0545674
-0.0539041
-0.0531585
-0.0523403
-0.051459
-0.0505235
-0.0495424
-0.0485234
-0.0474737
-0.0463995
-0.0453065
-0.0441995
-0.0430827
-0.0419597
-0.0408332
-0.0397058
-0.0385793
-0.037455
-0.0363342
-0.0352176
-0.0341058
-0.0329989
-0.0318972
-0.0308006
-0.0297091
-0.0286224
-0.0275404
-0.0264628
-0.0253894
-0.0243197
-0.0232535
-0.0221906
-0.0211307
-0.0200735
-0.0190187
-0.0179662
-0.0169157
-0.0158671
-0.0148203
-0.0137753
-0.0127319
-0.0116903
-0.0106506
-0.00961294
-0.00857745
-0.00754412
-0.00651283
-0.00548329
-0.00445464
-0.00342382
-0.00238286
-0.00132315
-0.000278847
0.000523546
-0.359022
-0.31163
-0.269528
-0.235035
-0.208286
-0.188094
-0.172608
-0.159563
-0.146974
-0.133849
-0.119758
-0.104509
-0.0886378
-0.0717443
-0.0321034
-0.0545859
-0.0548104
-0.0550111
-0.0553149
-0.0556767
-0.0560376
-0.0563525
-0.056591
-0.0567334
-0.0567682
-0.0566901
-0.0564978
-0.0561935
-0.0557818
-0.0552689
-0.0546626
-0.0539712
-0.0532033
-0.052368
-0.0514738
-0.0505291
-0.0495417
-0.0485188
-0.0474671
-0.0463925
-0.0453001
-0.0441946
-0.0430798
-0.0419591
-0.0408352
-0.0397103
-0.0385862
-0.0374643
-0.0363456
-0.0352309
-0.0341207
-0.0330152
-0.0319147
-0.030819
-0.0297282
-0.028642
-0.0275603
-0.0264828
-0.0254092
-0.0243394
-0.0232729
-0.0222096
-0.0211492
-0.0200914
-0.019036
-0.0179829
-0.0169317
-0.0158824
-0.0148349
-0.0137891
-0.012745
-0.0117027
-0.0106623
-0.00962397
-0.00858779
-0.00755377
-0.00652176
-0.00549125
-0.00446105
-0.00342824
-0.002389
-0.00135315
-0.000397554
0.000248158
-0.35889
-0.311874
-0.271182
-0.238565
-0.213664
-0.194998
-0.180737
-0.168188
-0.15572
-0.142288
-0.12762
-0.111628
-0.0951576
-0.0789404
-0.0655338
-0.0601745
-0.0580318
-0.0572063
-0.0569637
-0.0569786
-0.05709
-0.0572111
-0.0572923
-0.0573042
-0.0572298
-0.0570598
-0.0567904
-0.0564216
-0.0559562
-0.0553992
-0.054757
-0.0540367
-0.0532463
-0.0523935
-0.0514864
-0.0505324
-0.0495389
-0.0485124
-0.047459
-0.0463842
-0.0452928
-0.0441891
-0.0430768
-0.0419588
-0.0408377
-0.0397157
-0.0385944
-0.0374751
-0.0363588
-0.0352462
-0.0341378
-0.0330339
-0.0319346
-0.0308399
-0.0297498
-0.0286641
-0.0275826
-0.0265052
-0.0254316
-0.0243615
-0.0232946
-0.0222309
-0.0211699
-0.0201115
-0.0190554
-0.0180015
-0.0169496
-0.0158996
-0.0148513
-0.0138047
-0.0127598
-0.0117167
-0.0106755
-0.00963634
-0.0085994
-0.00756468
-0.00653196
-0.00550065
-0.00446946
-0.00343613
-0.00240064
-0.00138384
-0.000477891
0.000100999
-0.359088
-0.313252
-0.274463
-0.243743
-0.220601
-0.203297
-0.190008
-0.177767
-0.165411
-0.151578
-0.136047
-0.118772
-0.100768
-0.0833888
-0.0695789
-0.0628502
-0.0600353
-0.0588379
-0.0583332
-0.058135
-0.0580634
-0.0580251
-0.0579674
-0.0578588
-0.0576806
-0.0574217
-0.0570767
-0.0566442
-0.0561257
-0.0555249
-0.0548469
-0.054098
-0.0532851
-0.0524152
-0.0514954
-0.0505326
-0.0495333
-0.0485036
-0.047449
-0.0463746
-0.0452847
-0.0441833
-0.0430738
-0.0419589
-0.0408411
-0.0397223
-0.0386041
-0.0374876
-0.0363739
-0.0352636
-0.0341572
-0.0330549
-0.0319569
-0.0308633
-0.0297739
-0.0286888
-0.0276076
-0.0265302
-0.0254564
-0.024386
-0.0233188
-0.0222544
-0.0211928
-0.0201337
-0.0190768
-0.0180221
-0.0169693
-0.0159184
-0.0148692
-0.0138218
-0.012776
-0.011732
-0.01069
-0.00965004
-0.00861232
-0.00757684
-0.00654337
-0.00551122
-0.00447873
-0.00344324
-0.00240527
-0.00138951
-0.000494569
6.67225e-05
-0.359983
-0.316132
-0.279492
-0.25072
-0.229036
-0.212777
-0.200342
-0.1884
-0.175968
-0.16145
-0.144693
-0.125845
-0.105615
-0.0847871
-0.0660258
-0.0619545
-0.0605337
-0.0597995
-0.0593764
-0.059118
-0.058937
-0.0587769
-0.0586007
-0.0583835
-0.0581086
-0.0577656
-0.0573483
-0.0568545
-0.0562846
-0.0556412
-0.0549287
-0.0541522
-0.0533177
-0.0524314
-0.0514998
-0.0505289
-0.0495245
-0.0484923
-0.0474371
-0.0463636
-0.0452758
-0.0441772
-0.043071
-0.0419596
-0.0408455
-0.0397302
-0.0386153
-0.037502
-0.0363911
-0.0352833
-0.0341789
-0.0330784
-0.0319818
-0.0308893
-0.0298007
-0.028716
-0.0276351
-0.0265577
-0.0254837
-0.024413
-0.0233452
-0.0222803
-0.0212179
-0.0201579
-0.0191002
-0.0180446
-0.0169909
-0.015939
-0.0148889
-0.0138404
-0.0127937
-0.0117488
-0.0107059
-0.00966507
-0.0086265
-0.00759019
-0.00655591
-0.00552287
-0.0044892
-0.00345175
-0.00241074
-0.00139175
-0.000496155
6.25416e-05
-0.361279
-0.320073
-0.285835
-0.258983
-0.238687
-0.22342
-0.211608
-0.199815
-0.187097
-0.171892
-0.153976
-0.133448
-0.11061
-0.084515
-0.0240319
-0.0585701
-0.0603345
-0.0604259
-0.0602202
-0.0599732
-0.059723
-0.0594647
-0.0591847
-0.0588687
-0.0585044
-0.0580826
-0.0575973
-0.0570457
-0.0564273
-0.0557439
-0.0549988
-0.0541964
-0.0533419
-0.0524407
-0.0514984
-0.0505204
-0.049512
-0.0484781
-0.0474232
-0.0463513
-0.0452662
-0.044171
-0.0430686
-0.0419612
-0.040851
-0.0397397
-0.0386284
-0.0375184
-0.0364105
-0.0353053
-0.0342032
-0.0331045
-0.0320094
-0.0309179
-0.0298301
-0.0287459
-0.0276651
-0.0265877
-0.0255135
-0.0244423
-0.023374
-0.0223083
-0.0212451
-0.0201843
-0.0191256
-0.018069
-0.0170142
-0.0159613
-0.0149101
-0.0138606
-0.0128129
-0.011767
-0.0107231
-0.00968139
-0.0086419
-0.00760465
-0.00656941
-0.00553542
-0.00450107
-0.003464
-0.00242621
-0.00141601
-0.000535455
9.09886e-06
-0.362914
-0.324727
-0.292757
-0.267695
-0.248811
-0.234512
-0.223069
-0.211431
-0.198382
-0.18267
-0.163867
-0.142234
-0.118413
-0.0929112
-0.06352
-0.0626889
-0.0615344
-0.0612699
-0.0610586
-0.0607794
-0.0604518
-0.0600962
-0.0597167
-0.0593075
-0.0588597
-0.0583649
-0.0578168
-0.0572118
-0.0565488
-0.0558286
-0.0550539
-0.0542282
-0.0533558
-0.0524415
-0.0514902
-0.0505066
-0.0494954
-0.0484609
-0.0474072
-0.0463378
-0.0452561
-0.0441649
-0.0430668
-0.0419639
-0.0408581
-0.0397509
-0.0386436
-0.0375371
-0.0364324
-0.0353298
-0.03423
-0.0331332
-0.0320396
-0.0309492
-0.0298622
-0.0287784
-0.0276978
-0.0266203
-0.0255458
-0.0244741
-0.0234051
-0.0223386
-0.0212745
-0.0202127
-0.0191529
-0.0180951
-0.0170393
-0.0159852
-0.0149328
-0.0138823
-0.0128335
-0.0117866
-0.0107417
-0.00969894
-0.00865845
-0.00762014
-0.00658369
-0.00554834
-0.00451273
-0.00347539
-0.00244043
-0.00143901
-0.000573442
-4.24234e-05
-0.364579
-0.329569
-0.300237
-0.277134
-0.259519
-0.245842
-0.234416
-0.222679
-0.209242
-0.193087
-0.173784
-0.151572
-0.127349
-0.102297
-0.0787183
-0.063309
-0.0619564
-0.0620693
-0.0619411
-0.0615913
-0.0611492
-0.0606779
-0.0601939
-0.0596936
-0.0591672
-0.0586052
-0.058
-0.057347
-0.0566441
-0.0558915
-0.0550908
-0.0542449
-0.0533574
-0.0524325
-0.0514742
-0.0504868
-0.0494743
-0.0484406
-0.0473892
-0.0463233
-0.0452458
-0.0441593
-0.043066
-0.0419681
-0.040867
-0.0397643
-0.0386611
-0.0375584
-0.0364568
-0.0353571
-0.0342597
-0.0331648
-0.0320726
-0.0309833
-0.029897
-0.0288136
-0.0277331
-0.0266555
-0.0255806
-0.0245083
-0.0234385
-0.0223711
-0.021306
-0.020243
-0.0191821
-0.0181231
-0.017066
-0.0160107
-0.0149571
-0.0139053
-0.0128554
-0.0118074
-0.0107614
-0.00971764
-0.00867608
-0.00763658
-0.00659869
-0.00556147
-0.00452333
-0.00348266
-0.00244365
-0.00143806
-0.000569219
-3.6494e-05
-0.366273
-0.334358
-0.307627
-0.286532
-0.27007
-0.256842
-0.245209
-0.233114
-0.219277
-0.202876
-0.183431
-0.16079
-0.135966
-0.110391
-0.0839618
-0.0257538
-0.0612273
-0.0631512
-0.0630396
-0.0624676
-0.0618277
-0.0612065
-0.0606084
-0.0600182
-0.0594188
-0.0587962
-0.0581406
-0.0574459
-0.0567089
-0.0559288
-0.0551066
-0.0542444
-0.0533452
-0.0524125
-0.0514497
-0.0504606
-0.0494487
-0.0484172
-0.0473693
-0.0463079
-0.0452355
-0.0441543
-0.0430666
-0.0419739
-0.040878
-0.03978
-0.0386812
-0.0375823
-0.0364842
-0.0353873
-0.0342923
-0.0331993
-0.0321086
-0.0310203
-0.0299347
-0.0288516
-0.0277711
-0.0266932
-0.0256178
-0.0245448
-0.0234742
-0.0224058
-0.0213395
-0.0202753
-0.0192131
-0.0181528
-0.0170943
-0.0160377
-0.0149828
-0.0139297
-0.0128785
-0.0118294
-0.0107823
-0.0097374
-0.0086947
-0.00765396
-0.00661457
-0.00557539
-0.0045345
-0.00348981
-0.00244494
-0.00143142
-0.00055373
-1.46908e-05
-0.367927
-0.338948
-0.314652
-0.295478
-0.279922
-0.266884
-0.2548
-0.242196
-0.227815
-0.21085
-0.190679
-0.167415
-0.14252
-0.117649
-0.0937345
-0.0662937
-0.0683683
-0.0661568
-0.0646004
-0.0634087
-0.0624577
-0.0616578
-0.0609435
-0.0602695
-0.0596053
-0.0589307
-0.0582328
-0.0575036
-0.056739
-0.0559373
-0.0550987
-0.0542247
-0.0533177
-0.0523805
-0.0514162
-0.0504278
-0.0494184
-0.0483908
-0.0473479
-0.0462921
-0.0452256
-0.0441506
-0.0430689
-0.041982
-0.0408915
-0.0397986
-0.0387042
-0.0376093
-0.0365146
-0.0354207
-0.034328
-0.0332368
-0.0321475
-0.0310603
-0.0299752
-0.0288924
-0.0278118
-0.0267335
-0.0256575
-0.0245837
-0.0235121
-0.0224425
-0.021375
-0.0203095
-0.0192459
-0.0181842
-0.0171242
-0.0160661
-0.0150098
-0.0139554
-0.0129029
-0.0118524
-0.0108042
-0.0097581
-0.00871422
-0.00767221
-0.0066314
-0.00559054
-0.00454766
-0.00350079
-0.00245401
-0.0014396
-0.000562481
-2.46617e-05
-0.369356
-0.342866
-0.320568
-0.303105
-0.288208
-0.274942
-0.262104
-0.248627
-0.233459
-0.215963
-0.195542
-0.172287
-0.14737
-0.122665
-0.100067
-0.0821365
-0.0737354
-0.068748
-0.0659251
-0.0641619
-0.0629349
-0.0619844
-0.0611753
-0.0604339
-0.0597178
-0.0590019
-0.058271
-0.0575157
-0.0567308
-0.0559141
-0.0550649
-0.0541843
-0.0532739
-0.052336
-0.0513733
-0.0503883
-0.0493836
-0.0483618
-0.0473253
-0.0462763
-0.0452167
-0.0441485
-0.0430734
-0.0419928
-0.040908
-0.0398203
-0.0387305
-0.0376397
-0.0365484
-0.0354574
-0.034367
-0.0332777
-0.0321897
-0.0311033
-0.0300187
-0.028936
-0.0278552
-0.0267764
-0.0256997
-0.0246249
-0.0235522
-0.0224814
-0.0214125
-0.0203456
-0.0192805
-0.0182172
-0.0171557
-0.016096
-0.0150382
-0.0139822
-0.0129283
-0.0118765
-0.0108269
-0.00977959
-0.00873445
-0.00769115
-0.00664895
-0.00560649
-0.00456161
-0.00351201
-0.00246124
-0.001441
-0.000556525
-1.26898e-05
-0.370535
-0.346005
-0.325047
-0.308618
-0.293962
-0.280163
-0.266497
-0.2522
-0.236471
-0.218553
-0.197931
-0.174748
-0.149795
-0.124726
-0.102141
-0.0848463
-0.0753971
-0.0696335
-0.0664273
-0.0644835
-0.0631595
-0.0621443
-0.0612845
-0.0605006
-0.059749
-0.0590043
-0.0582506
-0.0574782
-0.0566813
-0.0558567
-0.0550035
-0.0541218
-0.0532129
-0.0522786
-0.051321
-0.0503423
-0.0493448
-0.0483307
-0.0473022
-0.0462611
-0.0452094
-0.0441488
-0.0430807
-0.0420067
-0.0409279
-0.0398455
-0.0387605
-0.0376738
-0.0365859
-0.0354977
-0.0344095
-0.0333219
-0.0322351
-0.0311494
-0.0300652
-0.0289824
-0.0279013
-0.0268219
-0.0257443
-0.0246685
-0.0235945
-0.0225223
-0.021452
-0.0203834
-0.0193167
-0.0182517
-0.0171885
-0.0161272
-0.0150677
-0.0140102
-0.0129547
-0.0119014
-0.0108504
-0.00980169
-0.00875519
-0.00771053
-0.00666687
-0.00562261
-0.0045749
-0.00351973
-0.00245727
-0.00141509
-0.000499243
7.11699e-05
-0.371417
-0.348279
-0.327945
-0.311147
-0.296162
-0.28192
-0.267691
-0.252861
-0.236772
-0.218576
-0.197571
-0.173855
-0.148353
-0.122734
-0.0993858
-0.081367
-0.0731165
-0.0685015
-0.0659488
-0.0643131
-0.063112
-0.0621312
-0.0612674
-0.0604661
-0.0596951
-0.0589338
-0.0581679
-0.057388
-0.0565877
-0.0557634
-0.0549131
-0.0540366
-0.0531346
-0.0522083
-0.0512596
-0.0502903
-0.0493026
-0.0482982
-0.0472792
-0.0462474
-0.0452045
-0.044152
-0.0430916
-0.0420244
-0.0409518
-0.0398749
-0.0387946
-0.0377118
-0.0366273
-0.0355418
-0.0344557
-0.0333696
-0.0322839
-0.0311988
-0.0301147
-0.0290318
-0.0279501
-0.02687
-0.0257913
-0.0247143
-0.0236389
-0.0225653
-0.0214933
-0.020423
-0.0193545
-0.0182878
-0.0172228
-0.0161596
-0.0150984
-0.0140391
-0.012982
-0.0119271
-0.0108745
-0.00982423
-0.00877623
-0.00773007
-0.00668486
-0.00563877
-0.00458819
-0.003527
-0.00245071
-0.00138069
-0.000422949
0.000184014
-0.371903
-0.349555
-0.329276
-0.311183
-0.29519
-0.280358
-0.265734
-0.250603
-0.234417
-0.216407
-0.195805
-0.172122
-0.145837
-0.118638
-0.0925027
-0.0700671
-0.0670565
-0.065816
-0.0648092
-0.0638231
-0.0628765
-0.0619828
-0.0611392
-0.0603346
-0.0595552
-0.0587876
-0.0580198
-0.0572423
-0.0564481
-0.0556326
-0.054793
-0.0539285
-0.0530391
-0.0521258
-0.05119
-0.0502334
-0.0492579
-0.0482653
-0.0472574
-0.046236
-0.0452027
-0.0441591
-0.0431066
-0.0420466
-0.0409803
-0.0399088
-0.0388332
-0.0377543
-0.036673
-0.03559
-0.0345058
-0.0334211
-0.0323362
-0.0312515
-0.0301674
-0.029084
-0.0280017
-0.0269206
-0.0258408
-0.0247624
-0.0236855
-0.0226102
-0.0215364
-0.0204643
-0.0193939
-0.0183253
-0.0172583
-0.0161933
-0.0151301
-0.014069
-0.01301
-0.0119533
-0.010899
-0.00984703
-0.00879734
-0.0077495
-0.00670264
-0.0056549
-0.0046024
-0.00353759
-0.002452
-0.00135991
-0.000364336
0.000278661
-0.372064
-0.349817
-0.328947
-0.309261
-0.292163
-0.276517
-0.261314
-0.245832
-0.229556
-0.211569
-0.190971
-0.167336
-0.141169
-0.113692
-0.0780721
-0.0228058
-0.0591811
-0.0632096
-0.0638055
-0.0633653
-0.0626031
-0.0617608
-0.0609223
-0.0601117
-0.0593284
-0.0585628
-0.0578032
-0.0570387
-0.0562608
-0.0554635
-0.0546431
-0.0537978
-0.0529272
-0.0520319
-0.0511132
-0.0501727
-0.0492121
-0.0482333
-0.047238
-0.0462281
-0.0452052
-0.0441709
-0.0431267
-0.0420739
-0.0410139
-0.0399478
-0.0388767
-0.0378016
-0.0367233
-0.0356425
-0.03456
-0.0334764
-0.0323921
-0.0313076
-0.0302232
-0.0291393
-0.0280561
-0.0269738
-0.0258926
-0.0248127
-0.0237341
-0.022657
-0.0215813
-0.0205073
-0.0194348
-0.0183641
-0.0172951
-0.016228
-0.0151628
-0.0140996
-0.0130387
-0.01198
-0.0109238
-0.00986993
-0.00881832
-0.00776855
-0.00671981
-0.00567036
-0.00461626
-0.00354879
-0.00245471
-0.00133842
-0.000296523
0.000393634
-0.371979
-0.349383
-0.32752
-0.30606
-0.287266
-0.270288
-0.254236
-0.238464
-0.222499
-0.205409
-0.186051
-0.163838
-0.139237
-0.113252
-0.0873699
-0.064262
-0.0632077
-0.0639093
-0.0638629
-0.063255
-0.0624083
-0.0615059
-0.0606274
-0.0597964
-0.0590098
-0.0582543
-0.0575139
-0.0567744
-0.0560245
-0.055256
-0.054464
-0.0536458
-0.0528005
-0.0519286
-0.0510313
-0.0501101
-0.0491669
-0.0482037
-0.0472225
-0.046225
-0.0452131
-0.0441884
-0.0431527
-0.0421072
-0.0410534
-0.0399925
-0.0389257
-0.037854
-0.0367784
-0.0356997
-0.0346186
-0.0335357
-0.0324518
-0.0313671
-0.0302823
-0.0291975
-0.0281132
-0.0270296
-0.0259468
-0.0248652
-0.0237847
-0.0227056
-0.0216279
-0.0205517
-0.0194772
-0.0184042
-0.0173331
-0.0162637
-0.0151963
-0.014131
-0.0130679
-0.0120072
-0.0109488
-0.0098928
-0.008839
-0.00778699
-0.006736
-0.00568444
-0.0046284
-0.00355813
-0.00245564
-0.00131472
-0.000224262
0.000516262
-0.371751
-0.348429
-0.325235
-0.301927
-0.28091
-0.262024
-0.244849
-0.228878
-0.213545
-0.197705
-0.180117
-0.159873
-0.137224
-0.113546
-0.0899026
-0.0338544
-0.066069
-0.0654958
-0.0645393
-0.0634084
-0.0622659
-0.061199
-0.0602367
-0.0593734
-0.0585877
-0.0578538
-0.057147
-0.056447
-0.0557385
-0.0550107
-0.0542572
-0.0534745
-0.0526614
-0.0518182
-0.0509464
-0.0500477
-0.0491244
-0.0481786
-0.0472125
-0.0462282
-0.0452277
-0.0442129
-0.0431856
-0.0421472
-0.0410994
-0.0400434
-0.0389806
-0.037912
-0.0368387
-0.0357616
-0.0346816
-0.0335992
-0.0325152
-0.0314302
-0.0303445
-0.0292587
-0.0281731
-0.0270879
-0.0260034
-0.0249198
-0.0238373
-0.022756
-0.0216761
-0.0205977
-0.0195208
-0.0184456
-0.0173721
-0.0163004
-0.0152307
-0.0141631
-0.0130977
-0.0120346
-0.0109739
-0.00991553
-0.00885928
-0.00780469
-0.006751
-0.00569674
-0.00463832
-0.00356605
-0.00246017
-0.00130854
-0.000193682
0.000574573
-0.37149
-0.347298
-0.322532
-0.297031
-0.273485
-0.252377
-0.233928
-0.217826
-0.203413
-0.189125
-0.173193
-0.15491
-0.134793
-0.113973
-0.0929941
-0.0364524
-0.0697163
-0.0675788
-0.0654625
-0.0636113
-0.0620543
-0.0607666
-0.0597034
-0.0588126
-0.0580432
-0.0573502
-0.0566966
-0.0560543
-0.0554031
-0.0547295
-0.0540255
-0.0532871
-0.0525131
-0.0517041
-0.0508618
-0.0499886
-0.0490871
-0.0481601
-0.04721
-0.0462394
-0.0452506
-0.0442456
-0.0432265
-0.0421949
-0.0411527
-0.0401012
-0.0390419
-0.037976
-0.0369046
-0.0358287
-0.0347492
-0.033667
-0.0325826
-0.0314968
-0.0304101
-0.0293229
-0.0282356
-0.0271486
-0.0260621
-0.0249764
-0.0238917
-0.0228082
-0.0217259
-0.0206451
-0.0195657
-0.0184881
-0.0174121
-0.016338
-0.0152658
-0.0141957
-0.0131279
-0.0120623
-0.0109991
-0.00993809
-0.00887911
-0.00782161
-0.00676473
-0.005707
-0.00464519
-0.00357045
-0.00246362
-0.0013106
-0.000188567
0.000591577
-0.371022
-0.345661
-0.319054
-0.290965
-0.264889
-0.241772
-0.222251
-0.206046
-0.192517
-0.18003
-0.166091
-0.149919
-0.132327
-0.114379
-0.0970965
-0.0822498
-0.0746401
-0.0697507
-0.0662195
-0.0635817
-0.0615971
-0.0601004
-0.0589615
-0.0580743
-0.0573533
-0.0567314
-0.0561577
-0.0555958
-0.0550205
-0.054416
-0.0537733
-0.0530883
-0.0523602
-0.0515903
-0.0507812
-0.049936
-0.0490581
-0.0481508
-0.0472173
-0.0462605
-0.0452832
-0.0442877
-0.0432764
-0.0422512
-0.041214
-0.0401664
-0.0391101
-0.0380462
-0.0369762
-0.035901
-0.0348217
-0.0337391
-0.032654
-0.031567
-0.0304789
-0.02939
-0.0283008
-0.0272117
-0.0261231
-0.025035
-0.0239479
-0.0228619
-0.0217771
-0.0206937
-0.0196118
-0.0185316
-0.017453
-0.0163763
-0.0153016
-0.0142289
-0.0131584
-0.0120902
-0.0110242
-0.00996045
-0.00889853
-0.00783784
-0.00677735
-0.00571555
-0.00464953
-0.00357205
-0.00246718
-0.00132334
-0.000213933
0.000559647
-0.370472
-0.343759
-0.315225
-0.284525
-0.255889
-0.230792
-0.210264
-0.194089
-0.181439
-0.170583
-0.158645
-0.144668
-0.129371
-0.113743
-0.0988276
-0.086591
-0.0772635
-0.0708067
-0.0662414
-0.062996
-0.0606987
-0.0590811
-0.0579396
-0.0571178
-0.0564967
-0.0559881
-0.0555284
-0.0550737
-0.0545954
-0.0540762
-0.0535069
-0.0528842
-0.0522085
-0.0514823
-0.0507094
-0.0498941
-0.0490408
-0.0481537
-0.0472368
-0.0462936
-0.0453273
-0.0443407
-0.0433365
-0.0423169
-0.041284
-0.0402397
-0.0391855
-0.0381231
-0.0370538
-0.0359787
-0.034899
-0.0338156
-0.0327293
-0.0316408
-0.0305509
-0.02946
-0.0283686
-0.0272772
-0.0261861
-0.0250955
-0.0240058
-0.0229172
-0.0218297
-0.0207436
-0.019659
-0.018576
-0.0174948
-0.0164154
-0.0153379
-0.0142625
-0.0131893
-0.0121182
-0.0110494
-0.00998265
-0.00891761
-0.00785354
-0.0067893
-0.00572326
-0.00465311
-0.00357405
-0.00247536
-0.00134987
-0.000263411
0.000501791
-0.369788
-0.341491
-0.310923
-0.277617
-0.246525
-0.219683
-0.198249
-0.182169
-0.170468
-0.161024
-0.150958
-0.139005
-0.125669
-0.111773
-0.0983355
-0.0871654
-0.0774356
-0.0702663
-0.0651478
-0.061593
-0.0591895
-0.0576044
-0.0565775
-0.0559112
-0.0554595
-0.0551175
-0.0548122
-0.0544953
-0.0541365
-0.053719
-0.0532349
-0.0526829
-0.0520651
-0.0513861
-0.0506515
-0.0498672
-0.0490389
-0.048172
-0.0472711
-0.0463407
-0.0453846
-0.044406
-0.0434079
-0.0423929
-0.0413634
-0.0403214
-0.0392687
-0.038207
-0.0371377
-0.0360621
-0.0349814
-0.0338966
-0.0328086
-0.0317182
-0.0306261
-0.0295328
-0.028439
-0.0273449
-0.0262511
-0.0251578
-0.0240653
-0.0229738
-0.0218835
-0.0207946
-0.0197072
-0.0186214
-0.0175373
-0.0164551
-0.0153748
-0.0142965
-0.0132204
-0.0121464
-0.0110746
-0.0100047
-0.00893645
-0.00786897
-0.00680105
-0.00573121
-0.00465816
-0.0035805
-0.00249376
-0.00139196
-0.000317488
0.000476734
-0.369
-0.338927
-0.306081
-0.27031
-0.237079
-0.209087
-0.187307
-0.171419
-0.160293
-0.151678
-0.1431
-0.132922
-0.121276
-0.108672
-0.0960746
-0.0852996
-0.0754323
-0.0679944
-0.062729
-0.059198
-0.0569508
-0.0555997
-0.0548392
-0.0544416
-0.0542426
-0.054128
-0.0540213
-0.0538738
-0.0536571
-0.0533568
-0.0529686
-0.0524941
-0.0519385
-0.0513091
-0.0506139
-0.0498606
-0.0490567
-0.0482089
-0.0473229
-0.0464041
-0.0454568
-0.0444848
-0.0434916
-0.0424801
-0.0414529
-0.0404121
-0.0393599
-0.038298
-0.0372279
-0.0361511
-0.0350688
-0.033982
-0.0328918
-0.031799
-0.0307043
-0.0296083
-0.0285117
-0.0274148
-0.026318
-0.0252217
-0.0241262
-0.0230317
-0.0219385
-0.0208466
-0.0197562
-0.0186675
-0.0175805
-0.0164953
-0.0154121
-0.0143309
-0.0132518
-0.0121748
-0.0110998
-0.0100268
-0.00895518
-0.00788432
-0.00681297
-0.0057399
-0.00466478
-0.00358834
-0.00250619
-0.00139331
-0.000230572
0.00074611
-0.368102
-0.336303
-0.301965
-0.264839
-0.229849
-0.200603
-0.178359
-0.162419
-0.151352
-0.142928
-0.135164
-0.126385
-0.116115
-0.104541
-0.092436
-0.0815213
-0.0713934
-0.0639024
-0.0588486
-0.0557046
-0.0539215
-0.0530431
-0.0527255
-0.0527233
-0.0528668
-0.0530427
-0.0531784
-0.0532304
-0.0531759
-0.0530063
-0.052722
-0.0523297
-0.0518385
-0.0512593
-0.0506029
-0.0498795
-0.0490985
-0.0482679
-0.047395
-0.0464858
-0.0455455
-0.0445785
-0.0435887
-0.0425792
-0.0415529
-0.0405122
-0.0394594
-0.0383963
-0.0373246
-0.0362458
-0.0351612
-0.0340719
-0.0329789
-0.0318832
-0.0307855
-0.0296865
-0.0285867
-0.0274866
-0.0263866
-0.0252871
-0.0241885
-0.0230908
-0.0219944
-0.0208994
-0.019806
-0.0187142
-0.0176242
-0.016536
-0.0154498
-0.0143656
-0.0132834
-0.0122033
-0.0111251
-0.0100488
-0.00897392
-0.00789975
-0.00682525
-0.00574949
-0.00467279
-0.00359665
-0.00251358
-0.00137514
-9.83925e-05
0.00109084
-0.367262
-0.333619
-0.297242
-0.258397
-0.222628
-0.193471
-0.171723
-0.156083
-0.144819
-0.136006
-0.128076
-0.119862
-0.110505
-0.0996338
-0.0876802
-0.0760213
-0.0651805
-0.0577878
-0.0533736
-0.051061
-0.0501065
-0.0499702
-0.0502842
-0.0508059
-0.0513785
-0.0519026
-0.0523188
-0.0525949
-0.0527179
-0.0526876
-0.0525119
-0.0522032
-0.0517761
-0.0512455
-0.0506257
-0.0499295
-0.0491685
-0.0483525
-0.04749
-0.0465879
-0.0456524
-0.0446883
-0.0436999
-0.0426907
-0.0416638
-0.0406219
-0.0395673
-0.038502
-0.0374278
-0.0363461
-0.0352585
-0.034166
-0.0330698
-0.0319707
-0.0308695
-0.029767
-0.0286637
-0.0275602
-0.0264568
-0.0253539
-0.0242519
-0.0231509
-0.0220512
-0.020953
-0.0198563
-0.0187614
-0.0176683
-0.0165771
-0.0154878
-0.0144005
-0.0133152
-0.0122319
-0.0111506
-0.0100709
-0.00899276
-0.0079154
-0.00683804
-0.00576013
-0.00468281
-0.00361029
-0.00254594
-0.00147664
-0.00038656
0.000519458
-0.366414
-0.331047
-0.293103
-0.253453
-0.217567
-0.188937
-0.167991
-0.153019
-0.14179
-0.13253
-0.123942
-0.115212
-0.105705
-0.0948049
-0.0823352
-0.0688478
-0.0561413
-0.0492129
-0.0461634
-0.0452937
-0.045603
-0.046496
-0.0476232
-0.0487818
-0.0498532
-0.0507686
-0.051491
-0.0520057
-0.0523134
-0.0524249
-0.0523571
-0.0521297
-0.0517631
-0.0512769
-0.0506893
-0.050016
-0.049271
-0.0484658
-0.0476102
-0.0467123
-0.0457787
-0.044815
-0.0438258
-0.0428151
-0.041786
-0.0407414
-0.0396837
-0.038615
-0.0375372
-0.0364519
-0.0353605
-0.0342642
-0.0331641
-0.0320611
-0.0309561
-0.0298498
-0.0287427
-0.0276354
-0.0265283
-0.0254219
-0.0243163
-0.0232118
-0.0221087
-0.0210071
-0.0199072
-0.018809
-0.0177128
-0.0166184
-0.015526
-0.0144356
-0.0133472
-0.0122607
-0.0111761
-0.0100932
-0.00901176
-0.00793134
-0.00685139
-0.00577173
-0.00469385
-0.00362319
-0.00257094
-0.00155597
-0.00062574
4.18533e-05
-0.36557
-0.328677
-0.289713
-0.249895
-0.214266
-0.18668
-0.166921
-0.152834
-0.142021
-0.132655