/*--------------------------------*- C++ -*----------------------------------*\
  =========                 |
  \\      /  F ield         | OpenFOAM: The Open Source CFD Toolbox
   \\    /   O peration     | Website:  https://openfoam.org
    \\  /    A nd           | Version:  6
     \\/     M anipulation  |
\*---------------------------------------------------------------------------*/
FoamFile
{
    version     2.0;
    format      ascii;
    class       volScalarField;
    location    "360";
    object      p;
}
// * * * * * * * * * * * * * * * * * * * * * * * * * * * * * * * * * * * * * //

dimensions      [1 -1 -2 0 0 0 0];

internalField   nonuniform List<scalar> 
5964
(
103778
103778
103778
103778
103778
103778
103778
103778
103778
103778
103778
103778
103778
103778
103778
103777
103773
103769
103765
103762
103759
103757
103754
103752
103750
103748
103747
103745
103743
103742
103741
103739
103738
103737
103736
103735
103734
103733
103732
103731
103730
103729
103729
103728
103727
103727
103726
103726
103725
103725
103724
103724
103723
103723
103723
103722
103722
103722
103721
103721
103721
103721
103720
103720
103720
103720
103720
103720
103719
103719
103719
103719
103719
103719
103719
103719
103719
103719
103719
103719
103719
103719
103719
103719
103718
103718
103718
103718
103718
103718
103718
103718
103718
103718
103718
103718
103718
103718
103718
103717
103713
103709
103706
103703
103700
103698
103696
103694
103692
103690
103688
103686
103685
103683
103682
103681
103679
103678
103677
103676
103675
103674
103673
103672
103671
103671
103670
103669
103669
103668
103668
103667
103666
103666
103666
103665
103665
103664
103664
103664
103663
103663
103663
103662
103662
103662
103662
103662
103661
103661
103661
103661
103661
103661
103661
103660
103660
103660
103660
103660
103660
103660
103660
103660
103660
103660
103660
103660
103657
103657
103657
103657
103657
103657
103657
103657
103657
103657
103657
103657
103657
103657
103657
103657
103653
103650
103647
103644
103641
103639
103637
103635
103633
103631
103629
103627
103626
103624
103623
103622
103621
103619
103618
103617
103616
103615
103614
103614
103613
103612
103611
103611
103610
103609
103609
103608
103608
103607
103607
103606
103606
103606
103605
103605
103605
103604
103604
103604
103604
103603
103603
103603
103603
103603
103602
103602
103602
103602
103602
103602
103602
103602
103602
103602
103601
103601
103601
103601
103601
103601
103601
103601
103597
103597
103597
103597
103597
103597
103597
103597
103597
103597
103597
103597
103597
103597
103597
103597
103593
103590
103587
103585
103582
103580
103578
103576
103574
103572
103570
103569
103567
103566
103564
103563
103562
103561
103560
103558
103557
103557
103556
103555
103554
103553
103553
103552
103551
103551
103550
103550
103549
103549
103548
103548
103547
103547
103547
103546
103546
103546
103545
103545
103545
103545
103544
103544
103544
103544
103544
103544
103544
103543
103543
103543
103543
103543
103543
103543
103543
103543
103543
103543
103543
103543
103543
103543
103537
103537
103537
103537
103537
103537
103536
103536
103537
103537
103537
103537
103537
103537
103537
103536
103533
103530
103528
103525
103523
103521
103519
103517
103515
103513
103511
103510
103508
103507
103505
103504
103503
103502
103501
103500
103499
103498
103497
103496
103495
103495
103494
103493
103493
103492
103491
103491
103490
103490
103489
103489
103489
103488
103488
103488
103487
103487
103487
103486
103486
103486
103486
103486
103485
103485
103485
103485
103485
103485
103485
103485
103484
103484
103484
103484
103484
103484
103484
103484
103484
103484
103484
103484
103476
103476
103476
103476
103476
103476
103476
103476
103476
103476
103476
103476
103476
103476
103476
103476
103473
103471
103468
103466
103463
103461
103459
103457
103455
103454
103452
103451
103449
103448
103446
103445
103444
103443
103442
103441
103440
103439
103438
103437
103436
103436
103435
103434
103434
103433
103433
103432
103432
103431
103431
103430
103430
103430
103429
103429
103429
103428
103428
103428
103428
103427
103427
103427
103427
103427
103426
103426
103426
103426
103426
103426
103426
103426
103426
103426
103425
103425
103425
103425
103425
103425
103425
103425
103416
103416
103416
103416
103416
103416
103416
103416
103416
103416
103416
103416
103416
103416
103416
103415
103413
103411
103408
103406
103404
103402
103400
103398
103396
103395
103393
103391
103390
103389
103387
103386
103385
103384
103383
103382
103381
103380
103379
103378
103378
103377
103376
103376
103375
103374
103374
103373
103373
103372
103372
103372
103371
103371
103370
103370
103370
103370
103369
103369
103369
103369
103368
103368
103368
103368
103368
103368
103367
103367
103367
103367
103367
103367
103367
103367
103367
103367
103367
103367
103367
103367
103367
103367
103355
103355
103355
103355
103355
103355
103355
103355
103355
103355
103355
103355
103355
103355
103355
103355
103353
103350
103348
103346
103344
103342
103340
103339
103337
103335
103334
103332
103331
103330
103328
103327
103326
103325
103324
103323
103322
103321
103320
103319
103319
103318
103317
103317
103316
103316
103315
103315
103314
103314
103313
103313
103312
103312
103312
103311
103311
103311
103311
103310
103310
103310
103310
103309
103309
103309
103309
103309
103309
103309
103309
103308
103308
103308
103308
103308
103308
103308
103308
103308
103308
103308
103308
103308
103295
103295
103295
103295
103295
103295
103295
103295
103295
103295
103295
103295
103295
103295
103295
103295
103292
103290
103288
103286
103284
103283
103281
103279
103278
103276
103274
103273
103272
103270
103269
103268
103267
103266
103265
103264
103263
103262
103261
103261
103260
103259
103258
103258
103257
103257
103256
103256
103255
103255
103254
103254
103254
103253
103253
103253
103252
103252
103252
103252
103251
103251
103251
103251
103251
103250
103250
103250
103250
103250
103250
103250
103250
103250
103250
103249
103249
103249
103249
103249
103249
103249
103249
103249
103234
103234
103234
103234
103234
103234
103234
103234
103234
103234
103234
103234
103234
103234
103234
103233
103232
103230
103228
103226
103225
103223
103221
103220
103218
103217
103215
103214
103212
103211
103210
103209
103208
103207
103206
103205
103204
103203
103202
103202
103201
103200
103200
103199
103198
103198
103197
103197
103196
103196
103196
103195
103195
103194
103194
103194
103194
103193
103193
103193
103193
103192
103192
103192
103192
103192
103192
103191
103191
103191
103191
103191
103191
103191
103191
103191
103191
103191
103191
103191
103191
103191
103191
103191
103174
103174
103174
103174
103174
103174
103174
103174
103174
103174
103174
103174
103174
103174
103174
103173
103171
103170
103168
103167
103165
103163
103162
103160
103159
103157
103156
103154
103153
103152
103151
103150
103149
103148
103147
103146
103145
103144
103143
103143
103142
103141
103141
103140
103139
103139
103138
103138
103137
103137
103137
103136
103136
103136
103135
103135
103135
103134
103134
103134
103134
103134
103133
103133
103133
103133
103133
103133
103133
103133
103132
103132
103132
103132
103132
103132
103132
103132
103132
103132
103132
103132
103132
103132
103113
103113
103113
103113
103113
103113
103113
103113
103113
103113
103113
103113
103113
103113
103113
103113
103111
103110
103108
103107
103105
103103
103102
103100
103099
103098
103096
103095
103094
103093
103092
103090
103089
103088
103088
103087
103086
103085
103084
103084
103083
103082
103082
103081
103080
103080
103079
103079
103079
103078
103078
103077
103077
103077
103076
103076
103076
103076
103075
103075
103075
103075
103075
103075
103074
103074
103074
103074
103074
103074
103074
103074
103074
103073
103073
103073
103073
103073
103073
103073
103073
103073
103073
103073
103053
103053
103053
103053
103053
103053
103053
103053
103053
103053
103053
103053
103053
103053
103053
103053
103051
103050
103048
103047
103045
103044
103042
103041
103039
103038
103037
103036
103034
103033
103032
103031
103030
103029
103028
103028
103027
103026
103025
103024
103024
103023
103023
103022
103022
103021
103021
103020
103020
103019
103019
103019
103018
103018
103018
103017
103017
103017
103017
103016
103016
103016
103016
103016
103016
103015
103015
103015
103015
103015
103015
103015
103015
103015
103015
103015
103015
103015
103015
103015
103015
103014
103014
103014
102992
102992
102992
102992
102992
102992
102992
102992
102992
102992
102992
102993
102993
102993
102993
102993
102991
102990
102988
102987
102985
102984
102982
102981
102980
102979
102977
102976
102975
102974
102973
102972
102971
102970
102969
102968
102968
102967
102966
102965
102965
102964
102964
102963
102963
102962
102962
102961
102961
102960
102960
102960
102959
102959
102959
102958
102958
102958
102958
102958
102957
102957
102957
102957
102957
102957
102957
102956
102956
102956
102956
102956
102956
102956
102956
102956
102956
102956
102956
102956
102956
102956
102956
102956
102932
102932
102932
102932
102932
102932
102932
102932
102932
102932
102932
102932
102932
102932
102932
102932
102931
102930
102928
102927
102925
102924
102923
102921
102920
102919
102918
102917
102916
102914
102913
102913
102912
102911
102910
102909
102908
102908
102907
102906
102906
102905
102905
102904
102903
102903
102903
102902
102902
102901
102901
102901
102900
102900
102900
102900
102899
102899
102899
102899
102899
102898
102898
102898
102898
102898
102898
102898
102898
102898
102897
102897
102897
102897
102897
102897
102897
102897
102897
102897
102897
102897
102897
102897
102872
102872
102872
102872
102872
102872
102871
102871
102872
102872
102872
102872
102872
102872
102872
102872
102872
102870
102868
102867
102865
102864
102863
102862
102860
102859
102858
102857
102856
102855
102854
102853
102852
102851
102851
102850
102849
102848
102848
102847
102847
102846
102845
102845
102844
102844
102844
102843
102843
102842
102842
102842
102842
102841
102841
102841
102841
102840
102840
102840
102840
102840
102839
102839
102839
102839
102839
102839
102839
102839
102839
102839
102839
102839
102839
102838
102838
102838
102838
102838
102838
102838
102838
102838
102811
102811
102811
102811
102811
102811
102811
102811
102811
102811
102811
102811
102811
102811
102811
102811
102811
102810
102808
102807
102806
102804
102803
102802
102801
102800
102798
102797
102796
102795
102795
102794
102793
102792
102791
102791
102790
102789
102789
102788
102787
102787
102786
102786
102785
102785
102785
102784
102784
102783
102783
102783
102783
102782
102782
102782
102782
102781
102781
102781
102781
102781
102781
102781
102780
102780
102780
102780
102780
102780
102780
102780
102780
102780
102780
102780
102780
102780
102780
102780
102780
102780
102780
102780
102751
102751
102751
102751
102751
102751
102751
102751
102751
102751
102751
102751
102751
102751
102751
102751
102751
102749
102748
102747
102746
102744
102743
102742
102741
102740
102739
102738
102737
102736
102735
102734
102733
102733
102732
102731
102731
102730
102729
102729
102728
102728
102727
102727
102726
102726
102725
102725
102725
102724
102724
102724
102724
102723
102723
102723
102723
102723
102722
102722
102722
102722
102722
102722
102722
102722
102721
102721
102721
102721
102721
102721
102721
102721
102721
102721
102721
102721
102721
102721
102721
102721
102721
102721
102690
102690
102690
102690
102690
102690
102690
102690
102690
102690
102690
102690
102690
102690
102690
102690
102690
102689
102688
102687
102685
102684
102683
102682
102681
102680
102679
102678
102677
102676
102676
102675
102674
102673
102673
102672
102671
102671
102670
102669
102669
102668
102668
102668
102667
102667
102666
102666
102666
102665
102665
102665
102665
102664
102664
102664
102664
102664
102664
102663
102663
102663
102663
102663
102663
102663
102663
102663
102663
102662
102662
102662
102662
102662
102662
102662
102662
102662
102662
102662
102662
102662
102662
102662
102630
102630
102630
102630
102630
102630
102630
102630
102630
102630
102630
102630
102630
102630
102630
102630
102630
102629
102628
102626
102625
102624
102623
102622
102621
102620
102619
102618
102618
102617
102616
102615
102614
102614
102613
102612
102612
102611
102611
102610
102610
102609
102609
102608
102608
102608
102607
102607
102607
102606
102606
102606
102606
102605
102605
102605
102605
102605
102605
102604
102604
102604
102604
102604
102604
102604
102604
102604
102604
102604
102604
102604
102604
102604
102604
102604
102603
102603
102603
102603
102603
102603
102603
102603
102570
102570
102570
102570
102570
102570
102570
102570
102570
102570
102570
102570
102570
102570
102570
102570
102570
102569
102567
102566
102565
102564
102563
102562
102561
102560
102560
102559
102558
102557
102556
102556
102555
102554
102554
102553
102552
102552
102551
102551
102550
102550
102550
102549
102549
102549
102548
102548
102548
102547
102547
102547
102547
102546
102546
102546
102546
102546
102546
102546
102545
102545
102545
102545
102545
102545
102545
102545
102545
102545
102545
102545
102545
102545
102545
102545
102545
102545
102545
102545
102545
102545
102545
102545
102509
102509
102509
102509
102509
102509
102509
102509
102509
102509
102509
102509
102509
102509
102509
102510
102510
102508
102507
102506
102505
102504
102503
102502
102501
102501
102500
102499
102498
102497
102497
102496
102495
102495
102494
102494
102493
102493
102492
102492
102491
102491
102490
102490
102490
102489
102489
102489
102489
102488
102488
102488
102488
102487
102487
102487
102487
102487
102487
102487
102487
102487
102486
102486
102486
102486
102486
102486
102486
102486
102486
102486
102486
102486
102486
102486
102486
102486
102486
102486
102486
102486
102486
102486
102449
102449
102449
102449
102449
102449
102449
102449
102449
102449
102449
102449
102449
102449
102449
102449
102449
102448
102447
102446
102445
102444
102443
102442
102441
102441
102440
102439
102438
102438
102437
102436
102436
102435
102435
102434
102434
102433
102433
102432
102432
102431
102431
102431
102430
102430
102430
102430
102429
102429
102429
102429
102429
102428
102428
102428
102428
102428
102428
102428
102428
102428
102428
102428
102427
102427
102427
102427
102427
102427
102427
102427
102427
102427
102427
102427
102427
102427
102427
102427
102427
102427
102427
102427
102388
102388
102388
102388
102388
102388
102388
102388
102388
102388
102388
102388
102388
102388
102388
102388
102388
102387
102386
102386
102385
102384
102383
102382
102382
102381
102380
102379
102379
102378
102377
102377
102376
102376
102375
102375
102374
102374
102373
102373
102373
102372
102372
102372
102371
102371
102371
102371
102370
102370
102370
102370
102370
102369
102369
102369
102369
102369
102369
102369
102369
102369
102369
102369
102369
102369
102369
102369
102369
102369
102369
102369
102369
102369
102369
102369
102369
102369
102369
102369
102369
102369
102369
102369
102328
102328
102328
102328
102328
102328
102328
102328
102328
102328
102328
102328
102328
102328
102328
102328
102328
102327
102326
102325
102325
102324
102323
102322
102322
102321
102320
102320
102319
102318
102318
102317
102317
102316
102316
102315
102315
102314
102314
102314
102313
102313
102313
102312
102312
102312
102312
102311
102311
102311
102311
102311
102311
102310
102310
102310
102310
102310
102310
102310
102310
102310
102310
102310
102310
102310
102310
102310
102310
102310
102310
102310
102310
102310
102310
102310
102310
102310
102310
102310
102310
102310
102310
102310
102268
102268
102268
102268
102268
102267
102267
102267
102267
102267
102267
102267
102267
102267
102267
102267
102267
102266
102266
102265
102264
102264
102263
102262
102262
102261
102260
102260
102259
102259
102258
102257
102257
102257
102256
102256
102255
102255
102254
102254
102254
102254
102253
102253
102253
102253
102252
102252
102252
102252
102252
102252
102251
102251
102251
102251
102251
102251
102251
102251
102251
102251
102251
102251
102251
102251
102251
102251
102251
102251
102251
102251
102251
102251
102251
102251
102251
102251
102251
102251
102251
102251
102251
102251
102207
102207
102207
102207
102207
102207
102207
102207
102207
102207
102207
102207
102207
102207
102207
102207
102206
102206
102205
102205
102204
102203
102203
102202
102202
102201
102200
102200
102199
102199
102198
102198
102197
102197
102196
102196
102196
102195
102195
102195
102194
102194
102194
102194
102194
102193
102193
102193
102193
102193
102193
102192
102192
102192
102192
102192
102192
102192
102192
102192
102192
102192
102192
102192
102192
102192
102192
102192
102192
102192
102192
102192
102192
102192
102192
102192
102192
102192
102192
102192
102192
102192
102192
102192
102147
102147
102147
102147
102147
102147
102147
102146
102146
102146
102146
102146
102146
102146
102146
102146
102146
102146
102145
102144
102144
102143
102143
102142
102142
102141
102140
102140
102139
102139
102139
102138
102138
102137
102137
102137
102136
102136
102136
102135
102135
102135
102135
102134
102134
102134
102134
102134
102134
102134
102133
102133
102133
102133
102133
102133
102133
102133
102133
102133
102133
102133
102133
102133
102133
102133
102133
102133
102133
102133
102133
102133
102133
102133
102133
102133
102134
102134
102134
102134
102134
102134
102134
102134
102086
102086
102086
102086
102086
102086
102086
102086
102086
102086
102086
102086
102086
102086
102086
102086
102086
102085
102085
102084
102084
102083
102083
102082
102082
102081
102081
102080
102080
102079
102079
102078
102078
102078
102077
102077
102077
102076
102076
102076
102076
102075
102075
102075
102075
102075
102075
102075
102074
102074
102074
102074
102074
102074
102074
102074
102074
102074
102074
102074
102074
102074
102074
102074
102074
102074
102074
102074
102074
102075
102075
102075
102075
102075
102075
102075
102075
102075
102075
102075
102075
102075
102075
102075
102026
102026
102026
102026
102026
102026
102026
102026
102026
102026
102026
102026
102026
102026
102026
102026
102025
102025
102024
102024
102023
102023
102022
102022
102021
102021
102021
102020
102020
102019
102019
102019
102018
102018
102018
102017
102017
102017
102017
102016
102016
102016
102016
102016
102016
102016
102015
102015
102015
102015
102015
102015
102015
102015
102015
102015
102015
102015
102015
102015
102015
102015
102015
102015
102015
102015
102016
102016
102016
102016
102016
102016
102016
102016
102016
102016
102016
102016
102016
102016
102016
102016
102016
102016
101966
101966
101966
101966
101965
101965
101965
101965
101965
101965
101965
101965
101965
101965
101965
101965
101965
101964
101964
101964
101963
101963
101962
101962
101961
101961
101961
101960
101960
101959
101959
101959
101959
101958
101958
101958
101958
101957
101957
101957
101957
101957
101957
101956
101956
101956
101956
101956
101956
101956
101956
101956
101956
101956
101956
101956
101956
101956
101956
101956
101956
101956
101956
101956
101957
101957
101957
101957
101957
101957
101957
101957
101957
101957
101957
101957
101957
101957
101957
101957
101957
101957
101957
101957
101905
101905
101905
101905
101905
101905
101905
101905
101905
101905
101905
101905
101905
101905
101905
101905
101904
101904
101904
101903
101903
101903
101902
101902
101901
101901
101901
101900
101900
101900
101899
101899
101899
101899
101898
101898
101898
101898
101898
101897
101897
101897
101897
101897
101897
101897
101897
101897
101897
101897
101897
101897
101897
101897
101897
101897
101897
101897
101897
101897
101897
101897
101898
101898
101898
101898
101898
101898
101898
101898
101898
101898
101898
101898
101898
101899
101899
101899
101899
101899
101899
101899
101899
101899
101845
101845
101845
101845
101845
101845
101845
101844
101844
101844
101844
101844
101844
101844
101844
101844
101844
101844
101843
101843
101843
101842
101842
101842
101841
101841
101841
101840
101840
101840
101839
101839
101839
101839
101839
101838
101838
101838
101838
101838
101838
101838
101838
101838
101838
101838
101838
101838
101838
101838
101838
101838
101838
101838
101838
101838
101838
101838
101838
101838
101838
101839
101839
101839
101839
101839
101839
101839
101839
101839
101839
101839
101840
101840
101840
101840
101840
101840
101840
101840
101840
101840
101840
101840
101784
101784
101784
101784
101784
101784
101784
101784
101784
101784
101784
101784
101784
101784
101784
101784
101784
101784
101783
101783
101782
101782
101782
101782
101781
101781
101781
101780
101780
101780
101780
101779
101779
101779
101779
101779
101779
101779
101778
101778
101778
101778
101778
101778
101778
101778
101778
101778
101778
101778
101779
101779
101779
101779
101779
101779
101779
101779
101779
101779
101779
101780
101780
101780
101780
101780
101780
101780
101780
101780
101781
101781
101781
101781
101781
101781
101781
101781
101781
101781
101781
101781
101781
101781
101724
101724
101724
101724
101724
101724
101724
101724
101723
101723
101723
101723
101723
101723
101723
101723
101723
101723
101722
101722
101722
101722
101722
101721
101721
101721
101721
101720
101720
101720
101720
101720
101719
101719
101719
101719
101719
101719
101719
101719
101719
101719
101719
101719
101719
101719
101719
101719
101719
101719
101719
101719
101720
101720
101720
101720
101720
101720
101720
101720
101721
101721
101721
101721
101721
101721
101721
101721
101722
101722
101722
101722
101722
101722
101722
101722
101722
101722
101723
101723
101723
101723
101723
101723
101663
101663
101663
101663
101663
101663
101663
101663
101663
101663
101663
101663
101663
101663
101663
101663
101663
101663
101663
101662
101662
101662
101662
101661
101661
101661
101661
101660
101660
101660
101660
101660
101660
101660
101659
101659
101659
101659
101659
101659
101659
101659
101659
101659
101660
101660
101660
101660
101660
101660
101660
101660
101660
101661
101661
101661
101661
101661
101661
101661
101662
101662
101662
101662
101662
101662
101662
101663
101663
101663
101663
101663
101663
101663
101664
101664
101664
101664
101664
101664
101664
101664
101664
101664
101603
101603
101603
101603
101603
101603
101603
101602
101602
101602
101602
101602
101602
101602
101602
101602
101602
101603
101603
101602
101602
101602
101602
101601
101601
101601
101601
101600
101600
101600
101600
101600
101600
101600
101600
101600
101600
101600
101600
101600
101600
101600
101600
101600
101600
101600
101600
101601
101601
101601
101601
101601
101601
101601
101602
101602
101602
101602
101602
101602
101603
101603
101603
101603
101603
101603
101604
101604
101604
101604
101604
101604
101605
101605
101605
101605
101605
101605
101605
101605
101605
101605
101605
101605
101542
101542
101542
101542
101542
101542
101542
101542
101542
101542
101542
101542
101542
101542
101542
101542
101542
101542
101542
101542
101542
101542
101541
101541
101541
101541
101541
101540
101540
101540
101540
101540
101540
101540
101540
101540
101540
101540
101540
101540
101540
101540
101540
101541
101541
101541
101541
101541
101541
101542
101542
101542
101542
101542
101542
101543
101543
101543
101543
101543
101544
101544
101544
101544
101544
101545
101545
101545
101545
101545
101546
101546
101546
101546
101546
101546
101546
101546
101546
101547
101547
101547
101547
101547
101482
101482
101482
101482
101482
101482
101481
101481
101481
101481
101481
101481
101481
101481
101481
101482
101482
101482
101482
101482
101482
101482
101481
101481
101481
101481
101480
101480
101480
101480
101480
101480
101480
101480
101480
101480
101480
101480
101480
101481
101481
101481
101481
101481
101481
101482
101482
101482
101482
101482
101483
101483
101483
101483
101483
101484
101484
101484
101484
101484
101485
101485
101485
101485
101486
101486
101486
101486
101486
101487
101487
101487
101487
101487
101487
101487
101488
101488
101488
101488
101488
101488
101488
101488
101421
101421
101421
101421
101421
101421
101421
101421
101421
101421
101421
101421
101421
101421
101421
101421
101421
101421
101421
101421
101421
101421
101421
101421
101421
101420
101420
101420
101420
101420
101420
101420
101420
101420
101420
101420
101421
101421
101421
101421
101421
101421
101422
101422
101422
101422
101422
101423
101423
101423
101423
101424
101424
101424
101424
101424
101425
101425
101425
101425
101426
101426
101426
101426
101427
101427
101427
101427
101428
101428
101428
101428
101428
101429
101429
101429
101429
101429
101429
101429
101429
101429
101429
101429
101361
101361
101361
101361
101361
101361
101360
101360
101360
101360
101360
101360
101360
101360
101360
101360
101361
101361
101361
101361
101361
101361
101361
101361
101360
101360
101360
101360
101360
101360
101360
101360
101360
101360
101361
101361
101361
101361
101361
101361
101362
101362
101362
101362
101363
101363
101363
101363
101364
101364
101364
101364
101365
101365
101365
101365
101366
101366
101366
101366
101367
101367
101367
101368
101368
101368
101368
101369
101369
101369
101369
101369
101370
101370
101370
101370
101370
101370
101371
101371
101371
101371
101371
101371
101300
101300
101300
101300
101300
101300
101300
101300
101300
101300
101300
101300
101300
101300
101300
101300
101300
101300
101300
101300
101300
101300
101300
101300
101300
101300
101300
101300
101300
101300
101300
101300
101300
101301
101301
101301
101301
101301
101302
101302
101302
101302
101303
101303
101303
101303
101304
101304
101304
101305
101305
101305
101305
101306
101306
101306
101307
101307
101307
101308
101308
101308
101308
101309
101309
101309
101310
101310
101310
101310
101311
101311
101311
101311
101311
101312
101312
101312
101312
101312
101312
101312
101312
101312
101240
101240
101240
101240
101240
101240
101240
101239
101239
101239
101239
101239
101239
101239
101240
101240
101240
101240
101240
101240
101240
101240
101240
101240
101240
101240
101240
101240
101240
101240
101240
101240
101240
101241
101241
101241
101241
101242
101242
101242
101242
101243
101243
101243
101244
101244
101244
101245
101245
101245
101246
101246
101246
101247
101247
101247
101248
101248
101248
101249
101249
101249
101249
101250
101250
101250
101251
101251
101251
101252
101252
101252
101252
101252
101253
101253
101253
101253
101253
101253
101253
101254
101254
101254
101179
101179
101179
101179
101179
101179
101179
101179
101179
101179
101179
101179
101179
101179
101179
101179
101179
101179
101179
101179
101179
101179
101179
101179
101179
101180
101180
101180
101180
101180
101180
101180
101181
101181
101181
101181
101182
101182
101182
101183
101183
101183
101184
101184
101184
101185
101185
101185
101186
101186
101186
101187
101187
101187
101188
101188
101189
101189
101189
101190
101190
101190
101191
101191
101191
101192
101192
101192
101193
101193
101193
101193
101194
101194
101194
101194
101194
101195
101195
101195
101195
101195
101195
101195
101119
101119
101119
101119
101119
101119
101119
101119
101119
101119
101119
101119
101119
101119
101119
101119
101119
101119
101119
101119
101119
101119
101119
101119
101119
101119
101119
101120
101120
101120
101120
101120
101121
101121
101121
101121
101122
101122
101123
101123
101123
101124
101124
101124
101125
101125
101126
101126
101126
101127
101127
101128
101128
101128
101129
101129
101129
101130
101130
101131
101131
101131
101132
101132
101132
101133
101133
101133
101134
101134
101134
101135
101135
101135
101135
101136
101136
101136
101136
101136
101136
101136
101136
101136
101058
101058
101058
101058
101058
101058
101058
101058
101058
101058
101058
101058
101058
101058
101058
101058
101058
101058
101058
101058
101059
101059
101059
101059
101059
101059
101059
101059
101059
101060
101060
101060
101061
101061
101061
101062
101062
101062
101063
101063
101064
101064
101065
101065
101065
101066
101066
101067
101067
101068
101068
101068
101069
101069
101070
101070
101070
101071
101071
101072
101072
101072
101073
101073
101074
101074
101074
101075
101075
101075
101076
101076
101076
101077
101077
101077
101077
101077
101078
101078
101078
101078
101078
101078
100998
100998
100998
100998
100998
100998
100998
100998
100998
100998
100998
100998
100998
100998
100998
100998
100998
100998
100998
100998
100998
100998
100999
100999
100999
100999
100999
100999
100999
101000
101000
101000
101001
101001
101001
101002
101002
101003
101003
101004
101004
101005
101005
101006
101006
101006
101007
101007
101008
101008
101009
101009
101010
101010
101011
101011
101011
101012
101012
101013
101013
101013
101014
101014
101015
101015
101016
101016
101016
101017
101017
101017
101018
101018
101018
101018
101019
101019
101019
101019
101019
101019
101019
101019
100938
100938
100937
100937
100937
100937
100937
100937
100937
100937
100937
100937
100937
100937
100937
100937
100937
100938
100938
100938
100938
100938
100938
100938
100938
100938
100939
100939
100939
100939
100940
100940
100941
100941
100941
100942
100942
100943
100943
100944
100944
100945
100946
100946
100947
100947
100948
100948
100949
100949
100950
100950
100951
100951
100951
100952
100952
100953
100953
100954
100954
100955
100955
100955
100956
100956
100957
100957
100958
100958
100958
100959
100959
100959
100960
100960
100960
100960
100961
100961
100961
100961
100961
100961
100877
100877
100877
100877
100877
100877
100877
100877
100877
100877
100877
100877
100877
100877
100877
100877
100877
100877
100877
100877
100877
100878
100878
100878
100878
100878
100878
100878
100879
100879
100880
100880
100880
100881
100881
100882
100883
100883
100884
100884
100885
100885
100886
100887
100887
100888
100888
100889
100889
100890
100890
100891
100891
100892
100892
100893
100893
100894
100894
100895
100895
100896
100896
100897
100897
100898
100898
100899
100899
100899
100900
100900
100901
100901
100901
100901
100902
100902
100902
100902
100902
100902
100902
100902
100817
100817
100817
100817
100817
100817
100817
100817
100817
100817
100817
100817
100817
100817
100817
100817
100817
100817
100817
100817
100817
100817
100817
100817
100817
100817
100818
100818
100819
100819
100819
100820
100820
100821
100821
100822
100823
100823
100824
100825
100825
100826
100827
100827
100828
100828
100829
100830
100830
100831
100831
100832
100832
100833
100833
100834
100834
100835
100835
100836
100836
100837
100837
100838
100838
100839
100839
100840
100840
100841
100841