/*--------------------------------*- C++ -*----------------------------------*\
  =========                 |
  \\      /  F ield         | OpenFOAM: The Open Source CFD Toolbox
   \\    /   O peration     | Website:  https://openfoam.org
    \\  /    A nd           | Version:  6
     \\/     M anipulation  |
\*---------------------------------------------------------------------------*/
FoamFile
{
    version     2.0;
    format      ascii;
    class       volScalarField;
    location    "360";
    object      T;
}
// * * * * * * * * * * * * * * * * * * * * * * * * * * * * * * * * * * * * * //

dimensions      [0 0 0 1 0 0 0];

internalField   nonuniform List<scalar> 
5964
(
310.516
309.593
308.775
308.073
307.478
306.968
306.522
306.121
305.751
305.398
305.05
304.704
304.361
304.022
303.672
303.74
303.802
303.856
303.904
303.944
303.979
304.008
304.031
304.048
304.062
304.07
304.075
304.075
304.073
304.067
304.058
304.046
304.033
304.017
304
303.982
303.962
303.941
303.919
303.897
303.874
303.851
303.828
303.804
303.78
303.757
303.733
303.71
303.686
303.663
303.639
303.616
303.593
303.57
303.547
303.525
303.502
303.48
303.457
303.435
303.413
303.391
303.369
303.347
303.325
303.303
303.281
303.259
303.238
303.216
303.194
303.173
303.151
303.129
303.108
303.086
303.065
303.044
303.022
303.001
302.981
302.962
302.948
302.939
310.515
309.587
308.755
308.038
307.432
306.918
306.477
306.087
305.728
305.386
305.048
304.709
304.37
304.031
303.678
303.746
303.807
303.861
303.908
303.949
303.983
304.011
304.033
304.051
304.063
304.072
304.076
304.076
304.073
304.067
304.058
304.047
304.033
304.017
304
303.982
303.962
303.941
303.919
303.897
303.874
303.851
303.828
303.804
303.78
303.757
303.733
303.71
303.686
303.663
303.639
303.616
303.593
303.57
303.547
303.525
303.502
303.48
303.457
303.435
303.413
303.391
303.369
303.347
303.325
303.303
303.281
303.259
303.238
303.216
303.194
303.173
303.151
303.129
303.108
303.086
303.065
303.044
303.022
303.001
302.981
302.962
302.948
302.939
310.509
309.562
308.704
307.962
307.342
306.826
306.394
306.022
305.683
305.36
305.04
304.716
304.385
304.047
303.69
303.758
303.819
303.873
303.918
303.957
303.99
304.017
304.038
304.055
304.067
304.074
304.078
304.078
304.074
304.068
304.059
304.047
304.033
304.018
304
303.982
303.962
303.941
303.919
303.897
303.874
303.851
303.828
303.804
303.78
303.757
303.733
303.71
303.686
303.663
303.639
303.616
303.593
303.57
303.548
303.525
303.502
303.48
303.457
303.435
303.413
303.391
303.369
303.347
303.325
303.303
303.281
303.259
303.238
303.216
303.194
303.173
303.151
303.129
303.108
303.086
303.065
303.044
303.022
303.001
302.981
302.962
302.947
302.938
310.496
309.523
308.641
307.879
307.251
306.739
306.317
305.957
305.636
305.334
305.035
304.728
304.407
304.07
303.707
303.777
303.838
303.89
303.934
303.97
304.001
304.026
304.046
304.061
304.071
304.078
304.081
304.08
304.076
304.069
304.06
304.048
304.034
304.018
304.001
303.982
303.962
303.941
303.919
303.897
303.874
303.851
303.828
303.804
303.78
303.757
303.733
303.71
303.686
303.663
303.64
303.616
303.593
303.57
303.548
303.525
303.502
303.48
303.458
303.435
303.413
303.391
303.369
303.347
303.325
303.303
303.281
303.26
303.238
303.216
303.194
303.173
303.151
303.13
303.108
303.087
303.065
303.044
303.022
303.001
302.981
302.962
302.945
302.933
310.484
309.487
308.582
307.809
307.181
306.679
306.269
305.924
305.619
305.333
305.049
304.755
304.441
304.103
303.734
303.805
303.864
303.913
303.954
303.988
304.015
304.038
304.055
304.069
304.078
304.083
304.085
304.083
304.079
304.071
304.061
304.049
304.035
304.019
304.001
303.982
303.962
303.941
303.919
303.897
303.874
303.851
303.828
303.804
303.78
303.757
303.733
303.71
303.686
303.663
303.64
303.617
303.594
303.571
303.548
303.525
303.503
303.48
303.458
303.436
303.413
303.391
303.369
303.347
303.325
303.303
303.282
303.26
303.238
303.216
303.195
303.173
303.151
303.13
303.108
303.087
303.065
303.044
303.022
303.001
302.981
302.96
302.938
302.917
310.469
309.451
308.541
307.772
307.153
306.662
306.268
305.94
305.649
305.373
305.098
304.808
304.494
304.152
303.772
303.844
303.9
303.944
303.98
304.009
304.033
304.052
304.067
304.078
304.085
304.089
304.09
304.087
304.082
304.073
304.063
304.05
304.035
304.019
304.001
303.982
303.962
303.941
303.919
303.897
303.874
303.851
303.827
303.804
303.78
303.757
303.733
303.71
303.686
303.663
303.64
303.617
303.594
303.571
303.548
303.525
303.503
303.48
303.458
303.436
303.414
303.392
303.369
303.347
303.326
303.304
303.282
303.26
303.238
303.216
303.195
303.173
303.151
303.13
303.108
303.087
303.065
303.044
303.023
303.001
302.98
302.957
302.928
302.893
310.469
309.446
308.535
307.777
307.171
306.696
306.322
306.012
305.734
305.463
305.187
304.888
304.566
304.217
303.827
303.897
303.946
303.983
304.011
304.034
304.053
304.068
304.08
304.088
304.094
304.096
304.095
304.091
304.085
304.076
304.065
304.051
304.036
304.02
304.002
303.982
303.962
303.941
303.919
303.897
303.874
303.851
303.827
303.804
303.78
303.757
303.733
303.71
303.687
303.663
303.64
303.617
303.594
303.571
303.548
303.526
303.503
303.481
303.458
303.436
303.414
303.392
303.37
303.348
303.326
303.304
303.282
303.26
303.238
303.217
303.195
303.173
303.152
303.13
303.108
303.087
303.065
303.044
303.023
303.001
302.98
302.957
302.932
302.908
310.486
309.483
308.573
307.82
307.228
306.774
306.423
306.131
305.862
305.592
305.306
304.995
304.666
304.311
303.908
303.97
304.004
304.027
304.046
304.061
304.075
304.086
304.094
304.1
304.103
304.103
304.101
304.096
304.088
304.079
304.067
304.053
304.037
304.02
304.002
303.982
303.962
303.941
303.919
303.896
303.874
303.851
303.827
303.804
303.781
303.757
303.734
303.71
303.687
303.664
303.64
303.617
303.594
303.572
303.549
303.526
303.504
303.481
303.459
303.437
303.414
303.392
303.37
303.348
303.326
303.304
303.282
303.26
303.239
303.217
303.195
303.173
303.152
303.13
303.109
303.087
303.066
303.044
303.023
303.001
302.98
302.958
302.936
302.919
310.485
309.488
308.602
307.876
307.313
306.888
306.562
306.288
306.023
305.747
305.45
305.129
304.795
304.44
304.04
304.067
304.072
304.076
304.082
304.09
304.097
304.104
304.109
304.112
304.112
304.111
304.107
304.101
304.092
304.081
304.069
304.054
304.038
304.021
304.002
303.983
303.962
303.941
303.919
303.896
303.874
303.851
303.827
303.804
303.781
303.757
303.734
303.71
303.687
303.664
303.641
303.618
303.595
303.572
303.549
303.527
303.504
303.482
303.459
303.437
303.415
303.393
303.37
303.348
303.326
303.305
303.283
303.261
303.239
303.217
303.195
303.174
303.152
303.13
303.109
303.087
303.066
303.044
303.023
303.001
302.98
302.958
302.938
302.925
310.482
309.493
308.637
307.95
307.426
307.033
306.733
306.469
306.207
305.924
305.616
305.279
304.932
304.591
304.295
304.183
304.139
304.122
304.117
304.117
304.119
304.122
304.123
304.124
304.122
304.119
304.113
304.105
304.096
304.084
304.071
304.056
304.039
304.021
304.002
303.983
303.962
303.94
303.919
303.896
303.873
303.85
303.827
303.804
303.781
303.757
303.734
303.711
303.687
303.664
303.641
303.618
303.595
303.572
303.55
303.527
303.504
303.482
303.46
303.437
303.415
303.393
303.371
303.349
303.327
303.305
303.283
303.261
303.239
303.217
303.196
303.174
303.152
303.131
303.109
303.088
303.066
303.045
303.023
303.002
302.98
302.959
302.94
302.928
310.486
309.522
308.706
308.059
307.572
307.208
306.928
306.671
306.411
306.12
305.793
305.429
305.05
304.685
304.379
304.239
304.181
304.156
304.145
304.141
304.139
304.139
304.137
304.135
304.132
304.126
304.119
304.11
304.099
304.087
304.072
304.057
304.04
304.022
304.003
303.983
303.962
303.94
303.918
303.896
303.873
303.85
303.827
303.804
303.781
303.757
303.734
303.711
303.688
303.664
303.641
303.618
303.596
303.573
303.55
303.528
303.505
303.483
303.46
303.438
303.416
303.393
303.371
303.349
303.327
303.305
303.283
303.262
303.24
303.218
303.196
303.174
303.153
303.131
303.109
303.088
303.066
303.045
303.023
303.002
302.98
302.959
302.94
302.929
310.505
309.582
308.811
308.206
307.75
307.408
307.146
306.895
306.633
306.327
305.975
305.578
305.152
304.714
304.305
304.221
304.191
304.176
304.167
304.161
304.158
304.154
304.151
304.146
304.14
304.133
304.125
304.114
304.102
304.089
304.074
304.058
304.041
304.022
304.003
303.982
303.962
303.94
303.918
303.896
303.873
303.85
303.827
303.804
303.781
303.758
303.734
303.711
303.688
303.665
303.642
303.619
303.596
303.573
303.551
303.528
303.506
303.483
303.461
303.438
303.416
303.394
303.372
303.35
303.328
303.306
303.284
303.262
303.24
303.218
303.196
303.175
303.153
303.131
303.11
303.088
303.067
303.045
303.023
303.002
302.98
302.959
302.94
302.929
310.532
309.665
308.945
308.38
307.953
307.631
307.383
307.135
306.867
306.547
306.17
305.738
305.258
304.708
303.935
304.15
304.187
304.189
304.184
304.179
304.174
304.169
304.163
304.156
304.149
304.14
304.13
304.118
304.105
304.091
304.076
304.059
304.041
304.022
304.003
303.982
303.961
303.94
303.918
303.895
303.873
303.85
303.827
303.804
303.781
303.758
303.735
303.711
303.688
303.665
303.642
303.619
303.597
303.574
303.551
303.529
303.506
303.484
303.461
303.439
303.417
303.395
303.372
303.35
303.328
303.306
303.284
303.262
303.241
303.219
303.197
303.175
303.153
303.132
303.11
303.088
303.067
303.045
303.024
303.002
302.981
302.959
302.941
302.93
310.567
309.763
309.091
308.563
308.166
307.865
307.624
307.379
307.105
306.774
306.378
305.923
305.422
304.885
304.339
304.236
304.212
304.206
304.202
304.196
304.189
304.182
304.174
304.165
304.156
304.146
304.134
304.122
304.108
304.093
304.077
304.06
304.041
304.022
304.003
303.982
303.961
303.939
303.917
303.895
303.873
303.85
303.827
303.804
303.781
303.758
303.735
303.712
303.689
303.666
303.643
303.62
303.597
303.575
303.552
303.529
303.507
303.484
303.462
303.44
303.417
303.395
303.373
303.351
303.329
303.307
303.285
303.263
303.241
303.219
303.197
303.175
303.154
303.132
303.11
303.089
303.067
303.046
303.024
303.002
302.981
302.96
302.942
302.931
310.602
309.865
309.248
308.762
308.391
308.103
307.863
307.616
307.333
306.993
306.587
306.12
305.61
305.083
304.586
304.249
304.221
304.223
304.22
304.213
304.204
304.194
304.184
304.173
304.162
304.151
304.138
304.125
304.11
304.094
304.078
304.06
304.041
304.022
304.002
303.982
303.961
303.939
303.917
303.895
303.872
303.85
303.827
303.804
303.781
303.758
303.735
303.712
303.689
303.666
303.644
303.621
303.598
303.575
303.553
303.53
303.508
303.485
303.463
303.44
303.418
303.396
303.374
303.352
303.329
303.307
303.285
303.263
303.241
303.22
303.198
303.176
303.154
303.132
303.111
303.089
303.067
303.046
303.024
303.003
302.981
302.96
302.942
302.931
310.638
309.966
309.403
308.96
308.613
308.335
308.09
307.835
307.544
307.199
306.79
306.314
305.791
305.253
304.697
303.988
304.205
304.245
304.243
304.231
304.218
304.205
304.193
304.18
304.168
304.155
304.141
304.127
304.111
304.095
304.078
304.06
304.041
304.022
304.002
303.981
303.96
303.939
303.917
303.895
303.872
303.85
303.827
303.804
303.781
303.759
303.736
303.713
303.69
303.667
303.644
303.621
303.599
303.576
303.553
303.531
303.508
303.486
303.464
303.441
303.419
303.397
303.374
303.352
303.33
303.308
303.286
303.264
303.242
303.22
303.198
303.176
303.155
303.133
303.111
303.089
303.068
303.046
303.024
303.003
302.981
302.96
302.942
302.93
310.672
310.063
309.551
309.148
308.82
308.546
308.292
308.027
307.724
307.367
306.942
306.453
305.929
305.406
304.902
304.445
304.354
304.308
304.276
304.251
304.231
304.214
304.199
304.185
304.172
304.158
304.143
304.128
304.112
304.095
304.078
304.06
304.041
304.021
304.001
303.98
303.959
303.938
303.916
303.894
303.872
303.85
303.827
303.804
303.782
303.759
303.736
303.713
303.691
303.668
303.645
303.622
303.6
303.577
303.554
303.532
303.509
303.487
303.464
303.442
303.42
303.397
303.375
303.353
303.331
303.309
303.287
303.265
303.243
303.221
303.199
303.177
303.155
303.133
303.111
303.09
303.068
303.046
303.025
303.003
302.981
302.96
302.942
302.931
310.702
310.145
309.676
309.308
308.995
308.716
308.446
308.162
307.843
307.475
307.045
306.555
306.031
305.511
305.036
304.658
304.466
304.362
304.303
304.267
304.241
304.221
304.204
304.189
304.174
304.159
304.144
304.128
304.112
304.095
304.077
304.059
304.04
304.02
304
303.98
303.959
303.937
303.916
303.894
303.872
303.85
303.827
303.805
303.782
303.759
303.737
303.714
303.691
303.669
303.646
303.623
303.6
303.578
303.555
303.533
303.51
303.488
303.465
303.443
303.421
303.398
303.376
303.354
303.332
303.309
303.287
303.265
303.243
303.221
303.199
303.177
303.155
303.134
303.112
303.09
303.068
303.047
303.025
303.003
302.981
302.96
302.942
302.93
310.727
310.211
309.77
309.424
309.116
308.826
308.538
308.237
307.906
307.529
307.095
306.607
306.082
305.555
305.079
304.715
304.501
304.381
304.314
304.273
304.246
304.225
304.207
304.19
304.175
304.159
304.143
304.127
304.111
304.094
304.076
304.057
304.038
304.019
303.999
303.979
303.958
303.937
303.915
303.894
303.872
303.85
303.827
303.805
303.782
303.76
303.737
303.715
303.692
303.669
303.647
303.624
303.601
303.579
303.556
303.534
303.511
303.489
303.466
303.444
303.421
303.399
303.377
303.355
303.332
303.31
303.288
303.266
303.244
303.222
303.2
303.178
303.156
303.134
303.112
303.091
303.069
303.047
303.025
303.003
302.981
302.959
302.94
302.929
310.746
310.259
309.831
309.478
309.162
308.862
308.563
308.251
307.912
307.53
307.088
306.588
306.052
305.513
305.021
304.642
304.453
304.357
304.304
304.27
304.245
304.224
304.206
304.19
304.173
304.158
304.142
304.125
304.109
304.092
304.074
304.056
304.037
304.017
303.998
303.978
303.957
303.936
303.915
303.893
303.872
303.85
303.828
303.805
303.783
303.761
303.738
303.715
303.693
303.67
303.648
303.625
303.602
303.58
303.557
303.535
303.512
303.49
303.467
303.445
303.422
303.4
303.378
303.355
303.333
303.311
303.289
303.267
303.244
303.222
303.2
303.178
303.156
303.135
303.113
303.091
303.069
303.047
303.026
303.003
302.981
302.959
302.939
302.926
310.756
310.286
309.859
309.478
309.142
308.83
308.522
308.203
307.863
307.484
307.05
306.552
305.999
305.427
304.877
304.404
304.327
304.301
304.28
304.259
304.24
304.221
304.204
304.187
304.171
304.155
304.139
304.122
304.106
304.089
304.071
304.053
304.035
304.016
303.996
303.976
303.956
303.935
303.914
303.893
303.872
303.85
303.828
303.806
303.784
303.761
303.739
303.716
303.694
303.671
303.649
303.626
303.603
303.581
303.558
303.536
303.513
303.491
303.468
303.446
303.423
303.401
303.379
303.356
303.334
303.312
303.289
303.267
303.245
303.223
303.201
303.179
303.157
303.135
303.113
303.091
303.07
303.048
303.026
303.004
302.981
302.958
302.938
302.924
310.759
310.291
309.852
309.438
309.078
308.749
308.429
308.103
307.761
307.382
306.949
306.451
305.901
305.322
304.686
303.814
304.163
304.247
304.259
304.25
304.234
304.217
304.199
304.182
304.166
304.15
304.134
304.118
304.102
304.085
304.068
304.051
304.032
304.014
303.995
303.975
303.955
303.935
303.914
303.893
303.872
303.85
303.828
303.806
303.784
303.762
303.74
303.717
303.695
303.672
303.65
303.627
303.605
303.582
303.559
303.537
303.514
303.492
303.469
303.447
303.424
303.402
303.379
303.357
303.335
303.312
303.29
303.268
303.246
303.224
303.202
303.179
303.157
303.136
303.114
303.092
303.07
303.048
303.026
303.004
302.981
302.958
302.936
302.922
310.758
310.282
309.822
309.37
308.975
308.618
308.28
307.948
307.612
307.252
306.845
306.378
305.86
305.313
304.769
304.269
304.247
304.261
304.26
304.248
304.23
304.211
304.193
304.176
304.159
304.143
304.128
304.113
304.097
304.081
304.064
304.047
304.03
304.012
303.993
303.974
303.954
303.934
303.914
303.893
303.872
303.85
303.829
303.807
303.785
303.763
303.741
303.718
303.696
303.674
303.651
303.628
303.606
303.583
303.561
303.538
303.516
303.493
303.47
303.448
303.425
303.403
303.38
303.358
303.336
303.313
303.291
303.269
303.246
303.224
303.202
303.18
303.158
303.136
303.114
303.092
303.07
303.048
303.026
303.004
302.981
302.957
302.935
302.919
310.753
310.262
309.774
309.284
308.841
308.444
308.082
307.746
307.424
307.09
306.72
306.294
305.818
305.319
304.822
304.305
304.306
304.294
304.274
304.251
304.227
304.205
304.185
304.167
304.15
304.135
304.12
304.106
304.091
304.076
304.06
304.044
304.027
304.009
303.991
303.972
303.953
303.934
303.913
303.893
303.872
303.851
303.83
303.808
303.786
303.764
303.742
303.72
303.697
303.675
303.652
303.63
303.607
303.585
303.562
303.539
303.517
303.494
303.472
303.449
303.426
303.404
303.381
303.359
303.337
303.314
303.292
303.269
303.247
303.225
303.203
303.181
303.159
303.136
303.114
303.093
303.071
303.049
303.027
303.004
302.981
302.957
302.934
302.918
310.747
310.238
309.717
309.18
308.685
308.241
307.853
307.514
307.21
306.91
306.575
306.19
305.766
305.328
304.887
304.399
304.382
304.338
304.294
304.255
304.223
304.196
304.174
304.155
304.139
304.125
304.111
304.098
304.084
304.07
304.055
304.04
304.024
304.007
303.989
303.971
303.952
303.933
303.913
303.893
303.873
303.852
303.83
303.809
303.787
303.765
303.743
303.721
303.699
303.676
303.654
303.631
303.609
303.586
303.563
303.541
303.518
303.495
303.473
303.45
303.428
303.405
303.382
303.36
303.337
303.315
303.293
303.27
303.248
303.226
303.203
303.181
303.159
303.137
303.115
303.093
303.071
303.049
303.027
303.004
302.981
302.957
302.934
302.918
310.737
310.204
309.644
309.053
308.504
308.018
307.607
307.266
306.981
306.718
306.425
306.085
305.715
305.337
304.973
304.643
304.485
304.383
304.309
304.254
304.213
304.182
304.158
304.14
304.125
304.112
304.1
304.088
304.076
304.063
304.05
304.036
304.021
304.005
303.988
303.97
303.952
303.933
303.914
303.894
303.873
303.852
303.831
303.81
303.788
303.767
303.745
303.722
303.7
303.678
303.655
303.633
303.61
303.587
303.565
303.542
303.519
303.497
303.474
303.451
303.429
303.406
303.384
303.361
303.338
303.316
303.293
303.271
303.249
303.226
303.204
303.182
303.16
303.137
303.115
303.093
303.071
303.049
303.027
303.004
302.981
302.958
302.934
302.918
310.726
310.164
309.563
308.917
308.315
307.787
307.355
307.014
306.748
306.52
306.268
305.974
305.652
305.324
305.01
304.734
304.54
304.405
304.31
304.242
304.194
304.161
304.137
304.12
304.107
304.096
304.087
304.077
304.067
304.056
304.045
304.032
304.017
304.002
303.986
303.969
303.951
303.933
303.914
303.894
303.874
303.854
303.833
303.811
303.79
303.768
303.746
303.724
303.702
303.679
303.657
303.634
303.612
303.589
303.566
303.544
303.521
303.498
303.475
303.453
303.43
303.407
303.385
303.362
303.339
303.317
303.294
303.272
303.249
303.227
303.205
303.182
303.16
303.138
303.116
303.094
303.071
303.049
303.027
303.004
302.982
302.958
302.935
302.92
310.712
310.116
309.473
308.772
308.118
307.553
307.102
306.763
306.517
306.318
306.107
305.855
305.574
305.282
304.999
304.746
304.543
304.394
304.287
304.213
304.163
304.13
304.109
304.095
304.085
304.078
304.072
304.065
304.058
304.049
304.039
304.027
304.015
304
303.985
303.969
303.951
303.933
303.915
303.895
303.875
303.855
303.834
303.813
303.792
303.77
303.748
303.726
303.704
303.681
303.659
303.636
303.613
303.591
303.568
303.545
303.522
303.5
303.477
303.454
303.431
303.408
303.386
303.363
303.34
303.318
303.295
303.273
303.25
303.228
303.205
303.183
303.161
303.138
303.116
303.094
303.072
303.049
303.027
303.005
302.982
302.959
302.937
302.92
310.695
310.062
309.371
308.618
307.919
307.33
306.872
306.537
306.303
306.122
305.941
305.727
305.482
305.217
304.952
304.707
304.501
304.346
304.237
304.163
304.116
304.088
304.072
304.064
304.06
304.057
304.055
304.052
304.048
304.041
304.033
304.023
304.012
303.999
303.984
303.969
303.952
303.934
303.916
303.897
303.877
303.857
303.836
303.815
303.793
303.772
303.75
303.728
303.705
303.683
303.66
303.638
303.615
303.592
303.569
303.547
303.524
303.501
303.478
303.455
303.432
303.41
303.387
303.364
303.341
303.319
303.296
303.274
303.251
303.228
303.206
303.184
303.161
303.139
303.116
303.094
303.072
303.05
303.027
303.005
302.982
302.959
302.935
302.914
310.676
310.007
309.284
308.503
307.767
307.151
306.683
306.348
306.115
305.938
305.774
305.59
305.373
305.13
304.875
304.628
304.417
304.261
304.156
304.09
304.053
304.035
304.028
304.028
304.031
304.035
304.038
304.039
304.038
304.034
304.028
304.02
304.01
303.998
303.984
303.969
303.953
303.935
303.917
303.898
303.879
303.859
303.838
303.817
303.795
303.774
303.752
303.73
303.707
303.685
303.662
303.64
303.617
303.594
303.571
303.548
303.525
303.502
303.48
303.457
303.434
303.411
303.388
303.365
303.342
303.32
303.297
303.274
303.252
303.229
303.207
303.184
303.162
303.139
303.117
303.095
303.072
303.05
303.027
303.005
302.982
302.959
302.932
302.907
310.658
309.95
309.185
308.367
307.615
307.001
306.544
306.214
305.977
305.792
305.625
305.452
305.255
305.027
304.775
304.514
304.288
304.134
304.042
303.994
303.974
303.971
303.977
303.988
304
304.011
304.02
304.026
304.028
304.027
304.024
304.017
304.008
303.997
303.985
303.97
303.954
303.937
303.919
303.9
303.881
303.861
303.84
303.819
303.798
303.776
303.754
303.732
303.71
303.687
303.664
303.642
303.619
303.596
303.573
303.55
303.527
303.504
303.481
303.458
303.435
303.412
303.389
303.366
303.344
303.321
303.298
303.275
303.253
303.23
303.207
303.185
303.162
303.14
303.117
303.095
303.072
303.05
303.028
303.005
302.983
302.961
302.938
302.919
310.641
309.896
309.098
308.263
307.508
306.906
306.465
306.15
305.914
305.719
305.538
305.354
305.154
304.925
304.663
304.365
304.099
303.955
303.892
303.873
303.88
303.898
303.922
303.946
303.968
303.987
304.003
304.013
304.02
304.022
304.021
304.016
304.008
303.998
303.986
303.972
303.956
303.94
303.922
303.903
303.884
303.863
303.843
303.822
303.8
303.779
303.757
303.734
303.712
303.689
303.666
303.644
303.621
303.598
303.575
303.552
303.529
303.506
303.483
303.459
303.436
303.413
303.39
303.368
303.345
303.322
303.299
303.276
303.253
303.231
303.208
303.185
303.163
303.14
303.118
303.095
303.073
303.05
303.028
303.005
302.984
302.962
302.943
302.929
310.623
309.846
309.026
308.189
307.439
306.858
306.443
306.146
305.919
305.721
305.53
305.33
305.11
304.861
304.563
304.191
303.811
303.71
303.705
303.734
303.777
303.822
303.866
303.905
303.938
303.966
303.987
304.003
304.013
304.018
304.019
304.016
304.009
304
303.988
303.974
303.959
303.943
303.925
303.906
303.887
303.866
303.846
303.825
303.803
303.781
303.759
303.737
303.714
303.692
303.669
303.646
303.623
303.6
303.577
303.553
303.53
303.507
303.484
303.461
303.438
303.415
303.392
303.369
303.346
303.323
303.3
303.277
303.254
303.231
303.209
303.186
303.163
303.141
303.118
303.096
303.073
303.05
303.028
303.006
302.984
302.963
302.943
302.929
310.6
309.778
308.923
308.094
307.392
306.862
306.482
306.215
306.009
305.824
305.632
305.42
305.177
304.893
304.535
304.036
303.283
303.386
303.492
303.587
303.674
303.75
303.814
303.868
303.912
303.948
303.975
303.996
304.009
304.017
304.019
304.017
304.012
304.003
303.992
303.978
303.963
303.946
303.928
303.91
303.89
303.87
303.849
303.828
303.806
303.784
303.762
303.739
303.717
303.694
303.671
303.648
303.625
303.602
303.578
303.555
303.532
303.509
303.486
303.462
303.439
303.416
303.393
303.37
303.347
303.324
303.301
303.278
303.255
303.232
303.209
303.187
303.164
303.141
303.118
303.096
303.073
303.051
303.028
303.006
302.984
302.962
302.938
302.911
310.58
309.734
308.895
308.101
307.422
306.918
306.571
306.342
306.168
306.011
305.842
305.644
305.403
305.105
304.736
304.281
303.687
303.071
303.3
303.452
303.587
303.693
303.775
303.84
303.893
303.936
303.969
303.993
304.009
304.018
304.022
304.021
304.016
304.008
303.996
303.983
303.968
303.951
303.933
303.914
303.894
303.874
303.853
303.831
303.809
303.787
303.765
303.742
303.719
303.696
303.673
303.65
303.627
303.604
303.58
303.557
303.534
303.51
303.487
303.464
303.441
303.417
303.394
303.371
303.348
303.325
303.302
303.279
303.256
303.233
303.21
303.187
303.164
303.142
303.119
303.096
303.074
303.051
303.029
303.007
302.984
302.961
302.928
302.871
310.581
309.738
308.899
308.111
307.456
306.989
306.689
306.508
306.378
306.263
306.135
305.974
305.762
305.484
305.142
304.734
304.263
303.747
303.193
303.346
303.536
303.663
303.754
303.827
303.886
303.932
303.968
303.995
304.013
304.023
304.028
304.027
304.022
304.014
304.002
303.989
303.973
303.956
303.938
303.918
303.898
303.878
303.856
303.835
303.813
303.79
303.768
303.745
303.722
303.699
303.676
303.653
303.629
303.606
303.582
303.559
303.536
303.512
303.489
303.465
303.442
303.419
303.395
303.372
303.349
303.326
303.303
303.28
303.257
303.234
303.211
303.188
303.165
303.142
303.119
303.097
303.074
303.051
303.029
303.007
302.985
302.963
302.939
302.911
310.57
309.709
308.87
308.113
307.51
307.092
306.838
306.701
306.616
306.546
306.47
306.355
306.188
305.949
305.65
305.279
304.846
304.307
303.725
303.226
303.556
303.677
303.76
303.831
303.891
303.939
303.976
304.003
304.022
304.033
304.037
304.036
304.031
304.022
304.01
303.996
303.979
303.962
303.943
303.924
303.903
303.882
303.861
303.839
303.816
303.794
303.771
303.748
303.725
303.702
303.678
303.655
303.631
303.608
303.584
303.561
303.537
303.514
303.49
303.467
303.443
303.42
303.397
303.373
303.35
303.327
303.304
303.28
303.257
303.234
303.211
303.188
303.165
303.143
303.12
303.097
303.074
303.051
303.029
303.007
302.985
302.963
302.942
302.924
310.558
309.684
308.855
308.133
307.582
307.216
307.006
306.907
306.862
306.835
306.804
306.737
306.622
306.423
306.174
305.841
305.439
304.936
304.417
303.95
303.783
303.742
303.791
303.855
303.912
303.958
303.993
304.019
304.036
304.046
304.049
304.047
304.041
304.031
304.019
304.004
303.987
303.969
303.949
303.929
303.908
303.887
303.865
303.843
303.82
303.797
303.774
303.751
303.728
303.704
303.681
303.657
303.634
303.61
303.586
303.563
303.539
303.515
303.492
303.468
303.445
303.421
303.398
303.374
303.351
303.328
303.304
303.281
303.258
303.235
303.212
303.189
303.166
303.143
303.12
303.097
303.074
303.052
303.029
303.007
302.985
302.962
302.94
302.923
310.552
309.678
308.87
308.187
307.68
307.353
307.177
307.109
307.097
307.108
307.11
307.085
307.021
306.865
306.664
306.376
306.008
305.547
305.027
304.481
303.928
303.759
303.827
303.897
303.949
303.989
304.02
304.042
304.056
304.064
304.065
304.062
304.054
304.043
304.029
304.013
303.995
303.976
303.956
303.935
303.914
303.892
303.87
303.847
303.824
303.801
303.778
303.754
303.731
303.707
303.683
303.66
303.636
303.612
303.588
303.565
303.541
303.517
303.493
303.47
303.446
303.422
303.399
303.375
303.352
303.329
303.305
303.282
303.259
303.236
303.213
303.189
303.166
303.143
303.12
303.097
303.075
303.052
303.029
303.007
302.984
302.962
302.94
302.925
310.555
309.692
308.91
308.264
307.794
307.497
307.347
307.302
307.314
307.355
307.386
307.39
307.368
307.258
307.1
306.856
306.523
306.1
305.596
305.027
304.38
303.604
303.887
303.968
304.006
304.034
304.056
304.072
304.082
304.086
304.085
304.079
304.069
304.056
304.04
304.023
304.004
303.984
303.963
303.942
303.919
303.897
303.874
303.851
303.828
303.805
303.781
303.758
303.734
303.71
303.686
303.662
303.638
303.614
303.59
303.566
303.543
303.519
303.495
303.471
303.447
303.424
303.4
303.377
303.353
303.33
303.306
303.283
303.26
303.236
303.213
303.19
303.167
303.144
303.121
303.098
303.075
303.052
303.029
303.006
302.984
302.961
302.941
302.927
310.567
309.726
308.967
308.348
307.907
307.638
307.512
307.481
307.511
307.571
307.63
307.652
307.659
307.595
307.472
307.273
306.978
306.59
306.109
305.548
304.93
304.344
304.151
304.093
304.082
304.089
304.099
304.109
304.113
304.113
304.108
304.098
304.086
304.07
304.053
304.034
304.013
303.992
303.97
303.948
303.925
303.902
303.879
303.856
303.832
303.808
303.785
303.761
303.737
303.713
303.689
303.665
303.64
303.616
303.592
303.568
303.544
303.52
303.496
303.473
303.449
303.425
303.401
303.378
303.354
303.33
303.307
303.284
303.26
303.237
303.214
303.191
303.167
303.144
303.121
303.098
303.075
303.052
303.029
303.006
302.983
302.961
302.942
302.929
310.572
309.75
309.024
308.44
308.028
307.782
307.672
307.651
307.691
307.762
307.838
307.88
307.904
307.88
307.79
307.63
307.372
307.017
306.56
306.01
305.392
304.763
304.313
304.192
304.154
304.146
304.148
304.15
304.149
304.143
304.134
304.12
304.104
304.086
304.066
304.045
304.023
304.001
303.978
303.955
303.931
303.908
303.884
303.86
303.836
303.812
303.788
303.764
303.74
303.715
303.691
303.667
303.643
303.618
303.594
303.57
303.546
303.522
303.498
303.474
303.45
303.426
303.402
303.379
303.355
303.331
303.308
303.284
303.261
303.238
303.214
303.191
303.168
303.145
303.122
303.098
303.075
303.052
303.029
303.006
302.984
302.962
302.944
302.932
310.584
309.793
309.1
308.546
308.159
307.93
307.827
307.811
307.855
307.931
308.017
308.078
308.116
308.12
308.065
307.943
307.726
307.399
306.959
306.409
305.762
305.031
304.199
304.234
304.21
304.201
304.199
304.196
304.189
304.177
304.162
304.144
304.124
304.103
304.08
304.057
304.034
304.01
303.986
303.962
303.937
303.913
303.889
303.865
303.84
303.816
303.791
303.767
303.743
303.718
303.694
303.669
303.645
303.62
303.596
303.572
303.548
303.523
303.499
303.475
303.451
303.427
303.403
303.38
303.356
303.332
303.309
303.285
303.262
303.238
303.215
303.192
303.168
303.145
303.122
303.099
303.076
303.052
303.029
303.006
302.984
302.963
302.945
302.932
310.601
309.84
309.175
308.65
308.286
308.07
307.976
307.965
308.009
308.083
308.172
308.248
308.302
308.326
308.3
308.209
308.025
307.73
307.314
306.77
306.108
305.368
304.68
304.345
304.262
304.254
304.253
304.246
304.233
304.215
304.193
304.17
304.145
304.12
304.095
304.069
304.044
304.019
303.993
303.968
303.943
303.918
303.894
303.869
303.844
303.819
303.795
303.77
303.745
303.721
303.696
303.672
303.647
303.622
303.598
303.574
303.549
303.525
303.501
303.477
303.452
303.428
303.404
303.381
303.357
303.333
303.309
303.286
303.262
303.239
303.215
303.192
303.169
303.145
303.122
303.099
303.076
303.053
303.03
303.007
302.985
302.964
302.942
302.916
310.616
309.884
309.249
308.753
308.41
308.209
308.121
308.113
308.157
308.229
308.316
308.4
308.466
308.506
308.506
308.445
308.297
308.04
307.655
307.126
306.461
305.683