/*--------------------------------*- C++ -*----------------------------------*\
  =========                 |
  \\      /  F ield         | OpenFOAM: The Open Source CFD Toolbox
   \\    /   O peration     | Website:  https://openfoam.org
    \\  /    A nd           | Version:  6
     \\/     M anipulation  |
\*---------------------------------------------------------------------------*/
FoamFile
{
    version     2.0;
    format      ascii;
    class       volVectorField;
    location    "360";
    object      U;
}
// * * * * * * * * * * * * * * * * * * * * * * * * * * * * * * * * * * * * * //

dimensions      [0 1 -1 0 0 0 0];

internalField   nonuniform List<vector> 
5964
(
(-0.00125873 0 0.000338943)
(-0.00160889 0 0.000189113)
(-0.00163041 0 -0.000162499)
(-0.00106371 0 -0.000496953)
(-0.00061694 0 -0.000368038)
(-0.000310946 0 -8.59535e-05)
(0.000111292 0 -0.000146945)
(0.000212865 0 0.000141651)
(-0.000101184 0 -0.000547723)
(0.000127592 0 -0.00019278)
(0.00016746 0 -6.57267e-05)
(-0.000431656 0 -0.000466705)
(-0.00101679 0 -0.000373468)
(-4.72569e-06 0 -0.000603518)
(7.33241e-09 0 1.33321e-08)
(3.37977e-09 0 9.60197e-10)
(5.24126e-09 0 4.89948e-10)
(4.3955e-09 0 3.02694e-10)
(3.845e-09 0 2.12968e-10)
(3.44378e-09 0 1.62754e-10)
(3.12986e-09 0 1.31164e-10)
(2.87274e-09 0 1.09555e-10)
(2.65545e-09 0 9.38674e-11)
(2.46762e-09 0 8.19763e-11)
(2.30245e-09 0 7.26648e-11)
(2.15523e-09 0 6.51839e-11)
(2.02256e-09 0 5.90457e-11)
(1.90194e-09 0 5.39184e-11)
(1.79145e-09 0 4.95686e-11)
(1.6896e-09 0 4.58277e-11)
(1.59524e-09 0 4.25714e-11)
(1.50742e-09 0 3.97063e-11)
(1.42539e-09 0 3.71611e-11)
(1.34852e-09 0 3.48808e-11)
(1.27628e-09 0 3.28223e-11)
(1.20824e-09 0 3.09514e-11)
(1.14403e-09 0 2.92406e-11)
(1.08332e-09 0 2.76679e-11)
(1.02585e-09 0 2.62152e-11)
(9.71368e-10 0 2.48674e-11)
(9.19664e-10 0 2.36122e-11)
(8.70553e-10 0 2.24391e-11)
(8.23867e-10 0 2.13393e-11)
(7.79457e-10 0 2.03054e-11)
(7.3719e-10 0 1.9331e-11)
(6.96943e-10 0 1.84105e-11)
(6.58607e-10 0 1.75394e-11)
(6.22081e-10 0 1.67134e-11)
(5.87271e-10 0 1.5929e-11)
(5.54092e-10 0 1.51832e-11)
(5.22465e-10 0 1.44731e-11)
(4.92316e-10 0 1.37964e-11)
(4.63576e-10 0 1.3151e-11)
(4.3618e-10 0 1.25351e-11)
(4.10067e-10 0 1.1947e-11)
(3.85179e-10 0 1.13854e-11)
(3.61462e-10 0 1.08489e-11)
(3.38862e-10 0 1.03365e-11)
(3.1733e-10 0 9.84716e-12)
(2.96817e-10 0 9.38008e-12)
(2.77278e-10 0 8.93448e-12)
(2.58666e-10 0 8.50972e-12)
(2.40938e-10 0 8.1052e-12)
(2.24051e-10 0 7.72042e-12)
(2.07965e-10 0 7.35494e-12)
(1.92638e-10 0 7.00838e-12)
(1.78031e-10 0 6.6804e-12)
(1.64104e-10 0 6.3707e-12)
(1.50819e-10 0 6.07901e-12)
(1.38137e-10 0 5.80512e-12)
(1.26021e-10 0 5.54881e-12)
(1.14433e-10 0 5.30988e-12)
(1.03338e-10 0 5.08815e-12)
(9.26973e-11 0 4.88341e-12)
(8.24765e-11 0 4.69542e-12)
(7.26396e-11 0 4.52385e-12)
(6.31523e-11 0 4.36821e-12)
(5.39813e-11 0 4.2277e-12)
(4.50956e-11 0 4.10117e-12)
(3.64668e-11 0 3.98731e-12)
(2.80687e-11 0 3.88543e-12)
(1.98738e-11 0 3.79719e-12)
(1.18468e-11 0 3.72846e-12)
(3.93506e-12 0 3.68951e-12)
(-0.00122292 0 0.00137726)
(-0.00112961 0 0.000638085)
(-0.00126088 0 -0.000208819)
(-0.00115679 0 -0.000625725)
(-0.000423993 0 -0.00115628)
(-0.000842171 0 -0.000661524)
(-0.000432005 0 -0.000734748)
(0.000483453 0 0.00044444)
(-4.46785e-05 0 -0.000531592)
(0.000281168 0 0.000153006)
(0.000248123 0 0.000434607)
(1.79022e-06 0 0.000554149)
(-0.000695601 0 0.00020303)
(-3.22861e-06 0 -0.000804473)
(4.83197e-09 0 2.69097e-08)
(2.76423e-09 0 2.03903e-09)
(4.62392e-09 0 1.22085e-09)
(4.13502e-09 0 8.22146e-10)
(3.71312e-09 0 6.03996e-10)
(3.3665e-09 0 4.71739e-10)
(3.07949e-09 0 3.84586e-10)
(2.83737e-09 0 3.23343e-10)
(2.62928e-09 0 2.78162e-10)
(2.44751e-09 0 2.43571e-10)
(2.28655e-09 0 2.16307e-10)
(2.14236e-09 0 1.94304e-10)
(2.01197e-09 0 1.7619e-10)
(1.89307e-09 0 1.61022e-10)
(1.78393e-09 0 1.48128e-10)
(1.68316e-09 0 1.37022e-10)
(1.58966e-09 0 1.27341e-10)
(1.50255e-09 0 1.18814e-10)
(1.4211e-09 0 1.11232e-10)
(1.34471e-09 0 1.04433e-10)
(1.27288e-09 0 9.82911e-11)
(1.20518e-09 0 9.27056e-11)
(1.14127e-09 0 8.75956e-11)
(1.08082e-09 0 8.28957e-11)
(1.02357e-09 0 7.85523e-11)
(9.69281e-10 0 7.45214e-11)
(9.17748e-10 0 7.07659e-11)
(8.68788e-10 0 6.72551e-11)
(8.22235e-10 0 6.39629e-11)
(7.77945e-10 0 6.08671e-11)
(7.35785e-10 0 5.79488e-11)
(6.95636e-10 0 5.51917e-11)
(6.57387e-10 0 5.25817e-11)
(6.20941e-10 0 5.01066e-11)
(5.86205e-10 0 4.77559e-11)
(5.53094e-10 0 4.55203e-11)
(5.2153e-10 0 4.33917e-11)
(4.9144e-10 0 4.1363e-11)
(4.62754e-10 0 3.9428e-11)
(4.3541e-10 0 3.75813e-11)
(4.09346e-10 0 3.58179e-11)
(3.84505e-10 0 3.41337e-11)
(3.60832e-10 0 3.25249e-11)
(3.38275e-10 0 3.09882e-11)
(3.16784e-10 0 2.95208e-11)
(2.96311e-10 0 2.812e-11)
(2.76809e-10 0 2.67836e-11)
(2.58235e-10 0 2.55097e-11)
(2.40543e-10 0 2.42965e-11)
(2.23693e-10 0 2.31425e-11)
(2.07642e-10 0 2.20464e-11)
(1.92349e-10 0 2.1007e-11)
(1.77776e-10 0 2.00234e-11)
(1.63882e-10 0 1.90946e-11)
(1.50629e-10 0 1.82199e-11)
(1.3798e-10 0 1.73986e-11)
(1.25896e-10 0 1.663e-11)
(1.14341e-10 0 1.59136e-11)
(1.03277e-10 0 1.52487e-11)
(9.26672e-11 0 1.46349e-11)
(8.24767e-11 0 1.40714e-11)
(7.26696e-11 0 1.35573e-11)
(6.32109e-11 0 1.30911e-11)
(5.40667e-11 0 1.26709e-11)
(4.5204e-11 0 1.22939e-11)
(3.65909e-11 0 1.19569e-11)
(2.81958e-11 0 1.16588e-11)
(1.9986e-11 0 1.14037e-11)
(1.19245e-11 0 1.12063e-11)
(3.96289e-12 0 1.10943e-11)
(-0.000841205 0 0.0023499)
(-0.00106178 0 0.00114686)
(-0.00148113 0 0.000374953)
(-0.00209035 0 -0.000218189)
(-0.00230167 0 -8.9606e-05)
(-0.00225069 0 -0.000687953)
(-0.00230622 0 -0.00050932)
(-0.00152109 0 -0.00122191)
(-0.000433561 0 -0.000983428)
(-0.000252001 0 0.000303591)
(0.000271176 0 0.000417827)
(-6.88199e-05 0 0.000682329)
(4.88113e-06 0 0.000233238)
(-6.27798e-07 0 -0.0010367)
(4.01668e-09 0 2.74274e-08)
(2.37751e-09 0 2.17953e-09)
(4.09858e-09 0 1.58279e-09)
(3.8156e-09 0 1.18268e-09)
(3.51513e-09 0 9.19349e-10)
(3.23692e-09 0 7.40924e-10)
(2.98977e-09 0 6.15095e-10)
(2.77218e-09 0 5.22885e-10)
(2.58004e-09 0 4.53034e-10)
(2.40917e-09 0 3.98624e-10)
(2.25594e-09 0 3.55233e-10)
(2.11743e-09 0 3.19922e-10)
(1.99129e-09 0 2.90672e-10)
(1.87568e-09 0 2.66061e-10)
(1.76909e-09 0 2.4506e-10)
(1.67036e-09 0 2.26913e-10)
(1.57849e-09 0 2.11054e-10)
(1.49272e-09 0 1.97054e-10)
(1.41237e-09 0 1.84582e-10)
(1.3369e-09 0 1.73382e-10)
(1.26585e-09 0 1.6325e-10)
(1.19882e-09 0 1.54025e-10)
(1.13547e-09 0 1.45577e-10)
(1.07551e-09 0 1.37801e-10)
(1.01869e-09 0 1.30608e-10)
(9.64777e-10 0 1.23929e-10)
(9.13574e-10 0 1.17702e-10)
(8.64907e-10 0 1.11878e-10)
(8.18616e-10 0 1.06414e-10)
(7.74561e-10 0 1.01274e-10)
(7.32613e-10 0 9.6427e-11)
(6.92655e-10 0 9.18459e-11)
(6.54583e-10 0 8.7508e-11)
(6.18297e-10 0 8.33932e-11)
(5.83708e-10 0 7.94843e-11)
(5.50734e-10 0 7.57659e-11)
(5.19298e-10 0 7.22248e-11)
(4.89326e-10 0 6.88493e-11)
(4.60753e-10 0 6.56293e-11)
(4.33514e-10 0 6.25556e-11)
(4.07549e-10 0 5.96204e-11)
(3.82803e-10 0 5.68166e-11)
(3.5922e-10 0 5.41381e-11)
(3.3675e-10 0 5.15794e-11)
(3.15342e-10 0 4.91358e-11)
(2.9495e-10 0 4.68031e-11)
(2.75526e-10 0 4.45775e-11)
(2.57028e-10 0 4.24558e-11)
(2.3941e-10 0 4.04351e-11)
(2.22632e-10 0 3.8513e-11)
(2.06651e-10 0 3.66872e-11)
(1.91428e-10 0 3.49559e-11)
(1.76923e-10 0 3.33175e-11)
(1.63097e-10 0 3.17703e-11)
(1.49911e-10 0 3.03133e-11)
(1.37327e-10 0 2.89451e-11)
(1.25309e-10 0 2.76649e-11)
(1.13817e-10 0 2.64717e-11)
(1.02817e-10 0 2.53645e-11)
(9.22698e-11 0 2.43424e-11)
(8.2141e-11 0 2.34043e-11)
(7.23942e-11 0 2.25488e-11)
(6.2994e-11 0 2.17739e-11)
(5.39053e-11 0 2.1077e-11)
(4.50934e-11 0 2.04547e-11)
(3.65235e-11 0 1.99036e-11)
(2.81605e-11 0 1.94226e-11)
(1.99697e-11 0 1.90163e-11)
(1.19183e-11 0 1.8701e-11)
(3.96172e-12 0 1.85237e-11)
(-0.00131809 0 0.00299926)
(-0.00118015 0 0.00168129)
(-0.00189146 0 0.000733406)
(-0.00285237 0 -0.000267354)
(-0.0030866 0 -0.000579825)
(-0.00321277 0 -0.000732987)
(-0.0032685 0 -0.000833734)
(-0.00304631 0 -1.81027e-05)
(-0.00202308 0 0.00011201)
(-0.00112963 0 -2.89419e-05)
(-0.000602713 0 0.000300972)
(0.000166888 0 0.000540498)
(0.000197591 0 -3.00425e-05)
(1.94319e-06 0 -0.00105915)
(3.5386e-09 0 2.8344e-08)
(2.10519e-09 0 2.20859e-09)
(3.68755e-09 0 1.77183e-09)
(3.51149e-09 0 1.42295e-09)
(3.29765e-09 0 1.16003e-09)
(3.08015e-09 0 9.63842e-10)
(2.87416e-09 0 8.16014e-10)
(2.68469e-09 0 7.02736e-10)
(2.5122e-09 0 6.14294e-10)
(2.35538e-09 0 5.43953e-10)
(2.21246e-09 0 4.87017e-10)
(2.08167e-09 0 4.40171e-10)
(1.96142e-09 0 4.01038e-10)
(1.85037e-09 0 3.67889e-10)
(1.74739e-09 0 3.39447e-10)
(1.65153e-09 0 3.14759e-10)
(1.562e-09 0 2.93102e-10)
(1.47814e-09 0 2.73922e-10)
(1.39937e-09 0 2.5679e-10)
(1.32523e-09 0 2.41369e-10)
(1.2553e-09 0 2.27392e-10)
(1.18923e-09 0 2.14644e-10)
(1.1267e-09 0 2.02954e-10)
(1.06746e-09 0 1.92179e-10)
(1.01126e-09 0 1.82203e-10)
(9.57892e-10 0 1.72929e-10)
(9.07174e-10 0 1.64278e-10)
(8.58938e-10 0 1.56179e-10)
(8.13033e-10 0 1.48577e-10)
(7.69325e-10 0 1.41421e-10)
(7.2769e-10 0 1.34669e-10)
(6.88018e-10 0 1.28285e-10)
(6.50206e-10 0 1.22238e-10)
(6.14159e-10 0 1.16499e-10)
(5.79792e-10 0 1.11046e-10)
(5.47022e-10 0 1.05857e-10)
(5.15776e-10 0 1.00914e-10)
(4.85983e-10 0 9.62006e-11)
(4.57576e-10 0 9.17036e-11)
(4.30495e-10 0 8.74101e-11)
(4.04681e-10 0 8.33092e-11)
(3.80077e-10 0 7.93913e-11)
(3.5663e-10 0 7.56479e-11)
(3.3429e-10 0 7.20715e-11)
(3.13008e-10 0 6.86554e-11)
(2.92736e-10 0 6.53939e-11)
(2.7343e-10 0 6.22819e-11)
(2.55045e-10 0 5.93148e-11)
(2.37539e-10 0 5.64888e-11)
(2.20869e-10 0 5.38004e-11)
(2.04995e-10 0 5.12466e-11)
(1.89877e-10 0 4.88248e-11)
(1.75475e-10 0 4.65326e-11)
(1.6175e-10 0 4.43682e-11)
(1.48664e-10 0 4.23298e-11)
(1.36179e-10 0 4.04157e-11)
(1.24258e-10 0 3.86247e-11)
(1.12863e-10 0 3.69554e-11)
(1.01958e-10 0 3.54067e-11)
(9.15061e-11 0 3.39772e-11)
(8.14704e-11 0 3.26656e-11)
(7.1815e-11 0 3.14702e-11)
(6.2504e-11 0 3.03888e-11)
(5.35012e-11 0 2.94187e-11)
(4.47704e-11 0 2.85565e-11)
(3.62745e-11 0 2.77995e-11)
(2.7976e-11 0 2.71464e-11)
(1.98412e-11 0 2.65978e-11)
(1.18515e-11 0 2.61581e-11)
(3.94604e-12 0 2.5937e-11)
(-0.000262351 0 0.00417145)
(-0.00137371 0 0.00251668)
(-0.00239743 0 0.00157018)
(-0.00364039 0 0.000510487)
(-0.00387134 0 -0.00048049)
(-0.00400467 0 -0.00104677)
(-0.00413508 0 -0.00133319)
(-0.00384444 0 -0.00198752)
(-0.00290546 0 -0.00195781)
(-0.00225372 0 -0.000539013)
(-0.00117831 0 -0.000407814)
(-0.000192006 0 0.000391545)
(0.000292179 0 -0.000137643)
(2.59167e-06 0 -0.000849658)
(3.20391e-09 0 2.99342e-08)
(1.89595e-09 0 2.21884e-09)
(3.36028e-09 0 1.8835e-09)
(3.24055e-09 0 1.58756e-09)
(3.08347e-09 0 1.34199e-09)
(2.91337e-09 0 1.14418e-09)
(2.74413e-09 0 9.865e-10)
(2.58238e-09 0 8.60697e-10)
(2.43065e-09 0 7.59586e-10)
(2.28945e-09 0 6.77443e-10)
(2.15839e-09 0 6.0988e-10)
(2.03669e-09 0 5.53592e-10)
(1.9235e-09 0 5.06097e-10)
(1.81801e-09 0 4.65534e-10)
(1.71946e-09 0 4.30493e-10)
(1.62717e-09 0 3.99902e-10)
(1.54055e-09 0 3.72937e-10)
(1.45909e-09 0 3.48959e-10)
(1.38233e-09 0 3.27466e-10)
(1.30987e-09 0 3.08063e-10)
(1.24137e-09 0 2.90431e-10)
(1.17652e-09 0 2.74317e-10)
(1.11506e-09 0 2.59511e-10)
(1.05673e-09 0 2.45842e-10)
(1.00134e-09 0 2.3317e-10)
(9.48683e-10 0 2.21376e-10)
(8.98595e-10 0 2.10361e-10)
(8.5092e-10 0 2.00041e-10)
(8.05519e-10 0 1.90344e-10)
(7.62265e-10 0 1.81211e-10)
(7.21042e-10 0 1.72587e-10)
(6.81745e-10 0 1.64429e-10)
(6.44276e-10 0 1.56697e-10)
(6.08545e-10 0 1.49356e-10)
(5.74469e-10 0 1.42376e-10)
(5.4197e-10 0 1.35733e-10)
(5.10976e-10 0 1.29402e-10)
(4.81418e-10 0 1.23364e-10)
(4.53234e-10 0 1.17601e-10)
(4.26363e-10 0 1.12097e-10)
(4.00747e-10 0 1.06839e-10)
(3.76332e-10 0 1.01814e-10)
(3.53066e-10 0 9.70126e-11)
(3.30899e-10 0 9.24241e-11)
(3.09784e-10 0 8.80406e-11)
(2.89674e-10 0 8.38548e-11)
(2.70524e-10 0 7.98602e-11)
(2.52291e-10 0 7.60511e-11)
(2.34933e-10 0 7.24227e-11)
(2.18408e-10 0 6.89706e-11)
(2.02675e-10 0 6.56909e-11)
(1.87696e-10 0 6.25805e-11)
(1.73431e-10 0 5.96364e-11)
(1.59841e-10 0 5.68562e-11)
(1.46889e-10 0 5.42377e-11)
(1.34536e-10 0 5.17789e-11)
(1.22745e-10 0 4.94782e-11)
(1.1148e-10 0 4.7334e-11)
(1.00703e-10 0 4.53449e-11)
(9.0377e-11 0 4.35093e-11)
(8.04663e-11 0 4.18257e-11)
(7.0934e-11 0 4.02923e-11)
(6.17436e-11 0 3.89069e-11)
(5.28585e-11 0 3.76668e-11)
(4.42413e-11 0 3.65696e-11)
(3.58537e-11 0 3.56132e-11)
(2.76573e-11 0 3.47958e-11)
(1.96205e-11 0 3.41086e-11)
(1.17355e-11 0 3.35287e-11)
(3.91622e-12 0 3.33077e-11)
(-0.0013986 0 0.00479905)
(-0.00194273 0 0.00325392)
(-0.00280002 0 0.00243308)
(-0.00392864 0 0.00123835)
(-0.00426897 0 -0.000428375)
(-0.00456784 0 -0.000666382)
(-0.0047543 0 -0.00123239)
(-0.00473172 0 -0.00155542)
(-0.00345054 0 -0.00306299)
(-0.0029932 0 -0.00165252)
(-0.00178839 0 -0.00152381)
(-0.000791243 0 -0.00141541)
(0.00080103 0 0.000349821)
(2.13833e-06 0 -0.000484349)
(2.95312e-09 0 3.26549e-08)
(1.72663e-09 0 2.22426e-09)
(3.09405e-09 0 1.9604e-09)
(3.00244e-09 0 1.70779e-09)
(2.88084e-09 0 1.48186e-09)
(2.74595e-09 0 1.28917e-09)
(2.60764e-09 0 1.12891e-09)
(2.47135e-09 0 9.96898e-10)
(2.33993e-09 0 8.88153e-10)
(2.21469e-09 0 7.98065e-10)
(2.09614e-09 0 7.22783e-10)
(1.98427e-09 0 6.59234e-10)
(1.87887e-09 0 6.05019e-10)
(1.7796e-09 0 5.58282e-10)
(1.68606e-09 0 5.17588e-10)
(1.59785e-09 0 4.81821e-10)
(1.5146e-09 0 4.50114e-10)
(1.43593e-09 0 4.21781e-10)
(1.36151e-09 0 3.96279e-10)
(1.29104e-09 0 3.73175e-10)
(1.22424e-09 0 3.52117e-10)
(1.16086e-09 0 3.32821e-10)
(1.10066e-09 0 3.15053e-10)
(1.04344e-09 0 2.98618e-10)
(9.89017e-10 0 2.83355e-10)
(9.37221e-10 0 2.6913e-10)
(8.87897e-10 0 2.55827e-10)
(8.40906e-10 0 2.43349e-10)
(7.96119e-10 0 2.31614e-10)
(7.5342e-10 0 2.2055e-10)
(7.12702e-10 0 2.10096e-10)
(6.73865e-10 0 2.00199e-10)
(6.36817e-10 0 1.90812e-10)
(6.01475e-10 0 1.81895e-10)
(5.67758e-10 0 1.73413e-10)
(5.35593e-10 0 1.65336e-10)
(5.04911e-10 0 1.57635e-10)
(4.75646e-10 0 1.50287e-10)
(4.47737e-10 0 1.43272e-10)
(4.21125e-10 0 1.3657e-10)
(3.95756e-10 0 1.30165e-10)
(3.71576e-10 0 1.24044e-10)
(3.48535e-10 0 1.18192e-10)
(3.26584e-10 0 1.12598e-10)
(3.05676e-10 0 1.07254e-10)
(2.85767e-10 0 1.02149e-10)
(2.66811e-10 0 9.72767e-11)
(2.48768e-10 0 9.26299e-11)
(2.31594e-10 0 8.82028e-11)
(2.15249e-10 0 8.39901e-11)
(1.99694e-10 0 7.99875e-11)
(1.84888e-10 0 7.61909e-11)
(1.70794e-10 0 7.2597e-11)
(1.57373e-10 0 6.92029e-11)
(1.44588e-10 0 6.6006e-11)
(1.324e-10 0 6.3004e-11)
(1.20772e-10 0 6.0195e-11)
(1.09668e-10 0 5.75772e-11)
(9.90513e-11 0 5.5149e-11)
(8.88842e-11 0 5.29087e-11)
(7.91304e-11 0 5.08547e-11)
(6.97531e-11 0 4.89852e-11)
(6.07157e-11 0 4.7298e-11)
(5.1981e-11 0 4.5791e-11)
(4.35114e-11 0 4.44621e-11)
(3.52693e-11 0 4.33095e-11)
(2.72178e-11 0 4.23306e-11)
(1.9323e-11 0 4.15086e-11)
(1.15563e-11 0 4.08015e-11)
(3.85094e-12 0 4.059e-11)
(-0.000422994 0 0.00664352)
(-0.00280351 0 0.00409146)
(-0.00314535 0 0.00308373)
(-0.0039358 0 0.00207385)
(-0.00433894 0 -0.00126778)
(-0.00476315 0 0.000333682)
(-0.00480876 0 -0.00163535)
(-0.00475138 0 -0.00198739)
(-0.00380431 0 -0.00332256)
(-0.00284612 0 -0.0035449)
(-0.00104343 0 -0.00370477)
(-0.00152969 0 -0.00192456)
(-0.000666045 0 -0.000988958)
(1.39955e-06 0 -0.000404883)
(2.77352e-09 0 3.72985e-08)
(1.58618e-09 0 2.22802e-09)
(2.87456e-09 0 2.02722e-09)
(2.79073e-09 0 1.80446e-09)
(2.69004e-09 0 1.59245e-09)
(2.58168e-09 0 1.4056e-09)
(2.46948e-09 0 1.24644e-09)
(2.35616e-09 0 1.1126e-09)
(2.24385e-09 0 1.00027e-09)
(2.13415e-09 0 9.05628e-10)
(2.02807e-09 0 8.25328e-10)
(1.92622e-09 0 7.56627e-10)
(1.8289e-09 0 6.97324e-10)
(1.73618e-09 0 6.45678e-10)
(1.648e-09 0 6.00312e-10)
(1.56422e-09 0 5.60138e-10)
(1.48464e-09 0 5.24292e-10)
(1.40906e-09 0 4.92084e-10)
(1.33725e-09 0 4.62958e-10)
(1.26901e-09 0 4.36465e-10)
(1.20413e-09 0 4.12235e-10)
(1.1424e-09 0 3.89966e-10)
(1.08364e-09 0 3.69408e-10)
(1.0277e-09 0 3.50351e-10)
(9.74392e-10 0 3.3262e-10)
(9.23589e-10 0 3.16065e-10)
(8.75151e-10 0 3.00561e-10)
(8.28955e-10 0 2.86001e-10)
(7.84885e-10 0 2.72291e-10)
(7.42835e-10 0 2.59352e-10)
(7.02707e-10 0 2.47114e-10)
(6.6441e-10 0 2.35519e-10)
(6.27859e-10 0 2.24514e-10)
(5.92974e-10 0 2.14053e-10)
(5.59682e-10 0 2.04096e-10)
(5.27912e-10 0 1.94608e-10)
(4.97598e-10 0 1.85559e-10)
(4.6868e-10 0 1.76921e-10)
(4.41097e-10 0 1.68669e-10)
(4.14795e-10 0 1.60784e-10)
(3.89719e-10 0 1.53245e-10)
(3.65818e-10 0 1.46037e-10)
(3.43045e-10 0 1.39145e-10)
(3.21351e-10 0 1.32555e-10)
(3.00691e-10 0 1.26257e-10)
(2.8102e-10 0 1.2024e-10)
(2.62297e-10 0 1.14496e-10)
(2.4448e-10 0 1.09017e-10)
(2.27526e-10 0 1.03795e-10)
(2.11397e-10 0 9.88262e-11)
(1.96053e-10 0 9.41039e-11)
(1.81456e-10 0 8.96241e-11)
(1.67567e-10 0 8.5383e-11)
(1.54348e-10 0 8.13771e-11)
(1.41762e-10 0 7.76037e-11)
(1.29771e-10 0 7.40603e-11)
(1.1834e-10 0 7.07446e-11)
(1.0743e-10 0 6.76547e-11)
(9.70053e-11 0 6.47889e-11)
(8.7029e-11 0 6.21454e-11)
(7.74643e-11 0 5.97227e-11)
(6.82745e-11 0 5.75188e-11)
(5.94225e-11 0 5.5532e-11)
(5.08712e-11 0 5.37601e-11)
(4.25832e-11 0 5.22013e-11)
(3.45218e-11 0 5.08535e-11)
(2.66516e-11 0 4.97123e-11)
(1.89342e-11 0 4.87626e-11)
(1.1313e-11 0 4.79747e-11)
(3.75873e-12 0 4.77255e-11)
(-0.000917309 0 0.00742117)
(0.000377683 0 0.00584612)
(-0.00198044 0 0.00444566)
(-0.00362341 0 0.00241168)
(-0.00400875 0 0.00098623)
(-0.00481572 0 -0.000694092)
(-0.00489748 0 -0.00124682)
(-0.00437092 0 -0.00281539)
(-0.00437885 0 -0.00294903)
(-0.0028479 0 -0.00441508)
(-0.000558354 0 -0.00444078)
(-0.00254025 0 -0.00184793)
(-0.00131055 0 -0.000978007)
(4.07232e-07 0 -0.000310588)
(2.69804e-09 0 4.55048e-08)
(1.47777e-09 0 2.25239e-09)
(2.69573e-09 0 2.11319e-09)
(2.59391e-09 0 1.89157e-09)
(2.50616e-09 0 1.68087e-09)
(2.42095e-09 0 1.49764e-09)
(2.33245e-09 0 1.34167e-09)
(2.24017e-09 0 1.20936e-09)
(2.14559e-09 0 1.09681e-09)
(2.05048e-09 0 1.00054e-09)
(1.95635e-09 0 9.17638e-10)
(1.86426e-09 0 8.45719e-10)
(1.77494e-09 0 7.82862e-10)
(1.68882e-09 0 7.27516e-10)
(1.60611e-09 0 6.78436e-10)
(1.52691e-09 0 6.34616e-10)
(1.45119e-09 0 5.95242e-10)
(1.37888e-09 0 5.5965e-10)
(1.30988e-09 0 5.27299e-10)
(1.24405e-09 0 4.97742e-10)
(1.18124e-09 0 4.70609e-10)
(1.12133e-09 0 4.45591e-10)
(1.06418e-09 0 4.2243e-10)
(1.00963e-09 0 4.00908e-10)
(9.57574e-10 0 3.8084e-10)
(9.07881e-10 0 3.62069e-10)
(8.60438e-10 0 3.44461e-10)
(8.15136e-10 0 3.279e-10)
(7.71875e-10 0 3.12287e-10)
(7.3056e-10 0 2.97534e-10)
(6.91103e-10 0 2.83567e-10)
(6.5342e-10 0 2.70321e-10)
(6.17435e-10 0 2.57738e-10)
(5.83073e-10 0 2.45768e-10)
(5.50266e-10 0 2.34368e-10)
(5.18948e-10 0 2.23498e-10)
(4.89059e-10 0 2.13124e-10)
(4.60538e-10 0 2.03216e-10)
(4.33331e-10 0 1.93747e-10)
(4.07384e-10 0 1.84694e-10)
(3.82647e-10 0 1.76036e-10)
(3.59069e-10 0 1.67755e-10)
(3.36605e-10 0 1.59833e-10)
(3.15208e-10 0 1.52258e-10)
(2.94834e-10 0 1.45015e-10)
(2.75441e-10 0 1.38094e-10)
(2.56987e-10 0 1.31484e-10)
(2.39432e-10 0 1.25178e-10)
(2.22734e-10 0 1.19168e-10)
(2.06855e-10 0 1.13446e-10)
(1.91757e-10 0 1.08008e-10)
(1.77401e-10 0 1.02849e-10)
(1.6375e-10 0 9.7963e-11)
(1.50766e-10 0 9.3348e-11)
(1.38413e-10 0 8.90003e-11)
(1.26653e-10 0 8.49173e-11)
(1.15449e-10 0 8.10966e-11)
(1.04766e-10 0 7.75362e-11)
(9.45661e-11 0 7.42344e-11)
(8.48129e-11 0 7.11893e-11)
(7.54698e-11 0 6.83993e-11)
(6.64997e-11 0 6.58628e-11)
(5.78658e-11 0 6.3578e-11)
(4.95308e-11 0 6.1543e-11)
(4.14576e-11 0 5.97559e-11)
(3.36092e-11 0 5.82138e-11)
(2.59493e-11 0 5.6912e-11)
(1.84373e-11 0 5.58424e-11)
(1.10132e-11 0 5.50046e-11)
(3.65694e-12 0 5.46796e-11)
(-0.00203148 0 0.00725023)
(0.000225432 0 0.00703159)
(-0.00285492 0 0.0047666)
(-0.00328376 0 0.00318771)
(-0.0040502 0 0.00151109)
(-0.00480002 0 -0.000434237)
(-0.00473662 0 -0.00153178)
(-0.00397414 0 -0.00363953)
(-0.00387444 0 -0.00417598)
(-0.00411893 0 -0.00394683)
(-0.00169227 0 -0.00474836)
(-0.00195913 0 -0.00329074)
(-0.000718422 0 -0.00248226)
(-4.3129e-06 0 -0.00026631)
(3.6338e-09 0 7.13375e-08)
(1.41622e-09 0 2.74545e-09)
(2.53557e-09 0 2.27151e-09)
(2.38488e-09 0 1.96905e-09)
(2.32026e-09 0 1.74513e-09)
(2.26327e-09 0 1.5657e-09)
(2.19888e-09 0 1.41609e-09)
(2.12633e-09 0 1.28874e-09)
(2.04788e-09 0 1.17901e-09)
(1.96605e-09 0 1.08367e-09)
(1.88289e-09 0 1.00026e-09)
(1.79992e-09 0 9.26811e-10)
(1.71822e-09 0 8.6176e-10)
(1.63849e-09 0 8.03812e-10)
(1.56119e-09 0 7.51903e-10)
(1.48657e-09 0 7.05155e-10)
(1.41477e-09 0 6.62836e-10)
(1.34583e-09 0 6.24341e-10)
(1.27973e-09 0 5.8916e-10)
(1.21643e-09 0 5.56868e-10)
(1.15584e-09 0 5.27105e-10)
(1.09786e-09 0 4.99567e-10)
(1.04242e-09 0 4.73997e-10)
(9.89389e-10 0 4.50174e-10)
(9.38683e-10 0 4.2791e-10)
(8.902e-10 0 4.07044e-10)
(8.43844e-10 0 3.87435e-10)
(7.99525e-10 0 3.68963e-10)
(7.57155e-10 0 3.51523e-10)
(7.16652e-10 0 3.35024e-10)
(6.77938e-10 0 3.19386e-10)
(6.40938e-10 0 3.0454e-10)
(6.05582e-10 0 2.90424e-10)
(5.71804e-10 0 2.76985e-10)
(5.39539e-10 0 2.64175e-10)
(5.08729e-10 0 2.51952e-10)
(4.79314e-10 0 2.4028e-10)
(4.51241e-10 0 2.29126e-10)
(4.24456e-10 0 2.18461e-10)
(3.9891e-10 0 2.08259e-10)
(3.74554e-10 0 1.98498e-10)
(3.51341e-10 0 1.89158e-10)
(3.29225e-10 0 1.8022e-10)
(3.08165e-10 0 1.71669e-10)
(2.88115e-10 0 1.63491e-10)
(2.69037e-10 0 1.55674e-10)
(2.50888e-10 0 1.48207e-10)
(2.33629e-10 0 1.41081e-10)
(2.17222e-10 0 1.34287e-10)
(2.01628e-10 0 1.27819e-10)
(1.86809e-10 0 1.21669e-10)
(1.72728e-10 0 1.15833e-10)
(1.59348e-10 0 1.10306e-10)
(1.46632e-10 0 1.05085e-10)
(1.34543e-10 0 1.00165e-10)
(1.23046e-10 0 9.55447e-11)
(1.12103e-10 0 9.12209e-11)
(1.01678e-10 0 8.71917e-11)
(9.17353e-11 0 8.34552e-11)
(8.22375e-11 0 8.001e-11)
(7.31482e-11 0 7.68543e-11)
(6.44304e-11 0 7.39867e-11)
(5.60473e-11 0 7.14055e-11)
(4.79615e-11 0 6.9109e-11)
(4.01357e-11 0 6.70951e-11)
(3.25327e-11 0 6.53609e-11)
(2.5115e-11 0 6.39026e-11)
(1.78405e-11 0 6.27193e-11)
(1.06572e-11 0 6.1832e-11)
(3.5406e-12 0 6.14299e-11)
(-0.00208378 0 0.00797626)
(-0.000860771 0 0.00814074)
(-0.00410544 0 0.00517038)
(-0.00304801 0 0.00446199)
(-0.00434848 0 0.00238598)
(-0.00460866 0 0.00106342)
(-0.00472335 0 -0.00224664)
(-0.00423301 0 -0.00372838)
(-0.00408031 0 -0.00477813)
(-0.00387228 0 -0.00520889)
(-0.00282835 0 -0.00529184)
(-0.00196565 0 -0.00438899)
(-0.000272002 0 -0.00346609)
(-5.41736e-06 0 -0.00144842)
(5.21865e-10 0 2.14354e-09)
(1.45131e-09 0 2.82926e-09)
(1.96793e-09 0 2.27907e-09)
(2.10037e-09 0 1.97754e-09)
(2.12787e-09 0 1.77034e-09)
(2.11227e-09 0 1.60757e-09)
(2.07261e-09 0 1.47093e-09)
(2.01776e-09 0 1.35261e-09)
(1.95324e-09 0 1.24855e-09)
(1.88286e-09 0 1.1563e-09)
(1.80932e-09 0 1.07408e-09)
(1.73452e-09 0 1.00049e-09)
(1.6598e-09 0 9.34384e-10)
(1.58607e-09 0 8.74768e-10)
(1.51394e-09 0 8.20804e-10)
(1.44379e-09 0 7.7177e-10)
(1.37586e-09 0 7.27044e-10)
(1.3103e-09 0 6.86093e-10)
(1.24716e-09 0 6.48459e-10)
(1.18644e-09 0 6.13749e-10)
(1.12814e-09 0 5.81626e-10)
(1.07219e-09 0 5.51798e-10)
(1.01854e-09 0 5.24015e-10)
(9.67113e-10 0 4.98059e-10)
(9.17843e-10 0 4.73744e-10)
(8.70652e-10 0 4.50906e-10)
(8.25463e-10 0 4.29404e-10)
(7.82202e-10 0 4.09114e-10)
(7.40795e-10 0 3.89929e-10)
(7.01172e-10 0 3.71755e-10)
(6.63266e-10 0 3.54508e-10)
(6.2701e-10 0 3.38116e-10)
(5.92342e-10 0 3.22515e-10)
(5.59203e-10 0 3.07648e-10)
(5.27534e-10 0 2.93466e-10)
(4.9728e-10 0 2.79924e-10)
(4.68389e-10 0 2.66983e-10)
(4.40809e-10 0 2.54608e-10)
(4.14491e-10 0 2.42769e-10)
(3.89388e-10 0 2.31439e-10)
(3.65455e-10 0 2.20592e-10)
(3.42646e-10 0 2.10208e-10)
(3.20919e-10 0 2.00268e-10)
(3.00231e-10 0 1.90754e-10)
(2.80543e-10 0 1.81652e-10)
(2.61814e-10 0 1.72949e-10)
(2.44006e-10 0 1.64632e-10)
(2.27078e-10 0 1.56693e-10)
(2.10995e-10 0 1.49122e-10)
(1.95719e-10 0 1.41911e-10)
(1.81212e-10 0 1.35055e-10)
(1.67439e-10 0 1.28547e-10)
(1.54362e-10 0 1.22382e-10)
(1.41946e-10 0 1.16557e-10)
(1.30155e-10 0 1.11068e-10)
(1.18952e-10 0 1.05912e-10)
(1.08302e-10 0 1.01087e-10)
(9.81681e-11 0 9.65908e-11)
(8.85143e-11 0 9.24214e-11)
(7.93041e-11 0 8.85774e-11)
(7.05009e-11 0 8.50574e-11)
(6.2068e-11 0 8.186e-11)
(5.39683e-11 0 7.89839e-11)
(4.61644e-11 0 7.64274e-11)
(3.86189e-11 0 7.41884e-11)
(3.12942e-11 0 7.22645e-11)
(2.41522e-11 0 7.06532e-11)
(1.71515e-11 0 6.93591e-11)
(1.02474e-11 0 6.84127e-11)
(3.407e-12 0 6.79467e-11)
(-0.00346046 0 0.00919217)
(-0.000658407 0 0.00947785)
(-0.00384637 0 0.00644014)
(-0.00307975 0 0.00495695)
(-0.00407536 0 0.00270902)
(-0.00404001 0 0.00140633)
(-0.00454794 0 -0.00263209)
(-0.00491724 0 -0.00324787)
(-0.00401445 0 -0.00537879)
(-0.0040493 0 -0.0058368)
(-0.00172379 0 -0.00685255)
(-0.00254874 0 -0.00518078)
(-0.00116844 0 -0.00401587)
(3.92371e-08 0 -0.00200647)
(5.86936e-10 0 2.29751e-09)
(1.39693e-09 0 2.23512e-09)
(1.73804e-09 0 2.06825e-09)
(1.90833e-09 0 1.90331e-09)
(1.97352e-09 0 1.75659e-09)
(1.98257e-09 0 1.6265e-09)
(1.9598e-09 0 1.50971e-09)
(1.9178e-09 0 1.40392e-09)
(1.86384e-09 0 1.30771e-09)
(1.80252e-09 0 1.2201e-09)
(1.73691e-09 0 1.14029e-09)
(1.66911e-09 0 1.06758e-09)
(1.60057e-09 0 1.00127e-09)
(1.5323e-09 0 9.40726e-10)
(1.46497e-09 0 8.85343e-10)
(1.39907e-09 0 8.3457e-10)
(1.33491e-09 0 7.87907e-10)
(1.27266e-09 0 7.44904e-10)
(1.21246e-09 0 7.05166e-10)
(1.15436e-09 0 6.68338e-10)
(1.09838e-09 0 6.34113e-10)
(1.0445e-09 0 6.02217e-10)
(9.92706e-10 0 5.72413e-10)
(9.42949e-10 0 5.44491e-10)
(8.95182e-10 0 5.18269e-10)
(8.49348e-10 0 4.93586e-10)
(8.05391e-10 0 4.70301e-10)
(7.6325e-10 0 4.4829e-10)
(7.22868e-10 0 4.27444e-10)
(6.84184e-10 0 4.07668e-10)
(6.47142e-10 0 3.88877e-10)
(6.11685e-10 0 3.70997e-10)
(5.77758e-10 0 3.53961e-10)
(5.45308e-10 0 3.37711e-10)
(5.14283e-10 0 3.22195e-10)
(4.84633e-10 0 3.07369e-10)
(4.5631e-10 0 2.93189e-10)
(4.29266e-10 0 2.79621e-10)
(4.03457e-10 0 2.66633e-10)
(3.78838e-10 0 2.54195e-10)
(3.55366e-10 0 2.42282e-10)
(3.32999e-10 0 2.30871e-10)
(3.11697e-10 0 2.19943e-10)
(2.91419e-10 0 2.09479e-10)
(2.72127e-10 0 1.99464e-10)
(2.53783e-10 0 1.89884e-10)
(2.36348e-10 0 1.80727e-10)
(2.19786e-10 0 1.71983e-10)
(2.0406e-10 0 1.63641e-10)
(1.89134e-10 0 1.55694e-10)
(1.74972e-10 0 1.48136e-10)
(1.61538e-10 0 1.4096e-10)
(1.48797e-10 0 1.34161e-10)
(1.36713e-10 0 1.27735e-10)
(1.25251e-10 0 1.2168e-10)
(1.14374e-10 0 1.1599e-10)
(1.04048e-10 0 1.10666e-10)
(9.42371e-11 0 1.05704e-10)
(8.49043e-11 0 1.01103e-10)
(7.60139e-11 0 9.68612e-11)
(6.75293e-11 0 9.29781e-11)
(5.94137e-11 0 8.94522e-11)
(5.16301e-11 0 8.62824e-11)
(4.41411e-11 0 8.34673e-11)
(3.69091e-11 0 8.1005e-11)
(2.98965e-11 0 7.88936e-11)
(2.3065e-11 0 7.71318e-11)
(1.6374e-11 0 7.57269e-11)
(9.78412e-12 0 7.47129e-11)
(3.25494e-12 0 7.41958e-11)
(-0.00265544 0 0.0110034)
(-0.000858155 0 0.0101033)
(-0.00286459 0 0.00709926)
(-0.00262219 0 0.0050085)
(-0.00329823 0 0.00272395)
(-0.00375662 0 0.000342457)
(-0.00347136 0 -0.00337587)
(-0.00461249 0 -0.00329109)
(-0.00360412 0 -0.00577065)
(-0.00348556 0 -0.00657444)
(-0.00340709 0 -0.0068322)
(-0.00156671 0 -0.00642919)
(-0.0020054 0 -0.00477556)
(8.27349e-06 0 -0.00312932)
(4.57069e-10 0 2.07405e-09)
(1.2393e-09 0 1.73386e-09)
(1.65805e-09 0 1.85603e-09)
(1.80873e-09 0 1.81318e-09)
(1.86861e-09 0 1.7283e-09)
(1.88094e-09 0 1.63377e-09)
(1.86401e-09 0 1.53883e-09)
(1.82844e-09 0 1.44682e-09)
(1.78098e-09 0 1.35929e-09)
(1.72602e-09 0 1.27701e-09)
(1.66649e-09 0 1.20025e-09)
(1.6044e-09 0 1.129e-09)
(1.54115e-09 0 1.06306e-09)
(1.47772e-09 0 1.00212e-09)
(1.4148e-09 0 9.45805e-10)
(1.35287e-09 0 8.93733e-10)
(1.29228e-09 0 8.45527e-10)
(1.23325e-09 0 8.00825e-10)
(1.17594e-09 0 7.59292e-10)
(1.12043e-09 0 7.20621e-10)
(1.06677e-09 0 6.84535e-10)
(1.015e-09 0 6.50783e-10)
(9.65092e-10 0 6.19144e-10)
(9.17045e-10 0 5.89419e-10)
(8.70826e-10 0 5.61434e-10)
(8.26399e-10 0 5.35031e-10)
(7.83724e-10 0 5.10072e-10)
(7.42756e-10 0 4.86437e-10)
(7.03448e-10 0 4.64016e-10)
(6.65754e-10 0 4.42713e-10)
(6.29625e-10 0 4.22445e-10)
(5.95015e-10 0 4.03134e-10)
(5.61875e-10 0 3.84715e-10)
(5.30159e-10 0 3.67128e-10)
(4.99822e-10 0 3.50321e-10)
(4.70818e-10 0 3.34245e-10)
(4.43104e-10 0 3.1886e-10)
(4.16637e-10 0 3.04127e-10)
(3.91376e-10 0 2.90014e-10)
(3.67278e-10 0 2.76491e-10)
(3.44305e-10 0 2.63531e-10)
(3.22416e-10 0 2.51111e-10)
(3.01574e-10 0 2.39211e-10)
(2.8174e-10 0 2.27811e-10)
(2.62878e-10 0 2.16896e-10)
(2.44951e-10 0 2.0645e-10)
(2.27923e-10 0 1.96462e-10)
(2.11758e-10 0 1.8692e-10)
(1.96422e-10 0 1.77814e-10)
(1.81878e-10 0 1.69138e-10)
(1.68092e-10 0 1.60882e-10)
(1.55029e-10 0 1.53042e-10)
(1.42655e-10 0 1.45613e-10)
(1.30934e-10 0 1.3859e-10)
(1.19832e-10 0 1.3197e-10)
(1.09313e-10 0 1.25749e-10)
(9.93435e-11 0 1.19927e-10)
(8.98865e-11 0 1.14501e-10)
(8.09067e-11 0 1.09469e-10)
(7.23681e-11 0 1.04831e-10)
(6.42343e-11 0 1.00586e-10)
(5.64686e-11 0 9.67328e-11)
(4.9034e-11 0 9.32702e-11)
(4.1893e-11 0 9.01974e-11)
(3.50083e-11 0 8.75131e-11)
(2.83421e-11 0 8.52156e-11)
(2.18563e-11 0 8.33047e-11)
(1.55106e-11 0 8.17893e-11)
(9.26669e-12 0 8.0704e-11)
(3.08297e-12 0 8.01416e-11)
(-0.00278204 0 0.0119844)
(-0.000610362 0 0.0102418)
(-0.00209159 0 0.0074237)
(-0.00181931 0 0.00545089)
(-0.00218257 0 0.00384241)
(-0.00244381 0 0.00290602)
(-0.00168367 0 -0.00367748)
(-0.00331006 0 -0.00342847)
(-0.00264709 0 -0.00573834)
(-0.00309993 0 -0.00679327)
(-0.0029377 0 -0.00725977)
(-0.00226858 0 -0.00677084)
(-0.00164751 0 -0.00567021)
(0.000327869 0 -0.00408494)
(2.29469e-08 0 4.84855e-07)
(9.30146e-10 0 1.76115e-09)
(1.81298e-09 0 1.78912e-09)
(1.78897e-09 0 1.76008e-09)
(1.80557e-09 0 1.70852e-09)
(1.80511e-09 0 1.64142e-09)
(1.78468e-09 0 1.56538e-09)
(1.74963e-09 0 1.48578e-09)
(1.7048e-09 0 1.40627e-09)
(1.6536e-09 0 1.32905e-09)
(1.59838e-09 0 1.25535e-09)
(1.54076e-09 0 1.18574e-09)
(1.48193e-09 0 1.12045e-09)
(1.42273e-09 0 1.05942e-09)
(1.36377e-09 0 1.00251e-09)
(1.30552e-09 0 9.49475e-10)
(1.2483e-09 0 9.00045e-10)
(1.19236e-09 0 8.5394e-10)
(1.13784e-09 0 8.10884e-10)
(1.08488e-09 0 7.70615e-10)
(1.03354e-09 0 7.32888e-10)
(9.83854e-10 0 6.97478e-10)
(9.35855e-10 0 6.6418e-10)
(8.89539e-10 0 6.32809e-10)
(8.44899e-10 0 6.03198e-10)
(8.01914e-10 0 5.75198e-10)
(7.60559e-10 0 5.48676e-10)
(7.20803e-10 0 5.23512e-10)
(6.82611e-10 0 4.99601e-10)
(6.45948e-10 0 4.76848e-10)
(6.10774e-10 0 4.55168e-10)
(5.77051e-10 0 4.34488e-10)