/*--------------------------------*- C++ -*----------------------------------*\
  =========                 |
  \\      /  F ield         | OpenFOAM: The Open Source CFD Toolbox
   \\    /   O peration     | Website:  https://openfoam.org
    \\  /    A nd           | Version:  6
     \\/     M anipulation  |
\*---------------------------------------------------------------------------*/
FoamFile
{
    version     2.0;
    format      ascii;
    class       surfaceScalarField;
    location    "1650";
    object      phi;
}
// * * * * * * * * * * * * * * * * * * * * * * * * * * * * * * * * * * * * * //

dimensions      [0 3 -1 0 0 0 0];

internalField   nonuniform List<scalar> 
9440
(
-1.07133e-11
1.07133e-11
-4.90326e-11
3.83197e-11
-1.50513e-10
1.01481e-10
-1.79286e-10
2.87728e-11
-2.42577e-10
6.32921e-11
-2.27693e-10
-1.48843e-11
-2.13566e-10
-1.41266e-11
-2.28938e-10
1.53712e-11
-2.59377e-10
3.04389e-11
-2.63794e-10
4.41702e-12
-2.53242e-10
-1.05521e-11
-2.43116e-10
-1.01274e-11
-2.40728e-10
-2.38842e-12
-2.37229e-10
-3.49996e-12
-2.27512e-10
-9.71793e-12
-2.09981e-10
-1.75324e-11
-1.86663e-10
-2.33187e-11
-1.41194e-10
-4.54703e-11
-5.2306e-11
-8.88893e-11
9.66672e-11
-1.48975e-10
3.54501e-10
-2.57835e-10
4.78289e-10
-1.23789e-10
6.20795e-10
-1.42508e-10
8.21093e-10
-2.00299e-10
9.60678e-10
-1.39585e-10
1.14147e-09
-1.80793e-10
1.27039e-09
-1.28921e-10
1.22832e-09
4.20648e-11
1.38464e-09
-1.56313e-10
1.49696e-09
-1.12325e-10
1.45042e-09
4.65383e-11
1.34599e-09
1.04433e-10
1.17956e-09
1.66429e-10
9.98444e-10
1.81113e-10
7.82816e-10
2.15628e-10
5.4174e-10
2.41075e-10
1.83316e-10
3.58423e-10
-2.58326e-10
4.41642e-10
-7.85381e-10
5.27055e-10
-1.16143e-09
3.76049e-10
-1.48804e-09
3.2661e-10
-1.82625e-09
3.3821e-10
-1.93366e-09
1.07412e-10
-2.0982e-09
1.64546e-10
-2.15871e-09
6.05049e-11
-2.1759e-09
1.71898e-11
-2.20212e-09
2.62252e-11
-2.20369e-09
1.56803e-12
-2.18416e-09
-1.95213e-11
-2.1908e-09
6.63717e-12
-2.18938e-09
-1.42193e-12
-2.19763e-09
8.25131e-12
-2.23106e-09
3.34367e-11
-2.26565e-09
3.45843e-11
-2.32079e-09
5.51462e-11
-2.40969e-09
8.89057e-11
-2.50288e-09
9.31878e-11
-2.58362e-09
8.07363e-11
-2.67927e-09
9.56531e-11
-2.7992e-09
1.19933e-10
-2.86184e-09
6.26427e-11
-2.90243e-09
4.05855e-11
-2.8987e-09
-3.72822e-12
-2.83918e-09
-5.95136e-11
-2.71198e-09
-1.27202e-10
-2.50583e-09
-2.06154e-10
-2.37248e-09
-1.33342e-10
-2.16012e-09
-2.12361e-10
-1.92329e-09
-2.36828e-10
-1.76077e-09
-1.62528e-10
-1.58728e-09
-1.73488e-10
-1.38078e-09
-2.06499e-10
-1.18523e-09
-1.95551e-10
-1.01174e-09
-1.73486e-10
-8.73897e-10
-1.37846e-10
-8.1211e-10
-6.17881e-11
-6.7514e-10
-1.36972e-10
-5.94889e-10
-8.02524e-11
-1.12562e-10
-4.82324e-10
-2.97715e-14
-1.12513e-10
-2.09084e-17
1.04458e-18
-2.09206e-17
1.21928e-20
-2.06345e-17
-2.78761e-19
-2.01381e-17
-4.98358e-19
-1.94414e-17
-6.99911e-19
-1.85575e-17
-8.8632e-19
-1.75062e-17
-1.05301e-18
-1.63112e-17
-1.19635e-18
-1.49987e-17
-1.31362e-18
-1.35966e-17
-1.40317e-18
-1.21332e-17
-1.46436e-18
-1.06367e-17
-1.49741e-18
-9.13418e-18
-1.50337e-18
-7.65086e-18
-1.48396e-18
-6.20982e-18
-1.4415e-18
-4.83143e-18
-1.37871e-18
-3.53323e-18
-1.29847e-18
-2.32939e-18
-1.20382e-18
-1.23066e-18
-1.0981e-18
-2.44899e-19
-9.84749e-19
6.22603e-19
-8.6689e-19
1.36933e-18
-7.47132e-19
1.99553e-18
-6.2768e-19
2.50379e-18
-5.10455e-19
2.89844e-18
-3.97063e-19
3.18515e-18
-2.88761e-19
3.37058e-18
-1.86562e-19
3.46197e-18
-9.13489e-20
3.4668e-18
-3.83704e-21
3.3927e-18
7.55387e-20
3.24747e-18
1.46643e-19
3.03903e-18
2.09554e-19
2.77524e-18
2.64485e-19
2.46389e-18
3.1174e-19
2.11257e-18
3.51664e-19
1.72859e-18
3.84562e-19
1.31888e-18
4.10645e-19
8.90005e-19
4.30067e-19
4.48341e-19
4.43043e-19
4.49983e-19
-1.02467e-10
1.13181e-10
-1.87235e-10
1.23088e-10
-2.13797e-10
1.28044e-10
-2.80998e-10
9.59742e-11
-2.69737e-10
5.2031e-11
-2.60677e-10
-2.39448e-11
-2.48631e-10
-2.61731e-11
-2.74645e-10
4.13855e-11
-3.15424e-10
7.12166e-11
-3.46939e-10
3.59313e-11
-3.53543e-10
-3.9489e-12
-3.82749e-10
1.90771e-11
-4.34501e-10
4.93623e-11
-5.06199e-10
6.81962e-11
-5.79373e-10
6.34539e-11
-6.00988e-10
4.0814e-12
-5.54669e-10
-6.96402e-11
-4.65287e-10
-1.34855e-10
-3.68298e-10
-1.85881e-10
-2.38636e-10
-2.78639e-10
-3.69253e-12
-4.92781e-10
2.41348e-10
-3.68832e-10
4.54311e-10
-3.55473e-10
6.08307e-10
-3.54297e-10
7.84833e-10
-3.16113e-10
9.26983e-10
-3.22946e-10
1.0488e-09
-2.50743e-10
1.18535e-09
-9.44843e-11
1.21997e-09
-1.90935e-10
1.28753e-09
-1.79888e-10
1.24598e-09
8.80888e-11
1.17218e-09
1.78234e-10
1.01664e-09
3.21969e-10
9.23742e-10
2.74007e-10
7.11143e-10
4.28226e-10
4.89887e-10
4.62331e-10
2.2075e-10
6.2756e-10
-4.90135e-11
7.11405e-10
-3.55015e-10
8.33056e-10
-8.13874e-10
8.3491e-10
-1.27402e-09
7.86759e-10
-1.51592e-09
5.80105e-10
-1.66719e-09
2.58685e-10
-1.71438e-09
2.11738e-10
-1.74103e-09
8.71614e-11
-1.73264e-09
8.80511e-12
-1.71978e-09
1.33699e-11
-1.67893e-09
-3.92882e-11
-1.63883e-09
-5.96121e-11
-1.61445e-09
-1.77417e-11
-1.61117e-09
-4.70505e-12
-1.61938e-09
1.64727e-11
-1.65485e-09
6.89082e-11
-1.69403e-09
7.37592e-11
-1.77225e-09
1.33373e-10
-1.8429e-09
1.59561e-10
-1.9154e-09
1.65689e-10
-1.99748e-09
1.62812e-10
-2.02233e-09
1.20509e-10
-2.05662e-09
1.5422e-10
-2.09197e-09
9.79981e-11
-2.10564e-09
5.42588e-11
-2.09844e-09
-1.09309e-11
-2.06124e-09
-9.67105e-11
-1.98885e-09
-1.9959e-10
-1.90997e-09
-2.85026e-10
-1.84497e-09
-1.98345e-10
-1.67493e-09
-3.82403e-10
-1.48861e-09
-4.23149e-10
-1.32236e-09
-3.28778e-10
-1.13203e-09
-3.63813e-10
-9.31232e-10
-4.07298e-10
-7.18514e-10
-4.08271e-10
-5.4137e-10
-3.5063e-10
-3.6151e-10
-3.17707e-10
-2.48878e-10
-1.74422e-10
2.97867e-10
-6.83718e-10
3.9793e-10
-1.80324e-10
2.40856e-10
-3.2528e-10
3.2855e-16
1.28253e-10
-2.16636e-17
-5.48443e-19
-2.12144e-17
-4.55795e-19
-2.0856e-17
-6.43301e-19
-2.03405e-17
-1.01597e-18
-1.96277e-17
-1.41426e-18
-1.87242e-17
-1.79169e-18
-1.76496e-17
-2.12969e-18
-1.64284e-17
-2.41946e-18
-1.50882e-17
-2.65567e-18
-1.36578e-17
-2.83537e-18
-1.21663e-17
-2.95752e-18
-1.06427e-17
-3.02267e-18
-9.11477e-18
-3.03295e-18
-7.6084e-18
-2.99179e-18
-6.14703e-18
-2.90389e-18
-4.75119e-18
-2.77484e-18
-3.43858e-18
-2.61084e-18
-2.22367e-18
-2.41851e-18
-1.1173e-18
-2.20461e-18
-1.27039e-19
-1.97567e-18
7.4236e-19
-1.73765e-18
1.48878e-18
-1.49577e-18
2.11275e-18
-1.25446e-18
2.61718e-18
-1.01755e-18
3.00674e-18
-7.88384e-19
3.28735e-18
-5.69869e-19
3.46579e-18
-3.6438e-19
3.54948e-18
-1.73667e-19
3.54617e-18
1.17526e-21
3.4638e-18
1.59604e-19
3.31038e-18
3.01504e-19
3.09396e-18
4.27089e-19
2.8225e-18
5.36828e-19
2.50381e-18
6.3134e-19
2.14546e-18
7.11246e-19
1.75468e-18
7.77062e-19
1.33831e-18
8.29171e-19
9.02981e-19
8.67901e-19
4.5528e-19
8.93597e-19
9.06329e-19
-1.10671e-10
2.23853e-10
-1.75893e-10
1.8831e-10
-2.06595e-10
1.58746e-10
-2.3183e-10
1.21209e-10
-2.22433e-10
4.26344e-11
-2.62606e-10
1.62284e-11
-2.95354e-10
6.57402e-12
-3.23319e-10
6.93504e-11
-4.06214e-10
1.54111e-10
-5.12046e-10
1.41763e-10
-6.37264e-10
1.21268e-10
-8.08041e-10
1.89852e-10
-9.16721e-10
1.58041e-10
-9.55148e-10
1.06622e-10
-9.27138e-10
3.54421e-11
-8.39222e-10
-8.38364e-11
-7.37558e-10
-1.71306e-10
-6.25827e-10
-2.46587e-10
-4.82944e-10
-3.28766e-10
-3.33372e-10
-4.28213e-10
-2.31265e-10
-5.9489e-10
4.05981e-11
-6.40697e-10
2.78976e-10
-5.93853e-10
4.27171e-10
-5.02495e-10
5.52991e-10
-4.41935e-10
6.42017e-10
-4.11974e-10
6.71535e-10
-2.80263e-10
8.46567e-10
-2.69518e-10
8.51072e-10
-1.95442e-10
9.59579e-10
-2.88396e-10
9.41287e-10
1.06379e-10
8.99978e-10
2.19542e-10
8.1558e-10
4.06366e-10
7.28332e-10
3.61254e-10
5.35765e-10
6.20792e-10
3.91795e-10
6.06301e-10
2.66325e-10
7.5303e-10
3.18186e-11
9.45911e-10
-2.97005e-10
1.16188e-09
-6.85645e-10
1.22355e-09
-1.00001e-09
1.10113e-09
-1.22279e-09
8.02882e-10
-1.43334e-09
4.6924e-10
-1.49004e-09
2.68442e-10
-1.4782e-09
7.53261e-11
-1.44575e-09
-2.36436e-11
-1.41805e-09
-1.43301e-11
-1.41742e-09
-3.99132e-11
-1.40457e-09
-7.24606e-11
-1.36954e-09
-5.2769e-11
-1.36187e-09
-1.23723e-11
-1.3612e-09
1.58012e-11
-1.35503e-09
6.27455e-11
-1.34968e-09
6.84028e-11
-1.31768e-09
1.01376e-10
-1.32255e-09
1.64432e-10
-1.40771e-09
2.50851e-10
-1.483e-09
2.38107e-10
-1.57211e-09
2.09615e-10
-1.62459e-09
2.06703e-10
-1.66972e-09
1.43139e-10
-1.6977e-09
8.224e-11
-1.69003e-09
-1.86033e-11
-1.70915e-09
-7.75879e-11
-1.7068e-09
-2.01939e-10
-1.72137e-09
-2.7046e-10
-1.59504e-09
-3.24672e-10
-1.50009e-09
-4.77358e-10
-1.3824e-09
-5.40837e-10
-1.13752e-09
-5.73658e-10
-1.01556e-09
-4.85772e-10
-7.9126e-10
-6.316e-10
-5.46554e-10
-6.52978e-10
-3.06082e-10
-5.91103e-10
-6.83747e-11
-5.55416e-10
7.11788e-11
-3.13976e-10
2.43515e-10
-8.56049e-10
5.769e-10
-5.13691e-10
4.70105e-10
-2.18445e-10
1.2973e-15
5.98377e-10
-2.09835e-17
2.19281e-18
-2.14012e-17
-3.95421e-20
-2.12279e-17
-8.19107e-19
-2.07381e-17
-1.50731e-18
-2.00046e-17
-2.14878e-18
-1.90622e-17
-2.73515e-18
-1.79393e-17
-3.25385e-18
-1.66646e-17
-3.69576e-18
-1.52679e-17
-4.05434e-18
-1.37799e-17
-4.32572e-18
-1.22314e-17
-4.50856e-18
-1.0653e-17
-4.60384e-18
-9.07362e-18
-4.61494e-18
-7.5205e-18
-4.54737e-18
-6.01798e-18
-4.4086e-18
-4.58719e-18
-4.20747e-18
-3.24625e-18
-3.95359e-18
-2.00977e-18
-3.65697e-18
-8.88365e-19
-3.32789e-18
1.10978e-19
-2.97635e-18
9.84247e-19
-2.61154e-18
1.73009e-18
-2.24157e-18
2.34966e-18
-1.87353e-18
2.84635e-18
-1.51355e-18
3.22526e-18
-1.16674e-18
3.49284e-18
-8.37165e-19
3.65651e-18
-5.27919e-19
3.72432e-18
-2.4124e-19
3.7046e-18
2.13745e-20
3.6057e-18
2.5913e-19
3.43597e-18
4.7187e-19
3.2037e-18
6.59981e-19
2.91701e-18
8.24248e-19
2.58372e-18
9.65635e-19
2.21128e-18
1.08506e-18
1.80679e-18
1.18327e-18
1.37704e-18
1.26084e-18
9.28677e-19
1.31839e-18
4.68013e-19
1.35644e-18
1.3753e-18
-8.91768e-11
3.1303e-10
-1.45721e-10
2.44855e-10
-1.76864e-10
1.89889e-10
-2.04617e-10
1.48962e-10
-2.12149e-10
5.01669e-11
-2.52843e-10
5.69224e-11
-3.17559e-10
7.12894e-11
-4.29159e-10
1.8095e-10
-5.99082e-10
3.24034e-10
-7.7222e-10
3.149e-10
-9.7193e-10
3.20977e-10
-1.06733e-09
2.85253e-10
-1.07806e-09
1.68763e-10
-1.06186e-09
9.0426e-11
-1.01733e-09
-9.08634e-12
-9.94778e-10
-1.06394e-10
-9.36272e-10
-2.29814e-10
-8.67133e-10
-3.15728e-10
-7.49955e-10
-4.45946e-10
-5.80389e-10
-5.97781e-10
-5.0631e-10
-6.68971e-10
-3.66078e-10
-7.80932e-10
-2.58532e-10
-7.014e-10
-1.02323e-10
-6.58706e-10
1.71281e-10
-7.15541e-10
3.35324e-10
-5.76018e-10
4.2762e-10
-3.72562e-10
4.71008e-10
-3.12907e-10
4.96666e-10
-2.21101e-10
4.98428e-10
-2.90159e-10
5.7698e-10
2.78255e-11
5.5101e-10
2.4551e-10
5.19647e-10
4.37729e-10
3.57032e-10
5.23867e-10
3.49939e-10
6.27884e-10
2.36764e-10
7.19476e-10
7.70354e-11
9.12759e-10
-4.66365e-11
1.06958e-09
-1.40495e-10
1.25574e-09
-3.31109e-10
1.41416e-09
-6.66169e-10
1.43619e-09
-8.15064e-10
9.51777e-10
-9.88951e-10
6.43128e-10
-1.11814e-09
3.97632e-10
-1.24178e-09
1.98972e-10
-1.2655e-09
7.96217e-14
-1.26994e-09
-9.89615e-12
-1.28086e-09
-2.89837e-11
-1.24882e-09
-1.04502e-10
-1.23239e-09
-6.91991e-11
-1.24765e-09
2.89496e-12
-1.28645e-09
5.46036e-11
-1.2818e-09
5.80937e-11
-1.32037e-09
1.06977e-10
-1.30801e-09
8.90184e-11
-1.32601e-09
1.8243e-10
-1.38628e-09
3.11123e-10
-1.45329e-09
3.05124e-10
-1.57012e-09
3.26448e-10
-1.61704e-09
2.53617e-10
-1.64345e-09
1.69553e-10
-1.67729e-09
1.16083e-10
-1.56343e-09
-1.32459e-10
-1.5871e-09
-5.39235e-11
-1.56316e-09
-2.25879e-10
-1.52397e-09
-3.09644e-10
-1.46223e-09
-3.86417e-10
-1.38181e-09
-5.5778e-10
-1.24352e-09
-6.79119e-10
-1.01117e-09
-8.06014e-10
-8.13504e-10
-6.83437e-10
-5.66365e-10
-8.78739e-10
-4.07374e-10
-8.1197e-10
-1.96623e-10
-8.01855e-10
4.25796e-11
-7.94621e-10
4.34808e-10
-7.0621e-10
4.09431e-10
-8.30683e-10
5.83808e-10
-6.88081e-10
3.71812e-10
-6.44794e-12
5.75694e-16
9.70191e-10
-2.22422e-17
2.18288e-18
-2.21799e-17
-1.00796e-19
-2.19154e-17
-1.08469e-18
-2.13789e-17
-2.04517e-18
-2.05905e-17
-2.93847e-18
-1.95809e-17
-3.74616e-18
-1.83812e-17
-4.45515e-18
-1.70232e-17
-5.05577e-18
-1.55393e-17
-5.5406e-18
-1.39628e-17
-5.90506e-18
-1.23267e-17
-6.14767e-18
-1.06641e-17
-6.26994e-18
-9.00605e-18
-6.27668e-18
-7.38173e-18
-6.17566e-18
-5.81685e-18
-5.97736e-18
-4.3333e-18
-5.69439e-18
-2.94964e-18
-5.34033e-18
-1.68069e-18
-4.92907e-18
-5.36826e-19
-4.47458e-18
4.75788e-19
-3.99058e-18
1.35421e-18
-3.49e-18
2.09812e-18
-2.98432e-18
2.70965e-18
-2.48342e-18
3.19316e-18
-1.99548e-18
3.55483e-18
-1.52717e-18
3.80208e-18
-1.08365e-18
3.94318e-18
-6.68738e-19
3.98694e-18
-2.85086e-19
3.94236e-18
6.56537e-20
3.81844e-18
3.82723e-19
3.62408e-18
6.6612e-19
3.36796e-18
9.16446e-19
3.0584e-18
1.13474e-18
2.70314e-18
1.32226e-18
2.30948e-18
1.48028e-18
1.88437e-18
1.60994e-18
1.43458e-18
1.71223e-18
9.66733e-19
1.78808e-18
4.86871e-19
1.83818e-18
1.86302e-18
-5.1268e-11
3.64298e-10
-1.0356e-10
2.97147e-10
-1.23037e-10
2.09366e-10
-1.74955e-10
2.0088e-10
-2.29253e-10
1.04465e-10
-2.66736e-10
9.44058e-11
-4.34837e-10
2.3939e-10
-6.51642e-10
3.97754e-10
-8.25495e-10
4.97887e-10
-9.8913e-10
4.78534e-10
-1.12836e-09
4.6021e-10
-1.1527e-09
3.09589e-10
-1.14965e-09
1.65711e-10
-1.1923e-09
1.33075e-10
-1.21086e-09
9.46747e-12
-1.21682e-09
-1.00431e-10
-1.1559e-09
-2.90734e-10
-1.10935e-09
-3.62281e-10
-1.04884e-09
-5.06461e-10
-9.40765e-10
-7.05857e-10
-8.19516e-10
-7.90222e-10
-7.32872e-10
-8.67578e-10
-4.92658e-10
-9.41616e-10
-4.0813e-10
-7.43235e-10
-5.5213e-10
-5.71543e-10
-3.32905e-10
-7.95245e-10
-1.23064e-10
-5.82405e-10
-2.38529e-11
-4.1212e-10
5.80164e-11
-3.02972e-10
1.38959e-11
-2.4604e-10
7.54024e-11
-3.36824e-11
1.44241e-10
1.7667e-10
1.72867e-10
4.09101e-10
1.36969e-10
5.59764e-10
1.17287e-10
6.47566e-10
-2.55623e-11
8.62325e-10
-2.23425e-10
1.11062e-09
-5.58973e-10
1.40513e-09
-8.6819e-10
1.56496e-09
-9.72417e-10
1.51839e-09
-9.70254e-10
1.43403e-09
-1.01904e-09
1.00057e-09
-1.04754e-09
6.71631e-10
-1.09565e-09
4.4574e-10
-1.19268e-09
2.96005e-10
-1.23273e-09
4.01358e-11
-1.24329e-09
6.57644e-13
-1.2278e-09
-4.44709e-11
-1.16396e-09
-1.68336e-10
-1.1116e-09
-1.21557e-10
-1.08303e-09
-2.56767e-11
-1.13515e-09
1.06731e-10
-1.14641e-09
6.93522e-11
-1.23913e-09
1.99697e-10
-1.28605e-09
1.35949e-10
-1.31262e-09
2.08998e-10
-1.37571e-09
3.74214e-10
-1.45043e-09
3.7985e-10
-1.50092e-09
3.76933e-10
-1.52185e-09
2.74554e-10
-1.52314e-09
1.70846e-10
-1.50157e-09
9.45147e-11
-1.43649e-09
-1.97542e-10
-1.41253e-09
-7.78811e-11
-1.39984e-09
-2.38569e-10
-1.35774e-09
-3.51751e-10
-1.29669e-09
-4.47458e-10
-1.203e-09
-6.5148e-10
-1.06745e-09
-8.14662e-10
-9.68994e-10
-9.04473e-10
-6.80789e-10
-9.71643e-10
-5.73661e-10
-9.85867e-10
-4.0705e-10
-9.78581e-10
-2.2351e-10
-9.85396e-10
-8.00143e-11
-9.38115e-10
1.54041e-10
-9.40263e-10
2.96515e-10
-9.73157e-10
5.65456e-10
-9.57028e-10
5.21549e-10
3.74562e-11
1.0158e-15
1.49174e-09
-2.30452e-17
3.65697e-18
-2.31628e-17
1.72408e-20
-2.28751e-17
-1.37399e-18
-2.22715e-17
-2.65058e-18
-2.13978e-17
-3.81407e-18
-2.02899e-17
-4.85596e-18
-1.89818e-17
-5.76522e-18
-1.75081e-17
-6.5318e-18
-1.59038e-17
-7.14726e-18
-1.42054e-17
-7.60614e-18
-1.2449e-17
-7.90671e-18
-1.06708e-17
-8.05113e-18
-8.90502e-18
-8.04591e-18
-7.18344e-18
-7.90144e-18
-5.53388e-18
-7.63167e-18
-3.97924e-18
-7.25332e-18
-2.53837e-18
-6.78464e-18
-1.22619e-18
-6.24426e-18
-5.28311e-20
-5.65064e-18
9.76374e-19
-5.02167e-18
1.85989e-18
-4.3741e-18
2.59903e-18
-3.72288e-18
3.19758e-18
-3.08071e-18
3.66147e-18
-2.45798e-18
3.99835e-18
-1.86291e-18
4.21699e-18
-1.30165e-18
4.32684e-18
-7.78544e-19
4.33768e-18
-2.96399e-19
4.25943e-18
1.43186e-19
4.10184e-18
5.39639e-19
3.8744e-18
8.93235e-19
3.58626e-18
1.20491e-18
3.24592e-18
1.4761e-18
2.86116e-18
1.7085e-18
2.43914e-18
1.90386e-18
1.98666e-18
2.06382e-18
1.51043e-18
2.18985e-18
1.01684e-18
2.2832e-18
5.11706e-19
2.34477e-18
2.37528e-18
-7.96264e-11
4.43925e-10
-1.55749e-10
3.7327e-10
-1.74091e-10
2.27708e-10
-1.84636e-10
2.11426e-10
-2.37266e-10
1.57095e-10
-4.14055e-10
2.71194e-10
-5.84331e-10
4.09666e-10
-8.35579e-10
6.49001e-10
-1.01753e-09
6.79838e-10
-1.14356e-09
6.04564e-10
-1.22379e-09
5.40441e-10
-1.32463e-09
4.10425e-10
-1.39316e-09
2.34237e-10
-1.44169e-09
1.81603e-10
-1.49731e-09
6.50881e-11
-1.49275e-09
-1.04992e-10
-1.46936e-09
-3.14132e-10
-1.44021e-09
-3.91426e-10
-1.37406e-09
-5.7262e-10
-1.29534e-09
-7.84574e-10
-1.2333e-09
-8.52265e-10
-1.14975e-09
-9.51132e-10
-1.05825e-09
-1.03311e-09
-9.45778e-10
-8.55712e-10
-6.68809e-10
-8.48515e-10
-5.17272e-10
-9.46784e-10
-6.9447e-10
-4.05209e-10
-7.2584e-10
-3.80752e-10
-5.84534e-10
-4.4428e-10
-5.07588e-10
-3.22988e-10
-4.33329e-10
-1.07942e-10
-3.82502e-10
1.25842e-10
-2.72103e-10
2.98701e-10
-1.94547e-10
4.82208e-10
-2.01131e-10
6.54149e-10
-3.31184e-10
9.92377e-10
-4.22218e-10
1.20165e-09
-4.56837e-10
1.43975e-09
-5.09176e-10
1.6173e-09
-6.34134e-10
1.64335e-09
-7.43906e-10
1.5438e-09
-9.18903e-10
1.17556e-09
-9.92285e-10
7.45014e-10
-1.05374e-09
5.07196e-10
-1.11281e-09
3.55075e-10
-1.17511e-09
1.02436e-10
-1.19075e-09
1.63064e-11
-1.16576e-09
-6.94619e-11
-1.118e-09
-2.16093e-10
-1.08608e-09
-1.53481e-10
-1.05005e-09
-6.17027e-11
-1.04696e-09
1.03647e-10
-1.04252e-09
6.49108e-11
-1.11348e-09
2.70658e-10
-1.2175e-09
2.39974e-10
-1.24018e-09
2.31679e-10
-1.2818e-09
4.15839e-10
-1.31468e-09
4.12728e-10
-1.33227e-09
3.94528e-10
-1.31473e-09
2.57016e-10
-1.29206e-09
1.48175e-10
-1.27318e-09
7.56428e-11
-1.33649e-09
-1.34238e-10
-1.26181e-09
-1.52554e-10
-1.21995e-09
-2.80436e-10
-1.21109e-09
-3.6061e-10
-1.08133e-09
-5.77213e-10
-1.04388e-09
-6.88932e-10
-9.86674e-10
-8.71872e-10
-9.31268e-10
-9.59879e-10
-7.73514e-10
-1.1294e-09
-6.5448e-10
-1.1049e-09
-4.67449e-10
-1.16561e-09
-3.03841e-10
-1.14901e-09
-1.34813e-10
-1.10715e-09
2.47504e-11
-1.09983e-09
2.07674e-10
-1.15608e-09
5.97313e-10
-1.34667e-09
5.97012e-10
3.77551e-11
1.69977e-15
2.08875e-09
-2.45388e-17
5.69283e-18
-2.4553e-17
3.06588e-20
-2.41508e-17
-1.77901e-18
-2.34343e-17
-3.36972e-18
-2.24394e-17
-4.8113e-18
-2.11991e-17
-6.09809e-18
-1.97484e-17
-7.21767e-18
-1.81235e-17
-8.15832e-18
-1.63627e-17
-8.90963e-18
-1.4506e-17
-9.46449e-18
-1.25934e-17
-9.82048e-18
-1.06656e-17
-9.9804e-18
-8.76056e-18
-9.95269e-18
-6.91367e-18
-9.75093e-18
-5.15553e-18
-9.39331e-18
-3.51056e-18
-8.90156e-18
-1.998e-18
-8.29951e-18
-6.3257e-19
-7.61146e-18
5.76142e-19
-6.86117e-18
1.62394e-18
-6.07123e-18
2.51111e-18
-5.26255e-18
3.24121e-18
-4.4536e-18
3.82031e-18
-3.65994e-18
4.25654e-18
-2.89411e-18
4.5596e-18
-2.1658e-18
4.7401e-18
-1.48204e-18
4.80898e-18
-8.4753e-19
4.77726e-18
-2.65089e-19
4.65588e-18
2.63958e-19
4.45543e-18
7.39472e-19
4.18608e-18
1.16227e-18
3.85744e-18
1.53387e-18
3.47832e-18
1.8563e-18
3.05653e-18
2.13185e-18
2.5991e-18
2.36285e-18
2.11269e-18
2.55153e-18
1.60378e-18
2.69989e-18
1.0784e-18
2.80959e-18
5.42213e-19
2.88185e-18
2.91764e-18
-7.98781e-11
5.23803e-10
-1.58214e-10
4.51607e-10
-2.22732e-10
2.92226e-10
-2.72203e-10
2.60897e-10
-3.72422e-10
2.57314e-10
-7.24455e-10
6.23227e-10
-9.79109e-10
6.64319e-10
-1.07204e-09
7.41935e-10
-1.11795e-09
7.25744e-10
-1.25409e-09
7.40706e-10
-1.3508e-09
6.37152e-10
-1.47112e-09
5.3074e-10
-1.55805e-09
3.21165e-10
-1.66029e-09
2.83843e-10
-1.70509e-09
1.09884e-10
-1.67067e-09
-1.39407e-10
-1.75537e-09
-2.29438e-10
-1.72248e-09
-4.24318e-10
-1.63831e-09
-6.56786e-10
-1.65766e-09
-7.6523e-10
-1.64719e-09
-8.62742e-10
-1.62602e-09
-9.72299e-10
-1.64337e-09
-1.01577e-09
-1.5126e-09
-9.86481e-10
-1.15981e-09
-1.20131e-09
-1.25963e-09
-8.46968e-10
-9.25142e-10
-7.39696e-10
-7.49884e-10
-5.56012e-10
-7.13193e-10
-4.80973e-10
-7.85359e-10
-2.50824e-10
-7.59856e-10
-1.33447e-10
-7.20307e-10
8.6292e-11
-6.2462e-10
2.03012e-10
-5.44598e-10
4.02185e-10
-5.33519e-10
6.43069e-10
-4.70899e-10
9.29757e-10
-4.54647e-10
1.1854e-09
-4.86259e-10
1.47136e-09
-4.9365e-10
1.62469e-09
-5.39075e-10
1.68878e-09
-6.1523e-10
1.61995e-09
-7.47433e-10
1.30777e-09
-8.85218e-10
8.828e-10
-9.72579e-10
5.94558e-10
-9.94881e-10
3.77378e-10
-1.04508e-09
1.52639e-10
-1.07671e-09
4.79344e-11
-1.05296e-09
-9.32085e-11
-1.06505e-09
-2.03999e-10
-1.02876e-09
-1.89767e-10
-9.85697e-10
-1.04769e-10
-9.18497e-10
3.64492e-11
-9.26537e-10
7.29534e-11
-9.05333e-10
2.49456e-10
-1.02013e-09
3.54777e-10
-1.07613e-09
2.87679e-10
-1.09345e-09
4.33161e-10
-1.10493e-09
4.24205e-10
-1.07687e-09
3.66472e-10
-1.05211e-09
2.32256e-10
-9.89449e-10
8.55159e-11
-9.8963e-10
7.58248e-11
-1.04877e-09
-7.50974e-11
-1.03408e-09
-1.67245e-10
-1.05267e-09
-2.61843e-10
-9.67023e-10
-4.46259e-10
-9.17968e-10
-6.26269e-10
-9.37762e-10
-6.69138e-10
-8.84416e-10
-9.2522e-10
-8.17919e-10
-1.02638e-09
-7.52007e-10
-1.19531e-09
-6.08603e-10
-1.24831e-09
-4.77122e-10
-1.2971e-09
-3.37197e-10
-1.28893e-09
-2.19477e-10
-1.22487e-09
-1.37319e-10
-1.18199e-09
-7.47928e-11
-1.21861e-09
-6.40094e-11
-1.35745e-09
1.93093e-10
-2.1935e-10
1.24253e-15
2.28183e-09
-2.71265e-17
4.6861e-18
-2.63614e-17
-7.36117e-19
-2.57405e-17
-2.40287e-18
-2.48752e-17
-4.23773e-18
-2.37259e-17
-5.96268e-18
-2.23187e-17
-7.5065e-18
-2.06891e-17
-8.84816e-18
-1.88748e-17
-9.97313e-18
-1.69175e-17
-1.08674e-17
-1.4862e-17
-1.15208e-17
-1.27533e-17
-1.1929e-17
-1.06379e-17
-1.20955e-17
-8.5588e-18
-1.20311e-17
-6.55605e-18
-1.17535e-17
-4.66378e-18
-1.12864e-17
-2.90851e-18
-1.06578e-17
-1.30995e-18
-9.89834e-18
1.17728e-19
-9.03902e-18
1.36608e-18
-8.10987e-18
2.43262e-18
-7.13892e-18
3.32006e-18
-6.15158e-18
4.03487e-18
-5.17e-18
4.58614e-18
-4.21258e-18
4.98485e-18
-3.2939e-18
5.24336e-18
-2.42496e-18
5.37461e-18
-1.61349e-18
5.39142e-18
-8.64354e-19
5.30631e-18
-1.80083e-19
5.13139e-18
4.38569e-19
4.87823e-18
9.9223e-19
4.55768e-18
1.48257e-18
4.17987e-18
1.91198e-18
3.75387e-18
2.28332e-18
3.28753e-18
2.59963e-18
2.78778e-18
2.86398e-18
2.26105e-18
3.07928e-18
1.71348e-18
3.24817e-18
1.15067e-18
3.37281e-18
5.77998e-19
3.45485e-18
3.49545e-18
-6.92114e-11
5.93015e-10
-1.20792e-10
5.03187e-10
-2.25805e-10
3.9724e-10
-2.93274e-10
3.28366e-10
-4.21537e-10
3.85577e-10
-5.78074e-10
7.79763e-10
-8.92254e-10
9.78499e-10
-1.18929e-09
1.03897e-09
-1.35258e-09
8.89032e-10
-1.38019e-09
7.68311e-10
-1.42788e-09
6.84846e-10
-1.54802e-09
6.5088e-10
-1.73037e-09
5.03509e-10
-1.8661e-09
4.19567e-10
-1.88035e-09
1.24133e-10
-1.94038e-09
-7.9371e-11
-2.04219e-09
-1.27629e-10
-1.96495e-09
-5.01568e-10
-2.01166e-09
-6.10073e-10
-2.04443e-09
-7.32468e-10
-2.00083e-09
-9.06343e-10
-1.9667e-09
-1.00643e-09
-1.85941e-09
-1.12307e-09
-1.65966e-09
-1.18623e-09
-1.61204e-09
-1.24893e-09
-1.57582e-09
-8.83195e-10
-1.45766e-09
-8.57852e-10
-1.34488e-09
-6.68795e-10
-1.20056e-09
-6.25298e-10
-1.08646e-09
-3.64923e-10
-1.03779e-09
-1.82116e-10
-9.29047e-10
-2.24557e-11
-8.91113e-10
1.65076e-10
-7.65987e-10
2.77059e-10
-6.74922e-10
5.52002e-10
-6.59482e-10
9.14317e-10
-5.48862e-10
1.07478e-09
-5.09562e-10
1.43206e-09
-4.84015e-10
1.59914e-09
-4.75854e-10
1.68062e-09
-5.17714e-10
1.66181e-09
-6.04909e-10
1.39496e-09
-6.91516e-10
9.69408e-10
-7.57148e-10
6.60191e-10
-8.02622e-10
4.22854e-10
-8.53063e-10
2.03081e-10
-8.8116e-10
7.60329e-11
-9.09282e-10
-6.50846e-11
-9.3576e-10
-1.7752e-10
-9.16894e-10
-2.08632e-10
-8.56924e-10
-1.64737e-10
-7.83417e-10
-3.70563e-11
-7.49278e-10
3.88161e-11
-6.85552e-10
1.85733e-10
-7.39956e-10
4.09183e-10
-7.72437e-10
3.20161e-10
-7.57185e-10
4.17911e-10
-7.46153e-10
4.13175e-10
-7.73123e-10
3.93444e-10
-7.91082e-10
2.50216e-10
-7.76858e-10
7.12939e-11
-7.27955e-10
2.69223e-11
-7.50694e-10
-5.23581e-11
-7.45076e-10
-1.72863e-10
-6.95765e-10
-3.11155e-10
-6.37329e-10
-5.04694e-10
-7.05435e-10
-5.58164e-10
-6.91272e-10
-6.83301e-10
-7.39866e-10
-8.76626e-10
-7.25135e-10
-1.04111e-09
-6.78583e-10
-1.24186e-09
-5.74076e-10
-1.35281e-09
-4.73578e-10
-1.3976e-09
-3.76505e-10
-1.38601e-09
-2.59924e-10
-1.34145e-09
-1.33647e-10
-1.30827e-09
7.64173e-12
-1.3599e-09
-1.08909e-11
-1.33892e-09
2.62394e-10
-4.92638e-10
-4.01181e-16
2.54423e-09
-2.79595e-17
3.3539e-18
-2.80267e-17
-6.70901e-19
-2.75743e-17
-2.85585e-18
-2.65994e-17
-5.21334e-18
-2.52694e-17
-7.29345e-18
-2.36604e-17
-9.11596e-18
-2.18141e-17
-1.06947e-17
-1.97691e-17
-1.20182e-17
-1.75709e-17
-1.3066e-17
-1.52702e-17
-1.38224e-17
-1.29198e-17
-1.42798e-17
-1.05734e-17
-1.44414e-17
-8.28125e-18
-1.43217e-17
-6.08896e-18
-1.3944e-17
-4.03519e-18
-1.33392e-17
-2.14902e-18
-1.25433e-17
-4.5063e-19
-1.15955e-17
1.04688e-18
-1.05349e-17
2.33703e-18
-9.39898e-18
3.41996e-18
-8.22204e-18
4.30165e-18
-7.03451e-18
4.99229e-18
-5.86239e-18
5.50481e-18
-4.72688e-18
5.85379e-18
-3.64441e-18
6.05484e-18
-2.62697e-18
6.12375e-18
-1.68264e-18
6.07569e-18
-8.16058e-19
5.92496e-18
-2.90918e-20
5.68506e-18
6.78499e-19
5.36857e-18
1.3085e-18
4.9871e-18
1.86381e-18
4.55121e-18
2.34799e-18
4.07018e-18
2.765e-18
3.55188e-18
3.11889e-18
3.00308e-18
3.41363e-18
2.42994e-18
3.65297e-18
1.83811e-18
3.84023e-18
1.23272e-18
3.97815e-18
6.186e-19
4.06886e-18
4.11375e-18
-1.43577e-10
7.36592e-10
-2.17853e-10
5.77462e-10
-3.0098e-10
4.80367e-10
-5.1151e-10
5.38896e-10
-8.46241e-10
7.20307e-10
-1.00813e-09
9.41648e-10
-1.11716e-09
1.08753e-09
-1.16158e-09
1.08339e-09
-1.32069e-09
1.04814e-09
-1.51051e-09
9.58131e-10
-1.64135e-09
8.15691e-10
-1.69585e-09
7.05377e-10
-1.85441e-09
6.62072e-10
-1.91552e-09
4.80669e-10
-2.00219e-09
2.10806e-10
-2.18583e-09
1.04265e-10
-2.11701e-09
-1.96449e-10
-2.14702e-09
-4.71559e-10
-2.31916e-09
-4.37941e-10
-2.3367e-09
-7.14929e-10
-2.35371e-09
-8.89338e-10
-2.38401e-09
-9.76119e-10
-2.35415e-09
-1.15294e-09
-2.31067e-09
-1.22971e-09
-2.28467e-09
-1.27493e-09
-1.95662e-09
-1.21124e-09
-1.8157e-09
-9.98774e-10
-1.54277e-09
-9.41723e-10
-1.50314e-09
-6.64937e-10
-1.41164e-09
-4.5642e-10
-1.25339e-09
-3.40373e-10
-1.16554e-09
-1.10308e-10
-1.04098e-09
4.0521e-11
-9.82093e-10
2.18168e-10
-8.16422e-10
3.8633e-10
-6.93764e-10
7.91658e-10
-6.52834e-10
1.03385e-09
-5.5319e-10
1.33242e-09
-4.8882e-10
1.53477e-09
-4.05021e-10
1.59682e-09
-3.42636e-10
1.59943e-09
-3.57358e-10
1.40969e-09
-4.49611e-10
1.06166e-09
-5.21282e-10
7.31863e-10
-5.89242e-10
4.90814e-10
-6.6895e-10
2.82791e-10
-6.92484e-10
9.95688e-11
-7.17682e-10
-3.98853e-11
-7.72845e-10
-1.22355e-10
-7.85409e-10
-1.96066e-10
-7.47855e-10
-2.0229e-10
-6.64507e-10
-1.20402e-10
-5.88696e-10
-3.69938e-11
-4.96004e-10
9.30429e-11
-4.45158e-10
3.58339e-10
-6.0892e-10
4.83925e-10
-6.46074e-10
4.55067e-10
-5.96317e-10
3.63419e-10
-5.3629e-10
3.33419e-10
-4.85381e-10
1.99309e-10
-5.08269e-10
9.41833e-11
-5.17112e-10
3.57657e-11
-5.03741e-10
-6.57287e-11
-5.02731e-10
-1.73872e-10
-4.84495e-10
-3.29391e-10
-4.81659e-10
-5.0753e-10
-4.97608e-10
-5.42215e-10
-5.30779e-10
-6.5013e-10
-5.42753e-10
-8.64652e-10
-5.1047e-10
-1.07339e-09
-5.56391e-10
-1.19594e-09
-5.14237e-10
-1.39497e-09
-4.34392e-10
-1.47744e-09
-3.46435e-10
-1.47396e-09
-2.56893e-10
-1.43099e-09
-1.60306e-10
-1.40485e-09
-5.43624e-11
-1.46584e-09
-3.10447e-11
-1.36224e-09
-1.55267e-10
-3.68418e-10
-9.59116e-16
2.38896e-09
-2.4241e-17
2.37363e-17
-3.021e-17
5.29665e-18
-2.99307e-17
-3.13297e-18
-2.86788e-17
-6.46412e-18
-2.70917e-17
-8.88039e-18
-2.52391e-17
-1.09686e-17
-2.31375e-17
-1.27971e-17
-2.08169e-17
-1.43394e-17
-1.83273e-17
-1.55575e-17
-1.57275e-17
-1.64246e-17
-1.30814e-17
-1.69281e-17
-1.04537e-17
-1.7071e-17
-7.90357e-18
-1.68722e-17
-5.48412e-18
-1.63629e-17
-3.23934e-18
-1.55837e-17
-1.20118e-18
-1.45814e-17
6.09944e-19
-1.34057e-17
2.18278e-18
-1.21061e-17
3.51396e-18
-1.07287e-17
4.60749e-18
-9.31513e-18
5.47377e-18
-7.90151e-18
6.1278e-18
-6.51784e-18
6.58728e-18
-5.188e-18
6.87123e-18
-3.92986e-18
6.99917e-18
-2.75592e-18
6.99033e-18
-1.67401e-18
6.86266e-18
-6.8797e-19
6.63255e-18
2.01528e-19
6.31506e-18
9.96233e-19
5.92387e-18
1.69957e-18
5.47128e-18
2.31607e-18
4.96822e-18
2.85084e-18
4.42407e-18
3.30926e-18
3.84662e-18
3.69665e-18
3.24242e-18
4.01807e-18
2.6172e-18
4.27823e-18
1.97603e-18
4.48123e-18
1.32343e-18
4.63043e-18
6.63482e-19
4.72844e-18
4.77694e-18
4.0593e-11
6.95999e-10
-2.63043e-11
6.44359e-10
-2.11745e-10
6.65808e-10
-6.68126e-10
9.95276e-10
-1.12704e-09
1.17922e-09
-1.24129e-09
1.0559e-09
-1.21963e-09
1.06587e-09
-1.26062e-09
1.12438e-09
-1.33661e-09
1.12413e-09
-1.5013e-09
1.12281e-09
-1.66038e-09
9.74779e-10
-1.78765e-09
8.32642e-10
-1.9118e-09
7.86219e-10
-2.00764e-09
5.76511e-10
-2.1224e-09
3.25561e-10
-2.20806e-09
1.89921e-10
-2.26186e-09
-1.4265e-10
-2.33415e-09
-3.99271e-10
-2.40884e-09
-3.63252e-10
-2.48763e-09
-6.36146e-10
-2.49844e-09
-8.78523e-10
-2.55181e-09
-9.22758e-10
-2.55652e-09
-1.14823e-09
-2.54006e-09
-1.24617e-09
-2.54085e-09
-1.27415e-09
-2.48327e-09
-1.26883e-09
-2.18229e-09
-1.29976e-09
-2.03357e-09
-1.09045e-09
-1.82047e-09
-8.78041e-10
-1.59624e-09
-6.80653e-10
-1.45216e-09
-4.84449e-10
-1.37654e-09
-1.85935e-10
-1.24364e-09
-9.23822e-11
-1.13941e-09
1.13944e-10
-1.0796e-09
3.26518e-10
-8.82307e-10
5.94361e-10
-8.33079e-10
9.84623e-10
-6.54527e-10
1.15387e-09
-4.76527e-10
1.35677e-09
-3.71791e-10
1.49208e-09
-2.77134e-10
1.50477e-09
-2.20938e-10
1.35349e-09
-2.51245e-10
1.09197e-09
-3.10638e-10
7.91256e-10
-3.74932e-10
5.5511e-10
-4.25378e-10
3.33238e-10
-4.76111e-10
1.50303e-10
-5.29138e-10
1.31434e-11
-5.95592e-10
-5.58996e-11
-6.30854e-10
-1.60803e-10
-6.24977e-10
-2.08165e-10
-5.73154e-10
-1.72224e-10
-4.76862e-10
-1.33284e-10
-3.54752e-10
-2.90652e-11
-1.16165e-10
1.19754e-10
-1.63888e-10
5.3165e-10
-1.81468e-10
4.72648e-10
-1.94772e-10
3.76725e-10
-1.9623e-10
3.34878e-10
-2.7315e-10
2.7623e-10
-3.55698e-10
1.76732e-10
-3.54471e-10
3.45386e-11
-2.98028e-10
-1.22171e-10
-2.37403e-10
-2.34497e-10
-2.11697e-10
-3.55097e-10
-2.60159e-10
-4.59067e-10
-2.97217e-10
-5.05156e-10
-2.97487e-10
-6.4986e-10
-3.01502e-10
-8.60637e-10
-3.40829e-10
-1.03407e-09
-3.75567e-10
-1.16121e-09
-4.00359e-10
-1.37018e-09
-3.91118e-10
-1.48668e-09
-3.44861e-10
-1.52022e-09
-3.04449e-10
-1.4714e-09
-3.29558e-10
-1.37975e-09
-5.62329e-10
-1.23307e-09
-7.71049e-10
-1.15352e-09
-4.94828e-10
-6.44637e-10
-9.84199e-16
1.89413e-09
-5.52869e-17
-9.01609e-17
-3.77936e-17
-1.21962e-17
-3.32606e-17
-7.66505e-18
-3.10948e-17
-8.62886e-18
-2.91799e-17
-1.07951e-17
-2.70676e-17
-1.30816e-17
-2.46797e-17
-1.51866e-17
-2.2035e-17
-1.69849e-17
-1.91945e-17
-1.84011e-17
-1.6231e-17
-1.93917e-17
-1.32244e-17
-1.9938e-17
-1.02548e-17
-2.00443e-17
-7.39431e-18
-1.97357e-17