/*--------------------------------*- C++ -*----------------------------------*\
  =========                 |
  \\      /  F ield         | OpenFOAM: The Open Source CFD Toolbox
   \\    /   O peration     | Website:  https://openfoam.org
    \\  /    A nd           | Version:  6
     \\/     M anipulation  |
\*---------------------------------------------------------------------------*/
FoamFile
{
    version     2.0;
    format      ascii;
    class       volScalarField;
    location    "1650";
    object      Su;
}
// * * * * * * * * * * * * * * * * * * * * * * * * * * * * * * * * * * * * * //

dimensions      [0 0 -1 0 0 0 0];

internalField   nonuniform List<scalar> 
4800
(
0.219007
0.215847
0.212711
0.209618
0.206585
0.203624
0.200745
0.197953
0.195256
0.192665
0.190191
0.187839
0.185612
0.18351
0.181533
0.179678
0.177936
0.176301
0.174762
0.173306
0.171922
0.170592
0.169298
0.168028
0.166768
0.165503
0.164219
0.162902
0.16154
0.160122
0.158629
0.157045
0.15536
0.153566
0.151656
0.149628
0.147479
0.145216
0.142857
0.140434
0.137979
0.135521
0.133081
0.130664
0.128264
0.125872
0.123473
0.121054
0.118602
0.116105
0.113553
0.110938
0.108257
0.105508
0.102692
0.0998122
0.0968754
0.0938914
0.0908691
0.0878164
0.0847428
0.0816555
0.0785579
0.0754517
0.0723356
0.0692051
0.0660509
0.0628692
0.0596543
0.0563954
0.0530879
0.0497324
0.0463266
0.0428679
0.0393572
0.0357993
0.0322072
0.0285862
0.0249473
0.0212932
0.017633
0.0140163
0.0104609
0.00697525
0.00355884
0.000205698
-0.00309278
-0.00634611
-0.00956369
-0.0127541
-0.0159249
-0.0190823
-0.0222315
-0.0253767
-0.0285212
-0.0316674
-0.0348172
-0.0379719
-0.0411324
-0.0442993
-0.0474729
-0.0506533
-0.0538402
-0.0570336
-0.0602331
-0.0634384
-0.0666489
-0.0698643
-0.0730841
-0.0763078
-0.0795351
-0.0827654
-0.0859984
-0.0892337
-0.0924709
-0.0957096
-0.0989497
-0.102191
-0.105432
-0.108674
0.219001
0.21583
0.212689
0.209593
0.206556
0.20359
0.200703
0.197902
0.195197
0.192598
0.190117
0.187759
0.185529
0.183427
0.181452
0.1796
0.177865
0.176236
0.174702
0.17325
0.171867
0.170539
0.169248
0.16798
0.16672
0.165454
0.16417
0.162854
0.161493
0.160075
0.158584
0.157005
0.155328
0.153545
0.15165
0.149639
0.147513
0.14528
0.142955
0.140562
0.138132
0.135699
0.133285
0.130892
0.128515
0.126143
0.123762
0.121359
0.118922
0.116438
0.113897
0.111294
0.108623
0.105885
0.103079
0.100211
0.0972868
0.0943149
0.0913059
0.0882679
0.0852085
0.0821317
0.0790404
0.0759338
0.0728097
0.0696629
0.0664875
0.0632841
0.0600444
0.056759
0.0534248
0.0500399
0.0466023
0.0431103
0.0395665
0.0359771
0.03236
0.0287062
0.0250039
0.0212745
0.0175634
0.0139231
0.0103592
0.00687419
0.00346367
0.000119159
-0.00316969
-0.00641347
-0.0096222
-0.0128047
-0.0159687
-0.0191202
-0.0222645
-0.0254056
-0.0285465
-0.0316897
-0.034837
-0.0379895
-0.0411482
-0.0443135
-0.0474857
-0.0506648
-0.0538506
-0.057043
-0.0602416
-0.063446
-0.0666558
-0.0698705
-0.0730896
-0.0763128
-0.0795394
-0.0827692
-0.0860017
-0.0892365
-0.0924732
-0.0957115
-0.0989511
-0.102192
-0.105433
-0.108675
0.218995
0.215814
0.212664
0.209559
0.206511
0.20353
0.200625
0.197807
0.195086
0.192473
0.189979
0.187613
0.185381
0.183285
0.181321
0.179482
0.177758
0.176139
0.174613
0.173166
0.171785
0.170457
0.169168
0.1679
0.166639
0.165373
0.164087
0.162771
0.16141
0.159993
0.158508
0.15694
0.155279
0.153516
0.151645
0.149665
0.147579
0.145392
0.143117
0.140777
0.138402
0.136024
0.133658
0.131306
0.128967
0.126627
0.124275
0.121898
0.119483
0.11702
0.114499
0.111914
0.109263
0.106545
0.103762
0.100917
0.0980134
0.0950613
0.092071
0.0890512
0.0860096
0.0829477
0.0798659
0.0767586
0.0736227
0.070454
0.067251
0.0640133
0.0607293
0.0573958
0.0540069
0.0505608
0.0470566
0.0434939
0.0398776
0.036212
0.0325074
0.028767
0.024986
0.0211744
0.0173963
0.0137215
0.0101466
0.00666644
0.00327028
-5.5241e-05
-0.00332375
-0.00654785
-0.00973861
-0.0129053
-0.0160556
-0.0191956
-0.0223301
-0.0254629
-0.0285969
-0.0317342
-0.0348765
-0.0380248
-0.0411798
-0.0443419
-0.0475113
-0.0506879
-0.0538715
-0.0570619
-0.0602587
-0.0634614
-0.0666697
-0.0698829
-0.0731008
-0.0763227
-0.0795482
-0.0827769
-0.0860083
-0.0892421
-0.0924779
-0.0957153
-0.098954
-0.102194
-0.105434
-0.108675
0.218989
0.215796
0.212632
0.209512
0.206445
0.203444
0.200516
0.197675
0.194934
0.192306
0.189805
0.187441
0.185219
0.183135
0.181183
0.179355
0.177641
0.176031
0.174511
0.17307
0.171692
0.170364
0.169074
0.167805
0.166546
0.165281
0.163997
0.162681
0.161321
0.159906
0.158428
0.156874
0.155233
0.153496
0.151659
0.14972
0.147679
0.145545
0.143336
0.141071
0.138774
0.13647
0.134172
0.131878
0.129586
0.127288
0.124972
0.12263
0.120248
0.117816
0.115321
0.11276
0.110132
0.107436
0.104676
0.101853
0.0989735
0.0960477
0.0930838
0.0900914
0.0870756
0.0840347
0.0809691
0.0778645
0.0747206
0.0715326
0.0682979
0.0650143
0.061673
0.0582706
0.0548003
0.0512627
0.0476506
0.0439702
0.0402322
0.036447
0.0326148
0.0287456
0.0248512
0.0209483
0.0170992
0.013388
0.00980728
0.0063427
0.00297419
-0.000318712
-0.00355419
-0.00674744
-0.0099107
-0.0130536
-0.0161836
-0.0193064
-0.0224265
-0.0255473
-0.0286712
-0.0318
-0.034935
-0.038077
-0.0412266
-0.0443841
-0.0475493
-0.0507222
-0.0539026
-0.05709
-0.0602841
-0.0634844
-0.0666903
-0.0699015
-0.0731174
-0.0763374
-0.0795612
-0.0827883
-0.0860182
-0.0892505
-0.0924849
-0.095721
-0.0989584
-0.102197
-0.105436
-0.108676
0.218982
0.215773
0.212591
0.20945
0.206359
0.203331
0.200377
0.197512
0.194756
0.192124
0.189628
0.187274
0.185064
0.182992
0.181052
0.179235
0.177533
0.175933
0.174422
0.172987
0.171615
0.17029
0.169002
0.167736
0.166474
0.165208
0.163925
0.162611
0.161255
0.159846
0.158376
0.156838
0.155221
0.153516
0.151718
0.149822
0.147832
0.145755
0.14361
0.141422
0.139214
0.137002
0.134786
0.132567
0.130338
0.128096
0.12583
0.123533
0.121196
0.118802
0.116344
0.113815
0.111218
0.108549
0.105815
0.103019
0.100168
0.0972755
0.0943477
0.091393
0.0884097
0.0853939
0.0823432
0.0792378
0.0760842
0.0728728
0.0696001
0.0662613
0.0628465
0.0593492
0.0557682
0.0521017
0.0483435
0.0445053
0.040596
0.0366315
0.0326271
0.028605
0.024584
0.0205755
0.0166377
0.012892
0.00932016
0.00589117
0.00257066
-0.000671446
-0.0038587
-0.00700879
-0.0101347
-0.0132459
-0.0163493
-0.01945
-0.0225516
-0.0256569
-0.0287678
-0.0318856
-0.0350112
-0.0381453
-0.041288
-0.0444393
-0.0475992
-0.0507673
-0.0539434
-0.057127
-0.0603175
-0.0635146
-0.0667176
-0.069926
-0.0731393
-0.0763569
-0.0795784
-0.0828034
-0.0860313
-0.0892617
-0.0924942
-0.0957285
-0.0989642
-0.102201
-0.105438
-0.108676
0.218971
0.215739
0.212534
0.209369
0.206253
0.203196
0.200217
0.197337
0.194577
0.19195
0.189466
0.187126
0.184928
0.18287
0.180945
0.179144
0.177457
0.175871
0.174372
0.172947
0.171582
0.170263
0.168979
0.167715
0.166461
0.165201
0.163917
0.162602
0.16125
0.159848
0.15839
0.156867
0.155274
0.153604
0.151848
0.150003
0.148074
0.146073
0.144014
0.141916
0.139795
0.137666
0.135532
0.133388
0.13123
0.129052
0.126844
0.124601
0.122312
0.119963
0.117546
0.115058
0.112501
0.109869
0.107171
0.104411
0.101598
0.0987463
0.0958621
0.0929493
0.0900008
0.0870076
0.0839648
0.0808561
0.0776888
0.0744488
0.0711314
0.0677243
0.0642178
0.0606057
0.0568892
0.0530645
0.0491338
0.0451036
0.0409846
0.0367964
0.0325664
0.0283357
0.0241428
0.0200016
0.0159574
0.0121908
0.00865898
0.00529985
0.00205722
-0.00111061
-0.00423202
-0.00732594
-0.0104049
-0.0134771
-0.0165484
-0.0196225
-0.0227021
-0.025789
-0.0288845
-0.0319893
-0.0351039
-0.0382283
-0.0413627
-0.0445068
-0.0476602
-0.0508226
-0.0539935
-0.0571724
-0.0603587
-0.0635517
-0.0667511
-0.0699561
-0.0731662
-0.0763809
-0.0795997
-0.082822
-0.0860474
-0.0892754
-0.0925056
-0.0957377
-0.0989713
-0.102206
-0.105441
-0.108677
0.218959
0.215704
0.212472
0.209278
0.206133
0.203049
0.200049
0.197165
0.194414
0.191804
0.189337
0.187015
0.184836
0.182796
0.180891
0.179111
0.177443
0.175874
0.174391
0.172979
0.171625
0.170315
0.169038
0.167782
0.166535
0.165279
0.164004
0.162701
0.161357
0.159962
0.158513
0.157006
0.155436
0.153797
0.152083
0.150293
0.148432
0.146508
0.144534
0.142525
0.140496
0.138456
0.136407
0.134344
0.132261
0.130153
0.128009
0.125823
0.123587
0.121286
0.118917
0.116478
0.11397
0.111383
0.10873
0.106016
0.103248
0.100444
0.097606
0.0947347
0.091819
0.0888455
0.0858092
0.0826974
0.0795098
0.0762365
0.0728642
0.0693751
0.0657681
0.0620327
0.0581677
0.0541688
0.0500407
0.0457868
0.04142
0.0369615
0.0324438
0.0279183
0.0234706
0.0191517
0.0149735
0.0112241
0.00779461
0.00456128
0.00143789
-0.00162745
-0.00466431
-0.00768961
-0.0107131
-0.0137405
-0.0167752
-0.0198194
-0.0228743
-0.0259407
-0.0290189
-0.0321091
-0.0352112
-0.0383249
-0.0414498
-0.0445856
-0.0477316
-0.0508874
-0.0540523
-0.0572257
-0.060407
-0.0635955
-0.0667906
-0.0699916
-0.073198
-0.0764092
-0.0796247
-0.0828439
-0.0860664
-0.0892916
-0.0925191
-0.0957487
-0.0989797
-0.102212
-0.105445
-0.108679
0.218948
0.215669
0.212411
0.209189
0.206018
0.20292
0.199917
0.197034
0.194291
0.191699
0.189257
0.18696
0.184806
0.182792
0.180913
0.179158
0.177513
0.175968
0.174505
0.173111
0.171773
0.170479
0.169217
0.167974
0.166735
0.165485
0.164216
0.16292
0.161585
0.160202
0.158769
0.15728
0.155734
0.154126
0.152453
0.150715
0.148917
0.147067
0.145176
0.143257
0.141318
0.13937
0.13741
0.135431
0.133427
0.13139
0.129311
0.127185
0.125003
0.122756
0.120441
0.118056
0.115601
0.113069
0.110467
0.107807
0.105092
0.102338
0.099544
0.0967088
0.0938206
0.0908642
0.087835
0.0847208
0.081515
0.0782049
0.0747677
0.0711943
0.0674823
0.0636169
0.0595953
0.0554121
0.051069
0.0465702
0.0419297
0.03717
0.0323234
0.0274405
0.0226253
0.017976
0.0135356
0.00990832
0.00670458
0.00368281
0.000729924
-0.00220372
-0.00513949
-0.00808659
-0.0110488
-0.0140275
-0.0170231
-0.0200354
-0.0230641
-0.0261086
-0.0291683
-0.0322428
-0.0353314
-0.0384333
-0.0415479
-0.0446746
-0.0478124
-0.0509609
-0.0541191
-0.0572864
-0.060462
-0.0636453
-0.0668356
-0.0700321
-0.0732343
-0.0764416
-0.0796533
-0.082869
-0.0860881
-0.0893101
-0.0925346
-0.0957611
-0.0989893
-0.102219
-0.105449
-0.10868
0.218936
0.215634
0.212353
0.209102
0.205902
0.202791
0.1998
0.196943
0.194227
0.191658
0.189241
0.186976
0.184856
0.182877
0.181032
0.179308
0.177695
0.176179
0.17474
0.173368
0.172053
0.17078
0.169535
0.168306
0.167078
0.16584
0.164584
0.163298
0.161971
0.160598
0.159179
0.157708
0.156184
0.154606
0.152971
0.151281
0.149543
0.147761
0.145949
0.144116
0.142267
0.140408
0.138536
0.136639
0.134711
0.132743
0.13073
0.128664
0.126538
0.124347
0.122089
0.119761
0.117364
0.114893
0.112348
0.10974
0.107078
0.104375
0.101626
0.0988285
0.0959656
0.0930238
0.0899994
0.0868798
0.0836518
0.0802983
0.0767974
0.0731448
0.0693323
0.0653432
0.0611642
0.0567915
0.052226
0.0474717
0.0425395
0.037447
0.0322197
0.0268977
0.021567
0.016332
0.011261
0.00814163
0.00540455
0.00270645
-2.72759e-05
-0.00280854
-0.00563458
-0.00849994
-0.0113995
-0.014329
-0.017285
-0.0202651
-0.0232671
-0.0262892
-0.02933
-0.0323882
-0.0354626
-0.0385521
-0.0416558
-0.0447726
-0.0479017
-0.0510422
-0.0541931
-0.0573537
-0.0605232
-0.0637007
-0.0668857
-0.0700772
-0.0732748
-0.0764776
-0.0796852
-0.0828969
-0.0861123
-0.0893307
-0.0925518
-0.0957751
-0.0990001
-0.102226
-0.105454
-0.108681
0.218931
0.215615
0.212317
0.209046
0.20583
0.202716
0.199739
0.196907
0.194224
0.19169
0.189309
0.187082
0.185004
0.183068
0.181264
0.179579
0.178004
0.176521
0.175114
0.173774
0.172488
0.171241
0.17002
0.168811
0.1676
0.166376
0.16513
0.163851
0.162531
0.161169
0.159761
0.158303
0.156799
0.155246
0.153645
0.151998
0.150312
0.148596
0.146859
0.145106
0.14334
0.141564
0.139773
0.137954
0.136098
0.134198
0.132247
0.130239
0.128167
0.126032
0.123831
0.121562
0.119225
0.116817
0.114337
0.111786
0.109183
0.106532
0.103823
0.101053
0.0982093
0.0952825
0.0922642
0.0891373
0.0858848
0.0824867
0.0789257
0.0751993
0.071293
0.0671832
0.0628532
0.0582983
0.0535123
0.0485
0.0432696
0.0378296
0.0321901
0.0263801
0.0204363
0.0142482
0.00495607
0.00596853
0.00403948
0.00173779
-0.000766292
-0.00339903
-0.00612153
-0.00891069
-0.0117518
-0.0146352
-0.0175539
-0.0205031
-0.0234792
-0.0264793
-0.0295012
-0.032543
-0.035603
-0.0386798
-0.0417721
-0.0448787
-0.0479985
-0.0511304
-0.0542736
-0.057427
-0.0605899
-0.0637612
-0.0669404
-0.0701265
-0.073319
-0.076517
-0.0797201
-0.0829275
-0.0861388
-0.0893534
-0.0925707
-0.0957903
-0.0990118
-0.102235
-0.105459
-0.108683
0.218917
0.215582
0.21228
0.209025
0.205829
0.202726
0.199756
0.196942
0.19429
0.191798
0.189465
0.187288
0.185261
0.183376
0.181621
0.179983
0.17845
0.177008
0.17564
0.174335
0.173085
0.17187
0.170681
0.1695
0.168312
0.167107
0.165875
0.164601
0.163283
0.161925
0.160523
0.159075
0.157588
0.156057
0.154485
0.152875
0.151236
0.149581
0.147911
0.146229
0.144537
0.142836
0.141115
0.139365
0.137575
0.135736
0.133841
0.131885
0.129865
0.127784
0.125639
0.123427
0.121149
0.118803
0.116385
0.113888
0.111344
0.108743
0.106077
0.10334
0.100524
0.0976139
0.094596
0.0914529
0.0881692
0.0847282
0.0811151
0.0773213
0.0733262
0.0691059
0.0646399
0.0599171
0.0549255
0.0496687
0.0441564
0.038398
0.0324063
0.0261906
0.0197576
0.0130334
0.00416007
0.0046586
0.00302306
0.000944692
-0.00140542
-0.00392996
-0.00657298
-0.00930118
-0.0120939
-0.0149376
-0.0178233
-0.0207446
-0.0236967
-0.026676
-0.0296796
-0.0327053
-0.0357509
-0.0388148
-0.0418955
-0.0449916
-0.0481017
-0.0512248
-0.0543598
-0.0575057
-0.0606614
-0.0638262
-0.0669992
-0.0701796
-0.0733666
-0.0765595
-0.0797577
-0.0829605
-0.0861674
-0.0893777
-0.092591
-0.0958068
-0.0990245
-0.102244
-0.105464
-0.108685
0.218909
0.215556
0.212241
0.208992
0.205835
0.202781
0.199851
0.197069
0.194453
0.192005
0.189725
0.187606
0.185638
0.183811
0.182112
0.180527
0.179044
0.177648
0.176321
0.175057
0.17385
0.172674
0.171522
0.170376
0.169219
0.168037
0.166819
0.16555
0.164232
0.162874
0.161472
0.160027
0.158552
0.157038
0.155488
0.153907
0.152309
0.150709
0.149101
0.147484
0.145858
0.144219
0.142559
0.140865
0.139129
0.13734
0.135493
0.133583
0.13161
0.129578
0.127485
0.125329
0.123108
0.120818
0.118455
0.116012
0.11352
0.110965
0.10834
0.105635
0.102841
0.0999426
0.0969271
0.0937744
0.0904689
0.0869944
0.0833365
0.0794814
0.0754055
0.0710825
0.0664845
0.0616036
0.0564303
0.050964
0.0452102
0.0391806
0.0328892
0.0263626
0.0196194
0.0126246
0.00387787
0.00405478
0.00242674
0.000397367
-0.00189835
-0.0043723
-0.00697033
-0.00965895
-0.0124169
-0.01523
-0.0180886
-0.0209859
-0.0239166
-0.0268767
-0.0298632
-0.0328733
-0.0359049
-0.038956
-0.042025
-0.0451103
-0.0482106
-0.0513245
-0.054451
-0.0575889
-0.0607373
-0.0638951
-0.0670616
-0.0702359
-0.0734171
-0.0766046
-0.0797976
-0.0829955
-0.0861977
-0.0894036
-0.0926126
-0.0958242
-0.0990379
-0.102253
-0.10547
-0.108687
0.218913
0.215567
0.212254
0.209009
0.205871
0.202864
0.199994
0.197272
0.194711
0.192321
0.1901
0.188047
0.186144
0.184382
0.182746
0.18122
0.179794
0.178445
0.177167
0.175945
0.174784
0.173651
0.172541
0.171435
0.170311
0.169156
0.167953
0.166691
0.165374
0.164012
0.162608
0.161162
0.159693
0.158188
0.156654
0.155095
0.153535
0.151988
0.150433
0.148869
0.147295
0.145704
0.14409
0.14244
0.140744
0.138995
0.137186
0.135313
0.133381
0.131392
0.129347
0.127243
0.125075
0.122837
0.120526
0.118134
0.115685
0.113169
0.110578
0.107899
0.105125
0.102239
0.0992293
0.0960723
0.0927538
0.0892561
0.0855618
0.0816487
0.077489
0.0730623
0.0683439
0.0633284
0.0580024
0.0523638
0.0464237
0.0402003
0.0337171
0.0270027
0.0200781
0.0129131
0.00394085
0.00399826
0.00220977
9.12535e-05
-0.00224049
-0.00471987
-0.00730774
-0.00997899
-0.0127167
-0.0155089
-0.018347
-0.0212247
-0.024137
-0.0270799
-0.0300504
-0.0330458
-0.0360637
-0.0391022
-0.0421595
-0.0452339
-0.0483241
-0.0514286
-0.0545463
-0.0576761
-0.0608168
-0.0639674
-0.0671271
-0.0702949
-0.0734701
-0.0766519
-0.0798395
-0.0830323
-0.0862296
-0.0894308
-0.0926353
-0.0958426
-0.0990521
-0.102263
-0.105476
-0.108689
0.218932
0.215626
0.212351
0.209141
0.206036
0.203064
0.200242
0.197579
0.195081
0.192757
0.190605
0.188622
0.18679
0.185096
0.183527
0.182065
0.180698
0.179399
0.178172
0.176995
0.175882
0.174796
0.173725
0.172661
0.171573
0.170445
0.169263
0.16801
0.166694
0.165328
0.163921
0.162472
0.161001
0.159498
0.157972
0.156428
0.154905
0.153401
0.151891
0.150366
0.148831
0.147277
0.145694
0.144072
0.142403
0.14068
0.138896
0.137051
0.135153
0.133202
0.131201
0.129145
0.127026
0.124836
0.12257
0.120222
0.117807
0.115321
0.112753
0.110096
0.107341
0.104467
0.101465
0.0983069
0.0949774
0.0914545
0.0877214
0.0837534
0.0795275
0.0750215
0.0702021
0.0650689
0.0596131
0.0538355
0.0477499
0.0413814
0.0347724
0.0279567
0.0209599
0.0137893
0.0044013
0.00445768
0.00230188
-2.52959e-05
-0.00246088
-0.00498682
-0.00759127
-0.0102634
-0.0129935
-0.0157737
-0.0185976
-0.02146
-0.0243568
-0.0272846
-0.0302404
-0.0332217
-0.0362264
-0.0392525
-0.042298
-0.0453616
-0.0484415
-0.0515364
-0.0546452
-0.0577664
-0.0608992
-0.0640424
-0.067195
-0.0703563
-0.0735252
-0.076701
-0.0798831
-0.0830705
-0.0862627
-0.0894591
-0.0926589
-0.0958616
-0.0990668
-0.102274
-0.105482
-0.108691
0.218959
0.215703
0.21248
0.209321
0.206267
0.203347
0.200582
0.197984
0.19556
0.193314
0.19124
0.189334
0.187578
0.185958
0.184458
0.183061
0.181752
0.180509
0.179335
0.17821
0.177137
0.176097
0.175063
0.174036
0.172983
0.171882
0.170719
0.169477
0.168165
0.166798
0.165386
0.163932
0.162454
0.160947
0.159425
0.157895
0.156401
0.154926
0.153448
0.151949
0.150442
0.14891
0.147342
0.145733
0.144078
0.142366
0.140597
0.138772
0.136902
0.134984
0.133022
0.131009
0.128933
0.126784
0.124557
0.122246
0.119858
0.117392
0.114841
0.112199
0.109462
0.1066
0.103603
0.100445
0.0971081
0.0935671
0.0898038
0.0857909
0.0815057
0.0769218
0.0720192
0.0667943
0.0612269
0.0553189
0.0490862
0.0425582
0.0357857
0.0288419
0.0218588
0.0150589
0.00900166
0.00538406
0.00254675
-5.39967e-05
-0.00261355
-0.00520018
-0.00783423
-0.0105186
-0.0132506
-0.016026
-0.0188409
-0.0216919
-0.0245759
-0.0274902
-0.0304325
-0.0334005
-0.0363924
-0.0394061
-0.04244
-0.0454925
-0.048562
-0.0516472
-0.0547467
-0.0578594
-0.060984
-0.0641195
-0.0672649
-0.0704193
-0.0735818
-0.0767516
-0.0799278
-0.0831098
-0.0862968
-0.0894881
-0.0926831
-0.0958812
-0.0990819
-0.102284
-0.105488
-0.108693
0.218988
0.215792
0.212631
0.209534
0.206543
0.203693
0.201007
0.198491
0.196152
0.193993
0.192008
0.190187
0.188514
0.18697
0.185543
0.184213
0.182963
0.181779
0.180655
0.179578
0.178542
0.177542
0.176543
0.175546
0.17452
0.17344
0.17229
0.171058
0.169749
0.16838
0.166961
0.165503
0.164019
0.162508
0.160984
0.159467
0.157987
0.156531
0.155072
0.153589
0.152093
0.150567
0.148996
0.147386
0.145729
0.14402
0.142256
0.140446
0.138597
0.136709
0.134781
0.132806
0.130768
0.128656
0.126462
0.124178
0.121811
0.119361
0.116822
0.114193
0.111466
0.108612
0.105618
0.102463
0.0991223
0.095569
0.0917845
0.0877419
0.0834173
0.078782
0.0738115
0.0684904
0.062811
0.0567805
0.0504139
0.0437378
0.0367862
0.029638
0.0224571
0.0154935
0.00942055
0.00551622
0.00254154
-0.000138278
-0.00275563
-0.0053855
-0.00804938
-0.0107517
-0.0134919
-0.0162681
-0.0190786
-0.0219213
-0.0247947
-0.027697
-0.0306266
-0.0335818
-0.036561
-0.0395625
-0.0425847
-0.045626
-0.048685
-0.0517602
-0.0548504
-0.0579542
-0.0610705
-0.0641981
-0.0673362
-0.0704836
-0.0736396
-0.0768031
-0.0799734
-0.0831498
-0.0863314
-0.0895177
-0.0927078
-0.0959012
-0.0990972
-0.102295
-0.105495
-0.108695
0.219015
0.215876
0.212779
0.209762
0.206862
0.204106
0.201512
0.199094
0.196854
0.194794
0.192905
0.191177
0.189592
0.188131
0.186779
0.185516
0.184327
0.183199
0.182121
0.181085
0.180083
0.179112
0.17814
0.177162
0.176153
0.175085
0.173942
0.172716
0.171408
0.170029
0.168599
0.167133
0.165641
0.164125
0.162598
0.161089
0.159612
0.15816
0.156708
0.155235
0.153735
0.152198
0.150609
0.148987
0.14732
0.145605
0.143841
0.142044
0.140216
0.138356
0.136458
0.134513
0.132507
0.130425
0.128256
0.125996
0.123645
0.121209
0.118679
0.11606
0.113339
0.110491
0.1075
0.104349
0.101007
0.0974465
0.0936465
0.0895804
0.0852159
0.0805255
0.0754892
0.0700961
0.0643411
0.0582202
0.0517421
0.04493
0.0378177
0.0304462
0.0228315
0.0150124
0.00766751
0.00471386
0.0022384
-0.00028827
-0.0028911
-0.005547
-0.00824107
-0.0109665
-0.0137206
-0.0165026
-0.0193122
-0.0221494
-0.0250139
-0.0279053
-0.0308229
-0.0337656
-0.0367321
-0.0397213
-0.0427316
-0.0457616
-0.0488098
-0.0518748
-0.0549554
-0.0580502
-0.061158
-0.0642777
-0.0674083
-0.0705486
-0.0736979
-0.0768551
-0.0800195
-0.0831902
-0.0863664
-0.0895475
-0.0927327
-0.0959213
-0.0991127
-0.102306
-0.105501
-0.108697
0.219056
0.215999
0.212989
0.210067
0.207268
0.204616
0.202124
0.199806
0.197668
0.195711
0.193924
0.192295
0.190804
0.18943
0.188154
0.186959
0.185829
0.184752
0.183718
0.182714
0.181739
0.180783
0.179825
0.178854
0.177846
0.176779
0.17564
0.174411
0.173095
0.171701
0.170254
0.168771
0.16726
0.165726
0.164187
0.162673
0.161189
0.159729
0.15827
0.156788
0.155269
0.153712
0.15211
0.150476
0.148798
0.147075
0.145314
0.14353
0.141724
0.139889
0.138018
0.136102
0.134124
0.132069
0.129922
0.12768
0.125346
0.122922
0.120403
0.117792
0.115079
0.112236
0.109252
0.106106
0.102768
0.0992055
0.0953967
0.0913151
0.086922
0.082196
0.0771155
0.0716648
0.0658351
0.0596317
0.0530683
0.0461572
0.0389065
0.0313011
0.0231824
0.0138367
0.00101528
0.00344549
0.00200157
-0.000347321
-0.00296296
-0.00566637
-0.00840489
-0.0111633
-0.0139385
-0.0167312
-0.0195435
-0.0223774
-0.0252344
-0.0281157
-0.0310215
-0.0339516
-0.0369054
-0.039882
-0.0428801
-0.0458984
-0.0489356
-0.0519903
-0.055061
-0.0581467
-0.0612459
-0.0643575
-0.0674805
-0.0706138
-0.0737563
-0.0769072
-0.0800656
-0.0832306
-0.0864014
-0.0895773
-0.0927576
-0.0959414
-0.0991282
-0.102317
-0.105508
-0.1087
0.219106
0.216153
0.21325
0.210435
0.207743
0.205198
0.202816
0.20061
0.198584
0.196737
0.195056
0.193528
0.19213
0.190843
0.189642
0.188514
0.187442
0.186412
0.185413
0.184435
0.183477
0.182526
0.181571
0.180593
0.179576
0.178499
0.177348
0.176105
0.174771
0.173356
0.171879
0.170362
0.168814
0.167246
0.165678
0.164142
0.162635
0.16115
0.159661
0.15815
0.156611
0.155041
0.153433
0.151792
0.150111
0.148394
0.146647
0.144883
0.143099
0.14129
0.139449
0.13756
0.135609
0.133575
0.131448
0.129225
0.126909
0.124501
0.121999
0.119402
0.116703
0.11387
0.110899
0.107764
0.104434
0.100875
0.097064
0.0929723
0.0885556
0.0837948
0.0786673
0.0731639
0.0672818
0.0610295
0.0544199
0.0474722
0.0401947
0.0325957
0.0246981
0.0165721
0.00898285
0.00557208
0.00271405
-9.81774e-05
-0.00291306
-0.00572694
-0.00853628
-0.0113416
-0.0141464
-0.0169554
-0.0197739
-0.0226065
-0.0254572
-0.0283286
-0.0312226
-0.0341399
-0.0370806
-0.0400441
-0.0430296
-0.046036
-0.0490618
-0.0521058
-0.0551667
-0.058243
-0.0613335
-0.064437
-0.0675523
-0.0706784
-0.0738143
-0.0769588
-0.0801112
-0.0832706
-0.0864361
-0.0896069
-0.0927822
-0.0959613
-0.0991435
-0.102328
-0.105514
-0.108702
0.219163
0.216325
0.213539
0.210844
0.208271
0.205845
0.203583
0.201496
0.199587
0.197857
0.196286
0.19486
0.193553
0.192347
0.19122
0.190155
0.189135
0.188146
0.187176
0.186217
0.185264
0.184309
0.183343
0.182344
0.181302
0.180197
0.179017
0.177746
0.176384
0.174938
0.173423
0.171858
0.170258
0.168643
0.167033
0.165458
0.163908
0.162373
0.160837
0.159293
0.157736
0.156156
0.154546
0.152906
0.151235
0.149534
0.147811
0.146074
0.144321
0.142546
0.140736
0.138877
0.136951
0.134939
0.132835
0.130635
0.128346
0.125965
0.123495
0.120926
0.118253
0.115445
0.112497
0.10938
0.106061
0.102514
0.0987101
0.0946121
0.0901759
0.0853806
0.0802065
0.0746566
0.0687397
0.0624714
0.0558662
0.0489475
0.0417411
0.0342951
0.0266941
0.0191363
0.0123128
0.00724275
0.00346582
0.000229098
-0.00280081
-0.00574335
-0.00863864
-0.0115026
-0.0143454
-0.0171764
-0.0200046
-0.0228379
-0.0256829
-0.0285446
-0.0314264
-0.0343303
-0.0372572
-0.0402071
-0.0431796
-0.0461735
-0.0491876
-0.0522208
-0.0552715
-0.0583383
-0.0614201
-0.0645154
-0.0676231
-0.0707421
-0.0738713
-0.0770096
-0.0801561
-0.0833099
-0.08647
-0.0896358
-0.0928063
-0.0959808
-0.0991585
-0.102339
-0.105521
-0.108704
0.219227
0.216518
0.21386
0.211294
0.20885
0.206556
0.204425
0.202466
0.20068
0.199064
0.197598
0.196268
0.19505
0.193922
0.192866
0.191858
0.190883
0.189926
0.188976
0.188025
0.187066
0.186094
0.185098
0.184061
0.182976
0.181823
0.180595
0.179281
0.177877
0.17639
0.174829
0.173211
0.171555
0.169889
0.168234
0.166608
0.165002
0.163408
0.161822
0.16024
0.158656
0.157063
0.15545
0.153816
0.152161
0.150484
0.148794
0.147094
0.145383
0.143648
0.141876
0.140052
0.138158
0.136174
0.134105
0.13194
0.129699
0.127368
0.124955
0.12244
0.11982
0.117058
0.114147
0.111055
0.107754
0.104224
0.100431
0.0963331
0.0918794
0.0870362
0.0817891
0.0761665
0.0702143
0.0639624
0.0574175
0.0505761
0.0434502
0.0360952
0.0285759
0.0210473
0.0139304
0.00776109
0.00379537
0.000455538
-0.00268312
-0.00573104
-0.00871575
-0.0116476
-0.0145369
-0.0173958
-0.020237
-0.0230726
-0.0259124
-0.028764
-0.0316329
-0.0345226
-0.0374348
-0.0403704
-0.0433291
-0.0463101
-0.0493122
-0.0523342
-0.0553746
-0.058432
-0.0615049
-0.0645921
-0.0676923
-0.0708042
-0.0739268
-0.0770589
-0.0801997
-0.083348
-0.086503
-0.0896639
-0.0928297
-0.0959997
-0.0991731
-0.102349
-0.105527
-0.108706
0.219298
0.21673
0.214217
0.211795
0.209492
0.207331
0.205329
0.203495
0.20183
0.200327
0.198967
0.197734
0.196604
0.195551
0.194555
0.193595
0.192655
0.191719
0.190777
0.189819
0.188838
0.187829
0.186783
0.185688
0.184537
0.183318
0.182023
0.180645
0.179183
0.177642
0.176028
0.174352
0.172642
0.170923
0.169216
0.167532
0.165867
0.164212
0.162571
0.160944
0.159331
0.157729
0.156125
0.154513
0.152888
0.151248
0.1496
0.147944
0.14628
0.144595
0.142875
0.141103
0.13926
0.137323
0.135309
0.133208
0.131053
0.128817
0.126507
0.124089
0.121562
0.118874
0.116017
0.112953
0.10967
0.106156
0.102384
0.0983037
0.0938345
0.0889163
0.0835589
0.0778423
0.0718806
0.0657139
0.0593152
0.0525935
0.045527
0.0381542
0.0305222
0.0227126
0.0147173
0.00397067
0.00361031
0.000593661
-0.00254569
-0.00568335
-0.00876622
-0.0117781
-0.0147233
-0.017616
-0.0204734
-0.0233122
-0.0261464
-0.028987
-0.0318419
-0.0347161
-0.0376127
-0.0405331
-0.0434773
-0.0464448
-0.0494346
-0.0524452
-0.0554752
-0.058523
-0.0615872
-0.0646663
-0.067759
-0.0708641
-0.0739802
-0.0771064
-0.0802415
-0.0833846
-0.0865346
-0.0896908
-0.0928521
-0.0960178
-0.099187
-0.102359
-0.105533
-0.108708
0.219373
0.216956
0.214594
0.212321
0.210163
0.208144
0.206278
0.204573
0.203029
0.201639
0.200383
0.199241
0.19819
0.1972
0.196251
0.195327
0.194408
0.19348
0.192528
0.191542
0.190516
0.189446
0.188326
0.187149
0.18591
0.184602
0.18322
0.18176
0.18022
0.178604
0.176923
0.175188
0.173424
0.171651
0.169885
0.168141
0.166418
0.164705
0.163003
0.161321
0.159672
0.158062
0.156486
0.154926
0.15336
0.151784
0.150201
0.148612
0.147016
0.145403
0.143765
0.142074
0.140312
0.138453
0.136537
0.134558
0.132564
0.130492
0.128347
0.126085
0.123708
0.121131
0.118349
0.11531
0.112046
0.108561
0.104851
0.100836
0.0963711
0.0913447
0.0858003
0.0798935
0.0739323
0.0679493
0.0618476
0.0553292
0.0483549
0.0409529
0.0331657
0.0250129
0.016167
0.0040161
0.00387995
0.000925854
-0.00231159
-0.00558526
-0.00879275
-0.0119008
-0.0149112
-0.0178422
-0.0207172
-0.0235588
-0.0263861
-0.0292139
-0.0320529
-0.0349102
-0.0377898
-0.0406939
-0.043623
-0.0465766
-0.0495536
-0.0525527
-0.0555722
-0.0586105
-0.061666
-0.0647372
-0.0678227
-0.0709211
-0.0740311
-0.0771515
-0.0802813
-0.0834193
-0.0865646
-0.0897162
-0.0928733
-0.0960349
-0.0992001
-0.102368
-0.105538
-0.10871
0.21945
0.217187
0.214981
0.212862
0.210855
0.208982
0.207255
0.205679
0.204252
0.202967
0.201803
0.200742
0.199756
0.198815
0.197902
0.196999
0.196087
0.195146
0.194161
0.19312
0.192022
0.190862
0.189639
0.188351
0.186997
0.185577
0.184087
0.182527
0.180891
0.179181
0.177407
0.175597
0.173772
0.171938
0.170104
0.168294
0.166522
0.164773
0.163018
0.161282
0.159588
0.157964
0.156424
0.154949
0.153488
0.152022
0.15056
0.14908
0.147587
0.146089
0.144585
0.143024
0.141388
0.139668
0.137935
0.136191
0.134473
0.132657
0.130744
0.128702
0.126541
0.124116
0.121419
0.118381
0.11514
0.111717
0.108179
0.104344
0.0999676
0.0948951
0.089198
0.0828503
0.076805
0.0710688
0.0655192
0.0592825
0.0524157
0.0449575
0.0369473
0.0284184
0.0189581
0.00678623
0.00491324
0.00151875
-0.00200087
-0.00547167
-0.00882513
-0.0120374
-0.0151155
-0.0180842
-0.0209744
-0.0238157
-0.0266328
-0.0294448
-0.0322654
-0.0351036
-0.0379647
-0.0408514
-0.0437646
-0.0467038
-0.049668
-0.0526554
-0.0556646
-0.0586935
-0.0617406
-0.0648042
-0.0678827
-0.0709746
-0.0740787
-0.0771937
-0.0803184
-0.0834517
-0.0865926
-0.08974
-0.092893
-0.0960508
-0.0992124
-0.102377
-0.105543
-0.108711
0.219527
0.217421
0.215372
0.213408
0.211552
0.209821
0.208224
0.206766
0.205445
0.204249
0.203162
0.202165
0.201231
0.200327
0.199435
0.198538
0.19761
0.19663
0.195582
0.194457
0.193253
0.191972
0.190614
0.189184
0.187686
0.186129
0.184512
0.182831
0.181078
0.179252
0.177367
0.175456
0.173549
0.171645
0.169721
0.167816
0.165979
0.164215
0.162426
0.160645
0.158892
0.157232
0.155738
0.154417
0.153154
0.151917
0.150748
0.14948
0.148161
0.14684
0.145543
0.144166
0.142709
0.141229
0.139832
0.138518
0.137254
0.135789
0.134127
0.132352
0.130476
0.128247
0.125634
0.122526
0.11934
0.116018
0.112817
0.109312
0.105079
0.100462
0.0954176
0.0878887
0.0814737
0.0758154
0.0712873
0.0652022
0.0583753
0.0507394
0.0419264
0.0327765
0.023734
0.0137003
0.00664676
0.00208306
-0.00180675
-0.00545677
-0.00893108
-0.0122287
-0.0153608
-0.0183566
-0.0212534
-0.024087
-0.0268879
-0.0296795
-0.0324781
-0.0352947
-0.0381356
-0.0410039
-0.0439005
-0.046825
-0.0497762
-0.0527522
-0.0557511
-0.058771
-0.06181
-0.0648663
-0.0679382
-0.0710241
-0.0741227
-0.0772326
-0.0803526
-0.0834815
-0.0866182
-0.0897618
-0.0929111
-0.0960654
-0.0992236
-0.102385
-0.105548
-0.108713
0.219604
0.21765
0.215752
0.213938
0.212225
0.210626
0.209148
0.207792
0.206554
0.205422
0.204389
0.203433
0.202529
0.201643
0.200753
0.199834
0.198859
0.197807