/*--------------------------------*- C++ -*----------------------------------*\
  =========                 |
  \\      /  F ield         | OpenFOAM: The Open Source CFD Toolbox
   \\    /   O peration     | Website:  https://openfoam.org
    \\  /    A nd           | Version:  6
     \\/     M anipulation  |
\*---------------------------------------------------------------------------*/
FoamFile
{
    version     2.0;
    format      ascii;
    class       volScalarField;
    location    "1650";
    object      T;
}
// * * * * * * * * * * * * * * * * * * * * * * * * * * * * * * * * * * * * * //

dimensions      [0 0 0 1 0 0 0];

internalField   nonuniform List<scalar> 
4800
(
552.493
552.378
552.264
552.152
552.042
551.935
551.83
551.729
551.631
551.537
551.448
551.362
551.281
551.205
551.134
551.066
551.003
550.944
550.888
550.835
550.785
550.737
550.69
550.644
550.598
550.552
550.506
550.458
550.408
550.357
550.303
550.245
550.184
550.119
550.05
549.976
549.898
549.816
549.731
549.643
549.554
549.465
549.376
549.289
549.202
549.115
549.028
548.94
548.851
548.761
548.668
548.573
548.476
548.376
548.274
548.17
548.063
547.955
547.845
547.735
547.623
547.511
547.399
547.286
547.173
547.06
546.945
546.83
546.713
546.595
546.475
546.354
546.23
546.105
545.977
545.848
545.718
545.587
545.455
545.322
545.19
545.058
544.929
544.803
544.679
544.557
544.438
544.32
544.203
544.087
543.972
543.858
543.744
543.63
543.516
543.401
543.287
543.173
543.058
542.943
542.828
542.713
542.597
542.482
542.366
542.249
542.133
542.016
541.899
541.783
541.666
541.548
541.431
541.314
541.196
541.079
540.961
540.844
540.726
540.609
552.492
552.377
552.263
552.151
552.041
551.933
551.829
551.727
551.629
551.535
551.445
551.359
551.278
551.202
551.131
551.063
551.001
550.941
550.886
550.833
550.783
550.735
550.688
550.642
550.596
550.55
550.504
550.456
550.407
550.355
550.301
550.244
550.183
550.118
550.05
549.977
549.9
549.819
549.734
549.648
549.559
549.471
549.384
549.297
549.211
549.125
549.038
548.951
548.863
548.773
548.68
548.586
548.489
548.39
548.288
548.184
548.078
547.97
547.861
547.751
547.64
547.528
547.416
547.304
547.19
547.076
546.961
546.845
546.727
546.608
546.487
546.365
546.24
546.113
545.985
545.855
545.723
545.591
545.457
545.321
545.187
545.055
544.926
544.799
544.676
544.554
544.435
544.317
544.201
544.086
543.971
543.856
543.742
543.629
543.515
543.401
543.287
543.172
543.058
542.943
542.828
542.713
542.597
542.481
542.365
542.249
542.133
542.016
541.899
541.782
541.665
541.548
541.431
541.314
541.196
541.079
540.961
540.844
540.726
540.609
552.492
552.377
552.263
552.15
552.039
551.931
551.826
551.724
551.625
551.53
551.44
551.354
551.273
551.197
551.126
551.059
550.997
550.938
550.883
550.83
550.78
550.732
550.685
550.639
550.593
550.547
550.501
550.453
550.404
550.352
550.298
550.242
550.181
550.117
550.05
549.978
549.902
549.823
549.74
549.655
549.569
549.483
549.397
549.312
549.227
549.142
549.057
548.971
548.883
548.794
548.702
548.609
548.512
548.414
548.313
548.21
548.104
547.997
547.889
547.779
547.669
547.558
547.446
547.334
547.22
547.105
546.989
546.871
546.752
546.631
546.509
546.384
546.256
546.127
545.996
545.863
545.729
545.593
545.456
545.318
545.181
545.048
544.918
544.792
544.669
544.548
544.429
544.312
544.197
544.082
543.968
543.854
543.74
543.626
543.513
543.399
543.285
543.171
543.057
542.942
542.827
542.712
542.596
542.481
542.365
542.248
542.132
542.016
541.899
541.782
541.665
541.548
541.431
541.314
541.196
541.079
540.961
540.844
540.726
540.609
552.492
552.376
552.261
552.148
552.037
551.928
551.822
551.719
551.62
551.524
551.434
551.348
551.267
551.192
551.121
551.055
550.992
550.934
550.879
550.827
550.777
550.729
550.682
550.636
550.59
550.544
550.498
550.45
550.401
550.349
550.296
550.239
550.18
550.117
550.05
549.98
549.906
549.828
549.748
549.666
549.583
549.499
549.416
549.333
549.249
549.166
549.082
548.997
548.911
548.823
548.732
548.639
548.544
548.446
548.346
548.244
548.139
548.033
547.926
547.817
547.708
547.597
547.486
547.374
547.26
547.144
547.027
546.908
546.787
546.663
546.537
546.409
546.278
546.145
546.009
545.872
545.733
545.592
545.451
545.31
545.17
545.036
544.906
544.78
544.658
544.538
544.421
544.305
544.19
544.077
543.963
543.85
543.737
543.623
543.51
543.397
543.283
543.169
543.055
542.94
542.826
542.71
542.595
542.48
542.364
542.248
542.131
542.015
541.898
541.782
541.665
541.548
541.43
541.313
541.196
541.079
540.961
540.844
540.726
540.609
552.492
552.375
552.26
552.146
552.034
551.924
551.817
551.713
551.613
551.518
551.427
551.342
551.262
551.186
551.116
551.05
550.989
550.93
550.876
550.824
550.774
550.726
550.679
550.633
550.587
550.542
550.495
550.447
550.398
550.347
550.294
550.238
550.179
550.117
550.052
549.983
549.911
549.836
549.758
549.679
549.599
549.518
549.438
549.358
549.277
549.195
549.113
549.03
548.945
548.858
548.769
548.677
548.583
548.486
548.387
548.286
548.183
548.078
547.971
547.864
547.756
547.647
547.536
547.423
547.309
547.193
547.074
546.953
546.829
546.702
546.572
546.439
546.303
546.164
546.022
545.878
545.733
545.587
545.441
545.296
545.153
545.018
544.888
544.764
544.643
544.526
544.41
544.296
544.182
544.07
543.957
543.845
543.732
543.619
543.507
543.394
543.28
543.167
543.053
542.938
542.824
542.709
542.594
542.478
542.362
542.247
542.13
542.014
541.897
541.781
541.664
541.547
541.43
541.313
541.196
541.078
540.961
540.844
540.726
540.609
552.491
552.374
552.258
552.143
552.03
551.919
551.811
551.707
551.607
551.511
551.421
551.336
551.257
551.182
551.112
551.047
550.986
550.928
550.874
550.822
550.773
550.725
550.678
550.632
550.587
550.541
550.495
550.447
550.398
550.347
550.294
550.239
550.181
550.121
550.057
549.99
549.92
549.847
549.773
549.697
549.62
549.543
549.465
549.387
549.309
549.23
549.15
549.069
548.986
548.9
548.813
548.723
548.63
548.534
548.437
548.336
548.234
548.131
548.026
547.921
547.814
547.705
547.595
547.482
547.367
547.25
547.129
547.006
546.879
546.748
546.613
546.474
546.332
546.186
546.036
545.884
545.731
545.578
545.425
545.275
545.129
544.992
544.864
544.742
544.625
544.51
544.396
544.284
544.173
544.061
543.95
543.838
543.727
543.615
543.502
543.39
543.277
543.164
543.05
542.936
542.821
542.707
542.592
542.477
542.361
542.245
542.129
542.013
541.897
541.78
541.663
541.546
541.429
541.312
541.195
541.078
540.961
540.843
540.726
540.609
552.491
552.373
552.256
552.14
552.026
551.914
551.805
551.7
551.601
551.506
551.417
551.332
551.253
551.179
551.11
551.046
550.985
550.928
550.875
550.823
550.774
550.727
550.68
550.635
550.59
550.544
550.498
550.451
550.402
550.351
550.299
550.244
550.187
550.128
550.065
550.001
549.933
549.863
549.792
549.719
549.645
549.571
549.497
549.422
549.347
549.27
549.192
549.113
549.032
548.948
548.863
548.774
548.683
548.589
548.493
548.395
548.294
548.193
548.09
547.985
547.88
547.772
547.662
547.549
547.433
547.315
547.192
547.066
546.935
546.799
546.659
546.514
546.365
546.21
546.052
545.89
545.726
545.562
545.401
545.244
545.093
544.957
544.833
544.715
544.602
544.491
544.381
544.271
544.161
544.052
543.942
543.831
543.72
543.609
543.498
543.385
543.273
543.16
543.047
542.933
542.819
542.704
542.59
542.475
542.359
542.244
542.128
542.012
541.895
541.779
541.662
541.546
541.429
541.312
541.195
541.078
540.96
540.843
540.726
540.609
552.49
552.372
552.253
552.136
552.022
551.909
551.8
551.696
551.596
551.502
551.414
551.33
551.252
551.179
551.111
551.047
550.988
550.932
550.879
550.828
550.78
550.733
550.687
550.642
550.597
550.552
550.506
550.459
550.41
550.36
550.308
550.254
550.198
550.14
550.079
550.016
549.951
549.884
549.815
549.745
549.675
549.604
549.533
549.461
549.389
549.315
549.239
549.162
549.083
549.002
548.918
548.831
548.742
548.65
548.556
548.46
548.361
548.261
548.16
548.057
547.952
547.845
547.735
547.622
547.506
547.386
547.261
547.132
546.997
546.857
546.711
546.559
546.402
546.239
546.07
545.898
545.722
545.545
545.37
545.202
545.041
544.909
544.793
544.683
544.576
544.47
544.364
544.257
544.149
544.041
543.933
543.823
543.713
543.603
543.492
543.381
543.269
543.156
543.043
542.93
542.816
542.702
542.587
542.472
542.357
542.242
542.126
542.01
541.894
541.778
541.661
541.545
541.428
541.311
541.194
541.077
540.96
540.843
540.726
540.609
552.49
552.37
552.251
552.133
552.017
551.905
551.796
551.692
551.594
551.501
551.413
551.331
551.254
551.182
551.115
551.053
550.994
550.939
550.887
550.838
550.79
550.744
550.699
550.654
550.609
550.564
550.519
550.472
550.424
550.374
550.323
550.269
550.214
550.157
550.098
550.036
549.973
549.909
549.843
549.776
549.709
549.642
549.574
549.505
549.435
549.364
549.291
549.216
549.139
549.059
548.978
548.893
548.806
548.717
548.624
548.53
548.433
548.335
548.235
548.134
548.03
547.923
547.814
547.701
547.584
547.462
547.335
547.202
547.064
546.919
546.768
546.609
546.444
546.271
546.093
545.908
545.718
545.525
545.332
545.142
544.958
544.845
544.746
544.648
544.549
544.448
544.346
544.242
544.136
544.03
543.923
543.815
543.706
543.597
543.486
543.375
543.264
543.152
543.039
542.926
542.813
542.699
542.585
542.47
542.355
542.24
542.124
542.009
541.893
541.776
541.66
541.544
541.427
541.31
541.193
541.077
540.96
540.843
540.726
540.609
552.49
552.37
552.25
552.131
552.015
551.902
551.794
551.691
551.594
551.502
551.416
551.335
551.259
551.189
551.124
551.063
551.006
550.952
550.901
550.852
550.806
550.76
550.716
550.672
550.628
550.584
550.539
550.492
550.444
550.395
550.344
550.291
550.237
550.18
550.122
550.062
550.001
549.939
549.876
549.812
549.748
549.684
549.619
549.553
549.486
549.417
549.346
549.273
549.198
549.121
549.041
548.958
548.874
548.786
548.696
548.604
548.509
548.413
548.315
548.215
548.111
548.005
547.896
547.782
547.664
547.541
547.412
547.277
547.135
546.986
546.829
546.664
546.49
546.309
546.119
545.922
545.717
545.507
545.291
545.067
544.804
544.766
544.696
544.613
544.522
544.427
544.328
544.227
544.124
544.019
543.913
543.806
543.698
543.59
543.48
543.37
543.259
543.147
543.035
542.922
542.809
542.696
542.582
542.467
542.353
542.238
542.122
542.007
541.891
541.775
541.659
541.543
541.426
541.309
541.193
541.076
540.959
540.842
540.725
540.608
552.489
552.368
552.249
552.131
552.015
551.902
551.794
551.692
551.596
551.506
551.421
551.342
551.269
551.2
551.137
551.077
551.022
550.97
550.92
550.873
550.827
550.783
550.74
550.697
550.654
550.61
550.566
550.52
550.472
550.422
550.372
550.319
550.265
550.21
550.153
550.094
550.035
549.975
549.914
549.853
549.792
549.73
549.668
549.604
549.539
549.473
549.404
549.333
549.26
549.184
549.106
549.026
548.943
548.858
548.771
548.68
548.588
548.493
548.397
548.298
548.195
548.09
547.98
547.866
547.747
547.622
547.491
547.354
547.209
547.056
546.894
546.723
546.542
546.351
546.151
545.942
545.725
545.5
545.266
545.023
544.752
544.719
544.66
544.584
544.499
544.407
544.312
544.213
544.111
544.008
543.904
543.798
543.691
543.582
543.474
543.364
543.253
543.142
543.031
542.918
542.805
542.692
542.579
542.464
542.35
542.235
542.12
542.005
541.889
541.773
541.657
541.541
541.425
541.309
541.192
541.075
540.959
540.842
540.725
540.608
552.489
552.367
552.247
552.129
552.015
551.904
551.798
551.697
551.602
551.513
551.431
551.354
551.282
551.216
551.155
551.097
551.043
550.993
550.945
550.899
550.855
550.812
550.771
550.729
550.687
550.644
550.6
550.554
550.506
550.457
550.406
550.354
550.3
550.245
550.189
550.132
550.074
550.016
549.957
549.899
549.84
549.78
549.72
549.659
549.596
549.531
549.464
549.394
549.323
549.249
549.173
549.095
549.014
548.931
548.846
548.757
548.667
548.574
548.479
548.381
548.279
548.174
548.065
547.951
547.831
547.705
547.572
547.432
547.284
547.128
546.961
546.784
546.596
546.398
546.189
545.971
545.743
545.506
545.261
545.008
544.736
544.697
544.638
544.564
544.481
544.391
544.297
544.2
544.1
543.998
543.894
543.789
543.683
543.575
543.467
543.358
543.248
543.137
543.026
542.914
542.802
542.689
542.575
542.461
542.347
542.233
542.118
542.003
541.887
541.772
541.656
541.54
541.424
541.308
541.191
541.075
540.958
540.842
540.725
540.608
552.489
552.368
552.248
552.13
552.016
551.907
551.803
551.704
551.612
551.525
551.444
551.37
551.301
551.237
551.178
551.122
551.071
551.022
550.975
550.931
550.889
550.848
550.808
550.767
550.727
550.685
550.641
550.595
550.548
550.498
550.447
550.395
550.341
550.287
550.231
550.175
550.118
550.062
550.006
549.949
549.892
549.834
549.775
549.716
549.654
549.591
549.525
549.457
549.387
549.315
549.241
549.164
549.086
549.005
548.921
548.834
548.745
548.654
548.56
548.463
548.362
548.257
548.148
548.034
547.913
547.787
547.653
547.511
547.36
547.199
547.028
546.846
546.653
546.449
546.233
546.008
545.773
545.529
545.278
545.018
544.74
544.695
544.63
544.553
544.469
544.379
544.285
544.188
544.089
543.987
543.885
543.78
543.675
543.568
543.46
543.351
543.242
543.132
543.021
542.909
542.797
542.685
542.572
542.458
542.344
542.23
542.116
542.001
541.885
541.77
541.655
541.539
541.423
541.307
541.19
541.074
540.958
540.841
540.725
540.608
552.49
552.37
552.251
552.135
552.022
551.914
551.812
551.716
551.625
551.541
551.463
551.391
551.324
551.263
551.206
551.153
551.103
551.056
551.012
550.969
550.929
550.889
550.851
550.812
550.772
550.732
550.689
550.643
550.595
550.546
550.495
550.442
550.389
550.334
550.279
550.223
550.168
550.113
550.058
550.003
549.947
549.891
549.834
549.775
549.714
549.652
549.587
549.52
549.451
549.38
549.308
549.233
549.156
549.077
548.995
548.91
548.822
548.732
548.639
548.542
548.442
548.338
548.229
548.115
547.994
547.866
547.731
547.587
547.434
547.27
547.096
546.909
546.712
546.502
546.281
546.051
545.811
545.564
545.31
545.05
544.772
544.712
544.633
544.549
544.461
544.369
544.275
544.178
544.079
543.978
543.875
543.772
543.667
543.56
543.453
543.345
543.236
543.126
543.016
542.905
542.793
542.681
542.568
542.455
542.341
542.227
542.113
541.998
541.883
541.768
541.653
541.537
541.422
541.306
541.19
541.073
540.957
540.841
540.725
540.608
552.491
552.373
552.256
552.141
552.031
551.925
551.824
551.73
551.642
551.561
551.486
551.417
551.353
551.294
551.24
551.189
551.142
551.097
551.054
551.013
550.974
550.937
550.899
550.862
550.824
550.784
550.741
550.696
550.649
550.599
550.548
550.495
550.442
550.387
550.332
550.276
550.222
550.168
550.115
550.06
550.006
549.95
549.893
549.835
549.775
549.713
549.649
549.582
549.515
549.445
549.374
549.301
549.226
549.148
549.067
548.983
548.896
548.807
548.714
548.619
548.519
548.416
548.307
548.192
548.071
547.943
547.806
547.661
547.506
547.339
547.162
546.972
546.77
546.556
546.33
546.093
545.848
545.596
545.343
545.096
544.876
544.745
544.642
544.548
544.455
544.361
544.266
544.168
544.069
543.969
543.867
543.763
543.659
543.553
543.446
543.339
543.23
543.121
543.011
542.9
542.789
542.677
542.565
542.452
542.338
542.225
542.111
541.996
541.881
541.766
541.651
541.536
541.42
541.305
541.189
541.073
540.957
540.841
540.724
540.608
552.492
552.376
552.261
552.149
552.041
551.937
551.84
551.749
551.664
551.586
551.514
551.448
551.387
551.331
551.279
551.231
551.186
551.143
551.102
551.063
551.025
550.989
550.953
550.917
550.879
550.84
550.798
550.754
550.706
550.656
550.605
550.552
550.498
550.443
550.388
550.333
550.279
550.227
550.174
550.12
550.066
550.01
549.953
549.895
549.835
549.773
549.709
549.643
549.576
549.508
549.438
549.366
549.292
549.215
549.136
549.053
548.967
548.878
548.786
548.691
548.592
548.489
548.38
548.266
548.144
548.016
547.878
547.732
547.575
547.407
547.227
547.034
546.828
546.609
546.378
546.136
545.884
545.625
545.364
545.112
544.892
544.75
544.642
544.545
544.45
544.355
544.258
544.16
544.061
543.96
543.858
543.755
543.651
543.545
543.439
543.332
543.224
543.115
543.006
542.895
542.784
542.673
542.561
542.448
542.335
542.222
542.108
541.994
541.879
541.765
541.65
541.534
541.419
541.304
541.188
541.072
540.956
540.84
540.724
540.608
552.493
552.379
552.267
552.157
552.052
551.952
551.858
551.77
551.689
551.615
551.546
551.483
551.426
551.373
551.324
551.278
551.235
551.194
551.155
551.117
551.081
551.046
551.011
550.975
550.939
550.9
550.858
550.814
550.766
550.716
550.664
550.611
550.557
550.502
550.447
550.392
550.338
550.286
550.233
550.179
550.125
550.069
550.012
549.953
549.892
549.83
549.766
549.701
549.635
549.567
549.498
549.428
549.355
549.28
549.201
549.119
549.034
548.945
548.854
548.759
548.66
548.557
548.448
548.334
548.213
548.084
547.946
547.798
547.64
547.47
547.288
547.092
546.883
546.661
546.426
546.179
545.922
545.654
545.378
545.095
544.828
544.721
544.631
544.54
544.445
544.349
544.251
544.152
544.052
543.951
543.85
543.747
543.643
543.538
543.432
543.325
543.218
543.109
543
542.89
542.78
542.669
542.557
542.445
542.332
542.219
542.105
541.991
541.877
541.763
541.648
541.533
541.418
541.302
541.187
541.071
540.956
540.84
540.724
540.608
552.494
552.383
552.274
552.168
552.067
551.971
551.88
551.796
551.719
551.648
551.583
551.524
551.47
551.42
551.374
551.33
551.289
551.25
551.213
551.177
551.141
551.106
551.072
551.036
551
550.961
550.92
550.875
550.827
550.777
550.724
550.67
550.616
550.56
550.504
550.449
550.395
550.342
550.289
550.236
550.181
550.124
550.066
550.007
549.946
549.883
549.82
549.755
549.689
549.623
549.555
549.485
549.414
549.339
549.261
549.18
549.095
549.007
548.916
548.821
548.723
548.62
548.512
548.398
548.277
548.148
548.01
547.862
547.702
547.531
547.347
547.149
546.938
546.713
546.475
546.224
545.961
545.685
545.391
545.056
544.605
544.675
544.623
544.538
544.443
544.345
544.245
544.145
544.044
543.943
543.841
543.738
543.635
543.53
543.425
543.319
543.212
543.104
542.995
542.885
542.775
542.664
542.553
542.441
542.329
542.216
542.103
541.989
541.875
541.761
541.646
541.532
541.417
541.301
541.186
541.071
540.955
540.839
540.724
540.608
552.496
552.389
552.284
552.182
552.084
551.992
551.905
551.825
551.752
551.685
551.624
551.569
551.518
551.471
551.428
551.387
551.348
551.311
551.274
551.239
551.204
551.17
551.135
551.099
551.062
551.023
550.982
550.936
550.888
550.837
550.783
550.728
550.672
550.615
550.558
550.502
550.448
550.394
550.34
550.285
550.229
550.172
550.114
550.054
549.993
549.931
549.868
549.804
549.739
549.674
549.607
549.538
549.468
549.394
549.317
549.236
549.152
549.065
548.974
548.88
548.782
548.679
548.572
548.458
548.337
548.208
548.07
547.922
547.762
547.589
547.403
547.203
546.99
546.764
546.524
546.272
546.008
545.733
545.446
545.151
544.876
544.752
544.649
544.547
544.445
544.342
544.241
544.139
544.037
543.935
543.833
543.73
543.627
543.523
543.418
543.312
543.205
543.098
542.989
542.88
542.771
542.66
542.549
542.438
542.326
542.213
542.1
541.987
541.873
541.759
541.645
541.53
541.415
541.3
541.185
541.07
540.954
540.839
540.723
540.608
552.498
552.395
552.294
552.197
552.103
552.015
551.933
551.858
551.788
551.726
551.669
551.617
551.57
551.526
551.485
551.446
551.409
551.373
551.338
551.303
551.269
551.234
551.199
551.163
551.125
551.085
551.042
550.996
550.946
550.894
550.839
550.782
550.724
550.665
550.607
550.55
550.494
550.438
550.382
550.326
550.27
550.212
550.154
550.095
550.034
549.972
549.91
549.847
549.783
549.719
549.653
549.586
549.516
549.443
549.367
549.287
549.204
549.118
549.029
548.935
548.839
548.737
548.63
548.517
548.397
548.268
548.13
547.982
547.821
547.647
547.459
547.258
547.043
546.816
546.577
546.326
546.065
545.795
545.519
545.245
544.997
544.813
544.676
544.559
544.449
544.342
544.237
544.133
544.03
543.927
543.824
543.722
543.619
543.515
543.41
543.305
543.199
543.092
542.984
542.875
542.766
542.656
542.545
542.434
542.322
542.21
542.098
541.984
541.871
541.757
541.643
541.529
541.414
541.299
541.184
541.069
540.954
540.839
540.723
540.608
552.501
552.402
552.306
552.213
552.124
552.041
551.964
551.893
551.828
551.769
551.716
551.668
551.624
551.583
551.545
551.508
551.473
551.438
551.403
551.369
551.334
551.299
551.263
551.225
551.185
551.144
551.099
551.051
551
550.946
550.89
550.831
550.771
550.71
550.65
550.591
550.533
550.475
550.418
550.36
550.303
550.245
550.187
550.127
550.067
550.007
549.945
549.884
549.822
549.759
549.695
549.629
549.56
549.488
549.413
549.335
549.254
549.169
549.082
548.991
548.896
548.796
548.69
548.578
548.459
548.331
548.193
548.044
547.883
547.707
547.517
547.313
547.097
546.871
546.633
546.385
546.127
545.86
545.587
545.314
545.056
544.832
544.688
544.567
544.453
544.342
544.234
544.128
544.023
543.919
543.816
543.713
543.61
543.507
543.403
543.298
543.192
543.086
542.979
542.87
542.762
542.652
542.542
542.431
542.319
542.207
542.095
541.982
541.869
541.755
541.641
541.527
541.413
541.298
541.183
541.068
540.953
540.838
540.723
540.608
552.503
552.41
552.319
552.231
552.148
552.069
551.997
551.93
551.87
551.815
551.766
551.721
551.68
551.642
551.606
551.571
551.537
551.503
551.469
551.434
551.398
551.361
551.323
551.284
551.242
551.198
551.15
551.1
551.047
550.991
550.933
550.872
550.81
550.748
550.686
550.625
550.564
550.504
550.445
550.386
550.327
550.269
550.211
550.153
550.094
550.034
549.975
549.915
549.854
549.793
549.731
549.667
549.6
549.53
549.457
549.381
549.303
549.222
549.139
549.051
548.96
548.862
548.759
548.648
548.529
548.401
548.264
548.116
547.954
547.776
547.582
547.375
547.158
546.935
546.703
546.459
546.203
545.935
545.658
545.375
545.084
544.776
544.681
544.572
544.458
544.344
544.232
544.123
544.016
543.911
543.808
543.705
543.602
543.499
543.395
543.291
543.186
543.08
542.973
542.866
542.757
542.648
542.538
542.428
542.316
542.205
542.093
541.98
541.867
541.754
541.64
541.526
541.412
541.297
541.183
541.068
540.953
540.838
540.723
540.608
552.506
552.418
552.333
552.25
552.172
552.099
552.031
551.969
551.913
551.863
551.817
551.776
551.738
551.702
551.667
551.634
551.6
551.566
551.532
551.496
551.459
551.42
551.379
551.336
551.291
551.244
551.194
551.141
551.085
551.026
550.965
550.902
550.838
550.774
550.71
550.646
550.584
550.522
550.46
550.399
550.339
550.281
550.224
550.167
550.11
550.053
549.996
549.939
549.881
549.823
549.763
549.702
549.638
549.571
549.502
549.431
549.359
549.284
549.206
549.124
549.038
548.945
548.844
548.734
548.615
548.489
548.355
548.209
548.047
547.866
547.665
547.451
547.234
547.017
546.796
546.559
546.306
546.037
545.754
545.458
545.137
544.77
544.691
544.584
544.466
544.348
544.231
544.119
544.009
543.903
543.799
543.696
543.593
543.49
543.388
543.284
543.179
543.074
542.968
542.861
542.753
542.644
542.535
542.424
542.314
542.202
542.09
541.978
541.865
541.752
541.638
541.525
541.411
541.296
541.182
541.067
540.952
540.837
540.723
540.608
552.509
552.427
552.347
552.27
552.197
552.129
552.066
552.009
551.957
551.911
551.868
551.83
551.794
551.76
551.727
551.694
551.661
551.627
551.591
551.553
551.513
551.471
551.426
551.38
551.33
551.279
551.225
551.168
551.109
551.046
550.982
550.916
550.85
550.784
550.717
550.651
550.587
550.524
550.46
550.397
550.336
550.277
550.221
550.168
550.115
550.062
550.009
549.956
549.902
549.848
549.794
549.737
549.678
549.616
549.554
549.491
549.429
549.364
549.294
549.22
549.142
549.054
548.956
548.846
548.729
548.605
548.477
548.337
548.178
547.997
547.792
547.562
547.342
547.133
546.931
546.704
546.455
546.184
545.892
545.581
545.237
544.817
544.728
544.605
544.477
544.352
544.23
544.114
544.002
543.894
543.789
543.686
543.584
543.482
543.38
543.277
543.173
543.068
542.963
542.856
542.749
542.64
542.531
542.421
542.311
542.2
542.088
541.976
541.863
541.75
541.637
541.524
541.41
541.295
541.181
541.067
540.952
540.837
540.722
540.607
552.511
552.435
552.361
552.289
552.222
552.159
552.101
552.049
552.001
551.957
551.918
551.881
551.847
551.815
551.782
551.749
551.716
551.68
551.642
551.601
551.557
551.511
551.461
551.41
551.355
551.299
551.24
551.179
551.115
551.049
550.98
550.911
550.842
550.773
550.703
550.634
550.567
550.503
550.438
550.374
550.31
550.25
550.196
550.148
550.103
550.059
550.018
549.972
549.925
549.878
549.831
549.781
549.728
549.675
549.626
549.579
549.533
549.48
549.42
549.355
549.287
549.206
549.112
548.999
548.884
548.764
548.647
548.518
548.362
548.203
548.023
547.751
547.517
547.309
547.141
546.919
546.673
546.397
546.076
545.738
545.405
545.043
544.789
544.624
544.484
544.352
544.226
544.107
543.993
543.884
543.779
543.676
543.575
543.474
543.372
543.27
543.167
543.063
542.958
542.852
542.745
542.637
542.528
542.419
542.308
542.198
542.086
541.974
541.862
541.749
541.636
541.522
541.409
541.295
541.18
541.066
540.952
540.837
540.722
540.607
552.514
552.443
552.374
552.309
552.247
552.189
552.135
552.086
552.041
551.999
551.962
551.927
551.894
551.862
551.83
551.796
551.761
551.722
551.681
551.636
551.587
551.535
551.48
551.422
551.361
551.299
551.235
551.169
551.1
551.028
550.953
550.879
550.806
550.735
550.661
550.587
550.515
550.45
550.386
550.323
550.259
550.197
550.147
550.109
550.077
550.051
550.039
550.012
549.979
549.942
549.905
549.862
549.815
549.776
549.749
549.729
549.708
549.671
549.615
549.559
549.504
549.435
549.343
549.219
549.116
548.997
548.895
548.777
548.57
548.51
548.489
548.076
547.813
547.564
547.468
547.22
546.997
546.742
546.329
545.872
545.515
545.09
544.736
544.605
544.474
544.343
544.216
544.096
543.982
543.873
543.768
543.666
543.565
543.465
543.364
543.263
543.161
543.058
542.953
542.848
542.741
542.634
542.525
542.416
542.306
542.195
542.084
541.973
541.86
541.748
541.635
541.521
541.408
541.294
541.18
541.066
540.951
540.837
540.722
540.607
552.517
552.451
552.387
552.326
552.269
552.215
552.165
552.118
552.075
552.035
551.998
551.964
551.931
551.898
551.864
551.828
551.789
551.747
551.701
551.651
551.597
551.539
551.477
551.412
551.346
551.278
551.208
551.135
551.059
550.978
550.896
550.815
550.739
550.668
550.591
550.511
550.434
550.363
550.301
550.254
550.194
550.134
550.092
550.072
550.055
550.059
550.099
550.099
550.098
550.081
550.053
550.01
549.957
549.946
549.954
549.983
549.981
549.971
549.905
549.859
549.813
549.787
549.694
549.522
549.479
549.356
549.226
549.152
548.917
548.869
548.685
548.563
548.46
548.027
547.817
547.658
547.35
547.192
547.048
546.025
545.471
544.841
544.584
544.559
544.448
544.323
544.199
544.08
543.967
543.859
543.755
543.655
543.555
543.456
543.357
543.257
543.155
543.053
542.949
542.844
542.738
542.631
542.523
542.414
542.304
542.194
542.083
541.971
541.859
541.747
541.634
541.521
541.407
541.293
541.179
541.065
540.951
540.836
540.722
540.607
552.519
552.458
552.398
552.342
552.288
552.238
552.189
552.143
552.1
552.06
552.023
551.988
551.954
551.918
551.881
551.839
551.794
551.746
551.694
551.639
551.58
551.517
551.449
551.379
551.308
551.237
551.162
551.082
550.995
550.901
550.805
550.719
550.647
550.588
550.513
550.431
550.346
550.261
550.199
550.185
550.132
550.077
550.056
550.068
550.052
550.068
550.112
550.096
550.12
550.163
550.142
550.075
550.031
550.057
550.117
550.164
550.137
550.188
550.176
550.063
549.963
550.037
549.928
549.699
549.665
549.658
549.473
549.378
549.418
549.436
549.065
548.913
548.812
548.727
548.625
548.368
547.87
547.446
547.066
546.383
545.28
544.451
544.632
544.543
544.417
544.293
544.173
544.058
543.948
543.842
543.741
543.643
543.545
543.448
543.35
543.251
543.15
543.048
542.945
542.841
542.735
542.628
542.52
542.412
542.302
542.192
542.081
541.97
541.858
541.746
541.633
541.52
541.406
541.293
541.179
541.065
540.951
540.836
540.722
540.607
552.521
552.463
552.407
552.354
552.303
552.254
552.206
552.159
552.114
552.073
552.035
551.999
551.96
551.919
551.873
551.822
551.766
551.709
551.65
551.59
551.528
551.464
551.4
551.332
551.264
551.195
551.114
551.022
550.926
550.813
550.698
550.605
550.543
550.51
550.44
550.367
550.279
550.158
550.068
550.023
549.932
549.84
549.886
549.969
549.93
549.993
550.074
550.035
550.114
550.228
550.185
550.127
550.068
550.112
550.282
550.182
550.082
550.237
550.34
550.198
550.021
550.026
549.99
549.666
549.754
549.949
549.66
549.612
549.887
549.731
549.224
549.325
549.099
548.705
548.875
549.092
548.011
547.493
547.204
546.465
545.813
545.005
544.749
544.486
544.361
544.249
544.139
544.03
543.925
543.824
543.726
543.63
543.535
543.44
543.343
543.245
543.146
543.045
542.942
542.838
542.733
542.626
542.519
542.41
542.301
542.191
542.08
541.969
541.857
541.745
541.632
541.519
541.406
541.292
541.179
541.065
540.95
540.836
540.722
540.607
552.521
552.466
552.413
552.363
552.314
552.264
552.214
552.164
552.119
552.079
552.044
552.007
551.96
551.901
551.841
551.772
551.695
551.627
551.559
551.495
551.439
551.385
551.356
551.325
551.274
551.206
551.094
550.974
550.864
550.729
550.574
550.461
550.378
550.303
550.224
550.144
550.086
549.939
549.833
549.819
549.719
549.592
549.733
549.89
549.72
549.781
549.9
549.897
550.121
550.297
550.132
550.133
550.067
550.091
550.319
550.118
549.804
550.038
549.986
550.052
550.133
550.076
550.183
549.688
549.891
550.124
549.743
549.746
550.39
549.926
549.404
549.518
549.055
548.716
548.705
548.656
548.071
547.622
547.213
546.619
546.075
545.431
544.878
544.437
544.29
544.193
544.099
543.999
543.899
543.803
543.709
543.618
543.526
543.433
543.338
543.241
543.142
543.042
542.939
542.836
542.731
542.624
542.517
542.409
542.3
542.19
542.079
541.968
541.857
541.744
541.632
541.519
541.406
541.292
541.178
541.064
540.95
540.836
540.722
540.607
552.521
552.467
552.416
552.367
552.319
552.269
552.217
552.166
552.13
552.101
552.08
552.049
551.99
551.876
551.797
551.704
551.586
551.505
551.418
551.358
551.339
551.297
551.366
551.46
551.441
551.328
551.049
550.829
550.643
550.513
550.313
550.169
549.99
549.877
549.838
549.727
549.762
549.777
549.638
549.632
549.655
549.589
549.754
549.856
549.405
549.409
549.532
549.606
550.087
550.103
549.822
550.054
550.021
549.714
549.917
550.089
550.097
549.992
549.558
549.985
550.299
549.991
550.195
549.814
549.984
550.047
549.725
549.655
549.946
549.79
549.418
549.297
549.038
548.698
548.468
548.334
548.042
547.642
547.236
546.767
546.281
545.643
544.947
544.417
544.245
544.145
544.053
543.966
543.873
543.779
543.692
543.606
543.518
543.427
543.334
543.238
543.14
543.039
542.938
542.834
542.729
542.623
542.516
542.408
542.299
542.189
542.079
541.968
541.856
541.744
541.631