/*--------------------------------*- C++ -*----------------------------------*\
  =========                 |
  \\      /  F ield         | OpenFOAM: The Open Source CFD Toolbox
   \\    /   O peration     | Website:  https://openfoam.org
    \\  /    A nd           | Version:  6
     \\/     M anipulation  |
\*---------------------------------------------------------------------------*/
FoamFile
{
    version     2.0;
    format      ascii;
    class       volScalarField;
    location    "1300";
    object      dmdt;
}
// * * * * * * * * * * * * * * * * * * * * * * * * * * * * * * * * * * * * * //

dimensions      [0 0 0 0 0 0 0];

internalField   nonuniform List<scalar> 
4800
(
-0.217723
-0.211992
-0.206275
-0.200593
-0.194979
-0.189482
-0.18416
-0.179087
-0.174332
-0.169921
-0.165848
-0.162105
-0.158672
-0.155524
-0.152638
-0.149994
-0.147569
-0.145341
-0.143286
-0.141379
-0.139593
-0.137901
-0.136281
-0.13472
-0.133196
-0.131692
-0.130194
-0.128688
-0.127161
-0.125605
-0.124013
-0.122379
-0.120698
-0.118971
-0.117197
-0.115377
-0.113513
-0.111607
-0.109662
-0.107679
-0.105667
-0.103638
-0.101605
-0.0995832
-0.097584
-0.0956128
-0.0936666
-0.0917358
-0.0898095
-0.0878774
-0.0859317
-0.0839683
-0.081988
-0.0799942
-0.0779899
-0.0759795
-0.0739687
-0.0719584
-0.0699557
-0.0679517
-0.0659334
-0.0638922
-0.0618115
-0.0596694
-0.057444
-0.0551117
-0.0526471
-0.0500275
-0.0472429
-0.0443087
-0.0412509
-0.0380944
-0.0348709
-0.0316111
-0.028349
-0.025121
-0.0219503
-0.0188541
-0.0158155
-0.0128008
-0.00974544
-0.00662728
-0.00347429
-0.000304906
0.00286945
0.0060416
0.00920718
0.0123636
0.0155093
0.0186435
0.0217661
0.024877
0.0279766
0.0310651
0.034143
0.0372108
0.0402688
0.0433177
0.0463577
0.0493894
0.052413
0.0554291
0.0584378
0.0614397
0.064435
0.0674241
0.0704073
0.073385
0.0763575
0.0793252
0.0822885
0.0852477
0.0882033
0.0911556
0.0941051
0.0970521
0.0999972
0.102941
0.105883
0.108825
-0.217731
-0.212014
-0.206308
-0.200633
-0.195025
-0.189539
-0.184251
-0.17923
-0.174522
-0.170143
-0.166089
-0.162357
-0.15893
-0.155784
-0.152897
-0.150251
-0.147823
-0.145592
-0.143534
-0.141623
-0.139832
-0.138136
-0.136514
-0.134953
-0.133428
-0.131923
-0.130424
-0.128916
-0.127388
-0.125829
-0.124234
-0.122594
-0.120908
-0.119172
-0.117387
-0.115556
-0.113682
-0.111766
-0.10981
-0.10782
-0.105806
-0.103783
-0.101764
-0.0997599
-0.097778
-0.0958212
-0.0938857
-0.0919617
-0.0900388
-0.0881085
-0.0861636
-0.0841997
-0.0822171
-0.080218
-0.0782068
-0.0761897
-0.0741708
-0.0721534
-0.0701377
-0.0681173
-0.0660855
-0.064027
-0.0619274
-0.0597683
-0.0575318
-0.0551958
-0.0527418
-0.0501506
-0.0474115
-0.044523
-0.0414932
-0.0383502
-0.0351313
-0.0318787
-0.0286292
-0.025404
-0.0222182
-0.0190857
-0.0159977
-0.0129283
-0.00982035
-0.00667109
-0.00349914
-0.000317938
0.00286388
0.00604072
0.00920919
0.0123673
0.0155139
0.0186485
0.021771
0.0248817
0.0279808
0.0310689
0.0341463
0.0372135
0.0402711
0.0433195
0.0463592
0.0493904
0.0524138
0.0554295
0.058438
0.0614397
0.0644349
0.0674238
0.0704069
0.0733845
0.076357
0.0793247
0.082288
0.0852472
0.0882028
0.0911552
0.0941047
0.0970518
0.0999969
0.10294
0.105883
0.108825
-0.217742
-0.212048
-0.20637
-0.200733
-0.195179
-0.189756
-0.184528
-0.179564
-0.174908
-0.170567
-0.166545
-0.162837
-0.15942
-0.156274
-0.153386
-0.150738
-0.148306
-0.14607
-0.144007
-0.142088
-0.140291
-0.13859
-0.136966
-0.135406
-0.133878
-0.132373
-0.130873
-0.129364
-0.127834
-0.126274
-0.124674
-0.123027
-0.121328
-0.119578
-0.117777
-0.115928
-0.114036
-0.112102
-0.110132
-0.108134
-0.106123
-0.104114
-0.102116
-0.100137
-0.0981829
-0.0962528
-0.0943396
-0.0924318
-0.0905193
-0.0885937
-0.0866487
-0.0846811
-0.0826907
-0.0806795
-0.0786534
-0.0766196
-0.0745828
-0.0725463
-0.0705074
-0.0684586
-0.0663929
-0.0643
-0.0621643
-0.0599731
-0.0577114
-0.0553613
-0.0529062
-0.0503307
-0.0476257
-0.0447851
-0.0418161
-0.0387397
-0.035583
-0.0323772
-0.0291472
-0.0259167
-0.0226994
-0.0194985
-0.0163166
-0.0131446
-0.00994901
-0.00674685
-0.00354196
-0.000339844
0.00285532
0.00604062
0.00921429
0.0123754
0.0155235
0.0186586
0.021781
0.0248911
0.0279895
0.0310765
0.0341529
0.0372191
0.0402757
0.0433232
0.046362
0.0493925
0.0524152
0.0554303
0.0584384
0.0614397
0.0644345
0.0674232
0.0704062
0.0733837
0.0763561
0.0793237
0.082287
0.0852463
0.088202
0.0911544
0.094104
0.0970512
0.0999965
0.10294
0.105883
0.108825
-0.217763
-0.212112
-0.206479
-0.200889
-0.195388
-0.190044
-0.184916
-0.180043
-0.175455
-0.171162
-0.167173
-0.163491
-0.160089
-0.156951
-0.154069
-0.151423
-0.14899
-0.146752
-0.144685
-0.14276
-0.140958
-0.139252
-0.137625
-0.136061
-0.13453
-0.133024
-0.131522
-0.130011
-0.12848
-0.126916
-0.125313
-0.123658
-0.121949
-0.120185
-0.118365
-0.116495
-0.11458
-0.112625
-0.110639
-0.108636
-0.106631
-0.104637
-0.102663
-0.100714
-0.0987915
-0.0968943
-0.0950109
-0.0931279
-0.0912325
-0.0893149
-0.0873688
-0.0853927
-0.0833882
-0.0813586
-0.0793088
-0.0772455
-0.0751758
-0.0731051
-0.0710306
-0.0689435
-0.0668339
-0.0646935
-0.0625095
-0.0602722
-0.0579684
-0.0555865
-0.0531126
-0.0505355
-0.0478511
-0.0450571
-0.0421524
-0.0391439
-0.0360476
-0.0328878
-0.0296806
-0.0264532
-0.023215
-0.0199565
-0.0166766
-0.0133864
-0.0100971
-0.00683492
-0.00359094
-0.000363251
0.00284855
0.00604446
0.00922463
0.0123894
0.0155392
0.0186748
0.0217967
0.0249057
0.0280026
0.0310881
0.0341629
0.0372275
0.0402826
0.0433287
0.0463662
0.0493956
0.0524172
0.0554316
0.0584389
0.0614396
0.064434
0.0674224
0.070405
0.0733823
0.0763546
0.0793223
0.0822855
0.0852449
0.0882006
0.0911532
0.0941029
0.0970503
0.0999957
0.10294
0.105882
0.108825
-0.217791
-0.2122
-0.206643
-0.20115
-0.195753
-0.190497
-0.185445
-0.180649
-0.176126
-0.171888
-0.167947
-0.164299
-0.160915
-0.157793
-0.154921
-0.152281
-0.149852
-0.147615
-0.145546
-0.143622
-0.141821
-0.140111
-0.13848
-0.136909
-0.135375
-0.133864
-0.132358
-0.130845
-0.129312
-0.127744
-0.126136
-0.124471
-0.122752
-0.120973
-0.119135
-0.117244
-0.115306
-0.11333
-0.111329
-0.109321
-0.107323
-0.105345
-0.103394
-0.101475
-0.0995865
-0.0977241
-0.0958726
-0.0940167
-0.0921389
-0.0902286
-0.0882805
-0.0862931
-0.0842681
-0.0822091
-0.0801237
-0.0780226
-0.0759151
-0.0738029
-0.0716835
-0.0695476
-0.0673835
-0.065183
-0.0629374
-0.060639
-0.0582787
-0.0558484
-0.0533407
-0.0507481
-0.0480688
-0.0453036
-0.0424485
-0.0395022
-0.0364669
-0.0333529
-0.0301693
-0.0269383
-0.0236574
-0.0203346
-0.0169779
-0.0135977
-0.0102316
-0.0069148
-0.00363293
-0.000379499
0.00284938
0.00605622
0.00924296
0.0124112
0.0155624
0.0186978
0.0218186
0.0249259
0.0280208
0.031104
0.0341765
0.0372389
0.0402919
0.0433361
0.0463719
0.0493997
0.0524201
0.0554333
0.0584397
0.0614396
0.0644334
0.0674212
0.0704036
0.0733806
0.0763528
0.0793203
0.0822836
0.085243
0.0881989
0.0911516
0.0941015
0.0970491
0.0999948
0.102939
0.105882
0.108824
-0.217825
-0.212304
-0.206821
-0.201412
-0.19612
-0.190985
-0.186044
-0.181338
-0.176896
-0.17273
-0.168842
-0.165231
-0.161876
-0.158777
-0.155922
-0.153294
-0.150874
-0.148642
-0.146578
-0.144659
-0.142857
-0.141145
-0.139513
-0.137939
-0.136403
-0.134889
-0.133379
-0.131862
-0.130326
-0.128752
-0.127134
-0.125456
-0.123722
-0.121925
-0.120068
-0.118156
-0.116196
-0.114201
-0.112187
-0.110176
-0.108183
-0.106217
-0.104286
-0.102395
-0.100541
-0.0987121
-0.0968894
-0.0950593
-0.0931967
-0.0912914
-0.0893398
-0.0873383
-0.0852865
-0.0831907
-0.0810633
-0.0789189
-0.0767688
-0.0746133
-0.0724451
-0.0702481
-0.0680149
-0.0657404
-0.0634192
-0.0610458
-0.0586165
-0.0561252
-0.0535712
-0.0509505
-0.0482616
-0.0455058
-0.0426785
-0.0397749
-0.0367873
-0.0337125
-0.030555
-0.0273194
-0.0240032
-0.0206283
-0.0172042
-0.0137545
-0.0103312
-0.00697027
-0.00365623
-0.000380276
0.00286371
0.00608008
0.00927226
0.012443
0.0155945
0.0187288
0.0218476
0.0249523
0.0280442
0.0311244
0.0341939
0.0372535
0.0403038
0.0433455
0.0463791
0.0494051
0.0524238
0.0554355
0.0584408
0.0614397
0.0644326
0.0674199
0.0704018
0.0733785
0.0763505
0.079318
0.0822813
0.0852407
0.0881967
0.0911496
0.0940998
0.0970477
0.0999937
0.102938
0.105881
0.108824
-0.217874
-0.212449
-0.207065
-0.201757
-0.196563
-0.191523
-0.186686
-0.182083
-0.177731
-0.173641
-0.169818
-0.166257
-0.162947
-0.159884
-0.157056
-0.154447
-0.152043
-0.149822
-0.147766
-0.145855
-0.144054
-0.142341
-0.140709
-0.139134
-0.137596
-0.13608
-0.134569
-0.13305
-0.131508
-0.129925
-0.128294
-0.126599
-0.124847
-0.123027
-0.121146
-0.119211
-0.117232
-0.115221
-0.113197
-0.111179
-0.109185
-0.107227
-0.105314
-0.10345
-0.101625
-0.0998245
-0.0980245
-0.0962201
-0.0943691
-0.0924656
-0.0905076
-0.0884882
-0.0864026
-0.0842634
-0.0820891
-0.0798988
-0.0777017
-0.0754912
-0.0732572
-0.0709876
-0.0686788
-0.066324
-0.0639205
-0.0614659
-0.0589602
-0.0564003
-0.0537893
-0.0511269
-0.0484149
-0.0456513
-0.0428299
-0.0399433
-0.0369818
-0.0339351
-0.030798
-0.0275657
-0.0242355
-0.0208236
-0.0173481
-0.0138478
-0.0103835
-0.00699004
-0.00365172
-0.000358551
0.00289682
0.00611998
0.0093154
0.0124868
0.0156371
0.0187689
0.0218844
0.0249854
0.0280734
0.0311496
0.0342153
0.0372713
0.0403183
0.0433571
0.046388
0.0494116
0.0524283
0.0554384
0.0584421
0.0614399
0.0644319
0.0674184
0.0703998
0.0733761
0.0763479
0.0793152
0.0822785
0.0852381
0.0881942
0.0911474
0.0940978
0.097046
0.0999923
0.102937
0.105881
0.108824
-0.217929
-0.212618
-0.207351
-0.202163
-0.197086
-0.192156
-0.187412
-0.182894
-0.178625
-0.174613
-0.170859
-0.167358
-0.164101
-0.161084
-0.158295
-0.155717
-0.15334
-0.151137
-0.149095
-0.147194
-0.145395
-0.143683
-0.142051
-0.140473
-0.138933
-0.137417
-0.135906
-0.134385
-0.132834
-0.131245
-0.129601
-0.127888
-0.12611
-0.124261
-0.122351
-0.120392
-0.118391
-0.116364
-0.114329
-0.112304
-0.110307
-0.108352
-0.106449
-0.104599
-0.10279
-0.101001
-0.0992131
-0.0974231
-0.0955741
-0.0936674
-0.0916991
-0.0896619
-0.0875486
-0.0853755
-0.0831606
-0.080923
-0.0786673
-0.0763859
-0.0740763
-0.0717297
-0.0693408
-0.0669027
-0.0644145
-0.0618755
-0.0592885
-0.0566559
-0.0539819
-0.0512685
-0.0485204
-0.0457324
-0.0428986
-0.0400101
-0.0370558
-0.0340199
-0.0308886
-0.0276558
-0.0243209
-0.0208975
-0.0174037
-0.0138744
-0.0103807
-0.00696654
-0.00361279
-0.000308895
0.00295303
0.00617922
0.00937489
0.0125444
0.0156914
0.018819
0.0219297
0.0250255
0.0281085
0.0311798
0.0342408
0.0372925
0.0403356
0.0433708
0.0463986
0.0494194
0.0524338
0.0554418
0.0584439
0.0614403
0.0644312
0.0674169
0.0703976
0.0733735
0.0763449
0.0793121
0.0822754
0.0852351
0.0881914
0.0911448
0.0940955
0.0970441
0.0999908
0.102936
0.10588
0.108824
-0.217982
-0.212781
-0.207631
-0.202563
-0.197605
-0.192791
-0.188157
-0.183738
-0.179559
-0.175628
-0.171947
-0.168513
-0.16532
-0.162357
-0.159617
-0.157081
-0.154737
-0.152561
-0.150536
-0.148644
-0.146848
-0.145137
-0.143505
-0.141926
-0.140388
-0.138874
-0.137363
-0.135839
-0.134283
-0.132684
-0.131023
-0.129292
-0.127487
-0.12561
-0.123671
-0.121683
-0.119655
-0.117608
-0.115556
-0.113518
-0.111512
-0.109551
-0.107644
-0.105795
-0.103992
-0.102211
-0.100429
-0.0986436
-0.0967879
-0.0948671
-0.0928746
-0.0908061
-0.0886563
-0.0864456
-0.0841899
-0.081903
-0.0795859
-0.0772315
-0.0748443
-0.0724219
-0.0699573
-0.0674415
-0.0648738
-0.0622542
-0.0595864
-0.0568769
-0.054135
-0.0513666
-0.0485747
-0.0457529
-0.0428931
-0.0399865
-0.0370208
-0.0339803
-0.0308479
-0.0276117
-0.0242722
-0.0208345
-0.0173277
-0.0138036
-0.0103148
-0.00689501
-0.00353521
-0.000227465
0.0030356
0.00626043
0.00945274
0.0126174
0.0157586
0.0188797
0.0219838
0.0250731
0.0281497
0.031215
0.0342705
0.037317
0.0403555
0.0433866
0.0464108
0.0494286
0.0524402
0.055446
0.0584461
0.061441
0.0644306
0.0674153
0.0703952
0.0733707
0.0763417
0.0793088
0.082272
0.0852318
0.0881883
0.0911419
0.094093
0.097042
0.0999891
0.102935
0.105879
0.108824
-0.218039
-0.21295
-0.207911
-0.202957
-0.198117
-0.193416
-0.188891
-0.184576
-0.180493
-0.176651
-0.17305
-0.16969
-0.166567
-0.163671
-0.160989
-0.158503
-0.156196
-0.154052
-0.152051
-0.15017
-0.148384
-0.146681
-0.145051
-0.143476
-0.141941
-0.140429
-0.138921
-0.137397
-0.135839
-0.134232
-0.13256
-0.130812
-0.128981
-0.127074
-0.125103
-0.12308
-0.121019
-0.118941
-0.116861
-0.114801
-0.112776
-0.110799
-0.108882
-0.107029
-0.10523
-0.103452
-0.10167
-0.0998718
-0.0979927
-0.0960378
-0.0940013
-0.0918829
-0.0896811
-0.0874201
-0.0851143
-0.0827748
-0.0804008
-0.0779866
-0.075536
-0.0730472
-0.0705116
-0.0679239
-0.0652834
-0.0625887
-0.0598445
-0.0570622
-0.0542532
-0.0514276
-0.0485878
-0.045725
-0.0428305
-0.0398937
-0.0369022
-0.033841
-0.0306968
-0.0274581
-0.0241231
-0.0207009
-0.0172115
-0.0136907
-0.0101968
-0.00677614
-0.00341704
-0.000111773
0.00314687
0.00636555
0.0095504
0.0127067
0.0158392
0.0189515
0.022047
0.0251281
0.028197
0.0312552
0.0343042
0.0373449
0.0403781
0.0434046
0.0464247
0.049439
0.0524476
0.0554508
0.0584488
0.0614419
0.0644301
0.0674137
0.0703929
0.0733677
0.0763384
0.0793052
0.0822684
0.0852282
0.0881849
0.0911389
0.0940903
0.0970397
0.0999873
0.102933
0.105879
0.108823
-0.218094
-0.213117
-0.208193
-0.203353
-0.198622
-0.194029
-0.189612
-0.185401
-0.181419
-0.177672
-0.174161
-0.170886
-0.167838
-0.165009
-0.162388
-0.159956
-0.157692
-0.155584
-0.153605
-0.15174
-0.14997
-0.148278
-0.146657
-0.145091
-0.143567
-0.142066
-0.140566
-0.139044
-0.137484
-0.135872
-0.134191
-0.13243
-0.130582
-0.128649
-0.126644
-0.124581
-0.122478
-0.12036
-0.118244
-0.116151
-0.114099
-0.112102
-0.110173
-0.108315
-0.106524
-0.104744
-0.102954
-0.101122
-0.0991947
-0.0971733
-0.0950622
-0.0928686
-0.0905976
-0.0882708
-0.0859063
-0.0835135
-0.0810876
-0.0786255
-0.0761276
-0.0735858
-0.0709894
-0.0683375
-0.0656286
-0.0628635
-0.0600497
-0.0572019
-0.0543347
-0.0514576
-0.0485703
-0.0456628
-0.0427267
-0.0397499
-0.0367236
-0.0336361
-0.0304727
-0.0272222
-0.0238849
-0.0204754
-0.0170068
-0.0135062
-0.0100222
-0.00660835
-0.0032565
4.01027e-05
0.00328857
0.00649593
0.0096688
0.012813
0.0159335
0.0190344
0.0221192
0.0251903
0.0282501
0.0313001
0.0343417
0.0373758
0.0404032
0.0434245
0.0464402
0.0494506
0.0524559
0.0554563
0.058452
0.0614432
0.0644299
0.0674123
0.0703904
0.0733646
0.0763349
0.0793015
0.0822646
0.0852245
0.0881814
0.0911356
0.0940875
0.0970372
0.0999853
0.102932
0.105878
0.108823
-0.218156
-0.213302
-0.208495
-0.203762
-0.199132
-0.194644
-0.190337
-0.186235
-0.182354
-0.178702
-0.175281
-0.172091
-0.169121
-0.166362
-0.163799
-0.161417
-0.159195
-0.157122
-0.155172
-0.153329
-0.151579
-0.149908
-0.148305
-0.146758
-0.145253
-0.143768
-0.142276
-0.140759
-0.1392
-0.137586
-0.135902
-0.134137
-0.132283
-0.130331
-0.128288
-0.126179
-0.124031
-0.121867
-0.119708
-0.117577
-0.115497
-0.113483
-0.111549
-0.109699
-0.107924
-0.106136
-0.104318
-0.102421
-0.10041
-0.0982895
-0.0960733
-0.0937775
-0.0914142
-0.0890092
-0.0865838
-0.0841389
-0.0816671
-0.0791637
-0.0766249
-0.0740377
-0.0713889
-0.0686818
-0.0659149
-0.06309
-0.0602178
-0.0573137
-0.0543939
-0.051468
-0.0485325
-0.0455769
-0.042593
-0.0395722
-0.0365058
-0.0333851
-0.0301944
-0.0269326
-0.0235998
-0.0201989
-0.0167461
-0.0132653
-0.00979334
-0.00639079
-0.00305183
0.00022993
0.00346209
0.00665245
0.00980835
0.0129362
0.0160413
0.019128
0.0221998
0.0252593
0.0283086
0.0313493
0.0343827
0.0374095
0.0404305
0.0434463
0.0464571
0.0494633
0.052465
0.0554625
0.0584557
0.0614448
0.0644298
0.0674109
0.0703881
0.0733615
0.0763313
0.0792976
0.0822607
0.0852206
0.0881777
0.0911322
0.0940845
0.0970347
0.0999833
0.102931
0.105877
0.108823
-0.218222
-0.213497
-0.208815
-0.204204
-0.199694
-0.195317
-0.191111
-0.187104
-0.183316
-0.179752
-0.176415
-0.173304
-0.17041
-0.167719
-0.165215
-0.162881
-0.160699
-0.158659
-0.156741
-0.154926
-0.153204
-0.151562
-0.149985
-0.148465
-0.146982
-0.145516
-0.144036
-0.142526
-0.140972
-0.139362
-0.137684
-0.135925
-0.134076
-0.132113
-0.130028
-0.127868
-0.125667
-0.123456
-0.121253
-0.119086
-0.116986
-0.114967
-0.113044
-0.11121
-0.109441
-0.107627
-0.105754
-0.103764
-0.101643
-0.0993981
-0.0970509
-0.0946305
-0.0921621
-0.0896781
-0.0871903
-0.0846937
-0.0821811
-0.0796418
-0.0770661
-0.0744361
-0.0717388
-0.0689765
-0.06615
-0.0632675
-0.0603442
-0.0573958
-0.0544347
-0.0514661
-0.0484845
-0.0454792
-0.0424427
-0.0393706
-0.0362564
-0.0330974
-0.0298856
-0.0266156
-0.0232825
-0.0198888
-0.0164471
-0.012975
-0.00950974
-0.00612081
-0.0028003
0.0004598
0.00366867
0.00683557
0.0099689
0.0130757
0.0161618
0.0192314
0.022288
0.0253342
0.0283718
0.0314022
0.0344266
0.0374455
0.0404597
0.0434695
0.0464752
0.049477
0.052475
0.0554692
0.0584598
0.0614467
0.06443
0.0674096
0.0703858
0.0733584
0.0763277
0.0792937
0.0822566
0.0852166
0.0881739
0.0911287
0.0940814
0.0970321
0.0999812
0.102929
0.105876
0.108822
-0.218284
-0.213684
-0.209128
-0.204643
-0.200252
-0.195984
-0.191879
-0.187969
-0.184275
-0.1808
-0.177549
-0.174517
-0.171694
-0.169067
-0.166621
-0.164337
-0.1622
-0.160198
-0.158314
-0.156535
-0.154849
-0.153241
-0.151697
-0.150206
-0.148748
-0.147302
-0.145836
-0.144337
-0.142793
-0.141195
-0.13953
-0.137787
-0.13595
-0.133982
-0.131845
-0.129631
-0.127381
-0.125124
-0.12288
-0.120688
-0.118579
-0.116569
-0.114664
-0.112842
-0.111057
-0.109203
-0.10725
-0.105149
-0.102899
-0.100519
-0.0980373
-0.0954875
-0.0929066
-0.0903337
-0.087777
-0.0852293
-0.082677
-0.0801026
-0.0774907
-0.0748188
-0.072072
-0.0692481
-0.0663557
-0.0634159
-0.0604469
-0.0574608
-0.0544638
-0.0514577
-0.0484365
-0.0453888
-0.0423047
-0.0391781
-0.0360075
-0.0327973
-0.0295463
-0.0262481
-0.0229019
-0.0195072
-0.0160743
-0.0126175
-0.00916215
-0.00579188
-0.00249733
0.000732395
0.00390938
0.00704517
0.0101496
0.0132304
0.0162935
0.0193432
0.0223826
0.0254139
0.0284386
0.031458
0.0344727
0.0374834
0.0404904
0.043494
0.0464943
0.0494915
0.0524856
0.0554765
0.0584643
0.0614489
0.0644303
0.0674086
0.0703836
0.0733554
0.0763241
0.0792898
0.0822526
0.0852126
0.0881701
0.0911252
0.0940782
0.0970294
0.099979
0.102927
0.105875
0.108822
-0.218345
-0.213866
-0.209429
-0.205058
-0.20078
-0.196625
-0.192627
-0.188817
-0.185219
-0.181837
-0.178672
-0.175718
-0.172967
-0.170405
-0.168017
-0.165786
-0.163698
-0.16174
-0.1599
-0.158163
-0.156519
-0.15495
-0.153442
-0.15198
-0.150547
-0.149119
-0.147669
-0.146186
-0.144658
-0.143076
-0.141429
-0.139705
-0.137884
-0.135905
-0.133719
-0.131454
-0.129159
-0.126865
-0.124594
-0.122393
-0.120291
-0.118297
-0.116408
-0.114585
-0.112764
-0.11085
-0.108795
-0.106565
-0.10417
-0.101641
-0.0990187
-0.0963467
-0.0936705
-0.0910204
-0.0884035
-0.0858086
-0.0832155
-0.0806003
-0.0779431
-0.0752158
-0.0724061
-0.0695184
-0.0665664
-0.0635712
-0.0605528
-0.0575256
-0.0544966
-0.0514643
-0.0484166
-0.0453325
-0.0421988
-0.0390156
-0.0357844
-0.0325107
-0.0292041
-0.0258607
-0.0224796
-0.019064
-0.0156262
-0.012182
-0.00873855
-0.00539422
-0.00213656
0.00105076
0.00418477
0.00728024
0.0103486
0.0133981
0.0164345
0.0194615
0.0224818
0.0254969
0.028508
0.0315156
0.0345203
0.0375224
0.040522
0.0435192
0.0465141
0.0495066
0.0524966
0.0554842
0.0584691
0.0614514
0.0644309
0.0674076
0.0703815
0.0733524
0.0763206
0.0792859
0.0822485
0.0852086
0.0881662
0.0911216
0.094075
0.0970266
0.0999768
0.102926
0.105874
0.108822
-0.218408
-0.214055
-0.20974
-0.205489
-0.201326
-0.197277
-0.193379
-0.189666
-0.186161
-0.182868
-0.179787
-0.176911
-0.174233
-0.171736
-0.169408
-0.167233
-0.1652
-0.163295
-0.161506
-0.159819
-0.158221
-0.156693
-0.15522
-0.153787
-0.152375
-0.150961
-0.149525
-0.148056
-0.146543
-0.144978
-0.143353
-0.14165
-0.139841
-0.13785
-0.135629
-0.133324
-0.130998
-0.128685
-0.126407
-0.124213
-0.122123
-0.120146
-0.118258
-0.116406
-0.114516
-0.112514
-0.110343
-0.107987
-0.105462
-0.102802
-0.100055
-0.0972779
-0.0945148
-0.0917917
-0.0891164
-0.0864713
-0.083834
-0.0811739
-0.0784634
-0.0756676
-0.0727794
-0.0698099
-0.0667856
-0.0637376
-0.0606871
-0.0576416
-0.0545963
-0.0515403
-0.0484635
-0.0453393
-0.0421495
-0.0389
-0.0355967
-0.0322469
-0.0288629
-0.0254467
-0.0220017
-0.0185427
-0.015085
-0.011648
-0.00822042
-0.00491348
-0.00170989
0.00141755
0.00449393
0.00753807
0.0105626
0.0135755
0.0165817
0.0195839
0.0225836
0.0255816
0.0285784
0.031574
0.0345685
0.0375619
0.040554
0.0435448
0.0465342
0.049522
0.052508
0.0554921
0.0584742
0.0614541
0.0644317
0.0674069
0.0703795
0.0733496
0.0763171
0.0792821
0.0822445
0.0852046
0.0881623
0.091118
0.0940718
0.0970239
0.0999746
0.102924
0.105873
0.108821
-0.218474
-0.214252
-0.210063
-0.205932
-0.201883
-0.197944
-0.19415
-0.190533
-0.187116
-0.183906
-0.180905
-0.178107
-0.1755
-0.17307
-0.170804
-0.168691
-0.166718
-0.164872
-0.163138
-0.161506
-0.159954
-0.158466
-0.157025
-0.155617
-0.154222
-0.152819
-0.151394
-0.149938
-0.14844
-0.146893
-0.145287
-0.1436
-0.141797
-0.139796
-0.137558
-0.135226
-0.13289
-0.130579
-0.128312
-0.126133
-0.124057
-0.122084
-0.120168
-0.118258
-0.116278
-0.114164
-0.111863
-0.109374
-0.106723
-0.103953
-0.101116
-0.0982624
-0.0954355
-0.092663
-0.0899442
-0.0872567
-0.0845733
-0.0818561
-0.0790746
-0.076191
-0.0732121
-0.070165
-0.0670858
-0.0639975
-0.060912
-0.0578371
-0.0547696
-0.051694
-0.0485927
-0.045424
-0.0421714
-0.0388482
-0.0354643
-0.0320285
-0.0285533
-0.0250495
-0.0215288
-0.0180033
-0.0144805
-0.0110071
-0.00758019
-0.00432849
-0.0012081
0.00183317
0.00483283
0.00781319
0.0107863
0.0137581
0.0167314
0.0197072
0.0226856
0.0256662
0.0286485
0.0316321
0.0346164
0.0376011
0.0405859
0.0435704
0.0465543
0.0495374
0.0525195
0.0555002
0.0584795
0.061457
0.0644327
0.0674063
0.0703777
0.0733469
0.0763138
0.0792783
0.0822406
0.0852006
0.0881585
0.0911145
0.0940686
0.0970212
0.0999725
0.102923
0.105872
0.108821
-0.218538
-0.214443
-0.210377
-0.206364
-0.20243
-0.198603
-0.194915
-0.191395
-0.188069
-0.184946
-0.182028
-0.179306
-0.176771
-0.174409
-0.17221
-0.170163
-0.168255
-0.166472
-0.164797
-0.163218
-0.16171
-0.16026
-0.158849
-0.15746
-0.156075
-0.154679
-0.153263
-0.151818
-0.150337
-0.148809
-0.147222
-0.145547
-0.143745
-0.141729
-0.139483
-0.13714
-0.134815
-0.132532
-0.130294
-0.128133
-0.126057
-0.124064
-0.122098
-0.120112
-0.118028
-0.115789
-0.113348
-0.110711
-0.107927
-0.105069
-0.10218
-0.0992898
-0.0964364
-0.0936403
-0.0908919
-0.0881673
-0.0854325
-0.0826481
-0.0797839
-0.0768109
-0.0737568
-0.0706542
-0.06753
-0.064399
-0.0612766
-0.0581741
-0.0550833
-0.0519783
-0.0488334
-0.0456009
-0.0422779
-0.0388758
-0.0354042
-0.0318724
-0.0282939
-0.0246815
-0.0210404
-0.0173925
-0.0137595
-0.0102042
-0.00675598
-0.00360533
-0.000623607
0.0022917
0.00519143
0.00809591
0.0110117
0.0139397
0.0168792
0.0198283
0.0227854
0.0257487
0.0287169
0.0316887
0.0346632
0.0376395
0.0406171
0.0435954
0.0465741
0.0495527
0.0525309
0.0555083
0.0584848
0.06146
0.0644337
0.0674058
0.070376
0.0733443
0.0763105
0.0792747
0.0822367
0.0851967
0.0881548
0.091111
0.0940655
0.0970185
0.0999703
0.102921
0.105871
0.108821
-0.2186
-0.214628
-0.210685
-0.206791
-0.202971
-0.199251
-0.195665
-0.192244
-0.189013
-0.18598
-0.183144
-0.180502
-0.178042
-0.175754
-0.173627
-0.171651
-0.169812
-0.168094
-0.166477
-0.164949
-0.163484
-0.162067
-0.160681
-0.159306
-0.157929
-0.156539
-0.15513
-0.153696
-0.152229
-0.150717
-0.149139
-0.147467
-0.145658
-0.143626
-0.141382
-0.139053
-0.136759
-0.134513
-0.132299
-0.130144
-0.128059
-0.126032
-0.124005
-0.121934
-0.119739
-0.117371
-0.114801
-0.112052
-0.109191
-0.106275
-0.103337
-0.100419
-0.0975518
-0.0947401
-0.0919702
-0.0892139
-0.0864258
-0.0835711
-0.0806264
-0.0775782
-0.0744656
-0.0713168
-0.0681545
-0.0649933
-0.0618467
-0.058721
-0.0555982
-0.0524456
-0.0492337
-0.0459162
-0.0425107
-0.0390182
-0.0354454
-0.0318034
-0.0281049
-0.0243657
-0.0205833
-0.0167613
-0.012922
-0.00915921
-0.0056158
-0.0026975
3.75772e-05
0.002772
0.00554955
0.00837097
0.0112282
0.0141133
0.0170201
0.0199438
0.0228807
0.0258276
0.0287823
0.0317429
0.034708
0.0376764
0.0406472
0.0436197
0.0465933
0.0495676
0.052542
0.0555163
0.0584901
0.061463
0.0644349
0.0674054
0.0703745
0.0733418
0.0763074
0.0792712
0.082233
0.085193
0.0881511
0.0911076
0.0940624
0.0970159
0.0999682
0.10292
0.10587
0.10882
-0.21866
-0.214807
-0.210982
-0.207204
-0.203496
-0.199883
-0.196401
-0.193079
-0.189943
-0.187
-0.184251
-0.181692
-0.179313
-0.177105
-0.175057
-0.173156
-0.171388
-0.169733
-0.168173
-0.166693
-0.165268
-0.16388
-0.162514
-0.16115
-0.15978
-0.158396
-0.156995
-0.15557
-0.154114
-0.152609
-0.151034
-0.149357
-0.147532
-0.145482
-0.143251
-0.140962
-0.138711
-0.136498
-0.134303
-0.13215
-0.130044
-0.127972
-0.12588
-0.123714
-0.121405
-0.118917
-0.116247
-0.113426
-0.110513
-0.107558
-0.104598
-0.101675
-0.0988028
-0.0959795
-0.0931883
-0.0903991
-0.0875541
-0.08463
-0.0816112
-0.0785063
-0.075359
-0.072187
-0.0690053
-0.0658264
-0.0626606
-0.0595075
-0.0563399
-0.0531262
-0.0498378
-0.0464237
-0.0429151
-0.0393086
-0.0356128
-0.0318497
-0.028032
-0.0241625
-0.0202248
-0.0161923
-0.0120282
-0.00776374
-0.00381758
-0.00157534
0.000720318
0.00322242
0.00587311
0.008618
0.0114239
0.0142718
0.01715
0.0200511
0.0229696
0.0259016
0.0288439
0.0317941
0.0347504
0.0377113
0.0406757
0.0436428
0.0466116
0.0495818
0.0525527
0.055524
0.0584952
0.061466
0.0644361
0.0674052
0.070373
0.0733395
0.0763045
0.0792678
0.0822294
0.0851894
0.0881476
0.0911043
0.0940595
0.0970134
0.0999662
0.102918
0.105869
0.10882
-0.218717
-0.214978
-0.211264
-0.207597
-0.203998
-0.200493
-0.197114
-0.193893
-0.190853
-0.188004
-0.185348
-0.182879
-0.180588
-0.178466
-0.1765
-0.174677
-0.172979
-0.171387
-0.169882
-0.168446
-0.167057
-0.165695
-0.164346
-0.162994
-0.161632
-0.160257
-0.158864
-0.157449
-0.156001
-0.154502
-0.152927
-0.151244
-0.149401
-0.14734
-0.145135
-0.142894
-0.14068
-0.138488
-0.136299
-0.134133
-0.132
-0.12988
-0.127721
-0.125463
-0.123045
-0.120452
-0.117698
-0.114822
-0.111881
-0.108928
-0.105985
-0.103071
-0.100195
-0.097355
-0.094534
-0.0917059
-0.0888011
-0.0858123
-0.0827325
-0.0795897
-0.076424
-0.0732486
-0.0700707
-0.0668929
-0.0637161
-0.0605297
-0.0573065
-0.0540245
-0.0506526
-0.0471309
-0.0434998
-0.0397588
-0.0359292
-0.0320432
-0.0281095
-0.0241247
-0.0200592
-0.0158548
-0.0113367
-0.00589422
-0.000133507
-0.000450015
0.00123361
0.00354695
0.00611817
0.00881672
0.0115891
0.0144102
0.0172662
0.0201486
0.0230513
0.02597
0.028901
0.0318418
0.03479
0.037744
0.0407025
0.0436645
0.0466289
0.0495953
0.0525629
0.0555313
0.0585001
0.0614689
0.0644372
0.0674049
0.0703717
0.0733374
0.0763017
0.0792646
0.082226
0.0851859
0.0881442
0.0911011
0.0940567
0.097011
0.0999642
0.102917
0.105868
0.10882
-0.218768
-0.215133
-0.211525
-0.207961
-0.204462
-0.201058
-0.197784
-0.194671
-0.191737
-0.188993
-0.18644
-0.184069
-0.181871
-0.179836
-0.177953
-0.17621
-0.174583
-0.173051
-0.171597
-0.170202
-0.168845
-0.167509
-0.16618
-0.164844
-0.163498
-0.162135
-0.160755
-0.159352
-0.157914
-0.156422
-0.154851
-0.15317
-0.151319
-0.149262
-0.147087
-0.144881
-0.142686
-0.140493
-0.138299
-0.136115
-0.133952
-0.131782
-0.129551
-0.127206
-0.124701
-0.122028
-0.119213
-0.116314
-0.113383
-0.110457
-0.107534
-0.104622
-0.101729
-0.0988571
-0.0959948
-0.093111
-0.0901415
-0.0870937
-0.0839668
-0.0808009
-0.0776339
-0.0744758
-0.0713248
-0.0681673
-0.064988
-0.0617684
-0.0584801
-0.055103
-0.051621
-0.0479928
-0.0442393
-0.0403613
-0.0364047
-0.0324067
-0.0283746
-0.024307
-0.0201885
-0.0159973
-0.0116885
-0.00727352
-0.00335794
-0.00111594
0.00117081
0.00364646
0.00625862
0.00895979
0.0117217
0.014528
0.0173685
0.0202362
0.0231257
0.0260327
0.0289537
0.0318858
0.0348266
0.0377743
0.0407274
0.0436846
0.046645
0.0496079
0.0525724
0.0555382
0.0585048
0.0614716
0.0644384
0.0674048
0.0703705
0.0733353
0.0762991
0.0792616
0.0822228
0.0851826
0.088141
0.0910981
0.094054
0.0970086
0.0999623
0.102915
0.105868
0.10882
-0.218815
-0.215273
-0.211759
-0.208293
-0.204896
-0.201596
-0.198429
-0.195423
-0.1926
-0.189969
-0.187524
-0.185255
-0.183154
-0.181212
-0.179416
-0.177752
-0.176195
-0.174723
-0.173319
-0.171965
-0.170642
-0.169335
-0.168031
-0.166719
-0.165393
-0.164051
-0.162692
-0.16131
-0.159892
-0.158417
-0.156867
-0.155206
-0.153359
-0.151311
-0.149151
-0.146949
-0.144743
-0.14253
-0.140326
-0.138132
-0.135946
-0.133725
-0.131426
-0.129011
-0.126439
-0.123713
-0.120876
-0.117986
-0.115075
-0.112165
-0.109246
-0.106318
-0.103392
-0.100472
-0.0975472
-0.0945798
-0.0915309
-0.0884187
-0.0852557
-0.08208
-0.0789233
-0.0757865
-0.0726581
-0.069516
-0.0663279
-0.0630654
-0.0597033
-0.0562267
-0.0526402
-0.0489238
-0.0450718
-0.041094
-0.0370477
-0.0329707
-0.0288675
-0.0247357
-0.0205789
-0.0164192
-0.0122862
-0.0082913
-0.00470584
-0.00174
0.000979225
0.00365004
0.00633978
0.0090661
0.0118305
0.0146297
0.0174594
0.0203154
0.0231936
0.0260903
0.0290022
0.0319263
0.0348604
0.0378022
0.0407503
0.0437032
0.0466599
0.0496195
0.0525812
0.0555446
0.0585091
0.0614741
0.0644394
0.0674046
0.0703694
0.0733334
0.0762966
0.0792588
0.0822198
0.0851795
0.088138
0.0910953
0.0940514
0.0970064
0.0999606
0.102914
0.105867
0.108819
-0.21885
-0.215382
-0.211948
-0.208572
-0.205276
-0.202086
-0.199031
-0.196142
-0.193438
-0.190925
-0.188593
-0.186433
-0.184435
-0.182586
-0.180876
-0.179293
-0.177807
-0.176397
-0.175047
-0.173739
-0.172459
-0.171193
-0.169925
-0.168648
-0.167355
-0.166046
-0.16472
-0.163372
-0.161983
-0.160537
-0.159027
-0.157407
-0.155581
-0.153548
-0.151387
-0.149163
-0.146932
-0.144691
-0.142473
-0.140272
-0.138061
-0.135782
-0.133424
-0.130966
-0.128355
-0.125585
-0.122711
-0.119807
-0.116904
-0.114007
-0.111079
-0.108115
-0.10513
-0.102146
-0.0991401
-0.0960659
-0.0929127
-0.0897229
-0.0865242
-0.083347
-0.0802155
-0.0771079
-0.0740139
-0.0708705
-0.0676251
-0.0642737
-0.0608261
-0.0572687
-0.0536037
-0.0498346
-0.0459292
-0.0419029
-0.0378097
-0.0336857
-0.029528
-0.0253207
-0.0210904
-0.0169129
-0.0128388
-0.0089221
-0.00527896
-0.00202015
0.000906393
0.00368524
0.00642224
0.00916455
0.0119298
0.0147227
0.0175431
0.0203886
0.0232564
0.0261435
0.0290468
0.0319636
0.0348912
0.0378277
0.0407711
0.0437201
0.0466734
0.04963
0.0525893
0.0555504
0.058513
0.0614765
0.0644404
0.0674045
0.0703683
0.0733317