/*--------------------------------*- C++ -*----------------------------------*\
  =========                 |
  \\      /  F ield         | OpenFOAM: The Open Source CFD Toolbox
   \\    /   O peration     | Website:  https://openfoam.org
    \\  /    A nd           | Version:  6
     \\/     M anipulation  |
\*---------------------------------------------------------------------------*/
FoamFile
{
    version     2.0;
    format      ascii;
    class       volScalarField;
    location    "1300";
    object      T;
}
// * * * * * * * * * * * * * * * * * * * * * * * * * * * * * * * * * * * * * //

dimensions      [0 0 0 1 0 0 0];

internalField   nonuniform List<scalar> 
4800
(
552.446
552.238
552.031
551.825
551.621
551.422
551.229
551.045
550.872
550.713
550.565
550.429
550.305
550.191
550.086
549.99
549.902
549.821
549.747
549.678
549.613
549.551
549.493
549.436
549.381
549.326
549.272
549.217
549.162
549.106
549.048
548.989
548.928
548.865
548.801
548.735
548.667
548.598
548.527
548.455
548.382
548.309
548.235
548.162
548.089
548.018
547.947
547.877
547.807
547.737
547.667
547.595
547.524
547.451
547.379
547.306
547.233
547.16
547.087
547.015
546.941
546.867
546.792
546.714
546.633
546.549
546.459
546.364
546.263
546.157
546.046
545.932
545.815
545.696
545.578
545.461
545.346
545.234
545.124
545.014
544.904
544.79
544.676
544.561
544.446
544.331
544.216
544.102
543.988
543.874
543.761
543.648
543.535
543.423
543.312
543.201
543.09
542.979
542.869
542.759
542.649
542.54
542.431
542.322
542.213
542.105
541.997
541.889
541.781
541.673
541.566
541.458
541.351
541.244
541.137
541.03
540.923
540.817
540.71
540.603
552.446
552.239
552.032
551.826
551.623
551.424
551.232
551.05
550.879
550.721
550.574
550.438
550.314
550.2
550.095
549.999
549.911
549.83
549.756
549.686
549.622
549.56
549.501
549.445
549.389
549.335
549.28
549.226
549.17
549.114
549.056
548.996
548.935
548.872
548.807
548.741
548.673
548.604
548.533
548.46
548.387
548.314
548.241
548.168
548.096
548.025
547.955
547.885
547.816
547.746
547.675
547.604
547.532
547.459
547.387
547.313
547.24
547.167
547.094
547.021
546.947
546.872
546.796
546.718
546.637
546.552
546.463
546.369
546.27
546.165
546.055
545.941
545.824
545.706
545.588
545.471
545.356
545.242
545.13
545.019
544.906
544.792
544.677
544.562
544.446
544.331
544.216
544.102
543.987
543.874
543.76
543.648
543.535
543.423
543.312
543.2
543.09
542.979
542.869
542.759
542.649
542.54
542.431
542.322
542.213
542.105
541.997
541.889
541.781
541.673
541.566
541.458
541.351
541.244
541.137
541.03
540.923
540.817
540.71
540.603
552.447
552.24
552.034
551.83
551.628
551.432
551.242
551.062
550.893
550.736
550.59
550.456
550.332
550.218
550.113
550.017
549.929
549.848
549.773
549.703
549.638
549.576
549.518
549.461
549.406
549.351
549.297
549.242
549.186
549.13
549.072
549.012
548.95
548.887
548.822
548.755
548.686
548.616
548.544
548.472
548.399
548.326
548.254
548.182
548.111
548.041
547.972
547.902
547.833
547.763
547.693
547.621
547.549
547.476
547.403
547.329
547.255
547.181
547.107
547.033
546.958
546.882
546.805
546.725
546.643
546.558
546.469
546.375
546.277
546.174
546.067
545.955
545.841
545.724
545.607
545.49
545.373
545.257
545.142
545.027
544.911
544.795
544.678
544.562
544.446
544.331
544.216
544.101
543.987
543.873
543.76
543.647
543.535
543.423
543.311
543.2
543.089
542.979
542.869
542.759
542.649
542.54
542.431
542.322
542.213
542.105
541.997
541.889
541.781
541.673
541.566
541.458
541.351
541.244
541.137
541.03
540.924
540.817
540.71
540.603
552.447
552.242
552.038
551.835
551.636
551.442
551.256
551.08
550.913
550.758
550.613
550.479
550.356
550.242
550.138
550.042
549.954
549.872
549.797
549.728
549.662
549.6
549.541
549.485
549.429
549.375
549.32
549.265
549.21
549.153
549.095
549.035
548.973
548.909
548.843
548.775
548.706
548.635
548.563
548.49
548.417
548.345
548.273
548.203
548.133
548.064
547.996
547.928
547.859
547.789
547.719
547.647
547.574
547.501
547.427
547.352
547.277
547.201
547.126
547.051
546.974
546.896
546.817
546.736
546.652
546.566
546.476
546.383
546.285
546.184
546.079
545.97
545.857
545.743
545.626
545.509
545.392
545.274
545.155
545.036
544.916
544.798
544.68
544.563
544.447
544.331
544.215
544.101
543.986
543.873
543.76
543.647
543.534
543.423
543.311
543.2
543.089
542.979
542.868
542.759
542.649
542.54
542.431
542.322
542.213
542.105
541.997
541.889
541.781
541.673
541.566
541.459
541.351
541.244
541.137
541.03
540.924
540.817
540.71
540.603
552.448
552.246
552.044
551.845
551.649
551.459
551.275
551.102
550.938
550.784
550.641
550.509
550.386
550.273
550.169
550.073
549.985
549.904
549.829
549.759
549.694
549.632
549.572
549.515
549.46
549.405
549.35
549.296
549.24
549.183
549.125
549.064
549.002
548.938
548.871
548.802
548.732
548.66
548.588
548.515
548.442
548.371
548.3
548.23
548.162
548.094
548.027
547.96
547.892
547.823
547.752
547.68
547.606
547.532
547.456
547.38
547.303
547.227
547.15
547.072
546.994
546.914
546.833
546.749
546.664
546.576
546.485
546.391
546.293
546.193
546.09
545.983
545.873
545.76
545.644
545.527
545.408
545.288
545.166
545.043
544.921
544.801
544.682
544.564
544.447
544.33
544.215
544.1
543.986
543.872
543.759
543.646
543.534
543.422
543.311
543.2
543.089
542.978
542.868
542.758
542.649
542.54
542.431
542.322
542.213
542.105
541.997
541.889
541.781
541.673
541.566
541.459
541.351
541.244
541.137
541.03
540.924
540.817
540.71
540.603
552.45
552.249
552.051
551.854
551.663
551.476
551.297
551.127
550.965
550.814
550.673
550.543
550.421
550.308
550.205
550.11
550.022
549.941
549.866
549.797
549.731
549.669
549.61
549.553
549.497
549.442
549.387
549.332
549.277
549.22
549.161
549.1
549.037
548.972
548.905
548.835
548.764
548.692
548.619
548.546
548.474
548.402
548.332
548.264
548.197
548.13
548.064
547.998
547.93
547.861
547.79
547.718
547.643
547.567
547.49
547.412
547.334
547.256
547.178
547.098
547.017
546.934
546.85
546.764
546.676
546.586
546.493
546.398
546.3
546.2
546.098
545.993
545.884
545.773
545.658
545.541
545.421
545.298
545.174
545.049
544.925
544.803
544.683
544.564
544.446
544.33
544.214
544.099
543.984
543.871
543.758
543.645
543.533
543.421
543.31
543.199
543.088
542.978
542.868
542.758
542.649
542.54
542.431
542.322
542.213
542.105
541.997
541.889
541.781
541.673
541.566
541.459
541.351
541.244
541.137
541.03
540.924
540.817
540.71
540.603
552.451
552.255
552.059
551.867
551.679
551.496
551.32
551.154
550.996
550.847
550.709
550.58
550.46
550.349
550.246
550.151
550.064
549.984
549.909
549.84
549.775
549.712
549.653
549.596
549.54
549.485
549.431
549.375
549.32
549.262
549.203
549.142
549.078
549.012
548.944
548.874
548.802
548.729
548.656
548.582
548.51
548.439
548.37
548.302
548.236
548.171
548.105
548.04
547.973
547.904
547.833
547.759
547.684
547.606
547.527
547.448
547.368
547.288
547.207
547.125
547.041
546.956
546.868
546.779
546.688
546.596
546.501
546.404
546.306
546.206
546.103
545.999
545.891
545.781
545.667
545.55
545.429
545.305
545.179
545.052
544.927
544.804
544.682
544.563
544.445
544.328
544.212
544.097
543.983
543.869
543.756
543.644
543.532
543.42
543.309
543.198
543.088
542.978
542.868
542.758
542.649
542.539
542.431
542.322
542.213
542.105
541.997
541.889
541.781
541.674
541.566
541.459
541.352
541.244
541.137
541.031
540.924
540.817
540.71
540.603
552.453
552.261
552.07
551.882
551.698
551.519
551.347
551.183
551.028
550.883
550.747
550.62
550.502
550.392
550.291
550.198
550.111
550.031
549.957
549.888
549.823
549.761
549.702
549.645
549.589
549.534
549.479
549.424
549.368
549.31
549.25
549.188
549.124
549.057
548.987
548.916
548.844
548.77
548.697
548.623
548.551
548.48
548.411
548.344
548.278
548.213
548.148
548.083
548.016
547.947
547.876
547.802
547.725
547.647
547.566
547.485
547.403
547.32
547.237
547.152
547.065
546.977
546.886
546.794
546.7
546.605
546.508
546.409
546.31
546.209
546.106
546.001
545.894
545.784
545.67
545.553
545.432
545.308
545.181
545.053
544.927
544.803
544.681
544.561
544.443
544.326
544.21
544.095
543.981
543.868
543.755
543.642
543.531
543.419
543.308
543.198
543.087
542.977
542.867
542.758
542.648
542.539
542.43
542.322
542.213
542.105
541.997
541.889
541.781
541.674
541.566
541.459
541.352
541.245
541.138
541.031
540.924
540.817
540.71
540.603
552.455
552.267
552.08
551.896
551.716
551.542
551.374
551.214
551.062
550.92
550.786
550.662
550.546
550.438
550.339
550.247
550.162
550.083
550.01
549.941
549.876
549.814
549.755
549.697
549.642
549.587
549.532
549.477
549.42
549.362
549.302
549.239
549.174
549.106
549.035
548.963
548.89
548.815
548.741
548.667
548.594
548.523
548.454
548.387
548.322
548.257
548.193
548.128
548.06
547.991
547.919
547.844
547.766
547.685
547.604
547.521
547.437
547.351
547.265
547.177
547.087
546.996
546.903
546.808
546.711
546.613
546.513
546.413
546.312
546.209
546.106
546
545.893
545.782
545.669
545.551
545.43
545.306
545.178
545.051
544.924
544.8
544.678
544.558
544.44
544.323
544.207
544.092
543.979
543.865
543.753
543.641
543.529
543.418
543.307
543.197
543.086
542.977
542.867
542.757
542.648
542.539
542.43
542.322
542.213
542.105
541.997
541.889
541.781
541.674
541.566
541.459
541.352
541.245
541.138
541.031
540.924
540.817
540.71
540.603
552.457
552.273
552.09
551.911
551.735
551.565
551.401
551.244
551.096
550.957
550.826
550.704
550.591
550.486
550.389
550.299
550.215
550.137
550.065
549.996
549.932
549.87
549.811
549.754
549.698
549.643
549.588
549.533
549.477
549.418
549.358
549.294
549.228
549.159
549.087
549.014
548.939
548.864
548.788
548.714
548.64
548.569
548.499
548.432
548.367
548.302
548.238
548.172
548.104
548.033
547.959
547.883
547.803
547.721
547.637
547.552
547.466
547.379
547.29
547.199
547.107
547.014
546.918
546.82
546.72
546.62
546.518
546.415
546.312
546.208
546.103
545.997
545.888
545.777
545.663
545.546
545.425
545.301
545.174
545.047
544.92
544.796
544.674
544.554
544.436
544.319
544.204
544.089
543.976
543.863
543.75
543.639
543.527
543.417
543.306
543.196
543.086
542.976
542.866
542.757
542.648
542.539
542.43
542.322
542.213
542.105
541.997
541.889
541.782
541.674
541.566
541.459
541.352
541.245
541.138
541.031
540.924
540.817
540.71
540.603
552.459
552.279
552.1
551.925
551.753
551.587
551.427
551.274
551.13
550.994
550.866
550.748
550.637
550.534
550.439
550.351
550.269
550.193
550.121
550.053
549.989
549.928
549.869
549.812
549.757
549.702
549.648
549.593
549.536
549.478
549.417
549.353
549.286
549.216
549.143
549.068
548.992
548.915
548.839
548.763
548.688
548.616
548.546
548.479
548.414
548.349
548.284
548.218
548.148
548.074
547.998
547.918
547.836
547.752
547.666
547.579
547.491
547.402
547.311
547.219
547.125
547.029
546.93
546.83
546.728
546.625
546.521
546.416
546.312
546.206
546.1
545.992
545.882
545.77
545.655
545.537
545.416
545.293
545.167
545.04
544.914
544.79
544.668
544.549
544.431
544.314
544.199
544.085
543.972
543.86
543.748
543.636
543.525
543.415
543.305
543.195
543.085
542.975
542.866
542.757
542.648
542.539
542.43
542.322
542.213
542.105
541.997
541.889
541.782
541.674
541.567
541.459
541.352
541.245
541.138
541.031
540.924
540.817
540.71
540.603
552.462
552.286
552.111
551.94
551.772
551.609
551.453
551.304
551.163
551.031
550.907
550.791
550.684
550.584
550.491
550.404
550.324
550.248
550.178
550.111
550.047
549.987
549.929
549.873
549.818
549.764
549.71
549.655
549.598
549.54
549.479
549.415
549.348
549.277
549.203
549.126
549.048
548.97
548.892
548.814
548.739
548.666
548.596
548.529
548.464
548.399
548.334
548.265
548.192
548.115
548.035
547.951
547.866
547.778
547.69
547.602
547.512
547.421
547.329
547.235
547.139
547.041
546.941
546.838
546.734
546.629
546.523
546.417
546.31
546.203
546.095
545.985
545.874
545.761
545.645
545.527
545.406
545.283
545.157
545.031
544.905
544.782
544.661
544.542
544.424
544.309
544.194
544.081
543.968
543.856
543.745
543.634
543.523
543.413
543.303
543.193
543.084
542.974
542.865
542.756
542.647
542.539
542.43
542.322
542.213
542.105
541.997
541.889
541.782
541.674
541.567
541.459
541.352
541.245
541.138
541.031
540.924
540.817
540.71
540.603
552.464
552.293
552.123
551.956
551.792
551.634
551.481
551.336
551.198
551.069
550.948
550.835
550.73
550.633
550.542
550.457
550.378
550.304
550.235
550.169
550.106
550.047
549.99
549.934
549.881
549.828
549.774
549.719
549.663
549.604
549.543
549.48
549.413
549.342
549.266
549.188
549.108
549.028
548.948
548.869
548.793
548.72
548.65
548.584
548.519
548.454
548.386
548.313
548.237
548.155
548.07
547.982
547.893
547.803
547.712
547.622
547.531
547.438
547.345
547.25
547.152
547.052
546.949
546.845
546.739
546.632
546.524
546.417
546.308
546.199
546.089
545.978
545.865
545.75
545.634
545.515
545.394
545.271
545.147
545.021
544.895
544.772
544.652
544.533
544.417
544.302
544.188
544.076
543.964
543.853
543.742
543.631
543.521
543.411
543.301
543.192
543.083
542.974
542.865
542.756
542.647
542.538
542.43
542.322
542.213
542.105
541.997
541.89
541.782
541.674
541.567
541.46
541.352
541.245
541.138
541.031
540.924
540.817
540.71
540.603
552.466
552.3
552.134
551.972
551.812
551.658
551.509
551.367
551.233
551.107
550.989
550.879
550.777
550.682
550.593
550.51
550.433
550.36
550.292
550.227
550.166
550.108
550.052
549.998
549.945
549.892
549.839
549.785
549.729
549.671
549.61
549.547
549.481
549.409
549.332
549.252
549.17
549.088
549.007
548.927
548.851
548.778
548.709
548.643
548.578
548.511
548.44
548.364
548.282
548.196
548.106
548.013
547.92
547.826
547.734
547.641
547.549
547.455
547.36
547.263
547.164
547.061
546.956
546.85
546.742
546.634
546.525
546.416
546.307
546.196
546.084
545.971
545.856
545.739
545.622
545.502
545.381
545.257
545.133
545.008
544.882
544.76
544.641
544.523
544.408
544.295
544.182
544.07
543.959
543.849
543.738
543.628
543.519
543.409
543.3
543.191
543.082
542.973
542.864
542.755
542.647
542.538
542.43
542.321
542.213
542.105
541.997
541.89
541.782
541.674
541.567
541.46
541.352
541.245
541.138
541.031
540.924
540.817
540.71
540.603
552.469
552.306
552.145
551.987
551.832
551.681
551.536
551.398
551.267
551.145
551.03
550.923
550.823
550.73
550.644
550.563
550.487
550.416
550.349
550.286
550.227
550.17
550.115
550.062
550.01
549.958
549.906
549.852
549.796
549.739
549.679
549.617
549.551
549.479
549.4
549.318
549.234
549.151
549.069
548.989
548.913
548.841
548.772
548.706
548.64
548.57
548.496
548.415
548.328
548.236
548.141
548.044
547.947
547.851
547.756
547.662
547.568
547.473
547.377
547.278
547.176
547.071
546.964
546.855
546.746
546.636
546.526
546.416
546.306
546.194
546.08
545.965
545.848
545.729
545.609
545.488
545.365
545.241
545.117
544.992
544.867
544.746
544.628
544.512
544.398
544.286
544.175
544.064
543.954
543.844
543.735
543.625
543.516
543.407
543.298
543.189
543.08
542.972
542.863
542.755
542.646
542.538
542.43
542.321
542.213
542.105
541.998
541.89
541.782
541.675
541.567
541.46
541.353
541.245
541.138
541.031
540.924
540.817
540.71
540.603
552.471
552.313
552.157
552.002
551.851
551.705
551.563
551.429
551.302
551.182
551.07
550.966
550.869
550.778
550.694
550.615
550.541
550.472
550.407
550.346
550.288
550.233
550.179
550.127
550.076
550.025
549.973
549.92
549.865
549.808
549.749
549.687
549.622
549.55
549.469
549.385
549.301
549.217
549.135
549.055
548.979
548.908
548.839
548.772
548.703
548.631
548.552
548.467
548.375
548.278
548.179
548.078
547.978
547.879
547.782
547.686
547.59
547.494
547.396
547.294
547.189
547.082
546.972
546.861
546.751
546.64
546.53
546.419
546.307
546.194
546.078
545.961
545.841
545.719
545.597
545.473
545.348
545.222
545.097
544.972
544.848
544.728
544.612
544.499
544.387
544.277
544.167
544.058
543.949
543.84
543.731
543.622
543.514
543.405
543.296
543.188
543.079
542.971
542.862
542.754
542.646
542.538
542.429
542.321
542.213
542.105
541.998
541.89
541.782
541.675
541.567
541.46
541.353
541.246
541.138
541.031
540.924
540.817
540.71
540.603
552.473
552.32
552.168
552.018
551.872
551.729
551.591
551.46
551.336
551.22
551.111
551.009
550.915
550.827
550.745
550.668
550.596
550.529
550.467
550.407
550.351
550.297
550.245
550.194
550.143
550.092
550.041
549.988
549.934
549.878
549.819
549.758
549.693
549.62
549.539
549.454
549.37
549.286
549.204
549.125
549.049
548.978
548.908
548.839
548.767
548.691
548.607
548.517
548.421
548.32
548.217
548.114
548.011
547.911
547.812
547.714
547.617
547.519
547.418
547.313
547.205
547.094
546.983
546.871
546.759
546.647
546.536
546.424
546.312
546.197
546.079
545.959
545.836
545.711
545.585
545.458
545.331
545.203
545.075
544.949
544.825
544.707
544.594
544.484
544.375
544.267
544.159
544.051
543.943
543.835
543.727
543.619
543.511
543.403
543.295
543.186
543.078
542.97
542.862
542.753
542.645
542.537
542.429
542.321
542.213
542.105
541.998
541.89
541.782
541.675
541.567
541.46
541.353
541.246
541.138
541.031
540.924
540.817
540.71
540.603
552.476
552.327
552.18
552.034
551.891
551.753
551.619
551.491
551.371
551.257
551.152
551.053
550.961
550.875
550.796
550.721
550.652
550.588
550.527
550.47
550.415
550.362
550.311
550.261
550.21
550.16
550.109
550.056
550.002
549.947
549.889
549.829
549.763
549.69
549.609
549.524
549.439
549.357
549.276
549.197
549.122
549.05
548.978
548.906
548.831
548.749
548.661
548.565
548.464
548.361
548.256
548.151
548.047
547.946
547.846
547.747
547.648
547.547
547.443
547.335
547.225
547.112
546.999
546.885
546.772
546.659
546.547
546.435
546.321
546.203
546.083
545.96
545.834
545.706
545.576
545.445
545.313
545.181
545.049
544.92
544.795
544.681
544.573
544.467
544.362
544.256
544.151
544.044
543.938
543.831
543.724
543.616
543.509
543.401
543.293
543.185
543.077
542.969
542.861
542.753
542.645
542.537
542.429
542.321
542.213
542.105
541.998
541.89
541.783
541.675
541.568
541.46
541.353
541.246
541.139
541.032
540.924
540.817
540.71
540.603
552.478
552.334
552.191
552.05
551.911
551.776
551.646
551.522
551.405
551.295
551.192
551.096
551.007
550.924
550.847
550.775
550.709
550.646
550.588
550.532
550.479
550.428
550.378
550.328
550.278
550.227
550.176
550.124
550.071
550.016
549.959
549.898
549.833
549.759
549.678
549.593
549.51
549.429
549.348
549.27
549.195
549.121
549.047
548.972
548.893
548.807
548.714
548.614
548.51
548.404
548.298
548.192
548.088
547.986
547.885
547.785
547.684
547.581
547.474
547.363
547.25
547.136
547.021
546.907
546.793
546.679
546.566
546.452
546.335
546.215
546.091
545.965
545.835
545.703
545.569
545.433
545.296
545.158
545.019
544.882
544.754
544.648
544.549
544.449
544.349
544.246
544.143
544.038
543.933
543.827
543.72
543.613
543.506
543.399
543.291
543.184
543.076
542.968
542.86
542.752
542.645
542.537
542.429
542.321
542.213
542.105
541.998
541.89
541.783
541.675
541.568
541.46
541.353
541.246
541.139
541.032
540.925
540.817
540.71
540.603
552.48
552.34
552.202
552.065
551.93
551.799
551.673
551.552
551.439
551.332
551.232
551.14
551.053
550.973
550.899
550.83
550.766
550.706
550.649
550.596
550.544
550.494
550.444
550.395
550.345
550.295
550.244
550.192
550.139
550.085
550.028
549.967
549.901
549.826
549.745
549.662
549.581
549.501
549.421
549.343
549.267
549.191
549.115
549.037
548.953
548.863
548.766
548.664
548.558
548.451
548.343
548.237
548.133
548.031
547.929
547.828
547.725
547.619
547.509
547.397
547.283
547.168
547.052
546.937
546.822
546.708
546.593
546.476
546.357
546.233
546.106
545.975
545.841
545.705
545.566
545.426
545.283
545.137
544.986
544.832
544.688
544.607
544.524
544.433
544.337
544.237
544.136
544.032
543.928
543.823
543.717
543.611
543.504
543.397
543.29
543.182
543.075
542.967
542.86
542.752
542.644
542.536
542.429
542.321
542.213
542.105
541.998
541.89
541.783
541.675
541.568
541.461
541.353
541.246
541.139
541.032
540.925
540.818
540.711
540.604
552.482
552.346
552.212
552.079
551.948
551.821
551.699
551.582
551.472
551.368
551.272
551.183
551.1
551.023
550.951
550.885
550.824
550.766
550.711
550.659
550.609
550.559
550.511
550.462
550.412
550.362
550.312
550.26
550.208
550.154
550.097
550.035
549.969
549.894
549.814
549.733
549.652
549.573
549.493
549.415
549.337
549.261
549.182
549.1
549.013
548.918
548.818
548.714
548.607
548.5
548.393
548.288
548.183
548.08
547.978
547.875
547.77
547.662
547.55
547.436
547.321
547.206
547.091
546.975
546.86
546.745
546.628
546.509
546.386
546.259
546.127
545.991
545.852
545.711
545.569
545.424
545.277
545.125
544.961
544.767
544.558
544.566
544.505
544.421
544.328
544.23
544.13
544.027
543.924
543.819
543.714
543.608
543.502
543.395
543.288
543.181
543.074
542.966
542.859
542.751
542.644
542.536
542.428
542.321
542.213
542.105
541.998
541.89
541.783
541.675
541.568
541.461
541.353
541.246
541.139
541.032
540.925
540.818
540.711
540.604
552.484
552.352
552.221
552.092
551.965
551.842
551.723
551.61
551.504
551.404
551.312
551.226
551.146
551.072
551.004
550.941
550.882
550.826
550.773
550.723
550.674
550.625
550.577
550.529
550.48
550.43
550.38
550.33
550.277
550.223
550.166
550.105
550.038
549.964
549.885
549.805
549.725
549.646
549.566
549.487
549.408
549.33
549.249
549.164
549.073
548.975
548.873
548.768
548.662
548.556
548.449
548.344
548.239
548.135
548.031
547.926
547.819
547.708
547.595
547.48
547.365
547.25
547.136
547.022
546.906
546.789
546.67
546.548
546.421
546.29
546.154
546.013
545.87
545.725
545.578
545.431
545.282
545.13
544.974
544.814
544.671
544.59
544.507
544.418
544.323
544.225
544.125
544.023
543.92
543.816
543.711
543.606
543.5
543.394
543.287
543.18
543.073
542.966
542.858
542.751
542.643
542.536
542.428
542.321
542.213
542.105
541.998
541.89
541.783
541.675
541.568
541.461
541.353
541.246
541.139
541.032
540.925
540.818
540.711
540.604
552.486
552.357
552.23
552.104
551.981
551.861
551.746
551.637
551.535
551.44
551.351
551.269
551.193
551.122
551.057
550.997
550.94
550.887
550.836
550.787
550.739
550.692
550.644
550.597
550.549
550.5
550.451
550.401
550.349
550.296
550.24
550.179
550.112
550.038
549.96
549.88
549.8
549.719
549.64
549.56
549.481
549.4
549.317
549.229
549.135
549.036
548.933
548.828
548.723
548.617
548.511
548.405
548.299
548.193
548.087
547.979
547.869
547.756
547.641
547.526
547.412
547.298
547.184
547.07
546.955
546.836
546.714
546.588
546.458
546.323
546.184
546.039
545.893
545.745
545.596
545.446
545.296
545.145
544.995
544.85
544.72
544.613
544.514
544.417
544.32
544.221
544.121
544.019
543.917
543.813
543.709
543.604
543.498
543.392
543.286
543.179
543.072
542.965
542.858
542.75
542.643
542.536
542.428
542.321
542.213
542.105
541.998
541.89
541.783
541.676
541.568
541.461
541.354
541.246
541.139
541.032
540.925
540.818
540.711
540.604
552.487
552.361
552.237
552.114
551.995
551.879
551.768
551.664
551.566
551.474
551.39
551.312
551.239
551.172
551.11
551.053
550.999
550.948
550.899
550.851
550.805
550.759
550.713
550.667
550.62
550.573
550.525
550.476
550.425
550.373
550.318
550.259
550.193
550.119
550.041
549.96
549.879
549.798
549.717
549.638
549.557
549.475
549.389
549.299
549.204
549.104
548.999
548.894
548.789
548.683
548.577
548.47
548.362
548.254
548.145
548.033
547.919
547.803
547.687
547.572
547.459
547.346
547.234
547.12
547.002
546.88
546.755
546.626
546.493
546.356
546.215
546.069
545.92
545.771
545.62
545.467
545.314
545.162
545.015
544.873
544.741
544.623
544.517
544.416
544.317
544.218
544.117
544.016
543.914
543.811
543.707
543.602
543.497
543.391
543.285
543.178
543.071
542.964
542.857
542.75
542.643
542.535
542.428
542.32
542.213
542.105
541.998
541.891
541.783
541.676
541.568
541.461
541.354
541.246
541.139
541.032
540.925
540.818
540.711
540.604
552.488
552.364
552.242
552.122
552.006
551.894
551.788
551.688
551.595
551.509
551.428
551.354
551.285
551.221
551.163
551.108
551.057
551.009
550.962
550.917
550.873
550.83
550.786
550.741
550.696
550.65
550.604
550.557
550.508
550.456
550.404
550.347
550.283
550.21
550.131
550.05
549.968
549.886
549.806
549.727
549.647
549.562
549.474
549.381
549.282
549.177
549.068
548.96
548.854
548.75
548.643
548.534
548.423
548.313
548.201
548.084
547.965
547.848
547.731
547.616
547.503
547.39
547.279
547.163
547.042
546.916
546.789
546.659
546.523
546.383
546.239
546.092
545.942
545.791
545.639
545.482
545.324
545.168
545.019
544.876
544.74
544.616
544.511
544.411
544.312
544.213
544.114
544.013
543.911
543.808
543.704
543.6
543.495
543.39
543.284
543.177
543.071
542.964
542.857
542.75
542.643
542.535
542.428
542.32
542.213
542.106
541.998
541.891
541.783
541.676
541.568
541.461
541.354
541.247
541.139
541.032
540.925
540.818
540.711
540.604
552.488
552.366
552.245
552.128
552.015
551.908
551.806
551.712
551.624
551.542
551.467
551.397
551.331
551.271
551.215
551.164
551.116
551.071
551.028
550.986
550.946
550.905
550.864
550.822
550.779
550.735
550.691
550.645
550.597
550.547
550.497
550.443
550.382
550.311
550.232
550.15
550.067
549.985
549.906
549.828
549.749
549.663
549.572
549.472
549.366
549.251
549.134
549.023
548.915
548.815
548.703
548.595
548.482
548.372
548.255
548.132
548.007
547.889
547.773
547.657
547.548
547.431
547.323
547.203
547.077
546.943
546.819
546.692
546.55
546.404
546.256
546.108
545.95
545.797
545.645
545.483
545.316
545.149
544.994
544.85
544.715
544.586
544.495
544.402
544.306
544.208
544.11
544.009
543.908
543.806
543.702
543.598
543.494
543.388
543.283
543.177
543.07
542.963
542.856
542.749
542.642
542.535
542.428
542.32
542.213
542.106
541.998
541.891
541.783
541.676
541.568
541.461
541.354
541.247
541.139
541.032
540.925
540.818
540.711
540.604
552.488
552.366
552.247
552.132
552.023
551.92
551.824
551.735
551.653
551.577
551.506
551.441
551.379
551.321
551.267
551.218
551.174
551.133
551.096
551.06
551.026
550.991
550.954
550.914
550.873
550.83
550.787
550.742
550.694
550.644
550.595
550.545
550.487
550.42
550.341
550.257
550.172
550.09
550.015
549.938
549.862
549.779
549.689
549.575
549.456
549.325
549.196
549.078
548.958
548.875
548.745
548.65
548.536
548.44
548.308
548.174
548.034
547.929
547.812
547.694
547.608
547.468
547.379
547.252
547.125
547.007
546.868
546.745
546.575
546.418
546.269
546.125
545.94
545.782
545.637
545.467
545.286
545.1
544.933
544.791
544.668
544.562
544.479
544.391
544.299
544.203
544.105
544.006
543.905
543.803
543.7
543.597
543.492
543.387
543.282
543.176
543.07
542.963
542.856
542.749
542.642
542.535
542.428
542.32
542.213
542.106
541.998
541.891
541.783
541.676
541.569
541.461
541.354
541.247
541.139
541.032
540.925
540.818
540.711
540.604
552.488
552.365
552.247
552.134
552.029
551.931
551.841
551.758
551.682
551.612
551.548
551.488
551.43
551.374
551.321
551.273
551.231
551.196
551.166
551.14
551.116
551.09
551.058
551.021
550.978
550.936
550.892
550.844
550.793
550.741
550.691
550.643
550.59
550.526
550.45
550.364
550.276
550.197
550.136
550.058
549.985
549.914
549.842
549.691
549.558
549.405
549.275
549.15
549.03
548.937
548.818
548.731
548.636
548.511
548.367
548.22
548.06
547.981
547.849
547.757
547.674
547.516
547.414
547.249
547.144
547.046
546.937
546.821
546.623
546.444
546.281
546.117
545.928
545.767
545.609
545.423
545.241
545.028
544.837
544.685
544.582
544.524
544.463
544.381
544.292
544.198
544.101
544.003
543.903
543.801
543.699
543.595
543.491
543.386
543.281
543.175
543.069
542.963
542.856
542.749
542.642
542.535
542.428
542.32
542.213
542.106
541.998
541.891
541.783
541.676
541.569
541.461
541.354
541.247
541.139
541.032
540.925
540.818
540.711
540.604
552.487
552.363
552.245
552.135
552.034
551.941
551.857
551.779
551.71
551.648
551.591
551.54
551.488
551.434
551.38
551.328
551.285
551.253
551.235
551.225
551.218
551.205
551.179
551.14
551.093
551.047
550.998
550.945
550.89
550.833
550.778
550.728
550.679
550.619
550.545
550.459
550.373
550.297
550.293
550.195
550.112
550.048
549.944
549.758
549.583
549.429
549.335
549.217
549.097
548.988
548.888
548.779
548.702
548.563
548.421
548.251
548.075
547.998
547.901
547.816
547.715
547.563
547.5
547.318
547.228
547.107
547.013
546.933
546.667
546.486
546.272
546.09
545.872
545.712
545.525
545.313
545.115
544.995
544.731
544.511
544.42
544.448
544.462
544.376
544.287
544.194
544.098
544
543.9
543.799
543.697
543.594
543.49
543.386
543.28
543.175
543.069
542.962
542.856
542.749
542.642
542.535
542.427
542.32
542.213
542.106
541.998
541.891
541.783
541.676
541.569
541.461
541.354
541.247
541.14
541.032
540.925
540.818
540.711
540.604
552.485
552.359
552.242
552.135
552.039
551.951
551.87
551.797
551.733
551.679
551.633
551.598
551.559
551.511
551.455
551.391
551.341
551.301
551.293
551.306
551.326
551.328
551.303
551.258
551.204
551.155
551.102
551.042
550.988
550.93
550.864
550.797
550.749
550.681
550.605
550.52
550.458
550.44
550.432
550.378
550.215
550.069
549.926
549.814
549.638
549.465
549.418
549.291
549.148
549.024
548.905
548.803
548.711
548.599
548.449
548.249
548.043
547.982
547.906
547.792
547.732
547.581
547.542
547.37
547.342
547.18
547.133
547.087
546.767
546.654
546.224
546.007
545.803
545.642
545.348
544.937
544.969
545.391
544.637
544.058
544.287
544.3
544.4
544.37
544.284
544.19
544.094
543.997
543.898
543.798
543.696
543.593
543.489
543.385
543.28
543.174
543.068
542.962
542.855
542.749
542.642
542.535
542.427
542.32
542.213
542.106
541.998
541.891
541.783
541.676
541.569
541.461
541.354
541.247
541.14
541.032
540.925
540.818
540.711
540.604
552.481
552.353
552.238
552.135
552.043
551.958
551.881
551.809
551.746
551.699
551.661
551.66
551.643
551.617
551.563
551.482
551.441
551.34
551.33
551.366
551.426
551.425
551.389
551.336
551.275
551.232
551.181
551.117
551.104
551.075
550.998
550.852
550.705
550.611
550.555
550.513
550.546
550.554
550.581
550.573
550.304
550.089
549.957
549.9
549.726
549.557
549.566
549.46
549.264
549.08
548.97
548.914
548.756
548.63
548.453
548.248
548.008
548.017
547.893
547.713
547.772
547.6
547.51
547.361
547.448
547.297
547.292
547.059
546.907
546.733
546.189
545.907
545.743
545.917
545.252
544.422
544.895
545.483
544.533
543.85
544.371
544.33
544.398
544.418
544.286
544.187
544.091
543.995
543.896
543.796
543.695
543.592
543.489
543.385
543.28
543.174
543.068
542.962
542.855
542.749
542.642
542.535
542.427
542.32
542.213
542.106
541.998
541.891
541.783
541.676
541.569
541.461
541.354
541.247
541.14
541.032