/*--------------------------------*- C++ -*----------------------------------*\
  =========                 |
  \\      /  F ield         | OpenFOAM: The Open Source CFD Toolbox
   \\    /   O peration     | Website:  https://openfoam.org
    \\  /    A nd           | Version:  6
     \\/     M anipulation  |
\*---------------------------------------------------------------------------*/
FoamFile
{
    version     2.0;
    format      ascii;
    class       volScalarField;
    location    "3900";
    object      Su;
}
// * * * * * * * * * * * * * * * * * * * * * * * * * * * * * * * * * * * * * //

dimensions      [0 0 -1 0 0 0 0];

internalField   nonuniform List<scalar> 
4800
(
0.218934
0.215616
0.212287
0.208944
0.205585
0.202221
0.198862
0.195519
0.192201
0.188917
0.185676
0.182485
0.179351
0.176285
0.173297
0.170394
0.167589
0.1649
0.162349
0.159966
0.157776
0.155794
0.154018
0.152437
0.151034
0.149779
0.148646
0.147613
0.146657
0.145758
0.144903
0.144077
0.143269
0.14247
0.141673
0.140871
0.14006
0.139237
0.138397
0.137538
0.136657
0.135753
0.134821
0.133859
0.132861
0.131825
0.130745
0.129614
0.128428
0.127186
0.125881
0.124503
0.123047
0.121513
0.119889
0.118169
0.116345
0.114409
0.112357
0.110181
0.10788
0.10545
0.102888
0.100194
0.0973661
0.0943946
0.0912678
0.0879693
0.0844888
0.0808035
0.076896
0.0727646
0.0683939
0.0637682
0.0588651
0.0536523
0.0480925
0.0421452
0.0357547
0.0288319
0.0211657
0.0119552
-2.8142e-05
0.00254712
0.00211137
0.000350853
-0.00207071
-0.00485622
-0.00785494
-0.0109828
-0.0141897
-0.0174447
-0.0207283
-0.0240278
-0.0273349
-0.0306442
-0.0339523
-0.0372569
-0.0405566
-0.0438505
-0.0471383
-0.0504197
-0.0536948
-0.0569637
-0.0602266
-0.0634837
-0.0667355
-0.0699823
-0.0732244
-0.0764622
-0.0796961
-0.0829265
-0.0861537
-0.0893781
-0.0926002
-0.0958203
-0.0990387
-0.102256
-0.105472
-0.108688
0.218926
0.21559
0.212241
0.208879
0.205506
0.20213
0.198762
0.195411
0.192084
0.188787
0.185534
0.182333
0.17919
0.176114
0.173117
0.170213
0.167414
0.164738
0.16221
0.159855
0.157699
0.155755
0.15402
0.152474
0.151097
0.149862
0.148745
0.147724
0.146778
0.145889
0.145043
0.144226
0.143428
0.142639
0.141853
0.141063
0.140264
0.139454
0.138628
0.137782
0.136915
0.136023
0.135103
0.134151
0.133163
0.132137
0.131066
0.129941
0.128759
0.12752
0.126215
0.124832
0.123371
0.12183
0.120193
0.11846
0.116621
0.114671
0.112603
0.110412
0.108095
0.105651
0.10308
0.100377
0.0975358
0.0945457
0.0913954
0.088073
0.0845677
0.0808635
0.0769478
0.0728068
0.068428
0.0637992
0.0589025
0.05371
0.0481912
0.0423165
0.0360571
0.0293917
0.0223169
0.0149667
0.00823182
0.00565258
0.00347936
0.00104677
-0.00167394
-0.00460993
-0.00769213
-0.0108699
-0.0141084
-0.0173844
-0.0206823
-0.0239919
-0.0273064
-0.0306212
-0.0339334
-0.0372412
-0.0405434
-0.0438394
-0.0471288
-0.0504116
-0.0536879
-0.0569578
-0.0602215
-0.0634794
-0.0667318
-0.0699792
-0.0732217
-0.0764599
-0.0796942
-0.0829249
-0.0861524
-0.0893771
-0.0925993
-0.0958196
-0.0990382
-0.102255
-0.105472
-0.108688
0.218907
0.215534
0.212149
0.208754
0.205354
0.201955
0.198567
0.1952
0.191858
0.188547
0.185278
0.182063
0.178912
0.175833
0.172835
0.169934
0.167149
0.164499
0.162014
0.159718
0.157627
0.155747
0.154069
0.152573
0.151236
0.150034
0.148944
0.147946
0.147021
0.146151
0.145324
0.144527
0.143749
0.142982
0.142216
0.141448
0.140673
0.139886
0.139084
0.138262
0.137418
0.136549
0.135651
0.134721
0.133752
0.132744
0.13169
0.130574
0.1294
0.128166
0.126858
0.125464
0.123995
0.122436
0.120778
0.119022
0.117154
0.115173
0.113075
0.110856
0.108512
0.106044
0.103451
0.100723
0.0978521
0.0948285
0.091643
0.0882854
0.0847436
0.0810076
0.0770703
0.0729119
0.0685225
0.0638934
0.0590124
0.0538598
0.0484145
0.0426637
0.0366096
0.0302951
0.0238649
0.0176611
0.0123449
0.00840146
0.00514634
0.00206586
-0.00102796
-0.0041832
-0.00739906
-0.0106615
-0.0139558
-0.0172696
-0.020594
-0.0239225
-0.0272508
-0.0305759
-0.0338961
-0.03721
-0.0405172
-0.0438171
-0.0471099
-0.0503954
-0.053674
-0.0569458
-0.0602113
-0.0634706
-0.0667243
-0.0699728
-0.0732163
-0.0764553
-0.0796903
-0.0829216
-0.0861497
-0.0893748
-0.0925975
-0.0958182
-0.0990371
-0.102255
-0.105471
-0.108688
0.218881
0.215458
0.212029
0.208593
0.205153
0.201717
0.198296
0.194901
0.191539
0.188215
0.184937
0.181713
0.178555
0.17548
0.172493
0.169604
0.166846
0.164244
0.161824
0.159608
0.157602
0.155802
0.154193
0.152755
0.151466
0.150304
0.149249
0.148283
0.147386
0.146545
0.145745
0.144975
0.144225
0.143485
0.14275
0.142013
0.141268
0.140513
0.139743
0.138953
0.138142
0.137307
0.136441
0.13554
0.134599
0.133619
0.132586
0.131484
0.130319
0.129087
0.127773
0.126364
0.124874
0.123284
0.121589
0.119785
0.117868
0.115837
0.113692
0.111428
0.109045
0.106541
0.10391
0.101145
0.0982355
0.0951738
0.0919513
0.0885569
0.0849811
0.0812161
0.077252
0.0730752
0.0686777
0.0640502
0.0591897
0.0540874
0.048732
0.0431336
0.037322
0.0313729
0.0254558
0.019853
0.0148903
0.0105051
0.00667677
0.00313396
-0.000285492
-0.00366052
-0.00702387
-0.0103863
-0.0137494
-0.0171116
-0.0204706
-0.0238244
-0.0271714
-0.0305108
-0.033842
-0.0371646
-0.0404787
-0.0437844
-0.0470818
-0.0503714
-0.0536533
-0.056928
-0.060196
-0.0634575
-0.0667131
-0.0699632
-0.0732081
-0.0764484
-0.0796845
-0.0829167
-0.0861456
-0.0893715
-0.0925949
-0.0958161
-0.0990355
-0.102254
-0.105471
-0.108687
0.218853
0.215377
0.211896
0.208412
0.204928
0.201452
0.197993
0.194561
0.191167
0.18782
0.18453
0.181307
0.178154
0.175085
0.172118
0.169262
0.16655
0.164019
0.161692
0.159574
0.157661
0.155942
0.154404
0.153027
0.15179
0.150673
0.149659
0.148729
0.147866
0.147058
0.14629
0.145553
0.144837
0.144133
0.143434
0.142735
0.142029
0.141312
0.140582
0.139834
0.139064
0.138268
0.137443
0.136579
0.135674
0.134725
0.133718
0.132635
0.13148
0.130247
0.128921
0.127492
0.125962
0.124321
0.122566
0.120696
0.118713
0.116618
0.114411
0.112087
0.10965
0.107097
0.104418
0.101606
0.0986508
0.0955459
0.0922811
0.088846
0.0852331
0.0814367
0.0774485
0.0732593
0.0688603
0.0642446
0.0594122
0.0543608
0.0490982
0.0436514
0.0380637
0.032417
0.0268465
0.0215405
0.0166562
0.0120945
0.00795991
0.00411533
0.000448691
-0.00311338
-0.00661354
-0.0100749
-0.0135097
-0.0169241
-0.0203215
-0.023704
-0.0270728
-0.030429
-0.0337733
-0.0371065
-0.0404291
-0.0437419
-0.0470453
-0.0503398
-0.0536261
-0.0569046
-0.0601758
-0.0634401
-0.0666982
-0.0699504
-0.0731972
-0.0764392
-0.0796767
-0.0829102
-0.0861402
-0.089367
-0.0925913
-0.0958132
-0.0990334
-0.102252
-0.10547
-0.108687
0.218825
0.215293
0.211759
0.208225
0.204693
0.201171
0.197673
0.194208
0.190785
0.187415
0.184114
0.180892
0.177748
0.174688
0.171746
0.16895
0.166321
0.163883
0.161652
0.15963
0.157808
0.156171
0.154704
0.153388
0.152205
0.151135
0.150163
0.149272
0.148446
0.147674
0.146944
0.146245
0.145568
0.144906
0.14425
0.143594
0.142933
0.142263
0.14158
0.140879
0.140157
0.139407
0.138628
0.137807
0.136944
0.136033
0.135056
0.133994
0.132847
0.131608
0.130258
0.128793
0.12721
0.125508
0.123685
0.12174
0.119678
0.117503
0.115221
0.112831
0.11033
0.107713
0.104972
0.1021
0.0990896
0.0959325
0.0926176
0.0891369
0.0854836
0.0816516
0.0776373
0.0734353
0.0690366
0.0644379
0.0596365
0.0546391
0.0494733
0.044169
0.0387732
0.0333587
0.0280253
0.022869
0.0179637
0.0132991
0.00899127
0.00495545
0.00111438
-0.00259221
-0.00620619
-0.00975502
-0.0132562
-0.0167209
-0.0201566
-0.0235684
-0.0269599
-0.030334
-0.0336926
-0.0370374
-0.0403697
-0.0436906
-0.0470008
-0.0503013
-0.0535928
-0.0568757
-0.0601508
-0.0634186
-0.0666797
-0.0699345
-0.0731837
-0.0764277
-0.0796669
-0.082902
-0.0861334
-0.0893615
-0.0925868
-0.0958097
-0.0990307
-0.10225
-0.105469
-0.108687
0.218797
0.215211
0.211625
0.20804
0.204458
0.200888
0.197344
0.193844
0.190396
0.187006
0.183689
0.180463
0.177341
0.17433
0.171446
0.168721
0.166182
0.163845
0.161713
0.159785
0.158048
0.156489
0.15509
0.153833
0.152703
0.15168
0.15075
0.149899
0.149113
0.14838
0.147691
0.147034
0.146401
0.145785
0.145177
0.144571
0.143962
0.143344
0.142713
0.142064
0.141394
0.140695
0.139965
0.139196
0.138381
0.137509
0.136563
0.135522
0.134381
0.133129
0.131752
0.130248
0.128615
0.126852
0.124956
0.122931
0.120784
0.118524
0.116156
0.113684
0.111108
0.108419
0.105605
0.10266
0.0995789
0.096354
0.0929753
0.0894366
0.0857329
0.0818588
0.0778139
0.0735948
0.0691935
0.0646089
0.0598401
0.0548993
0.0498168
0.0446226
0.0393642
0.0340982
0.0288911
0.0238027
0.0188903
0.0141888
0.00978766
0.00563604
0.00167985
-0.00212947
-0.00582985
-0.00944888
-0.013006
-0.0165148
-0.0199852
-0.0234244
-0.0268378
-0.0302295
-0.0336026
-0.0369595
-0.0403019
-0.0436315
-0.0469493
-0.0502564
-0.0535536
-0.0568417
-0.0601213
-0.0633931
-0.0666577
-0.0699156
-0.0731675
-0.0764139
-0.0796553
-0.0828922
-0.0861252
-0.0893548
-0.0925814
-0.0958055
-0.0990275
-0.102248
-0.105467
-0.108686
0.21877
0.21513
0.211491
0.207857
0.204232
0.200622
0.19704
0.193508
0.190043
0.186656
0.18335
0.180131
0.177019
0.174044
0.171227
0.168592
0.166153
0.163914
0.161877
0.160038
0.158381
0.156893
0.155556
0.154354
0.153273
0.152297
0.151411
0.150601
0.149857
0.149165
0.148518
0.147906
0.14732
0.146753
0.146197
0.145646
0.145093
0.144531
0.143956
0.143363
0.142749
0.142107
0.141432
0.14072
0.139954
0.139123
0.138207
0.137187
0.136049
0.134784
0.133383
0.131845
0.130166
0.128346
0.126383
0.124283
0.122057
0.119712
0.117252
0.114685
0.112015
0.109238
0.106343
0.103317
0.100152
0.0968419
0.0933829
0.0897707
0.086002
0.0820735
0.077987
0.0737401
0.0693284
0.0647502
0.0600053
0.0551093
0.0500905
0.0449786
0.0398099
0.0346272
0.0294866
0.0244387
0.0195318
0.0148203
0.0103709
0.00615436
0.00212957
-0.001745
-0.00550389
-0.0091734
-0.0127729
-0.0163167
-0.0198158
-0.0232785
-0.0267113
-0.0301192
-0.033506
-0.0368746
-0.0402273
-0.0435658
-0.0468916
-0.0502057
-0.0535092
-0.0568029
-0.0600875
-0.0633638
-0.0666323
-0.0698938
-0.0731488
-0.0763979
-0.0796418
-0.0828809
-0.0861157
-0.089347
-0.0925751
-0.0958005
-0.0990238
-0.102245
-0.105466
-0.108686
0.218744
0.21505
0.211361
0.207681
0.20402
0.200383
0.196782
0.193235
0.189757
0.186364
0.183072
0.179882
0.176807
0.173886
0.171143
0.168592
0.166239
0.164088
0.162137
0.160378
0.158796
0.157375
0.156098
0.154949
0.153915
0.152983
0.152139
0.151372
0.150668
0.150019
0.149415
0.148849
0.148312
0.147798
0.147296
0.146801
0.146305
0.145803
0.145287
0.144753
0.144199
0.143616
0.143
0.142345
0.14163
0.140842
0.139957
0.138956
0.137825
0.136553
0.135135
0.133571
0.131857
0.129992
0.127976
0.125813
0.123511
0.12108
0.118527
0.115864
0.113092
0.110208
0.107208
0.104081
0.100819
0.0974134
0.0938613
0.0901614
0.0863129
0.0823156
0.078172
0.0738814
0.0694443
0.0648582
0.0601241
0.0552562
0.0502756
0.0452133
0.0401026
0.034978
0.029884
0.0248624
0.0199575
0.0152383
0.0107627
0.00651466
0.00245726
-0.0014501
-0.00524102
-0.00894062
-0.0125673
-0.0161352
-0.0196552
-0.023136
-0.0265845
-0.0300062
-0.0334051
-0.0367847
-0.0401472
-0.0434946
-0.0468284
-0.0501499
-0.05346
-0.0567597
-0.0600497
-0.0633309
-0.0666038
-0.0698692
-0.0731277
-0.0763799
-0.0796264
-0.0828679
-0.086105
-0.0893381
-0.0925679
-0.0957949
-0.0990196
-0.102242
-0.105464
-0.108685
0.218719
0.214978
0.211245
0.20753
0.203843
0.200185
0.196569
0.193018
0.189548
0.186158
0.182869
0.17971
0.176694
0.173846
0.171185
0.168715
0.166446
0.164379
0.162508
0.16082
0.159302
0.15794
0.156718
0.155619
0.154631
0.153742
0.152938
0.152213
0.151549
0.150941
0.15038
0.149859
0.14937
0.148907
0.148458
0.148021
0.147583
0.14714
0.146685
0.146213
0.145719
0.145197
0.144641
0.144042
0.143376
0.14263
0.141777
0.140799
0.139679
0.13841
0.136985
0.135408
0.133674
0.131777
0.129718
0.127496
0.125124
0.122615
0.119978
0.117222
0.114349
0.111354
0.108233
0.104979
0.10159
0.0980668
0.0944059
0.0906066
0.0866679
0.0825906
0.0783769
0.0740278
0.0695469
0.0649343
0.0601927
0.0553361
0.0503813
0.0453507
0.0402728
0.035184
0.0301267
0.0251264
0.0202152
0.0154867
0.0109879
0.00672679
0.00266313
-0.00124999
-0.00504887
-0.00875866
-0.012397
-0.0159769
-0.0195089
-0.0230013
-0.026461
-0.0298933
-0.0333023
-0.0366914
-0.040063
-0.0434189
-0.0467606
-0.0500895
-0.0534065
-0.0567124
-0.0600082
-0.0632946
-0.0665722
-0.0698419
-0.0731042
-0.0763598
-0.0796093
-0.0828535
-0.0860929
-0.0893282
-0.0925599
-0.0957885
-0.0990148
-0.102239
-0.105462
-0.108684
0.218699
0.214918
0.211147
0.207402
0.203701
0.200045
0.196435
0.192886
0.189425
0.186063
0.182807
0.179689
0.176734
0.17395
0.171359
0.168968
0.166776
0.164782
0.16298
0.161359
0.159905
0.158599
0.157428
0.156377
0.155433
0.154586
0.153822
0.153135
0.152508
0.151939
0.151416
0.150937
0.150492
0.150077
0.149679
0.149295
0.148913
0.148527
0.14813
0.147719
0.147286
0.146823
0.146324
0.145777
0.145158
0.144451
0.143634
0.142682
0.14158
0.140321
0.138901
0.137325
0.135579
0.133656
0.131557
0.129284
0.126851
0.124272
0.121557
0.118717
0.115751
0.112648
0.109405
0.106014
0.102478
0.0988068
0.0950091
0.091092
0.0870525
0.0828854
0.0785906
0.0741712
0.0696316
0.0649745
0.0602057
0.0553387
0.0503895
0.045375
0.0403188
0.0352502
0.0302014
0.0252104
0.0203224
0.015638
0.0110814
0.00680517
0.00275114
-0.00114634
-0.00493173
-0.00863266
-0.0122667
-0.0158462
-0.0193807
-0.0228777
-0.0263434
-0.0297827
-0.0331994
-0.0365964
-0.0399759
-0.0433397
-0.0466891
-0.0500253
-0.0533492
-0.0566616
-0.0599634
-0.0632553
-0.0665379
-0.0698121
-0.0730785
-0.0763377
-0.0795906
-0.0828377
-0.0860797
-0.0893172
-0.092551
-0.0957816
-0.0990095
-0.102236
-0.10546
-0.108684
0.218686
0.214881
0.211091
0.207329
0.203615
0.199965
0.196379
0.192858
0.189419
0.186088
0.182877
0.179809
0.176911
0.1742
0.171681
0.169364
0.167246
0.165326
0.163597
0.162039
0.160639
0.159385
0.158261
0.157253
0.156352
0.155543
0.154816
0.154162
0.153567
0.15303
0.152541
0.152096
0.151687
0.151312
0.150958
0.15062
0.150287
0.149951
0.149608
0.149252
0.148874
0.148465
0.148015
0.147515
0.146937
0.146267
0.145483
0.14456
0.143483
0.142245
0.140842
0.139269
0.137515
0.135575
0.133449
0.131137
0.128652
0.12601
0.123224
0.120302
0.117236
0.11402
0.11065
0.107118
0.103439
0.0996242
0.0956819
0.0916213
0.087453
0.0831799
0.0787954
0.0742968
0.0696884
0.0649757
0.060167
0.0552732
0.0503089
0.04529
0.040238
0.0351766
0.0301246
0.02513
0.0203026
0.0155915
0.0110699
0.00675373
0.00272032
-0.00114212
-0.00489319
-0.00856605
-0.0121797
-0.0157459
-0.019273
-0.0227673
-0.0262337
-0.0296762
-0.0330978
-0.0365009
-0.0398872
-0.0432581
-0.0466147
-0.049958
-0.0532888
-0.0566077
-0.0599157
-0.0632132
-0.0665011
-0.06978
-0.0730507
-0.0763139
-0.0795702
-0.0828205
-0.0860653
-0.0893054
-0.0925414
-0.095774
-0.0990038
-0.102232
-0.105458
-0.108683
0.218687
0.214884
0.211099
0.207342
0.203632
0.199989
0.196426
0.19294
0.189541
0.186252
0.183094
0.18009
0.177262
0.174626
0.172187
0.169947
0.1679
0.166044
0.164375
0.16288
0.161542
0.160343
0.159267
0.158301
0.157437
0.156661
0.155964
0.155335
0.154765
0.15425
0.153782
0.153359
0.152976
0.152628
0.152304
0.152
0.151702
0.151404
0.151104
0.15079
0.150455
0.150088
0.149678
0.149211
0.148665
0.148027
0.147273
0.146377
0.145327
0.144112
0.142725
0.14116
0.139407
0.137466
0.135327
0.132988
0.130462
0.127765
0.124915
0.121914
0.118752
0.115423
0.111921
0.108244
0.104416
0.100451
0.0963582
0.0921535
0.0878489
0.083452
0.0789621
0.0743739
0.0696871
0.0649072
0.0600445
0.055112
0.0501234
0.0450929
0.0400351
0.0349693
0.0299164
0.0249179
0.0200392
0.0153412
0.0107603
0.00652139
0.00254958
-0.00124812
-0.00493864
-0.00856137
-0.0121371
-0.0156768
-0.0191867
-0.0226711
-0.026133
-0.0295749
-0.0329987
-0.036406
-0.0397977
-0.0431749
-0.0465382
-0.0498883
-0.0532258
-0.0565513
-0.0598654
-0.0631688
-0.066462
-0.0697459
-0.0730212
-0.0762884
-0.0795485
-0.082802
-0.0860498
-0.0892926
-0.092531
-0.0957658
-0.0989976
-0.102227
-0.105455
-0.108682
0.218704
0.214936
0.211186
0.207466
0.203791
0.20018
0.196648
0.193204
0.189856
0.186622
0.183529
0.1806
0.177849
0.175287
0.172918
0.170748
0.168775
0.166992
0.165394
0.163966
0.162688
0.161544
0.160516
0.159591
0.15876
0.158013
0.157336
0.15672
0.15616
0.155651
0.155188
0.15477
0.154391
0.15405
0.153738
0.153446
0.153164
0.152886
0.152607
0.152316
0.152004
0.151659
0.15127
0.150821
0.150295
0.149674
0.148935
0.148058
0.147027
0.145829
0.144458
0.142907
0.14117
0.139238
0.137096
0.13474
0.132184
0.129447
0.126546
0.123476
0.120224
0.116783
0.113149
0.109331
0.105359
0.101243
0.0970007
0.0926472
0.0882001
0.0836741
0.0790715
0.0743902
0.0696266
0.0647811
0.0598597
0.0548733
0.0498383
0.0447743
0.039696
0.0346208
0.0295624
0.0245455
0.0196075
0.014799
0.0102441
0.00607376
0.00220518
-0.00148174
-0.00507417
-0.00861933
-0.012138
-0.0156378
-0.0191212
-0.0225889
-0.0260416
-0.0294795
-0.0329031
-0.0363127
-0.0397086
-0.0430911
-0.0464604
-0.0498169
-0.0531609
-0.0564928
-0.0598131
-0.0631223
-0.0664211
-0.0697101
-0.07299
-0.0762615
-0.0795254
-0.0827825
-0.0860334
-0.089279
-0.0925199
-0.0957571
-0.098991
-0.102223
-0.105452
-0.108681
0.218745
0.215057
0.211385
0.207745
0.204147
0.200606
0.197136
0.193753
0.19047
0.187309
0.184288
0.181432
0.178757
0.176274
0.173985
0.171889
0.169986
0.168276
0.166754
0.165399
0.164183
0.163093
0.162112
0.161226
0.160424
0.159694
0.159025
0.158407
0.157836
0.15731
0.156827
0.156387
0.155987
0.155625
0.155295
0.154986
0.154691
0.154403
0.154116
0.153817
0.153499
0.153149
0.152754
0.152299
0.151767
0.151139
0.150396
0.149519
0.148493
0.147305
0.145947
0.144411
0.142687
0.140764
0.138624
0.136268
0.133707
0.130955
0.128021
0.124894
0.121562
0.118021
0.114267
0.110318
0.106199
0.101931
0.0975346
0.0930303
0.0884422
0.0837875
0.0790726
0.0742972
0.0694566
0.0645464
0.0595681
0.0545277
0.0494417
0.0443345
0.039225
0.0341271
0.0290453
0.0239826
0.0189573
0.0140123
0.00936884
0.00531131
0.00163949
-0.00185761
-0.00529934
-0.00873481
-0.0121771
-0.015625
-0.019074
-0.0225198
-0.0259593
-0.0293903
-0.0328114
-0.0362217
-0.0396206
-0.0430075
-0.0463822
-0.0497446
-0.0530948
-0.0564329
-0.0597593
-0.0630744
-0.0663787
-0.0696728
-0.0729575
-0.0762334
-0.0795013
-0.0827619
-0.0860161
-0.0892646
-0.0925083
-0.0957478
-0.0989841
-0.102218
-0.10545
-0.10868
0.21882
0.215283
0.211756
0.208248
0.204771
0.201341
0.197977
0.194691
0.191498
0.188424
0.185488
0.182715
0.180122
0.177719
0.17551
0.173495
0.171674
0.170043
0.168594
0.16731
0.166162
0.165133
0.164201
0.16335
0.162567
0.161842
0.161161
0.160517
0.159907
0.159334
0.158798
0.1583
0.157842
0.157421
0.157032
0.156668
0.156319
0.155981
0.155644
0.155298
0.154934
0.154539
0.154098
0.153598
0.153023
0.152356
0.151579
0.150676
0.149631
0.148434
0.147074
0.145539
0.143817
0.141895
0.139767
0.137433
0.134898
0.132164
0.12922
0.126053
0.12266
0.119037
0.115182
0.111112
0.106854
0.102434
0.0978813
0.0932285
0.0885042
0.0837249
0.0789031
0.074041
0.0691294
0.0641553
0.0591177
0.0540223
0.048888
0.0437419
0.0385995
0.0334701
0.0283479
0.0232117
0.0180434
0.0128227
0.00785935
0.00410433
0.00082651
-0.00236271
-0.0055942
-0.00889146
-0.0122432
-0.0156316
-0.0190414
-0.0224618
-0.0258854
-0.0293074
-0.0327243
-0.0361339
-0.0395346
-0.042925
-0.0463044
-0.0496722
-0.0530281
-0.0563722
-0.0597045
-0.0630253
-0.0663352
-0.0696345
-0.072924
-0.0762043
-0.0794762
-0.0827406
-0.0859981
-0.0892497
-0.0924961
-0.0957382
-0.0989768
-0.102213
-0.105447
-0.108679
0.218952
0.215668
0.212371
0.209071
0.205787
0.202534
0.199325
0.196174
0.193099
0.190134
0.187298
0.184623
0.182125
0.179814
0.177693
0.175761
0.174017
0.172467
0.171102
0.169899
0.168827
0.167857
0.16697
0.166145
0.165367
0.164628
0.163912
0.163211
0.162527
0.161864
0.16123
0.160628
0.160064
0.159536
0.159039
0.158566
0.158112
0.157669
0.157229
0.156783
0.156318
0.155823
0.155284
0.154688
0.154021
0.153268
0.152414
0.151442
0.150341
0.149099
0.147703
0.146141
0.144403
0.142478
0.140364
0.138058
0.135562
0.132867
0.129954
0.126797
0.123381
0.119703
0.115773
0.111607
0.10723
0.102674
0.0979788
0.0931838
0.0883248
0.0834257
0.0785036
0.0735627
0.0685879
0.0635555
0.0584609
0.0533075
0.0481158
0.042921
0.0377381
0.032569
0.027399
0.0221815
0.0168185
0.0111126
0.00508347
0.00235951
-0.000160654
-0.0029187
-0.00590637
-0.00905876
-0.0123196
-0.0156485
-0.0190188
-0.0224128
-0.0258193
-0.0292308
-0.0326423
-0.0360501
-0.0394514
-0.0428445
-0.0462278
-0.0496004
-0.0529617
-0.0563114
-0.0596494
-0.0629758
-0.066291
-0.0695954
-0.0728897
-0.0761745
-0.0794505
-0.0827186
-0.0859796
-0.0892343
-0.0924835
-0.0957282
-0.0989692
-0.102207
-0.105443
-0.108678
0.219152
0.216259
0.213329
0.210359
0.207366
0.204366
0.201375
0.198411
0.195497
0.192671
0.189959
0.187397
0.185002
0.182789
0.180763
0.17892
0.177266
0.175808
0.174536
0.173413
0.172414
0.171496
0.170647
0.169838
0.169047
0.168271
0.167491
0.166698
0.165892
0.165085
0.164295
0.163532
0.162802
0.162106
0.161438
0.160793
0.160167
0.159553
0.158944
0.158329
0.157697
0.157034
0.156329
0.15557
0.154744
0.153839
0.152842
0.151746
0.150538
0.149205
0.147735
0.146115
0.144337
0.142395
0.140283
0.137998
0.135539
0.132895
0.130042
0.12694
0.123551
0.119868
0.115907
0.111688
0.107233
0.102569
0.0977477
0.0928231
0.0878384
0.0828231
0.0777979
0.0727721
0.0677343
0.0626525
0.0575138
0.0523164
0.0470808
0.0418489
0.0366377
0.0314486
0.0262609
0.0210293
0.0155757
0.00918884
-0.000476106
0.000422022
-0.000982939
-0.00334928
-0.00615391
-0.00919917
-0.0123888
-0.0156677
-0.0190023
-0.0223711
-0.0257605
-0.0291609
-0.032566
-0.0359708
-0.039372
-0.0427668
-0.0461534
-0.0495302
-0.0528963
-0.0562511
-0.0595945
-0.0629262
-0.0662466
-0.0695561
-0.0728551
-0.0761442
-0.0794244
-0.0826962
-0.0859606
-0.0892185
-0.0924706
-0.095718
-0.0989615
-0.102202
-0.10544
-0.108677
0.219445
0.217124
0.214727
0.212236
0.209666
0.207031
0.204353
0.201652
0.19896
0.196318
0.193761
0.191336
0.189065
0.186963
0.185039
0.183295
0.181738
0.180373
0.179186
0.178136
0.177199
0.176331
0.175509
0.1747
0.173875
0.173033
0.172153
0.171218
0.17023
0.169217
0.168204
0.167212
0.166247
0.16531
0.164399
0.163508
0.162634
0.161773
0.160917
0.160055
0.159174
0.158261
0.157305
0.156296
0.155224
0.15408
0.152861
0.151557
0.150161
0.148662
0.147051
0.145318
0.143454
0.141451
0.139305
0.137013
0.134576
0.131989
0.129224
0.126226
0.122931
0.119315
0.115394
0.111186
0.106705
0.101976
0.0970644
0.092034
0.0869373
0.0818121
0.0766786
0.0715587
0.0664629
0.0613463
0.0561813
0.0509544
0.0456881
0.0404385
0.0352321
0.0300867
0.0249933
0.0199237
0.0147813
0.00936715
0.00377724
0.00136959
-0.000903245
-0.00345789
-0.00627716
-0.00929191
-0.0124426
-0.0156855
-0.0189904
-0.0223364
-0.025709
-0.0290981
-0.0324959
-0.0358971
-0.0392971
-0.0426929
-0.0460818
-0.0494622
-0.0528325
-0.0561921
-0.0595404
-0.0628772
-0.0662026
-0.0695168
-0.0728204
-0.0761139
-0.079398
-0.0826736
-0.0859415
-0.0892025
-0.0924576
-0.0957076
-0.0989536
-0.102196
-0.105437
-0.108676
0.219858
0.218342
0.2167
0.214886
0.212907
0.210785
0.208541
0.206203
0.203814
0.20142
0.199063
0.196803
0.194672
0.192693
0.190884
0.189248
0.187789
0.186507
0.185387
0.184403
0.183515
0.182681
0.181867
0.181035
0.180151
0.179207
0.178173
0.177033
0.175798
0.174511
0.173207
0.171911
0.170636
0.169384
0.168151
0.166934
0.16573
0.164537
0.163347
0.162148
0.160926
0.159669
0.158365
0.157005
0.155582
0.154093
0.152536
0.15091
0.149216
0.14745
0.145604
0.143671
0.141641
0.139506
0.137264
0.134912
0.13246
0.129913
0.127248
0.1244
0.121265
0.117789
0.113989
0.109874
0.105451
0.100726
0.0957606
0.0906391
0.0854456
0.0802213
0.0749868
0.0697751
0.0646248
0.0594925
0.054333
0.0491001
0.0438302
0.0385976
0.0334507
0.0284327
0.0235437
0.0187684
0.0141003
0.00953713
0.00529065
0.00211896
-0.00067032
-0.00344907
-0.00633965
-0.00935901
-0.0124892
-0.0157053
-0.0189846
-0.0223094
-0.0256656
-0.0290428
-0.0324329
-0.0358295
-0.0392276
-0.0426234
-0.046014
-0.0493972
-0.0527712
-0.0561349
-0.0594877
-0.0628292
-0.0661592
-0.0694781
-0.0727861
-0.0760838
-0.0793718
-0.0826511
-0.0859223
-0.0891864
-0.0924444
-0.0956972
-0.0989456
-0.102191
-0.105434
-0.108675
0.220429
0.220027
0.219421
0.218534
0.217362
0.215933
0.214278
0.212427
0.210435
0.20836
0.206258
0.204196
0.202227
0.200388
0.198699
0.197166
0.195798
0.194583
0.193511
0.192569
0.191706
0.190879
0.190045
0.189163
0.188186
0.187086
0.185832
0.184424
0.182882
0.18126
0.179599
0.177931
0.176272
0.174627
0.172992
0.171365
0.169746
0.168133
0.166518
0.164889
0.163232
0.161531
0.159774
0.15795
0.156055
0.154088
0.152053
0.14996
0.14782
0.145638
0.143413
0.141144
0.138833
0.13646
0.134026
0.131528
0.128985
0.126434
0.123857
0.121186
0.118271
0.115005
0.111403
0.107468
0.103193
0.0985469
0.0935796
0.0883886
0.0831136
0.0778205
0.0725148
0.0672132
0.0620034
0.0568878
0.0518023
0.0466248
0.0414156
0.0362555
0.031217
0.0263776
0.021765
0.0173574
0.0131655
0.0091807
0.00549438
0.00228816
-0.000638574
-0.00350356
-0.00642259
-0.00943545
-0.0125434
-0.015733
-0.0189875
-0.0222912
-0.0256309
-0.0289958
-0.0323774
-0.0357686
-0.0391639
-0.0425591
-0.0459506
-0.0493358
-0.0527128
-0.0560802
-0.059437
-0.0627828
-0.0661171
-0.0694403
-0.0727524
-0.0760541
-0.079346
-0.0826287
-0.0859033
-0.0891705
-0.0924313
-0.0956867
-0.0989377
-0.102185
-0.10543
-0.108674
0.221197
0.222294
0.223082
0.223438
0.22334
0.222828
0.221942
0.220721
0.219235
0.217554
0.215759
0.213935
0.21215
0.210458
0.208889
0.207451
0.206153
0.20498
0.203927
0.202993
0.202114
0.201249
0.200354
0.199382
0.19826
0.196939
0.195407
0.193677
0.191777
0.189771
0.187703
0.185603
0.183493
0.181383
0.179269
0.177154
0.175039
0.172924
0.170802
0.168659
0.166479
0.164244
0.161936
0.159539
0.157044
0.154451
0.151775
0.14903
0.146243
0.143442
0.140635
0.137831
0.135056
0.132287
0.129517
0.126739
0.123985
0.121338
0.118809
0.116333
0.113693
0.110694
0.10735
0.103667
0.0996081
0.0950937
0.0901518
0.0848833
0.079515
0.0741783
0.0688759
0.0635529
0.0583126
0.0532589
0.0483404
0.0433096
0.038233
0.0332193
0.0283428
0.0237055
0.0193817
0.0153393
0.0116011
0.00811711
0.00489027
0.00192156
-0.000889471
-0.0036921
-0.00656703
-0.00954144
-0.0126142
-0.0157725
-0.0190002
-0.0222822
-0.0256049
-0.0289571
-0.0323295
-0.0357148
-0.0391066
-0.0425003
-0.045892
-0.0492787
-0.052658
-0.0560285
-0.0593888
-0.0627384
-0.0660767
-0.0694038
-0.0727199
-0.0760253
-0.0793208
-0.0826069
-0.0858846
-0.0891548
-0.0924184
-0.0956764
-0.0989298
-0.10218
-0.105427
-0.108673
0.222202
0.225262
0.227875
0.229852
0.231143
0.231805
0.231892
0.231458
0.230592
0.229387
0.227953
0.226398
0.224815
0.223272
0.221815
0.220458
0.219195
0.218025
0.216948
0.215967
0.215016
0.214052
0.213036
0.211912
0.210584
0.208986
0.207131
0.205043
0.202752
0.200332
0.197826
0.195259
0.192652
0.19002
0.187366
0.184697
0.18202
0.179338
0.176646
0.173928
0.171164
0.16833
0.165397
0.162338
0.159129
0.15576
0.15225
0.148639
0.144966
0.141275
0.137616
0.134006
0.130498
0.127092
0.123782
0.120556
0.117438
0.114546
0.111942
0.109594
0.10724
0.104568
0.101539
0.0981747
0.0943852
0.0900366
0.0851397
0.0797964
0.0743123
0.068931
0.0636976
0.0584497
0.0532546
0.0482975
0.0436242
0.0388756
0.0340412
0.0292672
0.0246282
0.0202163
0.0161789
0.0124974
0.0092374
0.00631082
0.00366815
0.00113512
-0.0013687
-0.00399204
-0.00676338
-0.00967211
-0.0126984
-0.0158212
-0.0190211
-0.0222811
-0.0255868
-0.0289261
-0.0322892
-0.035668
-0.0390558
-0.0424474
-0.0458386
-0.0492261
-0.0526072
-0.0559802
-0.0593435
-0.0626964
-0.0660383
-0.069369
-0.0726887
-0.0759976
-0.0792964
-0.0825858
-0.0858666
-0.0891396
-0.0924058
-0.0956663
-0.0989222
-0.102174
-0.105424
-0.108672
0.223479
0.22903
0.233959
0.237983
0.24102
0.243138
0.24442
0.24494
0.244816
0.244166
0.243136
0.241867
0.240487
0.239081
0.23772
0.236418
0.235144
0.233926
0.232766
0.231663
0.230575
0.229449
0.228227
0.226868
0.22527
0.223351
0.221146
0.218691
0.216005
0.213171
0.210229
0.207191
0.20407
0.200886
0.197654
0.194389
0.191108
0.187822
0.184528
0.181209
0.177841
0.174388
0.170805
0.167038
0.163035
0.158757
0.154226
0.149496
0.14465
0.139773
0.134916
0.130156
0.125567
0.121193
0.117056
0.113145
0.109475
0.106149
0.103269
0.100886
0.0987309
0.0963842
0.0936662
0.0906384
0.0871629
0.0830178
0.0781808
0.0727904
0.067196
0.061797
0.0566996
0.0516067
0.0465835
0.0417993
0.0373992
0.0329986
0.0285419
0.0241535
0.0198587
0.0157281
0.0120499
0.00879338
0.00609766
0.00382479
0.00198012
9.48273e-05
-0.00191904
-0.0043063
-0.00695988
-0.00980065
-0.0127817
-0.0158713
-0.0190455
-0.0222852
-0.0255749
-0.0289019
-0.0322557
-0.0356279
-0.0390113
-0.0424005
-0.0457907
-0.0491784
-0.0525608
-0.0559357
-0.0593015
-0.0626573
-0.0660023
-0.0693363
-0.0726592
-0.0759714
-0.0792733
-0.0825656
-0.0858492
-0.0891249
-0.0923937
-0.0956566
-0.0989147
-0.102169
-0.105421
-0.108671
0.22503
0.233618
0.241381
0.247913
0.253073
0.256945
0.259645
0.261285
0.26201
0.261982
0.261387
0.260416
0.25924
0.257966
0.256671
0.255376
0.254043
0.252721
0.251409
0.250113
0.248802
0.247427
0.245897
0.244219
0.242292
0.240026
0.237467
0.234664
0.231613
0.228399
0.225058
0.221585
0.217971
0.214236
0.210412
0.206536
0.202638
0.198743
0.194853
0.190955
0.187023
0.183005
0.178828
0.174393
0.169585
0.164314
0.15859
0.152492
0.146156
0.13972
0.133316
0.127013
0.120935
0.115178
0.109822
0.104893
0.100419
0.0964326
0.0930098
0.0903497
0.0882518
0.0861765
0.0837416
0.0810005
0.0778085
0.0738612
0.0690918
0.0637271
0.0581563
0.0528194
0.0478915
0.042956
0.038162
0.0336384
0.0296141
0.0256631
0.0216677
0.0178619
0.0140459
0.0103207
0.007197
0.00443971
0.00235439
0.000527382
9.49002e-06
-0.00085213
-0.00223302
-0.00448086
-0.00708472
-0.00989194
-0.0128458
-0.0159127
-0.0190676
-0.022291
-0.0255671
-0.028883
-0.0322282
-0.035594
-0.038973
-0.0423593
-0.0457482
-0.0491357
-0.0525189
-0.0558953
-0.0592632
-0.0626214
-0.0659691
-0.0693059
-0.0726317
-0.0759468
-0.0792515
-0.0825466
-0.0858328
-0.089111
-0.0923821
-0.0956473
-0.0989076
-0.102164
-0.105418
-0.10867
0.226827
0.238935
0.249996
0.259464
0.267108
0.273013
0.277339
0.280244
0.281911
0.282553
0.282418
0.28176
0.2808
0.279672
0.278439
0.277123
0.275698
0.274228
0.272709
0.271148
0.269496
0.267782
0.265856
0.26378
0.261502
0.258879
0.255974
0.252856
0.249497
0.245963
0.24228
0.238434