/*--------------------------------*- C++ -*----------------------------------*\
  =========                 |
  \\      /  F ield         | OpenFOAM: The Open Source CFD Toolbox
   \\    /   O peration     | Website:  https://openfoam.org
    \\  /    A nd           | Version:  6
     \\/     M anipulation  |
\*---------------------------------------------------------------------------*/
FoamFile
{
    version     2.0;
    format      ascii;
    class       volScalarField;
    location    "3900";
    object      T;
}
// * * * * * * * * * * * * * * * * * * * * * * * * * * * * * * * * * * * * * //

dimensions      [0 0 0 1 0 0 0];

internalField   nonuniform List<scalar> 
4800
(
552.49
552.37
552.249
552.128
552.006
551.884
551.762
551.641
551.52
551.401
551.284
551.168
551.054
550.943
550.835
550.729
550.628
550.53
550.438
550.351
550.272
550.2
550.136
550.078
550.027
549.982
549.941
549.903
549.869
549.836
549.805
549.775
549.746
549.717
549.688
549.659
549.629
549.6
549.569
549.538
549.506
549.473
549.44
549.405
549.368
549.331
549.292
549.251
549.208
549.163
549.115
549.065
549.013
548.957
548.898
548.836
548.77
548.699
548.625
548.546
548.463
548.374
548.282
548.184
548.081
547.974
547.86
547.74
547.614
547.481
547.339
547.189
547.031
546.863
546.685
546.496
546.294
546.079
545.847
545.596
545.318
544.993
544.549
544.643
544.627
544.563
544.475
544.374
544.265
544.152
544.035
543.917
543.798
543.679
543.559
543.439
543.319
543.199
543.079
542.96
542.841
542.721
542.603
542.484
542.366
542.248
542.13
542.012
541.894
541.777
541.66
541.543
541.426
541.309
541.192
541.075
540.958
540.842
540.725
540.608
552.49
552.369
552.247
552.125
552.003
551.88
551.758
551.637
551.516
551.397
551.279
551.162
551.048
550.937
550.828
550.723
550.621
550.524
550.433
550.347
550.269
550.199
550.136
550.08
550.03
549.985
549.944
549.907
549.873
549.841
549.81
549.78
549.752
549.723
549.694
549.666
549.637
549.607
549.578
549.547
549.515
549.483
549.45
549.415
549.379
549.342
549.303
549.263
549.22
549.175
549.127
549.077
549.024
548.968
548.909
548.846
548.78
548.709
548.634
548.554
548.47
548.382
548.289
548.191
548.087
547.979
547.865
547.744
547.617
547.483
547.341
547.191
547.032
546.864
546.686
546.498
546.298
546.085
545.858
545.616
545.359
545.093
544.849
544.755
544.676
544.588
544.489
544.383
544.271
544.156
544.038
543.92
543.8
543.68
543.56
543.44
543.319
543.199
543.08
542.96
542.841
542.722
542.603
542.484
542.366
542.248
542.13
542.012
541.895
541.777
541.66
541.543
541.426
541.309
541.192
541.075
540.958
540.842
540.725
540.608
552.489
552.367
552.244
552.121
551.997
551.874
551.751
551.629
551.508
551.388
551.269
551.153
551.038
550.927
550.818
550.713
550.612
550.516
550.426
550.342
550.266
550.198
550.137
550.083
550.035
549.991
549.952
549.915
549.882
549.85
549.82
549.791
549.763
549.735
549.708
549.68
549.652
549.623
549.594
549.564
549.534
549.502
549.47
549.436
549.401
549.364
549.326
549.286
549.243
549.198
549.151
549.1
549.047
548.99
548.93
548.867
548.799
548.727
548.651
548.57
548.486
548.396
548.302
548.203
548.099
547.989
547.874
547.752
547.624
547.488
547.345
547.194
547.035
546.867
546.69
546.503
546.306
546.097
545.878
545.649
545.416
545.191
544.998
544.855
544.737
544.625
544.513
544.398
544.282
544.163
544.044
543.924
543.803
543.682
543.562
543.441
543.321
543.201
543.081
542.961
542.842
542.722
542.603
542.485
542.366
542.248
542.13
542.012
541.895
541.777
541.66
541.543
541.426
541.309
541.192
541.075
540.958
540.842
540.725
540.608
552.488
552.364
552.239
552.115
551.99
551.865
551.741
551.618
551.496
551.376
551.257
551.14
551.025
550.914
550.806
550.701
550.601
550.506
550.419
550.338
550.266
550.2
550.142
550.09
550.043
550.001
549.963
549.928
549.895
549.865
549.836
549.808
549.78
549.754
549.727
549.7
549.673
549.646
549.618
549.589
549.56
549.53
549.498
549.466
549.431
549.396
549.358
549.319
549.276
549.232
549.184
549.133
549.079
549.021
548.96
548.894
548.825
548.751
548.673
548.591
548.505
548.414
548.319
548.218
548.113
548.002
547.885
547.762
547.632
547.496
547.352
547.2
547.041
546.873
546.697
546.512
546.317
546.114
545.904
545.688
545.473
545.27
545.09
544.931
544.792
544.664
544.54
544.417
544.295
544.173
544.051
543.929
543.808
543.686
543.565
543.444
543.323
543.202
543.082
542.962
542.843
542.723
542.604
542.485
542.367
542.249
542.131
542.013
541.895
541.778
541.66
541.543
541.426
541.309
541.192
541.075
540.958
540.842
540.725
540.608
552.487
552.361
552.235
552.108
551.982
551.856
551.73
551.606
551.483
551.361
551.242
551.125
551.011
550.9
550.792
550.688
550.59
550.498
550.414
550.337
550.268
550.205
550.15
550.1
550.055
550.014
549.978
549.944
549.913
549.883
549.855
549.829
549.803
549.777
549.752
549.726
549.701
549.675
549.648
549.621
549.593
549.565
549.535
549.503
549.47
549.436
549.4
549.36
549.318
549.274
549.226
549.174
549.118
549.059
548.995
548.927
548.855
548.779
548.699
548.615
548.527
548.434
548.337
548.235
548.128
548.015
547.897
547.772
547.641
547.504
547.359
547.207
547.047
546.88
546.705
546.522
546.331
546.133
545.931
545.726
545.524
545.331
545.154
544.989
544.839
544.699
544.566
544.437
544.31
544.185
544.06
543.936
543.813
543.69
543.568
543.447
543.325
543.204
543.084
542.964
542.844
542.724
542.605
542.486
542.368
542.249
542.131
542.013
541.895
541.778
541.66
541.543
541.426
541.309
541.192
541.075
540.958
540.842
540.725
540.608
552.486
552.358
552.23
552.102
551.973
551.846
551.719
551.593
551.469
551.347
551.227
551.11
550.996
550.885
550.779
550.677
550.582
550.493
550.412
550.339
550.273
550.214
550.16
550.113
550.07
550.031
549.996
549.963
549.934
549.906
549.879
549.854
549.829
549.805
549.781
549.758
549.734
549.709
549.685
549.659
549.633
549.606
549.578
549.548
549.517
549.483
549.448
549.41
549.368
549.323
549.274
549.221
549.164
549.102
549.036
548.965
548.89
548.811
548.729
548.642
548.551
548.456
548.357
548.253
548.144
548.029
547.909
547.783
547.65
547.511
547.366
547.213
547.054
546.887
546.713
546.532
546.344
546.152
545.956
545.76
545.566
545.379
545.202
545.032
544.876
544.73
544.59
544.456
544.325
544.196
544.069
543.944
543.819
543.695
543.572
543.45
543.328
543.207
543.086
542.966
542.845
542.726
542.606
542.487
542.369
542.25
542.132
542.014
541.896
541.778
541.661
541.543
541.426
541.309
541.192
541.075
540.959
540.842
540.725
540.608
552.485
552.355
552.225
552.095
551.965
551.835
551.707
551.58
551.455
551.332
551.212
551.095
550.981
550.872
550.768
550.669
550.577
550.492
550.415
550.345
550.282
550.225
550.174
550.129
550.088
550.051
550.017
549.986
549.958
549.931
549.906
549.882
549.859
549.837
549.815
549.793
549.771
549.749
549.726
549.702
549.678
549.653
549.626
549.598
549.569
549.537
549.503
549.465
549.424
549.378
549.328
549.274
549.214
549.15
549.082
549.008
548.93
548.848
548.763
548.673
548.58
548.482
548.38
548.273
548.161
548.044
547.922
547.794
547.659
547.519
547.372
547.219
547.059
546.893
546.72
546.541
546.357
546.168
545.978
545.787
545.598
545.413
545.235
545.065
544.905
544.754
544.611
544.473
544.339
544.207
544.078
543.951
543.825
543.701
543.577
543.454
543.331
543.21
543.088
542.968
542.847
542.727
542.608
542.489
542.37
542.251
542.133
542.014
541.897
541.779
541.661
541.544
541.427
541.309
541.192
541.076
540.959
540.842
540.725
540.608
552.484
552.352
552.22
552.088
551.957
551.826
551.696
551.568
551.442
551.319
551.199
551.083
550.97
550.862
550.76
550.664
550.576
550.494
550.421
550.354
550.294
550.24
550.191
550.148
550.109
550.073
550.041
550.012
549.985
549.96
549.936
549.914
549.893
549.872
549.852
549.832
549.812
549.792
549.771
549.749
549.727
549.704
549.679
549.653
549.626
549.596
549.562
549.525
549.484
549.438
549.387
549.332
549.271
549.205
549.133
549.057
548.977
548.892
548.802
548.709
548.612
548.512
548.407
548.297
548.182
548.062
547.937
547.806
547.669
547.527
547.378
547.224
547.064
546.898
546.726
546.549
546.367
546.181
545.994
545.806
545.619
545.436
545.258
545.088
544.926
544.773
544.627
544.487
544.35
544.217
544.087
543.958
543.831
543.706
543.581
543.458
543.335
543.213
543.091
542.97
542.849
542.729
542.609
542.49
542.371
542.252
542.134
542.015
541.897
541.779
541.662
541.544
541.427
541.31
541.193
541.076
540.959
540.842
540.725
540.608
552.483
552.349
552.215
552.082
551.949
551.817
551.687
551.558
551.432
551.309
551.189
551.074
550.962
550.856
550.757
550.664
550.579
550.501
550.43
550.366
550.309
550.257
550.211
550.169
550.132
550.098
550.068
550.04
550.014
549.991
549.969
549.948
549.929
549.91
549.892
549.874
549.856
549.838
549.819
549.8
549.78
549.758
549.736
549.712
549.686
549.658
549.626
549.589
549.548
549.502
549.451
549.394
549.332
549.264
549.191
549.113
549.029
548.941
548.849
548.752
548.651
548.547
548.438
548.325
548.206
548.083
547.954
547.82
547.68
547.535
547.385
547.229
547.068
546.902
546.73
546.554
546.373
546.19
546.004
545.819
545.634
545.452
545.274
545.103
544.94
544.786
544.639
544.497
544.36
544.226
544.094
543.965
543.837
543.711
543.586
543.462
543.339
543.216
543.094
542.973
542.852
542.731
542.611
542.492
542.372
542.253
542.135
542.016
541.898
541.78
541.662
541.545
541.427
541.31
541.193
541.076
540.959
540.842
540.725
540.608
552.482
552.346
552.211
552.076
551.943
551.81
551.679
551.55
551.424
551.301
551.182
551.067
550.958
550.855
550.758
550.669
550.586
550.511
550.444
550.382
550.327
550.278
550.234
550.194
550.158
550.126
550.097
550.07
550.046
550.024
550.004
549.985
549.967
549.95
549.934
549.918
549.902
549.886
549.87
549.853
549.835
549.816
549.796
549.774
549.75
549.723
549.692
549.656
549.616
549.569
549.518
549.461
549.398
549.329
549.254
549.174
549.088
548.997
548.901
548.801
548.697
548.588
548.475
548.357
548.234
548.106
547.974
547.836
547.693
547.545
547.392
547.235
547.072
546.905
546.733
546.557
546.377
546.195
546.011
545.826
545.643
545.461
545.283
545.112
544.949
544.794
544.647
544.505
544.367
544.232
544.1
543.971
543.843
543.716
543.59
543.466
543.342
543.219
543.097
542.975
542.854
542.733
542.613
542.493
542.374
542.255
542.136
542.017
541.899
541.781
541.663
541.545
541.428
541.31
541.193
541.076
540.959
540.842
540.725
540.608
552.481
552.344
552.208
552.072
551.938
551.805
551.674
551.545
551.42
551.298
551.18
551.067
550.96
550.859
550.765
550.678
550.598
550.526
550.461
550.402
550.349
550.302
550.259
550.221
550.187
550.156
550.129
550.104
550.081
550.06
550.041
550.024
550.008
549.993
549.978
549.964
549.951
549.937
549.922
549.907
549.892
549.875
549.857
549.837
549.814
549.789
549.759
549.724
549.684
549.639
549.587
549.53
549.467
549.397
549.321
549.238
549.15
549.057
548.958
548.855
548.748
548.635
548.517
548.395
548.266
548.133
547.995
547.853
547.707
547.556
547.4
547.24
547.075
546.906
546.733
546.557
546.377
546.196
546.012
545.828
545.645
545.464
545.287
545.118
544.952
544.797
544.65
544.508
544.371
544.237
544.105
543.975
543.847
543.72
543.595
543.47
543.346
543.223
543.1
542.978
542.857
542.736
542.615
542.495
542.375
542.256
542.137
542.018
541.9
541.782
541.664
541.546
541.428
541.311
541.194
541.076
540.959
540.842
540.725
540.608
552.481
552.343
552.206
552.069
551.934
551.802
551.672
551.544
551.42
551.299
551.182
551.071
550.966
550.868
550.776
550.692
550.616
550.546
550.483
550.427
550.376
550.33
550.29
550.253
550.221
550.191
550.165
550.141
550.12
550.1
550.082
550.066
550.051
550.038
550.025
550.013
550
549.988
549.976
549.963
549.949
549.934
549.918
549.9
549.879
549.854
549.826
549.792
549.753
549.708
549.657
549.6
549.537
549.466
549.389
549.305
549.215
549.12
549.018
548.913
548.801
548.685
548.562
548.434
548.301
548.163
548.02
547.872
547.721
547.566
547.407
547.244
547.077
546.906
546.732
546.554
546.374
546.192
546.009
545.826
545.643
545.462
545.287
545.128
544.952
544.795
544.649
544.509
544.373
544.239
544.108
543.979
543.851
543.724
543.599
543.474
543.35
543.226
543.103
542.981
542.859
542.738
542.617
542.497
542.377
542.258
542.138
542.019
541.901
541.782
541.664
541.546
541.429
541.311
541.194
541.077
540.96
540.842
540.725
540.608
552.481
552.343
552.206
552.07
551.935
551.803
551.674
551.547
551.424
551.305
551.19
551.081
550.979
550.883
550.795
550.714
550.639
550.572
550.512
550.457
550.409
550.365
550.326
550.291
550.26
550.232
550.207
550.184
550.163
550.144
550.127
550.112
550.098
550.085
550.074
550.063
550.052
550.041
550.03
550.019
550.006
549.993
549.978
549.961
549.941
549.918
549.891
549.858
549.82
549.776
549.726
549.669
549.605
549.535
549.457
549.372
549.281
549.183
549.08
548.971
548.856
548.735
548.608
548.475
548.336
548.192
548.044
547.892
547.735
547.576
547.413
547.247
547.077
546.904
546.727
546.548
546.368
546.185
546.002
545.818
545.635
545.454
545.277
545.107
544.941
544.787
544.642
544.505
544.371
544.239
544.11
543.981
543.854
543.728
543.602
543.477
543.353
543.23
543.107
542.984
542.862
542.741
542.62
542.499
542.379
542.259
542.14
542.021
541.902
541.783
541.665
541.547
541.429
541.312
541.194
541.077
540.96
540.843
540.726
540.609
552.482
552.345
552.209
552.074
551.941
551.81
551.682
551.557
551.436
551.318
551.206
551.1
551
550.907
550.821
550.743
550.671
550.607
550.549
550.497
550.451
550.409
550.372
550.338
550.308
550.281
550.256
550.234
550.214
550.195
550.179
550.163
550.15
550.137
550.126
550.115
550.105
550.095
550.085
550.074
550.063
550.05
550.036
550.019
550
549.978
549.951
549.919
549.882
549.838
549.788
549.732
549.669
549.599
549.521
549.436
549.343
549.244
549.139
549.027
548.909
548.784
548.653
548.514
548.37
548.221
548.067
547.909
547.748
547.584
547.417
547.247
547.075
546.899
546.72
546.54
546.357
546.173
545.989
545.805
545.622
545.44
545.261
545.087
544.922
544.77
544.63
544.496
544.366
544.237
544.11
543.983
543.857
543.731
543.606
543.481
543.357
543.233
543.11
542.987
542.865
542.743
542.622
542.501
542.381
542.261
542.141
542.022
541.903
541.784
541.666
541.548
541.43
541.312
541.195
541.077
540.96
540.843
540.726
540.609
552.483
552.349
552.216
552.084
551.954
551.826
551.7
551.577
551.458
551.344
551.234
551.13
551.033
550.943
550.86
550.784
550.715
550.653
550.598
550.549
550.505
550.465
550.43
550.398
550.369
550.342
550.318
550.296
550.275
550.256
550.238
550.222
550.208
550.194
550.182
550.171
550.16
550.15
550.139
550.128
550.117
550.104
550.09
550.073
550.054
550.031
550.004
549.972
549.935
549.891
549.842
549.786
549.724
549.654
549.576
549.491
549.398
549.298
549.192
549.078
548.958
548.829
548.693
548.55
548.4
548.246
548.086
547.923
547.756
547.588
547.417
547.244
547.068
546.89
546.71
546.527
546.343
546.157
545.972
545.787
545.603
545.42
545.237
545.058
544.89
544.743
544.609
544.483
544.358
544.233
544.108
543.983
543.858
543.733
543.609
543.484
543.36
543.236
543.113
542.99
542.868
542.746
542.624
542.503
542.383
542.263
542.143
542.023
541.904
541.785
541.667
541.549
541.431
541.313
541.195
541.078
540.96
540.843
540.726
540.609
552.486
552.358
552.23
552.103
551.977
551.853
551.731
551.611
551.496
551.384
551.278
551.177
551.083
550.996
550.916
550.843
550.777
550.718
550.665
550.619
550.577
550.54
550.506
550.475
550.447
550.42
550.396
550.372
550.35
550.329
550.31
550.292
550.275
550.26
550.246
550.232
550.219
550.207
550.195
550.182
550.169
550.154
550.138
550.12
550.099
550.075
550.046
550.014
549.976
549.932
549.883
549.827
549.764
549.695
549.617
549.533
549.441
549.342
549.235
549.12
548.997
548.866
548.726
548.578
548.424
548.264
548.098
547.93
547.758
547.585
547.41
547.234
547.056
546.876
546.693
546.508
546.322
546.136
545.949
545.763
545.578
545.391
545.204
545.015
544.835
544.699
544.58
544.464
544.347
544.227
544.106
543.983
543.859
543.735
543.611
543.487
543.363
543.24
543.116
542.993
542.871
542.749
542.627
542.506
542.385
542.264
542.144
542.025
541.905
541.786
541.668
541.549
541.431
541.313
541.196
541.078
540.96
540.843
540.726
540.609
552.491
552.372
552.252
552.133
552.014
551.896
551.78
551.665
551.554
551.446
551.344
551.247
551.156
551.072
550.995
550.925
550.862
550.806
550.756
550.713
550.674
550.639
550.607
550.577
550.549
550.522
550.496
550.47
550.446
550.421
550.398
550.376
550.356
550.337
550.319
550.301
550.285
550.268
550.252
550.236
550.219
550.201
550.181
550.16
550.135
550.108
550.077
550.041
550.001
549.956
549.905
549.848
549.785
549.715
549.639
549.555
549.465
549.367
549.261
549.147
549.023
548.889
548.747
548.596
548.437
548.272
548.102
547.928
547.752
547.574
547.396
547.216
547.036
546.854
546.669
546.482
546.294
546.106
545.918
545.731
545.543
545.354
545.159
544.952
544.735
544.636
544.544
544.444
544.336
544.221
544.103
543.982
543.86
543.737
543.614
543.49
543.366
543.243
543.119
542.996
542.874
542.751
542.629
542.508
542.387
542.266
542.146
542.026
541.907
541.787
541.669
541.55
541.432
541.314
541.196
541.078
540.961
540.843
540.726
540.609
552.498
552.393
552.287
552.18
552.071
551.963
551.854
551.747
551.641
551.539
551.44
551.348
551.261
551.181
551.107
551.04
550.98
550.927
550.881
550.841
550.804
550.771
550.74
550.711
550.682
550.654
550.626
550.597
550.568
550.539
550.51
550.482
550.456
550.43
550.406
550.382
550.359
550.337
550.315
550.292
550.269
550.245
550.219
550.192
550.161
550.128
550.092
550.052
550.008
549.96
549.906
549.847
549.783
549.712
549.635
549.553
549.463
549.367
549.264
549.151
549.028
548.895
548.751
548.598
548.437
548.268
548.093
547.914
547.734
547.552
547.37
547.187
547.005
546.821
546.634
546.446
546.256
546.067
545.878
545.69
545.502
545.312
545.114
544.887
544.518
544.566
544.514
544.428
544.327
544.216
544.101
543.982
543.861
543.739
543.616
543.492
543.369
543.245
543.122
542.999
542.876
542.754
542.632
542.51
542.389
542.268
542.148
542.027
541.908
541.789
541.67
541.551
541.433
541.314
541.196
541.079
540.961
540.844
540.726
540.609
552.509
552.425
552.338
552.248
552.155
552.06
551.963
551.865
551.767
551.671
551.579
551.491
551.408
551.332
551.263
551.199
551.143
551.093
551.05
551.012
550.978
550.947
550.917
550.888
550.858
550.827
550.795
550.762
550.726
550.689
550.652
550.616
550.581
550.547
550.514
550.481
550.449
550.418
550.387
550.355
550.323
550.29
550.255
550.218
550.179
550.137
550.093
550.045
549.995
549.94
549.881
549.818
549.75
549.678
549.6
549.516
549.428
549.334
549.234
549.125
549.005
548.874
548.732
548.58
548.417
548.246
548.068
547.885
547.7
547.515
547.329
547.143
546.958
546.773
546.586
546.396
546.206
546.015
545.827
545.64
545.456
545.272
545.085
544.889
544.687
544.6
544.517
544.424
544.322
544.213
544.099
543.981
543.861
543.74
543.618
543.495
543.371
543.248
543.125
543.002
542.879
542.756
542.634
542.512
542.391
542.27
542.149
542.029
541.909
541.79
541.671
541.552
541.433
541.315
541.197
541.079
540.961
540.844
540.726
540.609
552.524
552.469
552.41
552.344
552.273
552.196
552.115
552.03
551.944
551.857
551.771
551.689
551.612
551.54
551.475
551.415
551.363
551.316
551.276
551.24
551.208
551.178
551.148
551.118
551.086
551.052
551.014
550.973
550.928
550.881
550.834
550.787
550.741
550.695
550.65
550.606
550.562
550.519
550.475
550.432
550.387
550.342
550.294
550.244
550.193
550.138
550.082
550.022
549.96
549.896
549.829
549.758
549.685
549.607
549.525
549.44
549.351
549.258
549.162
549.058
548.945
548.819
548.681
548.532
548.371
548.2
548.02
547.834
547.646
547.457
547.267
547.078
546.891
546.705
546.518
546.329
546.138
545.948
545.762
545.58
545.403
545.23
545.061
544.895
544.741
544.627
544.525
544.425
544.32
544.21
544.097
543.98
543.861
543.741
543.619
543.497
543.374
543.251
543.127
543.004
542.881
542.759
542.636
542.514
542.393
542.271
542.151
542.03
541.91
541.791
541.671
541.553
541.434
541.316
541.197
541.079
540.962
540.844
540.726
540.609
552.544
552.53
552.508
552.477
552.434
552.383
552.323
552.256
552.184
552.109
552.033
551.958
551.886
551.82
551.759
551.703
551.653
551.609
551.57
551.536
551.505
551.475
551.445
551.413
551.378
551.338
551.292
551.241
551.186
551.127
551.066
551.006
550.946
550.886
550.827
550.767
550.709
550.65
550.591
550.532
550.472
550.41
550.346
550.28
550.211
550.139
550.065
549.988
549.91
549.831
549.75
549.667
549.583
549.496
549.408
549.317
549.224
549.132
549.038
548.941
548.835
548.717
548.586
548.444
548.289
548.12
547.94
547.752
547.561
547.369
547.177
546.985
546.796
546.61
546.426
546.239
546.05
545.863
545.681
545.505
545.338
545.179
545.027
544.882
544.749
544.633
544.526
544.423
544.317
544.208
544.095
543.979
543.861
543.742
543.62
543.498
543.376
543.253
543.13
543.007
542.884
542.761
542.638
542.516
542.394
542.273
542.152
542.032
541.912
541.792
541.672
541.553
541.435
541.316
541.198
541.08
540.962
540.844
540.726
540.609
552.572
552.612
552.641
552.654
552.651
552.633
552.601
552.557
552.503
552.442
552.377
552.311
552.246
552.185
552.128
552.076
552.029
551.987
551.948
551.915
551.883
551.851
551.819
551.784
551.743
551.696
551.64
551.577
551.509
551.436
551.361
551.285
551.208
551.132
551.055
550.978
550.901
550.825
550.748
550.67
550.591
550.509
550.425
550.338
550.248
550.153
550.056
549.956
549.854
549.752
549.65
549.547
549.446
549.345
549.244
549.143
549.043
548.947
548.855
548.765
548.669
548.56
548.439
548.306
548.158
547.995
547.816
547.625
547.43
547.236
547.044
546.851
546.662
546.479
546.3
546.118
545.934
545.753
545.576
545.408
545.252
545.105
544.97
544.844
544.727
544.619
544.517
544.416
544.312
544.204
544.092
543.978
543.861
543.742
543.621
543.5
543.377
543.255
543.132
543.009
542.886
542.763
542.64
542.518
542.396
542.275
542.154
542.033
541.913
541.793
541.673
541.554
541.435
541.317
541.198
541.08
540.962
540.844
540.727
540.609
552.609
552.72
552.815
552.887
552.934
552.958
552.962
552.946
552.915
552.871
552.819
552.763
552.706
552.65
552.597
552.548
552.502
552.46
552.421
552.385
552.351
552.316
552.279
552.238
552.19
552.133
552.066
551.99
551.907
551.819
551.729
551.636
551.541
551.446
551.35
551.253
551.156
551.058
550.961
550.862
550.762
550.659
550.552
550.441
550.325
550.202
550.075
549.943
549.809
549.675
549.541
549.41
549.282
549.158
549.037
548.919
548.806
548.7
548.606
548.52
548.435
548.338
548.228
548.106
547.969
547.811
547.634
547.44
547.241
547.046
546.856
546.666
546.478
546.299
546.129
545.957
545.782
545.61
545.442
545.282
545.136
545.002
544.884
544.778
544.683
544.591
544.5
544.405
544.304
544.199
544.089
543.976
543.86
543.742
543.622
543.501
543.379
543.256
543.134
543.011
542.888
542.765
542.642
542.52
542.398
542.276
542.155
542.034
541.914
541.794
541.674
541.555
541.436
541.317
541.199
541.081
540.962
540.845
540.727
540.609
552.655
552.856
553.035
553.181
553.291
553.368
553.415
553.434
553.43
553.407
553.369
553.323
553.274
553.223
553.173
553.126
553.08
553.036
552.994
552.954
552.915
552.874
552.83
552.781
552.723
552.654
552.574
552.485
552.388
552.285
552.179
552.069
551.956
551.84
551.723
551.605
551.486
551.367
551.247
551.127
551.005
550.88
550.75
550.613
550.468
550.313
550.148
549.976
549.8
549.622
549.445
549.272
549.105
548.945
548.794
548.652
548.518
548.397
548.292
548.205
548.126
548.041
547.943
547.833
547.707
547.557
547.381
547.186
546.983
546.787
546.603
546.418
546.236
546.063
545.904
545.745
545.583
545.425
545.269
545.12
544.986
544.869
544.771
544.688
544.621
544.553
544.48
544.394
544.297
544.194
544.086
543.974
543.859
543.742
543.622
543.502
543.38
543.258
543.135
543.012
542.889
542.766
542.644
542.521
542.399
542.278
542.156
542.035
541.915
541.795
541.675
541.556
541.437
541.318
541.199
541.081
540.963
540.845
540.727
540.609
552.711
553.022
553.303
553.54
553.727
553.868
553.966
554.026
554.052
554.051
554.03
553.995
553.953
553.907
553.86
553.813
553.765
553.717
553.669
553.623
553.575
553.526
553.47
553.41
553.34
553.258
553.166
553.064
552.954
552.838
552.717
552.591
552.46
552.325
552.186
552.046
551.905
551.763
551.622
551.481
551.339
551.193
551.042
550.881
550.707
550.516
550.308
550.087
549.857
549.623
549.39
549.16
548.939
548.729
548.534
548.354
548.191
548.045
547.921
547.823
547.747
547.672
547.583
547.484
547.368
547.225
547.052
546.858
546.656
546.463
546.284
546.105
545.932
545.768
545.622
545.48
545.335
545.198
545.06
544.925
544.811
544.711
544.635
544.572
544.55
544.515
544.469
544.387
544.293
544.191
544.084
543.973
543.858
543.741
543.623
543.502
543.381
543.259
543.137
543.014
542.891
542.768
542.645
542.523
542.401
542.279
542.158
542.037
541.916
541.796
541.676
541.556
541.437
541.318
541.2
541.081
540.963
540.845
540.727
540.609
552.776
553.214
553.614
553.957
554.234
554.448
554.605
554.711
554.771
554.795
554.791
554.767
554.733
554.692
554.648
554.6
554.549
554.496
554.441
554.385
554.325
554.263
554.194
554.119
554.037
553.942
553.837
553.724
553.602
553.474
553.341
553.202
553.055
552.9
552.74
552.578
552.414
552.252
552.091
551.931
551.773
551.613
551.447
551.269
551.069
550.842
550.588
550.31
550.015
549.712
549.408
549.109
548.818
548.541
548.284
548.052
547.846
547.666
547.509
547.391
547.311
547.241
547.159
547.066
546.956
546.819
546.65
546.462
546.276
546.09
545.919
545.743
545.579
545.424
545.299
545.206
545.062
544.964
544.836
544.716
544.625
544.55
544.485
544.46
544.475
544.518
544.491
544.391
544.293
544.19
544.083
543.972
543.858
543.741
543.623
543.503
543.382
543.26
543.138
543.015
542.892
542.769
542.647
542.524
542.402
542.28
542.159
542.038
541.917
541.797
541.677
541.557
541.438
541.319
541.2
541.082
540.963
540.845
540.727
540.609
552.844
553.419
553.948
554.408
554.785
555.08
555.301
555.457
555.554
555.604
555.618
555.607
555.583
555.551
555.512
555.466
555.413
555.356
555.293
555.226
555.15
555.075
554.99
554.901
554.807
554.699
554.582
554.458
554.326
554.187
554.042
553.89
553.728
553.554
553.372
553.186
553
552.817
552.638
552.465
552.297
552.135
551.969
551.786
551.568
551.312
551.014
550.676
550.311
549.931
549.544
549.16
548.786
548.427
548.09
547.784
547.52
547.287
547.081
546.932
546.849
546.779
546.698
546.606
546.496
546.361
546.197
546.025
545.924
545.744
545.578
545.393
545.234
545.082
544.97
544.882
544.807
544.704
544.599
544.5
544.451
544.388
544.367
544.355
544.42
544.462
544.482
544.392
544.294
544.19
544.083
543.971
543.858
543.741
543.623
543.503
543.383
543.261
543.139
543.016
542.893
542.771
542.648
542.525
542.403
542.281
542.16
542.038
541.918
541.797
541.677
541.558
541.438
541.319
541.2
541.082
540.963
540.845
540.727
540.609
552.909
553.614
554.271
554.849
555.327
555.704
555.99
556.195
556.33
556.407
556.441
556.449
556.441
556.425
556.399
556.363
556.315
556.26
556.194
556.12
556.033
555.948
555.853
555.756
555.653
555.535
555.406
555.269
555.122
554.968
554.806
554.636
554.454
554.257
554.048
553.833
553.619
553.412
553.215
553.032
552.867
552.72
552.581
552.426
552.201
551.931
551.604
551.214
550.784
550.331
549.86
549.384
548.91
548.449
548.014
547.621
547.288
546.965
546.681
546.484
546.47
546.4
546.317
546.214
546.094
545.941
545.78
545.612
545.448
545.283
545.138
544.968
544.826
544.696
544.619
544.578
544.523
544.491
544.406
544.322
544.324
544.286
544.245
544.236
544.318
544.378
544.465
544.399
544.299
544.192
544.083
543.971
543.857
543.741
543.623
543.504
543.383
543.262
543.14
543.017
542.894
542.772
542.649
542.526
542.404
542.282
542.16
542.039
541.918
541.798
541.678
541.558
541.439
541.32
541.201
541.082
540.964
540.845
540.727
540.609
552.951
553.751
554.514
555.195
555.764
556.215
556.559
556.808
556.977
557.082
557.142
557.175
557.195
557.21
557.213
557.204
557.18
557.145
557.093
557.031
556.95
556.877
556.796
556.709
556.611
556.493
556.353
556.196
556.021
555.83
555.63
555.424
555.209
554.977
554.725
554.464
554.203
553.954
553.729
553.536
553.38
553.275
553.206
553.171
552.95
552.711
552.405
551.985
551.519
551.026
550.49
549.924
549.338
548.758
548.191
547.676
547.368
546.874
546.433
546.109
545.98
545.893
545.838
545.722
545.616
545.447
545.289
545.15
545.008
544.875
544.782
544.605
544.451
544.34
544.284
544.27
544.28
544.307
544.23
544.228
544.156
544.173
544.121
544.207
544.282
544.351
544.459
544.44
544.308
544.194
544.083
543.971
543.857
543.741
543.623
543.504
543.384
543.262
543.14
543.018
542.895
542.772
542.65
542.527
542.405
542.283
542.161
542.04
541.919
541.799
541.678
541.559
541.439
541.32
541.201
541.082
540.964
540.846
540.727
540.609
552.932
553.742
554.563
555.316
555.952
556.46
556.847
557.128
557.321
557.458
557.548
557.616
557.679
557.771
557.824
557.887
557.92
557.945
557.953
557.952
557.926
557.922
557.918
557.89
557.828
557.737
557.592
557.411
557.187
556.909
556.621
556.335
556.055
555.765
555.433
555.082
554.728
554.376
554.079
553.853
553.697
553.655
553.7
554.268
554.046
553.985
553.794
553.391
552.953
552.483
551.93
551.281
550.562
549.844
549.037
548.246
547.41
546.619
545.979
545.627
545.487
545.388
545.31
545.21
545.117
544.982
544.876
544.743
544.661
544.588
544.518
544.375
544.247
544.151
544.046
544.121
544.088
544.261
544.121
544.256
544.088
544.149
544.085
544.226
544.311
544.353
544.437
544.396
544.296
544.19
544.081
543.97
543.856
543.741
543.623
543.504
543.384
543.263
543.141
543.018
542.896
542.773
542.65
542.528
542.405
542.283
542.162
542.04
541.92
541.799
541.679
541.559
541.439
541.32
541.201
541.083
540.964
540.846
540.727
540.609
552.762
553.419
554.227
555.022
555.715
556.28
556.717
557.016
557.21
557.387
557.499
557.629
557.789
558.296
558.425
558.805
558.948
559.107
559.258
559.438
559.544
559.757
559.94
560.066
560.098
560.107
559.962
559.788
559.519
559.063
558.591
558.105
557.685
557.289
556.784
556.253
555.712
555.065
554.547
554.205
553.946
553.962
553.909
553.866
553.892
554.005
553.981
553.877
553.623
553.412
553.081
552.55
551.789
551.068
550.003
548.845
547.381
546.21
545.524
545.176
545.017
544.907
544.782
544.658
544.655
544.612
544.588
544.558
544.559
544.525
544.492
544.443
544.406
544.301
544.223
544.137
544.104
544.156
544.146
544.225
544.225
544.233
544.191
544.219
544.213
544.22
544.379
544.411
544.29
544.184
544.078
543.968
543.855
543.74
543.623
543.504
543.384
543.263
543.141
543.019
542.896
542.773
542.651
542.528
542.406
542.284
542.162
542.041
541.92
541.799
541.679
541.559
541.44
541.321
541.202
541.083
540.964
540.846
540.727