/*--------------------------------*- C++ -*----------------------------------*\
  =========                 |
  \\      /  F ield         | OpenFOAM: The Open Source CFD Toolbox
   \\    /   O peration     | Website:  https://openfoam.org
    \\  /    A nd           | Version:  6
     \\/     M anipulation  |
\*---------------------------------------------------------------------------*/
FoamFile
{
    version     2.0;
    format      ascii;
    class       volVectorField;
    location    "3900";
    object      U;
}
// * * * * * * * * * * * * * * * * * * * * * * * * * * * * * * * * * * * * * //

dimensions      [0 1 -1 0 0 0 0];

internalField   nonuniform List<vector> 
4800
(
(5.95492e-06 0 -1.6334e-05)
(6.36136e-05 0 -2.86012e-05)
(9.872e-05 0 -5.36206e-05)
(0.00014776 0 -2.9128e-05)
(0.000165422 0 -1.4489e-05)
(0.000155748 0 -9.32527e-06)
(0.000144108 0 -7.34664e-06)
(0.000135059 0 -1.52375e-05)
(0.000132758 0 -2.42083e-05)
(0.000139877 0 -1.44255e-05)
(0.000143647 0 -2.11263e-05)
(0.000151558 0 -2.94044e-05)
(0.000151463 0 -8.00712e-05)
(0.000127481 0 -0.000112488)
(0.000129899 0 -9.85825e-05)
(0.000107915 0 -8.10158e-05)
(5.29891e-05 0 -5.96172e-05)
(-6.04009e-05 0 6.98046e-05)
(-0.000202333 0 6.46695e-05)
(-0.000384911 0 4.92805e-05)
(-0.000514641 0 -0.000116041)
(-0.000702076 0 -6.66615e-05)
(-0.00101914 0 9.24024e-05)
(-0.00117046 0 -0.000121506)
(-0.00128465 0 -1.60175e-05)
(-0.00137777 0 8.50378e-06)
(-0.00144009 0 -8.20404e-06)
(-0.00148393 0 -3.2106e-05)
(-0.00151409 0 -3.50645e-05)
(-0.00153617 0 5.1769e-06)
(-0.00155507 0 -2.51475e-05)
(-0.00156983 0 -1.56473e-05)
(-0.00157674 0 -1.82825e-05)
(-0.00158142 0 -2.41372e-05)
(-0.00159553 0 -3.67939e-05)
(-0.00161611 0 -4.05742e-05)
(-0.00163263 0 -3.76852e-05)
(-0.00164434 0 -2.37327e-05)
(-0.00165515 0 -9.98065e-06)
(-0.00165863 0 -9.45423e-06)
(-0.00163917 0 -1.35268e-05)
(-0.00162493 0 -1.42505e-05)
(-0.00162331 0 -1.26512e-05)
(-0.00160921 0 6.10175e-05)
(-0.00151623 0 -2.62091e-05)
(-0.00141784 0 -7.99422e-05)
(-0.00134969 0 -6.7329e-05)
(-0.00131528 0 -2.88624e-05)
(-0.00123863 0 -5.17868e-05)
(-0.00106746 0 -0.00020667)
(-0.000957587 0 -1.99375e-05)
(-0.000855762 0 -0.000130206)
(-0.000744857 0 -0.000134967)
(-0.000601622 0 -0.000114344)
(-0.000483775 0 -8.44269e-05)
(-0.000332269 0 -0.00014161)
(-0.00025679 0 -7.56291e-05)
(-0.000151801 0 -0.000100187)
(-7.69478e-05 0 -8.23905e-05)
(4.5845e-07 0 -9.18183e-05)
(6.84518e-05 0 -9.5509e-05)
(0.000114454 0 -0.00011424)
(0.000115476 0 8.67908e-05)
(0.000156156 0 7.96647e-06)
(0.000191516 0 -3.12779e-05)
(0.000231383 0 -7.56177e-05)
(0.000297397 0 -6.69078e-05)
(0.000368289 0 -6.10708e-05)
(0.00043334 0 -5.45697e-05)
(0.000471275 0 -2.77247e-05)
(0.000456392 0 -2.95939e-05)
(0.000444254 0 -1.12568e-05)
(0.000456344 0 -6.91545e-06)
(0.000463946 0 -1.48974e-05)
(0.000461563 0 -1.05654e-05)
(0.000452706 0 -9.20781e-06)
(0.000430309 0 3.3025e-05)
(0.000396648 0 3.8866e-07)
(0.00030645 0 0.000115202)
(0.000188728 0 -0.000157182)
(-8.1969e-05 0 4.01567e-05)
(-3.73698e-05 0 -3.3331e-06)
(-2.32909e-09 0 1.16738e-09)
(2.27557e-12 0 1.07031e-11)
(8.44256e-12 0 3.19957e-12)
(4.01013e-12 0 1.10052e-12)
(2.47718e-12 0 4.31735e-13)
(1.85615e-12 0 1.88721e-13)
(1.57853e-12 0 8.8509e-14)
(1.44722e-12 0 4.25269e-14)
(1.38472e-12 0 1.9746e-14)
(1.35675e-12 0 8.02624e-15)
(1.34644e-12 0 2.11279e-15)
(1.34468e-12 0 -4.88378e-16)
(1.34612e-12 0 -1.06737e-15)
(1.34747e-12 0 -3.43734e-16)
(1.34653e-12 0 1.25229e-15)
(1.34185e-12 0 3.44147e-15)
(1.33246e-12 0 6.0291e-15)
(1.31771e-12 0 8.86931e-15)
(1.2972e-12 0 1.1847e-14)
(1.27071e-12 0 1.48711e-14)
(1.23819e-12 0 1.787e-14)
(1.1997e-12 0 2.07876e-14)
(1.15541e-12 0 2.35799e-14)
(1.10559e-12 0 2.62139e-14)
(1.05055e-12 0 2.86667e-14)
(9.90679e-13 0 3.09234e-14)
(9.26394e-13 0 3.29758e-14)
(8.58124e-13 0 3.48204e-14)
(7.86296e-13 0 3.64573e-14)
(7.1133e-13 0 3.78897e-14)
(6.33629e-13 0 3.91244e-14)
(5.53576e-13 0 4.01712e-14)
(4.71536e-13 0 4.1042e-14)
(3.87856e-13 0 4.17479e-14)
(3.0287e-13 0 4.22972e-14)
(2.16899e-13 0 4.26916e-14)
(1.30279e-13 0 4.29167e-14)
(4.34248e-14 0 4.29048e-14)
(-8.52278e-06 0 -0.000109982)
(8.7066e-05 0 -7.36429e-05)
(8.41205e-05 0 -8.8997e-05)
(0.000130951 0 -2.84016e-05)
(0.00014526 0 8.2638e-06)
(0.000136875 0 1.52105e-05)
(0.000129339 0 6.91956e-06)
(0.000130555 0 7.81098e-06)
(0.000124351 0 1.91885e-05)
(0.000109751 0 6.65224e-06)
(7.4548e-05 0 9.30548e-06)
(6.97634e-05 0 4.35433e-05)
(4.92038e-05 0 6.41121e-05)
(-6.96403e-06 0 3.88052e-05)
(-8.16044e-05 0 6.56131e-05)
(-8.59708e-05 0 0.000110688)
(-0.000200193 0 0.000141423)
(-0.000300874 0 0.000178942)
(-0.00044465 0 0.000215661)
(-0.00068325 0 0.000308825)
(-0.000913124 0 0.000260445)
(-0.00103718 0 0.000221654)
(-0.00117306 0 0.000194586)
(-0.00126162 0 0.000174301)
(-0.0013154 0 0.0001045)
(-0.00136994 0 0.000168401)
(-0.0014477 0 7.74185e-05)
(-0.00147958 0 0.000107736)
(-0.00151023 0 9.2268e-05)
(-0.00155309 0 3.71964e-05)
(-0.00158831 0 5.48574e-05)
(-0.00161464 0 4.17293e-05)
(-0.00162936 0 3.45891e-05)
(-0.00163946 0 4.13875e-05)
(-0.00165137 0 5.53891e-05)
(-0.00165921 0 6.78601e-05)
(-0.00165759 0 7.28346e-05)
(-0.00164039 0 5.75855e-05)
(-0.00163783 0 2.95432e-05)
(-0.00163455 0 -1.30365e-05)
(-0.00158351 0 -3.17126e-05)
(-0.00154416 0 -4.22226e-05)
(-0.00152305 0 -7.66705e-05)
(-0.00149825 0 -0.000133319)
(-0.00144607 0 -8.07363e-05)
(-0.00134262 0 -7.1563e-05)
(-0.00123701 0 -0.000174245)
(-0.00117859 0 -0.000175213)
(-0.00113185 0 -8.8962e-05)
(-0.000987521 0 -0.000169852)
(-0.000838096 0 -0.000254931)
(-0.000782369 0 -0.000131268)
(-0.000682402 0 -3.33646e-05)
(-0.000475177 0 -0.000288281)
(-0.000455845 0 -6.08869e-05)
(-0.000265985 0 -0.000185345)
(-0.000239358 0 -8.50311e-05)
(-6.01167e-05 0 -0.000132831)
(-3.29189e-05 0 -5.53999e-05)
(2.79921e-05 0 -3.04293e-05)
(8.54096e-05 0 -3.91205e-05)
(0.000122203 0 -1.60866e-05)
(0.000146877 0 -2.48542e-05)
(0.000195408 0 -0.000111508)
(0.000258527 0 -0.000123989)
(0.000294894 0 -6.98721e-05)
(0.000314277 0 -0.000118982)
(0.000358357 0 4.35042e-05)
(0.000370699 0 -0.000175046)
(0.000389437 0 0.000116859)
(0.000412465 0 -4.92603e-06)
(0.000418408 0 -2.12131e-05)
(0.000414398 0 -2.71441e-06)
(0.000393538 0 -1.25676e-05)
(0.000389749 0 -6.5828e-07)
(0.000388119 0 2.79122e-05)
(0.000372671 0 4.56271e-05)
(0.000325121 0 8.84022e-05)
(0.000291353 0 0.000100377)
(0.000200587 0 0.000228803)
(-0.000248288 0 0.000179354)
(-0.00056861 0 0.000101823)
(-1.57392e-06 0 -6.8251e-05)
(-2.21674e-12 0 8.01525e-12)
(-1.9156e-12 0 4.26493e-12)
(1.24244e-12 0 1.87168e-12)
(1.5654e-12 0 8.69577e-13)
(1.51293e-12 0 4.23321e-13)
(1.43233e-12 0 2.11208e-13)
(1.37845e-12 0 1.04302e-13)
(1.35022e-12 0 4.81232e-14)
(1.33912e-12 0 1.82416e-14)
(1.33793e-12 0 3.00827e-15)
(1.3415e-12 0 -3.50017e-15)
(1.34627e-12 0 -4.50312e-15)
(1.34979e-12 0 -1.87527e-15)
(1.35031e-12 0 3.22116e-15)
(1.34663e-12 0 1.00074e-14)
(1.33789e-12 0 1.79248e-14)
(1.32353e-12 0 2.655e-14)
(1.3032e-12 0 3.55497e-14)
(1.27673e-12 0 4.46595e-14)
(1.2441e-12 0 5.36705e-14)
(1.20541e-12 0 6.24203e-14)
(1.16084e-12 0 7.07844e-14)
(1.11067e-12 0 7.867e-14)
(1.05526e-12 0 8.60104e-14)
(9.94988e-13 0 9.27607e-14)
(9.30291e-13 0 9.88938e-14)
(8.61605e-13 0 1.04397e-13)
(7.89365e-13 0 1.09271e-13)
(7.13997e-13 0 1.13529e-13)
(6.35911e-13 0 1.17198e-13)
(5.55493e-13 0 1.20309e-13)
(4.73112e-13 0 1.22899e-13)
(3.89111e-13 0 1.25002e-13)
(3.03813e-13 0 1.26643e-13)
(2.17518e-13 0 1.27837e-13)
(1.30492e-13 0 1.28578e-13)
(4.34129e-14 0 1.28819e-13)
(2.48437e-05 0 -0.000146323)
(6.18056e-05 0 -0.000100809)
(4.58313e-05 0 -7.74573e-05)
(6.1768e-05 0 -6.44504e-05)
(8.85897e-05 0 -2.58786e-06)
(8.68982e-05 0 5.78493e-06)
(7.79208e-05 0 3.39992e-06)
(8.16791e-05 0 7.73426e-06)
(8.83079e-05 0 3.38544e-05)
(9.04623e-05 0 3.67968e-05)
(4.4429e-06 0 8.29142e-06)
(-5.24676e-05 0 2.63279e-05)
(-3.97288e-05 0 8.47846e-05)
(-0.000102141 0 0.000124883)
(-0.000207891 0 0.000117071)
(-0.000250767 0 0.000183539)
(-0.000339381 0 0.000259614)
(-0.00054213 0 0.000311577)
(-0.000675876 0 0.000487543)
(-0.000892185 0 0.000565499)
(-0.00106531 0 0.0005418)
(-0.00118789 0 0.000419366)
(-0.00127686 0 0.000274069)
(-0.001301 0 0.000257508)
(-0.00134675 0 0.000155569)
(-0.00141595 0 8.1791e-05)
(-0.00145189 0 0.000180774)
(-0.00149539 0 4.1722e-05)
(-0.00153645 0 5.88003e-05)
(-0.00157222 0 5.85844e-05)
(-0.00159003 0 3.03693e-05)
(-0.00159686 0 2.55524e-05)
(-0.0015945 0 8.53992e-06)
(-0.00157963 0 -5.76068e-06)
(-0.00157372 0 -8.08636e-06)
(-0.00157109 0 -1.29518e-05)
(-0.00156933 0 -4.81365e-05)
(-0.00152922 0 -0.000115382)
(-0.00149491 0 -6.49113e-05)
(-0.00148025 0 -3.15635e-05)
(-0.00145934 0 -5.34936e-05)
(-0.00142082 0 -0.000110518)
(-0.00140689 0 -8.33348e-05)
(-0.00139485 0 -0.000165436)
(-0.00135686 0 -0.000102097)
(-0.00124022 0 -0.000191554)
(-0.00114152 0 -0.000219213)
(-0.00107524 0 -0.000219402)
(-0.00102101 0 -0.000171614)
(-0.000895513 0 -0.000277421)
(-0.000728806 0 -0.000409778)
(-0.000711914 0 -0.000205076)
(-0.000521531 0 -0.00032044)
(-0.000372827 0 -0.000356275)
(-0.000359051 0 -0.000256722)
(-6.30819e-05 0 -0.000347433)
(-3.5911e-05 0 -0.000260714)
(9.88992e-05 0 -0.000248093)
(0.000199713 0 -0.000229532)
(0.000259243 0 -0.000137818)
(0.000291054 0 -0.000114864)
(0.000326527 0 -0.000115053)
(0.000364051 0 -0.000111538)
(0.000410781 0 -9.65914e-05)
(0.000433839 0 -0.000114844)
(0.000437419 0 -0.000106121)
(0.000443574 0 -7.89373e-05)
(0.000439965 0 -9.04396e-05)
(0.000433886 0 -8.17775e-05)
(0.000410524 0 -4.04381e-05)
(0.000420666 0 -1.07619e-05)
(0.000421161 0 1.33535e-05)
(0.000399175 0 4.13277e-05)
(0.000369371 0 8.21313e-06)
(0.000372766 0 1.47175e-05)
(0.000369729 0 6.14723e-05)
(0.000350398 0 9.47245e-05)
(0.000317024 0 0.000132469)
(0.000212764 0 0.000254047)
(0.000245916 0 0.00028599)
(-0.000335283 0 0.000432226)
(-0.000606906 0 0.000512418)
(7.60894e-06 0 -0.000676002)
(-3.13369e-12 0 -1.69258e-12)
(-1.12259e-12 0 1.73445e-12)
(6.15206e-13 0 1.25204e-12)
(1.02891e-12 0 7.51809e-13)
(1.19778e-12 0 4.23824e-13)
(1.25951e-12 0 2.28671e-13)
(1.28413e-12 0 1.15311e-13)
(1.29866e-12 0 5.01712e-14)
(1.31164e-12 0 1.3796e-14)
(1.3247e-12 0 -4.82129e-15)
(1.33717e-12 0 -1.20145e-14)
(1.34775e-12 0 -1.15637e-14)
(1.35519e-12 0 -5.85332e-15)
(1.35841e-12 0 3.53338e-15)
(1.35656e-12 0 1.54766e-14)
(1.34901e-12 0 2.91389e-14)
(1.33534e-12 0 4.38654e-14)
(1.31531e-12 0 5.9132e-14)
(1.28883e-12 0 7.45173e-14)
(1.25595e-12 0 8.96858e-14)
(1.21681e-12 0 1.04376e-13)
(1.17166e-12 0 1.18388e-13)
(1.12081e-12 0 1.31572e-13)
(1.06464e-12 0 1.43822e-13)
(1.00356e-12 0 1.55064e-13)
(9.38031e-13 0 1.65256e-13)
(8.68501e-13 0 1.74381e-13)
(7.95428e-13 0 1.82448e-13)
(7.19257e-13 0 1.89488e-13)
(6.40408e-13 0 1.9555e-13)
(5.59277e-13 0 2.00692e-13)
(4.76229e-13 0 2.04973e-13)
(3.916e-13 0 2.0845e-13)
(3.05705e-13 0 2.11168e-13)
(2.18833e-13 0 2.13164e-13)
(1.3126e-13 0 2.14465e-13)
(4.36659e-14 0 2.15112e-13)
(-1.73801e-06 0 -0.000165727)
(4.86e-06 0 -0.000115043)
(2.71397e-05 0 -7.26557e-05)
(4.16603e-05 0 -1.67185e-05)
(2.83243e-05 0 1.39836e-05)
(1.22612e-05 0 2.39577e-05)
(-2.95066e-05 0 -1.73677e-05)
(-4.26482e-05 0 -1.05879e-05)
(-1.65275e-05 0 3.91056e-05)
(1.60775e-05 0 8.6189e-05)
(-5.45135e-05 0 9.84789e-05)
(-5.60053e-05 0 0.00011652)
(-0.000177268 0 7.08128e-05)
(-0.000225625 0 0.000132556)
(-0.000230406 0 0.000258013)
(-0.000464368 0 0.000223688)
(-0.000547305 0 0.000456424)
(-0.000723548 0 0.00059834)
(-0.000938175 0 0.000616187)
(-0.00111418 0 0.000564197)
(-0.00122005 0 0.000487279)
(-0.00125382 0 0.000452561)
(-0.00126192 0 0.000445632)
(-0.00130845 0 0.000329263)
(-0.0013798 0 0.000207247)
(-0.00140908 0 0.000224412)
(-0.00143807 0 0.000175925)
(-0.00147431 0 0.000101106)
(-0.00149337 0 0.00012142)
(-0.00149923 0 0.000105341)
(-0.00149674 0 6.69857e-05)
(-0.00149526 0 6.19893e-05)
(-0.00149662 0 4.51468e-06)
(-0.00148691 0 1.639e-05)
(-0.0014665 0 3.67965e-05)
(-0.0014528 0 1.54712e-05)
(-0.00144785 0 1.07218e-05)
(-0.00142922 0 5.39478e-05)
(-0.00139879 0 -2.73296e-05)
(-0.00138747 0 -3.63146e-05)
(-0.0013871 0 -3.61539e-05)
(-0.00132038 0 -0.000108268)
(-0.00124917 0 -0.000132221)
(-0.00122408 0 -0.000131843)
(-0.00122528 0 -0.000142355)
(-0.0011891 0 -0.000267124)
(-0.00104079 0 -0.000428679)
(-0.000984031 0 -0.000262855)
(-0.000909363 0 -0.000269384)
(-0.000812132 0 -0.000375822)
(-0.000661406 0 -0.000466342)
(-0.000645617 0 -0.000271098)
(-0.000406313 0 -0.000437985)
(-0.000343299 0 -0.000418789)
(-9.72368e-05 0 -0.000488522)
(-2.90576e-05 0 -0.00040238)
(5.72795e-05 0 -0.000378298)
(0.000187355 0 -0.000294561)
(0.000221351 0 -0.000306204)
(0.000326574 0 -0.000178222)
(0.000368478 0 -0.000133937)
(0.000409984 0 -0.000109411)
(0.00044043 0 -0.000137949)
(0.000482532 0 -0.000125223)
(0.000495764 0 -0.000118852)
(0.000496441 0 -0.000113948)
(0.000505011 0 -0.000100996)
(0.000511718 0 -6.484e-05)
(0.000503518 0 -7.03141e-05)
(0.000490462 0 -1.06424e-05)
(0.00047793 0 -1.74943e-05)
(0.000454119 0 2.9222e-05)
(0.000424348 0 2.39215e-05)
(0.00039002 0 5.31206e-06)
(0.000361129 0 2.23592e-05)
(0.000356072 0 7.07681e-05)
(0.000345896 0 0.000116955)
(0.000283119 0 0.000222184)
(0.000271007 0 0.000280178)
(0.000252987 0 0.000407667)
(6.13641e-05 0 0.000524782)
(-0.000449704 0 0.000585847)
(9.19329e-06 0 -0.000581466)
(-3.07188e-12 0 -1.00258e-12)
(-1.80766e-12 0 7.81987e-13)
(2.60202e-13 0 6.50186e-13)
(7.37329e-13 0 4.61972e-13)
(9.89788e-13 0 2.91601e-13)
(1.12382e-12 0 1.64417e-13)
(1.19996e-12 0 7.81549e-14)
(1.24871e-12 0 2.34883e-14)
(1.28413e-12 0 -8.37909e-15)
(1.31212e-12 0 -2.40498e-14)
(1.33475e-12 0 -2.81512e-14)
(1.35243e-12 0 -2.38869e-14)
(1.36488e-12 0 -1.35343e-14)
(1.37164e-12 0 1.23556e-15)
(1.37224e-12 0 1.91448e-14)
(1.36628e-12 0 3.91834e-14)
(1.35352e-12 0 6.05274e-14)
(1.33385e-12 0 8.24935e-14)
(1.30729e-12 0 1.04518e-13)
(1.27396e-12 0 1.26146e-13)
(1.23411e-12 0 1.47019e-13)
(1.18804e-12 0 1.66862e-13)
(1.13611e-12 0 1.85472e-13)
(1.07875e-12 0 2.02706e-13)
(1.01642e-12 0 2.18472e-13)
(9.49608e-13 0 2.32725e-13)
(8.78797e-13 0 2.45456e-13)
(8.04473e-13 0 2.56693e-13)
(7.271e-13 0 2.66489e-13)
(6.47114e-13 0 2.74917e-13)
(5.64917e-13 0 2.8206e-13)
(4.80871e-13 0 2.88e-13)
(3.95307e-13 0 2.92819e-13)
(3.08527e-13 0 2.96584e-13)
(2.20815e-13 0 2.99354e-13)
(1.3244e-13 0 3.01176e-13)
(4.40595e-14 0 3.02089e-13)
(-1.09802e-05 0 -0.000172427)
(5.12084e-06 0 -0.00010921)
(8.63244e-06 0 -6.12866e-05)
(-1.87063e-05 0 -3.87837e-05)
(-1.24209e-05 0 2.8863e-05)
(-7.9129e-06 0 4.01728e-05)
(-5.75781e-05 0 3.94998e-06)
(-0.000109232 0 4.45033e-06)
(-0.000114933 0 4.78034e-05)
(-0.000171944 0 1.06519e-05)
(-0.000196196 0 2.37614e-05)
(-0.000175772 0 0.000113406)
(-0.000218858 0 0.000171614)
(-0.000384379 0 0.000123516)
(-0.00037566 0 0.000355102)
(-0.00054617 0 0.000510467)
(-0.000852051 0 0.000569867)
(-0.00103478 0 0.000655536)
(-0.00108991 0 0.000743407)
(-0.00113015 0 0.000734517)
(-0.00117644 0 0.000668484)
(-0.0012366 0 0.000519672)
(-0.00128621 0 0.000340241)
(-0.00127959 0 0.000377504)
(-0.00134172 0 0.000269071)
(-0.0013521 0 0.000255101)
(-0.00135992 0 0.000212039)
(-0.00137927 0 0.000140105)
(-0.00138496 0 0.000119106)
(-0.00138816 0 7.74129e-05)
(-0.00139373 0 3.52229e-05)
(-0.00139556 0 1.4196e-05)
(-0.00140365 0 3.36945e-06)
(-0.00140679 0 -5.10889e-06)
(-0.0013767 0 -4.87404e-05)
(-0.0013468 0 -5.75383e-05)
(-0.00133298 0 -6.37027e-05)
(-0.00132769 0 -7.24739e-05)
(-0.00130252 0 -0.000134687)
(-0.00127312 0 -0.000114515)
(-0.00126479 0 -9.0191e-05)
(-0.00125013 0 -0.000110144)
(-0.00116701 0 -0.000169118)
(-0.00110471 0 -0.000232367)
(-0.00108881 0 -0.000223271)
(-0.00108465 0 -0.000245681)
(-0.0010288 0 -0.000326781)
(-0.000896861 0 -0.000411947)
(-0.000817805 0 -0.00041388)
(-0.000754152 0 -0.00043193)
(-0.000628524 0 -0.00052065)
(-0.000462492 0 -0.000604515)
(-0.000351285 0 -0.000610724)
(-0.000274504 0 -0.00059879)
(-0.000195487 0 -0.000573)
(-7.59546e-05 0 -0.000535008)
(-7.9066e-05 0 -0.000515896)
(0.000151449 0 -0.000364143)
(0.000185116 0 -0.000316593)
(0.000236477 0 -0.000263802)
(0.000292331 0 -0.00021246)
(0.000351849 0 -0.000175405)
(0.000406361 0 -0.000178798)
(0.000459888 0 -0.000147433)
(0.000483612 0 -0.000119686)
(0.000489382 0 -0.000130072)
(0.000509293 0 -9.28296e-05)
(0.000515797 0 -5.89071e-05)
(0.000505583 0 -6.14415e-05)
(0.000493883 0 -3.48834e-05)
(0.000485836 0 3.93444e-05)
(0.000478759 0 3.26208e-05)
(0.000457276 0 8.64415e-05)
(0.000423716 0 0.000105707)
(0.000390729 0 -2.52608e-05)
(0.000368151 0 8.1842e-05)
(0.00030527 0 0.000208282)
(0.000315347 0 0.000235785)
(0.000187191 0 0.000408587)
(0.00027954 0 0.000503626)
(0.000275327 0 0.000587974)
(-0.00057369 0 0.000361753)
(9.65514e-06 0 -0.000555313)
(-2.74417e-12 0 -2.632e-12)
(-1.62863e-12 0 -1.94334e-13)
(2.95599e-13 0 1.04845e-13)
(6.70515e-13 0 1.54489e-13)
(9.00233e-13 0 1.16229e-13)
(1.04606e-12 0 5.9255e-14)
(1.1432e-12 0 9.42431e-15)
(1.21213e-12 0 -2.59786e-14)
(1.2641e-12 0 -4.67389e-14)
(1.30493e-12 0 -5.48411e-14)
(1.33733e-12 0 -5.26477e-14)
(1.36237e-12 0 -4.23108e-14)
(1.38031e-12 0 -2.56663e-14)
(1.39109e-12 0 -4.25242e-15)
(1.39451e-12 0 2.06275e-14)
(1.39039e-12 0 4.78644e-14)
(1.37865e-12 0 7.65079e-14)
(1.3593e-12 0 1.05742e-13)
(1.33248e-12 0 1.34874e-13)
(1.29845e-12 0 1.63339e-13)
(1.25753e-12 0 1.90685e-13)
(1.21012e-12 0 2.16571e-13)
(1.15666e-12 0 2.40747e-13)
(1.09764e-12 0 2.63046e-13)
(1.03358e-12 0 2.83371e-13)
(9.65014e-13 0 3.01682e-13)
(8.92469e-13 0 3.17992e-13)
(8.16461e-13 0 3.32355e-13)
(7.37481e-13 0 3.44851e-13)
(6.55979e-13 0 3.55582e-13)
(5.72361e-13 0 3.64659e-13)
(4.86988e-13 0 3.72194e-13)
(4.00184e-13 0 3.78293e-13)
(3.1224e-13 0 3.83053e-13)
(2.23425e-13 0 3.86553e-13)
(1.33995e-13 0 3.88857e-13)
(4.45785e-14 0 3.90011e-13)
(-2.04682e-05 0 -0.000172153)
(-5.67611e-06 0 -0.000108495)
(-1.45385e-05 0 -5.75768e-05)
(-2.63856e-05 0 -1.52483e-05)
(-4.47154e-05 0 5.69642e-05)
(-7.17528e-05 0 4.9283e-05)
(-5.62827e-05 0 4.70382e-05)
(-0.000105439 0 8.12974e-05)
(-0.000167881 0 9.64318e-05)
(-0.000187884 0 0.000159705)
(-0.000234728 0 0.000190886)
(-0.000191036 0 0.000278343)
(-0.000182742 0 0.000353386)
(-0.000540981 0 0.000173651)
(-0.000665117 0 0.000409936)
(-0.000794717 0 0.000652061)
(-0.000924665 0 0.000838067)
(-0.00109282 0 0.000829952)
(-0.00110562 0 0.000855166)
(-0.00117793 0 0.00070795)
(-0.00115865 0 0.000667207)
(-0.00120682 0 0.000529387)
(-0.00123854 0 0.00037045)
(-0.0012215 0 0.000378819)
(-0.00125627 0 0.000273556)
(-0.00126439 0 0.000239283)
(-0.0012646 0 0.000184598)
(-0.00127019 0 0.000155528)
(-0.00129255 0 0.000104273)
(-0.00130827 0 9.10015e-05)
(-0.00131262 0 8.54204e-05)
(-0.00130474 0 3.65933e-05)
(-0.00129547 0 2.39661e-05)
(-0.0012905 0 6.78395e-06)
(-0.00128247 0 -1.02788e-05)
(-0.00125854 0 -2.86358e-05)
(-0.00123928 0 -4.46282e-05)
(-0.00123494 0 -5.72223e-05)
(-0.00122309 0 -7.45071e-05)
(-0.00116754 0 -0.000128855)
(-0.00114364 0 -0.000167203)
(-0.0011456 0 -0.000185777)
(-0.00108613 0 -0.000360183)
(-0.00105777 0 -0.000244242)
(-0.00102106 0 -0.000236261)
(-0.00096802 0 -0.000374231)
(-0.000881763 0 -0.000501582)
(-0.00086563 0 -0.000423613)
(-0.000784947 0 -0.000479354)
(-0.000639282 0 -0.000626806)
(-0.000574535 0 -0.000634084)
(-0.000522191 0 -0.000635422)
(-0.000514467 0 -0.000621748)
(-0.00039778 0 -0.000665858)
(-0.000356934 0 -0.000660013)
(-0.000288438 0 -0.000642679)
(-0.000210755 0 -0.000583982)
(-0.000137498 0 -0.000544781)
(-8.03617e-05 0 -0.000464637)
(0.000126624 0 -0.000299044)
(0.000171132 0 -0.000237419)
(0.000191479 0 -0.000243131)
(0.000264893 0 -0.000210249)
(0.000313221 0 -0.000208375)
(0.000371187 0 -0.000142631)
(0.000386987 0 -0.000193414)
(0.000440645 0 -0.000126008)
(0.0004648 0 -5.31939e-05)
(0.00046691 0 -3.88575e-05)
(0.000464443 0 -1.75841e-05)
(0.000453941 0 3.57221e-05)
(0.000452339 0 6.15025e-05)
(0.000442692 0 9.89075e-05)
(0.000424671 0 8.36768e-05)
(0.000399802 0 4.75112e-05)
(0.000332491 0 0.000162206)
(0.00030315 0 0.000223732)
(0.000324982 0 0.000264389)
(0.000274316 0 0.000409232)
(0.000275736 0 0.000559758)
(0.000393479 0 0.000587397)
(7.0255e-05 0 0.000577408)
(9.26752e-06 0 -0.00031649)
(-2.13771e-12 0 -2.62031e-12)
(-7.04206e-13 0 -5.5497e-13)
(6.09395e-13 0 -1.90879e-13)
(7.48933e-13 0 -6.49103e-14)
(8.9458e-13 0 -4.03908e-14)
(1.01702e-12 0 -5.30723e-14)
(1.11472e-12 0 -7.37436e-14)
(1.19254e-12 0 -9.00884e-14)
(1.25527e-12 0 -9.77543e-14)
(1.30621e-12 0 -9.59334e-14)
(1.34728e-12 0 -8.52973e-14)
(1.37941e-12 0 -6.70608e-14)
(1.40294e-12 0 -4.25911e-14)
(1.41794e-12 0 -1.32379e-14)
(1.42435e-12 0 1.97223e-14)
(1.42216e-12 0 5.51123e-14)
(1.4114e-12 0 9.18696e-14)
(1.39222e-12 0 1.29055e-13)
(1.36488e-12 0 1.65859e-13)
(1.32977e-12 0 2.0161e-13)
(1.28734e-12 0 2.35777e-13)
(1.2381e-12 0 2.67958e-13)
(1.18258e-12 0 2.97867e-13)
(1.12137e-12 0 3.25327e-13)
(1.05506e-12 0 3.50246e-13)
(9.8423e-13 0 3.72606e-13)
(9.0947e-13 0 3.92451e-13)
(8.31331e-13 0 4.09868e-13)
(7.50327e-13 0 4.24975e-13)
(6.66922e-13 0 4.37911e-13)
(5.81528e-13 0 4.48823e-13)
(4.94505e-13 0 4.57858e-13)
(4.06166e-13 0 4.65153e-13)
(3.16787e-13 0 4.70835e-13)
(2.26619e-13 0 4.75006e-13)
(1.35897e-13 0 4.7775e-13)
(4.52132e-14 0 4.79122e-13)
(-2.30519e-05 0 -0.000164696)
(-1.10971e-05 0 -0.000110363)
(-6.28508e-06 0 -5.81547e-05)
(-3.34595e-05 0 1.04175e-05)
(-5.77449e-05 0 9.33028e-05)
(-9.98936e-05 0 8.89868e-05)
(-0.000150015 0 3.82958e-05)
(-0.00022242 0 7.12446e-05)
(-0.000232843 0 0.000181951)
(-0.000308215 0 0.000166362)
(-0.000477152 0 7.81724e-05)
(-0.00051847 0 7.03579e-05)
(-0.000525789 0 0.000122455)
(-0.000549694 0 0.000528256)
(-0.000678631 0 0.000731439)
(-0.000950363 0 0.000782926)
(-0.00104595 0 0.000862252)
(-0.00105817 0 0.000906132)
(-0.00110371 0 0.000846799)
(-0.00115672 0 0.000698536)
(-0.00111835 0 0.000661239)
(-0.00112759 0 0.000570802)
(-0.00116881 0 0.000406858)
(-0.00113614 0 0.000395772)
(-0.00113407 0 0.000347888)
(-0.00115269 0 0.000283924)
(-0.00117406 0 0.000210023)
(-0.00118084 0 0.000186319)
(-0.00118961 0 0.000146145)
(-0.00119503 0 0.000123972)
(-0.00119931 0 4.32908e-05)
(-0.00119726 0 1.6355e-05)
(-0.00119792 0 -3.13148e-05)
(-0.00119436 0 -5.50944e-05)
(-0.0011964 0 -6.86872e-05)
(-0.00118513 0 -7.73219e-05)
(-0.0011309 0 -7.74177e-05)
(-0.00110085 0 -9.0359e-05)
(-0.00109483 0 -7.47233e-05)
(-0.00107425 0 -0.000148521)
(-0.00104688 0 -0.000195368)
(-0.00105471 0 -0.000148581)
(-0.00107026 0 -0.000146889)
(-0.00101441 0 -0.000285976)
(-0.000939156 0 -0.000358196)
(-0.00091642 0 -0.000377965)
(-0.000859227 0 -0.00047907)
(-0.000780699 0 -0.000565463)
(-0.00072325 0 -0.0005951)
(-0.000660864 0 -0.000646474)
(-0.00064031 0 -0.000656884)
(-0.000592226 0 -0.000688978)
(-0.000553716 0 -0.000706887)
(-0.000523205 0 -0.0007181)
(-0.000464136 0 -0.000722272)
(-0.000451785 0 -0.000684844)
(-0.000401372 0 -0.000645719)
(-0.000370156 0 -0.000612493)
(-0.000317955 0 -0.000570035)
(-0.000148894 0 -0.000484749)
(9.67718e-07 0 -0.000340554)
(8.84032e-05 0 -0.000272037)
(0.000131354 0 -0.000259896)
(0.000181832 0 -0.00023526)
(0.000209071 0 -0.000239614)
(0.000279318 0 -0.000183689)
(0.000314563 0 -0.000182974)
(0.000358012 0 -8.04601e-05)
(0.000371549 0 -6.83205e-05)
(0.000385975 0 -1.22726e-06)
(0.000389344 0 2.74887e-05)
(0.000402312 0 4.73353e-05)
(0.000402687 0 0.000113219)
(0.000393675 0 0.000124253)
(0.000380868 0 9.91301e-05)
(0.00032861 0 0.000176777)
(0.000328854 0 0.000206904)
(0.000289761 0 0.000318218)
(0.000308331 0 0.000394026)
(0.000268259 0 0.000548162)
(0.000402512 0 0.000538058)
(7.76915e-05 0 0.000542395)
(8.37318e-06 0 -0.000175774)
(-1.57065e-12 0 -1.41672e-12)
(-4.23578e-13 0 -3.79689e-13)
(7.86009e-13 0 -2.48451e-13)
(8.21244e-13 0 -1.82716e-13)
(9.12123e-13 0 -1.5972e-13)
(1.01271e-12 0 -1.57437e-13)
(1.10619e-12 0 -1.61271e-13)
(1.18812e-12 0 -1.62896e-13)
(1.25826e-12 0 -1.58256e-13)
(1.31739e-12 0 -1.45839e-13)
(1.3662e-12 0 -1.25552e-13)
(1.40507e-12 0 -9.80613e-14)
(1.43414e-12 0 -6.44182e-14)
(1.4534e-12 0 -2.58508e-14)
(1.46286e-12 0 1.63626e-14)
(1.46254e-12 0 6.09635e-14)
(1.45259e-12 0 1.06768e-13)
(1.43329e-12 0 1.52704e-13)
(1.40504e-12 0 1.97843e-13)
(1.36837e-12 0 2.41411e-13)
(1.32388e-12 0 2.82801e-13)
(1.27221e-12 0 3.21563e-13)
(1.21403e-12 0 3.57391e-13)
(1.15002e-12 0 3.90108e-13)
(1.08086e-12 0 4.19645e-13)
(1.00722e-12 0 4.46022e-13)
(9.2973e-13 0 4.69323e-13)
(8.48986e-13 0 4.89686e-13)
(7.65525e-13 0 5.07276e-13)
(6.79827e-13 0 5.2228e-13)
(5.92307e-13 0 5.34891e-13)
(5.03318e-13 0 5.45297e-13)
(4.13161e-13 0 5.53675e-13)
(3.22093e-13 0 5.60182e-13)
(2.3034e-13 0 5.64948e-13)
(1.38111e-13 0 5.68078e-13)
(4.59512e-14 0 5.69642e-13)
(-2.87511e-05 0 -0.000156288)
(-1.05367e-05 0 -0.000105823)
(-1.01485e-05 0 -5.08436e-05)
(-4.57477e-05 0 4.20258e-05)
(-7.63871e-05 0 0.000138876)
(-9.29087e-05 0 0.000160298)
(-0.000194602 0 0.000101694)
(-0.000318775 0 0.000113566)
(-0.000372646 0 0.000153278)
(-0.000307145 0 0.000298997)
(-0.000408263 0 0.000241498)
(-0.000482607 0 0.000369222)
(-0.000601014 0 0.000483638)
(-0.00074263 0 0.000624986)
(-0.000948566 0 0.000705468)
(-0.0010242 0 0.000849447)
(-0.000989403 0 0.000962843)
(-0.00103373 0 0.000927985)
(-0.00104 0 0.00087855)
(-0.00103767 0 0.000775036)
(-0.00102392 0 0.000687769)
(-0.00101553 0 0.00060964)
(-0.0010589 0 0.000481637)
(-0.00110503 0 0.000315896)
(-0.00108031 0 0.000263604)
(-0.00105506 0 0.000276536)
(-0.00106505 0 0.000225416)
(-0.00107434 0 0.000178605)
(-0.00107566 0 0.000111052)
(-0.00107449 0 0.000102561)
(-0.00108267 0 7.00304e-05)
(-0.00109574 0 3.33357e-05)
(-0.00110201 0 3.10546e-05)
(-0.00109498 0 -1.96365e-05)
(-0.00108841 0 -2.03379e-05)
(-0.00108307 0 -8.33031e-05)
(-0.00104944 0 -0.000122959)
(-0.00100709 0 -0.000153224)
(-0.000987462 0 -0.000166507)
(-0.000984704 0 -0.000147234)
(-0.000964665 0 -0.000190992)
(-0.000947906 0 -0.000247064)
(-0.000939622 0 -0.000293358)
(-0.000937422 0 -0.000306397)
(-0.000909503 0 -0.000366975)
(-0.000858142 0 -0.000456131)
(-0.000802244 0 -0.000538406)
(-0.000771463 0 -0.000574862)
(-0.00070831 0 -0.000651607)
(-0.00070952 0 -0.000660037)
(-0.000680075 0 -0.000692215)
(-0.000667907 0 -0.000709063)
(-0.000661734 0 -0.000718342)
(-0.000623118 0 -0.000735747)
(-0.000636438 0 -0.000711571)
(-0.000631614 0 -0.000681756)
(-0.000573469 0 -0.000675211)
(-0.000498565 0 -0.000660801)
(-0.000442113 0 -0.000610022)
(-0.00037648 0 -0.000584325)
(-0.00027731 0 -0.000512544)
(-0.000133882 0 -0.000421531)
(1.18115e-05 0 -0.000325135)
(9.28682e-05 0 -0.000268469)
(0.00012242 0 -0.000252768)
(0.00015045 0 -0.000252051)
(0.00020708 0 -0.000187613)
(0.000245683 0 -0.000121279)
(0.000267709 0 -8.44208e-05)
(0.000284 0 -1.60236e-05)
(0.000294916 0 1.1952e-05)
(0.000321896 0 2.43903e-05)
(0.000335872 0 0.000127566)
(0.00036154 0 6.28643e-05)
(0.000329444 0 0.000148462)
(0.000313042 0 0.000197573)
(0.00029912 0 0.000249593)
(0.000291269 0 0.000308139)
(0.000335476 0 0.000351976)
(0.000225447 0 0.000526511)
(0.000297071 0 0.000533584)
(-1.23251e-05 0 0.000549958)
(8.02952e-06 0 8.17482e-05)
(-1.34069e-12 0 -5.18249e-13)
(-4.25059e-13 0 -1.606e-13)
(8.06733e-13 0 -2.40478e-13)
(8.37927e-13 0 -2.57658e-13)
(9.19933e-13 0 -2.58153e-13)
(1.01547e-12 0 -2.55617e-13)
(1.10926e-12 0 -2.50988e-13)
(1.19556e-12 0 -2.41972e-13)
(1.27232e-12 0 -2.26528e-13)
(1.33891e-12 0 -2.03594e-13)
(1.39506e-12 0 -1.72991e-13)
(1.44055e-12 0 -1.35209e-13)
(1.47515e-12 0 -9.11831e-14)
(1.49872e-12 0 -4.2135e-14)
(1.51117e-12 0 1.05767e-14)
(1.51257e-12 0 6.55595e-14)
(1.50314e-12 0 1.2147e-13)
(1.48329e-12 0 1.7708e-13)
(1.45359e-12 0 2.3132e-13)
(1.41473e-12 0 2.83313e-13)
(1.36749e-12 0 3.3238e-13)
(1.31269e-12 0 3.78036e-13)
(1.25113e-12 0 4.19971e-13)
(1.18363e-12 0 4.58029e-13)
(1.11097e-12 0 4.92182e-13)
(1.03391e-12 0 5.22501e-13)
(9.53134e-13 0 5.49135e-13)
(8.69284e-13 0 5.72284e-13)
(7.82922e-13 0 5.92179e-13)
(6.94537e-13 0 6.09066e-13)
(6.04545e-13 0 6.23195e-13)
(5.13289e-13 0 6.34806e-13)
(4.2105e-13 0 6.44117e-13)
(3.28061e-13 0 6.51324e-13)
(2.34516e-13 0 6.5659e-13)
(1.40591e-13 0 6.60039e-13)
(4.67771e-14 0 6.61759e-13)
(-1.36813e-05 0 -0.00015366)
(-1.93045e-05 0 -9.30637e-05)
(-3.4112e-05 0 -1.95245e-05)
(-7.89377e-05 0 7.83491e-05)
(-0.000142317 0 0.00017151)
(-0.000152474 0 0.000203536)
(-0.000160843 0 0.000205856)
(-0.000277435 0 0.000210579)
(-0.000345998 0 0.0002809)
(-0.000496499 0 0.000166168)
(-0.000449402 0 0.00029371)
(-0.000314849 0 0.000603692)
(-0.00071588 0 0.000569834)
(-0.000787844 0 0.000790043)
(-0.000922277 0 0.000856717)
(-0.000959044 0 0.000922975)
(-0.000975645 0 0.00096102)
(-0.00100794 0 0.000925619)
(-0.00103769 0 0.000794844)
(-0.00103508 0 0.000660462)
(-0.000961537 0 0.000633246)
(-0.00094771 0 0.000533662)
(-0.000938585 0 0.000483757)
(-0.000953283 0 0.000444606)
(-0.000987498 0 0.000348046)
(-0.0010048 0 0.000212817)
(-0.000976522 0 0.000236593)
(-0.000978149 0 0.000170233)
(-0.00097629 0 0.000148802)
(-0.000977209 0 0.000121174)
(-0.000980955 0 8.33511e-05)
(-0.000988835 0 3.08835e-05)
(-0.000990614 0 9.94703e-06)
(-0.000977142 0 -7.03227e-05)
(-0.000964091 0 -9.51681e-05)
(-0.000960161 0 -0.000107444)
(-0.000963628 0 -0.000117449)
(-0.000942689 0 -0.000155063)
(-0.000911856 0 -0.000148674)
(-0.000894912 0 -0.000145806)
(-0.000883023 0 -0.000186601)
(-0.000882002 0 -0.000205427)
(-0.000886486 0 -0.000224566)
(-0.000851989 0 -0.000357566)
(-0.00083853 0 -0.00040896)
(-0.00078163 0 -0.000537662)
(-0.000779206 0 -0.00057038)
(-0.000738515 0 -0.000634923)
(-0.000733843 0 -0.000657618)
(-0.000722127 0 -0.00068148)
(-0.000727205 0 -0.000689968)
(-0.000736351 0 -0.000705275)
(-0.000732583 0 -0.000720424)
(-0.000727241 0 -0.000725963)
(-0.000707655 0 -0.000729506)
(-0.000667445 0 -0.000723533)
(-0.000625119 0 -0.000709768)
(-0.000585729 0 -0.00068459)
(-0.000575783 0 -0.000618749)
(-0.00050953 0 -0.000587852)
(-0.000412115 0 -0.000571959)
(-0.000339171 0 -0.000526372)
(-0.000239792 0 -0.000479416)
(-8.25022e-05 0 -0.000389241)
(-1.02258e-05 0 -0.000334581)
(7.59092e-05 0 -0.00027625)
(0.00012416 0 -0.000227612)
(0.000153063 0 -0.000149046)