0 	-15.2176
0.010101 	-9.60417
0.020202 	-9.60417
0.030303 	-9.60416
0.040404 	-9.60401
0.0505051 	-9.60123
0.0606061 	-9.56277
0.0707071 	-9.59735
0.0808081 	-9.60379
0.0909091 	-9.60414
