0 	-1.29327e-11 	2.07874e-27 	6.94113e-12
0.010101 	3.76329e-10 	3.53291e-27 	-1.87679e-11
0.020202 	2.55846e-11 	6.90876e-29 	1.47847e-12
