/*--------------------------------*- C++ -*----------------------------------*\
  =========                 |
  \\      /  F ield         | OpenFOAM: The Open Source CFD Toolbox
   \\    /   O peration     | Website:  https://openfoam.org
    \\  /    A nd           | Version:  6
     \\/     M anipulation  |
\*---------------------------------------------------------------------------*/
FoamFile
{
    version     2.0;
    format      ascii;
    class       volVectorField;
    location    "2050";
    object      U;
}
// * * * * * * * * * * * * * * * * * * * * * * * * * * * * * * * * * * * * * //

dimensions      [0 1 -1 0 0 0 0];

internalField   nonuniform List<vector> 
4800
(
(-3.31328e-05 0 -2.63843e-05)
(-5.32789e-05 0 -1.34399e-05)
(-0.000104869 0 4.196e-05)
(-0.000224458 0 2.90213e-05)
(-0.000372463 0 -2.96536e-05)
(-0.00046282 0 0.000149903)
(-0.000652451 0 4.8292e-05)
(-0.000770896 0 -3.4104e-05)
(-0.00081944 0 0.000114578)
(-0.000874287 0 -2.62096e-05)
(-0.0009072 0 -9.26086e-06)
(-0.000936308 0 -2.27906e-05)
(-0.000972658 0 -5.76856e-05)
(-0.00100284 0 -4.26366e-05)
(-0.00101179 0 -4.55919e-05)
(-0.000998644 0 -0.000113341)
(-0.000963383 0 -0.000161968)
(-0.000898423 0 -0.000192776)
(-0.000815749 0 -0.000135766)
(-0.000716192 0 -9.71889e-05)
(-0.000625532 0 -0.000137303)
(-0.000594617 0 -0.00013992)
(-0.000598718 0 -9.70107e-05)
(-0.000497568 0 -7.51789e-05)
(-0.00028971 0 -0.000207946)
(-0.00018767 0 -0.000103707)
(-5.71829e-05 0 -0.000213557)
(0.000100824 0 -1.41416e-05)
(0.000173781 0 -5.47126e-05)
(0.000278156 0 -6.35624e-05)
(0.000396129 0 2.08145e-05)
(0.000429087 0 -5.74153e-05)
(0.000436336 0 -7.17246e-05)
(0.00046325 0 -8.69114e-05)
(0.000517354 0 -7.18022e-05)
(0.000555812 0 -0.000105841)
(0.000597708 0 -4.84416e-05)
(0.000633281 0 -0.000132996)
(0.000724086 0 -0.000121848)
(0.000855772 0 -4.46109e-05)
(0.000980011 0 -8.5282e-05)
(0.00107018 0 -0.000160741)
(0.00117222 0 -0.000164893)
(0.00132066 0 -6.216e-05)
(0.00144367 0 -0.000156917)
(0.00151563 0 -0.000220996)
(0.00156084 0 -0.000108911)
(0.00159997 0 -8.15397e-05)
(0.00166196 0 -6.40369e-05)
(0.00169513 0 -2.44496e-05)
(0.00169241 0 -3.07865e-05)
(0.00170837 0 -1.34838e-05)
(0.00171141 0 1.79387e-05)
(0.00169152 0 1.53525e-05)
(0.00164821 0 4.90044e-05)
(0.00159018 0 7.21769e-05)
(0.00152367 0 3.00492e-05)
(0.00143737 0 0.000113175)
(0.00134613 0 4.95666e-05)
(0.00126388 0 3.09676e-05)
(0.001168 0 0.0001152)
(0.00104767 0 4.54275e-05)
(0.000927261 0 8.58808e-07)
(0.000840148 0 4.27605e-05)
(0.000776042 0 0.000108144)
(0.000710952 0 2.71063e-05)
(0.000581727 0 -9.38056e-05)
(0.000476706 0 -8.92386e-05)
(0.000399028 0 -0.00014049)
(0.000280592 0 -8.28226e-05)
(0.000141576 0 2.4912e-05)
(5.34496e-05 0 -5.08683e-06)
(-9.04753e-06 0 -6.87171e-05)
(-4.93584e-05 0 -1.35231e-05)
(-8.06047e-05 0 3.68943e-05)
(-0.00033195 0 -5.76701e-05)
(-0.000420098 0 -0.000241536)
(-0.000496061 0 -0.000227994)
(-0.000589587 0 -0.00022169)
(4.34693e-06 0 -0.000155899)
(-1.38153e-12 0 -3.70836e-14)
(-3.55553e-12 0 -4.64639e-14)
(-2.22082e-12 0 -4.18267e-14)
(-2.13526e-12 0 -4.44141e-14)
(-2.04083e-12 0 -5.01652e-14)
(-1.93354e-12 0 -5.73707e-14)
(-1.81158e-12 0 -6.49995e-14)
(-1.6747e-12 0 -7.23628e-14)
(-1.52389e-12 0 -7.90214e-14)
(-1.36081e-12 0 -8.46406e-14)
(-1.1878e-12 0 -8.89764e-14)
(-1.0076e-12 0 -9.18615e-14)
(-8.23224e-13 0 -9.32014e-14)
(-6.37776e-13 0 -9.29696e-14)
(-4.54364e-13 0 -9.11981e-14)
(-2.75971e-13 0 -8.79692e-14)
(-1.05368e-13 0 -8.34082e-14)
(5.4962e-14 0 -7.76754e-14)
(2.02877e-13 0 -7.09555e-14)
(3.3661e-13 0 -6.34472e-14)
(4.54796e-13 0 -5.53531e-14)
(5.56477e-13 0 -4.68731e-14)
(6.41085e-13 0 -3.81979e-14)
(7.08418e-13 0 -2.95039e-14)
(7.58588e-13 0 -2.09475e-14)
(7.91979e-13 0 -1.26607e-14)
(8.09203e-13 0 -4.74969e-15)
(8.11067e-13 0 2.70417e-15)
(7.98537e-13 0 9.64157e-15)
(7.72702e-13 0 1.60212e-14)
(7.34742e-13 0 2.18165e-14)
(6.85883e-13 0 2.70119e-14)
(6.27368e-13 0 3.1601e-14)
(5.60428e-13 0 3.55846e-14)
(4.86272e-13 0 3.89688e-14)
(4.06071e-13 0 4.1764e-14)
(3.20965e-13 0 4.39834e-14)
(2.3206e-13 0 4.56436e-14)
(1.40419e-13 0 4.67711e-14)
(4.70225e-14 0 4.74296e-14)
(-4.8645e-05 0 7.16314e-05)
(-6.29248e-05 0 0.000136984)
(-0.000234701 0 0.000160205)
(-0.000286396 0 0.000222776)
(-0.000445544 0 0.000190761)
(-0.000654187 0 -5.79722e-05)
(-0.0006997 0 0.000169587)
(-0.000781361 0 0.0002017)
(-0.000899074 0 -3.9954e-05)
(-0.000946842 0 0.000145437)
(-0.000997805 0 7.77895e-05)
(-0.00102819 0 6.82374e-05)
(-0.00104542 0 8.71394e-05)
(-0.00104819 0 7.21665e-05)
(-0.00100669 0 2.50755e-05)
(-0.000981073 0 -1.47447e-05)
(-0.000967449 0 -6.04956e-05)
(-0.000943311 0 -0.000123)
(-0.000899151 0 -9.1168e-05)
(-0.000838338 0 -6.6282e-05)
(-0.000767037 0 -0.000125082)
(-0.00071301 0 3.54727e-06)
(-0.000622856 0 4.47572e-05)
(-0.000511746 0 -0.000120989)
(-0.000264657 0 -0.00036233)
(-0.000296166 0 -4.90854e-05)
(-7.30202e-05 0 -0.000186417)
(-4.11574e-05 0 -0.000140894)
(6.99247e-05 0 -0.000210994)
(0.000250073 0 -6.37939e-05)
(0.000311012 0 4.08194e-05)
(0.000381377 0 2.16828e-05)
(0.000429998 0 8.27073e-06)
(0.000477012 0 7.18539e-06)
(0.00052568 0 4.02102e-05)
(0.00056377 0 1.66416e-05)
(0.000588374 0 -6.81886e-05)
(0.000637064 0 -7.80557e-05)
(0.000704951 0 -0.000121916)
(0.000778873 0 -0.000234089)
(0.000893026 0 -0.000188098)
(0.00098769 0 -0.000124454)
(0.00106532 0 -0.000190555)
(0.00119688 0 -0.000133127)
(0.00135235 0 -7.33503e-05)
(0.00139927 0 -7.87693e-05)
(0.00139756 0 -8.66695e-05)
(0.00142551 0 -8.61412e-05)
(0.00149723 0 1.81585e-05)
(0.00152263 0 -7.07392e-06)
(0.0015329 0 -2.39244e-05)
(0.00156654 0 -1.2568e-05)
(0.00158652 0 2.78276e-05)
(0.00157959 0 2.87246e-05)
(0.00156203 0 3.2105e-05)
(0.0015296 0 5.46103e-05)
(0.00147669 0 0.000106868)
(0.00140254 0 0.000102222)
(0.00131185 0 0.000104551)
(0.00121786 0 0.000188796)
(0.00113747 0 0.000117819)
(0.0010297 0 0.000117243)
(0.000908046 0 0.000197882)
(0.000828376 0 8.26348e-05)
(0.000767617 0 1.88081e-05)
(0.000694983 0 0.000116146)
(0.000610333 0 0.000199742)
(0.000523508 0 0.000203999)
(0.000401842 0 0.000206544)
(0.000237943 0 0.000214533)
(0.000156081 0 0.000159527)
(0.00010909 0 0.00010012)
(7.00326e-05 0 0.000119243)
(3.13495e-05 0 0.000118692)
(6.20428e-05 0 0.000141156)
(3.12122e-05 0 0.000159733)
(3.26662e-05 0 9.26281e-05)
(0.000383097 0 6.90061e-05)
(-0.00042423 0 -0.000152754)
(4.87162e-06 0 -7.67384e-05)
(-1.40114e-12 0 -2.73411e-15)
(-3.53522e-12 0 -1.146e-13)
(-2.21986e-12 0 -1.17907e-13)
(-2.1443e-12 0 -1.30553e-13)
(-2.05411e-12 0 -1.49606e-13)
(-1.9484e-12 0 -1.72087e-13)
(-1.82652e-12 0 -1.95518e-13)
(-1.68873e-12 0 -2.18047e-13)
(-1.53616e-12 0 -2.38376e-13)
(-1.37077e-12 0 -2.55499e-13)
(-1.19502e-12 0 -2.68688e-13)
(-1.01183e-12 0 -2.77449e-13)
(-8.24332e-13 0 -2.81505e-13)
(-6.35773e-13 0 -2.80778e-13)
(-4.49363e-13 0 -2.75371e-13)
(-2.68181e-13 0 -2.65539e-13)
(-9.50741e-14 0 -2.51673e-13)
(6.74147e-14 0 -2.34263e-13)
(2.17105e-13 0 -2.13874e-13)
(3.52212e-13 0 -1.91111e-13)
(4.71371e-13 0 -1.66595e-13)
(5.73632e-13 0 -1.40936e-13)
(6.58454e-13 0 -1.14718e-13)
(7.25668e-13 0 -8.84746e-14)
(7.75431e-13 0 -6.26728e-14)
(8.08177e-13 0 -3.7702e-14)
(8.24568e-13 0 -1.38721e-14)
(8.25459e-13 0 8.58017e-15)
(8.11854e-13 0 2.94799e-14)
(7.84877e-13 0 4.87024e-14)
(7.45733e-13 0 6.6164e-14)
(6.95668e-13 0 8.18137e-14)
(6.3594e-13 0 9.56293e-14)
(5.67796e-13 0 1.07612e-13)
(4.92451e-13 0 1.17781e-13)
(4.11086e-13 0 1.26171e-13)
(3.24845e-13 0 1.32822e-13)
(2.34848e-13 0 1.37782e-13)
(1.42205e-13 0 1.41102e-13)
(4.76809e-14 0 1.42855e-13)
(-0.000108909 0 9.94293e-05)
(-0.000137066 0 0.000254401)
(-0.000162445 0 0.000364202)
(-0.000460581 0 0.000202913)
(-0.000481678 0 0.000253156)
(-0.000626487 0 0.000343838)
(-0.000764628 0 0.000200269)
(-0.000827842 0 0.000166145)
(-0.000882921 0 0.000239852)
(-0.000951051 0 0.0001096)
(-0.000975209 0 7.08691e-05)
(-0.000989404 0 3.96594e-05)
(-0.000992805 0 1.86307e-05)
(-0.000992913 0 -1.17384e-05)
(-0.000945682 0 -5.83316e-05)
(-0.000903311 0 -8.06117e-05)
(-0.000882266 0 -9.54905e-05)
(-0.000878106 0 -9.8813e-05)
(-0.000881034 0 -9.9092e-05)
(-0.000861434 0 -0.000143821)
(-0.000771929 0 -0.0001926)
(-0.000667797 0 -0.00017764)
(-0.000552423 0 -0.000220916)
(-0.000392067 0 -0.000346136)
(-0.000229073 0 -0.00035716)
(-0.000146529 0 -0.000291184)
(9.33433e-06 0 -0.000262439)
(0.000202531 0 -0.000298947)
(0.000272545 0 -0.00024188)
(0.000295581 0 -0.000251846)
(0.000388871 0 -0.00023717)
(0.000443031 0 -0.000175238)
(0.000473065 0 -0.000177035)
(0.000511052 0 -0.000197514)
(0.000565614 0 -0.000137634)
(0.000585855 0 -0.000151758)
(0.000617893 0 -0.000128595)
(0.000651335 0 -0.000173091)
(0.000688778 0 -0.000261459)
(0.000789038 0 -0.00018977)
(0.000825895 0 -0.00023951)
(0.00091269 0 -0.00012168)
(0.00090682 0 -0.000522824)
(0.00114296 0 1.40379e-06)
(0.00120822 0 -7.39327e-05)
(0.00121022 0 -0.000177298)
(0.00123198 0 -0.000199415)
(0.0012923 0 -0.000212609)
(0.00136656 0 -2.09083e-05)
(0.00138327 0 -7.40672e-05)
(0.00142047 0 -0.000129453)
(0.00148839 0 -2.51423e-05)
(0.00148679 0 1.07138e-06)
(0.00146983 0 4.75154e-05)
(0.00145371 0 9.40898e-05)
(0.00143254 0 0.000112673)
(0.00138458 0 0.000141219)
(0.00129461 0 0.000222202)
(0.00120948 0 0.000205224)
(0.00112727 0 0.000248454)
(0.00103185 0 0.000320736)
(0.000952846 0 0.000289067)
(0.000877425 0 0.000195096)
(0.000790656 0 0.00018477)
(0.000717342 0 0.000237867)
(0.000661656 0 0.000236749)
(0.000597134 0 0.000209652)
(0.000480018 0 0.000248812)
(0.00037639 0 0.000260827)
(0.000278325 0 0.000262877)
(0.000201725 0 0.000237153)
(0.000127093 0 0.000194221)
(8.74642e-05 0 0.000144608)
(7.54153e-05 0 8.56973e-05)
(9.85666e-05 0 8.81892e-05)
(0.000141044 0 9.24452e-05)
(0.000125775 0 2.53542e-06)
(0.000281037 0 -7.34606e-05)
(-0.000341044 0 -0.00013867)
(5.14413e-06 0 -7.06284e-06)
(-1.43206e-12 0 4.85661e-14)
(-3.57416e-12 0 -1.71505e-13)
(-2.23766e-12 0 -1.84375e-13)
(-2.16747e-12 0 -2.10668e-13)
(-2.0825e-12 0 -2.46111e-13)
(-1.97934e-12 0 -2.86186e-13)
(-1.85744e-12 0 -3.27149e-13)
(-1.71756e-12 0 -3.66183e-13)
(-1.56134e-12 0 -4.01203e-13)
(-1.39112e-12 0 -4.30576e-13)
(-1.20975e-12 0 -4.53121e-13)
(-1.02042e-12 0 -4.68038e-13)
(-8.26553e-13 0 -4.74886e-13)
(-6.31642e-13 0 -4.73554e-13)
(-4.39125e-13 0 -4.64236e-13)
(-2.52273e-13 0 -4.4739e-13)
(-7.40915e-14 0 -4.237e-13)
(9.2761e-14 0 -3.94022e-13)
(2.46028e-13 0 -3.59335e-13)
(3.83889e-13 0 -3.20682e-13)
(5.04972e-13 0 -2.79127e-13)
(6.08353e-13 0 -2.35712e-13)
(6.93547e-13 0 -1.91424e-13)
(7.60463e-13 0 -1.4716e-13)
(8.09361e-13 0 -1.03702e-13)
(8.4078e-13 0 -6.16959e-14)
(8.55486e-13 0 -2.16562e-14)
(8.54419e-13 0 1.60264e-14)
(8.38659e-13 0 5.10645e-14)
(8.09386e-13 0 8.32546e-14)
(7.67853e-13 0 1.12461e-13)
(7.15348e-13 0 1.38606e-13)
(6.53166e-13 0 1.61659e-13)
(5.8258e-13 0 1.81629e-13)
(5.04831e-13 0 1.98557e-13)
(4.21112e-13 0 2.12506e-13)
(3.32577e-13 0 2.2355e-13)
(2.4034e-13 0 2.31765e-13)
(1.45492e-13 0 2.37212e-13)
(4.87748e-14 0 2.39922e-13)
(-3.98515e-05 0 0.000218393)
(-0.000284746 0 0.000306206)
(-0.000218741 0 0.000491289)
(-0.000128115 0 0.000580074)
(-0.00053307 0 0.00035756)
(-0.000567544 0 0.000469369)
(-0.000706245 0 0.000411885)
(-0.000793727 0 0.000285356)
(-0.000862105 0 0.000190917)
(-0.000894058 0 0.000172945)
(-0.00090487 0 0.000129271)
(-0.000910885 0 8.00677e-05)
(-0.000934238 0 6.31405e-06)
(-0.000945544 0 5.76816e-06)
(-0.000931323 0 -6.49835e-05)
(-0.00085792 0 -0.000148003)
(-0.000810524 0 -0.00013104)
(-0.000785562 0 -0.000148177)
(-0.000775196 0 -0.000174681)
(-0.000752868 0 -0.000246011)
(-0.0006895 0 -0.000246568)
(-0.000570823 0 -0.000260876)
(-0.00045709 0 -0.000316136)
(-0.000253328 0 -0.000491387)
(-4.07974e-05 0 -0.00058588)
(6.65899e-05 0 -0.000539721)
(0.000241525 0 -0.000478025)
(0.000352347 0 -0.000387866)
(0.000420193 0 -0.000331757)
(0.000513434 0 -0.000257849)
(0.000557758 0 -0.000306241)
(0.000654131 0 -0.00017586)
(0.000707047 0 -0.00014172)
(0.000754166 0 -6.88016e-05)
(0.000777155 0 -6.36924e-05)
(0.000770226 0 -0.000112125)
(0.000765851 0 -0.00014213)
(0.000769357 0 -0.000174148)
(0.000760112 0 -0.000252479)
(0.000762993 0 -0.000283727)
(0.000822629 0 -0.000216673)
(0.000756968 0 -0.000516249)
(0.000935124 0 -0.000221157)
(0.00100524 0 -0.000217133)
(0.00100809 0 -0.000343565)
(0.00105493 0 -0.000337109)
(0.00110837 0 -0.000257251)
(0.00116889 0 -0.000168618)
(0.00123531 0 -9.9658e-05)
(0.00126493 0 -0.000161246)
(0.00132964 0 -0.000127366)
(0.00137095 0 -1.11845e-05)
(0.00136163 0 2.17116e-05)
(0.00133724 0 1.5932e-05)
(0.00129713 0 0.00011433)
(0.00126719 0 0.000180746)
(0.00123514 0 0.000226631)
(0.0011955 0 0.000137073)
(0.0011181 0 0.000195455)
(0.00103946 0 0.000286965)
(0.000975636 0 0.00028116)
(0.000897112 0 0.000286332)
(0.00078969 0 0.000334373)
(0.000741467 0 0.000232733)
(0.000695144 0 0.000213876)
(0.000612612 0 0.000277141)
(0.00052088 0 0.000317943)
(0.000443259 0 0.000317598)
(0.000371359 0 0.000328618)
(0.000309986 0 0.000342785)
(0.000241321 0 0.000319226)
(0.000179594 0 0.000232189)
(0.000140664 0 0.000122257)
(0.000113321 0 8.42407e-05)
(0.000121805 0 6.65446e-05)
(0.000153224 0 1.86752e-05)
(0.000126683 0 -3.68545e-05)
(0.000403083 0 -5.42801e-05)
(-0.000446864 0 -8.10806e-05)
(5.31999e-06 0 8.24318e-05)
(-1.44859e-12 0 8.88169e-14)
(-3.56841e-12 0 -2.18229e-13)
(-2.25861e-12 0 -2.37607e-13)
(-2.20563e-12 0 -2.81575e-13)
(-2.12924e-12 0 -3.37913e-13)
(-2.02916e-12 0 -3.99297e-13)
(-1.90643e-12 0 -4.60663e-13)
(-1.76278e-12 0 -5.18382e-13)
(-1.60056e-12 0 -5.69714e-13)
(-1.42268e-12 0 -6.12512e-13)
(-1.23248e-12 0 -6.45197e-13)
(-1.03359e-12 0 -6.66701e-13)
(-8.29848e-13 0 -6.76442e-13)
(-6.25122e-13 0 -6.74304e-13)
(-4.232e-13 0 -6.60609e-13)
(-2.27645e-13 0 -6.36062e-13)
(-4.1706e-14 0 -6.01689e-13)
(1.3178e-13 0 -5.58769e-13)
(2.90445e-13 0 -5.0875e-13)
(4.3242e-13 0 -4.53167e-13)
(5.56341e-13 0 -3.93565e-13)
(6.61335e-13 0 -3.31445e-13)
(7.47006e-13 0 -2.68212e-13)
(8.1339e-13 0 -2.05141e-13)
(8.60895e-13 0 -1.43336e-13)
(8.90222e-13 0 -8.37159e-14)
(9.02291e-13 0 -2.7009e-14)
(8.98179e-13 0 2.62365e-14)
(8.79082e-13 0 7.56262e-14)
(8.46274e-13 0 1.20893e-13)
(8.01084e-13 0 1.61871e-13)
(7.44865e-13 0 1.98479e-13)
(6.78963e-13 0 2.30699e-13)
(6.04694e-13 0 2.58569e-13)
(5.23329e-13 0 2.82165e-13)
(4.36079e-13 0 3.01589e-13)
(3.44104e-13 0 3.16953e-13)
(2.48509e-13 0 3.28366e-13)
(1.50363e-13 0 3.35919e-13)
(5.03914e-14 0 3.39671e-13)
(-7.27735e-05 0 0.000364199)
(-0.000334524 0 0.000456427)
(-0.000595577 0 0.000426669)
(-0.000430567 0 0.000520084)
(-0.000620471 0 0.000418866)
(-0.000616392 0 0.000462177)
(-0.000655506 0 0.000470263)
(-0.000767352 0 0.000310258)
(-0.000799608 0 0.000258624)
(-0.000811304 0 0.00024986)
(-0.000855926 0 8.00212e-05)
(-0.000871503 0 7.76732e-05)
(-0.000887123 0 6.18347e-05)
(-0.000887438 0 5.10299e-06)
(-0.000860757 0 -0.000198611)
(-0.000846296 0 -0.000111216)
(-0.000765461 0 -0.000200368)
(-0.000742019 0 -0.000134452)
(-0.000701104 0 -0.000196769)
(-0.000640297 0 -0.000300242)
(-0.0005852 0 -0.000305304)
(-0.000503306 0 -0.000367951)
(-0.000247986 0 -0.000589859)
(-0.000104535 0 -0.00066962)
(4.78145e-05 0 -0.000688074)
(0.000158045 0 -0.000642142)
(0.000186514 0 -0.000604454)
(0.000363455 0 -0.000510006)
(0.000475191 0 -0.000387762)
(0.000538607 0 -0.000334571)
(0.000583226 0 -0.000334206)
(0.000668636 0 -0.000259905)
(0.000726422 0 -0.000222292)
(0.000775294 0 -0.000127274)
(0.000792257 0 -0.000136987)
(0.000816667 0 -0.000116777)
(0.00081578 0 -0.000119227)
(0.000813457 0 -0.000141022)
(0.000815374 0 -0.000175195)
(0.00078582 0 -0.000284072)
(0.000806361 0 -0.000249199)
(0.000835876 0 -0.000240851)
(0.000738977 0 -0.000512565)
(0.000830288 0 -0.000405683)
(0.000887089 0 -0.000302173)
(0.000923418 0 -0.000346642)
(0.00099629 0 -0.000297451)
(0.00101336 0 -0.000161728)
(0.00106586 0 -4.28722e-05)
(0.00109453 0 -0.000375334)
(0.00120871 0 -0.000111253)
(0.00121367 0 -3.31639e-05)
(0.00122337 0 3.19237e-05)
(0.00121993 0 7.93299e-05)
(0.00119444 0 0.000121605)
(0.00114247 0 0.000200434)
(0.00105169 0 0.000354014)
(0.000964177 0 0.000456827)
(0.000944189 0 0.00043382)
(0.000868861 0 0.000488087)
(0.000828518 0 0.000439672)
(0.000748132 0 0.000457332)
(0.000710324 0 0.000333616)
(0.000674334 0 0.000224171)
(0.000596637 0 0.000339205)
(0.000544392 0 0.000379757)
(0.000500856 0 0.000362853)
(0.000430636 0 0.000381637)
(0.000372454 0 0.000419231)
(0.000335053 0 0.000425217)
(0.000287561 0 0.000384192)
(0.000224569 0 0.000289237)
(0.000174659 0 0.000205096)
(0.000164072 0 0.000120757)
(0.000171015 0 8.93141e-06)
(0.000164697 0 3.13607e-05)
(0.000127894 0 -1.35566e-05)
(0.000349941 0 -3.59396e-05)
(-0.000449064 0 -2.3547e-06)
(5.25196e-06 0 0.000176563)
(-1.43261e-12 0 2.48823e-13)
(-3.58026e-12 0 -2.16882e-13)
(-2.30059e-12 0 -2.66246e-13)
(-2.26737e-12 0 -3.40052e-13)
(-2.19984e-12 0 -4.24574e-13)
(-2.10183e-12 0 -5.12278e-13)
(-1.97646e-12 0 -5.9777e-13)
(-1.82661e-12 0 -6.77015e-13)
(-1.65547e-12 0 -7.46809e-13)
(-1.46661e-12 0 -8.04602e-13)
(-1.26394e-12 0 -8.48482e-13)
(-1.05167e-12 0 -8.7715e-13)
(-8.34156e-13 0 -8.89906e-13)
(-6.15809e-13 0 -8.86658e-13)
(-4.00883e-13 0 -8.67897e-13)
(-1.93354e-13 0 -8.34633e-13)
(3.20098e-15 0 -7.8831e-13)
(1.857e-13 0 -7.30706e-13)
(3.51631e-13 0 -6.63818e-13)
(4.99074e-13 0 -5.89749e-13)
(6.26693e-13 0 -5.10593e-13)
(7.33706e-13 0 -4.28358e-13)
(8.19851e-13 0 -3.44907e-13)
(8.8534e-13 0 -2.61911e-13)
(9.30785e-13 0 -1.80815e-13)
(9.57106e-13 0 -1.02814e-13)
(9.65438e-13 0 -2.88472e-14)
(9.57054e-13 0 4.03872e-14)
(9.33315e-13 0 1.04405e-13)
(8.95631e-13 0 1.62897e-13)
(8.45439e-13 0 2.15695e-13)
(7.84176e-13 0 2.62738e-13)
(7.13256e-13 0 3.04049e-13)
(6.34046e-13 0 3.39714e-13)
(5.47851e-13 0 3.69861e-13)
(4.559e-13 0 3.94646e-13)
(3.59354e-13 0 4.1423e-13)
(2.59306e-13 0 4.28763e-13)
(1.56796e-13 0 4.38372e-13)
(5.25265e-14 0 4.43144e-13)
(-3.4196e-05 0 0.000449826)
(0.000123337 0 0.000640723)
(5.33038e-05 0 0.000737478)
(-0.000413929 0 0.000615135)
(-0.000500095 0 0.000604064)
(-0.000571113 0 0.000573576)
(-0.000601693 0 0.000530119)
(-0.000636715 0 0.000461495)
(-0.000738127 0 0.000294543)
(-0.000773889 0 0.00022772)
(-0.000811553 0 0.000108814)
(-0.00083428 0 8.45671e-05)
(-0.000854006 0 5.10619e-05)
(-0.000839483 0 -5.1034e-05)
(-0.000813812 0 -0.000107307)
(-0.000824788 0 -7.80219e-05)
(-0.000711398 0 -0.000369123)
(-0.000708186 0 -0.000154406)
(-0.000623237 0 -0.000275708)
(-0.000575908 0 -0.000328068)
(-0.000524382 0 -0.000373979)
(-0.000305862 0 -0.000619739)
(-2.17741e-05 0 -0.000728032)
(7.70153e-06 0 -0.000748989)
(0.000110151 0 -0.00077732)
(0.000165151 0 -0.000734924)
(0.000238703 0 -0.000670186)
(0.000287748 0 -0.000622534)
(0.000371336 0 -0.000545699)
(0.000523259 0 -0.000387032)
(0.000556878 0 -0.000368381)
(0.000617358 0 -0.000347283)
(0.000697315 0 -0.000256989)
(0.000743237 0 -0.000167367)
(0.000768383 0 -0.000124022)
(0.000797466 0 -7.28254e-05)
(0.000791089 0 -0.000144133)
(0.000783256 0 -0.000174268)
(0.000788891 0 -0.000215761)
(0.00079564 0 -0.000262241)
(0.000775955 0 -0.00028847)
(0.000744775 0 -0.000337365)
(0.000749391 0 -0.000324372)
(0.000748079 0 -0.000323564)
(0.000635682 0 -0.000554874)
(0.000796482 0 -0.000198978)
(0.000854685 0 -0.000203268)
(0.000856276 0 -0.00035642)
(0.000862415 0 -0.000483954)
(0.00102689 0 -0.000212624)
(0.00102418 0 -0.000224576)
(0.00102652 0 -8.74874e-05)
(0.00103593 0 9.42572e-06)
(0.00104043 0 8.2972e-05)
(0.00104153 0 0.00016839)
(0.00102023 0 0.000208477)
(0.000963235 0 0.000220738)
(0.000928267 0 0.000226818)
(0.000842283 0 0.000410225)
(0.000798388 0 0.000440582)
(0.000750513 0 0.000440221)
(0.000724327 0 0.000376068)
(0.000655552 0 0.000344755)
(0.000589406 0 0.000364724)
(0.000553311 0 0.000405598)
(0.000529407 0 0.000414482)
(0.000513656 0 0.000393418)
(0.00050979 0 0.000382045)
(0.000470505 0 0.000421365)
(0.000402619 0 0.000458921)
(0.000300367 0 0.000465317)
(0.000269029 0 0.000359247)
(0.000225671 0 0.000223213)
(0.000202965 0 0.000110102)
(0.000216758 0 2.64207e-05)
(0.000215318 0 -1.98114e-05)
(0.000161324 0 -1.00701e-05)
(0.000272782 0 2.56631e-05)
(-0.000373855 0 5.9144e-05)
(5.12613e-06 0 0.000283996)
(-1.3954e-12 0 4.52201e-13)
(-3.62973e-12 0 -1.6361e-13)
(-2.38136e-12 0 -2.70195e-13)
(-2.36356e-12 0 -3.87629e-13)
(-2.30109e-12 0 -5.07859e-13)
(-2.20211e-12 0 -6.27185e-13)
(-2.07112e-12 0 -7.4095e-13)
(-1.91182e-12 0 -8.45009e-13)
(-1.72814e-12 0 -9.35833e-13)
(-1.52436e-12 0 -1.01054e-12)
(-1.30503e-12 0 -1.06693e-12)
(-1.07502e-12 0 -1.10346e-12)
(-8.39356e-13 0 -1.11934e-12)
(-6.03113e-13 0 -1.11452e-12)
(-3.71174e-13 0 -1.08972e-12)
(-1.48058e-13 0 -1.04633e-12)
(6.2221e-14 0 -9.86303e-13)
(2.56271e-13 0 -9.12027e-13)
(4.31402e-13 0 -8.26161e-13)
(5.85646e-13 0 -7.3148e-13)
(7.17732e-13 0 -6.30724e-13)
(8.27021e-13 0 -5.26487e-13)
(9.13453e-13 0 -4.2114e-13)
(9.77483e-13 0 -3.1678e-13)
(1.01999e-12 0 -2.15202e-13)
(1.04219e-12 0 -1.17874e-13)
(1.04549e-12 0 -2.5933e-14)
(1.03143e-12 0 5.97944e-14)
(1.00159e-12 0 1.38759e-13)
(9.57564e-13 0 2.1064e-13)
(9.00925e-13 0 2.75295e-13)
(8.33219e-13 0 3.32719e-13)
(7.55938e-13 0 3.83003e-13)
(6.70506e-13 0 4.26309e-13)
(5.78261e-13 0 4.62841e-13)
(4.80448e-13 0 4.92825e-13)
(3.78221e-13 0 5.16483e-13)
(2.72652e-13 0 5.34022e-13)
(1.64744e-13 0 5.45608e-13)
(5.51634e-14 0 5.5136e-13)
(-0.000115729 0 0.000466316)
(-0.000280482 0 0.000626834)
(-3.76259e-05 0 0.000808871)
(-0.00020323 0 0.000790579)
(-0.000354479 0 0.000718648)
(-0.000456895 0 0.000668126)
(-0.000576961 0 0.000543387)
(-0.000661774 0 0.00039168)
(-0.000611926 0 0.000445492)
(-0.000657 0 0.000371251)
(-0.000744806 0 0.000189773)
(-0.000786483 0 0.000115827)
(-0.00079903 0 0.000104507)
(-0.000788089 0 -2.4072e-05)
(-0.000689483 0 -0.000394558)
(-0.000766354 0 -0.000102572)
(-0.000718704 0 -0.000211817)
(-0.000600295 0 -0.000368985)
(-0.000605539 0 -0.000282754)
(-0.000543416 0 -0.000371096)
(-0.000325937 0 -0.000641294)
(-0.000247121 0 -0.000736518)
(-5.29745e-05 0 -0.000843463)
(-4.22018e-05 0 -0.000870566)
(2.622e-05 0 -0.000849866)
(0.000115775 0 -0.000815369)
(0.000167862 0 -0.000756518)
(0.000258962 0 -0.000675895)
(0.000322494 0 -0.000609903)
(0.000418598 0 -0.000499423)
(0.000485451 0 -0.000431572)
(0.000500035 0 -0.00044367)
(0.00061453 0 -0.000264931)
(0.000633535 0 -0.000214594)
(0.000654089 0 -0.000178596)
(0.000677606 0 -0.000168035)
(0.000728903 0 -8.13705e-05)
(0.000720937 0 -0.000189989)
(0.000728995 0 -0.000235698)
(0.000754045 0 -0.000231461)
(0.000759784 0 -0.000197839)
(0.000680344 0 -0.000264681)
(0.000603735 0 -0.000392525)
(0.000608505 0 -0.000401105)
(0.000624967 0 -0.000359806)
(0.000657447 0 -0.000344432)
(0.000437173 0 -0.000694996)
(0.000777877 0 -0.000261739)
(0.000806871 0 -0.000201202)
(0.000832851 0 -0.000206303)
(0.000837456 0 -0.000189441)
(0.000846414 0 -0.000102115)
(0.000833001 0 4.86067e-05)
(0.00083216 0 0.00010147)
(0.000842616 0 0.000249919)
(0.000795845 0 0.000386903)
(0.000790097 0 0.000353142)
(0.000696205 0 0.000470605)
(0.00066986 0 0.000515266)
(0.000672056 0 0.0004991)
(0.00065037 0 0.000497785)
(0.000612385 0 0.000499997)
(0.000602552 0 0.000403276)
(0.000535476 0 0.000420157)
(0.000525029 0 0.000432527)
(0.000514149 0 0.000436834)
(0.000479543 0 0.000460549)
(0.000391298 0 0.000536113)
(0.000366878 0 0.000553316)
(0.000342987 0 0.000552198)
(0.000332663 0 0.00050109)
(0.00033587 0 0.000380151)
(0.0002961 0 0.000227573)
(0.000257267 0 9.08015e-05)
(0.000214457 0 8.4486e-05)
(0.000225453 0 3.6669e-05)
(0.000210876 0 1.62928e-06)
(0.000266178 0 3.11824e-05)
(-0.000278311 0 9.70921e-05)
(4.99822e-06 0 0.000421504)
(-1.32218e-12 0 6.43652e-13)
(-3.70174e-12 0 -3.55343e-15)
(-2.52418e-12 0 -2.62847e-13)
(-2.50463e-12 0 -4.3213e-13)
(-2.43903e-12 0 -5.91842e-13)
(-2.33469e-12 0 -7.47336e-13)
(-2.19425e-12 0 -8.93631e-13)
(-2.0215e-12 0 -1.02607e-12)
(-1.821e-12 0 -1.14081e-12)
(-1.5977e-12 0 -1.23465e-12)
(-1.35685e-12 0 -1.30507e-12)
(-1.10408e-12 0 -1.35027e-12)
(-8.45222e-13 0 -1.36934e-12)
(-5.86195e-13 0 -1.36229e-12)
(-3.3269e-13 0 -1.33011e-12)
(-8.99337e-14 0 -1.27467e-12)
(1.37505e-13 0 -1.1986e-12)
(3.45843e-13 0 -1.10501e-12)
(5.32178e-13 0 -9.97398e-13)
(6.94511e-13 0 -8.79337e-13)
(8.31686e-13 0 -7.54344e-13)
(9.4329e-13 0 -6.25695e-13)
(1.02956e-12 0 -4.96337e-13)
(1.09128e-12 0 -3.68832e-13)
(1.12969e-12 0 -2.45329e-13)
(1.14638e-12 0 -1.27555e-13)
(1.14311e-12 0 -1.68186e-14)
(1.12175e-12 0 8.59592e-14)
(1.08416e-12 0 1.80202e-13)
(1.03217e-12 0 2.65615e-13)
(9.67518e-13 0 3.42126e-13)
(8.91884e-13 0 4.09819e-13)
(8.06847e-13 0 4.68893e-13)
(7.13885e-13 0 5.19617e-13)
(6.14366e-13 0 5.62296e-13)
(5.09542e-13 0 5.9725e-13)
(4.00551e-13 0 6.24783e-13)
(2.88431e-13 0 6.45167e-13)
(1.74134e-13 0 6.5862e-13)
(5.82778e-14 0 6.65293e-13)
(-8.91481e-05 0 0.000555791)
(-0.000251479 0 0.000702376)
(-0.000242446 0 0.000852462)
(-0.000435308 0 0.000805643)
(-0.000292671 0 0.000804484)
(-0.000484066 0 0.000683233)
(-0.000452007 0 0.000660533)
(-0.000520299 0 0.000550515)
(-0.000672386 0 0.000294672)
(-0.000646309 0 0.000272352)
(-0.000659995 0 0.000237386)
(-0.000693772 0 0.000145834)
(-0.00070581 0 3.82538e-05)
(-0.000703643 0 -5.0887e-05)
(-0.000689726 0 -0.000212481)
(-0.000690041 0 -0.000215638)
(-0.000618673 0 -0.000329755)
(-0.000585778 0 -0.000342033)
(-0.000559746 0 -0.000370808)
(-0.00039644 0 -0.000570359)
(-0.000284613 0 -0.000696475)
(-0.000232122 0 -0.000804392)
(-0.000141244 0 -0.000937593)
(-4.61832e-05 0 -0.000954174)
(-4.47254e-05 0 -0.000900747)
(2.79073e-05 0 -0.000869478)
(9.45671e-05 0 -0.000817174)
(0.000173525 0 -0.000751181)
(0.000252067 0 -0.000668625)
(0.000307878 0 -0.000597621)
(0.00041765 0 -0.000474917)
(0.000443526 0 -0.000413644)
(0.000449134 0 -0.000392624)
(0.000519821 0 -0.000233756)
(0.00054016 0 -0.000184058)
(0.000557848 0 -0.000166935)
(0.000596082 0 -0.000160752)
(0.000641529 0 -0.00016698)
(0.000647036 0 -0.00023419)
(0.000647023 0 -0.000244812)
(0.000644025 0 -0.000211927)
(0.000567501 0 -0.000233289)
(0.000544437 0 -0.00026704)
(0.000493526 0 -0.000360408)
(0.00048142 0 -0.000414928)
(0.000496448 0 -0.000405384)
(0.000548125 0 -0.000326302)
(0.000510757 0 -0.000395493)
(0.000522495 0 -0.000422926)
(0.000602696 0 -0.000297469)
(0.000623588 0 -0.000241612)
(0.000645785 0 -9.61278e-05)
(0.000655427 0 -1.40422e-05)
(0.000675951 0 -0.000158164)
(0.000708409 0 0.000154902)
(0.000666057 0 0.000287507)
(0.000629043 0 0.000368031)
(0.00061435 0 0.000417463)
(0.000585023 0 0.000498767)
(0.000573328 0 0.000525494)
(0.00055889 0 0.000537933)
(0.000523977 0 0.000551597)
(0.000553028 0 0.00042546)
(0.00049649 0 0.000444148)
(0.000485003 0 0.000457995)
(0.000498525 0 0.000438342)
(0.000447989 0 0.00047838)
(0.000413253 0 0.000514965)
(0.000366394 0 0.000560008)
(0.000334461 0 0.000574004)
(0.000339614 0 0.000527737)
(0.000327195 0 0.000445289)
(0.000332689 0 0.000300631)
(0.000335191 0 0.000115939)
(0.00030102 0 -4.67988e-05)
(0.00025257 0 2.29615e-05)
(0.000244655 0 6.2027e-05)
(0.000290778 0 6.8508e-05)
(1.02174e-05 0 8.57176e-05)
(5.56196e-05 0 0.000531724)
(8.41157e-13 0 6.55605e-12)
(-3.76838e-12 0 7.99465e-13)
(-2.80948e-12 0 -3.44926e-13)
(-2.69215e-12 0 -4.85815e-13)
(-2.61593e-12 0 -6.79778e-13)
(-2.50369e-12 0 -8.76365e-13)
(-2.34984e-12 0 -1.06002e-12)
(-2.15899e-12 0 -1.22471e-12)
(-1.93672e-12 0 -1.36652e-12)
(-1.68862e-12 0 -1.48201e-12)
(-1.42066e-12 0 -1.56824e-12)
(-1.13929e-12 0 -1.62303e-12)
(-8.5137e-13 0 -1.64526e-12)
(-5.6388e-13 0 -1.635e-12)
(-2.8356e-13 0 -1.59361e-12)
(-1.65476e-14 0 -1.52359e-12)
(2.31881e-13 0 -1.42837e-12)
(4.5747e-13 0 -1.31206e-12)
(6.57078e-13 0 -1.17914e-12)
(8.287e-13 0 -1.03419e-12)
(9.71374e-13 0 -8.81645e-13)
(1.08503e-12 0 -7.25596e-13)
(1.17032e-12 0 -5.69642e-13)
(1.22849e-12 0 -4.16848e-13)
(1.26127e-12 0 -2.6972e-13)
(1.2707e-12 0 -1.3022e-13)
(1.25901e-12 0 2.13858e-16)
(1.22845e-12 0 1.20618e-13)
(1.18125e-12 0 2.30442e-13)
(1.11949e-12 0 3.29473e-13)
(1.04513e-12 0 4.17754e-13)
(9.59986e-13 0 4.95512e-13)
(8.65736e-13 0 5.63094e-13)
(7.63909e-13 0 6.20912e-13)
(6.55895e-13 0 6.69409e-13)
(5.42935e-13 0 7.09023e-13)
(4.26138e-13 0 7.40161e-13)
(3.06488e-13 0 7.63174e-13)
(1.8487e-13 0 7.78344e-13)
(6.18369e-14 0 7.85864e-13)
(-0.000101144 0 0.000736189)
(-0.000288492 0 0.000810443)
(-0.000531218 0 0.000827629)
(-0.000259478 0 0.000927915)
(-0.000454855 0 0.00081036)
(-0.000387001 0 0.00078688)
(-0.000517274 0 0.000627015)
(-0.000514184 0 0.000557041)
(-0.000541001 0 0.000481715)
(-0.000574918 0 0.00037358)
(-0.000594731 0 0.000262618)
(-0.000620718 0 0.000135643)
(-0.000623155 0 6.3647e-05)
(-0.00062439 0 -6.68746e-05)
(-0.000598203 0 -0.000262497)
(-0.000624444 0 -0.000217223)
(-0.000589534 0 -0.000312308)
(-0.000555378 0 -0.000377224)
(-0.000442435 0 -0.000513885)
(-0.000338407 0 -0.000664038)
(-0.000273108 0 -0.00078188)
(-0.000173431 0 -0.000929453)
(-0.000180726 0 -0.000989981)
(-0.000108999 0 -0.000975339)
(-0.000101005 0 -0.000918363)
(-0.00011718 0 -0.000899041)
(-7.53126e-05 0 -0.000903587)
(5.58355e-05 0 -0.000843917)
(5.45578e-05 0 -0.000776556)
(0.000195113 0 -0.000688445)
(0.000365319 0 -0.000515993)
(0.000338049 0 -0.000459154)
(0.000346644 0 -0.000391417)
(0.00042178 0 -0.000250666)
(0.000439402 0 -0.000218139)
(0.000460755 0 -0.000213274)
(0.000512217 0 -0.000188044)
(0.000546494 0 -0.00021584)
(0.000541291 0 -0.000243019)
(0.000542877 0 -0.000214202)
(0.000528526 0 -0.000134152)
(0.00042238 0 -0.000200625)
(0.000389256 0 -0.000269644)
(0.000345407 0 -0.000369407)
(0.000348842 0 -0.000404629)
(0.000349739 0 -0.000403058)
(0.000332614 0 -0.000441855)
(0.00034343 0 -0.00042745)
(0.000344689 0 -0.000410478)
(0.000370133 0 -0.000339989)
(0.000420448 0 -0.000205641)
(0.000418785 0 -1.90905e-05)
(0.000437386 0 4.83056e-05)
(0.000462596 0 0.00012835)
(0.000433498 0 0.000302046)
(0.000477785 0 0.000337777)
(0.000529191 0 0.000355295)
(0.000445826 0 0.00049612)
(0.000435595 0 0.000558107)
(0.000474832 0 0.000537371)
(0.000473254 0 0.00054117)
(0.000476496 0 0.000527751)
(0.000530233 0 0.000404681)
(0.000469343 0 0.000445744)