/*--------------------------------*- C++ -*----------------------------------*\
  =========                 |
  \\      /  F ield         | OpenFOAM: The Open Source CFD Toolbox
   \\    /   O peration     | Website:  https://openfoam.org
    \\  /    A nd           | Version:  6
     \\/     M anipulation  |
\*---------------------------------------------------------------------------*/
FoamFile
{
    version     2.0;
    format      ascii;
    class       volScalarField;
    location    "500";
    object      Su;
}
// * * * * * * * * * * * * * * * * * * * * * * * * * * * * * * * * * * * * * //

dimensions      [0 0 -1 0 0 0 0];

internalField   nonuniform List<scalar> 
4800
(
0.219121
0.216181
0.213246
0.210324
0.207428
0.204573
0.20177
0.199024
0.196337
0.193703
0.191112
0.18855
0.186009
0.183473
0.180923
0.178335
0.175695
0.172985
0.170184
0.167277
0.164255
0.161114
0.157852
0.154472
0.150982
0.147402
0.143756
0.140075
0.136404
0.132785
0.129244
0.125788
0.122422
0.119142
0.115937
0.112799
0.109725
0.106709
0.103743
0.10082
0.0979388
0.0951042
0.0923184
0.0895845
0.0869082
0.0842939
0.0817435
0.0792586
0.076841
0.0744914
0.0722087
0.0699897
0.0678308
0.0657269
0.0636713
0.0616591
0.0596863
0.0577471
0.0558352
0.0539411
0.0520573
0.0501801
0.0483014
0.0464169
0.0445199
0.0426005
0.0406486
0.0386551
0.0366118
0.0345128
0.0323569
0.0301464
0.0278873
0.025585
0.0232441
0.0208678
0.0184603
0.0160298
0.0135764
0.0110901
0.00852581
0.00586816
0.00313921
0.000354456
-0.00247529
-0.005342
-0.00823958
-0.0111632
-0.0141089
-0.0170735
-0.0200541
-0.0230486
-0.0260549
-0.0290714
-0.0320966
-0.0351293
-0.0381685
-0.0412132
-0.0442627
-0.0473163
-0.0503735
-0.0534337
-0.0564966
-0.0595618
-0.0626289
-0.0656978
-0.0687682
-0.0718399
-0.0749128
-0.0779866
-0.0810613
-0.0841368
-0.0872128
-0.0902895
-0.0933666
-0.096444
-0.0995218
-0.1026
-0.105678
-0.108756
0.219123
0.216189
0.213264
0.210353
0.207465
0.204616
0.201814
0.199065
0.196371
0.193726
0.191123
0.188554
0.186005
0.18346
0.180903
0.178316
0.175676
0.172965
0.17017
0.167276
0.164272
0.16115
0.157908
0.154549
0.151084
0.14753
0.143908
0.140258
0.136625
0.133039
0.129524
0.126093
0.122743
0.11947
0.116266
0.11313
0.110059
0.107047
0.104086
0.101172
0.0983034
0.0954814
0.0927054
0.0899792
0.0873082
0.0846947
0.0821399
0.0796505
0.0772289
0.0748761
0.0725905
0.0703688
0.0682079
0.0661011
0.0640409
0.0620232
0.0600416
0.0580894
0.0561624
0.0542531
0.0523559
0.0504686
0.048582
0.0466938
0.0447955
0.0428787
0.040932
0.0389449
0.0369079
0.0348144
0.0326623
0.0304527
0.0281899
0.0258788
0.0235249
0.021132
0.0187026
0.0162415
0.0137504
0.0112211
0.00861576
0.00593419
0.00318994
0.000394674
-0.00244271
-0.00531522
-0.00821734
-0.0111446
-0.0140933
-0.0170603
-0.0200431
-0.0230393
-0.0260471
-0.0290648
-0.0320911
-0.0351247
-0.0381646
-0.04121
-0.0442601
-0.0473141
-0.0503717
-0.0534323
-0.0564954
-0.0595608
-0.0626282
-0.0656972
-0.0687678
-0.0718396
-0.0749125
-0.0779864
-0.0810612
-0.0841367
-0.0872128
-0.0902894
-0.0933665
-0.096444
-0.0995218
-0.1026
-0.105678
-0.108756
0.219129
0.216208
0.213296
0.2104
0.207526
0.204684
0.201883
0.199127
0.196417
0.193752
0.191128
0.188539
0.185975
0.183417
0.180846
0.178249
0.175607
0.1729
0.170116
0.167243
0.164266
0.161178
0.157975
0.15466
0.151245
0.147746
0.144187
0.1406
0.137028
0.133499
0.130033
0.126638
0.123312
0.12005
0.116856
0.11373
0.110669
0.107667
0.10472
0.101825
0.0989786
0.0961768
0.0934173
0.0907024
0.0880362
0.0854205
0.082861
0.0803669
0.0779389
0.0755795
0.0732859
0.0710552
0.0688841
0.0667646
0.0646896
0.062654
0.0606513
0.0586755
0.0567244
0.0547921
0.0528721
0.0509624
0.0490579
0.0471592
0.0452552
0.0433383
0.0413958
0.0394155
0.0373853
0.0352974
0.0331484
0.0309384
0.0286705
0.026348
0.0239763
0.0215622
0.0191082
0.0166064
0.0140492
0.0114458
0.00877838
0.00605743
0.00328647
0.000472121
-0.0023795
-0.00526298
-0.00817381
-0.0111081
-0.0140626
-0.0170345
-0.0200213
-0.0230209
-0.0260316
-0.0290518
-0.0320802
-0.0351156
-0.038157
-0.0412037
-0.0442548
-0.0473098
-0.0503682
-0.0534294
-0.0564931
-0.059559
-0.0626267
-0.0656961
-0.0687669
-0.0718389
-0.074912
-0.077986
-0.0810609
-0.0841365
-0.0872126
-0.0902893
-0.0933665
-0.096444
-0.0995218
-0.1026
-0.105678
-0.108756
0.219135
0.216227
0.21333
0.210448
0.207587
0.204752
0.201949
0.199184
0.196458
0.193769
0.191116
0.188498
0.185907
0.183329
0.180743
0.178132
0.175484
0.172783
0.170015
0.167166
0.164224
0.161181
0.158032
0.154782
0.151441
0.148025
0.144557
0.141063
0.137572
0.134106
0.130687
0.127325
0.124023
0.120781
0.117608
0.114503
0.111465
0.10849
0.105575
0.102715
0.0998991
0.0971228
0.0943832
0.0916813
0.0890223
0.0864092
0.0838498
0.0813516
0.078916
0.076547
0.0742416
0.0719949
0.0698046
0.0676623
0.0655617
0.063496
0.0614605
0.0594516
0.0574662
0.0554998
0.0535433
0.0516005
0.0496705
0.0477528
0.0458376
0.0439165
0.041975
0.0399993
0.0379743
0.0358891
0.0337389
0.0315226
0.0292441
0.0269075
0.0245171
0.0220707
0.0195631
0.0169965
0.0143809
0.0117186
0.00899073
0.00622499
0.00342104
0.000581863
-0.00228892
-0.00518757
-0.00811063
-0.011055
-0.0140178
-0.0169967
-0.0199893
-0.022994
-0.0260089
-0.0290327
-0.0320642
-0.0351022
-0.0381459
-0.0411944
-0.0442472
-0.0473035
-0.050363
-0.0534252
-0.0564897
-0.0595562
-0.0626246
-0.0656944
-0.0687656
-0.0718379
-0.0749112
-0.0779855
-0.0810605
-0.0841362
-0.0872125
-0.0902892
-0.0933664
-0.096444
-0.0995218
-0.1026
-0.105678
-0.108756
0.219141
0.216244
0.213356
0.210484
0.207631
0.2048
0.201995
0.199219
0.196476
0.193764
0.191084
0.188435
0.185812
0.183202
0.180591
0.177965
0.17531
0.172615
0.169864
0.167043
0.164142
0.161152
0.15807
0.154899
0.151644
0.148319
0.144945
0.141547
0.138148
0.134767
0.131414
0.128101
0.124839
0.121636
0.118497
0.115425
0.112423
0.109487
0.106612
0.103789
0.101004
0.0982544
0.0955365
0.0928501
0.0902027
0.0875993
0.0850465
0.0825493
0.08011
0.0777316
0.0754127
0.0731455
0.0709307
0.0687579
0.0666193
0.0645124
0.062435
0.0603812
0.0583474
0.0563333
0.054326
0.0523396
0.0503763
0.0484317
0.0464997
0.044569
0.0426239
0.0406504
0.0386302
0.0365461
0.0343915
0.0321674
0.02988
0.0275307
0.0251149
0.022626
0.0200657
0.0174417
0.0147611
0.0120274
0.00923683
0.00642483
0.00358529
0.000718146
-0.00217504
-0.00509189
-0.00802996
-0.0109868
-0.0139601
-0.0169479
-0.0199481
-0.0229591
-0.0259795
-0.029008
-0.0320434
-0.0350848
-0.0381314
-0.0411824
-0.0442372
-0.0472954
-0.0503563
-0.0534198
-0.0564853
-0.0595527
-0.0626218
-0.0656922
-0.0687639
-0.0718366
-0.0749103
-0.0779848
-0.08106
-0.0841359
-0.0872123
-0.0902891
-0.0933664
-0.0964439
-0.0995218
-0.1026
-0.105678
-0.108756
0.219143
0.21625
0.213368
0.210501
0.20765
0.204817
0.202005
0.199219
0.196461
0.193728
0.191022
0.188341
0.185683
0.18304
0.180402
0.177755
0.175091
0.172397
0.169661
0.166871
0.164015
0.161086
0.15808
0.154997
0.151837
0.148612
0.145345
0.142061
0.138767
0.135475
0.132202
0.128958
0.125754
0.122603
0.119511
0.116484
0.113526
0.110631
0.107793
0.105005
0.10225
0.0995295
0.0968376
0.0941739
0.0915467
0.088959
0.086414
0.0839178
0.0814743
0.0790859
0.0767524
0.0744645
0.0722198
0.07001
0.0678299
0.0656789
0.0635497
0.0614393
0.0593461
0.0572662
0.0551938
0.0531547
0.0511497
0.0491706
0.0472129
0.045262
0.0433019
0.04132
0.0392929
0.0372028
0.035042
0.032811
0.0305128
0.0281428
0.0256924
0.0231589
0.0205475
0.0178681
0.0151301
0.0123401
0.00949999
0.00664597
0.00377147
0.000875315
-0.00204204
-0.00497914
-0.00793426
-0.0109055
-0.0138911
-0.0168893
-0.0198985
-0.0229172
-0.0259441
-0.0289782
-0.0320184
-0.0350639
-0.038114
-0.0411679
-0.0442253
-0.0472855
-0.0503483
-0.0534133
-0.0564801
-0.0595486
-0.0626185
-0.0656896
-0.0687619
-0.0718351
-0.0749092
-0.077984
-0.0810594
-0.0841355
-0.087212
-0.090289
-0.0933663
-0.0964439
-0.0995218
-0.1026
-0.105678
-0.108756
0.219142
0.216248
0.213363
0.210491
0.207635
0.204796
0.201977
0.19918
0.196406
0.193654
0.190922
0.188209
0.185515
0.182837
0.18017
0.177503
0.174827
0.172134
0.169412
0.16665
0.163841
0.160977
0.158051
0.155061
0.152011
0.148906
0.14576
0.142588
0.139401
0.136215
0.133039
0.129881
0.12675
0.123659
0.120625
0.117654
0.114746
0.111894
0.109095
0.106338
0.103611
0.100917
0.0982498
0.0956105
0.0930045
0.0904329
0.0878993
0.0854122
0.082972
0.0805786
0.0782299
0.0759175
0.0736378
0.0713899
0.0691676
0.0669685
0.0647826
0.0626087
0.0604414
0.0582791
0.0561368
0.0540382
0.0519813
0.0499587
0.0479626
0.045976
0.0439844
0.0419748
0.0399224
0.0378179
0.0356478
0.033406
0.0310935
0.0287033
0.0262241
0.0236551
0.021002
0.0182748
0.0154876
0.0126526
0.00977238
0.00688113
0.00397353
0.0010485
-0.00189381
-0.0048524
-0.00782601
-0.0108132
-0.0138125
-0.0168225
-0.0198417
-0.0228691
-0.0259036
-0.028944
-0.0319897
-0.0350399
-0.038094
-0.0411514
-0.0442116
-0.0472743
-0.0503391
-0.0534058
-0.0564741
-0.0595438
-0.0626147
-0.0656867
-0.0687596
-0.0718334
-0.0749079
-0.0779831
-0.0810588
-0.0841351
-0.0872118
-0.0902888
-0.0933662
-0.0964439
-0.0995218
-0.1026
-0.105678
-0.108756
0.219137
0.216233
0.213338
0.210454
0.207587
0.204738
0.201908
0.199099
0.196309
0.193538
0.190783
0.188039
0.185309
0.182596
0.179898
0.177208
0.174518
0.171823
0.169113
0.166382
0.16362
0.160819
0.157972
0.155076
0.152131
0.149142
0.146117
0.143066
0.140002
0.136933
0.133865
0.130808
0.127774
0.124773
0.121813
0.118904
0.116049
0.113243
0.110485
0.107759
0.105059
0.102387
0.0997404
0.0971232
0.0945391
0.0919862
0.0894657
0.0869859
0.0845479
0.0821523
0.0797953
0.0774657
0.0751575
0.0728736
0.0706094
0.0683575
0.0661096
0.063866
0.0616214
0.0593823
0.0571752
0.055018
0.0529108
0.0508447
0.0488069
0.0467815
0.0447512
0.042695
0.0405954
0.0384502
0.0362472
0.0339824
0.031649
0.0292319
0.0267218
0.0241199
0.0214328
0.0186689
0.015841
0.0129662
0.0100511
0.00712614
0.00418723
0.00123387
-0.00173368
-0.00471453
-0.00770764
-0.0107118
-0.0137259
-0.0167487
-0.0197791
-0.022816
-0.0258587
-0.0289063
-0.031958
-0.0350134
-0.0380719
-0.0411331
-0.0441965
-0.0472619
-0.0503291
-0.0533977
-0.0564676
-0.0595386
-0.0626106
-0.0656835
-0.0687572
-0.0718316
-0.0749066
-0.0779821
-0.0810582
-0.0841346
-0.0872115
-0.0902887
-0.0933662
-0.0964439
-0.0995218
-0.1026
-0.105678
-0.108756
0.219129
0.216208
0.213294
0.210393
0.207509
0.204643
0.201799
0.198973
0.196165
0.193373
0.190593
0.187823
0.185061
0.182314
0.179585
0.176872
0.174169
0.171471
0.168772
0.166068
0.16335
0.160609
0.157837
0.15503
0.152189
0.149314
0.146411
0.143486
0.140546
0.137597
0.134646
0.131702
0.128777
0.125879
0.123015
0.120187
0.117394
0.114635
0.111911
0.109216
0.106545
0.103899
0.101275
0.0986768
0.0961108
0.0935775
0.0910791
0.0886199
0.0861971
0.0838065
0.0814417
0.0790936
0.0767565
0.0744334
0.0721235
0.0698187
0.067513
0.0652044
0.0628899
0.0605881
0.0583285
0.056122
0.0539694
0.0518597
0.0497773
0.0477058
0.045623
0.0435098
0.0413593
0.0391602
0.0369057
0.0345973
0.0322243
0.0297664
0.0272154
0.0245736
0.0218465
0.0190461
0.0161868
0.0132815
0.010335
0.00737875
0.00440983
0.00142856
-0.00156439
-0.00456803
-0.00758138
-0.0106034
-0.0136331
-0.0166695
-0.0197117
-0.0227589
-0.0258105
-0.0288657
-0.031924
-0.034985
-0.0380483
-0.0411135
-0.0441804
-0.0472487
-0.0503183
-0.053389
-0.0564606
-0.0595331
-0.0626063
-0.0656802
-0.0687547
-0.0718297
-0.0749052
-0.0779812
-0.0810575
-0.0841342
-0.0872113
-0.0902886
-0.0933662
-0.0964439
-0.0995219
-0.1026
-0.105678
-0.108756
0.219117
0.216172
0.213234
0.21031
0.207404
0.204518
0.201653
0.198805
0.195972
0.193154
0.190346
0.187546
0.184755
0.18198
0.179223
0.176489
0.173774
0.171074
0.168386
0.165704
0.163023
0.160336
0.157637
0.15492
0.15218
0.149418
0.146633
0.14383
0.141014
0.138189
0.135361
0.132537
0.129723
0.126928
0.124154
0.121405
0.118683
0.115985
0.113312
0.110656
0.108018
0.105403
0.102807
0.100238
0.097698
0.0951872
0.0927079
0.0902619
0.0878459
0.0854526
0.0830755
0.0807119
0.0783578
0.0760148
0.0736784
0.0713395
0.0689906
0.0666333
0.0642677
0.0619165
0.0596092
0.0573587
0.0551653
0.0530155
0.0508879
0.0487682
0.0466304
0.044459
0.0422457
0.0399778
0.0376586
0.0352851
0.0328496
0.0303333
0.02773
0.0250412
0.0222714
0.019432
0.0165367
0.0136002
0.0106246
0.00763813
0.00463964
0.00163049
-0.00138815
-0.00441507
-0.00744926
-0.0104898
-0.0135358
-0.0165864
-0.0196411
-0.0226991
-0.0257599
-0.0288231
-0.0318883
-0.0349552
-0.0380235
-0.041093
-0.0441636
-0.047235
-0.0503072
-0.05338
-0.0564534
-0.0595274
-0.0626019
-0.0656768
-0.0687521
-0.0718278
-0.0749039
-0.0779802
-0.0810569
-0.0841339
-0.0872111
-0.0902885
-0.0933662
-0.096444
-0.099522
-0.1026
-0.105678
-0.108756
0.219103
0.216131
0.213165
0.210213
0.20728
0.204368
0.201474
0.198598
0.195735
0.192884
0.190044
0.187213
0.184392
0.181586
0.178804
0.17605
0.173325
0.170627
0.167951
0.165294
0.16265
0.160014
0.157384
0.15475
0.152106
0.149448
0.146778
0.144093
0.141396
0.138693
0.135987
0.133283
0.130584
0.127894
0.125214
0.122549
0.119899
0.117266
0.114647
0.112039
0.109442
0.106865
0.104307
0.101778
0.0992754
0.096798
0.0943472
0.0919243
0.0895224
0.0871291
0.0847423
0.0823666
0.0799985
0.0776372
0.0752779
0.0729133
0.0705351
0.0681452
0.0657436
0.0633583
0.061018
0.0587346
0.0565091
0.0543287
0.0521572
0.0499926
0.0477994
0.045564
0.0432777
0.0409335
0.0385341
0.0360765
0.0335594
0.0309631
0.0282884
0.0255384
0.0227164
0.0198334
0.0169004
0.0139298
0.0109222
0.00790438
0.0048757
0.00183813
-0.00120675
-0.00425753
-0.00731315
-0.0103727
-0.0134355
-0.0165009
-0.0195684
-0.0226375
-0.0257079
-0.0287795
-0.0318518
-0.0349248
-0.0379983
-0.0410722
-0.0441465
-0.047221
-0.0502959
-0.0533709
-0.0564462
-0.0595217
-0.0625975
-0.0656734
-0.0687496
-0.071826
-0.0749026
-0.0779794
-0.0810564
-0.0841336
-0.087211
-0.0902885
-0.0933662
-0.0964441
-0.0995221
-0.1026
-0.105678
-0.108756
0.219087
0.216082
0.213085
0.210103
0.207139
0.204195
0.201269
0.198357
0.195458
0.19257
0.189693
0.186829
0.183976
0.181143
0.178337
0.175564
0.172829
0.170132
0.167471
0.16484
0.162234
0.159648
0.157079
0.154522
0.151967
0.149407
0.146843
0.14427
0.141689
0.139103
0.136516
0.133929
0.131345
0.128762
0.126182
0.123606
0.121034
0.11847
0.115911
0.113357
0.110809
0.108275
0.105765
0.103283
0.100826
0.09839
0.0959731
0.0935733
0.0911796
0.0887863
0.0863992
0.0840222
0.0816504
0.0792801
0.0769081
0.0745299
0.0721378
0.0697336
0.0673159
0.0649144
0.0625562
0.0602543
0.0580112
0.0558083
0.0535947
0.0513864
0.0491356
0.0468353
0.0444749
0.0420457
0.0395492
0.0369888
0.034367
0.0316697
0.0289059
0.0260787
0.0231938
0.0202589
0.0172801
0.0142707
0.0112286
0.0081776
0.00511733
0.00205026
-0.00102176
-0.00409713
-0.00717477
-0.0102539
-0.0133339
-0.0164144
-0.0194949
-0.0225754
-0.0256557
-0.0287356
-0.0318151
-0.0348943
-0.037973
-0.0410514
-0.0441294
-0.0472072
-0.0502847
-0.053362
-0.0564391
-0.0595162
-0.0625932
-0.0656702
-0.0687472
-0.0718242
-0.0749014
-0.0779786
-0.0810559
-0.0841333
-0.0872109
-0.0902886
-0.0933664
-0.0964442
-0.0995222
-0.1026
-0.105678
-0.108756
0.219069
0.216028
0.212997
0.209983
0.206986
0.204007
0.201043
0.198092
0.195152
0.192224
0.189308
0.186406
0.18352
0.180657
0.177828
0.175039
0.172296
0.169602
0.166954
0.16435
0.161784
0.159248
0.156738
0.154248
0.151774
0.149305
0.146837
0.144367
0.141896
0.139423
0.13695
0.134476
0.132001
0.129524
0.127043
0.124559
0.122072
0.119583
0.117093
0.114601
0.11211
0.109632
0.107177
0.104747
0.102337
0.0999443
0.0975642
0.0951897
0.0928079
0.0904218
0.0880414
0.085669
0.0832994
0.080929
0.0785567
0.0761787
0.0737879
0.0713869
0.0689738
0.0665752
0.0642171
0.0619108
0.0596565
0.0574366
0.0551912
0.0529401
0.0506338
0.0482667
0.045826
0.0433036
0.0407006
0.0380236
0.0352782
0.0324636
0.0295924
0.026669
0.0237033
0.0207041
0.0176734
0.0146236
0.0115446
0.00845791
0.00536395
0.00226575
-0.000834596
-0.00393546
-0.0070358
-0.010135
-0.0132325
-0.0163282
-0.0194221
-0.022514
-0.025604
-0.0286924
-0.0317791
-0.0348643
-0.0379483
-0.0410311
-0.0441128
-0.0471937
-0.0502738
-0.0533533
-0.0564323
-0.0595109
-0.0625891
-0.0656671
-0.068745
-0.0718227
-0.0749003
-0.0779779
-0.0810555
-0.0841332
-0.0872109
-0.0902887
-0.0933665
-0.0964444
-0.0995224
-0.1026
-0.105678
-0.108756
0.219051
0.215974
0.212907
0.209857
0.206824
0.203807
0.200804
0.197811
0.19483
0.191861
0.188903
0.185959
0.183035
0.18014
0.177286
0.174484
0.17174
0.169056
0.166426
0.163847
0.161315
0.158823
0.156366
0.153938
0.151534
0.149147
0.146769
0.144397
0.142029
0.139662
0.137297
0.134929
0.132558
0.13018
0.127795
0.125402
0.123003
0.120596
0.118183
0.115762
0.113342
0.110934
0.108545
0.106173
0.103815
0.101465
0.0991198
0.0967694
0.0944028
0.0920296
0.0896605
0.0872972
0.0849367
0.0825774
0.0802173
0.0778523
0.0754772
0.0730931
0.0706988
0.0683157
0.0659699
0.0636716
0.0614134
0.0591814
0.0569102
0.0546174
0.0522675
0.04984
0.0473166
0.0446925
0.0419736
0.0391703
0.036288
0.0333407
0.0303452
0.0273103
0.0242491
0.0211729
0.0180853
0.0149924
0.0118719
0.00874553
0.00561493
0.00248348
-0.000646709
-0.00377411
-0.00689785
-0.0100175
-0.0131328
-0.016244
-0.019351
-0.0224543
-0.0255541
-0.0286507
-0.0317444
-0.0348357
-0.0379247
-0.0410117
-0.0440971
-0.047181
-0.0502636
-0.0533453
-0.056426
-0.059506
-0.0625854
-0.0656644
-0.068743
-0.0718213
-0.0748994
-0.0779774
-0.0810553
-0.0841332
-0.087211
-0.0902889
-0.0933667
-0.0964446
-0.0995225
-0.102601
-0.105678
-0.108756
0.219033
0.21592
0.212817
0.209728
0.206657
0.203601
0.200558
0.197525
0.194504
0.191493
0.188492
0.185507
0.182545
0.179621
0.176748
0.173939
0.171196
0.168518
0.165905
0.163349
0.160846
0.158391
0.15598
0.153606
0.151266
0.148951
0.146654
0.144369
0.142095
0.139826
0.137557
0.135287
0.133012
0.130729
0.128438
0.126137
0.123827
0.121507
0.11918
0.116845
0.114509
0.11218
0.109863
0.107557
0.105254
0.10295
0.100638
0.0983125
0.0959651
0.0936108
0.0912574
0.0889077
0.0865619
0.0842199
0.0818802
0.0795383
0.0771913
0.0748412
0.0724887
0.0701469
0.0678318
0.065541
0.0632682
0.0610106
0.0587173
0.0563877
0.0539958
0.0515034
0.0488925
0.0461684
0.0433385
0.0404084
0.0373859
0.0342988
0.0311687
0.0280143
0.0248535
0.0216948
0.0185376
0.015385
0.0122122
0.00904021
0.00586927
0.00270207
-0.00045966
-0.00361475
-0.00676261
-0.00990312
-0.0130364
-0.016163
-0.0192831
-0.0223975
-0.0255067
-0.0286113
-0.0317118
-0.0348088
-0.0379026
-0.0409937
-0.0440825
-0.0471692
-0.0502543
-0.0533379
-0.0564202
-0.0595016
-0.0625821
-0.065662
-0.0687413
-0.0718202
-0.0748987
-0.0779771
-0.0810552
-0.0841332
-0.0872112
-0.0902891
-0.093367
-0.0964449
-0.0995228
-0.102601
-0.105679
-0.108757
0.219014
0.215865
0.212725
0.209599
0.206489
0.203394
0.200312
0.197241
0.194181
0.19113
0.18809
0.185068
0.182075
0.179129
0.176245
0.17343
0.170686
0.168014
0.165411
0.162871
0.160391
0.157967
0.155594
0.153265
0.150977
0.148724
0.146497
0.144291
0.1421
0.139918
0.137739
0.135558
0.133373
0.131181
0.128981
0.126772
0.124555
0.122328
0.120091
0.117847
0.115601
0.113361
0.111124
0.108887
0.106643
0.104387
0.102111
0.0998131
0.0974879
0.0951532
0.0928162
0.0904834
0.0881589
0.0858422
0.0835323
0.081224
0.0789161
0.0766099
0.0743044
0.0720036
0.0697131
0.067429
0.0651549
0.0628837
0.0605764
0.058208
0.0557655
0.0532053
0.0505154
0.0477062
0.0447765
0.0417225
0.0385601
0.0353255
0.0320522
0.0287706
0.0255035
0.0222539
0.0190168
0.015795
0.0125626
0.00934007
0.00612525
0.0029198
-0.000275227
-0.00345915
-0.00663182
-0.00979353
-0.0129449
-0.0160866
-0.0192196
-0.0223447
-0.025463
-0.0285751
-0.031682
-0.0347842
-0.0378825
-0.0409774
-0.0440693
-0.0471587
-0.0502459
-0.0533313
-0.0564152
-0.0594978
-0.0625793
-0.06566
-0.0687399
-0.0718193
-0.0748983
-0.0779769
-0.0810552
-0.0841334
-0.0872115
-0.0902894
-0.0933673
-0.0964452
-0.099523
-0.102601
-0.105679
-0.108757
0.218996
0.215808
0.212631
0.209468
0.20632
0.203187
0.200069
0.196962
0.193867
0.190781
0.187707
0.184654
0.181639
0.178681
0.175792
0.172976
0.170237
0.16757
0.164972
0.16244
0.159973
0.157569
0.155223
0.15293
0.150685
0.148481
0.146311
0.144169
0.142051
0.139947
0.137849
0.135751
0.133652
0.131546
0.129435
0.127318
0.125193
0.123059
0.120918
0.118769
0.116616
0.114464
0.112305
0.110139
0.107957
0.105749
0.103508
0.101237
0.0989331
0.0966151
0.0942943
0.0919834
0.0896912
0.0874146
0.0851516
0.082893
0.080638
0.0783854
0.07613
0.0738694
0.0716055
0.0693327
0.0670601
0.0647737
0.0624476
0.0600486
0.0575659
0.0549541
0.0522062
0.0493232
0.0462917
0.0431056
0.0397961
0.036405
0.0329798
0.0295608
0.0261756
0.0228278
0.019509
0.0162154
0.0129192
0.00964227
0.00638056
0.00313454
-9.54416e-05
-0.00330929
-0.00650736
-0.00969045
-0.0128597
-0.0160163
-0.0191616
-0.022297
-0.0254237
-0.0285428
-0.0316555
-0.0347626
-0.0378649
-0.0409631
-0.0440578
-0.0471496
-0.0502387
-0.0533258
-0.056411
-0.0594946
-0.0625771
-0.0656584
-0.0687389
-0.0718188
-0.074898
-0.0779769
-0.0810554
-0.0841337
-0.0872118
-0.0902898
-0.0933677
-0.0964455
-0.0995233
-0.102601
-0.105679
-0.108757
0.218977
0.215753
0.212539
0.209339
0.206154
0.202985
0.199831
0.196691
0.193564
0.19045
0.18735
0.184279
0.181256
0.178296
0.175408
0.172598
0.169865
0.167203
0.164606
0.162075
0.15961
0.157211
0.154879
0.15261
0.150397
0.148235
0.146113
0.144023
0.141963
0.139923
0.137894
0.135872
0.133853
0.131831
0.129809
0.127785
0.125752
0.123712
0.121662
0.119601
0.117535
0.115464
0.113382
0.111286
0.109164
0.107003
0.104798
0.102557
0.100279
0.0979859
0.0956969
0.0934283
0.0911861
0.0889629
0.0867549
0.0845537
0.0823587
0.0801626
0.0779574
0.0757369
0.0735036
0.0712456
0.0689742
0.0666738
0.0643304
0.0619041
0.0593804
0.0567193
0.0539162
0.050957
0.0478261
0.0445201
0.0410704
0.0375222
0.0339394
0.0303751
0.0268646
0.0234138
0.0200084
0.0166396
0.0132775
0.00994374
0.00663257
0.00334386
7.73795e-05
-0.00316736
-0.00639125
-0.00959573
-0.0127825
-0.0159534
-0.0191104
-0.0222552
-0.0253896
-0.0285151
-0.0316329
-0.0347443
-0.0378501
-0.0409512
-0.0440483
-0.047142
-0.0502329
-0.0533212
-0.0564076
-0.0594922
-0.0625753
-0.0656573
-0.0687383
-0.0718185
-0.074898
-0.077977
-0.0810557
-0.0841341
-0.0872122
-0.0902902
-0.093368
-0.0964458
-0.0995236
-0.102601
-0.105679
-0.108757
0.218959
0.2157
0.21245
0.209214
0.205994
0.202791
0.199605
0.196437
0.193287
0.190152
0.187038
0.183962
0.18094
0.177984
0.175101
0.172296
0.169564
0.166899
0.164297
0.16176
0.159292
0.156894
0.154568
0.152313
0.150125
0.147995
0.145913
0.143869
0.141856
0.139869
0.137902
0.135947
0.133998
0.132053
0.130113
0.12817
0.12622
0.124263
0.122294
0.120317
0.118335
0.116342
0.114332
0.112301
0.110233
0.108117
0.105953
0.103747
0.101506
0.0992571
0.0970244
0.0948202
0.0926438
0.0904883
0.0883461
0.0862116
0.0840789
0.0819384
0.079781
0.0775982
0.0753922
0.0731454
0.0708707
0.0685499
0.066183
0.063729
0.0611678
0.0584622
0.0556055
0.0525767
0.0493601
0.0459477
0.042368
0.0386676
0.0349204
0.0311978
0.027547
0.0239852
0.0204991
0.0170623
0.0136348
0.0102417
0.00687846
0.00354495
0.000240524
-0.00303587
-0.00628579
-0.00951136
-0.0127151
-0.0158995
-0.0190672
-0.0222205
-0.0253617
-0.0284925
-0.0316147
-0.0347296
-0.0378383
-0.0409417
-0.0440408
-0.0471362
-0.0502283
-0.0533178
-0.0564051
-0.0594904
-0.0625742
-0.0656566
-0.068738
-0.0718184
-0.0748982
-0.0779773
-0.0810561
-0.0841345
-0.0872126
-0.0902906
-0.0933684
-0.0964461
-0.0995238
-0.102601
-0.105679
-0.108757
0.218942
0.215647
0.212364
0.209096
0.205846
0.202614
0.199402
0.196211
0.193041
0.189894
0.186779
0.18371
0.180698
0.17775
0.174871
0.172062
0.16932
0.16664
0.164022
0.161471
0.158995
0.156596
0.154275
0.152032
0.149864
0.14776
0.145707
0.143697
0.141722
0.139775
0.137856
0.135957
0.134072
0.132197
0.130329
0.12846
0.126586
0.124705
0.122813
0.120913
0.119002
0.117076
0.115129
0.113155
0.111138
0.10907
0.106955
0.104801
0.102621
0.100444
0.0982922
0.0961695
0.0940722
0.0919951
0.0899259
0.0878622
0.0857914
0.0837049
0.0815918
0.0794414
0.0772572
0.0750188
0.0727338
0.0703868
0.0679876
0.0654963
0.0628917
0.0601423
0.0572339
0.0541402
0.0508487
0.0473464
0.0436514
0.0398073
0.0358977
0.0320138
0.0282151
0.0245421
0.0209875
0.0174881
0.0139909
0.0105335
0.0071147
0.00373423
0.000390651
-0.00291785
-0.00619358
-0.00943956
-0.0126592
-0.0158559
-0.019033
-0.0221936
-0.0253404
-0.0284756
-0.0316012
-0.0347188
-0.0378297
-0.0409349
-0.0440355
-0.047132
-0.0502252
-0.0533155
-0.0564035
-0.0594894
-0.0625736
-0.0656563
-0.0687379
-0.0718186
-0.0748985
-0.0779777
-0.0810565
-0.0841349
-0.0872131
-0.090291
-0.0933688
-0.0964464
-0.0995241
-0.102602
-0.105679
-0.108757
0.218926
0.2156
0.212286
0.20899
0.205715
0.202462
0.199231
0.196024
0.192845
0.189697
0.18659
0.183534
0.180535
0.177597
0.174719
0.171902
0.169142
0.166441
0.163801
0.161233
0.158746
0.156342
0.154023
0.151787
0.149631
0.147546
0.145512
0.143521
0.141569
0.139649
0.137764
0.135905
0.134069
0.132251
0.130444
0.128642
0.126837
0.125025
0.123202
0.121371
0.119524
0.117658
0.115767
0.113846
0.111883
0.109875
0.107825
0.105745
0.103654
0.101577
0.0995228
0.0974933
0.0954846
0.0934902
0.0914978
0.089504
0.0874917
0.0854537
0.0833785
0.0812529
0.0790824
0.0768423
0.0745355
0.0721584
0.0697197
0.067186
0.064536
0.061742
0.0587829
0.0556246
0.0522574
0.0486616
0.0448574
0.0408955
0.0368616
0.0328538
0.0289396
0.0251758
0.0215375
0.017937
0.014346
0.0108138
0.00733557
0.00390667
0.000523474
-0.00281691
-0.00611765
-0.00938276
-0.0126167
-0.015824
-0.019009
-0.0221753
-0.0253263
-0.0284646
-0.0315926
-0.034712
-0.0378243
-0.0409308
-0.0440323
-0.0471296
-0.0502234
-0.0533143
-0.0564027
-0.0594889
-0.0625734
-0.0656564
-0.0687382
-0.071819
-0.0748989
-0.0779782
-0.081057
-0.0841354
-0.0872135
-0.0902914
-0.0933691
-0.0964467
-0.0995243
-0.102602
-0.105679
-0.108757
0.218911
0.215557
0.212218
0.208899
0.205605
0.202338
0.199099
0.195887
0.19271
0.189575
0.186488
0.183453
0.180472
0.177545
0.174669
0.171845
0.169072
0.166353
0.163696
0.161112
0.158614
0.156206
0.153889
0.151657
0.149502
0.147418
0.145386
0.143393
0.141443
0.139534
0.137665
0.13583
0.134026
0.132248
0.130489
0.128741
0.126993
0.12524
0.123479
0.121708
0.11992
0.118111
0.116275
0.11441
0.112512
0.110579
0.108614
0.106633
0.104653
0.102685
0.100736
0.098806
0.0968901
0.0949786
0.0930624
0.0911312
0.0891693
0.0871704
0.085122
0.0830119
0.0808439
0.0785934
0.0762638
0.0738576
0.0713796
0.0688038
0.066109
0.0632677
0.0602622
0.0570528
0.0536255
0.0499583
0.0460737
0.0420208
0.0378842
0.0337755
0.0297725
0.0259172
0.0221557
0.0184029
0.0146841
0.0110684
0.00753095
0.00405514
0.000633582
-0.00273735
-0.00606138
-0.00934355
-0.0125896
-0.0158053
-0.0189959
-0.0221661
-0.0253197
-0.0284598
-0.031589
-0.0347093
-0.0378222
-0.0409292
-0.0440311
-0.0471288
-0.0502229
-0.0533141
-0.0564027
-0.0594891
-0.0625737
-0.0656568
-0.0687386
-0.0718194
-0.0748994
-0.0779787
-0.0810574
-0.0841358
-0.0872138
-0.0902917
-0.0933693
-0.0964469
-0.0995244
-0.102602
-0.105679
-0.108757
0.218897
0.215516
0.212155
0.208821
0.205519
0.202249
0.199013
0.195809
0.192644
0.189528
0.186468
0.183465
0.180514
0.177609
0.174745
0.171921
0.169139
0.166407
0.163741
0.161154
0.158654
0.156246
0.15393
0.151698
0.149536
0.147434
0.14538
0.143366
0.141398
0.139481
0.13761
0.135786
0.134004
0.132259
0.130539
0.128834
0.127132
0.125426
0.123716
0.122
0.120272
0.118527
0.116761
0.114968
0.113144
0.111289
0.109415
0.107536
0.10566
0.103799
0.101954
0.100121
0.0982947
0.0964617
0.0946114
0.0927292
0.0908044
0.0888299
0.0867949
0.0846911
0.0825186
0.0802614
0.0779122
0.0754846
0.072977
0.0703615
0.0676209
0.0647242
0.0616598
0.0583973
0.0549264
0.0512179
0.0472835
0.0431664
0.0389487
0.0347567
0.0306678
0.0267029
0.0227888
0.0188445
0.0149598
0.01127
0.0076864
0.00417094
0.000714781
-0.00268391
-0.00602837
-0.00932454
-0.0125796
-0.0158007
-0.0189945
-0.0221663
-0.0253206
-0.028461
-0.0315902
-0.0347103
-0.0378232
-0.04093
-0.0440318
-0.0471294
-0.0502236
-0.0533147
-0.0564033
-0.0594897
-0.0625743
-0.0656574
-0.0687392
-0.07182
-0.0748999
-0.0779791
-0.0810578
-0.0841361
-0.0872141
-0.0902919
-0.0933695
-0.096447
-0.0995245
-0.102602
-0.105679
-0.108757
0.218884
0.215478
0.212097
0.208751
0.205446
0.202185
0.198966
0.195786
0.192651
0.189573
0.186552
0.183588
0.180674
0.177801
0.174961
0.172151
0.169376
0.166647
0.16398
0.161391
0.158889
0.15648
0.15416
0.151919
0.14974
0.147603
0.145506
0.143456
0.141453
0.139508
0.137623
0.135805
0.134047
0.132334
0.130652
0.128985
0.127322
0.125659
0.123999
0.122342
0.120681
0.119009
0.11732
0.115605
0.113861
0.112087
0.110297
0.108503
0.106717
0.104949
0.103195
0.101449
0.0996999
0.0979296
0.0961263
0.0942767
0.0923733
0.0904091
0.0883786
0.0862763
0.0840985
0.0818359
0.0794749
0.0770431
0.0745167
0.0718703
0.0690907
0.0661474
0.0630376
0.0597236
0.0561954
0.0524414
0.0484649
0.0442955
0.0400264
0.0357875
0.0316253
0.0275251
0.0234114
0.0192208
0.0150765
0.011386
0.00779011
0.00424665
0.000760893
-0.00266154
-0.00602223
-0.0093281
-0.0125881
-0.0158111
-0.0190049
-0.0221758
-0.0253288
-0.0284679
-0.0315958
-0.0347149
-0.0378268
-0.0409329
-0.0440341
-0.0471313
-0.0502251
-0.053316
-0.0564044
-0.0594907
-0.0625752
-0.0656581
-0.0687399
-0.0718205
-0.0749004
-0.0779795
-0.0810581
-0.0841363
-0.0872142
-0.090292
-0.0933695
-0.096447
-0.0995245
-0.102602
-0.105679
-0.108757
0.21887
0.21544
0.212039
0.208682
0.205377
0.202129
0.198935
0.195795
0.192709
0.189687
0.186727
0.18382
0.180958
0.17813
0.175327
0.172546
0.169789
0.167071
0.164413
0.161828
0.159322
0.156907
0.154576
0.152315
0.1501
0.147906
0.145751
0.14365
0.1416
0.139619
0.137721
0.135914
0.134184
0.132509
0.130866
0.129235
0.127603
0.125975
0.124363
0.122769
0.121184
0.119596
0.11799
0.116358
0.114698
0.113005
0.111292
0.109568
0.107854
0.106158
0.104477
0.102798
0.101104
0.0993712
0.0975921
0.0957564
0.0938592
0.0918942
0.0898628
0.087762
0.0855861
0.0833307
0.0809832
0.0785638
0.0760286
0.0733569
0.0705348
0.0675326
0.0643511
0.0609712
0.0574025
0.0536234
0.0496123
0.0454012
0.0411066
0.0368218
0.0325558
0.0282878
0.023968
0.0195132
0.0144949
0.0114253
0.00785084
0.0042789
0.00076528
-0.00267581
-0.00604653
-0.00935612
-0.0126158
-0.0158363
-0.0190267
-0.022194
-0.0253437
-0.0284798
-0.0316053
-0.0347223
-0.0378326
-0.0409374
-0.0440377
-0.0471341
-0.0502273