/*--------------------------------*- C++ -*----------------------------------*\
  =========                 |
  \\      /  F ield         | OpenFOAM: The Open Source CFD Toolbox
   \\    /   O peration     | Website:  https://openfoam.org
    \\  /    A nd           | Version:  6
     \\/     M anipulation  |
\*---------------------------------------------------------------------------*/
FoamFile
{
    version     2.0;
    format      ascii;
    class       volScalarField;
    location    "500";
    object      T;
}
// * * * * * * * * * * * * * * * * * * * * * * * * * * * * * * * * * * * * * //

dimensions      [0 0 0 1 0 0 0];

internalField   nonuniform List<scalar> 
4800
(
552.497
552.39
552.284
552.178
552.073
551.969
551.867
551.768
551.67
551.575
551.481
551.388
551.296
551.204
551.111
551.017
550.922
550.823
550.722
550.616
550.507
550.393
550.274
550.152
550.025
549.895
549.763
549.63
549.496
549.365
549.237
549.111
548.989
548.87
548.754
548.64
548.529
548.42
548.312
548.206
548.102
547.999
547.898
547.799
547.702
547.607
547.514
547.424
547.337
547.251
547.169
547.088
547.01
546.934
546.859
546.786
546.715
546.644
546.575
546.506
546.438
546.37
546.302
546.233
546.165
546.095
546.024
545.952
545.878
545.802
545.723
545.643
545.561
545.478
545.393
545.307
545.219
545.131
545.042
544.952
544.859
544.763
544.664
544.563
544.46
544.356
544.251
544.145
544.038
543.931
543.823
543.714
543.605
543.496
543.386
543.276
543.166
543.055
542.945
542.834
542.723
542.612
542.501
542.39
542.279
542.167
542.056
541.945
541.833
541.722
541.61
541.499
541.387
541.276
541.164
541.052
540.941
540.829
540.717
540.606
552.497
552.39
552.284
552.179
552.074
551.971
551.869
551.769
551.672
551.576
551.481
551.388
551.296
551.203
551.111
551.017
550.921
550.823
550.721
550.616
550.507
550.394
550.276
550.155
550.029
549.9
549.769
549.636
549.504
549.374
549.247
549.123
549.001
548.882
548.766
548.652
548.541
548.432
548.324
548.219
548.115
548.012
547.912
547.813
547.716
547.621
547.529
547.438
547.351
547.265
547.182
547.102
547.024
546.947
546.872
546.799
546.727
546.657
546.587
546.518
546.449
546.38
546.312
546.243
546.175
546.105
546.034
545.962
545.888
545.813
545.735
545.654
545.572
545.489
545.403
545.316
545.228
545.139
545.049
544.957
544.862
544.765
544.666
544.564
544.461
544.357
544.252
544.146
544.039
543.931
543.823
543.714
543.605
543.496
543.386
543.276
543.166
543.055
542.945
542.834
542.723
542.612
542.501
542.39
542.279
542.167
542.056
541.945
541.833
541.722
541.61
541.499
541.387
541.276
541.164
541.052
540.941
540.829
540.717
540.606
552.497
552.391
552.285
552.18
552.076
551.973
551.871
551.772
551.673
551.577
551.481
551.388
551.295
551.202
551.108
551.014
550.918
550.82
550.719
550.615
550.507
550.395
550.279
550.159
550.035
549.908
549.779
549.649
549.519
549.391
549.265
549.142
549.022
548.903
548.788
548.674
548.563
548.454
548.347
548.242
548.139
548.038
547.938
547.839
547.742
547.648
547.555
547.464
547.376
547.291
547.208
547.127
547.048
546.971
546.896
546.822
546.75
546.678
546.607
546.537
546.467
546.398
546.329
546.26
546.191
546.122
546.051
545.979
545.906
545.83
545.752
545.672
545.59
545.506
545.42
545.332
545.243
545.152
545.059
544.965
544.868
544.77
544.669
544.567
544.464
544.359
544.254
544.147
544.04
543.932
543.824
543.715
543.606
543.496
543.387
543.276
543.166
543.056
542.945
542.834
542.723
542.612
542.501
542.39
542.279
542.167
542.056
541.945
541.833
541.722
541.61
541.499
541.387
541.276
541.164
541.052
540.941
540.829
540.717
540.606
552.497
552.392
552.287
552.182
552.078
551.976
551.874
551.774
551.675
551.577
551.481
551.386
551.292
551.199
551.105
551.01
550.914
550.816
550.716
550.612
550.506
550.395
550.281
550.163
550.042
549.918
549.792
549.665
549.539
549.413
549.289
549.167
549.047
548.93
548.815
548.702
548.592
548.484
548.378
548.275
548.173
548.072
547.973
547.875
547.778
547.683
547.591
547.5
547.412
547.326
547.242
547.161
547.081
547.004
546.928
546.853
546.779
546.706
546.634
546.563
546.492
546.421
546.351
546.282
546.212
546.143
546.072
546.001
545.927
545.852
545.774
545.693
545.611
545.526
545.439
545.35
545.259
545.166
545.072
544.975
544.876
544.776
544.674
544.571
544.467
544.362
544.256
544.149
544.042
543.934
543.825
543.716
543.607
543.497
543.387
543.277
543.167
543.056
542.945
542.834
542.724
542.612
542.501
542.39
542.279
542.168
542.056
541.945
541.833
541.722
541.61
541.499
541.387
541.276
541.164
541.052
540.941
540.829
540.717
540.606
552.497
552.392
552.288
552.183
552.08
551.977
551.876
551.775
551.675
551.577
551.48
551.384
551.289
551.194
551.099
551.004
550.908
550.81
550.71
550.608
550.503
550.394
550.282
550.167
550.049
549.929
549.806
549.683
549.56
549.437
549.316
549.195
549.077
548.961
548.847
548.736
548.627
548.52
548.416
548.314
548.213
548.113
548.014
547.917
547.821
547.727
547.634
547.544
547.455
547.369
547.285
547.203
547.122
547.043
546.966
546.89
546.814
546.74
546.666
546.593
546.52
546.448
546.377
546.306
546.236
546.166
546.096
546.024
545.951
545.875
545.797
545.717
545.634
545.548
545.461
545.371
545.278
545.183
545.085
544.986
544.885
544.783
544.68
544.576
544.471
544.365
544.259
544.152
544.044
543.935
543.827
543.717
543.608
543.498
543.388
543.278
543.167
543.056
542.946
542.835
542.724
542.613
542.501
542.39
542.279
542.168
542.056
541.945
541.833
541.722
541.61
541.499
541.387
541.276
541.164
541.052
540.941
540.829
540.717
540.606
552.497
552.393
552.288
552.184
552.081
551.978
551.876
551.775
551.675
551.576
551.478
551.38
551.284
551.188
551.092
550.996
550.9
550.802
550.703
550.602
550.498
550.392
550.283
550.171
550.056
549.939
549.821
549.702
549.582
549.463
549.344
549.226
549.11
548.996
548.884
548.774
548.667
548.562
548.459
548.358
548.258
548.159
548.062
547.965
547.87
547.776
547.684
547.593
547.505
547.418
547.333
547.25
547.169
547.089
547.01
546.932
546.855
546.778
546.702
546.627
546.552
546.478
546.405
546.333
546.262
546.191
546.12
546.048
545.975
545.899
545.821
545.74
545.657
545.571
545.482
545.39
545.295
545.198
545.099
544.998
544.895
544.791
544.687
544.582
544.476
544.369
544.262
544.154
544.046
543.937
543.828
543.719
543.609
543.499
543.389
543.278
543.168
543.057
542.946
542.835
542.724
542.613
542.502
542.39
542.279
542.168
542.056
541.945
541.833
541.722
541.61
541.499
541.387
541.276
541.164
541.052
540.941
540.829
540.717
540.606
552.497
552.392
552.288
552.184
552.08
551.977
551.875
551.773
551.673
551.573
551.474
551.376
551.278
551.181
551.084
550.987
550.89
550.793
550.694
550.594
550.492
550.388
550.282
550.173
550.063
549.95
549.836
549.721
549.605
549.49
549.374
549.26
549.146
549.034
548.924
548.817
548.711
548.608
548.506
548.406
548.307
548.21
548.113
548.017
547.923
547.829
547.738
547.647
547.559
547.472
547.387
547.303
547.22
547.139
547.058
546.979
546.899
546.82
546.742
546.663
546.586
546.51
546.435
546.362
546.289
546.217
546.145
546.072
545.998
545.921
545.843
545.761
545.678
545.591
545.501
545.408
545.312
545.213
545.112
545.009
544.904
544.8
544.694
544.588
544.481
544.374
544.266
544.158
544.049
543.94
543.83
543.721
543.611
543.5
543.39
543.279
543.168
543.058
542.947
542.836
542.724
542.613
542.502
542.391
542.279
542.168
542.056
541.945
541.833
541.722
541.61
541.499
541.387
541.276
541.164
541.052
540.941
540.829
540.717
540.606
552.497
552.392
552.287
552.182
552.078
551.975
551.872
551.771
551.669
551.569
551.469
551.369
551.27
551.172
551.074
550.977
550.879
550.781
550.683
550.584
550.484
550.382
550.279
550.174
550.067
549.959
549.849
549.738
549.627
549.516
549.404
549.294
549.184
549.075
548.967
548.862
548.758
548.657
548.557
548.458
548.36
548.263
548.167
548.072
547.978
547.886
547.794
547.704
547.616
547.529
547.444
547.359
547.276
547.193
547.111
547.029
546.947
546.866
546.785
546.703
546.623
546.545
546.469
546.394
546.32
546.247
546.173
546.098
546.022
545.944
545.864
545.782
545.698
545.61
545.519
545.425
545.327
545.227
545.124
545.02
544.915
544.808
544.702
544.595
544.487
544.379
544.27
544.162
544.052
543.943
543.833
543.723
543.612
543.502
543.391
543.28
543.169
543.058
542.947
542.836
542.725
542.613
542.502
542.391
542.279
542.168
542.056
541.945
541.833
541.722
541.61
541.499
541.387
541.276
541.164
541.052
540.941
540.829
540.717
540.606
552.497
552.391
552.285
552.18
552.076
551.972
551.868
551.766
551.664
551.563
551.462
551.362
551.261
551.162
551.063
550.964
550.866
550.768
550.671
550.573
550.474
550.375
550.274
550.172
550.069
549.965
549.86
549.753
549.647
549.54
549.433
549.326
549.22
549.115
549.011
548.908
548.807
548.707
548.608
548.511
548.414
548.318
548.223
548.128
548.035
547.943
547.853
547.764
547.676
547.589
547.503
547.418
547.334
547.249
547.166
547.082
546.998
546.915
546.831
546.747
546.665
546.585
546.507
546.431
546.355
546.28
546.205
546.128
546.05
545.97
545.888
545.805
545.719
545.629
545.537
545.441
545.342
545.241
545.137
545.032
544.925
544.818
544.71
544.602
544.493
544.384
544.275
544.165
544.056
543.945
543.835
543.725
543.614
543.503
543.392
543.281
543.17
543.059
542.948
542.836
542.725
542.614
542.502
542.391
542.28
542.168
542.057
541.945
541.833
541.722
541.61
541.499
541.387
541.276
541.164
541.052
540.941
540.829
540.717
540.606
552.497
552.39
552.283
552.177
552.072
551.967
551.863
551.76
551.657
551.555
551.453
551.352
551.25
551.15
551.05
550.95
550.852
550.754
550.657
550.559
550.462
550.365
550.267
550.168
550.069
549.969
549.868
549.766
549.664
549.561
549.459
549.356
549.254
549.153
549.052
548.953
548.854
548.756
548.659
548.563
548.467
548.372
548.278
548.185
548.093
548.002
547.912
547.823
547.736
547.649
547.563
547.477
547.392
547.307
547.222
547.137
547.052
546.966
546.881
546.795
546.712
546.63
546.551
546.473
546.395
546.319
546.241
546.162
546.082
546
545.916
545.83
545.741
545.65
545.556
545.458
545.358
545.255
545.15
545.043
544.935
544.827
544.718
544.609
544.5
544.39
544.28
544.17
544.059
543.948
543.838
543.727
543.616
543.505
543.394
543.282
543.171
543.06
542.948
542.837
542.726
542.614
542.503
542.391
542.28
542.168
542.057
541.945
541.834
541.722
541.61
541.499
541.387
541.276
541.164
541.052
540.941
540.829
540.717
540.606
552.496
552.388
552.281
552.174
552.067
551.962
551.857
551.752
551.649
551.545
551.442
551.339
551.237
551.135
551.034
550.935
550.836
550.738
550.641
550.544
550.449
550.353
550.258
550.162
550.066
549.97
549.873
549.776
549.678
549.58
549.481
549.383
549.286
549.188
549.091
548.994
548.898
548.803
548.708
548.613
548.519
548.425
548.333
548.241
548.15
548.06
547.971
547.884
547.797
547.71
547.623
547.537
547.451
547.366
547.28
547.194
547.108
547.021
546.934
546.848
546.763
546.68
546.599
546.52
546.442
546.363
546.284
546.202
546.12
546.035
545.947
545.858
545.767
545.673
545.576
545.476
545.374
545.269
545.163
545.055
544.946
544.837
544.727
544.617
544.506
544.396
544.285
544.174
544.063
543.952
543.84
543.729
543.618
543.506
543.395
543.283
543.172
543.06
542.949
542.837
542.726
542.614
542.503
542.391
542.28
542.168
542.057
541.945
541.834
541.722
541.61
541.499
541.387
541.276
541.164
541.052
540.941
540.829
540.717
540.606
552.495
552.386
552.278
552.17
552.062
551.955
551.849
551.744
551.638
551.534
551.429
551.326
551.222
551.119
551.018
550.917
550.818
550.72
550.623
550.528
550.433
550.34
550.247
550.154
550.061
549.968
549.875
549.782
549.688
549.595
549.501
549.407
549.313
549.219
549.126
549.032
548.939
548.846
548.753
548.661
548.568
548.477
548.385
548.295
548.206
548.118
548.03
547.943
547.857
547.77
547.683
547.597
547.511
547.425
547.339
547.253
547.166
547.079
546.991
546.904
546.819
546.735
546.654
546.574
546.494
546.414
546.332
546.249
546.163
546.075
545.984
545.891
545.796
545.699
545.598
545.496
545.391
545.285
545.177
545.068
544.957
544.847
544.736
544.624
544.513
544.401
544.29
544.178
544.066
543.955
543.843
543.731
543.62
543.508
543.396
543.285
543.173
543.061
542.95
542.838
542.726
542.615
542.503
542.392
542.28
542.168
542.057
541.945
541.834
541.722
541.61
541.499
541.387
541.276
541.164
541.052
540.941
540.829
540.717
540.606
552.495
552.385
552.275
552.165
552.057
551.949
551.841
551.734
551.627
551.521
551.415
551.31
551.205
551.102
550.999
550.898
550.798
550.701
550.605
550.51
550.417
550.325
550.234
550.144
550.054
549.965
549.875
549.785
549.696
549.606
549.516
549.427
549.337
549.247
549.157
549.067
548.977
548.887
548.796
548.706
548.616
548.526
548.437
548.349
548.261
548.174
548.088
548.002
547.916
547.829
547.743
547.657
547.571
547.485
547.399
547.313
547.226
547.139
547.051
546.964
546.879
546.795
546.714
546.633
546.552
546.47
546.386
546.301
546.212
546.121
546.026
545.929
545.829
545.727
545.623
545.517
545.41
545.301
545.191
545.08
544.969
544.857
544.745
544.632
544.52
544.407
544.295
544.182
544.07
543.958
543.846
543.734
543.621
543.509
543.397
543.286
543.174
543.062
542.95
542.838
542.727
542.615
542.503
542.392
542.28
542.169
542.057
541.945
541.834
541.722
541.61
541.499
541.387
541.276
541.164
541.052
540.941
540.829
540.717
540.606
552.494
552.383
552.271
552.161
552.051
551.941
551.832
551.724
551.616
551.508
551.401
551.294
551.188
551.083
550.979
550.878
550.778
550.681
550.586
550.492
550.4
550.31
550.221
550.133
550.045
549.959
549.873
549.787
549.701
549.615
549.529
549.443
549.357
549.271
549.184
549.098
549.011
548.923
548.836
548.748
548.66
548.573
548.486
548.4
548.315
548.23
548.145
548.059
547.974
547.887
547.802
547.716
547.63
547.545
547.459
547.373
547.287
547.201
547.114
547.028
546.943
546.859
546.777
546.696
546.614
546.531
546.446
546.358
546.266
546.171
546.072
545.971
545.866
545.759
545.651
545.54
545.429
545.318
545.206
545.094
544.981
544.867
544.754
544.64
544.527
544.413
544.3
544.187
544.074
543.961
543.848
543.736
543.623
543.511
543.399
543.287
543.175
543.063
542.951
542.839
542.727
542.615
542.504
542.392
542.28
542.169
542.057
541.945
541.834
541.722
541.61
541.499
541.387
541.276
541.164
541.052
540.941
540.829
540.717
540.606
552.493
552.381
552.268
552.156
552.045
551.934
551.823
551.713
551.604
551.495
551.386
551.278
551.17
551.064
550.96
550.858
550.759
550.661
550.567
550.474
550.383
550.294
550.207
550.121
550.036
549.952
549.868
549.786
549.703
549.621
549.539
549.456
549.374
549.291
549.208
549.124
549.041
548.956
548.872
548.787
548.703
548.618
548.534
548.451
548.367
548.283
548.2
548.115
548.03
547.945
547.86
547.774
547.689
547.604
547.519
547.435
547.349
547.264
547.179
547.094
547.01
546.927
546.845
546.763
546.68
546.595
546.508
546.418
546.323
546.224
546.122
546.016
545.906
545.794
545.68
545.566
545.451
545.337
545.222
545.108
544.993
544.878
544.763
544.648
544.533
544.419
544.305
544.191
544.077
543.964
543.851
543.738
543.625
543.512
543.4
543.288
543.175
543.063
542.951
542.839
542.727
542.616
542.504
542.392
542.28
542.169
542.057
541.945
541.834
541.722
541.61
541.499
541.387
541.276
541.164
541.052
540.941
540.829
540.717
540.606
552.493
552.379
552.265
552.151
552.039
551.926
551.815
551.703
551.592
551.481
551.371
551.262
551.153
551.046
550.942
550.84
550.74
550.643
550.549
550.457
550.367
550.279
550.193
550.108
550.025
549.944
549.863
549.783
549.703
549.624
549.545
549.466
549.387
549.307
549.227
549.147
549.067
548.986
548.905
548.824
548.742
548.661
548.58
548.499
548.417
548.336
548.253
548.17
548.085
548.001
547.916
547.831
547.747
547.663
547.579
547.496
547.412
547.328
547.245
547.161
547.078
546.996
546.913
546.831
546.747
546.661
546.573
546.48
546.382
546.28
546.174
546.063
545.949
545.831
545.713
545.593
545.475
545.357
545.24
545.123
545.006
544.889
544.772
544.656
544.54
544.425
544.31
544.195
544.081
543.967
543.853
543.74
543.627
543.514
543.401
543.289
543.176
543.064
542.952
542.84
542.728
542.616
542.504
542.392
542.28
542.169
542.057
541.945
541.834
541.722
541.61
541.499
541.387
541.276
541.164
541.052
540.941
540.829
540.717
540.606
552.492
552.377
552.261
552.147
552.032
551.919
551.806
551.693
551.581
551.469
551.357
551.247
551.137
551.03
550.925
550.823
550.724
550.627
550.533
550.441
550.352
550.264
550.179
550.096
550.015
549.935
549.856
549.778
549.702
549.625
549.549
549.473
549.397
549.321
549.244
549.167
549.09
549.013
548.935
548.857
548.779
548.701
548.623
548.544
548.465
548.385
548.304
548.221
548.138
548.054
547.97
547.886
547.803
547.72
547.638
547.556
547.475
547.393
547.311
547.229
547.147
547.065
546.982
546.899
546.815
546.728
546.638
546.543
546.443
546.339
546.229
546.113
545.993
545.87
545.746
545.622
545.499
545.378
545.258
545.138
545.019
544.9
544.781
544.664
544.547
544.43
544.314
544.199
544.084
543.969
543.855
543.741
543.628
543.515
543.402
543.289
543.177
543.064
542.952
542.84
542.728
542.616
542.504
542.392
542.281
542.169
542.057
541.945
541.834
541.722
541.61
541.499
541.387
541.276
541.164
541.052
540.941
540.829
540.717
540.606
552.491
552.375
552.258
552.142
552.026
551.911
551.797
551.683
551.57
551.457
551.344
551.233
551.123
551.016
550.911
550.809
550.71
550.614
550.52
550.428
550.338
550.251
550.167
550.084
550.004
549.926
549.849
549.773
549.698
549.624
549.551
549.477
549.404
549.331
549.258
549.184
549.11
549.036
548.962
548.887
548.812
548.737
548.662
548.586
548.509
548.431
548.351
548.269
548.187
548.104
548.021
547.938
547.857
547.776
547.696
547.617
547.537
547.457
547.377
547.297
547.216
547.134
547.052
546.968
546.883
546.795
546.704
546.607
546.506
546.398
546.285
546.165
546.04
545.911
545.781
545.652
545.524
545.399
545.276
545.154
545.032
544.911
544.791
544.671
544.553
544.435
544.318
544.202
544.086
543.971
543.857
543.743
543.629
543.516
543.403
543.29
543.177
543.065
542.953
542.84
542.728
542.616
542.504
542.392
542.281
542.169
542.057
541.945
541.834
541.722
541.61
541.499
541.387
541.276
541.164
541.052
540.941
540.829
540.717
540.606
552.491
552.373
552.255
552.137
552.021
551.904
551.789
551.674
551.56
551.446
551.333
551.222
551.112
551.005
550.9
550.798
550.699
550.603
550.508
550.416
550.327
550.24
550.155
550.074
549.994
549.917
549.842
549.767
549.694
549.622
549.551
549.48
549.409
549.339
549.269
549.198
549.127
549.056
548.985
548.913
548.841
548.769
548.696
548.623
548.548
548.471
548.392
548.312
548.231
548.15
548.069
547.989
547.91
547.832
547.754
547.677
547.599
547.522
547.443
547.364
547.284
547.203
547.12
547.036
546.95
546.861
546.768
546.67
546.567
546.457
546.34
546.217
546.087
545.953
545.817
545.682
545.549
545.42
545.294
545.169
545.045
544.922
544.8
544.679
544.559
544.44
544.322
544.205
544.089
543.973
543.859
543.744
543.63
543.517
543.403
543.29
543.178
543.065
542.953
542.841
542.728
542.616
542.504
542.393
542.281
542.169
542.057
541.945
541.834
541.722
541.61
541.499
541.387
541.276
541.164
541.052
540.941
540.829
540.717
540.606
552.49
552.371
552.252
552.133
552.015
551.898
551.782
551.666
551.551
551.437
551.324
551.212
551.103
550.996
550.892
550.79
550.69
550.593
550.498
550.406
550.316
550.229
550.145
550.063
549.985
549.909
549.834
549.761
549.69
549.619
549.549
549.481
549.412
549.344
549.276
549.209
549.141
549.073
549.004
548.935
548.866
548.796
548.725
548.654
548.581
548.506
548.429
548.351
548.272
548.193
548.115
548.038
547.962
547.886
547.811
547.736
547.661
547.586
547.509
547.431
547.352
547.271
547.188
547.103
547.016
546.925
546.831
546.731
546.626
546.514
546.394
546.267
546.133
545.994
545.852
545.711
545.574
545.44
545.311
545.184
545.058
544.932
544.808
544.686
544.564
544.444
544.325
544.208
544.091
543.975
543.86
543.745
543.631
543.517
543.404
543.291
543.178
543.065
542.953
542.841
542.729
542.616
542.504
542.393
542.281
542.169
542.057
541.945
541.834
541.722
541.61
541.499
541.387
541.275
541.164
541.052
540.941
540.829
540.717
540.606
552.49
552.369
552.249
552.129
552.01
551.892
551.775
551.659
551.544
551.43
551.317
551.206
551.097
550.991
550.886
550.784
550.684
550.586
550.49
550.397
550.307
550.22
550.136
550.055
549.976
549.901
549.827
549.755
549.684
549.614
549.546
549.479
549.412
549.346
549.281
549.215
549.15
549.084
549.018
548.952
548.885
548.817
548.748
548.679
548.608
548.535
548.46
548.385
548.309
548.234
548.159
548.086
548.013
547.941
547.868
547.796
547.723
547.649
547.574
547.497
547.418
547.337
547.253
547.167
547.079
546.987
546.891
546.789
546.682
546.568
546.445
546.315
546.177
546.034
545.887
545.742
545.6
545.463
545.331
545.201
545.071
544.942
544.816
544.692
544.569
544.448
544.328
544.21
544.092
543.976
543.861
543.746
543.632
543.518
543.404
543.291
543.178
543.066
542.953
542.841
542.729
542.616
542.504
542.393
542.281
542.169
542.057
541.945
541.834
541.722
541.61
541.499
541.387
541.275
541.164
541.052
540.941
540.829
540.717
540.606
552.489
552.367
552.246
552.126
552.006
551.888
551.771
551.654
551.539
551.425
551.313
551.203
551.095
550.989
550.885
550.782
550.682
550.583
550.487
550.393
550.302
550.215
550.131
550.05
549.972
549.896
549.823
549.75
549.68
549.61
549.543
549.476
549.411
549.346
549.282
549.219
549.156
549.092
549.028
548.964
548.899
548.833
548.767
548.699
548.63
548.56
548.489
548.417
548.345
548.274
548.203
548.133
548.064
547.994
547.925
547.855
547.784
547.711
547.637
547.56
547.482
547.4
547.316
547.229
547.139
547.045
546.948
546.845
546.736
546.619
546.495
546.362
546.221
546.074
545.924
545.775
545.63
545.49
545.354
545.218
545.083
544.952
544.823
544.697
544.573
544.451
544.33
544.211
544.093
543.977
543.861
543.746
543.632
543.518
543.404
543.291
543.178
543.066
542.953
542.841
542.729
542.617
542.504
542.393
542.281
542.169
542.057
541.945
541.834
541.722
541.61
541.499
541.387
541.275
541.164
541.052
540.941
540.829
540.717
540.606
552.489
552.366
552.244
552.123
552.003
551.885
551.767
551.651
551.536
551.423
551.312
551.204
551.097
550.991
550.887
550.785
550.684
550.585
550.488
550.394
550.304
550.216
550.132
550.051
549.973
549.897
549.822
549.749
549.678
549.608
549.541
549.474
549.41
549.347
549.284
549.222
549.161
549.099
549.037
548.975
548.912
548.849
548.785
548.72
548.653
548.586
548.518
548.45
548.382
548.314
548.247
548.181
548.115
548.048
547.981
547.913
547.843
547.771
547.698
547.621
547.542
547.461
547.375
547.287
547.197
547.102
547.002
546.897
546.786
546.668
546.542
546.408
546.265
546.116
545.963
545.811
545.663
545.519
545.377
545.234
545.093
544.959
544.829
544.701
544.576
544.453
544.331
544.212
544.094
543.977
543.861
543.746
543.632
543.518
543.404
543.291
543.178
543.066
542.953
542.841
542.729
542.616
542.504
542.393
542.281
542.169
542.057
541.945
541.834
541.722
541.61
541.499
541.387
541.275
541.164
541.052
540.941
540.829
540.717
540.606
552.488
552.365
552.242
552.121
552.001
551.882
551.766
551.65
551.537
551.425
551.315
551.208
551.102
550.998
550.895
550.793
550.693
550.594
550.497
550.403
550.312
550.225
550.141
550.059
549.98
549.903
549.827
549.753
549.68
549.609
549.541
549.475
549.411
549.349
549.288
549.228
549.168
549.107
549.047
548.987
548.927
548.866
548.805
548.743
548.679
548.615
548.55
548.485
548.42
548.356
548.292
548.229
548.166
548.101
548.036
547.969
547.9
547.829
547.755
547.679
547.6
547.518
547.432
547.344
547.252
547.156
547.056
546.949
546.837
546.717
546.589
546.453
546.308
546.157
546.002
545.848
545.697
545.548
545.399
545.247
545.097
544.963
544.833
544.704
544.578
544.454
544.332
544.212
544.094
543.977
543.861
543.746
543.631
543.518
543.404
543.291
543.178
543.066
542.953
542.841
542.729
542.616
542.504
542.393
542.281
542.169
542.057
541.945
541.834
541.722
541.61
541.499
541.387
541.275
541.164
541.052
540.941
540.829
540.717
540.606
552.488
552.363
552.24
552.118
551.998
551.88
551.765
551.651
551.539
551.429
551.322
551.216
551.113
551.01
550.908
550.808
550.708
550.609
550.513
550.419
550.328
550.24
550.156
550.074
549.993
549.914
549.836
549.76
549.685
549.613
549.545
549.479
549.416
549.356
549.296
549.237
549.178
549.119
549.06
549.003
548.945
548.887
548.829
548.77
548.71
548.648
548.586
548.524
548.462
548.4
548.339
548.278
548.217
548.154
548.089
548.023
547.954
547.882
547.809
547.732
547.654
547.572
547.487
547.399
547.307
547.21
547.108
547
546.884
546.762
546.633
546.495
546.35
546.197
546.041
545.885
545.731
545.576
545.419
545.258
545.088
544.965
544.835
544.705
544.578
544.453
544.331
544.211
544.093
543.976
543.86
543.745
543.631
543.517
543.404
543.291
543.178
543.065
542.953
542.841
542.728
542.616
542.504
542.392
542.281
542.169
542.057
541.945
541.834
541.722
541.61
541.499
541.387
541.275
541.164
541.052
540.941
540.829
540.717
540.606
552.487
552.362
552.238
552.116
551.996
551.879
551.765
551.653
551.543
551.436
551.332
551.229
551.128
551.027
550.928
550.828
550.729
550.631
550.536
550.442
550.35
550.262
550.176
550.093
550.01
549.928
549.847
549.769
549.693
549.62
549.551
549.487
549.425
549.366
549.308
549.25
549.191
549.134
549.077
549.022
548.968
548.914
548.859
548.803
548.746
548.688
548.629
548.569
548.509
548.449
548.39
548.33
548.269
548.206
548.141
548.075
548.006
547.934
547.86
547.784
547.705
547.625
547.541
547.455
547.363
547.265
547.16
547.048
546.93
546.806
546.675
546.537
546.39
546.235
546.078
545.92
545.762
545.601
545.439
545.277
545.117
544.974
544.837
544.704
544.576
544.451
544.329
544.209
544.091
543.974
543.859
543.744
543.63
543.517
543.403
543.29
543.178
543.065
542.953
542.841
542.728
542.616
542.504
542.392
542.281
542.169
542.057
541.945
541.834
541.722
541.61
541.499
541.387
541.275
541.164
541.052
540.941
540.829
540.717
540.606
552.487
552.36
552.236
552.113
551.994
551.878
551.765
551.655
551.549
551.446
551.345
551.245
551.147
551.05
550.952
550.855
550.758
550.661
550.566
550.472
550.379
550.289
550.2
550.114
550.028
549.943
549.859
549.778
549.702
549.629
549.561
549.497
549.437
549.38
549.322
549.265
549.207
549.15
549.098
549.047
548.997
548.947
548.896
548.844
548.79
548.737
548.685
548.628
548.569
548.509
548.45
548.391
548.328
548.263
548.197
548.129
548.06
547.988
547.913
547.836
547.757
547.679
547.599
547.513
547.419
547.318
547.208
547.094
546.973
546.849
546.718
546.579
546.43
546.27
546.109
545.949
545.786
545.621
545.455
545.292
545.129
544.975
544.833
544.699
544.571
544.447
544.325
544.206
544.089
543.972
543.857
543.743
543.629
543.516
543.403
543.29
543.177
543.065
542.953
542.84
542.728
542.616
542.504
542.392
542.281
542.169
542.057
541.945
541.834
541.722
541.61
541.499
541.387
541.275
541.164
541.052
540.941
540.829
540.717
540.606
552.486
552.358
552.232
552.11
551.992
551.877
551.766
551.659
551.556
551.457
551.36
551.265
551.171
551.077
550.982
550.888
550.793
550.697
550.602
550.508
550.413
550.319
550.226
550.136
550.046
549.957
549.872
549.791
549.714
549.642
549.574
549.511
549.452
549.395
549.336
549.277
549.218
549.164
549.118
549.075
549.032
548.986
548.94
548.894
548.841
548.798
548.762
548.712
548.652
548.593
548.528
548.469
548.404
548.334
548.267
548.196
548.13
548.057
547.977
547.899
547.814
547.739
547.664
547.573
547.469
547.365
547.248
547.133
547.008
546.889
546.759
546.616
546.465
546.29
546.126
545.964
545.797
545.634
545.465
545.298
545.126
544.963
544.819
544.687
544.562
544.44
544.32
544.202
544.086
543.97
543.856
543.742
543.628
543.515
543.402
543.29
543.177
543.065
542.952
542.84
542.728
542.616
542.504
542.392
542.281
542.169
542.057
541.945
541.834
541.722
541.61
541.499
541.387
541.276
541.164
541.052
540.941
540.829
540.717
540.606
552.484
552.354
552.227
552.105
551.987
551.874
551.766
551.662
551.563
551.469
551.377
551.285
551.195
551.105
551.016
550.926
550.834
550.741
550.647
550.551
550.452
550.352
550.255
550.159
550.067
549.98
549.899
549.821
549.743
549.668
549.597
549.529
549.467
549.407
549.34
549.273
549.211
549.157
549.121
549.09
549.059
549.02
548.982
548.946
548.877
548.854
548.866
548.829
548.763
548.709
548.621
548.567
548.501
548.422
548.367
548.287
548.232
548.16
548.061
547.986
547.881
547.81
547.749
547.63
547.487
547.392
547.255
547.149
547.012
546.916
546.789
546.633
546.493
546.27
546.121
545.97
545.783
545.645
545.475
545.303
545.109
544.938
544.795
544.669
544.549
544.431
544.314
544.198
544.083
543.968
543.854
543.741
543.627
543.515
543.402
543.289
543.177
543.064
542.952
542.84
542.728
542.616
542.504
542.392
542.281
542.169
542.057
541.945
541.834
541.722
541.61
541.499
541.387
541.276
541.164
541.052
540.941
540.829
540.717
540.606
552.481
552.348
552.22
552.098
551.982
551.871
551.766
551.668
551.574
551.488
551.398
551.307
551.22
551.135
551.052
550.97
550.884
550.793
550.696
550.599
550.493
550.388
550.29
550.193
550.11
550.039
549.979
549.905
549.82
549.73
549.642
549.557
549.471
549.39
549.293
549.213
549.143
549.085
549.062
549.065
549.046
549.031
549.025
549.015
548.982
548.956
548.944
548.947
548.871
548.808
548.721
548.643
548.578
548.494
548.452
548.365
548.316
548.224
548.133
548.055
547.934
547.878
547.838
547.668
547.53
547.429
547.243
547.121
546.961
546.799
546.696
546.474
546.351
546.219
546.15
545.997
545.751
545.613
545.522
545.367
545.088
544.894
544.76
544.645
544.534
544.421
544.308
544.194
544.08
543.966
543.853
543.74
543.627
543.514
543.401
543.289
543.177
543.064
542.952
542.84
542.728
542.616
542.504
542.392
542.281
542.169
542.057
541.945
541.834
541.722
541.61
541.499
541.387
541.276
541.164
541.052
540.941
540.829
540.717
540.606
552.477
552.338
552.211
552.09
551.976
551.868
551.769
551.683
551.593
551.526
551.434
551.332
551.242
551.163
551.087
551.021
550.94
550.852
550.744
550.649
550.526
550.421
550.35
550.26
550.234
550.211
550.192
550.099
549.963
549.827
549.716
549.59
549.429
549.279
549.138
549.036
548.989
549.023
549.006
549.065
549.092
549.074
549.082
549.089
549.088
549.059
549.049
549.051
548.968
548.88
548.776
548.66
548.609
548.573
548.546
548.482
548.411
548.294
548.208
548.109
547.999
547.911
547.9
547.686
547.444
547.391
547.115
546.979
546.71
546.567
546.644
546.252
546.066
546.075
546.574
546.09
545.18
545.381
546.033
545.428
544.94
544.786
544.714
544.62
544.519
544.413
544.303
544.191
544.078
543.965
543.852
543.739
543.626
543.514
543.401
543.289
543.176
543.064
542.952
542.84
542.728
542.616
542.504
542.392
542.281
542.169
542.057
541.945
541.834
541.722