/*--------------------------------*- C++ -*----------------------------------*\
  =========                 |
  \\      /  F ield         | OpenFOAM: The Open Source CFD Toolbox
   \\    /   O peration     | Website:  https://openfoam.org
    \\  /    A nd           | Version:  6
     \\/     M anipulation  |
\*---------------------------------------------------------------------------*/
FoamFile
{
    version     2.0;
    format      ascii;
    class       volVectorField;
    location    "500";
    object      U;
}
// * * * * * * * * * * * * * * * * * * * * * * * * * * * * * * * * * * * * * //

dimensions      [0 1 -1 0 0 0 0];

internalField   nonuniform List<vector> 
4800
(
(1.2727e-05 0 -5.60782e-05)
(-3.26619e-05 0 -4.70067e-05)
(-9.66784e-05 0 -4.7593e-05)
(-0.000139341 0 1.55554e-06)
(-0.000198201 0 -1.81102e-05)
(-0.00026482 0 2.6982e-05)
(-0.000295028 0 -1.56217e-05)
(-0.000301369 0 -2.65136e-05)
(-0.000248171 0 -6.18424e-05)
(-0.000200241 0 -4.1247e-05)
(-0.000166091 0 -1.82222e-05)
(-0.00012218 0 2.6703e-06)
(-6.51471e-05 0 -3.27549e-05)
(-2.31703e-05 0 -7.0829e-05)
(6.88915e-05 0 -1.4741e-05)
(9.91126e-05 0 3.27277e-05)
(8.96643e-05 0 -0.00014813)
(0.000164095 0 -5.52955e-05)
(0.00016947 0 -2.70048e-05)
(0.00014072 0 -1.37441e-05)
(6.58791e-05 0 -3.14079e-05)
(2.03841e-05 0 -4.73778e-07)
(-1.8191e-05 0 3.27535e-06)
(-9.72571e-05 0 5.45619e-06)
(-0.000236687 0 3.21896e-05)
(-0.000289409 0 3.66022e-06)
(-0.000311734 0 -0.000124775)
(-0.000551348 0 6.7e-05)
(-0.000725946 0 0.000123121)
(-0.000852002 0 -7.47994e-05)
(-0.000957686 0 -4.16251e-06)
(-0.00102788 0 -3.72987e-05)
(-0.00105441 0 -4.93026e-05)
(-0.00106492 0 -2.57586e-05)
(-0.00108193 0 -5.25325e-05)
(-0.00110147 0 -5.53151e-05)
(-0.00111224 0 -4.93872e-05)
(-0.00111821 0 -5.27584e-05)
(-0.00112782 0 -3.48899e-05)
(-0.00116121 0 2.82515e-05)
(-0.00121039 0 7.38047e-05)
(-0.00126587 0 1.76961e-05)
(-0.00132248 0 -5.56133e-05)
(-0.00137637 0 -6.12947e-05)
(-0.00141307 0 -4.01899e-05)
(-0.00143118 0 -4.79838e-05)
(-0.00144534 0 -9.92377e-05)
(-0.00146233 0 -9.34001e-05)
(-0.00147506 0 -9.0617e-05)
(-0.00148525 0 -7.72537e-05)
(-0.00149617 0 -6.8484e-05)
(-0.00150319 0 -7.20199e-05)
(-0.00150093 0 -6.41795e-05)
(-0.0014906 0 -5.9167e-05)
(-0.00149072 0 -5.91361e-05)
(-0.0014776 0 -8.22362e-05)
(-0.00142448 0 -0.000100184)
(-0.0013765 0 -8.45692e-05)
(-0.00132261 0 -6.61456e-05)
(-0.00124561 0 -8.9368e-05)
(-0.00115758 0 -0.00012302)
(-0.0010974 0 -9.45953e-05)
(-0.00105402 0 -8.54647e-05)
(-0.000990382 0 -0.000119274)
(-0.000942099 0 -0.000118244)
(-0.000902191 0 -0.000120845)
(-0.000861006 0 -0.000138843)
(-0.000830235 0 -0.000122806)
(-0.00081093 0 -0.000126154)
(-0.000803943 0 -0.000120529)
(-0.00080214 0 -0.000125507)
(-0.000806672 0 -0.000151216)
(-0.000813208 0 -0.000155654)
(-0.000792722 0 -0.000173609)
(-0.00071166 0 -0.000181045)
(-0.000662201 0 -0.000171192)
(-0.000626197 0 -0.000194417)
(-0.000607534 0 -0.000229322)
(-0.000642113 0 -0.000295785)
(4.05888e-06 0 -0.000459729)
(-1.85436e-14 0 2.49105e-13)
(-3.63383e-13 0 1.64226e-13)
(1.5716e-13 0 7.81462e-14)
(4.71092e-14 0 3.19723e-14)
(7.59299e-15 0 7.61295e-15)
(5.66812e-15 0 -5.84071e-15)
(2.49034e-14 0 -1.36945e-14)
(5.66139e-14 0 -1.84357e-14)
(9.57091e-14 0 -2.12336e-14)
(1.38883e-13 0 -2.26631e-14)
(1.83835e-13 0 -2.30663e-14)
(2.28809e-13 0 -2.26804e-14)
(2.72301e-13 0 -2.16424e-14)
(3.13082e-13 0 -2.00365e-14)
(3.50303e-13 0 -1.79871e-14)
(3.83361e-13 0 -1.56427e-14)
(4.11716e-13 0 -1.30908e-14)
(4.35017e-13 0 -1.0375e-14)
(4.53245e-13 0 -7.57238e-15)
(4.66554e-13 0 -4.79129e-15)
(4.75066e-13 0 -2.11317e-15)
(4.78876e-13 0 4.148e-16)
(4.78102e-13 0 2.74782e-15)
(4.72849e-13 0 4.84501e-15)
(4.63208e-13 0 6.69911e-15)
(4.49346e-13 0 8.3421e-15)
(4.31602e-13 0 9.81742e-15)
(4.10474e-13 0 1.11549e-14)
(3.86514e-13 0 1.23675e-14)
(3.6022e-13 0 1.34626e-14)
(3.31985e-13 0 1.4449e-14)
(3.02086e-13 0 1.53384e-14)
(2.70712e-13 0 1.61397e-14)
(2.37989e-13 0 1.6852e-14)
(2.04004e-13 0 1.74623e-14)
(1.68825e-13 0 1.79485e-14)
(1.32533e-13 0 1.82905e-14)
(9.52689e-14 0 1.84769e-14)
(5.72909e-14 0 1.84934e-14)
(1.90825e-14 0 1.82597e-14)
(-2.89625e-05 0 5.80044e-05)
(-5.93941e-05 0 6.37965e-05)
(-6.15199e-05 0 9.16356e-05)
(-0.000106314 0 8.0635e-05)
(-0.00017298 0 5.82686e-05)
(-0.000211358 0 4.27441e-05)
(-0.000233361 0 2.07213e-05)
(-0.000242747 0 4.83258e-07)
(-0.000198559 0 -8.73765e-05)
(-0.000148116 0 -0.000102365)
(-0.000125894 0 -8.51536e-05)
(-8.02776e-05 0 -0.000100354)
(3.60964e-05 0 -9.5592e-05)
(-2.13663e-05 0 -0.000134449)
(9.19035e-05 0 -0.000149207)
(0.000183739 0 -1.80921e-05)
(0.0001984 0 -5.65527e-05)
(0.000201077 0 -7.70099e-06)
(0.000201358 0 3.31712e-05)
(0.00018944 0 8.35719e-05)
(0.000167545 0 9.89058e-05)
(0.000127913 0 9.32961e-05)
(6.33085e-05 0 0.000101913)
(-2.18176e-05 0 0.000132814)
(-0.000111223 0 0.000163653)
(-0.000210057 0 0.000192669)
(-0.000359713 0 0.00024675)
(-0.000502864 0 0.000222921)
(-0.000640638 0 0.000190588)
(-0.000763169 0 0.000159354)
(-0.000835639 0 0.000128509)
(-0.000856826 0 0.000124049)
(-0.000859837 0 0.000122541)
(-0.000892263 0 3.37236e-05)
(-0.000945906 0 5.52452e-05)
(-0.000970641 0 7.75664e-05)
(-0.000986499 0 5.29739e-05)
(-0.000998116 0 6.68754e-05)
(-0.0010033 0 7.62013e-05)
(-0.00101817 0 0.000135276)
(-0.00106956 0 0.000109055)
(-0.00112222 0 7.57769e-05)
(-0.00115727 0 0.000116815)
(-0.00116868 0 0.000117357)
(-0.00116792 0 0.000124662)
(-0.00121645 0 7.63245e-05)
(-0.00125382 0 7.58303e-05)
(-0.00126326 0 7.95606e-05)
(-0.00126275 0 8.79453e-05)
(-0.00127314 0 0.000105562)
(-0.00128773 0 6.48593e-05)
(-0.00128702 0 7.00443e-05)
(-0.00123462 0 6.01848e-05)
(-0.00120237 0 3.96773e-05)
(-0.00119211 0 2.38699e-05)
(-0.0011649 0 -5.7424e-06)
(-0.00109364 0 -3.91284e-05)
(-0.00102625 0 -6.82278e-05)
(-0.000978808 0 -8.46461e-05)
(-0.000951493 0 -2.47465e-05)
(-0.0008915 0 -2.1285e-05)
(-0.000816865 0 -8.32594e-05)
(-0.000776795 0 2.79232e-05)
(-0.000704752 0 -2.54787e-05)
(-0.000642404 0 -5.71844e-06)
(-0.000581004 0 9.75249e-06)
(-0.000526673 0 4.48503e-05)
(-0.000474855 0 2.86275e-05)
(-0.000435302 0 5.89173e-05)
(-0.000413195 0 7.48674e-05)
(-0.000405944 0 8.96637e-05)
(-0.000406957 0 0.000101212)
(-0.000414473 0 7.46019e-05)
(-0.000425568 0 5.89663e-05)
(-0.00040112 0 3.37705e-06)
(-0.000367317 0 2.05607e-05)
(-0.000358162 0 2.58476e-05)
(-0.000431495 0 -0.000139202)
(-0.000645009 0 -0.000180146)
(5.61051e-06 0 -0.000547657)
(-3.74972e-13 0 9.42546e-13)
(-5.87326e-13 0 4.50875e-13)
(2.48194e-14 0 1.94282e-13)
(-2.33032e-14 0 7.4007e-14)
(-3.0201e-14 0 1.18073e-14)
(-1.56394e-14 0 -2.32778e-14)
(1.23085e-14 0 -4.43704e-14)
(4.90748e-14 0 -5.73905e-14)
(9.14817e-14 0 -6.51558e-14)
(1.3705e-13 0 -6.91025e-14)
(1.83818e-13 0 -7.0085e-14)
(2.30232e-13 0 -6.86963e-14)
(2.74945e-13 0 -6.53453e-14)
(3.16738e-13 0 -6.0345e-14)
(3.54696e-13 0 -5.40396e-14)
(3.88257e-13 0 -4.67857e-14)
(4.16984e-13 0 -3.88559e-14)
(4.40535e-13 0 -3.04756e-14)
(4.58828e-13 0 -2.19237e-14)
(4.72013e-13 0 -1.35233e-14)
(4.80272e-13 0 -5.54604e-15)
(4.83737e-13 0 1.8369e-15)
(4.82532e-13 0 8.54266e-15)
(4.76801e-13 0 1.45677e-14)
(4.66705e-13 0 1.99822e-14)
(4.52464e-13 0 2.48925e-14)
(4.34415e-13 0 2.93869e-14)
(4.13025e-13 0 3.35057e-14)
(3.88822e-13 0 3.72545e-14)
(3.62302e-13 0 4.06341e-14)
(3.33861e-13 0 4.36572e-14)
(3.03777e-13 0 4.63429e-14)
(2.72226e-13 0 4.86983e-14)
(2.39312e-13 0 5.07074e-14)
(2.051e-13 0 5.23379e-14)
(1.69653e-13 0 5.35634e-14)
(1.33061e-13 0 5.43859e-14)
(9.54718e-14 0 5.48386e-14)
(5.70737e-14 0 5.49641e-14)
(1.88488e-14 0 5.47809e-14)
(-2.16678e-05 0 6.91e-05)
(-3.61542e-05 0 8.17276e-05)
(-3.73116e-05 0 0.000107703)
(-6.40622e-05 0 0.000127262)
(-8.28167e-05 0 0.00014133)
(-0.000148162 0 5.67651e-05)
(-0.000138309 0 2.73575e-05)
(-0.000148869 0 -3.0091e-05)
(-0.000144531 0 -7.00925e-05)
(-0.000122518 0 -0.000102118)
(-0.000104474 0 -0.000113466)
(-4.40518e-05 0 -0.000149136)
(-2.96575e-06 0 -0.000162525)
(0.000126561 0 -0.000109931)
(6.90188e-05 0 -0.000172464)
(0.000149476 0 -0.000135218)
(0.00020838 0 -5.27187e-05)
(0.00021285 0 -1.71979e-05)
(0.000200329 0 1.93113e-05)
(0.000201286 0 4.62842e-05)
(0.000189191 0 0.000111752)
(0.000168847 0 0.00013328)
(9.15186e-05 0 0.00017742)
(2.8335e-05 0 0.000211002)
(-7.35537e-05 0 0.000238495)
(-0.000158482 0 0.000273667)
(-0.000269371 0 0.000376472)
(-0.000435449 0 0.000321882)
(-0.000552083 0 0.000240235)
(-0.000610532 0 0.000199871)
(-0.000628611 0 0.000162078)
(-0.000621611 0 0.000102795)
(-0.000644034 0 -2.95216e-05)
(-0.000692877 0 -6.78647e-05)
(-0.00072113 0 4.06353e-05)
(-0.00074649 0 2.82699e-06)
(-0.000783476 0 4.05752e-06)
(-0.000825117 0 1.61417e-05)
(-0.000853045 0 2.33538e-05)
(-0.000876882 0 4.16117e-05)
(-0.000907752 0 8.58599e-05)
(-0.000932663 0 7.73648e-05)
(-0.000941911 0 7.47526e-05)
(-0.000940813 0 7.4148e-05)
(-0.000971381 0 -1.01402e-05)
(-0.0010347 0 -1.02698e-05)
(-0.00106207 0 5.07189e-05)
(-0.00107317 0 2.81991e-05)
(-0.00109724 0 5.36754e-05)
(-0.00111337 0 -3.30792e-05)
(-0.00111465 0 -4.57726e-05)
(-0.00111465 0 -5.03976e-05)
(-0.00109407 0 -0.000125897)
(-0.00102412 0 -0.000157277)
(-0.000977929 0 -7.97639e-05)
(-0.000951852 0 -9.35916e-05)
(-0.000938408 0 -0.000132497)
(-0.000896929 0 -0.000158475)
(-0.000806384 0 -0.000218601)
(-0.000755147 0 -0.000159877)
(-0.000715341 0 -0.000127078)
(-0.00063287 0 -0.000242434)
(-0.000619886 0 -0.000109008)
(-0.000538579 0 -0.000189831)
(-0.000484399 0 -0.0001708)
(-0.000400145 0 -0.000182114)
(-0.000339493 0 -0.000147728)
(-0.000274226 0 -0.000125949)
(-0.000222002 0 -0.000100236)
(-0.000194412 0 -6.17137e-05)
(-0.000177229 0 -3.9815e-05)
(-0.000168553 0 -9.95539e-06)
(-0.000136929 0 -4.591e-05)
(-0.000136609 0 -5.21985e-05)
(-0.000166773 0 -4.41756e-05)
(-0.000147188 0 -0.000109726)
(-0.000141389 0 -0.00012085)
(0.000309437 0 -0.000140234)
(-0.0004724 0 -0.000288024)
(5.83879e-06 0 -0.000594861)
(-4.83464e-13 0 5.75401e-13)
(-1.25937e-12 0 3.79215e-13)
(-2.19473e-13 0 1.73925e-13)
(-1.35066e-13 0 5.8212e-14)
(-8.96499e-14 0 -1.08468e-14)
(-5.05096e-14 0 -5.43351e-14)
(-9.2092e-15 0 -8.26191e-14)
(3.58285e-14 0 -1.00943e-13)
(8.39971e-14 0 -1.12071e-13)
(1.33954e-13 0 -1.17573e-13)
(1.84241e-13 0 -1.1849e-13)
(2.33548e-13 0 -1.15619e-13)
(2.80653e-13 0 -1.09582e-13)
(3.24388e-13 0 -1.0091e-13)
(3.63862e-13 0 -9.01565e-14)
(3.98544e-13 0 -7.78658e-14)
(4.28026e-13 0 -6.45018e-14)
(4.51949e-13 0 -5.04899e-14)
(4.70197e-13 0 -3.62938e-14)
(4.82931e-13 0 -2.23966e-14)
(4.90427e-13 0 -9.20952e-15)
(4.92965e-13 0 2.99635e-15)
(4.90832e-13 0 1.41125e-14)
(4.84289e-13 0 2.41797e-14)
(4.73533e-13 0 3.33335e-14)
(4.5875e-13 0 4.17207e-14)
(4.40215e-13 0 4.94316e-14)
(4.18342e-13 0 5.64863e-14)
(3.93642e-13 0 6.28693e-14)
(3.66623e-13 0 6.8572e-14)
(3.37694e-13 0 7.36098e-14)
(3.07127e-13 0 7.80048e-14)
(2.75077e-13 0 8.17609e-14)
(2.41628e-13 0 8.48588e-14)
(2.0686e-13 0 8.72798e-14)
(1.70873e-13 0 8.90408e-14)
(1.33808e-13 0 9.02128e-14)
(9.58471e-14 0 9.09096e-14)
(5.72332e-14 0 9.12674e-14)
(1.88992e-14 0 9.14633e-14)
(-2.67146e-05 0 8.07793e-05)
(-2.09375e-05 0 8.60298e-05)
(-2.78774e-05 0 0.000106885)
(-2.85837e-05 0 0.000136712)
(-4.1616e-05 0 0.000149639)
(-6.75867e-05 0 0.000110798)
(-7.39296e-05 0 4.37429e-05)
(-7.86381e-05 0 1.18695e-05)
(-8.75207e-05 0 -7.70149e-05)
(-6.13411e-05 0 -0.000118902)
(-0.000101682 0 -0.000109886)
(-4.78022e-05 0 -0.000189874)
(-1.55744e-05 0 -0.000233015)
(4.35797e-05 0 -0.000221499)
(0.000130689 0 -0.00016629)
(0.000128255 0 -0.000150215)
(0.000176403 0 -8.14973e-05)
(0.000186775 0 -3.08884e-05)
(0.000190379 0 3.61736e-06)
(0.000198251 0 5.54931e-05)
(0.000185789 0 0.000141262)
(0.000154252 0 0.000185894)
(0.00011195 0 0.000225724)
(3.12369e-05 0 0.000290716)
(5.5152e-06 0 0.000317723)
(-9.09619e-05 0 0.000347877)
(-0.000128413 0 0.000434434)
(-0.000176402 0 0.000483339)
(-0.000270227 0 0.000410957)
(-0.000353294 0 0.000305127)
(-0.000446975 0 0.000162421)
(-0.000527916 0 3.87013e-05)
(-0.000567766 0 7.64866e-05)
(-0.000596175 0 0.000201707)
(-0.000655815 0 4.48117e-05)
(-0.000686881 0 0.000132944)
(-0.000736238 0 9.64084e-05)
(-0.000754567 0 0.00011696)
(-0.000756464 0 0.000128986)
(-0.000745838 0 0.00013918)
(-0.000743721 0 0.000115876)
(-0.000735379 0 0.000111356)
(-0.00073048 0 0.000110979)
(-0.000752348 0 0.000106342)
(-0.000804088 0 0.000117091)
(-0.000836962 0 0.000155511)
(-0.000870187 0 0.000155636)
(-0.000918299 0 6.2312e-05)
(-0.000951446 0 3.23361e-05)
(-0.000962758 0 4.5182e-05)
(-0.000960393 0 2.15035e-05)
(-0.000960582 0 -1.37819e-05)
(-0.00096577 0 -4.67875e-05)
(-0.000930681 0 -7.84963e-05)
(-0.000860283 0 -0.000149445)
(-0.000822099 0 -0.000161975)
(-0.000812006 0 -0.000156951)
(-0.000815227 0 -0.000139138)
(-0.000730865 0 -0.000212235)
(-0.000620815 0 -0.000265084)
(-0.000605033 0 -0.000167576)
(-0.00056003 0 -0.000194142)
(-0.000507483 0 -0.00020891)
(-0.000461837 0 -0.000201807)
(-0.000402861 0 -0.000209969)
(-0.000309938 0 -0.000224923)
(-0.000235335 0 -0.000184685)
(-0.000146241 0 -0.000152663)
(-9.28926e-05 0 -9.85264e-05)
(-5.18844e-05 0 -4.72182e-05)
(-2.71882e-05 0 -2.45871e-05)
(-3.07848e-05 0 -7.19989e-06)
(-3.93174e-05 0 -4.18528e-06)
(-6.01138e-05 0 -1.93616e-05)
(-5.69269e-05 0 -8.47457e-05)
(-3.16353e-08 0 -0.000159424)
(-1.34575e-05 0 -0.000161997)
(4.1459e-05 0 -0.000166437)
(-0.000469321 0 -0.000232668)
(6.81556e-06 0 -0.000624095)
(-5.2743e-13 0 -1.46682e-13)
(-1.20745e-12 0 1.27741e-13)
(-2.95575e-13 0 6.42761e-14)
(-2.07725e-13 0 -3.42792e-15)
(-1.42699e-13 0 -5.81557e-14)
(-8.74117e-14 0 -9.94551e-14)
(-3.42991e-14 0 -1.29439e-13)
(1.96227e-14 0 -1.50075e-13)
(7.48509e-14 0 -1.62824e-13)
(1.30631e-13 0 -1.68755e-13)
(1.85772e-13 0 -1.68799e-13)
(2.3914e-13 0 -1.63868e-13)
(2.89654e-13 0 -1.54764e-13)
(3.36163e-13 0 -1.42172e-13)
(3.77741e-13 0 -1.26841e-13)
(4.13912e-13 0 -1.09556e-13)
(4.44359e-13 0 -9.09701e-14)
(4.68743e-13 0 -7.16047e-14)
(4.86922e-13 0 -5.19772e-14)
(4.99097e-13 0 -3.26372e-14)
(5.05665e-13 0 -1.40775e-14)
(5.07059e-13 0 3.33949e-15)
(5.03715e-13 0 1.94071e-14)
(4.96022e-13 0 3.40767e-14)
(4.84246e-13 0 4.74271e-14)
(4.68562e-13 0 5.95881e-14)
(4.4918e-13 0 7.06583e-14)
(4.26462e-13 0 8.06737e-14)
(4.00908e-13 0 8.9634e-14)
(3.73042e-13 0 9.75463e-14)
(3.43294e-13 0 1.04443e-13)
(3.11928e-13 0 1.10365e-13)
(2.7908e-13 0 1.15346e-13)
(2.4483e-13 0 1.19403e-13)
(2.09282e-13 0 1.22563e-13)
(1.72586e-13 0 1.24893e-13)
(1.3493e-13 0 1.26505e-13)
(9.65264e-14 0 1.27552e-13)
(5.76274e-14 0 1.28194e-13)
(1.90447e-14 0 1.28576e-13)
(9.15914e-06 0 9.75576e-05)
(-1.10236e-05 0 9.24521e-05)
(-9.36065e-06 0 0.00010561)
(2.66665e-07 0 0.000134726)
(-1.84648e-05 0 0.000143878)
(-7.03721e-06 0 0.00011574)
(-1.54506e-05 0 5.38496e-05)
(-3.36172e-05 0 6.56218e-06)
(-3.80101e-05 0 -5.5621e-05)
(-9.79168e-06 0 -0.000103553)
(-6.81818e-05 0 -0.000111446)
(-1.62233e-05 0 -0.000230627)
(1.04164e-05 0 -0.000271304)
(3.45912e-05 0 -0.000263187)
(8.71509e-05 0 -0.000218036)
(6.32405e-05 0 -0.000198386)
(0.000149786 0 -0.000112368)
(0.000166619 0 -2.93849e-05)
(0.000177568 0 6.36053e-06)
(0.000181836 0 7.56628e-05)
(0.000180238 0 0.000146173)
(0.000147161 0 0.000219926)
(0.000100614 0 0.000281401)
(6.55537e-05 0 0.000337985)
(3.97607e-05 0 0.000381963)
(-2.37131e-05 0 0.000408776)
(-9.66806e-05 0 0.00046782)
(-0.000190371 0 0.000512375)
(-0.000269007 0 0.00042573)
(-0.000263649 0 0.000374647)
(-0.000364511 0 0.000277243)
(-0.000459705 0 0.000179429)
(-0.000493421 0 0.00011961)
(-0.000555197 0 0.00013811)
(-0.000620533 0 0.000105222)
(-0.000657199 0 0.000112933)
(-0.000677041 0 0.000104595)
(-0.000685368 0 9.25184e-05)
(-0.000671244 0 4.81369e-05)
(-0.000632815 0 3.9291e-05)
(-0.000612611 0 8.06709e-05)
(-0.000605232 0 8.64607e-05)
(-0.00060509 0 8.72107e-05)
(-0.000636694 0 0.000124886)
(-0.000674626 0 9.99442e-05)
(-0.000697308 0 7.84903e-05)
(-0.000726366 0 7.14114e-05)
(-0.000757604 0 0.000102418)
(-0.000770825 0 8.86536e-05)
(-0.00077585 0 2.51725e-05)
(-0.000791701 0 -5.4746e-05)
(-0.000810812 0 -4.87314e-05)
(-0.000800044 0 -0.000108649)
(-0.000789252 0 -0.000130243)
(-0.000786281 0 -0.000144501)
(-0.000763435 0 -0.000128231)
(-0.000733452 0 -0.000210929)
(-0.000715574 0 -0.000265302)
(-0.000676427 0 -0.000249216)
(-0.000558915 0 -0.000340491)
(-0.000572739 0 -0.000206775)
(-0.000526589 0 -0.0002279)
(-0.000483175 0 -0.000228736)
(-0.000436101 0 -0.000232905)
(-0.000372567 0 -0.000243905)
(-0.000270892 0 -0.000267694)
(-0.0001528 0 -0.000263129)
(-5.70761e-05 0 -0.000206129)
(8.10143e-05 0 -0.00015342)
(0.00017326 0 -9.35351e-05)
(0.000179211 0 -2.18343e-05)
(0.000141498 0 3.31399e-05)
(0.000140293 0 5.91633e-06)
(0.000189096 0 -2.91209e-05)
(0.00022725 0 -8.33045e-05)
(0.000232273 0 -0.000102358)
(0.000117334 0 -0.000122746)
(0.000301515 0 -0.000128202)
(-0.000254831 0 -0.000187869)
(5.98484e-06 0 -0.000533785)
(-3.29993e-13 0 -2.80009e-13)
(-1.31596e-12 0 -2.25022e-14)
(-3.50062e-13 0 -4.06732e-14)
(-2.57148e-13 0 -7.71022e-14)
(-1.85618e-13 0 -1.17903e-13)
(-1.21793e-13 0 -1.5483e-13)
(-5.98292e-14 0 -1.84484e-13)
(2.4431e-15 0 -2.05892e-13)
(6.53168e-14 0 -2.19123e-13)
(1.27979e-13 0 -2.24611e-13)
(1.89129e-13 0 -2.23036e-13)
(2.47583e-13 0 -2.15347e-13)
(3.02349e-13 0 -2.02546e-13)
(3.5231e-13 0 -1.85511e-13)
(3.96478e-13 0 -1.65156e-13)
(4.34416e-13 0 -1.42472e-13)
(4.65977e-13 0 -1.18323e-13)
(4.90942e-13 0 -9.33338e-14)
(5.09165e-13 0 -6.80209e-14)
(5.20831e-13 0 -4.29349e-14)
(5.26403e-13 0 -1.86399e-14)
(5.2645e-13 0 4.36371e-15)
(5.2157e-13 0 2.57093e-14)
(5.12309e-13 0 4.52146e-14)
(4.99044e-13 0 6.28847e-14)
(4.81981e-13 0 7.88436e-14)
(4.61301e-13 0 9.32299e-14)
(4.37318e-13 0 1.06129e-13)
(4.10515e-13 0 1.17576e-13)
(3.81431e-13 0 1.27593e-13)
(3.50513e-13 0 1.36228e-13)
(3.18031e-13 0 1.4355e-13)
(2.84114e-13 0 1.49636e-13)
(2.48845e-13 0 1.54564e-13)
(2.12349e-13 0 1.58419e-13)
(1.74815e-13 0 1.61316e-13)
(1.36467e-13 0 1.63397e-13)
(9.75354e-14 0 1.64829e-13)
(5.82576e-14 0 1.65773e-13)
(1.92814e-14 0 1.66342e-13)
(-3.4972e-05 0 9.31646e-05)
(1.55526e-07 0 9.9128e-05)
(5.30437e-08 0 0.00010058)
(1.22265e-05 0 0.000126304)
(2.83509e-05 0 0.000138954)
(1.43161e-05 0 0.000118792)
(4.84816e-06 0 6.59362e-05)
(2.90316e-07 0 2.02013e-05)
(-1.25691e-05 0 -4.62583e-05)
(1.63884e-05 0 -8.51466e-05)
(-3.18777e-05 0 -0.000115683)
(1.42962e-05 0 -0.000252109)
(1.89803e-05 0 -0.000309063)
(5.14129e-05 0 -0.000295473)
(7.34932e-05 0 -0.00024416)
(6.76522e-05 0 -0.00021183)
(0.000153762 0 -0.000113528)
(7.76079e-05 0 -0.000143318)
(0.000145305 0 2.107e-05)
(0.000155962 0 7.76106e-05)
(0.000152727 0 0.000166125)
(0.000125931 0 0.000248945)
(0.00011135 0 0.000309304)
(0.000123692 0 0.000355193)
(3.72507e-05 0 0.000442288)
(3.94512e-05 0 0.000469687)
(-0.000258164 0 0.000517568)
(-2.96199e-05 0 0.000552227)
(-0.000129593 0 0.00051401)
(-0.000241112 0 0.000414832)
(-0.000254059 0 0.00035887)
(-0.000378578 0 0.000255668)
(-0.00045021 0 0.000195553)
(-0.000477366 0 0.000213019)
(-0.000516732 0 0.000206869)
(-0.000576569 0 0.00014021)
(-0.000601051 0 0.000100023)
(-0.000611305 0 7.78713e-05)
(-0.000612197 0 4.86662e-05)
(-0.000577221 0 1.18537e-06)
(-0.000538176 0 6.79082e-05)
(-0.000510305 0 0.000111463)
(-0.000500482 0 0.000132065)
(-0.000495813 0 0.000181925)
(-0.000498674 0 0.000197105)
(-0.000509631 0 0.000200703)
(-0.000542598 0 0.000195263)
(-0.000592775 0 0.000130952)
(-0.000627933 0 7.73876e-05)
(-0.000646924 0 1.05791e-05)
(-0.000653487 0 -6.13387e-05)
(-0.000668687 0 4.16811e-05)
(-0.000675668 0 -0.000101031)
(-0.000686574 0 -0.000163888)
(-0.000695272 0 -0.000154)
(-0.000660817 0 -0.000218378)
(-0.000658047 0 -0.000199805)
(-0.000657624 0 -0.000198338)
(-0.00065154 0 -0.000223969)
(-0.00048908 0 -0.000478422)
(-0.000593773 0 -0.000243401)
(-0.000584089 0 -0.00018625)
(-0.000496013 0 -0.000318132)
(-0.000472555 0 -0.000291718)
(-0.000372595 0 -0.000382835)
(-0.000280994 0 -0.000436809)
(-0.000167741 0 -0.000463775)
(2.47951e-05 0 -0.000446728)
(0.000164792 0 -0.000327199)
(0.000269049 0 -0.000116081)
(0.000291309 0 -6.69309e-05)
(0.000310755 0 -1.86282e-05)
(0.000325075 0 -2.56532e-07)
(0.00032837 0 -5.00066e-05)
(0.000315762 0 -6.63258e-05)
(0.000282913 0 -7.59985e-05)
(0.000151471 0 -9.86523e-05)
(0.000308977 0 -0.000105663)
(-0.00029328 0 -0.00018008)
(6.22258e-06 0 -0.000478765)
(-2.96767e-13 0 -6.71292e-13)
(-1.26539e-12 0 -1.65431e-13)
(-3.49614e-13 0 -1.26861e-13)
(-2.84602e-13 0 -1.45629e-13)
(-2.20355e-13 0 -1.80863e-13)
(-1.53993e-13 0 -2.16946e-13)
(-8.5362e-14 0 -2.47419e-13)
(-1.50162e-14 0 -2.69691e-13)
(5.61327e-14 0 -2.83012e-13)
(1.26718e-13 0 -2.87447e-13)
(1.95036e-13 0 -2.83519e-13)
(2.5963e-13 0 -2.7222e-13)
(3.19489e-13 0 -2.54778e-13)
(3.73553e-13 0 -2.32317e-13)
(4.20781e-13 0 -2.05958e-13)
(4.60745e-13 0 -1.76904e-13)
(4.93497e-13 0 -1.46279e-13)
(5.19045e-13 0 -1.14896e-13)
(5.37321e-13 0 -8.33305e-14)
(5.48478e-13 0 -5.2111e-14)
(5.52964e-13 0 -2.18038e-14)
(5.51409e-13 0 7.00286e-15)
(5.44566e-13 0 3.37852e-14)
(5.33197e-13 0 5.8205e-14)
(5.17875e-13 0 8.01817e-14)
(4.98907e-13 0 9.98479e-14)
(4.76466e-13 0 1.17416e-13)
(4.50808e-13 0 1.33053e-13)
(4.22371e-13 0 1.46848e-13)
(3.91694e-13 0 1.58846e-13)
(3.5925e-13 0 1.69106e-13)
(3.25336e-13 0 1.77724e-13)
(2.90094e-13 0 1.84828e-13)
(2.53614e-13 0 1.90562e-13)
(2.16034e-13 0 1.95079e-13)
(1.77564e-13 0 1.98539e-13)
(1.38444e-13 0 2.0111e-13)
(9.89017e-14 0 2.02954e-13)
(5.91402e-14 0 2.04213e-13)
(1.9614e-14 0 2.04967e-13)
(-8.08009e-06 0 0.000103137)
(3.8105e-06 0 9.57698e-05)
(5.01444e-06 0 9.32361e-05)
(9.45642e-06 0 0.000114352)
(2.69467e-05 0 0.000136208)
(2.64878e-05 0 0.000120382)
(2.2954e-05 0 7.28218e-05)
(9.76004e-06 0 9.97616e-06)
(3.52819e-05 0 -7.28949e-05)
(3.0825e-05 0 -7.47929e-05)
(1.29632e-06 0 -0.00011939)
(3.35662e-05 0 -0.000257237)
(1.53932e-05 0 -0.000333356)
(4.36599e-05 0 -0.000319372)
(5.06179e-05 0 -0.000265537)
(8.78282e-05 0 -0.000210102)
(7.10186e-05 0 -0.000169667)
(0.000119891 0 -7.49073e-05)
(0.000109316 0 -3.02224e-05)
(0.000119543 0 8.39457e-05)
(0.000113177 0 0.000177523)
(0.000121124 0 0.000249255)
(0.0001114 0 0.000328208)
(0.000116675 0 0.000399311)
(8.68181e-05 0 0.000489436)
(0.000109163 0 0.000541708)
(0.000126188 0 0.000580279)
(2.92352e-05 0 0.000556613)
(-7.15333e-06 0 0.00057407)
(-4.85039e-05 0 0.000500066)
(-0.000152082 0 0.000416536)
(-0.000126836 0 0.000385042)
(-0.000254585 0 0.000305185)
(-0.000422008 0 0.000220219)
(-0.000448312 0 0.000215459)
(-0.000474801 0 0.000193324)
(-0.000497436 0 0.000142661)
(-0.000509792 0 0.000112343)
(-0.000518383 0 4.52845e-05)
(-0.000496708 0 -2.96307e-05)
(-0.000474676 0 5.83967e-05)
(-0.000447425 0 3.43681e-05)
(-0.000419164 0 0.000104002)
(-0.000381274 0 0.000161144)
(-0.000367287 0 0.000160618)
(-0.000392128 0 0.000125503)
(-0.000426626 0 0.000124294)
(-0.000407033 0 0.000191634)
(-0.000406225 0 0.000222263)
(-0.000425325 0 0.000209138)
(-0.000442232 0 0.000158427)
(-0.000505472 0 -3.02367e-05)
(-0.000559946 0 -4.01311e-05)
(-0.0005981 0 -0.000150773)
(-0.000599313 0 -0.000162259)
(-0.000578446 0 -0.000197257)
(-0.000570885 0 -0.000215924)
(-0.000541492 0 -0.00029399)
(-0.000539291 0 -0.000348818)
(-0.000645926 0 -0.000247412)
(-0.000672209 0 -0.000271133)
(-0.000685877 0 -0.000303789)
(-0.00069961 0 -0.000329522)
(-0.00068003 0 -0.000376831)
(-0.000617503 0 -0.000453464)
(-0.000567051 0 -0.000500545)
(-0.000566813 0 -0.000466602)
(-0.000294324 0 -0.000639596)
(-0.000243741 0 -0.000499975)
(-5.13011e-05 0 -0.000343079)
(0.000205372 0 -4.92032e-05)
(0.000229281 0 -2.65837e-05)
(0.000245084 0 -4.38776e-05)
(0.000278367 0 -4.8215e-05)
(0.000299371 0 -4.16582e-05)
(0.000286012 0 -3.03078e-05)
(0.00017383 0 -1.98833e-05)
(0.000328412 0 -4.02917e-05)
(-0.000406453 0 -9.91554e-05)
(7.26009e-06 0 -0.000429774)
(-3.88868e-13 0 -4.43237e-13)
(-1.08422e-12 0 -1.2946e-13)
(-3.29716e-13 0 -1.55378e-13)
(-3.10792e-13 0 -1.97351e-13)
(-2.56851e-13 0 -2.42921e-13)
(-1.88349e-13 0 -2.84879e-13)
(-1.12575e-13 0 -3.19045e-13)
(-3.31495e-14 0 -3.43234e-13)
(4.75615e-14 0 -3.56714e-13)
(1.27472e-13 0 -3.59592e-13)
(2.04355e-13 0 -3.52457e-13)
(2.76325e-13 0 -3.36444e-13)
(3.42252e-13 0 -3.13069e-13)
(4.01131e-13 0 -2.83789e-13)
(4.51892e-13 0 -2.50006e-13)
(4.94094e-13 0 -2.13192e-13)
(5.27985e-13 0 -1.74791e-13)
(5.5389e-13 0 -1.35912e-13)
(5.7195e-13 0 -9.7293e-14)
(5.82358e-13 0 -5.94667e-14)
(5.85517e-13 0 -2.29262e-14)
(5.82039e-13 0 1.17776e-14)
(5.72772e-13 0 4.40601e-14)
(5.58705e-13 0 7.34504e-14)
(5.40687e-13 0 9.97505e-14)
(5.19216e-13 0 1.23063e-13)
(4.94506e-13 0 1.43664e-13)
(4.6675e-13 0 1.61832e-13)
(4.36308e-13 0 1.77753e-13)
(4.03689e-13 0 1.91531e-13)
(3.6939e-13 0 2.03258e-13)
(3.33753e-13 0 2.1306e-13)
(2.96953e-13 0 2.21109e-13)
(2.59097e-13 0 2.27612e-13)
(2.20326e-13 0 2.32777e-13)
(1.80845e-13 0 2.36805e-13)
(1.40882e-13 0 2.39875e-13)
(1.00639e-13 0 2.42135e-13)
(6.02708e-14 0 2.43696e-13)
(2.00352e-14 0 2.44604e-13)
(1.29298e-06 0 0.000111912)
(-2.18814e-06 0 9.00392e-05)
(1.1559e-05 0 8.75063e-05)
(-2.10163e-06 0 0.00010806)
(2.04652e-05 0 0.000131776)
(1.81595e-05 0 0.000116116)
(2.519e-05 0 7.12134e-05)
(2.90225e-05 0 5.32268e-06)
(5.51435e-05 0 -8.29483e-05)
(5.89932e-05 0 -7.8701e-05)
(6.55803e-05 0 -0.000127715)
(7.15635e-05 0 -0.000246269)
(3.40026e-05 0 -0.000340272)
(5.82934e-05 0 -0.000327774)
(2.90322e-05 0 -0.000279265)
(8.38507e-05 0 -0.000211899)
(4.40765e-05 0 -0.000151586)
(4.74418e-05 0 -0.000103047)
(6.86687e-05 0 -2.46035e-05)
(8.9895e-05 0 8.26439e-05)
(8.18265e-05 0 0.000173794)
(9.35294e-05 0 0.000253291)
(0.00011126 0 0.00032546)
(0.000122007 0 0.000399067)
(0.000117839 0 0.000481397)
(5.96132e-05 0 0.000588928)
(0.000203008 0 0.000568122)
(-7.60345e-06 0 0.000580049)
(0.00010511 0 0.000605585)
(6.04743e-05 0 0.00053696)
(-1.8389e-05 0 0.000463376)
(-3.60881e-05 0 0.000418339)
(-0.000125465 0 0.000379167)
(-0.000127402 0 0.000357121)
(-0.000260391 0 0.000282965)
(-0.000321247 0 0.000215221)
(-0.000382901 0 0.000119274)
(-0.000394337 0 8.96364e-05)
(-0.000367027 0 3.09918e-05)
(-0.000345669 0 2.35235e-05)
(-0.000344862 0 2.64506e-05)
(-0.00035298 0 4.75902e-05)
(-0.000347497 0 7.50045e-05)
(-0.000300766 0 0.000121232)
(-0.000265751 0 0.000158915)
(-0.00023121 0 0.000212336)
(-0.000243208 0 0.000240089)
(-0.000328701 0 0.00014276)
(-0.000364604 0 8.00537e-05)
(-0.000386814 0 3.21595e-05)
(-0.000397838 0 -6.21027e-05)
(-0.000421868 0 -8.67383e-05)
(-0.000452681 0 -9.59872e-05)
(-0.000455035 0 -0.000107722)
(-0.000456851 0 -0.000163508)
(-0.0004625 0 -0.000222632)
(-0.000488142 0 -0.000226117)
(-0.000498209 0 -0.000270339)
(-0.000522411 0 -0.000319272)
(-0.00063649 0 -0.000237618)
(-0.000746902 0 -0.000168616)
(-0.000792462 0 -0.000229928)
(-0.000811036 0 -0.000305807)
(-0.0008013 0 -0.000392575)
(-0.000766562 0 -0.000484686)
(-0.00071914 0 -0.000561355)
(-0.00061013 0 -0.000664011)
(-0.000473114 0 -0.000745092)
(-0.000516504 0 -0.000609207)
(-0.000324752 0 -0.000525869)
(-0.000123913 0 -0.00029565)
(0.0001193 0 -4.86701e-05)
(0.00010915 0 -9.35947e-05)
(0.000152004 0 -0.000107576)
(0.000231604 0 -3.65091e-05)
(0.000234937 0 -9.33237e-07)
(0.000140913 0 9.23167e-06)
(0.000410244 0 2.30504e-05)
(-0.000429491 0 -5.88183e-05)
(7.11798e-06 0 -0.000353333)
(-4.09618e-13 0 -1.20737e-13)
(-1.29928e-12 0 -5.46501e-14)
(-4.16958e-13 0 -1.67896e-13)
(-3.71775e-13 0 -2.45698e-13)
(-3.07784e-13 0 -3.09144e-13)
(-2.30117e-13 0 -3.61395e-13)
(-1.43718e-13 0 -4.01638e-13)
(-5.26847e-14 0 -4.28745e-13)
(3.97746e-14 0 -4.424e-13)
(1.30975e-13 0 -4.43046e-13)
(2.18184e-13 0 -4.31571e-13)
(2.99018e-13 0 -4.09419e-13)
(3.72145e-13 0 -3.78507e-13)
(4.36616e-13 0 -3.40724e-13)
(4.91377e-13 0 -2.97851e-13)
(5.3596e-13 0 -2.51678e-13)
(5.70778e-13 0 -2.04002e-13)
(5.96543e-13 0 -1.56309e-13)
(6.13766e-13 0 -1.09619e-13)
(6.22845e-13 0 -6.45494e-14)
(6.24208e-13 0 -2.14936e-14)
(6.18395e-13 0 1.91623e-14)
(6.06239e-13 0 5.69244e-14)
(5.88887e-13 0 9.12802e-14)
(5.67488e-13 0 1.21914e-13)
(5.42821e-13 0 1.48843e-13)
(5.15235e-13 0 1.72359e-13)
(4.84897e-13 0 1.92848e-13)
(4.52071e-13 0 2.10637e-13)
(4.172e-13 0 2.25945e-13)
(3.80778e-13 0 2.3894e-13)
(3.43187e-13 0 2.49793e-13)
(3.04646e-13 0 2.58716e-13)
(2.65281e-13 0 2.65955e-13)
(2.25228e-13 0 2.71755e-13)
(1.84661e-13 0 2.76337e-13)
(1.43773e-13 0 2.79878e-13)
(1.02723e-13 0 2.8251e-13)
(6.16097e-14 0 2.84317e-13)
(2.05226e-14 0 2.85325e-13)
(-1.97206e-06 0 0.000108217)
(-5.64279e-06 0 8.80439e-05)
(9.59781e-06 0 8.71332e-05)
(-9.35092e-06 0 0.000109143)
(8.09546e-06 0 0.000126458)
(-1.16425e-06 0 0.000103462)
(1.62185e-05 0 5.72217e-05)
(3.56239e-05 0 -7.29554e-06)
(6.14855e-05 0 -8.88045e-05)
(8.67483e-05 0 -9.49222e-05)
(8.45443e-05 0 -0.000142894)
(0.000123671 0 -0.000219516)
(0.000102475 0 -0.000322538)
(7.25996e-05 0 -0.000326273)
(5.0117e-05 0 -0.000284448)
(6.72707e-05 0 -0.000224664)
(4.31624e-05 0 -0.000150982)
(5.22208e-05 0 -7.80621e-05)
(2.1551e-05 0 -1.7107e-05)
(5.23693e-05 0 5.98956e-05)
(9.72621e-05 0 0.000128214)
(0.00010959 0 0.000224447)
(0.000106276 0 0.000313531)
(8.82064e-05 0 0.000402687)
(0.000120292 0 0.000474833)
(5.94531e-05 0 0.000576923)
(0.000162308 0 0.00058838)
(0.000103907 0 0.000595434)
(0.000135707 0 0.000600658)
(0.0001113 0 0.000562929)
(7.09216e-05 0 0.000506718)
(4.30644e-05 0 0.000459517)
(-2.00872e-06 0 0.000423473)
(-1.1991e-05 0 0.000385987)
(2.84362e-06 0 0.000354412)
(-7.02493e-08 0 0.000302072)
(-4.26237e-05 0 0.000231981)
(-0.000140128 0 0.000165651)
(-0.000217148 0 7.76955e-05)
(-0.000167182 0 3.24702e-05)
(-0.000208023 0 3.01596e-05)
(-0.000202963 0 3.88107e-05)
(-0.000212853 0 5.91299e-05)
(-0.000208042 0 5.21044e-05)
(-0.000209705 0 7.98251e-05)
(-0.000201797 0 0.000132915)
(-0.000160505 0 0.000203517)
(-0.000137466 0 0.000219811)
(-9.82597e-05 0 0.000223101)
(-7.32201e-05 0 0.000209998)
(-8.18504e-05 0 0.000168318)
(-0.000102489 0 0.000133038)
(-0.00011899 0 0.000146277)
(-0.000216169 0 9.21583e-05)
(-0.000351893 0 -9.56419e-05)
(-0.000397836 0 -0.000175773)
(-0.000426976 0 -0.000208433)
(-0.000447065 0 -0.000232501)
(-0.000577971 0 -9.80951e-05)