0 	-25.3235
0.010101 	-18.7278
0.020202 	-18.7278
0.030303 	-18.7278
0.040404 	-16.1616
0.0505051 	1.22035
0.0606061 	-17.1292
0.0707071 	-18.7278
0.0808081 	-18.7278
0.0909091 	-18.7278
