/*--------------------------------*- C++ -*----------------------------------*\
  =========                 |
  \\      /  F ield         | OpenFOAM: The Open Source CFD Toolbox
   \\    /   O peration     | Website:  https://openfoam.org
    \\  /    A nd           | Version:  6
     \\/     M anipulation  |
\*---------------------------------------------------------------------------*/
FoamFile
{
    version     2.0;
    format      ascii;
    class       volScalarField;
    location    "550";
    object      dmdt;
}
// * * * * * * * * * * * * * * * * * * * * * * * * * * * * * * * * * * * * * //

dimensions      [0 0 0 0 0 0 0];

internalField   nonuniform List<scalar> 
4800
(
-0.218485
-0.214277
-0.210089
-0.205935
-0.201815
-0.197729
-0.193672
-0.189634
-0.185602
-0.181564
-0.177513
-0.173447
-0.169371
-0.165306
-0.161277
-0.157311
-0.153426
-0.149639
-0.145954
-0.142376
-0.138909
-0.135558
-0.132332
-0.129231
-0.126254
-0.123395
-0.120648
-0.118003
-0.115449
-0.112969
-0.110544
-0.108164
-0.105816
-0.103493
-0.101189
-0.098896
-0.0966133
-0.0943403
-0.0920782
-0.0898309
-0.0876091
-0.0854298
-0.0833107
-0.0812624
-0.0792879
-0.0773872
-0.0755591
-0.0737999
-0.0721027
-0.0704583
-0.0688553
-0.0672824
-0.0657282
-0.0641798
-0.0626262
-0.0610547
-0.0594527
-0.0578104
-0.0561224
-0.0543895
-0.0526138
-0.0507938
-0.0489248
-0.0470076
-0.0450487
-0.0430516
-0.0410248
-0.038973
-0.0368945
-0.0347847
-0.0326365
-0.0304444
-0.0282053
-0.0259186
-0.0235858
-0.0212132
-0.0188104
-0.0163875
-0.0139464
-0.0114743
-0.00891506
-0.00624688
-0.00349536
-0.000679087
0.00218825
0.00509611
0.00803626
0.0110022
0.0139885
0.0169912
0.0200068
0.0230326
0.0260664
0.0291067
0.032152
0.0352012
0.0382536
0.0413086
0.0443656
0.0474243
0.0504844
0.0535457
0.056608
0.0596712
0.0627352
0.0658
0.0688655
0.0719316
0.0749984
0.0780657
0.0811335
0.0842018
0.0872705
0.0903397
0.0934092
0.096479
0.0995491
0.102619
0.10569
0.10876
-0.218495
-0.214311
-0.210149
-0.206014
-0.201912
-0.197843
-0.193801
-0.189777
-0.185761
-0.181744
-0.177716
-0.173672
-0.16962
-0.16558
-0.161574
-0.157628
-0.153758
-0.14998
-0.1463
-0.14272
-0.139245
-0.135887
-0.132653
-0.129544
-0.126558
-0.12369
-0.120933
-0.118277
-0.115712
-0.11322
-0.110785
-0.108397
-0.106043
-0.103716
-0.101407
-0.0991111
-0.0968257
-0.0945515
-0.0922897
-0.0900441
-0.0878247
-0.0856474
-0.0835294
-0.0814823
-0.0795101
-0.0776128
-0.0757901
-0.0740386
-0.0723509
-0.0707167
-0.0691237
-0.0675604
-0.0660143
-0.0644707
-0.0629202
-0.0613516
-0.059754
-0.0581164
-0.0564318
-0.0547018
-0.0529295
-0.0511148
-0.0492542
-0.0473495
-0.0454059
-0.0434189
-0.041404
-0.0393592
-0.0372794
-0.0351607
-0.0330009
-0.0307974
-0.0285483
-0.0262528
-0.0239115
-0.0215264
-0.019101
-0.0166391
-0.0141487
-0.0116323
-0.00903319
-0.00633847
-0.00356812
-0.000737779
0.00214046
0.00505697
0.0080041
0.0109757
0.0139667
0.0169732
0.0199919
0.0230202
0.0260562
0.0290982
0.0321449
0.0351953
0.0382487
0.0413045
0.0443621
0.0474213
0.0504819
0.0535435
0.0566062
0.0596696
0.0627339
0.0657989
0.0688645
0.0719308
0.0749976
0.078065
0.0811329
0.0842013
0.0872701
0.0903394
0.0934089
0.0964788
0.0995489
0.102619
0.10569
0.10876
-0.218517
-0.214379
-0.21026
-0.206167
-0.202102
-0.198066
-0.194053
-0.19006
-0.186077
-0.182095
-0.178108
-0.174109
-0.170103
-0.166108
-0.162143
-0.158228
-0.15438
-0.150613
-0.146932
-0.143345
-0.139864
-0.136501
-0.13326
-0.130141
-0.127143
-0.124263
-0.121491
-0.11882
-0.116235
-0.113719
-0.111261
-0.108851
-0.106478
-0.104133
-0.101811
-0.0995056
-0.0972152
-0.0949393
-0.0926787
-0.0904363
-0.088222
-0.0860483
-0.0839322
-0.0818854
-0.0799151
-0.0780249
-0.0762165
-0.0744843
-0.0728186
-0.0712076
-0.0696371
-0.0680944
-0.0665659
-0.0650331
-0.0634872
-0.0619173
-0.0603161
-0.058677
-0.0569931
-0.0552692
-0.0535083
-0.0517052
-0.0498541
-0.0479572
-0.0460255
-0.0440469
-0.0420394
-0.0399869
-0.0378928
-0.0357559
-0.0335793
-0.0313586
-0.0290935
-0.0267847
-0.0244296
-0.0220252
-0.0195668
-0.0170557
-0.0145059
-0.0119244
-0.00925633
-0.00651414
-0.00370905
-0.000852153
0.00204698
0.00498025
0.00794097
0.0109236
0.0139238
0.0169377
0.0199625
0.0229959
0.0260361
0.0290815
0.0321309
0.0351837
0.038239
0.0412963
0.0443552
0.0474155
0.0504769
0.0535393
0.0566026
0.0596666
0.0627313
0.0657966
0.0688626
0.0719291
0.0749962
0.0780638
0.0811319
0.0842004
0.0872694
0.0903387
0.0934084
0.0964784
0.0995486
0.102619
0.10569
0.10876
-0.21855
-0.214475
-0.210418
-0.206383
-0.202373
-0.198388
-0.194422
-0.190471
-0.186531
-0.182597
-0.178662
-0.174725
-0.170785
-0.166851
-0.162941
-0.159066
-0.155241
-0.151485
-0.147807
-0.144221
-0.14074
-0.137376
-0.13413
-0.131004
-0.127998
-0.125108
-0.122322
-0.119633
-0.117021
-0.11447
-0.111977
-0.109532
-0.107125
-0.10475
-0.102402
-0.100075
-0.0977696
-0.0954846
-0.0932195
-0.090977
-0.0887698
-0.0866053
-0.084499
-0.0824631
-0.0805086
-0.0786408
-0.0768635
-0.0751656
-0.0735346
-0.0719581
-0.0704185
-0.0689016
-0.0673964
-0.0658753
-0.064334
-0.0627632
-0.061157
-0.0595114
-0.0578169
-0.0560864
-0.0543206
-0.0525089
-0.0506501
-0.0487483
-0.0468106
-0.0448251
-0.0428089
-0.0407403
-0.0386284
-0.0364733
-0.0342798
-0.0320389
-0.0297556
-0.0274282
-0.0250503
-0.0226183
-0.0201268
-0.0175733
-0.0149648
-0.0123112
-0.00956319
-0.0067613
-0.00391006
-0.00101662
0.00191191
0.00486907
0.00784933
0.010848
0.0138613
0.0168861
0.0199199
0.0229606
0.0260067
0.0290571
0.0321106
0.0351667
0.0382247
0.0412843
0.0443451
0.047407
0.0504697
0.0535332
0.0565973
0.0596621
0.0627274
0.0657933
0.0688597
0.0719266
0.074994
0.0780619
0.0811303
0.0841991
0.0872682
0.0903378
0.0934076
0.0964777
0.0995481
0.102619
0.105689
0.10876
-0.21859
-0.214595
-0.210615
-0.206653
-0.202711
-0.198789
-0.194881
-0.190986
-0.187101
-0.183223
-0.179352
-0.175485
-0.171621
-0.167758
-0.163904
-0.160071
-0.156282
-0.152553
-0.148889
-0.145312
-0.141839
-0.13848
-0.135238
-0.132114
-0.129106
-0.126206
-0.123406
-0.120694
-0.118051
-0.115464
-0.11293
-0.110442
-0.107992
-0.105578
-0.103193
-0.100835
-0.0985053
-0.0962029
-0.0939265
-0.0916797
-0.0894793
-0.0873285
-0.085242
-0.0832335
-0.0813141
-0.0794882
-0.0777578
-0.0761045
-0.074516
-0.0729812
-0.0714753
-0.0699854
-0.0685066
-0.0669956
-0.0654587
-0.0638877
-0.0622775
-0.0606196
-0.0589038
-0.057154
-0.0553681
-0.0535341
-0.051655
-0.0497332
-0.0477706
-0.0457601
-0.0437107
-0.0416119
-0.0394711
-0.0372906
-0.0350721
-0.0328035
-0.0304968
-0.0281453
-0.0257396
-0.0232748
-0.0207423
-0.0181388
-0.0154766
-0.01276
-0.00993385
-0.0070666
-0.00416165
-0.00122412
0.00174067
0.00472771
0.00773263
0.0107517
0.0137817
0.0168203
0.0198654
0.0229155
0.0259693
0.0290259
0.0320847
0.035145
0.0382065
0.041269
0.0443322
0.047396
0.0504604
0.0535252
0.0565905
0.0596562
0.0627224
0.065789
0.068856
0.0719234
0.0749913
0.0780595
0.0811282
0.0841973
0.0872667
0.0903365
0.0934066
0.0964769
0.0995475
0.102618
0.105689
0.10876
-0.21864
-0.214741
-0.210849
-0.206969
-0.203102
-0.199246
-0.195402
-0.191569
-0.187747
-0.183935
-0.180131
-0.176335
-0.172548
-0.168771
-0.165
-0.161235
-0.15749
-0.153785
-0.150141
-0.146585
-0.143133
-0.139789
-0.136555
-0.133434
-0.130424
-0.127517
-0.124702
-0.121966
-0.119292
-0.116667
-0.114093
-0.111562
-0.109067
-0.106611
-0.104187
-0.101796
-0.0994402
-0.0971171
-0.0948261
-0.0925728
-0.0903772
-0.0882427
-0.0861861
-0.084221
-0.0823504
-0.0805784
-0.0789034
-0.0773003
-0.0757576
-0.0742643
-0.0727914
-0.0713286
-0.0698684
-0.0683624
-0.0668253
-0.0652489
-0.063628
-0.0619524
-0.0602191
-0.0584502
-0.0566433
-0.054787
-0.0528823
-0.0509288
-0.048931
-0.046888
-0.044799
-0.0426636
-0.0404886
-0.0382735
-0.0360131
-0.033701
-0.0313541
-0.0289606
-0.0265117
-0.0240043
-0.0214259
-0.0187718
-0.0160533
-0.0132642
-0.0103559
-0.0074186
-0.00445435
-0.00146697
0.00153955
0.00456136
0.00759514
0.0106381
0.0136879
0.0167427
0.0198012
0.0228622
0.0259251
0.0289891
0.0320539
0.0351193
0.0381849
0.0412508
0.0443168
0.047383
0.0504493
0.0535157
0.0565824
0.0596492
0.0627163
0.0657837
0.0688515
0.0719195
0.0749879
0.0780566
0.0811257
0.0841952
0.0872649
0.090335
0.0934053
0.0964759
0.0995467
0.102618
0.105689
0.10876
-0.21869
-0.214889
-0.211089
-0.207292
-0.203501
-0.199718
-0.195946
-0.192184
-0.188435
-0.184696
-0.180967
-0.177248
-0.173538
-0.169838
-0.166144
-0.162455
-0.158781
-0.155134
-0.151532
-0.148005
-0.144576
-0.141253
-0.138037
-0.134926
-0.131914
-0.128996
-0.126164
-0.123404
-0.120703
-0.118045
-0.115434
-0.11286
-0.110326
-0.107834
-0.105379
-0.102961
-0.100584
-0.0982458
-0.095947
-0.0936919
-0.0915037
-0.0893887
-0.0873645
-0.0854434
-0.0836236
-0.0819081
-0.0802878
-0.0787343
-0.0772361
-0.0757793
-0.0743345
-0.07289
-0.0714347
-0.0699353
-0.0683902
-0.0668028
-0.0651673
-0.0634759
-0.0617277
-0.05994
-0.0581145
-0.0562377
-0.054309
-0.0523278
-0.0502966
-0.0482182
-0.0460914
-0.0439197
-0.0417067
-0.0394469
-0.0371347
-0.0347737
-0.0323732
-0.0299199
-0.0274093
-0.0248405
-0.0222003
-0.019483
-0.0166876
-0.01381
-0.0108174
-0.00780668
-0.00477887
-0.00173712
0.00131541
0.00437583
0.00744178
0.0105114
0.0135832
0.0166562
0.0197296
0.0228028
0.0258757
0.0289479
0.0320195
0.0350904
0.0381606
0.0412303
0.0442994
0.0473682
0.0504367
0.0535049
0.0565731
0.0596412
0.0627094
0.0657778
0.0688463
0.071915
0.074984
0.0780533
0.0811229
0.0841927
0.0872628
0.0903332
0.0934039
0.0964748
0.0995458
0.102617
0.105688
0.10876
-0.218735
-0.215022
-0.211307
-0.207592
-0.203878
-0.20017
-0.196472
-0.192787
-0.189116
-0.185458
-0.181812
-0.178175
-0.174547
-0.170926
-0.167311
-0.163702
-0.160106
-0.156534
-0.153005
-0.149539
-0.14615
-0.142848
-0.139641
-0.136531
-0.133516
-0.13059
-0.127746
-0.124968
-0.122244
-0.119557
-0.116913
-0.114312
-0.111756
-0.109242
-0.106767
-0.104331
-0.10194
-0.0995922
-0.0972881
-0.0950367
-0.0928643
-0.0907764
-0.0887859
-0.0869033
-0.0851288
-0.0834656
-0.0818924
-0.0803817
-0.0789187
-0.0774873
-0.0760617
-0.0746272
-0.0731717
-0.0716697
-0.0701097
-0.0685073
-0.0668531
-0.0651434
-0.0633793
-0.0615775
-0.0597365
-0.0578431
-0.0558971
-0.0538961
-0.0518417
-0.0497363
-0.047578
-0.0453721
-0.043119
-0.0408111
-0.0384454
-0.0360273
-0.0335585
-0.0310299
-0.0284382
-0.0257832
-0.0230572
-0.0202469
-0.0173524
-0.0143832
-0.0113077
-0.00822107
-0.00512611
-0.00202631
0.00107557
0.00417747
0.00727798
0.0103762
0.0134716
0.0165639
0.0196532
0.0227394
0.0258229
0.0289039
0.0319826
0.0350594
0.0381345
0.0412081
0.0442806
0.0473521
0.0504229
0.0534931
0.0565629
0.0596325
0.0627018
0.0657712
0.0688406
0.0719101
0.0749797
0.0780496
0.0811196
0.0841899
0.0872605
0.0903313
0.0934023
0.0964735
0.0995448
0.102616
0.105688
0.10876
-0.218774
-0.215138
-0.2115
-0.20786
-0.204221
-0.200587
-0.196962
-0.193351
-0.189757
-0.186178
-0.182613
-0.179059
-0.175513
-0.171974
-0.168443
-0.164924
-0.161418
-0.157932
-0.154481
-0.151082
-0.147751
-0.144494
-0.141312
-0.138207
-0.135187
-0.132256
-0.129408
-0.126622
-0.123878
-0.121168
-0.118505
-0.11589
-0.113325
-0.110805
-0.108326
-0.105889
-0.103495
-0.101148
-0.0988486
-0.0966106
-0.0944586
-0.0924
-0.0904435
-0.0885969
-0.0868614
-0.0852391
-0.0836996
-0.0822177
-0.0807732
-0.0793509
-0.0779311
-0.0764965
-0.0750316
-0.0735147
-0.0719403
-0.0703186
-0.0686438
-0.0669149
-0.0651379
-0.0633241
-0.0614679
-0.0595606
-0.0576017
-0.0555864
-0.0535166
-0.0513933
-0.0492143
-0.046981
-0.0446907
-0.0423379
-0.0399202
-0.0374405
-0.0348963
-0.0322808
-0.0295945
-0.0268337
-0.0239903
-0.0210546
-0.0180447
-0.0149804
-0.0118197
-0.00865305
-0.00548701
-0.00232593
0.000827835
0.00397313
0.00710962
0.0102375
0.0133571
0.0164693
0.0195748
0.0226743
0.0257687
0.0288585
0.0319445
0.0350273
0.0381073
0.041185
0.0442609
0.0473353
0.0504084
0.0534806
0.0565521
0.0596231
0.0626937
0.0657641
0.0688344
0.0719047
0.074975
0.0780455
0.0811161
0.0841869
0.0872579
0.0903291
0.0934005
0.0964721
0.0995438
0.102616
0.105688
0.108759
-0.218805
-0.215232
-0.211659
-0.208086
-0.204515
-0.20095
-0.197395
-0.193856
-0.190338
-0.186837
-0.183352
-0.17988
-0.176416
-0.172962
-0.169518
-0.166086
-0.16267
-0.159274
-0.155908
-0.152584
-0.149312
-0.146099
-0.142949
-0.139867
-0.136866
-0.133953
-0.131115
-0.128328
-0.125571
-0.122851
-0.120181
-0.117566
-0.115007
-0.112494
-0.110025
-0.1076
-0.10522
-0.102889
-0.100608
-0.0983941
-0.096268
-0.0942384
-0.092312
-0.0904922
-0.0887846
-0.0871862
-0.0856645
-0.0841929
-0.0827517
-0.0813266
-0.0799014
-0.0784549
-0.0769699
-0.0754305
-0.0738361
-0.0721913
-0.0704938
-0.068747
-0.0669605
-0.0651369
-0.0632708
-0.0613556
-0.0593875
-0.0573612
-0.0552799
-0.0531431
-0.0509472
-0.0486896
-0.0463657
-0.0439708
-0.0415016
-0.0389597
-0.0363408
-0.0336384
-0.0308516
-0.027972
-0.0249969
-0.0219269
-0.0187891
-0.0156106
-0.0123485
-0.00909365
-0.00585188
-0.0026267
0.00058061
0.00377017
0.00694298
0.0101005
0.0132443
0.0163761
0.0194975
0.02261
0.0257149
0.0288133
0.0319064
0.034995
0.0380799
0.0411616
0.0442408
0.047318
0.0503935
0.0534677
0.0565409
0.0596133
0.0626852
0.0657567
0.0688279
0.071899
0.0749701
0.0780412
0.0811124
0.0841837
0.0872552
0.0903268
0.0933986
0.0964705
0.0995426
0.102615
0.105687
0.108759
-0.218828
-0.215304
-0.211784
-0.208265
-0.204751
-0.201245
-0.197754
-0.194286
-0.190841
-0.187416
-0.184008
-0.180614
-0.177232
-0.17386
-0.170501
-0.167157
-0.16383
-0.160525
-0.157249
-0.154007
-0.150802
-0.147644
-0.144538
-0.141494
-0.138528
-0.135643
-0.132824
-0.130042
-0.127288
-0.124578
-0.121923
-0.119328
-0.116788
-0.114295
-0.111848
-0.109446
-0.10709
-0.104784
-0.102532
-0.10035
-0.0982545
-0.096254
-0.0943559
-0.0925554
-0.0908606
-0.0892638
-0.087738
-0.0862597
-0.0848077
-0.0833677
-0.0819242
-0.0804547
-0.0789399
-0.0773724
-0.0757534
-0.0740856
-0.0723685
-0.0706092
-0.0688153
-0.0669865
-0.0651179
-0.0631994
-0.0612242
-0.0591919
-0.0571033
-0.0549542
-0.05274
-0.0504565
-0.0480986
-0.0456636
-0.043146
-0.0405458
-0.0378557
-0.0350654
-0.0321743
-0.0291715
-0.0260579
-0.0228431
-0.0195643
-0.0162562
-0.0128807
-0.00953055
-0.00620913
-0.00291812
0.000343099
0.00357647
0.00678469
0.00997072
0.0131375
0.0162878
0.0194241
0.0225487
0.0256634
0.0287699
0.0318696
0.0349637
0.0380531
0.0411386
0.044221
0.0473008
0.0503786
0.0534547
0.0565296
0.0596034
0.0626765
0.0657491
0.0688212
0.0718932
0.074965
0.0780367
0.0811085
0.0841804
0.0872523
0.0903244
0.0933966
0.0964689
0.0995414
0.102614
0.105687
0.108759
-0.218846
-0.215357
-0.211873
-0.208395
-0.204925
-0.201471
-0.198038
-0.194632
-0.191252
-0.187894
-0.184556
-0.181236
-0.177931
-0.174641
-0.171367
-0.168111
-0.164874
-0.161662
-0.158477
-0.155321
-0.152196
-0.149106
-0.146061
-0.143069
-0.140148
-0.137301
-0.134512
-0.131755
-0.129028
-0.126345
-0.123718
-0.121154
-0.118644
-0.116183
-0.113768
-0.111395
-0.109068
-0.106793
-0.104575
-0.102429
-0.100364
-0.0983892
-0.096511
-0.094723
-0.0930317
-0.0914254
-0.0898825
-0.0883851
-0.0869089
-0.0854398
-0.0839626
-0.0824575
-0.0809073
-0.0793078
-0.0776606
-0.0759691
-0.074237
-0.0724714
-0.0706771
-0.0688507
-0.0669852
-0.0650681
-0.0630924
-0.061057
-0.0589574
-0.0567899
-0.0545525
-0.0522421
-0.0498525
-0.047381
-0.0448196
-0.0421652
-0.0394059
-0.0365264
-0.0335299
-0.0304022
-0.0271441
-0.0237736
-0.0203455
-0.0168959
-0.0133988
-0.00994817
-0.00654507
-0.00318833
0.000125352
0.00340038
0.00664158
0.00985371
0.0130412
0.016208
0.0193575
0.0224927
0.0256161
0.0287297
0.0318353
0.0349341
0.0380276
0.0411165
0.0442018
0.0472841
0.050364
0.0534419
0.0565183
0.0595935
0.0626678
0.0657414
0.0688145
0.0718872
0.0749597
0.0780322
0.0811045
0.0841769
0.0872494
0.0903219
0.0933945
0.0964673
0.0995401
0.102613
0.105686
0.108759
-0.218858
-0.215393
-0.211934
-0.208483
-0.205048
-0.201633
-0.198248
-0.194893
-0.191565
-0.188261
-0.184982
-0.181727
-0.178493
-0.175282
-0.172094
-0.168927
-0.165782
-0.162664
-0.159572
-0.156508
-0.153471
-0.150465
-0.147495
-0.144572
-0.14171
-0.13891
-0.136162
-0.133445
-0.13076
-0.128124
-0.12555
-0.123033
-0.120563
-0.118137
-0.115756
-0.113417
-0.111124
-0.108882
-0.106698
-0.104584
-0.102547
-0.100593
-0.0987274
-0.096938
-0.0952277
-0.0935932
-0.0920165
-0.0904838
-0.0889689
-0.0874557
-0.0859358
-0.0843902
-0.0828056
-0.0811794
-0.0795149
-0.0778134
-0.0760802
-0.0743192
-0.0725313
-0.0707129
-0.0688548
-0.0669413
-0.0649641
-0.0629205
-0.060805
-0.0586161
-0.0563522
-0.0540092
-0.0515813
-0.0490648
-0.0464519
-0.0437369
-0.0409066
-0.0379488
-0.0348643
-0.0316229
-0.0282278
-0.0247083
-0.0211218
-0.0175095
-0.0138818
-0.0103278
-0.00684374
-0.00342408
-6.18335e-05
0.00325057
0.00652053
0.00975485
0.0129596
0.0161399
0.0193002
0.0224441
0.0255745
0.0286939
0.0318043
0.0349072
0.0380041
0.0410959
0.0441837
0.0472682
0.0503499
0.0534295
0.0565073
0.0595838
0.0626592
0.0657338
0.0688077
0.0718812
0.0749545
0.0780275
0.0811005
0.0841734
0.0872464
0.0903194
0.0933924
0.0964656
0.0995388
0.102612
0.105685
0.108759
-0.218864
-0.215413
-0.211969
-0.208537
-0.205126
-0.201742
-0.19839
-0.195068
-0.191775
-0.188511
-0.18528
-0.182082
-0.178916
-0.17578
-0.172674
-0.169596
-0.166545
-0.163521
-0.160525
-0.157556
-0.154615
-0.151703
-0.148822
-0.145983
-0.143193
-0.140453
-0.137759
-0.135097
-0.132469
-0.129891
-0.127374
-0.124911
-0.122494
-0.120118
-0.117784
-0.115484
-0.113226
-0.111016
-0.108864
-0.106777
-0.104759
-0.102812
-0.100942
-0.0991344
-0.0973974
-0.0957272
-0.0941063
-0.0925257
-0.0909645
-0.0894029
-0.087842
-0.0862595
-0.0846466
-0.0830016
-0.0813256
-0.0796203
-0.077891
-0.0761371
-0.0743581
-0.0725506
-0.0706991
-0.0687889
-0.0668109
-0.0647581
-0.0626251
-0.0604122
-0.0581188
-0.0557395
-0.0532683
-0.0507001
-0.04803
-0.0452507
-0.0423511
-0.0393207
-0.0361426
-0.0327861
-0.0292669
-0.0256107
-0.0218582
-0.0180676
-0.0143029
-0.010647
-0.00708699
-0.00361097
-0.000207188
0.00313572
0.00642811
0.00967909
0.0128964
0.0160864
0.0192543
0.0224043
0.0255398
0.0286634
0.0317774
0.0348834
0.037983
0.0410772
0.0441671
0.0472534
0.0503368
0.0534178
0.0564969
0.0595744
0.0626508
0.0657263
0.0688011
0.0718754
0.0749493
0.0780229
0.0810965
0.0841699
0.0872434
0.0903168
0.0933903
0.0964639
0.0995375
0.102611
0.105685
0.108759
-0.218866
-0.21542
-0.211982
-0.208562
-0.205165
-0.201799
-0.198465
-0.195161
-0.191889
-0.188654
-0.185461
-0.182312
-0.179206
-0.176141
-0.173115
-0.170123
-0.167164
-0.164235
-0.161336
-0.158466
-0.155625
-0.152813
-0.150032
-0.147286
-0.144582
-0.141916
-0.139291
-0.136697
-0.134137
-0.131624
-0.129171
-0.126767
-0.124407
-0.122087
-0.119806
-0.117554
-0.115341
-0.113168
-0.111044
-0.108973
-0.10696
-0.105007
-0.103117
-0.101283
-0.0995091
-0.0977929
-0.0961206
-0.0944871
-0.0928771
-0.0912682
-0.0896665
-0.0880494
-0.0864112
-0.0847517
-0.0830683
-0.081363
-0.0796394
-0.0778975
-0.0761332
-0.0743408
-0.0725032
-0.0706004
-0.0686177
-0.0665503
-0.0643981
-0.0621613
-0.0598372
-0.0574188
-0.0549016
-0.0522807
-0.0495525
-0.0467063
-0.0437338
-0.040615
-0.0373221
-0.0338354
-0.0301794
-0.0263806
-0.0224747
-0.0185203
-0.0146261
-0.0108794
-0.0072549
-0.00373393
-0.000299479
0.00306402
0.00637021
0.0096306
0.0128545
0.0160494
0.0192212
0.0223744
0.0255127
0.0286389
0.0317551
0.0348633
0.0379647
0.0410607
0.0441522
0.0472399
0.0503246
0.0534068
0.056487
0.0595656
0.0626428
0.0657191
0.0687947
0.0718696
0.0749442
0.0780184
0.0810925
0.0841665
0.0872404
0.0903143
0.0933882
0.0964622
0.0995362
0.10261
0.105684
0.108758
-0.218864
-0.215414
-0.211975
-0.208557
-0.205167
-0.201808
-0.198479
-0.195181
-0.191919
-0.188706
-0.185547
-0.182441
-0.179387
-0.176385
-0.173431
-0.170521
-0.16765
-0.164815
-0.162014
-0.159244
-0.156506
-0.153797
-0.151117
-0.148472
-0.14586
-0.143281
-0.140738
-0.138223
-0.135743
-0.133305
-0.130926
-0.128587
-0.126292
-0.124033
-0.121807
-0.119607
-0.117435
-0.115294
-0.113191
-0.111131
-0.109117
-0.10715
-0.105233
-0.103363
-0.101544
-0.0997752
-0.0980471
-0.0963593
-0.0946976
-0.0930451
-0.0914038
-0.0897556
-0.0880966
-0.0864261
-0.084741
-0.0830456
-0.0813388
-0.0796168
-0.0778716
-0.0760931
-0.074261
-0.0723543
-0.0703629
-0.0682817
-0.0661105
-0.063848
-0.0614906
-0.0590319
-0.0564683
-0.0537967
-0.0510109
-0.048096
-0.0450364
-0.0417989
-0.0383621
-0.0347188
-0.0309025
-0.0269333
-0.022867
-0.0187906
-0.0148119
-0.0109979
-0.00732736
-0.00377817
-0.000328267
0.00304256
0.00635146
0.00961228
0.0128358
0.0160302
0.0192017
0.022355
0.0254937
0.0286205
0.0317377
0.0348468
0.0379494
0.0410465
0.044139
0.0472278
0.0503135
0.0533967
0.0564778
0.0595572
0.0626353
0.0657123
0.0687885
0.0718641
0.0749392
0.078014
0.0810886
0.0841631
0.0872374
0.0903118
0.0933861
0.0964605
0.0995349
0.102609
0.105684
0.108758
-0.218858
-0.215398
-0.211951
-0.208527
-0.205133
-0.20177
-0.198436
-0.195135
-0.191881
-0.188687
-0.185555
-0.182486
-0.17948
-0.176536
-0.173649
-0.170814
-0.168026
-0.16528
-0.162574
-0.159902
-0.157265
-0.15466
-0.152083
-0.149537
-0.147023
-0.14454
-0.142089
-0.139666
-0.137275
-0.134922
-0.132622
-0.130356
-0.128132
-0.125937
-0.123769
-0.121617
-0.119484
-0.11737
-0.115282
-0.113224
-0.1112
-0.109212
-0.107262
-0.105349
-0.103481
-0.101657
-0.0998751
-0.0981338
-0.0964216
-0.0947269
-0.0930466
-0.0913692
-0.0896939
-0.0880177
-0.08634
-0.0846603
-0.0829733
-0.0812715
-0.0795427
-0.0777753
-0.0759479
-0.0740397
-0.0720393
-0.0699419
-0.0677503
-0.0654615
-0.0630705
-0.060572
-0.057962
-0.0552377
-0.0523874
-0.0493864
-0.0462079
-0.0428189
-0.0392121
-0.0353943
-0.0314062
-0.0272718
-0.0230676
-0.0188909
-0.0148414
-0.0109802
-0.00728561
-0.00373017
-0.000284794
0.00307643
0.00637447
0.00962525
0.0128404
0.0160285
0.0191954
0.0223456
0.0254823
0.0286081
0.0317248
0.034834
0.0379369
0.0410345
0.0441277
0.0472172
0.0503037
0.0533876
0.0564694
0.0595495
0.0626282
0.0657059
0.0687827
0.0718588
0.0749345
0.0780098
0.0810849
0.0841598
0.0872346
0.0903093
0.0933841
0.0964588
0.0995336
0.102608
0.105683
0.108758
-0.218851
-0.215375
-0.211913
-0.208474
-0.205066
-0.20169
-0.198349
-0.195047
-0.191801
-0.188619
-0.185509
-0.182473
-0.179511
-0.176622
-0.173798
-0.171033
-0.168319
-0.165656
-0.163039
-0.160462
-0.157922
-0.155416
-0.15294
-0.150496
-0.148082
-0.145698
-0.143345
-0.141021
-0.138729
-0.136472
-0.13426
-0.132075
-0.129919
-0.12779
-0.125675
-0.123567
-0.121466
-0.119371
-0.117288
-0.115225
-0.113183
-0.111165
-0.109175
-0.107216
-0.105298
-0.10342
-0.101584
-0.0997899
-0.0980293
-0.0962941
-0.0945801
-0.0928794
-0.0911935
-0.0895181
-0.0878531
-0.08619
-0.0845228
-0.0828398
-0.081125
-0.0793654
-0.0775394
-0.0756293
-0.0736234
-0.0715141
-0.069307
-0.0669966
-0.0645755
-0.062039
-0.059383
-0.0565996
-0.0536625
-0.0505359
-0.0471923
-0.0436164
-0.0398153
-0.0358151
-0.0316497
-0.0273712
-0.0230623
-0.0188027
-0.0146896
-0.0108011
-0.00711054
-0.00357795
-0.000163012
0.00316771
0.00643903
0.00966821
0.0128669
0.0160427
0.0192009
0.0223451
0.0254778
0.028601
0.0317162
0.0348245
0.0379271
0.0410247
0.0441182
0.0472081
0.050295
0.0533794
0.0564618
0.0595424
0.0626217
0.0656999
0.0687772
0.0718539
0.07493
0.0780058
0.0810813
0.0841566
0.0872318
0.0903069
0.0933821
0.0964572
0.0995323
0.102608
0.105683
0.108758
-0.218839
-0.215342
-0.211861
-0.208404
-0.204973
-0.201575
-0.198221
-0.194925
-0.191689
-0.18852
-0.185428
-0.182422
-0.179504
-0.176669
-0.173907
-0.171208
-0.168563
-0.165971
-0.163432
-0.160942
-0.158494
-0.156083
-0.153704
-0.151359
-0.149046
-0.146768
-0.144519
-0.1423
-0.140112
-0.137955
-0.135831
-0.133724
-0.131642
-0.129575
-0.127506
-0.125437
-0.12336
-0.121275
-0.119189
-0.117108
-0.115037
-0.112983
-0.110947
-0.108941
-0.106971
-0.105041
-0.103153
-0.10131
-0.0995046
-0.0977329
-0.0959914
-0.0942745
-0.0925828
-0.0909136
-0.0892624
-0.0876164
-0.0859686
-0.0843031
-0.0826017
-0.0808506
-0.0790289
-0.0771203
-0.0751112
-0.0729956
-0.0707792
-0.0684523
-0.0660059
-0.0634348
-0.0607283
-0.0578636
-0.0547995
-0.0515008
-0.0479531
-0.0441582
-0.0401359
-0.0359399
-0.0316214
-0.0272424
-0.0228582
-0.0185086
-0.0143174
-0.0104273
-0.00678135
-0.00331227
3.86012e-05
0.0033138
0.00654093
0.00973676
0.0129111
0.0160696
0.0192157
0.0223516
0.0254787
0.0285982
0.0317109
0.0348178
0.0379196
0.0410168
0.0441102
0.0472002
0.0502874
0.0533721
0.0564549
0.059536
0.0626157
0.0656944
0.0687721
0.0718492
0.0749258
0.0780019
0.0810778
0.0841536
0.0872292
0.0903047
0.0933802
0.0964557
0.0995311
0.102607
0.105682
0.108758
-0.218828
-0.215308
-0.211805
-0.208328
-0.204879
-0.201464
-0.198095
-0.19479
-0.191558
-0.188401
-0.185332
-0.182359
-0.179484
-0.176701
-0.173997
-0.17136
-0.168781
-0.166258
-0.163792
-0.161379
-0.159015
-0.156692
-0.154407
-0.152162
-0.149954
-0.147778
-0.145633
-0.143519
-0.141435
-0.139375
-0.137335
-0.135307
-0.13329
-0.131275
-0.129248
-0.127208
-0.125146
-0.123059
-0.120957
-0.118848
-0.11674
-0.114644
-0.112563
-0.110509
-0.10849
-0.10651
-0.104575
-0.102686
-0.100842
-0.0990392
-0.0972762
-0.0955476
-0.0938527
-0.0921902
-0.0905509
-0.0889223
-0.0872932
-0.0856452
-0.0839581
-0.0822164
-0.0804019
-0.0785
-0.076496
-0.0743836
-0.0721647
-0.0698285
-0.067364
-0.0647592
-0.0619879
-0.059008
-0.0557739
-0.0522639
-0.0484819
-0.0444486
-0.0402066
-0.0358081
-0.0313115
-0.0267781
-0.0222812
-0.017875
-0.0136443
-0.00980991
-0.00627673
-0.00293035
0.000313532
0.0035051
0.00667072
0.00982286
0.0129668
0.0161044
0.0192363
0.0223625
0.0254831
0.0285983
0.0317082
0.0348132
0.0379138
0.0410105
0.0441035
0.0471935
0.0502808
0.0533657
0.0564488
0.0595302
0.0626103
0.0656893
0.0687674
0.0718449
0.0749218
0.0779984
0.0810746
0.0841507
0.0872266
0.0903025
0.0933784
0.0964542
0.09953
0.102606
0.105682
0.108758
-0.218813
-0.215264
-0.211734
-0.208231
-0.204763
-0.201336
-0.197962
-0.194657
-0.19143
-0.188288
-0.185242
-0.1823
-0.179464
-0.176726
-0.174073
-0.17149
-0.168971
-0.166515
-0.164119
-0.16178
-0.159497
-0.157266
-0.15508
-0.152935
-0.150825
-0.14875
-0.146711
-0.144703
-0.14272
-0.140752
-0.13879
-0.136829
-0.134865
-0.132889
-0.130892
-0.128868
-0.126809
-0.124709
-0.122578
-0.120432
-0.118283
-0.116142
-0.114016
-0.111916
-0.109851
-0.107826
-0.105848
-0.10392
-0.102041
-0.100212
-0.0984312
-0.0966939
-0.0949981
-0.0933414
-0.0917136
-0.090101
-0.0884891
-0.0868586
-0.085189
-0.0834633
-0.0816634
-0.0797724
-0.0777771
-0.0756762
-0.0734687
-0.0711354
-0.0686588
-0.0660126
-0.0631498
-0.0600187
-0.056582
-0.0528369
-0.0488091
-0.0445351
-0.0400666
-0.0354601
-0.0307745
-0.0260621
-0.0213992
-0.0168695
-0.0125709
-0.00888924
-0.00558441
-0.00244522
0.000641112
0.00372196
0.00681256
0.00991468
0.0130255
0.0161411
0.0192585
0.0223749
0.0254891
0.0285998
0.0317069
0.03481
0.0379094
0.0410053
0.044098
0.0471878
0.050275
0.0533601
0.0564433
0.059525
0.0626053
0.0656846
0.0687631
0.0718409
0.0749181
0.077995
0.0810716
0.084148
0.0872243
0.0903005
0.0933766
0.0964528
0.0995289
0.102605
0.105681
0.108757
-0.218798
-0.215218
-0.211659
-0.208131
-0.204642
-0.201205
-0.197828
-0.194525
-0.19131
-0.188193
-0.185179
-0.182274
-0.179476
-0.176775
-0.174162
-0.171627
-0.169167
-0.166779
-0.164456
-0.162193
-0.159989
-0.157844
-0.155749
-0.153697
-0.151686
-0.149718
-0.147784
-0.145881
-0.144001
-0.142118
-0.140223
-0.138312
-0.136382
-0.134427
-0.132441
-0.130417
-0.128349
-0.126217
-0.124045
-0.121855
-0.11966
-0.117474
-0.115304
-0.113159
-0.111051
-0.108986
-0.106972
-0.105011
-0.103106
-0.101257
-0.0994612
-0.0977168
-0.0960208
-0.0943688
-0.0927517
-0.0911535
-0.0895585
-0.0879485
-0.0863018
-0.084599
-0.082822
-0.0809546
-0.0789836
-0.0769064
-0.074714
-0.0723846
-0.0698938
-0.0671906
-0.0642103
-0.0609052
-0.0572569
-0.0532836
-0.0490242
-0.0445249
-0.0398284
-0.0350012
-0.0301049
-0.0251695
-0.0202368
-0.0153945
-0.0108737
-0.00758988
-0.00472447
-0.00190379
0.000977982
0.00393201
0.00694422
0.00999745
0.0130774
0.0161733
0.0192778
0.0223859
0.0254944
0.0286015
0.031706
0.0348075
0.0379058
0.041001
0.0440932
0.0471828
0.05027
0.0533552
0.0564385
0.0595203
0.0626009
0.0656804
0.0687591
0.0718372
0.0749147
0.0779919
0.0810688
0.0841455
0.0872221
0.0902986
0.093375
0.0964514
0.0995279
0.102604
0.105681
0.108757
-0.21878
-0.215166
-0.211576
-0.208023
-0.20452
-0.201081
-0.197714
-0.194429
-0.191237
-0.188153
-0.185181
-0.182317
-0.179556
-0.176888
-0.17431
-0.171817
-0.169412
-0.167088
-0.164836
-0.162651
-0.160529
-0.158468
-0.156461
-0.154502
-0.15259
-0.150726
-0.1489
-0.147104
-0.145321
-0.143512
-0.14167
-0.139784
-0.137859
-0.135897
-0.1339
-0.131861
-0.129766
-0.127585
-0.125361
-0.123119
-0.120874
-0.118639
-0.116423
-0.114237
-0.112091
-0.109992
-0.107947
-0.105961
-0.104038
-0.102175
-0.100371
-0.0986222
-0.0969266
-0.0952793
-0.0936724
-0.09209
-0.0905172
-0.088936
-0.0873212
-0.0856512
-0.0839066
-0.082071
-0.0801355
-0.0780945
-0.0759259
-0.0736024
-0.0710848
-0.0682997
-0.0651809
-0.0616984
-0.0578548
-0.0536822
-0.0492244
-0.0445323
-0.0396524
-0.0346411
-0.0295367
-0.0243342
-0.018962
-0.0133392
-0.00793929
-0.00587836
-0.00381982
-0.00141749
0.00125084
0.00409142
0.0070401
0.0100561
0.0131133
0.0161951
0.0192906
0.0223928
0.0254975
0.0286019
0.0317047
0.034805
0.0379025
0.0409972
0.0440891
0.0471785
0.0502656
0.0533508
0.0564342
0.0595162
0.0625969
0.0656766
0.0687556
0.0718338
0.0749116
0.0779891
0.0810662
0.0841432
0.08722
0.0902968
0.0933735
0.0964502
0.0995269
0.102604
0.10568
0.108757
-0.218761
-0.21511
-0.211489
-0.207913
-0.204401
-0.200966
-0.197618
-0.194365
-0.191219
-0.188188
-0.185271
-0.182456
-0.179736
-0.177106
-0.174565
-0.172115
-0.169759
-0.167491
-0.165306
-0.1632
-0.161164
-0.159196
-0.157282
-0.155417
-0.153603
-0.151836
-0.150111
-0.148416
-0.146721
-0.144983
-0.143174
-0.141284
-0.13933
-0.137335
-0.135307
-0.133235
-0.131087
-0.128837
-0.126551
-0.124249
-0.121946
-0.119655
-0.117389
-0.115159
-0.112974
-0.110844
-0.108773
-0.106767
-0.104833
-0.102965
-0.10116
-0.0994151
-0.0977268
-0.0960927
-0.0945062
-0.0929547
-0.0914215
-0.0898858
-0.0883165
-0.08669
-0.0849867
-0.0831925
-0.0812978
-0.0792879
-0.0771358
-0.0748071
-0.07224
-0.0693499
-0.0660864
-0.0624441
-0.0584418
-0.0541154
-0.0495089
-0.0446813
-0.0396975
-0.0345932
-0.0293771
-0.023998
-0.0181472
-0.0107553
-0.000929783
-0.00419344
-0.00326459
-0.00118809
0.00136578
0.00415646
0.00707905
0.0100797