/*--------------------------------*- C++ -*----------------------------------*\
  =========                 |
  \\      /  F ield         | OpenFOAM: The Open Source CFD Toolbox
   \\    /   O peration     | Website:  https://openfoam.org
    \\  /    A nd           | Version:  6
     \\/     M anipulation  |
\*---------------------------------------------------------------------------*/
FoamFile
{
    version     2.0;
    format      ascii;
    class       surfaceScalarField;
    location    "550";
    object      phi;
}
// * * * * * * * * * * * * * * * * * * * * * * * * * * * * * * * * * * * * * //

dimensions      [0 3 -1 0 0 0 0];

internalField   nonuniform List<scalar> 
9440
(
-1.42738e-10
1.42738e-10
-3.90932e-10
2.48195e-10
-5.3808e-10
1.47148e-10
-6.34194e-10
9.61154e-11
-7.56861e-10
1.22667e-10
-8.03609e-10
4.67489e-11
-8.54839e-10
5.12304e-11
-8.93184e-10
3.83456e-11
-9.44926e-10
5.17427e-11
-1.03661e-09
9.16883e-11
-1.15828e-09
1.21663e-10
-1.30943e-09
1.51154e-10
-1.54446e-09
2.35031e-10
-1.767e-09
2.2254e-10
-1.97048e-09
2.03479e-10
-2.15656e-09
1.86082e-10
-2.27445e-09
1.1789e-10
-2.37232e-09
9.78721e-11
-2.43418e-09
6.18583e-11
-2.47057e-09
3.63907e-11
-2.53872e-09
6.81472e-11
-2.58964e-09
5.09291e-11
-2.60261e-09
1.29672e-11
-2.6144e-09
1.17874e-11
-2.60466e-09
-9.73555e-12
-2.56711e-09
-3.75538e-11
-2.49803e-09
-6.90737e-11
-2.40901e-09
-8.90232e-11
-2.22699e-09
-1.82019e-10
-2.08988e-09
-1.37113e-10
-1.98538e-09
-1.04494e-10
-1.87556e-09
-1.09825e-10
-1.82234e-09
-5.32183e-11
-1.7746e-09
-4.77423e-11
-1.73512e-09
-3.9483e-11
-1.72903e-09
-6.08142e-12
-1.74686e-09
1.78272e-11
-1.78175e-09
3.48922e-11
-1.86502e-09
8.327e-11
-2.02265e-09
1.57625e-10
-2.2312e-09
2.08549e-10
-2.40746e-09
1.76265e-10
-2.51133e-09
1.03866e-10
-2.58347e-09
7.21444e-11
-2.66864e-09
8.51679e-11
-2.75392e-09
8.52746e-11
-2.83213e-09
7.82108e-11
-2.90554e-09
7.34161e-11
-2.95138e-09
4.58312e-11
-2.97782e-09
2.64446e-11
-3.00162e-09
2.37991e-11
-2.98245e-09
-1.9171e-11
-2.90437e-09
-7.80848e-11
-2.81847e-09
-8.58973e-11
-2.64992e-09
-1.6855e-10
-2.52814e-09
-1.21782e-10
-2.45051e-09
-7.76323e-11
-2.4193e-09
-3.12095e-11
-2.43696e-09
1.76678e-11
-2.42785e-09
-9.11599e-12
-2.38528e-09
-4.25732e-11
-2.34296e-09
-4.23179e-11
-2.45192e-09
1.08963e-10
-2.59806e-09
1.46143e-10
-2.67499e-09
7.69258e-11
-2.82073e-09
1.45743e-10
-2.86635e-09
4.56203e-11
-2.83304e-09
-3.33182e-11
-2.69378e-09
-1.39257e-10
-2.49898e-09
-1.948e-10
-2.33008e-09
-1.68903e-10
-2.19972e-09
-1.30358e-10
-2.09121e-09
-1.0851e-10
-2.02965e-09
-6.15578e-11
-1.99698e-09
-3.26698e-11
-1.94546e-09
-5.15177e-11
-1.79468e-09
-1.50778e-10
-1.41395e-09
-3.80729e-10
-9.03055e-10
-5.10897e-10
4.18445e-15
-9.03061e-10
1.94608e-18
5.42318e-18
3.75396e-19
1.57069e-18
-2.94065e-20
4.03593e-19
-7.4416e-20
4.68129e-20
1.98178e-21
-7.41081e-20
1.24086e-19
-1.19926e-19
2.64725e-19
-1.38549e-19
4.12288e-19
-1.45384e-19
5.60467e-19
-1.45886e-19
7.05117e-19
-1.42243e-19
8.43115e-19
-1.35501e-19
9.71976e-19
-1.26286e-19
1.08971e-18
-1.15071e-19
1.19474e-18
-1.02284e-19
1.28588e-18
-8.83318e-20
1.36234e-18
-7.36016e-20
1.42371e-18
-5.84443e-20
1.46991e-18
-4.31677e-20
1.5011e-18
-2.80397e-20
1.51767e-18
-1.32941e-20
1.52015e-18
8.66215e-22
1.50924e-18
1.42752e-20
1.48578e-18
2.68103e-20
1.45069e-18
3.83974e-20
1.40501e-18
4.90071e-20
1.34974e-18
5.86448e-20
1.28585e-18
6.73385e-20
1.21424e-18
7.51275e-20
1.13573e-18
8.20566e-20
1.05105e-18
8.81701e-20
9.6088e-19
9.35133e-20
8.65852e-19
9.81321e-20
7.66583e-19
1.02073e-19
6.63666e-19
1.05383e-19
5.57679e-19
1.0811e-19
4.49179e-19
1.10299e-19
3.38701e-19
1.11994e-19
2.26745e-19
1.13243e-19
1.13751e-19
1.14112e-19
1.14765e-19
-2.06066e-10
3.48806e-10
-3.30341e-10
3.72472e-10
-4.832e-10
3.00008e-10
-6.20578e-10
2.33495e-10
-7.10229e-10
2.12319e-10
-7.92916e-10
1.29437e-10
-8.33431e-10
9.17467e-11
-8.89083e-10
9.39989e-11
-9.45859e-10
1.0852e-10
-9.8655e-10
1.32381e-10
-1.088e-09
2.23115e-10
-1.25765e-09
3.20799e-10
-1.4299e-09
4.0729e-10
-1.62703e-09
4.19664e-10
-1.81438e-09
3.90837e-10
-1.93398e-09
3.05676e-10
-2.04244e-09
2.26356e-10
-2.09099e-09
1.4642e-10
-2.08571e-09
5.65804e-11
-2.14825e-09
9.89308e-11
-2.28588e-09
2.05773e-10
-2.3757e-09
1.40756e-10
-2.42581e-09
6.3073e-11
-2.44861e-09
3.45904e-11
-2.47371e-09
1.53607e-11
-2.47297e-09
-3.82917e-11
-2.45983e-09
-8.22142e-11
-2.39523e-09
-1.53615e-10
-2.24341e-09
-3.33841e-10
-2.08788e-09
-2.92649e-10
-1.96274e-09
-2.29626e-10
-1.8159e-09
-2.56666e-10
-1.67555e-09
-1.93571e-10
-1.54968e-09
-1.7361e-10
-1.47702e-09
-1.12151e-10
-1.46981e-09
-1.32893e-11
-1.48773e-09
3.57518e-11
-1.52473e-09
7.18933e-11
-1.5864e-09
1.44932e-10
-1.72176e-09
2.9299e-10
-1.90019e-09
3.8698e-10
-2.09068e-09
3.66754e-10
-2.20756e-09
2.20749e-10
-2.2463e-09
1.10879e-10
-2.28944e-09
1.28303e-10
-2.39935e-09
1.95187e-10
-2.4998e-09
1.78661e-10
-2.59063e-09
1.64246e-10
-2.66062e-09
1.15824e-10
-2.70427e-09
7.0091e-11
-2.74364e-09
6.31697e-11
-2.7294e-09
-3.3412e-11
-2.66927e-09
-1.38212e-10
-2.62637e-09
-1.28807e-10
-2.47891e-09
-3.16011e-10
-2.23382e-09
-3.66865e-10
-1.98271e-09
-3.28745e-10
-1.8339e-09
-1.80025e-10
-1.83501e-09
1.87854e-11
-1.90164e-09
5.75076e-11
-1.93983e-09
-4.3817e-12
-1.90081e-09
-8.1342e-11
-1.83788e-09
4.60375e-11
-1.82005e-09
1.28314e-10
-1.67879e-09
-6.43343e-11
-1.88379e-09
3.50739e-10
-1.67196e-09
-1.66202e-10
-1.52542e-09
-1.79861e-10
-1.39475e-09
-2.69928e-10
-1.31596e-09
-2.73588e-10
-1.22779e-09
-2.57072e-10
-1.14219e-09
-2.15955e-10
-1.08696e-09
-1.63744e-10
-1.03258e-09
-1.15935e-10
-9.97636e-10
-6.76117e-11
-9.66774e-10
-8.23785e-11
-9.11669e-10
-2.05882e-10
-9.66959e-10
-3.25437e-10
-8.28821e-10
-6.4903e-10
-3.24302e-16
-1.73187e-09
-2.19356e-18
-6.91313e-19
-7.91961e-19
1.75533e-19
-3.8615e-19
1.55228e-21
-1.95309e-19
-1.40925e-19
-4.3836e-20
-2.22372e-19
1.05463e-19
-2.65685e-19
2.5789e-19
-2.8718e-19
4.11786e-19
-2.95231e-19
5.64111e-19
-2.93977e-19
7.11859e-19
-2.85601e-19
8.5233e-19
-2.71434e-19
9.8319e-19
-2.52464e-19
1.1025e-18
-2.29553e-19
1.20869e-18
-2.03527e-19
1.30061e-18
-1.75185e-19
1.3775e-18
-1.45291e-19
1.43899e-18
-1.14552e-19
1.48504e-18
-8.36118e-20
1.51585e-18
-5.30401e-20
1.53183e-18
-2.33225e-20
1.53356e-18
5.14548e-21
1.52178e-18
3.2061e-20
1.49736e-18
5.72099e-20
1.4613e-18
8.04582e-20
1.41465e-18
1.01739e-19
1.35843e-18
1.21041e-19
1.29364e-18
1.38394e-19
1.22117e-18
1.5386e-19
1.14185e-18
1.67523e-19
1.0564e-18
1.79487e-19
9.65498e-19
1.89863e-19
8.69793e-19
1.98769e-19
7.69893e-19
2.06325e-19
6.66392e-19
2.12647e-19
5.59867e-19
2.17844e-19
4.50874e-19
2.22015e-19
3.3995e-19
2.25248e-19
2.27615e-19
2.27618e-19
1.14403e-19
2.29185e-19
2.29967e-19
-1.7923e-10
5.28036e-10
-3.08475e-10
5.01718e-10
-4.38887e-10
4.30421e-10
-5.41643e-10
3.36252e-10
-6.46334e-10
3.1701e-10
-7.47308e-10
2.30413e-10
-8.04423e-10
1.48863e-10
-8.38852e-10
1.28429e-10
-8.77775e-10
1.47444e-10
-9.06317e-10
1.60923e-10
-9.30165e-10
2.46965e-10
-1.08587e-09
4.76505e-10
-1.22351e-09
5.44926e-10
-1.37607e-09
5.72232e-10
-1.54248e-09
5.57248e-10
-1.64203e-09
4.0523e-10
-1.73877e-09
3.23087e-10
-1.76001e-09
1.67669e-10
-1.90066e-09
1.9723e-10
-2.00549e-09
2.03763e-10
-2.11893e-09
3.19205e-10
-2.19785e-09
2.19679e-10
-2.27917e-09
1.4439e-10
-2.37311e-09
1.28538e-10
-2.41864e-09
6.08844e-11
-2.44295e-09
-1.39743e-11
-2.46527e-09
-5.98967e-11
-2.39857e-09
-2.20312e-10
-2.32268e-09
-4.09729e-10
-2.20538e-09
-4.09955e-10
-2.05008e-09
-3.84923e-10
-1.8948e-09
-4.11949e-10
-1.76502e-09
-3.23344e-10
-1.64541e-09
-2.93224e-10
-1.52034e-09
-2.37224e-10
-1.4365e-09
-9.71321e-11
-1.38401e-09
-1.67335e-11
-1.35863e-09
4.65109e-11
-1.34933e-09
1.35629e-10
-1.42487e-09
3.68539e-10
-1.56151e-09
5.23616e-10
-1.81643e-09
6.21675e-10
-2.01471e-09
4.19025e-10
-2.23807e-09
3.34239e-10
-2.42291e-09
3.13146e-10
-2.62361e-09
3.9588e-10
-2.77946e-09
3.34515e-10
-2.88265e-09
2.67434e-10
-2.9535e-09
1.86674e-10
-2.97109e-09
8.76838e-11
-2.94681e-09
3.88866e-11
-2.90689e-09
-7.33292e-11
-2.77494e-09
-2.70169e-10
-2.67017e-09
-2.3358e-10
-2.61976e-09
-3.66418e-10
-2.51999e-09
-4.66634e-10
-2.35501e-09
-4.93728e-10
-2.09695e-09
-4.38085e-10
-1.93731e-09
-1.40854e-10
-1.79621e-09
-8.35945e-11
-1.54985e-09
-2.50743e-10
-1.30826e-09
-3.2293e-10
-1.11172e-09
-1.50498e-10
-1.10758e-09
1.24167e-10
-7.9105e-10
-3.80861e-10
-7.38035e-10
2.97724e-10
-6.24856e-10
-2.79381e-10
-6.15116e-10
-1.896e-10
-6.05067e-10
-2.79977e-10
-6.42832e-10
-2.35824e-10
-5.55785e-10
-3.44118e-10
-5.39859e-10
-2.3188e-10
-4.97545e-10
-2.06058e-10
-3.99009e-10
-2.1447e-10
-2.90087e-10
-1.76533e-10
-2.03744e-10
-1.68721e-10
-3.11914e-10
-9.77119e-11
-5.0385e-10
-1.33503e-10
-5.29887e-10
-6.22998e-10
-4.12521e-16
-2.26176e-09
-1.87812e-18
-2.6601e-18
-9.65662e-19
-7.35612e-19
-5.28348e-19
-4.33421e-19
-2.76678e-19
-3.90171e-19
-8.71488e-20
-4.09382e-19
8.39669e-20
-4.34047e-19
2.4984e-19
-4.501e-19
4.1304e-19
-4.55259e-19
5.72487e-19
-4.50086e-19
7.26025e-19
-4.35654e-19
8.713e-19
-4.13085e-19
1.0061e-18
-3.83511e-19
1.12852e-18
-3.48094e-19
1.23703e-18
-3.08028e-19
1.3305e-18
-2.64508e-19
1.40824e-18
-2.18698e-19
1.46993e-18
-1.71692e-19
1.51561e-18
-1.24491e-19
1.54556e-18
-7.7971e-20
1.56029e-18
-3.28678e-20
1.56047e-18
1.02332e-20
1.54693e-18
5.08937e-20
1.52061e-18
8.88091e-20
1.48259e-18
1.2379e-19
1.43395e-18
1.55746e-19
1.37578e-18
1.84664e-19
1.3091e-18
2.10597e-19
1.23484e-18
2.33647e-19
1.15381e-18
2.53954e-19
1.06677e-18
2.71687e-19
9.74405e-19
2.87027e-19
8.77349e-19
3.00166e-19
7.76215e-19
3.11292e-19
6.71589e-19
3.20587e-19
5.64038e-19
3.28219e-19
4.54107e-19
3.34339e-19
3.4232e-19
3.39078e-19
2.29182e-19
3.42542e-19
1.15185e-19
3.44812e-19
3.45932e-19
-1.44011e-10
6.72048e-10
-2.57978e-10
6.15686e-10
-3.92426e-10
5.64871e-10
-4.79696e-10
4.23523e-10
-5.3675e-10
3.74065e-10
-5.99882e-10
2.93546e-10
-6.90669e-10
2.39651e-10
-7.36253e-10
1.74013e-10
-7.7212e-10
1.83313e-10
-8.1776e-10
2.06564e-10
-8.42483e-10
2.7169e-10
-8.31135e-10
4.65157e-10
-9.61356e-10
6.75148e-10
-1.06366e-09
6.74532e-10
-1.08314e-09
5.76734e-10
-1.22178e-09
5.43871e-10
-1.43013e-09
5.31433e-10
-1.54682e-09
2.84367e-10
-1.67879e-09
3.29198e-10
-1.80206e-09
3.27037e-10
-1.87955e-09
3.96695e-10
-1.98348e-09
3.23602e-10
-2.12371e-09
2.84629e-10
-2.21853e-09
2.23357e-10
-2.27382e-09
1.16174e-10
-2.29195e-09
4.15015e-12
-2.3035e-09
-4.83422e-11
-2.23948e-09
-2.84337e-10
-2.23597e-09
-4.13237e-10
-2.22382e-09
-4.22105e-10
-2.13404e-09
-4.74697e-10
-2.02058e-09
-5.25417e-10
-1.92631e-09
-4.17608e-10
-1.82206e-09
-3.97476e-10
-1.71638e-09
-3.42903e-10
-1.62229e-09
-1.91227e-10
-1.55328e-09
-8.57373e-11
-1.49472e-09
-1.20544e-11
-1.47077e-09
1.11685e-10
-1.52757e-09
4.2533e-10
-1.54256e-09
5.3861e-10
-1.77416e-09
8.53278e-10
-2.0685e-09
7.13356e-10
-2.36808e-09
6.33828e-10
-2.63783e-09
5.82888e-10
-2.87725e-09
6.35302e-10
-2.97725e-09
4.34518e-10
-3.04617e-09
3.36353e-10
-3.10321e-09
2.43708e-10
-3.06697e-09
5.14424e-11
-2.98855e-09
-3.95299e-11
-2.97298e-09
-8.88983e-11
-2.77347e-09
-4.69682e-10
-2.6752e-09
-3.31847e-10
-2.62577e-09
-4.15853e-10
-2.59901e-09
-4.93398e-10
-2.53052e-09
-5.62218e-10
-2.23433e-09
-7.34269e-10
-2.07486e-09
-3.0033e-10
-1.87824e-09
-2.80209e-10
-1.67555e-09
-4.53436e-10
-1.55717e-09
-4.41308e-10
-1.34343e-09
-3.64238e-10
-1.11082e-09
-1.08442e-10
-1.10592e-09
-3.85763e-10
-6.72757e-10
-1.35441e-10
-6.22122e-10
-3.30016e-10
-5.34108e-10
-2.77614e-10
-4.90219e-10
-3.23866e-10
-4.61457e-10
-2.64585e-10
-3.27921e-10
-4.77653e-10
-3.08322e-10
-2.51478e-10
-2.23922e-10
-2.90458e-10
-1.32144e-10
-3.06247e-10
-6.06356e-11
-2.48041e-10
2.69388e-11
-2.56294e-10
1.2482e-10
-1.95591e-10
5.51961e-11
-6.3877e-11
-2.1344e-10
-3.54361e-10
-1.79534e-16
-2.4752e-09
-7.3384e-19
-2.45355e-18
-6.63216e-19
-8.05584e-19
-4.84831e-19
-6.10256e-19
-2.95802e-19
-5.77311e-19
-1.11814e-19
-5.91312e-19
6.79136e-20
-6.11491e-19
2.44681e-19
-6.24408e-19
4.18214e-19
-6.26122e-19
5.86918e-19
-6.15947e-19
7.48594e-19
-5.94337e-19
9.00875e-19
-5.62238e-19
1.04152e-18
-5.20897e-19
1.16859e-18
-4.71764e-19
1.28055e-18
-4.16421e-19
1.37631e-18
-3.56502e-19
1.45524e-18
-2.93618e-19
1.51713e-18
-2.29288e-19
1.56213e-18
-1.64894e-19
1.59067e-18
-1.01637e-19
1.6034e-18
-4.0508e-20
1.60113e-18
1.77164e-20
1.58484e-18
7.24681e-20
1.55559e-18
1.23364e-19
1.51454e-18
1.70177e-19
1.46287e-18
2.12812e-19
1.40172e-18
2.51277e-19
1.33215e-18
2.85667e-19
1.25514e-18
3.16143e-19
1.17154e-18
3.42915e-19
1.08211e-18
3.66225e-19
9.87544e-19
3.86338e-19
8.88475e-19
4.03522e-19
7.8551e-19
4.18041e-19
6.79221e-19
4.30147e-19
5.70158e-19
4.4007e-19
4.58846e-19
4.48014e-19
3.45785e-19
4.54157e-19
2.31452e-19
4.58639e-19
1.16305e-19
4.61569e-19
4.63016e-19
-1.52625e-10
8.24674e-10
-2.64879e-10
7.27941e-10
-3.13308e-10
6.13301e-10
-3.99755e-10
5.09972e-10
-4.42202e-10
4.16513e-10
-4.70326e-10
3.21671e-10
-5.00724e-10
2.7005e-10
-5.69232e-10
2.42522e-10
-6.12067e-10
2.26149e-10
-6.448e-10
2.39298e-10
-6.52834e-10
2.79725e-10
-5.67028e-10
3.79351e-10
-5.50077e-10
6.58199e-10
-6.96824e-10
8.2128e-10
-9.28891e-10
8.08802e-10
-1.13626e-09
7.51241e-10
-1.19358e-09
5.88754e-10
-1.29957e-09
3.90353e-10
-1.41626e-09
4.45891e-10
-1.58745e-09
4.98229e-10
-1.69315e-09
5.02395e-10
-1.79201e-09
4.22462e-10
-1.88535e-09
3.77975e-10
-1.90743e-09
2.45432e-10
-1.96691e-09
1.75656e-10
-2.00662e-09
4.38579e-11
-2.00309e-09
-5.18664e-11
-2.00081e-09
-2.86619e-10
-1.98897e-09
-4.25073e-10
-2.01333e-09
-3.97749e-10
-2.01711e-09
-4.70917e-10
-1.98953e-09
-5.53e-10
-1.93995e-09
-4.67188e-10
-1.87946e-09
-4.5796e-10
-1.84013e-09
-3.82238e-10
-1.81094e-09
-2.2042e-10
-1.77324e-09
-1.23435e-10
-1.72939e-09
-5.59001e-11
-1.72103e-09
1.0332e-10
-1.76845e-09
4.72747e-10
-1.73849e-09
5.08657e-10
-1.81776e-09
9.32544e-10
-2.18348e-09
1.07907e-09
-2.46621e-09
9.16564e-10
-2.68955e-09
8.06227e-10
-2.84141e-09
7.87164e-10
-2.90839e-09
5.01497e-10
-2.9599e-09
3.87863e-10
-2.99655e-09
2.80355e-10
-2.87622e-09
-6.88839e-11
-2.81887e-09
-9.68889e-11
-2.83789e-09
-6.98752e-11
-2.4885e-09
-8.19073e-10
-2.37615e-09
-4.44199e-10
-2.27172e-09
-5.20284e-10
-2.18809e-09
-5.77025e-10
-2.02665e-09
-7.23661e-10
-1.95804e-09
-8.02878e-10
-1.88986e-09
-3.68515e-10
-1.81534e-09
-3.54721e-10
-1.77613e-09
-4.92647e-10
-1.75816e-09
-4.59278e-10
-1.61991e-09
-5.02494e-10
-1.32445e-09
-4.03894e-10
-1.36612e-09
-3.44101e-10
-1.17176e-09
-3.29793e-10
-1.14664e-09
-3.55141e-10
-1.11334e-09
-3.10914e-10
-1.10061e-09
-3.36598e-10
-9.7289e-10
-3.923e-10
-7.9951e-10
-6.51033e-10
-7.01578e-10
-3.49409e-10
-4.88388e-10
-5.03648e-10
-2.79422e-10
-5.15212e-10
-1.21741e-10
-4.05722e-10
1.84612e-12
-3.79881e-10
5.66552e-11
-2.504e-10
-4.57566e-11
3.8536e-11
-8.85145e-11
-3.11602e-10
-5.13742e-17
-2.56371e-09
-5.52374e-20
-7.14161e-19
-4.67634e-19
-3.92538e-19
-4.51622e-19
-6.25232e-19
-3.09701e-19
-7.17903e-19
-1.31993e-19
-7.67503e-19
5.49961e-20
-7.96709e-19
2.42967e-19
-8.10426e-19
4.28388e-19
-8.09386e-19
6.08529e-19
-7.93761e-19
7.80692e-19
-7.64032e-19
9.42216e-19
-7.21165e-19
1.09065e-18
-6.666e-19
1.22393e-18
-6.02146e-19
1.34047e-18
-5.29854e-19
1.4392e-18
-4.51878e-19
1.51957e-18
-3.70344e-19
1.58153e-18
-2.87254e-19
1.62539e-18
-2.04406e-19
1.6518e-18
-1.23347e-19
1.66162e-18
-4.53362e-20
1.65589e-18
2.86586e-20
1.63574e-18
9.79489e-20
1.60241e-18
1.62092e-19
1.55718e-18
2.20849e-19
1.50133e-18
2.74148e-19
1.43611e-18
3.22049e-19
1.36263e-18
3.64714e-19
1.28192e-18
4.02385e-19
1.19485e-18
4.3536e-19
1.10223e-18
4.63975e-19
1.00473e-18
4.88584e-19
9.02994e-19
5.09545e-19
7.97615e-19
5.27205e-19
6.89144e-19
5.41891e-19
5.78103e-19
5.53899e-19
4.64989e-19
5.63494e-19
3.50267e-19
5.70897e-19
2.34382e-19
5.76292e-19
1.17751e-19
5.79812e-19
5.81551e-19
-2.55548e-11
8.50229e-10
-9.58516e-11
7.98239e-10
-1.36361e-10
6.53811e-10
-1.63254e-10
5.36866e-10
-1.99539e-10
4.52798e-10
-2.68064e-10
3.90198e-10
-3.37421e-10
3.39408e-10
-3.88524e-10
2.93625e-10
-4.36729e-10
2.74355e-10
-4.79046e-10
2.81616e-10
-5.09443e-10
3.10123e-10
-5.24428e-10
3.94337e-10
-4.0151e-10
5.35281e-10
-2.784e-10
6.9817e-10
-3.09534e-10
8.39937e-10
-4.5018e-10
8.91887e-10
-7.39056e-10
8.77631e-10
-1.0823e-09
7.33593e-10
-1.24227e-09
6.05866e-10
-1.2945e-09
5.50458e-10
-1.33482e-09
5.42718e-10
-1.45654e-09
5.4418e-10
-1.56843e-09
4.89869e-10
-1.65722e-09
3.34224e-10
-1.65796e-09
1.7639e-10
-1.66606e-09
5.19566e-11
-1.64157e-09
-7.63471e-11
-1.69626e-09
-2.31937e-10
-1.74667e-09
-3.74654e-10
-1.80554e-09
-3.38878e-10
-1.78662e-09
-4.89846e-10
-1.81823e-09
-5.2139e-10
-1.85851e-09
-4.26907e-10
-1.89042e-09
-4.26044e-10
-1.90351e-09
-3.69146e-10
-1.92006e-09
-2.03876e-10
-1.91085e-09
-1.32639e-10
-1.9521e-09
-1.46558e-11
-2.00568e-09
1.56898e-10
-2.06612e-09
5.33192e-10
-2.12862e-09
5.71154e-10
-2.10625e-09
9.10174e-10
-2.24341e-09
1.21623e-09
-2.40562e-09
1.07878e-09
-2.57746e-09
9.78064e-10
-2.64275e-09
8.52456e-10
-2.62722e-09
4.8596e-10
-2.64404e-09
4.04684e-10
-2.65403e-09
2.90351e-10
-2.60365e-09
-1.19272e-10
-2.46798e-09
-2.32557e-10
-2.26309e-09
-2.74762e-10
-2.2268e-09
-8.55362e-10
-2.02679e-09
-6.44212e-10
-1.89141e-09
-6.55666e-10
-1.79719e-09
-6.71241e-10
-1.74534e-09
-7.7552e-10
-1.77081e-09
-7.774e-10
-1.60816e-09
-5.31166e-10
-1.5526e-09
-4.10281e-10
-1.53769e-09
-5.07562e-10
-1.50321e-09
-4.93758e-10
-1.51325e-09
-4.9245e-10
-1.47542e-09
-4.4172e-10
-1.40268e-09
-4.16841e-10
-1.33355e-09
-3.98921e-10
-1.3452e-09
-3.43499e-10
-1.35577e-09
-3.00337e-10
-1.29583e-09
-3.96542e-10
-1.16498e-09
-5.23145e-10
-1.17189e-09
-6.44124e-10
-1.07752e-09
-4.43777e-10
-9.07819e-10
-6.7335e-10
-6.74471e-10
-7.48559e-10
-4.65855e-10
-6.14337e-10
-1.98634e-10
-6.47102e-10
-4.26254e-11
-4.06408e-10
1.24674e-11
-1.65565e-11
1.24083e-10
-4.23218e-10
2.68215e-17
-2.43963e-09
-8.47135e-19
-1.42975e-18
-7.0006e-19
-5.391e-19
-5.44029e-19
-7.8065e-19
-3.59183e-19
-9.01905e-19
-1.61198e-19
-9.64492e-19
4.12794e-20
-9.97924e-19
2.44007e-19
-1.01169e-18
4.44012e-19
-1.00773e-18
6.38259e-19
-9.86192e-19
8.23559e-19
-9.47386e-19
9.96781e-19
-8.92322e-19
1.1551e-18
-8.22729e-19
1.29622e-18
-7.40901e-19
1.41844e-18
-6.49494e-19
1.52073e-18
-5.51306e-19
1.60266e-18
-4.49086e-19
1.66437e-18
-3.45391e-19
1.70645e-18
-2.42485e-19
1.72981e-18
-1.42285e-19
1.73562e-18
-4.63314e-20
1.72518e-18
4.42224e-20
1.69988e-18
1.28583e-19
1.66116e-18
2.06273e-19
1.61047e-18
2.77078e-19
1.54923e-18
3.40988e-19
1.47877e-18
3.98149e-19
1.4003e-18
4.48827e-19
1.31489e-18
4.93373e-19
1.22347e-18
5.322e-19
1.12683e-18
5.65753e-19
1.02569e-18
5.94494e-19
9.20654e-19
6.18881e-19
8.12301e-19
6.39354e-19
7.01152e-19
6.56321e-19
5.87698e-19
6.70153e-19
4.72392e-19
6.81173e-19
3.55661e-19
6.89656e-19
2.37902e-19
6.95824e-19
1.1949e-19
6.99845e-19
7.01829e-19
3.65941e-11
8.13636e-10
6.22112e-11
7.72623e-10
4.17309e-11
6.74292e-10
8.94661e-12
5.69652e-10
-3.24963e-11
4.94242e-10
-7.10091e-11
4.28712e-10
-1.13944e-10
3.82344e-10
-1.66763e-10
3.46444e-10
-2.07395e-10
3.14988e-10
-2.46741e-10
3.20963e-10
-2.67346e-10
3.30729e-10
-2.78488e-10
4.05479e-10
-2.4533e-10
5.02125e-10
-1.73186e-10
6.26027e-10
-1.15775e-10
7.82527e-10
-1.79321e-10
9.55434e-10
-2.79438e-10
9.77749e-10
-5.15469e-10
9.69625e-10
-8.72599e-10
9.62996e-10
-1.14559e-09
8.23448e-10
-1.22061e-09
6.17737e-10
-1.19324e-09
5.16812e-10
-1.16107e-09
4.57704e-10
-1.20895e-09
3.82105e-10
-1.26052e-09
2.27953e-10
-1.31568e-09
1.07125e-10
-1.35108e-09
-4.09483e-11
-1.41684e-09
-1.66177e-10
-1.41499e-09
-3.76505e-10
-1.47071e-09
-2.83165e-10
-1.55677e-09
-4.03778e-10
-1.73229e-09
-3.45868e-10
-1.80328e-09
-3.55924e-10
-1.87965e-09
-3.49671e-10
-1.96116e-09
-2.87639e-10
-1.99092e-09
-1.74114e-10
-1.99612e-09
-1.27435e-10
-1.99862e-09
-1.21643e-11
-1.98015e-09
1.38434e-10
-2.05322e-09
6.06256e-10
-2.19503e-09
7.12971e-10
-2.21417e-09
9.29305e-10
-2.16821e-09
1.17027e-09
-2.2474e-09
1.15797e-09
-2.3533e-09
1.08396e-09
-2.36068e-09
8.59844e-10
-2.34872e-09
4.7399e-10
-2.27049e-09
3.26456e-10
-2.15647e-09
1.76331e-10
-2.13657e-09
-1.39167e-10
-2.02914e-09
-3.39997e-10
-1.8505e-09
-4.53394e-10
-1.99662e-09
-7.09249e-10
-1.64945e-09
-9.91384e-10
-1.58252e-09
-7.22595e-10
-1.46881e-09
-7.84946e-10
-1.42482e-09
-8.19514e-10
-1.36251e-09
-8.39707e-10
-1.2713e-09
-6.22383e-10
-1.19878e-09
-4.828e-10
-1.15872e-09
-5.47617e-10
-1.15116e-09
-5.01321e-10
-1.17537e-09
-4.68241e-10
-1.19679e-09
-4.20301e-10
-1.26088e-09
-3.52746e-10
-1.26461e-09
-3.95199e-10
-1.2773e-09
-3.308e-10
-1.26573e-09
-3.11911e-10
-1.2328e-09
-4.29467e-10
-1.2111e-09
-5.44852e-10
-1.28155e-09
-5.73671e-10
-1.09777e-09
-6.27558e-10
-9.90811e-10
-7.80308e-10
-8.31881e-10
-9.07489e-10
-5.72072e-10
-8.74146e-10
-2.87147e-10
-9.32027e-10
1.94403e-11
-7.12995e-10
3.41958e-10
-3.39074e-10
2.45838e-10
-3.27098e-10
9.98692e-17
-2.19379e-09
-1.18236e-18
-8.27162e-19
-9.41346e-19
-7.79836e-19
-6.65024e-19
-1.05678e-18
-4.21633e-19
-1.14486e-18
-1.94631e-19
-1.19092e-18
2.75125e-20
-1.21923e-18
2.47966e-19
-1.2311e-18
4.65552e-19
-1.22407e-18
6.77065e-19
-1.19632e-18
8.78623e-19
-1.14744e-18
1.06637e-18
-1.07846e-18
1.23693e-18
-9.91566e-19
1.38763e-18
-8.89741e-19
1.51663e-18
-7.76447e-19
1.62295e-18
-6.55307e-19
1.70636e-18
-5.29834e-19
1.76728e-18
-4.0324e-19
1.80664e-18
-2.78314e-19
1.82576e-18
-1.57369e-19
1.82617e-18
-4.2226e-20
1.80954e-18
6.57878e-20
1.77757e-18
1.65802e-19
1.73197e-18
2.57343e-19
1.67438e-18
3.40262e-19
1.60639e-18
4.14659e-19
1.52945e-18
4.80815e-19
1.44485e-18
5.3914e-19
1.35372e-18
5.90134e-19
1.25702e-18
6.34349e-19
1.15558e-18
6.72368e-19
1.05008e-18
7.04776e-19
9.41127e-19
7.32147e-19
8.29268e-19
7.55022e-19
7.14984e-19
7.739e-19
5.98718e-19
7.8923e-19
4.80876e-19
8.01401e-19
3.61829e-19
8.10741e-19
2.41923e-19
8.17516e-19
1.21474e-19
8.21923e-19
8.24096e-19
5.95729e-11
7.54064e-10
9.45222e-11
7.37675e-10
9.73671e-11
6.71449e-10
7.52402e-11
5.91779e-10
4.53035e-11
5.2418e-10
1.87077e-11
4.55309e-10
-5.53835e-12
4.06591e-10
-1.32247e-11
3.54132e-10
1.82705e-12
2.99937e-10
4.09757e-13
3.22381e-10
9.67989e-12
3.2146e-10
4.43433e-11
3.70817e-10
8.2026e-11
4.64443e-10
1.13935e-10
5.94119e-10
1.44498e-10
7.51965e-10
1.30669e-10
9.69263e-10
2.88649e-11
1.07955e-09
-9.92095e-11
1.0977e-09
-1.79517e-10
1.0433e-09
-3.35843e-10
9.79775e-10
-5.68822e-10
8.50717e-10
-7.71911e-10
7.19902e-10
-8.69304e-10
5.55098e-10
-8.97457e-10
4.10258e-10
-9.42138e-10
2.72634e-10
-9.94528e-10
1.59516e-10
-1.05957e-09
2.40981e-11
-1.12047e-09
-1.05284e-10
-1.16614e-09
-3.30834e-10
-1.22231e-09
-2.26998e-10
-1.38632e-09
-2.39763e-10
-1.48975e-09
-2.42436e-10
-1.56561e-09
-2.80063e-10
-1.66893e-09
-2.46353e-10
-1.78208e-09
-1.74489e-10
-1.86817e-09
-8.80288e-11
-1.9451e-09
-5.05063e-11
-1.97738e-09
2.01241e-11
-2.05804e-09
2.19089e-10
-2.05852e-09
6.06738e-10
-2.10759e-09
7.62044e-10
-2.10843e-09
9.30142e-10
-2.04716e-09
1.109e-09
-2.07929e-09
1.1901e-09
-2.16545e-09
1.17012e-09
-2.07711e-09
7.71498e-10
-2.07665e-09
4.73536e-10
-1.9569e-09
2.06699e-10
-1.78135e-09
7.79379e-13
-1.66697e-09
-2.53541e-10
-1.58425e-09
-4.22715e-10
-1.45776e-09
-5.79888e-10
-1.34605e-09
-8.2096e-10
-1.37331e-09
-9.64129e-10
-1.24646e-09
-8.49438e-10
-1.146e-09
-8.85409e-10
-1.10718e-09
-8.58341e-10
-1.1127e-09
-8.34179e-10
-1.07603e-09
-6.59057e-10
-9.25058e-10
-6.33772e-10
-8.44062e-10
-6.28613e-10
-8.05671e-10
-5.39712e-10
-7.74113e-10
-4.99798e-10
-7.73063e-10
-4.21351e-10
-7.81399e-10
-3.4441e-10
-8.54504e-10
-3.22093e-10
-9.0854e-10
-2.76763e-10
-9.17297e-10
-3.03154e-10
-9.41863e-10
-4.04901e-10
-9.92265e-10
-4.9445e-10
-1.02847e-09
-5.37461e-10
-9.93041e-10
-6.62991e-10
-9.11695e-10
-8.61653e-10
-8.3242e-10
-9.86764e-10
-6.53105e-10
-1.05346e-09
-4.4007e-10
-1.14506e-09
5.0636e-11
-1.2037e-09
3.05467e-10
-5.93905e-10
2.30846e-10
-2.52478e-10
1.24128e-16
-1.96294e-09
-2.44686e-18
-5.5303e-18
-1.21803e-18
-2.00859e-18
-7.52846e-19
-1.5221e-18
-4.67537e-19
-1.43001e-18
-2.2295e-19
-1.4352e-18
1.56462e-20
-1.45729e-18
2.54992e-19
-1.46969e-18
4.93309e-19
-1.46143e-18
7.25947e-19
-1.42785e-18
9.47598e-19
-1.36787e-18
1.15327e-18
-1.28282e-18
1.33876e-18
-1.17567e-18
1.50092e-18
-1.05045e-18
1.63777e-18
-9.11715e-19
1.74842e-18
-7.6416e-19
1.83295e-18
-6.12246e-19
1.89221e-18
-4.59959e-19
1.92759e-18
-3.10679e-19
1.9409e-18
-1.67134e-19
1.93418e-18
-3.14065e-20
1.90955e-18
9.50351e-20
1.86911e-18
2.11288e-19
1.81489e-18
3.16936e-19
1.74878e-18
4.11953e-19
1.67255e-18
4.96607e-19
1.58777e-18
5.71368e-19
1.49584e-18
6.36843e-19
1.39793e-18
6.9372e-19
1.29504e-18
7.42731e-19
1.18798e-18
7.84619e-19
1.07745e-18
8.20117e-19
9.64002e-19
8.49926e-19
8.48146e-19
8.74703e-19
7.30314e-19
8.95044e-19
6.10889e-19
9.11481e-19
4.90216e-19
9.24474e-19
3.68604e-19
9.34406e-19
2.4633e-19
9.41587e-19
1.23646e-19
9.46248e-19
9.48542e-19
6.94521e-11
6.84612e-10
1.29493e-10
6.77635e-10
1.54611e-10
6.46332e-10
1.61586e-10
5.84805e-10
1.54151e-10
5.31616e-10
1.37766e-10
4.71694e-10
1.04805e-10
4.39553e-10
7.73271e-11
3.8161e-10
9.52907e-11
2.81975e-10
1.03185e-10
3.14488e-10
1.23611e-10
3.01034e-10
1.62175e-10
3.32253e-10
1.91126e-10
4.35493e-10
2.09803e-10
5.75443e-10
2.56222e-10
7.05546e-10
3.67949e-10
8.57536e-10
3.73515e-10
1.07399e-09
2.81214e-10
1.19e-09
1.70712e-10
1.15381e-09
6.87609e-11
1.08173e-09
2.34815e-11
8.95997e-10
-1.21511e-11
7.55535e-10
-1.30768e-10
6.73716e-10
-3.59276e-10
6.38766e-10
-6.05842e-10
5.192e-10
-7.27696e-10
2.81371e-10
-7.70965e-10
6.73672e-11
-7.6487e-10
-1.11378e-10
-9.41893e-10
-1.53811e-10
-1.02989e-09
-1.39003e-10
-1.1498e-09
-1.19853e-10
-1.26886e-09
-1.23373e-10
-1.37414e-09
-1.74779e-10
-1.44378e-09
-1.76716e-10
-1.49283e-09
-1.25444e-10
-1.58691e-09
6.05826e-12
-1.71455e-09
7.71323e-11
-1.80462e-09
1.10187e-10
-1.90352e-09
3.17994e-10
-1.90238e-09
6.05594e-10
-1.912e-09
7.71663e-10
-1.86908e-09
8.87224e-10
-1.76525e-09
1.00516e-09
-1.63676e-09
1.06161e-09
-1.58394e-09
1.1173e-09
-1.54558e-09
7.33144e-10
-1.46966e-09
3.97615e-10
-1.37941e-09
1.16448e-10
-1.3009e-09
-7.77326e-11
-1.25739e-09
-2.9705e-10
-1.14871e-09
-5.31395e-10
-1.03046e-09
-6.98142e-10
-9.49551e-10
-9.01868e-10
-9.64695e-10
-9.48984e-10
-8.78854e-10
-9.3528e-10
-8.16689e-10
-9.47573e-10
-7.46877e-10
-9.28153e-10
-7.91785e-10
-7.89272e-10
-7.48589e-10
-7.02253e-10
-6.77367e-10
-7.04994e-10
-6.29576e-10
-6.76404e-10
-5.81194e-10
-5.88093e-10
-5.17797e-10
-5.63195e-10
-4.74981e-10
-4.64167e-10
-4.328e-10
-3.86591e-10
-4.16432e-10
-3.38461e-10
-4.00859e-10
-2.92337e-10
-4.12442e-10
-2.91571e-10
-4.56149e-10
-3.61194e-10
-5.02895e-10
-4.47705e-10
-5.34338e-10
-5.06018e-10
-5.6475e-10
-6.32579e-10
-6.08656e-10
-8.17748e-10
-6.34451e-10
-9.60969e-10
-5.21086e-10
-1.16683e-09
-3.5865e-10
-1.3075e-09
-1.6094e-10
-1.40141e-09
3.19423e-12
-7.5804e-10
8.0878e-12
-2.57372e-10
1.38098e-16
-1.95486e-09
-2.97492e-19
-2.62342e-18
-7.3132e-19
-1.57482e-18
-6.60517e-19
-1.59324e-18
-4.72552e-19
-1.61801e-18
-2.45042e-19
-1.66256e-18
3.24328e-21
-1.70519e-18
2.63256e-19
-1.72911e-18
5.26888e-19
-1.72424e-18
7.85927e-19
-1.68591e-18
1.03265e-18
-1.6135e-18
1.26042e-18
-1.5094e-18
1.46398e-18
-1.378e-18
1.63966e-18
-1.22488e-18
1.78533e-18
-1.05612e-18
1.90034e-18
-8.77785e-19
1.98524e-18
-6.95505e-19
2.04149e-18
-5.14177e-19
2.07113e-18
-3.3783e-19
2.07663e-18
-1.69603e-19
2.06062e-18
-1.18019e-20
2.0258e-18
1.34034e-19
1.97476e-18
2.67043e-19
1.9099e-18
3.86939e-19
1.83344e-18
4.93893e-19
1.74731e-18
5.88411e-19
1.65325e-18
6.71219e-19
1.55272e-18
7.43176e-19
1.44694e-18
8.05209e-19
1.33693e-18
8.58267e-19
1.22348e-18
9.03285e-19
1.10726e-18
9.41166e-19
9.88779e-19
9.72756e-19
8.68488e-19
9.98836e-19
7.4675e-19
1.02011e-18
6.23881e-19
1.03719e-18
5.00149e-19
1.05062e-18
3.75785e-19
1.06084e-18
2.5099e-19
1.06819e-18
1.25941e-19
1.07295e-18
1.07529e-18
5.98799e-11
6.24733e-10
1.18242e-10
6.19274e-10
1.69873e-10
5.94702e-10
2.0173e-10
5.5295e-10
2.17142e-10
5.16204e-10
2.1415e-10
4.74687e-10
1.9598e-10
4.57724e-10
1.77725e-10
3.99866e-10
1.89725e-10
2.69975e-10
2.16485e-10
2.87729e-10
2.50673e-10
2.66847e-10
2.84742e-10
2.98186e-10
3.28281e-10
3.91955e-10
3.71282e-10
5.32442e-10
4.24268e-10
6.52562e-10
4.80263e-10
8.01542e-10
5.72227e-10
9.82026e-10
5.76276e-10
1.18595e-09
4.84809e-10
1.24527e-09
4.0014e-10
1.1664e-09
2.72844e-10
1.02329e-09
1.57091e-10
8.71289e-10
5.52597e-11
7.75547e-10
-8.67438e-11
7.80769e-10
-2.8627e-10
7.18727e-10
-3.9667e-10
3.91771e-10
-3.91076e-10
6.17732e-11
-4.25846e-10
-7.66076e-11
-6.27665e-10
4.80077e-11
-8.26602e-10
5.99344e-11
-1.00462e-09
5.81633e-11
-1.13031e-09
2.32373e-12
-1.22078e-09
-8.43126e-11
-1.29769e-09
-9.9808e-11
-1.36086e-09
-6.22765e-11
-1.39163e-09
3.683e-11
-1.44242e-09
1.27928e-10
-1.52421e-09
1.91975e-10
-1.57121e-09
3.64993e-10
-1.573e-09
6.07387e-10
-1.54295e-09
7.41603e-10
-1.50657e-09
8.50845e-10
-1.41376e-09
9.12354e-10
-1.33909e-09
9.8694e-10
-1.11229e-09
8.90498e-10
-9.82037e-10
6.02892e-10
-8.71751e-10
2.87328e-10
-8.21067e-10
6.57628e-11
-7.56372e-10
-1.42428e-10
-7.16901e-10
-3.36521e-10
-6.45852e-10
-6.02444e-10
-5.45994e-10
-7.98001e-10
-5.13109e-10
-9.34753e-10
-5.04904e-10
-9.5719e-10
-5.0143e-10
-9.38754e-10
-4.98284e-10
-9.50719e-10
-5.52525e-10
-8.73913e-10
-5.60877e-10
-7.8092e-10
-5.20287e-10
-7.42843e-10
-5.12667e-10
-7.12614e-10
-4.86143e-10
-7.02928e-10
-3.92827e-10
-6.81409e-10
-3.3212e-10
-6.23902e-10
-3.00452e-10
-4.95835e-10
-2.44428e-10
-4.42614e-10
-1.70242e-10
-4.12647e-10
-8.5607e-11
-3.76971e-10
-2.85327e-11
-3.48645e-10
-4.46535e-11
-3.45073e-10
-9.3255e-11
-3.99103e-10
-1.56651e-10
-4.42623e-10
-2.16434e-10
-5.72797e-10
-2.85793e-10
-7.48388e-10
-3.09494e-10
-9.37269e-10
-2.77425e-10
-1.1989e-09
-2.40476e-10
-1.34445e-09
-1.67361e-10
-1.47453e-09
3.75745e-11
-9.62976e-10
4.41822e-11
-2.6398e-10
1.1418e-16
-1.91067e-09
-6.46156e-19
-2.44586e-18
-7.49499e-19
-1.47159e-18
-6.85051e-19
-1.65811e-18
-5.16911e-19
-1.78632e-18
-2.87678e-19
-1.89176e-18
-2.06696e-20
-1.97193e-18
2.68127e-19
-2.01741e-18
5.65217e-19
-2.02058e-18
8.5833e-19
-1.97808e-18
1.13675e-18
-1.89086e-18
1.39182e-18
-1.76329e-18
1.6171e-18
-1.60204e-18
1.80842e-18
-1.41495e-18
1.96366e-18
-1.21019e-18
2.08262e-18
-9.95575e-19
2.16657e-18
-7.78134e-19
2.21783e-18
-5.63808e-19
2.23936e-18
-3.57306e-19
2.23443e-18
-1.62143e-19
2.20646e-18
1.92406e-20
2.15881e-18