/*--------------------------------*- C++ -*----------------------------------*\
  =========                 |
  \\      /  F ield         | OpenFOAM: The Open Source CFD Toolbox
   \\    /   O peration     | Website:  https://openfoam.org
    \\  /    A nd           | Version:  6
     \\/     M anipulation  |
\*---------------------------------------------------------------------------*/
FoamFile
{
    version     2.0;
    format      ascii;
    class       volVectorField;
    location    "550";
    object      U;
}
// * * * * * * * * * * * * * * * * * * * * * * * * * * * * * * * * * * * * * //

dimensions      [0 1 -1 0 0 0 0];

internalField   nonuniform List<vector> 
4800
(
(7.38055e-05 0 -0.000136722)
(-0.00016198 0 3.90669e-05)
(-0.000188725 0 4.53889e-05)
(-0.000244894 0 1.68432e-05)
(-0.000284247 0 2.66744e-05)
(-0.00031455 0 -9.77836e-06)
(-0.000333962 0 -1.44518e-06)
(-0.000348946 0 -6.42949e-06)
(-0.000359952 0 -9.46465e-06)
(-0.000376633 0 6.5884e-06)
(-0.000422012 0 2.7969e-05)
(-0.000487775 0 4.3844e-05)
(-0.000555165 0 6.14198e-05)
(-0.000644193 0 6.18936e-05)
(-0.000746471 0 6.73242e-05)
(-0.000827238 0 4.43123e-05)
(-0.000886805 0 -1.32305e-05)
(-0.000932642 0 -1.17116e-05)
(-0.000964191 0 -2.68348e-06)
(-0.000984349 0 2.61818e-06)
(-0.000996863 0 3.12762e-05)
(-0.00100508 0 4.57511e-06)
(-0.00102396 0 -3.77844e-05)
(-0.00104216 0 -9.21131e-06)
(-0.00104738 0 -1.31274e-05)
(-0.00102891 0 -2.22848e-05)
(-0.00100392 0 -1.70015e-05)
(-0.000984876 0 -3.33947e-05)
(-0.000940246 0 -7.08141e-05)
(-0.000875713 0 -1.23917e-05)
(-0.000820312 0 -1.14015e-05)
(-0.000782531 0 -5.6077e-05)
(-0.000755809 0 -5.0292e-05)
(-0.000723589 0 -2.74835e-05)
(-0.000698712 0 -2.02097e-05)
(-0.000692569 0 -1.8036e-05)
(-0.000693387 0 -1.93065e-05)
(-0.000706453 0 -2.32507e-05)
(-0.000731577 0 -1.86312e-05)
(-0.000770034 0 1.39077e-05)
(-0.000851401 0 6.45936e-05)
(-0.00093752 0 4.69186e-05)
(-0.000990958 0 -3.51534e-05)
(-0.00102414 0 -8.34202e-05)
(-0.0010573 0 -8.34029e-05)
(-0.00109261 0 -6.20788e-05)
(-0.00112485 0 -4.1347e-05)
(-0.00115205 0 -2.56929e-05)
(-0.00117341 0 -1.52088e-05)
(-0.00118986 0 -2.19754e-05)
(-0.00119871 0 -2.47518e-05)
(-0.00119653 0 -3.38553e-05)
(-0.00117476 0 -4.20134e-05)
(-0.00115497 0 -6.83956e-05)
(-0.00110287 0 -9.16574e-05)
(-0.0010365 0 -5.94575e-05)
(-0.000987999 0 -4.20599e-05)
(-0.000972334 0 -3.57601e-05)
(-0.000975352 0 -2.73916e-05)
(-0.00097673 0 -2.45768e-05)
(-0.000958522 0 -3.09254e-05)
(-0.000948652 0 -4.10813e-05)
(-0.000950202 0 -4.73813e-05)
(-0.000989173 0 -1.19985e-06)
(-0.00106431 0 8.54654e-06)
(-0.00111758 0 -8.01291e-05)
(-0.00114441 0 -0.000144521)
(-0.00115577 0 -0.000145229)
(-0.0011128 0 -0.00019921)
(-0.00102357 0 -0.000231062)
(-0.000961637 0 -0.00021877)
(-0.000909101 0 -0.000196255)
(-0.000850246 0 -0.000195838)
(-0.000810749 0 -0.00019506)
(-0.000799055 0 -0.000186524)
(-0.000807787 0 -0.000182037)
(-0.00083064 0 -0.000185969)
(-0.000812385 0 -0.000240888)
(-0.000591743 0 -0.000281659)
(1.12769e-06 0 -0.000343614)
(3.91452e-13 0 1.08272e-12)
(-2.99473e-13 0 3.14133e-13)
(6.91989e-14 0 8.07169e-14)
(-2.07898e-14 0 9.36233e-15)
(-1.44951e-14 0 -1.48216e-14)
(2.52136e-14 0 -2.39852e-14)
(7.77623e-14 0 -2.77099e-14)
(1.35403e-13 0 -2.90769e-14)
(1.94551e-13 0 -2.91772e-14)
(2.53117e-13 0 -2.84485e-14)
(3.09646e-13 0 -2.71002e-14)
(3.63018e-13 0 -2.52572e-14)
(4.12337e-13 0 -2.30143e-14)
(4.56889e-13 0 -2.04567e-14)
(4.96122e-13 0 -1.76664e-14)
(5.29644e-13 0 -1.47203e-14)
(5.57211e-13 0 -1.16889e-14)
(5.78725e-13 0 -8.63354e-15)
(5.94202e-13 0 -5.60793e-15)
(6.03753e-13 0 -2.65882e-15)
(6.07563e-13 0 1.73243e-16)
(6.05878e-13 0 2.85505e-15)
(5.99003e-13 0 5.36205e-15)
(5.87294e-13 0 7.67949e-15)
(5.71141e-13 0 9.80141e-15)
(5.50949e-13 0 1.1729e-14)
(5.27117e-13 0 1.34677e-14)
(5.00019e-13 0 1.50255e-14)
(4.69995e-13 0 1.64113e-14)
(4.37357e-13 0 1.7634e-14)
(4.02386e-13 0 1.87027e-14)
(3.65346e-13 0 1.96264e-14)
(3.26487e-13 0 2.04146e-14)
(2.8605e-13 0 2.10767e-14)
(2.44269e-13 0 2.1622e-14)
(2.01372e-13 0 2.20598e-14)
(1.57576e-13 0 2.23988e-14)
(1.13089e-13 0 2.26485e-14)
(6.80992e-14 0 2.28225e-14)
(2.27501e-14 0 2.2953e-14)
(-2.09305e-05 0 0.000153671)
(-0.000113596 0 0.000119823)
(-0.000174752 0 8.30022e-05)
(-0.000234012 0 3.89018e-05)
(-0.000270034 0 5.78509e-05)
(-0.000302355 0 3.07401e-05)
(-0.000324107 0 3.84056e-05)
(-0.000348619 0 2.93424e-05)
(-0.000364275 0 3.52515e-05)
(-0.000370712 0 4.01816e-05)
(-0.000391031 0 6.68749e-05)
(-0.000459631 0 6.66716e-05)
(-0.000520481 0 0.000127159)
(-0.000598844 0 0.000114229)
(-0.000688287 0 8.76667e-05)
(-0.000758458 0 8.58007e-05)
(-0.000809233 0 5.85135e-05)
(-0.000828241 0 3.95201e-05)
(-0.00082493 0 5.1547e-05)
(-0.00083361 0 7.47687e-05)
(-0.000902751 0 7.63055e-05)
(-0.000940932 0 4.59433e-05)
(-0.000963169 0 2.17689e-05)
(-0.00097785 0 3.7218e-06)
(-0.000985338 0 -1.65615e-06)
(-0.000987706 0 -9.06349e-06)
(-0.000989146 0 -4.1686e-05)
(-0.000987696 0 -5.21175e-05)
(-0.000931421 0 -8.22366e-05)
(-0.000860276 0 -8.84162e-05)
(-0.000805547 0 -8.12801e-05)
(-0.000754342 0 -5.86927e-05)
(-0.000695598 0 -1.76057e-05)
(-0.000636127 0 -1.44415e-05)
(-0.000598546 0 -4.91464e-06)
(-0.000588019 0 1.40692e-05)
(-0.000588828 0 2.92712e-05)
(-0.000599763 0 4.84609e-05)
(-0.000623539 0 8.81014e-05)
(-0.000645796 0 0.000121704)
(-0.000701283 0 0.000117987)
(-0.000810573 0 7.79764e-05)
(-0.000871777 0 5.5421e-05)
(-0.000890163 0 6.69826e-05)
(-0.000902867 0 8.68033e-05)
(-0.000938681 0 8.91215e-05)
(-0.000983647 0 8.28486e-05)
(-0.00102313 0 8.16414e-05)
(-0.001055 0 5.53022e-05)
(-0.00107843 0 4.13617e-05)
(-0.00109282 0 4.15641e-05)
(-0.00109309 0 2.99033e-05)
(-0.00107486 0 4.0671e-06)
(-0.00106819 0 7.45434e-06)
(-0.00105307 0 -6.60942e-05)
(-0.000954585 0 -4.71135e-05)
(-0.00082988 0 -8.56368e-06)
(-0.000749712 0 2.09181e-05)
(-0.000727026 0 5.58147e-05)
(-0.000749008 0 2.22951e-05)
(-0.000773798 0 -2.07904e-05)
(-0.000773093 0 -2.14715e-05)
(-0.000754777 0 7.59049e-05)
(-0.000710735 0 0.000114178)
(-0.000693434 0 0.000100017)
(-0.000757722 0 9.1919e-05)
(-0.000693806 0 7.78036e-05)
(-0.000648204 0 3.62075e-05)
(-0.000589171 0 -3.49215e-06)
(-0.000545741 0 -3.61505e-05)
(-0.000498347 0 -2.83564e-05)
(-0.000468496 0 -1.29779e-05)
(-0.000445532 0 1.5741e-05)
(-0.00042253 0 6.03915e-05)
(-0.00040243 0 8.15902e-05)
(-0.000397722 0 5.86462e-05)
(-0.000418962 0 -9.97569e-05)
(-0.000432518 0 -0.000263899)
(-0.000535191 0 -0.000299498)
(8.18206e-07 0 -0.000631108)
(-8.95008e-15 0 9.41344e-13)
(-1.37067e-12 0 3.49245e-13)
(-2.35621e-13 0 8.10296e-14)
(-1.1629e-13 0 -1.88224e-14)
(-4.78287e-14 0 -5.9296e-14)
(1.23253e-14 0 -7.71221e-14)
(7.26705e-14 0 -8.5146e-14)
(1.33935e-13 0 -8.8123e-14)
(1.95179e-13 0 -8.79725e-14)
(2.55194e-13 0 -8.55687e-14)
(3.12838e-13 0 -8.13871e-14)
(3.67104e-13 0 -7.575e-14)
(4.17137e-13 0 -6.89248e-14)
(4.62237e-13 0 -6.11621e-14)
(5.01859e-13 0 -5.27034e-14)
(5.35621e-13 0 -4.37785e-14)
(5.63298e-13 0 -3.45992e-14)
(5.84806e-13 0 -2.53559e-14)
(6.00177e-13 0 -1.62159e-14)
(6.09535e-13 0 -7.32331e-15)
(6.13077e-13 0 1.20234e-15)
(6.11067e-13 0 9.26724e-15)
(6.03828e-13 0 1.6804e-14)
(5.91733e-13 0 2.37711e-14)
(5.7519e-13 0 3.01493e-14)
(5.54615e-13 0 3.59372e-14)
(5.30414e-13 0 4.11465e-14)
(5.02962e-13 0 4.57974e-14)
(4.72604e-13 0 4.9916e-14)
(4.39649e-13 0 5.35314e-14)
(4.04379e-13 0 5.66752e-14)
(3.67058e-13 0 5.93803e-14)
(3.27937e-13 0 6.16797e-14)
(2.87257e-13 0 6.36061e-14)
(2.45252e-13 0 6.51908e-14)
(2.02148e-13 0 6.64627e-14)
(1.58165e-13 0 6.74483e-14)
(1.13513e-13 0 6.81722e-14)
(6.84036e-14 0 6.86595e-14)
(2.28806e-14 0 6.89464e-14)
(-4.6957e-05 0 0.000174807)
(-0.000111457 0 0.000155549)
(-0.000157095 0 0.000135752)
(-0.00020021 0 0.000119105)
(-0.000245319 0 9.47804e-05)
(-0.000280519 0 6.64547e-05)
(-0.0003103 0 2.60449e-05)
(-0.000329786 0 4.35219e-05)
(-0.000345994 0 4.70166e-05)
(-0.0003515 0 4.85068e-05)
(-0.000346258 0 8.84336e-05)
(-0.000376653 0 0.000170002)
(-0.000447841 0 0.000186265)
(-0.000508546 0 0.000208043)
(-0.00058494 0 0.000195137)
(-0.000660242 0 0.00011583)
(-0.000681274 0 0.000105932)
(-0.000674223 0 0.000113631)
(-0.000716332 0 2.40399e-05)
(-0.000795342 0 -6.68965e-06)
(-0.000839291 0 5.21183e-05)
(-0.000870266 0 5.07626e-05)
(-0.000902114 0 3.1393e-05)
(-0.000932461 0 2.4947e-05)
(-0.000953535 0 2.68654e-05)
(-0.000971785 0 -9.71742e-06)
(-0.000981092 0 -2.15257e-05)
(-0.000977729 0 -6.51187e-05)
(-0.000942787 0 -0.000197042)
(-0.000911699 0 -0.000177158)
(-0.000865126 0 -0.000129322)
(-0.000792207 0 -0.000148679)
(-0.000735508 0 -0.000122788)
(-0.000686341 0 -0.000116311)
(-0.000636704 0 -9.0625e-05)
(-0.00059216 0 -3.19579e-05)
(-0.000560124 0 -8.047e-06)
(-0.000544236 0 6.11545e-07)
(-0.000540424 0 2.40369e-05)
(-0.000549357 0 0.00010137)
(-0.000589049 0 0.000152809)
(-0.000668026 0 0.000198246)
(-0.000763823 0 0.000156429)
(-0.000851581 0 7.00892e-05)
(-0.000933511 0 6.76507e-05)
(-0.00101518 0 0.000113411)
(-0.00108775 0 0.000101838)
(-0.00113946 0 7.76752e-05)
(-0.00117095 0 5.44541e-05)
(-0.00118676 0 2.63596e-05)
(-0.00119447 0 2.27993e-05)
(-0.00118443 0 -4.55734e-05)
(-0.00111924 0 -9.95418e-05)
(-0.00108395 0 -8.17323e-05)
(-0.0010704 0 -0.000139493)
(-0.0010484 0 -0.000221852)
(-0.000963159 0 -0.000253803)
(-0.000877437 0 -0.000176877)
(-0.000820225 0 -8.61599e-05)
(-0.000759204 0 -4.19278e-05)
(-0.000662836 0 -1.63116e-05)
(-0.000554673 0 -1.82128e-05)
(-0.000477318 0 3.6903e-06)
(-0.000442781 0 -1.22345e-06)
(-0.000379332 0 -0.000213501)
(-0.000322074 0 0.000264866)
(-0.000258363 0 -0.000106031)
(-0.000244216 0 -7.5645e-05)
(-0.000248962 0 -0.000126716)
(-0.000258614 0 -0.000120415)
(-0.00023185 0 -0.000117421)
(-0.000213168 0 -9.48466e-05)
(-0.000219711 0 -7.11927e-05)
(-0.000183555 0 -6.72616e-05)
(-0.000133815 0 -6.16802e-05)
(-9.47253e-05 0 -4.58652e-05)
(-0.000104462 0 8.5288e-06)
(-0.000128063 0 -2.5294e-05)
(-0.000552849 0 -0.000289299)
(2.7293e-06 0 -0.000854646)
(-8.53221e-13 0 -6.76304e-13)
(-1.35934e-12 0 -1.12016e-13)
(-2.988e-13 0 -8.63736e-14)
(-1.61003e-13 0 -1.06219e-13)
(-7.27651e-14 0 -1.26351e-13)
(-6.36376e-16 0 -1.39946e-13)
(6.67614e-14 0 -1.47456e-13)
(1.32576e-13 0 -1.50098e-13)
(1.97105e-13 0 -1.48812e-13)
(2.59702e-13 0 -1.44251e-13)
(3.19465e-13 0 -1.36904e-13)
(3.7548e-13 0 -1.27195e-13)
(4.26925e-13 0 -1.15529e-13)
(4.7311e-13 0 -1.02311e-13)
(5.13506e-13 0 -8.79387e-14)
(5.47748e-13 0 -7.27977e-14)
(5.75634e-13 0 -5.72488e-14)
(5.97108e-13 0 -4.16205e-14)
(6.12234e-13 0 -2.62022e-14)
(6.21172e-13 0 -1.1238e-14)
(6.24154e-13 0 3.07574e-15)
(6.2148e-13 0 1.65909e-14)
(6.13507e-13 0 2.92038e-14)
(6.00639e-13 0 4.08497e-14)
(5.83307e-13 0 5.14971e-14)
(5.61946e-13 0 6.11411e-14)
(5.36977e-13 0 6.97981e-14)
(5.08788e-13 0 7.75013e-14)
(4.77729e-13 0 8.42955e-14)
(4.44116e-13 0 9.02347e-14)
(4.08235e-13 0 9.53781e-14)
(3.70351e-13 0 9.97871e-14)
(3.30713e-13 0 1.03523e-13)
(2.89561e-13 0 1.06647e-13)
(2.47125e-13 0 1.09213e-13)
(2.03629e-13 0 1.11271e-13)
(1.59286e-13 0 1.12865e-13)
(1.14301e-13 0 1.14032e-13)
(6.88734e-14 0 1.14799e-13)
(2.3037e-14 0 1.1518e-13)
(-5.79935e-05 0 0.000222152)
(-8.99041e-05 0 0.00021754)
(-0.000122192 0 0.000198905)
(-0.000193161 0 0.000140117)
(-0.000200686 0 0.000138584)
(-0.000229725 0 0.000103791)
(-0.000254795 0 7.65574e-05)
(-0.000285961 0 5.26912e-05)
(-0.000305769 0 6.86276e-05)
(-0.000320629 0 7.40001e-05)
(-0.000321173 0 9.31435e-05)
(-0.000289934 0 0.00020488)
(-0.000340771 0 0.000235853)
(-0.000415397 0 0.000224106)
(-0.000448685 0 0.000215873)
(-0.000469108 0 0.000203172)
(-0.000495807 0 0.000219173)
(-0.000623612 0 3.42703e-05)
(-0.000665186 0 0.000109616)
(-0.000711274 0 0.000143262)
(-0.000735706 0 0.000173799)
(-0.000786693 0 0.000101325)
(-0.000833987 0 6.41029e-05)
(-0.000863301 0 7.14468e-05)
(-0.000889639 0 2.89711e-05)
(-0.0009121 0 -6.44678e-06)
(-0.00092073 0 -3.47764e-05)
(-0.000900294 0 -0.00010855)
(-0.000892303 0 -0.00011489)
(-0.000899959 0 -0.000126444)
(-0.000883471 0 -0.000166184)
(-0.000818535 0 -0.000198855)
(-0.000780482 0 -0.000166308)
(-0.000746577 0 -0.000143887)
(-0.00070884 0 -0.000118855)
(-0.000673271 0 -6.1373e-05)
(-0.000633445 0 -1.78816e-05)
(-0.000606573 0 2.84847e-05)
(-0.000600565 0 6.23594e-05)
(-0.000597578 0 0.000150382)
(-0.000595488 0 0.000239613)
(-0.000632394 0 0.000302791)
(-0.000779698 0 0.000179993)
(-0.000874207 0 0.000200073)
(-0.00101032 0 0.000199815)
(-0.00112009 0 0.000208564)
(-0.00118125 0 0.000162271)
(-0.00121289 0 0.000131628)
(-0.00122991 0 9.12839e-05)
(-0.00123258 0 4.00494e-05)
(-0.00123322 0 -9.35536e-06)
(-0.00121251 0 -2.34885e-05)
(-0.00112404 0 -0.000146054)
(-0.00107925 0 -0.000118473)
(-0.00106194 0 -0.000150022)
(-0.00106499 0 -0.000160291)
(-0.00102814 0 -0.000174897)
(-0.000922525 0 -0.00017262)
(-0.000871102 0 -1.19584e-05)
(-0.000797592 0 -4.85658e-06)
(-0.000720702 0 -0.000144397)
(-0.000637733 0 -0.000234003)
(-0.000583517 0 -0.000134592)
(-0.000532414 0 8.98962e-05)
(-0.0004433 0 -0.000124401)
(-0.000333817 0 3.51466e-06)
(-0.000263851 0 -0.000111943)
(-0.000243549 0 -7.6794e-05)
(-0.000207111 0 -0.000106403)
(-0.000174059 0 -2.52008e-05)
(-0.000187948 0 -0.000123922)
(-0.000114588 0 -7.51557e-05)
(-0.000113605 0 -8.16218e-05)
(-6.96582e-05 0 -9.75085e-05)
(-4.24114e-05 0 -8.55352e-05)
(2.12984e-06 0 -9.30893e-05)
(-1.49368e-05 0 -7.38117e-05)
(0.000219416 0 -2.96667e-05)
(-0.00044634 0 -0.000151192)
(4.86342e-06 0 -0.000971751)
(-1.63181e-12 0 -1.02746e-12)
(-1.0904e-12 0 -3.08239e-13)
(-2.29609e-13 0 -2.08735e-13)
(-1.56125e-13 0 -1.93496e-13)
(-8.15227e-14 0 -2.00139e-13)
(-8.78004e-15 0 -2.09107e-13)
(6.25189e-14 0 -2.14902e-13)
(1.32579e-13 0 -2.16276e-13)
(2.01026e-13 0 -2.13207e-13)
(2.67102e-13 0 -2.05998e-13)
(3.29894e-13 0 -1.95065e-13)
(3.88479e-13 0 -1.80882e-13)
(4.42021e-13 0 -1.63972e-13)
(4.89827e-13 0 -1.4489e-13)
(5.31372e-13 0 -1.24202e-13)
(5.66311e-13 0 -1.02463e-13)
(5.94475e-13 0 -8.0196e-14)
(6.15852e-13 0 -5.7877e-14)
(6.30559e-13 0 -3.59215e-14)
(6.38812e-13 0 -1.46752e-14)
(6.40906e-13 0 5.58993e-15)
(6.37195e-13 0 2.46723e-14)
(6.28087e-13 0 4.24345e-14)
(6.14027e-13 0 5.87935e-14)
(5.95481e-13 0 7.37116e-14)
(5.72916e-13 0 8.71882e-14)
(5.46774e-13 0 9.92528e-14)
(5.1746e-13 0 1.09958e-13)
(4.85337e-13 0 1.19374e-13)
(4.50731e-13 0 1.27582e-13)
(4.13931e-13 0 1.34673e-13)
(3.75204e-13 0 1.40738e-13)
(3.34797e-13 0 1.45867e-13)
(2.92946e-13 0 1.50147e-13)
(2.49876e-13 0 1.53658e-13)
(2.05801e-13 0 1.56471e-13)
(1.60926e-13 0 1.58647e-13)
(1.15447e-13 0 1.60236e-13)
(6.95513e-14 0 1.61276e-13)
(2.32609e-14 0 1.6179e-13)
(-4.69866e-05 0 0.000290369)
(-0.00010818 0 0.000263858)
(-0.000109078 0 0.000232429)
(-0.000152582 0 0.000184477)
(-0.000172461 0 0.000146596)
(-0.00018511 0 0.00011618)
(-0.000186451 0 0.000111011)
(-0.000209378 0 9.00923e-05)
(-0.000239917 0 8.13946e-05)
(-0.000257858 0 8.8906e-05)
(-0.000258039 0 0.00010995)
(-0.000235993 0 0.000150551)
(-0.00018655 0 0.000287451)
(-0.000224328 0 0.000314782)
(-0.000348772 0 0.000265288)
(-0.0004051 0 0.000232606)
(-0.000461113 0 0.000179336)
(-0.000523083 0 0.000136631)
(-0.000569389 0 0.000128951)
(-0.000619541 0 9.94294e-05)
(-0.000658311 0 0.000130066)
(-0.000705211 0 0.000120913)
(-0.000726777 0 0.000143404)
(-0.000745109 0 0.000108887)
(-0.000775518 0 4.84516e-05)
(-0.000795686 0 6.13241e-06)
(-0.000802409 0 -1.86186e-07)
(-0.000793255 0 -0.00013644)
(-0.000792356 0 -0.000224221)
(-0.000804483 0 -0.000214402)
(-0.000803508 0 -0.000212903)
(-0.000795887 0 -0.000206165)
(-0.000796294 0 -0.000166121)
(-0.000757837 0 -0.000183766)
(-0.000739847 0 -0.000158722)
(-0.000735502 0 -8.89971e-05)
(-0.00071585 0 -4.22974e-05)
(-0.000696551 0 -3.51095e-05)
(-0.000695404 0 1.63956e-05)
(-0.000698417 0 0.000170501)
(-0.000711431 0 0.00017578)
(-0.000693552 0 0.000323252)
(-0.000783704 0 0.00032603)
(-0.000931828 0 0.000271747)
(-0.00105844 0 0.000228324)
(-0.00110498 0 0.000273682)
(-0.00115809 0 0.000168599)
(-0.00118517 0 0.000125471)
(-0.00119309 0 9.98941e-05)
(-0.00116466 0 1.24904e-05)
(-0.00115488 0 -3.17366e-05)
(-0.00115477 0 -8.91617e-05)
(-0.00103122 0 -0.000213584)
(-0.000961058 0 -0.000169553)
(-0.000922187 0 -0.000190527)
(-0.000907659 0 -0.000224648)
(-0.000885549 0 -0.000288857)
(-0.000738292 0 -0.000479339)
(-0.000781877 0 -0.000203051)
(-0.00074237 0 -0.000172349)
(-0.000727991 0 -0.000198838)
(-0.000740025 0 -0.000111559)
(-0.000661177 0 -0.000180378)
(-0.000586193 0 -0.000207153)
(-0.000547748 0 -0.000128744)
(-0.000501706 0 -0.000128709)
(-0.000474495 0 -0.000163263)
(-0.000460477 0 -0.000148357)
(-0.000441063 0 -0.000140613)
(-0.000418726 0 -0.000168136)
(-0.000366539 0 -0.000230967)
(-0.000302642 0 -9.22559e-05)
(-0.000238325 0 -0.000112299)
(-0.000154894 0 -0.00012155)
(-7.76253e-05 0 -0.000100892)
(-5.00217e-06 0 -0.000112213)
(-4.19293e-05 0 -8.73682e-05)
(0.000234006 0 -1.50352e-05)
(-0.000590592 0 -0.000103032)
(6.11758e-06 0 -0.0010127)
(-2.05578e-12 0 -6.37097e-13)
(-9.36536e-13 0 -2.39625e-13)
(-1.83851e-13 0 -2.47098e-13)
(-1.52263e-13 0 -2.59043e-13)
(-8.83381e-14 0 -2.71763e-13)
(-1.53993e-14 0 -2.8164e-13)
(5.95926e-14 0 -2.86967e-13)
(1.34271e-13 0 -2.87101e-13)
(2.07383e-13 0 -2.81942e-13)
(2.77844e-13 0 -2.71674e-13)
(3.44582e-13 0 -2.56681e-13)
(4.06573e-13 0 -2.37499e-13)
(4.62916e-13 0 -2.14782e-13)
(5.1288e-13 0 -1.89255e-13)
(5.55933e-13 0 -1.61676e-13)
(5.91754e-13 0 -1.32792e-13)
(6.2022e-13 0 -1.03308e-13)
(6.41382e-13 0 -7.386e-14)
(6.55436e-13 0 -4.49967e-14)
(6.62683e-13 0 -1.71688e-14)
(6.63501e-13 0 9.275e-15)
(6.58325e-13 0 3.40834e-14)
(6.47629e-13 0 5.70911e-14)
(6.31916e-13 0 7.82052e-14)
(6.11701e-13 0 9.7392e-14)
(5.87487e-13 0 1.14665e-13)
(5.59747e-13 0 1.30076e-13)
(5.28909e-13 0 1.43706e-13)
(4.95354e-13 0 1.55655e-13)
(4.59416e-13 0 1.6604e-13)
(4.2139e-13 0 1.74984e-13)
(3.81544e-13 0 1.82613e-13)
(3.40122e-13 0 1.89049e-13)
(2.97352e-13 0 1.94408e-13)
(2.53449e-13 0 1.98794e-13)
(2.08618e-13 0 2.02302e-13)
(1.63051e-13 0 2.05011e-13)
(1.1693e-13 0 2.06986e-13)
(7.04266e-14 0 2.08276e-13)
(2.35503e-14 0 2.08913e-13)
(-1.37753e-05 0 0.000347056)
(-1.03394e-05 0 0.000318633)
(-7.09985e-05 0 0.000262021)
(-5.63128e-05 0 0.000219531)
(-7.57009e-05 0 0.000184971)
(-8.23169e-05 0 0.000149909)
(-0.000128756 0 0.00011913)
(-0.000144756 0 0.00011488)
(-0.000160401 0 0.000103386)
(-0.000185851 0 0.000113721)
(-0.000201832 0 0.000123237)
(-0.000193285 0 0.000154596)
(-0.000166323 0 0.000232335)
(-0.000114637 0 0.000328405)
(-0.000101482 0 0.000366314)
(-0.00014685 0 0.000344727)
(-0.000190422 0 0.000311802)
(-0.000416891 0 0.000210967)
(-0.000488488 0 0.000212364)
(-0.000496466 0 0.000240194)
(-0.000524766 0 0.000226306)
(-0.000558883 0 0.000220183)
(-0.000597533 0 0.000168768)
(-0.000638565 0 7.06109e-05)
(-0.000659148 0 5.37381e-05)
(-0.000664697 0 2.39592e-05)
(-0.00065618 0 -2.81873e-05)
(-0.000659586 0 -7.72146e-05)
(-0.000697249 0 -0.000137123)
(-0.000712535 0 -0.000134176)
(-0.000704676 0 -0.000171083)
(-0.000709378 0 -0.000238288)
(-0.000740855 0 -0.000201403)
(-0.000749217 0 -0.000182393)
(-0.000756488 0 -0.00014986)
(-0.000768522 0 -8.97019e-05)
(-0.000769639 0 -5.70631e-05)
(-0.000768557 0 -1.221e-05)
(-0.000766452 0 8.77291e-05)
(-0.000810004 0 0.000246368)
(-0.000865886 0 0.000206942)
(-0.000828987 0 0.000366767)
(-0.000784814 0 0.000498254)
(-0.000929816 0 0.00041103)
(-0.00101182 0 0.000369068)
(-0.00104497 0 0.000332758)
(-0.0010541 0 0.000244247)
(-0.00105871 0 0.000195501)
(-0.00107472 0 0.00011144)
(-0.00103686 0 -0.000102764)
(-0.00101063 0 -5.13842e-05)
(-0.00102249 0 6.10234e-06)
(-0.000857098 0 -0.000541535)
(-0.00085386 0 -0.000163375)
(-0.000769985 0 -0.000222484)
(-0.000750972 0 -0.000244536)
(-0.000731186 0 -0.000287878)
(-0.000708288 0 -0.000223767)
(-0.000666138 0 -0.000158284)
(-0.000637086 0 -0.000153679)
(-0.000614004 0 -0.000204935)
(-0.000605344 0 -0.000226279)
(-0.000608153 0 -0.000218512)
(-0.000615321 0 -0.000149185)
(-0.000563358 0 -0.000165912)
(-0.000548022 0 -0.000160771)
(-0.000550118 0 -0.000143192)
(-0.000548523 0 -0.000112707)
(-0.000529754 0 -0.000137372)
(-0.000507852 0 -0.000186103)
(-0.000435017 0 -0.000306555)
(-0.000487421 0 -0.000158694)
(-0.000400831 0 -0.000264385)
(-0.000315379 0 -0.000256682)
(-0.000225722 0 -0.00019509)
(-0.000116057 0 -0.000173869)
(-0.000100462 0 -0.0001071)
(0.000227008 0 4.70926e-05)
(-0.00054611 0 -0.000142874)
(5.83449e-06 0 -0.000963295)
(-1.95451e-12 0 -4.32085e-13)
(-1.16364e-12 0 -1.86327e-13)
(-2.48817e-13 0 -2.81176e-13)
(-1.80641e-13 0 -3.23961e-13)
(-1.04075e-13 0 -3.46399e-13)
(-2.39837e-14 0 -3.58927e-13)
(5.70573e-14 0 -3.64423e-13)
(1.37604e-13 0 -3.63423e-13)
(2.16454e-13 0 -3.55991e-13)
(2.92364e-13 0 -3.42283e-13)
(3.64068e-13 0 -3.22697e-13)
(4.30377e-13 0 -2.97866e-13)
(4.90265e-13 0 -2.68609e-13)
(5.42933e-13 0 -2.3587e-13)
(5.87835e-13 0 -2.00637e-13)
(6.24679e-13 0 -1.63886e-13)
(6.53407e-13 0 -1.26529e-13)
(6.74164e-13 0 -8.93782e-14)
(6.8725e-13 0 -5.31264e-14)
(6.93084e-13 0 -1.83335e-14)
(6.92158e-13 0 1.45762e-14)
(6.85011e-13 0 4.53063e-14)
(6.72209e-13 0 7.3673e-14)
(6.54328e-13 0 9.95854e-14)
(6.31942e-13 0 1.23027e-13)
(6.05601e-13 0 1.4404e-13)
(5.75814e-13 0 1.62708e-13)
(5.43038e-13 0 1.79152e-13)
(5.07672e-13 0 1.93512e-13)
(4.70061e-13 0 2.05946e-13)
(4.30505e-13 0 2.16616e-13)
(3.89269e-13 0 2.25685e-13)
(3.46591e-13 0 2.33312e-13)
(3.02691e-13 0 2.39642e-13)
(2.5777e-13 0 2.4481e-13)
(2.12018e-13 0 2.48933e-13)
(1.65611e-13 0 2.52111e-13)
(1.18713e-13 0 2.54423e-13)
(7.14784e-14 0 2.55931e-13)
(2.3898e-14 0 2.56676e-13)
(-5.22843e-06 0 0.000343369)
(2.753e-05 0 0.000320336)
(2.53694e-05 0 0.000273811)
(4.47858e-06 0 0.000226718)
(-2.25389e-06 0 0.000195705)
(-2.55076e-05 0 0.000166572)
(-3.51539e-05 0 0.000148582)
(-5.25897e-05 0 0.000128147)
(-7.6543e-05 0 0.0001177)
(-8.12104e-05 0 0.000115042)
(-0.000113396 0 0.000131272)
(-0.00010781 0 0.000174302)
(-9.80286e-05 0 0.000201635)
(-7.32395e-05 0 0.000260162)
(-4.85636e-05 0 0.000347707)
(-3.55788e-05 0 0.000386749)
(-0.000105113 0 0.000370618)
(-0.000130772 0 0.0003647)
(-0.000271542 0 0.00031562)
(-0.000445844 0 0.000226781)
(-0.000479663 0 0.0001959)
(-0.000483743 0 0.00019355)
(-0.000467019 0 0.000194416)
(-0.000466241 0 0.000173854)
(-0.000499928 0 7.99405e-05)
(-0.000527569 0 1.4171e-05)
(-0.000540634 0 -4.59317e-05)
(-0.000549432 0 -0.000126875)
(-0.000545988 0 -0.00015718)
(-0.000573492 0 -9.28997e-05)
(-0.000602079 0 -0.00017794)
(-0.000661547 0 -0.00015994)
(-0.000705646 0 -0.000124511)
(-0.000734192 0 -0.000145783)
(-0.00076518 0 -0.000134401)
(-0.000792498 0 -6.54139e-05)
(-0.000800806 0 -4.88187e-05)
(-0.000795304 0 5.2474e-06)
(-0.000778943 0 4.20917e-05)
(-0.000802066 0 0.000206919)
(-0.000869713 0 0.000298496)
(-0.000881222 0 0.000392386)
(-0.000846411 0 0.000498879)
(-0.000883997 0 0.000475513)
(-0.000925294 0 0.000443317)
(-0.00095113 0 0.000370162)
(-0.000982392 0 0.000116679)
(-0.000935067 0 0.000101516)
(-0.000897126 0 0.000120959)
(-0.00086664 0 -1.04066e-06)
(-0.000818111 0 -0.000128697)
(-0.000790989 0 -0.000162837)
(-0.00079824 0 -0.000172159)
(-0.000674995 0 -0.000405514)
(-0.000635449 0 -0.000312031)
(-0.000623153 0 -0.000280844)
(-0.000602329 0 -0.000328089)
(-0.000540622 0 -0.000349083)
(-0.000515156 0 -0.000257072)
(-0.00050847 0 -0.000163905)
(-0.000463332 0 -0.000203738)
(-0.00046089 0 -0.000190812)
(-0.000464469 0 -0.000184912)
(-0.000471468 0 -0.000188388)
(-0.000488371 0 -0.000167922)
(-0.000504054 0 -0.000157515)
(-0.000520891 0 -0.000144551)
(-0.000516523 0 -0.000135393)
(-0.000500305 0 -0.000176099)
(-0.000489159 0 -0.000222182)
(-0.000492963 0 -0.000227144)
(-0.00049047 0 -0.000232569)
(-0.000440551 0 -0.000301095)
(-0.000348881 0 -0.000358508)
(-0.000297055 0 -0.000298669)
(-0.000118983 0 -0.000307545)
(-0.0001351 0 -0.000167624)
(0.000263559 0 -0.000121654)
(-0.000272442 0 -0.000146104)
(5.30938e-06 0 -0.0008863)
(-1.71998e-12 0 -4.53976e-13)
(-1.30198e-12 0 -2.63787e-13)
(-3.21273e-13 0 -3.67486e-13)
(-2.17329e-13 0 -4.09352e-13)
(-1.23252e-13 0 -4.31081e-13)
(-3.34236e-14 0 -4.43432e-13)
(5.50958e-14 0 -4.48558e-13)
(1.42704e-13 0 -4.46361e-13)
(2.28523e-13 0 -4.36502e-13)
(3.11138e-13 0 -4.18964e-13)
(3.88999e-13 0 -3.94156e-13)
(4.60661e-13 0 -3.62859e-13)
(5.24912e-13 0 -3.26129e-13)
(5.80852e-13 0 -2.85188e-13)
(6.27916e-13 0 -2.41322e-13)
(6.65862e-13 0 -1.95784e-13)
(6.94728e-13 0 -1.49726e-13)
(7.14785e-13 0 -1.0416e-13)
(7.26481e-13 0 -5.99309e-14)
(7.30386e-13 0 -1.77115e-14)
(7.27141e-13 0 2.2002e-14)
(7.17421e-13 0 5.88768e-14)
(7.01908e-13 0 9.27231e-14)
(6.81271e-13 0 1.23468e-13)
(6.56156e-13 0 1.51129e-13)
(6.27168e-13 0 1.75793e-13)
(5.94859e-13 0 1.97593e-13)
(5.59713e-13 0 2.16701e-13)
(5.22148e-13 0 2.3331e-13)
(4.82519e-13 0 2.47624e-13)
(4.4113e-13 0 2.59854e-13)
(3.98241e-13 0 2.70206e-13)
(3.54079e-13 0 2.78875e-13)
(3.0885e-13 0 2.86044e-13)
(2.6274e-13 0 2.91877e-13)
(2.15919e-13 0 2.96515e-13)
(1.68541e-13 0 3.0008e-13)
(1.2075e-13 0 3.02668e-13)
(7.26793e-14 0 3.04354e-13)
(2.42948e-14 0 3.05185e-13)
(1.28874e-06 0 0.000320435)
(3.71881e-05 0 0.000308677)
(4.06431e-05 0 0.000271726)
(3.57695e-05 0 0.00023203)
(2.03678e-05 0 0.000202227)
(1.32263e-05 0 0.000178147)
(-6.28883e-07 0 0.000158705)
(-9.64956e-06 0 0.000138489)
(5.91202e-06 0 0.0001225)
(-1.54016e-06 0 0.000130517)
(5.85566e-06 0 0.000127386)
(5.26826e-06 0 0.000156728)
(3.49182e-05 0 0.000195624)
(3.9083e-05 0 0.000232063)
(6.83778e-05 0 0.000285653)
(5.63359e-05 0 0.000391564)
(4.72625e-05 0 0.000426725)
(-2.41626e-05 0 0.000413996)
(-7.89459e-05 0 0.000408107)
(-8.79868e-05 0 0.000386202)
(-0.000160829 0 0.000307281)
(-0.000281469 0 0.000236745)
(-0.000334339 0 0.000180118)
(-0.000365591 0 0.000126395)
(-0.000374035 0 0.000104276)
(-0.000392765 0 5.58903e-05)
(-0.000417121 0 4.91291e-06)
(-0.000425383 0 -2.13485e-05)
(-0.00040812 0 -0.000129264)
(-0.000464824 0 -8.54345e-05)
(-0.000539029 0 -0.000102081)
(-0.000591655 0 -6.94816e-05)
(-0.000615009 0 -0.000115199)
(-0.000653226 0 -9.56439e-05)
(-0.000686201 0 -5.90589e-05)
(-0.000720535 0 -4.48467e-05)
(-0.000759942 0 -3.16425e-05)
(-0.000781357 0 -1.41042e-06)
(-0.000790574 0 5.81898e-05)
(-0.000787192 0 0.000272399)
(-0.000838854 0 0.000294352)
(-0.000848639 0 0.000379649)
(-0.000821657 0 0.0004658)
(-0.000825614 0 0.000463085)
(-0.000853988 0 0.000408443)
(-0.000875689 0 0.000266699)
(-0.000854934 0 0.000187198)
(-0.000815067 0 9.93774e-05)
(-0.000752944 0 -3.31228e-05)
(-0.000687657 0 -0.0001302)
(-0.000643849 0 -0.000165568)
(-0.000612505 0 -0.000224577)
(-0.00057621 0 -0.000317904)
(-0.000519557 0 -0.000375391)
(-0.000532181 0 -0.000294629)
(-0.000450495 0 -0.000370338)
(-0.000475652 0 -0.000324868)
(-0.000439838 0 -0.000328936)
(-0.000442779 0 -0.000237826)
(-0.000398736 0 -0.000216891)
(-0.000347707 0 -0.000228691)
(-0.000331644 0 -0.000200879)
(-0.000311428 0 -0.000184255)
(-0.000310288 0 -0.000159999)
(-0.000314492 0 -0.000140657)
(-0.000307018 0 -0.000167363)
(-0.000367463 0 -0.000117301)
(-0.000382684 0 -0.00013633)
(-0.000371767 0 -0.000198647)
(-0.000380243 0 -0.000231639)
(-0.000415816 0 -0.00023184)
(-0.000410462 0 -0.000281867)
(-0.00038929 0 -0.000330319)
(-0.000349428 0 -0.000385045)
(-0.000274432 0 -0.000403198)
(-0.000194049 0 -0.000430636)
(-0.0002399 0 -0.000421422)
(0.000353604 0 -0.000181561)
(-0.000384703 0 -0.000114229)
(4.77596e-06 0 -0.000847245)
(-1.6531e-12 0 -1.27325e-12)
(-1.63342e-12 0 -5.57684e-13)
(-3.94174e-13 0 -5.15776e-13)
(-2.44075e-13 0 -5.14974e-13)
(-1.38096e-13 0 -5.25222e-13)
(-4.14607e-14 0 -5.35305e-13)
(5.41277e-14 0 -5.40158e-13)
(1.4966e-13 0 -5.37101e-13)
(2.43851e-13 0 -5.24833e-13)
(3.34709e-13 0 -5.03061e-13)
(4.20173e-13 0 -4.72256e-13)
(4.98405e-13 0 -4.33448e-13)
(5.67936e-13 0 -3.88038e-13)
(6.27739e-13 0 -3.37632e-13)
(6.77239e-13 0 -2.83893e-13)
(7.16275e-13 0 -2.28416e-13)
(7.45032e-13 0 -1.7264e-13)
(7.63959e-13 0 -1.17799e-13)
(7.73698e-13 0 -6.49006e-14)
(7.75017e-13 0 -1.47265e-14)
(7.68747e-13 0 3.21646e-14)
(7.55732e-13 0 7.54179e-14)
(7.368e-13 0 1.14856e-13)
(7.12734e-13 0 1.50443e-13)
(6.84266e-13 0 1.82253e-13)
(6.52065e-13 0 2.10437e-13)
(6.16723e-13 0 2.35197e-13)
(5.78755e-13 0 2.56771e-13)
(5.38594e-13 0 2.75416e-13)
(4.96605e-13 0 2.91397e-13)
(4.53086e-13 0 3.04979e-13)
(4.0829e-13 0 3.16415e-13)
(3.6243e-13 0 3.25945e-13)
(3.15692e-13 0 3.33789e-13)
(2.6824e-13 0 3.40142e-13)
(2.20221e-13 0 3.45175e-13)
(1.71764e-13 0 3.4903e-13)
(1.22987e-13 0 3.51821e-13)
(7.39952e-14 0 3.53634e-13)
(2.47293e-14 0 3.54528e-13)
(-1.17508e-05 0 0.00028847)
(5.62399e-05 0 0.000283893)
(5.1047e-05 0 0.000265734)
(6.71347e-05 0 0.000237094)
(6.11324e-05 0 0.00021482)
(6.43728e-05 0 0.000189201)
(4.53446e-05 0 0.000173239)
(2.79627e-05 0 0.000151202)
(3.81841e-05 0 0.000118271)
(3.94079e-05 0 0.00012423)
(4.44028e-05 0 0.000125945)
(5.99778e-05 0 0.000140066)
(7.90732e-05 0 0.000181033)
(7.65543e-05 0 0.000234521)
(9.22397e-05 0 0.000288453)
(0.000125044 0 0.00036059)
(0.000173114 0 0.000431317)
(0.000123976 0 0.000470814)
(7.79362e-05 0 0.000447846)
(4.28532e-05 0 0.000421057)
(8.83784e-06 0 0.000357566)
(1.77138e-05 0 0.000314254)
(-1.17771e-05 0 0.000272625)
(-8.74743e-05 0 0.000236423)
(-0.000226429 0 0.000145853)
(-0.000293911 0 5.95317e-05)
(-0.000285007 0 1.64071e-05)
(-0.000280812 0 -2.85509e-05)
(-0.000315998 0 -8.72894e-05)
(-0.000398333 0 -6.94004e-05)
(-0.000458332 0 -4.99161e-05)
(-0.000504275 0 -9.70261e-05)
(-0.000543358 0 -0.00010361)
(-0.000567596 0 -0.00010236)
(-0.000579732 0 -8.98654e-05)
(-0.000597994 0 -3.63368e-05)
(-0.000629814 0 -5.32596e-06)
(-0.000687311 0 2.99121e-05)
(-0.00073639 0 0.000145272)
(-0.00075473 0 0.000229914)
(-0.000761367 0 0.00030515)
(-0.000754864 0 0.000362628)
(-0.000732162 0 0.00041473)
(-0.000697327 0 0.000470912)
(-0.000655381 0 0.000506806)
(-0.000668135 0 0.000323236)
(-0.000615013 0 0.000202142)
(-0.000574326 0 8.04733e-05)
(-0.000540039 0 2.62917e-05)
(-0.000514943 0 -9.01307e-05)
(-0.000475394 0 -0.000176314)
(-0.00044056 0 -0.000250852)
(-0.000380928 0 -0.00036405)
(-0.000380891 0 -0.000370135)
(-0.00035859 0 -0.000364041)