0 	-2.72821e-14 	0 	1.948e-15
0.010101 	-4.04349e-12 	0 	2.15884e-13
0.020202 	-8.26283e-11 	0 	4.34164e-12
0.030303 	-2.71381e-10 	0 	-1.00505e-10
0.040404 	3.11956e-10 	0 	3.93644e-12
