/*--------------------------------*- C++ -*----------------------------------*\
  =========                 |
  \\      /  F ield         | OpenFOAM: The Open Source CFD Toolbox
   \\    /   O peration     | Website:  https://openfoam.org
    \\  /    A nd           | Version:  6
     \\/     M anipulation  |
\*---------------------------------------------------------------------------*/
FoamFile
{
    version     2.0;
    format      ascii;
    class       volScalarField;
    location    "150";
    object      T;
}
// * * * * * * * * * * * * * * * * * * * * * * * * * * * * * * * * * * * * * //

dimensions      [0 0 0 1 0 0 0];

internalField   nonuniform List<scalar> 
4800
(
552.504
552.411
552.318
552.224
552.129
552.034
551.937
551.839
551.74
551.64
551.539
551.437
551.335
551.235
551.136
551.041
550.949
550.862
550.779
550.7
550.624
550.552
550.482
550.415
550.349
550.285
550.221
550.157
550.094
550.029
549.964
549.898
549.83
549.761
549.691
549.619
549.546
549.472
549.396
549.318
549.24
549.16
549.078
548.996
548.913
548.829
548.744
548.659
548.573
548.485
548.397
548.307
548.216
548.122
548.027
547.929
547.83
547.729
547.627
547.523
547.418
547.311
547.202
547.092
546.981
546.868
546.755
546.64
546.525
546.408
546.292
546.174
546.056
545.937
545.818
545.697
545.577
545.456
545.335
545.215
545.094
544.973
544.852
544.73
544.609
544.488
544.367
544.247
544.128
544.008
543.889
543.771
543.653
543.536
543.418
543.302
543.186
543.07
542.955
542.84
542.726
542.612
542.498
542.385
542.272
542.159
542.047
541.935
541.823
541.711
541.6
541.489
541.378
541.267
541.157
541.046
540.936
540.826
540.715
540.605
552.504
552.411
552.319
552.225
552.131
552.036
551.94
551.842
551.744
551.644
551.544
551.442
551.341
551.242
551.144
551.049
550.959
550.872
550.789
550.71
550.635
550.563
550.493
550.425
550.36
550.295
550.231
550.167
550.103
550.038
549.972
549.905
549.837
549.768
549.698
549.626
549.553
549.478
549.402
549.324
549.246
549.165
549.084
549.001
548.918
548.834
548.749
548.664
548.577
548.49
548.402
548.312
548.221
548.128
548.033
547.936
547.837
547.737
547.635
547.531
547.425
547.318
547.209
547.099
546.987
546.875
546.761
546.646
546.53
546.414
546.297
546.179
546.061
545.942
545.823
545.703
545.582
545.461
545.339
545.217
545.095
544.973
544.851
544.73
544.609
544.488
544.367
544.247
544.127
544.008
543.889
543.771
543.653
543.535
543.418
543.302
543.185
543.07
542.955
542.84
542.725
542.611
542.498
542.384
542.271
542.159
542.046
541.934
541.823
541.711
541.6
541.489
541.378
541.267
541.157
541.046
540.936
540.825
540.715
540.605
552.504
552.412
552.32
552.227
552.134
552.04
551.945
551.848
551.751
551.652
551.553
551.453
551.354
551.256
551.16
551.066
550.976
550.89
550.808
550.73
550.655
550.583
550.513
550.446
550.38
550.315
550.25
550.185
550.121
550.055
549.988
549.92
549.851
549.782
549.711
549.638
549.564
549.489
549.412
549.334
549.255
549.174
549.092
549.009
548.926
548.841
548.756
548.671
548.584
548.497
548.409
548.32
548.23
548.137
548.043
547.948
547.849
547.749
547.647
547.542
547.436
547.328
547.218
547.108
546.996
546.883
546.768
546.653
546.537
546.421
546.303
546.185
546.066
545.947
545.827
545.707
545.586
545.464
545.341
545.218
545.095
544.973
544.851
544.729
544.608
544.487
544.366
544.246
544.126
544.007
543.888
543.77
543.652
543.534
543.417
543.301
543.185
543.069
542.954
542.839
542.725
542.611
542.497
542.384
542.271
542.159
542.046
541.934
541.822
541.711
541.6
541.489
541.378
541.267
541.157
541.046
540.936
540.825
540.715
540.605
552.505
552.414
552.323
552.231
552.139
552.045
551.951
551.857
551.761
551.664
551.567
551.469
551.372
551.276
551.181
551.09
551.001
550.917
550.836
550.758
550.683
550.612
550.542
550.475
550.408
550.342
550.277
550.212
550.145
550.078
550.01
549.941
549.872
549.801
549.729
549.655
549.58
549.504
549.426
549.347
549.267
549.185
549.103
549.019
548.935
548.85
548.765
548.679
548.593
548.506
548.418
548.329
548.24
548.148
548.055
547.959
547.861
547.761
547.658
547.554
547.447
547.338
547.228
547.117
547.004
546.891
546.776
546.66
546.544
546.427
546.309
546.19
546.07
545.95
545.829
545.707
545.585
545.463
545.34
545.217
545.094
544.972
544.85
544.728
544.607
544.486
544.365
544.245
544.125
544.006
543.887
543.769
543.651
543.533
543.417
543.3
543.184
543.068
542.953
542.839
542.724
542.61
542.497
542.384
542.271
542.158
542.046
541.934
541.822
541.711
541.599
541.488
541.378
541.267
541.156
541.046
540.936
540.825
540.715
540.605
552.505
552.416
552.326
552.235
552.144
552.053
551.96
551.867
551.773
551.679
551.584
551.489
551.394
551.3
551.209
551.119
551.033
550.95
550.87
550.793
550.719
550.648
550.578
550.51
550.443
550.377
550.311
550.244
550.176
550.107
550.038
549.968
549.897
549.825
549.751
549.676
549.6
549.522
549.443
549.362
549.281
549.198
549.115
549.031
548.946
548.861
548.775
548.688
548.602
548.515
548.428
548.339
548.25
548.159
548.066
547.97
547.872
547.772
547.669
547.563
547.456
547.347
547.237
547.125
547.012
546.897
546.782
546.666
546.549
546.431
546.312
546.193
546.073
545.951
545.829
545.706
545.582
545.459
545.337
545.215
545.093
544.971
544.848
544.727
544.605
544.484
544.363
544.243
544.123
544.004
543.885
543.767
543.649
543.532
543.415
543.299
543.183
543.067
542.952
542.838
542.723
542.61
542.496
542.383
542.27
542.158
542.045
541.933
541.822
541.71
541.599
541.488
541.377
541.267
541.156
541.046
540.936
540.825
540.715
540.605
552.506
552.418
552.329
552.24
552.151
552.061
551.971
551.879
551.788
551.696
551.603
551.511
551.419
551.329
551.24
551.153
551.069
550.987
550.909
550.833
550.76
550.689
550.619
550.551
550.483
550.416
550.348
550.28
550.211
550.141
550.07
549.998
549.925
549.851
549.776
549.699
549.621
549.542
549.461
549.379
549.297
549.213
549.129
549.044
548.958
548.872
548.786
548.699
548.612
548.525
548.438
548.35
548.26
548.169
548.076
547.98
547.882
547.781
547.677
547.572
547.464
547.354
547.243
547.131
547.017
546.902
546.786
546.67
546.552
546.433
546.314
546.194
546.074
545.952
545.83
545.707
545.584
545.461
545.337
545.214
545.092
544.969
544.847
544.724
544.603
544.482
544.361
544.241
544.121
544.002
543.883
543.765
543.648
543.53
543.414
543.297
543.181
543.066
542.951
542.837
542.722
542.609
542.495
542.382
542.269
542.157
542.045
541.933
541.821
541.71
541.599
541.488
541.377
541.266
541.156
541.046
540.935
540.825
540.715
540.605
552.507
552.42
552.333
552.246
552.159
552.071
551.982
551.893
551.804
551.714
551.625
551.535
551.447
551.359
551.273
551.189
551.108
551.028
550.951
550.876
550.803
550.733
550.663
550.595
550.526
550.458
550.389
550.32
550.249
550.177
550.104
550.031
549.956
549.88
549.802
549.724
549.644
549.563
549.481
549.399
549.315
549.231
549.146
549.059
548.973
548.885
548.798
548.71
548.623
548.536
548.448
548.36
548.271
548.179
548.085
547.989
547.89
547.788
547.684
547.578
547.469
547.359
547.248
547.135
547.021
546.905
546.789
546.672
546.553
546.434
546.315
546.194
546.073
545.952
545.83
545.708
545.585
545.462
545.338
545.214
545.09
544.967
544.844
544.722
544.6
544.479
544.358
544.238
544.119
544
543.881
543.763
543.645
543.528
543.412
543.295
543.18
543.064
542.95
542.835
542.721
542.607
542.494
542.381
542.268
542.156
542.044
541.932
541.821
541.709
541.598
541.487
541.377
541.266
541.156
541.045
540.935
540.825
540.715
540.605
552.508
552.423
552.338
552.252
552.167
552.081
551.994
551.908
551.821
551.734
551.647
551.561
551.475
551.391
551.308
551.226
551.147
551.069
550.994
550.92
550.848
550.778
550.708
550.639
550.57
550.501
550.431
550.36
550.287
550.214
550.14
550.064
549.987
549.909
549.83
549.749
549.668
549.586
549.504
549.42
549.336
549.25
549.164
549.077
548.989
548.9
548.812
548.723
548.635
548.547
548.459
548.37
548.28
548.188
548.093
547.996
547.897
547.794
547.689
547.582
547.473
547.362
547.25
547.137
547.022
546.907
546.79
546.673
546.554
546.434
546.314
546.193
546.071
545.949
545.827
545.705
545.583
545.461
545.337
545.212
545.087
544.964
544.841
544.719
544.597
544.476
544.355
544.235
544.115
543.996
543.878
543.76
543.643
543.526
543.409
543.293
543.178
543.063
542.948
542.834
542.72
542.606
542.493
542.38
542.267
542.155
542.043
541.932
541.82
541.709
541.598
541.487
541.376
541.266
541.156
541.045
540.935
540.825
540.715
540.605
552.508
552.425
552.342
552.259
552.175
552.091
552.007
551.923
551.838
551.754
551.67
551.586
551.503
551.421
551.341
551.262
551.185
551.109
551.036
550.963
550.892
550.822
550.753
550.683
550.613
550.543
550.472
550.399
550.325
550.25
550.174
550.097
550.018
549.938
549.858
549.776
549.694
549.612
549.528
549.443
549.358
549.271
549.184
549.096
549.007
548.917
548.827
548.737
548.648
548.559
548.47
548.38
548.288
548.195
548.099
548.001
547.9
547.797
547.691
547.584
547.474
547.363
547.251
547.137
547.023
546.907
546.79
546.672
546.553
546.433
546.312
546.19
546.068
545.946
545.824
545.701
545.578
545.455
545.332
545.208
545.084
544.96
544.837
544.715
544.593
544.472
544.351
544.231
544.112
543.993
543.875
543.757
543.64
543.523
543.407
543.291
543.175
543.06
542.946
542.832
542.718
542.605
542.492
542.379
542.266
542.154
542.042
541.931
541.819
541.708
541.597
541.487
541.376
541.266
541.155
541.045
540.935
540.825
540.715
540.605
552.509
552.428
552.347
552.266
552.184
552.102
552.02
551.938
551.856
551.774
551.692
551.611
551.53
551.451
551.373
551.297
551.221
551.148
551.075
551.004
550.934
550.864
550.795
550.725
550.654
550.583
550.511
550.437
550.362
550.285
550.207
550.128
550.048
549.968
549.886
549.804
549.721
549.638
549.553
549.468
549.382
549.295
549.206
549.117
549.027
548.936
548.844
548.753
548.663
548.572
548.481
548.388
548.294
548.199
548.101
548.002
547.9
547.797
547.691
547.583
547.473
547.362
547.25
547.136
547.022
546.906
546.789
546.671
546.552
546.432
546.312
546.19
546.068
545.945
545.822
545.699
545.574
545.45
545.326
545.203
545.079
544.956
544.833
544.71
544.588
544.467
544.347
544.227
544.108
543.989
543.871
543.753
543.636
543.52
543.404
543.288
543.173
543.058
542.944
542.83
542.716
542.603
542.49
542.377
542.265
542.153
542.041
541.93
541.819
541.707
541.597
541.486
541.375
541.265
541.155
541.045
540.935
540.825
540.715
540.605
552.51
552.431
552.352
552.272
552.192
552.113
552.033
551.953
551.873
551.793
551.713
551.634
551.556
551.479
551.403
551.329
551.255
551.183
551.112
551.042
550.972
550.903
550.833
550.763
550.692
550.62
550.547
550.472
550.396
550.318
550.24
550.16
550.079
549.998
549.916
549.833
549.75
549.666
549.581
549.495
549.408
549.32
549.23
549.14
549.048
548.956
548.864
548.771
548.678
548.585
548.491
548.395
548.298
548.2
548.101
548
547.897
547.793
547.687
547.579
547.47
547.359
547.247
547.134
547.019
546.904
546.787
546.669
546.551
546.431
546.31
546.189
546.067
545.944
545.821
545.698
545.574
545.45
545.325
545.199
545.075
544.951
544.827
544.705
544.583
544.462
544.342
544.222
544.103
543.984
543.866
543.749
543.632
543.516
543.4
543.285
543.17
543.055
542.941
542.828
542.714
542.601
542.488
542.376
542.264
542.152
542.04
541.929
541.818
541.707
541.596
541.485
541.375
541.265
541.155
541.044
540.934
540.825
540.715
540.605
552.511
552.434
552.356
552.279
552.201
552.123
552.045
551.967
551.889
551.811
551.734
551.657
551.581
551.505
551.431
551.358
551.286
551.215
551.145
551.076
551.007
550.938
550.868
550.798
550.726
550.654
550.58
550.505
550.428
550.35
550.27
550.19
550.109
550.027
549.945
549.862
549.779
549.694
549.609
549.523
549.435
549.346
549.256
549.164
549.072
548.979
548.884
548.79
548.694
548.598
548.5
548.401
548.301
548.2
548.098
547.995
547.891
547.786
547.68
547.573
547.464
547.354
547.242
547.13
547.016
546.901
546.784
546.667
546.548
546.428
546.307
546.185
546.063
545.94
545.817
545.694
545.57
545.446
545.321
545.194
545.069
544.944
544.821
544.698
544.577
544.456
544.336
544.216
544.097
543.979
543.862
543.745
543.628
543.512
543.397
543.281
543.167
543.053
542.939
542.825
542.712
542.599
542.486
542.374
542.262
542.15
542.039
541.928
541.817
541.706
541.595
541.485
541.374
541.264
541.154
541.044
540.934
540.824
540.715
540.605
552.512
552.436
552.361
552.285
552.209
552.133
552.057
551.981
551.905
551.829
551.753
551.678
551.603
551.53
551.457
551.385
551.314
551.244
551.175
551.106
551.037
550.968
550.899
550.829
550.757
550.684
550.61
550.535
550.458
550.38
550.3
550.22
550.139
550.057
549.975
549.892
549.809
549.724
549.639
549.552
549.464
549.374
549.283
549.191
549.097
549.003
548.907
548.81
548.712
548.612
548.51
548.407
548.303
548.199
548.094
547.988
547.883
547.777
547.671
547.564
547.456
547.347
547.236
547.124
547.011
546.897
546.781
546.663
546.544
546.424
546.302
546.18
546.057
545.933
545.81
545.686
545.562
545.438
545.313
545.187
545.061
544.937
544.813
544.691
544.569
544.449
544.329
544.21
544.091
543.973
543.856
543.739
543.623
543.508
543.393
543.278
543.163
543.049
542.936
542.823
542.71
542.597
542.485
542.372
542.261
542.149
542.038
541.927
541.816
541.705
541.594
541.484
541.374
541.264
541.154
541.044
540.934
540.824
540.715
540.605
552.513
552.439
552.365
552.291
552.216
552.142
552.068
551.993
551.919
551.845
551.771
551.697
551.624
551.552
551.48
551.409
551.339
551.27
551.201
551.133
551.065
550.996
550.927
550.857
550.785
550.713
550.639
550.563
550.486
550.408
550.329
550.25
550.169
550.087
550.006
549.923
549.84
549.755
549.67
549.583
549.495
549.405
549.313
549.22
549.125
549.028
548.93
548.831
548.73
548.627
548.521
548.414
548.306
548.198
548.09
547.983
547.876
547.769
547.662
547.555
547.447
547.339
547.229
547.118
547.006
546.892
546.776
546.658
546.539
546.418
546.296
546.173
546.049
545.924
545.799
545.674
545.55
545.426
545.302
545.177
545.052
544.928
544.805
544.682
544.561
544.441
544.321
544.202
544.084
543.967
543.85
543.734
543.618
543.503
543.388
543.274
543.16
543.046
542.933
542.82
542.707
542.595
542.482
542.371
542.259
542.148
542.036
541.925
541.815
541.704
541.594
541.483
541.373
541.263
541.153
541.043
540.934
540.824
540.714
540.605
552.514
552.441
552.368
552.296
552.223
552.15
552.078
552.005
551.932
551.859
551.786
551.714
551.643
551.571
551.501
551.431
551.362
551.293
551.225
551.157
551.089
551.021
550.952
550.882
550.811
550.739
550.665
550.591
550.514
550.437
550.358
550.279
550.199
550.118
550.037
549.955
549.872
549.789
549.703
549.617
549.528
549.437
549.345
549.25
549.154
549.056
548.956
548.854
548.75
548.643
548.534
548.423
548.311
548.199
548.088
547.979
547.87
547.761
547.653
547.546
547.439
547.331
547.222
547.112
546.999
546.885
546.77
546.652
546.532
546.411
546.289
546.165
546.04
545.914
545.788
545.662
545.537
545.412
545.289
545.165
545.041
544.917
544.795
544.673
544.552
544.432
544.313
544.194
544.077
543.96
543.844
543.728
543.613
543.498
543.384
543.27
543.156
543.043
542.93
542.817
542.704
542.592
542.48
542.369
542.257
542.146
542.035
541.924
541.814
541.703
541.593
541.483
541.373
541.263
541.153
541.043
540.933
540.824
540.714
540.605
552.514
552.443
552.371
552.3
552.229
552.158
552.086
552.015
551.943
551.872
551.801
551.73
551.659
551.589
551.519
551.45
551.382
551.314
551.247
551.179
551.112
551.044
550.976
550.906
550.836
550.765
550.692
550.618
550.542
550.466
550.388
550.309
550.23
550.15
550.07
549.989
549.907
549.824
549.74
549.653
549.564
549.473
549.38
549.284
549.186
549.086
548.984
548.88
548.772
548.662
548.549
548.434
548.319
548.204
548.089
547.977
547.865
547.755
547.646
547.538
547.431
547.323
547.214
547.104
546.992
546.878
546.762
546.644
546.524
546.403
546.28
546.156
546.031
545.905
545.779
545.653
545.528
545.403
545.278
545.153
545.029
544.905
544.783
544.661
544.541
544.422
544.303
544.186
544.069
543.952
543.837
543.722
543.607
543.492
543.379
543.265
543.152
543.039
542.926
542.814
542.702
542.59
542.478
542.367
542.255
542.144
542.034
541.923
541.812
541.702
541.592
541.482
541.372
541.262
541.152
541.043
540.933
540.824
540.714
540.605
552.515
552.444
552.374
552.304
552.233
552.163
552.093
552.023
551.953
551.882
551.812
551.743
551.673
551.604
551.535
551.467
551.4
551.333
551.266
551.199
551.133
551.066
550.998
550.93
550.86
550.79
550.718
550.645
550.571
550.495
550.419
550.341
550.263
550.184
550.105
550.026
549.945
549.864
549.78
549.694
549.605
549.513
549.418
549.321
549.222
549.12
549.015
548.908
548.798
548.685
548.569
548.451
548.331
548.213
548.095
547.979
547.865
547.753
547.642
547.532
547.424
547.315
547.206
547.095
546.983
546.869
546.752
546.634
546.513
546.391
546.268
546.144
546.018
545.892
545.766
545.64
545.514
545.388
545.263
545.139
545.015
544.891
544.769
544.649
544.529
544.411
544.293
544.176
544.06
543.944
543.829
543.715
543.601
543.487
543.373
543.26
543.147
543.035
542.923
542.811
542.699
542.587
542.476
542.365
542.254
542.143
542.032
541.922
541.811
541.701
541.591
541.481
541.371
541.262
541.152
541.042
540.933
540.823
540.714
540.605
552.515
552.445
552.375
552.306
552.237
552.167
552.098
552.029
551.96
551.891
551.822
551.753
551.684
551.616
551.549
551.482
551.415
551.349
551.284
551.218
551.152
551.086
551.02
550.953
550.885
550.815
550.745
550.673
550.6
550.526
550.451
550.375
550.299
550.222
550.144
550.066
549.988
549.908
549.826
549.74
549.65
549.558
549.462
549.363
549.261
549.157
549.051
548.941
548.828
548.713
548.593
548.472
548.35
548.228
548.107
547.987
547.869
547.754
547.64
547.528
547.417
547.307
547.197
547.085
546.972
546.857
546.74
546.62
546.499
546.376
546.252
546.128
546.002
545.875
545.748
545.621
545.494
545.369
545.245
545.122
544.998
544.875
544.754
544.634
544.516
544.398
544.281
544.165
544.05
543.935
543.821
543.707
543.594
543.481
543.368
543.255
543.143
543.031
542.919
542.807
542.696
542.585
542.473
542.363
542.252
542.141
542.031
541.92
541.81
541.7
541.59
541.48
541.371
541.261
541.151
541.042
540.933
540.823
540.714
540.605
552.515
552.445
552.376
552.307
552.238
552.169
552.101
552.032
551.964
551.896
551.828
551.76
551.693
551.626
551.56
551.494
551.429
551.364
551.3
551.235
551.171
551.107
551.042
550.976
550.91
550.842
550.774
550.704
550.633
550.561
550.487
550.413
550.338
550.263
550.188
550.112
550.036
549.958
549.878
549.792
549.702
549.608
549.511
549.41
549.307
549.201
549.092
548.98
548.865
548.746
548.625
548.501
548.375
548.25
548.125
548.001
547.879
547.76
547.642
547.526
547.411
547.298
547.186
547.073
546.959
546.842
546.724
546.603
546.481
546.357
546.233
546.107
545.981
545.855
545.728
545.601
545.475
545.35
545.226
545.102
544.979
544.857
544.737
544.618
544.5
544.384
544.269
544.154
544.04
543.926
543.813
543.7
543.587
543.475
543.362
543.25
543.139
543.027
542.915
542.804
542.693
542.582
542.471
542.36
542.25
542.139
542.029
541.919
541.809
541.699
541.589
541.48
541.37
541.26
541.151
541.042
540.932
540.823
540.714
540.605
552.515
552.445
552.375
552.306
552.237
552.168
552.1
552.033
551.965
551.898
551.831
551.765
551.699
551.633
551.568
551.504
551.44
551.377
551.314
551.252
551.189
551.127
551.064
551
550.936
550.871
550.804
550.737
550.668
550.598
550.528
550.456
550.383
550.311
550.238
550.166
550.092
550.017
549.937
549.852
549.762
549.666
549.566
549.464
549.358
549.25
549.139
549.025
548.908
548.787
548.663
548.536
548.408
548.279
548.15
548.022
547.896
547.771
547.648
547.526
547.407
547.289
547.173
547.058
546.942
546.824
546.704
546.582
546.458
546.334
546.209
546.083
545.957
545.83
545.703
545.577
545.451
545.326
545.202
545.08
544.957
544.836
544.717
544.6
544.484
544.369
544.255
544.141
544.029
543.916
543.804
543.692
543.58
543.468
543.357
543.245
543.134
543.023
542.912
542.801
542.69
542.579
542.469
542.358
542.248
542.138
542.028
541.918
541.808
541.698
541.588
541.479
541.369
541.26
541.151
541.041
540.932
540.823
540.714
540.605
552.514
552.443
552.373
552.303
552.233
552.165
552.097
552.029
551.963
551.897
551.831
551.766
551.701
551.637
551.574
551.512
551.45
551.389
551.328
551.268
551.208
551.148
551.087
551.026
550.964
550.902
550.838
550.774
550.708
550.641
550.573
550.504
550.435
550.365
550.296
550.227
550.157
550.084
550.006
549.921
549.829
549.731
549.629
549.524
549.417
549.306
549.193
549.077
548.958
548.835
548.709
548.58
548.449
548.317
548.184
548.052
547.921
547.791
547.662
547.534
547.408
547.283
547.161
547.041
546.923
546.803
546.68
546.557
546.432
546.307
546.181
546.055
545.929
545.802
545.675
545.547
545.421
545.296
545.174
545.054
544.932
544.812
544.695
544.579
544.465
544.352
544.24
544.128
544.017
543.906
543.794
543.683
543.573
543.462
543.351
543.24
543.129
543.019
542.908
542.798
542.687
542.577
542.466
542.356
542.246
542.136
542.026
541.916
541.807
541.697
541.588
541.478
541.369
541.259
541.15
541.041
540.932
540.823
540.714
540.605
552.514
552.441
552.369
552.298
552.228
552.159
552.09
552.023
551.957
551.892
551.827
551.764
551.701
551.639
551.578
551.518
551.458
551.399
551.341
551.284
551.227
551.169
551.112
551.054
550.995
550.936
550.876
550.814
550.752
550.689
550.624
550.559
550.493
550.427
550.362
550.298
550.232
550.161
550.083
549.998
549.903
549.802
549.698
549.591
549.481
549.37
549.255
549.137
549.016
548.892
548.764
548.633
548.5
548.365
548.229
548.093
547.957
547.821
547.686
547.551
547.417
547.285
547.155
547.028
546.904
546.781
546.656
546.531
546.405
546.28
546.154
546.028
545.903
545.777
545.651
545.525
545.399
545.274
545.15
545.027
544.904
544.786
544.67
544.557
544.445
544.334
544.224
544.114
544.005
543.895
543.785
543.675
543.565
543.455
543.345
543.235
543.125
543.015
542.905
542.794
542.684
542.574
542.464
542.354
542.244
542.135
542.025
541.915
541.806
541.696
541.587
541.477
541.368
541.259
541.15
541.041
540.932
540.823
540.713
540.604
552.513
552.439
552.365
552.292
552.221
552.15
552.082
552.014
551.948
551.884
551.821
551.759
551.699
551.639
551.58
551.522
551.465
551.41
551.355
551.3
551.246
551.192
551.138
551.083
551.028
550.973
550.916
550.859
550.801
550.741
550.681
550.62
550.558
550.497
550.437
550.377
550.313
550.244
550.167
550.079
549.983
549.878
549.772
549.663
549.552
549.438
549.322
549.203
549.081
548.955
548.827
548.695
548.56
548.423
548.284
548.145
548.005
547.864
547.722
547.58
547.438
547.297
547.158
547.023
546.892
546.764
546.636
546.509
546.382
546.256
546.131
546.006
545.881
545.757
545.632
545.507
545.38
545.252
545.124
544.999
544.874
544.756
544.643
544.533
544.424
544.316
544.208
544.1
543.992
543.884
543.776
543.667
543.558
543.449
543.339
543.23
543.12
543.011
542.901
542.791
542.682
542.572
542.462
542.352
542.243
542.133
542.024
541.914
541.805
541.695
541.586
541.477
541.368
541.258
541.149
541.04
540.931
540.822
540.713
540.604
552.512
552.436
552.36
552.286
552.213
552.141
552.072
552.004
551.939
551.875
551.814
551.753
551.695
551.637
551.581
551.526
551.473
551.42
551.369
551.318
551.267
551.216
551.166
551.115
551.064
551.012
550.959
550.906
550.852
550.796
550.74
550.683
550.626
550.57
550.514
550.457
550.396
550.328
550.251
550.162
550.063
549.956
549.847
549.736
549.624
549.51
549.393
549.273
549.15
549.024
548.895
548.762
548.627
548.489
548.349
548.207
548.063
547.918
547.771
547.622
547.474
547.325
547.179
547.036
546.897
546.762
546.63
546.5
546.372
546.245
546.12
545.996
545.872
545.749
545.624
545.498
545.368
545.237
545.103
544.97
544.84
544.724
544.614
544.508
544.402
544.297
544.192
544.086
543.98
543.873
543.766
543.659
543.551
543.442
543.334
543.225
543.116
543.007
542.898
542.788
542.679
542.569
542.46
542.351
542.241
542.132
542.022
541.913
541.804
541.694
541.585
541.476
541.367
541.258
541.149
541.04
540.931
540.822
540.713
540.604
552.511
552.432
552.355
552.279
552.204
552.132
552.062
551.995
551.93
551.867
551.807
551.748
551.691
551.636
551.582
551.53
551.48
551.431
551.383
551.336
551.289
551.242
551.195
551.147
551.099
551.051
551.002
550.952
550.902
550.851
550.799
550.747
550.694
550.641
550.589
550.534
550.475
550.407
550.329
550.238
550.136
550.028
549.917
549.806
549.692
549.577
549.46
549.341
549.218
549.092
548.963
548.831
548.696
548.558
548.418
548.275
548.129
547.981
547.83
547.678
547.526
547.374
547.224
547.075
546.93
546.788
546.65
546.516
546.385
546.257
546.132
546.008
545.885
545.761
545.635
545.506
545.372
545.233
545.089
544.942
544.798
544.688
544.585
544.483
544.381
544.279
544.176
544.072
543.968
543.863
543.757
543.651
543.544
543.437
543.329
543.221
543.112
543.003
542.895
542.786
542.676
542.567
542.458
542.349
542.24
542.13
542.021
541.912
541.803
541.694
541.585
541.476
541.367
541.258
541.149
541.04
540.931
540.822
540.713
540.604
552.51
552.429
552.35
552.273
552.198
552.125
552.055
551.988
551.924
551.863
551.803
551.746
551.689
551.636
551.584
551.535
551.489
551.444
551.4
551.356
551.312
551.268
551.223
551.178
551.132
551.086
551.04
550.993
550.946
550.899
550.851
550.803
550.754
550.704
550.653
550.599
550.54
550.472
550.391
550.298
550.195
550.085
549.973
549.86
549.747
549.632
549.516
549.398
549.277
549.152
549.025
548.895
548.761
548.625
548.486
548.344
548.2
548.053
547.904
547.754
547.603
547.452
547.302
547.153
547.005
546.856
546.71
546.571
546.437
546.308
546.182
546.057
545.933
545.808
545.679
545.544
545.402
545.251
545.09
544.918
544.727
544.649
544.557
544.46
544.361
544.262
544.161
544.059
543.957
543.853
543.749
543.644
543.538
543.431
543.324
543.216
543.108
543
542.892
542.783
542.674
542.565
542.456
542.347
542.238
542.129
542.02
541.911
541.802
541.693
541.584
541.475
541.366
541.257
541.148
541.039
540.931
540.822
540.713
540.604
552.509
552.427
552.347
552.269
552.194
552.122
552.054
551.989
551.927
551.867
551.808
551.749
551.692
551.638
551.588
551.542
551.498
551.457
551.416
551.376
551.334
551.291
551.247
551.203
551.158
551.112
551.067
551.022
550.977
550.932
550.887
550.841
550.795
550.747
550.696
550.641
550.58
550.509
550.426
550.33
550.224
550.112
549.999
549.886
549.773
549.66
549.546
549.431
549.314
549.194
549.071
548.945
548.816
548.684
548.55
548.415
548.278
548.138
547.997
547.855
547.712
547.569
547.426
547.283
547.133
546.98
546.827
546.682
546.544
546.413
546.286
546.16
546.034
545.905
545.769
545.626
545.47
545.303
545.12
544.924
544.712
544.63
544.538
544.443
544.345
544.247
544.148
544.048
543.946
543.844
543.741
543.637
543.532
543.426
543.32
543.213
543.105
542.997
542.889
542.781
542.672
542.564
542.455
542.346
542.237
542.128
542.019
541.91
541.801
541.692
541.583
541.475
541.366
541.257
541.148
541.039
540.931
540.822
540.713
540.604
552.508
552.426
552.346
552.269
552.196
552.127
552.063
552.002
551.943
551.886
551.826
551.763
551.703
551.647
551.596
551.551
551.509
551.47
551.432
551.393
551.352
551.308
551.263
551.217
551.17
551.124
551.079
551.032
550.985
550.94
550.895
550.851
550.807
550.76
550.709
550.651
550.586
550.51
550.42
550.319
550.207
550.092
549.976
549.862
549.75
549.641
549.534
549.426
549.317
549.207
549.094
548.976
548.856
548.733
548.611
548.49
548.369
548.247
548.124
547.999
547.873
547.745
547.611
547.474
547.325
547.17
547.01
546.86
546.721
546.589
546.461
546.335
546.205
546.068
545.922
545.765
545.59
545.401
545.191
544.964
544.722
544.627
544.529
544.431
544.333
544.235
544.136
544.037
543.938
543.837
543.734
543.631
543.527
543.422
543.316
543.209
543.102
542.995
542.887
542.779
542.671
542.562
542.454
542.345
542.236
542.127
542.018
541.91
541.801
541.692
541.583
541.474
541.365
541.257
541.148
541.039
540.93
540.822
540.713
540.604
552.508
552.425
552.346
552.272
552.204
552.143
552.088
552.036
551.985
551.931
551.867
551.796
551.728
551.667
551.613
551.565
551.522
551.48
551.441
551.4
551.357
551.312
551.263
551.217
551.166
551.119
551.073
551.02
550.965
550.913
550.865
550.822
550.781
550.735
550.682
550.619
550.545
550.456
550.353
550.241
550.119
549.994
549.874
549.758
549.65
549.552
549.457
549.364
549.274
549.184
549.094
548.99
548.885
548.776
548.681
548.584
548.493
548.402
548.315
548.219
548.114
547.999
547.869
547.735
547.577
547.42
547.255
547.11
546.976
546.848
546.728
546.606
546.454
546.301
546.149
545.987
545.765
545.548
545.319
545.047
544.752
544.634
544.525
544.423
544.323
544.225
544.127
544.029
543.93
543.83
543.729
543.626
543.523
543.418
543.313
543.207
543.1
542.993
542.885
542.777
542.669
542.561
542.452
542.344
542.235
542.127
542.018
541.909
541.8
541.691
541.583
541.474
541.365
541.256
541.148
541.039
540.93
540.822
540.713
540.604
552.508
552.426
552.348
552.278
552.22
552.178
552.139
552.104
552.065
552.015
551.944
551.86
551.779
551.708
551.648
551.589
551.531
551.474
551.43
551.382
551.336
551.294
551.238
551.205
551.147
551.102
551.06
550.99
550.912
550.842
550.79
550.746
550.705
550.659
550.601
550.533
550.441
550.317
550.18
550.057
549.914
549.766
549.642
549.527
549.429
549.362
549.294
549.225
549.182
549.123
549.078
548.988
548.916
548.81
548.786
548.722
548.666
548.628
548.604
548.554
548.449
548.339
548.198
548.069
547.858
547.705
547.553
547.44
547.32
547.197
547.126
547.018
546.706
546.549
546.564
546.4
545.907
545.692
545.566
545.179
544.797
544.641
544.523
544.417
544.316
544.218
544.121
544.023
543.925
543.825
543.725
543.623
543.52
543.415
543.31
543.205
543.098
542.991
542.884
542.776
542.668
542.56
542.452
542.343
542.235
542.126
542.017
541.909
541.8
541.691
541.582
541.474
541.365
541.256
541.148
541.039
540.93
540.822
540.713
540.604
552.507
552.424
552.348
552.285
552.246
552.252
552.231
552.218
552.179
552.127
552.052
551.959
551.863
551.779
551.706
551.61
551.512
551.407
551.371
551.3
551.256
551.254
551.173
551.218
551.115
551.076
551.054
550.935
550.798
550.701
550.666
550.617
550.556
550.488
550.419
550.355
550.221
550.001
549.845
549.707
549.563
549.405
549.269
549.18
549.14
549.1
549.085
549.065
549.05
549.005
549.014
548.98
548.94
548.833
548.839
548.802
548.797
548.804
548.807
548.811
548.679
548.632
548.525
548.476
548.136
547.982
547.94
547.964
547.778
547.647
547.817
547.609
546.53
546.626
547.829
547.124
545.311
545.731
546.12
545.277
544.84
544.619
544.514
544.411
544.311
544.213
544.116
544.019
543.921
543.822
543.722
543.62
543.518
543.414
543.309
543.203
543.097
542.99
542.883
542.775
542.667
542.559
542.451
542.343
542.234
542.126
542.017
541.908
541.8
541.691
541.582
541.474
541.365
541.256
541.148
541.039
540.93