/*--------------------------------*- C++ -*----------------------------------*\
  =========                 |
  \\      /  F ield         | OpenFOAM: The Open Source CFD Toolbox
   \\    /   O peration     | Website:  https://openfoam.org
    \\  /    A nd           | Version:  6
     \\/     M anipulation  |
\*---------------------------------------------------------------------------*/
FoamFile
{
    version     2.0;
    format      ascii;
    class       volVectorField;
    location    "150";
    object      U;
}
// * * * * * * * * * * * * * * * * * * * * * * * * * * * * * * * * * * * * * //

dimensions      [0 1 -1 0 0 0 0];

internalField   nonuniform List<vector> 
4800
(
(-1.05861e-05 0 1.13665e-05)
(-3.36917e-05 0 1.00865e-05)
(-5.72229e-05 0 9.87557e-06)
(-8.27562e-05 0 1.01491e-05)
(-0.000111069 0 1.05163e-05)
(-0.000143304 0 1.05198e-05)
(-0.000180511 0 9.70411e-06)
(-0.000223583 0 9.16649e-06)
(-0.000276896 0 1.1794e-05)
(-0.00034002 0 2.49046e-05)
(-0.000410216 0 5.58639e-05)
(-0.000515104 0 8.1738e-05)
(-0.000647685 0 0.000149872)
(-0.000773877 0 0.000178618)
(-0.000906789 0 8.9341e-05)
(-0.00103273 0 1.99902e-05)
(-0.00114884 0 3.97232e-05)
(-0.00123567 0 3.20067e-05)
(-0.00129008 0 1.42028e-05)
(-0.00132862 0 1.40049e-05)
(-0.00135363 0 -2.69408e-07)
(-0.00135952 0 -1.22761e-05)
(-0.00134951 0 -3.06297e-05)
(-0.00134908 0 -4.7045e-05)
(-0.00131857 0 2.23545e-05)
(-0.00121479 0 1.98863e-05)
(-0.001123 0 -0.000124688)
(-0.00104854 0 -0.000164742)
(-0.000984985 0 -6.71341e-05)
(-0.000868907 0 -3.25089e-05)
(-0.000765978 0 -9.39793e-05)
(-0.000731754 0 -8.64858e-05)
(-0.00072321 0 5.55238e-05)
(-0.000648474 0 -8.34575e-05)
(-0.000618151 0 -3.16917e-05)
(-0.000593264 0 1.71107e-05)
(-0.000540987 0 -4.40982e-05)
(-0.000511783 0 -3.54734e-05)
(-0.000498923 0 -9.5022e-06)
(-0.000482405 0 -2.63739e-05)
(-0.000480461 0 -3.08906e-05)
(-0.00048317 0 -3.70685e-05)
(-0.000480031 0 -5.9569e-05)
(-0.00047357 0 -4.80004e-05)
(-0.000468137 0 -5.86365e-05)
(-0.00046045 0 -7.75888e-05)
(-0.00044075 0 -7.05955e-05)
(-0.000413914 0 -7.04217e-05)
(-0.000387521 0 -8.08203e-05)
(-0.000365744 0 -9.62246e-05)
(-0.000348963 0 -0.000106638)
(-0.000337588 0 -0.000117993)
(-0.000334135 0 -0.000103492)
(-0.000332557 0 -8.91085e-05)
(-0.0003624 0 -8.99079e-06)
(-0.000453513 0 2.85755e-05)
(-0.000497599 0 -3.527e-05)
(-0.000508357 0 -4.81179e-05)
(-0.000470826 0 -8.43614e-05)
(-0.000440019 0 -6.0091e-05)
(-0.000422086 0 -2.80752e-05)
(-0.000398084 0 -3.76304e-05)
(-0.000382033 0 -4.83499e-05)
(-0.000373565 0 -5.62658e-05)
(-0.000369369 0 -6.64217e-05)
(-0.000367644 0 -7.56738e-05)
(-0.00036223 0 -9.05627e-05)
(-0.000350241 0 -0.000103927)
(-0.000348183 0 -9.95595e-05)
(-0.000342712 0 -0.000102078)
(-0.0003227 0 -0.000102372)
(-0.000296316 0 -9.56865e-05)
(-0.000280266 0 -0.000108036)
(-0.000267737 0 -0.000120194)
(-0.000249954 0 -0.000129631)
(-0.000235068 0 -0.000120877)
(-0.000289958 0 -0.00018361)
(-0.000444973 0 -0.000159231)
(-0.000562546 0 -0.000221436)
(4.11015e-06 0 -0.000213407)
(4.53831e-14 0 -8.64207e-14)
(-7.86674e-13 0 -3.01372e-14)
(2.30018e-13 0 -1.14169e-14)
(2.47757e-13 0 -6.42587e-15)
(2.60438e-13 0 -6.04316e-15)
(2.73711e-13 0 -6.94085e-15)
(2.88912e-13 0 -7.96683e-15)
(3.05898e-13 0 -8.77761e-15)
(3.24198e-13 0 -9.25734e-15)
(3.43142e-13 0 -9.37791e-15)
(3.62034e-13 0 -9.14786e-15)
(3.8021e-13 0 -8.5947e-15)
(3.97073e-13 0 -7.75738e-15)
(4.12105e-13 0 -6.6822e-15)
(4.24882e-13 0 -5.42008e-15)
(4.35073e-13 0 -4.02282e-15)
(4.42438e-13 0 -2.53999e-15)
(4.46823e-13 0 -1.01628e-15)
(4.48152e-13 0 5.08985e-16)
(4.46421e-13 0 2.00307e-15)
(4.41679e-13 0 3.44123e-15)
(4.34029e-13 0 4.80703e-15)
(4.23616e-13 0 6.09071e-15)
(4.10627e-13 0 7.28701e-15)
(3.95276e-13 0 8.39337e-15)
(3.77797e-13 0 9.40952e-15)
(3.5843e-13 0 1.03369e-14)
(3.37413e-13 0 1.11783e-14)
(3.14974e-13 0 1.19363e-14)
(2.91325e-13 0 1.26129e-14)
(2.6665e-13 0 1.32087e-14)
(2.41097e-13 0 1.37242e-14)
(2.1478e-13 0 1.41602e-14)
(1.87783e-13 0 1.45191e-14)
(1.60172e-13 0 1.48052e-14)
(1.32007e-13 0 1.5025e-14)
(1.03352e-13 0 1.51875e-14)
(7.42785e-14 0 1.53066e-14)
(4.4844e-14 0 1.54117e-14)
(1.5021e-14 0 1.55878e-14)
(-1.02039e-05 0 3.28536e-05)
(-3.20665e-05 0 3.51456e-05)
(-5.4758e-05 0 3.78893e-05)
(-7.89733e-05 0 4.18202e-05)
(-0.00010549 0 4.74106e-05)
(-0.000135025 0 5.54154e-05)
(-0.000169057 0 6.68126e-05)
(-0.000211659 0 7.91381e-05)
(-0.000261089 0 9.89137e-05)
(-0.000319302 0 0.000123352)
(-0.000393106 0 0.000146727)
(-0.00047904 0 0.000189454)
(-0.000607475 0 0.000161235)
(-0.000732268 0 0.000151598)
(-0.000865711 0 0.000172037)
(-0.00100363 0 0.000110143)
(-0.00109129 0 6.9854e-05)
(-0.00114093 0 0.000103168)
(-0.00118924 0 8.63683e-05)
(-0.00123456 0 3.98172e-05)
(-0.00126209 0 3.40579e-05)
(-0.00127068 0 8.33571e-06)
(-0.00123617 0 -9.43983e-05)
(-0.00120305 0 -6.79875e-05)
(-0.00117817 0 -9.49833e-05)
(-0.0011593 0 -0.000146729)
(-0.00111186 0 -0.000152776)
(-0.000969996 0 -0.000191284)
(-0.000841769 0 -0.000134245)
(-0.00074082 0 -0.000143181)
(-0.000690834 0 -0.000160752)
(-0.000672121 0 -0.000178962)
(-0.00063789 0 0.000246538)
(-0.000526254 0 -0.000244981)
(-0.000521883 0 -1.16026e-05)
(-0.000461241 0 -5.36251e-05)
(-0.000412444 0 -5.14065e-05)
(-0.000361398 0 -5.07594e-05)
(-0.000324898 0 2.29851e-05)
(-0.000286378 0 -2.31619e-05)
(-0.000265312 0 1.17358e-05)
(-0.000247896 0 1.72536e-05)
(-0.000232117 0 3.32991e-05)
(-0.000217866 0 4.58692e-05)
(-0.000210602 0 2.92936e-05)
(-0.000220049 0 2.79689e-05)
(-0.000225839 0 2.3985e-05)
(-0.000209197 0 5.5766e-06)
(-0.000181781 0 1.00578e-05)
(-0.000168997 0 3.69359e-05)
(-0.000162113 0 5.25592e-05)
(-0.000180808 0 8.99159e-05)
(-0.000190812 0 9.18088e-05)
(-0.000215227 0 0.000153688)
(-0.000253306 0 0.000123336)
(-0.000297717 0 8.46047e-05)
(-0.000305811 0 5.55128e-05)
(-0.000248623 0 -2.80663e-05)
(-0.000198106 0 -4.207e-05)
(-0.000176444 0 -4.1157e-05)
(-0.000157473 0 -3.5382e-05)
(-0.000140948 0 -2.48491e-05)
(-0.000131473 0 -4.77284e-06)
(-0.000121514 0 1.19686e-05)
(-0.000111914 0 3.00655e-05)
(-0.000101002 0 4.11485e-05)
(-9.24645e-05 0 4.70232e-05)
(-8.69796e-05 0 4.94387e-05)
(-8.07518e-05 0 5.18255e-05)
(-7.37162e-05 0 3.95912e-05)
(-6.51236e-05 0 4.35695e-05)
(-3.98905e-05 0 2.33169e-05)
(-1.677e-05 0 1.86445e-05)
(2.08517e-05 0 2.14069e-05)
(2.73572e-05 0 9.96295e-05)
(0.000108101 0 6.90303e-05)
(8.38757e-05 0 9.31888e-05)
(0.000282303 0 4.29567e-05)
(-0.000435973 0 -6.21315e-05)
(4.46488e-06 0 -0.000142974)
(5.25435e-14 0 -1.79952e-13)
(-7.1994e-13 0 -5.26889e-14)
(2.53118e-13 0 -2.02201e-14)
(2.52861e-13 0 -1.47878e-14)
(2.59932e-13 0 -1.69106e-14)
(2.71844e-13 0 -2.0627e-14)
(2.87075e-13 0 -2.40243e-14)
(3.04607e-13 0 -2.65486e-14)
(3.23598e-13 0 -2.79963e-14)
(3.43252e-13 0 -2.83288e-14)
(3.62817e-13 0 -2.75886e-14)
(3.816e-13 0 -2.58674e-14)
(3.98985e-13 0 -2.32897e-14)
(4.14443e-13 0 -2.00012e-14)
(4.27542e-13 0 -1.61593e-14)
(4.37953e-13 0 -1.19234e-14)
(4.45444e-13 0 -7.44448e-15)
(4.49872e-13 0 -2.85755e-15)
(4.51171e-13 0 1.72223e-15)
(4.49353e-13 0 6.20319e-15)
(4.44483e-13 0 1.0519e-14)
(4.36679e-13 0 1.46273e-14)
(4.26096e-13 0 1.85033e-14)
(4.12929e-13 0 2.21337e-14)
(3.97398e-13 0 2.55121e-14)
(3.79741e-13 0 2.86364e-14)
(3.60199e-13 0 3.15062e-14)
(3.39012e-13 0 3.41206e-14)
(3.16409e-13 0 3.64755e-14)
(2.92598e-13 0 3.85647e-14)
(2.67761e-13 0 4.03817e-14)
(2.42049e-13 0 4.19247e-14)
(2.15575e-13 0 4.31998e-14)
(1.88428e-13 0 4.42225e-14)
(1.60678e-13 0 4.5017e-14)
(1.32389e-13 0 4.56137e-14)
(1.03634e-13 0 4.60469e-14)
(7.45028e-14 0 4.63545e-14)
(4.51252e-14 0 4.65863e-14)
(1.51971e-14 0 4.68304e-14)
(-9.83736e-06 0 5.32127e-05)
(-3.05867e-05 0 5.49876e-05)
(-5.18763e-05 0 5.83446e-05)
(-7.46775e-05 0 6.35645e-05)
(-9.97533e-05 0 7.08926e-05)
(-0.000127736 0 8.08649e-05)
(-0.000159814 0 9.48749e-05)
(-0.000195547 0 0.000117063)
(-0.000238645 0 0.000141805)
(-0.00030027 0 0.000161124)
(-0.000358807 0 0.000207987)
(-0.000430668 0 0.000260181)
(-0.000517274 0 0.000303153)
(-0.000635983 0 0.00028635)
(-0.000747137 0 0.000285248)
(-0.000832859 0 0.00033329)
(-0.000919297 0 0.000316451)
(-0.00102202 0 0.000175654)
(-0.00108538 0 9.84195e-05)
(-0.00112265 0 7.86876e-05)
(-0.0011397 0 4.57684e-05)
(-0.00114132 0 2.42729e-05)
(-0.00111921 0 -6.05805e-05)
(-0.00108309 0 -6.34464e-05)
(-0.00104907 0 -0.000101634)
(-0.00103808 0 -0.000128181)
(-0.00100822 0 -0.000201612)
(-0.000876923 0 -0.000260088)
(-0.000753891 0 -0.000249081)
(-0.000684613 0 -0.000198816)
(-0.000652703 0 -0.000165073)
(-0.000620386 0 -0.000141462)
(-0.000565754 0 -8.66988e-05)
(-0.00044805 0 -0.000235916)
(-0.000452271 0 -9.33855e-05)
(-0.000382991 0 -0.000131868)
(-0.000345109 0 -0.000114585)
(-0.000289265 0 -0.000119549)
(-0.000251496 0 -9.89663e-05)
(-0.000236895 0 -5.74638e-05)
(-0.000213082 0 -6.59648e-05)
(-0.000200796 0 -4.76437e-05)
(-0.000180193 0 -4.82062e-05)
(-0.000171032 0 -3.12207e-05)
(-0.000166513 0 -3.39581e-05)
(-0.00017004 0 -3.43328e-05)
(-0.000170593 0 -3.99543e-05)
(-0.000166415 0 -4.95302e-05)
(-0.000139769 0 -8.51155e-05)
(-0.000123243 0 -6.80826e-05)
(-6.06336e-05 0 -9.04673e-05)
(-0.000100621 0 -4.49364e-06)
(-4.13223e-05 0 -2.19039e-05)
(-2.76898e-05 0 2.14654e-05)
(6.95353e-05 0 1.11277e-05)
(4.18459e-05 0 6.33657e-05)
(9.63216e-05 0 1.96682e-05)
(8.74914e-05 0 1.38487e-06)
(5.88143e-05 0 -2.32382e-05)
(3.21394e-05 0 -2.29222e-05)
(5.89037e-07 0 -2.11782e-05)
(-1.00735e-05 0 -2.75341e-05)
(-1.18624e-05 0 -2.57052e-05)
(-1.2138e-05 0 -2.53421e-05)
(-1.02695e-05 0 -2.49109e-05)
(-4.72098e-06 0 -2.88194e-05)
(1.0113e-05 0 -3.59269e-05)
(2.04328e-05 0 -4.30832e-05)
(3.2159e-05 0 -4.88719e-05)
(5.13704e-05 0 -5.3516e-05)
(7.35307e-05 0 -6.41762e-05)
(8.44434e-05 0 -6.70087e-05)
(9.35467e-05 0 -6.569e-05)
(0.000105181 0 -7.81722e-05)
(0.000177313 0 -4.05007e-05)
(0.000157507 0 -0.000187623)
(0.000264568 0 -6.46914e-06)
(0.000305201 0 1.41409e-05)
(-8.01809e-05 0 3.07116e-05)
(4.71745e-06 0 -7.4874e-05)
(7.57241e-14 0 1.01525e-13)
(-6.38064e-13 0 2.25239e-14)
(2.6754e-13 0 -1.82111e-15)
(2.51028e-13 0 -1.57735e-14)
(2.54778e-13 0 -2.62692e-14)
(2.66709e-13 0 -3.46228e-14)
(2.8299e-13 0 -4.1003e-14)
(3.01926e-13 0 -4.54481e-14)
(3.22418e-13 0 -4.79151e-14)
(3.4355e-13 0 -4.8433e-14)
(3.64495e-13 0 -4.71067e-14)
(3.84509e-13 0 -4.4108e-14)
(4.02939e-13 0 -3.9658e-14)
(4.19236e-13 0 -3.40103e-14)
(4.3296e-13 0 -2.74359e-14)
(4.43788e-13 0 -2.02072e-14)
(4.51504e-13 0 -1.25813e-14)
(4.55989e-13 0 -4.78663e-15)
(4.57213e-13 0 2.98406e-15)
(4.55217e-13 0 1.0579e-14)
(4.50103e-13 0 1.78889e-14)
(4.42013e-13 0 2.48439e-14)
(4.31123e-13 0 3.14038e-14)
(4.17635e-13 0 3.7548e-14)
(4.01779e-13 0 4.32661e-14)
(3.83791e-13 0 4.8553e-14)
(3.63914e-13 0 5.34044e-14)
(3.42382e-13 0 5.78128e-14)
(3.19418e-13 0 6.17657e-14)
(2.95232e-13 0 6.52483e-14)
(2.7001e-13 0 6.82495e-14)
(2.43915e-13 0 7.07696e-14)
(2.17078e-13 0 7.28256e-14)
(1.896e-13 0 7.44525e-14)
(1.61563e-13 0 7.57002e-14)
(1.33037e-13 0 7.66268e-14)
(1.04093e-13 0 7.72928e-14)
(7.48179e-14 0 7.77538e-14)
(4.53199e-14 0 7.80547e-14)
(1.52651e-14 0 7.82103e-14)
(-8.9553e-06 0 7.26382e-05)
(-2.77451e-05 0 7.48839e-05)
(-4.71066e-05 0 7.93601e-05)
(-6.77704e-05 0 8.635e-05)
(-9.05408e-05 0 9.61338e-05)
(-0.000116262 0 0.00010899)
(-0.000145735 0 0.000125814)
(-0.000181248 0 0.000145691)
(-0.000211847 0 0.000180704)
(-0.000245404 0 0.000229679)
(-0.000302995 0 0.00027325)
(-0.000353764 0 0.00033881)
(-0.000412962 0 0.000397629)
(-0.00049656 0 0.000421638)
(-0.000621103 0 0.000369398)
(-0.000729508 0 0.000277631)
(-0.000808821 0 0.000203349)
(-0.000885206 0 0.000153392)
(-0.00094166 0 0.000106578)
(-0.000962898 0 8.42231e-05)
(-0.000970399 0 5.23146e-05)
(-0.00096938 0 -8.45055e-05)
(-0.000973643 0 -8.44244e-05)
(-0.000956662 0 -0.000103272)
(-0.000873618 0 -0.000171357)
(-0.000830752 0 -0.000201292)
(-0.000802508 0 -0.00023054)
(-0.000753451 0 -0.000293905)
(-0.000674945 0 -0.000357271)
(-0.000547264 0 -0.000452107)
(-0.000626156 0 -0.000161062)
(-0.000536951 0 -0.000188346)
(-0.000495455 0 -7.37205e-05)
(-0.000365492 0 -0.000260647)
(-0.000378611 0 -0.000129112)
(-0.000353018 0 -0.000107602)
(-0.000293597 0 -0.000142795)
(-0.000243659 0 -0.000126942)
(-0.000207362 0 -0.000105691)
(-0.000203132 0 -6.59762e-05)
(-0.00018691 0 -5.92939e-05)
(-0.00018412 0 -3.39455e-05)
(-0.00017779 0 -2.40842e-05)
(-0.000176765 0 -2.11731e-05)
(-0.000181534 0 -2.64206e-07)
(-0.000170018 0 6.73287e-06)
(-0.00015831 0 -2.42853e-05)
(-0.000150888 0 -4.37027e-05)
(-0.000142562 0 -6.96667e-05)
(-0.0001283 0 -4.88409e-05)
(-8.74722e-05 0 -3.82139e-05)
(-5.04962e-05 0 -7.23279e-06)
(2.56381e-06 0 -1.95011e-05)
(4.84408e-05 0 -9.11616e-06)
(0.000107929 0 -3.82498e-06)
(0.000126893 0 3.12745e-05)
(0.000172682 0 -8.81831e-06)
(0.000170023 0 -9.98064e-06)
(0.000157251 0 -6.72424e-06)
(0.000141965 0 -1.0129e-05)
(0.000128985 0 -1.02892e-05)
(0.000117914 0 -1.79895e-05)
(0.000108574 0 -2.45296e-05)
(0.000102756 0 -2.32151e-05)
(9.79303e-05 0 -1.87273e-05)
(9.24572e-05 0 -1.4671e-05)
(9.20546e-05 0 -2.15115e-05)
(9.37892e-05 0 -2.7572e-05)
(9.5718e-05 0 -3.65751e-05)
(9.8888e-05 0 -4.08493e-05)
(9.97647e-05 0 -4.62251e-05)
(0.000102736 0 -4.26242e-05)
(0.000102323 0 -4.49001e-05)
(0.000102899 0 -5.08817e-05)
(0.000138226 0 -7.18649e-05)
(9.61663e-05 0 -7.8715e-05)
(7.38528e-05 0 -4.8709e-05)
(0.000250499 0 -2.76647e-05)
(-0.000238131 0 8.99674e-05)
(4.70511e-06 0 0.000122064)
(3.63839e-14 0 2.2398e-13)
(-8.14358e-13 0 5.70933e-14)
(2.15289e-13 0 5.97363e-15)
(2.28878e-13 0 -2.03313e-14)
(2.41423e-13 0 -3.77971e-14)
(2.5722e-13 0 -5.06817e-14)
(2.7625e-13 0 -6.0166e-14)
(2.97695e-13 0 -6.66282e-14)
(3.20613e-13 0 -7.01447e-14)
(3.4406e-13 0 -7.08096e-14)
(3.67142e-13 0 -6.87961e-14)
(3.89049e-13 0 -6.43649e-14)
(4.09083e-13 0 -5.78442e-14)
(4.26665e-13 0 -4.96046e-14)
(4.41345e-13 0 -4.00373e-14)
(4.52808e-13 0 -2.95345e-14)
(4.60865e-13 0 -1.84669e-14)
(4.65437e-13 0 -7.16553e-15)
(4.66537e-13 0 4.08929e-15)
(4.64258e-13 0 1.50722e-14)
(4.58748e-13 0 2.56158e-14)
(4.50193e-13 0 3.56088e-14)
(4.388e-13 0 4.49868e-14)
(4.24791e-13 0 5.3717e-14)
(4.08403e-13 0 6.17856e-14)
(3.89879e-13 0 6.91888e-14)
(3.69459e-13 0 7.59272e-14)
(3.47374e-13 0 8.20012e-14)
(3.23844e-13 0 8.74086e-14)
(2.99082e-13 0 9.21461e-14)
(2.73283e-13 0 9.62148e-14)
(2.46625e-13 0 9.96275e-14)
(2.19258e-13 0 1.02415e-13)
(1.91303e-13 0 1.04627e-13)
(1.62852e-13 0 1.06331e-13)
(1.33982e-13 0 1.07604e-13)
(1.04761e-13 0 1.08522e-13)
(7.52647e-14 0 1.09155e-13)
(4.55816e-14 0 1.09558e-13)
(1.53527e-14 0 1.09762e-13)
(-7.73767e-06 0 8.98509e-05)
(-2.38258e-05 0 9.26246e-05)
(-4.04214e-05 0 9.82029e-05)
(-5.80073e-05 0 0.000106878)
(-7.7045e-05 0 0.000119062)
(-9.76815e-05 0 0.000135524)
(-0.000123623 0 0.000155647)
(-0.00014357 0 0.000186361)
(-0.000176216 0 0.000213911)
(-0.000203962 0 0.000260204)
(-0.00022451 0 0.000328047)
(-0.000257647 0 0.000398836)
(-0.000309469 0 0.0004568)
(-0.000365718 0 0.000492396)
(-0.000420834 0 0.000494697)
(-0.000516757 0 0.000425442)
(-0.000597893 0 0.000326606)
(-0.000654368 0 0.000220484)
(-0.000677083 0 0.000246075)
(-0.000744192 0 0.000153171)
(-0.000773261 0 6.64536e-05)
(-0.000775505 0 -1.37224e-05)
(-0.000773342 0 -9.42421e-05)
(-0.00075043 0 -0.000145897)
(-0.000687772 0 -0.000241785)
(-0.000659321 0 -0.000268338)
(-0.000614547 0 -0.00033625)
(-0.000562959 0 -0.000400977)
(-0.000568431 0 -0.000371768)
(-0.000662319 0 -8.38739e-05)
(-0.000456915 0 -0.000310694)
(-0.000457943 0 -0.000162842)
(-0.000283244 0 -0.00033659)
(-0.000322611 0 -0.000196887)
(-0.000289306 0 -0.000201188)
(-0.000326108 0 -0.000132201)
(-0.000146745 0 -0.000293495)
(-0.000186224 0 -0.000170539)
(-0.000182814 0 -0.000123341)
(-0.000199138 0 -7.14081e-05)
(-0.000184717 0 -7.15152e-05)
(-0.000183018 0 -5.48082e-05)
(-0.000185911 0 -3.60356e-05)
(-0.000190535 0 -3.09638e-05)
(-0.000189212 0 -2.74643e-05)
(-0.000171913 0 -4.15646e-05)
(-0.000166721 0 -5.45357e-05)
(-0.000165094 0 -6.92939e-05)
(-0.000157107 0 -9.17447e-05)
(-0.000115301 0 -0.000120545)
(-8.47213e-05 0 -0.00010681)
(-1.27839e-05 0 -0.000110023)
(2.84611e-05 0 -8.17915e-05)
(7.3491e-05 0 -6.16988e-05)
(0.000117952 0 -4.96597e-05)
(0.000159159 0 -2.39627e-05)
(0.00018693 0 -2.05803e-05)
(0.000193444 0 -1.53983e-05)
(0.000184897 0 -3.70306e-06)
(0.000172982 0 -4.08284e-06)
(0.000160637 0 -8.36636e-06)
(0.000146259 0 -8.2634e-06)
(0.000131121 0 -1.73742e-05)
(0.00012059 0 -2.00335e-05)
(0.000111469 0 -2.05918e-05)
(0.000102753 0 -9.68314e-06)
(9.63666e-05 0 -2.60495e-05)
(9.74881e-05 0 -3.18332e-05)
(9.78465e-05 0 -4.29933e-05)
(9.82041e-05 0 -5.03146e-05)
(9.89981e-05 0 -5.23881e-05)
(9.75788e-05 0 -5.11298e-05)
(9.20958e-05 0 -4.00307e-05)
(6.89618e-05 0 -3.39797e-05)
(1.70128e-05 0 -1.81833e-05)
(-0.000283239 0 -6.20588e-06)
(-0.00035919 0 -1.89404e-05)
(-0.000429057 0 2.96633e-07)
(-0.000534485 0 1.09036e-05)
(4.47452e-06 0 2.8925e-05)
(9.82168e-16 0 1.2946e-14)
(-8.22149e-13 0 6.13147e-15)
(1.90587e-13 0 -1.11247e-14)
(2.07722e-13 0 -3.37897e-14)
(2.24765e-13 0 -5.38612e-14)
(2.44447e-13 0 -7.01441e-14)
(2.67044e-13 0 -8.24977e-14)
(2.91947e-13 0 -9.09393e-14)
(3.18237e-13 0 -9.54529e-14)
(3.44899e-13 0 -9.61386e-14)
(3.7094e-13 0 -9.32301e-14)
(3.95461e-13 0 -8.70871e-14)
(4.17699e-13 0 -7.81643e-14)
(4.37043e-13 0 -6.69688e-14)
(4.5303e-13 0 -5.40272e-14)
(4.65358e-13 0 -3.98634e-14)
(4.73873e-13 0 -2.49739e-14)
(4.78545e-13 0 -9.80346e-15)
(4.79451e-13 0 5.26896e-15)
(4.76744e-13 0 1.99352e-14)
(4.7064e-13 0 3.39608e-14)
(4.61384e-13 0 4.71844e-14)
(4.49231e-13 0 5.95096e-14)
(4.34434e-13 0 7.08897e-14)
(4.1725e-13 0 8.13109e-14)
(3.97933e-13 0 9.07797e-14)
(3.76727e-13 0 9.93145e-14)
(3.53864e-13 0 1.06939e-13)
(3.29563e-13 0 1.13677e-13)
(3.04038e-13 0 1.19551e-13)
(2.77491e-13 0 1.24586e-13)
(2.50115e-13 0 1.28812e-13)
(2.22077e-13 0 1.32275e-13)
(1.93517e-13 0 1.35039e-13)
(1.6454e-13 0 1.37182e-13)
(1.35227e-13 0 1.38793e-13)
(1.05644e-13 0 1.39963e-13)
(7.58546e-14 0 1.40771e-13)
(4.59273e-14 0 1.41285e-13)
(1.54692e-14 0 1.41546e-13)
(-6.36873e-06 0 0.000104309)
(-1.94352e-05 0 0.000107389)
(-3.29746e-05 0 0.000113612)
(-4.68662e-05 0 0.000123282)
(-6.10449e-05 0 0.000137054)
(-7.70217e-05 0 0.000155031)
(-9.20788e-05 0 0.000178837)
(-0.000110685 0 0.000206892)
(-0.000126795 0 0.000244381)
(-0.000150002 0 0.000285289)
(-0.000170435 0 0.000342198)
(-0.000169701 0 0.00042553)
(-0.000163765 0 0.000508842)
(-0.000215912 0 0.000546865)
(-0.000301211 0 0.00053591)
(-0.000331521 0 0.000520667)
(-0.000392917 0 0.000470276)
(-0.000518524 0 0.000286003)
(-0.000526168 0 0.000168929)
(-0.000504661 0 0.000151199)
(-0.000512357 0 0.000121995)
(-0.000546829 0 -5.89055e-05)
(-0.000545198 0 -0.000120523)
(-0.000519171 0 -0.000200323)
(-0.000489333 0 -0.000233147)
(-0.000500679 0 -0.000238237)
(-0.000473414 0 -0.000310383)
(-0.000458356 0 -0.000351445)
(-0.000401371 0 -0.00040521)
(-0.000332874 0 -0.000414649)
(-0.000343454 0 -0.000307708)
(-0.000307084 0 -0.000299285)
(-0.000302653 0 -0.000258053)
(-0.000225126 0 -0.000281085)
(-0.000206837 0 -0.000262089)
(-0.000102655 0 -0.000313624)
(-0.000149498 0 -0.000206566)
(-0.000181199 0 -0.000141325)
(-0.000227154 0 -7.93672e-05)
(-0.000211411 0 -7.89906e-05)
(-0.000219168 0 -4.98991e-05)
(-0.000218838 0 -3.97069e-05)
(-0.000219706 0 3.94503e-06)
(-0.000202764 0 -2.71451e-05)
(-0.000201388 0 -1.03142e-05)
(-0.000199365 0 -2.62931e-05)
(-0.00020414 0 -3.96556e-05)
(-0.000201895 0 -6.76552e-05)
(-0.000190308 0 -0.000101722)
(-0.000155427 0 -0.000124095)
(-0.000101845 0 -0.000139066)
(-4.60628e-05 0 -0.000146143)
(4.94101e-05 0 -0.000134194)
(0.000101839 0 -9.22839e-05)
(0.000132556 0 -6.52326e-05)
(0.000160732 0 -6.23513e-05)
(0.000191384 0 -3.32204e-05)
(0.000192195 0 5.11118e-06)
(0.000181486 0 7.24935e-06)
(0.0001705 0 1.21283e-05)
(0.00016228 0 1.21655e-05)
(0.000149465 0 5.61182e-06)
(0.000134143 0 -4.80586e-06)
(0.000122793 0 -9.81732e-06)
(0.000113462 0 -5.45553e-06)
(0.000102918 0 -9.86171e-06)
(9.75207e-05 0 -1.85197e-05)
(9.42606e-05 0 -3.20509e-05)
(9.32853e-05 0 -3.31182e-05)
(8.7484e-05 0 -4.39909e-05)
(9.03293e-05 0 -4.7374e-05)
(9.38049e-05 0 -5.69103e-05)
(0.000103227 0 -2.65368e-05)
(0.000106158 0 7.99152e-06)
(0.000130159 0 4.88239e-05)
(7.27742e-05 0 7.37853e-05)
(-2.47003e-06 0 5.63883e-05)
(0.000138216 0 -8.48283e-06)
(-0.000622374 0 -0.000140925)
(4.71444e-06 0 -0.000118823)
(-3.44691e-14 0 1.31409e-13)
(-7.93817e-13 0 1.01232e-14)
(1.75835e-13 0 -2.27733e-14)
(1.86603e-13 0 -4.98034e-14)
(2.05402e-13 0 -7.35512e-14)
(2.28687e-13 0 -9.34009e-14)
(2.55455e-13 0 -1.08719e-13)
(2.8474e-13 0 -1.19168e-13)
(3.15414e-13 0 -1.24589e-13)
(3.46283e-13 0 -1.25075e-13)
(3.76193e-13 0 -1.20936e-13)
(4.04115e-13 0 -1.12656e-13)
(4.29201e-13 0 -1.00849e-13)
(4.50802e-13 0 -8.61936e-14)
(4.6845e-13 0 -6.93795e-14)
(4.81861e-13 0 -5.10796e-14)
(4.90925e-13 0 -3.19278e-14)
(4.9568e-13 0 -1.24923e-14)
(4.96276e-13 0 6.74237e-15)
(4.9295e-13 0 2.5382e-14)
(4.85997e-13 0 4.31229e-14)
(4.75742e-13 0 5.97512e-14)
(4.62506e-13 0 7.51372e-14)
(4.46593e-13 0 8.92206e-14)
(4.28293e-13 0 1.01992e-13)
(4.07883e-13 0 1.13478e-13)
(3.85618e-13 0 1.23725e-13)
(3.61736e-13 0 1.32792e-13)
(3.36457e-13 0 1.40744e-13)
(3.0999e-13 0 1.47638e-13)
(2.82543e-13 0 1.53532e-13)
(2.54314e-13 0 1.58483e-13)
(2.25485e-13 0 1.62552e-13)
(1.9621e-13 0 1.65817e-13)
(1.66607e-13 0 1.68365e-13)
(1.36762e-13 0 1.70293e-13)
(1.06739e-13 0 1.71701e-13)
(7.65873e-14 0 1.72678e-13)
(4.63562e-14 0 1.73299e-13)
(1.56135e-14 0 1.73613e-13)
(-4.76543e-06 0 0.00011564)
(-1.41291e-05 0 0.000118965)
(-2.42703e-05 0 0.000125597)
(-3.39763e-05 0 0.000135939)
(-4.59608e-05 0 0.000149549)
(-5.47195e-05 0 0.000168264)
(-6.49635e-05 0 0.000192321)
(-7.50331e-05 0 0.000221485)
(-8.82105e-05 0 0.000256805)
(-9.18975e-05 0 0.000302571)
(-9.36395e-05 0 0.000353379)
(-0.000104948 0 0.000416415)
(-7.58562e-05 0 0.000506397)
(-2.94851e-05 0 0.000572575)
(-5.71639e-05 0 0.000581347)
(-6.97784e-05 0 0.000544798)
(-6.21473e-05 0 0.000505031)
(-0.000121396 0 0.000412495)
(-0.000167572 0 0.00031306)
(-0.000344239 0 0.000154912)
(-0.000376423 0 5.4722e-05)
(-0.000361417 0 -8.25235e-05)
(-0.000311152 0 -0.00010852)
(-0.000299076 0 -0.000164266)
(-0.000261781 0 -0.000256329)
(-0.000301909 0 -0.00028203)
(-0.000259864 0 -0.000381776)
(-0.000240658 0 -0.0004128)
(-0.000219198 0 -0.000397741)
(-0.000272583 0 -0.000339807)
(-0.000251532 0 -0.000325127)
(-0.000210781 0 -0.0003281)
(-0.000160854 0 -0.000356382)
(-0.000160433 0 -0.000317478)
(-0.000102082 0 -0.00027845)
(-0.000149691 0 -0.000207629)
(-0.00020842 0 -0.000142695)
(-0.000222499 0 -0.000107607)
(-0.000225519 0 -9.07889e-05)
(-0.000211399 0 -8.78038e-05)
(-0.000219583 0 -5.88795e-05)
(-0.000212808 0 -5.17674e-05)
(-0.00020646 0 -4.02766e-05)
(-0.000202852 0 -3.70209e-05)
(-0.000212223 0 -1.31488e-05)
(-0.000217375 0 -2.76675e-05)
(-0.000232829 0 -3.85546e-05)
(-0.000237343 0 -8.76166e-05)
(-0.000229787 0 -0.000126487)
(-0.000153176 0 -0.000200936)
(-0.000106451 0 -0.000206769)
(8.92547e-07 0 -0.000224419)
(7.27363e-05 0 -0.000201375)
(0.0001422 0 -0.000163166)
(0.000194457 0 -8.14264e-05)
(0.000211996 0 -6.34204e-05)
(0.000214181 0 -2.17628e-05)
(0.000200862 0 1.17662e-05)
(0.000184102 0 2.00697e-05)
(0.000170892 0 2.58704e-05)
(0.000159904 0 2.12534e-05)
(0.000145059 0 1.81928e-05)
(0.000126689 0 6.30072e-06)
(0.000109947 0 -1.96714e-06)
(0.000100567 0 1.73698e-06)
(9.4543e-05 0 2.17204e-06)
(8.8503e-05 0 -5.21046e-06)
(7.89412e-05 0 -1.66575e-05)
(6.69845e-05 0 -3.03339e-05)
(5.81131e-05 0 -4.89462e-05)
(6.67886e-05 0 -6.00896e-05)
(7.07457e-05 0 -7.03526e-05)
(7.90253e-05 0 -4.79717e-05)
(0.000100277 0 -1.28779e-05)
(0.000135205 0 3.06605e-05)
(0.000165196 0 6.87236e-05)
(0.000179701 0 7.42665e-05)
(0.00026659 0 8.71438e-05)
(-0.000255568 0 5.24127e-05)
(4.43936e-06 0 -5.61857e-05)
(1.89555e-14 0 6.82122e-14)
(-9.2756e-13 0 -1.59571e-14)
(1.31126e-13 0 -4.01789e-14)
(1.57404e-13 0 -6.89811e-14)
(1.81494e-13 0 -9.68771e-14)
(2.09378e-13 0 -1.20937e-13)
(2.41277e-13 0 -1.39637e-13)
(2.76077e-13 0 -1.52237e-13)
(3.12329e-13 0 -1.58448e-13)
(3.48551e-13 0 -1.58401e-13)
(3.8336e-13 0 -1.5253e-13)
(4.15548e-13 0 -1.41499e-13)
(4.44161e-13 0 -1.26135e-13)
(4.68512e-13 0 -1.0734e-13)
(4.88144e-13 0 -8.60082e-14)
(5.0281e-13 0 -6.299e-14)
(5.1246e-13 0 -3.90682e-14)
(5.17216e-13 0 -1.49401e-14)
(5.17325e-13 0 8.80385e-15)
(5.13124e-13 0 3.1687e-14)
(5.05009e-13 0 5.33442e-14)
(4.93399e-13 0 7.35175e-14)
(4.787e-13 0 9.20499e-14)
(4.61289e-13 0 1.08872e-13)
(4.41508e-13 0 1.23986e-13)
(4.19665e-13 0 1.3744e-13)
(3.96041e-13 0 1.4932e-13)
(3.70883e-13 0 1.59731e-13)
(3.44409e-13 0 1.68782e-13)
(3.16827e-13 0 1.76579e-13)
(2.88336e-13 0 1.8322e-13)
(2.59135e-13 0 1.88792e-13)
(2.29412e-13 0 1.93381e-13)
(1.99329e-13 0 1.97076e-13)
(1.69016e-13 0 1.99976e-13)
(1.38563e-13 0 2.02183e-13)
(1.08029e-13 0 2.03802e-13)
(7.74531e-14 0 2.0493e-13)
(4.68615e-14 0 2.05647e-13)
(1.57824e-14 0 2.06005e-13)
(-3.46003e-06 0 0.000123897)
(-1.04378e-05 0 0.000127223)
(-1.67875e-05 0 0.000133762)
(-2.42269e-05 0 0.000144368)
(-2.80313e-05 0 0.000159309)
(-4.01759e-05 0 0.000176976)
(-4.79448e-05 0 0.000199159)
(-5.13703e-05 0 0.000226969)
(-5.06392e-05 0 0.00026198)
(-5.27451e-05 0 0.000303418)
(-3.84339e-05 0 0.000352735)
(-2.18944e-05 0 0.000403548)
(-4.03467e-06 0 0.000468536)
(2.61307e-05 0 0.000544067)
(0.00010777 0 0.000571608)
(7.20872e-05 0 0.00055074)
(8.13501e-05 0 0.000505646)
(6.63425e-05 0 0.000434089)
(2.86944e-05 0 0.000358416)
(9.97932e-05 0 0.000284637)
(4.30139e-05 0 0.000182621)
(1.48488e-05 0 6.06337e-05)
(-2.33994e-06 0 -5.65282e-05)
(-9.64796e-05 0 -0.000160397)
(-0.000104675 0 -0.0002292)
(-0.000110416 0 -0.000295901)
(-0.000108093 0 -0.000358997)
(-0.000112221 0 -0.00038612)
(-0.000125456 0 -0.000376192)
(-0.000158581 0 -0.000382759)
(-0.000104241 0 -0.000399679)
(-4.30575e-05 0 -0.000362116)
(3.5003e-05 0 -0.000318026)
(-0.000103866 0 -0.000273759)
(-0.000164234 0 -0.000209297)
(-0.000226648 0 -0.000148088)
(-0.000234515 0 -0.000119237)
(-0.000201406 0 -0.000113583)
(-0.000195547 0 -9.08694e-05)
(-0.000188275 0 -7.72811e-05)
(-0.00020357 0 -4.27598e-05)
(-0.000208899 0 -3.15371e-05)
(-0.000209898 0 -2.59257e-05)
(-0.000207727 0 -2.39621e-05)
(-0.000215206 0 4.89249e-06)
(-0.000222067 0 -1.58322e-05)
(-0.000259728 0 -2.26431e-05)
(-0.0002923 0 -6.52652e-05)
(-0.000272135 0 -0.000136163)
(-0.000185675 0 -0.0002332)
(-6.8859e-05 0 -0.000302365)
(1.50031e-05 0 -0.000307508)
(0.000145081 0 -0.00026364)
(0.000189425 0 -0.000224221)
(0.00024505 0 -9.72298e-05)
(0.000273266 0 -7.23562e-05)
(0.000280265 0 -6.96164e-06)
(0.000244076 0 3.1918e-05)
(0.00019393 0 5.01123e-05)
(0.000168181 0 5.04473e-05)
(0.000151114 0 5.15032e-05)
(0.0001354 0 3.74377e-05)
(0.000114544 0 2.62403e-05)
(9.76122e-05 0 1.92841e-05)
(8.70268e-05 0 1.65827e-05)
(7.9e-05 0 1.08827e-05)
(7.09891e-05 0 2.19726e-06)
(6.01455e-05 0 -9.5429e-06)
(4.8428e-05 0 -1.74728e-05)
(3.4044e-05 0 -3.68809e-05)
(3.89548e-05 0 -5.38176e-05)
(1.6749e-05 0 -5.69174e-05)
(-4.81767e-06 0 -3.30919e-05)
(-9.05662e-06 0 4.30269e-06)
(4.20129e-05 0 2.44672e-05)
(0.000101038 0 4.91273e-06)
(0.000159235 0 -3.88977e-06)
(0.000282599 0 2.09879e-05)
(-2.50949e-05 0 8.19451e-05)
(4.56747e-06 0 4.80646e-05)
(1.27357e-14 0 6.25044e-14)
(-8.35367e-13 0 -2.47654e-14)
(1.23274e-13 0 -5.29131e-14)
(1.30361e-13 0 -8.89569e-14)
(1.53765e-13 0 -1.23777e-13)
(1.86019e-13 0 -1.53579e-13)
(2.24155e-13 0 -1.76456e-13)
(2.65929e-13 0 -1.91465e-13)
(3.0925e-13 0 -1.983e-13)
(3.52201e-13 0 -1.97226e-13)
(3.93095e-13 0 -1.88903e-13)
(4.3051e-13 0 -1.74264e-13)
(4.63361e-13 0 -1.54421e-13)
(4.90929e-13 0 -1.3057e-13)
(5.128e-13 0 -1.03875e-13)
(5.28801e-13 0 -7.54001e-14)
(5.38975e-13 0 -4.60955e-14)
(5.43552e-13 0 -1.67872e-14)
(5.42903e-13 0 1.18345e-14)
(5.3749e-13 0 3.92224e-14)
(5.27828e-13 0 6.49668e-14)
(5.14448e-13 0 8.8785e-14)
(4.97861e-13 0 1.1051e-13)
(4.78528e-13 0 1.30074e-13)
(4.56861e-13 0 1.47497e-13)
(4.33217e-13 0 1.6286e-13)
(4.07909e-13 0 1.76289e-13)
(3.81198e-13 0 1.87938e-13)
(3.53305e-13 0 1.97971e-13)
(3.24429e-13 0 2.06548e-13)
(2.94756e-13 0 2.13812e-13)
(2.64475e-13 0 2.19888e-13)
(2.33769e-13 0 2.2489e-13)
(2.02804e-13 0 2.28925e-13)
(1.71713e-13 0 2.32102e-13)
(1.40589e-13 0 2.3453e-13)
(1.09487e-13 0 2.36319e-13)
(7.84324e-14 0 2.37569e-13)
(4.74304e-14 0 2.38362e-13)
(1.5971e-14 0 2.38753e-13)
(-1.48606e-06 0 0.000129383)
(-3.97154e-06 0 0.000132967)
(-7.39709e-06 0 0.000139835)
(-1.30228e-05 0 0.000149946)
(-1.5732e-05 0 0.000164167)
(-1.24652e-05 0 0.000182694)
(-9.18905e-06 0 0.000205143)
(-1.55635e-05 0 0.000230761)
(-1.63215e-05 0 0.000261837)
(-9.31156e-06 0 0.000297699)
(-2.35747e-06 0 0.000339995)
(2.41081e-05 0 0.00038597)
(5.40263e-05 0 0.000430634)
(9.83511e-05 0 0.00048237)
(0.000137107 0 0.000538891)
(0.000197663 0 0.000538123)
(0.00019288 0 0.000510193)
(0.000186191 0 0.000449168)
(0.000175142 0 0.00036025)
(0.000182919 0 0.00026165)
(0.000146603 0 0.000176698)
(0.000140827 0 7.07158e-05)
(0.000135879 0 -5.9228e-05)
(6.64164e-05 0 -0.000147177)
(5.72754e-05 0 -0.000218581)
(5.2747e-05 0 -0.000282811)
(1.98516e-05 0 -0.00033239)
(2.47621e-05 0 -0.000373595)
(-4.65127e-05 0 -0.000378579)
(4.76048e-05 0 -0.000392324)
(1.03906e-07 0 -0.000381634)
(-2.97851e-05 0 -0.000332367)
(-8.94103e-05 0 -0.000267885)
(-0.000148942 0 -0.000234123)
(-0.000221072 0 -0.000166621)
(-0.000167031 0 -0.00018421)
(-0.000171331 0 -0.000156653)
(-0.000172505 0 -0.000132407)
(-0.000187467 0 -9.17345e-05)
(-0.000177479 0 -8.00154e-05)
(-0.000186006 0 -4.93141e-05)
(-0.000181036 0 -4.98197e-05)
(-0.000186454 0 -3.60611e-05)
(-0.000189215 0 -2.40051e-05)
(-0.000196164 0 -6.40903e-06)
(-0.000217759 0 2.46735e-05)
(-0.000269218 0 9.61992e-06)
(-0.000319029 0 -2.59412e-05)
(-0.000248944 0 -0.00025277)
(-0.00010414 0 -0.000402314)
(-4.10154e-05 0 -0.000423367)
(5.6679e-05 0 -0.000415642)
(0.000187431 0 -0.000343122)
(0.000181259 0 -0.000324406)
(0.00031065 0 -0.000109394)
(0.000257813 0 -0.000216818)
(0.000332916 0 5.21435e-05)
(0.00030811 0 8.12171e-05)