/*--------------------------------*- C++ -*----------------------------------*\
  =========                 |
  \\      /  F ield         | OpenFOAM: The Open Source CFD Toolbox
   \\    /   O peration     | Website:  https://openfoam.org
    \\  /    A nd           | Version:  6
     \\/     M anipulation  |
\*---------------------------------------------------------------------------*/
FoamFile
{
    version     2.0;
    format      ascii;
    class       surfaceScalarField;
    location    "4900";
    object      phi;
}
// * * * * * * * * * * * * * * * * * * * * * * * * * * * * * * * * * * * * * //

dimensions      [0 3 -1 0 0 0 0];

internalField   nonuniform List<scalar> 
9440
(
7.12866e-11
-7.12866e-11
1.3393e-10
-6.26432e-11
1.55858e-10
-2.19284e-11
1.63418e-10
-7.55967e-12
8.21392e-11
8.12786e-11
-1.05492e-10
1.87631e-10
-4.85335e-10
3.79843e-10
-7.91612e-10
3.06277e-10
-1.09174e-09
3.0013e-10
-1.20556e-09
1.13813e-10
-1.31756e-09
1.12007e-10
-1.34801e-09
3.04503e-11
-1.33967e-09
-8.34583e-12
-1.29953e-09
-4.01419e-11
-1.22627e-09
-7.3254e-11
-1.14728e-09
-7.89888e-11
-1.13755e-09
-9.73306e-12
-1.00582e-09
-1.31727e-10
-8.92925e-10
-1.12899e-10
-9.03384e-10
1.04593e-11
-7.50222e-10
-1.53162e-10
-6.19484e-10
-1.30739e-10
-4.63827e-10
-1.55657e-10
-2.96085e-10
-1.67742e-10
-2.12077e-10
-8.40091e-11
-7.41043e-12
-2.04666e-10
1.90986e-10
-1.98396e-10
2.34521e-10
-4.35352e-11
6.86143e-10
-4.51622e-10
1.08753e-09
-4.01391e-10
1.36932e-09
-2.81788e-10
1.41303e-09
-4.37089e-11
1.78397e-09
-3.7094e-10
2.10045e-09
-3.16483e-10
2.36363e-09
-2.63175e-10
2.40628e-09
-4.26535e-11
2.36011e-09
4.61741e-11
2.18846e-09
1.71656e-10
1.92914e-09
2.5932e-10
1.68185e-09
2.47292e-10
1.47598e-09
2.05866e-10
1.35496e-09
1.21027e-10
1.28044e-09
7.45163e-11
1.14531e-09
1.35134e-10
9.4389e-10
2.01418e-10
7.29714e-10
2.14177e-10
5.91109e-10
1.38605e-10
5.7437e-10
1.67401e-11
6.0542e-10
-3.10493e-11
7.13703e-10
-1.08283e-10
8.28478e-10
-1.14774e-10
1.12192e-09
-2.93443e-10
1.25272e-09
-1.30798e-10
1.31055e-09
-5.78241e-11
1.54308e-09
-2.32538e-10
1.79963e-09
-2.5655e-10
2.00037e-09
-2.00739e-10
2.04514e-09
-4.47627e-11
2.04991e-09
-4.7695e-12
1.98728e-09
6.26282e-11
1.90191e-09
8.53668e-11
1.76025e-09
1.41658e-10
1.58288e-09
1.7737e-10
1.22767e-09
3.5521e-10
8.70889e-10
3.56783e-10
4.51092e-10
4.19797e-10
9.32096e-11
3.57882e-10
-1.69495e-10
2.62704e-10
-3.71658e-10
2.02163e-10
-5.13797e-10
1.42138e-10
-5.54282e-10
4.04848e-11
-5.48573e-10
-5.71014e-12
-5.12413e-10
-3.61601e-11
-4.79969e-10
-3.24454e-11
-4.8706e-10
7.08971e-12
-6.19895e-10
1.32834e-10
-9.56368e-10
3.36472e-10
-1.11137e-09
1.54999e-10
-9.50426e-10
-1.60943e-10
-2.48898e-10
-7.0153e-10
8.89313e-16
-2.48901e-10
-3.84113e-18
1.2957e-18
-3.79399e-18
-4.71466e-20
-3.64528e-18
-1.50239e-19
-3.49602e-18
-1.50978e-19
-3.36365e-18
-1.33991e-19
-3.24355e-18
-1.21554e-19
-3.12529e-18
-1.19594e-19
-2.99772e-18
-1.28855e-19
-2.8514e-18
-1.47628e-19
-2.67978e-18
-1.72957e-19
-2.47911e-18
-2.02049e-19
-2.24859e-18
-2.31948e-19
-1.99007e-18
-2.59935e-19
-1.70762e-18
-2.83739e-19
-1.40702e-18
-3.01644e-19
-1.09521e-18
-3.12525e-19
-7.79731e-19
-3.15834e-19
-4.68274e-19
-3.11531e-19
-1.68159e-19
-2.99997e-19
1.14005e-19
-2.81944e-19
3.72561e-19
-2.58301e-19
6.02922e-19
-2.30103e-19
8.01666e-19
-1.98397e-19
9.66567e-19
-1.64226e-19
1.09648e-18
-1.28624e-19
1.19114e-18
-9.25906e-20
1.25091e-18
-5.7019e-20
1.27677e-18
-2.26351e-20
1.27022e-18
1.00076e-20
1.23329e-18
4.04861e-20
1.1684e-18
6.84571e-20
1.07828e-18
9.36367e-20
9.65864e-19
1.15811e-19
8.34251e-19
1.34853e-19
6.86669e-19
1.50727e-19
5.26392e-19
1.63466e-19
3.56638e-19
1.7315e-19
1.8039e-19
1.79938e-19
1.84323e-19
3.73967e-11
-1.08683e-10
2.7882e-11
-5.31284e-11
2.44678e-11
-1.85142e-11
-1.64385e-10
1.81294e-10
-3.45371e-10
2.62265e-10
-5.38678e-10
3.80938e-10
-7.08237e-10
5.49402e-10
-9.1574e-10
5.1378e-10
-1.01329e-09
3.97685e-10
-1.13031e-09
2.30832e-10
-1.19442e-09
1.76113e-10
-1.19405e-09
3.00812e-11
-1.16946e-09
-3.29396e-11
-1.16817e-09
-4.14349e-11
-1.1344e-09
-1.07024e-10
-1.0912e-09
-1.22182e-10
-1.01948e-09
-8.14605e-11
-9.81563e-10
-1.6964e-10
-9.19626e-10
-1.74837e-10
-8.30833e-10
-7.83343e-11
-6.97105e-10
-2.8689e-10
-5.53061e-10
-2.74784e-10
-3.76051e-10
-3.32667e-10
-1.61522e-10
-3.82272e-10
4.63219e-11
-2.91853e-10
-2.78135e-11
-1.30531e-10
3.96404e-10
-6.22615e-10
3.77516e-10
-2.46465e-11
5.18582e-10
-5.92689e-10
1.03941e-09
-9.22215e-10
1.32869e-09
-5.71068e-10
1.54837e-09
-2.63387e-10
1.90557e-09
-7.28143e-10
2.15221e-09
-5.63122e-10
2.31617e-09
-4.27132e-10
2.46048e-09
-1.86962e-10
2.54362e-09
-3.69694e-11
2.37686e-09
3.38417e-10
2.1654e-09
4.70783e-10
1.85502e-09
5.57673e-10
1.5138e-09
5.47091e-10
1.2955e-09
3.39325e-10
1.13467e-09
2.35346e-10
9.36564e-10
3.33247e-10
7.74711e-10
3.63273e-10
6.79279e-10
3.0961e-10
6.12638e-10
2.05248e-10
5.92982e-10
3.63968e-11
6.79894e-10
-1.1796e-10
7.59097e-10
-1.87484e-10
1.02899e-09
-3.84661e-10
1.15147e-09
-4.15923e-10
1.35884e-09
-3.38173e-10
1.49196e-09
-1.90941e-10
1.69517e-09
-4.35752e-10
1.81883e-09
-3.80202e-10
1.89788e-09
-2.79787e-10
1.97466e-09
-1.21544e-10
1.95946e-09
1.04254e-11
1.9434e-09
7.86912e-11
1.86081e-09
1.67958e-10
1.7094e-09
2.93062e-10
1.50374e-09
3.83032e-10
1.3615e-09
4.97454e-10
1.0944e-09
6.23878e-10
6.73484e-10
8.40713e-10
4.30607e-10
6.00758e-10
1.30276e-10
5.63033e-10
-4.62286e-11
3.78667e-10
-1.42583e-10
2.38492e-10
-1.47224e-10
4.51246e-11
-1.22695e-10
-3.02415e-11
-1.10728e-10
-4.81287e-11
-7.45796e-11
-6.85953e-11
-3.46564e-11
-3.28356e-11
7.25567e-11
2.56191e-11
2.60616e-10
1.4841e-10
4.79572e-10
-6.39594e-11
4.35266e-10
-1.1664e-10
2.13016e-10
-4.79283e-10
5.51726e-16
-3.58883e-11
-4.39334e-18
8.75998e-19
-3.90689e-18
-5.35369e-19
-3.65363e-18
-4.06207e-19
-3.48466e-18
-3.22603e-19
-3.35507e-18
-2.6609e-19
-3.24388e-18
-2.35126e-19
-3.13542e-18
-2.30356e-19
-3.01648e-18
-2.50083e-19
-2.87673e-18
-2.89762e-19
-2.70887e-18
-3.43269e-19
-2.50901e-18
-4.04389e-19
-2.27658e-18
-4.66762e-19
-2.01387e-18
-5.24755e-19
-1.72553e-18
-5.73773e-19
-1.41791e-18
-6.10422e-19
-1.09852e-18
-6.3253e-19
-7.75428e-19
-6.39086e-19
-4.5674e-19
-6.30083e-19
-1.50106e-19
-6.06341e-19
1.37648e-19
-5.69296e-19
4.0076e-19
-5.20796e-19
6.34627e-19
-4.62928e-19
8.35837e-19
-3.97908e-19
1.00217e-18
-3.28009e-19
1.13252e-18
-2.55455e-19
1.22671e-18
-1.82286e-19
1.2853e-18
-1.10246e-19
1.30941e-18
-4.07497e-20
1.3007e-18
2.50821e-20
1.26126e-18
8.63676e-20
1.19358e-18
1.42431e-19
1.10045e-18
1.92789e-19
9.84906e-19
2.37142e-19
8.50126e-19
2.75332e-19
6.99408e-19
3.07295e-19
5.36076e-19
3.3301e-19
3.63426e-19
3.52453e-19
1.84775e-19
3.65575e-19
3.72173e-19
1.0934e-11
-1.19617e-10
-3.12524e-11
-1.0942e-11
-7.79397e-11
2.81731e-11
-2.30591e-10
3.33945e-10
-5.12345e-10
5.44018e-10
-7.59641e-10
6.28234e-10
-9.07474e-10
6.97235e-10
-9.84708e-10
5.91013e-10
-9.78608e-10
3.91585e-10
-1.03583e-09
2.88057e-10
-1.04553e-09
1.85815e-10
-1.02753e-09
1.20737e-11
-9.72372e-10
-8.80948e-11
-9.89726e-10
-2.40812e-11
-9.96138e-10
-1.00613e-10
-1.01758e-09
-1.0074e-10
-9.69135e-10
-1.29906e-10
-9.44503e-10
-1.94274e-10
-9.33501e-10
-1.85839e-10
-7.86724e-10
-2.25111e-10
-6.43833e-10
-4.29782e-10
-4.64905e-10
-4.53713e-10
-3.5073e-10
-4.46843e-10
-2.46634e-10
-4.86368e-10
5.32857e-12
-5.43816e-10
2.00064e-10
-3.25267e-10
5.48655e-10
-9.71206e-10
1.06944e-09
-5.45436e-10
1.06717e-09
-5.90414e-10
1.14376e-09
-9.98806e-10
1.29244e-09
-7.19749e-10
1.62436e-09
-5.95303e-10
1.84563e-09
-9.49414e-10
2.15029e-09
-8.6778e-10
2.25083e-09
-5.2767e-10
2.33834e-09
-2.74475e-10
2.47238e-09
-1.71009e-10
2.33943e-09
4.71373e-10
2.15461e-09
6.55607e-10
1.91204e-09
8.00242e-10
1.67156e-09
7.87568e-10
1.40179e-09
6.09102e-10
1.14766e-09
4.89478e-10
9.23932e-10
5.56975e-10
7.3359e-10
5.53615e-10
6.52952e-10
3.9025e-10
6.73316e-10
1.84885e-10
6.84397e-10
2.53169e-11
7.7276e-10
-2.06322e-10
9.32322e-10
-3.47045e-10
9.18212e-10
-3.7055e-10
1.17943e-09
-6.77144e-10
1.36808e-09
-5.26815e-10
1.56373e-09
-3.86594e-10
1.65742e-09
-5.2944e-10
1.73894e-09
-4.61718e-10
1.76675e-09
-3.076e-10
1.83405e-09
-1.88846e-10
1.81837e-09
2.6109e-11
1.78016e-09
1.16903e-10
1.70225e-09
2.45868e-10
1.57431e-09
4.20998e-10
1.3781e-09
5.79243e-10
1.20477e-09
6.70786e-10
9.02263e-10
9.26384e-10
6.91273e-10
1.0517e-09
4.58276e-10
8.33755e-10
2.64709e-10
7.56599e-10
1.64223e-10
4.79152e-10
1.28883e-10
2.73831e-10
8.30654e-11
9.09406e-11
9.49621e-11
-4.21397e-11
1.49423e-10
-1.02591e-10
2.21303e-10
-1.40477e-10
2.84198e-10
-9.57331e-11
4.18349e-10
-1.08533e-10
6.13479e-10
-4.67219e-11
6.84295e-10
-1.34777e-10
6.54372e-10
-8.67185e-11
3.71005e-10
-1.95918e-10
3.06519e-16
3.35115e-10
-4.14938e-18
9.35078e-19
-3.77692e-18
-9.09071e-19
-3.56925e-18
-6.15781e-19
-3.4274e-18
-4.6644e-19
-3.32339e-18
-3.72093e-19
-3.23842e-18
-3.22063e-19
-3.15448e-18
-3.16235e-19
-3.05577e-18
-3.50773e-19
-2.93023e-18
-4.17346e-19
-2.76999e-18
-5.05594e-19
-2.57139e-18
-6.05023e-19
-2.33457e-18
-7.05454e-19
-2.06289e-18
-7.9807e-19
-1.76218e-18
-8.75809e-19
-1.44001e-18
-9.33544e-19
-1.10507e-18
-9.68085e-19
-7.66425e-19
-9.78041e-19
-4.32998e-19
-9.63578e-19
-1.13061e-19
-9.26128e-19
1.86148e-19
-8.68098e-19
4.58628e-19
-7.92546e-19
6.99647e-19
-7.02868e-19
9.05736e-19
-6.02562e-19
1.07472e-18
-4.95095e-19
1.20569e-18
-3.83819e-19
1.29875e-18
-2.71833e-19
1.35479e-18
-1.61846e-19
1.37525e-18
-5.60722e-20
1.36199e-18
4.37817e-20
1.31732e-18
1.36458e-19
1.24394e-18
2.21066e-19
1.14481e-18
2.96999e-19
1.0231e-18
3.6387e-19
8.82089e-19
4.2145e-19
7.25122e-19
4.69606e-19
5.5552e-19
5.08259e-19
3.76547e-19
5.37342e-19
1.91373e-19
5.56772e-19
5.66455e-19
-9.31905e-11
-2.64268e-11
-2.2934e-10
1.25208e-10
-4.74472e-10
2.73305e-10
-6.24389e-10
4.83861e-10
-8.2861e-10
7.48239e-10
-9.77582e-10
7.77206e-10
-1.02298e-09
7.42637e-10
-9.84376e-10
5.52406e-10
-9.75207e-10
3.82415e-10
-9.73885e-10
2.86735e-10
-9.78099e-10
1.90028e-10
-9.49318e-10
-1.6707e-11
-9.4342e-10
-9.39933e-11
-9.46034e-10
-2.14671e-11
-9.54018e-10
-9.26294e-11
-9.5935e-10
-9.54085e-11
-9.71147e-10
-1.18109e-10
-1.01403e-09
-1.51392e-10
-9.62201e-10
-2.37668e-10
-8.41277e-10
-3.46036e-10
-6.26396e-10
-6.44663e-10
-4.52514e-10
-6.27595e-10
-2.03531e-10
-6.95826e-10
1.83643e-10
-8.73543e-10
4.07543e-10
-7.67716e-10
1.0158e-09
-9.33523e-10
1.11423e-09
-1.06964e-09
1.39504e-09
-8.26248e-10
1.52315e-09
-7.18523e-10
1.48328e-09
-9.58933e-10
1.75164e-09
-9.88107e-10
2.01193e-09
-8.55601e-10
2.0227e-09
-9.60182e-10
2.02021e-09
-8.65289e-10
2.20371e-09
-7.11165e-10
2.28862e-09
-3.59386e-10
2.29477e-09
-1.77159e-10
2.25944e-09
5.06707e-10
2.1368e-09
7.78254e-10
1.97678e-09
9.60258e-10
1.70607e-09
1.05828e-09
1.39909e-09
9.16082e-10
1.09626e-09
7.92309e-10
9.09441e-10
7.43799e-10
7.75084e-10
6.87973e-10
6.83627e-10
4.81707e-10
7.27161e-10
1.41352e-10
7.95796e-10
-4.33174e-11
8.15451e-10
-2.25976e-10
9.98205e-10
-5.29798e-10
1.01182e-09
-3.84163e-10
9.56986e-10
-6.2231e-10
1.07211e-09
-6.41942e-10
1.27377e-09
-5.88251e-10
1.35844e-09
-6.14109e-10
1.39594e-09
-4.99217e-10
1.458e-09
-3.69659e-10
1.5372e-09
-2.68046e-10
1.56838e-09
-5.0695e-12
1.53314e-09
1.52141e-10
1.49224e-09
2.86773e-10
1.39109e-09
5.22143e-10
1.24761e-09
7.22724e-10
1.02333e-09
8.95069e-10
8.65965e-10
1.08375e-09
7.54961e-10
1.16271e-09
5.34554e-10
1.05416e-09
4.36902e-10
8.5425e-10
3.70571e-10
5.45482e-10
3.26706e-10
3.17695e-10
3.37574e-10
8.00711e-11
3.30373e-10
-3.49396e-11
3.57608e-10
-1.29828e-10
4.74722e-10
-2.57593e-10
5.66345e-10
-1.87358e-10
6.27712e-10
-1.69901e-10
6.65235e-10
-8.4246e-11
5.86004e-10
-5.55473e-11
5.31971e-10
-3.26872e-11
4.52479e-10
-1.16427e-10
1.85683e-16
7.87593e-10
-3.28192e-18
3.6339e-18
-3.48285e-18
-7.09131e-19
-3.41914e-18
-6.81009e-19
-3.33231e-18
-5.54979e-19
-3.27265e-18
-4.33601e-19
-3.23191e-18
-3.64702e-19
-3.18836e-18
-3.61632e-19
-3.12199e-18
-4.18973e-19
-3.01848e-18
-5.2266e-19
-2.86942e-18
-6.56404e-19
-2.67182e-18
-8.0427e-19
-2.42718e-18
-9.51589e-19
-2.14063e-18
-1.08596e-18
-1.81991e-18
-1.19766e-18
-1.47456e-18
-1.27979e-18
-1.11503e-18
-1.32821e-18
-7.51962e-19
-1.34138e-18
-3.95548e-19
-1.31994e-18
-5.50307e-20
-1.26629e-18
2.61699e-19
-1.18412e-18
5.48306e-19
-1.07802e-18
7.99954e-19
-9.52935e-19
1.0132e-18
-8.13889e-19
1.186e-18
-6.65723e-19
1.31767e-18
-5.13002e-19
1.40874e-18
-3.59896e-19
1.46057e-18
-2.10024e-19
1.4751e-18
-6.63337e-20
1.45466e-18
6.89247e-20
1.40193e-18
1.94133e-19
1.31987e-18
3.08177e-19
1.21168e-18
4.10321e-19
1.08067e-18
5.00102e-19
9.30246e-19
5.77249e-19
7.63775e-19
6.41618e-19
5.84602e-19
6.93139e-19
3.95978e-19
7.31774e-19
2.01056e-19
7.57501e-19
7.7031e-19
-4.11047e-12
-2.23163e-11
-6.81157e-11
1.89213e-10
-3.92711e-10
5.979e-10
-7.07115e-10
7.98266e-10
-8.48878e-10
8.90001e-10
-9.42326e-10
8.70655e-10
-9.73839e-10
7.7415e-10
-9.23701e-10
5.02267e-10
-9.103e-10
3.69014e-10
-8.81767e-10
2.58202e-10
-9.31288e-10
2.39549e-10
-9.61273e-10
1.3278e-11
-9.9542e-10
-5.98465e-11
-9.71443e-10
-4.54448e-11
-9.9018e-10
-7.38931e-11
-9.60977e-10
-1.24611e-10
-9.63472e-10
-1.15615e-10
-9.2447e-10
-1.90394e-10
-7.88122e-10
-3.74017e-10
-5.85157e-10
-5.49001e-10
-3.12933e-10
-9.16888e-10
-1.75985e-11
-9.2293e-10
3.75555e-10
-1.08898e-09
6.86582e-10
-1.18457e-09
1.05961e-09
-1.14075e-09
1.33039e-09
-1.20431e-09
1.38151e-09
-1.12076e-09
1.58742e-09
-1.03216e-09
1.80758e-09
-9.38683e-10
1.73753e-09
-8.88884e-10
1.84986e-09
-1.10044e-09
1.98616e-09
-9.91895e-10
2.01345e-09
-9.87471e-10
2.03086e-09
-8.827e-10
2.14275e-09
-8.23055e-10
2.22682e-09
-4.4346e-10
2.15844e-09
-1.08772e-10
2.10624e-09
5.58905e-10
2.0207e-09
8.63795e-10
1.85428e-09
1.12668e-09
1.67528e-09
1.23728e-09
1.43336e-09
1.15801e-09
1.14135e-09
1.08432e-09
9.98269e-10
8.86877e-10
8.98631e-10
7.87613e-10
8.42276e-10
5.38064e-10
8.08173e-10
1.75456e-10
8.90471e-10
-1.25614e-10
9.06556e-10
-2.4206e-10
7.71375e-10
-3.94615e-10
9.31291e-10
-5.44078e-10
8.83451e-10
-5.74469e-10
8.87258e-10
-6.45749e-10
9.22173e-10
-6.23165e-10
9.58898e-10
-6.50834e-10
1.0495e-09
-5.89816e-10
1.16864e-09
-4.88802e-10
1.24988e-09
-3.49283e-10
1.30369e-09
-5.88837e-11
1.26048e-09
1.95351e-10
1.14116e-09
4.061e-10
1.08928e-09
5.74019e-10
9.43959e-10
8.68047e-10
7.80461e-10
1.05857e-09
6.53819e-10
1.21039e-09
5.27664e-10
1.28886e-09
4.41382e-10
1.14044e-09
4.432e-10
8.52431e-10
4.25875e-10
5.62806e-10
4.59439e-10
2.84129e-10
4.92139e-10
4.73699e-11
5.05778e-10
-4.85807e-11
5.1643e-10
-1.40481e-10
6.02585e-10
-3.4375e-10
6.9712e-10
-2.81894e-10
7.2059e-10
-1.93373e-10
7.23109e-10
-8.67655e-11
7.09362e-10
-4.18015e-11
6.64315e-10
1.23587e-11
5.18827e-10
2.90604e-11
2.17017e-16
1.30642e-09
-3.57011e-18
5.6461e-18
-3.45391e-18
-8.26108e-19
-3.29234e-18
-8.43987e-19
-3.2102e-18
-6.38735e-19
-3.20305e-18
-4.42522e-19
-3.22816e-18
-3.41404e-19
-3.24506e-18
-3.46422e-19
-3.22539e-18
-4.4019e-19
-3.15223e-18
-5.97261e-19
-3.01729e-18
-7.92668e-19
-2.81914e-18
-1.00365e-18
-2.56156e-18
-1.21031e-18
-2.25233e-18
-1.39626e-18
-1.90203e-18
-1.5489e-18
-1.52298e-18
-1.65958e-18
-1.1282e-18
-1.72345e-18
-7.3052e-19
-1.73915e-18
-3.41891e-19
-1.70823e-18
2.71338e-20
-1.63453e-18
3.67806e-19
-1.52356e-18
6.73387e-19
-1.38184e-18
9.39e-19
-1.2163e-18
1.16137e-18
-1.03376e-18
1.33872e-18
-8.4063e-19
1.47078e-18
-6.42754e-19
1.55861e-18
-4.45349e-19
1.60426e-18
-2.5289e-19
1.61036e-18
-6.90121e-20
1.57987e-18
1.0351e-19
1.51597e-18
2.62694e-19
1.42202e-18
4.07211e-19
1.30146e-18
5.36226e-19
1.15782e-18
6.49262e-19
9.94615e-19
7.46088e-19
8.15296e-19
8.26633e-19
6.23238e-19
8.9092e-19
4.21704e-19
9.39009e-19
2.13865e-19
9.70974e-19
9.86887e-19
-1.17366e-10
9.50501e-11
-2.26903e-10
2.9875e-10
-3.79243e-10
7.5024e-10
-6.55918e-10
1.07494e-09
-8.76844e-10
1.11093e-09
-9.80296e-10
9.74106e-10
-9.33849e-10
7.27702e-10
-9.40126e-10
5.08544e-10
-9.32502e-10
3.61391e-10
-9.22898e-10
2.48597e-10
-9.41088e-10
2.57739e-10
-1.00708e-09
7.92692e-11
-1.05944e-09
-7.48531e-12
-1.09244e-09
-1.24454e-11
-1.09185e-09
-7.44885e-11
-1.03444e-09
-1.82017e-10
-9.74077e-10
-1.75979e-10
-8.45551e-10
-3.18921e-10
-6.90414e-10
-5.29155e-10
-2.91328e-10
-9.48088e-10
6.67391e-11
-1.27496e-09
4.69266e-10
-1.32546e-09
7.93272e-10
-1.41299e-09
9.49149e-10
-1.34045e-09
1.12591e-09
-1.31751e-09
1.34384e-09
-1.42223e-09
1.51783e-09
-1.29475e-09
1.66305e-09
-1.17738e-09
1.7756e-09
-1.05123e-09
1.85945e-09
-9.72736e-10
1.87312e-09
-1.11411e-09
1.93924e-09
-1.05801e-09
1.9795e-09
-1.02773e-09
2.07075e-09
-9.73944e-10
2.05022e-09
-8.02524e-10
2.09744e-09
-4.90682e-10
1.90707e-09
8.15993e-11
1.81103e-09
6.54945e-10
1.77451e-09
9.00317e-10
1.66434e-09
1.23685e-09
1.54474e-09
1.35688e-09
1.3784e-09
1.32435e-09
1.26124e-09
1.20148e-09
1.11154e-09
1.03658e-09
1.02381e-09
8.75342e-10
9.80581e-10
5.81295e-10
9.51801e-10
2.04237e-10
9.71793e-10
-1.45605e-10
9.39308e-10
-2.09573e-10
8.09147e-10
-2.64453e-10
6.88669e-10
-4.23599e-10
6.13187e-10
-4.98986e-10
6.87562e-10
-7.20123e-10
8.41627e-10
-7.77229e-10
8.98551e-10
-7.07757e-10
9.41607e-10
-6.32871e-10
9.88189e-10
-5.35383e-10
1.02829e-09
-3.89388e-10
1.05168e-09
-8.22695e-11
9.85428e-10
2.61604e-10
9.65526e-10
4.26002e-10
8.5286e-10
6.86685e-10
6.69483e-10
1.05142e-09
5.24654e-10
1.2034e-09
4.12518e-10
1.32252e-09
4.05308e-10
1.29607e-09
4.30816e-10
1.11493e-09
4.73255e-10
8.09991e-10
4.59975e-10
5.76085e-10
5.14569e-10
2.29534e-10
5.52238e-10
9.69954e-12
6.1271e-10
-1.09054e-10
6.65931e-10
-1.93703e-10
6.79633e-10
-3.57453e-10
7.20921e-10
-3.23183e-10
7.51922e-10
-2.24375e-10
7.13538e-10
-4.83828e-11
6.71722e-10
1.4145e-14
6.52497e-10
3.15826e-11
5.72645e-10
1.08912e-10
3.53714e-16
1.87906e-09
-4.19981e-18
7.65669e-18
-3.47097e-18
-1.55559e-18
-3.08634e-18
-1.23009e-18
-3.01328e-18
-7.13368e-19
-3.10124e-18
-3.56242e-19
-3.23251e-18
-2.11777e-19
-3.33819e-18
-2.42202e-19
-3.38226e-18
-3.97339e-19
-3.34763e-18
-6.3291e-19
-3.22827e-18
-9.12941e-19
-3.0258e-18
-1.20701e-18
-2.7475e-18
-1.4895e-18
-2.40497e-18
-1.73969e-18
-2.01272e-18
-1.94199e-18
-1.58686e-18
-2.0861e-18
-1.14389e-18
-2.16681e-18
-6.99597e-19
-2.18345e-18
-2.68195e-19
-2.13915e-18
1.38105e-19
-2.0399e-18
5.09526e-19
-1.89363e-18
8.38926e-19
-1.70938e-18
1.12154e-18
-1.4965e-18
1.3545e-18
-1.264e-18
1.5366e-18
-1.02009e-18
1.66818e-18
-7.72019e-19
1.75107e-18
-5.26094e-19
1.78813e-18
-2.87601e-19
1.78288e-18
-6.07997e-20
1.73905e-18
1.51079e-19
1.66049e-18
3.45757e-19
1.55103e-18
5.21759e-19
1.4145e-18
6.78235e-19
1.25465e-18
8.14787e-19
1.07516e-18
9.31326e-19
8.79583e-19
1.02795e-18
6.71327e-19
1.10485e-18
4.53669e-19
1.16225e-18
2.29778e-19
1.20036e-18
1.21933e-18
-4.00901e-10
4.95951e-10
-8.77403e-10
7.75251e-10
-1.03247e-09
9.05304e-10
-9.92939e-10
1.03541e-09
-9.13772e-10
1.03176e-09
-8.99294e-10
9.59628e-10
-9.28837e-10
7.57245e-10
-1.0103e-09
5.90004e-10
-1.03788e-09
3.88978e-10
-1.08072e-09
2.91432e-10
-1.10224e-09
2.79263e-10
-1.13404e-09
1.11062e-10
-1.15544e-09
1.39144e-11
-1.13573e-09
-3.21513e-11
-1.06029e-09
-1.49935e-10
-9.85206e-10
-2.57097e-10
-8.89827e-10
-2.71358e-10
-7.22034e-10
-4.86714e-10
-3.28583e-10
-9.22606e-10
5.77616e-11
-1.33443e-09
2.74091e-10
-1.49128e-09
6.01933e-10
-1.6533e-09
8.70897e-10
-1.68195e-09
1.17885e-09
-1.6484e-09
1.36154e-09
-1.5002e-09
1.42619e-09
-1.48688e-09
1.48881e-09
-1.35737e-09
1.57318e-09
-1.26174e-09
1.64486e-09
-1.12291e-09
1.74191e-09
-1.06979e-09
1.71509e-09
-1.08729e-09
1.71417e-09
-1.05709e-09
1.71736e-09
-1.03092e-09
1.78715e-09
-1.04374e-09
1.73818e-09
-7.53548e-10
1.57038e-09
-3.2288e-10
1.31594e-09
3.36032e-10
1.35485e-09
6.16037e-10
1.39868e-09
8.56495e-10
1.38669e-09
1.24884e-09
1.33642e-09
1.40715e-09
1.27592e-09
1.38485e-09
1.17255e-09
1.30486e-09
1.0727e-09
1.13643e-09
1.0266e-09
9.21441e-10
9.98193e-10
6.09708e-10
9.9457e-10
2.07861e-10
9.9318e-10
-1.44214e-10
8.81885e-10
-9.82769e-11
6.65774e-10
-4.83409e-11
4.83427e-10
-2.41251e-10
4.49588e-10
-4.65146e-10
6.22977e-10
-8.93511e-10
7.62444e-10
-9.16695e-10
8.61012e-10
-8.06325e-10
9.08603e-10
-6.80461e-10
9.20419e-10
-5.47199e-10
9.61056e-10
-4.30025e-10
8.84901e-10
-6.1141e-12
8.23999e-10
3.22507e-10
7.13466e-10
5.36535e-10
5.3758e-10
8.62571e-10
4.4577e-10
1.14323e-09
3.35243e-10
1.31392e-09
2.8797e-10
1.36979e-09
2.94729e-10
1.28931e-09
3.76705e-10
1.03296e-09
4.48746e-10
7.37949e-10
4.86336e-10
5.38494e-10
5.23625e-10
1.92243e-10
5.64952e-10
-3.16285e-11
6.11738e-10
-1.55841e-10
6.79414e-10
-2.6138e-10
6.80833e-10
-3.58873e-10
6.95462e-10
-3.37812e-10
7.26762e-10
-2.55677e-10
7.08059e-10
-2.96802e-11
6.10512e-10
9.756e-11
6.13046e-10
2.90477e-11
7.06361e-10
1.55951e-11
4.60814e-16
2.58542e-09
-4.95863e-18
1.00172e-17
-3.14473e-18
-3.37011e-18
-2.56893e-18
-1.80738e-18
-2.65547e-18
-6.28192e-19
-2.9561e-18
-5.71112e-20
-3.26228e-18
9.30838e-20
-3.49269e-18
-1.28955e-20
-3.61771e-18
-2.73197e-19
-3.62766e-18
-6.2365e-19
-3.52234e-18
-1.0189e-18
-3.30829e-18
-1.42176e-18
-2.99769e-18
-1.80093e-18
-2.60727e-18
-2.13106e-18
-2.15683e-18
-2.39341e-18
-1.66756e-18
-2.57623e-18
-1.16054e-18
-2.67447e-18
-6.55304e-19
-2.68899e-18
-1.68945e-19
-2.62541e-18
2.8438e-19
-2.49275e-18
6.93779e-19
-2.30223e-18
1.0518e-18
-2.06612e-18
1.35404e-18
-1.79678e-18
1.59842e-18
-1.50582e-18
1.78466e-18
-1.20355e-18
1.91411e-18
-8.98864e-19
1.98956e-18
-5.99171e-19
2.01494e-18
-3.10539e-19
1.99476e-18
-3.77344e-20
1.93373e-18
2.15703e-19
1.83649e-18
4.47351e-19
1.70751e-18
6.55731e-19
1.55105e-18
8.40112e-19
1.37119e-18
1.0003e-18
1.17179e-18
1.13646e-18
9.56486e-19
1.24896e-18
7.28728e-19
1.33823e-18
4.91772e-19
1.40472e-18
2.48749e-19
1.44879e-18
1.47074e-18
-3.58092e-11
5.31761e-10
-2.33465e-10
9.72907e-10
-5.35115e-10
1.20695e-09
-7.35083e-10
1.23538e-09
-8.51359e-10
1.14804e-09
-8.87039e-10
9.95307e-10
-9.33665e-10
8.03871e-10
-1.03572e-09
6.92064e-10
-1.1309e-09
4.84155e-10
-1.19813e-09
3.58664e-10
-1.19268e-09
2.7381e-10
-1.156e-09
7.4382e-11
-1.09597e-09
-4.61154e-11
-1.00957e-09
-1.18549e-10
-8.88336e-10
-2.71174e-10
-7.90148e-10
-3.55285e-10
-6.38576e-10
-4.2293e-10
-2.15485e-10
-9.09806e-10
1.84719e-10
-1.32281e-09
4.43917e-10
-1.59363e-09
7.69861e-10
-1.81723e-09
9.64627e-10
-1.84807e-09
1.15972e-09
-1.87705e-09
1.28044e-09
-1.76912e-09
1.35647e-09
-1.57623e-09
1.34535e-09
-1.47576e-09
1.28315e-09
-1.29517e-09
1.2628e-09
-1.24139e-09
1.31855e-09
-1.17867e-09
1.36207e-09
-1.1133e-09
1.38638e-09
-1.1116e-09
1.36338e-09
-1.03408e-09
1.32326e-09
-9.90806e-10
1.24322e-09
-9.63699e-10
1.19465e-09
-7.04979e-10
9.90237e-10
-1.18463e-10
9.91386e-10
3.34884e-10
1.08822e-09
5.19207e-10
1.10902e-09
8.35689e-10
1.1306e-09
1.22726e-09
1.13938e-09
1.39838e-09
1.13266e-09
1.39157e-09
1.09725e-09
1.34027e-09
1.04833e-09
1.18535e-09
1.02195e-09
9.4782e-10
1.003e-09
6.2866e-10
9.15423e-10
2.9544e-10
7.96226e-10
-2.50158e-11
6.3753e-10
6.04201e-11
5.18822e-10
7.0368e-11
3.90328e-10
-1.12755e-10
4.17926e-10
-4.92743e-10
5.44349e-10
-1.01993e-09
6.88945e-10
-1.06129e-09
8.56546e-10
-9.73925e-10
9.36126e-10
-7.60041e-10
9.1571e-10
-5.26783e-10
8.14306e-10
-3.28621e-10
6.35456e-10
1.72736e-10
5.63355e-10
3.94609e-10
4.38528e-10
6.61363e-10
3.43393e-10
9.57706e-10
2.38615e-10
1.24801e-09
1.74154e-10
1.37838e-09
1.49734e-10
1.39421e-09
1.65695e-10
1.27335e-09
3.20493e-10
8.7816e-10
4.0172e-10
6.56721e-10
4.65896e-10
4.74317e-10
4.95908e-10
1.62229e-10
5.27157e-10
-6.28784e-11
5.56951e-10
-1.85636e-10
6.04844e-10
-3.09273e-10
6.05042e-10
-3.59072e-10
6.11683e-10
-3.44453e-10
6.43137e-10
-2.87131e-10
6.90693e-10
-7.72378e-11
6.0164e-10
1.86612e-10
4.12552e-10
2.18134e-10
2.56124e-10
1.72022e-10
4.26834e-16
2.84155e-09
-5.49527e-18
1.45616e-17
-1.58146e-18
-7.28452e-18
-1.38916e-18
-2.00092e-18
-2.08375e-18
6.55926e-20
-2.80524e-18
6.63397e-19
-3.3676e-18
6.54507e-19
-3.7524e-18
3.71082e-19
-3.96813e-18
-5.81523e-20
-4.02291e-18
-5.69417e-19
-3.9252e-18
-1.11714e-18
-3.68746e-18
-1.66016e-18
-3.32781e-18
-2.16145e-18
-2.86962e-18
-2.59035e-18
-2.33965e-18
-2.92461e-18
-1.7658e-18
-3.15127e-18
-1.17506e-18
-3.26627e-18
-5.91721e-19
-3.27314e-18
-3.62876e-20
-3.18132e-18
4.74904e-19
-3.00414e-18
9.29888e-19
-2.75721e-18
1.32114e-18
-2.45695e-18
1.645e-18
-2.11943e-18
1.90068e-18
-1.75933e-18
2.08935e-18
-1.38943e-18
2.2138e-18
-1.02038e-18
2.27819e-18
-6.60761e-19
2.28774e-18
-3.17333e-19
2.2482e-18
4.81006e-21
2.16538e-18
3.02039e-19
2.04487e-18
5.72014e-19
1.89189e-18
8.13468e-19
1.71124e-18
1.02597e-18
1.50735e-18
1.20969e-18
1.28428e-18
1.36517e-18
1.04576e-18
1.49313e-18
7.95214e-19
1.59435e-18
5.35848e-19
1.66956e-18
2.70695e-19
1.71934e-18
1.74413e-18
-6.251e-11
5.94271e-10
-1.84631e-10
1.09503e-09
-4.51535e-10
1.47386e-09
-6.72784e-10
1.45663e-09
-8.09175e-10
1.28443e-09
-8.67275e-10
1.05341e-09
-9.51489e-10
8.88084e-10
-1.03055e-09
7.71125e-10
-1.13453e-09
5.88141e-10
-1.19195e-09
4.16074e-10
-1.11583e-09
1.97693e-10
-1.0554e-09
1.39512e-11
-9.49451e-10
-1.52063e-10
-8.30071e-10
-2.37929e-10
-7.37125e-10
-3.64121e-10
-6.19e-10
-4.73411e-10
-2.13482e-10
-8.28449e-10
2.13246e-10
-1.33653e-09
4.67361e-10
-1.57693e-09
7.69644e-10
-1.89591e-09
1.02401e-09
-2.0716e-09
1.20755e-09
-2.03161e-09
1.28916e-09
-1.95865e-09
1.33041e-09
-1.81037e-09
1.34413e-09
-1.58995e-09
1.19677e-09
-1.3284e-09
1.0461e-09
-1.14451e-09
9.92662e-10
-1.18795e-09
9.99511e-10
-1.18552e-09
1.02183e-09
-1.13562e-09
1.00387e-09
-1.09364e-09
9.51373e-10
-9.81589e-10
8.37692e-10
-8.77124e-10
7.18475e-10
-8.44482e-10
7.09381e-10
-6.95885e-10
6.86916e-10
-9.59967e-11
7.825e-10
2.39302e-10
8.14412e-10
4.87296e-10
8.22515e-10
8.27586e-10
8.57484e-10
1.19229e-09
8.88431e-10
1.36743e-09
9.14656e-10
1.36535e-09
9.35755e-10
1.31918e-09
9.56773e-10
1.16433e-09
9.51653e-10
9.52941e-10
9.10747e-10
6.69568e-10
8.26729e-10
3.79459e-10
6.74872e-10
1.26843e-10
4.68399e-10
2.66894e-10
3.76719e-10
1.62049e-10
3.9359e-10
-1.29625e-10
5.59458e-10
-6.5861e-10
6.44701e-10
-1.10518e-09
7.59905e-10
-1.17649e-09
8.82269e-10
-1.09629e-09
9.63637e-10
-8.41408e-10
8.92474e-10
-4.55619e-10
5.94751e-10
-3.08971e-11
4.09548e-10
3.57939e-10
3.05664e-10
4.98493e-10
1.98874e-10
7.68153e-10
7.71597e-11
1.07942e-09
1.52106e-11
1.30996e-09
2.15357e-11
1.37206e-09
5.76986e-11
1.35805e-09
1.146e-10
1.21645e-09
2.11401e-10
7.81359e-10
3.19058e-10
5.49063e-10
3.98327e-10
3.95048e-10
4.2365e-10
1.36906e-10
4.35488e-10
-7.47172e-11
4.56868e-10
-2.07017e-10
4.72273e-10
-3.24679e-10
5.0961e-10
-3.96409e-10
5.4446e-10
-3.79304e-10
5.86595e-10
-3.29267e-10
7.14156e-10
-2.048e-10
1.01235e-09
-1.11583e-10
8.80175e-10
3.50308e-10
4.15743e-12
1.04804e-09
1.03098e-14
2.84569e-09
4.96077e-19
1.01235e-14
3.7022e-18
-1.04911e-17
6.77773e-19
1.02318e-18
-1.48535e-18
2.22796e-18
-2.81347e-18
1.99074e-18
-3.65035e-18
1.49065e-18
-4.18115e-18
9.01181e-19
-4.47939e-18
2.39467e-19
-4.57063e-18
-4.78699e-19
-4.46822e-18
-1.22003e-18
-4.18875e-18
-1.9402e-18
-3.75671e-18
-2.59422e-18
-3.20388e-18
-3.14413e-18
-2.56631e-18
-3.56333e-18
-1.8808e-18
-3.838e-18
-1.18194e-18
-3.96628e-18
-4.99894e-19
-3.95618e-18
1.40892e-19
-3.82279e-18
7.21836e-19
-3.58555e-18
1.23014e-18
-3.26593e-18
1.65866e-18
-2.88565e-18
2.0051e-18
-2.46525e-18
2.27058e-18
-2.02305e-18
2.45841e-18
-1.57453e-18
2.57342e-18
-1.13221e-18
2.62162e-18
-7.05796e-19
2.60988e-18
-3.02544e-19
2.54542e-18
7.23656e-20
2.43535e-18
4.1551e-19
2.28633e-18
7.24927e-19
2.10439e-18
9.99828e-19
1.89496e-18
1.24031e-18
1.66282e-18
1.4471e-18
1.41224e-18
1.62124e-18
1.14698e-18
1.76397e-18
8.70422e-19
1.87649e-18
5.85631e-19
1.95985e-18
2.95476e-19
2.01494e-18
2.04234e-18
-4.64202e-10
1.05847e-09
-6.88108e-10
1.31893e-09
-6.27439e-10
1.41319e-09
-6.547e-10
1.48389e-09
-7.33584e-10
1.36331e-09
-8.26421e-10
1.14624e-09
-9.14621e-10
9.76284e-10
-9.69669e-10
8.26172e-10
-1.08118e-09
6.99652e-10
-1.10527e-09
4.40165e-10
-9.90245e-10
8.26677e-11
-8.92723e-10
-8.3572e-11
-7.79553e-10
-2.65232e-10
-6.65141e-10
-3.52341e-10
-4.9449e-10
-5.34772e-10
-1.802e-10
-7.87702e-10
2.29667e-10
-1.23832e-09
5.55869e-10
-1.66274e-09
8.46398e-10
-1.86746e-09
1.03498e-09
-2.0845e-09
1.13451e-09
-2.17113e-09
1.21612e-09
-2.11322e-09
1.27403e-09
-2.01656e-09
1.22333e-09
-1.75968e-09
1.15595e-09
-1.52257e-09
9.43129e-10
-1.11558e-09
7.99449e-10
-1.00083e-09
7.0528e-10
-1.09378e-09
6.25241e-10
-1.10548e-09
5.75779e-10
-1.08616e-09
5.20406e-10
-1.03826e-09
5.03277e-10
-9.6446e-10
4.40573e-10
-8.1442e-10
3.60013e-10
-7.63922e-10
2.23464e-10
-5.59335e-10
2.50026e-10
-1.22558e-10
3.37707e-10
1.51622e-10
4.05841e-10
4.19163e-10
4.98564e-10
7.34865e-10
5.79773e-10
1.11109e-09
6.4001e-10
1.3072e-09
6.86875e-10
1.31848e-09
7.44335e-10
1.26172e-09
7.68123e-10
1.14055e-09
7.70437e-10
9.50628e-10
7.40726e-10
6.99281e-10
7.24504e-10
3.95683e-10
4.87748e-10
3.63601e-10
3.27695e-10
4.26948e-10
3.80282e-10
1.09463e-10
5.26107e-10
-2.75448e-10
7.1863e-10
-8.51132e-10
8.10681e-10
-1.19723e-09
8.60515e-10
-1.22633e-09
9.06225e-10
-1.142e-09
9.26907e-10
-8.6209e-10
7.83192e-10
-3.11904e-10
4.59267e-10
2.93029e-10
3.28194e-10
4.89013e-10
1.96347e-10
6.3034e-10
7.00129e-11
8.94488e-10
-2.57015e-11
1.17513e-09
-4.01704e-11
1.32443e-09
-9.55736e-12
1.34144e-09
4.86636e-11
1.29983e-09
1.137e-10
1.15141e-09
1.40655e-10
7.54403e-10
2.05189e-10
4.84529e-10
3.12373e-10
2.87864e-10
3.51247e-10
9.80312e-11
3.58288e-10
-8.17585e-11
3.79721e-10
-2.2845e-10
3.87537e-10
-3.32496e-10
4.54076e-10
-4.62949e-10
4.76538e-10
-4.01767e-10
4.31671e-10
-2.84401e-10
3.18664e-10
-9.17942e-11
9.87545e-11
1.08326e-10
-4.83408e-10
9.32469e-10
-9.10819e-10
1.47545e-09
-2.49082e-10
2.18395e-09
6.14601e-17
-2.49072e-10
1.29553e-17
3.89024e-17
1.88295e-18
1.20952e-17
-1.72192e-18
5.83246e-18
-3.31285e-18
3.58109e-18
-4.23911e-18
2.41626e-18
-4.84249e-18
1.50392e-18
-5.19756e-18
5.93968e-19
-5.31196e-18
-3.64741e-19
-5.18839e-18
-1.34394e-18
-4.84278e-18
-2.28608e-18
-4.30662e-18
-3.13061e-18
-3.62308e-18
-3.82799e-18
-2.84098e-18
-4.34594e-18
-2.00907e-18
-4.67055e-18
-1.17183e-18
-4.80425e-18
-3.66504e-19
-4.76213e-18
3.78131e-19
-4.56772e-18
1.04145e-18
-4.24896e-18
1.61042e-18
-3.83511e-18
2.07907e-18
-3.35454e-18
2.4473e-18
-2.83315e-18
2.71909e-18
-2.29336e-18
2.90073e-18
-1.75355e-18
2.99983e-18
-1.22804e-18
3.02487e-18
-7.27443e-19
2.98479e-18
-2.59227e-19
2.88857e-18
1.71716e-19
2.74477e-18
5.62548e-19
2.56123e-18