/*--------------------------------*- C++ -*----------------------------------*\
  =========                 |
  \\      /  F ield         | OpenFOAM: The Open Source CFD Toolbox
   \\    /   O peration     | Website:  https://openfoam.org
    \\  /    A nd           | Version:  6
     \\/     M anipulation  |
\*---------------------------------------------------------------------------*/
FoamFile
{
    version     2.0;
    format      ascii;
    class       volVectorField;
    location    "4900";
    object      U;
}
// * * * * * * * * * * * * * * * * * * * * * * * * * * * * * * * * * * * * * //

dimensions      [0 1 -1 0 0 0 0];

internalField   nonuniform List<vector> 
4800
(
(-7.43697e-05 0 -6.04665e-05)
(6.54419e-05 0 -6.78246e-05)
(6.7457e-05 0 -8.27199e-05)
(4.61963e-05 0 -8.97047e-05)
(5.55489e-05 0 -7.19108e-05)
(2.81939e-05 0 -6.34717e-05)
(-8.56729e-05 0 3.89661e-05)
(-0.000232483 0 -7.80472e-06)
(-0.000414019 0 1.87682e-05)
(-0.00047515 0 1.97195e-05)
(-0.000515365 0 1.76092e-05)
(-0.000538388 0 -3.10429e-05)
(-0.000541661 0 -2.42896e-05)
(-0.000518038 0 -3.63208e-05)
(-0.000506455 0 -3.55089e-05)
(-0.000506435 0 -3.60628e-05)
(-0.000476816 0 -5.29472e-06)
(-0.000415622 0 -5.9337e-05)
(-0.000384032 0 -4.18353e-05)
(-0.000365626 0 -1.98237e-05)
(-0.000322356 0 -4.45041e-05)
(-0.000275645 0 -2.91557e-05)
(-0.000220799 0 -2.50741e-05)
(-0.000150128 0 -3.2472e-05)
(-9.67404e-05 0 -4.34561e-05)
(-5.71689e-05 0 -0.000146625)
(5.71381e-05 0 -4.47159e-05)
(0.000104094 0 -6.40544e-05)
(0.000145411 0 -0.000153771)
(0.000330538 0 -9.53154e-05)
(0.000514676 0 -7.92639e-05)
(0.000630055 0 -8.23776e-05)
(0.00065656 0 -0.000100206)
(0.000724026 0 -8.37874e-05)
(0.000872031 0 -4.13073e-05)
(0.000993209 0 -1.04136e-05)
(0.000978215 0 -1.16371e-05)
(0.000922448 0 5.13232e-06)
(0.00083467 0 1.44895e-05)
(0.000731993 0 -2.61417e-05)
(0.000626455 0 -6.96777e-05)
(0.000548227 0 -4.5266e-05)
(0.000518981 0 -1.70725e-05)
(0.000493972 0 4.59279e-06)
(0.000430166 0 4.15558e-05)
(0.00032692 0 4.42057e-05)
(0.000252473 0 1.25097e-05)
(0.000226576 0 -1.93285e-06)
(0.000228854 0 -4.43337e-06)
(0.000254548 0 -2.37046e-05)
(0.000316335 0 -2.20957e-06)
(0.000368681 0 -0.000216391)
(0.000479598 0 3.78779e-05)
(0.000537094 0 3.71605e-05)
(0.000572259 0 -9.46209e-05)
(0.00062916 0 -0.000185806)
(0.000753906 0 -0.000180686)
(0.000833228 0 -3.47345e-05)
(0.000825128 0 -1.44142e-05)
(0.00080839 0 9.73054e-06)
(0.000783405 0 -5.90238e-06)
(0.000743001 0 6.49631e-06)
(0.000678123 0 6.01124e-05)
(0.000582164 0 9.16832e-05)
(0.000422573 0 6.2926e-06)
(0.000231541 0 -5.19571e-05)
(6.85433e-05 0 3.04699e-05)
(-1.93923e-05 0 -0.00010346)
(-0.000115261 0 -5.9844e-05)
(-0.000181607 0 -6.37474e-05)
(-0.000208994 0 -4.31198e-05)
(-0.000233836 0 -1.32999e-05)
(-0.000210306 0 -2.804e-05)
(-0.000194354 0 -2.57351e-05)
(-0.000191692 0 2.2245e-05)
(-0.000176443 0 7.61572e-05)
(-0.000206822 0 5.04949e-05)
(-0.000425696 0 -0.000176169)
(-0.000489396 0 -0.00024317)
(-0.000682152 0 -0.000224054)
(7.57233e-06 0 -0.000100283)
(-1.29249e-12 0 2.49977e-13)
(-3.2144e-12 0 -9.34731e-15)
(-1.48787e-12 0 -2.99791e-14)
(-1.42828e-12 0 -3.01435e-14)
(-1.37195e-12 0 -2.67623e-14)
(-1.32146e-12 0 -2.42883e-14)
(-1.27378e-12 0 -2.3907e-14)
(-1.22464e-12 0 -2.57669e-14)
(-1.16989e-12 0 -2.95256e-14)
(-1.10624e-12 0 -3.45914e-14)
(-1.03178e-12 0 -4.04098e-14)
(-9.4554e-13 0 -4.63896e-14)
(-8.47731e-13 0 -5.1987e-14)
(-7.39538e-13 0 -5.67478e-14)
(-6.22929e-13 0 -6.03287e-14)
(-5.00446e-13 0 -6.25051e-14)
(-3.74988e-13 0 -6.31668e-14)
(-2.49601e-13 0 -6.23062e-14)
(-1.27287e-13 0 -5.99994e-14)
(-1.08307e-14 0 -5.63887e-14)
(9.73133e-14 0 -5.16602e-14)
(1.95097e-13 0 -4.60205e-14)
(2.80918e-13 0 -3.96794e-14)
(3.53646e-13 0 -3.28452e-14)
(4.1261e-13 0 -2.57248e-14)
(4.57524e-13 0 -1.85181e-14)
(4.8841e-13 0 -1.14038e-14)
(5.05537e-13 0 -4.52702e-15)
(5.09399e-13 0 2.00151e-15)
(5.00702e-13 0 8.09723e-15)
(4.80338e-13 0 1.36914e-14)
(4.49336e-13 0 1.87273e-14)
(4.08829e-13 0 2.31622e-14)
(3.60023e-13 0 2.69706e-14)
(3.04184e-13 0 3.01455e-14)
(2.42612e-13 0 3.26932e-14)
(1.76606e-13 0 3.463e-14)
(1.07406e-13 0 3.59876e-14)
(3.6078e-14 0 3.68646e-14)
(-5.26383e-05 0 -2.74633e-05)
(3.96162e-05 0 -8.99497e-06)
(1.49744e-05 0 5.07527e-05)
(-2.59735e-05 0 5.92139e-05)
(-0.000123147 0 8.29047e-05)
(-0.000180242 0 0.000113444)
(-0.000212535 0 0.000187668)
(-0.000336429 0 0.000174556)
(-0.000391602 0 0.000163981)
(-0.000450643 0 3.85822e-05)
(-0.000471325 0 4.92635e-05)
(-0.0004794 0 3.9786e-05)
(-0.000472761 0 -3.91445e-06)
(-0.000464495 0 -1.82022e-05)
(-0.000459805 0 -4.29827e-05)
(-0.000458754 0 -5.49203e-05)
(-0.00043742 0 -2.48427e-05)
(-0.000398538 0 -5.89943e-05)
(-0.000373717 0 -6.84792e-05)
(-0.000353799 0 1.81459e-05)
(-0.000295224 0 -7.6086e-05)
(-0.000251684 0 -6.10498e-05)
(-0.000193191 0 -8.43068e-05)
(-9.3348e-05 0 -9.55661e-05)
(-2.06371e-05 0 -2.91817e-05)
(2.10114e-05 0 -8.59891e-05)
(5.12958e-05 0 -0.000127182)
(0.000228659 0 -1.65468e-05)
(4.54219e-05 0 -0.000345547)
(0.000351009 0 -0.000272384)
(0.000481122 0 -0.000107964)
(0.000590965 0 0.000105832)
(0.000650107 0 -0.000194351)
(0.000777644 0 -0.000225421)
(0.000927842 0 -0.000251058)
(0.00100775 0 -2.64742e-05)
(0.00100794 0 5.69923e-05)
(0.000995933 0 0.000107481)
(0.00093204 0 0.000164129)
(0.000818152 0 0.000189784)
(0.000670222 0 0.000208409)
(0.000544004 0 0.000142978)
(0.000478339 0 7.8267e-05)
(0.00042237 0 9.80026e-05)
(0.00033885 0 0.000108814)
(0.000272281 0 9.93513e-05)
(0.000253698 0 6.62879e-05)
(0.000239775 0 1.3749e-06)
(0.000247672 0 -2.92184e-05)
(0.000281796 0 -0.000101432)
(0.000350744 0 -0.000115445)
(0.000432616 0 -0.00010777)
(0.000494577 0 -0.000203215)
(0.00058074 0 -0.000141426)
(0.00062529 0 -0.000163152)
(0.000693521 0 -0.000129771)
(0.000758929 0 -7.73278e-05)
(0.00079072 0 -8.09389e-06)
(0.000788751 0 8.23621e-06)
(0.000778776 0 3.43901e-05)
(0.000762967 0 4.82296e-05)
(0.000727601 0 8.71495e-05)
(0.000666629 0 5.45786e-05)
(0.000550972 0 0.000126228)
(0.000494253 0 8.895e-05)
(0.00031009 0 0.000216697)
(0.000196308 0 0.000142288)
(0.000103298 0 0.000182981)
(2.93178e-05 0 0.000138948)
(-6.77336e-05 0 0.000121205)
(-5.08548e-05 0 3.1923e-05)
(-5.67694e-05 0 1.94301e-08)
(-5.92942e-05 0 7.78824e-06)
(-3.40837e-05 0 5.80511e-06)
(-4.73635e-06 0 -1.29164e-06)
(3.08839e-05 0 2.81494e-05)
(7.75162e-05 0 0.000101556)
(3.48873e-05 0 8.57949e-05)
(0.00041101 0 6.1491e-05)
(-0.000503226 0 -0.00021709)
(7.68142e-06 0 -7.94587e-05)
(-1.22687e-12 0 4.14815e-13)
(-3.36752e-12 0 -1.16531e-13)
(-1.5121e-12 0 -1.11313e-13)
(-1.42765e-12 0 -9.47337e-14)
(-1.36794e-12 0 -8.00284e-14)
(-1.31979e-12 0 -7.13435e-14)
(-1.27586e-12 0 -6.99941e-14)
(-1.23037e-12 0 -7.57889e-14)
(-1.17862e-12 0 -8.7478e-14)
(-1.11712e-12 0 -1.03245e-13)
(-1.04358e-12 0 -1.21288e-13)
(-9.57118e-13 0 -1.39742e-13)
(-8.58089e-13 0 -1.56938e-13)
(-7.4788e-13 0 -1.71502e-13)
(-6.28686e-13 0 -1.82413e-13)
(-5.03284e-13 0 -1.89011e-13)
(-3.74789e-13 0 -1.90984e-13)
(-2.46434e-13 0 -1.88323e-13)
(-1.21369e-13 0 -1.81268e-13)
(-2.49149e-15 0 -1.70248e-13)
(1.07682e-13 0 -1.55819e-13)
(2.07077e-13 0 -1.38606e-13)
(2.94093e-13 0 -1.19261e-13)
(3.67601e-13 0 -9.84469e-14)
(4.26937e-13 0 -7.68158e-14)
(4.71845e-13 0 -5.49753e-14)
(5.02401e-13 0 -3.3453e-14)
(5.18942e-13 0 -1.26769e-14)
(5.22023e-13 0 7.01792e-15)
(5.12392e-13 0 2.53707e-14)
(4.90968e-13 0 4.21776e-14)
(4.58807e-13 0 5.72852e-14)
(4.17072e-13 0 7.05905e-14)
(3.67006e-13 0 8.2037e-14)
(3.09907e-13 0 9.16045e-14)
(2.47097e-13 0 9.92952e-14)
(1.799e-13 0 1.05121e-13)
(1.0964e-13 0 1.09103e-13)
(3.6955e-14 0 1.11299e-13)
(-6.66425e-05 0 -5.0258e-05)
(5.40959e-05 0 -6.76988e-06)
(-8.7471e-05 0 -3.23586e-05)
(-1.58713e-05 0 0.000135115)
(-0.00014619 0 0.000182277)
(-0.0002712 0 0.000253407)
(-0.00033674 0 0.000263677)
(-0.000378268 0 0.000234728)
(-0.000397985 0 0.000154757)
(-0.000406797 0 0.000126051)
(-0.000426488 0 8.17058e-05)
(-0.000412307 0 -1.34979e-05)
(-0.000392991 0 -9.20546e-06)
(-0.000392881 0 -1.48131e-05)
(-0.000397481 0 -4.54646e-05)
(-0.000403589 0 -4.19602e-05)
(-0.000405041 0 -4.63605e-05)
(-0.000388307 0 -9.72606e-05)
(-0.000375727 0 -8.83339e-05)
(-0.000348152 0 -8.76143e-05)
(-0.000279318 0 -0.000167659)
(-0.000218203 0 -0.000172159)
(-0.000143978 0 -0.000165569)
(-0.000100858 0 -0.000143333)
(-0.000132974 0 -0.00017515)
(0.000219299 0 8.59728e-05)
(-4.34249e-05 0 -0.00036482)
(0.000378471 0 -8.61698e-05)
(0.000472111 0 -0.000133103)
(0.000426568 0 -0.00041664)
(0.000497692 0 -0.000326303)
(0.000586334 0 -0.000263554)
(0.000615458 0 -0.000456882)
(0.000830961 0 -0.000337912)
(0.00092558 0 -0.000116223)
(0.000918633 0 -8.27089e-05)
(0.000952132 0 -6.34128e-05)
(0.000972195 0 0.000153233)
(0.000932255 0 0.000213018)
(0.000820448 0 0.000288274)
(0.000706638 0 0.000258733)
(0.000610865 0 0.000126409)
(0.000504692 0 0.000104329)
(0.00040799 0 0.000159081)
(0.000323944 0 0.000164025)
(0.000265415 0 0.000132805)
(0.000261187 0 7.74034e-05)
(0.000272106 0 3.70001e-06)
(0.00028127 0 -9.00654e-05)
(0.000353071 0 -5.29797e-05)
(0.000359401 0 -0.00024048)
(0.000411162 0 -0.000202294)
(0.000497392 0 -0.000109945)
(0.000592273 0 -5.81677e-05)
(0.000613612 0 -0.000227557)
(0.000693124 0 -0.000192179)
(0.000710833 0 -0.000135858)
(0.000718239 0 -8.39999e-05)
(0.000731553 0 1.89951e-06)
(0.000724925 0 3.97761e-05)
(0.000700017 0 0.000100959)
(0.000668742 0 0.000138587)
(0.000604254 0 0.000195366)
(0.000523375 0 0.000220327)
(0.000414492 0 0.000311578)
(0.000238971 0 0.000392128)
(0.000260583 0 0.000277883)
(0.000135491 0 0.000277041)
(7.92442e-05 0 0.000186912)
(4.8931e-05 0 8.76704e-05)
(4.12704e-05 0 4.43586e-06)
(4.35979e-05 0 -3.20432e-05)
(5.90065e-05 0 -4.84046e-05)
(7.77805e-05 0 -5.34045e-05)
(0.000105121 0 -2.65625e-05)
(0.00014531 0 -1.81073e-05)
(0.000192969 0 3.54568e-05)
(0.000203265 0 -2.77673e-05)
(0.000470021 0 -5.04161e-05)
(-0.000402291 0 -0.00014768)
(7.65858e-06 0 9.14093e-05)
(-1.15081e-12 0 3.38677e-13)
(-3.314e-12 0 -2.88889e-13)
(-1.46923e-12 0 -2.04398e-13)
(-1.39933e-12 0 -1.57809e-13)
(-1.35016e-12 0 -1.27637e-13)
(-1.31236e-12 0 -1.11438e-13)
(-1.27858e-12 0 -1.09318e-13)
(-1.24204e-12 0 -1.20171e-13)
(-1.19718e-12 0 -1.41422e-13)
(-1.14005e-12 0 -1.69773e-13)
(-1.06828e-12 0 -2.01882e-13)
(-9.81191e-13 0 -2.34443e-13)
(-8.79492e-13 0 -2.64565e-13)
(-7.65013e-13 0 -2.89916e-13)
(-6.40438e-13 0 -3.08793e-13)
(-5.09017e-13 0 -3.20123e-13)
(-3.74299e-13 0 -3.23425e-13)
(-2.39885e-13 0 -3.18732e-13)
(-1.09212e-13 0 -3.06494e-13)
(1.46173e-14 0 -2.87479e-13)
(1.28955e-13 0 -2.62669e-13)
(2.31655e-13 0 -2.33159e-13)
(3.21077e-13 0 -2.00094e-13)
(3.96092e-13 0 -1.64621e-13)
(4.56082e-13 0 -1.27855e-13)
(5.00887e-13 0 -9.08239e-14)
(5.30708e-13 0 -5.44184e-14)
(5.46008e-13 0 -1.93644e-14)
(5.47446e-13 0 1.37727e-14)
(5.35862e-13 0 4.45651e-14)
(5.12252e-13 0 7.26993e-14)
(4.77749e-13 0 9.79576e-14)
(4.3358e-13 0 1.20202e-13)
(3.81037e-13 0 1.39356e-13)
(3.21442e-13 0 1.5538e-13)
(2.56128e-13 0 1.68254e-13)
(1.86413e-13 0 1.77959e-13)
(1.13584e-13 0 1.84469e-13)
(3.82745e-14 0 1.87726e-13)
(-4.46386e-05 0 -2.10843e-05)
(-2.03224e-05 0 2.36296e-05)
(-0.000203639 0 5.11487e-05)
(-0.000190528 0 0.000166094)
(-0.000270175 0 0.000258576)
(-0.000397493 0 0.000254061)
(-0.000399727 0 0.000286036)
(-0.000401333 0 0.000229447)
(-0.000392497 0 0.000146641)
(-0.000387195 0 0.000113374)
(-0.000395914 0 7.50666e-05)
(-0.000401967 0 1.3646e-05)
(-0.000383495 0 -8.3893e-05)
(-0.000378377 0 -1.17556e-05)
(-0.000373138 0 -3.65272e-05)
(-0.000376739 0 -3.18039e-05)
(-0.000388128 0 -4.8598e-05)
(-0.000402707 0 -5.43909e-05)
(-0.00040174 0 -6.41477e-05)
(-0.000358977 0 -0.000109331)
(-0.000281038 0 -0.000178354)
(-0.000199099 0 -0.00019976)
(-0.000124709 0 -0.00021892)
(-3.72892e-05 0 -0.000297562)
(0.000177061 0 -0.000278737)
(0.000262084 0 -0.000315608)
(0.000407022 0 -0.000402414)
(0.000536581 0 -0.000254086)
(0.000589083 0 -0.000272772)
(0.000589011 0 -0.000445387)
(0.000700954 0 -0.000322542)
(0.000738816 0 -0.000295587)
(0.000779775 0 -0.000353037)
(0.000836502 0 -0.000297958)
(0.00084941 0 -0.000238682)
(0.00088187 0 -0.000145024)
(0.000928207 0 -0.000101086)
(0.000919747 0 0.000244167)
(0.000891292 0 0.000310125)
(0.000840028 0 0.000330474)
(0.000747331 0 0.000339114)
(0.000610626 0 0.000326815)
(0.000492505 0 0.00024897)
(0.000382557 0 0.000258378)
(0.000325725 0 0.000249912)
(0.000295779 0 0.000149454)
(0.000278866 0 6.3288e-05)
(0.000296427 0 8.52027e-06)
(0.00033336 0 -8.88006e-05)
(0.000316608 0 -0.000236426)
(0.000470779 0 -3.38738e-05)
(0.000329359 0 -0.000343199)
(0.000391015 0 -0.00032387)
(0.000465659 0 -0.000255913)
(0.000521044 0 -0.000185276)
(0.000559899 0 -0.000150302)
(0.000574655 0 -0.000110901)
(0.000588174 0 -8.88091e-05)
(0.000629472 0 -5.12022e-06)
(0.000629196 0 2.28863e-05)
(0.000615288 0 5.29949e-05)
(0.000587398 0 0.000154544)
(0.000539933 0 0.000234933)
(0.000474825 0 0.000288)
(0.000353208 0 0.000388212)
(0.000284692 0 0.000430924)
(0.000280558 0 0.000397083)
(0.000188509 0 0.000332875)
(0.000147311 0 0.000191476)
(0.000119577 0 0.000107039)
(0.000129987 0 5.33134e-05)
(0.00013784 0 -7.67668e-06)
(0.000141368 0 -3.97146e-05)
(0.00016723 0 -5.71055e-05)
(0.000206953 0 -4.4992e-05)
(0.000242734 0 -5.28952e-05)
(0.00026094 0 -3.0502e-05)
(0.000249169 0 -4.17024e-05)
(0.000292289 0 -2.96987e-05)
(-0.000270619 0 -5.77336e-05)
(8.14818e-06 0 0.000246451)
(-1.21762e-12 0 8.80021e-13)
(-3.10201e-12 0 -3.23641e-13)
(-1.38039e-12 0 -2.59359e-13)
(-1.35029e-12 0 -2.04284e-13)
(-1.32099e-12 0 -1.61139e-13)
(-1.30091e-12 0 -1.37353e-13)
(-1.28405e-12 0 -1.35573e-13)
(-1.26206e-12 0 -1.53949e-13)
(-1.22808e-12 0 -1.88001e-13)
(-1.17758e-12 0 -2.32399e-13)
(-1.10825e-12 0 -2.81859e-13)
(-1.0198e-12 0 -3.31409e-13)
(-9.13563e-13 0 -3.76807e-13)
(-7.92108e-13 0 -4.14694e-13)
(-6.58893e-13 0 -4.42666e-13)
(-5.17916e-13 0 -4.5926e-13)
(-3.73398e-13 0 -4.63885e-13)
(-2.29502e-13 0 -4.56704e-13)
(-9.01158e-14 0 -4.38483e-13)
(4.13337e-14 0 -4.10444e-13)
(1.62001e-13 0 -3.74112e-13)
(2.69652e-13 0 -3.31161e-13)
(3.62631e-13 0 -2.8329e-13)
(4.3984e-13 0 -2.32164e-13)
(5.00734e-13 0 -1.79364e-13)
(5.45281e-13 0 -1.26346e-13)
(5.73861e-13 0 -7.4374e-14)
(5.87133e-13 0 -2.44812e-14)
(5.85952e-13 0 2.25413e-14)
(5.71319e-13 0 6.61181e-14)
(5.4436e-13 0 1.05848e-13)
(5.0631e-13 0 1.41464e-13)
(4.58471e-13 0 1.72794e-13)
(4.02184e-13 0 1.9974e-13)
(3.38804e-13 0 2.22245e-13)
(2.69676e-13 0 2.4028e-13)
(1.96116e-13 0 2.53823e-13)
(1.19407e-13 0 2.62855e-13)
(4.02111e-14 0 2.67353e-13)
(-3.25325e-05 0 -9.46047e-06)
(8.94681e-06 0 6.78989e-05)
(-6.68611e-05 0 0.000207407)
(-0.000240769 0 0.000272373)
(-0.000326571 0 0.000338273)
(-0.000360181 0 0.000359146)
(-0.000389686 0 0.000319045)
(-0.000392507 0 0.000218695)
(-0.000363677 0 0.000160081)
(-0.000353226 0 0.000119215)
(-0.000358492 0 8.63158e-05)
(-0.000386317 0 9.0252e-06)
(-0.000395217 0 1.39118e-05)
(-0.000397353 0 -7.88359e-06)
(-0.000386396 0 -4.44337e-05)
(-0.000383954 0 -4.5788e-05)
(-0.000386688 0 -4.39531e-05)
(-0.000387922 0 -6.16701e-05)
(-0.000353345 0 -0.000123564)
(-0.00029648 0 -0.000185924)
(-0.00011654 0 -0.000352913)
(-0.000100865 0 -0.000303425)
(0.000101141 0 -0.000368377)
(0.000176263 0 -0.000450733)
(0.00044154 0 -0.000337186)
(0.000448653 0 -0.000448823)
(0.000552878 0 -0.000425261)
(0.000590939 0 -0.000432812)
(0.000675527 0 -0.00035608)
(0.000745449 0 -0.000329213)
(0.000695729 0 -0.000471494)
(0.000760914 0 -0.000391481)
(0.000798805 0 -0.000374207)
(0.000819647 0 -0.000357219)
(0.000814407 0 -0.000359315)
(0.00087237 0 -0.00016451)
(0.000886393 0 -5.8855e-05)
(0.000867622 0 0.000152347)
(0.000831994 0 0.000318401)
(0.000781068 0 0.000418132)
(0.000710402 0 0.000471985)
(0.000650494 0 0.000381935)
(0.000488387 0 0.000364122)
(0.000416115 0 0.000307183)
(0.000378991 0 0.000281303)
(0.000350301 0 0.00022299)
(0.000330538 0 3.4972e-05)
(0.000336299 0 -3.8019e-05)
(0.000372308 0 -7.92551e-05)
(0.000350391 0 -0.000207268)
(0.000312667 0 -0.000294995)
(0.0003729 0 -0.000210715)
(0.000349656 0 -0.000223104)
(0.000366324 0 -0.000223236)
(0.0003546 0 -0.000291934)
(0.000406541 0 -0.000248084)
(0.000443988 0 -0.000187515)
(0.000475539 0 -0.000131544)
(0.000520388 0 -3.60319e-06)
(0.000525721 0 8.56921e-05)
(0.00049284 0 0.000158098)
(0.000440586 0 0.000267627)
(0.000423135 0 0.000328141)
(0.00033886 0 0.000404271)
(0.000303496 0 0.000448085)
(0.000210844 0 0.000504477)
(0.000191813 0 0.000460188)
(0.000166767 0 0.000352599)
(0.000168276 0 0.000230231)
(0.000171056 0 0.00014825)
(0.00018735 0 2.17565e-05)
(0.000198969 0 -1.50079e-05)
(0.00022009 0 -6.18433e-05)
(0.000221962 0 -0.000143573)
(0.000255834 0 -0.000103083)
(0.000287108 0 -7.48526e-05)
(0.000298647 0 -2.77736e-05)
(0.000287949 0 -1.76004e-05)
(0.000327318 0 -2.16485e-05)
(-0.000164499 0 -2.5505e-05)
(8.32011e-06 0 0.000400532)
(-1.33887e-12 0 1.79907e-12)
(-3.17326e-12 0 -3.07049e-13)
(-1.34925e-12 0 -3.05e-13)
(-1.30051e-12 0 -2.38743e-13)
(-1.28265e-12 0 -1.75225e-13)
(-1.28624e-12 0 -1.41221e-13)
(-1.29464e-12 0 -1.41611e-13)
(-1.29407e-12 0 -1.71833e-13)
(-1.27551e-12 0 -2.23984e-13)
(-1.2339e-12 0 -2.89814e-13)
(-1.16728e-12 0 -3.61585e-13)
(-1.07614e-12 0 -4.32381e-13)
(-9.62777e-13 0 -4.96444e-13)
(-8.30873e-13 0 -5.49312e-13)
(-6.85003e-13 0 -5.87873e-13)
(-5.30236e-13 0 -6.10333e-13)
(-3.71744e-13 0 -6.16107e-13)
(-2.14482e-13 0 -6.05634e-13)
(-6.29515e-14 0 -5.80163e-13)
(7.89879e-14 0 -5.41536e-13)
(2.08239e-13 0 -4.91971e-13)
(3.22477e-13 0 -4.33847e-13)
(4.20074e-13 0 -3.6953e-13)
(5.00018e-13 0 -3.01271e-13)
(5.61899e-13 0 -2.31151e-13)
(6.05877e-13 0 -1.61049e-13)
(6.32573e-13 0 -9.25826e-14)
(6.42923e-13 0 -2.70692e-14)
(6.38046e-13 0 3.44869e-14)
(6.19169e-13 0 9.13653e-14)
(5.87598e-13 0 1.43077e-13)
(5.44695e-13 0 1.89309e-13)
(4.91856e-13 0 2.29873e-13)
(4.30487e-13 0 2.64667e-13)
(3.61982e-13 0 2.9365e-13)
(2.87707e-13 0 3.16812e-13)
(2.08988e-13 0 3.34157e-13)
(1.27114e-13 0 3.45695e-13)
(4.2773e-14 0 3.51439e-13)
(-3.09224e-05 0 2.93513e-05)
(-9.15396e-05 0 0.000123899)
(-8.66555e-05 0 0.000310808)
(-0.000216706 0 0.000404787)
(-0.000321162 0 0.000400329)
(-0.000389991 0 0.000348971)
(-0.000371818 0 0.000309616)
(-0.000391857 0 0.000194192)
(-0.000373389 0 0.000142568)
(-0.00037169 0 8.56658e-05)
(-0.000363151 0 0.000105595)
(-0.000388472 0 8.01864e-06)
(-0.000413631 0 -3.36092e-05)
(-0.000440388 0 -1.67759e-05)
(-0.000447038 0 -1.51369e-05)
(-0.000419929 0 -5.74624e-05)
(-0.000398238 0 -5.36194e-05)
(-0.000369283 0 -8.83655e-05)
(-0.000309213 0 -0.00016879)
(-0.000242543 0 -0.000232499)
(1.27081e-05 0 -0.000420616)
(0.000140652 0 -0.000474956)
(0.000249268 0 -0.000498839)
(0.00042396 0 -0.000446211)
(0.000360108 0 -0.000571098)
(0.000489537 0 -0.000557017)
(0.000580891 0 -0.000519466)
(0.00065426 0 -0.000430429)
(0.000688366 0 -0.000389696)
(0.000731016 0 -0.000374911)
(0.00073181 0 -0.00044596)
(0.000777993 0 -0.000390228)
(0.000776267 0 -0.000412823)
(0.000807369 0 -0.00036912)
(0.000808125 0 -0.000350069)
(0.000831664 0 -0.000228399)
(0.000836165 0 -7.38809e-05)
(0.000744031 0 0.000249835)
(0.000722001 0 0.00034129)
(0.000691145 0 0.000469437)
(0.000652605 0 0.000511032)
(0.000588454 0 0.000516466)
(0.000508594 0 0.000473465)
(0.000460609 0 0.000400844)
(0.000423724 0 0.000362056)
(0.000408869 0 0.000227827)
(0.00040948 0 0.000106648)
(0.000380065 0 -6.55757e-05)
(0.000377977 0 -0.000129299)
(0.000374175 0 -0.000126914)
(0.000289561 0 -0.000153195)
(0.000247237 0 -0.00021216)
(0.000240101 0 -0.000277215)
(0.000302224 0 -0.00028722)
(0.000359464 0 -0.000254057)
(0.000367996 0 -0.000233992)
(0.000380388 0 -0.000205663)
(0.000401122 0 -0.000135766)
(0.000419398 0 -2.50685e-05)
(0.0004171 0 7.62024e-05)
(0.00038011 0 0.000169423)
(0.000404542 0 0.000193527)
(0.000285354 0 0.000384359)
(0.000254615 0 0.000456829)
(0.000174258 0 0.000526738)
(0.000154016 0 0.000524982)
(0.000166732 0 0.000452879)
(0.00017135 0 0.000334291)
(0.000191142 0 0.000236142)
(0.000192703 0 9.759e-05)
(0.000207468 0 1.65409e-05)
(0.000228129 0 -2.58178e-05)
(0.000268105 0 -5.6089e-05)
(0.000271157 0 -0.000139911)
(0.000276283 0 -0.000119455)
(0.000295872 0 -7.61655e-05)
(0.00030449 0 -3.28863e-05)
(0.000296742 0 -4.45187e-06)
(0.000327991 0 2.20143e-05)
(-0.000187191 0 3.14907e-05)
(9.11819e-06 0 0.000606475)
(-1.71347e-12 0 2.54862e-12)
(-3.31927e-12 0 -4.76345e-13)
(-1.31146e-12 0 -4.14819e-13)
(-1.21992e-12 0 -2.70421e-13)
(-1.2229e-12 0 -1.59753e-13)
(-1.26675e-12 0 -1.10636e-13)
(-1.31414e-12 0 -1.17724e-13)
(-1.34407e-12 0 -1.67506e-13)
(-1.34597e-12 0 -2.46034e-13)
(-1.31518e-12 0 -3.41122e-13)
(-1.25081e-12 0 -4.42132e-13)
(-1.15466e-12 0 -5.39963e-13)
(-1.03049e-12 0 -6.27189e-13)
(-8.83537e-13 0 -6.98177e-13)
(-7.19915e-13 0 -7.49136e-13)
(-5.4615e-13 0 -7.78052e-13)
(-3.68698e-13 0 -7.8452e-13)
(-1.93558e-13 0 -7.69476e-13)
(-2.60181e-14 0 -7.34887e-13)
(1.29526e-13 0 -6.83438e-13)
(2.69691e-13 0 -6.18243e-13)
(3.92093e-13 0 -5.42561e-13)
(4.95208e-13 0 -4.59553e-13)
(5.78219e-13 0 -3.72143e-13)
(6.40955e-13 0 -2.82955e-13)
(6.8385e-13 0 -1.94289e-13)
(7.07841e-13 0 -1.08098e-13)
(7.14203e-13 0 -2.59623e-14)
(7.04387e-13 0 5.09178e-14)
(6.79909e-13 0 1.2169e-13)
(6.42304e-13 0 1.85794e-13)
(5.93105e-13 0 2.42892e-13)
(5.33829e-13 0 2.9281e-13)
(4.65962e-13 0 3.35483e-13)
(3.90949e-13 0 3.70917e-13)
(3.10182e-13 0 3.99155e-13)
(2.24999e-13 0 4.20253e-13)
(1.36689e-13 0 4.34266e-13)
(4.59556e-14 0 4.41243e-13)
(-2.06242e-05 0 0.000125181)
(-0.000303639 0 0.000191203)
(-0.000435155 0 0.000251786)
(-0.000415331 0 0.000371782)
(-0.000377768 0 0.000418998)
(-0.000330854 0 0.000407809)
(-0.000375729 0 0.000282608)
(-0.000388458 0 0.000213959)
(-0.000411391 0 0.000152826)
(-0.000427969 0 0.00011039)
(-0.000429099 0 9.6546e-05)
(-0.000444945 0 4.82827e-05)
(-0.000461905 0 8.79443e-06)
(-0.00046624 0 4.17931e-06)
(-0.000450013 0 -3.12212e-05)
(-0.000409745 0 -7.75428e-05)
(-0.00037846 0 -7.22134e-05)
(-0.000318468 0 -0.00014693)
(-0.000251006 0 -0.000219966)
(4.3837e-06 0 -0.000468141)
(3.0693e-05 0 -0.000508684)
(0.000180857 0 -0.000613646)
(0.000364314 0 -0.000637462)
(0.000365673 0 -0.000668748)
(0.000549329 0 -0.000549801)
(0.000526829 0 -0.000584045)
(0.00060335 0 -0.000511565)
(0.000615341 0 -0.000486179)
(0.000641554 0 -0.000446631)
(0.000673168 0 -0.000417073)
(0.000697742 0 -0.000417995)
(0.00069056 0 -0.000445781)
(0.000685496 0 -0.000439086)
(0.000661043 0 -0.000435444)
(0.000710724 0 -0.000289949)
(0.000710794 0 -0.000140865)
(0.000576488 0 0.000177317)
(0.000522254 0 0.000304769)
(0.000552231 0 0.000376265)
(0.000578557 0 0.000506073)
(0.000550766 0 0.000563625)
(0.000534327 0 0.000550209)
(0.000474805 0 0.000538477)
(0.0004404 0 0.000478539)
(0.000408623 0 0.000390767)
(0.000408828 0 0.000279708)
(0.00040358 0 0.000102191)
(0.000389984 0 -3.64283e-05)
(0.000390229 0 -1.91619e-05)
(0.000347999 0 -3.37356e-05)
(0.000184882 0 -0.000145924)
(0.00017173 0 -0.000192731)
(0.000194451 0 -0.000290498)
(0.00028509 0 -0.000301482)
(0.000338344 0 -0.000278146)
(0.000351767 0 -0.000255726)
(0.000366564 0 -0.000214322)
(0.000367504 0 -0.000186558)
(0.000388266 0 -6.43187e-05)
(0.000340009 0 0.000124279)
(0.000336643 0 0.000167688)
(0.000229981 0 0.000328865)
(0.00020816 0 0.000436401)
(0.000167924 0 0.000508259)
(0.000104958 0 0.000545765)
(0.000121897 0 0.000520831)
(0.000113949 0 0.000438602)
(0.000167532 0 0.000306438)
(0.000191388 0 0.000223863)
(0.000201961 0 7.97454e-05)
(0.000213366 0 -4.78762e-06)
(0.0002311 0 -5.55007e-05)
(0.000267258 0 -9.06304e-05)
(0.000275129 0 -0.000147465)
(0.000273949 0 -0.000146023)
(0.000277092 0 -0.000105647)
(0.000290567 0 -1.06234e-05)
(0.000272896 0 2.28267e-05)
(0.00030818 0 1.07791e-05)
(-0.000175285 0 6.32651e-05)
(1.09105e-05 0 0.000794681)
(-2.50477e-12 0 3.27124e-12)
(-3.41552e-12 0 -9.85156e-13)
(-1.14272e-12 0 -6.07499e-13)
(-1.04488e-12 0 -2.68312e-13)
(-1.12232e-12 0 -8.26698e-14)
(-1.24368e-12 0 -2.3738e-14)
(-1.351e-12 0 -5.1019e-14)
(-1.42205e-12 0 -1.34107e-13)
(-1.44907e-12 0 -2.51312e-13)
(-1.43e-12 0 -3.86367e-13)
(-1.36613e-12 0 -5.25753e-13)
(-1.2612e-12 0 -6.58086e-13)
(-1.12099e-12 0 -7.74149e-13)
(-9.5282e-13 0 -8.67079e-13)
(-7.64878e-13 0 -9.32466e-13)
(-5.65619e-13 0 -9.68255e-13)
(-3.63168e-13 0 -9.74487e-13)
(-1.6485e-13 0 -9.52912e-13)
(2.30868e-14 0 -9.06531e-13)
(1.95632e-13 0 -8.39171e-13)
(3.49116e-13 0 -7.55098e-13)
(4.81167e-13 0 -6.58656e-13)
(5.90491e-13 0 -5.53964e-13)
(6.76616e-13 0 -4.44728e-13)
(7.39754e-13 0 -3.34177e-13)
(7.80734e-13 0 -2.25053e-13)
(8.00899e-13 0 -1.19628e-13)
(8.01939e-13 0 -1.97068e-14)
(7.85698e-13 0 7.33565e-14)
(7.54045e-13 0 1.58622e-13)
(7.088e-13 0 2.35498e-13)
(6.51711e-13 0 3.03669e-13)
(5.84447e-13 0 3.63018e-13)
(5.08595e-13 0 4.13558e-13)
(4.25654e-13 0 4.55382e-13)
(3.37043e-13 0 4.88617e-13)
(2.441e-13 0 5.13394e-13)
(1.48104e-13 0 5.2983e-13)
(4.97498e-14 0 5.38013e-13)
(-3.45751e-05 0 0.000200535)
(-3.28317e-05 0 0.000354959)
(-0.00017499 0 0.000473222)
(-0.0002596 0 0.00049581)
(-0.000320757 0 0.000466322)
(-0.000358635 0 0.000385192)
(-0.00036274 0 0.000312367)
(-0.000380453 0 0.000264563)
(-0.000444577 0 0.000167886)
(-0.000475367 0 0.000129141)
(-0.000478549 0 0.000121562)
(-0.000468133 0 3.5764e-05)
(-0.000448015 0 4.3313e-06)
(-0.000429441 0 -2.99332e-05)
(-0.000391688 0 -9.6951e-05)
(-0.000342935 0 -0.000133266)
(-0.000298852 0 -0.000147969)
(-0.000203985 0 -0.00025164)
(5.41053e-05 0 -0.000518226)
(0.000130881 0 -0.000585629)
(0.000247935 0 -0.000681245)
(0.000355157 0 -0.000718696)
(0.000409979 0 -0.000749758)
(0.000511275 0 -0.000682964)
(0.000529186 0 -0.00063634)
(0.000537526 0 -0.000588007)
(0.000543233 0 -0.000547086)
(0.00049425 0 -0.000542746)
(0.000519443 0 -0.000469464)
(0.000542948 0 -0.00044327)
(0.000539655 0 -0.000453441)
(0.000558704 0 -0.000425783)
(0.00054203 0 -0.000403461)
(0.000471018 0 -0.0004043)
(0.00050519 0 -0.000287944)
(0.00048325 0 -0.000101257)
(0.000393606 0 0.000120242)
(0.000401649 0 0.000197853)
(0.000455996 0 0.000331891)
(0.000461204 0 0.000513035)
(0.000461468 0 0.000567386)
(0.000461955 0 0.000559472)
(0.000444654 0 0.000533693)
(0.000420665 0 0.000475579)
(0.000401633 0 0.000385203)
(0.000407229 0 0.000262589)
(0.000390045 0 0.000148359)
(0.000344777 0 1.52187e-05)
(0.000304911 0 3.33014e-06)
(0.000230934 0 1.79231e-05)
(0.000153545 0 -5.03386e-05)
(0.000169621 0 -0.000146508)
(0.000142627 0 -0.000361778)
(0.000267456 0 -0.000375562)
(0.000306192 0 -0.00034302)
(0.000359847 0 -0.000274078)
(0.0003757 0 -0.000205464)
(0.000357303 0 -0.000124983)
(0.000284839 0 7.53101e-05)
(0.00025418 0 0.000149601)
(0.000193826 0 0.000259965)
(0.000165449 0 0.000369798)
(0.00011808 0 0.000486464)
(9.03802e-05 0 0.000544465)
(5.85224e-05 0 0.000552416)
(5.4189e-05 0 0.000511503)
(9.3163e-05 0 0.000395611)
(0.000145014 0 0.000283407)
(0.000176603 0 0.000206364)
(0.000194165 0 7.67383e-05)
(0.000200829 0 -1.67831e-05)
(0.00021488 0 -6.5571e-05)
(0.000236179 0 -0.000119217)
(0.000242985 0 -0.000142448)
(0.000244021 0 -0.000121174)
(0.00024823 0 -0.000105881)
(0.000265441 0 -2.29025e-05)
(0.000219484 0 5.96565e-05)
(0.000479135 0 0.000113631)
(-0.000684535 0 -4.78983e-05)
(1.34195e-05 0 0.00103801)
(-3.78959e-12 0 3.42942e-12)
(-3.19483e-12 0 -2.13097e-12)
(-5.94122e-13 0 -7.61662e-13)
(-6.94589e-13 0 -1.12517e-13)
(-9.77806e-13 0 1.21259e-13)
(-1.23457e-12 0 1.4952e-13)
(-1.424e-12 0 7.1638e-14)
(-1.54408e-12 0 -6.62696e-14)
(-1.59821e-12 0 -2.38613e-13)
(-1.58962e-12 0 -4.27207e-13)
(-1.52253e-12 0 -6.16383e-13)
(-1.40306e-12 0 -7.92476e-13)
(-1.23949e-12 0 -9.44281e-13)
(-1.04185e-12 0 -1.0636e-12)
(-8.2109e-13 0 -1.1455e-12)
(-5.88172e-13 0 -1.18815e-12)
(-3.53356e-13 0 -1.19243e-12)
(-1.25602e-13 0 -1.16135e-12)
(8.77233e-14 0 -1.09938e-12)
(2.80959e-13 0 -1.01189e-12)
(4.50205e-13 0 -9.04614e-13)
(5.93228e-13 0 -7.83241e-13)
(7.09136e-13 0 -6.53029e-13)
(7.98006e-13 0 -5.18597e-13)
(8.60631e-13 0 -3.83848e-13)
(8.98399e-13 0 -2.51986e-13)
(9.13187e-13 0 -1.25574e-13)
(9.07187e-13 0 -6.58486e-15)
(8.82715e-13 0 1.03548e-13)
(8.42051e-13 0 2.03873e-13)
(7.87352e-13 0 2.9384e-13)
(7.20625e-13 0 3.73217e-13)
(6.43717e-13 0 4.41998e-13)
(5.58326e-13 0 5.00326e-13)
(4.66008e-13 0 5.48417e-13)
(3.68194e-13 0 5.86517e-13)
(2.66212e-13 0 6.14856e-13)
(1.61309e-13 0 6.33627e-13)
(5.4139e-14 0 6.42973e-13)
(-9.28753e-05 0 0.000230244)
(-8.2878e-06 0 0.000438194)
(-0.000136392 0 0.000525397)
(-0.000214302 0 0.000534075)
(-0.00033103 0 0.000467224)
(-0.000334138 0 0.000406363)
(-0.000362647 0 0.000331235)
(-0.000389797 0 0.000278605)
(-0.000441027 0 0.000201117)
(-0.000470019 0 0.000157082)
(-0.000468941 0 0.000112798)
(-0.000438932 0 2.19797e-05)
(-0.000394802 0 -5.42928e-05)
(-0.000353234 0 -8.16346e-05)
(-0.000309752 0 -0.000123141)
(-0.000275562 0 -0.000149728)
(-0.000233186 0 -0.000209761)
(6.26672e-05 0 -0.000535728)
(0.000162263 0 -0.000611939)
(0.000249739 0 -0.000731011)
(0.000390602 0 -0.000800665)
(0.000443612 0 -0.000802659)
(0.000505099 0 -0.000763651)
(0.000516782 0 -0.00072846)
(0.000559136 0 -0.000629242)
(0.00049758 0 -0.000588436)
(0.000446916 0 -0.000517303)
(0.000413764 0 -0.000475401)
(0.000398787 0 -0.000470735)
(0.00040652 0 -0.000448982)
(0.00038694 0 -0.000446518)
(0.0004081 0 -0.000398581)
(0.000354486 0 -0.000377137)
(0.000266441 0 -0.000363725)
(0.000268066 0 -0.000314633)
(0.000320865 0 -4.83045e-05)
(0.000298682 0 9.92123e-05)
(0.000314406 0 0.000185272)
(0.000341122 0 0.000325822)
(0.000360557 0 0.000475363)
(0.000356957 0 0.000557048)
(0.000365718 0 0.000555365)
(0.00036671 0 0.000535589)
(0.000369593 0 0.000475995)
(0.000371069 0 0.000385608)
(0.00037297 0 0.000264715)
(0.000346389 0 0.00013103)
(0.000292783 0 -1.73168e-05)
(0.000255653 0 4.23233e-05)
(0.000142992 0 4.23144e-05)
(0.00014299 0 -3.3285e-05)
(0.000171167 0 -0.000228357)
(0.000238652 0 -0.000409269)
(0.000295034 0 -0.00044635)
(0.00031782 0 -0.00042148)
(0.000370579 0 -0.000321874)
(0.000393451 0 -0.000184865)
(0.000318964 0 -7.80895e-05)
(0.000176553 0 0.000125585)
(0.000140162 0 0.000194265)
(0.000106385 0 0.000302389)