/*--------------------------------*- C++ -*----------------------------------*\
  =========                 |
  \\      /  F ield         | OpenFOAM: The Open Source CFD Toolbox
   \\    /   O peration     | Website:  https://openfoam.org
    \\  /    A nd           | Version:  6
     \\/     M anipulation  |
\*---------------------------------------------------------------------------*/
FoamFile
{
    version     2.0;
    format      ascii;
    class       surfaceScalarField;
    location    "7100";
    object      phi;
}
// * * * * * * * * * * * * * * * * * * * * * * * * * * * * * * * * * * * * * //

dimensions      [0 3 -1 0 0 0 0];

internalField   nonuniform List<scalar> 
9440
(
1.97309e-14
-1.97308e-14
3.89298e-14
-1.91938e-14
5.79637e-14
-1.90298e-14
7.6374e-14
-1.84053e-14
9.41973e-14
-1.7821e-14
1.11592e-13
-1.73896e-14
1.28688e-13
-1.70914e-14
1.45779e-13
-1.70841e-14
1.63178e-13
-1.73927e-14
1.81366e-13
-1.81835e-14
2.00726e-13
-1.93541e-14
2.218e-13
-2.10688e-14
2.45147e-13
-2.33418e-14
2.70898e-13
-2.5747e-14
2.99276e-13
-2.83704e-14
3.30255e-13
-3.09719e-14
3.64315e-13
-3.40514e-14
4.0336e-13
-3.90382e-14
4.45588e-13
-4.22178e-14
4.90217e-13
-4.46202e-14
5.37179e-13
-4.69522e-14
5.89915e-13
-5.27261e-14
6.43495e-13
-5.35676e-14
6.99002e-13
-5.54964e-14
7.56461e-13
-5.74499e-14
8.14785e-13
-5.8312e-14
8.734e-13
-5.8604e-14
9.31783e-13
-5.83698e-14
9.89187e-13
-5.73917e-14
1.04517e-12
-5.5966e-14
1.09915e-12
-5.39679e-14
1.15058e-12
-5.14147e-14
1.19904e-12
-4.84539e-14
1.24405e-12
-4.49994e-14
1.28538e-12
-4.13094e-14
1.32263e-12
-3.72394e-14
1.35568e-12
-3.30376e-14
1.38425e-12
-2.8557e-14
1.40835e-12
-2.40992e-14
1.42788e-12
-1.95184e-14
1.4429e-12
-1.50061e-14
1.45327e-12
-1.03701e-14
1.45918e-12
-5.89759e-15
1.46075e-12
-1.56188e-15
1.45783e-12
2.92425e-15
1.45076e-12
7.06922e-15
1.43947e-12
1.12966e-14
1.42473e-12
1.47419e-14
1.40617e-12
1.85583e-14
1.38418e-12
2.19809e-14
1.35893e-12
2.52493e-14
1.33044e-12
2.84817e-14
1.2991e-12
3.13364e-14
1.26508e-12
3.40035e-14
1.22855e-12
3.65194e-14
1.18989e-12
3.86474e-14
1.14908e-12
4.0798e-14
1.10654e-12
4.2526e-14
1.06214e-12
4.43782e-14
1.01643e-12
4.5688e-14
9.69525e-13
4.68798e-14
9.21571e-13
4.79286e-14
8.7271e-13
4.88316e-14
8.23114e-13
4.95685e-14
7.72934e-13
5.01468e-14
7.22396e-13
5.05068e-14
6.71527e-13
5.08337e-14
6.20484e-13
5.1005e-14
5.69396e-13
5.10508e-14
5.18531e-13
5.08238e-14
4.68009e-13
5.04809e-14
4.18116e-13
4.98494e-14
3.69363e-13
4.87085e-14
3.2314e-13
4.6178e-14
2.82946e-13
4.01471e-14
2.60356e-13
2.25423e-14
2.94204e-13
-3.38963e-14
1.4935e-13
1.44806e-13
3.04591e-17
1.4927e-13
1.68911e-21
2.44849e-22
1.68662e-21
2.84343e-24
1.67881e-21
7.59972e-24
1.66346e-21
1.13737e-23
1.64413e-21
1.47342e-23
1.62195e-21
1.81463e-23
1.59667e-21
2.10931e-23
1.56859e-21
2.39365e-23
1.53814e-21
2.66766e-23
1.50542e-21
2.90547e-23
1.47052e-21
3.12778e-23
1.43402e-21
3.33974e-23
1.39582e-21
3.51552e-23
1.35637e-21
3.68612e-23
1.31548e-21
3.83088e-23
1.2735e-21
3.97047e-23
1.23064e-21
4.10488e-23
1.18685e-21
4.20828e-23
1.14249e-21
4.32202e-23
1.09736e-21
4.42542e-23
1.05166e-21
4.52881e-23
1.00523e-21
4.62187e-23
9.58185e-22
4.73044e-23
9.10674e-22
4.83384e-23
8.62439e-22
4.93723e-23
8.13842e-22
5.05097e-23
7.64367e-22
5.16471e-23
7.14374e-22
5.28362e-23
6.63554e-22
5.40252e-23
6.1201e-22
5.51626e-23
5.59743e-22
5.65068e-23
5.06855e-22
5.76959e-23
4.53295e-22
5.88849e-23
3.9896e-22
5.99189e-23
3.43952e-22
6.10046e-23
2.88272e-22
6.20386e-23
2.32128e-22
6.28657e-23
1.75776e-22
6.36929e-23
1.1839e-22
6.44684e-23
6.03325e-23
6.55024e-23
6.78805e-23
2.08176e-14
-4.05451e-14
3.97217e-14
-3.80879e-14
5.80247e-14
-3.73266e-14
7.60212e-14
-3.63931e-14
9.36192e-14
-3.54112e-14
1.10744e-13
-3.45068e-14
1.27566e-13
-3.39038e-14
1.44322e-13
-3.38318e-14
1.61413e-13
-3.44746e-14
1.79155e-13
-3.5914e-14
1.98191e-13
-3.83781e-14
2.18985e-13
-4.18525e-14
2.42032e-13
-4.63753e-14
2.6749e-13
-5.11896e-14
2.95746e-13
-5.66121e-14
3.26231e-13
-6.14449e-14
3.60666e-13
-6.84733e-14
3.99842e-13
-7.81967e-14
4.42037e-13
-8.43972e-14
4.86693e-13
-8.92568e-14
5.34556e-13
-9.47971e-14
5.87245e-13
-1.05395e-13
6.41395e-13
-1.07701e-13
6.97373e-13
-1.11455e-13
7.55528e-13
-1.15584e-13
8.14476e-13
-1.17238e-13
8.73646e-13
-1.17753e-13
9.32658e-13
-1.17362e-13
9.9065e-13
-1.15361e-13
1.04721e-12
-1.12501e-13
1.10171e-12
-1.08454e-13
1.15362e-12
-1.033e-13
1.20249e-12
-9.73045e-14
1.24786e-12
-9.03477e-14
1.28936e-12
-8.27881e-14
1.32689e-12
-7.47475e-14
1.36007e-12
-6.61945e-14
1.38877e-12
-5.72453e-14
1.41292e-12
-4.8224e-14
1.43247e-12
-3.90592e-14
1.44736e-12
-2.98781e-14
1.4578e-12
-2.0798e-14
1.46363e-12
-1.17209e-14
1.46497e-12
-2.89246e-15
1.46201e-12
5.89335e-15
1.45482e-12
1.4267e-14
1.44344e-12
2.268e-14
1.4284e-12
2.97737e-14
1.40978e-12
3.71745e-14
1.38759e-12
4.41646e-14
1.36215e-12
5.06791e-14
1.33344e-12
5.71766e-14
1.30184e-12
6.29178e-14
1.26767e-12
6.81498e-14
1.23096e-12
7.32115e-14
1.19203e-12
7.75461e-14
1.15107e-12
8.17215e-14
1.10822e-12
8.53406e-14
1.06367e-12
8.88888e-14
1.01777e-12
9.15477e-14
9.70677e-13
9.39226e-14
9.22615e-13
9.59385e-14
8.73614e-13
9.77788e-14
8.23863e-13
9.92601e-14
7.73592e-13
1.00359e-13
7.22894e-13
1.01137e-13
6.71812e-13
1.0185e-13
6.20621e-13
1.02127e-13
5.69452e-13
1.02146e-13
5.18398e-13
1.01806e-13
4.67553e-13
1.01247e-13
4.17136e-13
1.00187e-13
3.67319e-13
9.84444e-14
3.17999e-13
9.54142e-14
2.68206e-13
8.98536e-14
2.1066e-13
8.00019e-14
1.15187e-13
6.14882e-14
6.39303e-14
1.95976e-13
2.36259e-17
2.13107e-13
1.69408e-21
4.46685e-22
1.69148e-21
4.65289e-24
1.68254e-21
1.23043e-23
1.66682e-21
1.95938e-23
1.64749e-21
2.64181e-23
1.62489e-21
3.30872e-23
1.59946e-21
3.93945e-23
1.57128e-21
4.52881e-23
1.54057e-21
5.09233e-23
1.50764e-21
5.58864e-23
1.47259e-21
6.04876e-23
1.43583e-21
6.47786e-23
1.39752e-21
6.87594e-23
1.35782e-21
7.22232e-23
1.31687e-21
7.54285e-23
1.27484e-21
7.84788e-23
1.23172e-21
8.11154e-23
1.18799e-21
8.3752e-23
1.14347e-21
8.61819e-23
1.09834e-21
8.86117e-23
1.05254e-21
9.10416e-23
1.00627e-21
9.34714e-23
9.59219e-22
9.57979e-23
9.11657e-22
9.82794e-23
8.63628e-22
1.00864e-22
8.14928e-22
1.03449e-22
7.65556e-22
1.06138e-22
7.15563e-22
1.08878e-22
6.64691e-22
1.11721e-22
6.13303e-22
1.14565e-22
5.60932e-22
1.17356e-22
5.08044e-22
1.20148e-22
4.54381e-22
1.22785e-22
3.99994e-22
1.25318e-22
3.44934e-22
1.27696e-22
2.891e-22
1.29661e-22
2.33006e-22
1.31625e-22
1.76448e-22
1.33228e-22
1.19528e-22
1.34624e-22
6.26589e-23
1.35813e-22
1.3633e-22
1.93309e-14
-5.98716e-14
3.95445e-14
-5.8297e-14
5.91582e-14
-5.69301e-14
7.78507e-14
-5.50786e-14
9.56658e-14
-5.32203e-14
1.12699e-13
-5.15314e-14
1.29082e-13
-5.02785e-14
1.45173e-13
-4.99159e-14
1.61351e-13
-5.06418e-14
1.7819e-13
-5.27483e-14
1.96079e-13
-5.62583e-14
2.15836e-13
-6.16017e-14
2.37819e-13
-6.83452e-14
2.62439e-13
-7.58011e-14
2.89759e-13
-8.39213e-14
3.19157e-13
-9.0829e-14
3.54078e-13
-1.03378e-13
3.93181e-13
-1.17284e-13
4.35138e-13
-1.2634e-13
4.79673e-13
-1.33776e-13
5.29476e-13
-1.44584e-13
5.8234e-13
-1.58239e-13
6.37328e-13
-1.62674e-13
6.94384e-13
-1.68493e-13
7.53822e-13
-1.75005e-13
8.13792e-13
-1.77189e-13
8.74199e-13
-1.78142e-13
9.34393e-13
-1.77535e-13
9.93619e-13
-1.74568e-13
1.05129e-12
-1.70151e-13
1.10676e-12
-1.63911e-13
1.15963e-12
-1.56145e-13
1.20931e-12
-1.46963e-13
1.25543e-12
-1.36451e-13
1.2975e-12
-1.24843e-13
1.33541e-12
-1.12637e-13
1.36893e-12
-9.97011e-14
1.3978e-12
-8.61019e-14
1.42213e-12
-7.25399e-14
1.44173e-12
-5.86458e-14
1.45658e-12
-4.47077e-14
1.46678e-12
-3.09908e-14
1.47245e-12
-1.73857e-14
1.47356e-12
-3.99095e-15
1.47042e-12
9.03659e-15
1.463e-12
2.16892e-14
1.45114e-12
3.45395e-14
1.43572e-12
4.51945e-14
1.41669e-12
5.62025e-14
1.39411e-12
6.67412e-14
1.36831e-12
7.64688e-14
1.33919e-12
8.62783e-14
1.30716e-12
9.49395e-14
1.2725e-12
1.0279e-13
1.23524e-12
1.10445e-13
1.19596e-12
1.16806e-13
1.15457e-12
1.23084e-13
1.11136e-12
1.28517e-13
1.06643e-12
1.33787e-13
1.02015e-12
1.37783e-13
9.72705e-13
1.41331e-13
9.24183e-13
1.44417e-13
8.74816e-13
1.47103e-13
8.248e-13
1.49223e-13
7.74225e-13
1.5088e-13
7.23159e-13
1.52148e-13
6.71917e-13
1.53034e-13
6.20474e-13
1.53509e-13
5.69e-13
1.53557e-13
5.17632e-13
1.53108e-13
4.66385e-13
1.52427e-13
4.15313e-13
1.5119e-13
3.64201e-13
1.49485e-13
3.12432e-13
1.47111e-13
2.57816e-13
1.44394e-13
1.94889e-13
1.42854e-13
1.07453e-13
1.48851e-13
5.96567e-14
2.43696e-13
2.30308e-17
2.72679e-13
1.704e-21
6.88225e-22
1.69908e-21
6.92764e-24
1.68983e-21
1.81463e-23
1.6737e-21
2.88996e-23
1.65415e-21
3.94462e-23
1.6312e-21
4.95274e-23
1.60535e-21
5.89366e-23
1.57686e-21
6.79322e-23
1.54554e-21
7.61523e-23
1.51219e-21
8.39071e-23
1.47688e-21
9.09899e-23
1.43976e-21
9.73488e-23
1.40099e-21
1.03087e-22
1.36097e-21
1.08516e-22
1.31982e-21
1.13427e-22
1.27753e-21
1.17873e-22
1.23436e-21
1.22009e-22
1.19042e-21
1.25938e-22
1.14596e-21
1.29661e-22
1.10077e-21
1.33228e-22
1.05497e-21
1.36795e-22
1.00859e-21
1.40517e-22
9.61701e-22
1.44136e-22
9.14293e-22
1.47962e-22
8.66213e-22
1.51839e-22
8.17616e-22
1.55975e-22
7.68347e-22
1.60008e-22
7.18303e-22
1.6435e-22
6.67587e-22
1.68641e-22
6.16043e-22
1.73088e-22
5.63724e-22
1.77379e-22
5.10681e-22
1.8167e-22
4.56914e-22
1.85702e-22
4.0232e-22
1.89528e-22
3.47002e-22
1.92992e-22
2.91013e-22
1.963e-22
2.34609e-22
1.9904e-22
1.77896e-22
2.01522e-22
1.20613e-22
2.0328e-22
6.32276e-23
2.0452e-22
2.05193e-22
2.04525e-14
-8.03219e-14
4.10562e-14
-7.88926e-14
6.10615e-14
-7.69315e-14
8.00083e-14
-7.40177e-14
9.76825e-14
-7.08834e-14
1.14213e-13
-6.80547e-14
1.29784e-13
-6.58441e-14
1.4476e-13
-6.48816e-14
1.59632e-13
-6.55099e-14
1.74877e-13
-6.79848e-14
1.91365e-13
-7.27356e-14
2.09672e-13
-7.98987e-14
2.30026e-13
-8.86891e-14
2.53722e-13
-9.94856e-14
2.79768e-13
-1.09953e-13
3.07857e-13
-1.18904e-13
3.43486e-13
-1.38996e-13
3.8245e-13
-1.56235e-13
4.24578e-13
-1.68453e-13
4.68428e-13
-1.7761e-13
5.21777e-13
-1.97919e-13
5.74452e-13
-2.109e-13
6.30985e-13
-2.19187e-13
6.89816e-13
-2.27308e-13
7.50934e-13
-2.36104e-13
8.127e-13
-2.38938e-13
8.75014e-13
-2.4044e-13
9.37033e-13
-2.39538e-13
9.98193e-13
-2.3571e-13
1.05744e-12
-2.2938e-13
1.11457e-12
-2.21022e-13
1.16885e-12
-2.10409e-13
1.21973e-12
-1.97821e-13
1.2669e-12
-1.83601e-13
1.30984e-12
-1.67766e-13
1.34841e-12
-1.51192e-13
1.38234e-12
-1.33611e-13
1.41157e-12
-1.15314e-13
1.43595e-12
-9.69086e-14
1.45552e-12
-7.81975e-14
1.47036e-12
-5.95387e-14
1.4804e-12
-4.10198e-14
1.48576e-12
-2.27354e-14
1.48642e-12
-4.64772e-15
1.48284e-12
1.26237e-14
1.47524e-12
2.92972e-14
1.46294e-12
4.6839e-14
1.44676e-12
6.13693e-14
1.42725e-12
7.57084e-14
1.40405e-12
8.99401e-14
1.37759e-12
1.02912e-13
1.34786e-12
1.16004e-13
1.31514e-12
1.27644e-13
1.27986e-12
1.38045e-13
1.24207e-12
1.48218e-13
1.20206e-12
1.56789e-13
1.15999e-12
1.65127e-13
1.11612e-12
1.72354e-13
1.07065e-12
1.79224e-13
1.0238e-12
1.84591e-13
9.75765e-13
1.89327e-13
9.2676e-13
1.93378e-13
8.76948e-13
1.9687e-13
8.26476e-13
1.99644e-13
7.75474e-13
2.01832e-13
7.23992e-13
2.03573e-13
6.72292e-13
2.04676e-13
6.20439e-13
2.05302e-13
5.68638e-13
2.05297e-13
5.16797e-13
2.04884e-13
4.65097e-13
2.04063e-13
4.13523e-13
2.02696e-13
3.61899e-13
2.01037e-13
3.09558e-13
1.99379e-13
2.55699e-13
1.98182e-13
1.99964e-13
1.98514e-13
1.44524e-13
2.04216e-13
6.23988e-14
3.25744e-13
2.30242e-17
3.34994e-13
1.71227e-21
9.23147e-22
1.7103e-21
9.46088e-24
1.70058e-21
2.4195e-23
1.68435e-21
3.87741e-23
1.66418e-21
5.27328e-23
1.64071e-21
6.63296e-23
1.61429e-21
7.90992e-23
1.58508e-21
9.11967e-23
1.55329e-21
1.0226e-22
1.51927e-21
1.12548e-22
1.48324e-21
1.22061e-22
1.44555e-21
1.30643e-22
1.40641e-21
1.38398e-22
1.36583e-21
1.45377e-22
1.32426e-21
1.51788e-22
1.28172e-21
1.5763e-22
1.23824e-21
1.6311e-22
1.19414e-21
1.68383e-22
1.14957e-21
1.73294e-22
1.10434e-21
1.78154e-22
1.05869e-21
1.83014e-22
1.01231e-21
1.87822e-22
9.65475e-22
1.92733e-22
9.18119e-22
1.97903e-22
8.70297e-22
2.03228e-22
8.21752e-22
2.0876e-22
7.72587e-22
2.14447e-22
7.22646e-22
2.20133e-22
6.72033e-22
2.26079e-22
6.20386e-22
2.31921e-22
5.68015e-22
2.37763e-22
5.14661e-22
2.43501e-22
4.6074e-22
2.48981e-22
4.05887e-22
2.54048e-22
3.50259e-22
2.58804e-22
2.93753e-22
2.63043e-22
2.37091e-22
2.66766e-22
1.79705e-22
2.69764e-22
1.21854e-22
2.71987e-22
6.38997e-23
2.73383e-22
2.73952e-22
2.19579e-14
-1.02275e-13
4.34163e-14
-1.00344e-13
6.38853e-14
-9.73927e-14
8.30604e-14
-9.31893e-14
1.00491e-13
-8.83104e-14
1.16251e-13
-8.3808e-14
1.30643e-13
-8.02296e-14
1.44061e-13
-7.82922e-14
1.57048e-13
-7.84877e-14
1.70349e-13
-8.12786e-14
1.84719e-13
-8.70987e-14
2.00896e-13
-9.60697e-14
2.19302e-13
-1.07083e-13
2.41526e-13
-1.217e-13
2.65383e-13
-1.33798e-13
2.93132e-13
-1.46641e-13
3.2875e-13
-1.74601e-13
3.67527e-13
-1.94996e-13
4.09452e-13
-2.10365e-13
4.54343e-13
-2.22485e-13
5.09883e-13
-2.53443e-13
5.63729e-13
-2.6473e-13
6.22134e-13
-2.77575e-13
6.83585e-13
-2.88742e-13
7.46854e-13
-2.99358e-13
8.11212e-13
-3.03277e-13
8.76149e-13
-3.05359e-13
9.40681e-13
-3.04048e-13
1.00426e-12
-2.99274e-13
1.06603e-12
-2.91126e-13
1.12524e-12
-2.80216e-13
1.18139e-12
-2.66538e-13
1.23393e-12
-2.50342e-13
1.28246e-12
-2.32123e-13
1.3265e-12
-2.11789e-13
1.36601e-12
-1.90681e-13
1.40052e-12
-1.68107e-13
1.43015e-12
-1.44932e-13
1.45473e-12
-1.21464e-13
1.47429e-12
-9.77483e-14
1.48887e-12
-7.41127e-14
1.49863e-12
-5.07652e-14
1.50359e-12
-2.76817e-14
1.50377e-12
-4.82387e-15
1.49969e-12
1.671e-14
1.49142e-12
3.75653e-14
1.47888e-12
5.93809e-14
1.46147e-12
7.87778e-14
1.44122e-12
9.59643e-14
1.41729e-12
1.13861e-13
1.39003e-12
1.30162e-13
1.35947e-12
1.46546e-13
1.32596e-12
1.61141e-13
1.28984e-12
1.74147e-13
1.25107e-12
1.86972e-13
1.21024e-12
1.97594e-13
1.16728e-12
2.08051e-13
1.12259e-12
2.1702e-13
1.07624e-12
2.25537e-13
1.0287e-12
2.32097e-13
9.79906e-13
2.38081e-13
9.30243e-13
2.42999e-13
8.79731e-13
2.47335e-13
8.28629e-13
2.50697e-13
7.77072e-13
2.53337e-13
7.25045e-13
2.55544e-13
6.72808e-13
2.56857e-13
6.20546e-13
2.57503e-13
5.68186e-13
2.57597e-13
5.15858e-13
2.57148e-13
4.63743e-13
2.5611e-13
4.1177e-13
2.54601e-13
3.60068e-13
2.52672e-13
3.08668e-13
2.50709e-13
2.57123e-13
2.49652e-13
2.06882e-13
2.4868e-13
1.5549e-13
2.55533e-13
6.44885e-14
4.1667e-13
2.31967e-17
3.994e-13
1.72551e-21
1.13822e-21
1.72503e-21
1.18907e-23
1.71516e-21
3.07091e-23
1.69825e-21
4.90105e-23
1.67768e-21
6.68465e-23
1.65353e-21
8.39071e-23
1.62634e-21
1.00089e-22
1.5962e-21
1.15237e-22
1.56358e-21
1.29299e-22
1.52879e-21
1.4212e-22
1.49187e-21
1.53907e-22
1.45325e-21
1.64661e-22
1.41339e-21
1.74225e-22
1.37229e-21
1.83014e-22
1.33016e-21
1.90924e-22
1.2872e-21
1.98265e-22
1.24346e-21
2.04986e-22
1.1991e-21
2.11345e-22
1.15443e-21
2.17393e-22
1.10915e-21
2.23494e-22
1.06344e-21
2.29439e-22
1.01717e-21
2.35488e-22
9.70697e-22
2.41795e-22
9.23444e-22
2.48258e-22
8.75881e-22
2.5503e-22
8.27439e-22
2.61906e-22
7.78274e-22
2.69092e-22
7.28591e-22
2.76537e-22
6.77823e-22
2.83878e-22
6.26279e-22
2.91323e-22
5.73753e-22
2.98716e-22
5.20193e-22
3.05798e-22
4.65806e-22
3.12674e-22
4.10592e-22
3.19033e-22
3.54499e-22
3.24824e-22
2.97475e-22
3.30045e-22
2.40037e-22
3.34595e-22
1.81928e-22
3.38058e-22
1.2325e-22
3.40695e-22
6.44167e-23
3.42298e-22
3.42918e-22
2.37076e-14
-1.25978e-13
4.66393e-14
-1.2327e-13
6.81961e-14
-1.18944e-13
8.77413e-14
-1.12726e-13
1.04959e-13
-1.05524e-13
1.19824e-13
-9.86646e-14
1.32652e-13
-9.3052e-14
1.43805e-13
-8.94373e-14
1.54256e-13
-8.89312e-14
1.64951e-13
-9.19648e-14
1.7653e-13
-9.86697e-14
1.89366e-13
-1.08895e-13
2.06094e-13
-1.23802e-13
2.25125e-13
-1.40718e-13
2.45433e-13
-1.5409e-13
2.7548e-13
-1.76677e-13
3.09904e-13
-2.0901e-13
3.47905e-13
-2.32983e-13
3.88759e-13
-2.51205e-13
4.38496e-13
-2.72208e-13
4.93322e-13
-3.08252e-13
5.4995e-13
-3.21342e-13
6.10634e-13
-3.38243e-13
6.75617e-13
-3.53709e-13
7.41576e-13
-3.65297e-13
8.09335e-13
-3.71018e-13
8.77543e-13
-3.7355e-13
9.45425e-13
-3.71912e-13
1.01215e-12
-3.65976e-13
1.07704e-12
-3.55996e-13
1.13899e-12
-3.42149e-13
1.19757e-12
-3.251e-13
1.25223e-12
-3.04989e-13
1.30251e-12
-2.82385e-13
1.348e-12
-2.57254e-13
1.38846e-12
-2.31125e-13
1.42366e-12
-2.03286e-13
1.45375e-12
-1.75012e-13
1.47852e-12
-1.46216e-13
1.49794e-12
-1.17163e-13
1.5123e-12
-8.84607e-14
1.52165e-12
-6.01012e-14
1.52616e-12
-3.21832e-14
1.52562e-12
-4.27283e-15
1.52093e-12
2.14044e-14
1.51152e-12
4.69797e-14
1.4989e-12
7.20059e-14
1.48011e-12
9.75635e-14
1.45873e-12
1.17337e-13
1.43396e-12
1.38619e-13
1.40546e-12
1.58657e-13
1.37405e-12
1.7794e-13
1.33938e-12
1.95794e-13
1.30212e-12
2.11395e-13
1.26225e-12
2.26822e-13
1.22035e-12
2.3947e-13
1.17637e-12
2.52003e-13
1.13058e-12
2.62774e-13
1.08327e-12
2.72819e-13
1.03463e-12
2.80695e-13
9.84974e-13
2.877e-13
9.34506e-13
2.93425e-13
8.83254e-13
2.98541e-13
8.3135e-13
3.02555e-13
7.79075e-13
3.05559e-13
7.26387e-13
3.08179e-13
6.73584e-13
3.09599e-13
6.20659e-13
3.10372e-13
5.6771e-13
3.10484e-13
5.14862e-13
3.0993e-13
4.622e-13
3.08705e-13
4.09904e-13
3.0683e-13
3.58235e-13
3.04269e-13
3.07544e-13
3.0133e-13
2.57891e-13
2.99233e-13
2.13015e-13
2.93482e-13
1.65351e-13
3.03119e-13
5.23627e-14
5.29583e-13
2.29318e-17
4.51681e-13
1.74702e-21
1.38306e-21
1.74385e-21
1.46308e-23
1.73351e-21
3.74816e-23
1.71609e-21
6.00223e-23
1.69474e-21
8.17875e-23
1.66966e-21
1.02519e-22
1.64149e-21
1.22164e-22
1.61026e-21
1.40414e-22
1.5764e-21
1.57423e-22
1.54057e-21
1.72984e-22
1.50252e-21
1.86995e-22
1.46292e-21
1.99764e-22
1.42218e-21
2.1119e-22
1.3802e-21
2.21581e-22
1.33745e-21
2.30939e-22
1.29392e-21
2.39417e-22
1.24982e-21
2.47379e-22
1.2052e-21
2.54875e-22
1.16043e-21
2.62216e-22
1.11514e-21
2.69247e-22
1.06949e-21
2.76382e-22
1.02353e-21
2.83723e-22
9.77159e-22
2.91219e-22
9.30216e-22
2.98922e-22
8.82757e-22
3.07091e-22
8.34625e-22
3.15621e-22
7.85718e-22
3.24255e-22
7.35932e-22
3.33199e-22
6.85216e-22
3.42143e-22
6.33672e-22
3.5119e-22
5.80784e-22
3.59927e-22
5.27069e-22
3.68509e-22
4.72217e-22
3.76677e-22
4.1633e-22
3.84277e-22
3.59669e-22
3.91101e-22
3.02024e-22
3.97047e-22
2.43553e-22
4.02113e-22
1.84513e-22
4.06146e-22
1.24904e-22
4.08886e-22
6.50371e-23
4.1054e-22
4.11005e-22
2.62929e-14
-1.52268e-13
5.14618e-14
-1.48432e-13
7.46777e-14
-1.42155e-13
9.49241e-14
-1.32969e-13
1.11893e-13
-1.22487e-13
1.25481e-13
-1.12249e-13
1.36127e-13
-1.03689e-13
1.4455e-13
-9.78519e-14
1.5173e-13
-9.61048e-14
1.58696e-13
-9.89212e-14
1.65948e-13
-1.05912e-13
1.75524e-13
-1.18463e-13
1.89293e-13
-1.37559e-13
2.03562e-13
-1.54973e-13
2.21197e-13
-1.71713e-13
2.52882e-13
-2.0835e-13
2.85776e-13
-2.4189e-13
3.23077e-13
-2.70271e-13
3.61742e-13
-2.89853e-13
4.20055e-13
-3.30508e-13
4.71904e-13
-3.60082e-13
5.32572e-13
-3.81995e-13
5.96138e-13
-4.01792e-13
6.6526e-13
-4.22813e-13
7.34891e-13
-4.34909e-13
8.06807e-13
-4.42917e-13
8.79206e-13
-4.45931e-13
9.51287e-13
-4.43974e-13
1.02204e-12
-4.36707e-13
1.0907e-12
-4.24641e-13
1.15611e-12
-4.07538e-13
1.21769e-12
-3.86664e-13
1.27495e-12
-3.62236e-13
1.32734e-12
-3.34749e-13
1.3744e-12
-3.04305e-13
1.41611e-12
-2.72816e-13
1.45213e-12
-2.39287e-13
1.48254e-12
-2.05417e-13
1.50736e-12
-1.7102e-13
1.52679e-12
-1.3658e-13
1.54078e-12
-1.0244e-13
1.54957e-12
-6.88809e-14
1.55329e-12
-3.58901e-14
1.55196e-12
-2.93883e-15
1.5465e-12
2.68698e-14
1.53579e-12
5.76874e-14
1.52253e-12
8.52639e-14
1.50305e-12
1.17047e-13
1.47996e-12
1.40427e-13
1.4541e-12
1.64465e-13
1.42427e-12
1.88482e-13
1.39165e-12
2.10549e-13
1.35559e-12
2.31836e-13
1.31691e-12
2.50052e-13
1.27569e-12
2.68025e-13
1.23236e-12
2.82776e-13
1.18714e-12
2.97191e-13
1.14005e-12
3.09833e-13
1.09158e-12
3.21255e-13
1.04168e-12
3.30561e-13
9.91009e-13
3.38331e-13
9.39418e-13
3.44972e-13
8.8718e-13
3.50735e-13
8.34504e-13
3.55179e-13
7.81347e-13
3.58667e-13
7.27867e-13
3.61602e-13
6.74399e-13
3.63011e-13
6.20845e-13
3.63866e-13
5.672e-13
3.64066e-13
5.13621e-13
3.63444e-13
4.60281e-13
3.61978e-13
4.07343e-13
3.597e-13
3.55254e-13
3.56286e-13
3.04964e-13
3.51548e-13
2.58474e-13
3.45652e-13
2.13368e-13
3.38514e-13
1.16216e-13
4.00198e-13
3.8001e-14
6.07723e-13
2.26319e-17
4.89599e-13
1.76852e-21
1.58159e-21
1.7667e-21
1.73191e-23
1.75605e-21
4.47712e-23
1.73785e-21
7.16028e-23
1.71547e-21
9.76073e-23
1.68931e-21
1.22371e-22
1.65979e-21
1.45584e-22
1.62722e-21
1.67246e-22
1.59196e-21
1.87046e-22
1.55458e-21
2.05244e-22
1.51534e-21
2.21684e-22
1.47435e-21
2.36315e-22
1.43257e-21
2.49602e-22
1.38951e-21
2.61389e-22
1.34598e-21
2.72039e-22
1.30193e-21
2.81758e-22
1.25726e-21
2.90702e-22
1.21254e-21
2.99284e-22
1.16751e-21
3.07349e-22
1.12233e-21
3.15621e-22
1.07683e-21
3.23893e-22
1.03103e-21
3.32268e-22
9.84862e-22
3.40954e-22
9.38385e-22
3.50156e-22
8.91235e-22
3.5972e-22
8.43259e-22
3.6975e-22
7.94662e-22
3.80038e-22
7.44876e-22
3.90429e-22
6.94315e-22
4.00976e-22
6.42409e-22
4.11419e-22
5.89366e-22
4.21655e-22
5.35238e-22
4.31582e-22
4.79816e-22
4.40836e-22
4.23155e-22
4.49314e-22
3.65666e-22
4.57069e-22
3.07091e-22
4.63635e-22
2.47586e-22
4.69063e-22
1.87356e-22
4.73302e-22
1.26559e-22
4.76249e-22
6.54507e-23
4.77852e-22
4.77904e-22
3.00392e-14
-1.82302e-13
5.84411e-14
-1.76827e-13
8.39285e-14
-1.67637e-13
1.05313e-13
-1.54352e-13
1.22072e-13
-1.3924e-13
1.3416e-13
-1.24332e-13
1.41976e-13
-1.11498e-13
1.46751e-13
-1.02621e-13
1.49525e-13
-9.8873e-14
1.51153e-13
-1.0054e-13
1.53198e-13
-1.07946e-13
1.59368e-13
-1.24622e-13
1.67665e-13
-1.45846e-13
1.74962e-13
-1.62262e-13
1.95408e-13
-1.92147e-13
2.23294e-13
-2.36221e-13
2.55165e-13
-2.7375e-13
2.9021e-13
-3.05302e-13
3.33193e-13
-3.32823e-13
3.92982e-13
-3.9028e-13
4.46554e-13
-4.1364e-13
5.10631e-13
-4.46056e-13
5.7912e-13
-4.70263e-13
6.51854e-13
-4.95531e-13
7.26765e-13
-5.09803e-13
8.03696e-13
-5.19828e-13
8.81427e-13
-5.23644e-13
9.58484e-13
-5.2101e-13
1.03409e-12
-5.12293e-13
1.10728e-12
-4.9781e-13
1.17696e-12
-4.77203e-13
1.2422e-12
-4.5188e-13
1.30248e-12
-4.22506e-13
1.35735e-12
-3.89595e-13
1.40637e-12
-3.53312e-13
1.44921e-12
-3.1563e-13
1.48624e-12
-2.76311e-13
1.51705e-12
-2.36204e-13
1.54187e-12
-1.95835e-13
1.56096e-12
-1.55653e-13
1.57443e-12
-1.15894e-13
1.58254e-12
-7.69831e-14
1.5851e-12
-3.84392e-14
1.58316e-12
-9.9836e-16
1.5764e-12
3.36388e-14
1.56486e-12
6.92216e-14
1.54925e-12
1.00875e-13
1.53047e-12
1.35831e-13
1.5048e-12
1.66086e-13
1.47743e-12
1.9183e-13
1.44616e-12
2.19745e-13
1.4121e-12
2.44593e-13
1.37458e-12
2.69343e-13
1.33413e-12
2.90483e-13
1.29148e-12
3.10662e-13
1.24628e-12
3.27943e-13
1.19958e-12
3.43869e-13
1.15088e-12
3.58504e-13
1.1012e-12
3.70896e-13
1.04978e-12
3.81946e-13
9.97779e-13
3.90291e-13
9.4513e-13
3.97575e-13
8.91779e-13
4.04039e-13
8.37975e-13
4.08933e-13
7.83811e-13
4.12777e-13
7.29634e-13
4.15727e-13
6.75312e-13
4.17277e-13
6.20917e-13
4.18203e-13
5.66556e-13
4.18364e-13
5.12166e-13
4.17772e-13
4.57912e-13
4.16165e-13
4.03954e-13
4.1359e-13
3.50447e-13
4.09726e-13
2.98268e-13
4.03656e-13
2.50465e-13
3.93382e-13
2.15715e-13
3.73189e-13
8.84092e-14
5.27431e-13
4.11614e-14
6.54894e-13
2.23809e-17
5.30679e-13
1.79665e-21
1.75033e-21
1.79415e-21
2.00591e-23
1.78294e-21
5.23709e-23
1.76376e-21
8.41139e-23
1.74023e-21
1.14616e-22
1.71252e-21
1.43568e-22
1.6814e-21
1.70761e-22
1.64712e-21
1.95732e-22
1.61016e-21
2.18634e-22
1.57102e-21
2.39365e-22
1.52997e-21
2.57925e-22
1.48763e-21
2.74521e-22
1.44431e-21
2.89462e-22
1.40021e-21
3.02593e-22
1.35565e-21
3.1438e-22
1.31087e-21
3.25134e-22
1.2659e-21
3.3506e-22
1.22066e-21
3.44469e-22
1.17573e-21
3.53568e-22
1.1306e-21
3.62512e-22
1.08516e-21
3.71714e-22
1.03971e-21
3.81227e-22
9.94064e-22
3.91205e-22
9.47949e-22
4.01803e-22
9.01213e-22
4.12711e-22
8.53599e-22
4.2393e-22
8.05002e-22
4.35614e-22
7.55474e-22
4.47712e-22
7.04758e-22
4.59809e-22
6.52646e-22
4.71751e-22
5.99241e-22
4.8328e-22
5.44492e-22
4.94292e-22
4.88347e-22
5.04477e-22
4.30909e-22
5.13834e-22
3.72283e-22
5.2221e-22
3.12519e-22
5.29189e-22
2.51825e-22
5.34772e-22
1.90252e-22
5.38908e-22
1.28161e-22
5.417e-22
6.55024e-23
5.42786e-22
5.42475e-22
3.53776e-14
-2.17677e-13
6.836e-14
-2.09805e-13
9.72419e-14
-1.96514e-13
1.20328e-13
-1.77429e-13
1.36907e-13
-1.55815e-13
1.47019e-13
-1.34437e-13
1.51156e-13
-1.15631e-13
1.51079e-13
-1.02538e-13
1.47695e-13
-9.54819e-14
1.42358e-13
-9.51957e-14
1.38787e-13
-1.04366e-13
1.40099e-13
-1.25925e-13
1.38617e-13
-1.44353e-13
1.42378e-13
-1.66015e-13
1.64282e-13
-2.14042e-13
1.86841e-13
-2.58766e-13
2.15947e-13
-3.02842e-13
2.49777e-13
-3.39118e-13
3.04362e-13
-3.87394e-13
3.55127e-13
-4.41033e-13
4.17017e-13
-4.75513e-13
4.83672e-13
-5.12694e-13
5.58443e-13
-5.45019e-13
6.35329e-13
-5.72399e-13
7.16701e-13
-5.91158e-13
7.99938e-13
-6.03047e-13
8.83879e-13
-6.07565e-13
9.67199e-13
-6.04312e-13
1.04883e-12
-5.93904e-13
1.12739e-12
-5.76357e-13
1.20217e-12
-5.51961e-13
1.27172e-12
-5.2141e-13
1.33552e-12
-4.86286e-13
1.39323e-12
-4.47292e-13
1.44428e-12
-4.04345e-13
1.48859e-12
-3.59922e-13
1.52644e-12
-3.14143e-13
1.55749e-12
-2.67239e-13
1.58217e-12
-2.20496e-13
1.60072e-12
-1.74191e-13
1.61346e-12
-1.28631e-13
1.6206e-12
-8.41139e-14
1.62192e-12
-3.97462e-14
1.61891e-12
2.01636e-15
1.61087e-12
4.16785e-14
1.59831e-12
8.17848e-14
1.58046e-12
1.18724e-13
1.56146e-12
1.54836e-13
1.53402e-12
1.93516e-13
1.50431e-12
2.21536e-13
1.47163e-12
2.52411e-13
1.43544e-12
2.80777e-13
1.3963e-12
3.08467e-13
1.35385e-12
3.32914e-13
1.30933e-12
3.55153e-13
1.26212e-12
3.75128e-13
1.21368e-12
3.92281e-13
1.16318e-12
4.08972e-13
1.11196e-12
4.22089e-13
1.05884e-12
4.35028e-13
1.00537e-12
4.43721e-13
9.51282e-13
4.51618e-13
8.96706e-13
4.58569e-13
8.41789e-13
4.63802e-13
7.86552e-13
4.67964e-13
7.31503e-13
4.7072e-13
6.76265e-13
4.72458e-13
6.21053e-13
4.73358e-13
5.65782e-13
4.73573e-13
5.10623e-13
4.72869e-13
4.55423e-13
4.71302e-13
4.00152e-13
4.68791e-13
3.44779e-13
4.65031e-13
2.8881e-13
4.59556e-13
2.31939e-13
4.50183e-13
1.68254e-13
4.36804e-13
7.66983e-14
6.18912e-13
4.30401e-14
6.8848e-13
2.15449e-17
5.73638e-13
1.8347e-21
1.92239e-21
1.82647e-21
2.31611e-23
1.81468e-21
6.10046e-23
1.79431e-21
9.78658e-23
1.76918e-21
1.33279e-22
1.73972e-21
1.66677e-22
1.70647e-21
1.97644e-22
1.66997e-21
2.26389e-22
1.63089e-21
2.52342e-22
1.58963e-21
2.7571e-22
1.54657e-21
2.96493e-22
1.50247e-21
3.14897e-22
1.45744e-21
3.31079e-22
1.41205e-21
3.45451e-22
1.3664e-21
3.58169e-22
1.3208e-21
3.69698e-22
1.2752e-21
3.80245e-22
1.22981e-21
3.90274e-22
1.18468e-21
4.002e-22
1.13975e-21
4.10023e-22
1.09472e-21
4.20001e-22
1.04969e-21
4.30548e-22
1.00461e-21
4.41714e-22
9.58858e-22
4.53347e-22
9.12484e-22
4.65599e-22
8.65231e-22
4.78524e-22
8.17099e-22
4.91759e-22
7.67572e-22
5.05046e-22
7.16649e-22
5.18435e-22
6.64226e-22
5.3167e-22
6.10253e-22
5.44337e-22
5.54728e-22
5.56331e-22
4.97704e-22
5.67239e-22
4.39233e-22
5.7701e-22
3.79211e-22
5.85489e-22
3.18154e-22
5.92572e-22
2.55909e-22
5.97948e-22
1.93095e-22
6.01826e-22
1.29247e-22
6.04152e-22
6.52439e-23
6.04876e-22
6.03997e-22
4.29821e-14
-2.60654e-13
8.27516e-14
-2.49572e-13
1.16554e-13
-2.30313e-13
1.41864e-13
-2.02737e-13
1.58254e-13
-1.72198e-13
1.65764e-13
-1.41938e-13
1.64681e-13
-1.14542e-13
1.5892e-13
-9.67694e-14
1.46148e-13
-8.2704e-14
1.32613e-13
-8.16539e-14
1.25118e-13
-9.68614e-14
1.12487e-13
-1.13287e-13
1.01288e-13
-1.33144e-13
1.10623e-13
-1.7534e-13
1.22382e-13
-2.25792e-13
1.43234e-13
-2.79607e-13
1.64819e-13
-3.24415e-13
2.08834e-13
-3.8312e-13
2.61133e-13
-4.3968e-13
3.1353e-13
-4.93415e-13
3.79416e-13
-5.41384e-13
4.52525e-13
-5.85785e-13
5.32242e-13
-6.24719e-13
6.16065e-13
-6.56205e-13
7.04502e-13
-6.79575e-13
7.95324e-13
-6.93854e-13
8.86772e-13
-6.98995e-13
9.77748e-13
-6.95267e-13
1.06653e-12
-6.82665e-13
1.15171e-12
-6.61523e-13
1.23222e-12
-6.32456e-13
1.30696e-12
-5.96127e-13
1.37484e-12
-5.5415e-13
1.43562e-12
-5.08058e-13
1.48888e-12
-4.57591e-13
1.53482e-12
-4.0584e-13
1.57318e-12
-3.5249e-13
1.60446e-12
-2.9851e-13
1.62866e-12
-2.44677e-13
1.6464e-12
-1.91918e-13
1.65803e-12
-1.40246e-13
1.66364e-12
-8.97211e-14
1.66413e-12
-4.02226e-14
1.65948e-12
6.66679e-15
1.64992e-12
5.12474e-14
1.63596e-12
9.57437e-14
1.61691e-12
1.37768e-13
1.59488e-12
1.76862e-13
1.56756e-12
2.2083e-13
1.53496e-12
2.5413e-13
1.50042e-12
2.86936e-13
1.4617e-12
3.1949e-13
1.42109e-12
3.49052e-13
1.3763e-12
3.7769e-13
1.32937e-12
4.0206e-13
1.27985e-12
4.24628e-13
1.22933e-12
4.4277e-13
1.17684e-12
4.61433e-13
1.12356e-12
4.75336e-13
1.06886e-12
4.89688e-13
1.01337e-12
4.99171e-13
9.57874e-13
5.07073e-13
9.019e-13
5.145e-13
8.45824e-13
5.1983e-13
7.89474e-13
5.24264e-13
7.33321e-13
5.26821e-13
6.77204e-13
5.28521e-13
6.21102e-13
5.29403e-13
5.65038e-13
5.29578e-13
5.09028e-13
5.28819e-13
4.52854e-13
5.2741e-13
3.96395e-13
5.25185e-13
3.38884e-13
5.22475e-13
2.78911e-13
5.19459e-13
2.13259e-13
5.15767e-13
1.26505e-13
5.23485e-13
7.0678e-14
6.74669e-13
3.95398e-14
7.19547e-13
2.12181e-17
6.13098e-13
1.86778e-21
2.0415e-21
1.86431e-21
2.67283e-23
1.85149e-21
7.06206e-23
1.82972e-21
1.13117e-22
1.80258e-21
1.53856e-22
1.77074e-21
1.92216e-22
1.73517e-21
2.27681e-22
1.69593e-21
2.59838e-22
1.65426e-21
2.88945e-22
1.61037e-21
3.14794e-22
1.56503e-21
3.37593e-22
1.5187e-21
3.57549e-22
1.47181e-21
3.75023e-22
1.42477e-21
3.90326e-22
1.37798e-21
4.03819e-22
1.3314e-21
4.15865e-22
1.28528e-21
4.26877e-22
1.23963e-21
4.3732e-22
1.1945e-21
4.47608e-22
1.14978e-21
4.58e-22
1.10527e-21
4.68805e-22
1.06076e-21
4.80127e-22
1.01629e-21
4.92224e-22
9.71162e-22
5.04994e-22
9.25408e-22
5.18591e-22
8.78466e-22
5.32704e-22
8.30386e-22
5.47232e-22
7.80962e-22
5.62121e-22
7.29884e-22
5.767e-22
6.76892e-22
5.90762e-22
6.22247e-22
6.04359e-22
5.65636e-22
6.1687e-22
5.07424e-22
6.2814e-22
4.47608e-22
6.38067e-22
3.86345e-22
6.46235e-22
3.23531e-22
6.52852e-22
2.59786e-22
6.57764e-22
1.9537e-22
6.60917e-22
1.29971e-22
6.62365e-22
6.4365e-23
6.62365e-22
6.60762e-22
5.39019e-14
-3.14555e-13
1.03165e-13
-2.98831e-13
1.43912e-13
-2.71055e-13
1.72361e-13
-2.31182e-13
1.88511e-13
-1.88347e-13
1.93107e-13
-1.46531e-13
1.85176e-13
-1.06609e-13
1.68844e-13
-8.04312e-14
1.45282e-13
-5.91364e-14
1.27429e-13
-6.37943e-14
1.02367e-13
-7.17928e-14
7.53309e-14
-8.62428e-14
6.7131e-14
-1.24934e-13
6.56657e-14
-1.73862e-13
7.37748e-14
-2.33893e-13
8.38222e-14
-2.89644e-13
1.13144e-13
-3.53726e-13
1.56868e-13
-4.26831e-13