/*--------------------------------*- C++ -*----------------------------------*\
  =========                 |
  \\      /  F ield         | OpenFOAM: The Open Source CFD Toolbox
   \\    /   O peration     | Website:  https://openfoam.org
    \\  /    A nd           | Version:  6
     \\/     M anipulation  |
\*---------------------------------------------------------------------------*/
FoamFile
{
    version     2.0;
    format      ascii;
    class       surfaceScalarField;
    location    "9900";
    object      phi;
}
// * * * * * * * * * * * * * * * * * * * * * * * * * * * * * * * * * * * * * //

dimensions      [0 3 -1 0 0 0 0];

internalField   nonuniform List<scalar> 
9440
(
5.07424e-13
-5.07425e-13
9.92199e-13
-4.86133e-13
1.4586e-12
-4.67491e-13
1.88544e-12
-4.27878e-13
2.2629e-12
-3.78499e-13
2.58757e-12
-3.25707e-13
2.85861e-12
-2.72076e-13
3.07731e-12
-2.19726e-13
3.24674e-12
-1.70462e-13
3.37113e-12
-1.25412e-13
3.45513e-12
-8.5027e-14
3.50336e-12
-4.92421e-14
3.52117e-12
-1.88208e-14
3.50958e-12
1.0581e-14
3.47651e-12
3.20729e-14
3.4251e-12
5.04143e-14
3.35592e-12
6.81986e-14
3.27488e-12
8.00658e-14
3.18403e-12
8.98947e-14
3.08647e-12
9.6608e-14
2.98044e-12
1.05092e-13
2.87127e-12
1.08254e-13
2.76077e-12
1.09608e-13
2.64931e-12
1.10574e-13
2.53889e-12
1.0956e-13
2.42971e-12
1.08343e-13
2.3225e-12
1.06386e-13
2.21868e-12
1.03028e-13
2.11849e-12
9.94356e-14
2.02197e-12
9.57866e-14
1.92943e-12
9.18308e-14
1.84105e-12
8.77111e-14
1.75683e-12
8.35891e-14
1.67674e-12
7.95022e-14
1.60089e-12
7.52939e-14
1.52883e-12
7.15393e-14
1.46059e-12
6.77732e-14
1.3957e-12
6.44648e-14
1.33406e-12
6.12513e-14
1.27545e-12
5.82824e-14
1.21958e-12
5.55878e-14
1.16628e-12
5.30733e-14
1.11532e-12
5.07834e-14
1.06665e-12
4.85465e-14
1.01981e-12
4.67737e-14
9.74881e-13
4.49206e-14
9.31284e-13
4.36462e-14
8.8937e-13
4.20235e-14
8.48857e-13
4.06822e-14
8.09736e-13
3.9351e-14
7.71954e-13
3.80731e-14
7.35239e-13
3.70677e-14
6.9957e-13
3.60834e-14
6.65003e-13
3.50437e-14
6.31401e-13
3.41408e-14
5.98842e-13
3.31602e-14
5.6719e-13
3.23109e-14
5.36559e-13
3.13523e-14
5.06632e-13
3.0706e-14
4.77591e-13
2.98799e-14
4.4943e-13
2.90571e-14
4.22143e-13
2.82367e-14
3.95642e-13
2.75077e-14
3.69907e-13
2.67941e-14
3.44914e-13
2.61002e-14
3.20714e-13
2.53566e-14
2.97219e-13
2.4697e-14
2.74428e-13
2.40345e-14
2.5226e-13
2.34538e-14
2.3095e-13
2.26324e-14
2.10503e-13
2.18078e-14
1.9101e-13
2.08843e-14
1.72886e-13
1.95432e-14
1.57057e-13
1.72749e-14
1.46861e-13
1.16639e-14
1.52968e-13
-4.61962e-15
2.09774e-13
-5.5304e-14
1.15403e-13
9.58877e-14
-9.44003e-16
1.17869e-13
1.34992e-21
1.15545e-20
1.33564e-21
2.72453e-23
1.33114e-21
6.20386e-24
1.41065e-21
1.339e-23
1.45822e-21
2.22305e-23
1.47326e-21
2.91064e-23
1.46339e-21
3.41212e-23
1.43485e-21
3.76884e-23
1.39246e-21
4.00666e-23
1.34039e-21
4.17726e-23
1.28146e-21
4.27032e-23
1.21802e-21
4.31685e-23
1.152e-21
4.31685e-23
1.08454e-21
4.28066e-23
1.01697e-21
4.21862e-23
9.49965e-22
4.13073e-23
8.84463e-22
4.03251e-23
8.20718e-22
3.9136e-23
7.59248e-22
3.78952e-23
7.00105e-22
3.66027e-23
6.43753e-22
3.51552e-23
5.90038e-22
3.36559e-23
5.39374e-22
3.23117e-23
4.91397e-22
3.08642e-23
4.46367e-22
2.94683e-23
4.03974e-22
2.80207e-23
3.64321e-22
2.678e-23
3.26995e-22
2.54358e-23
2.92305e-22
2.42467e-23
2.59631e-22
2.30577e-23
2.29181e-22
2.1972e-23
2.0054e-22
2.0938e-23
1.73605e-22
1.99557e-23
1.48117e-22
1.90769e-23
1.24181e-22
1.83531e-23
1.01381e-22
1.7681e-23
7.9461e-23
1.70089e-23
5.83679e-23
1.64402e-23
3.80503e-23
1.59749e-23
1.84048e-23
1.54579e-23
1.42689e-23
5.23573e-13
-1.03235e-12
1.02797e-12
-9.92702e-13
1.50143e-12
-9.42837e-13
1.93406e-12
-8.62365e-13
2.31557e-12
-7.61858e-13
2.64122e-12
-6.53202e-13
2.91072e-12
-5.43415e-13
3.12624e-12
-4.37082e-13
3.2915e-12
-3.37552e-13
3.41114e-12
-2.46879e-13
3.49035e-12
-1.66053e-13
3.5342e-12
-9.49026e-14
3.54688e-12
-3.32881e-14
3.53128e-12
2.43966e-14
3.49575e-12
6.58357e-14
3.44037e-12
1.04041e-13
3.36852e-12
1.38312e-13
3.28512e-12
1.61754e-13
3.19232e-12
1.81012e-13
3.09198e-12
1.95277e-13
2.98433e-12
2.11107e-13
2.87354e-12
2.17441e-13
2.76166e-12
2.1991e-13
2.64883e-12
2.21869e-13
2.53757e-12
2.19324e-13
2.42745e-12
2.17011e-13
2.31957e-12
2.12868e-13
2.21532e-12
2.05922e-13
2.11472e-12
1.98728e-13
2.01797e-12
1.91295e-13
1.92528e-12
1.83327e-13
1.83693e-12
1.7495e-13
1.75269e-12
1.66775e-13
1.67282e-12
1.58383e-13
1.597e-12
1.50203e-13
1.52521e-12
1.42503e-13
1.45707e-12
1.35162e-13
1.3925e-12
1.28375e-13
1.33107e-12
1.22098e-13
1.27282e-12
1.16045e-13
1.21707e-12
1.10934e-13
1.16399e-12
1.05858e-13
1.11331e-12
1.01257e-13
1.06469e-12
9.70591e-14
1.01801e-12
9.34519e-14
9.73262e-13
8.97751e-14
9.29902e-13
8.72155e-14
8.88019e-13
8.42212e-14
8.47745e-13
8.13798e-14
8.08704e-13
7.8925e-14
7.71002e-13
7.64211e-14
7.34356e-13
7.44689e-14
6.98719e-13
7.25853e-14
6.64241e-13
7.04962e-14
6.30626e-13
6.88397e-14
5.98075e-13
6.69031e-14
5.66475e-13
6.52112e-14
5.35791e-13
6.34432e-14
5.05913e-13
6.20942e-14
4.769e-13
6.05039e-14
4.48772e-13
5.88965e-14
4.21561e-13
5.72555e-14
3.95096e-13
5.58738e-14
3.69376e-13
5.45034e-14
3.44419e-13
5.31299e-14
3.20248e-13
5.16819e-14
2.9666e-13
5.05164e-14
2.73821e-13
4.91803e-14
2.51753e-13
4.78944e-14
2.30387e-13
4.64336e-14
2.09719e-13
4.49649e-14
1.89931e-13
4.32127e-14
1.71034e-13
4.10249e-14
1.53139e-13
3.77973e-14
1.35302e-13
3.21594e-14
1.10389e-13
2.29779e-14
5.33085e-14
4.48139e-15
3.0104e-14
1.21811e-13
-7.2995e-16
1.50846e-13
1.32347e-21
1.91781e-20
1.3146e-21
4.55466e-23
1.33833e-21
4.78731e-23
1.41955e-21
5.2526e-23
1.46504e-21
5.68687e-23
1.47828e-21
6.01774e-23
1.46695e-21
6.27106e-23
1.43723e-21
6.45201e-23
1.39416e-21
6.57092e-23
1.34133e-21
6.63296e-23
1.28187e-21
6.6588e-23
1.21808e-21
6.65363e-23
1.15164e-21
6.62262e-23
1.08397e-21
6.55541e-23
1.01614e-21
6.47269e-23
9.49035e-22
6.36929e-23
8.83274e-22
6.24521e-23
8.19374e-22
6.10563e-23
7.57956e-22
5.96604e-23
6.98761e-22
5.80577e-23
6.42202e-22
5.63517e-23
5.88746e-22
5.46456e-23
5.37926e-22
5.28879e-23
4.90001e-22
5.10784e-23
4.4492e-22
4.92173e-23
4.02734e-22
4.74078e-23
3.62977e-22
4.565e-23
3.25754e-22
4.38406e-23
2.91064e-22
4.21345e-23
2.58494e-22
4.04285e-23
2.28095e-22
3.88258e-23
1.99506e-22
3.7068e-23
1.72726e-22
3.56205e-23
1.47342e-22
3.41729e-23
1.23508e-22
3.29321e-23
1.00709e-22
3.16914e-23
7.88924e-23
3.07091e-23
5.79026e-23
2.98819e-23
3.74816e-23
2.91064e-23
1.7164e-23
2.85894e-23
2.81241e-23
5.54288e-13
-1.58773e-12
1.08676e-12
-1.52705e-12
1.5846e-12
-1.44231e-12
2.03385e-12
-1.31322e-12
2.42414e-12
-1.15375e-12
2.75169e-12
-9.82359e-13
3.01795e-12
-8.11276e-13
3.22679e-12
-6.47519e-13
3.38329e-12
-4.95633e-13
3.49347e-12
-3.58648e-13
3.56288e-12
-2.37031e-13
3.59784e-12
-1.31434e-13
3.59917e-12
-3.618e-14
3.57703e-12
4.49932e-14
3.53526e-12
1.06071e-13
3.47192e-12
1.65859e-13
3.3944e-12
2.14335e-13
3.30561e-12
2.4905e-13
3.2087e-12
2.76461e-13
3.10259e-12
2.99942e-13
2.9915e-12
3.2077e-13
2.87771e-12
3.29841e-13
2.76285e-12
3.33405e-13
2.64751e-12
3.35876e-13
2.53453e-12
3.30999e-13
2.42246e-12
3.2782e-13
2.31345e-12
3.20657e-13
2.20826e-12
3.09933e-13
2.10697e-12
2.98886e-13
2.00981e-12
2.87368e-13
1.91699e-12
2.75109e-13
1.8286e-12
2.62365e-13
1.74447e-12
2.49982e-13
1.66491e-12
2.37087e-13
1.58952e-12
2.248e-13
1.51802e-12
2.13276e-13
1.45038e-12
2.02135e-13
1.38607e-12
1.92097e-13
1.32517e-12
1.82496e-13
1.26735e-12
1.7343e-13
1.21218e-12
1.65744e-13
1.15949e-12
1.58281e-13
1.10919e-12
1.51369e-13
1.06093e-12
1.45221e-13
1.01462e-12
1.39758e-13
9.70228e-13
1.34243e-13
9.27112e-13
1.30505e-13
8.85477e-13
1.26121e-13
8.45296e-13
1.2192e-13
8.06373e-13
1.183e-13
7.68796e-13
1.14549e-13
7.32333e-13
1.11579e-13
6.96734e-13
1.08926e-13
6.62267e-13
1.058e-13
6.28703e-13
1.03334e-13
5.96244e-13
1.00391e-13
5.64694e-13
9.78813e-14
5.34091e-13
9.52569e-14
5.0429e-13
9.3199e-14
4.75304e-13
9.08776e-14
4.4725e-13
8.84265e-14
4.19952e-13
8.61135e-14
3.9348e-13
8.3987e-14
3.67834e-13
8.18681e-14
3.42919e-13
7.98386e-14
3.18665e-13
7.78005e-14
2.95213e-13
7.58982e-14
2.72364e-13
7.40234e-14
2.50217e-13
7.20925e-14
2.28779e-13
6.998e-14
2.07966e-13
6.79363e-14
1.87727e-13
6.56529e-14
1.67729e-13
6.32631e-14
1.47548e-13
6.02535e-14
1.24814e-13
5.71979e-14
9.49371e-14
5.51842e-14
4.2755e-14
5.90107e-14
2.55645e-14
1.41361e-13
-6.96699e-16
1.79003e-13
1.33009e-21
2.87738e-20
1.31687e-21
6.82424e-23
1.34298e-21
7.40844e-23
1.42384e-21
7.99263e-23
1.4684e-21
8.46826e-23
1.48081e-21
8.84049e-23
1.46876e-21
9.11967e-23
1.43842e-21
9.33163e-23
1.39478e-21
9.47639e-23
1.34158e-21
9.54877e-23
1.28182e-21
9.5953e-23
1.21771e-21
9.57462e-23
1.15087e-21
9.51258e-23
1.08314e-21
9.43503e-23
1.01511e-21
9.32129e-23
9.47794e-22
9.18171e-23
8.81878e-22
9.02661e-23
8.17978e-22
8.84566e-23
7.56302e-22
8.64404e-23
6.97107e-22
8.42173e-23
6.40548e-22
8.18909e-23
5.86988e-22
7.96161e-23
5.36116e-22
7.71346e-23
4.88192e-22
7.46531e-23
4.43162e-22
7.19647e-23
4.00924e-22
6.94315e-23
3.61219e-22
6.68465e-23
3.241e-22
6.42616e-23
2.89306e-22
6.16767e-23
2.56943e-22
5.91951e-23
2.26441e-22
5.67136e-23
1.98006e-22
5.44388e-23
1.71278e-22
5.22675e-23
1.46204e-22
5.02512e-23
1.22268e-22
4.82867e-23
9.9727e-23
4.65806e-23
7.80652e-23
4.51847e-23
5.71789e-23
4.39957e-23
3.69129e-23
4.29617e-23
1.67504e-23
4.21862e-23
4.18243e-23
6.06871e-13
-2.19564e-12
1.18304e-12
-2.10505e-12
1.71775e-12
-1.97863e-12
2.19204e-12
-1.78908e-12
2.59462e-12
-1.5579e-12
2.92279e-12
-1.3121e-12
3.18171e-12
-1.07176e-12
3.37854e-12
-8.4591e-13
3.52049e-12
-6.39142e-13
3.61531e-12
-4.55008e-13
3.6701e-12
-2.93361e-13
3.68836e-12
-1.51228e-13
3.67667e-12
-2.6023e-14
3.64439e-12
7.57603e-14
3.5918e-12
1.5716e-13
3.5182e-12
2.37977e-13
3.43256e-12
2.98499e-13
3.33492e-12
3.45237e-13
3.23255e-12
3.77388e-13
3.11768e-12
4.13398e-13
3.00185e-12
4.35219e-13
2.88325e-12
4.47068e-13
2.76421e-12
4.51112e-13
2.64534e-12
4.53445e-13
2.5294e-12
4.45663e-13
2.41478e-12
4.41207e-13
2.30394e-12
4.30305e-13
2.19736e-12
4.15352e-13
2.09507e-12
4.00064e-13
1.99726e-12
3.84117e-13
1.90433e-12
3.67026e-13
1.81586e-12
3.49884e-13
1.73187e-12
3.33068e-13
1.65269e-12
3.15421e-13
1.57777e-12
2.98941e-13
1.50705e-12
2.83288e-13
1.44004e-12
2.68493e-13
1.37653e-12
2.55036e-13
1.31634e-12
2.42183e-13
1.25909e-12
2.30253e-13
1.20454e-12
2.19954e-13
1.15266e-12
2.09893e-13
1.10304e-12
2.00802e-13
1.05539e-12
1.92777e-13
1.00945e-12
1.85683e-13
9.65604e-13
1.78171e-13
9.23026e-13
1.73251e-13
8.81594e-13
1.67811e-13
8.41709e-13
1.62154e-13
8.03005e-13
1.5745e-13
7.65632e-13
1.52459e-13
7.29268e-13
1.48573e-13
6.93804e-13
1.45115e-13
6.5947e-13
1.40952e-13
6.26112e-13
1.37605e-13
5.93679e-13
1.33829e-13
5.6217e-13
1.30485e-13
5.31613e-13
1.27001e-13
5.01858e-13
1.24229e-13
4.72991e-13
1.21107e-13
4.44946e-13
1.17918e-13
4.17747e-13
1.14841e-13
3.91385e-13
1.11955e-13
3.6578e-13
1.09154e-13
3.40941e-13
1.06433e-13
3.16742e-13
1.03825e-13
2.93197e-13
1.01334e-13
2.70356e-13
9.88179e-14
2.48229e-13
9.62309e-14
2.26681e-13
9.35903e-14
2.05678e-13
9.10516e-14
1.85151e-13
8.83371e-14
1.64875e-13
8.57332e-14
1.4407e-13
8.32861e-14
1.21879e-13
8.16482e-14
9.81046e-14
8.12379e-14
7.41271e-14
8.52865e-14
3.03292e-14
1.87469e-13
-6.87713e-16
2.1187e-13
1.34332e-21
3.89651e-20
1.32271e-21
9.19722e-23
1.34877e-21
9.93651e-23
1.42859e-21
1.06396e-22
1.47217e-21
1.12186e-22
1.4836e-21
1.16736e-22
1.47083e-21
1.202e-22
1.43986e-21
1.22785e-22
1.39556e-21
1.24542e-22
1.34205e-21
1.25628e-22
1.28166e-21
1.26145e-22
1.21709e-21
1.26093e-22
1.15014e-21
1.25473e-22
1.08195e-21
1.24284e-22
1.01366e-21
1.22785e-22
9.46243e-22
1.20923e-22
8.80017e-22
1.18856e-22
8.15962e-22
1.16581e-22
7.54079e-22
1.13892e-22
6.9478e-22
1.10997e-22
6.38325e-22
1.07999e-22
5.84507e-22
1.04897e-22
5.33583e-22
1.01692e-22
4.85503e-22
9.83311e-23
4.40577e-22
9.50224e-23
3.98339e-22
9.16103e-23
3.58635e-22
8.81464e-23
3.21515e-22
8.46309e-23
2.86825e-22
8.12188e-23
2.54513e-22
7.79618e-23
2.24114e-22
7.46531e-23
1.95887e-22
7.16028e-23
1.69262e-22
6.86043e-23
1.4424e-22
6.5916e-23
1.20458e-22
6.33827e-23
9.83828e-23
6.12114e-23
7.68244e-23
5.90917e-23
5.61966e-23
5.74891e-23
3.61375e-23
5.62483e-23
1.63885e-23
5.53694e-23
5.49041e-23
6.82395e-13
-2.87906e-12
1.32523e-12
-2.7497e-12
1.91306e-12
-2.56804e-12
2.42068e-12
-2.29827e-12
2.83795e-12
-1.97673e-12
3.1627e-12
-1.63839e-12
3.40728e-12
-1.31789e-12
3.58485e-12
-1.02503e-12
3.70457e-12
-7.604e-13
3.77801e-12
-5.29977e-13
3.80858e-12
-3.25464e-13
3.80677e-12
-1.50932e-13
3.78053e-12
-1.28801e-15
3.73329e-12
1.21504e-13
3.66389e-12
2.25076e-13
3.57824e-12
3.22147e-13
3.48186e-12
3.93422e-13
3.37394e-12
4.51723e-13
3.26116e-12
4.88747e-13
3.13744e-12
5.35718e-13
3.01479e-12
5.56492e-13
2.88971e-12
5.70799e-13
2.76471e-12
5.74792e-13
2.64175e-12
5.75115e-13
2.52153e-12
5.64619e-13
2.40365e-12
5.57866e-13
2.29054e-12
5.42233e-13
2.18216e-12
5.22585e-13
2.07851e-12
5.02625e-13
1.98015e-12
4.81424e-13
1.8868e-12
4.59373e-13
1.7984e-12
4.37339e-13
1.71486e-12
4.15713e-13
1.63631e-12
3.93142e-13
1.56211e-12
3.72372e-13
1.49237e-12
3.5232e-13
1.42625e-12
3.33971e-13
1.36375e-12
3.16972e-13
1.30465e-12
3.00784e-13
1.24843e-12
2.86049e-13
1.19486e-12
2.73183e-13
1.14381e-12
2.60685e-13
1.09496e-12
2.49468e-13
1.048e-12
2.3964e-13
1.00276e-12
2.30912e-13
9.59351e-13
2.21658e-13
9.17715e-13
2.15052e-13
8.76617e-13
2.09167e-13
8.36966e-13
2.02151e-13
7.98555e-13
1.96301e-13
7.61428e-13
1.90121e-13
7.25311e-13
1.85314e-13
6.90137e-13
1.81009e-13
6.5597e-13
1.75927e-13
6.22598e-13
1.7188e-13
5.90321e-13
1.671e-13
5.58889e-13
1.63005e-13
5.28403e-13
1.58662e-13
4.98665e-13
1.5523e-13
4.69994e-13
1.51127e-13
4.42032e-13
1.47313e-13
4.14954e-13
1.43433e-13
3.88633e-13
1.39867e-13
3.63009e-13
1.36444e-13
3.38268e-13
1.32914e-13
3.14055e-13
1.29849e-13
2.90569e-13
1.26693e-13
2.67775e-13
1.23549e-13
2.45593e-13
1.20403e-13
2.23953e-13
1.17277e-13
2.0291e-13
1.14188e-13
1.82397e-13
1.10988e-13
1.62378e-13
1.07927e-13
1.42767e-13
1.05106e-13
1.22912e-13
1.0374e-13
1.04046e-13
1.02363e-13
8.42003e-14
1.07411e-13
3.38988e-14
2.40057e-13
-6.79907e-16
2.48278e-13
1.34994e-21
4.91167e-20
1.33011e-21
1.15547e-22
1.35585e-21
1.24542e-22
1.43438e-21
1.33124e-22
1.47672e-21
1.40052e-22
1.48706e-21
1.45636e-22
1.47342e-21
1.49927e-22
1.44167e-21
1.5308e-22
1.39664e-21
1.55355e-22
1.34251e-21
1.56647e-22
1.28161e-21
1.57113e-22
1.21652e-21
1.56958e-22
1.14895e-21
1.56182e-22
1.08045e-21
1.54838e-22
1.01185e-21
1.52925e-22
9.44175e-22
1.5065e-22
8.77742e-22
1.47962e-22
8.13274e-22
1.44912e-22
7.51183e-22
1.41655e-22
6.91833e-22
1.38139e-22
6.3512e-22
1.34365e-22
5.8125e-22
1.30384e-22
5.30223e-22
1.26197e-22
4.82195e-22
1.22009e-22
4.37165e-22
1.1777e-22
3.94875e-22
1.13427e-22
3.55171e-22
1.09084e-22
3.17999e-22
1.04742e-22
2.83568e-22
1.00502e-22
2.51153e-22
9.62115e-23
2.21064e-22
9.21789e-23
1.92888e-22
8.82498e-23
1.66522e-22
8.45792e-23
1.41706e-22
8.10637e-23
1.18287e-22
7.79101e-23
9.62632e-23
7.52217e-23
7.52217e-23
7.27402e-23
5.49558e-23
7.07239e-23
3.52586e-23
6.9173e-23
1.58715e-23
6.80356e-23
6.75703e-23
7.88764e-13
-3.66885e-12
1.53036e-12
-3.4931e-12
2.1923e-12
-3.23154e-12
2.73913e-12
-2.84663e-12
3.17043e-12
-2.40957e-12
3.48282e-12
-1.95231e-12
3.7009e-12
-1.5375e-12
3.84911e-12
-1.17476e-12
3.93501e-12
-8.47817e-13
3.97647e-12
-5.72955e-13
3.97996e-12
-3.30464e-13
3.95524e-12
-1.27702e-13
3.90771e-12
4.47476e-14
3.84138e-12
1.86353e-13
3.75142e-12
3.13569e-13
3.65123e-12
4.2089e-13
3.5404e-12
5.02814e-13
3.42245e-12
5.68251e-13
3.29339e-12
6.16401e-13
3.16162e-12
6.66104e-13
3.0294e-12
6.87361e-13
2.89609e-12
7.02779e-13
2.76382e-12
7.05753e-13
2.63593e-12
7.01733e-13
2.51005e-12
6.89255e-13
2.38845e-12
6.78258e-13
2.27249e-12
6.57023e-13
2.16212e-12
6.31827e-13
2.05705e-12
6.06612e-13
1.95784e-12
5.79589e-13
1.86438e-12
5.51852e-13
1.77604e-12
5.24741e-13
1.69311e-12
4.97761e-13
1.61537e-12
4.70059e-13
1.54241e-12
4.44576e-13
1.47377e-12
4.20261e-13
1.40895e-12
3.98159e-13
1.34778e-12
3.77574e-13
1.29e-12
3.58076e-13
1.23493e-12
3.40697e-13
1.18282e-12
3.24959e-13
1.13272e-12
3.10523e-13
1.08507e-12
2.96943e-13
1.0389e-12
2.85713e-13
9.94884e-13
2.74914e-13
9.51635e-13
2.64986e-13
9.11132e-13
2.5572e-13
8.70472e-13
2.5008e-13
8.31055e-13
2.41914e-13
7.9316e-13
2.34634e-13
7.56141e-13
2.27664e-13
7.20394e-13
2.2168e-13
6.85406e-13
2.16707e-13
6.51438e-13
2.10699e-13
6.1824e-13
2.05971e-13
5.86107e-13
2.00218e-13
5.54823e-13
1.95363e-13
5.24415e-13
1.90232e-13
4.94854e-13
1.86038e-13
4.66143e-13
1.81171e-13
4.38282e-13
1.76591e-13
4.11349e-13
1.71864e-13
3.85174e-13
1.67619e-13
3.5974e-13
1.63526e-13
3.35055e-13
1.5932e-13
3.10931e-13
1.55761e-13
2.87457e-13
1.5202e-13
2.64712e-13
1.48209e-13
2.42482e-13
1.44604e-13
2.20808e-13
1.40972e-13
1.99755e-13
1.37311e-13
1.79332e-13
1.33525e-13
1.59781e-13
1.29629e-13
1.41311e-13
1.25757e-13
1.23626e-13
1.23638e-13
1.09811e-13
1.18411e-13
9.70527e-14
1.22422e-13
2.42158e-14
3.15159e-13
-6.71133e-16
2.74973e-13
1.36979e-21
5.90433e-20
1.33915e-21
1.38811e-22
1.36438e-21
1.49823e-22
1.44131e-21
1.60008e-22
1.48226e-21
1.68383e-22
1.49136e-21
1.74949e-22
1.47657e-21
1.80222e-22
1.44395e-21
1.84048e-22
1.39799e-21
1.86633e-22
1.34298e-21
1.88339e-22
1.28141e-21
1.89062e-22
1.21575e-21
1.88752e-22
1.14766e-21
1.8777e-22
1.07854e-21
1.86116e-22
1.00963e-21
1.83738e-22
9.41435e-22
1.80894e-22
8.74692e-22
1.77534e-22
8.10017e-22
1.73708e-22
7.4772e-22
1.69624e-22
6.88059e-22
1.65229e-22
6.31191e-22
1.60576e-22
5.77062e-22
1.55717e-22
5.26035e-22
1.50754e-22
4.78007e-22
1.45584e-22
4.32822e-22
1.40362e-22
3.90533e-22
1.35037e-22
3.50828e-22
1.29712e-22
3.13812e-22
1.24439e-22
2.79277e-22
1.19114e-22
2.4712e-22
1.14099e-22
2.17187e-22
1.09188e-22
1.89114e-22
1.0438e-22
1.63058e-22
9.99338e-23
1.38553e-22
9.56945e-23
1.15599e-22
9.19205e-23
9.37816e-23
8.856e-23
7.32055e-23
8.57166e-23
5.34566e-23
8.32868e-23
3.41212e-23
8.1529e-23
1.54062e-23
8.02882e-23
7.96161e-23
9.31698e-13
-4.60155e-12
1.81437e-12
-4.37754e-12
2.60371e-12
-4.02241e-12
3.17566e-12
-3.4201e-12
3.60984e-12
-2.84526e-12
3.89328e-12
-2.23726e-12
4.07164e-12
-1.71737e-12
4.17015e-12
-1.27477e-12
4.21057e-12
-8.89743e-13
4.21064e-12
-5.74515e-13
4.18235e-12
-3.03659e-13
4.12838e-12
-7.52031e-14
4.05509e-12
1.16565e-13
3.96428e-12
2.75709e-13
3.85353e-12
4.22875e-13
3.73701e-12
5.35979e-13
3.60641e-12
6.32005e-13
3.47775e-12
6.9551e-13
3.32875e-12
7.64015e-13
3.18858e-12
8.04924e-13
3.04378e-12
8.3082e-13
2.90152e-12
8.43727e-13
2.76029e-12
8.45695e-13
2.62702e-12
8.33752e-13
2.49385e-12
8.212e-13
2.36803e-12
8.02887e-13
2.24901e-12
7.74898e-13
2.13637e-12
7.43351e-13
2.03003e-12
7.11882e-13
1.92981e-12
6.78787e-13
1.8363e-12
6.44383e-13
1.74818e-12
6.11942e-13
1.66639e-12
5.78684e-13
1.59005e-12
5.45587e-13
1.51855e-12
5.15323e-13
1.45142e-12
4.86703e-13
1.38821e-12
4.6075e-13
1.32864e-12
4.36597e-13
1.2725e-12
4.1373e-13
1.21901e-12
3.93779e-13
1.16839e-12
3.75248e-13
1.11978e-12
3.58876e-13
1.07332e-12
3.43224e-13
1.02813e-12
3.30805e-13
9.85386e-13
3.17652e-13
9.42545e-13
3.07904e-13
9.03064e-13
2.95364e-13
8.6347e-13
2.89923e-13
8.24388e-13
2.81334e-13
7.86931e-13
2.72524e-13
7.50151e-13
2.64963e-13
7.14685e-13
2.57755e-13
6.7995e-13
2.52143e-13
6.4614e-13
2.45304e-13
6.13063e-13
2.39933e-13
5.80954e-13
2.33298e-13
5.49899e-13
2.2748e-13
5.19608e-13
2.21674e-13
4.90258e-13
2.16621e-13
4.61554e-13
2.11195e-13
4.33882e-13
2.05662e-13
4.07021e-13
2.00201e-13
3.80932e-13
1.95265e-13
3.55742e-13
1.90348e-13
3.31118e-13
1.85643e-13
3.07043e-13
1.81607e-13
2.83824e-13
1.77067e-13
2.61107e-13
1.72817e-13
2.38862e-13
1.68795e-13
2.17131e-13
1.64699e-13
1.95973e-13
1.60514e-13
1.75453e-13
1.56132e-13
1.5599e-13
1.51216e-13
1.38236e-13
1.45668e-13
1.23981e-13
1.40077e-13
1.12057e-13
1.32538e-13
6.13057e-14
1.75398e-13
6.7696e-15
3.71929e-13
-6.60464e-16
2.84187e-13
1.36979e-21
6.84537e-20
1.35011e-21
1.62024e-22
1.37462e-21
1.75104e-22
1.44963e-21
1.8746e-22
1.48882e-21
1.97386e-22
1.49663e-21
2.05399e-22
1.48039e-21
2.11603e-22
1.44658e-21
2.16256e-22
1.39969e-21
2.1941e-22
1.3436e-21
2.21323e-22
1.2812e-21
2.22098e-22
1.21477e-21
2.21736e-22
1.1459e-21
2.2034e-22
1.07616e-21
2.18272e-22
1.00673e-21
2.15429e-22
9.38023e-22
2.1181e-22
8.70918e-22
2.07674e-22
8.05881e-22
2.03073e-22
7.43325e-22
1.9811e-22
6.83406e-22
1.92733e-22
6.26279e-22
1.87046e-22
5.72151e-22
1.81204e-22
5.20814e-22
1.75156e-22
4.72734e-22
1.69055e-22
4.27549e-22
1.62748e-22
3.85156e-22
1.56389e-22
3.45555e-22
1.50082e-22
3.08538e-22
1.43774e-22
2.74262e-22
1.37674e-22
2.42261e-22
1.31522e-22
2.1243e-22
1.25628e-22
1.8472e-22
1.20148e-22
1.58819e-22
1.14823e-22
1.34779e-22
1.09912e-22
1.12238e-22
1.05414e-22
9.08865e-23
1.01433e-22
7.07756e-23
9.80726e-23
5.15954e-23
9.53843e-23
3.28804e-23
9.31612e-23
1.47859e-23
9.18171e-23
9.11967e-23
1.14996e-12
-5.7525e-12
2.23524e-12
-5.46456e-12
3.13905e-12
-4.92774e-12
3.77895e-12
-4.0615e-12
4.17894e-12
-3.24674e-12
4.40615e-12
-2.46596e-12
4.51336e-12
-1.82607e-12
4.54402e-12
-1.30691e-12
4.52833e-12
-8.75517e-13
4.47979e-12
-5.27439e-13
4.41025e-12
-2.35583e-13
4.32035e-12
1.32449e-14
4.22162e-12
2.13855e-13
4.09936e-12
3.96533e-13
3.96944e-12
5.51376e-13
3.83041e-12
6.73613e-13
3.68312e-12
7.77905e-13
3.53247e-12
8.4478e-13
3.36938e-12
9.25752e-13
3.21562e-12
9.5735e-13
3.05714e-12
9.87986e-13
2.90389e-12
9.95686e-13
2.75384e-12
9.94478e-13
2.61215e-12
9.74214e-13
2.47211e-12
9.60043e-13
2.34155e-12
9.32281e-13
2.21938e-12
8.95927e-13
2.10401e-12
8.57628e-13
1.99607e-12
8.18776e-13
1.8957e-12
7.78148e-13
1.80205e-12
7.37077e-13
1.71492e-12
6.98165e-13
1.63455e-12
6.58207e-13
1.55989e-12
6.19449e-13
1.49037e-12
5.841e-13
1.42499e-12
5.51402e-13
1.3638e-12
5.21327e-13
1.30645e-12
4.93406e-13
1.25217e-12
4.67533e-13
1.2006e-12
4.44949e-13
1.15154e-12
4.23979e-13
1.10484e-12
4.05333e-13
1.05964e-12
3.88249e-13
1.01611e-12
3.74246e-13
9.74227e-13
3.59523e-13
9.33301e-13
3.48903e-13
8.93214e-13
3.3561e-13
8.5555e-13
3.27835e-13
8.16863e-13
3.20355e-13
7.79737e-13
3.10074e-13
7.43198e-13
3.02014e-13
7.08048e-13
2.93507e-13
6.73647e-13
2.87238e-13
6.39871e-13
2.79861e-13
6.0714e-13
2.73533e-13
5.75022e-13
2.66376e-13
5.44132e-13
2.59415e-13
5.13841e-13
2.53095e-13
4.84771e-13
2.46906e-13
4.56242e-13
2.41022e-13
4.28687e-13
2.34596e-13
4.02084e-13
2.2826e-13
3.76285e-13
2.22596e-13
3.51118e-13
2.1712e-13
3.26601e-13
2.11836e-13
3.02833e-13
2.07113e-13
2.79644e-13
2.02058e-13
2.56988e-13
1.97334e-13
2.34824e-13
1.92877e-13
2.12944e-13
1.88549e-13
1.91531e-13
1.83939e-13
1.70633e-13
1.79085e-13
1.50362e-13
1.73581e-13
1.31574e-13
1.6658e-13
1.17612e-13
1.56186e-13
1.15381e-13
1.36942e-13
3.89997e-14
2.53967e-13
7.96432e-15
4.05165e-13
-6.49013e-16
2.94555e-13
1.38303e-21
7.69508e-20
1.36325e-21
1.85392e-22
1.38687e-21
2.00746e-22
1.45966e-21
2.15274e-22
1.49678e-21
2.27216e-22
1.50283e-21
2.36832e-22
1.485e-21
2.44277e-22
1.44974e-21
2.49705e-22
1.40161e-21
2.53634e-22
1.34438e-21
2.55857e-22
1.28079e-21
2.56581e-22
1.21342e-21
2.56064e-22
1.14389e-21
2.54358e-22
1.07332e-21
2.51566e-22
1.00311e-21
2.47999e-22
9.33939e-22
2.43708e-22
8.66317e-22
2.3859e-22
8.00866e-22
2.33058e-22
7.37949e-22
2.27113e-22
6.77719e-22
2.20754e-22
6.20386e-22
2.14033e-22
5.66102e-22
2.07002e-22
5.14765e-22
1.99764e-22
4.66427e-22
1.92423e-22
4.21242e-22
1.85082e-22
3.789e-22
1.77637e-22
3.39247e-22
1.70141e-22
3.02386e-22
1.62851e-22
2.6811e-22
1.55613e-22
2.36315e-22
1.48531e-22
2.06899e-22
1.41758e-22
1.79395e-22
1.35192e-22
1.53907e-22
1.29092e-22
1.30333e-22
1.23508e-22
1.08257e-22
1.18339e-22
8.76295e-23
1.13892e-22
6.80873e-23
1.10067e-22
4.9424e-23
1.06913e-22
3.15363e-23
1.04535e-22
1.41138e-23
1.03036e-22
1.02364e-22
1.45039e-12
-7.20386e-12
2.80999e-12
-6.82587e-12
3.87201e-12
-5.99125e-12
4.58564e-12
-4.77659e-12
4.91978e-12
-3.58234e-12
5.04461e-12
-2.59225e-12
5.03839e-12
-1.8213e-12
4.97684e-12
-1.24681e-12
4.88207e-12
-7.82195e-13
4.77209e-12
-4.18891e-13
4.65291e-12
-1.1783e-13
4.53227e-12
1.32459e-13
4.39973e-12
3.44985e-13
4.24716e-12
5.47705e-13
4.09602e-12
7.01125e-13
3.93134e-12
8.36915e-13
3.76726e-12
9.40622e-13
3.58586e-12
1.02483e-12
3.41546e-12
1.09483e-12
3.24016e-12
1.13134e-12
3.06842e-12
1.15844e-12
2.902e-12
1.16085e-12
2.74249e-12
1.15275e-12
2.58969e-12
1.1258e-12
2.44366e-12
1.1049e-12
2.30794e-12
1.06686e-12
2.18188e-12
1.02088e-12
2.06415e-12
9.74294e-13
1.95468e-12
9.27216e-13
1.85458e-12
8.77265e-13
1.76078e-12
8.2994e-13
1.67544e-12
7.82621e-13
1.59708e-12
7.35729e-13
1.52466e-12
6.91088e-13
1.4575e-12
6.50544e-13
1.3945e-12
6.13732e-13
1.3359e-12
5.79328e-13
1.28113e-12
5.47645e-13
1.22916e-12
5.19038e-13
1.17987e-12
4.93843e-13
1.13281e-12
4.70717e-13
1.08835e-12
4.49555e-13
1.04474e-12
4.31693e-13
1.00283e-12
4.16065e-13
9.61929e-13
4.00413e-13
9.22868e-13
3.88037e-13
8.82445e-13
3.76191e-13
8.46707e-13
3.63815e-13
8.0889e-13
3.58501e-13
7.71774e-13
3.47607e-13
7.35733e-13
3.38561e-13
7.0063e-13
3.29202e-13
6.66588e-13
3.21959e-13
6.32895e-13
3.1432e-13
6.00414e-13
3.06869e-13
5.68319e-13
2.99411e-13
5.37555e-13
2.91208e-13
5.07243e-13
2.84519e-13
4.78585e-13
2.76758e-13
4.50136e-13
2.70745e-13
4.2279e-13
2.63296e-13
3.96399e-13
2.56081e-13
3.70738e-13
2.4976e-13
3.45844e-13
2.4359e-13
3.21537e-13
2.37786e-13
2.98075e-13
2.32285e-13
2.75074e-13
2.26831e-13
2.52509e-13
2.21726e-13
2.30292e-13
2.16976e-13
2.08441e-13
2.12331e-13
1.86764e-13
2.07594e-13
1.6524e-13
2.02624e-13
1.43902e-13
1.96973e-13
1.2235e-13
1.90215e-13
1.00452e-13
1.80196e-13
7.40389e-14
1.65488e-13
1.75756e-14
3.12581e-13
8.83187e-15
4.16067e-13
-6.356e-16
3.05744e-13
1.39627e-21
8.35552e-20
1.37855e-21
2.07829e-22
1.40145e-21
2.26441e-22
1.47155e-21
2.43708e-22
1.5064e-21
2.5808e-22
1.51028e-21
2.69506e-22
1.49053e-21
2.7845e-22
1.45361e-21
2.85067e-22
1.40378e-21
2.8941e-22
1.34515e-21
2.9184e-22
1.28022e-21
2.92512e-22
1.21177e-21
2.91788e-22
1.14104e-21
2.89513e-22
1.06975e-21
2.86153e-22
9.98821e-22
2.81758e-22
9.28821e-22
2.76433e-22
8.60733e-22
2.70385e-22
7.94921e-22
2.63716e-22
7.31641e-22
2.56529e-22
6.7105e-22
2.48878e-22
6.13303e-22
2.40968e-22
5.58864e-22
2.328e-22
5.07475e-22
2.24321e-22
4.59034e-22
2.15739e-22
4.13745e-22
2.07209e-22
3.71404e-22
1.98575e-22
3.31958e-22
1.89941e-22
2.95148e-22
1.81411e-22
2.61027e-22
1.73139e-22
2.29491e-22
1.65178e-22
2.00333e-22
1.57423e-22
1.73294e-22
1.5003e-22
1.48272e-22
1.43102e-22
1.25163e-22
1.36795e-22
1.03811e-22
1.31056e-22
8.3752e-23
1.26042e-22
6.4882e-23
1.21647e-22
4.71493e-23
1.18235e-22
2.99853e-23
1.1565e-22
1.34417e-23
1.14151e-22
1.13427e-22
1.96861e-12
-9.17343e-12
3.74281e-12
-8.60173e-12
5.01455e-12
-7.26445e-12
5.70405e-12
-5.46753e-12
5.86775e-12
-3.74747e-12
5.78362e-12
-2.50954e-12
5.61675e-12
-1.65586e-12
5.43561e-12
-1.06709e-12
5.25984e-12
-6.0784e-13
5.08143e-12
-2.41887e-13
4.90856e-12
5.36465e-14
4.75114e-12
2.88488e-13
4.583e-12
5.11742e-13
4.40966e-12
7.19677e-13
4.22658e-12
8.82852e-13
4.04494e-12
1.01721e-12
3.84729e-12
1.13694e-12
3.6484e-12
1.22241e-12
3.45777e-12
1.28415e-12
3.26275e-12
1.32509e-12
3.07509e-12
1.34484e-12
2.89397e-12
1.34073e-12
2.72287e-12
1.32265e-12
2.55949e-12
1.28801e-12
2.40639e-12
1.25684e-12
2.26525e-12
1.20688e-12
2.13497e-12
1.15008e-12
2.01513e-12
1.09309e-12
1.90543e-12
1.03591e-12
1.80507e-12
9.76668e-13
1.71274e-12
9.21358e-13
1.62983e-12
8.64663e-13
1.55403e-12
8.10715e-13
1.48434e-12
7.60011e-13
1.41971e-12
7.14465e-13
1.36003e-12
6.72772e-13
1.3044e-12
6.34372e-13
1.25267e-12
5.98856e-13
1.20338e-12
5.67867e-13
1.15688e-12
5.39966e-13
1.11256e-12
5.14716e-13
1.06974e-12
4.92136e-13
1.02835e-12
4.72925e-13
9.88166e-13
4.5616e-13
9.48836e-13
4.39738e-13
9.11048e-13
4.25897e-13
8.72391e-13
4.15004e-13
8.36399e-13
4.00043e-13
8.00318e-13
3.94903e-13
7.63213e-13
3.85119e-13
7.27802e-13
3.74463e-13
6.92438e-13
3.65145e-13
6.58889e-13
3.56176e-13
6.25391e-13
3.4857e-13
5.92965e-13
3.40134e-13
5.60752e-13
3.32547e-13
5.30053e-13
3.2291e-13
5.00061e-13
3.156e-13
4.71437e-13
3.06554e-13
4.43296e-13
3.00138e-13
4.15973e-13
2.91945e-13
3.89803e-13
2.83653e-13
3.64499e-13
2.7654e-13
3.40078e-13
2.69556e-13
3.16017e-13
2.63457e-13
2.9278e-13
2.57195e-13
2.7005e-13
2.51298e-13
2.47674e-13
2.45891e-13
2.25543e-13
2.4095e-13
2.03693e-13
2.36074e-13
1.81712e-13
2.31513e-13
1.59609e-13
2.26706e-13
1.36667e-13
2.21926e-13
1.11455e-13
2.1747e-13
8.18456e-14
2.11872e-13
3.44709e-14
2.14952e-13
3.2783e-15
3.45877e-13
5.4458e-15
4.16014e-13
-6.20272e-16
3.13496e-13
1.40951e-21
8.78697e-20
1.39716e-21
2.30266e-22
1.41872e-21
2.5229e-22
1.48593e-21
2.73073e-22
1.51788e-21
2.90082e-22
1.51922e-21
3.03834e-22
1.49715e-21
3.14535e-22
1.45796e-21
3.22239e-22
1.40626e-21
3.27305e-22
1.34582e-21
3.30045e-22
1.27949e-21
3.30562e-22
1.20954e-21
3.29321e-22
1.13763e-21
3.2653e-22
1.06536e-21
3.22342e-22
9.93496e-22
3.1681e-22
9.22875e-22
3.10451e-22
8.54064e-22
3.03162e-22
7.87735e-22
2.95148e-22
7.23938e-22
2.86618e-22
6.63089e-22
2.77623e-22
6.05186e-22
2.68317e-22
5.50437e-22
2.58752e-22
4.98842e-22
2.48981e-22
4.50503e-22
2.39262e-22
4.0506e-22
2.29336e-22
3.62822e-22
2.19565e-22
3.23428e-22
2.0969e-22
2.86877e-22
2.00074e-22
2.53014e-22
1.90665e-22
2.21736e-22
1.81566e-22
1.93043e-22
1.72829e-22
1.66367e-22
1.64609e-22
1.41965e-22
1.56906e-22
1.19424e-22
1.49875e-22
9.87447e-23
1.43516e-22
7.93576e-23
1.37932e-22
6.14699e-23
1.33331e-22
4.45127e-23
1.29557e-22
2.8486e-23
1.26817e-22
1.27696e-23
1.25059e-22
1.24439e-22
2.90452e-12
-1.20789e-11
5.372e-12
-1.10708e-11
6.85543e-12
-8.7493e-12
7.25012e-12
-5.86362e-12
7.05363e-12
-3.55237e-12
6.61393e-12
-2.07123e-12
6.21865e-12
-1.26197e-12
5.87528e-12
-7.25104e-13
5.62205e-12
-3.55982e-13
5.39956e-12
-2.07639e-14
5.18026e-12
2.71577e-13
4.96593e-12
5.01467e-13
4.77533e-12
7.01008e-13
4.57706e-12
9.1661e-13
4.36921e-12
1.08938e-12
4.15697e-12
1.22815e-12
3.9323e-12
1.36031e-12
3.71549e-12
1.43796e-12
3.49514e-12
1.50324e-12
3.2813e-12
1.5377e-12
3.07472e-12
1.5502e-12
2.87697e-12
1.53729e-12
2.69381e-12
1.50463e-12
2.51872e-12
1.46194e-12
2.35785e-12
1.4166e-12
2.21155e-12
1.3521e-12
2.07781e-12
1.28276e-12
1.95591e-12
1.21397e-12
1.84679e-12
1.14406e-12
1.74637e-12
1.07615e-12
1.65669e-12
1.01015e-12