/*--------------------------------*- C++ -*----------------------------------*\
  =========                 |
  \\      /  F ield         | OpenFOAM: The Open Source CFD Toolbox
   \\    /   O peration     | Website:  https://openfoam.org
    \\  /    A nd           | Version:  6
     \\/     M anipulation  |
\*---------------------------------------------------------------------------*/
FoamFile
{
    version     2.0;
    format      ascii;
    class       surfaceScalarField;
    location    "3300";
    object      phi;
}
// * * * * * * * * * * * * * * * * * * * * * * * * * * * * * * * * * * * * * //

dimensions      [0 3 -1 0 0 0 0];

internalField   nonuniform List<scalar> 
9440
(
-1.57471e-10
1.57471e-10
-1.01928e-10
-5.55446e-11
2.68667e-11
-1.28795e-10
1.38889e-10
-1.12023e-10
2.45595e-10
-1.06707e-10
5.6154e-10
-3.15946e-10
1.06962e-09
-5.08076e-10
1.19513e-09
-1.25514e-10
1.31591e-09
-1.20781e-10
1.69184e-09
-3.75929e-10
1.90801e-09
-2.16174e-10
2.29648e-09
-3.88466e-10
2.61222e-09
-3.15744e-10
3.10659e-09
-4.94374e-10
3.37685e-09
-2.70255e-10
3.7654e-09
-3.88557e-10
4.09192e-09
-3.26513e-10
4.47461e-09
-3.8269e-10
4.75136e-09
-2.76756e-10
4.90609e-09
-1.5473e-10
5.22737e-09
-3.21274e-10
5.48272e-09
-2.5535e-10
5.60661e-09
-1.23892e-10
5.70587e-09
-9.92639e-11
5.84844e-09
-1.42563e-10
6.02886e-09
-1.80424e-10
6.18411e-09
-1.55245e-10
6.2545e-09
-7.03927e-11
6.24275e-09
1.17527e-11
6.2146e-09
2.81495e-11
6.13001e-09
8.45928e-11
6.04777e-09
8.22379e-11
5.97083e-09
7.69382e-11
5.95116e-09
1.96682e-11
5.94731e-09
3.85283e-12
5.94711e-09
1.99747e-13
5.99437e-09
-4.72555e-11
5.95684e-09
3.75255e-11
5.99791e-09
-4.10698e-11
6.01831e-09
-2.0393e-11
6.01033e-09
7.98016e-12
6.03161e-09
-2.12873e-11
6.03015e-09
1.46204e-12
6.03659e-09
-6.43728e-12
6.12746e-09
-9.08731e-11
6.17623e-09
-4.8764e-11
6.18472e-09
-8.49272e-12
6.21281e-09
-2.80863e-11
6.27409e-09
-6.12815e-11
6.35263e-09
-7.85431e-11
6.39879e-09
-4.61615e-11
6.40645e-09
-7.65784e-12
6.40575e-09
6.98195e-13
6.44117e-09
-3.5423e-11
6.48364e-09
-4.24709e-11
6.52895e-09
-4.53097e-11
6.56211e-09
-3.31522e-11
6.59464e-09
-3.2534e-11
6.61781e-09
-2.31671e-11
6.6208e-09
-2.99095e-12
6.58958e-09
3.12181e-11
6.54714e-09
4.24381e-11
6.48743e-09
5.97081e-11
6.41393e-09
7.35047e-11
6.3369e-09
7.70286e-11
6.2177e-09
1.19198e-10
6.0961e-09
1.21597e-10
5.92105e-09
1.75055e-10
5.71915e-09
2.01899e-10
5.54055e-09
1.78593e-10
5.2773e-09
2.6325e-10
4.98459e-09
2.92716e-10
4.77878e-09
2.05803e-10
4.38127e-09
3.97508e-10
4.07504e-09
3.0623e-10
3.82005e-09
2.5499e-10
3.42617e-09
3.9388e-10
3.07253e-09
3.53644e-10
2.57811e-09
4.94418e-10
1.37173e-09
1.20638e-09
8.73119e-10
4.98611e-10
5.39572e-10
3.33545e-10
6.02028e-16
5.39571e-10
-1.90009e-17
-1.4604e-18
-1.90346e-17
3.20454e-20
-1.99473e-17
9.12731e-19
-2.03589e-17
4.10536e-19
-2.01802e-17
-1.79731e-19
-1.95251e-17
-6.56081e-19
-1.85117e-17
-1.01437e-18
-1.72362e-17
-1.2763e-18
-1.57763e-17
-1.46074e-18
-1.41957e-17
-1.58149e-18
-1.25477e-17
-1.64878e-18
-1.08778e-17
-1.67074e-18
-9.22444e-18
-1.65424e-18
-7.61978e-18
-1.60543e-18
-6.09049e-18
-1.52999e-18
-4.65788e-18
-1.43324e-18
-3.3383e-18
-1.32012e-18
-2.14355e-18
-1.19523e-18
-1.08129e-18
-1.0627e-18
-1.55477e-19
-9.26231e-19
6.33156e-19
-7.89037e-19
1.28658e-18
-6.53833e-19
1.80903e-18
-5.22855e-19
2.20649e-18
-3.97883e-19
2.48634e-18
-2.80278e-19
2.65694e-18
-1.71032e-19
2.72733e-18
-7.08171e-20
2.70694e-18
1.99627e-20
2.60541e-18
1.01115e-19
2.43238e-18
1.72611e-19
2.19744e-18
2.34538e-19
1.90997e-18
2.87062e-19
1.57919e-18
3.30384e-19
1.21408e-18
3.6472e-19
8.23432e-19
3.90264e-19
4.15881e-19
4.07168e-19
4.15501e-19
-1.65587e-10
3.23057e-10
-1.05876e-10
-1.15257e-10
-5.72316e-12
-2.28949e-10
1.77793e-10
-2.9554e-10
3.61222e-10
-2.90137e-10
4.4351e-10
-3.98235e-10
7.32012e-10
-7.9658e-10
1.07192e-09
-4.6542e-10
1.32623e-09
-3.75099e-10
1.59028e-09
-6.39973e-10
1.89265e-09
-5.18546e-10
2.15331e-09
-6.49127e-10
2.61893e-09
-7.81367e-10
2.91615e-09
-7.91591e-10
3.32314e-09
-6.77255e-10
3.5833e-09
-6.48718e-10
3.8524e-09
-5.95611e-10
4.17054e-09
-7.00826e-10
4.33904e-09
-4.45259e-10
4.64106e-09
-4.56747e-10
4.84291e-09
-5.2313e-10
5.02145e-09
-4.33885e-10
5.17404e-09
-2.76487e-10
5.34168e-09
-2.66905e-10
5.50542e-09
-3.06295e-10
5.57656e-09
-2.51569e-10
5.62757e-09
-2.06257e-10
5.64105e-09
-8.38688e-11
5.63615e-09
1.66534e-11
5.61733e-09
4.69742e-11
5.59702e-09
1.04903e-10
5.57236e-09
1.06901e-10
5.55314e-09
9.61581e-11
5.53085e-09
4.19528e-11
5.48659e-09
4.81206e-11
5.48449e-09
2.29162e-12
5.44841e-09
-1.11685e-11
5.49593e-09
-9.99843e-12
5.47759e-09
-2.27295e-11
5.49477e-09
-3.75724e-11
5.52746e-09
-2.47052e-11
5.54326e-09
-3.709e-11
5.57616e-09
-3.14394e-11
5.61138e-09
-4.16525e-11
5.65517e-09
-1.34663e-10
5.71948e-09
-1.13072e-10
5.81015e-09
-9.91678e-11
5.88928e-09
-1.07214e-10
5.92402e-09
-9.60206e-11
5.90804e-09
-6.25626e-11
5.90262e-09
-4.07434e-11
5.91531e-09
-2.03458e-11
5.93716e-09
-2.11465e-11
5.94205e-09
-4.03149e-11
5.93861e-09
-3.90356e-11
5.93841e-09
-4.51074e-11
5.95309e-09
-4.78372e-11
5.98853e-09
-6.79753e-11
6.04137e-09
-7.60054e-11
6.09424e-09
-5.58555e-11
6.10535e-09
2.0107e-11
6.09052e-09
5.72602e-11
6.04858e-09
1.0165e-10
6.02715e-09
9.49364e-11
5.99013e-09
1.14049e-10
5.92431e-09
1.85018e-10
5.8178e-09
2.28103e-10
5.69651e-09
2.96343e-10
5.52582e-09
3.72588e-10
5.2962e-09
4.08211e-10
5.07441e-09
4.85037e-10
4.7685e-09
5.98621e-10
4.48315e-09
4.91158e-10
4.26338e-09
6.17272e-10
3.93138e-09
6.38235e-10
3.48858e-09
6.97783e-10
3.25883e-09
6.23626e-10
2.87526e-09
7.37214e-10
2.32116e-09
1.04851e-09
2.39859e-09
1.12895e-09
1.82992e-09
1.06729e-09
8.70679e-10
1.29278e-09
5.17556e-15
1.41024e-09
-9.93994e-18
4.68824e-15
-1.81534e-17
8.24405e-18
-2.0449e-17
3.20753e-18
-2.09492e-17
9.08907e-19
-2.06566e-17
-4.74114e-19
-1.98834e-17
-1.43095e-18
-1.87736e-17
-2.1258e-18
-1.74207e-17
-2.6308e-18
-1.58971e-17
-2.98591e-18
-1.4263e-17
-3.21716e-18
-1.25697e-17
-3.3436e-18
-1.08613e-17
-3.38058e-18
-9.17563e-18
-3.34136e-18
-7.54435e-18
-3.23799e-18
-5.99374e-18
-3.08174e-18
-4.54476e-18
-2.88323e-18
-3.2134e-18
-2.65239e-18
-2.01102e-18
-2.39843e-18
-9.44829e-19
-2.12967e-18
-1.82833e-20
-1.85353e-18
7.6836e-19
-1.57643e-18
1.41756e-18
-1.30379e-18
1.934e-18
-1.04005e-18
2.32409e-18
-7.88745e-19
2.59559e-18
-5.52541e-19
2.75716e-18
-3.33373e-19
2.81811e-18
-1.32531e-19
2.7881e-18
4.92267e-20
2.6769e-18
2.11566e-19
2.49431e-18
3.54475e-19
2.24996e-18
4.78171e-19
1.9533e-18
5.83018e-19
1.61353e-18
6.69453e-19
1.23963e-18
7.37931e-19
8.40337e-19
7.88868e-19
4.24213e-19
8.2261e-19
8.39415e-19
-4.3042e-11
3.66098e-10
-6.4383e-11
-9.39176e-11
-4.88591e-11
-2.44474e-10
6.53722e-12
-3.50938e-10
1.7427e-10
-4.57871e-10
3.40613e-10
-5.64578e-10
4.18618e-10
-8.74586e-10
8.36835e-10
-8.83638e-10
1.1979e-09
-7.3617e-10
1.46644e-09
-9.08507e-10
1.79105e-09
-8.43158e-10
2.03368e-09
-8.91759e-10
2.42439e-09
-1.17208e-09
2.78057e-09
-1.14776e-09
3.14005e-09
-1.03674e-09
3.39848e-09
-9.07143e-10
3.68971e-09
-8.8684e-10
3.95241e-09
-9.63533e-10
4.18768e-09
-6.8053e-10
4.41784e-09
-6.86907e-10
4.55327e-09
-6.58555e-10
4.64762e-09
-5.28232e-10
4.81822e-09
-4.47088e-10
4.99519e-09
-4.43882e-10
5.09509e-09
-4.06195e-10
5.1021e-09
-2.58576e-10
5.13568e-09
-2.39834e-10
5.1423e-09
-9.04925e-11
5.15405e-09
4.90193e-12
5.09608e-09
1.04946e-10
5.06644e-09
1.34546e-10
5.0406e-09
1.32747e-10
5.0257e-09
1.11056e-10
4.9893e-09
7.83568e-11
4.97381e-09
6.3606e-11
4.95781e-09
1.82926e-11
4.92315e-09
2.34934e-11
4.92549e-09
-1.23378e-11
4.91115e-09
-8.38663e-12
4.90013e-09
-2.65513e-11
4.92819e-09
-5.27694e-11
4.95246e-09
-6.13616e-11
4.99987e-09
-7.88456e-11
5.0278e-09
-6.9582e-11
5.0244e-09
-1.31267e-10
5.04736e-09
-1.36025e-10
5.07127e-09
-1.23076e-10
5.09605e-09
-1.31999e-10
5.15183e-09
-1.518e-10
5.23082e-09
-1.41548e-10
5.29941e-09
-1.09341e-10
5.3694e-09
-9.03354e-11
5.43141e-09
-8.31507e-11
5.44766e-09
-5.6568e-11
5.45772e-09
-4.90952e-11
5.44892e-09
-3.63135e-11
5.42994e-09
-2.88516e-11
5.38704e-09
-2.5075e-11
5.32615e-09
-1.51155e-11
5.26652e-09
3.76939e-12
5.2293e-09
5.73331e-11
5.23869e-09
4.78655e-11
5.203e-09
1.37342e-10
5.21642e-09
8.15088e-11
5.14614e-09
1.84334e-10
5.16735e-09
1.63803e-10
5.10565e-09
2.89809e-10
4.99534e-09
4.06648e-10
5.02846e-09
3.39469e-10
4.82545e-09
6.11215e-10
4.6468e-09
6.63686e-10
4.48097e-09
7.64453e-10
4.09459e-09
8.77535e-10
3.96357e-09
7.48294e-10
3.72344e-09
8.78358e-10
3.33257e-09
1.08865e-09
3.01648e-09
9.3972e-10
2.35257e-09
1.40112e-09
2.02893e-09
1.37215e-09
1.81827e-09
1.3396e-09
1.03458e-09
1.85097e-09
4.91326e-10
1.83604e-09
-7.36427e-16
1.90157e-09
-2.55544e-17
3.37799e-15
-2.3189e-17
5.87674e-18
-2.2747e-17
2.76483e-18
-2.23322e-17
4.92252e-19
-2.16134e-17
-1.1947e-18
-2.05782e-17
-2.46782e-18
-1.92786e-17
-3.4271e-18
-1.77758e-17
-4.13523e-18
-1.61283e-17
-4.63496e-18
-1.43894e-17
-4.95762e-18
-1.26067e-17
-5.12787e-18
-1.08221e-17
-5.1666e-18
-9.07226e-18
-5.09259e-18
-7.3881e-18
-4.9234e-18
-5.79523e-18
-4.67574e-18
-4.31393e-18
-4.36554e-18
-2.95943e-18
-4.00779e-18
-1.74227e-18
-3.61641e-18
-6.68689e-19
-3.20401e-18
2.58818e-19
-2.78176e-18
1.041e-18
-2.35932e-18
1.6813e-18
-1.94478e-18
2.18531e-18
-1.54475e-18
2.5603e-18
-1.16442e-18
2.81475e-18
-8.07681e-19
2.958e-18
-4.77297e-19
2.99987e-18
-1.75067e-19
2.95044e-18
9.80034e-20
2.81981e-18
3.41542e-19
2.61801e-18
5.55646e-19
2.35481e-18
7.40746e-19
2.03973e-18
8.97477e-19
1.68201e-18
1.02657e-18
1.29056e-18
1.12877e-18
8.74079e-19
1.20476e-18
4.41018e-19
1.25508e-18
1.28014e-18
7.95984e-11
2.86499e-10
-2.90241e-11
1.47039e-11
-1.40537e-10
-1.32962e-10
-1.11751e-10
-3.79724e-10
1.14756e-12
-5.70771e-10
2.34701e-10
-7.98133e-10
2.68326e-10
-9.08211e-10
4.61148e-10
-1.07646e-09
8.71219e-10
-1.14624e-09
1.21049e-09
-1.24778e-09
1.66178e-09
-1.29444e-09
1.95783e-09
-1.18781e-09
2.19554e-09
-1.4098e-09
2.60958e-09
-1.5618e-09
2.86267e-09
-1.28984e-09
3.23355e-09
-1.27802e-09
3.58393e-09
-1.23722e-09
3.7573e-09
-1.1369e-09
4.03885e-09
-9.62084e-10
4.22476e-09
-8.7282e-10
4.44189e-09
-8.75686e-10
4.5111e-09
-5.97436e-10
4.58097e-09
-5.16959e-10
4.60585e-09
-4.6876e-10
4.64931e-09
-4.49655e-10
4.62246e-09
-2.31731e-10
4.65945e-09
-2.76822e-10
4.70192e-09
-1.32965e-10
4.70875e-09
-1.92577e-12
4.6963e-09
1.17397e-10
4.68246e-09
1.48389e-10
4.64754e-09
1.67668e-10
4.59183e-09
1.66765e-10
4.52201e-09
1.48173e-10
4.46501e-09
1.20613e-10
4.43588e-09
4.74222e-11
4.43272e-09
2.66503e-11
4.42382e-09
-3.43445e-12
4.43818e-09
-2.27465e-11
4.44946e-09
-3.78255e-11
4.48192e-09
-8.52302e-11
4.508e-09
-8.74441e-11
4.5535e-09
-1.2434e-10
4.59865e-09
-1.14733e-10
4.59228e-09
-1.24899e-10
4.57316e-09
-1.16903e-10
4.55875e-09
-1.08669e-10
4.55466e-09
-1.27909e-10
4.5383e-09
-1.3544e-10
4.52731e-09
-1.3056e-10
4.54528e-09
-1.27305e-10
4.58547e-09
-1.30527e-10
4.63469e-09
-1.32369e-10
4.68534e-09
-1.07223e-10
4.73257e-09
-9.63223e-11
4.75985e-09
-6.35977e-11
4.78049e-09
-4.94928e-11
4.75934e-09
-3.9197e-12
4.74036e-09
3.8585e-12
4.69858e-09
4.55485e-11
4.6338e-09
1.22115e-10
4.61042e-09
7.12518e-11
4.52475e-09
2.2301e-10
4.49981e-09
1.0644e-10
4.42455e-09
2.59592e-10
4.36686e-09
2.21494e-10
4.39719e-09
2.59481e-10
4.24439e-09
5.59448e-10
4.32155e-09
2.62304e-10
4.18417e-09
7.48596e-10
4.07944e-09
7.68414e-10
4.14654e-09
6.97353e-10
3.89219e-09
1.13189e-09
3.59361e-09
1.04687e-09
3.20324e-09
1.26873e-09
3.03933e-09
1.25256e-09
2.66684e-09
1.3122e-09
2.35775e-09
1.71021e-09
1.96696e-09
1.76295e-09
1.33416e-09
1.97239e-09
7.31512e-10
2.45362e-09
6.89936e-11
2.49855e-09
-1.00513e-15
1.97056e-09
-2.9278e-17
1.67903e-15
-2.63001e-17
2.8964e-18
-2.50191e-17
1.48297e-18
-2.40191e-17
-5.09784e-19
-2.28865e-17
-2.32944e-18
-2.15375e-17
-3.81884e-18
-1.99867e-17
-4.97984e-18
-1.82755e-17
-5.84834e-18
-1.6451e-17
-6.46134e-18
-1.45597e-17
-6.8507e-18
-1.26454e-17
-7.04384e-18
-1.07481e-17
-7.06554e-18
-8.90307e-18
-6.93918e-18
-7.14044e-18
-6.68745e-18
-5.48502e-18
-6.33246e-18
-3.95618e-18
-5.89554e-18
-2.56805e-18
-5.39697e-18
-1.32987e-18
-4.85555e-18
-2.46441e-19
-4.28831e-18
6.81263e-19
-3.71028e-18
1.45554e-18
-3.13436e-18
2.08132e-18
-2.57131e-18
2.56564e-18
-2.02979e-18
2.91704e-18
-1.51652e-18
3.14514e-18
-1.03647e-18
3.26023e-18
-5.93066e-19
3.27294e-18
-1.88442e-19
3.19397e-18
1.76319e-19
3.03392e-18
5.0096e-19
2.80311e-18
7.85832e-19
2.51154e-18
1.0317e-18
2.16883e-18
1.23958e-18
1.78421e-18
1.4106e-18
1.36655e-18
1.54584e-18
9.24403e-19
1.64632e-18
4.66079e-19
1.71283e-18
1.74593e-18
-1.66331e-12
2.88162e-10
-7.24924e-11
8.55325e-11
-1.68015e-10
-3.74392e-11
-1.74702e-10
-3.73038e-10
-9.4453e-11
-6.51021e-10
2.72126e-12
-8.95308e-10
1.47497e-10
-1.05299e-09
3.28836e-10
-1.2578e-09
6.3465e-10
-1.45206e-09
8.96682e-10
-1.50981e-09
1.39385e-09
-1.79162e-09
1.70814e-09
-1.5021e-09
2.06404e-09
-1.76569e-09
2.3864e-09
-1.88416e-09
2.67926e-09
-1.5827e-09
3.03675e-09
-1.63551e-09
3.34547e-09
-1.54595e-09
3.57997e-09
-1.3714e-09
3.76795e-09
-1.15006e-09
3.92519e-09
-1.03006e-09
4.0747e-09
-1.0252e-09
4.15025e-09
-6.72981e-10
4.20794e-09
-5.7465e-10
4.27883e-09
-5.39646e-10
4.29589e-09
-4.66722e-10
4.314e-09
-2.49838e-10
4.27368e-09
-2.36505e-10
4.21748e-09
-7.67616e-11
4.18533e-09
3.0228e-11
4.1826e-09
1.20121e-10
4.16961e-09
1.61377e-10
4.14991e-09
1.87376e-10
4.10581e-09
2.1086e-10
4.06526e-09
1.8873e-10
4.02805e-09
1.57825e-10
3.9794e-09
9.6066e-11
3.93158e-09
7.44689e-11
3.91554e-09
1.26078e-11
3.92373e-09
-3.09319e-11
3.94007e-09
-5.41617e-11
3.95753e-09
-1.02695e-10
3.95914e-09
-8.90463e-11
3.97755e-09
-1.42751e-10
3.99959e-09
-1.36774e-10
3.99988e-09
-1.25194e-10
4.0014e-09
-1.18417e-10
3.9937e-09
-1.00976e-10
3.97435e-09
-1.08553e-10
3.95991e-09
-1.21e-10
3.95775e-09
-1.28407e-10
3.9663e-09
-1.35849e-10
3.97551e-09
-1.39741e-10
3.98122e-09
-1.38082e-10
3.99652e-09
-1.22523e-10
4.00926e-09
-1.09063e-10
4.04506e-09
-9.93922e-11
4.0558e-09
-6.02341e-11
4.05344e-09
-1.55931e-12
4.08219e-09
-2.4891e-11
4.08545e-09
4.22852e-11
4.07552e-09
1.32043e-10
4.01662e-09
1.30153e-10
3.99481e-09
2.4482e-10
3.91271e-09
1.88534e-10
3.90354e-09
2.68761e-10
3.79798e-09
3.27056e-10
3.72738e-09
3.30079e-10
3.70187e-09
5.84962e-10
3.61071e-09
3.53454e-10
3.56545e-09
7.93854e-10
3.48005e-09
8.53818e-10
3.31495e-09
8.6245e-10
3.2798e-09
1.16703e-09
3.06306e-09
1.26361e-09
2.99382e-09
1.33796e-09
2.75025e-09
1.49613e-09
2.18545e-09
1.87699e-09
1.73824e-09
2.15742e-09
1.23463e-09
2.26655e-09
7.64871e-10
2.44215e-09
4.79701e-10
2.73879e-09
2.63238e-10
2.71501e-09
1.08383e-15
2.2338e-09
-2.73121e-17
1.95484e-15
-2.77129e-17
3.29416e-18
-2.70113e-17
7.80441e-19
-2.58388e-17
-1.68481e-18
-2.43759e-17
-3.79482e-18
-2.26985e-17
-5.49863e-18
-2.08552e-17
-6.82541e-18
-1.88885e-17
-7.81727e-18
-1.68403e-17
-8.51166e-18
-1.47528e-17
-8.94026e-18
-1.26671e-17
-9.13151e-18
-1.06218e-17
-9.11276e-18
-8.65134e-18
-8.91136e-18
-6.78544e-18
-8.55499e-18
-5.04811e-18
-8.07131e-18
-3.45761e-18
-7.48743e-18
-2.02663e-18
-6.82922e-18
-7.62625e-19
-6.1207e-18
3.3159e-19
-5.38356e-18
1.25718e-18
-4.63682e-18
2.01859e-18
-3.89665e-18
2.62284e-18
-3.17639e-18
3.07891e-18
-2.48663e-18
3.39709e-18
-1.83545e-18
3.58854e-18
-1.22864e-18
3.66486e-18
-6.7007e-19
3.6377e-18
-1.61963e-19
3.51862e-18
2.94751e-19
3.31879e-18
7.00147e-19
3.04898e-18
1.05502e-18
2.71942e-18
1.36065e-18
2.33984e-18
1.61856e-18
1.91945e-18
1.83039e-18
1.46702e-18
1.99769e-18
9.9091e-19
2.12185e-18
4.99187e-19
2.20397e-18
2.24484e-18
-7.92908e-11
3.67453e-10
-1.69595e-10
1.75837e-10
-2.35028e-10
2.79934e-11
-2.37498e-10
-3.70568e-10
-2.30565e-10
-6.57954e-10
-2.02549e-10
-9.23324e-10
-6.02502e-11
-1.19529e-09
1.03302e-10
-1.42135e-09
3.91924e-10
-1.74068e-09
7.29199e-10
-1.84709e-09
1.02951e-09
-2.09192e-09
1.48627e-09
-1.95886e-09
1.82288e-09
-2.1023e-09
2.13485e-09
-2.19613e-09
2.44896e-09
-1.89681e-09
3.07171e-09
-2.25826e-09
3.02096e-09
-1.4952e-09
3.16376e-09
-1.51419e-09
3.35679e-09
-1.34309e-09
3.54237e-09
-1.21565e-09
3.73452e-09
-1.21735e-09
3.76798e-09
-7.06445e-10
3.80323e-09
-6.09898e-10
3.89052e-09
-6.2694e-10
3.83189e-09
-4.0809e-10
3.86645e-09
-2.844e-10
3.83364e-09
-2.03696e-10
3.78858e-09
-3.17027e-11
3.75382e-09
6.49931e-11
3.76143e-09
1.12511e-10
3.72003e-09
2.02774e-10
3.69813e-09
2.09282e-10
3.6697e-09
2.39287e-10
3.64077e-09
2.17662e-10
3.60943e-09
1.89171e-10
3.57164e-09
1.33856e-10
3.51797e-09
1.28136e-10
3.47723e-09
5.33512e-11
3.44428e-09
2.02051e-12
3.42065e-09
-3.0533e-11
3.40543e-09
-8.74685e-11
3.42876e-09
-1.1238e-10
3.43198e-09
-1.4597e-10
3.45267e-09
-1.5746e-10
3.45378e-09
-1.26311e-10
3.43722e-09
-1.01851e-10
3.41672e-09
-8.04753e-11
3.40536e-09
-9.71954e-11
3.40251e-09
-1.18156e-10
3.40186e-09
-1.27755e-10
3.40637e-09
-1.4036e-10
3.41454e-09
-1.47908e-10
3.4181e-09
-1.41643e-10
3.43061e-09
-1.35027e-10
3.44692e-09
-1.25379e-10
3.45221e-09
-1.04683e-10
3.45986e-09
-6.7884e-11
3.47395e-09
-1.56494e-11
3.48483e-09
-3.57667e-11
3.48923e-09
3.7884e-11
3.50915e-09
1.1212e-10
3.46738e-09
1.71925e-10
3.46744e-09
2.44756e-10
3.37265e-09
2.83324e-10
3.42577e-09
2.15635e-10
3.32807e-09
4.24759e-10
3.1619e-09
4.96243e-10
3.25877e-09
4.88089e-10
3.00099e-09
6.11241e-10
2.87826e-09
9.16579e-10
2.88423e-09
8.47843e-10
2.74959e-09
9.97089e-10
2.69784e-09
1.21878e-09
2.50055e-09
1.4609e-09
2.42629e-09
1.41223e-09
2.05861e-09
1.8638e-09
1.81335e-09
2.12225e-09
1.60205e-09
2.36872e-09
1.19878e-09
2.66982e-09
9.41065e-10
2.69986e-09
7.2658e-10
2.95327e-09
3.74888e-10
3.0667e-09
1.74928e-15
2.60868e-09
-2.90486e-17
2.77897e-15
-3.0226e-17
4.46795e-18
-2.94762e-17
2.94248e-20
-2.79488e-17
-3.21507e-18
-2.60797e-17
-5.66678e-18
-2.40253e-17
-7.55577e-18
-2.18471e-17
-9.0062e-18
-1.95829e-17
-1.0084e-17
-1.72689e-17
-1.0828e-17
-1.49441e-17
-1.12674e-17
-1.26484e-17
-1.14294e-17
-1.04204e-17
-1.13428e-17
-8.29496e-18
-1.10388e-17
-6.30177e-18
-1.05501e-17
-4.46423e-18
-9.91063e-18
-2.7994e-18
-9.15391e-18
-1.31811e-18
-8.31203e-18
-2.54845e-20
-7.41471e-18
1.07834e-18
-6.48863e-18
1.99735e-18
-5.55695e-18
2.73885e-18
-4.63916e-18
3.3126e-18
-3.75106e-18
3.73009e-18
-2.90498e-18
4.0039e-18
-2.11005e-18
4.14712e-18
-1.37262e-18
4.17296e-18
-6.96633e-19
4.09442e-18
-8.41059e-20
3.92401e-18
4.64495e-19
3.67366e-18
9.49852e-19
3.3546e-18
1.37346e-18
2.97733e-18
1.7373e-18
2.55167e-18
2.04363e-18
2.08676e-18
2.29472e-18
1.59118e-18
2.49269e-18
1.07303e-18
2.63942e-18
5.4005e-19
2.73639e-18
2.78461e-18
-1.07267e-10
4.7472e-10
-2.24028e-10
2.92598e-10
-2.24741e-10
2.87063e-11
-2.07126e-10
-3.88182e-10
-2.17903e-10
-6.47177e-10
-1.62715e-10
-9.78511e-10
-2.8475e-10
-1.07325e-09
-2.66513e-10
-1.43959e-09
-4.28566e-11
-1.96433e-09
2.94122e-10
-2.18407e-09
6.87065e-10
-2.48487e-09
1.25547e-09
-2.52727e-09
1.69215e-09
-2.53898e-09
2.07985e-09
-2.58383e-09
2.18548e-09
-2.00244e-09
2.29385e-09
-2.36663e-09
2.65001e-09
-1.85137e-09
2.7603e-09
-1.62448e-09
2.88859e-09
-1.47138e-09
2.9491e-09
-1.27615e-09
3.02067e-09
-1.28892e-09
3.22122e-09
-9.06994e-10
3.34125e-09
-7.29928e-10
3.34972e-09
-6.35412e-10
3.38855e-09
-4.46926e-10
3.43324e-09
-3.29085e-10
3.40348e-09
-1.73938e-10
3.36227e-09
9.50602e-12
3.3109e-09
1.16367e-10
3.27892e-09
1.44489e-10
3.24389e-09
2.37803e-10
3.19722e-09
2.55953e-10
3.16849e-09
2.6802e-10
3.10868e-09
2.7747e-10
3.05906e-09
2.38798e-10
3.03613e-09
1.56786e-10
3.03288e-09
1.31388e-10
3.03585e-09
5.03772e-11
3.01938e-09
1.84937e-11
2.9932e-09
-4.35278e-12
2.9653e-09
-5.95701e-11
2.94429e-09
-9.13667e-11
2.91018e-09
-1.11854e-10
2.87625e-09
-1.23533e-10
2.86338e-09
-1.13438e-10
2.85252e-09
-9.09893e-11
2.86764e-09
-9.55985e-11
2.87655e-09
-1.06111e-10
2.87844e-09
-1.20042e-10
2.88445e-09
-1.33766e-10
2.89168e-09
-1.47587e-10
2.90707e-09
-1.63298e-10
2.91204e-09
-1.46617e-10
2.93024e-09
-1.53222e-10
2.94702e-09
-1.42169e-10
2.93181e-09
-8.94649e-11
2.96482e-09
-1.00903e-10
2.97628e-09
-2.71114e-11
2.94688e-09
-6.36666e-12
2.94958e-09
3.51909e-11
2.95133e-09
1.10368e-10
2.94693e-09
1.7632e-10
2.94042e-09
2.51263e-10
2.88581e-09
3.37936e-10
2.91315e-09
1.88289e-10
2.79635e-09
5.41566e-10
2.72778e-09
5.64804e-10
2.6917e-09
5.24173e-10
2.51277e-09
7.90165e-10
2.39555e-09
1.0338e-09
2.32547e-09
9.17926e-10
2.11639e-09
1.20616e-09
2.3377e-09
9.97466e-10
2.2611e-09
1.5375e-09
1.99275e-09
1.68058e-09
1.80682e-09
2.04972e-09
1.66431e-09
2.26477e-09
1.41247e-09
2.62055e-09
1.14823e-09
2.93406e-09
7.21764e-10
3.12632e-09
2.5921e-10
3.41582e-09
1.02761e-10
3.22315e-09
7.01901e-16
2.71144e-09
-3.56308e-17
2.48176e-15
-3.4664e-17
3.49632e-18
-3.27204e-17
-1.91561e-18
-3.04005e-17
-5.53815e-18
-2.79687e-17
-8.1017e-18
-2.54757e-17
-1.00517e-17
-2.29249e-17
-1.15599e-17
-2.03269e-17
-1.26846e-17
-1.77083e-17
-1.34492e-17
-1.51061e-17
-1.38721e-17
-1.25618e-17
-1.39761e-17
-1.01163e-17
-1.37907e-17
-7.80629e-18
-1.33509e-17
-5.66232e-18
-1.26962e-17
-3.70752e-18
-1.18675e-17
-1.95752e-18
-1.09058e-17
-4.20794e-19
-9.85055e-18
9.006e-19
-8.73775e-18
2.01001e-18
-7.59953e-18
2.91514e-18
-6.46341e-18
3.62694e-18
-5.35215e-18
4.15868e-18
-4.28386e-18
4.52502e-18
-3.27228e-18
4.74133e-18
-2.32724e-18
4.8231e-18
-1.45519e-18
4.78549e-18
-6.59773e-19
4.64302e-18
5.76556e-20
4.40937e-18
6.97468e-19
4.09727e-18
1.26131e-18
3.71845e-18
1.75165e-18
3.28366e-18
2.17148e-18
2.80275e-18
2.52395e-18
2.28474e-18
2.81215e-18
1.73791e-18
3.03895e-18
1.16999e-18
3.20677e-18
5.8827e-19
3.31755e-18
3.3726e-18
-1.93972e-10
6.68691e-10
-2.5183e-10
3.50458e-10
-2.54515e-10
3.1392e-11
-2.8446e-10
-3.58237e-10
-3.40944e-10
-5.90693e-10
-4.24321e-10
-8.95134e-10
-3.50414e-10
-1.14716e-09
-6.38469e-11
-1.72616e-09
-8.14931e-12
-2.02003e-09
-8.7355e-11
-2.10486e-09
-9.62434e-11
-2.47598e-09
1.80375e-10
-2.80389e-09
5.91419e-10
-2.95003e-09
1.12804e-09
-3.12045e-09
1.88108e-09
-2.75548e-09
2.05074e-09
-2.53629e-09
2.17022e-09
-1.97085e-09
2.23802e-09
-1.69229e-09
2.37855e-09
-1.61191e-09
2.56036e-09
-1.45796e-09
2.62456e-09
-1.35312e-09
2.7075e-09
-9.89927e-10
2.83952e-09
-8.61957e-10
2.87157e-09
-6.67455e-10
2.88548e-09
-4.6084e-10
2.86664e-09
-3.10245e-10
2.8342e-09
-1.41493e-10
2.83378e-09
9.91946e-12
2.8326e-09
1.17551e-10
2.78534e-09
1.91753e-10
2.75434e-09
2.68795e-10
2.6931e-09
3.172e-10
2.64974e-09
3.11377e-10
2.61822e-09
3.08989e-10
2.57463e-09
2.82398e-10
2.53728e-09
1.9413e-10
2.53711e-09
1.3156e-10
2.50911e-09
7.83836e-11
2.51623e-09
1.13679e-11
2.50429e-09
7.59527e-12
2.47725e-09
-3.25336e-11
2.43926e-09
-5.33777e-11
2.38234e-09
-5.49295e-11
2.3418e-09
-8.299e-11
2.32802e-09
-9.96628e-11
2.32128e-09
-8.42474e-11
2.32261e-09
-9.69342e-11
2.33088e-09
-1.14375e-10
2.33517e-09
-1.24329e-10
2.35719e-09
-1.55791e-10
2.38066e-09
-1.71061e-10
2.40426e-09
-1.86892e-10
2.44002e-09
-1.82377e-10
2.4704e-09
-1.83607e-10
2.46563e-09
-1.374e-10
2.51325e-09
-1.3708e-10
2.53137e-09
-1.1903e-10
2.52775e-09
-2.34903e-11
2.53127e-09
-9.88271e-12
2.57333e-09
-6.87318e-12
2.55799e-09
1.25704e-10
2.56168e-09
1.72632e-10
2.53897e-09
2.73966e-10
2.50059e-09
3.76319e-10
2.43799e-09
2.50892e-10
2.36598e-09
6.13566e-10
2.24932e-09
6.81471e-10
2.16219e-09
6.11295e-10
2.06661e-09
8.85749e-10
2.09757e-09
1.00284e-09
1.94316e-09
1.07233e-09
1.9469e-09
1.20243e-09
1.58321e-09
1.36115e-09
1.25543e-09
1.86528e-09
1.17422e-09
1.76178e-09
1.16004e-09
2.06391e-09
9.29884e-10
2.49492e-09
7.83099e-10
2.76734e-09
7.7891e-10
2.93824e-09
5.84284e-10
3.32094e-09
3.11736e-10
3.68837e-09
7.19943e-11
3.46289e-09
1.33079e-15
2.78343e-09
-4.10119e-17
2.824e-15
-4.00757e-17
2.55081e-18
-3.63429e-17
-5.64995e-18
-3.29641e-17
-8.92026e-18
-2.99187e-17
-1.11504e-17
-2.69839e-17
-1.29896e-17
-2.40495e-17
-1.44971e-17
-2.10916e-17
-1.56453e-17
-1.81312e-17
-1.64122e-17
-1.52101e-17
-1.67958e-17
-1.23763e-17
-1.68124e-17
-9.67654e-18
-1.64928e-17
-7.15152e-18
-1.58783e-17
-4.83361e-18
-1.50163e-17
-2.7459e-18
-1.39574e-17
-9.02242e-19
-1.27516e-17
6.92005e-19
-1.14469e-17
2.03882e-18
-1.00865e-17
3.14614e-18
-8.7086e-18
4.0264e-18
-7.34524e-18
4.69524e-18
-6.02238e-18
5.17026e-18
-4.76011e-18
5.47006e-18
-3.57316e-18
5.61338e-18
-2.47152e-18
5.61852e-18
-1.46121e-18
5.50292e-18
-5.44969e-19
5.28283e-18
2.77002e-19
4.97321e-18
1.0064e-18
4.58761e-18
1.64624e-18
4.13827e-18
2.20036e-18
3.63613e-18
2.67302e-18
3.09096e-18
3.06852e-18
2.51153e-18
3.39101e-18
1.90573e-18
3.64418e-18
1.28077e-18
3.83117e-18
6.43321e-19
3.95444e-18
4.01564e-18
-1.15939e-10
7.84631e-10
-2.21488e-10
4.56008e-10
-3.01854e-10
1.11759e-10
-4.04109e-10
-2.5598e-10
-5.3892e-10
-4.5588e-10
-5.76008e-10
-8.58045e-10
-5.77795e-10
-1.14537e-09
-5.93632e-10
-1.71032e-09
-6.28082e-10
-1.98558e-09
-4.28544e-10
-2.3044e-09
-3.30078e-10
-2.57444e-09
-6.84571e-11
-3.06551e-09
1.95684e-10
-3.21417e-09
3.52023e-10
-3.27679e-09
7.80155e-10
-3.18361e-09
1.21888e-09
-2.97502e-09
1.61867e-09
-2.37064e-09
1.86244e-09
-1.93605e-09
1.95692e-09
-1.7064e-09
1.9867e-09
-1.48774e-09
2.17002e-09
-1.53644e-09
2.25322e-09
-1.07313e-09
2.27913e-09
-8.87867e-10
2.36155e-09
-7.4988e-10
2.32467e-09
-4.23962e-10
2.3017e-09
-2.87268e-10
2.30076e-09
-1.40559e-10
2.27628e-09
3.44018e-11
2.32373e-09
7.01049e-11
2.2866e-09
2.28878e-10
2.24851e-09
3.06883e-10
2.22163e-09
3.44086e-10
2.17266e-09
3.6035e-10
2.14441e-09
3.37239e-10
2.11177e-09
3.15037e-10
2.06945e-09
2.36449e-10
2.05805e-09
1.42969e-10
2.01498e-09
1.2145e-10
1.96252e-09
6.38301e-11
1.92631e-09
4.38019e-11
1.88267e-09
1.11089e-11
1.85279e-09
-2.34976e-11
1.85354e-09
-5.56773e-11
1.85452e-09
-8.39665e-11
1.85545e-09
-1.00597e-10
1.86253e-09
-9.13236e-11
1.87195e-09
-1.06349e-10
1.88918e-09
-1.31605e-10
1.90285e-09
-1.38002e-10
1.92606e-09
-1.79005e-10
1.95495e-09
-1.9995e-10
1.98913e-09
-2.21066e-10
2.02062e-09
-2.13873e-10
2.06021e-09
-2.23194e-10
2.09582e-09
-1.73009e-10
2.1324e-09
-1.73671e-10
2.12871e-09
-1.15331e-10
2.16527e-09
-6.00576e-11
2.18073e-09
-2.53419e-11
2.19074e-09
-1.68891e-11
2.18784e-09
1.28609e-10
2.19091e-09
1.69557e-10
2.17224e-09
2.92639e-10
2.15814e-09
3.90416e-10
2.05757e-09
3.51457e-10
1.98242e-09
6.88721e-10
1.93093e-09
7.32954e-10
1.84869e-09
6.93531e-10
1.67268e-09
1.06176e-09
1.50245e-09
1.17307e-09
1.58248e-09
9.92293e-10
1.65478e-09
1.13013e-09
1.39228e-09
1.62365e-09
1.25705e-09
2.00051e-09
9.17934e-10
2.10089e-09
6.78045e-10
2.30379e-09
5.25489e-10
2.64747e-09
4.34787e-10
2.85804e-09
3.63459e-10
3.00957e-09
1.88776e-10
3.49562e-09
8.32425e-11
3.7939e-09
3.38317e-11
3.51229e-09
-1.40511e-15
2.81726e-09
-7.5284e-17
5.21897e-16
-4.82767e-17
-2.44662e-17
-3.96136e-17
-1.43147e-17
-3.51944e-17
-1.33428e-17
-3.1758e-17
-1.459e-17
-2.84914e-17
-1.62591e-17
-2.51977e-17
-1.77937e-17
-2.18585e-17
-1.89872e-17
-1.85148e-17
-1.97586e-17
-1.52267e-17
-2.00866e-17
-1.20567e-17
-1.99849e-17
-9.062e-18
-1.949e-17
-6.28957e-18
-1.86531e-17
-3.77464e-18
-1.75336e-17
-1.54016e-18
-1.61942e-17
4.02537e-19
-1.46966e-17
2.05237e-18
-1.3099e-17
3.41672e-18
-1.1453e-17
4.50949e-18
-9.80339e-18
5.34926e-18
-8.18683e-18
5.95751e-18
-6.63224e-18
6.35722e-18
-5.16123e-18
6.57169e-18
-3.78887e-18
6.62369e-18
-2.5246e-18
6.53476e-18
-1.37324e-18
6.32489e-18
-3.35954e-19
6.01223e-18
5.88883e-19
5.61304e-18
1.40486e-18
5.14174e-18
2.11687e-18
4.61093e-18
2.73053e-18
4.03164e-18
3.2517e-18
3.41345e-18
3.68613e-18
2.7647e-18
4.03918e-18
2.09272e-18
4.31559e-18
1.40403e-18
4.51931e-18
7.0453e-19
4.65339e-18
4.7199e-18
-1.1745e-10
9.02083e-10
-2.10886e-10
5.49446e-10
-2.97682e-10
1.98557e-10
-5.02142e-10
-5.15185e-11
-6.36233e-10
-3.21788e-10
-6.44752e-10
-8.49525e-10
-6.94961e-10
-1.09516e-09
-7.45145e-10
-1.66013e-09
-8.15951e-10
-1.91478e-09
-7.56224e-10
-2.36413e-09
-5.69003e-10
-2.76166e-09
-4.54085e-10
-3.18043e-09
-1.81976e-10
-3.48628e-09
2.66453e-10
-3.72522e-09
7.66266e-10
-3.68343e-09
9.50229e-10
-3.15898e-09
1.19096e-09
-2.61137e-09
1.37489e-09
-2.11999e-09
1.55777e-09
-1.88927e-09
1.62648e-09
-1.55645e-09
1.68558e-09
-1.59554e-09
1.77338e-09
-1.16093e-09
1.7772e-09
-8.91692e-10
1.79747e-09
-7.70148e-10
1.74047e-09
-3.66965e-10
1.77683e-09
-3.23628e-10
1.83959e-09
-2.03318e-10
1.81768e-09
5.63181e-11
1.82383e-09
6.39512e-11
1.78136e-09
2.71348e-10
1.73838e-09
3.49861e-10
1.70233e-09
3.80139e-10
1.67353e-09
3.89148e-10
1.64978e-09
3.60992e-10
1.62451e-09
3.40309e-10
1.60694e-09
2.5402e-10
1.54127e-09
2.08642e-10
1.49613e-09
1.6659e-10
1.44303e-09
1.16928e-10
1.43618e-09
5.06528e-11
1.4456e-09
1.69119e-12
1.44555e-09
-2.34495e-11
1.44237e-09
-5.2491e-11
1.44308e-09
-8.46728e-11
1.45271e-09
-1.10232e-10
1.46273e-09
-1.01337e-10
1.48477e-09
-1.28393e-10
1.50805e-09
-1.54883e-10
1.52573e-09
-1.55689e-10
1.54998e-09
-2.03253e-10
1.57898e-09
-2.28949e-10
1.61151e-09
-2.53591e-10
1.64316e-09
-2.45529e-10
1.6636e-09
-2.43637e-10
1.718e-09
-2.2741e-10
1.72419e-09
-1.79859e-10
1.75439e-09
-1.45528e-10
1.79834e-09
-1.04013e-10
1.81851e-09
-4.55138e-11
1.7827e-09
1.8922e-11
1.81795e-09
9.3352e-11
1.80068e-09
1.86823e-10
1.77932e-09
3.14004e-10
1.77738e-09
3.92354e-10
1.64995e-09
4.7888e-10
1.65618e-09
6.82496e-10
1.59805e-09
7.91075e-10
1.37745e-09
9.14127e-10
1.37701e-09
1.0622e-09
1.2652e-09
1.28488e-09
1.11888e-09
1.13861e-09
7.69128e-10
1.47988e-09
6.9091e-10
1.70187e-09
8.14655e-10
1.87676e-09
6.07328e-10
2.30822e-09
4.19362e-10
2.49176e-09
2.04456e-10
2.86237e-09
1.27565e-11
3.04973e-09
-8.52254e-11
3.10755e-09
-1.93221e-10
3.60362e-09
-1.63591e-10
3.76427e-09
-9.8704e-11
3.4474e-09
3.92409e-16
2.71855e-09
-2.53014e-17
5.09631e-19
-3.81271e-17
-1.16406e-17
-3.86426e-17
-1.38023e-17
-3.64418e-17
-1.55469e-17
-3.34271e-17
-1.76078e-17
-3.0026e-17
-1.96632e-17
-2.63912e-17
-2.14313e-17
-2.263e-17
-2.27511e-17
-1.88428e-17
-2.35484e-17
-1.5125e-17
-2.38071e-17
-1.15618e-17
-2.35506e-17
-8.22508e-18
-2.28293e-17
-5.17006e-18
-2.17105e-17
-2.43521e-18
-2.02708e-17
-4.26355e-20
-1.8589e-17
2.00022e-18
-1.67419e-17
3.69832e-18
-1.47994e-17
5.06634e-18
-1.28234e-17
6.12606e-18
-1.08653e-17
6.90385e-18
-8.96666e-18
7.42851e-18
-7.15873e-18
7.72958e-18
-5.4639e-18
7.83596e-18
-3.89664e-18
7.77504e-18
-2.46489e-18
7.57205e-18
-1.1713e-18
7.24973e-18
-1.45596e-20
6.82821e-18
1.00957e-18
6.32506e-18
1.90726e-18
5.75539e-18
2.68584e-18
5.1321e-18
3.35317e-18
4.46607e-18
3.9171e-18
3.7665e-18
4.38511e-18
3.04111e-18
4.76401e-18
2.29644e-18
5.05971e-18
1.53811e-18
5.27709e-18