/*--------------------------------*- C++ -*----------------------------------*\
  =========                 |
  \\      /  F ield         | OpenFOAM: The Open Source CFD Toolbox
   \\    /   O peration     | Website:  https://openfoam.org
    \\  /    A nd           | Version:  6
     \\/     M anipulation  |
\*---------------------------------------------------------------------------*/
FoamFile
{
    version     2.0;
    format      ascii;
    class       volScalarField;
    location    "3300";
    object      T;
}
// * * * * * * * * * * * * * * * * * * * * * * * * * * * * * * * * * * * * * //

dimensions      [0 0 0 1 0 0 0];

internalField   nonuniform List<scalar> 
4800
(
552.488
552.365
552.244
552.127
552.013
551.904
551.801
551.702
551.607
551.518
551.434
551.355
551.281
551.212
551.148
551.089
551.033
550.982
550.934
550.889
550.847
550.809
550.773
550.739
550.707
550.677
550.649
550.622
550.596
550.57
550.545
550.52
550.495
550.47
550.446
550.421
550.396
550.371
550.347
550.322
550.297
550.272
550.247
550.223
550.198
550.173
550.148
550.124
550.098
550.073
550.048
550.022
549.995
549.968
549.94
549.911
549.882
549.85
549.818
549.783
549.746
549.706
549.662
549.615
549.562
549.503
549.438
549.363
549.277
549.179
549.065
548.932
548.778
548.597
548.387
548.144
547.865
547.545
547.184
546.781
546.344
545.883
545.408
544.93
544.799
544.67
544.543
544.417
544.291
544.166
544.041
543.917
543.793
543.67
543.547
543.425
543.304
543.183
543.062
542.942
542.823
542.703
542.585
542.467
542.349
542.231
542.114
541.997
541.88
541.764
541.648
541.532
541.416
541.3
541.185
541.069
540.954
540.838
540.723
540.608
552.487
552.362
552.24
552.121
552.005
551.895
551.789
551.688
551.593
551.502
551.417
551.337
551.263
551.193
551.129
551.069
551.013
550.962
550.914
550.87
550.829
550.79
550.755
550.722
550.691
550.661
550.634
550.607
550.582
550.557
550.532
550.507
550.483
550.459
550.434
550.41
550.385
550.361
550.336
550.311
550.287
550.262
550.237
550.213
550.188
550.164
550.139
550.114
550.089
550.064
550.038
550.012
549.986
549.959
549.931
549.902
549.872
549.84
549.807
549.772
549.735
549.694
549.65
549.602
549.549
549.489
549.423
549.347
549.261
549.162
549.047
548.914
548.758
548.577
548.367
548.124
547.844
547.525
547.166
546.77
546.339
545.88
545.404
544.928
544.798
544.669
544.543
544.417
544.291
544.166
544.041
543.917
543.793
543.67
543.547
543.425
543.303
543.182
543.062
542.942
542.822
542.703
542.585
542.466
542.348
542.231
542.114
541.997
541.88
541.764
541.648
541.532
541.416
541.3
541.184
541.069
540.954
540.838
540.723
540.608
552.486
552.358
552.232
552.109
551.99
551.876
551.766
551.662
551.564
551.472
551.384
551.303
551.226
551.156
551.091
551.03
550.975
550.923
550.876
550.833
550.792
550.755
550.721
550.689
550.659
550.631
550.604
550.579
550.555
550.531
550.507
550.483
550.46
550.436
550.412
550.388
550.364
550.34
550.315
550.291
550.267
550.243
550.218
550.194
550.17
550.145
550.121
550.096
550.071
550.046
550.021
549.995
549.968
549.941
549.913
549.884
549.854
549.822
549.788
549.752
549.713
549.672
549.627
549.577
549.523
549.462
549.394
549.317
549.229
549.128
549.012
548.877
548.721
548.539
548.328
548.085
547.805
547.487
547.13
546.738
546.312
545.858
545.392
544.923
544.795
544.668
544.542
544.417
544.291
544.166
544.041
543.917
543.793
543.669
543.547
543.424
543.303
543.182
543.061
542.941
542.822
542.703
542.584
542.466
542.348
542.23
542.113
541.996
541.88
541.763
541.647
541.531
541.416
541.3
541.184
541.069
540.953
540.838
540.723
540.608
552.484
552.351
552.221
552.093
551.969
551.849
551.735
551.626
551.523
551.427
551.337
551.253
551.174
551.102
551.035
550.975
550.919
550.868
550.822
550.78
550.741
550.705
550.672
550.642
550.614
550.587
550.562
550.539
550.516
550.494
550.471
550.449
550.426
550.403
550.38
550.357
550.333
550.31
550.286
550.262
550.239
550.215
550.191
550.167
550.143
550.119
550.095
550.071
550.046
550.021
549.996
549.97
549.943
549.916
549.888
549.858
549.827
549.795
549.76
549.723
549.684
549.641
549.594
549.543
549.486
549.423
549.353
549.273
549.183
549.08
548.961
548.825
548.667
548.484
548.272
548.029
547.75
547.435
547.082
546.693
546.274
545.83
545.374
544.916
544.792
544.667
544.542
544.417
544.291
544.166
544.041
543.916
543.792
543.669
543.546
543.423
543.302
543.181
543.06
542.94
542.821
542.702
542.583
542.465
542.347
542.23
542.113
541.996
541.879
541.763
541.647
541.531
541.415
541.3
541.184
541.069
540.953
540.838
540.723
540.608
552.481
552.343
552.206
552.072
551.942
551.816
551.696
551.581
551.473
551.371
551.277
551.189
551.108
551.033
550.966
550.905
550.849
550.799
550.754
550.713
550.675
550.642
550.611
550.583
550.556
550.532
550.51
550.488
550.467
550.447
550.426
550.405
550.384
550.362
550.34
550.318
550.295
550.272
550.249
550.226
550.203
550.18
550.157
550.134
550.11
550.087
550.063
550.039
550.015
549.99
549.965
549.939
549.913
549.885
549.856
549.826
549.795
549.761
549.726
549.688
549.647
549.602
549.554
549.5
549.441
549.375
549.301
549.219
549.125
549.019
548.897
548.757
548.597
548.413
548.201
547.958
547.681
547.369
547.021
546.639
546.231
545.801
545.358
544.911
544.79
544.667
544.543
544.418
544.292
544.166
544.041
543.916
543.791
543.668
543.545
543.422
543.3
543.179
543.059
542.939
542.819
542.7
542.582
542.464
542.346
542.229
542.112
541.995
541.879
541.762
541.646
541.53
541.415
541.299
541.184
541.068
540.953
540.838
540.723
540.608
552.478
552.333
552.19
552.049
551.912
551.779
551.651
551.53
551.415
551.307
551.207
551.115
551.031
550.954
550.885
550.823
550.768
550.718
550.674
550.634
550.598
550.567
550.539
550.513
550.489
550.468
550.448
550.428
550.41
550.391
550.373
550.353
550.334
550.314
550.293
550.272
550.25
550.228
550.206
550.184
550.162
550.139
550.117
550.094
550.072
550.049
550.026
550.003
549.979
549.955
549.929
549.904
549.877
549.849
549.82
549.789
549.757
549.722
549.686
549.646
549.603
549.557
549.506
549.45
549.388
549.319
549.242
549.156
549.058
548.948
548.822
548.679
548.516
548.33
548.117
547.875
547.601
547.295
546.955
546.585
546.19
545.774
545.343
544.906
544.79
544.669
544.546
544.42
544.294
544.167
544.041
543.915
543.79
543.666
543.543
543.42
543.299
543.177
543.057
542.937
542.818
542.699
542.58
542.463
542.345
542.228
542.111
541.994
541.878
541.762
541.646
541.53
541.414
541.299
541.183
541.068
540.953
540.838
540.723
540.608
552.474
552.323
552.173
552.025
551.88
551.74
551.604
551.474
551.352
551.237
551.13
551.033
550.945
550.865
550.795
550.732
550.677
550.628
550.585
550.547
550.513
550.484
550.458
550.435
550.414
550.396
550.378
550.361
550.345
550.329
550.312
550.295
550.277
550.259
550.239
550.22
550.199
550.179
550.158
550.136
550.115
550.094
550.073
550.051
550.029
550.008
549.985
549.963
549.939
549.915
549.89
549.864
549.837
549.809
549.78
549.748
549.715
549.679
549.641
549.599
549.555
549.506
549.453
549.394
549.329
549.257
549.176
549.085
548.984
548.869
548.739
548.592
548.426
548.238
548.024
547.783
547.513
547.214
546.884
546.526
546.144
545.743
545.329
544.905
544.794
544.675
544.551
544.423
544.295
544.167
544.04
543.914
543.789
543.664
543.541
543.418
543.296
543.175
543.055
542.935
542.816
542.697
542.579
542.461
542.343
542.226
542.109
541.993
541.877
541.761
541.645
541.529
541.414
541.298
541.183
541.068
540.953
540.837
540.722
540.607
552.47
552.312
552.154
551.999
551.847
551.699
551.555
551.418
551.288
551.165
551.051
550.947
550.853
550.77
550.698
550.635
550.58
550.532
550.49
550.453
550.421
550.395
550.371
550.351
550.333
550.317
550.302
550.289
550.275
550.261
550.247
550.232
550.216
550.199
550.181
550.163
550.144
550.125
550.105
550.085
550.065
550.045
550.025
550.005
549.984
549.963
549.942
549.92
549.897
549.873
549.848
549.823
549.796
549.767
549.736
549.704
549.669
549.632
549.592
549.549
549.502
549.451
549.395
549.333
549.264
549.189
549.104
549.009
548.903
548.784
548.65
548.499
548.329
548.137
547.922
547.683
547.417
547.124
546.806
546.463
546.099
545.718
545.323
544.913
544.808
544.687
544.559
544.428
544.297
544.168
544.039
543.912
543.786
543.661
543.538
543.415
543.293
543.172
543.052
542.932
542.813
542.695
542.577
542.459
542.342
542.225
542.108
541.992
541.875
541.759
541.644
541.528
541.413
541.297
541.182
541.067
540.952
540.837
540.722
540.607
552.467
552.301
552.137
551.974
551.814
551.658
551.507
551.362
551.223
551.093
550.973
550.862
550.763
550.675
550.6
550.535
550.48
550.433
550.391
550.356
550.326
550.301
550.28
550.263
550.248
550.234
550.222
550.211
550.2
550.189
550.177
550.164
550.15
550.135
550.119
550.103
550.085
550.068
550.05
550.031
550.013
549.994
549.975
549.956
549.937
549.917
549.897
549.875
549.853
549.83
549.806
549.78
549.752
549.723
549.692
549.658
549.622
549.583
549.541
549.496
549.446
549.392
549.333
549.268
549.196
549.116
549.027
548.928
548.818
548.694
548.556
548.401
548.228
548.035
547.82
547.58
547.318
547.032
546.724
546.396
546.053
545.697
545.333
544.947
544.838
544.706
544.569
544.433
544.299
544.167
544.037
543.909
543.783
543.658
543.534
543.411
543.29
543.169
543.049
542.929
542.81
542.692
542.574
542.457
542.34
542.223
542.106
541.99
541.874
541.758
541.643
541.527
541.412
541.297
541.182
541.067
540.952
540.837
540.722
540.607
552.464
552.291
552.12
551.95
551.783
551.62
551.462
551.309
551.164
551.026
550.898
550.781
550.676
550.583
550.504
550.436
550.38
550.332
550.291
550.257
550.228
550.206
550.187
550.172
550.16
550.149
550.139
550.131
550.122
550.114
550.104
550.094
550.082
550.069
550.055
550.04
550.025
550.009
549.992
549.976
549.959
549.942
549.925
549.907
549.889
549.871
549.851
549.831
549.81
549.787
549.763
549.737
549.709
549.679
549.647
549.612
549.574
549.533
549.488
549.44
549.388
549.331
549.268
549.2
549.124
549.041
548.948
548.844
548.73
548.602
548.459
548.3
548.124
547.93
547.715
547.478
547.219
546.939
546.641
546.328
546.006
545.682
545.367
545.082
544.892
544.73
544.58
544.437
544.299
544.165
544.034
543.905
543.778
543.653
543.53
543.407
543.286
543.165
543.045
542.926
542.807
542.689
542.571
542.454
542.337
542.221
542.104
541.988
541.872
541.757
541.641
541.526
541.411
541.296
541.181
541.066
540.951
540.837
540.722
540.607
552.461
552.282
552.105
551.929
551.756
551.587
551.422
551.263
551.11
550.965
550.83
550.706
550.595
550.496
550.412
550.341
550.282
550.232
550.191
550.158
550.13
550.109
550.093
550.08
550.07
550.062
550.055
550.049
550.043
550.037
550.03
550.021
550.012
550.001
549.989
549.976
549.963
549.949
549.935
549.92
549.905
549.89
549.875
549.859
549.842
549.825
549.807
549.788
549.767
549.745
549.721
549.695
549.667
549.636
549.602
549.566
549.526
549.482
549.435
549.384
549.328
549.268
549.202
549.13
549.05
548.963
548.866
548.759
548.64
548.508
548.361
548.199
548.02
547.823
547.609
547.375
547.121
546.848
546.558
546.259
545.957
545.658
545.376
545.124
544.918
544.742
544.583
544.435
544.295
544.159
544.028
543.899
543.772
543.647
543.524
543.402
543.281
543.16
543.041
542.922
542.803
542.686
542.568
542.451
542.335
542.218
542.102
541.986
541.871
541.755
541.64
541.525
541.41
541.295
541.18
541.066
540.951
540.836
540.722
540.607
552.458
552.274
552.092
551.911
551.733
551.558
551.388
551.223
551.064
550.913
550.772
550.64
550.522
550.416
550.325
550.25
550.187
550.135
550.093
550.059
550.033
550.013
549.999
549.987
549.98
549.974
549.969
549.966
549.962
549.959
549.954
549.948
549.941
549.932
549.923
549.912
549.901
549.889
549.877
549.865
549.852
549.839
549.826
549.812
549.798
549.782
549.766
549.748
549.728
549.706
549.683
549.656
549.627
549.595
549.56
549.522
549.48
549.434
549.383
549.329
549.27
549.205
549.135
549.059
548.976
548.885
548.784
548.672
548.548
548.412
548.262
548.097
547.916
547.717
547.502
547.269
547.02
546.755
546.475
546.187
545.898
545.618
545.356
545.119
544.915
544.737
544.576
544.427
544.286
544.15
544.019
543.891
543.765
543.64
543.517
543.396
543.275
543.155
543.036
542.917
542.799
542.682
542.565
542.448
542.332
542.216
542.1
541.984
541.869
541.754
541.639
541.524
541.409
541.294
541.179
541.065
540.95
540.836
540.722
540.607
552.456
552.268
552.082
551.897
551.715
551.536
551.361
551.192
551.028
550.871
550.723
550.584
550.457
550.344
550.246
550.164
550.096
550.04
549.996
549.961
549.935
549.917
549.904
549.895
549.889
549.886
549.884
549.883
549.882
549.88
549.878
549.875
549.87
549.864
549.857
549.849
549.84
549.831
549.822
549.812
549.802
549.792
549.781
549.77
549.757
549.744
549.729
549.713
549.694
549.673
549.649
549.623
549.593
549.56
549.523
549.482
549.438
549.388
549.335
549.277
549.213
549.145
549.071
548.991
548.904
548.809
548.704
548.588
548.461
548.32
548.165
547.997
547.813
547.613
547.397
547.164
546.916
546.655
546.382
546.103
545.824
545.555
545.306
545.082
544.887
544.714
544.557
544.41
544.271
544.138
544.008
543.88
543.755
543.632
543.51
543.388
543.268
543.149
543.03
542.912
542.795
542.678
542.561
542.445
542.329
542.213
542.097
541.982
541.867
541.752
541.637
541.522
541.408
541.293
541.179
541.064
540.95
540.836
540.721
540.607
552.455
552.265
552.076
551.888
551.703
551.521
551.344
551.17
551.001
550.838
550.682
550.535
550.399
550.277
550.171
550.082
550.008
549.948
549.901
549.865
549.839
549.822
549.81
549.803
549.8
549.798
549.798
549.8
549.802
549.803
549.803
549.802
549.8
549.797
549.793
549.788
549.782
549.776
549.77
549.763
549.757
549.749
549.742
549.733
549.723
549.712
549.7
549.685
549.667
549.647
549.624
549.597
549.566
549.532
549.493
549.45
549.402
549.349
549.292
549.23
549.163
549.09
549.011
548.927
548.836
548.736
548.628
548.508
548.377
548.233
548.074
547.902
547.715
547.513
547.295
547.062
546.814
546.553
546.282
546.006
545.731
545.467
545.226
545.016
544.836
544.675
544.527
544.387
544.252
544.121
543.994
543.868
543.744
543.622
543.501
543.381
543.261
543.143
543.024
542.907
542.79
542.673
542.557
542.441
542.325
542.21
542.095
541.98
541.865
541.75
541.635
541.521
541.406
541.292
541.178
541.063
540.949
540.835
540.721
540.607
552.454
552.262
552.072
551.884
551.697
551.513
551.331
551.154
550.98
550.811
550.647
550.491
550.346
550.214
550.099
550.003
549.923
549.858
549.808
549.77
549.744
549.726
549.716
549.711
549.71
549.711
549.714
549.718
549.722
549.726
549.73
549.732
549.733
549.733
549.732
549.73
549.728
549.726
549.724
549.721
549.718
549.715
549.711
549.705
549.699
549.691
549.68
549.667
549.651
549.632
549.609
549.581
549.55
549.513
549.472
549.426
549.375
549.319
549.258
549.192
549.12
549.043
548.961
548.871
548.775
548.672
548.559
548.435
548.3
548.152
547.991
547.815
547.625
547.419
547.199
546.965
546.716
546.454
546.182
545.903
545.621
545.348
545.106
544.921
544.766
544.624
544.489
544.357
544.228
544.102
543.977
543.854
543.732
543.611
543.491
543.372
543.253
543.135
543.018
542.901
542.785
542.669
542.553
542.437
542.322
542.207
542.092
541.977
541.862
541.748
541.633
541.519
541.405
541.291
541.177
541.063
540.949
540.835
540.721
540.607
552.454
552.261
552.069
551.88
551.691
551.505
551.321
551.139
550.96
550.784
550.612
550.448
550.293
550.151
550.027
549.923
549.836
549.767
549.713
549.674
549.647
549.631
549.623
549.62
549.62
549.624
549.63
549.637
549.644
549.652
549.658
549.664
549.668
549.672
549.675
549.678
549.681
549.684
549.686
549.688
549.69
549.691
549.692
549.691
549.688
549.682
549.675
549.663
549.649
549.63
549.607
549.579
549.546
549.507
549.464
549.415
549.36
549.3
549.236
549.165
549.09
549.009
548.922
548.828
548.727
548.619
548.501
548.373
548.234
548.082
547.916
547.736
547.542
547.333
547.11
546.873
546.622
546.359
546.083
545.796
545.499
545.194
544.92
544.796
544.683
544.567
544.446
544.324
544.202
544.08
543.959
543.838
543.718
543.599
543.48
543.362
543.245
543.128
543.011
542.895
542.779
542.664
542.548
542.433
542.318
542.203
542.089
541.974
541.86
541.746
541.632
541.518
541.404
541.29
541.176
541.062
540.948
540.834
540.721
540.607
552.453
552.259
552.066
551.874
551.684
551.495
551.307
551.12
550.935
550.751
550.57
550.396
550.231
550.082
549.95
549.838
549.746
549.673
549.617
549.577
549.55
549.535
549.528
549.527
549.531
549.538
549.547
549.558
549.569
549.58
549.59
549.6
549.61
549.618
549.627
549.635
549.644
549.652
549.661
549.669
549.677
549.684
549.689
549.693
549.694
549.692
549.687
549.677
549.664
549.645
549.621
549.592
549.557
549.516
549.47
549.417
549.359
549.296
549.227
549.153
549.074
548.989
548.898
548.8
548.695
548.581
548.459
548.326
548.181
548.024
547.853
547.668
547.469
547.257
547.031
546.79
546.537
546.271
545.993
545.701
545.387
545.021
544.58
544.658
544.605
544.512
544.405
544.291
544.175
544.058
543.94
543.822
543.704
543.586
543.469
543.352
543.236
543.12
543.004
542.888
542.773
542.658
542.543
542.429
542.314
542.2
542.086
541.972
541.858
541.744
541.63
541.516
541.402
541.288
541.175
541.061
540.948
540.834
540.72
540.607
552.452
552.255
552.059
551.864
551.67
551.477
551.285
551.093
550.901
550.708
550.517
550.333
550.159
550.001
549.863
549.746
549.65
549.574
549.517
549.476
549.45
549.436
549.432
549.434
549.441
549.452
549.466
549.481
549.497
549.513
549.528
549.544
549.559
549.574
549.589
549.605
549.621
549.637
549.653
549.668
549.683
549.696
549.708
549.717
549.722
549.724
549.721
549.713
549.7
549.681
549.656
549.624
549.587
549.543
549.493
549.437
549.376
549.309
549.237
549.159
549.077
548.988
548.894
548.792
548.682
548.564
548.436
548.297
548.146
547.982
547.805
547.613
547.408
547.189
546.959
546.716
546.461
546.195
545.919
545.632
545.334
545.028
544.749
544.652
544.567
544.472
544.369
544.261
544.149
544.035
543.92
543.805
543.689
543.573
543.457
543.342
543.227
543.111
542.996
542.882
542.767
542.653
542.539
542.424
542.31
542.197
542.083
541.969
541.855
541.742
541.628
541.514
541.401
541.287
541.174
541.06
540.947
540.833
540.72
540.607
552.449
552.248
552.047
551.847
551.648
551.449
551.25
551.051
550.851
550.649
550.449
550.255
550.073
549.908
549.764
549.643
549.545
549.467
549.41
549.371
549.347
549.336
549.334
549.34
549.352
549.369
549.388
549.409
549.431
549.453
549.476
549.498
549.521
549.545
549.568
549.593
549.618
549.643
549.668
549.692
549.715
549.736
549.754
549.768
549.777
549.782
549.78
549.773
549.759
549.738
549.711
549.677
549.636
549.589
549.535
549.476
549.411
549.342
549.267
549.188
549.103
549.012
548.915
548.809
548.695
548.572
548.437
548.29
548.131
547.958
547.771
547.572
547.358
547.133
546.896
546.65
546.394
546.13
545.858
545.579
545.294
545.009
544.734
544.633
544.537
544.44
544.338
544.232
544.123
544.012
543.9
543.787
543.673
543.559
543.445
543.331
543.217
543.103
542.989
542.875
542.761
542.647
542.534
542.42
542.306
542.193
542.08
541.966
541.853
541.739
541.626
541.513
541.399
541.286
541.173
541.06
540.946
540.833
540.72
540.607
552.446
552.237
552.028
551.82
551.613
551.406
551.198
550.99
550.78
550.569
550.359
550.157
549.968
549.799
549.652
549.529
549.429
549.352
549.297
549.26
549.239
549.232
549.236
549.248
549.266
549.29
549.316
549.345
549.375
549.405
549.437
549.469
549.502
549.535
549.57
549.605
549.641
549.677
549.712
549.747
549.778
549.807
549.831
549.85
549.863
549.869
549.868
549.859
549.843
549.819
549.789
549.751
549.706
549.655
549.598
549.536
549.47
549.4
549.325
549.245
549.16
549.068
548.969
548.86
548.742
548.611
548.468
548.31
548.139
547.954
547.754
547.542
547.319
547.084
546.841
546.59
546.333
546.071
545.804
545.533
545.258
544.982
544.713
544.608
544.509
544.411
544.309
544.205
544.099
543.99
543.881
543.77
543.658
543.546
543.433
543.32
543.207
543.094
542.981
542.868
542.755
542.642
542.529
542.416
542.302
542.189
542.076
541.963
541.85
541.737
541.624
541.511
541.398
541.285
541.172
541.059
540.946
540.833
540.72
540.607
552.44
552.22
552.001
551.781
551.562
551.344
551.125
550.906
550.685
550.463
550.244
550.035
549.842
549.67
549.521
549.399
549.301
549.228
549.176
549.144
549.129
549.128
549.139
549.159
549.186
549.219
549.255
549.293
549.334
549.375
549.418
549.462
549.508
549.554
549.601
549.65
549.698
549.746
549.793
549.837
549.877
549.913
549.943
549.964
549.979
549.985
549.982
549.971
549.951
549.923
549.887
549.845
549.797
549.743
549.684
549.621
549.556
549.487
549.415
549.339
549.257
549.167
549.067
548.956
548.83
548.69
548.533
548.361
548.172
547.968
547.752
547.522
547.283
547.035
546.784
546.529
546.272
546.013
545.753
545.49
545.221
544.948
544.681
544.576
544.48
544.383
544.284
544.181
544.076
543.969
543.861
543.752
543.642
543.531
543.42
543.309
543.197
543.085
542.973
542.861
542.748
542.636
542.524
542.411
542.299
542.186
542.073
541.961
541.848
541.735
541.622
541.509
541.397
541.284
541.171
541.058
540.945
540.832
540.719
540.606
552.432
552.195
551.959
551.723
551.49
551.257
551.026
550.796
550.566
550.334
550.105
549.889
549.692
549.519
549.372
549.253
549.161
549.094
549.05
549.025
549.019
549.027
549.049
549.08
549.118
549.162
549.21
549.261
549.315
549.371
549.428
549.486
549.546
549.607
549.669
549.732
549.793
549.854
549.911
549.965
550.012
550.053
550.087
550.11
550.124
550.128
550.121
550.105
550.079
550.045
550.005
549.959
549.909
549.854
549.795
549.735
549.675
549.613
549.55
549.481
549.406
549.32
549.221
549.105
548.97
548.815
548.639
548.443
548.23
548.001
547.76
547.507
547.247
546.984
546.721
546.463
546.208
545.959
545.711
545.46
545.196
544.909
544.609
544.531
544.452
544.36
544.261
544.158
544.054
543.948
543.842
543.735
543.626
543.517
543.408
543.298
543.187
543.076
542.965
542.854
542.742
542.63
542.519
542.407
542.295
542.182
542.07
541.958
541.845
541.733
541.62
541.508
541.395
541.283
541.17
541.057
540.944
540.832
540.719
540.606
552.419
552.158
551.897
551.638
551.385
551.136
550.891
550.65
550.411
550.171
549.935
549.715
549.517
549.347
549.205
549.095
549.013
548.956
548.923
548.911
548.916
548.938
548.973
549.018
549.07
549.128
549.191
549.258
549.327
549.399
549.472
549.547
549.623
549.701
549.778
549.855
549.929
550
550.066
550.127
550.179
550.223
550.257
550.279
550.289
550.289
550.277
550.254
550.222
550.182
550.139
550.092
550.042
549.99
549.937
549.886
549.837
549.789
549.741
549.688
549.624
549.545
549.445
549.321
549.17
548.99
548.785
548.556
548.308
548.045
547.77
547.487
547.203
546.921
546.649
546.39
546.147
545.916
545.693
545.467
545.214
544.885
544.351
544.478
544.435
544.346
544.244
544.139
544.034
543.929
543.823
543.717
543.611
543.503
543.395
543.287
543.177
543.067
542.957
542.847
542.736
542.625
542.514
542.402
542.291
542.179
542.067
541.955
541.843
541.731
541.619
541.506
541.394
541.281
541.169
541.056
540.944
540.831
540.719
540.606
552.4
552.101
551.805
551.514
551.234
550.965
550.708
550.459
550.215
549.971
549.734
549.516
549.324
549.161
549.03
548.932
548.864
548.823
548.806
548.81
548.832
548.872
548.924
548.985
549.054
549.128
549.207
549.29
549.377
549.466
549.557
549.648
549.741
549.834
549.926
550.015
550.099
550.178
550.248
550.311
550.364
550.406
550.438
550.456
550.463
550.457
550.439
550.411
550.374
550.332
550.289
550.245
550.201
550.16
550.12
550.084
550.054
550.03
550.006
549.973
549.926
549.853
549.75
549.612
549.433
549.217
548.968
548.691
548.395
548.087
547.774
547.457
547.147
546.849
546.57
546.323
546.108
545.918
545.748
545.576
545.373
545.067
544.503
544.554
544.463
544.348
544.234
544.123
544.015
543.909
543.805
543.7
543.595
543.489
543.383
543.276
543.168
543.059
542.95
542.84
542.73
542.62
542.509
542.398
542.287
542.176
542.064
541.953
541.841
541.729
541.617
541.505
541.393
541.28
541.168
541.056
540.943
540.831
540.719
540.606
552.372
552.017
551.67
551.334
551.02
550.73
550.462
550.211
549.97
549.73
549.501
549.295
549.118
548.969
548.855
548.775
548.728
548.708
548.712
548.738
548.784
548.845
548.917
548.997
549.081
549.171
549.264
549.363
549.465
549.57
549.676
549.782
549.89
549.998
550.103
550.201
550.29
550.369
550.437
550.495
550.543
550.582
550.609
550.624
550.627
550.618
550.598
550.569
550.534
550.495
550.459
550.426
550.398
550.376
550.359
550.346
550.345
550.353
550.36
550.352
550.325
550.257
550.143
549.98
549.758
549.486
549.173
548.828
548.47
548.112
547.758
547.405
547.087
546.789
546.515
546.303
546.147
546.03
545.968
545.889
545.819
545.536
545.173
544.698
544.513
544.361
544.228
544.108
543.996
543.89
543.786
543.683
543.579
543.475
543.371
543.265
543.158
543.051
542.942
542.834
542.725
542.615
542.505
542.394
542.284
542.173
542.062
541.95
541.839
541.727
541.615
541.504
541.392
541.279
541.167
541.055
540.943
540.831
540.718
540.606
552.329
551.892
551.471
551.077
550.723
550.412
550.138
549.893
549.665
549.444
549.238
549.058
548.907
548.783
548.694
548.641
548.621
548.628
548.661
548.717
548.79
548.878
548.972
549.068
549.164
549.262
549.364
549.471
549.582
549.695
549.809
549.926
550.045
550.166
550.283
550.387
550.474
550.545
550.602
550.648
550.687
550.719
550.744
550.76
550.766
550.761
550.747
550.727
550.705
550.683
550.665
550.654
550.65
550.658
550.678
550.698
550.731
550.78
550.824
550.833
550.825
550.754
550.613
550.406
550.116
549.761
549.358
548.914
548.485
548.07
547.677
547.284
547.042
546.798
546.551
546.431
546.342
546.332
546.49
546.482
546.943
546.489
546.185
544.864
544.567
544.371
544.219
544.091
543.976
543.87
543.767
543.665
543.564
543.462
543.359
543.254
543.149
543.043
542.936
542.828
542.719
542.61
542.501
542.391
542.281
542.17
542.059
541.948
541.837
541.726
541.614
541.502
541.391
541.279
541.167
541.055
540.942
540.83
540.718
540.606
552.268
551.715
551.192
550.724
550.325
549.996
549.725
549.497
549.295
549.111
548.949
548.813
548.702
548.616
548.563
548.545
548.56
548.603
548.671
548.762
548.87
548.987
549.104
549.211
549.307
549.401
549.497
549.598
549.701
549.806
549.916
550.033
550.16
550.296
550.427
550.534
550.611
550.666
550.703
550.732
550.759
550.788
550.817
550.843
550.865
550.875
550.88
550.888
550.903
550.921
550.94
550.961
550.988
551.037
551.108
551.17
551.238
551.329
551.399
551.404
551.404
551.314
551.112
550.807
550.432
549.981
549.472
548.949
548.511
548.053
547.529
547.179
547.204
547.163
546.995
547.3
546.868
547.151
547.764
547.51
547.889
547.414
546.647
545.445
544.605
544.364
544.199
544.067
543.953
543.847
543.746
543.647
543.548
543.448
543.347
543.244
543.141
543.035
542.929
542.822
542.715
542.606
542.497
542.388
542.278
542.168
542.057
541.946
541.835
541.724
541.613
541.501
541.39
541.278
541.166
541.054
540.942
540.83
540.718
540.606
552.187
551.479
550.825
550.27
549.827
549.488
549.231
549.031
548.874
548.75
548.654
548.578
548.518
548.479
548.47
548.495
548.552
548.638
548.75
548.88
549.026
549.176
549.311
549.419
549.498
549.57
549.642
549.711
549.778
549.848
549.931
550.032
550.163
550.329
550.491
550.595
550.65
550.685
550.708
550.724
550.737
550.764
550.8
550.852
550.908
550.953
551.001
551.066
551.147
551.239
551.325
551.379
551.443
551.535
551.654
551.758
551.865
551.959
551.965
551.941
551.919
551.827
551.677
551.279
550.718
550.114
549.499
549.072
548.659
548.203
547.303
547.365
547.289
547.321
547.657
547.453
547.084
547.462
547.99
547.588
547.679
547.011
546.384
544.887
544.518
544.309
544.157
544.033
543.924
543.823
543.725
543.629
543.533
543.435
543.336
543.235
543.133
543.029
542.924
542.817
542.71
542.602
542.494
542.385
542.275
542.166
542.055
541.945
541.834
541.723
541.612
541.5
541.389
541.277
541.165
541.054
540.942
540.83
540.718
540.606
552.092
551.204
550.405
549.753
549.269
548.929
548.696
548.542
548.451
548.41
548.392
548.378
548.368
548.372
548.404
548.473
548.577
548.715
548.872
549.039
549.223
549.408
549.552
549.644
549.686
549.725
549.755
549.757
549.747
549.744
549.773
549.833
549.962
550.202
550.444
550.52
550.51
550.531
550.587
550.635
550.614
550.633
550.65
550.74
550.873
550.98
551.119
551.299
551.42
551.582
551.784
551.847
552.065
552.114
552.097
552.174
552.29
552.398
552.301
552.371
552.449
552.084
552.36
551.926
551.054
550.136
549.654
550.047
549.271
548.633
548.195
548.002
547.708
547.418
547.378
547.422
547.233
547.31
547.582
547.297
547.211
546.629
546.168
544.687
544.376
544.217
544.099
543.992
543.891
543.796
543.703
543.611
543.518
543.423
543.326
543.227
543.126
543.023
542.919
542.813
542.707
542.599
542.491
542.383
542.273
542.164
542.054
541.943
541.833
541.722
541.611
541.5
541.388
541.277
541.165
541.053
540.942
540.83
540.718
540.606
552.014
550.975
550.055
549.319
548.788
548.438
548.233
548.147
548.144
548.194
548.236
548.248
548.258
548.275
548.321
548.417
548.556
548.753
548.961
549.151
549.369
549.589
549.701
549.737
549.717
549.753
549.768
549.646
549.494
549.393
549.365
549.369
549.466
549.724
549.996
550.07
550.08
550.114
550.278
550.508
550.497
550.391
550.312
550.446
550.646
550.911
551.431
551.806
551.785
551.852
552.17
552.084
552.47
552.638
552.191
552.509
552.369
552.232
552.314
552.557
552.956
552.3
552.261
552.211
551.464
550.773
549.977
550.02
549.528
549.111
548.708
548.302
547.943
547.577
547.317
547.264
547.09
547.063
547.016
546.848
546.549
546.28
546.012
544.649
544.269
544.133
544.039
543.949
543.856
543.768
543.68
543.593
543.504
543.413
543.318
543.221
543.121
543.019
542.915
542.81
542.704
542.597
542.489
542.381
542.272
542.163
542.053
541.942
541.832
541.721
541.61
541.499
541.388
541.276
541.165
541.053
540.941
540.83
540.718
540.606
552.042
550.998
550.019
549.203
548.588
548.203
548.055
548.102
548.202
548.288
548.261
548.189
548.184
548.155
548.129
548.217
548.358
548.614
548.836
549.026
549.292
549.554
549.581
549.482
549.442
549.575
549.478
549.294
548.985
548.905
548.972
548.921
548.781
548.953
549.217
549.217
549.366
549.314
549.637
550.204
550.134
550.143
550.194
550.335
550.345
550.838
551.746
551.891
552.262
552.136
552.411
551.995
552.669
552.726
552.038
552.476
552.444
552.267
552.334
552.454
552.58
552.321
552.052
551.949
551.585
551.178
550.545
550.246
549.805
549.407
548.973
548.52
548.063
547.659
547.315
547.084
546.907
546.781
546.685
546.452
546.195
545.909
545.399
544.894
544.372
544.107
544.004
543.897
543.818
543.739
543.656
543.576
543.492
543.404
543.312
543.216
543.117
543.016
542.912
542.808
542.702
542.595
542.488
542.38
542.271
542.162
542.052
541.942
541.831
541.721
541.61
541.499
541.387
541.276