/*--------------------------------*- C++ -*----------------------------------*\
  =========                 |
  \\      /  F ield         | OpenFOAM: The Open Source CFD Toolbox
   \\    /   O peration     | Website:  https://openfoam.org
    \\  /    A nd           | Version:  6
     \\/     M anipulation  |
\*---------------------------------------------------------------------------*/
FoamFile
{
    version     2.0;
    format      ascii;
    class       volVectorField;
    location    "3300";
    object      U;
}
// * * * * * * * * * * * * * * * * * * * * * * * * * * * * * * * * * * * * * //

dimensions      [0 1 -1 0 0 0 0];

internalField   nonuniform List<vector> 
4800
(
(-0.000180295 0 -3.87492e-05)
(4.10879e-06 0 -9.59923e-05)
(-5.77538e-06 0 -8.70188e-05)
(5.30117e-05 0 -4.90998e-05)
(6.16874e-05 0 -0.000124429)
(0.000152983 0 -0.000165219)
(0.000305023 0 -0.000128696)
(0.000491542 0 -8.42362e-05)
(0.000584822 0 -0.000100225)
(0.000608008 0 -0.00017451)
(0.000706913 0 -9.97681e-05)
(0.000840778 0 -0.000149228)
(0.00101985 0 -3.56389e-05)
(0.00118462 0 -0.000139482)
(0.00135034 0 -9.626e-05)
(0.00147378 0 -0.000125984)
(0.0015859 0 -0.000118451)
(0.00170816 0 -0.000143597)
(0.00185948 0 -8.46268e-05)
(0.00203002 0 -0.000121665)
(0.00214103 0 -0.000171519)
(0.00216998 0 -0.000124081)
(0.00220987 0 -9.74646e-05)
(0.00227665 0 -4.34289e-05)
(0.00234885 0 -7.5154e-06)
(0.00240589 0 -2.8124e-05)
(0.00244168 0 -1.5873e-05)
(0.00248442 0 1.00713e-06)
(0.00250517 0 -2.99211e-06)
(0.00249745 0 -5.7259e-06)
(0.00247572 0 -3.62439e-06)
(0.00243769 0 -3.39004e-05)
(0.00240238 0 -2.82114e-05)
(0.00238202 0 -4.61757e-05)
(0.00237751 0 -5.6842e-05)
(0.00238259 0 -4.32914e-06)
(0.00239114 0 -7.4084e-05)
(0.00240149 0 2.22805e-06)
(0.00240116 0 -7.30298e-05)
(0.00240307 0 -7.37136e-05)
(0.00240647 0 -7.90078e-05)
(0.00240901 0 -0.000115575)
(0.00242368 0 -9.79011e-05)
(0.00244538 0 -7.7487e-05)
(0.00244482 0 -0.00016455)
(0.00245434 0 -0.000173004)
(0.00247252 0 -0.000169361)
(0.00248213 0 -0.000188546)
(0.00249279 0 -0.000205362)
(0.00251878 0 -0.000207965)
(0.00255686 0 -0.00012829)
(0.00256533 0 -7.68444e-05)
(0.00256213 0 -6.41095e-05)
(0.00256459 0 -4.92055e-05)
(0.00257958 0 -3.7214e-05)
(0.00260385 0 -1.90478e-05)
(0.00262298 0 -8.14864e-06)
(0.00263217 0 -1.48481e-05)
(0.0026415 0 -2.49733e-05)
(0.00264796 0 -4.56304e-05)
(0.00264444 0 -5.13664e-05)
(0.00262945 0 -5.41383e-05)
(0.00260685 0 -5.6601e-05)
(0.00258023 0 -4.90157e-05)
(0.00254887 0 -5.18049e-05)
(0.00251092 0 -5.20087e-05)
(0.00246226 0 -4.43865e-05)
(0.00240411 0 -1.6862e-05)
(0.00233307 0 -2.70058e-05)
(0.00224865 0 1.63366e-05)
(0.00216285 0 2.93013e-05)
(0.00206233 0 7.95117e-05)
(0.00194664 0 6.96159e-05)
(0.00182955 0 0.000127081)
(0.00170802 0 0.000126086)
(0.00158846 0 1.56269e-05)
(0.00146024 0 0.000140851)
(0.00130434 0 4.32671e-05)
(0.00112204 0 -6.00818e-05)
(0.000822379 0 0.000201618)
(0.00024506 0 5.26646e-05)
(0.000243366 0 -6.96043e-05)
(5.70187e-07 0 3.61663e-05)
(-2.42263e-10 0 -2.91116e-13)
(-3.82078e-12 0 6.40908e-15)
(-7.79638e-12 0 1.82546e-13)
(-8.06111e-12 0 8.21073e-14)
(-8.10782e-12 0 -3.59462e-14)
(-7.94107e-12 0 -1.31216e-13)
(-7.60735e-12 0 -2.02873e-13)
(-7.14958e-12 0 -2.5526e-13)
(-6.60251e-12 0 -2.92149e-13)
(-5.9944e-12 0 -3.16298e-13)
(-5.34868e-12 0 -3.29757e-13)
(-4.68512e-12 0 -3.34148e-13)
(-4.02046e-12 0 -3.30847e-13)
(-3.36884e-12 0 -3.21085e-13)
(-2.74205e-12 0 -3.05998e-13)
(-2.14967e-12 0 -2.86648e-13)
(-1.59924e-12 0 -2.64025e-13)
(-1.09637e-12 0 -2.39045e-13)
(-6.4497e-13 0 -2.12539e-13)
(-2.47354e-13 0 -1.85246e-13)
(9.55358e-14 0 -1.57807e-13)
(3.83948e-13 0 -1.30767e-13)
(6.19122e-13 0 -1.04571e-13)
(8.03103e-13 0 -7.95765e-14)
(9.38566e-13 0 -5.60556e-14)
(1.02866e-12 0 -3.42065e-14)
(1.07686e-12 0 -1.41634e-14)
(1.08686e-12 0 3.99255e-15)
(1.06247e-12 0 2.0223e-14)
(1.00756e-12 0 3.45222e-14)
(9.25964e-13 0 4.69077e-14)
(8.21482e-13 0 5.74123e-14)
(6.97833e-13 0 6.60769e-14)
(5.58655e-13 0 7.2944e-14)
(4.07503e-13 0 7.80528e-14)
(2.47863e-13 0 8.14337e-14)
(8.31762e-14 0 8.31001e-14)
(-0.000207596 0 0.000139011)
(9.32857e-06 0 -4.15712e-05)
(-2.1804e-05 0 -9.4285e-05)
(2.53265e-05 0 -0.000114567)
(0.000138876 0 -2.69058e-05)
(0.000175836 0 -0.000118531)
(0.000162236 0 -0.000305793)
(0.000401403 0 -6.68263e-05)
(0.000514205 0 -6.69366e-05)
(0.000579612 0 -0.000203054)
(0.00071277 0 -0.000134889)
(0.000818442 0 -0.000202429)
(0.00095612 0 -0.000223176)
(0.00109742 0 -0.000338948)
(0.00127691 0 -0.000175008)
(0.00137728 0 -0.000243336)
(0.00149608 0 -0.000127097)
(0.00161952 0 -0.00016691)
(0.001783 0 -0.000182303)
(0.00193452 0 -0.000111567)
(0.00196093 0 -0.000116368)
(0.00197866 0 -9.13816e-05)
(0.00203811 0 -2.1174e-05)
(0.00213627 0 -8.45261e-06)
(0.00222645 0 -7.38163e-05)
(0.00223387 0 -8.82455e-05)
(0.00223465 0 -9.81395e-05)
(0.00225407 0 -6.46796e-05)
(0.00226258 0 1.09339e-05)
(0.00225397 0 2.9515e-05)
(0.00224019 0 7.11686e-05)
(0.00223304 0 9.11594e-05)
(0.0022283 0 8.83159e-05)
(0.00221824 0 6.74713e-05)
(0.00220304 0 6.94585e-05)
(0.00219227 0 1.8605e-05)
(0.00218445 0 2.8471e-05)
(0.00218748 0 3.4463e-05)
(0.00219425 0 2.65168e-05)
(0.00220124 0 3.76544e-05)
(0.00220637 0 6.08937e-05)
(0.00221205 0 7.42462e-05)
(0.00222094 0 7.88676e-05)
(0.00223478 0 5.68255e-05)
(0.00225093 0 6.00767e-05)
(0.00227162 0 8.76611e-05)
(0.00230315 0 0.00010418)
(0.00234349 0 0.000109996)
(0.0023684 0 0.000116968)
(0.00236824 0 0.00011346)
(0.00236126 0 7.9736e-05)
(0.00236108 0 6.86397e-05)
(0.00236909 0 5.85038e-05)
(0.00237781 0 8.8692e-06)
(0.00237677 0 -3.18098e-06)
(0.0023745 0 -1.83111e-05)
(0.00237601 0 -2.26792e-05)
(0.00238517 0 -2.52663e-05)
(0.00240587 0 -1.12384e-05)
(0.00243197 0 3.14953e-05)
(0.00244226 0 6.73087e-05)
(0.00244029 0 7.09849e-05)
(0.00243143 0 8.21091e-05)
(0.00241406 0 8.40985e-05)
(0.00239636 0 8.63883e-05)
(0.00238036 0 0.000114202)
(0.00235355 0 0.000110988)
(0.00230556 0 0.000140983)
(0.00224185 0 0.000167273)
(0.00216455 0 0.000115383)
(0.00206584 0 0.000182613)
(0.00197249 0 0.000142668)
(0.00186401 0 0.000106035)
(0.00173657 0 0.000217358)
(0.00164408 0 0.000111369)
(0.00151688 0 0.000217029)
(0.00135468 0 0.000281557)
(0.00122112 0 0.000266859)
(0.00106006 0 0.000330726)
(0.000784627 0 0.000389927)
(0.000837064 0 -5.47162e-05)
(0.000650678 0 0.000185932)
(3.17296e-07 0 0.000353632)
(-4.09141e-10 0 9.28828e-10)
(-3.63778e-12 0 1.65522e-12)
(-7.72048e-12 0 8.24052e-13)
(-8.2795e-12 0 2.63889e-13)
(-8.32115e-12 0 -1.30769e-13)
(-8.10799e-12 0 -4.17405e-13)
(-7.7314e-12 0 -6.28033e-13)
(-7.23885e-12 0 -7.81421e-13)
(-6.66355e-12 0 -8.89332e-13)
(-6.03201e-12 0 -9.59729e-13)
(-5.36653e-12 0 -9.98477e-13)
(-4.68621e-12 0 -1.01026e-12)
(-4.00739e-12 0 -9.99119e-13)
(-3.34399e-12 0 -9.68683e-13)
(-2.70762e-12 0 -9.22346e-13)
(-2.1077e-12 0 -8.63293e-13)
(-1.55163e-12 0 -7.94503e-13)
(-1.04488e-12 0 -7.1873e-13)
(-5.91171e-13 0 -6.38473e-13)
(-1.92622e-13 0 -5.55952e-13)
(1.50015e-13 0 -4.73093e-13)
(4.37184e-13 0 -3.91525e-13)
(6.70312e-13 0 -3.12582e-13)
(8.51619e-13 0 -2.37326e-13)
(9.83936e-13 0 -1.66564e-13)
(1.07055e-12 0 -1.00881e-13)
(1.11505e-12 0 -4.06697e-14)
(1.12124e-12 0 1.38379e-14)
(1.093e-12 0 6.25362e-14)
(1.03424e-12 0 1.05417e-13)
(9.48854e-13 0 1.42542e-13)
(8.40651e-13 0 1.74016e-13)
(7.13365e-13 0 1.99968e-13)
(5.70631e-13 0 2.2053e-13)
(4.15993e-13 0 2.35826e-13)
(2.5291e-13 0 2.45956e-13)
(8.48427e-14 0 2.50983e-13)
(-0.00014743 0 0.000188937)
(3.61944e-05 0 -2.52341e-05)
(-3.0431e-05 0 -9.57494e-05)
(1.58871e-05 0 -0.000125745)
(3.38154e-05 0 -0.000181464)
(0.00012496 0 -0.000202988)
(9.89955e-05 0 -0.000354923)
(0.000279177 0 -0.000273137)
(0.000418437 0 -0.000185756)
(0.00051362 0 -0.000269316)
(0.000658005 0 -0.000280843)
(0.000780505 0 -0.000322007)
(0.000865089 0 -0.000458654)
(0.00106097 0 -0.000311562)
(0.00118011 0 -0.00037032)
(0.00131842 0 -0.00027355)
(0.00142088 0 -0.000317133)
(0.00154628 0 -0.000372452)
(0.00173037 0 -0.000247292)
(0.00178795 0 -0.000280341)
(0.00179822 0 -0.00029926)
(0.0018397 0 -0.000275297)
(0.00192177 0 -0.000183362)
(0.0020007 0 -0.000155195)
(0.00202645 0 -0.000155737)
(0.00203732 0 -0.000123485)
(0.00204916 0 -9.36493e-05)
(0.00206321 0 -1.48466e-05)
(0.002063 0 2.42581e-06)
(0.00205154 0 7.96596e-06)
(0.00202868 0 1.25778e-05)
(0.00202077 0 -3.30483e-06)
(0.00201585 0 -1.19853e-05)
(0.00200516 0 -2.33497e-05)
(0.00199048 0 -2.8508e-05)
(0.00198026 0 -3.26451e-05)
(0.00197684 0 -3.95411e-05)
(0.00197014 0 -5.30763e-05)
(0.00196915 0 -1.69436e-05)
(0.00196902 0 -2.27201e-05)
(0.00196842 0 -5.16917e-05)
(0.00197251 0 -7.24322e-05)
(0.00198563 0 -8.48306e-05)
(0.00200867 0 -6.27176e-05)
(0.00201973 0 -0.000110802)
(0.00201878 0 -0.000126542)
(0.00202163 0 -0.000134481)
(0.00203029 0 -0.000139304)
(0.00204692 0 -0.000147158)
(0.00207508 0 -0.000128312)
(0.00210582 0 -9.09704e-05)
(0.00213104 0 -7.22634e-05)
(0.00215831 0 -6.05178e-05)
(0.00218096 0 -3.22684e-05)
(0.00218227 0 -2.43416e-05)
(0.00218082 0 -1.92761e-05)
(0.00217619 0 -1.92697e-05)
(0.00216582 0 -2.43689e-05)
(0.00214562 0 -3.15302e-05)
(0.00211701 0 -4.88091e-05)
(0.00209597 0 -2.99542e-05)
(0.00209108 0 -8.78226e-06)
(0.00208936 0 4.54424e-06)
(0.00208237 0 1.07594e-06)
(0.00207232 0 1.63482e-05)
(0.00206051 0 6.14997e-05)
(0.00205198 0 7.74109e-05)
(0.00202991 0 9.84362e-05)
(0.00199421 0 0.000135536)
(0.00196049 0 0.000173217)
(0.00190621 0 0.000154683)
(0.00181613 0 0.000278282)
(0.00174276 0 0.000206141)
(0.00162918 0 0.00020808)
(0.00152123 0 0.000299386)
(0.00144574 0 0.00018163)
(0.00131998 0 0.000116023)
(0.00113935 0 0.000339811)
(0.000848524 0 0.000575237)
(0.000835151 0 0.000454505)
(0.000378741 0 0.000806982)
(0.000440804 0 0.000695162)
(-5.90612e-07 0 0.000647764)
(-7.49835e-11 0 1.61755e-09)
(-4.65584e-12 0 2.82416e-12)
(-9.18719e-12 0 1.19447e-12)
(-9.01569e-12 0 2.80232e-13)
(-8.78912e-12 0 -3.33763e-13)
(-8.43833e-12 0 -7.79753e-13)
(-7.97137e-12 0 -1.11058e-12)
(-7.41088e-12 0 -1.35321e-12)
(-6.78082e-12 0 -1.52418e-12)
(-6.10355e-12 0 -1.63495e-12)
(-5.39922e-12 0 -1.69429e-12)
(-4.68576e-12 0 -1.70944e-12)
(-3.97888e-12 0 -1.68679e-12)
(-3.29207e-12 0 -1.63228e-12)
(-2.63667e-12 0 -1.5515e-12)
(-2.02183e-12 0 -1.44975e-12)
(-1.45467e-12 0 -1.33204e-12)
(-9.4034e-13 0 -1.20297e-12)
(-4.82191e-13 0 -1.06674e-12)
(-8.19743e-14 0 -9.27059e-13)
(2.59964e-13 0 -7.87149e-13)
(5.4446e-13 0 -6.49714e-13)
(7.73321e-13 0 -5.16962e-13)
(9.49121e-13 0 -3.90633e-13)
(1.07501e-12 0 -2.72044e-13)
(1.15455e-12 0 -1.62134e-13)
(1.19157e-12 0 -6.15197e-14)
(1.19006e-12 0 2.9446e-14)
(1.15405e-12 0 1.10622e-13)
(1.08756e-12 0 1.82024e-13)
(9.94562e-13 0 2.43783e-13)
(8.78907e-13 0 2.96099e-13)
(7.44347e-13 0 3.39205e-13)
(5.94514e-13 0 3.73341e-13)
(4.32928e-13 0 3.98725e-13)
(2.63019e-13 0 4.15538e-13)
(8.82035e-14 0 4.23911e-13)
(-5.00413e-05 0 8.16014e-05)
(5.26892e-05 0 -1.63475e-05)
(-3.95207e-05 0 -6.98397e-05)
(-4.72488e-05 0 -0.000148498)
(-1.83374e-05 0 -0.000223745)
(3.90175e-05 0 -0.000293125)
(0.00013265 0 -0.000336893)
(0.00011311 0 -0.000457452)
(0.00028803 0 -0.000433341)
(0.000386153 0 -0.000470853)
(0.000591281 0 -0.000381051)
(0.000737722 0 -0.000390894)
(0.00083364 0 -0.000482345)
(0.00093161 0 -0.000572895)
(0.00110737 0 -0.000480211)
(0.00122738 0 -0.00043616)
(0.00136551 0 -0.000397377)
(0.00147923 0 -0.000554063)
(0.00163665 0 -0.000410406)
(0.00168141 0 -0.00028273)
(0.00171681 0 -0.000237055)
(0.00180179 0 -0.000137911)
(0.00184722 0 -0.000135897)
(0.00183874 0 -0.00015083)
(0.00184496 0 -0.000154539)
(0.00187137 0 -0.0001049)
(0.00188456 0 -0.000111938)
(0.0018812 0 -5.58783e-05)
(0.0018822 0 -3.40464e-06)
(0.0018811 0 7.11122e-05)
(0.00187827 0 8.86639e-05)
(0.0018714 0 0.000101909)
(0.00185541 0 9.83506e-05)
(0.00182829 0 8.66723e-05)
(0.00179566 0 8.22982e-05)
(0.00177319 0 5.07651e-05)
(0.00177207 0 5.79882e-05)
(0.00177248 0 4.25689e-05)
(0.0017733 0 1.41987e-05)
(0.00177615 0 -4.35381e-06)
(0.00178558 0 -1.43833e-05)
(0.00179973 0 -1.46052e-05)
(0.00181137 0 -6.67894e-06)
(0.00182857 0 -5.72232e-06)
(0.00184046 0 -6.07924e-06)
(0.00183776 0 -3.00748e-06)
(0.00182554 0 4.13408e-06)
(0.00181715 0 -4.03079e-06)
(0.00181712 0 -1.08293e-05)
(0.00181349 0 -1.77516e-05)
(0.00181249 0 -2.67904e-05)
(0.00182115 0 -2.80189e-05)
(0.0018413 0 -2.81219e-05)
(0.00186443 0 -2.04923e-05)
(0.00188285 0 -1.95431e-05)
(0.00189819 0 -1.3907e-05)
(0.00190932 0 -3.49964e-06)
(0.00190908 0 -2.56853e-06)
(0.00190093 0 -4.48587e-06)
(0.00188682 0 1.2306e-05)
(0.00187005 0 4.5291e-05)
(0.00184639 0 2.99501e-05)
(0.00182294 0 9.96306e-05)
(0.00179922 0 4.27844e-05)
(0.00177948 0 0.000110053)
(0.0017598 0 4.16397e-05)
(0.00174276 0 0.000152994)
(0.00173364 0 0.000191337)
(0.00171538 0 0.000114508)
(0.00168541 0 0.000304957)
(0.00165289 0 0.000338273)
(0.00161519 0 0.000275563)
(0.00153525 0 0.000436347)
(0.00149363 0 0.000338883)
(0.00135813 0 0.000473307)
(0.00108274 0 0.000733753)
(0.0011654 0 0.000413332)
(0.00102294 0 0.000561369)
(0.000966196 0 0.000461324)
(0.000671169 0 0.000654458)
(0.000376731 0 0.00085683)
(0.000134004 0 0.00090894)
(-4.46359e-07 0 0.00079852)
(5.69183e-11 0 1.01318e-09)
(-5.28047e-12 0 1.75463e-12)
(-1.02638e-11 0 8.4956e-13)
(-9.80747e-12 0 -3.50624e-15)
(-9.38113e-12 0 -7.04828e-13)
(-8.88481e-12 0 -1.25733e-12)
(-8.30485e-12 0 -1.68139e-12)
(-7.65245e-12 0 -1.99672e-12)
(-6.9453e-12 0 -2.21926e-12)
(-6.20213e-12 0 -2.36166e-12)
(-5.44102e-12 0 -2.43434e-12)
(-4.6787e-12 0 -2.44643e-12)
(-3.93024e-12 0 -2.40635e-12)
(-3.2087e-12 0 -2.32217e-12)
(-2.52509e-12 0 -2.20164e-12)
(-1.88824e-12 0 -2.05222e-12)
(-1.30485e-12 0 -1.88095e-12)
(-7.79584e-13 0 -1.69439e-12)
(-3.15262e-13 0 -1.49846e-12)
(8.69643e-14 0 -1.29841e-12)
(4.2736e-13 0 -1.09874e-12)
(7.07372e-13 0 -9.03218e-13)
(9.29393e-13 0 -7.14909e-13)
(1.09654e-12 0 -5.36189e-13)
(1.21244e-12 0 -3.68831e-13)
(1.28107e-12 0 -2.14073e-13)
(1.30663e-12 0 -7.27019e-14)
(1.29338e-12 0 5.48645e-14)
(1.24558e-12 0 1.685e-13)
(1.1674e-12 0 2.68296e-13)
(1.06293e-12 0 3.54489e-13)
(9.36073e-13 0 4.27412e-13)
(7.90607e-13 0 4.87434e-13)
(6.30151e-13 0 5.34924e-13)
(4.5819e-13 0 5.70215e-13)
(2.78096e-13 0 5.93581e-13)
(9.32158e-14 0 6.05215e-13)
(-7.10828e-05 0 9.11459e-05)
(3.83262e-05 0 8.66189e-06)
(-6.83058e-05 0 -3.89633e-05)
(-6.90981e-05 0 -0.000148464)
(-5.77188e-05 0 -0.000245607)
(3.86822e-05 0 -0.000321267)
(-1.84586e-05 0 -0.000392321)
(0.000142195 0 -0.000460335)
(0.000148774 0 -0.000545993)
(0.000333469 0 -0.000565613)
(0.000412712 0 -0.000646574)
(0.000664624 0 -0.000547559)
(0.000747809 0 -0.000617647)
(0.000847488 0 -0.000701195)
(0.0010585 0 -0.000531311)
(0.00112769 0 -0.000590846)
(0.00123632 0 -0.000674889)
(0.00147737 0 -0.000411926)
(0.00152671 0 -0.00037515)
(0.00153282 0 -0.000387626)
(0.00156937 0 -0.000441945)
(0.00167389 0 -0.000311689)
(0.00168243 0 -0.000259227)
(0.00168932 0 -0.000230624)
(0.00170913 0 -0.000234097)
(0.00173559 0 -7.22707e-05)
(0.0017256 0 -5.78616e-05)
(0.00170076 0 -2.67967e-05)
(0.0016742 0 1.11196e-05)
(0.00167286 0 2.3352e-05)
(0.00167189 0 3.18522e-05)
(0.00166655 0 3.74209e-05)
(0.00165481 0 3.90067e-05)
(0.00163743 0 3.9505e-05)
(0.00162058 0 1.76769e-05)
(0.00160309 0 -7.23868e-06)
(0.00158065 0 -2.42907e-05)
(0.0015653 0 -3.2252e-05)
(0.00156599 0 -3.00379e-05)
(0.00157015 0 -2.27754e-05)
(0.00157885 0 -2.18198e-05)
(0.00159165 0 -9.71936e-06)
(0.00159107 0 -7.40719e-05)
(0.00159358 0 -7.70655e-05)
(0.00159973 0 -8.40557e-05)
(0.00160171 0 -8.09256e-05)
(0.00160053 0 -7.86395e-05)
(0.00159437 0 -7.50923e-05)
(0.00158437 0 -7.04315e-05)
(0.00158238 0 -6.60385e-05)
(0.00158355 0 -6.15755e-05)
(0.00158684 0 -5.93365e-05)
(0.00159046 0 -5.17808e-05)
(0.00159396 0 -4.43222e-05)
(0.00159872 0 -4.08985e-05)
(0.00160748 0 -2.04424e-05)
(0.0016212 0 -2.75568e-05)
(0.00162585 0 1.02067e-05)
(0.00162532 0 2.16172e-05)
(0.00163208 0 2.8907e-05)
(0.00163374 0 4.96335e-05)
(0.0016227 0 2.95358e-05)
(0.00160132 0 9.21928e-05)
(0.00157595 0 4.19975e-05)
(0.00155591 0 9.63026e-05)
(0.00153451 0 0.00011239)
(0.00151033 0 3.74937e-05)
(0.00146701 0 0.00026414)
(0.001453 0 1.56972e-05)
(0.00142062 0 0.000283571)
(0.00140267 0 0.000301444)
(0.00135926 0 0.000279938)
(0.00128736 0 0.000473764)
(0.00127741 0 0.000471573)
(0.00119297 0 0.000533073)
(0.00115464 0 0.000420501)
(0.000926737 0 0.000680926)
(0.000774725 0 0.000800185)
(0.000638892 0 0.00085917)
(0.000427393 0 0.000894215)
(0.000173251 0 0.00103532)
(0.000169074 0 0.00103516)
(2.07654e-07 0 0.000871132)
(-9.83518e-11 0 7.24535e-10)
(-5.56136e-12 0 1.23811e-12)
(-1.09448e-11 0 4.52682e-13)
(-1.05698e-11 0 -4.3892e-13)
(-1.00429e-11 0 -1.22485e-12)
(-9.41489e-12 0 -1.86349e-12)
(-8.71075e-12 0 -2.36105e-12)
(-7.94875e-12 0 -2.73312e-12)
(-7.14577e-12 0 -2.9946e-12)
(-6.31863e-12 0 -3.15819e-12)
(-5.48398e-12 0 -3.23507e-12)
(-4.65777e-12 0 -3.23566e-12)
(-3.85462e-12 0 -3.17011e-12)
(-3.08736e-12 0 -3.04849e-12)
(-2.36671e-12 0 -2.88075e-12)
(-1.70114e-12 0 -2.6766e-12)
(-1.09685e-12 0 -2.44524e-12)
(-5.57851e-13 0 -2.19525e-12)
(-8.6207e-14 0 -1.93437e-12)
(3.17754e-13 0 -1.66942e-12)
(6.55153e-13 0 -1.4062e-12)
(9.28286e-13 0 -1.14954e-12)
(1.14035e-12 0 -9.03285e-13)
(1.2952e-12 0 -6.70395e-13)
(1.39713e-12 0 -4.53023e-13)
(1.45068e-12 0 -2.52627e-13)
(1.46051e-12 0 -7.0081e-14)
(1.43126e-12 0 9.42141e-14)
(1.36748e-12 0 2.40221e-13)
(1.27355e-12 0 3.6817e-13)
(1.15368e-12 0 4.78469e-13)
(1.01185e-12 0 5.71629e-13)
(8.51859e-13 0 6.48198e-13)
(6.77295e-13 0 7.08708e-13)
(4.91586e-13 0 7.53634e-13)
(2.98019e-13 0 7.8336e-13)
(9.98374e-14 0 7.98154e-13)
(-9.3912e-05 0 0.000126717)
(2.2007e-06 0 3.97409e-05)
(-0.000110526 0 -4.14471e-06)
(-7.62637e-05 0 -0.000145943)
(-0.000113216 0 -0.000254876)
(-4.17952e-05 0 -0.000365931)
(-7.51398e-05 0 -0.000419511)
(0.000103356 0 -0.000467635)
(-1.26191e-05 0 -0.000568722)
(0.000252899 0 -0.000618272)
(0.000261052 0 -0.000814733)
(0.000620529 0 -0.000696336)
(0.000610309 0 -0.000815706)
(0.000765325 0 -0.000832234)
(0.000942805 0 -0.000780973)
(0.00105717 0 -0.000728922)
(0.00126045 0 -0.000520504)
(0.00126163 0 -0.000614608)
(0.001305 0 -0.000549025)
(0.00136181 0 -0.000469266)
(0.00144845 0 -0.000395326)
(0.00152844 0 -0.00024203)
(0.00151929 0 -0.000216936)
(0.00152528 0 -0.00020717)
(0.00155145 0 -0.000148726)
(0.00155019 0 -0.0001155)
(0.00153738 0 -0.000136614)
(0.00152789 0 -5.27681e-05)
(0.00151228 0 3.36839e-06)
(0.001501 0 6.96394e-05)
(0.00149634 0 8.83201e-05)
(0.00148755 0 9.80372e-05)
(0.00147507 0 0.000111639)
(0.00146369 0 9.31164e-05)
(0.00144923 0 9.26669e-05)
(0.00143182 0 6.8989e-05)
(0.00141257 0 6.59231e-05)
(0.00139756 0 2.64933e-05)
(0.00138642 0 -3.76822e-06)
(0.00137391 0 -1.8414e-05)
(0.00136261 0 -4.53566e-05)
(0.00136491 0 -5.19263e-05)
(0.001371 0 -5.11346e-05)
(0.00137599 0 -4.36278e-05)
(0.00138103 0 -2.87421e-05)
(0.00137952 0 -2.43324e-05)
(0.00137194 0 -1.5939e-05)
(0.00136232 0 -3.24643e-05)
(0.00136052 0 -4.49925e-05)
(0.00136057 0 -4.88377e-05)
(0.00136086 0 -5.44503e-05)
(0.00136274 0 -5.81372e-05)
(0.0013655 0 -6.28017e-05)
(0.00136814 0 -5.56161e-05)
(0.00137305 0 -4.94261e-05)
(0.00137937 0 -6.60874e-05)
(0.00138217 0 -2.731e-05)
(0.00138583 0 -1.78471e-05)
(0.00139267 0 -5.35489e-05)
(0.00139926 0 5.26321e-06)
(0.00139978 0 6.59193e-05)
(0.00139656 0 7.54163e-05)
(0.00138804 0 0.000104058)
(0.00136965 0 0.000113966)
(0.00134327 0 0.00012493)
(0.00133105 0 0.000154638)
(0.00129421 0 0.00021085)
(0.00124005 0 0.000208101)
(0.00120203 0 0.000242313)
(0.00118241 0 0.000329482)
(0.00115954 0 0.000349559)
(0.00110985 0 0.000362076)
(0.00109327 0 0.000410512)
(0.00103178 0 0.000547791)
(0.0010408 0 0.000476101)
(0.000907686 0 0.00066068)
(0.000768202 0 0.000816701)
(0.000674355 0 0.000903558)
(0.000606196 0 0.000950699)
(0.000389271 0 0.00103889)
(0.000401232 0 0.00111248)
(0.000229871 0 0.00114403)
(-2.47185e-07 0 0.000939974)
(-6.18282e-11 0 9.33515e-10)
(-6.06472e-12 0 1.55242e-12)
(-1.19404e-11 0 1.61973e-13)
(-1.14848e-11 0 -9.79978e-13)
(-1.08057e-11 0 -1.89232e-12)
(-1.0021e-11 0 -2.61088e-12)
(-9.17448e-12 0 -3.16632e-12)
(-8.286e-12 0 -3.58025e-12)
(-7.37036e-12 0 -3.86793e-12)
(-6.4426e-12 0 -4.04153e-12)
(-5.51848e-12 0 -4.11219e-12)
(-4.61374e-12 0 -4.09112e-12)
(-3.74306e-12 0 -3.99002e-12)
(-2.91935e-12 0 -3.82101e-12)
(-2.1532e-12 0 -3.59639e-12)
(-1.45273e-12 0 -3.32827e-12)
(-8.23503e-13 0 -3.02825e-12)
(-2.68719e-13 0 -2.70708e-12)
(2.1057e-13 0 -2.37444e-12)
(6.15137e-13 0 -2.03875e-12)
(9.47239e-13 0 -1.70716e-12)
(1.21029e-12 0 -1.38549e-12)
(1.40854e-12 0 -1.07832e-12)
(1.5468e-12 0 -7.891e-13)
(1.6302e-12 0 -5.20252e-13)
(1.66402e-12 0 -2.73341e-13)
(1.65348e-12 0 -4.92138e-14)
(1.60369e-12 0 1.51849e-13)
(1.51953e-12 0 3.3e-13)
(1.40565e-12 0 4.85695e-13)
(1.26639e-12 0 6.1959e-13)
(1.1058e-12 0 7.32439e-13)
(9.27685e-13 0 8.25022e-13)
(7.35587e-13 0 8.98078e-13)
(5.32842e-13 0 9.52255e-13)
(3.22617e-13 0 9.88072e-13)
(1.0801e-13 0 1.00589e-12)
(-0.000103717 0 0.000176982)
(-2.40361e-05 0 8.80664e-05)
(-0.000130352 0 7.8065e-06)
(-3.00072e-05 0 -0.000161657)
(-0.000118003 0 -0.000263585)
(-7.76669e-05 0 -0.000375942)
(1.60657e-05 0 -0.000429153)
(-0.000112352 0 -0.000535372)
(-0.000139738 0 -0.000602842)
(-7.02573e-05 0 -0.000761345)
(0.000232675 0 -0.000880322)
(0.000436336 0 -0.000888418)
(0.000564867 0 -0.000883635)
(0.00070558 0 -0.00089184)
(0.00101728 0 -0.000673748)
(0.000688566 0 -0.0010385)
(0.00105615 0 -0.00071225)
(0.00109634 0 -0.000626211)
(0.00112323 0 -0.000558318)
(0.00117291 0 -0.000502968)
(0.00118133 0 -0.000590549)
(0.00128959 0 -0.000319521)
(0.00131307 0 -0.000256994)
(0.00132518 0 -0.000301916)
(0.0013641 0 -0.000162979)
(0.00136665 0 -0.000118649)
(0.00136875 0 -5.47615e-05)
(0.00135954 0 1.08733e-05)
(0.00133678 0 4.47982e-05)
(0.00131625 0 3.42623e-05)
(0.00130464 0 9.06122e-05)
(0.00129436 0 8.08306e-05)
(0.00127639 0 0.000100698)
(0.00125814 0 9.38624e-05)
(0.00123436 0 6.52107e-05)
(0.00121183 0 3.80494e-05)
(0.00121237 0 3.15162e-05)
(0.00121429 0 1.54776e-05)
(0.00121365 0 6.7049e-06)
(0.00120909 0 -4.96893e-06)
(0.00119782 0 -3.18657e-05)
(0.00118527 0 -5.20024e-05)
(0.00117386 0 -6.93631e-05)
(0.00115949 0 -7.9983e-05)
(0.0011456 0 -6.5341e-05)
(0.00114152 0 -5.00989e-05)
(0.0011441 0 -3.88838e-05)
(0.00114945 0 -3.6878e-05)
(0.00115111 0 -4.33104e-05)
(0.00115203 0 -4.71976e-05)
(0.00115427 0 -5.32322e-05)
(0.00115759 0 -5.76531e-05)
(0.00116269 0 -5.15951e-05)
(0.00116624 0 -5.34249e-05)
(0.00117269 0 -5.09487e-05)
(0.00117789 0 -2.38681e-05)
(0.00117769 0 -2.33462e-05)
(0.00118689 0 -4.25665e-06)
(0.0011867 0 8.55153e-06)
(0.0011784 0 1.85257e-05)
(0.00117803 0 2.04404e-05)
(0.00118053 0 6.61304e-05)
(0.00117842 0 9.10892e-05)
(0.00116844 0 0.000118711)
(0.00115002 0 5.8853e-05)
(0.00112608 0 0.000194094)
(0.00109976 0 0.000206131)
(0.00105938 0 0.000155008)
(0.00102386 0 0.000255979)
(0.000967604 0 0.000412362)
(0.000976228 0 0.000319791)
(0.0008909 0 0.00046217)
(0.00083772 0 0.000577821)
(0.00093819 0 0.000519423)
(0.000911458 0 0.000538006)
(0.000715855 0 0.000778108)
(0.000721767 0 0.000825481)
(0.000632867 0 0.000971762)
(0.000436941 0 0.00113716)
(0.000518098 0 0.00114195)
(0.000150639 0 0.00128308)
(0.000165135 0 0.00126139)
(-4.68551e-07 0 0.00101534)
(5.49426e-11 0 1.02039e-09)
(-6.95529e-12 0 1.59285e-12)
(-1.34769e-11 0 -3.77235e-13)
(-1.26239e-11 0 -1.75064e-12)
(-1.16738e-11 0 -2.7537e-12)
(-1.06889e-11 0 -3.5215e-12)
(-9.68012e-12 0 -4.11322e-12)
(-8.65036e-12 0 -4.55371e-12)
(-7.60705e-12 0 -4.85544e-12)
(-6.56288e-12 0 -5.0279e-12)
(-5.53357e-12 0 -5.08111e-12)
(-4.53561e-12 0 -5.0267e-12)
(-3.58451e-12 0 -4.87794e-12)
(-2.69372e-12 0 -4.64925e-12)
(-1.87397e-12 0 -4.35562e-12)
(-1.13301e-12 0 -4.01195e-12)
(-4.75663e-13 0 -3.63252e-12)
(9.59612e-14 0 -3.23049e-12)
(5.82123e-13 0 -2.81763e-12)
(9.8503e-13 0 -2.40407e-12)
(1.30842e-12 0 -1.99826e-12)
(1.55712e-12 0 -1.60698e-12)
(1.73674e-12 0 -1.23545e-12)
(1.85327e-12 0 -8.87458e-13)
(1.91289e-12 0 -5.65562e-13)
(1.92172e-12 0 -2.71281e-13)
(1.8857e-12 0 -5.29005e-15)
(1.81048e-12 0 2.32393e-13)
(1.70133e-12 0 4.42232e-13)
(1.56314e-12 0 6.25022e-13)
(1.40042e-12 0 7.81756e-13)
(1.21728e-12 0 9.13515e-13)
(1.0175e-12 0 1.02137e-12)
(8.04529e-13 0 1.10633e-12)
(5.8158e-13 0 1.16924e-12)
(3.51653e-13 0 1.21079e-12)
(1.17654e-13 0 1.23144e-12)
(-0.000153019 0 0.000223176)
(-6.43431e-05 0 0.000135339)
(-0.000114707 0 8.76472e-06)
(-7.4649e-05 0 -0.00015041)
(-0.000153077 0 -0.000247756)
(-0.00010176 0 -0.000369284)
(-0.000206989 0 -0.000450398)
(-0.000101244 0 -0.000652382)
(-1.6044e-05 0 -0.000757237)
(-7.84571e-05 0 -0.000819219)
(-6.55022e-05 0 -0.000911387)
(-5.37809e-06 0 -0.00105059)
(0.000157951 0 -0.0011258)
(0.000313759 0 -0.0011036)
(0.000678408 0 -0.00093333)
(0.000763952 0 -0.000882136)
(0.000877376 0 -0.000741692)
(0.000880278 0 -0.000663082)
(0.000899122 0 -0.000646333)
(0.000996514 0 -0.00054659)
(0.00104757 0 -0.000445475)
(0.00106327 0 -0.000410266)
(0.00109928 0 -0.00035705)
(0.00115531 0 -0.000220421)
(0.0011568 0 -0.000195194)
(0.00115223 0 -0.00014731)
(0.00114144 0 -7.27919e-05)
(0.00113406 0 8.64806e-06)
(0.00113317 0 4.19923e-05)
(0.00112691 0 6.47917e-05)
(0.00111334 0 9.36903e-05)
(0.00109416 0 0.000119811)
(0.00107361 0 0.000101729)
(0.00105174 0 0.000107371)
(0.00103743 0 0.000105022)
(0.0010265 0 7.55225e-05)
(0.00101592 0 7.23934e-05)
(0.00101026 0 2.31353e-05)
(0.00100553 0 4.03224e-06)
(0.0010056 0 -9.64571e-06)
(0.00100107 0 -1.80265e-05)
(0.00098674 0 -1.90027e-05)
(0.000963198 0 -1.57619e-05)
(0.000941594 0 -2.31312e-05)
(0.000931673 0 -3.52412e-05)
(0.000930771 0 -2.14399e-05)
(0.000929433 0 -3.10839e-05)
(0.000929611 0 -4.03184e-05)
(0.000932369 0 -4.94529e-05)
(0.000937041 0 -5.86305e-05)
(0.000945724 0 -6.51253e-05)
(0.000955245 0 -7.36636e-05)
(0.000966113 0 -6.37445e-05)
(0.00097769 0 -7.201e-05)
(0.00098869 0 -6.91434e-05)
(0.000994958 0 -3.69521e-05)
(0.00100367 0 -6.11126e-05)
(0.00101746 0 -1.41226e-05)
(0.00101246 0 2.33517e-06)
(0.00101445 0 1.9396e-05)
(0.00102828 0 5.60399e-05)
(0.00102713 0 6.54236e-05)
(0.00102032 0 0.00010549)
(0.0010091 0 0.000147608)
(0.000989417 0 9.47104e-05)
(0.000947192 0 0.000241564)
(0.000929046 0 0.000250691)
(0.000879188 0 0.000292445)
(0.000834919 0 0.00036519)
(0.000823867 0 0.000396111)
(0.000838245 0 0.000356178)
(0.000716064 0 0.000484486)
(0.000897815 0 0.000295243)
(0.000378556 0 0.000880958)
(0.000504051 0 0.0008052)
(0.000526511 0 0.000841759)
(0.000410663 0 0.000981185)
(0.00035524 0 0.00110621)
(0.000248617 0 0.00120474)
(0.000355548 0 0.0013207)
(0.000165329 0 0.00141398)
(0.000223286 0 0.00133475)
(-8.22124e-07 0 0.00109324)
(1.55569e-10 0 9.45234e-10)
(-8.0364e-12 0 1.20942e-12)
(-1.52837e-11 0 -1.51311e-12)
(-1.38612e-11 0 -2.89168e-12)
(-1.25766e-11 0 -3.85041e-12)
(-1.13805e-11 0 -4.60826e-12)
(-1.02067e-11 0 -5.2114e-12)
(-9.02823e-12 0 -5.66597e-12)
(-7.84456e-12 0 -5.97229e-12)
(-6.66826e-12 0 -6.13359e-12)
(-5.51728e-12 0 -6.15771e-12)
(-4.41057e-12 0 -6.0567e-12)
(-3.36561e-12 0 -5.84584e-12)
(-2.39702e-12 0 -5.5425e-12)
(-1.5159e-12 0 -5.16497e-12)
(-7.29628e-13 0 -4.73149e-12)
(-4.20474e-14 0 -4.25948e-12)
(5.46165e-13 0 -3.76485e-12)
(1.03699e-12 0 -3.26163e-12)
(1.43451e-12 0 -2.76173e-12)
(1.74433e-12 0 -2.27491e-12)
(1.9731e-12 0 -1.80879e-12)
(2.12806e-12 0 -1.36909e-12)
(2.21669e-12 0 -9.59752e-13)
(2.24638e-12 0 -5.83281e-13)
(2.22429e-12 0 -2.40948e-13)
(2.15715e-12 0 6.69316e-14)
(2.05121e-12 0 3.40774e-13)
(1.91216e-12 0 5.81509e-13)
(1.74518e-12 0 7.90402e-13)
(1.55488e-12 0 9.68899e-13)
(1.34542e-12 0 1.11849e-12)
(1.1205e-12 0 1.24063e-12)
(8.83452e-13 0 1.33663e-12)
(6.373e-13 0 1.40759e-12)
(3.84818e-13 0 1.4544e-12)
(1.28664e-13 0 1.47765e-12)
(-4.59691e-05 0 0.000297585)
(-5.82342e-05 0 0.000178503)
(-0.000113589 0 4.09681e-05)
(-0.000120733 0 -0.000119041)
(-0.000205982 0 -0.000207103)
(-0.000180564 0 -0.000340624)
(-0.000291631 0 -0.000460144)
(-0.00018202 0 -0.000685479)
(-0.000310759 0 -0.000773941)
(-0.000153999 0 -0.000914688)
(-0.000204541 0 -0.000990969)
(-0.000130229 0 -0.00112722)
(0.00011557 0 -0.00119868)
(8.11674e-05 0 -0.00124356)
(0.000197024 0 -0.00129312)
(0.000350927 0 -0.00117456)
(0.000622371 0 -0.000884422)
(0.00071603 0 -0.000719017)
(0.000750607 0 -0.000635796)
(0.000812879 0 -0.000589784)
(0.00079118 0 -0.000608909)
(0.000902399 0 -0.000421289)
(0.000920785 0 -0.000345489)
(0.000924938 0 -0.000301325)
(0.000946408 0 -0.000190732)
(0.000929071 0 -0.000113374)
(0.000916109 0 -4.19525e-05)
(0.000920141 0 8.92384e-07)
(0.000919784 0 6.17053e-05)
(0.000921149 0 8.51586e-05)
(0.000913653 0 0.000107006)
(0.000899268 0 0.000125088)
(0.00088377 0 0.000135903)
(0.000864641 0 0.000134155)
(0.000850493 0 0.000125229)
(0.000841717 0 8.5168e-05)
(0.000829793 0 4.11918e-05)
(0.00081962 0 3.79527e-05)
(0.000802881 0 7.48194e-06)
(0.000781745 0 3.30068e-05)
(0.00076789 0 1.13066e-05)
(0.000757865 0 -1.37464e-05)
(0.000745892 0 -2.30285e-05)
(0.000740146 0 -3.87296e-05)
(0.000740706 0 -4.24693e-05)
(0.000744314 0 -4.83463e-05)
(0.000747805 0 -5.0746e-05)
(0.000751001 0 -5.41288e-05)
(0.000758097 0 -5.19407e-05)
(0.00076428 0 -6.87278e-05)
(0.000774144 0 -7.22151e-05)
(0.000786316 0 -7.64855e-05)
(0.000799928 0 -8.79668e-05)
(0.000813737 0 -7.87362e-05)
(0.000829344 0 -4.75021e-05)
(0.000839041 0 -9.45538e-05)
(0.000854266 0 -4.23528e-05)
(0.000861053 0 -3.24079e-06)
(0.000865152 0 -2.17302e-05)
(0.000874872 0 -3.5299e-05)
(0.000880073 0 5.45201e-05)
(0.00087566 0 8.28413e-05)
(0.000871905 0 0.000117145)
(0.000864774 0 0.000148257)
(0.000855477 0 9.59126e-05)
(0.000806907 0 0.000244797)
(0.000773533 0 0.000293187)
(0.00077414 0 0.000210629)
(0.000688046 0 0.000371157)
(0.000657734 0 0.000439939)
(0.000557208 0 0.000533369)
(0.000665896 0 0.000426176)
(0.000587868 0 0.000599443)
(0.000658129 0 0.000545942)
(0.000390834 0 0.000760001)
(0.000279922 0 0.000897251)
(0.000261407 0 0.00103859)
(0.000188965 0 0.00113803)
(0.000182045 0 0.00119318)
(5.77054e-05 0 0.00140723)
(7.76507e-05 0 0.00152251)
(4.98445e-05 0 0.00140001)
(-9.98476e-07 0 0.00113744)