/*--------------------------------*- C++ -*----------------------------------*\
  =========                 |
  \\      /  F ield         | OpenFOAM: The Open Source CFD Toolbox
   \\    /   O peration     | Website:  https://openfoam.org
    \\  /    A nd           | Version:  6
     \\/     M anipulation  |
\*---------------------------------------------------------------------------*/
FoamFile
{
    version     2.0;
    format      ascii;
    class       surfaceScalarField;
    location    "2100";
    object      phi;
}
// * * * * * * * * * * * * * * * * * * * * * * * * * * * * * * * * * * * * * //

dimensions      [0 3 -1 0 0 0 0];

internalField   nonuniform List<scalar> 
9440
(
5.60062e-10
-5.60062e-10
1.36377e-09
-8.03702e-10
3.07515e-09
-1.71138e-09
3.00554e-09
6.96099e-11
3.50665e-09
-5.01104e-10
3.81576e-09
-3.09115e-10
4.0578e-09
-2.42032e-10
4.06015e-09
-2.34828e-12
4.00467e-09
5.54747e-11
3.84925e-09
1.55425e-10
3.7077e-09
1.41552e-10
3.5954e-09
1.12308e-10
3.51543e-09
7.99634e-11
3.47643e-09
3.90105e-11
3.44522e-09
3.12116e-11
3.44677e-09
-1.55092e-12
3.47273e-09
-2.59592e-11
3.49452e-09
-2.17866e-11
3.51272e-09
-1.81993e-11
3.53545e-09
-2.27208e-11
3.53985e-09
-4.39814e-12
3.54019e-09
-3.4371e-13
3.52928e-09
1.09073e-11
3.51621e-09
1.30733e-11
3.54938e-09
-3.31703e-11
3.59742e-09
-4.80354e-11
3.65361e-09
-5.61989e-11
3.71345e-09
-5.98413e-11
3.76098e-09
-4.75222e-11
3.80835e-09
-4.73699e-11
3.85438e-09
-4.60347e-11
3.85483e-09
-4.54116e-13
3.86571e-09
-1.08724e-11
3.89785e-09
-3.21419e-11
3.95657e-09
-5.87233e-11
4.01986e-09
-6.3288e-11
4.10491e-09
-8.5041e-11
4.19143e-09
-8.65201e-11
4.30112e-09
-1.09692e-10
4.39552e-09
-9.43962e-11
4.51519e-09
-1.19669e-10
4.65778e-09
-1.42587e-10
4.7799e-09
-1.22124e-10
4.89452e-09
-1.14624e-10
4.96725e-09
-7.27241e-11
4.96924e-09
-1.98752e-12
4.9753e-09
-6.06249e-12
5.0031e-09
-2.78043e-11
5.02276e-09
-1.96548e-11
5.06151e-09
-3.87539e-11
5.1532e-09
-9.16907e-11
5.22411e-09
-7.09075e-11
5.24855e-09
-2.44456e-11
5.29559e-09
-4.70435e-11
5.33972e-09
-4.41307e-11
5.2761e-09
6.36184e-11
5.20368e-09
7.24186e-11
5.10038e-09
1.03297e-10
4.96275e-09
1.37633e-10
4.83037e-09
1.32382e-10
4.6675e-09
1.6287e-10
4.57669e-09
9.08069e-11
4.43464e-09
1.42051e-10
4.26681e-09
1.67831e-10
4.07728e-09
1.89533e-10
3.97785e-09
9.94325e-11
3.78632e-09
1.91527e-10
3.64281e-09
1.43519e-10
3.44244e-09
2.00363e-10
3.24884e-09
1.93607e-10
2.9646e-09
2.84239e-10
2.72817e-09
2.36434e-10
2.37445e-09
3.53721e-10
2.02532e-09
3.49134e-10
1.60649e-09
4.18831e-10
1.36471e-09
2.41778e-10
1.07795e-09
2.86764e-10
7.32011e-10
3.45938e-10
1.6388e-10
5.68133e-10
-5.00381e-11
2.13921e-10
-4.64821e-15
-5.00287e-11
-9.96572e-18
-7.67319e-19
-9.80942e-18
-1.563e-19
-9.68073e-18
-1.26504e-19
-9.45308e-18
-2.26029e-19
-9.10293e-18
-3.4845e-19
-8.6364e-18
-4.6434e-19
-8.06958e-18
-5.63934e-19
-7.42259e-18
-6.4368e-19
-6.7164e-18
-7.02943e-19
-5.97146e-18
-7.41707e-19
-5.20661e-18
-7.61135e-19
-4.43955e-18
-7.63188e-19
-3.68681e-18
-7.49668e-19
-2.96202e-18
-7.22184e-19
-2.27523e-18
-6.83204e-19
-1.63497e-18
-6.35938e-19
-1.04934e-18
-5.82693e-19
-5.23358e-19
-5.24618e-19
-5.79524e-20
-4.63464e-19
3.46801e-19
-4.02006e-19
6.89927e-19
-3.42146e-19
9.72023e-19
-2.83955e-19
1.19672e-18
-2.27119e-19
1.36849e-18
-1.72391e-19
1.49056e-18
-1.2113e-19
1.56553e-18
-7.41145e-20
1.59678e-18
-3.13361e-20
1.58854e-18
7.38689e-21
1.54521e-18
4.20538e-20
1.47111e-18
7.26792e-20
1.37057e-18
9.95013e-20
1.2476e-18
1.2286e-19
1.10545e-18
1.42958e-19
9.4659e-19
1.59807e-19
7.73362e-19
1.73391e-19
5.88664e-19
1.83849e-19
3.96034e-19
1.91534e-19
1.98984e-19
1.96903e-19
2.00289e-19
1.03629e-09
-1.59636e-09
1.75646e-09
-1.52387e-09
2.38908e-09
-2.344e-09
3.44102e-09
-9.82334e-10
3.50013e-09
-5.60203e-10
3.71488e-09
-5.23867e-10
3.7856e-09
-3.12747e-10
3.8481e-09
-6.48428e-11
3.81985e-09
8.37208e-11
3.69653e-09
2.78754e-10
3.56366e-09
2.74421e-10
3.45125e-09
2.24725e-10
3.35042e-09
1.80803e-10
3.26227e-09
1.27161e-10
3.20244e-09
9.10497e-11
3.15231e-09
4.85843e-11
3.10606e-09
2.0292e-11
3.08591e-09
-1.63852e-12
3.09434e-09
-2.66195e-11
3.10549e-09
-3.38747e-11
3.10801e-09
-6.91242e-12
3.10134e-09
6.32885e-12
3.07719e-09
3.50557e-11
3.05198e-09
3.82848e-11
3.04219e-09
-2.33833e-11
3.04733e-09
-5.31727e-11
3.05937e-09
-6.82442e-11
3.09355e-09
-9.40176e-11
3.16524e-09
-1.19215e-10
3.23737e-09
-1.19504e-10
3.29369e-09
-1.02352e-10
3.33744e-09
-4.42077e-11
3.36124e-09
-3.46679e-11
3.37923e-09
-5.01244e-11
3.40014e-09
-7.96386e-11
3.42563e-09
-8.87743e-11
3.46921e-09
-1.28617e-10
3.53002e-09
-1.47326e-10
3.58836e-09
-1.68032e-10
3.68373e-09
-1.89766e-10
3.76965e-09
-2.05586e-10
3.85475e-09
-2.27688e-10
3.93304e-09
-2.00412e-10
4.01909e-09
-2.00674e-10
4.09695e-09
-1.50583e-10
4.15692e-09
-6.19628e-11
4.23733e-09
-8.64695e-11
4.2987e-09
-8.91764e-11
4.34242e-09
-6.33706e-11
4.43817e-09
-1.34511e-10
4.53636e-09
-1.89885e-10
4.59411e-09
-1.28654e-10
4.65621e-09
-8.65567e-11
4.79393e-09
-1.84765e-10
4.87126e-09
-1.21463e-10
4.8607e-09
7.41726e-11
4.82823e-09
1.04888e-10
4.77084e-09
1.60692e-10
4.71479e-09
1.93686e-10
4.60963e-09
2.37546e-10
4.47436e-09
2.98134e-10
4.31041e-09
2.54763e-10
4.12348e-09
3.28982e-10
3.93245e-09
3.58862e-10
3.84078e-09
2.81206e-10
3.68962e-09
2.50597e-10
3.56513e-09
3.16024e-10
3.42708e-09
2.81574e-10
3.26897e-09
3.58476e-10
3.05507e-09
4.07504e-10
2.81106e-09
5.28253e-10
2.54884e-09
4.98657e-10
2.25738e-09
6.45181e-10
1.91769e-09
6.88823e-10
1.57181e-09
7.64721e-10
1.23646e-09
5.77124e-10
1.0543e-09
4.6893e-10
6.90308e-10
7.09931e-10
7.14958e-10
5.43486e-10
5.43889e-10
3.84991e-10
2.24957e-16
4.93854e-10
-9.35363e-18
1.22406e-18
-9.77854e-18
2.69126e-19
-9.77922e-18
-1.23752e-19
-9.57451e-18
-4.27449e-19
-9.21788e-18
-7.01074e-19
-8.73537e-18
-9.42472e-19
-8.14933e-18
-1.1452e-18
-7.48185e-18
-1.30576e-18
-6.75517e-18
-1.42393e-18
-5.99089e-18
-1.50069e-18
-5.20867e-18
-1.53832e-18
-4.42603e-18
-1.54012e-18
-3.65933e-18
-1.5102e-18
-2.92304e-18
-1.4532e-18
-2.22796e-18
-1.37401e-18
-1.58173e-18
-1.27752e-18
-9.91265e-19
-1.16847e-18
-4.62205e-19
-1.05127e-18
3.50589e-21
-9.29692e-19
4.06661e-19
-8.06577e-19
7.48118e-19
-6.8412e-19
1.02886e-18
-5.64358e-19
1.25145e-18
-4.49221e-19
1.41975e-18
-3.40236e-19
1.53757e-18
-2.38445e-19
1.60831e-18
-1.44543e-19
1.6355e-18
-5.89265e-20
1.62321e-18
1.83715e-20
1.57583e-18
8.76031e-20
1.49793e-18
1.49064e-19
1.39393e-18
2.02947e-19
1.2677e-18
2.49447e-19
1.1223e-18
2.88936e-19
9.60174e-19
3.21963e-19
7.8382e-19
3.49071e-19
5.9635e-19
3.70637e-19
4.01403e-19
3.86874e-19
2.02369e-19
3.97842e-19
4.03143e-19
9.93386e-10
-2.58974e-09
2.25715e-09
-2.78764e-09
1.9425e-09
-2.02935e-09
2.26879e-09
-1.30862e-09
2.59354e-09
-8.84955e-10
2.77341e-09
-7.03737e-10
2.8231e-09
-3.62428e-10
2.95778e-09
-1.99524e-10
3.07698e-09
-3.54724e-11
3.16572e-09
1.90008e-10
3.16123e-09
2.78918e-10
3.07966e-09
3.06301e-10
2.95769e-09
3.02778e-10
2.84573e-09
2.39127e-10
2.77113e-09
1.65647e-10
2.70833e-09
1.11394e-10
2.64016e-09
8.84573e-11
2.5675e-09
7.10268e-11
2.53166e-09
9.2279e-12
2.5157e-09
-1.79206e-11
2.52089e-09
-1.20952e-11
2.54203e-09
-1.48086e-11
2.5705e-09
6.58725e-12
2.60289e-09
5.89531e-12
2.60093e-09
-2.14318e-11
2.59182e-09
-4.4057e-11
2.5848e-09
-6.12239e-11
2.57e-09
-7.92198e-11
2.54894e-09
-9.8156e-11
2.5411e-09
-1.11664e-10
2.55196e-09
-1.13208e-10
2.59977e-09
-9.20203e-11
2.64728e-09
-8.21783e-11
2.68656e-09
-8.94e-11
2.72834e-09
-1.21419e-10
2.77027e-09
-1.30699e-10
2.80996e-09
-1.6831e-10
2.85646e-09
-1.93814e-10
2.90257e-09
-2.14149e-10
2.93026e-09
-2.17446e-10
2.96105e-09
-2.36381e-10
2.97537e-09
-2.42003e-10
2.99771e-09
-2.22757e-10
3.04321e-09
-2.46173e-10
3.0915e-09
-1.98872e-10
3.16641e-09
-1.36868e-10
3.28194e-09
-2.01998e-10
3.40764e-09
-2.14883e-10
3.47249e-09
-1.28219e-10
3.6157e-09
-2.77719e-10
3.82433e-09
-3.98519e-10
3.88421e-09
-1.88541e-10
3.94846e-09
-1.50804e-10
4.20521e-09
-4.41523e-10
4.24881e-09
-1.65066e-10
4.27109e-09
5.18887e-11
4.2556e-09
1.20379e-10
4.23692e-09
1.7938e-10
4.15731e-09
2.73295e-10
4.03149e-09
3.63362e-10
3.96403e-09
3.65602e-10
3.86508e-09
3.53711e-10
3.69773e-09
4.96336e-10
3.56511e-09
4.91481e-10
3.43331e-09
4.13012e-10
3.26413e-09
4.19774e-10
3.15788e-09
4.22279e-10
3.05442e-09
3.85031e-10
2.91971e-09
4.93196e-10
2.71633e-09
6.10877e-10
2.5619e-09
6.82687e-10
2.32404e-09
7.36517e-10
2.04696e-09
9.22266e-10
1.72671e-09
1.00908e-09
1.49487e-09
9.96555e-10
1.22728e-09
8.44719e-10
9.84564e-10
7.11644e-10
9.58152e-10
7.36345e-10
6.57276e-10
8.44365e-10
2.11638e-10
8.30633e-10
1.2609e-15
7.05493e-10
-1.03072e-17
-1.9777e-19
-1.01703e-17
1.33323e-19
-1.00819e-17
-2.11484e-19
-9.84716e-18
-6.60805e-19
-9.45838e-18
-1.08819e-18
-8.93754e-18
-1.4615e-18
-8.30989e-18
-1.77084e-18
-7.60002e-18
-2.01326e-18
-6.83193e-18
-2.1893e-18
-6.02852e-18
-2.30114e-18
-5.21046e-18
-2.35303e-18
-4.39611e-18
-2.35069e-18
-3.60233e-18
-2.30042e-18
-2.84386e-18
-2.20912e-18
-2.13148e-18
-2.08465e-18
-1.47268e-18
-1.93504e-18
-8.74064e-19
-1.76695e-18
-3.40626e-19
-1.58587e-18
1.2662e-19
-1.39744e-18
5.29119e-19
-1.20734e-18
8.6788e-19
-1.02002e-18
1.144e-18
-8.38334e-19
1.36043e-18
-6.64329e-19
1.52154e-18
-4.99934e-19
1.63148e-18
-3.46822e-19
1.69393e-18
-2.0602e-19
1.7128e-18
-7.78508e-20
1.69244e-18
3.77973e-20
1.63729e-18
1.41194e-19
1.55182e-18
2.32681e-19
1.44043e-18
3.12733e-19
1.30719e-18
3.81991e-19
1.15533e-18
4.41179e-19
9.87282e-19
4.90932e-19
8.05386e-19
5.31706e-19
6.12587e-19
5.63836e-19
4.12371e-19
5.87629e-19
2.0767e-19
6.03272e-19
6.10881e-19
9.12717e-10
-3.50246e-09
9.82882e-10
-2.8578e-09
1.17188e-09
-2.21834e-09
1.51841e-09
-1.65515e-09
1.69866e-09
-1.0652e-09
1.80971e-09
-8.14787e-10
1.95821e-09
-5.10929e-10
2.05256e-09
-2.93869e-10
2.14306e-09
-1.25968e-10
2.31048e-09
2.25853e-11
2.35134e-09
2.38063e-10
2.31332e-09
3.4432e-10
2.30208e-09
3.14027e-10
2.30094e-09
2.4027e-10
2.28424e-09
1.82354e-10
2.27423e-09
1.21402e-10
2.26485e-09
9.78439e-11
2.25489e-09
8.09829e-11
2.22373e-09
4.03959e-11
2.17868e-09
2.71305e-11
2.13659e-09
3.00017e-11
2.11399e-09
7.78656e-12
2.10728e-09
1.33045e-11
2.1068e-09
6.37353e-12
2.1044e-09
-1.90401e-11
2.10826e-09
-4.79136e-11
2.10403e-09
-5.69941e-11
2.10178e-09
-7.69665e-11
2.09815e-09
-9.45311e-11
2.09019e-09
-1.037e-10
2.0909e-09
-1.13917e-10
2.10685e-09
-1.07967e-10
2.13584e-09
-1.11171e-10
2.15898e-09
-1.12536e-10
2.18242e-09
-1.44859e-10
2.20488e-09
-1.5316e-10
2.21665e-09
-1.80072e-10
2.23048e-09
-2.07642e-10
2.25648e-09
-2.40151e-10
2.26781e-09
-2.28774e-10
2.28407e-09
-2.52645e-10
2.27538e-09
-2.33312e-10
2.30039e-09
-2.47768e-10
2.32568e-09
-2.71463e-10
2.32482e-09
-1.98007e-10
2.41707e-09
-2.29118e-10
2.50165e-09
-2.86576e-10
2.60635e-09
-3.19584e-10
2.74995e-09
-2.71821e-10
2.88899e-09
-4.16768e-10
3.06255e-09
-5.72076e-10
3.27359e-09
-3.99588e-10
3.4466e-09
-3.23815e-10
3.66328e-09
-6.58206e-10
3.76106e-09
-2.62843e-10
3.79504e-09
1.79109e-11
3.76532e-09
1.50099e-10
3.71836e-09
2.26342e-10
3.64296e-09
3.48695e-10
3.59416e-09
4.12164e-10
3.48701e-09
4.72747e-10
3.32904e-09
5.11688e-10
3.20721e-09
6.18159e-10
3.13215e-09
5.66549e-10
2.99497e-09
5.50187e-10
2.84582e-09
5.68933e-10
2.77112e-09
4.96979e-10
2.65698e-09
4.99175e-10
2.49709e-09
6.53079e-10
2.32331e-09
7.84657e-10
2.19509e-09
8.10911e-10
1.96113e-09
9.70479e-10
1.71867e-09
1.16472e-09
1.48849e-09
1.23926e-09
1.34541e-09
1.13964e-09
1.14365e-09
1.04647e-09
9.94533e-10
8.60762e-10
8.35255e-10
8.9562e-10
6.82845e-10
9.96771e-10
4.12869e-10
1.10061e-09
1.10317e-15
1.11836e-09
-9.97492e-18
1.84457e-18
-1.05139e-17
6.72746e-19
-1.05301e-17
-1.95466e-19
-1.02736e-17
-9.17205e-19
-9.83083e-18
-1.53083e-18
-9.2464e-18
-2.04601e-18
-8.55231e-18
-2.46474e-18
-7.77606e-18
-2.78838e-18
-6.94377e-18
-3.01966e-18
-6.08041e-18
-3.16251e-18
-5.20812e-18
-3.22317e-18
-4.34585e-18
-3.21009e-18
-3.51103e-18
-3.13269e-18
-2.71939e-18
-3.00039e-18
-1.98187e-18
-2.8232e-18
-1.30458e-18
-2.61203e-18
-6.92983e-19
-2.37703e-18
-1.52194e-19
-2.12639e-18
3.1672e-19
-1.86726e-18
7.16434e-19
-1.60663e-18
1.04957e-18
-1.35073e-18
1.318e-18
-1.10404e-18
1.52483e-18
-8.69417e-19
1.67466e-18
-6.48774e-19
1.77228e-18
-4.43667e-19
1.82209e-18
-2.55297e-19
1.82845e-18
-8.4306e-20
1.79584e-18
6.93332e-20
1.72878e-18
2.0621e-19
1.63187e-18
3.27228e-19
1.50969e-18
4.33346e-19
1.36638e-18
5.25399e-19
1.20508e-18
6.04046e-19
1.02806e-18
6.69826e-19
8.37516e-19
7.23289e-19
6.3638e-19
7.65093e-19
4.28013e-19
7.95909e-19
2.1528e-19
8.16219e-19
8.26283e-19
3.54177e-10
-3.85663e-09
9.05545e-10
-3.40917e-09
1.00268e-09
-2.31547e-09
9.7172e-10
-1.6242e-09
1.13372e-09
-1.22719e-09
1.22663e-09
-9.077e-10
1.31087e-09
-5.95171e-10
1.38656e-09
-3.69556e-10
1.46027e-09
-1.99671e-10
1.67892e-09
-1.96067e-10
1.73012e-09
1.86865e-10
1.77676e-09
2.97689e-10
1.83583e-09
2.5496e-10
1.87873e-09
1.97367e-10
1.91407e-09
1.47027e-10
1.93091e-09
1.04564e-10
1.92627e-09
1.02484e-10
1.90879e-09
9.84656e-11
1.87524e-09
7.39537e-11
1.82371e-09
7.86635e-11
1.76842e-09
8.52905e-11
1.73715e-09
3.90563e-11
1.73084e-09
1.96178e-11
1.73056e-09
6.64853e-12
1.74234e-09
-3.08158e-11
1.75341e-09
-5.89855e-11
1.76574e-09
-6.93228e-11
1.77496e-09
-8.6193e-11
1.78141e-09
-1.00973e-10
1.77648e-09
-9.87755e-11
1.77101e-09
-1.08449e-10
1.7685e-09
-1.0545e-10
1.76068e-09
-1.03346e-10
1.75882e-09
-1.10682e-10
1.75079e-09
-1.3682e-10
1.75688e-09
-1.59252e-10
1.7595e-09
-1.82689e-10
1.75963e-09
-2.07768e-10
1.77233e-09
-2.52848e-10
1.77584e-09
-2.32288e-10
1.78242e-09
-2.59225e-10
1.77334e-09
-2.24231e-10
1.83643e-09
-3.10852e-10
1.88476e-09
-3.19794e-10
1.85621e-09
-1.69464e-10
1.93414e-09
-3.07041e-10
1.99901e-09
-3.51455e-10
2.0571e-09
-3.77668e-10
2.21312e-09
-4.27845e-10
2.41717e-09
-6.20817e-10
2.6265e-09
-7.8141e-10
2.91084e-09
-6.8393e-10
3.09574e-09
-5.08718e-10
3.16801e-09
-7.30473e-10
3.13129e-09
-2.26126e-10
3.17829e-09
-2.90799e-11
3.19045e-09
1.37938e-10
3.13365e-09
2.83136e-10
3.16662e-09
3.15731e-10
3.11096e-09
4.67819e-10
2.98935e-09
5.94363e-10
2.86994e-09
6.31098e-10
2.78766e-09
7.00434e-10
2.68943e-09
6.6478e-10
2.54693e-09
6.92693e-10
2.4251e-09
6.90761e-10
2.37191e-09
5.5017e-10
2.17383e-09
6.97251e-10
1.99255e-09
8.34363e-10
1.90231e-09
8.74899e-10
1.8291e-09
8.84114e-10
1.60956e-09
1.19002e-09
1.40873e-09
1.36554e-09
1.25339e-09
1.39459e-09
1.15037e-09
1.24266e-09
1.12698e-09
1.06987e-09
9.49846e-10
1.03789e-09
7.75914e-10
1.06955e-09
5.71636e-10
1.20105e-09
3.12792e-10
1.35945e-09
-6.95451e-17
1.43115e-09
-1.11453e-17
2.81767e-18
-1.13808e-17
9.07958e-19
-1.12508e-17
-3.25657e-19
-1.08863e-17
-1.28164e-18
-1.03452e-17
-2.07169e-18
-9.66473e-18
-2.72633e-18
-8.87595e-18
-3.25318e-18
-8.00733e-18
-3.65557e-18
-7.08663e-18
-3.9377e-18
-6.14106e-18
-4.1054e-18
-5.19504e-18
-4.16708e-18
-4.26845e-18
-4.13393e-18
-3.37872e-18
-4.01883e-18
-2.5422e-18
-3.83479e-18
-1.77069e-18
-3.59488e-18
-1.06958e-18
-3.31298e-18
-4.42343e-19
-3.00254e-18
1.06935e-19
-2.6748e-18
5.77345e-19
-2.33895e-18
9.72339e-19
-2.00318e-18
1.29625e-18
-1.67481e-18
1.55263e-18
-1.35956e-18
1.74547e-18
-1.06127e-18
1.87976e-18
-7.82313e-19
1.96065e-18
-5.24263e-19
1.99309e-18
-2.8817e-19
1.98209e-18
-7.44717e-20
1.93271e-18
1.17122e-19
1.8498e-18
2.87525e-19
1.73799e-18
4.37953e-19
1.60174e-18
5.69584e-19
1.44502e-18
6.83388e-19
1.27086e-18
7.80162e-19
1.08152e-18
8.60699e-19
8.7932e-19
9.25938e-19
6.67195e-19
9.76932e-19
4.48323e-19
1.01461e-18
2.25344e-19
1.03957e-18
1.05206e-18
4.60963e-10
-4.3176e-09
4.87789e-10
-3.43599e-09
5.54518e-10
-2.3822e-09
6.63456e-10
-1.73313e-09
8.3085e-10
-1.39459e-09
1.03298e-09
-1.10983e-09
1.0989e-09
-6.61094e-10
1.24379e-09
-5.14438e-10
1.38617e-09
-3.42051e-10
1.50394e-09
-3.13831e-10
1.56266e-09
1.28148e-10
1.61613e-09
2.44214e-10
1.64668e-09
2.24422e-10
1.67568e-09
1.6837e-10
1.70901e-09
1.13701e-10
1.69193e-09
1.21644e-10
1.66076e-09
1.33658e-10
1.62874e-09
1.30491e-10
1.5983e-09
1.0439e-10
1.56151e-09
1.15457e-10
1.51037e-09
1.36434e-10
1.47664e-09
7.27881e-11
1.47652e-09
1.97395e-11
1.4905e-09
-7.33058e-12
1.518e-09
-5.83137e-11
1.53558e-09
-7.65735e-11
1.54218e-09
-7.59166e-11
1.52936e-09
-7.33769e-11
1.503e-09
-7.46114e-11
1.47484e-09
-7.0617e-11
1.44572e-09
-7.93267e-11
1.4247e-09
-8.44306e-11
1.40049e-09
-7.91311e-11
1.38274e-09
-9.29308e-11
1.36819e-09
-1.22269e-10
1.36061e-09
-1.51673e-10
1.3508e-09
-1.72877e-10
1.34097e-09
-1.97933e-10
1.32955e-09
-2.41429e-10
1.31913e-09
-2.21861e-10
1.31289e-09
-2.52992e-10
1.27192e-09
-1.83253e-10
1.31403e-09
-3.52971e-10
1.34864e-09
-3.54398e-10
1.37303e-09
-1.93862e-10
1.46228e-09
-3.96291e-10
1.56501e-09
-4.54186e-10
1.68132e-09
-4.93972e-10
1.80728e-09
-5.53812e-10
1.9728e-09
-7.86332e-10
2.24926e-09
-1.05787e-09
2.41177e-09
-8.46443e-10
2.4759e-09
-5.72849e-10
2.50086e-09
-7.55425e-10
2.6032e-09
-3.28464e-10
2.6084e-09
-3.42818e-11
2.59564e-09
1.50694e-10
2.5873e-09
2.91482e-10
2.54913e-09
3.53894e-10
2.47415e-09
5.42806e-10
2.42829e-09
6.40215e-10
2.39797e-09
6.61425e-10
2.38206e-09
7.16343e-10
2.31016e-09
7.36672e-10
2.27027e-09
7.32582e-10
2.20375e-09
7.57288e-10
2.08801e-09
6.65905e-10
1.88815e-09
8.97111e-10
1.73058e-09
9.91933e-10
1.62833e-09
9.7715e-10
1.36179e-09
1.15065e-09
1.16495e-09
1.38686e-09
1.11316e-09
1.41733e-09
1.06854e-09
1.43921e-09
1.0088e-09
1.3024e-09
9.37523e-10
1.14115e-09
7.71279e-10
1.20414e-09
5.75743e-10
1.26509e-09
4.1579e-10
1.361e-09
2.16879e-10
1.55836e-09
-1.7602e-15
1.64803e-09
-1.30533e-17
1.65731e-18
-1.26131e-17
4.67409e-19
-1.22056e-17
-7.31591e-19
-1.16754e-17
-1.81019e-18
-1.09991e-17
-2.74602e-18
-1.01913e-17
-3.53205e-18
-9.27835e-18
-4.16401e-18
-8.28946e-18
-4.64159e-18
-7.25432e-18
-4.96854e-18
-6.20274e-18
-5.1523e-18
-5.1619e-18
-5.20397e-18
-4.15335e-18
-5.1382e-18
-3.19468e-18
-4.97197e-18
-2.30229e-18
-4.72267e-18
-1.4888e-18
-4.40719e-18
-7.59141e-19
-4.04271e-18
-1.14601e-19
-3.64605e-18
4.42784e-19
-3.23164e-18
9.13109e-19
-2.81098e-18
1.30071e-18
-2.39355e-18
1.6115e-18
-1.98755e-18
1.85092e-18
-1.59967e-18
2.02443e-18
-1.23464e-18
2.13781e-18
-8.95314e-19
2.19674e-18
-5.83174e-19
2.20678e-18
-2.98879e-19
2.17368e-18
-4.24218e-20
2.10312e-18
1.86848e-19
2.00023e-18
3.90118e-19
1.86962e-18
5.68859e-19
1.71555e-18
7.24548e-19
1.5418e-18
8.58518e-19
1.3514e-18
9.71997e-19
1.14676e-18
1.06624e-18
9.30314e-19
1.14258e-18
7.04874e-19
1.20234e-18
4.7328e-19
1.24656e-18
2.37833e-19
1.27585e-18
1.29048e-18
6.65355e-11
-4.38413e-09
3.19304e-10
-3.68876e-09
4.7691e-10
-2.5398e-09
6.70895e-10
-1.92712e-09
7.7421e-10
-1.4979e-09
1.0543e-09
-1.38992e-09
1.25265e-09
-8.59441e-10
1.40088e-09
-6.62663e-10
1.56412e-09
-5.05294e-10
1.56656e-09
-3.16262e-10
1.68018e-09
1.45268e-11
1.71086e-09
2.13541e-10
1.67835e-09
2.56928e-10
1.62222e-09
2.24507e-10
1.57683e-09
1.59093e-10
1.51216e-09
1.86318e-10
1.47819e-09
1.67638e-10
1.45306e-09
1.5562e-10
1.42993e-09
1.27527e-10
1.36642e-09
1.78964e-10
1.34693e-09
1.55923e-10
1.3246e-09
9.51276e-11
1.30487e-09
3.94687e-11
1.29582e-09
1.71634e-12
1.30289e-09
-6.53816e-11
1.28577e-09
-5.94538e-11
1.26172e-09
-5.18636e-11
1.21987e-09
-3.15324e-11
1.17068e-09
-2.54208e-11
1.12843e-09
-2.83657e-11
1.0887e-09
-3.95964e-11
1.04629e-09
-4.20192e-11
1.02254e-09
-5.53781e-11
9.93933e-10
-6.43224e-11
9.80443e-10
-1.08778e-10
9.70557e-10
-1.41786e-10
9.53299e-10
-1.55618e-10
9.30607e-10
-1.75241e-10
9.03765e-10
-2.14585e-10
8.92454e-10
-2.1055e-10
8.88779e-10
-2.49317e-10
9.02108e-10
-1.9658e-10
8.71784e-10
-3.22648e-10
9.15897e-10
-3.98511e-10
1.08204e-09
-3.60007e-10
1.12953e-09
-4.43783e-10
1.23943e-09
-5.64088e-10
1.39209e-09
-6.46634e-10
1.56847e-09
-7.30184e-10
1.6464e-09
-8.64264e-10
1.65414e-09
-1.06561e-09
1.80701e-09
-9.99313e-10
2.03359e-09
-7.99431e-10
1.91601e-09
-6.37839e-10
1.96671e-09
-3.79166e-10
1.95493e-09
-2.24985e-11
1.93684e-09
1.68777e-10
1.96008e-09
2.68248e-10
1.8971e-09
4.16871e-10
1.89394e-09
5.45958e-10
1.86352e-09
6.70637e-10
1.84444e-09
6.80501e-10
1.82845e-09
7.32333e-10
1.75576e-09
8.09361e-10
1.63958e-09
8.48757e-10
1.551e-09
8.45868e-10
1.39783e-09
8.19081e-10
1.38795e-09
9.06987e-10
1.31343e-09
1.06645e-09
1.13154e-09
1.15904e-09
9.57976e-10
1.32421e-09
9.10677e-10
1.43416e-09
8.62602e-10
1.46541e-09
8.48935e-10
1.45288e-09
8.71057e-10
1.28028e-09
7.61402e-10
1.2508e-09
5.89488e-10
1.37605e-09
4.04633e-10
1.44994e-09
2.40491e-10
1.52514e-09
1.15642e-10
1.68321e-09
-2.93015e-15
1.76368e-09
-1.42416e-17
1.285e-18
-1.38108e-17
3.7384e-20
-1.32831e-17
-1.25544e-18
-1.26104e-17
-2.47919e-18
-1.17844e-17
-3.5679e-18
-1.0823e-17
-4.48914e-18
-9.75592e-18
-5.22702e-18
-8.61641e-18
-5.77662e-18
-7.43808e-18
-6.14103e-18
-6.25441e-18
-6.32959e-18
-5.09613e-18
-6.35695e-18
-3.98712e-18
-6.24219e-18
-2.94538e-18
-6.00741e-18
-1.98681e-18
-5.67541e-18
-1.12432e-18
-5.26777e-18
-3.62474e-19
-4.80545e-18
2.99811e-19
-4.30872e-18
8.63441e-19
-3.79536e-18
1.33054e-18
-3.27958e-18
1.70671e-18
-2.77238e-18
1.99938e-18
-2.28271e-18
2.21594e-18
-1.81777e-18
2.36376e-18
-1.38279e-18
2.44995e-18
-9.80885e-19
2.48104e-18
-6.13468e-19
2.46324e-18
-2.80772e-19
2.40295e-18
1.77941e-20
2.30639e-18
2.83467e-19
2.17897e-18
5.17956e-19
2.02531e-18
7.23213e-19
1.84952e-18
9.01208e-19
1.65528e-18
1.05379e-18
1.44563e-18
1.18269e-18
1.2231e-18
1.28961e-18
9.90075e-19
1.3762e-18
7.49093e-19
1.44395e-18
5.02571e-19
1.49398e-18
2.52467e-19
1.52698e-18
1.54332e-18
2.45405e-10
-4.62954e-09
2.4794e-10
-3.69129e-09
3.67612e-10
-2.65947e-09
7.41934e-10
-2.30144e-09
9.92944e-10
-1.74891e-09
1.36309e-09
-1.76006e-09
1.58507e-09
-1.08141e-09
1.74518e-09
-8.22772e-10
1.78545e-09
-5.4556e-10
1.81116e-09
-3.41967e-10
1.85816e-09
-3.24746e-11
1.83275e-09
2.38953e-10
1.74337e-09
3.46315e-10
1.6217e-09
3.46176e-10
1.49726e-09
2.83539e-10
1.41333e-09
2.70253e-10
1.36893e-09
2.12044e-10
1.33848e-09
1.86069e-10
1.27693e-09
1.8908e-10
1.20443e-09
2.51469e-10
1.18877e-09
1.71586e-10
1.17868e-09
1.05214e-10
1.15188e-09
6.62737e-11
1.10397e-09
4.96219e-11
1.02658e-09
1.20051e-11
9.54915e-10
1.22149e-11
9.01909e-10
1.14288e-12
8.67298e-10
3.07902e-12
8.35785e-10
6.09327e-12
7.9446e-10
1.29604e-11
7.54593e-10
2.71448e-13
7.1313e-10
-5.55293e-13
7.01161e-10
-4.34085e-11
7.05314e-10
-6.84739e-11
7.07186e-10
-1.1065e-10
6.99887e-10
-1.34486e-10
6.82856e-10
-1.38585e-10
6.67079e-10
-1.59463e-10
6.46352e-10
-1.93858e-10
6.4022e-10
-2.04417e-10
6.19502e-10
-2.28598e-10
6.97366e-10
-2.74443e-10
6.6423e-10
-2.89512e-10
6.61346e-10
-3.95627e-10
7.68101e-10
-4.66763e-10
8.59587e-10
-5.35271e-10
9.48509e-10
-6.5301e-10
1.0732e-09
-7.7133e-10
1.21739e-09
-8.74366e-10
1.3102e-09
-9.57074e-10
1.28831e-09
-1.04372e-09
1.30477e-09
-1.01578e-09
1.36917e-09
-8.6383e-10
1.35664e-09
-6.25304e-10
1.33675e-09
-3.59275e-10
1.32713e-09
-1.28773e-11
1.31325e-09
1.82654e-10
1.30308e-09
2.78418e-10
1.29746e-09
4.22489e-10
1.26673e-09
5.76683e-10
1.25565e-09
6.81715e-10
1.27534e-09
6.60806e-10
1.27223e-09
7.35449e-10
1.26778e-09
8.13802e-10
1.27096e-09
8.45573e-10
1.26625e-09
8.50582e-10
1.18407e-09
9.01252e-10
1.10361e-09
9.87447e-10
1.00523e-09
1.16483e-09
8.20271e-10
1.344e-09
6.46844e-10
1.49764e-09
5.58821e-10
1.52219e-09
5.91974e-10
1.43226e-09
7.33593e-10
1.31126e-09
7.66158e-10
1.24772e-09
7.23213e-10
1.29375e-09
6.63336e-10
1.43593e-09
5.35993e-10
1.57729e-09
3.3901e-10
1.72213e-09
1.07817e-10
1.91441e-09
-2.59049e-15
1.87151e-09
-1.54876e-17
9.04818e-19
-1.51023e-17
-3.4558e-19
-1.45058e-17
-1.84711e-18
-1.36982e-17
-3.28217e-18
-1.2705e-17
-4.55621e-18
-1.15607e-17
-5.62831e-18
-1.03055e-17
-6.47758e-18
-8.98082e-18
-7.09683e-18
-7.62664e-18
-7.48968e-18
-6.28177e-18
-7.66848e-18
-4.98136e-18
-7.65283e-18
-3.75234e-18
-7.46763e-18
-2.61338e-18
-7.14154e-18
-1.57917e-18
-6.70405e-18
-6.62002e-19
-6.18272e-18
1.34264e-19
-5.60314e-18
8.13162e-19
-4.98927e-18
1.37922e-18
-4.36231e-18
1.83773e-18
-3.73922e-18
2.19639e-18
-3.13276e-18
2.46431e-18
-2.55254e-18
2.65093e-18
-2.0059e-18
2.76567e-18
-1.49799e-18
2.81737e-18
-1.03183e-18
2.81373e-18
-6.08569e-19
2.76181e-18
-2.27922e-19
2.66863e-18
1.11457e-19
2.54087e-18
4.11668e-19
2.38422e-18
6.7526e-19
2.2033e-18
9.04931e-19
2.0021e-18
1.10329e-18
1.78418e-18
1.27276e-18
1.55255e-18
1.41554e-18
1.30969e-18
1.5337e-18
1.05782e-18
1.62919e-18
7.99121e-19
1.70367e-18
5.35569e-19
1.75843e-18
2.68812e-19
1.79434e-18
1.81195e-18
4.01308e-11
-4.66967e-09
2.57976e-10
-3.90914e-09
5.17009e-10
-2.9185e-09
9.03113e-10
-2.68754e-09
1.19688e-09
-2.04268e-09
1.44088e-09
-2.00407e-09
1.60482e-09
-1.24534e-09
1.87479e-09
-1.09275e-09
1.93313e-09
-6.03901e-10
1.94595e-09
-3.5478e-10
1.92889e-09
-1.54092e-11
1.90386e-09
2.63986e-10
1.81886e-09
4.31315e-10
1.70918e-09
4.55862e-10
1.57192e-09
4.20806e-10
1.41647e-09
4.25702e-10
1.27746e-09
3.51062e-10
1.19833e-09
2.65199e-10
1.09942e-09
2.87991e-10
1.06272e-09
2.8817e-10
1.01631e-09
2.17999e-10
9.78035e-10
1.43491e-10
9.18412e-10
1.25897e-10
8.29936e-10
1.38099e-10
7.38575e-10
1.03366e-10
6.80029e-10
7.07617e-11
6.30933e-10
5.02394e-11
5.96852e-10
3.71613e-11
5.70955e-10
3.19909e-11
5.46381e-10
3.7536e-11
5.33554e-10
1.30986e-11
5.41546e-10
-8.54579e-12
5.55565e-10
-5.74269e-11
5.77748e-10
-9.06563e-11
5.84704e-10
-1.17606e-10
5.80479e-10
-1.3026e-10
5.73406e-10
-1.31513e-10
5.71903e-10
-1.57959e-10
5.62561e-10
-1.84514e-10
5.57784e-10
-1.99639e-10
5.53857e-10
-2.24671e-10
5.55717e-10
-2.76302e-10
5.77325e-10
-3.11119e-10
5.90301e-10
-4.08602e-10
5.98744e-10
-4.75207e-10
6.1167e-10
-5.48198e-10
6.27113e-10
-6.68454e-10
6.79014e-10
-8.23231e-10
7.42622e-10
-9.37974e-10
7.99608e-10
-1.01406e-09
8.158e-10
-1.05991e-09
8.13418e-10
-1.01339e-09
8.19825e-10
-8.70236e-10
8.10929e-10
-6.16407e-10
7.37002e-10
-2.85347e-10
7.12481e-10
1.16444e-11
7.31525e-10
1.63609e-10
7.36499e-10
2.73443e-10
7.62416e-10
3.9657e-10
8.05953e-10
5.33144e-10
9.09728e-10
5.77938e-10
1.00259e-09
5.67943e-10
1.04808e-09
6.8996e-10
1.06873e-09
7.93144e-10
1.07183e-09
8.42471e-10
9.75723e-10
9.46687e-10
8.06675e-10
1.0703e-09
5.5079e-10
1.24333e-09
3.38876e-10
1.37675e-09
2.58024e-10
1.42485e-09
3.0177e-10
1.4539e-09
3.65446e-10
1.45851e-09
5.52004e-10
1.2457e-09
6.80039e-10
1.18323e-09
6.62144e-10
1.26562e-09
5.86417e-10
1.36948e-09
5.49249e-10
1.47311e-09
5.37888e-10
1.58866e-09
3.66027e-10
1.894e-09
2.00704e-10
2.07974e-09
-6.78382e-16
2.07222e-09
-1.67364e-17
2.23095e-18
-1.66025e-17
-4.76273e-19
-1.59399e-17
-2.50627e-18
-1.49715e-17
-4.24725e-18
-1.37766e-17
-5.74749e-18
-1.24099e-17
-6.99112e-18
-1.09248e-17
-7.9595e-18
-9.37367e-18
-8.64537e-18
-7.80544e-18
-9.05453e-18
-6.26612e-18
-9.20399e-18
-4.79616e-18
-9.12051e-18
-3.42625e-18
-8.83684e-18
-2.17589e-18
-8.39001e-18
-1.05783e-18
-7.81793e-18
-8.24224e-20
-7.15567e-18
7.4813e-19
-6.43472e-18
1.44013e-18
-5.68318e-18
2.00231e-18
-4.92559e-18
2.4442e-18
-4.18156e-18
2.77661e-18
-3.46546e-18
3.01096e-18
-2.78747e-18
3.15883e-18
-2.15468e-18
3.23183e-18
-1.5716e-18
3.24063e-18
-1.04049e-18
3.19438e-18
-5.61774e-19
3.10119e-18
-1.34344e-19
2.96884e-18
2.44092e-19
2.80447e-18
5.76676e-19
2.6139e-18
8.66978e-19
2.40166e-18
1.1186e-18
2.17156e-18
1.33491e-18
1.92696e-18
1.51893e-18
1.67072e-18
1.67338e-18
1.40518e-18
1.80073e-18
1.1323e-18
1.90323e-18
8.53881e-19
1.98283e-18
5.71474e-19
2.04106e-18
2.8643e-19
2.07905e-18
2.09758e-18
2.90416e-10
-4.96008e-09
4.90415e-10
-4.10913e-09
7.07367e-10
-3.13545e-09
8.06022e-10
-2.7862e-09
9.69547e-10
-2.2062e-09
1.18038e-09
-2.21489e-09
1.28354e-09
-1.3485e-09
1.68279e-09
-1.492e-09
1.69804e-09
-6.19148e-10
1.77742e-09
-4.34153e-10
1.84448e-09
-8.24663e-11
1.85895e-09
2.49521e-10
1.7697e-09
5.20558e-10
1.65191e-09
5.73659e-10
1.49821e-09
5.74511e-10
1.35152e-09
5.72389e-10
1.19674e-09
5.05854e-10
1.05743e-09
4.04507e-10
9.51976e-10
3.93449e-10
8.80527e-10
3.5962e-10
8.03418e-10
2.95109e-10
7.25351e-10
2.2156e-10
6.42348e-10
2.08901e-10
5.75356e-10
2.05092e-10
5.27691e-10
1.51032e-10
4.79377e-10
1.19077e-10
4.48813e-10
8.08047e-11
4.37618e-10
4.8358e-11
4.35407e-10
3.42023e-11
4.50248e-10
2.26967e-11
4.65832e-10
-2.48455e-12
5.02927e-10
-4.56405e-11
5.37116e-10
-9.16147e-11
5.61205e-10
-1.14745e-10
5.65722e-10
-1.22123e-10
5.63896e-10
-1.28434e-10
5.65489e-10
-1.33105e-10
5.64562e-10
-1.57032e-10
5.53793e-10
-1.73744e-10
5.55203e-10
-2.01048e-10
5.51304e-10
-2.20771e-10
5.43046e-10
-2.68043e-10
5.23757e-10
-2.9183e-10
5.01025e-10
-3.8587e-10
4.98656e-10
-4.72837e-10
4.93218e-10
-5.4276e-10
4.94425e-10
-6.69662e-10
4.6974e-10
-7.98546e-10
4.22694e-10
-8.90928e-10
3.85763e-10
-9.77128e-10
3.51515e-10
-1.02566e-09
3.26654e-10
-9.8853e-10
3.15227e-10
-8.58807e-10
3.45129e-10
-6.46308e-10
4.46631e-10
-3.86849e-10
5.61098e-10
-1.02823e-10
6.13401e-10
1.11305e-10
6.40142e-10
2.46701e-10
6.69166e-10
3.67544e-10
7.07886e-10
4.94422e-10
6.54678e-10
6.31145e-10
4.68381e-10
7.54239e-10
3.06365e-10
8.51974e-10
2.12526e-10
8.8698e-10
1.10484e-10
9.4451e-10
-8.29233e-12
1.06546e-09
-1.08746e-10
1.17075e-09
-1.20126e-10
1.25471e-09
-4.033e-11
1.29695e-09
6.77308e-11
1.31679e-09
1.98565e-10
1.32306e-09
3.99013e-10
1.25807e-09
4.88789e-10
1.15593e-09
3.92139e-10
1.27989e-09
3.264e-10
1.33136e-09
3.0286e-10
1.39303e-09
2.44602e-10
1.53137e-09
1.33973e-10
1.69929e-09
7.57223e-11
1.95225e-09
3.44019e-11
2.12107e-09
1.48771e-15
2.10662e-09
-1.94418e-17
8.5326e-19
-1.86311e-17
-1.28445e-18
-1.76798e-17
-3.45708e-18
-1.64711e-17
-5.45562e-18
-1.502e-17
-7.19723e-18
-1.33783e-17
-8.6308e-18
-1.16106e-17
-9.72587e-18
-9.78283e-18
-1.04727e-17
-7.9549e-18
-1.08809e-17
-6.18265e-18
-1.09744e-17
-4.51249e-18
-1.079e-17
-2.97943e-18
-1.03715e-17
-1.60381e-18
-9.7668e-18
-3.95577e-19
-9.02408e-18
6.38536e-19
-8.18764e-18
1.49966e-18
-7.29625e-18
2.19772e-18
-6.38291e-18
2.74634e-18
-5.47536e-18
3.1603e-18
-4.59546e-18
3.45459e-18
-3.75883e-18
3.64375e-18
-2.97584e-18
3.74191e-18
-2.25286e-18
3.76293e-18
-1.59313e-18
3.71935e-18
-9.97433e-19
3.62181e-18
-4.6477e-19
3.47962e-18
7.26111e-21
3.30142e-18
4.22182e-19
3.09477e-18
7.84308e-19
2.86552e-18
1.0983e-18
2.61797e-18
1.36873e-18
2.35558e-18
1.59982e-18
2.0814e-18
1.79529e-18
1.79807e-18
1.95848e-18
1.50768e-18
2.09237e-18
1.2119e-18
2.19961e-18
9.12111e-19
2.28249e-18
6.09464e-19
2.34287e-18
3.04962e-19
2.38214e-18
2.40129e-18
2.00924e-10
-5.161e-09
3.33112e-10
-4.24132e-09