/*--------------------------------*- C++ -*----------------------------------*\
  =========                 |
  \\      /  F ield         | OpenFOAM: The Open Source CFD Toolbox
   \\    /   O peration     | Website:  https://openfoam.org
    \\  /    A nd           | Version:  6
     \\/     M anipulation  |
\*---------------------------------------------------------------------------*/
FoamFile
{
    version     2.0;
    format      ascii;
    class       volVectorField;
    location    "2100";
    object      U;
}
// * * * * * * * * * * * * * * * * * * * * * * * * * * * * * * * * * * * * * //

dimensions      [0 1 -1 0 0 0 0];

internalField   nonuniform List<vector> 
4800
(
(-0.000727951 0 0.000270986)
(0.000716336 0 -0.000299982)
(0.00079603 0 -0.000607303)
(0.00118502 0 -0.000495493)
(0.00136293 0 -0.000402002)
(0.00142335 0 -0.000291503)
(0.00155207 0 -0.000226888)
(0.00167695 0 -0.000172029)
(0.00165282 0 -0.000168229)
(0.00159848 0 -0.000102319)
(0.00153065 0 -5.10285e-05)
(0.00146311 0 -4.84414e-05)
(0.00141417 0 -2.99256e-05)
(0.00139502 0 -4.83799e-05)
(0.00138977 0 -4.56862e-05)
(0.00138997 0 -3.35019e-05)
(0.00139339 0 -5.49855e-05)
(0.00139702 0 -6.40785e-05)
(0.00140011 0 -7.54006e-05)
(0.00140805 0 -8.57952e-05)
(0.00141816 0 -8.59498e-05)
(0.00141785 0 -8.61929e-05)
(0.00141528 0 -8.6448e-05)
(0.00141011 0 -6.77576e-05)
(0.00141154 0 -5.42392e-05)
(0.00142592 0 -4.18967e-05)
(0.00144853 0 -5.52366e-05)
(0.00147101 0 -4.41491e-05)
(0.0014941 0 -6.55768e-05)
(0.00152134 0 -0.000102136)
(0.00154119 0 -0.000102511)
(0.00154306 0 -9.52833e-05)
(0.00154375 0 -9.01306e-05)
(0.00155064 0 -8.50286e-05)
(0.00156905 0 -8.53216e-05)
(0.00159626 0 -8.16069e-05)
(0.0016256 0 -8.83209e-05)
(0.00165869 0 -8.13923e-05)
(0.00169668 0 -8.28039e-05)
(0.0017419 0 -4.20943e-05)
(0.00178526 0 -7.08039e-05)
(0.00183492 0 -6.88212e-05)
(0.00189275 0 -5.78462e-05)
(0.00193839 0 -5.60757e-05)
(0.00197227 0 -5.54595e-05)
(0.00199172 0 -5.79211e-05)
(0.00199101 0 -5.50922e-05)
(0.00199327 0 -5.22232e-05)
(0.00200378 0 -3.70676e-05)
(0.00201729 0 -5.04147e-05)
(0.00203651 0 -5.58554e-05)
(0.00207384 0 -9.72126e-06)
(0.00211153 0 -3.06953e-05)
(0.00211163 0 -4.08158e-05)
(0.00212223 0 -3.80669e-05)
(0.00212503 0 -3.26594e-05)
(0.00210584 0 -3.21272e-05)
(0.00206278 0 -4.11935e-05)
(0.00200787 0 -3.39411e-05)
(0.00195176 0 -3.42773e-05)
(0.00189961 0 -2.48507e-05)
(0.00184613 0 -4.37284e-05)
(0.00179511 0 3.03155e-05)
(0.00174341 0 -1.55934e-05)
(0.0016755 0 2.30097e-05)
(0.00160142 0 -3.7144e-05)
(0.00154643 0 -1.31242e-05)
(0.00149216 0 -2.43103e-05)
(0.00142256 0 1.52278e-05)
(0.00133659 0 -1.77201e-06)
(0.00123879 0 -9.73079e-06)
(0.00113547 0 1.02023e-06)
(0.00101522 0 8.86074e-05)
(0.00087144 0 3.00776e-05)
(0.000697833 0 0.000125377)
(0.000602449 0 -2.10702e-05)
(0.000490809 0 0.000180759)
(0.000421675 0 -8.40322e-05)
(0.00027755 0 -5.22412e-05)
(-9.90618e-05 0 -6.47054e-05)
(1.2651e-07 0 -8.83303e-05)
(-2.02976e-12 0 -1.53469e-13)
(-3.95502e-12 0 -3.126e-14)
(-3.89802e-12 0 -2.53009e-14)
(-3.82675e-12 0 -4.52058e-14)
(-3.71119e-12 0 -6.96901e-14)
(-3.54782e-12 0 -9.28681e-14)
(-3.34111e-12 0 -1.12787e-13)
(-3.09843e-12 0 -1.28736e-13)
(-2.8278e-12 0 -1.40589e-13)
(-2.53757e-12 0 -1.48341e-13)
(-2.23562e-12 0 -1.52227e-13)
(-1.92923e-12 0 -1.52638e-13)
(-1.62527e-12 0 -1.49934e-13)
(-1.32977e-12 0 -1.44437e-13)
(-1.04745e-12 0 -1.36641e-13)
(-7.82041e-13 0 -1.27188e-13)
(-5.36863e-13 0 -1.16539e-13)
(-3.1454e-13 0 -1.04924e-13)
(-1.16262e-13 0 -9.26929e-14)
(5.77698e-14 0 -8.04012e-14)
(2.07346e-13 0 -6.84292e-14)
(3.3239e-13 0 -5.67909e-14)
(4.33749e-13 0 -4.54238e-14)
(5.13042e-13 0 -3.44782e-14)
(5.7181e-13 0 -2.42259e-14)
(6.11218e-13 0 -1.48229e-14)
(6.32462e-13 0 -6.26722e-15)
(6.37064e-13 0 1.47738e-15)
(6.26749e-13 0 8.41077e-15)
(6.03263e-13 0 1.45358e-14)
(5.68336e-13 0 1.99003e-14)
(5.23635e-13 0 2.45721e-14)
(4.70611e-13 0 2.85915e-14)
(4.10408e-13 0 3.19613e-14)
(3.4399e-13 0 3.46782e-14)
(2.72405e-13 0 3.67697e-14)
(1.9694e-13 0 3.83068e-14)
(1.19003e-13 0 3.93806e-14)
(3.97967e-14 0 4.00578e-14)
(-0.000302814 0 -0.000474116)
(0.00077879 0 -0.000406262)
(0.000667946 0 -0.00112139)
(0.00132467 0 0.000223221)
(0.0013657 0 -6.59374e-05)
(0.00139485 0 -0.000161297)
(0.00150261 0 -0.000123755)
(0.00156182 0 0.000116125)
(0.00154733 0 0.00015093)
(0.00151276 0 0.00015801)
(0.00145404 0 0.000117603)
(0.00140082 0 6.48078e-05)
(0.00136586 0 2.84408e-05)
(0.00132861 0 3.68423e-05)
(0.00128621 0 4.5438e-05)
(0.00125942 0 -2.56212e-06)
(0.00124874 0 -4.45027e-06)
(0.00123867 0 1.70771e-05)
(0.00123381 0 3.73646e-05)
(0.00123904 0 4.37639e-05)
(0.00124475 0 6.84464e-05)
(0.00124271 0 7.43396e-05)
(0.00123679 0 8.04366e-05)
(0.00122691 0 6.70449e-05)
(0.00121763 0 1.2946e-05)
(0.00121702 0 -1.32291e-05)
(0.0012192 0 -1.21608e-05)
(0.0012281 0 -2.71834e-05)
(0.00125076 0 -2.3654e-05)
(0.00128366 0 2.29742e-06)
(0.00131185 0 2.11685e-05)
(0.00133342 0 6.61036e-05)
(0.00134551 0 5.81938e-05)
(0.00134972 0 3.91423e-05)
(0.00135377 0 1.96703e-05)
(0.00136268 0 1.21792e-05)
(0.0013772 0 2.37688e-07)
(0.00139937 0 -1.11926e-05)
(0.00142615 0 -3.12904e-05)
(0.00145714 0 -5.89681e-05)
(0.00149436 0 -5.73083e-05)
(0.00153008 0 -6.50831e-05)
(0.00156289 0 -4.91196e-05)
(0.00159039 0 -4.08961e-05)
(0.00162325 0 -7.9999e-06)
(0.00166424 0 4.43732e-05)
(0.00168939 0 3.83722e-05)
(0.00170666 0 2.34208e-05)
(0.00172691 0 2.32347e-05)
(0.00174845 0 2.28215e-05)
(0.00177823 0 -1.39984e-05)
(0.00182053 0 -1.81954e-05)
(0.00185098 0 3.46043e-05)
(0.00187339 0 -5.78023e-06)
(0.00192296 0 -1.64982e-05)
(0.00196044 0 7.16225e-05)
(0.00194862 0 8.48217e-05)
(0.00192266 0 0.000104523)
(0.00189099 0 0.000109588)
(0.0018573 0 0.000109453)
(0.0018116 0 0.000156342)
(0.001754 0 0.000136448)
(0.0016911 0 0.000107239)
(0.00161321 0 0.000156971)
(0.00153109 0 0.000115912)
(0.00148083 0 5.77178e-05)
(0.00145152 0 0.000120411)
(0.00141034 0 0.000110607)
(0.00134077 0 0.000144151)
(0.00126149 0 0.000148008)
(0.00116645 0 0.000220024)
(0.00107638 0 0.000167241)
(0.000961058 0 0.000185729)
(0.000817787 0 0.000212019)
(0.00069371 0 0.000183138)
(0.000560469 0 0.00020626)
(0.000487244 0 8.85332e-05)
(0.000400405 0 0.000197667)
(0.000234733 0 0.0003027)
(0.000268053 0 8.713e-05)
(4.15412e-07 0 0.000120422)
(-2.08655e-12 0 9.13508e-14)
(-3.82643e-12 0 2.25655e-14)
(-3.91155e-12 0 -5.00513e-14)
(-3.87074e-12 0 -1.30696e-13)
(-3.75847e-12 0 -2.09905e-13)
(-3.5906e-12 0 -2.81363e-13)
(-3.37686e-12 0 -3.41827e-13)
(-3.12624e-12 0 -3.89889e-13)
(-2.8474e-12 0 -4.25375e-13)
(-2.54921e-12 0 -4.4848e-13)
(-2.23991e-12 0 -4.59891e-13)
(-1.92694e-12 0 -4.60661e-13)
(-1.61707e-12 0 -4.51973e-13)
(-1.31647e-12 0 -4.35076e-13)
(-1.0302e-12 0 -4.11443e-13)
(-7.61939e-13 0 -3.82692e-13)
(-5.14599e-13 0 -3.50233e-13)
(-2.90694e-13 0 -3.15178e-13)
(-9.17398e-14 0 -2.78631e-13)
(8.20335e-14 0 -2.41717e-13)
(2.30956e-13 0 -2.05253e-13)
(3.55395e-13 0 -1.69663e-13)
(4.56061e-13 0 -1.35268e-13)
(5.3424e-13 0 -1.02525e-13)
(5.91465e-13 0 -7.19149e-14)
(6.29177e-13 0 -4.37316e-14)
(6.48763e-13 0 -1.80525e-14)
(6.51742e-13 0 5.15167e-15)
(6.39808e-13 0 2.59314e-14)
(6.14753e-13 0 4.43486e-14)
(5.78373e-13 0 6.04897e-14)
(5.32326e-13 0 7.44615e-14)
(4.78e-13 0 8.63787e-14)
(4.16495e-13 0 9.63539e-14)
(3.48799e-13 0 1.04492e-13)
(2.76034e-13 0 1.10897e-13)
(1.9955e-13 0 1.15682e-13)
(1.20754e-13 0 1.18949e-13)
(4.04739e-14 0 1.20686e-13)
(-0.000329339 0 -0.00105373)
(0.000750432 0 -0.000905959)
(0.000952487 0 -0.000614944)
(0.000754996 0 -0.000795623)
(0.000975791 0 -0.000425006)
(0.00106749 0 -0.000300053)
(0.00114293 0 -0.000137641)
(0.00115999 0 -0.000130051)
(0.00121958 0 -6.44781e-05)
(0.0012693 0 7.86994e-05)
(0.00126876 0 0.000116138)
(0.0012577 0 0.000126279)
(0.00121474 0 0.000143971)
(0.001147 0 0.000112782)
(0.00110924 0 5.31402e-05)
(0.00109601 0 4.06535e-05)
(0.00107635 0 3.32986e-05)
(0.00104271 0 1.00249e-05)
(0.0010128 0 -3.05833e-05)
(0.00100751 0 -4.71103e-05)
(0.00100801 0 -5.16032e-05)
(0.00101243 0 -4.46941e-05)
(0.00102171 0 -2.42068e-05)
(0.00103454 0 -1.70526e-05)
(0.00104126 0 -2.47372e-05)
(0.00103996 0 -2.58908e-05)
(0.00103505 0 -3.56001e-05)
(0.00102991 0 -4.59319e-05)
(0.00102334 0 -5.74276e-05)
(0.00101762 0 -6.80812e-05)
(0.00101884 0 -7.08496e-05)
(0.00103301 0 -6.54428e-05)
(0.00105424 0 -5.57595e-05)
(0.0010679 0 -5.56538e-05)
(0.00108113 0 -6.34734e-05)
(0.00110256 0 -6.60517e-05)
(0.00112053 0 -8.57258e-05)
(0.00113438 0 -9.07025e-05)
(0.00114915 0 -9.50404e-05)
(0.00116697 0 -8.94378e-05)
(0.00117929 0 -0.000100674)
(0.00118768 0 -0.000113687)
(0.00119925 0 -0.000101367)
(0.00120859 0 -0.000102905)
(0.00122804 0 -9.44806e-05)
(0.0012619 0 -7.16336e-05)
(0.0012912 0 -8.85333e-05)
(0.00132821 0 -8.65566e-05)
(0.00137677 0 -7.126e-05)
(0.00140838 0 -0.000111189)
(0.00145561 0 -0.000123629)
(0.00154386 0 -0.000118378)
(0.00158562 0 -0.000105105)
(0.00160943 0 -9.61857e-05)
(0.00168013 0 -6.90971e-05)
(0.0017223 0 -1.69537e-05)
(0.00170918 0 -5.96807e-06)
(0.00168572 0 1.80462e-05)
(0.00166586 0 3.49127e-05)
(0.00164032 0 8.26773e-05)
(0.00159636 0 8.25067e-05)
(0.00154746 0 4.79958e-05)
(0.00150279 0 0.000121473)
(0.00144385 0 0.000117068)
(0.00136628 0 9.55293e-05)
(0.00131645 0 0.000129704)
(0.00128731 0 0.000115051)
(0.00124627 0 0.000101413)
(0.00119438 0 0.000125313)
(0.00112918 0 0.00016457)
(0.00105256 0 0.000197105)
(0.000975832 0 0.000206362)
(0.000870296 0 0.000289642)
(0.000756544 0 0.000312902)
(0.000607596 0 0.000377287)
(0.000567805 0 0.000213495)
(0.000450941 0 0.000222964)
(0.000387429 0 0.000242991)
(0.00028935 0 0.000304775)
(0.000221216 0 0.000303562)
(-9.33927e-08 0 0.000229585)
(-2.10744e-12 0 2.05256e-13)
(-4.09549e-12 0 8.04897e-14)
(-4.05041e-12 0 -6.70472e-14)
(-3.98579e-12 0 -2.17651e-13)
(-3.8611e-12 0 -3.57853e-13)
(-3.67913e-12 0 -4.80796e-13)
(-3.44941e-12 0 -5.83208e-13)
(-3.18198e-12 0 -6.63804e-13)
(-2.88639e-12 0 -7.22646e-13)
(-2.57209e-12 0 -7.60367e-13)
(-2.2478e-12 0 -7.78271e-13)
(-1.92132e-12 0 -7.78161e-13)
(-1.59969e-12 0 -7.62124e-13)
(-1.28924e-12 0 -7.32464e-13)
(-9.95067e-13 0 -6.91733e-13)
(-7.20831e-13 0 -6.42513e-13)
(-4.69348e-13 0 -5.87084e-13)
(-2.42938e-13 0 -5.27428e-13)
(-4.28012e-14 0 -4.65425e-13)
(1.31148e-13 0 -4.02783e-13)
(2.794e-13 0 -3.40828e-13)
(4.02375e-13 0 -2.80539e-13)
(5.00886e-13 0 -2.2271e-13)
(5.76396e-13 0 -1.68034e-13)
(6.30604e-13 0 -1.17053e-13)
(6.6508e-13 0 -7.01126e-14)
(6.81346e-13 0 -2.73555e-14)
(6.81048e-13 0 1.12338e-14)
(6.65946e-13 0 4.57594e-14)
(6.37822e-13 0 7.6349e-14)
(5.98449e-13 0 1.03136e-13)
(5.49524e-13 0 1.26288e-13)
(4.92503e-13 0 1.46023e-13)
(4.28522e-13 0 1.62579e-13)
(3.58534e-13 0 1.76155e-13)
(2.83594e-13 0 1.86895e-13)
(2.04992e-13 0 1.94901e-13)
(1.24008e-13 0 2.00223e-13)
(4.1534e-14 0 2.02805e-13)
(0.000387501 0 -0.00128136)
(0.000279186 0 -0.00121572)
(0.000325858 0 -0.00101606)
(0.000497363 0 -0.000637873)
(0.000638299 0 -0.000422771)
(0.000713628 0 -0.000314764)
(0.000768606 0 -0.000200706)
(0.000809957 0 -9.76647e-05)
(0.000846763 0 1.07009e-06)
(0.000884302 0 5.50496e-05)
(0.000939924 0 0.000102011)
(0.000945817 0 0.000134182)
(0.000924654 0 0.000126683)
(0.000910459 0 7.99089e-05)
(0.000916103 0 6.90329e-05)
(0.000914494 0 5.62303e-05)
(0.000908489 0 4.12031e-05)
(0.000902495 0 2.92177e-05)
(0.000896127 0 1.09633e-05)
(0.000884469 0 8.31869e-06)
(0.000866354 0 1.65892e-05)
(0.000845673 0 8.73441e-06)
(0.000842285 0 6.62605e-06)
(0.000843149 0 6.67839e-06)
(0.000842914 0 5.00837e-06)
(0.000841571 0 -6.40667e-06)
(0.000841624 0 -1.50539e-05)
(0.000841404 0 -1.98855e-05)
(0.000839907 0 -2.72364e-05)
(0.000836576 0 -3.27956e-05)
(0.000835691 0 -3.10683e-05)
(0.000839908 0 -2.43086e-05)
(0.000850779 0 -2.39783e-05)
(0.0008618 0 -3.31836e-05)
(0.000867585 0 -4.88725e-05)
(0.000876334 0 -4.76674e-05)
(0.000884917 0 -5.25974e-05)
(0.000890081 0 -6.63024e-05)
(0.000896198 0 -6.90516e-05)
(0.000906131 0 -6.72469e-05)
(0.000908879 0 -7.72166e-05)
(0.000912191 0 -7.79071e-05)
(0.000915936 0 -7.16041e-05)
(0.000920312 0 -8.72895e-05)
(0.000937948 0 -4.58768e-05)
(0.000957246 0 -2.47987e-05)
(0.000976804 0 -6.56109e-05)
(0.00100833 0 -8.24241e-05)
(0.00106771 0 -3.72476e-05)
(0.00112275 0 -0.000140067)
(0.00118338 0 -0.00020903)
(0.00128337 0 -2.72341e-05)
(0.00137701 0 -7.42331e-05)
(0.00142082 0 -0.00035685)
(0.0015149 0 -7.78068e-05)
(0.00151826 0 6.80327e-05)
(0.00151204 0 9.47884e-05)
(0.0014966 0 0.000101514)
(0.00146211 0 0.000165987)
(0.00142146 0 0.000182673)
(0.00138923 0 0.000130862)
(0.0013566 0 0.000152978)
(0.00130923 0 0.000223955)
(0.00126035 0 0.00020994)
(0.00122213 0 0.000164986)
(0.00117373 0 0.000185797)
(0.0011029 0 0.000212658)
(0.00105483 0 0.000155001)
(0.00102084 0 0.000198596)
(0.000971566 0 0.000254375)
(0.000906417 0 0.000280791)
(0.000828145 0 0.000339296)
(0.000726872 0 0.00042246)
(0.000624711 0 0.000460932)
(0.000567675 0 0.000409994)
(0.000464398 0 0.00040295)
(0.000450003 0 0.000280691)
(0.000355912 0 0.000317301)
(0.000309889 0 0.000352812)
(0.000259509 0 0.000377593)
(3.543e-07 0 0.000366518)
(-2.24318e-12 0 3.29364e-13)
(-4.09776e-12 0 1.61215e-13)
(-4.20879e-12 0 -8.139e-14)
(-4.16073e-12 0 -3.15603e-13)
(-4.02087e-12 0 -5.23804e-13)
(-3.81538e-12 0 -7.01504e-13)
(-3.55967e-12 0 -8.47116e-13)
(-3.26567e-12 0 -9.60328e-13)
(-2.94397e-12 0 -1.04179e-12)
(-2.60484e-12 0 -1.09273e-12)
(-2.25771e-12 0 -1.11524e-12)
(-1.91079e-12 0 -1.11216e-12)
(-1.57137e-12 0 -1.08662e-12)
(-1.24608e-12 0 -1.0419e-12)
(-9.40251e-13 0 -9.8157e-13)
(-6.5729e-13 0 -9.09413e-13)
(-3.99513e-13 0 -8.28795e-13)
(-1.69035e-13 0 -7.42451e-13)
(3.29052e-14 0 -6.52938e-13)
(2.06631e-13 0 -5.62794e-13)
(3.532e-13 0 -4.7415e-13)
(4.73513e-13 0 -3.88476e-13)
(5.68566e-13 0 -3.06749e-13)
(6.39897e-13 0 -2.29742e-13)
(6.89387e-13 0 -1.58098e-13)
(7.18874e-13 0 -9.22633e-14)
(7.30109e-13 0 -3.24314e-14)
(7.24857e-13 0 2.14261e-14)
(7.04923e-13 0 6.94808e-14)
(6.7213e-13 0 1.11982e-13)
(6.28311e-13 0 1.49216e-13)
(5.75213e-13 0 1.81478e-13)
(5.14291e-13 0 2.09045e-13)
(4.46627e-13 0 2.32152e-13)
(3.73114e-13 0 2.50999e-13)
(2.94779e-13 0 2.65786e-13)
(2.12879e-13 0 2.76708e-13)
(1.28659e-13 0 2.83898e-13)
(4.3056e-14 0 2.87433e-13)
(-0.000216839 0 -0.00151897)
(0.000315259 0 -0.00128735)
(0.000413938 0 -0.000874069)
(0.000305821 0 -0.000663031)
(0.000443512 0 -0.000447708)
(0.000532039 0 -0.000309733)
(0.000529333 0 -0.00019701)
(0.000539764 0 -0.000104421)
(0.000559029 0 -7.88585e-05)
(0.000608717 0 -1.46807e-05)
(0.000688521 0 8.56079e-05)
(0.000725446 0 0.000123836)
(0.000722103 0 0.000114992)
(0.000732857 0 9.9446e-05)
(0.000761575 0 7.11165e-05)
(0.00077666 0 3.38617e-05)
(0.000773446 0 2.95516e-05)
(0.000766508 0 2.95773e-05)
(0.000758421 0 2.32003e-05)
(0.000746057 0 2.39725e-05)
(0.000723128 0 2.24678e-05)
(0.000693961 0 9.73514e-06)
(0.000690873 0 1.11521e-05)
(0.000692842 0 1.80303e-06)
(0.000694509 0 -1.72108e-05)
(0.00069873 0 -2.26595e-05)
(0.000707829 0 -1.99502e-05)
(0.000710734 0 -3.3057e-05)
(0.00071041 0 -3.95059e-05)
(0.000711415 0 -3.94113e-05)
(0.000710602 0 -5.14343e-05)
(0.00070896 0 -5.3836e-05)
(0.000706574 0 -5.58892e-05)
(0.000705454 0 -4.99274e-05)
(0.000700994 0 -6.49367e-05)
(0.000701101 0 -7.09945e-05)
(0.000703275 0 -8.12509e-05)
(0.000708562 0 -8.62273e-05)
(0.000705793 0 -0.000111887)
(0.000709946 0 -0.000108231)
(0.000708064 0 -0.000120263)
(0.00071569 0 -9.77793e-05)
(0.000716443 0 -0.000125044)
(0.000728627 0 -0.000141253)
(0.000767973 0 -0.000129534)
(0.000767308 0 -0.000133925)
(0.000777492 0 -0.00014062)
(0.00080518 0 -0.000155808)
(0.00085053 0 -0.000162859)
(0.000913117 0 -0.000185472)
(0.000985965 0 -0.00027203)
(0.00108125 0 -0.000344156)
(0.00122249 0 -0.000208752)
(0.00125579 0 -0.000117445)
(0.00126 0 -0.000126835)
(0.0012672 0 -5.99097e-05)
(0.00127489 0 2.54258e-05)
(0.00126743 0 7.30985e-05)
(0.00124262 0 0.00010148)
(0.00122501 0 9.40905e-05)
(0.0011999 0 0.00021644)
(0.00116971 0 0.000260177)
(0.00111673 0 0.000287722)
(0.00107955 0 0.000264256)
(0.00104737 0 0.000302611)
(0.00100066 0 0.000312865)
(0.000934597 0 0.000252933)
(0.000872938 0 0.000274776)
(0.000825167 0 0.000341059)
(0.000761603 0 0.000395938)
(0.000733438 0 0.000362535)
(0.00067235 0 0.000420253)
(0.000580623 0 0.000505768)
(0.000522174 0 0.000523616)
(0.000490818 0 0.000465103)
(0.000449548 0 0.000403557)
(0.000420067 0 0.000371116)
(0.000347855 0 0.000386208)
(0.000279916 0 0.000438162)
(0.000206136 0 0.000488364)
(1.49942e-07 0 0.000496792)
(-2.38293e-12 0 9.32451e-13)
(-4.50521e-12 0 3.16142e-13)
(-4.52631e-12 0 -1.04225e-13)
(-4.42739e-12 0 -4.39769e-13)
(-4.24628e-12 0 -7.20505e-13)
(-4.00191e-12 0 -9.5447e-13)
(-3.70807e-12 0 -1.14358e-12)
(-3.37666e-12 0 -1.28879e-12)
(-3.01879e-12 0 -1.39147e-12)
(-2.64554e-12 0 -1.45358e-12)
(-2.26722e-12 0 -1.47805e-12)
(-1.8927e-12 0 -1.4688e-12)
(-1.52944e-12 0 -1.43031e-12)
(-1.18418e-12 0 -1.36704e-12)
(-8.62578e-13 0 -1.28362e-12)
(-5.68055e-13 0 -1.185e-12)
(-3.02385e-13 0 -1.07591e-12)
(-6.70816e-14 0 -9.60236e-13)
(1.36856e-13 0 -8.41241e-13)
(3.09937e-13 0 -7.21963e-13)
(4.53718e-13 0 -6.05108e-13)
(5.69776e-13 0 -4.92721e-13)
(6.5962e-13 0 -3.86138e-13)
(7.25047e-13 0 -2.86217e-13)
(7.68082e-13 0 -1.93586e-13)
(7.90747e-13 0 -1.08693e-13)
(7.95035e-13 0 -3.17555e-14)
(7.8296e-13 0 3.72911e-14)
(7.56502e-13 0 9.87471e-14)
(7.17557e-13 0 1.53036e-13)
(6.67945e-13 0 2.00586e-13)
(6.09353e-13 0 2.41757e-13)
(5.43176e-13 0 2.76842e-13)
(4.70476e-13 0 3.06105e-13)
(3.92168e-13 0 3.29845e-13)
(3.09303e-13 0 3.48405e-13)
(2.23104e-13 0 3.62104e-13)
(1.34734e-13 0 3.71157e-13)
(4.50689e-14 0 3.75668e-13)
(7.63419e-05 0 -0.00164741)
(0.00022039 0 -0.00136417)
(0.000128837 0 -0.000947885)
(0.000283466 0 -0.000624102)
(0.000290173 0 -0.000489503)
(0.00043484 0 -0.000298147)
(0.000443245 0 -0.000203431)
(0.000458839 0 -0.000148077)
(0.000507868 0 -7.0096e-05)
(0.000573721 0 -0.000159621)
(0.000641917 0 8.58327e-05)
(0.000652967 0 0.000120761)
(0.000657102 0 8.60085e-05)
(0.000663947 0 6.7515e-05)
(0.000676652 0 5.73649e-05)
(0.000682527 0 4.57246e-05)
(0.000676794 0 4.59268e-05)
(0.000660383 0 4.79359e-05)
(0.000644617 0 3.9406e-05)
(0.000634916 0 3.78336e-05)
(0.000619795 0 3.84987e-05)
(0.000593308 0 1.89414e-05)
(0.000587391 0 7.07852e-06)
(0.000591415 0 2.85615e-07)
(0.000599438 0 -1.82191e-05)
(0.000610696 0 -3.55952e-05)
(0.00061682 0 -4.50189e-05)
(0.000614818 0 -4.60203e-05)
(0.000604822 0 -4.79352e-05)
(0.000593325 0 -4.33026e-05)
(0.000585121 0 -3.96442e-05)
(0.000576831 0 -3.50202e-05)
(0.000566295 0 -3.15294e-05)
(0.000554471 0 -4.21337e-05)
(0.000549973 0 -4.59062e-05)
(0.000547754 0 -6.03658e-05)
(0.0005448 0 -7.22921e-05)
(0.000541031 0 -8.49117e-05)
(0.000531196 0 -9.77013e-05)
(0.000531206 0 -8.79948e-05)
(0.00052234 0 -9.47615e-05)
(0.000524309 0 -9.35894e-05)
(0.000511173 0 -0.000117718)
(0.000521959 0 -0.000119772)
(0.000582054 0 -2.46999e-05)
(0.00057964 0 -0.000155369)
(0.000600652 0 -0.000173421)
(0.000646366 0 -0.00017383)
(0.000700773 0 -0.000202911)
(0.000745786 0 -0.000310715)
(0.000840913 0 -0.000346317)
(0.000962212 0 -0.000204781)
(0.00100373 0 -0.000166784)
(0.000945582 0 -0.000457304)
(0.00104563 0 -7.50606e-05)
(0.00105363 0 1.72622e-05)
(0.00104029 0 7.64069e-05)
(0.00102221 0 0.000141661)
(0.00102113 0 8.07022e-05)
(0.000993487 0 0.00023914)
(0.000983126 0 0.000262777)
(0.000955578 0 0.000268329)
(0.000916133 0 0.000265128)
(0.000919164 0 0.000244317)
(0.000916189 0 0.000238052)
(0.000889142 0 0.000229244)
(0.000822623 0 0.000213462)
(0.000705287 0 0.000328421)
(0.000685454 0 0.000339177)
(0.000681642 0 0.000318466)
(0.000611247 0 0.000377369)
(0.000472345 0 0.000528952)
(0.000437986 0 0.0005683)
(0.000424115 0 0.000563324)
(0.000420189 0 0.00049468)
(0.000405661 0 0.000440431)
(0.000338621 0 0.000464392)
(0.000275748 0 0.000478149)
(0.000198783 0 0.000519177)
(0.000160386 0 0.000579385)
(-4.0643e-07 0 0.000607705)
(-2.54485e-12 0 8.94994e-13)
(-5.13327e-12 0 2.75073e-13)
(-4.96374e-12 0 -2.11451e-13)
(-4.77619e-12 0 -6.18366e-13)
(-4.53488e-12 0 -9.63545e-13)
(-4.23797e-12 0 -1.25168e-12)
(-3.89387e-12 0 -1.48344e-12)
(-3.51356e-12 0 -1.65943e-12)
(-3.10876e-12 0 -1.78125e-12)
(-2.69141e-12 0 -1.85154e-12)
(-2.27293e-12 0 -1.87421e-12)
(-1.86305e-12 0 -1.85443e-12)
(-1.46961e-12 0 -1.79816e-12)
(-1.09939e-12 0 -1.71149e-12)
(-7.58217e-13 0 -1.60041e-12)
(-4.49587e-13 0 -1.47114e-12)
(-1.74748e-13 0 -1.32972e-12)
(6.56366e-14 0 -1.18129e-12)
(2.71179e-13 0 -1.02999e-12)
(4.42764e-13 0 -8.79347e-13)
(5.82442e-13 0 -7.32471e-13)
(6.92484e-13 0 -5.91846e-13)
(7.7507e-13 0 -4.59183e-13)
(8.32449e-13 0 -3.35525e-13)
(8.66911e-13 0 -2.21487e-13)
(8.80705e-13 0 -1.1741e-13)
(8.76093e-13 0 -2.33787e-14)
(8.5536e-13 0 6.07941e-14)
(8.20668e-13 0 1.35529e-13)
(7.73968e-13 0 2.01362e-13)
(7.17033e-13 0 2.58826e-13)
(6.51468e-13 0 3.08381e-13)
(5.78639e-13 0 3.50432e-13)
(4.99631e-13 0 3.85387e-13)
(4.15414e-13 0 4.13703e-13)
(3.27038e-13 0 4.35854e-13)
(2.35631e-13 0 4.52234e-13)
(1.42223e-13 0 4.63083e-13)
(4.75667e-14 0 4.68508e-13)
(-0.00016051 0 -0.00171611)
(8.32237e-05 0 -0.0013795)
(0.000138985 0 -0.000928051)
(0.000253946 0 -0.000655703)
(0.000336247 0 -0.000489926)
(0.000378993 0 -0.000453234)
(0.000480118 0 -0.000278661)
(0.000513602 0 -0.000234484)
(0.000572401 0 -0.000143542)
(0.000634065 0 -3.48747e-05)
(0.000667583 0 2.23668e-05)
(0.000679608 0 8.48274e-05)
(0.000677872 0 9.37825e-05)
(0.000668153 0 6.81348e-05)
(0.000634769 0 4.38319e-05)
(0.000612384 0 5.89646e-05)
(0.000602511 0 5.98004e-05)
(0.000588678 0 4.97282e-05)
(0.000574798 0 3.691e-05)
(0.000560125 0 4.89122e-05)
(0.000537868 0 7.0618e-05)
(0.000527568 0 3.30531e-05)
(0.000526111 0 1.32415e-06)
(0.000522342 0 -5.69767e-06)
(0.000516139 0 -2.21065e-05)
(0.000514984 0 -2.54696e-05)
(0.000511175 0 -1.90115e-05)
(0.000498127 0 -1.56734e-05)
(0.000477581 0 -1.86564e-05)
(0.000460339 0 -1.80613e-05)
(0.000445611 0 -2.36061e-05)
(0.000427801 0 -3.04731e-05)
(0.000407862 0 -2.74051e-05)
(0.000398471 0 -3.29331e-05)
(0.000392883 0 -5.00461e-05)
(0.000390135 0 -6.15645e-05)
(0.000387364 0 -6.65628e-05)
(0.000379662 0 -7.42112e-05)
(0.000362554 0 -9.11156e-05)
(0.000361279 0 -8.25734e-05)
(0.000349191 0 -0.000102523)
(0.000374994 0 -4.09402e-05)
(0.000339774 0 -0.0001685)
(0.000358388 0 -0.000147885)
(0.000396336 0 -0.000127797)
(0.000436169 0 -0.000155158)
(0.000475538 0 -0.000198202)
(0.000523907 0 -0.000234669)
(0.000591247 0 -0.000263165)
(0.000652944 0 -0.000332029)
(0.000650466 0 -0.000454316)
(0.000696645 0 -0.000414954)
(0.000770122 0 -0.000291748)
(0.000795026 0 -0.000199122)
(0.000784923 0 -0.000173248)
(0.000788226 0 -3.44034e-05)
(0.000782768 0 3.77711e-05)
(0.000783172 0 7.64422e-05)
(0.000767967 0 0.000180572)
(0.00076491 0 0.000213758)
(0.000753639 0 0.000263241)
(0.000742003 0 0.00027122)
(0.000732408 0 0.000303158)
(0.000717686 0 0.000350927)
(0.00069409 0 0.000370006)
(0.000624275 0 0.000419711)
(0.000592887 0 0.000365123)
(0.000536409 0 0.000380326)
(0.000491471 0 0.000435549)
(0.000492377 0 0.00043273)
(0.000411882 0 0.000503765)
(0.000359628 0 0.000561651)
(0.000365158 0 0.00056996)
(0.000316392 0 0.000586518)
(0.00033699 0 0.000525407)
(0.000363492 0 0.000469996)
(0.000260806 0 0.000524252)
(0.000195762 0 0.000551193)
(0.000152137 0 0.000576738)
(7.60411e-05 0 0.000654154)
(-2.97865e-07 0 0.000683082)
(-2.79835e-12 0 5.88461e-13)
(-5.61047e-12 0 1.00958e-13)
(-5.41877e-12 0 -3.97408e-13)
(-5.17868e-12 0 -8.57878e-13)
(-4.87893e-12 0 -1.26279e-12)
(-4.52136e-12 0 -1.60424e-12)
(-4.11575e-12 0 -1.87821e-12)
(-3.67447e-12 0 -2.08364e-12)
(-3.2109e-12 0 -2.22191e-12)
(-2.7385e-12 0 -2.29638e-12)
(-2.27011e-12 0 -2.31218e-12)
(-1.81665e-12 0 -2.27608e-12)
(-1.3865e-12 0 -2.19588e-12)
(-9.86438e-13 0 -2.07962e-12)
(-6.22226e-13 0 -1.93499e-12)
(-2.97359e-13 0 -1.76963e-12)
(-1.25327e-14 0 -1.59095e-12)
(2.3265e-13 0 -1.4054e-12)
(4.38796e-13 0 -1.21811e-12)
(6.0745e-13 0 -1.03319e-12)
(7.41219e-13 0 -8.54051e-13)
(8.43064e-13 0 -6.83488e-13)
(9.1594e-13 0 -5.23487e-13)
(9.62742e-13 0 -3.7524e-13)
(9.86198e-13 0 -2.39328e-13)
(9.88855e-13 0 -1.1593e-13)
(9.73239e-13 0 -4.92554e-15)
(9.41868e-13 0 9.40631e-14)
(8.9707e-13 0 1.81615e-13)
(8.40854e-13 0 2.58414e-13)
(7.74964e-13 0 3.25151e-13)
(7.00958e-13 0 3.82462e-13)
(6.20182e-13 0 4.30938e-13)
(5.33747e-13 0 4.7117e-13)
(4.42635e-13 0 5.03756e-13)
(3.47834e-13 0 5.29258e-13)
(2.50333e-13 0 5.48107e-13)
(1.51008e-13 0 5.60565e-13)
(5.04934e-14 0 5.6676e-13)
(-3.17362e-06 0 -0.00177525)
(0.000133546 0 -0.00144601)
(8.22002e-05 0 -0.000988976)
(0.000186789 0 -0.00085389)
(0.000491968 0 -0.000645043)
(0.000458894 0 -0.000629304)
(0.000593185 0 -0.000396188)
(0.000658234 0 -0.000298477)
(0.000700144 0 -0.000235622)
(0.000724875 0 -0.000199851)
(0.000743667 0 6.6116e-06)
(0.00074154 0 8.89821e-05)
(0.000722074 0 0.000121862)
(0.000684501 0 0.000117386)
(0.000628856 0 8.49405e-05)
(0.000573346 0 9.54082e-05)
(0.00055229 0 7.88357e-05)
(0.000539736 0 6.8047e-05)
(0.000520833 0 6.93831e-05)
(0.000484846 0 0.000109858)
(0.000470762 0 5.2817e-05)
(0.000472792 0 3.5226e-05)
(0.000470283 0 2.47694e-05)
(0.000455239 0 5.8358e-06)
(0.000421316 0 -1.97173e-05)
(0.000391594 0 -5.78787e-06)
(0.000370279 0 -1.28306e-05)
(0.000354435 0 -5.55002e-06)
(0.000342501 0 1.28788e-06)
(0.000329707 0 -4.30352e-06)
(0.000312149 0 -6.7875e-06)
(0.000292444 0 -5.13524e-06)
(0.000278603 0 -2.41826e-05)
(0.000280704 0 -2.47894e-05)
(0.000282655 0 -4.24008e-05)
(0.000282127 0 -5.38541e-05)
(0.000279115 0 -5.83018e-05)
(0.000270484 0 -6.56469e-05)
(0.000259914 0 -8.06985e-05)
(0.000257957 0 -8.68448e-05)
(0.000254986 0 -9.61807e-05)
(0.000254142 0 -0.000122564)
(0.000286886 0 -9.78958e-05)
(0.000259767 0 -0.000184634)
(0.000276476 0 -0.000201423)
(0.000330255 0 -0.000187694)
(0.000359821 0 -0.000235723)
(0.000405508 0 -0.000273328)
(0.000446264 0 -0.00032583)
(0.00050399 0 -0.0003625)
(0.000512977 0 -0.000415702)
(0.000509113 0 -0.000417755)
(0.000530555 0 -0.000361408)
(0.000556094 0 -0.000268924)
(0.000549753 0 -0.000145449)
(0.00054865 0 1.59911e-06)
(0.000530237 0 9.9797e-05)
(0.000522544 0 0.000140043)
(0.000518097 0 0.000183361)
(0.000521974 0 0.000235014)
(0.000510882 0 0.000283242)
(0.000505318 0 0.000291731)
(0.000509258 0 0.000303176)
(0.000510784 0 0.000320792)
(0.000499586 0 0.000331862)
(0.000514252 0 0.000290711)
(0.0004868 0 0.000317433)
(0.000464023 0 0.000353589)
(0.00040699 0 0.000440536)
(0.000337565 0 0.000518194)
(0.000262988 0 0.00057106)
(0.000254159 0 0.000590013)
(0.00020866 0 0.000605189)
(0.000264347 0 0.000564247)
(0.000320592 0 0.000504487)
(0.00028678 0 0.000517459)
(0.000291594 0 0.00053931)
(0.000252149 0 0.000580397)
(0.000206184 0 0.000623121)
(0.000109044 0 0.000701598)
(-1.32104e-07 0 0.000731861)
(-3.07969e-12 0 4.37962e-13)
(-6.11797e-12 0 -6.16404e-14)
(-5.92161e-12 0 -6.20512e-13)
(-5.6408e-12 0 -1.15227e-12)
(-5.28063e-12 0 -1.62483e-12)
(-4.853e-12 0 -2.02349e-12)
(-4.37323e-12 0 -2.34092e-12)
(-3.85727e-12 0 -2.57469e-12)
(-3.32149e-12 0 -2.72614e-12)
(-2.78168e-12 0 -2.79961e-12)
(-2.25263e-12 0 -2.80196e-12)
(-1.74674e-12 0 -2.74196e-12)
(-1.27314e-12 0 -2.62979e-12)
(-8.38509e-13 0 -2.47589e-12)
(-4.48234e-13 0 -2.2901e-12)
(-1.05548e-13 0 -2.08172e-12)
(1.89485e-13 0 -1.8596e-12)
(4.38477e-13 0 -1.63153e-12)
(6.43392e-13 0 -1.40376e-12)
(8.06824e-13 0 -1.18103e-12)
(9.3214e-13 0 -9.6705e-13)
(1.02305e-12 0 -7.64735e-13)
(1.08332e-12 0 -5.76157e-13)
(1.11661e-12 0 -4.02543e-13)
(1.12622e-12 0 -2.44407e-13)
(1.11511e-12 0 -1.01739e-13)
(1.08609e-12 0 2.58501e-14)
(1.0419e-12 0 1.39027e-13)
(9.8502e-13 0 2.38643e-13)
(9.17505e-13 0 3.25629e-13)
(8.4108e-13 0 4.009e-13)
(7.57256e-13 0 4.65309e-13)
(6.67347e-13 0 5.19646e-13)
(5.72449e-13 0 5.64663e-13)
(4.73502e-13 0 6.01078e-13)
(3.71389e-13 0 6.29524e-13)
(2.66938e-13 0 6.50482e-13)
(1.60876e-13 0 6.64262e-13)
(5.37624e-14 0 6.71055e-13)
(-0.000127667 0 -0.00183845)
(8.82837e-05 0 -0.00153306)
(0.000136367 0 -0.00113193)
(0.000246164 0 -0.000994218)
(0.000603513 0 -0.000716678)
(0.000452144 0 -0.000733744)
(0.000631482 0 -0.000461155)
(0.000682384 0 -0.000354654)
(0.000766507 0 -0.000211203)
(0.000796253 0 -9.12465e-05)
(0.00078187 0 -3.80569e-05)
(0.000762572 0 0.000115481)
(0.000747579 0 0.00016567)
(0.000719397 0 0.000169069)
(0.00066822 0 0.000144355)
(0.00060355 0 0.000118058)
(0.000542392 0 8.8689e-05)
(0.000489219 0 9.22484e-05)
(0.000449079 0 9.3546e-05)
(0.00042585 0 9.15729e-05)
(0.000416813 0 7.82031e-05)
(0.000404764 0 5.20193e-05)
(0.000382622 0 3.80754e-05)
(0.000349731 0 4.5065e-05)
(0.000304908 0 3.24585e-05)
(0.000277192 0 1.35102e-05)
(0.000261695 0 8.18823e-06)
(0.000247122 0 6.39818e-06)
(0.000234979 0 3.94716e-06)
(0.000225105 0 1.30191e-05)
(0.000213721 0 1.70707e-06)
(0.000213894 0 -1.94525e-06)
(0.000217904 0 -1.5932e-05)
(0.000226484 0 -3.2271e-05)
(0.000233618 0 -4.73837e-05)
(0.000233416 0 -5.39397e-05)
(0.000232517 0 -5.40984e-05)
(0.000229389 0 -6.36366e-05)
(0.000225216 0 -7.64014e-05)
(0.000225431 0 -8.0374e-05)
(0.000223947 0 -9.2823e-05)
(0.000222769 0 -0.000106057)
(0.000223572 0 -0.000132452)
(0.000236878 0 -0.000149647)
(0.000245155 0 -0.000175351)
(0.000239184 0 -0.000227549)
(0.000246445 0 -0.000276414)
(0.00025808 0 -0.000341252)
(0.000274 0 -0.000379486)
(0.000303841 0 -0.000407096)
(0.000313552 0 -0.00042411)
(0.000320035 0 -0.000410197)
(0.000324074 0 -0.000363285)
(0.000343413 0 -0.000274259)
(0.000342853 0 -0.000134969)
(0.000303325 0 1.52374e-05)
(0.000289332 0 6.95897e-05)
(0.000289512 0 9.51047e-05)
(0.000296334 0 0.000142115)
(0.000303101 0 0.000211472)
(0.000336857 0 0.000226062)
(0.000398342 0 0.000198331)
(0.000413082 0 0.000250072)
(0.000417389 0 0.000296979)
(0.000440212 0 0.000307778)
(0.000413826 0 0.000361102)
(0.000366999 0 0.000407742)
(0.000287916 0 0.000470393)
(0.000155913 0 0.000543555)
(8.19649e-05 0 0.000587755)
(8.91157e-05 0 0.000605768)
(0.000118724 0 0.000607915)
(0.000193171 0 0.000537199)
(0.000254982 0 0.000489948)
(0.000278148 0 0.000488318)
(0.000265327 0 0.000525691)
(0.000187203 0 0.00059819)