0 	1.08887e-20 	0 	4.71843e-20
0.010101 	8.51694e-21 	2.70863e-22 	6.26369e-20
0.020202 	-3.30804e-20 	-1.6897e-22 	-6.00187e-20
0.030303 	7.09769e-20 	-2.03105e-22 	-1.54055e-20
0.040404 	-2.06884e-20 	3.39644e-23 	-1.02402e-19
0.0505051 	3.46188e-20 	-3.41347e-23 	-4.11768e-21
