/*--------------------------------*- C++ -*----------------------------------*\
  =========                 |
  \\      /  F ield         | OpenFOAM: The Open Source CFD Toolbox
   \\    /   O peration     | Website:  https://openfoam.org
    \\  /    A nd           | Version:  6
     \\/     M anipulation  |
\*---------------------------------------------------------------------------*/
FoamFile
{
    version     2.0;
    format      ascii;
    class       volVectorField;
    location    "6700";
    object      U;
}
// * * * * * * * * * * * * * * * * * * * * * * * * * * * * * * * * * * * * * //

dimensions      [0 1 -1 0 0 0 0];

internalField   nonuniform List<vector> 
4800
(
(2.98131e-09 0 -1.24354e-09)
(5.56205e-09 0 -4.13929e-09)
(8.9959e-09 0 -5.01366e-09)
(1.17188e-08 0 -4.8201e-09)
(1.34269e-08 0 -4.18728e-09)
(1.40611e-08 0 -3.34137e-09)
(1.35339e-08 0 -2.36674e-09)
(1.17987e-08 0 -1.3531e-09)
(8.89311e-09 0 -3.70233e-10)
(4.92205e-09 0 5.21975e-10)
(3.93038e-11 0 1.3117e-09)
(-5.54691e-09 0 1.91905e-09)
(-1.15786e-08 0 2.32462e-09)
(-1.77955e-08 0 2.57959e-09)
(-2.39693e-08 0 2.67077e-09)
(-2.98819e-08 0 2.6224e-09)
(-3.52394e-08 0 2.37251e-09)
(-3.93808e-08 0 1.61001e-09)
(-4.21847e-08 0 1.05491e-09)
(-4.39289e-08 0 5.50437e-10)
(-4.41685e-08 0 -9.42923e-11)
(-4.24161e-08 0 -1.53323e-09)
(-3.87699e-08 0 -2.07258e-09)
(-3.35154e-08 0 -2.96957e-09)
(-2.64421e-08 0 -3.93852e-09)
(-1.74798e-08 0 -4.78979e-09)
(-6.83572e-09 0 -5.59458e-09)
(5.38829e-09 0 -6.35223e-09)
(1.90649e-08 0 -7.00662e-09)
(3.40292e-08 0 -7.60131e-09)
(5.00967e-08 0 -8.08916e-09)
(6.70438e-08 0 -8.46841e-09)
(8.46764e-08 0 -8.75236e-09)
(1.02756e-07 0 -8.90746e-09)
(1.21068e-07 0 -8.97612e-09)
(1.39397e-07 0 -8.9178e-09)
(1.57525e-07 0 -8.77835e-09)
(1.75249e-07 0 -8.51833e-09)
(1.92393e-07 0 -8.19452e-09)
(2.08781e-07 0 -7.77815e-09)
(2.24268e-07 0 -7.31065e-09)
(2.38719e-07 0 -6.75121e-09)
(2.52003e-07 0 -6.16142e-09)
(2.64061e-07 0 -5.54948e-09)
(2.74818e-07 0 -4.83712e-09)
(2.84139e-07 0 -4.14437e-09)
(2.91996e-07 0 -3.40633e-09)
(2.98465e-07 0 -2.76972e-09)
(3.03514e-07 0 -2.02786e-09)
(3.07089e-07 0 -1.33489e-09)
(3.09274e-07 0 -6.55185e-10)
(3.10061e-07 0 3.36918e-11)
(3.09491e-07 0 6.60615e-10)
(3.07648e-07 0 1.26751e-09)
(3.04561e-07 0 1.85219e-09)
(3.00318e-07 0 2.36786e-09)
(2.94993e-07 0 2.88785e-09)
(2.88638e-07 0 3.33038e-09)
(2.81324e-07 0 3.79032e-09)
(2.73115e-07 0 4.15254e-09)
(2.64114e-07 0 4.48694e-09)
(2.54398e-07 0 4.78983e-09)
(2.44017e-07 0 5.06726e-09)
(2.33032e-07 0 5.29788e-09)
(2.2151e-07 0 5.50174e-09)
(2.0953e-07 0 5.6531e-09)
(1.97151e-07 0 5.79194e-09)
(1.84422e-07 0 5.895e-09)
(1.71397e-07 0 5.97438e-09)
(1.58175e-07 0 5.99199e-09)
(1.44855e-07 0 5.98606e-09)
(1.31535e-07 0 5.93102e-09)
(1.18409e-07 0 5.78608e-09)
(1.05898e-07 0 5.39965e-09)
(9.51786e-08 0 4.47105e-09)
(8.8729e-08 0 2.45663e-09)
(9.08877e-08 0 -1.18428e-08)
(7.01151e-08 0 9.08074e-09)
(6.06958e-12 0 2.65157e-08)
(8.00743e-16 0 7.99054e-18)
(4.17203e-16 0 2.37814e-19)
(8.13935e-16 0 1.12703e-18)
(8.10534e-16 0 1.97489e-18)
(8.05198e-16 0 2.83309e-18)
(7.98209e-16 0 3.64993e-18)
(7.89627e-16 0 4.4461e-18)
(7.79525e-16 0 5.2009e-18)
(7.68027e-16 0 5.93502e-18)
(7.55164e-16 0 6.57609e-18)
(7.41071e-16 0 7.20681e-18)
(7.2583e-16 0 7.76516e-18)
(7.09514e-16 0 8.26147e-18)
(6.92216e-16 0 8.72676e-18)
(6.73966e-16 0 9.18171e-18)
(6.5491e-16 0 9.56428e-18)
(6.35089e-16 0 9.91583e-18)
(6.14533e-16 0 1.02157e-17)
(5.93316e-16 0 1.05052e-17)
(5.71499e-16 0 1.0774e-17)
(5.49103e-16 0 1.10222e-17)
(5.26139e-16 0 1.12497e-17)
(5.02657e-16 0 1.14771e-17)
(4.78669e-16 0 1.16943e-17)
(4.54184e-16 0 1.18804e-17)
(4.29214e-16 0 1.20665e-17)
(4.03809e-16 0 1.22526e-17)
(3.78011e-16 0 1.24284e-17)
(3.51769e-16 0 1.26042e-17)
(3.25113e-16 0 1.27696e-17)
(2.98075e-16 0 1.29247e-17)
(2.70685e-16 0 1.30591e-17)
(2.42995e-16 0 1.31729e-17)
(2.14974e-16 0 1.32969e-17)
(1.86715e-16 0 1.34107e-17)
(1.58229e-16 0 1.3483e-17)
(1.29526e-16 0 1.35761e-17)
(1.00689e-16 0 1.36278e-17)
(7.17889e-17 0 1.36588e-17)
(4.2879e-17 0 1.35864e-17)
(1.42068e-17 0 1.34003e-17)
(2.85382e-09 0 -5.93187e-09)
(6.63466e-09 0 -2.93384e-09)
(9.53986e-09 0 -1.3943e-09)
(1.23381e-08 0 -3.6184e-11)
(1.40959e-08 0 1.35995e-09)
(1.47729e-08 0 2.83153e-09)
(1.42501e-08 0 4.35906e-09)
(1.24857e-08 0 5.86271e-09)
(9.51108e-09 0 7.25283e-09)
(5.40743e-09 0 8.4543e-09)
(3.49316e-10 0 9.38151e-09)
(-5.42142e-09 0 9.97102e-09)
(-1.16636e-08 0 1.01521e-08)
(-1.81232e-08 0 1.01275e-08)
(-2.45688e-08 0 9.74671e-09)
(-3.07601e-08 0 9.19992e-09)
(-3.63228e-08 0 8.02549e-09)
(-4.0625e-08 0 5.42143e-09)
(-4.36494e-08 0 3.5975e-09)
(-4.5585e-08 0 1.93694e-09)
(-4.58932e-08 0 -2.00772e-10)
(-4.42176e-08 0 -4.56359e-09)
(-4.06396e-08 0 -6.35258e-09)
(-3.53918e-08 0 -9.1044e-09)
(-2.82497e-08 0 -1.21602e-08)
(-1.91869e-08 0 -1.47792e-08)
(-8.43375e-09 0 -1.72568e-08)
(3.93346e-09 0 -1.96153e-08)
(1.7785e-08 0 -2.16386e-08)
(3.29402e-08 0 -2.34809e-08)
(4.92153e-08 0 -2.49904e-08)
(6.63868e-08 0 -2.61623e-08)
(8.42466e-08 0 -2.70323e-08)
(1.02546e-07 0 -2.75152e-08)
(1.21066e-07 0 -2.77035e-08)
(1.39597e-07 0 -2.7563e-08)
(1.5792e-07 0 -2.71108e-08)
(1.75825e-07 0 -2.63334e-08)
(1.93139e-07 0 -2.53362e-08)
(2.09679e-07 0 -2.40671e-08)
(2.25289e-07 0 -2.26047e-08)
(2.39855e-07 0 -2.09358e-08)
(2.53251e-07 0 -1.91137e-08)
(2.65382e-07 0 -1.72187e-08)
(2.76193e-07 0 -1.50805e-08)
(2.85564e-07 0 -1.29211e-08)
(2.93459e-07 0 -1.06766e-08)
(2.99928e-07 0 -8.68841e-09)
(3.04972e-07 0 -6.45653e-09)
(3.08543e-07 0 -4.29799e-09)
(3.10699e-07 0 -2.20253e-09)
(3.11439e-07 0 -6.25045e-11)
(3.1081e-07 0 1.90625e-09)
(3.08905e-07 0 3.78729e-09)
(3.05765e-07 0 5.63447e-09)
(3.01463e-07 0 7.29185e-09)
(2.96063e-07 0 8.95065e-09)
(2.89627e-07 0 1.04311e-08)
(2.82228e-07 0 1.19279e-08)
(2.73952e-07 0 1.31529e-08)
(2.64889e-07 0 1.43119e-08)
(2.55112e-07 0 1.53738e-08)
(2.44676e-07 0 1.63764e-08)
(2.33634e-07 0 1.72615e-08)
(2.22059e-07 0 1.80584e-08)
(2.10022e-07 0 1.87346e-08)
(1.97561e-07 0 1.93767e-08)
(1.84748e-07 0 1.98983e-08)
(1.71666e-07 0 2.03213e-08)
(1.58378e-07 0 2.05934e-08)
(1.44928e-07 0 2.07836e-08)
(1.31397e-07 0 2.07818e-08)
(1.17873e-07 0 2.05222e-08)
(1.04384e-07 0 1.97619e-08)
(9.06062e-08 0 1.79339e-08)
(7.65812e-08 0 1.24041e-08)
(4.92926e-08 0 -3.39128e-09)
(3.11142e-08 0 6.48771e-08)
(3.92374e-12 0 6.12229e-08)
(8.04737e-16 0 2.51549e-17)
(4.18238e-16 0 5.48007e-19)
(8.15693e-16 0 3.18465e-18)
(8.1225e-16 0 5.81094e-18)
(8.06884e-16 0 8.39588e-18)
(7.99832e-16 0 1.08671e-17)
(7.91178e-16 0 1.32556e-17)
(7.81003e-16 0 1.55407e-17)
(7.69392e-16 0 1.7681e-17)
(7.56426e-16 0 1.96662e-17)
(7.4225e-16 0 2.15274e-17)
(7.26895e-16 0 2.32128e-17)
(7.10486e-16 0 2.47224e-17)
(6.93115e-16 0 2.61079e-17)
(6.74783e-16 0 2.73797e-17)
(6.55634e-16 0 2.85171e-17)
(6.35719e-16 0 2.952e-17)
(6.15123e-16 0 3.04402e-17)
(5.93895e-16 0 3.12571e-17)
(5.72016e-16 0 3.20429e-17)
(5.49579e-16 0 3.2746e-17)
(5.26594e-16 0 3.34078e-17)
(5.03102e-16 0 3.40281e-17)
(4.79093e-16 0 3.46279e-17)
(4.54567e-16 0 3.51655e-17)
(4.29596e-16 0 3.57342e-17)
(4.04181e-16 0 3.62719e-17)
(3.78363e-16 0 3.67889e-17)
(3.5211e-16 0 3.72542e-17)
(3.25423e-16 0 3.76988e-17)
(2.98364e-16 0 3.81434e-17)
(2.70953e-16 0 3.8557e-17)
(2.43232e-16 0 3.89189e-17)
(2.15212e-16 0 3.92704e-17)
(1.86922e-16 0 3.95806e-17)
(1.58405e-16 0 3.98288e-17)
(1.29661e-16 0 4.00562e-17)
(1.00761e-16 0 4.0232e-17)
(7.17579e-17 0 4.03664e-17)
(4.26205e-17 0 4.03251e-17)
(1.40104e-17 0 4.01596e-17)
(2.68001e-09 0 -1.11466e-08)
(6.98678e-09 0 -1.01987e-08)
(1.07514e-08 0 -8.80576e-09)
(1.43438e-08 0 -6.66554e-09)
(1.66211e-08 0 -4.01027e-09)
(1.76176e-08 0 -9.7907e-10)
(1.72329e-08 0 2.27885e-09)
(1.54197e-08 0 5.53138e-09)
(1.22316e-08 0 8.60998e-09)
(7.79057e-09 0 1.13486e-08)
(2.27611e-09 0 1.35858e-08)
(-4.05674e-09 0 1.51398e-08)
(-1.0906e-08 0 1.59594e-08)
(-1.80106e-08 0 1.63035e-08)
(-2.51854e-08 0 1.59527e-08)
(-3.20715e-08 0 1.5464e-08)
(-3.81584e-08 0 1.30359e-08)
(-4.28983e-08 0 9.07603e-09)
(-4.64979e-08 0 6.33268e-09)
(-4.88276e-08 0 3.36531e-09)
(-4.93016e-08 0 -6.87025e-10)
(-4.77202e-08 0 -7.28492e-09)
(-4.42903e-08 0 -1.06331e-08)
(-3.90822e-08 0 -1.52325e-08)
(-3.18249e-08 0 -2.04549e-08)
(-2.26116e-08 0 -2.47747e-08)
(-1.16614e-08 0 -2.89589e-08)
(9.90157e-10 0 -3.2943e-08)
(1.51855e-08 0 -3.63458e-08)
(3.07229e-08 0 -3.94219e-08)
(4.74082e-08 0 -4.19463e-08)
(6.5012e-08 0 -4.39251e-08)
(8.33235e-08 0 -4.53587e-08)
(1.02086e-07 0 -4.61746e-08)
(1.21056e-07 0 -4.64348e-08)
(1.40005e-07 0 -4.62089e-08)
(1.58728e-07 0 -4.54227e-08)
(1.77009e-07 0 -4.4099e-08)
(1.9467e-07 0 -4.24237e-08)
(2.11528e-07 0 -4.02814e-08)
(2.27412e-07 0 -3.77785e-08)
(2.42192e-07 0 -3.49974e-08)
(2.55759e-07 0 -3.19326e-08)
(2.68043e-07 0 -2.87293e-08)
(2.78982e-07 0 -2.5194e-08)
(2.88465e-07 0 -2.15415e-08)
(2.96393e-07 0 -1.7749e-08)
(3.02831e-07 0 -1.43933e-08)
(3.07845e-07 0 -1.07129e-08)
(3.11369e-07 0 -7.09126e-09)
(3.13464e-07 0 -3.61147e-09)
(3.14123e-07 0 -2.43353e-11)
(3.13383e-07 0 3.24757e-09)
(3.11348e-07 0 6.35635e-09)
(3.08046e-07 0 9.41149e-09)
(3.03587e-07 0 1.21366e-08)
(2.98056e-07 0 1.48373e-08)
(2.91492e-07 0 1.72787e-08)
(2.83953e-07 0 1.96864e-08)
(2.75538e-07 0 2.16676e-08)
(2.66328e-07 0 2.35316e-08)
(2.56399e-07 0 2.52313e-08)
(2.45802e-07 0 2.68224e-08)
(2.34616e-07 0 2.82123e-08)
(2.22915e-07 0 2.94335e-08)
(2.10746e-07 0 3.05055e-08)
(1.98159e-07 0 3.14556e-08)
(1.85237e-07 0 3.22173e-08)
(1.7202e-07 0 3.28179e-08)
(1.58575e-07 0 3.32317e-08)
(1.44946e-07 0 3.35092e-08)
(1.31162e-07 0 3.3535e-08)
(1.17202e-07 0 3.3281e-08)
(1.02924e-07 0 3.25651e-08)
(8.77919e-08 0 3.10756e-08)
(7.14289e-08 0 2.88508e-08)
(4.47749e-08 0 2.65421e-08)
(2.63993e-08 0 7.67454e-08)
(3.07886e-12 0 8.20232e-08)
(8.10677e-16 0 3.77301e-17)
(4.20091e-16 0 7.03103e-19)
(8.19219e-16 0 5.1492e-18)
(8.15745e-16 0 9.58496e-18)
(8.10255e-16 0 1.39277e-17)
(8.03079e-16 0 1.81049e-17)
(7.9429e-16 0 2.21167e-17)
(7.83929e-16 0 2.59425e-17)
(7.72132e-16 0 2.95097e-17)
(7.59e-16 0 3.28391e-17)
(7.44607e-16 0 3.591e-17)
(7.29025e-16 0 3.87121e-17)
(7.1242e-16 0 4.12556e-17)
(6.94863e-16 0 4.35407e-17)
(6.76365e-16 0 4.55673e-17)
(6.5705e-16 0 4.74285e-17)
(6.37012e-16 0 4.90622e-17)
(6.16281e-16 0 5.05821e-17)
(5.94929e-16 0 5.19159e-17)
(5.72988e-16 0 5.31464e-17)
(5.50458e-16 0 5.42734e-17)
(5.27421e-16 0 5.53384e-17)
(5.03877e-16 0 5.6331e-17)
(4.79806e-16 0 5.72616e-17)
(4.55291e-16 0 5.81715e-17)
(4.3031e-16 0 5.90607e-17)
(4.04864e-16 0 5.99292e-17)
(3.79004e-16 0 6.07771e-17)
(3.5271e-16 0 6.15112e-17)
(3.26002e-16 0 6.2266e-17)
(2.98912e-16 0 6.29795e-17)
(2.7147e-16 0 6.36722e-17)
(2.43708e-16 0 6.42823e-17)
(2.15625e-16 0 6.48613e-17)
(1.87284e-16 0 6.53886e-17)
(1.58715e-16 0 6.58436e-17)
(1.29919e-16 0 6.62055e-17)
(1.00978e-16 0 6.65157e-17)
(7.18923e-17 0 6.67638e-17)
(4.26722e-17 0 6.68879e-17)
(1.40207e-17 0 6.69706e-17)
(3.17547e-09 0 -1.591e-08)
(8.5325e-09 0 -1.46859e-08)
(1.30116e-08 0 -1.2545e-08)
(1.73502e-08 0 -9.33784e-09)
(2.0197e-08 0 -5.37523e-09)
(2.15281e-08 0 -8.95658e-10)
(2.12567e-08 0 3.89272e-09)
(1.93378e-08 0 8.64967e-09)
(1.58319e-08 0 1.31419e-08)
(1.08641e-08 0 1.71157e-08)
(4.67157e-09 0 2.03317e-08)
(-2.4605e-09 0 2.25378e-08)
(-1.02015e-08 0 2.3747e-08)
(-1.82559e-08 0 2.41474e-08)
(-2.6466e-08 0 2.37036e-08)
(-3.43012e-08 0 2.30626e-08)
(-4.11343e-08 0 1.88669e-08)
(-4.65424e-08 0 1.37097e-08)
(-5.09503e-08 0 9.62096e-09)
(-5.38482e-08 0 5.59536e-09)
(-5.45843e-08 0 -1.12066e-09)
(-5.31329e-08 0 -9.53932e-09)
(-4.99436e-08 0 -1.47877e-08)
(-4.47473e-08 0 -2.13656e-08)
(-3.73156e-08 0 -2.89232e-08)
(-2.78747e-08 0 -3.49292e-08)
(-1.65869e-08 0 -4.09766e-08)
(-3.5008e-09 0 -4.66827e-08)
(1.12388e-08 0 -5.15177e-08)
(2.73666e-08 0 -5.58555e-08)
(4.46865e-08 0 -5.94676e-08)
(6.29659e-08 0 -6.22833e-08)
(8.19633e-08 0 -6.42779e-08)
(1.01407e-07 0 -6.54429e-08)
(1.21051e-07 0 -6.57523e-08)
(1.40651e-07 0 -6.54079e-08)
(1.59979e-07 0 -6.42636e-08)
(1.7882e-07 0 -6.23661e-08)
(1.9699e-07 0 -5.99552e-08)
(2.1429e-07 0 -5.68889e-08)
(2.30578e-07 0 -5.33364e-08)
(2.45734e-07 0 -4.93485e-08)
(2.5959e-07 0 -4.49917e-08)
(2.72071e-07 0 -4.04301e-08)
(2.83146e-07 0 -3.54531e-08)
(2.92798e-07 0 -3.03082e-08)
(3.00846e-07 0 -2.48545e-08)
(3.07262e-07 0 -2.00968e-08)
(3.12225e-07 0 -1.49572e-08)
(3.15679e-07 0 -9.79896e-09)
(3.1765e-07 0 -4.93403e-09)
(3.18161e-07 0 1.74221e-10)
(3.17255e-07 0 4.79086e-09)
(3.15037e-07 0 9.1383e-09)
(3.11548e-07 0 1.34805e-08)
(3.06898e-07 0 1.7281e-08)
(3.01122e-07 0 2.10853e-08)
(2.94311e-07 0 2.45304e-08)
(2.86549e-07 0 2.78887e-08)
(2.77933e-07 0 3.06851e-08)
(2.685e-07 0 3.33136e-08)
(2.58355e-07 0 3.57169e-08)
(2.47567e-07 0 3.79259e-08)
(2.36203e-07 0 3.98668e-08)
(2.24319e-07 0 4.15877e-08)
(2.11957e-07 0 4.31352e-08)
(1.99177e-07 0 4.4464e-08)
(1.86052e-07 0 4.55714e-08)
(1.72648e-07 0 4.6433e-08)
(1.59004e-07 0 4.70639e-08)
(1.45138e-07 0 4.75227e-08)
(1.31111e-07 0 4.76826e-08)
(1.16897e-07 0 4.76074e-08)
(1.02389e-07 0 4.72931e-08)
(8.73205e-08 0 4.68504e-08)
(7.22881e-08 0 4.66445e-08)
(5.32306e-08 0 4.9336e-08)
(2.66464e-08 0 9.48498e-08)
(2.47853e-12 0 1.00559e-07)
(8.16494e-16 0 4.1707e-17)
(4.22928e-16 0 8.16841e-19)
(8.24565e-16 0 7.20681e-18)
(8.21008e-16 0 1.34727e-17)
(8.15393e-16 0 1.96249e-17)
(8.08031e-16 0 2.55806e-17)
(7.99015e-16 0 3.12468e-17)
(7.88386e-16 0 3.66338e-17)
(7.76299e-16 0 4.16692e-17)
(7.62847e-16 0 4.63118e-17)
(7.48123e-16 0 5.06028e-17)
(7.32231e-16 0 5.45215e-17)
(7.15305e-16 0 5.80681e-17)
(6.97417e-16 0 6.12527e-17)
(6.78671e-16 0 6.40651e-17)
(6.59149e-16 0 6.66087e-17)
(6.38894e-16 0 6.88835e-17)
(6.17987e-16 0 7.09307e-17)
(5.96449e-16 0 7.27816e-17)
(5.74353e-16 0 7.44669e-17)
(5.5175e-16 0 7.60179e-17)
(5.28651e-16 0 7.74551e-17)
(5.05035e-16 0 7.88303e-17)
(4.80923e-16 0 8.01331e-17)
(4.56366e-16 0 8.13842e-17)
(4.31344e-16 0 8.2594e-17)
(4.05887e-16 0 8.37831e-17)
(3.79955e-16 0 8.49308e-17)
(3.5362e-16 0 8.60475e-17)
(3.26902e-16 0 8.71228e-17)
(2.9975e-16 0 8.81361e-17)
(2.72256e-16 0 8.90977e-17)
(2.44442e-16 0 8.99766e-17)
(2.16297e-16 0 9.08038e-17)
(1.87884e-16 0 9.15689e-17)
(1.59212e-16 0 9.22306e-17)
(1.30333e-16 0 9.27993e-17)
(1.01319e-16 0 9.32439e-17)
(7.21302e-17 0 9.36058e-17)
(4.28376e-17 0 9.38643e-17)
(1.40931e-17 0 9.40298e-17)
(3.91453e-09 0 -2.20686e-08)
(1.06973e-08 0 -2.03269e-08)
(1.62184e-08 0 -1.72887e-08)
(2.1525e-08 0 -1.28567e-08)
(2.51117e-08 0 -7.35568e-09)
(2.68894e-08 0 -1.18547e-09)
(2.67648e-08 0 5.35873e-09)
(2.46828e-08 0 1.18654e-08)
(2.0717e-08 0 1.79977e-08)
(1.50484e-08 0 2.34243e-08)
(7.925e-09 0 2.7781e-08)
(-3.37743e-10 0 3.07318e-08)
(-9.25872e-09 0 3.26026e-08)
(-1.87098e-08 0 3.29392e-08)
(-2.8305e-08 0 3.27541e-08)
(-3.72031e-08 0 3.22236e-08)
(-4.52045e-08 0 2.48685e-08)
(-5.16155e-08 0 1.89211e-08)
(-5.70296e-08 0 1.41105e-08)
(-6.06058e-08 0 9.26898e-09)
(-6.18206e-08 0 -3.48056e-09)
(-6.06179e-08 0 -1.06302e-08)
(-5.77451e-08 0 -1.89508e-08)
(-5.24902e-08 0 -2.77478e-08)
(-4.48496e-08 0 -3.75826e-08)
(-3.50894e-08 0 -4.54555e-08)
(-2.3304e-08 0 -5.35246e-08)
(-9.58673e-09 0 -6.09111e-08)
(5.86458e-09 0 -6.74684e-08)
(2.28185e-08 0 -7.30414e-08)
(4.10265e-08 0 -7.77796e-08)
(6.02123e-08 0 -8.14418e-08)
(8.01266e-08 0 -8.40125e-08)
(1.00498e-07 0 -8.55177e-08)
(1.21061e-07 0 -8.58593e-08)
(1.41549e-07 0 -8.5373e-08)
(1.61715e-07 0 -8.37885e-08)
(1.81332e-07 0 -8.12819e-08)
(2.0021e-07 0 -7.80453e-08)
(2.18133e-07 0 -7.4e-08)
(2.3494e-07 0 -6.9319e-08)
(2.50537e-07 0 -6.4072e-08)
(2.64764e-07 0 -5.83431e-08)
(2.77543e-07 0 -5.23367e-08)
(2.88841e-07 0 -4.5884e-08)
(2.98645e-07 0 -3.93354e-08)
(3.06855e-07 0 -3.19441e-08)
(3.13243e-07 0 -2.56635e-08)
(3.18086e-07 0 -1.9177e-08)
(3.21445e-07 0 -1.24251e-08)
(3.23288e-07 0 -6.07486e-09)
(3.23618e-07 0 5.12125e-10)
(3.22496e-07 0 6.52636e-09)
(3.20044e-07 0 1.21266e-08)
(3.16267e-07 0 1.77525e-08)
(3.11315e-07 0 2.26709e-08)
(3.05234e-07 0 2.75754e-08)
(2.98123e-07 0 3.20051e-08)
(2.90043e-07 0 3.62756e-08)
(2.81133e-07 0 3.98928e-08)
(2.71419e-07 0 4.32733e-08)
(2.60994e-07 0 4.63396e-08)
(2.49932e-07 0 4.91729e-08)
(2.383e-07 0 5.16578e-08)
(2.26164e-07 0 5.3865e-08)
(2.13557e-07 0 5.58891e-08)
(2.00538e-07 0 5.75656e-08)
(1.87182e-07 0 5.89907e-08)
(1.73541e-07 0 6.01216e-08)
(1.59631e-07 0 6.1001e-08)
(1.45518e-07 0 6.16211e-08)
(1.31257e-07 0 6.19408e-08)
(1.16879e-07 0 6.20095e-08)
(1.02439e-07 0 6.19486e-08)
(8.78717e-08 0 6.20373e-08)
(7.40852e-08 0 6.26432e-08)
(5.72656e-08 0 6.64353e-08)
(2.77769e-08 0 1.23079e-07)
(1.45947e-12 0 1.21453e-07)
(8.22966e-16 0 4.90492e-17)
(4.26784e-16 0 1.02364e-18)
(8.31875e-16 0 9.3368e-18)
(8.28142e-16 0 1.75259e-17)
(8.22362e-16 0 2.55495e-17)
(8.14711e-16 0 3.3325e-17)
(8.05343e-16 0 4.0687e-17)
(7.94352e-16 0 4.76559e-17)
(7.81831e-16 0 5.417e-17)
(7.67955e-16 0 6.01877e-17)
(7.52807e-16 0 6.56885e-17)
(7.36501e-16 0 7.06929e-17)
(7.19151e-16 0 7.52114e-17)
(7.00839e-16 0 7.92439e-17)
(6.81742e-16 0 8.28525e-17)
(6.61879e-16 0 8.60578e-17)
(6.41324e-16 0 8.89323e-17)
(6.20179e-16 0 9.14758e-17)
(5.98465e-16 0 9.3792e-17)
(5.76214e-16 0 9.59116e-17)
(5.53446e-16 0 9.78658e-17)
(5.30233e-16 0 9.96856e-17)
(5.06555e-16 0 1.01392e-16)
(4.8236e-16 0 1.03046e-16)
(4.57762e-16 0 1.04638e-16)
(4.32729e-16 0 1.0622e-16)
(4.07211e-16 0 1.07751e-16)
(3.81279e-16 0 1.09229e-16)
(3.54892e-16 0 1.10697e-16)
(3.28091e-16 0 1.12093e-16)
(3.00897e-16 0 1.13458e-16)
(2.73321e-16 0 1.1473e-16)
(2.45435e-16 0 1.15919e-16)
(2.17228e-16 0 1.17005e-16)
(1.88701e-16 0 1.18008e-16)
(1.59925e-16 0 1.18876e-16)
(1.30922e-16 0 1.19662e-16)
(1.01774e-16 0 1.20272e-16)
(7.25024e-17 0 1.20768e-16)
(4.31168e-17 0 1.21172e-16)
(1.42068e-17 0 1.2142e-16)
(4.85372e-09 0 -3.00326e-08)
(1.34791e-08 0 -2.77747e-08)
(2.05419e-08 0 -2.37243e-08)
(2.72103e-08 0 -1.78186e-08)
(3.18103e-08 0 -1.04493e-08)
(3.42098e-08 0 -2.17327e-09)
(3.4279e-08 0 6.54648e-09)
(3.19573e-08 0 1.52489e-08)
(2.73572e-08 0 2.33747e-08)
(2.07417e-08 0 3.05535e-08)
(1.23418e-08 0 3.6315e-08)
(2.58416e-09 0 4.02707e-08)
(-7.86185e-09 0 4.30905e-08)
(-1.94111e-08 0 4.28575e-08)
(-3.08676e-08 0 4.33145e-08)
(-4.10441e-08 0 4.20604e-08)
(-5.0288e-08 0 3.25814e-08)
(-5.82734e-08 0 2.5769e-08)
(-6.50671e-08 0 1.93604e-08)
(-6.92308e-08 0 1.26749e-08)
(-7.1052e-08 0 -3.72016e-09)
(-7.0432e-08 0 -1.19326e-08)
(-6.78079e-08 0 -2.29661e-08)
(-6.24448e-08 0 -3.44039e-08)
(-5.4526e-08 0 -4.63304e-08)
(-4.43451e-08 0 -5.65403e-08)
(-3.19311e-08 0 -6.66901e-08)
(-1.74043e-08 0 -7.59822e-08)
(-1.021e-09 0 -8.42464e-08)
(1.70082e-08 0 -9.12375e-08)
(3.63611e-08 0 -9.71081e-08)
(5.67314e-08 0 -1.01656e-07)
(7.78603e-08 0 -1.04827e-07)
(9.94468e-08 0 -1.06657e-07)
(1.21191e-07 0 -1.07006e-07)
(1.42806e-07 0 -1.06306e-07)
(1.64014e-07 0 -1.04201e-07)
(1.84589e-07 0 -1.01068e-07)
(2.04354e-07 0 -9.68838e-08)
(2.23058e-07 0 -9.17455e-08)
(2.40528e-07 0 -8.58545e-08)
(2.56689e-07 0 -7.92721e-08)
(2.71416e-07 0 -7.20691e-08)
(2.84562e-07 0 -6.45348e-08)
(2.96123e-07 0 -5.65158e-08)
(3.06033e-07 0 -4.83924e-08)
(3.1445e-07 0 -3.94641e-08)
(3.20847e-07 0 -3.08665e-08)
(3.25541e-07 0 -2.33001e-08)
(3.28745e-07 0 -1.4911e-08)
(3.304e-07 0 -7.00131e-09)
(3.30479e-07 0 1.05803e-09)
(3.29077e-07 0 8.53377e-09)
(3.26291e-07 0 1.54476e-08)
(3.22135e-07 0 2.23722e-08)
(3.16818e-07 0 2.83661e-08)
(3.10373e-07 0 3.44196e-08)
(3.02882e-07 0 3.98308e-08)
(2.94409e-07 0 4.50321e-08)
(2.85116e-07 0 4.94109e-08)
(2.75024e-07 0 5.35769e-08)
(2.64269e-07 0 5.72305e-08)
(2.52887e-07 0 6.07108e-08)
(2.40952e-07 0 6.37157e-08)
(2.28493e-07 0 6.63921e-08)
(2.15579e-07 0 6.88496e-08)
(2.02276e-07 0 7.09224e-08)
(1.88637e-07 0 7.26379e-08)
(1.7469e-07 0 7.40543e-08)
(1.60478e-07 0 7.51723e-08)
(1.46072e-07 0 7.59475e-08)
(1.3154e-07 0 7.63958e-08)
(1.16993e-07 0 7.64923e-08)
(1.02593e-07 0 7.63816e-08)
(8.82353e-08 0 7.64526e-08)
(7.57621e-08 0 7.60381e-08)
(6.09758e-08 0 8.08224e-08)
(2.81863e-08 0 1.55366e-07)
(4.47794e-14 0 1.39768e-07)
(8.35278e-16 0 5.6327e-17)
(4.31669e-16 0 1.27179e-18)
(8.41088e-16 0 1.15805e-17)
(8.3721e-16 0 2.17962e-17)
(8.31182e-16 0 3.17844e-17)
(8.23169e-16 0 4.14314e-17)
(8.13346e-16 0 5.05924e-17)
(8.01859e-16 0 5.91848e-17)
(7.8882e-16 0 6.71981e-17)
(7.74376e-16 0 7.45807e-17)
(7.58628e-16 0 8.12705e-17)
(7.41764e-16 0 8.73503e-17)
(7.23866e-16 0 9.27993e-17)
(7.05047e-16 0 9.7659e-17)
(6.85495e-16 0 1.02002e-16)
(6.65229e-16 0 1.05817e-16)
(6.44312e-16 0 1.09229e-16)
(6.22846e-16 0 1.12259e-16)
(6.00885e-16 0 1.15009e-16)
(5.78437e-16 0 1.17491e-16)
(5.55524e-16 0 1.19796e-16)
(5.32167e-16 0 1.21978e-16)
(5.08385e-16 0 1.24056e-16)
(4.8417e-16 0 1.26052e-16)
(4.5954e-16 0 1.28027e-16)
(4.34446e-16 0 1.29919e-16)
(4.08896e-16 0 1.31832e-16)
(3.82912e-16 0 1.33672e-16)
(3.56474e-16 0 1.35482e-16)
(3.29642e-16 0 1.37271e-16)
(3.02386e-16 0 1.38966e-16)
(2.74717e-16 0 1.4061e-16)
(2.46717e-16 0 1.42141e-16)
(2.18407e-16 0 1.43526e-16)
(1.89755e-16 0 1.44777e-16)
(1.60856e-16 0 1.45946e-16)
(1.31739e-16 0 1.46928e-16)
(1.02426e-16 0 1.47786e-16)
(7.3009e-17 0 1.48427e-16)
(4.3489e-17 0 1.48955e-16)
(1.43516e-17 0 1.49316e-16)
(6.09754e-09 0 -4.01373e-08)
(1.71728e-08 0 -3.72101e-08)
(2.62919e-08 0 -3.19087e-08)
(3.48015e-08 0 -2.41272e-08)
(4.07209e-08 0 -1.44627e-08)
(4.39039e-08 0 -3.6008e-09)
(4.41744e-08 0 7.79652e-09)
(4.15487e-08 0 1.91644e-08)
(3.61551e-08 0 2.97454e-08)
(2.81999e-08 0 3.89785e-08)
(1.79696e-08 0 4.62782e-08)
(6.61695e-09 0 5.22335e-08)
(-6.30061e-09 0 5.44883e-08)
(-2.03712e-08 0 5.59303e-08)
(-3.37587e-08 0 5.72627e-08)
(-4.59294e-08 0 5.13319e-08)
(-5.6676e-08 0 4.20619e-08)
(-6.6906e-08 0 3.40498e-08)
(-7.51506e-08 0 2.6749e-08)
(-8.00212e-08 0 1.59781e-08)
(-8.24959e-08 0 -3.00595e-09)
(-8.27637e-08 0 -1.28885e-08)
(-8.03959e-08 0 -2.67483e-08)
(-7.48698e-08 0 -4.15292e-08)
(-6.66239e-08 0 -5.53666e-08)
(-5.58988e-08 0 -6.82855e-08)
(-4.26635e-08 0 -8.06689e-08)
(-2.7101e-08 0 -9.20639e-08)
(-9.507e-09 0 -1.0209e-07)
(9.85514e-09 0 -1.10781e-07)
(3.06453e-08 0 -1.17741e-07)
(5.25011e-08 0 -1.23222e-07)
(7.51457e-08 0 -1.27009e-07)
(9.82284e-08 0 -1.2913e-07)
(1.21417e-07 0 -1.2944e-07)
(1.44415e-07 0 -1.28467e-07)
(1.66934e-07 0 -1.25744e-07)
(1.88686e-07 0 -1.21849e-07)
(2.09496e-07 0 -1.16662e-07)
(2.29172e-07 0 -1.10308e-07)
(2.47483e-07 0 -1.03082e-07)
(2.64312e-07 0 -9.50265e-08)
(2.79588e-07 0 -8.62658e-08)
(2.93161e-07 0 -7.70461e-08)
(3.05026e-07 0 -6.74351e-08)
(3.151e-07 0 -5.7357e-08)
(3.23634e-07 0 -4.74014e-08)
(3.30154e-07 0 -3.59244e-08)
(3.34747e-07 0 -2.71801e-08)
(3.37699e-07 0 -1.72939e-08)
(3.39076e-07 0 -7.60232e-09)
(3.38852e-07 0 1.86277e-09)
(3.37088e-07 0 1.09394e-08)
(3.33875e-07 0 1.91519e-08)
(3.29241e-07 0 2.74096e-08)
(3.23451e-07 0 3.45173e-08)
(3.1653e-07 0 4.16619e-08)
(3.08565e-07 0 4.80862e-08)
(2.99625e-07 0 5.41873e-08)
(2.89871e-07 0 5.93848e-08)
(2.79335e-07 0 6.42275e-08)
(2.68165e-07 0 6.85653e-08)
(2.56373e-07 0 7.25716e-08)
(2.44052e-07 0 7.61184e-08)
(2.31269e-07 0 7.92425e-08)
(2.17986e-07 0 8.22328e-08)
(2.04363e-07 0 8.45405e-08)
(1.9039e-07 0 8.65851e-08)
(1.76105e-07 0 8.83329e-08)
(1.61529e-07 0 8.96954e-08)
(1.46739e-07 0 9.06496e-08)
(1.31819e-07 0 9.11977e-08)
(1.16926e-07 0 9.12362e-08)
(1.02405e-07 0 9.07676e-08)
(8.80591e-08 0 9.00136e-08)
(7.68984e-08 0 8.71936e-08)
(5.1231e-08 0 1.08028e-07)
(2.40157e-08 0 1.99509e-07)
(-1.45363e-12 0 1.5155e-07)
(8.47459e-16 0 5.23185e-17)
(4.37669e-16 0 1.41655e-18)
(8.5242e-16 0 1.39483e-17)
(8.48357e-16 0 2.63767e-17)
(8.41987e-16 0 3.84329e-17)
(8.33519e-16 0 5.00341e-17)
(8.23107e-16 0 6.10356e-17)
(8.10958e-16 0 7.13443e-17)
(7.97226e-16 0 8.08879e-17)
(7.82037e-16 0 8.9625e-17)
(7.65576e-16 0 9.75246e-17)
(7.48019e-16 0 1.04638e-16)
(7.29449e-16 0 1.10987e-16)
(7.10031e-16 0 1.16612e-16)
(6.89889e-16 0 1.21606e-16)
(6.69096e-16 0 1.2598e-16)
(6.47765e-16 0 1.29888e-16)
(6.25959e-16 0 1.33342e-16)
(6.03697e-16 0 1.36464e-16)
(5.81012e-16 0 1.39297e-16)
(5.57933e-16 0 1.41934e-16)
(5.34472e-16 0 1.44457e-16)
(5.10619e-16 0 1.46845e-16)
(4.86341e-16 0 1.49203e-16)
(4.61639e-16 0 1.51519e-16)
(4.36514e-16 0 1.53763e-16)
(4.10943e-16 0 1.56037e-16)
(3.84929e-16 0 1.58281e-16)
(3.58479e-16 0 1.60504e-16)
(3.31565e-16 0 1.62696e-16)
(3.04227e-16 0 1.64764e-16)
(2.76495e-16 0 1.66801e-16)
(2.48351e-16 0 1.68724e-16)
(2.19854e-16 0 1.70472e-16)
(1.9112e-16 0 1.72074e-16)
(1.62086e-16 0 1.73532e-16)
(1.32783e-16 0 1.74794e-16)
(1.03305e-16 0 1.7589e-16)
(7.36811e-17 0 1.76769e-16)
(4.3975e-17 0 1.77441e-16)
(1.4548e-17 0 1.77927e-16)
(7.72999e-09 0 -5.305e-08)
(2.20216e-08 0 -4.92417e-08)
(3.37952e-08 0 -4.23266e-08)
(4.46759e-08 0 -3.21702e-08)
(5.23119e-08 0 -1.96334e-08)
(5.65138e-08 0 -5.54549e-09)
(5.7045e-08 0 9.21619e-09)
(5.4011e-08 0 2.38204e-08)
(4.7491e-08 0 3.73831e-08)
(3.75198e-08 0 4.89175e-08)
(2.54857e-08 0 5.90835e-08)
(1.16761e-08 0 6.59501e-08)
(-4.57186e-09 0 6.92357e-08)
(-2.16207e-08 0 7.15433e-08)
(-3.69225e-08 0 7.35328e-08)
(-5.1786e-08 0 6.23005e-08)
(-6.50653e-08 0 5.40834e-08)
(-7.78079e-08 0 4.43891e-08)
(-8.69047e-08 0 3.78601e-08)
(-9.33907e-08 0 1.38754e-08)
(-9.67427e-08 0 2.55218e-09)
(-9.80435e-08 0 -1.44951e-08)
(-9.56356e-08 0 -3.0156e-08)
(-9.00451e-08 0 -4.91826e-08)
(-8.14275e-08 0 -6.4795e-08)
(-6.99385e-08 0 -8.08329e-08)
(-5.56388e-08 0 -9.57305e-08)
(-3.87875e-08 0 -1.09377e-07)
(-1.9765e-08 0 -1.21425e-07)
(1.21354e-09 0 -1.31816e-07)
(2.37813e-08 0 -1.40027e-07)
(4.74797e-08 0 -1.46471e-07)
(7.19795e-08 0 -1.50873e-07)
(9.68965e-08 0 -1.5325e-07)
(1.21854e-07 0 -1.53451e-07)
(1.46505e-07 0 -1.52083e-07)
(1.70597e-07 0 -1.48685e-07)
(1.93783e-07 0 -1.43868e-07)
(2.15863e-07 0 -1.37497e-07)
(2.36624e-07 0 -1.29857e-07)
(2.55887e-07 0 -1.21097e-07)
(2.73501e-07 0 -1.11433e-07)
(2.89398e-07 0 -1.01008e-07)
(3.03499e-07 0 -8.9951e-08)
(3.157e-07 0 -7.85767e-08)
(3.26022e-07 0 -6.65292e-08)
(3.34454e-07 0 -5.52343e-08)
(3.41239e-07 0 -4.11076e-08)
(3.45722e-07 0 -3.06919e-08)
(3.48279e-07 0 -1.95217e-08)
(3.49278e-07 0 -7.82725e-09)
(3.48717e-07 0 2.94972e-09)
(3.46515e-07 0 1.37985e-08)
(3.42806e-07 0 2.33997e-08)
(3.37607e-07 0 3.29653e-08)
(3.31238e-07 0 4.12289e-08)
(3.23694e-07 0 4.94044e-08)
(3.15157e-07 0 5.69002e-08)
(3.05685e-07 0 6.38329e-08)
(2.9539e-07 0 6.99288e-08)
(2.84337e-07 0 7.52737e-08)
(2.72658e-07 0 8.02835e-08)
(2.60436e-07 0 8.48944e-08)
(2.47694e-07 0 8.8891e-08)
(2.34437e-07 0 9.25686e-08)
(2.20783e-07 0 9.58346e-08)
(2.06799e-07 0 9.85239e-08)
(1.92443e-07 0 1.00933e-07)
(1.77763e-07 0 1.02989e-07)
(1.62777e-07 0 1.04625e-07)
(1.47532e-07 0 1.05784e-07)
(1.32083e-07 0 1.06462e-07)
(1.1654e-07 0 1.06516e-07)
(1.01193e-07 0 1.05711e-07)
(8.69914e-08 0 1.03585e-07)
(7.39292e-08 0 9.89578e-08)
(4.56062e-08 0 1.39317e-07)
(1.95844e-08 0 2.14561e-07)
(-3.79899e-12 0 1.60673e-07)
(8.64001e-16 0 4.30467e-17)
(4.44951e-16 0 1.60266e-18)
(8.66038e-16 0 1.65746e-17)
(8.61695e-16 0 3.12881e-17)
(8.5485e-16 0 4.55983e-17)
(8.45782e-16 0 5.92675e-17)
(8.34656e-16 0 7.22129e-17)
(8.21732e-16 0 8.4269e-17)
(8.07122e-16 0 9.53843e-17)
(7.91023e-16 0 1.05476e-16)
(7.73641e-16 0 1.14585e-16)
(7.55206e-16 0 1.22692e-16)
(7.35839e-16 0 1.29888e-16)
(7.15666e-16 0 1.36206e-16)
(6.94863e-16 0 1.41789e-16)
(6.73522e-16 0 1.46669e-16)
(6.51674e-16 0 1.5096e-16)
(6.29422e-16 0 1.54776e-16)
(6.0684e-16 0 1.58188e-16)
(5.83917e-16 0 1.61342e-16)
(5.60684e-16 0 1.64257e-16)
(5.37068e-16 0 1.67059e-16)
(5.13121e-16 0 1.69737e-16)
(4.88843e-16 0 1.72405e-16)
(4.64131e-16 0 1.75062e-16)
(4.38985e-16 0 1.7774e-16)
(4.13415e-16 0 1.80429e-16)
(3.87379e-16 0 1.83107e-16)
(3.60889e-16 0 1.85764e-16)
(3.33923e-16 0 1.88411e-16)
(3.06501e-16 0 1.90955e-16)
(2.78667e-16 0 1.93426e-16)
(2.50388e-16 0 1.95783e-16)
(2.21757e-16 0 1.97986e-16)
(1.92816e-16 0 2.00033e-16)
(1.63575e-16 0 2.01832e-16)
(1.34086e-16 0 2.03435e-16)
(1.0439e-16 0 2.0481e-16)
(7.45703e-17 0 2.05978e-16)
(4.46367e-17 0 2.06878e-16)
(1.48169e-17 0 2.07498e-16)
(9.82666e-09 0 -6.96375e-08)
(2.82748e-08 0 -6.46865e-08)
(4.34998e-08 0 -5.56825e-08)
(5.74485e-08 0 -4.25273e-08)
(6.73017e-08 0 -2.63056e-08)
(7.2736e-08 0 -8.16026e-09)
(7.36444e-08 0 1.0852e-08)
(6.99433e-08 0 2.93851e-08)
(6.16074e-08 0 4.64531e-08)
(4.96179e-08 0 6.17797e-08)
(3.5166e-08 0 7.45364e-08)
(1.7639e-08 0 8.26753e-08)
(-2.88036e-09 0 8.62121e-08)
(-2.21147e-08 0 9.32069e-08)
(-4.12517e-08 0 8.8072e-08)
(-5.89239e-08 0 7.84183e-08)
(-7.60969e-08 0 6.76639e-08)
(-9.05802e-08 0 5.83386e-08)
(-1.01152e-07 0 4.69971e-08)
(-1.09396e-07 0 1.88876e-08)
(-1.1442e-07 0 6.44424e-09)
(-1.16312e-07 0 -1.49306e-08)
(-1.14006e-07 0 -3.44059e-08)
(-1.08367e-07 0 -5.61128e-08)
(-9.92496e-08 0 -7.53484e-08)
(-8.67715e-08 0 -9.43275e-08)
(-7.11669e-08 0 -1.12113e-07)
(-5.27658e-08 0 -1.2817e-07)
(-3.19127e-08 0 -1.42486e-07)
(-8.93559e-09 0 -1.54698e-07)
(1.57726e-08 0 -1.64417e-07)
(4.16909e-08 0 -1.71735e-07)
(6.8409e-08 0 -1.76754e-07)
(9.55103e-08 0 -1.79351e-07)
(1.22576e-07 0 -1.79381e-07)
(1.49204e-07 0 -1.77377e-07)
(1.75145e-07 0 -1.73341e-07)
(2.00018e-07 0 -1.67289e-07)
(2.23528e-07 0 -1.59632e-07)
(2.45543e-07 0 -1.5051e-07)
(2.65922e-07 0 -1.40045e-07)
(2.84445e-07 0 -1.28598e-07)
(3.01028e-07 0 -1.16294e-07)
(3.15649e-07 0 -1.03361e-07)
(3.28259e-07 0 -8.99811e-08)
(3.38865e-07 0 -7.60264e-08)
(3.47289e-07 0 -6.22732e-08)
(3.54162e-07 0 -4.79834e-08)
(3.58497e-07 0 -3.28424e-08)
(3.60745e-07 0 -2.1378e-08)
(3.61245e-07 0 -7.75203e-09)
(3.60182e-07 0 4.58662e-09)
(3.57415e-07 0 1.71506e-08)
(3.53064e-07 0 2.83185e-08)
(3.47229e-07 0 3.89784e-08)
(3.40128e-07 0 4.8752e-08)
(3.31903e-07 0 5.77346e-08)
(3.22658e-07 0 6.64332e-08)
(3.12611e-07 0 7.38459e-08)
(3.01612e-07 0 8.11125e-08)
(2.89985e-07 0 8.70142e-08)
(2.77743e-07 0 9.24437e-08)
(2.64972e-07 0 9.76723e-08)
(2.51752e-07 0 1.02202e-07)
(2.38064e-07 0 1.06211e-07)
(2.23966e-07 0 1.09871e-07)
(2.09589e-07 0 1.12933e-07)
(1.94822e-07 0 1.15677e-07)
(1.79711e-07 0 1.18047e-07)
(1.64279e-07 0 1.19985e-07)
(1.48545e-07 0 1.21416e-07)
(1.32474e-07 0 1.22333e-07)
(1.16061e-07 0 1.22591e-07)
(9.92655e-08 0 1.21928e-07)
(8.24202e-08 0 1.1975e-07)
(6.18291e-08 0 1.14454e-07)