/*--------------------------------*- C++ -*----------------------------------*\
  =========                 |
  \\      /  F ield         | OpenFOAM: The Open Source CFD Toolbox
   \\    /   O peration     | Website:  https://openfoam.org
    \\  /    A nd           | Version:  6
     \\/     M anipulation  |
\*---------------------------------------------------------------------------*/
FoamFile
{
    version     2.0;
    format      ascii;
    class       surfaceScalarField;
    location    "9800";
    object      phi;
}
// * * * * * * * * * * * * * * * * * * * * * * * * * * * * * * * * * * * * * //

dimensions      [0 3 -1 0 0 0 0];

internalField   nonuniform List<scalar> 
9440
(
4.81007e-13
-4.81008e-13
9.4192e-13
-4.62387e-13
1.3865e-12
-4.45759e-13
1.79575e-12
-4.10386e-13
2.161e-12
-3.66368e-13
2.47895e-12
-3.1906e-13
2.74844e-12
-2.70596e-13
2.97017e-12
-2.22835e-13
3.14654e-12
-1.77449e-13
3.28095e-12
-1.35484e-13
3.3773e-12
-9.74109e-14
3.43952e-12
-6.32538e-14
3.47215e-12
-3.36582e-14
3.47761e-12
-6.46239e-15
3.4594e-12
1.7234e-14
3.42314e-12
3.53005e-14
3.36866e-12
5.35457e-14
3.30179e-12
6.59601e-14
3.22423e-12
7.66774e-14
3.1389e-12
8.44818e-14
3.04404e-12
9.40357e-14
2.94515e-12
9.8105e-14
2.84385e-12
1.00539e-13
2.74059e-12
1.02527e-13
2.63741e-12
1.02493e-13
2.53452e-12
1.02241e-13
2.4328e-12
1.01102e-13
2.33372e-12
9.85001e-14
2.23755e-12
9.56377e-14
2.14441e-12
9.26362e-14
2.05472e-12
8.92397e-14
1.96872e-12
8.55817e-14
1.8864e-12
8.19453e-14
1.80783e-12
7.82372e-14
1.73316e-12
7.43841e-14
1.66198e-12
7.09369e-14
1.59432e-12
6.74611e-14
1.52978e-12
6.43903e-14
1.46825e-12
6.14137e-14
1.40953e-12
5.86543e-14
1.35336e-12
5.61508e-14
1.29955e-12
5.38359e-14
1.2479e-12
5.17289e-14
1.19834e-12
4.96841e-14
1.15041e-12
4.80838e-14
1.1042e-12
4.64195e-14
1.05913e-12
4.53303e-14
1.01554e-12
4.38829e-14
9.73164e-13
4.2719e-14
9.31974e-13
4.15725e-14
8.91926e-13
4.04774e-14
8.52736e-13
3.96594e-14
8.14388e-13
3.88608e-14
7.76949e-13
3.79904e-14
7.40282e-13
3.72584e-14
7.04467e-13
3.64451e-14
6.69375e-13
3.57585e-14
6.35127e-13
3.49517e-14
6.01416e-13
3.4451e-14
5.6844e-13
3.37504e-14
5.36193e-13
3.30539e-14
5.04687e-13
3.23431e-14
4.73835e-13
3.17195e-14
4.43641e-13
3.10921e-14
4.14084e-13
3.04825e-14
3.85233e-13
2.98008e-14
3.57014e-13
2.91959e-14
3.2943e-13
2.85837e-14
3.02416e-13
2.80353e-14
2.76216e-13
2.72437e-14
2.50835e-13
2.64404e-14
2.26384e-13
2.55249e-14
2.03288e-13
2.4188e-14
1.82484e-13
2.19091e-14
1.67315e-13
1.62837e-14
1.68491e-13
-5.05905e-17
2.20605e-13
-5.09788e-14
1.20692e-13
1.01052e-13
-7.08484e-16
1.22545e-13
1.36977e-21
1.03501e-20
1.35895e-21
2.56426e-23
1.35249e-21
7.85822e-24
1.41184e-21
1.36485e-23
1.44855e-21
2.18686e-23
1.45832e-21
2.84343e-23
1.44571e-21
3.35008e-23
1.41582e-21
3.72231e-23
1.3725e-21
3.98598e-23
1.31935e-21
4.16175e-23
1.25943e-21
4.26515e-23
1.19491e-21
4.30651e-23
1.12781e-21
4.30651e-23
1.05952e-21
4.26515e-23
9.91169e-22
4.1876e-23
9.23909e-22
4.10488e-23
8.58252e-22
3.99632e-23
7.9461e-22
3.87224e-23
7.33709e-22
3.73782e-23
6.756e-22
3.5879e-23
6.20386e-22
3.45865e-23
5.6817e-22
3.31389e-23
5.19108e-22
3.17948e-23
4.72941e-22
3.04506e-23
4.29875e-22
2.90547e-23
3.89189e-22
2.76589e-23
3.51448e-22
2.64181e-23
3.15931e-22
2.52807e-23
2.82896e-22
2.41433e-23
2.51928e-22
2.30577e-23
2.22925e-22
2.1972e-23
1.95525e-22
2.10414e-23
1.69675e-22
2.02659e-23
1.45274e-22
1.9387e-23
1.22061e-22
1.8715e-23
9.99855e-23
1.80946e-23
7.85305e-23
1.75776e-23
5.79543e-23
1.7164e-23
3.78952e-23
1.67504e-23
1.85082e-23
1.63368e-23
1.54062e-23
4.95343e-13
-9.77828e-13
9.73631e-13
-9.43029e-13
1.42444e-12
-8.9861e-13
1.83901e-12
-8.2697e-13
2.20815e-12
-7.37488e-13
2.52734e-12
-6.40224e-13
2.79586e-12
-5.41073e-13
3.01517e-12
-4.44079e-13
3.18814e-12
-3.52337e-13
3.31857e-12
-2.678e-13
3.41083e-12
-1.91521e-13
3.46913e-12
-1.23373e-13
3.49826e-12
-6.45754e-14
3.49878e-12
-8.73422e-15
3.47881e-12
3.55039e-14
3.43885e-12
7.35946e-14
3.38199e-12
1.08792e-13
3.31291e-12
1.33471e-13
3.23347e-12
1.54596e-13
3.1454e-12
1.71097e-13
3.04898e-12
1.89047e-13
2.94846e-12
1.97276e-13
2.84576e-12
2.01955e-13
2.74109e-12
2.05972e-13
2.63701e-12
2.05413e-13
2.53311e-12
2.05045e-13
2.43065e-12
2.02543e-13
2.33106e-12
1.97137e-13
2.23441e-12
1.91404e-13
2.141e-12
1.85242e-13
2.05114e-12
1.78363e-13
1.96504e-12
1.71024e-13
1.88265e-12
1.63756e-13
1.80426e-12
1.56121e-13
1.72958e-12
1.48636e-13
1.65862e-12
1.41555e-13
1.59106e-12
1.34752e-13
1.5268e-12
1.28471e-13
1.46548e-12
1.2263e-13
1.40711e-12
1.17003e-13
1.35104e-12
1.1228e-13
1.29745e-12
1.07565e-13
1.24606e-12
1.0334e-13
1.19656e-12
9.94834e-14
1.14879e-12
9.62304e-14
1.10277e-12
9.29101e-14
1.05793e-12
9.07062e-14
1.01438e-12
8.80538e-14
9.72242e-13
8.55558e-14
9.31134e-13
8.34535e-14
8.91157e-13
8.13035e-14
8.52031e-13
7.97069e-14
8.13715e-13
7.81708e-14
7.76361e-13
7.64081e-14
7.39675e-13
7.50782e-14
7.03859e-13
7.34616e-14
6.68814e-13
7.20684e-14
6.34507e-13
7.05863e-14
6.0084e-13
6.95077e-14
5.67874e-13
6.81654e-14
5.3565e-13
6.67832e-14
5.04201e-13
6.53516e-14
4.73383e-13
6.41482e-14
4.43188e-13
6.29443e-14
4.13666e-13
6.17084e-14
3.84831e-13
6.03827e-14
3.56511e-13
5.93036e-14
3.28862e-13
5.80584e-14
3.01933e-13
5.6829e-14
2.75666e-13
5.54071e-14
2.50067e-13
5.39625e-14
2.2531e-13
5.2233e-14
2.01425e-13
5.00473e-14
1.78516e-13
4.68146e-14
1.55657e-13
4.11529e-14
1.25685e-13
3.19469e-14
6.33269e-14
1.34144e-14
3.52188e-14
1.31205e-13
-5.48263e-16
1.59923e-13
1.34994e-21
1.73384e-20
1.34122e-21
4.31685e-23
1.35828e-21
4.565e-23
1.42006e-21
5.01478e-23
1.45517e-21
5.45422e-23
1.46333e-21
5.81094e-23
1.44943e-21
6.09012e-23
1.41841e-21
6.29691e-23
1.37415e-21
6.42616e-23
1.32049e-21
6.50888e-23
1.25985e-21
6.55541e-23
1.19497e-21
6.56058e-23
1.12734e-21
6.52439e-23
1.05874e-21
6.46752e-23
9.90342e-22
6.38997e-23
9.22823e-22
6.29174e-23
8.56959e-22
6.18835e-23
7.93318e-22
6.0591e-23
7.3221e-22
5.91434e-23
6.74204e-22
5.77476e-23
6.1899e-22
5.60932e-23
5.66774e-22
5.44905e-23
5.17763e-22
5.28879e-23
4.71596e-22
5.10784e-23
4.2848e-22
4.95274e-23
3.87999e-22
4.78731e-23
3.50259e-22
4.6167e-23
3.14794e-22
4.45127e-23
2.81862e-22
4.30134e-23
2.50843e-22
4.13073e-23
2.22046e-22
3.98598e-23
1.94698e-22
3.83088e-23
1.689e-22
3.69646e-23
1.44602e-22
3.56722e-23
1.21492e-22
3.45348e-23
9.94685e-23
3.35008e-23
7.81169e-23
3.24668e-23
5.75925e-23
3.17948e-23
3.74299e-23
3.11744e-23
1.75259e-23
3.06574e-23
3.03989e-23
5.22148e-13
-1.50116e-12
1.02548e-12
-1.4484e-12
1.49821e-12
-1.37312e-12
1.92796e-12
-1.25846e-12
2.30552e-12
-1.11677e-12
2.62724e-12
-9.63661e-13
2.8938e-12
-8.09328e-13
3.10798e-12
-6.59943e-13
3.27381e-12
-5.19825e-13
3.39629e-12
-3.91913e-13
3.48018e-12
-2.77029e-13
3.53072e-12
-1.75497e-13
3.55123e-12
-8.66383e-14
3.54367e-12
-2.69367e-15
3.51884e-12
5.88532e-14
3.47147e-12
1.19521e-13
3.40946e-12
1.69395e-13
3.3353e-12
2.06265e-13
3.25189e-12
2.36691e-13
3.15811e-12
2.63609e-13
3.05835e-12
2.87574e-13
2.95478e-12
2.99678e-13
2.84902e-12
3.06588e-13
2.74174e-12
3.12184e-13
2.63582e-12
3.10325e-13
2.52982e-12
3.10094e-13
2.42609e-12
3.05379e-13
2.32541e-12
2.96981e-13
2.22792e-12
2.88129e-13
2.13394e-12
2.78512e-13
2.04378e-12
2.67879e-13
1.95755e-12
2.56679e-13
1.87519e-12
2.45601e-13
1.79702e-12
2.3385e-13
1.72269e-12
2.22594e-13
1.65197e-12
2.11968e-13
1.58484e-12
2.0164e-13
1.52082e-12
1.92323e-13
1.45998e-12
1.83372e-13
1.40203e-12
1.74927e-13
1.34652e-12
1.67834e-13
1.29331e-12
1.60896e-13
1.24232e-12
1.54517e-13
1.19315e-12
1.48909e-13
1.14575e-12
1.43953e-13
1.10008e-12
1.38973e-13
1.05548e-12
1.35767e-13
1.01218e-12
1.31885e-13
9.70127e-13
1.28208e-13
9.29137e-13
1.25109e-13
8.89291e-13
1.21878e-13
8.5034e-13
1.19451e-13
8.12065e-13
1.17304e-13
7.74712e-13
1.14679e-13
7.38057e-13
1.1271e-13
7.02321e-13
1.10231e-13
6.67312e-13
1.08171e-13
6.33073e-13
1.05971e-13
5.99455e-13
1.04326e-13
5.66505e-13
1.02366e-13
5.34333e-13
1.00254e-13
5.02774e-13
9.82561e-14
4.71922e-13
9.63933e-14
4.41785e-13
9.4516e-14
4.12272e-13
9.26935e-14
3.83332e-13
9.08365e-14
3.55124e-13
8.90634e-14
3.27461e-13
8.7304e-14
3.00441e-13
8.54632e-14
2.74092e-13
8.33994e-14
2.48316e-13
8.14058e-14
2.23101e-13
7.91391e-14
1.98115e-13
7.6744e-14
1.72918e-13
7.37387e-14
1.4515e-13
7.06625e-14
1.10209e-13
6.86441e-14
5.28954e-14
7.24954e-14
3.07204e-14
1.55154e-13
-5.22451e-16
1.92586e-13
1.35656e-21
2.5915e-20
1.3437e-21
6.4365e-23
1.36283e-21
7.04655e-23
1.42441e-21
7.62557e-23
1.45873e-21
8.13222e-23
1.46618e-21
8.5303e-23
1.45155e-21
8.84049e-23
1.4197e-21
9.08348e-23
1.37503e-21
9.24891e-23
1.3209e-21
9.35231e-23
1.2599e-21
9.40401e-23
1.19455e-21
9.40918e-23
1.12678e-21
9.38333e-23
1.05802e-21
9.32129e-23
9.89308e-22
9.21789e-23
9.21738e-22
9.10416e-23
8.55718e-22
8.94389e-23
7.91922e-22
8.77846e-23
7.30814e-22
8.60268e-23
6.7255e-22
8.40105e-23
6.17387e-22
8.2046e-23
5.65171e-22
7.98229e-23
5.15954e-22
7.75999e-23
4.69994e-22
7.52734e-23
4.26825e-22
7.28436e-23
3.86293e-22
7.03104e-23
3.48657e-22
6.80356e-23
3.13191e-22
6.56058e-23
2.80259e-22
6.32276e-23
2.49343e-22
6.10046e-23
2.20495e-22
5.87298e-23
1.93302e-22
5.65585e-23
1.67607e-22
5.45422e-23
1.43464e-22
5.26811e-23
1.20406e-22
5.09233e-23
9.84345e-23
4.9424e-23
7.73931e-23
4.81316e-23
5.69204e-23
4.69942e-23
3.69129e-23
4.6167e-23
1.72674e-23
4.55983e-23
4.52364e-23
5.68444e-13
-2.07073e-12
1.11047e-12
-1.99242e-12
1.61605e-12
-1.88044e-12
2.06862e-12
-1.71273e-12
2.458e-12
-1.50784e-12
2.78165e-12
-1.28899e-12
3.04321e-12
-1.07255e-12
3.24799e-12
-8.66366e-13
3.4019e-12
-6.75362e-13
3.51122e-12
-5.02836e-13
3.58237e-12
-3.49756e-13
3.62146e-12
-2.16135e-13
3.62617e-12
-9.28743e-14
3.61099e-12
1.10071e-14
3.57644e-12
9.19448e-14
3.51964e-12
1.74907e-13
3.45008e-12
2.37575e-13
3.36751e-12
2.87507e-13
3.27885e-12
3.24054e-13
3.17641e-12
3.64807e-13
3.07205e-12
3.90733e-13
2.9636e-12
4.06982e-13
2.85354e-12
4.15544e-13
2.74259e-12
4.22092e-13
2.63348e-12
4.18445e-13
2.52472e-12
4.17925e-13
2.41893e-12
4.10289e-13
2.31662e-12
3.98475e-13
2.21791e-12
3.86085e-13
2.12306e-12
3.72669e-13
2.03261e-12
3.57702e-13
1.94614e-12
3.42583e-13
1.86375e-12
3.27489e-13
1.78583e-12
3.11337e-13
1.71186e-12
2.96199e-13
1.6418e-12
2.81717e-13
1.57524e-12
2.6797e-13
1.51195e-12
2.55455e-13
1.45177e-12
2.43454e-13
1.39434e-12
2.32329e-13
1.33944e-12
2.22779e-13
1.28702e-12
2.13423e-13
1.23669e-12
2.05033e-13
1.18812e-12
1.9772e-13
1.1411e-12
1.91295e-13
1.09598e-12
1.84477e-13
1.05193e-12
1.80271e-13
1.00882e-12
1.75504e-13
9.67074e-13
1.70542e-13
9.26296e-13
1.66536e-13
8.86642e-13
1.62246e-13
8.47792e-13
1.59077e-13
8.09641e-13
1.56293e-13
7.72399e-13
1.52819e-13
7.35947e-13
1.50118e-13
7.00219e-13
1.46972e-13
6.65222e-13
1.44236e-13
6.30986e-13
1.41329e-13
5.974e-13
1.39085e-13
5.64532e-13
1.36457e-13
5.32333e-13
1.33724e-13
5.00848e-13
1.3106e-13
4.70067e-13
1.28536e-13
4.39932e-13
1.26055e-13
4.10462e-13
1.23605e-13
3.81552e-13
1.21225e-13
3.53219e-13
1.18913e-13
3.25532e-13
1.16542e-13
2.98509e-13
1.14065e-13
2.72023e-13
1.11492e-13
2.46056e-13
1.09006e-13
2.20539e-13
1.06311e-13
1.9525e-13
1.03708e-13
1.6943e-13
1.01252e-13
1.42211e-13
9.95874e-14
1.13409e-13
9.91643e-14
8.44092e-14
1.03223e-13
3.54218e-14
2.05877e-13
-5.15573e-16
2.29911e-13
1.36318e-21
3.51268e-20
1.3498e-21
8.68023e-23
1.36862e-21
9.45054e-23
1.42947e-21
1.01743e-22
1.46282e-21
1.07637e-22
1.46923e-21
1.12703e-22
1.45393e-21
1.16632e-22
1.42135e-21
1.19528e-22
1.37607e-21
1.21751e-22
1.32142e-21
1.23095e-22
1.26e-21
1.23715e-22
1.19429e-21
1.23819e-22
1.1261e-21
1.23405e-22
1.05698e-21
1.2263e-22
9.88119e-22
1.21492e-22
9.20187e-22
1.19838e-22
8.54012e-22
1.17977e-22
7.90113e-22
1.15909e-22
7.28901e-22
1.13531e-22
6.70585e-22
1.11049e-22
6.15164e-22
1.08309e-22
5.62948e-22
1.05414e-22
5.13576e-22
1.02519e-22
4.67564e-22
9.95202e-23
4.24344e-22
9.63149e-23
3.83967e-22
9.31612e-23
3.46175e-22
8.99042e-23
3.10865e-22
8.68023e-23
2.77933e-22
8.36486e-23
2.4712e-22
8.05984e-23
2.18324e-22
7.76516e-23
1.91337e-22
7.48082e-23
1.65695e-22
7.20164e-23
1.41706e-22
6.95349e-23
1.18856e-22
6.72084e-23
9.7142e-23
6.51922e-23
7.63074e-23
6.33827e-23
5.60932e-23
6.19869e-23
3.63443e-23
6.08495e-23
1.69055e-23
6.0074e-23
5.96604e-23
6.34896e-13
-2.70675e-12
1.23531e-12
-2.59481e-12
1.78817e-12
-2.43501e-12
2.27134e-12
-2.19758e-12
2.67506e-12
-1.91323e-12
2.99772e-12
-1.6133e-12
3.24901e-12
-1.32549e-12
3.43856e-12
-1.05755e-12
3.57425e-12
-8.12657e-13
3.6644e-12
-5.94573e-13
3.71886e-12
-4.05778e-13
3.73625e-12
-2.35063e-13
3.7275e-12
-8.5623e-14
3.70088e-12
3.61557e-14
3.65027e-12
1.41114e-13
3.58264e-12
2.41135e-13
3.503e-12
3.1585e-13
3.41057e-12
3.78623e-13
3.31175e-12
4.21598e-13
3.2007e-12
4.74619e-13
3.08955e-12
5.00699e-13
2.97448e-12
5.20905e-13
2.85834e-12
5.30601e-13
2.74305e-12
5.36345e-13
2.62934e-12
5.31174e-13
2.51704e-12
5.29303e-13
2.40868e-12
5.17783e-13
2.30425e-12
5.02096e-13
2.20386e-12
4.85733e-13
2.10822e-12
4.67624e-13
2.01708e-12
4.48216e-13
1.93039e-12
4.2871e-13
1.84825e-12
4.0914e-13
1.77077e-12
3.88387e-13
1.69735e-12
3.69251e-13
1.62817e-12
3.506e-13
1.56238e-12
3.33535e-13
1.50002e-12
3.17654e-13
1.44088e-12
3.02499e-13
1.38444e-12
2.88743e-13
1.33048e-12
2.76774e-13
1.27887e-12
2.65149e-13
1.22929e-12
2.54794e-13
1.18142e-12
2.45832e-13
1.1351e-12
2.3793e-13
1.09043e-12
2.29538e-13
1.04732e-12
2.23825e-13
1.00455e-12
2.18789e-13
9.63032e-13
2.12639e-13
9.22551e-13
2.0766e-13
8.83136e-13
2.02369e-13
8.44525e-13
1.98456e-13
8.06635e-13
1.95012e-13
7.69564e-13
1.90777e-13
7.33064e-13
1.87565e-13
6.97465e-13
1.83574e-13
6.62515e-13
1.80244e-13
6.28329e-13
1.76627e-13
5.9471e-13
1.73866e-13
5.61989e-13
1.70391e-13
5.29826e-13
1.67146e-13
4.98409e-13
1.63781e-13
4.6763e-13
1.60665e-13
4.37433e-13
1.57641e-13
4.08019e-13
1.54448e-13
3.79048e-13
1.51665e-13
3.50738e-13
1.48724e-13
3.2306e-13
1.45755e-13
2.9595e-13
1.42739e-13
2.69336e-13
1.39696e-13
2.43308e-13
1.3665e-13
2.17782e-13
1.33475e-13
1.92738e-13
1.30411e-13
1.68103e-13
1.2756e-13
1.43224e-13
1.26157e-13
1.19341e-13
1.24751e-13
9.44775e-14
1.29796e-13
3.89331e-14
2.63135e-13
-5.08747e-16
2.70726e-13
1.36318e-21
4.42063e-20
1.35746e-21
1.08981e-22
1.37586e-21
1.1839e-22
1.43542e-21
1.27282e-22
1.46778e-21
1.34624e-22
1.47316e-21
1.40517e-22
1.45687e-21
1.45274e-22
1.42353e-21
1.48944e-22
1.37746e-21
1.51477e-22
1.32199e-21
1.53184e-22
1.26011e-21
1.54062e-22
1.19393e-21
1.54269e-22
1.12538e-21
1.53856e-22
1.0559e-21
1.5277e-22
9.86465e-22
1.51322e-22
9.18377e-22
1.4941e-22
8.51893e-22
1.47031e-22
7.87838e-22
1.44343e-22
7.26316e-22
1.41345e-22
6.67793e-22
1.38191e-22
6.12372e-22
1.34779e-22
5.5995e-22
1.3116e-22
5.10629e-22
1.27334e-22
4.6441e-22
1.23508e-22
4.21138e-22
1.19631e-22
3.80762e-22
1.15702e-22
3.43021e-22
1.11669e-22
3.07763e-22
1.07792e-22
2.74934e-22
1.03811e-22
2.44173e-22
9.99338e-23
2.15481e-22
9.62115e-23
1.88545e-22
9.25925e-23
1.63213e-22
8.91804e-23
1.3938e-22
8.61819e-23
1.16891e-22
8.32351e-23
9.53843e-23
8.06501e-23
7.49116e-23
7.85305e-23
5.49041e-23
7.66176e-23
3.56205e-23
7.52217e-23
1.64402e-23
7.42912e-23
7.37742e-23
7.28244e-13
-3.4361e-12
1.41465e-12
-3.28317e-12
2.03294e-12
-3.05501e-12
2.55241e-12
-2.71872e-12
2.97086e-12
-2.33334e-12
3.28542e-12
-1.9295e-12
3.51706e-12
-1.55875e-12
3.68292e-12
-1.22502e-12
3.79232e-12
-9.23648e-13
3.85463e-12
-6.58454e-13
3.88363e-12
-4.3632e-13
3.87919e-12
-2.32141e-13
3.85494e-12
-6.28551e-14
3.81041e-12
7.92265e-14
3.74067e-12
2.09437e-13
3.65975e-12
3.2067e-13
3.56652e-12
4.07735e-13
3.46448e-12
4.79359e-13
3.3496e-12
5.3521e-13
3.23087e-12
5.92135e-13
3.11001e-12
6.20389e-13
2.98659e-12
6.43198e-13
2.86294e-12
6.5318e-13
2.74239e-12
6.55871e-13
2.6226e-12
6.5e-13
2.5062e-12
6.44787e-13
2.39457e-12
6.28558e-13
2.28772e-12
6.08152e-13
2.18549e-12
5.87226e-13
2.08872e-12
5.63713e-13
1.99704e-12
5.3928e-13
1.91014e-12
5.15054e-13
1.82834e-12
4.90458e-13
1.75143e-12
4.64861e-13
1.67908e-12
4.41247e-13
1.61083e-12
4.18556e-13
1.54622e-12
3.97922e-13
1.48509e-12
3.78624e-13
1.42719e-12
3.60303e-13
1.37186e-12
3.44051e-13
1.31931e-12
3.29361e-13
1.26864e-12
3.15934e-13
1.22025e-12
3.03358e-13
1.17317e-12
2.9315e-13
1.12807e-12
2.8334e-13
1.08356e-12
2.74426e-13
1.04162e-12
2.66217e-13
9.99282e-13
2.6163e-13
9.58004e-13
2.54487e-13
9.18041e-13
2.48258e-13
8.78736e-13
2.42371e-13
8.4048e-13
2.37471e-13
8.02766e-13
2.33543e-13
7.65852e-13
2.28568e-13
7.29502e-13
2.24848e-13
6.9401e-13
2.20058e-13
6.59174e-13
2.16123e-13
6.25014e-13
2.11884e-13
5.91518e-13
2.0851e-13
5.5871e-13
2.04398e-13
5.26593e-13
2.00505e-13
4.95268e-13
1.96396e-13
4.64571e-13
1.92695e-13
4.34506e-13
1.89079e-13
4.05086e-13
1.85281e-13
3.76158e-13
1.82042e-13
3.478e-13
1.78563e-13
3.20118e-13
1.74952e-13
2.92916e-13
1.71486e-13
2.66241e-13
1.67944e-13
2.40164e-13
1.64325e-13
2.14711e-13
1.6055e-13
1.90123e-13
1.56639e-13
1.66615e-13
1.52725e-13
1.43899e-13
1.50542e-13
1.25083e-13
1.4525e-13
1.07266e-13
1.49304e-13
2.91748e-14
3.42926e-13
-5.02035e-16
3.01757e-13
1.37641e-21
5.32991e-20
1.36686e-21
1.31367e-22
1.3847e-21
1.42534e-22
1.44281e-21
1.5308e-22
1.47373e-21
1.61869e-22
1.47791e-21
1.69158e-22
1.46049e-21
1.74794e-22
1.42611e-21
1.79136e-22
1.37917e-21
1.82238e-22
1.32292e-21
1.84306e-22
1.26026e-21
1.85392e-22
1.19347e-21
1.8565e-22
1.12429e-21
1.8503e-22
1.05435e-21
1.83841e-22
9.84552e-22
1.81928e-22
9.15948e-22
1.79498e-22
8.49204e-22
1.76655e-22
7.84788e-22
1.73294e-22
7.23163e-22
1.69675e-22
6.64433e-22
1.65695e-22
6.08753e-22
1.61507e-22
5.56176e-22
1.57113e-22
5.06803e-22
1.52615e-22
4.60481e-22
1.4791e-22
4.17209e-22
1.43154e-22
3.76781e-22
1.38294e-22
3.39092e-22
1.33486e-22
3.03782e-22
1.28575e-22
2.71108e-22
1.23819e-22
2.40348e-22
1.19114e-22
2.11862e-22
1.14616e-22
1.85185e-22
1.10274e-22
1.60215e-22
1.06086e-22
1.36485e-22
1.02209e-22
1.14306e-22
9.88481e-23
9.31612e-23
9.57979e-23
7.2947e-23
9.31095e-23
5.35599e-23
9.08865e-23
3.46382e-23
8.91804e-23
1.60266e-23
8.8043e-23
8.76295e-23
8.55178e-13
-4.29237e-12
1.66392e-12
-4.09383e-12
2.38717e-12
-3.77994e-12
2.93564e-12
-3.26883e-12
3.36256e-12
-2.76189e-12
3.65558e-12
-2.22415e-12
3.85477e-12
-1.75955e-12
3.98105e-12
-1.35289e-12
4.05172e-12
-9.9588e-13
4.082e-12
-6.90281e-13
4.07684e-12
-4.32677e-13
4.05089e-12
-2.07691e-13
4.00323e-12
-1.66552e-14
3.93588e-12
1.45134e-13
3.84723e-12
2.96692e-13
3.75098e-12
4.15555e-13
3.63902e-12
5.18368e-13
3.52671e-12
5.90382e-13
3.39222e-12
6.68464e-13
3.26537e-12
7.17779e-13
3.1317e-12
7.52903e-13
2.99915e-12
7.74645e-13
2.8662e-12
7.85078e-13
2.73976e-12
7.81296e-13
2.61212e-12
7.76692e-13
2.49104e-12
7.64963e-13
2.3758e-12
7.42952e-13
2.26614e-12
7.17031e-13
2.16209e-12
6.90548e-13
2.06393e-12
6.61206e-13
1.97176e-12
6.30843e-13
1.88472e-12
6.01552e-13
1.80375e-12
5.70944e-13
1.72798e-12
5.40212e-13
1.65686e-12
5.12013e-13
1.58992e-12
4.85203e-13
1.52677e-12
4.60849e-13
1.46713e-12
4.38107e-13
1.4108e-12
4.16545e-13
1.35699e-12
3.97834e-13
1.30591e-12
3.80488e-13
1.25671e-12
3.65241e-13
1.20949e-12
3.5075e-13
1.16341e-12
3.39467e-13
1.1196e-12
3.27466e-13
1.0755e-12
3.1889e-13
1.03459e-12
3.07565e-13
9.9334e-13
3.0338e-13
9.52402e-13
2.95987e-13
9.12868e-13
2.8842e-13
8.73804e-13
2.82123e-13
8.35821e-13
2.76201e-13
7.98337e-13
2.71832e-13
7.6156e-13
2.66211e-13
7.25297e-13
2.62032e-13
6.89785e-13
2.56545e-13
6.55113e-13
2.51825e-13
6.21012e-13
2.47065e-13
5.87669e-13
2.42986e-13
5.54802e-13
2.38446e-13
5.22808e-13
2.33725e-13
4.91481e-13
2.28993e-13
4.60803e-13
2.24689e-13
4.30897e-13
2.20338e-13
4.0148e-13
2.16093e-13
3.72521e-13
2.12429e-13
3.44366e-13
2.08181e-13
3.16659e-13
2.04155e-13
2.8939e-13
2.00279e-13
2.62612e-13
1.96272e-13
2.36395e-13
1.92119e-13
2.10811e-13
1.87731e-13
1.86289e-13
1.82777e-13
1.63482e-13
1.77165e-13
1.44193e-13
1.71479e-13
1.27234e-13
1.63868e-13
7.1172e-14
2.07034e-13
1.17927e-14
4.0398e-13
-4.93973e-16
3.1538e-13
1.37641e-21
6.18491e-20
1.37803e-21
1.53649e-22
1.39525e-21
1.66884e-22
1.4516e-21
1.79291e-22
1.48096e-21
1.89838e-22
1.48355e-21
1.98317e-22
1.46478e-21
2.05141e-22
1.42926e-21
2.10414e-22
1.38118e-21
2.14136e-22
1.32401e-21
2.16618e-22
1.26047e-21
2.17859e-22
1.19295e-21
2.18066e-22
1.1231e-21
2.17342e-22
1.05243e-21
2.15791e-22
9.82122e-22
2.13413e-22
9.13052e-22
2.10362e-22
8.45896e-22
2.06847e-22
7.81169e-22
2.02814e-22
7.19182e-22
1.98368e-22
6.60194e-22
1.9356e-22
6.04359e-22
1.88545e-22
5.51626e-22
1.83324e-22
5.0215e-22
1.77896e-22
4.55777e-22
1.72312e-22
4.12401e-22
1.66574e-22
3.71869e-22
1.60783e-22
3.34181e-22
1.54993e-22
2.99078e-22
1.49254e-22
2.66352e-22
1.43568e-22
2.35953e-22
1.37984e-22
2.07519e-22
1.32659e-22
1.81049e-22
1.27489e-22
1.56285e-22
1.22733e-22
1.33021e-22
1.18183e-22
1.11256e-22
1.14099e-22
9.04729e-23
1.10532e-22
7.07756e-23
1.07378e-22
5.18022e-23
1.04897e-22
3.35525e-23
1.03036e-22
1.55096e-23
1.01795e-22
1.01175e-22
1.04153e-12
-5.33498e-12
2.02588e-12
-5.08007e-12
2.86124e-12
-4.61695e-12
3.46168e-12
-3.87089e-12
3.86769e-12
-3.16951e-12
4.12064e-12
-2.47869e-12
4.2621e-12
-1.90259e-12
4.33049e-12
-1.42284e-12
4.34978e-12
-1.01671e-12
4.33915e-12
-6.81171e-13
4.30142e-12
-3.9645e-13
4.2424e-12
-1.50137e-13
4.17172e-12
5.25819e-14
4.0752e-12
2.40239e-13
3.96928e-12
4.01233e-13
3.85174e-12
5.31759e-13
3.72401e-12
6.44795e-13
3.59008e-12
7.23048e-13
3.44218e-12
8.15139e-13
3.30154e-12
8.57239e-13
3.15402e-12
8.99282e-13
3.01016e-12
9.17418e-13
2.86787e-12
9.26327e-13
2.73231e-12
9.15865e-13
2.59721e-12
9.10854e-13
2.47074e-12
8.90556e-13
2.35165e-12
8.61206e-13
2.23858e-12
8.29331e-13
2.13261e-12
7.95812e-13
2.03348e-12
7.59678e-13
1.94068e-12
7.2304e-13
1.85421e-12
6.87488e-13
1.77427e-12
6.50411e-13
1.69987e-12
6.14203e-13
1.63045e-12
5.81081e-13
1.56507e-12
5.50304e-13
1.5038e-12
5.21903e-13
1.44627e-12
4.95487e-13
1.3917e-12
4.71019e-13
1.33974e-12
4.4977e-13
1.29022e-12
4.30053e-13
1.24289e-12
4.12674e-13
1.19696e-12
3.96856e-13
1.15255e-12
3.84113e-13
1.10961e-12
3.70704e-13
1.06746e-12
3.61409e-13
1.02595e-12
3.49501e-13
9.86667e-13
3.43155e-13
9.46125e-13
3.37086e-13
9.06937e-13
3.28224e-13
8.68104e-13
3.21632e-13
8.30433e-13
3.14605e-13
7.93268e-13
3.09792e-13
7.56489e-13
3.03841e-13
7.20529e-13
2.98898e-13
6.84957e-13
2.93076e-13
6.50393e-13
2.87402e-13
6.16218e-13
2.82304e-13
5.83084e-13
2.77233e-13
5.50303e-13
2.72388e-13
5.18347e-13
2.66886e-13
4.87194e-13
2.61396e-13
4.567e-13
2.56477e-13
4.26745e-13
2.51625e-13
3.97338e-13
2.46868e-13
3.68614e-13
2.42558e-13
3.40406e-13
2.37828e-13
3.12693e-13
2.33336e-13
2.8545e-13
2.29022e-13
2.58469e-13
2.24778e-13
2.31947e-13
2.20192e-13
2.0595e-13
2.15299e-13
1.80594e-13
2.09726e-13
1.56734e-13
2.02631e-13
1.37717e-13
1.92117e-13
1.3048e-13
1.7274e-13
4.86048e-14
2.90549e-13
1.29957e-14
4.41237e-13
-4.84501e-16
3.30174e-13
1.40289e-21
6.93801e-20
1.39132e-21
1.75311e-22
1.40771e-21
1.91079e-22
1.46204e-21
2.05865e-22
1.48949e-21
2.18479e-22
1.49042e-21
2.28819e-22
1.47006e-21
2.36987e-22
1.43299e-21
2.43139e-22
1.38367e-21
2.47689e-22
1.32525e-21
2.50377e-22
1.26073e-21
2.51877e-22
1.19217e-21
2.51928e-22
1.12155e-21
2.50894e-22
1.05011e-21
2.48826e-22
9.79072e-22
2.45931e-22
9.09589e-22
2.42364e-22
8.41863e-22
2.37918e-22
7.76774e-22
2.33006e-22
7.14426e-22
2.2763e-22
6.55179e-22
2.21943e-22
5.99086e-22
2.15894e-22
5.46249e-22
2.0969e-22
4.96464e-22
2.0328e-22
4.49986e-22
1.96662e-22
4.06611e-22
1.89993e-22
3.66131e-22
1.83221e-22
3.28442e-22
1.765e-22
2.93339e-22
1.69831e-22
2.6082e-22
1.63161e-22
2.30577e-22
1.56751e-22
2.02297e-22
1.50495e-22
1.76241e-22
1.44602e-22
1.51736e-22
1.38966e-22
1.28988e-22
1.33952e-22
1.07689e-22
1.29247e-22
8.74227e-23
1.25059e-22
6.82941e-23
1.21492e-22
4.9941e-23
1.18649e-22
3.23117e-23
1.16581e-22
1.4941e-23
1.15237e-22
1.14668e-22
1.30103e-12
-6.63707e-12
2.52357e-12
-6.30447e-12
3.49237e-12
-5.58737e-12
4.16806e-12
-4.54816e-12
4.52662e-12
-3.52965e-12
4.69886e-12
-2.65249e-12
4.74763e-12
-1.95291e-12
4.73799e-12
-1.41473e-12
4.68997e-12
-9.70204e-13
4.62307e-12
-6.15765e-13
4.5423e-12
-3.17152e-13
4.45597e-12
-6.52465e-14
4.35375e-12
1.5339e-13
4.22954e-12
3.63063e-13
4.10403e-12
5.25393e-13
3.96241e-12
6.72068e-13
3.81828e-12
7.87646e-13
3.65451e-12
8.85576e-13
3.49975e-12
9.68693e-13
3.33704e-12
1.0188e-12
3.17617e-12
1.05905e-12
3.01851e-12
1.07401e-12
2.86601e-12
1.0778e-12
2.71855e-12
1.06236e-12
2.57672e-12
1.05176e-12
2.4442e-12
1.02222e-12
2.32035e-12
9.84243e-13
2.20401e-12
9.44912e-13
2.09598e-12
9.03136e-13
1.99622e-12
8.58802e-13
1.90283e-12
8.15838e-13
1.81769e-12
7.72105e-13
1.73935e-12
7.28289e-13
1.66683e-12
6.8632e-13
1.59948e-12
6.48094e-13
1.53626e-12
6.13247e-13
1.47741e-12
5.80544e-13
1.42233e-12
5.50412e-13
1.37e-12
5.23269e-13
1.32029e-12
4.99452e-13
1.27274e-12
4.77645e-13
1.22767e-12
4.57842e-13
1.18333e-12
4.41376e-13
1.14055e-12
4.27122e-13
1.09865e-12
4.12901e-13
1.05839e-12
4.02029e-13
1.01659e-12
3.91717e-13
9.79277e-13
3.80953e-13
9.39609e-13
3.77298e-13
9.00431e-13
3.68005e-13
8.62104e-13
3.6062e-13
8.24472e-13
3.52958e-13
7.87636e-13
3.47405e-13
7.50903e-13
3.41404e-13
7.15146e-13
3.35544e-13
6.79532e-13
3.2963e-13
6.45027e-13
3.22901e-13
6.10755e-13
3.17617e-13
5.77942e-13
3.11138e-13
5.45145e-13
3.06323e-13
5.13283e-13
2.99933e-13
4.82229e-13
2.93673e-13
4.51787e-13
2.88187e-13
4.21994e-13
2.82724e-13
3.92691e-13
2.77513e-13
3.64171e-13
2.72459e-13
3.36067e-13
2.67345e-13
3.08365e-13
2.6248e-13
2.80984e-13
2.57874e-13
2.53974e-13
2.53286e-13
2.27154e-13
2.48533e-13
2.00497e-13
2.43498e-13
1.74039e-13
2.37746e-13
1.47391e-13
2.30853e-13
1.20409e-13
2.2069e-13
8.88855e-14
2.05863e-13
2.73431e-14
3.53701e-13
1.38842e-14
4.56312e-13
-4.7416e-16
3.4582e-13
1.40951e-21
7.54418e-20
1.40709e-21
1.96921e-22
1.42249e-21
2.15584e-22
1.47466e-21
2.33368e-22
1.49983e-21
2.48258e-22
1.49854e-21
2.60407e-22
1.47621e-21
2.70178e-22
1.43759e-21
2.77519e-22
1.38641e-21
2.82741e-22
1.32669e-21
2.85998e-22
1.26078e-21
2.87549e-22
1.19119e-21
2.87497e-22
1.11949e-21
2.86101e-22
1.04721e-21
2.83464e-22
9.75556e-22
2.79846e-22
9.05142e-22
2.75244e-22
8.36952e-22
2.70023e-22
7.71346e-22
2.64181e-22
7.08739e-22
2.57874e-22
6.4913e-22
2.51101e-22
5.92882e-22
2.43967e-22
5.39787e-22
2.36522e-22
4.89898e-22
2.28871e-22
4.43317e-22
2.21219e-22
3.9989e-22
2.13516e-22
3.59358e-22
2.05761e-22
3.21722e-22
1.98006e-22
2.86773e-22
1.90252e-22
2.54358e-22
1.82807e-22
2.24321e-22
1.75414e-22
1.96404e-22
1.68331e-22
1.70709e-22
1.6161e-22
1.46669e-22
1.552e-22
1.24284e-22
1.4941e-22
1.03449e-22
1.44085e-22
8.38554e-23
1.39432e-22
6.5399e-23
1.35399e-22
4.78731e-23
1.32349e-22
3.09159e-23
1.30022e-22
1.4424e-23
1.28523e-22
1.27955e-22
1.71301e-12
-8.35112e-12
3.28233e-12
-7.8756e-12
4.46138e-12
-6.76801e-12
5.13797e-12
-5.2263e-12
5.36569e-12
-3.75891e-12
5.37415e-12
-2.66249e-12
5.29035e-12
-1.87062e-12
5.17851e-12
-1.3044e-12
5.05856e-12
-8.51731e-13
4.92836e-12
-4.87031e-13
4.79914e-12
-1.89362e-13
4.67922e-12
5.32603e-14
4.54437e-12
2.86858e-13
4.4012e-12
5.04871e-13
4.24571e-12
6.79568e-13
4.08814e-12
8.28351e-13
3.91106e-12
9.63482e-13
3.73092e-12
1.0645e-12
3.5555e-12
1.14294e-12
3.37302e-12
1.20015e-12
3.1956e-12
1.23538e-12
3.02245e-12
1.24612e-12
2.85745e-12
1.24181e-12
2.69839e-12
1.22046e-12
2.54845e-12
1.2008e-12
2.40944e-12
1.16038e-12
2.28043e-12
1.11246e-12
2.16127e-12
1.06333e-12
2.05184e-12
1.01188e-12
1.95115e-12
9.58862e-13
1.8585e-12
9.07917e-13
1.77521e-12
8.54887e-13
1.69894e-12
8.0411e-13
1.62875e-12
7.56112e-13
1.56364e-12
7.12872e-13
1.50352e-12
6.731e-13
1.44747e-12
6.36382e-13
1.39532e-12
6.02418e-13
1.3456e-12
5.72901e-13
1.29865e-12
5.46378e-13
1.25382e-12
5.22518e-13
1.21041e-12
5.01357e-13
1.16833e-12
4.83626e-13
1.12734e-12
4.68335e-13
1.08706e-12
4.53473e-13
1.04812e-12
4.41323e-13
1.00813e-12
4.32113e-13
9.70581e-13
4.18971e-13
9.32696e-13
4.15714e-13
8.93554e-13
4.07737e-13
8.55854e-13
3.98969e-13
8.17936e-13
3.91579e-13
7.8159e-13
3.84513e-13
7.45009e-13
3.78802e-13
7.0923e-13
3.7219e-13
6.73432e-13
3.66349e-13
6.38909e-13
3.58393e-13
6.04872e-13
3.52673e-13
5.71977e-13
3.45101e-13
5.39374e-13
3.40039e-13
5.07414e-13
3.33049e-13
4.76468e-13
3.2582e-13
4.46241e-13
3.19651e-13
4.16796e-13
3.13447e-13
3.87632e-13
3.07991e-13
3.59228e-13
3.02212e-13
3.31281e-13
2.96674e-13
3.03669e-13
2.91504e-13
2.76301e-13
2.8668e-13
2.49216e-13
2.81835e-13
2.22033e-13
2.77204e-13
1.94753e-13
2.72284e-13
1.6667e-13
2.67352e-13
1.36362e-13
2.62705e-13
1.01655e-13
2.56951e-13
4.91268e-14
2.59957e-13
1.31556e-14
3.91246e-13
1.04394e-14
4.60609e-13
-4.62186e-16
3.57978e-13
1.42936e-21
7.93858e-20
1.4257e-21
2.18324e-22
1.44028e-21
2.40606e-22
1.48955e-21
2.61596e-22
1.51193e-21
2.7938e-22
1.50831e-21
2.93959e-22
1.48355e-21
3.05333e-22
1.44276e-21
3.14018e-22
1.38966e-21
3.1986e-22
1.32825e-21
3.23634e-22
1.26078e-21
3.2503e-22
1.18969e-21
3.24824e-22
1.1169e-21
3.22911e-22
1.04354e-21
3.19654e-22
9.70903e-22
3.15104e-22
8.99921e-22
3.09521e-22
8.3111e-22
3.03162e-22
7.64987e-22
2.96234e-22
7.01966e-22
2.88789e-22
6.42047e-22
2.80724e-22
5.85385e-22
2.72453e-22
5.32136e-22
2.63922e-22
4.82195e-22
2.55082e-22
4.35614e-22
2.4619e-22
3.92135e-22
2.37349e-22
3.51655e-22
2.28354e-22
3.14018e-22
2.19565e-22
2.79277e-22
2.10931e-22
2.47017e-22
2.02349e-22
2.17187e-22
1.94129e-22
1.89735e-22
1.86064e-22
1.64299e-22
1.78464e-22
1.40879e-22
1.71485e-22
1.18959e-22
1.64971e-22
9.87964e-23
1.59025e-22
7.99263e-23
1.53804e-22
6.23487e-23
1.49513e-22
4.55466e-23
1.45997e-22
2.94166e-23
1.43412e-22
1.38036e-23
1.41913e-22
1.41396e-22
2.47378e-12
-1.08259e-11
4.62188e-12
-1.00255e-11
5.96007e-12
-8.10774e-12
6.4738e-12
-5.74154e-12
6.42552e-12
-3.71214e-12
6.14302e-12
-2.38147e-12
5.86458e-12
-1.59366e-12
5.61091e-12
-1.05218e-12
5.42357e-12
-6.65841e-13
5.25019e-12
-3.15064e-13
5.07463e-12
-1.52099e-14
4.9017e-12
2.24816e-13
4.74742e-12
4.39789e-13
4.58129e-12
6.69685e-13
4.40233e-12
8.57239e-13
4.21493e-12
1.01449e-12
4.0126e-12
1.16459e-12
3.81434e-12
1.26158e-12
3.60902e-12
1.34712e-12
3.40743e-12
1.40064e-12
3.21016e-12
1.43159e-12
3.01936e-12
1.4359e-12
2.84108e-12
1.41912e-12
2.66895e-12
1.39167e-12
2.50998e-12
1.3589e-12
2.3645e-12
1.30504e-12
2.23068e-12
1.2455e-12
2.10866e-12
1.18463e-12
1.99835e-12
1.12152e-12
1.89698e-12
1.05963e-12
1.80629e-12