/*--------------------------------*- C++ -*----------------------------------*\
  =========                 |
  \\      /  F ield         | OpenFOAM: The Open Source CFD Toolbox
   \\    /   O peration     | Website:  https://openfoam.org
    \\  /    A nd           | Version:  6
     \\/     M anipulation  |
\*---------------------------------------------------------------------------*/
FoamFile
{
    version     2.0;
    format      ascii;
    class       volVectorField;
    location    "9800";
    object      U;
}
// * * * * * * * * * * * * * * * * * * * * * * * * * * * * * * * * * * * * * //

dimensions      [0 1 -1 0 0 0 0];

internalField   nonuniform List<vector> 
4800
(
(9.87282e-08 0 -9.21227e-08)
(2.85054e-07 0 -9.12893e-08)
(4.63618e-07 0 -8.90593e-08)
(6.34938e-07 0 -8.26883e-08)
(7.90128e-07 0 -7.42759e-08)
(9.26711e-07 0 -6.50363e-08)
(1.0442e-06 0 -5.54619e-08)
(1.14255e-06 0 -4.59409e-08)
(1.2223e-06 0 -3.68155e-08)
(1.28456e-06 0 -2.83239e-08)
(1.33079e-06 0 -2.05676e-08)
(1.36256e-06 0 -1.35618e-08)
(1.38149e-06 0 -7.42121e-09)
(1.38933e-06 0 -1.91547e-09)
(1.38672e-06 0 3.10537e-09)
(1.37637e-06 0 6.74489e-09)
(1.35858e-06 0 1.04682e-08)
(1.33447e-06 0 1.29971e-08)
(1.30537e-06 0 1.51579e-08)
(1.27263e-06 0 1.67184e-08)
(1.23696e-06 0 1.85851e-08)
(1.19848e-06 0 1.9363e-08)
(1.15811e-06 0 1.98162e-08)
(1.11717e-06 0 2.01694e-08)
(1.076e-06 0 2.01515e-08)
(1.03475e-06 0 2.00567e-08)
(9.93783e-07 0 1.98093e-08)
(9.53551e-07 0 1.92746e-08)
(9.14455e-07 0 1.86934e-08)
(8.76591e-07 0 1.80905e-08)
(8.40005e-07 0 1.74166e-08)
(8.04837e-07 0 1.66982e-08)
(7.7116e-07 0 1.60198e-08)
(7.38966e-07 0 1.53332e-08)
(7.08277e-07 0 1.46734e-08)
(6.79078e-07 0 1.40855e-08)
(6.5129e-07 0 1.34385e-08)
(6.24831e-07 0 1.28292e-08)
(5.99607e-07 0 1.21582e-08)
(5.75539e-07 0 1.1497e-08)
(5.5255e-07 0 1.0921e-08)
(5.30551e-07 0 1.04388e-08)
(5.09458e-07 0 1.00325e-08)
(4.89198e-07 0 9.6224e-09)
(4.69705e-07 0 9.30009e-09)
(4.50911e-07 0 8.95072e-09)
(4.32697e-07 0 8.71921e-09)
(4.14973e-07 0 8.42435e-09)
(3.97761e-07 0 8.18045e-09)
(3.81054e-07 0 7.95227e-09)
(3.64796e-07 0 7.72207e-09)
(3.48952e-07 0 7.54018e-09)
(3.33464e-07 0 7.35246e-09)
(3.18307e-07 0 7.15627e-09)
(3.0349e-07 0 6.9882e-09)
(2.8899e-07 0 6.80354e-09)
(2.74806e-07 0 6.63755e-09)
(2.6094e-07 0 6.44815e-09)
(2.47364e-07 0 6.30198e-09)
(2.34049e-07 0 6.13345e-09)
(2.20994e-07 0 5.95677e-09)
(2.08235e-07 0 5.77878e-09)
(1.95767e-07 0 5.62022e-09)
(1.83559e-07 0 5.45377e-09)
(1.71607e-07 0 5.28663e-09)
(1.59919e-07 0 5.11052e-09)
(1.485e-07 0 4.93939e-09)
(1.37345e-07 0 4.75899e-09)
(1.2643e-07 0 4.60551e-09)
(1.1578e-07 0 4.41528e-09)
(1.05464e-07 0 4.21816e-09)
(9.55173e-08 0 4.02188e-09)
(8.60609e-08 0 3.77903e-09)
(7.74088e-08 0 3.47366e-09)
(7.048e-08 0 2.97579e-09)
(6.75841e-08 0 1.62098e-09)
(7.10942e-08 0 -1.18652e-08)
(6.49232e-08 0 1.60843e-09)
(-5.13468e-10 0 2.33866e-08)
(-2.42797e-15 0 2.079e-15)
(2.7314e-16 0 5.12852e-18)
(5.42289e-16 0 1.57164e-18)
(5.52867e-16 0 2.7297e-18)
(5.72078e-16 0 4.37372e-18)
(5.81374e-16 0 5.68687e-18)
(5.80805e-16 0 6.70016e-18)
(5.72306e-16 0 7.44463e-18)
(5.57665e-16 0 7.97195e-18)
(5.38371e-16 0 8.32351e-18)
(5.15758e-16 0 8.5303e-18)
(4.9087e-16 0 8.61302e-18)
(4.64545e-16 0 8.61302e-18)
(4.37465e-16 0 8.5303e-18)
(4.10137e-16 0 8.3752e-18)
(3.83016e-16 0 8.20977e-18)
(3.56432e-16 0 7.99263e-18)
(3.30572e-16 0 7.74448e-18)
(3.05664e-16 0 7.47565e-18)
(2.81862e-16 0 7.17579e-18)
(2.59197e-16 0 6.9173e-18)
(2.37711e-16 0 6.62779e-18)
(2.17455e-16 0 6.35895e-18)
(1.9841e-16 0 6.09012e-18)
(1.80563e-16 0 5.81094e-18)
(1.63813e-16 0 5.53177e-18)
(1.48127e-16 0 5.28362e-18)
(1.33476e-16 0 5.05614e-18)
(1.19765e-16 0 4.82867e-18)
(1.06965e-16 0 4.61153e-18)
(9.49707e-17 0 4.3944e-18)
(8.369e-17 0 4.20828e-18)
(7.30401e-17 0 4.05319e-18)
(6.29898e-17 0 3.87741e-18)
(5.34669e-17 0 3.74299e-18)
(4.44093e-17 0 3.61892e-18)
(3.57032e-17 0 3.51552e-18)
(2.7297e-17 0 3.4328e-18)
(1.91699e-17 0 3.35008e-18)
(1.12807e-17 0 3.26736e-18)
(3.70163e-18 0 3.08125e-18)
(9.07965e-08 0 -2.91734e-07)
(3.01355e-07 0 -2.78897e-07)
(4.75968e-07 0 -2.66087e-07)
(6.50425e-07 0 -2.44445e-07)
(8.08176e-07 0 -2.17715e-07)
(9.45749e-07 0 -1.88911e-07)
(1.06325e-06 0 -1.59586e-07)
(1.16094e-06 0 -1.30883e-07)
(1.23953e-06 0 -1.03734e-07)
(1.30034e-06 0 -7.87073e-08)
(1.34497e-06 0 -5.6122e-08)
(1.37511e-06 0 -3.59183e-08)
(1.39257e-06 0 -1.83925e-08)
(1.3988e-06 0 -2.43847e-09)
(1.39481e-06 0 1.14431e-08)
(1.38343e-06 0 2.20675e-08)
(1.36443e-06 0 3.28868e-08)
(1.3393e-06 0 4.02783e-08)
(1.30936e-06 0 4.66189e-08)
(1.27585e-06 0 5.13018e-08)
(1.23928e-06 0 5.69965e-08)
(1.20006e-06 0 5.94652e-08)
(1.15915e-06 0 6.08941e-08)
(1.11769e-06 0 6.21101e-08)
(1.07603e-06 0 6.21032e-08)
(1.03437e-06 0 6.1945e-08)
(9.93082e-07 0 6.12715e-08)
(9.52595e-07 0 5.96902e-08)
(9.13298e-07 0 5.79632e-08)
(8.75281e-07 0 5.61331e-08)
(8.38601e-07 0 5.40489e-08)
(8.03381e-07 0 5.18384e-08)
(7.69675e-07 0 4.96036e-08)
(7.3749e-07 0 4.7349e-08)
(7.06851e-07 0 4.49702e-08)
(6.77692e-07 0 4.27945e-08)
(6.49956e-07 0 4.07305e-08)
(6.23575e-07 0 3.88785e-08)
(5.98449e-07 0 3.72108e-08)
(5.74492e-07 0 3.56571e-08)
(5.51603e-07 0 3.4146e-08)
(5.29665e-07 0 3.27003e-08)
(5.08643e-07 0 3.14264e-08)
(4.88481e-07 0 3.02021e-08)
(4.69037e-07 0 2.92633e-08)
(4.50289e-07 0 2.83003e-08)
(4.32151e-07 0 2.76382e-08)
(4.14512e-07 0 2.68005e-08)
(3.97348e-07 0 2.60595e-08)
(3.80688e-07 0 2.54049e-08)
(3.64477e-07 0 2.47586e-08)
(3.48658e-07 0 2.42896e-08)
(3.33192e-07 0 2.38421e-08)
(3.18055e-07 0 2.33285e-08)
(3.0324e-07 0 2.29252e-08)
(2.88751e-07 0 2.2445e-08)
(2.74574e-07 0 2.20535e-08)
(2.60707e-07 0 2.16249e-08)
(2.47127e-07 0 2.13429e-08)
(2.33817e-07 0 2.09655e-08)
(2.20775e-07 0 2.05752e-08)
(2.08031e-07 0 2.01714e-08)
(1.95578e-07 0 1.98236e-08)
(1.83384e-07 0 1.94821e-08)
(1.71433e-07 0 1.91553e-08)
(1.59754e-07 0 1.87855e-08)
(1.48329e-07 0 1.84866e-08)
(1.37139e-07 0 1.81701e-08)
(1.26209e-07 0 1.78619e-08)
(1.15568e-07 0 1.74513e-08)
(1.05194e-07 0 1.7047e-08)
(9.51137e-08 0 1.65677e-08)
(8.53539e-08 0 1.59367e-08)
(7.59192e-08 0 1.50155e-08)
(6.65333e-08 0 1.29229e-08)
(5.78046e-08 0 7.76326e-09)
(3.53362e-08 0 -7.68052e-09)
(2.49131e-08 0 5.05913e-08)
(-4.1115e-10 0 5.36893e-08)
(-1.61348e-15 0 5.5276e-15)
(2.69585e-16 0 1.37622e-17)
(5.39901e-16 0 1.07017e-17)
(5.55669e-16 0 1.27593e-17)
(5.75046e-16 0 1.52822e-17)
(5.837e-16 0 1.73088e-17)
(5.82552e-16 0 1.88804e-17)
(5.73567e-16 0 2.00385e-17)
(5.58512e-16 0 2.08243e-17)
(5.38929e-16 0 2.13413e-17)
(5.16068e-16 0 2.16411e-17)
(4.90963e-16 0 2.17342e-17)
(4.64462e-16 0 2.16618e-17)
(4.37217e-16 0 2.14653e-17)
(4.09816e-16 0 2.11551e-17)
(3.82633e-16 0 2.07933e-17)
(3.55957e-16 0 2.03693e-17)
(3.30055e-16 0 1.98627e-17)
(3.05106e-16 0 1.93043e-17)
(2.81283e-16 0 1.87253e-17)
(2.58639e-16 0 1.81359e-17)
(2.37153e-16 0 1.75259e-17)
(2.16907e-16 0 1.69365e-17)
(1.97872e-16 0 1.63058e-17)
(1.80015e-16 0 1.57164e-17)
(1.63296e-16 0 1.51064e-17)
(1.47652e-16 0 1.4517e-17)
(1.33011e-16 0 1.39587e-17)
(1.19331e-16 0 1.34313e-17)
(1.06541e-16 0 1.2873e-17)
(9.45778e-17 0 1.23664e-17)
(8.33488e-17 0 1.187e-17)
(7.27195e-17 0 1.14461e-17)
(6.27003e-17 0 1.10118e-17)
(5.32187e-17 0 1.065e-17)
(4.41921e-17 0 1.03191e-17)
(3.55171e-17 0 1.00089e-17)
(2.71419e-17 0 9.79175e-18)
(1.90045e-17 0 9.58496e-18)
(1.09912e-17 0 9.39884e-18)
(3.50518e-18 0 9.16103e-18)
(9.12928e-08 0 -4.94668e-07)
(3.20307e-07 0 -4.77924e-07)
(5.00466e-07 0 -4.54015e-07)
(6.82403e-07 0 -4.16863e-07)
(8.45397e-07 0 -3.70802e-07)
(9.85182e-07 0 -3.20878e-07)
(1.10274e-06 0 -2.70267e-07)
(1.19902e-06 0 -2.21035e-07)
(1.27518e-06 0 -1.74677e-07)
(1.33295e-06 0 -1.32172e-07)
(1.37431e-06 0 -9.3891e-08)
(1.40121e-06 0 -5.98144e-08)
(1.41545e-06 0 -3.04591e-08)
(1.41833e-06 0 -2.35583e-09)
(1.41182e-06 0 1.89863e-08)
(1.39805e-06 0 3.83488e-08)
(1.37657e-06 0 5.55945e-08)
(1.34915e-06 0 6.79487e-08)
(1.31737e-06 0 7.83694e-08)
(1.28221e-06 0 8.67123e-08)
(1.24381e-06 0 9.53299e-08)
(1.20303e-06 0 9.933e-08)
(1.16104e-06 0 1.01599e-07)
(1.11856e-06 0 1.03494e-07)
(1.07593e-06 0 1.03085e-07)
(1.03344e-06 0 1.02873e-07)
(9.9153e-07 0 1.0143e-07)
(9.50555e-07 0 9.86729e-08)
(9.1087e-07 0 9.57485e-08)
(8.72562e-07 0 9.26059e-08)
(8.35705e-07 0 8.91456e-08)
(8.00421e-07 0 8.54208e-08)
(7.66684e-07 0 8.17777e-08)
(7.34544e-07 0 7.78303e-08)
(7.04e-07 0 7.41354e-08)
(6.74984e-07 0 7.05932e-08)
(6.47389e-07 0 6.71398e-08)
(6.21136e-07 0 6.39702e-08)
(5.96152e-07 0 6.0917e-08)
(5.72375e-07 0 5.80267e-08)
(5.49666e-07 0 5.58533e-08)
(5.27941e-07 0 5.3533e-08)
(5.0708e-07 0 5.1453e-08)
(4.87041e-07 0 4.96152e-08)
(4.67733e-07 0 4.79401e-08)
(4.49134e-07 0 4.62465e-08)
(4.31121e-07 0 4.51601e-08)
(4.13592e-07 0 4.38793e-08)
(3.9649e-07 0 4.26678e-08)
(3.79865e-07 0 4.16267e-08)
(3.63702e-07 0 4.05694e-08)
(3.47939e-07 0 3.97513e-08)
(3.32521e-07 0 3.89888e-08)
(3.17406e-07 0 3.81219e-08)
(3.02596e-07 0 3.74489e-08)
(2.88121e-07 0 3.66524e-08)
(2.73957e-07 0 3.59584e-08)
(2.60124e-07 0 3.51906e-08)
(2.46565e-07 0 3.46255e-08)
(2.33272e-07 0 3.39615e-08)
(2.20236e-07 0 3.32627e-08)
(2.0749e-07 0 3.25661e-08)
(1.95012e-07 0 3.19569e-08)
(1.82807e-07 0 3.135e-08)
(1.7087e-07 0 3.07369e-08)
(1.59189e-07 0 3.0093e-08)
(1.47753e-07 0 2.95069e-08)
(1.36574e-07 0 2.88803e-08)
(1.25637e-07 0 2.82549e-08)
(1.14956e-07 0 2.75639e-08)
(1.04518e-07 0 2.68703e-08)
(9.43046e-08 0 2.60787e-08)
(8.42254e-08 0 2.51959e-08)
(7.41803e-08 0 2.39194e-08)
(6.35204e-08 0 2.21658e-08)
(5.25676e-08 0 1.97937e-08)
(3.06554e-08 0 1.6773e-08)
(1.90328e-08 0 6.07227e-08)
(-3.91058e-10 0 7.02274e-08)
(-1.513e-15 0 8.6421e-15)
(2.70087e-16 0 2.15067e-17)
(5.41307e-16 0 2.32231e-17)
(5.57447e-16 0 2.52807e-17)
(5.76628e-16 0 2.71729e-17)
(5.84982e-16 0 2.86825e-17)
(5.83545e-16 0 2.98612e-17)
(5.7425e-16 0 3.07608e-17)
(5.58947e-16 0 3.13501e-17)
(5.39187e-16 0 3.17224e-17)
(5.16161e-16 0 3.19188e-17)
(4.9089e-16 0 3.19395e-17)
(4.64266e-16 0 3.18154e-17)
(4.36958e-16 0 3.15776e-17)
(4.09465e-16 0 3.12157e-17)
(3.82209e-16 0 3.07918e-17)
(3.55491e-16 0 3.02645e-17)
(3.29528e-16 0 2.96751e-17)
(3.04547e-16 0 2.9034e-17)
(2.80673e-16 0 2.83516e-17)
(2.57987e-16 0 2.76278e-17)
(2.36512e-16 0 2.68627e-17)
(2.16225e-16 0 2.60976e-17)
(1.9719e-16 0 2.52704e-17)
(1.79364e-16 0 2.44742e-17)
(1.62624e-16 0 2.36367e-17)
(1.4699e-16 0 2.28405e-17)
(1.3237e-16 0 2.20237e-17)
(1.1869e-16 0 2.12482e-17)
(1.0592e-16 0 2.04624e-17)
(9.39677e-17 0 1.97179e-17)
(8.27594e-17 0 1.89735e-17)
(7.21819e-17 0 1.83014e-17)
(6.22143e-17 0 1.76706e-17)
(5.27741e-17 0 1.70916e-17)
(4.37682e-17 0 1.6585e-17)
(3.51655e-17 0 1.61197e-17)
(2.68627e-17 0 1.57578e-17)
(1.87667e-17 0 1.54683e-17)
(1.08361e-17 0 1.52511e-17)
(3.45348e-18 0 1.51271e-17)
(9.65274e-08 0 -7.12317e-07)
(3.49349e-07 0 -6.86377e-07)
(5.40472e-07 0 -6.48713e-07)
(7.33527e-07 0 -5.92372e-07)
(9.03998e-07 0 -5.23343e-07)
(1.04659e-06 0 -4.49284e-07)
(1.16349e-06 0 -3.75367e-07)
(1.25689e-06 0 -3.04433e-07)
(1.32878e-06 0 -2.3835e-07)
(1.38154e-06 0 -1.78348e-07)
(1.4177e-06 0 -1.2482e-07)
(1.43967e-06 0 -7.74661e-08)
(1.44873e-06 0 -3.67205e-08)
(1.44671e-06 0 2.89035e-09)
(1.43695e-06 0 3.03707e-08)
(1.41927e-06 0 5.89131e-08)
(1.39441e-06 0 8.14024e-08)
(1.36368e-06 0 9.86386e-08)
(1.32899e-06 0 1.12695e-07)
(1.29135e-06 0 1.25328e-07)
(1.25042e-06 0 1.35986e-07)
(1.20732e-06 0 1.41586e-07)
(1.16368e-06 0 1.44538e-07)
(1.1197e-06 0 1.46967e-07)
(1.0757e-06 0 1.45816e-07)
(1.03191e-06 0 1.45678e-07)
(9.89078e-07 0 1.43204e-07)
(9.47388e-07 0 1.39107e-07)
(9.07111e-07 0 1.34872e-07)
(8.68378e-07 0 1.30256e-07)
(8.31293e-07 0 1.25104e-07)
(7.95906e-07 0 1.19813e-07)
(7.62129e-07 0 1.14562e-07)
(7.30008e-07 0 1.09057e-07)
(6.99591e-07 0 1.03769e-07)
(6.70778e-07 0 9.88015e-08)
(6.43437e-07 0 9.3978e-08)
(6.17435e-07 0 8.96467e-08)
(5.92718e-07 0 8.55342e-08)
(5.692e-07 0 8.15759e-08)
(5.46728e-07 0 7.80686e-08)
(5.25232e-07 0 7.49575e-08)
(5.04688e-07 0 7.19257e-08)
(4.84923e-07 0 6.92723e-08)
(4.65815e-07 0 6.69926e-08)
(4.47378e-07 0 6.4738e-08)
(4.29541e-07 0 6.32405e-08)
(4.12222e-07 0 6.14622e-08)
(3.95237e-07 0 5.97557e-08)
(3.78674e-07 0 5.83321e-08)
(3.62609e-07 0 5.6798e-08)
(3.46902e-07 0 5.57124e-08)
(3.31524e-07 0 5.47338e-08)
(3.16466e-07 0 5.3511e-08)
(3.01693e-07 0 5.25786e-08)
(2.87278e-07 0 5.14317e-08)
(2.73132e-07 0 5.04594e-08)
(2.593e-07 0 4.94452e-08)
(2.45726e-07 0 4.86865e-08)
(2.3246e-07 0 4.77543e-08)
(2.19452e-07 0 4.6782e-08)
(2.06709e-07 0 4.58472e-08)
(1.94248e-07 0 4.49574e-08)
(1.82064e-07 0 4.40665e-08)
(1.70141e-07 0 4.31981e-08)
(1.58468e-07 0 4.23416e-08)
(1.4702e-07 0 4.15306e-08)
(1.3581e-07 0 4.07102e-08)
(1.24858e-07 0 3.98522e-08)
(1.14158e-07 0 3.89118e-08)
(1.03657e-07 0 3.8012e-08)
(9.33522e-08 0 3.701e-08)
(8.31765e-08 0 3.59639e-08)
(7.30024e-08 0 3.47811e-08)
(6.24238e-08 0 3.35521e-08)
(5.25533e-08 0 3.24449e-08)
(3.68579e-08 0 3.39221e-08)
(1.98119e-08 0 7.26725e-08)
(-3.83372e-10 0 8.38233e-08)
(-1.52138e-15 0 1.22017e-14)
(2.71309e-16 0 3.02335e-17)
(5.43685e-16 0 3.29942e-17)
(5.59619e-16 0 3.55998e-17)
(5.78458e-16 0 3.77918e-17)
(5.86409e-16 0 3.96013e-17)
(5.84631e-16 0 4.10075e-17)
(5.75056e-16 0 4.20725e-17)
(5.59484e-16 0 4.2848e-17)
(5.39498e-16 0 4.33236e-17)
(5.16285e-16 0 4.35511e-17)
(4.90859e-16 0 4.35821e-17)
(4.64079e-16 0 4.34477e-17)
(4.36617e-16 0 4.31685e-17)
(4.0902e-16 0 4.27342e-17)
(3.81661e-16 0 4.21759e-17)
(3.5484e-16 0 4.14831e-17)
(3.28825e-16 0 4.07386e-17)
(3.03803e-16 0 3.99115e-17)
(2.79897e-16 0 3.90119e-17)
(2.5715e-16 0 3.8071e-17)
(2.35622e-16 0 3.70474e-17)
(2.15305e-16 0 3.60237e-17)
(1.96228e-16 0 3.49587e-17)
(1.78382e-16 0 3.38317e-17)
(1.61662e-16 0 3.26943e-17)
(1.46028e-16 0 3.1588e-17)
(1.31408e-16 0 3.04816e-17)
(1.1776e-16 0 2.93753e-17)
(1.05011e-16 0 2.83206e-17)
(9.30888e-17 0 2.72763e-17)
(8.19322e-17 0 2.62733e-17)
(7.14064e-17 0 2.53117e-17)
(6.14802e-17 0 2.44432e-17)
(5.21124e-17 0 2.36263e-17)
(4.31995e-17 0 2.29232e-17)
(3.46899e-17 0 2.23029e-17)
(2.64801e-17 0 2.17962e-17)
(1.84875e-17 0 2.14033e-17)
(1.065e-17 0 2.11345e-17)
(3.3811e-18 0 2.09794e-17)
(1.05043e-07 0 -9.52301e-07)
(3.90887e-07 0 -9.14225e-07)
(5.99214e-07 0 -8.59726e-07)
(8.07731e-07 0 -7.79118e-07)
(9.87934e-07 0 -6.81692e-07)
(1.13334e-06 0 -5.78582e-07)
(1.24785e-06 0 -4.78166e-07)
(1.33613e-06 0 -3.83574e-07)
(1.40137e-06 0 -2.96607e-07)
(1.44662e-06 0 -2.18631e-07)
(1.47552e-06 0 -1.5011e-07)
(1.48987e-06 0 -9.18312e-08)
(1.49206e-06 0 -3.32793e-08)
(1.48503e-06 0 9.7809e-09)
(1.46984e-06 0 4.6156e-08)
(1.44681e-06 0 8.37735e-08)
(1.4175e-06 0 1.11075e-07)
(1.38276e-06 0 1.33469e-07)
(1.34441e-06 0 1.48816e-07)
(1.30291e-06 0 1.68373e-07)
(1.25888e-06 0 1.78351e-07)
(1.21287e-06 0 1.85598e-07)
(1.1669e-06 0 1.89327e-07)
(1.12077e-06 0 1.91924e-07)
(1.07498e-06 0 1.90002e-07)
(1.02954e-06 0 1.89559e-07)
(9.85492e-07 0 1.85705e-07)
(9.42866e-07 0 1.80233e-07)
(9.01856e-07 0 1.74442e-07)
(8.62594e-07 0 1.68173e-07)
(8.25209e-07 0 1.61242e-07)
(7.89665e-07 0 1.54322e-07)
(7.55871e-07 0 1.47386e-07)
(7.23899e-07 0 1.39952e-07)
(6.93671e-07 0 1.33074e-07)
(6.65148e-07 0 1.26444e-07)
(6.38127e-07 0 1.20278e-07)
(6.12473e-07 0 1.14616e-07)
(5.88149e-07 0 1.0917e-07)
(5.65035e-07 0 1.04259e-07)
(5.42921e-07 0 1.0006e-07)
(5.2184e-07 0 9.56167e-08)
(5.01575e-07 0 9.19689e-08)
(4.82096e-07 0 8.87747e-08)
(4.6325e-07 0 8.59444e-08)
(4.45092e-07 0 8.28129e-08)
(4.27462e-07 0 8.09725e-08)
(4.10419e-07 0 7.88864e-08)
(3.93637e-07 0 7.66683e-08)
(3.77117e-07 0 7.48935e-08)
(3.61144e-07 0 7.29803e-08)
(3.45553e-07 0 7.15604e-08)
(3.30265e-07 0 7.03121e-08)
(3.15298e-07 0 6.87555e-08)
(3.00557e-07 0 6.75758e-08)
(2.86166e-07 0 6.61668e-08)
(2.72033e-07 0 6.49568e-08)
(2.58229e-07 0 6.36505e-08)
(2.44662e-07 0 6.26312e-08)
(2.31416e-07 0 6.1428e-08)
(2.1844e-07 0 6.02088e-08)
(2.05723e-07 0 5.90114e-08)
(1.93275e-07 0 5.78851e-08)
(1.81081e-07 0 5.68047e-08)
(1.69156e-07 0 5.56787e-08)
(1.57475e-07 0 5.46481e-08)
(1.46029e-07 0 5.35896e-08)
(1.34813e-07 0 5.25286e-08)
(1.23853e-07 0 5.1428e-08)
(1.13119e-07 0 5.02996e-08)
(1.02578e-07 0 4.91903e-08)
(9.22669e-08 0 4.79987e-08)
(8.21591e-08 0 4.6831e-08)
(7.22521e-08 0 4.57061e-08)
(6.23163e-08 0 4.49925e-08)
(5.35584e-08 0 4.48551e-08)
(4.04274e-08 0 4.78988e-08)
(2.08789e-08 0 9.29501e-08)
(-3.77014e-10 0 9.99734e-08)
(-1.51101e-15 0 1.58727e-14)
(2.72833e-16 0 3.91567e-17)
(5.46663e-16 0 4.25791e-17)
(5.62255e-16 0 4.58051e-17)
(5.80639e-16 0 4.84521e-17)
(5.88188e-16 0 5.06441e-17)
(5.86006e-16 0 5.23812e-17)
(5.7608e-16 0 5.36944e-17)
(5.60198e-16 0 5.46456e-17)
(5.3989e-16 0 5.52557e-17)
(5.16419e-16 0 5.55555e-17)
(4.90808e-16 0 5.56176e-17)
(4.63862e-16 0 5.54521e-17)
(4.36255e-16 0 5.50799e-17)
(4.08472e-16 0 5.45629e-17)
(3.80968e-16 0 5.38495e-17)
(3.54054e-16 0 5.30016e-17)
(3.27946e-16 0 5.20503e-17)
(3.02831e-16 0 5.0975e-17)
(2.78822e-16 0 4.9848e-17)
(2.56033e-16 0 4.86175e-17)
(2.34464e-16 0 4.73147e-17)
(2.14116e-16 0 4.59706e-17)
(1.95008e-16 0 4.46057e-17)
(1.7711e-16 0 4.31892e-17)
(1.6038e-16 0 4.17726e-17)
(1.44757e-16 0 4.03147e-17)
(1.30157e-16 0 3.89189e-17)
(1.16539e-16 0 3.7492e-17)
(1.03822e-16 0 3.61064e-17)
(9.19308e-17 0 3.47726e-17)
(8.08052e-17 0 3.34801e-17)
(7.03517e-17 0 3.22394e-17)
(6.05186e-17 0 3.11434e-17)
(5.12542e-17 0 3.00887e-17)
(4.2455e-17 0 2.91685e-17)
(3.40592e-17 0 2.83826e-17)
(2.59631e-17 0 2.77209e-17)
(1.81049e-17 0 2.72142e-17)
(1.04121e-17 0 2.6873e-17)
(3.28804e-18 0 2.66869e-17)
(1.16787e-07 0 -1.22341e-06)
(4.50132e-07 0 -1.16953e-06)
(6.83031e-07 0 -1.09365e-06)
(9.12047e-07 0 -9.79388e-07)
(1.10312e-06 0 -8.45551e-07)
(1.25037e-06 0 -7.06044e-07)
(1.359e-06 0 -5.75248e-07)
(1.43854e-06 0 -4.54808e-07)
(1.49383e-06 0 -3.46342e-07)
(1.52821e-06 0 -2.51219e-07)
(1.54638e-06 0 -1.68571e-07)
(1.55181e-06 0 -9.00577e-08)
(1.54629e-06 0 -2.95561e-08)
(1.53237e-06 0 2.31921e-08)
(1.51009e-06 0 6.98904e-08)
(1.48054e-06 0 1.12399e-07)
(1.44527e-06 0 1.45031e-07)
(1.40574e-06 0 1.72411e-07)
(1.36321e-06 0 1.90965e-07)
(1.31675e-06 0 2.13957e-07)
(1.26861e-06 0 2.24415e-07)
(1.21936e-06 0 2.32926e-07)
(1.17047e-06 0 2.36825e-07)
(1.12151e-06 0 2.38753e-07)
(1.07344e-06 0 2.36371e-07)
(1.02607e-06 0 2.35003e-07)
(9.80492e-07 0 2.29417e-07)
(9.3673e-07 0 2.22216e-07)
(8.94877e-07 0 2.14692e-07)
(8.55044e-07 0 2.06338e-07)
(8.17279e-07 0 1.9761e-07)
(7.81602e-07 0 1.88793e-07)
(7.47834e-07 0 1.79962e-07)
(7.16052e-07 0 1.70714e-07)
(6.86118e-07 0 1.62238e-07)
(6.58025e-07 0 1.53913e-07)
(6.3143e-07 0 1.46375e-07)
(6.06252e-07 0 1.39316e-07)
(5.82407e-07 0 1.32618e-07)
(5.59778e-07 0 1.26564e-07)
(5.38197e-07 0 1.21259e-07)
(5.1752e-07 0 1.1638e-07)
(4.97716e-07 0 1.11723e-07)
(4.78634e-07 0 1.07801e-07)
(4.60178e-07 0 1.04312e-07)
(4.42328e-07 0 1.00718e-07)
(4.24954e-07 0 9.81258e-08)
(4.08118e-07 0 9.61602e-08)
(3.91643e-07 0 9.34801e-08)
(3.75227e-07 0 9.12995e-08)
(3.59349e-07 0 8.9035e-08)
(3.43872e-07 0 8.72799e-08)
(3.28669e-07 0 8.58041e-08)
(3.13802e-07 0 8.39628e-08)
(2.99102e-07 0 8.25681e-08)
(2.8477e-07 0 8.07929e-08)
(2.70666e-07 0 7.93369e-08)
(2.5691e-07 0 7.77637e-08)
(2.43354e-07 0 7.65393e-08)
(2.30135e-07 0 7.50158e-08)
(2.17141e-07 0 7.35999e-08)
(2.04453e-07 0 7.20851e-08)
(1.92021e-07 0 7.07341e-08)
(1.79887e-07 0 6.93785e-08)
(1.67996e-07 0 6.79963e-08)
(1.56313e-07 0 6.6763e-08)
(1.44855e-07 0 6.5514e-08)
(1.33644e-07 0 6.42042e-08)
(1.22669e-07 0 6.29006e-08)
(1.1189e-07 0 6.15865e-08)
(1.01338e-07 0 6.02494e-08)
(9.10359e-08 0 5.88492e-08)
(8.10309e-08 0 5.74316e-08)
(7.14698e-08 0 5.60529e-08)
(6.19801e-08 0 5.52774e-08)
(5.45002e-08 0 5.42895e-08)
(4.48715e-08 0 5.73993e-08)
(2.26485e-08 0 1.16246e-07)
(-3.70842e-10 0 1.15255e-07)
(-1.50052e-15 0 1.9526e-14)
(2.74724e-16 0 4.80695e-17)
(5.50313e-16 0 5.21848e-17)
(5.65502e-16 0 5.60725e-17)
(5.83307e-16 0 5.92985e-17)
(5.90328e-16 0 6.19352e-17)
(5.87681e-16 0 6.40134e-17)
(5.7732e-16 0 6.56161e-17)
(5.61056e-16 0 6.67431e-17)
(5.40418e-16 0 6.74979e-17)
(5.16636e-16 0 6.78909e-17)
(4.90746e-16 0 6.79839e-17)
(4.63552e-16 0 6.77771e-17)
(4.35728e-16 0 6.73222e-17)
(4.07779e-16 0 6.66501e-17)
(3.801e-16 0 6.57815e-17)
(3.5303e-16 0 6.47372e-17)
(3.26798e-16 0 6.35275e-17)
(3.0159e-16 0 6.2204e-17)
(2.77519e-16 0 6.07771e-17)
(2.54637e-16 0 5.92572e-17)
(2.32986e-16 0 5.76545e-17)
(2.12596e-16 0 5.59898e-17)
(1.93457e-16 0 5.42837e-17)
(1.75538e-16 0 5.2557e-17)
(1.58798e-16 0 5.07992e-17)
(1.43175e-16 0 4.90311e-17)
(1.28575e-16 0 4.72734e-17)
(1.14978e-16 0 4.5526e-17)
(1.02291e-16 0 4.38096e-17)
(9.04419e-17 0 4.21655e-17)
(7.94093e-17 0 4.05732e-17)
(6.90799e-17 0 3.90533e-17)
(5.93399e-17 0 3.76781e-17)
(5.01582e-17 0 3.64166e-17)
(4.14935e-17 0 3.52896e-17)
(3.32216e-17 0 3.4328e-17)
(2.53014e-17 0 3.35008e-17)
(1.76396e-17 0 3.28804e-17)
(1.0133e-17 0 3.24668e-17)
(3.20533e-18 0 3.22807e-17)
(1.32648e-07 0 -1.53762e-06)
(5.29198e-07 0 -1.47193e-06)
(8.05344e-07 0 -1.35515e-06)
(1.05804e-06 0 -1.19328e-06)
(1.25667e-06 0 -1.01426e-06)
(1.40358e-06 0 -8.28288e-07)
(1.50102e-06 0 -6.60581e-07)
(1.56509e-06 0 -5.14582e-07)
(1.60535e-06 0 -3.83001e-07)
(1.62617e-06 0 -2.66237e-07)
(1.63078e-06 0 -1.72919e-07)
(1.62512e-06 0 -8.85775e-08)
(1.6103e-06 0 -1.58509e-08)
(1.58702e-06 0 4.47824e-08)
(1.55681e-06 0 1.01536e-07)
(1.5201e-06 0 1.4795e-07)
(1.47782e-06 0 1.84526e-07)
(1.43222e-06 0 2.15214e-07)
(1.38444e-06 0 2.39764e-07)
(1.33253e-06 0 2.63264e-07)
(1.27932e-06 0 2.74908e-07)
(1.22624e-06 0 2.84112e-07)
(1.17385e-06 0 2.87727e-07)
(1.12163e-06 0 2.87998e-07)
(1.07076e-06 0 2.85202e-07)
(1.02106e-06 0 2.82226e-07)
(9.73632e-07 0 2.746e-07)
(9.28664e-07 0 2.65208e-07)
(8.85898e-07 0 2.55738e-07)
(8.45436e-07 0 2.45077e-07)
(8.07281e-07 0 2.34162e-07)
(7.71442e-07 0 2.23403e-07)
(7.37803e-07 0 2.12465e-07)
(7.06407e-07 0 2.01157e-07)
(6.77001e-07 0 1.90688e-07)
(6.49399e-07 0 1.80805e-07)
(6.23343e-07 0 1.71788e-07)
(5.98756e-07 0 1.63392e-07)
(5.7555e-07 0 1.55417e-07)
(5.535e-07 0 1.4842e-07)
(5.32535e-07 0 1.41968e-07)
(5.1244e-07 0 1.36178e-07)
(4.9319e-07 0 1.30827e-07)
(4.7451e-07 0 1.26568e-07)
(4.56548e-07 0 1.2225e-07)
(4.38966e-07 0 1.18737e-07)
(4.22028e-07 0 1.14878e-07)
(4.0539e-07 0 1.13098e-07)
(3.89335e-07 0 1.10113e-07)
(3.73155e-07 0 1.07439e-07)
(3.57321e-07 0 1.04948e-07)
(3.41952e-07 0 1.02811e-07)
(3.26834e-07 0 1.01145e-07)
(3.12087e-07 0 9.90236e-08)
(2.97403e-07 0 9.74549e-08)
(2.83095e-07 0 9.54019e-08)
(2.69011e-07 0 9.36786e-08)
(2.55301e-07 0 9.18597e-08)
(2.41781e-07 0 9.03787e-08)
(2.28592e-07 0 8.86069e-08)
(2.15605e-07 0 8.69209e-08)
(2.02936e-07 0 8.51593e-08)
(1.90533e-07 0 8.35393e-08)
(1.78394e-07 0 8.19748e-08)
(1.66562e-07 0 8.03201e-08)
(1.54859e-07 0 7.89819e-08)
(1.43457e-07 0 7.7422e-08)
(1.32261e-07 0 7.58785e-08)
(1.21263e-07 0 7.4413e-08)
(1.10462e-07 0 7.29145e-08)
(9.98626e-08 0 7.13686e-08)
(8.95019e-08 0 6.97494e-08)
(7.94798e-08 0 6.79972e-08)
(7.01499e-08 0 6.60671e-08)
(6.10193e-08 0 6.45759e-08)
(5.44504e-08 0 6.10901e-08)
(3.96284e-08 0 7.50992e-08)
(1.92011e-08 0 1.51771e-07)
(-3.64318e-10 0 1.24355e-07)
(-1.46826e-15 0 2.30826e-14)
(2.76961e-16 0 5.70031e-17)
(5.54656e-16 0 6.18835e-17)
(5.69369e-16 0 6.64743e-17)
(5.86512e-16 0 7.03414e-17)
(5.92902e-16 0 7.3495e-17)
(5.89666e-16 0 7.59869e-17)
(5.78809e-16 0 7.79101e-17)
(5.6209e-16 0 7.92749e-17)
(5.41038e-16 0 8.01848e-17)
(5.16895e-16 0 8.06501e-17)
(4.90684e-16 0 8.07432e-17)
(4.63211e-16 0 8.04743e-17)
(4.35107e-16 0 7.99263e-17)
(4.06911e-16 0 7.90681e-17)
(3.79035e-16 0 7.79721e-17)
(3.5179e-16 0 7.67003e-17)
(3.25413e-16 0 7.52217e-17)
(3.0007e-16 0 7.36087e-17)
(2.75875e-16 0 7.1851e-17)
(2.5291e-16 0 7.00105e-17)
(2.31197e-16 0 6.80873e-17)
(2.10755e-16 0 6.61021e-17)
(1.91585e-16 0 6.40445e-17)
(1.73636e-16 0 6.19455e-17)
(1.56854e-16 0 5.98155e-17)
(1.4121e-16 0 5.76959e-17)
(1.26652e-16 0 5.55659e-17)
(1.13086e-16 0 5.34772e-17)
(1.00461e-16 0 5.14196e-17)
(8.86944e-17 0 4.94551e-17)
(7.77136e-17 0 4.75525e-17)
(6.74669e-17 0 4.57638e-17)
(5.78613e-17 0 4.40784e-17)
(4.88554e-17 0 4.25895e-17)
(4.03457e-17 0 4.1266e-17)
(3.22497e-17 0 4.00976e-17)
(2.45156e-17 0 3.91567e-17)
(1.70709e-17 0 3.84432e-17)
(9.81243e-18 0 3.79676e-17)
(3.10193e-18 0 3.77608e-17)
(1.55e-07 0 -1.9171e-06)
(6.62832e-07 0 -1.82113e-06)
(9.51602e-07 0 -1.66656e-06)
(1.26995e-06 0 -1.41378e-06)
(1.45882e-06 0 -1.18072e-06)
(1.60049e-06 0 -9.35511e-07)
(1.67569e-06 0 -7.31784e-07)
(1.71723e-06 0 -5.54204e-07)
(1.7355e-06 0 -4.01071e-07)
(1.73674e-06 0 -2.75484e-07)
(1.72747e-06 0 -1.65091e-07)
(1.70838e-06 0 -7.21027e-08)
(1.68186e-06 0 8.66903e-09)
(1.64877e-06 0 7.58191e-08)
(1.6094e-06 0 1.4071e-07)
(1.56438e-06 0 1.89144e-07)
(1.51433e-06 0 2.34883e-07)
(1.46272e-06 0 2.61081e-07)
(1.40697e-06 0 2.98889e-07)
(1.34998e-06 0 3.1469e-07)
(1.29068e-06 0 3.30657e-07)
(1.23329e-06 0 3.3861e-07)
(1.17623e-06 0 3.43034e-07)
(1.12072e-06 0 3.39374e-07)
(1.06611e-06 0 3.38083e-07)
(1.0142e-06 0 3.31342e-07)
(9.64707e-07 0 3.21079e-07)
(9.18306e-07 0 3.09428e-07)
(8.74562e-07 0 2.97462e-07)
(8.33414e-07 0 2.84362e-07)
(7.95026e-07 0 2.70774e-07)
(7.59075e-07 0 2.57905e-07)
(7.25801e-07 0 2.44217e-07)
(6.94886e-07 0 2.309e-07)
(6.66072e-07 0 2.1873e-07)
(6.39156e-07 0 2.07119e-07)
(6.13775e-07 0 1.96637e-07)
(5.89946e-07 0 1.86813e-07)
(5.67556e-07 0 1.77552e-07)
(5.46223e-07 0 1.69612e-07)
(5.25955e-07 0 1.62195e-07)
(5.06483e-07 0 1.55799e-07)
(4.87945e-07 0 1.49588e-07)
(4.69787e-07 0 1.44868e-07)
(4.52432e-07 0 1.39644e-07)
(4.35212e-07 0 1.36295e-07)
(4.18896e-07 0 1.31114e-07)
(4.02234e-07 0 1.29764e-07)
(3.86602e-07 0 1.26676e-07)
(3.70889e-07 0 1.2335e-07)
(3.55002e-07 0 1.20888e-07)
(3.3972e-07 0 1.18286e-07)
(3.24703e-07 0 1.16461e-07)
(3.10096e-07 0 1.1409e-07)
(2.95436e-07 0 1.1233e-07)
(2.81185e-07 0 1.09988e-07)
(2.67119e-07 0 1.07957e-07)
(2.53406e-07 0 1.05926e-07)
(2.39907e-07 0 1.04178e-07)
(2.2675e-07 0 1.02257e-07)
(2.13857e-07 0 1.00162e-07)
(2.01179e-07 0 9.81626e-08)
(1.88823e-07 0 9.63131e-08)
(1.76779e-07 0 9.44293e-08)
(1.64912e-07 0 9.2674e-08)
(1.53243e-07 0 9.10722e-08)
(1.4187e-07 0 8.92744e-08)
(1.3068e-07 0 8.75737e-08)
(1.19684e-07 0 8.59444e-08)
(1.08835e-07 0 8.42987e-08)
(9.8137e-08 0 8.2574e-08)
(8.76218e-08 0 8.0749e-08)
(7.73713e-08 0 7.87065e-08)
(6.76294e-08 0 7.632e-08)
(5.92728e-08 0 7.31649e-08)
(5.20977e-08 0 6.74973e-08)
(3.52197e-08 0 9.44961e-08)
(1.54727e-08 0 1.74171e-07)
(-3.57014e-10 0 1.28662e-07)
(-1.39624e-15 0 2.63399e-14)
(2.7966e-16 0 6.57919e-17)
(5.59805e-16 0 7.15925e-17)
(5.7395e-16 0 7.70312e-17)
(5.90307e-16 0 8.16634e-17)
(5.95984e-16 0 8.54271e-17)
(5.92096e-16 0 8.84256e-17)
(5.80608e-16 0 9.07107e-17)
(5.63331e-16 0 9.23651e-17)
(5.41783e-16 0 9.3399e-17)
(5.17195e-16 0 9.3947e-17)
(4.9058e-16 0 9.39987e-17)
(4.62746e-16 0 9.36472e-17)
(4.34332e-16 0 9.29234e-17)
(4.05836e-16 0 9.18688e-17)
(3.77732e-16 0 9.05453e-17)
(3.5029e-16 0 8.89529e-17)
(3.23728e-16 0 8.71642e-17)
(2.9824e-16 0 8.51996e-17)
(2.73921e-16 0 8.31006e-17)
(2.50853e-16 0 8.08879e-17)
(2.29067e-16 0 7.86028e-17)
(2.08543e-16 0 7.6235e-17)
(1.8929e-16 0 7.37949e-17)
(1.71319e-16 0 7.13133e-17)
(1.54548e-16 0 6.88008e-17)
(1.38915e-16 0 6.62985e-17)
(1.24356e-16 0 6.3817e-17)
(1.10832e-16 0 6.13458e-17)
(9.82794e-17 0 5.8947e-17)
(8.65748e-17 0 5.66309e-17)
(7.57077e-17 0 5.44181e-17)
(6.55954e-17 0 5.23399e-17)
(5.61449e-17 0 5.0427e-17)
(4.73354e-17 0 4.86692e-17)
(3.90222e-17 0 4.71183e-17)
(3.11434e-17 0 4.57741e-17)
(2.3647e-17 0 4.47091e-17)
(1.64506e-17 0 4.39233e-17)
(9.45054e-18 0 4.34063e-17)
(2.98819e-18 0 4.31685e-17)
(2.66465e-07 0 -2.37203e-06)
(7.95609e-07 0 -2.24391e-06)
(1.16925e-06 0 -2.0252e-06)
(1.54002e-06 0 -1.66791e-06)
(1.7369e-06 0 -1.33024e-06)
(1.84581e-06 0 -1.02041e-06)
(1.88896e-06 0 -7.69396e-07)
(1.89583e-06 0 -5.66474e-07)
(1.88447e-06 0 -3.99092e-07)
(1.8617e-06 0 -2.59079e-07)
(1.8321e-06 0 -1.42965e-07)
(1.79873e-06 0 -3.92908e-08)
(1.76011e-06 0 3.90282e-08)
(1.71676e-06 0 1.21118e-07)
(1.66727e-06 0 1.86173e-07)
(1.6126e-06 0 2.41503e-07)
(1.55488e-06 0 2.86873e-07)
(1.49531e-06 0 3.21159e-07)
(1.43132e-06 0 3.59447e-07)
(1.36782e-06 0 3.74979e-07)
(1.30264e-06 0 3.92551e-07)
(1.23978e-06 0 3.98731e-07)
(1.17737e-06 0 4.01362e-07)
(1.1176e-06 0 3.96035e-07)
(1.0593e-06 0 3.93045e-07)
(1.00476e-06 0 3.82871e-07)
(9.53239e-07 0 3.69326e-07)
(9.05135e-07 0 3.55177e-07)
(8.60351e-07 0 3.40053e-07)
(8.18629e-07 0 3.2403e-07)
(7.80034e-07 0 3.07878e-07)
(7.44218e-07 0 2.9223e-07)
(7.11404e-07 0 2.76059e-07)
(6.81317e-07 0 2.60208e-07)
(6.5331e-07 0 2.45877e-07)
(6.27157e-07 0 2.32801e-07)
(6.02726e-07 0 2.20575e-07)
(5.79868e-07 0 2.09243e-07)
(5.58421e-07 0 1.98896e-07)
(5.37993e-07 0 1.89867e-07)
(5.18524e-07 0 1.81576e-07)
(4.99962e-07 0 1.74157e-07)
(4.82148e-07 0 1.67656e-07)
(4.64682e-07 0 1.6226e-07)
(4.47809e-07 0 1.5678e-07)
(4.31203e-07 0 1.52816e-07)
(4.15119e-07 0 1.48317e-07)
(3.991e-07 0 1.44977e-07)
(3.83464e-07 0 1.43096e-07)
(3.68408e-07 0 1.39247e-07)
(3.52587e-07 0 1.36581e-07)
(3.37311e-07 0 1.33644e-07)
(3.2239e-07 0 1.31568e-07)
(3.07826e-07 0 1.29187e-07)
(2.9328e-07 0 1.27024e-07)
(2.78998e-07 0 1.24677e-07)
(2.65024e-07 0 1.22155e-07)
(2.51186e-07 0 1.20119e-07)
(2.37831e-07 0 1.17779e-07)
(2.24662e-07 0 1.15801e-07)
(2.11804e-07 0 1.1351e-07)
(1.99217e-07 0 1.11058e-07)
(1.86847e-07 0 1.09003e-07)
(1.74824e-07 0 1.06994e-07)
(1.63054e-07 0 1.04939e-07)
(1.51412e-07 0 1.03108e-07)
(1.4011e-07 0 1.01117e-07)
(1.28951e-07 0 9.92528e-08)
(1.17929e-07 0 9.74759e-08)
(1.07033e-07 0 9.57192e-08)
(9.62601e-08 0 9.38598e-08)
(8.55435e-08 0 9.19014e-08)
(7.48798e-08 0 8.97067e-08)
(6.4229e-08 0 8.70737e-08)
(5.4208e-08 0 8.35193e-08)
(4.06012e-08 0 7.75427e-08)
(3.08081e-08 0 1.21811e-07)
(4.29361e-09 0 1.78916e-07)
(-3.48735e-10 0 1.33285e-07)
(-1.31961e-15 0 2.91087e-14)
(2.82853e-16 0 7.44463e-17)
(5.65916e-16 0 8.13325e-17)
(5.7943e-16 0 8.78466e-17)
(5.94898e-16 0 9.33473e-17)
(5.99675e-16 0 9.78451e-17)
(5.9495e-16 0 1.01433e-16)
(5.82759e-16 0 1.04132e-16)
(5.64799e-16 0 1.06086e-16)
(5.4262e-16 0 1.07275e-16)
(5.17495e-16 0 1.07885e-16)