0 	0 	0 	0
0.010101 	-4.32681e-28 	-7.3396e-29 	-3.32914e-28
0.020202 	-2.85303e-28 	-7.23423e-29 	-2.81327e-28
