/*--------------------------------*- C++ -*----------------------------------*\
  =========                 |
  \\      /  F ield         | OpenFOAM: The Open Source CFD Toolbox
   \\    /   O peration     | Website:  https://openfoam.org
    \\  /    A nd           | Version:  6
     \\/     M anipulation  |
\*---------------------------------------------------------------------------*/
FoamFile
{
    version     2.0;
    format      ascii;
    class       surfaceScalarField;
    location    "3400";
    object      phi;
}
// * * * * * * * * * * * * * * * * * * * * * * * * * * * * * * * * * * * * * //

dimensions      [0 3 -1 0 0 0 0];

internalField   nonuniform List<scalar> 
9440
(
-1.18315e-11
1.18315e-11
-2.24383e-11
1.06077e-11
-8.34948e-11
6.10573e-11
-2.5911e-10
1.75616e-10
-5.55805e-10
2.96695e-10
-1.01651e-09
4.60708e-10
-1.63198e-09
6.15467e-10
-2.10341e-09
4.71433e-10
-2.51873e-09
4.15323e-10
-2.9145e-09
3.95765e-10
-3.13991e-09
2.25416e-10
-3.37174e-09
2.31828e-10
-3.40013e-09
2.8395e-11
-3.38362e-09
-1.65179e-11
-3.31511e-09
-6.85089e-11
-3.18077e-09
-1.34338e-10
-2.75625e-09
-4.24518e-10
-2.483e-09
-2.73247e-10
-2.15514e-09
-3.27867e-10
-1.81865e-09
-3.36482e-10
-1.45001e-09
-3.68642e-10
-1.05388e-09
-3.96134e-10
-7.53337e-10
-3.00541e-10
-4.07515e-10
-3.45822e-10
6.92421e-11
-4.76757e-10
6.03022e-10
-5.3378e-10
5.29114e-10
7.39075e-11
1.31939e-09
-7.90273e-10
1.49277e-09
-1.73384e-10
1.69615e-09
-2.03379e-10
1.99936e-09
-3.03215e-10
2.11289e-09
-1.13527e-10
2.35019e-09
-2.37297e-10
2.58864e-09
-2.38458e-10
2.77976e-09
-1.91122e-10
2.9404e-09
-1.6064e-10
3.02071e-09
-8.03066e-11
3.04468e-09
-2.39732e-11
3.03287e-09
1.1809e-11
3.0548e-09
-2.19279e-11
3.09837e-09
-4.35721e-11
3.11486e-09
-1.64863e-11
3.10846e-09
6.39359e-12
3.08862e-09
1.98382e-11
3.07273e-09
1.58954e-11
3.06886e-09
3.86862e-12
3.08187e-09
-1.30113e-11
3.06348e-09
1.83912e-11
3.04747e-09
1.60036e-11
2.99611e-09
5.13664e-11
2.93916e-09
5.69447e-11
2.91833e-09
2.08304e-11
2.92406e-09
-5.73128e-12
2.88874e-09
3.53224e-11
2.93082e-09
-4.20836e-11
2.93918e-09
-8.35843e-12
3.08134e-09
-1.4216e-10
3.191e-09
-1.0966e-10
3.20164e-09
-1.06349e-11
3.2305e-09
-2.88578e-11
3.32886e-09
-9.83676e-11
3.37629e-09
-4.74228e-11
3.40714e-09
-3.0858e-11
3.42938e-09
-2.22396e-11
3.4614e-09
-3.20146e-11
3.49006e-09
-2.86573e-11
3.49994e-09
-9.88707e-12
3.49457e-09
5.37394e-12
3.48322e-09
1.1353e-11
3.47514e-09
8.07342e-12
3.43704e-09
3.81054e-11
3.39617e-09
4.0866e-11
3.29535e-09
1.00819e-10
3.16434e-09
1.31013e-10
2.86313e-09
3.01213e-10
2.6577e-09
2.05429e-10
2.14496e-09
5.1274e-10
1.80546e-09
3.39499e-10
1.2336e-09
5.71864e-10
6.27466e-10
6.06131e-10
-1.49673e-16
6.27466e-10
-3.10056e-19
3.34342e-19
-9.61889e-19
6.51833e-19
-1.52527e-18
5.6327e-19
-1.90862e-18
3.83107e-19
-2.13298e-18
2.24076e-19
-2.22743e-18
9.41523e-20
-2.21607e-18
-1.16763e-20
-2.11834e-18
-9.80227e-20
-1.95115e-18
-1.67451e-19
-1.72916e-18
-2.22206e-19
-1.46531e-18
-2.64019e-19
-1.17127e-18
-2.94144e-19
-8.57705e-19
-3.13609e-19
-5.34351e-19
-3.23339e-19
-2.10048e-19
-3.2423e-19
1.07269e-19
-3.17195e-19
4.10606e-19
-3.03178e-19
6.93947e-19
-2.83163e-19
9.52272e-19
-2.58156e-19
1.18157e-18
-2.2917e-19
1.37883e-18
-1.97196e-19
1.54198e-18
-1.63182e-19
1.66985e-18
-1.28012e-19
1.76208e-18
-9.24819e-20
1.81901e-18
-5.72965e-20
1.84161e-18
-2.30569e-20
1.83133e-18
9.73763e-21
1.79003e-18
4.06869e-20
1.71989e-18
6.94824e-20
1.6233e-18
9.58974e-20
1.5028e-18
1.19776e-19
1.36105e-18
1.4102e-19
1.20074e-18
1.59577e-19
1.02456e-18
1.7543e-19
8.35242e-19
1.88584e-19
6.3545e-19
1.99055e-19
4.27855e-19
2.06862e-19
2.15123e-19
2.12001e-19
2.14395e-19
-9.62706e-11
1.08103e-10
-3.10581e-10
2.2492e-10
-6.6216e-10
4.12637e-10
-9.9427e-10
5.07727e-10
-1.32366e-09
6.2609e-10
-1.70659e-09
8.43635e-10
-2.0671e-09
9.75982e-10
-2.46802e-09
8.72352e-10
-2.55919e-09
5.06498e-10
-2.77033e-09
6.06896e-10
-3.02192e-09
4.77013e-10
-2.99809e-09
2.08e-10
-2.98928e-09
1.95815e-11
-2.86622e-09
-1.39572e-10
-2.70959e-09
-2.25137e-10
-2.62689e-09
-2.17044e-10
-2.29221e-09
-7.59194e-10
-2.00532e-09
-5.60135e-10
-1.71601e-09
-6.17181e-10
-1.33884e-09
-7.13645e-10
-9.37724e-10
-7.69762e-10
-6.37159e-10
-6.96698e-10
-3.43169e-10
-5.94532e-10
1.32233e-10
-8.21225e-10
4.65887e-10
-8.10411e-10
1.02419e-09
-1.09208e-09
1.61304e-09
-5.14947e-10
1.49836e-09
-6.75591e-10
2.26075e-09
-9.35772e-10
2.65622e-09
-5.98853e-10
2.87019e-09
-5.17185e-10
2.93718e-09
-1.80517e-10
3.07053e-09
-3.70645e-10
3.1304e-09
-2.98329e-10
3.15581e-09
-2.16538e-10
3.13214e-09
-1.36975e-10
3.17926e-09
-1.27427e-10
3.21525e-09
-5.99632e-11
3.273e-09
-4.59363e-11
3.29738e-09
-4.6309e-11
3.26962e-09
-1.58136e-11
3.23258e-09
2.0553e-11
3.17935e-09
5.96186e-11
3.12625e-09
7.29435e-11
3.09416e-09
4.79784e-11
3.06447e-09
3.35608e-11
3.05588e-09
-4.42218e-12
3.06795e-09
6.32013e-12
3.04162e-09
4.23348e-11
2.97205e-09
1.20935e-10
2.91572e-09
1.13274e-10
2.88635e-09
5.02012e-11
2.86851e-09
1.21031e-11
2.89957e-09
4.26544e-12
2.90602e-09
-4.85296e-11
2.94701e-09
-4.93497e-11
3.02999e-09
-2.25138e-10
3.04673e-09
-1.26406e-10
3.02599e-09
1.01053e-11
3.09746e-09
-1.0033e-10
3.17151e-09
-1.72414e-10
3.25694e-09
-1.32856e-10
3.28623e-09
-6.01447e-11
3.32599e-09
-6.20011e-11
3.28312e-09
1.08557e-11
3.29613e-09
-4.16692e-11
3.26926e-09
1.69927e-11
3.25627e-09
1.83555e-11
3.19e-09
7.7626e-11
3.17609e-09
2.19865e-11
3.04875e-09
1.6545e-10
3.03292e-09
5.66933e-11
3.02019e-09
1.13543e-10
2.86325e-09
2.87959e-10
2.72729e-09
4.37174e-10
2.40829e-09
5.24421e-10
2.09884e-09
8.22199e-10
1.70791e-09
7.30427e-10
1.28166e-09
9.98112e-10
7.28814e-10
1.15897e-09
2.246e-17
1.35628e-09
4.04026e-19
5.21391e-18
-1.05846e-18
2.11406e-18
-1.71168e-18
1.21613e-18
-2.07226e-18
7.43217e-19
-2.26599e-18
4.17258e-19
-2.3349e-18
1.62513e-19
-2.30268e-18
-4.4429e-20
-2.18774e-18
-2.13446e-19
-2.0059e-18
-3.49698e-19
-1.77097e-18
-4.57455e-19
-1.49543e-18
-5.39777e-19
-1.19073e-18
-5.98953e-19
-8.67435e-19
-6.36918e-19
-5.35242e-19
-6.55446e-19
-2.03013e-19
-6.56293e-19
1.21285e-19
-6.41266e-19
4.30622e-19
-6.12262e-19
7.18954e-19
-5.7126e-19
9.81258e-19
-5.20294e-19
1.21355e-18
-4.61405e-19
1.41284e-18
-3.96596e-19
1.57715e-18
-3.27776e-19
1.70538e-18
-2.56718e-19
1.79727e-18
-1.85027e-19
1.85325e-18
-1.14113e-19
1.8744e-18
-4.51799e-20
1.86228e-18
2.07771e-20
1.81883e-18
8.29627e-20
1.74631e-18
1.40767e-19
1.64718e-18
1.93747e-19
1.52405e-18
2.41599e-19
1.37961e-18
2.84139e-19
1.21659e-18
3.21274e-19
1.03772e-18
3.52978e-19
8.45713e-19
3.79271e-19
6.43257e-19
4.00199e-19
4.32995e-19
4.15816e-19
2.17517e-19
4.26174e-19
4.31335e-19
-2.50488e-10
3.58592e-10
-3.69364e-10
3.43798e-10
-5.15272e-10
5.58546e-10
-9.59117e-10
9.51573e-10
-1.43683e-09
1.1038e-09
-1.76628e-09
1.17308e-09
-2.02192e-09
1.23162e-09
-2.22025e-09
1.07069e-09
-2.41944e-09
7.05684e-10
-2.42679e-09
6.1425e-10
-2.47477e-09
5.24992e-10
-2.51166e-09
2.44892e-10
-2.41628e-09
-7.5792e-11
-2.37191e-09
-1.83945e-10
-2.34073e-09
-2.56315e-10
-2.01679e-09
-5.40988e-10
-1.91143e-09
-8.64554e-10
-1.52489e-09
-9.46667e-10
-1.18764e-09
-9.54433e-10
-9.0666e-10
-9.94627e-10
-5.36918e-10
-1.1395e-09
-4.75624e-11
-1.18605e-09
4.97308e-10
-1.1394e-09
1.1272e-09
-1.45112e-09
1.26905e-09
-9.52261e-10
1.76312e-09
-1.58615e-09
2.55955e-09
-1.31138e-09
2.37101e-09
-4.87044e-10
2.64088e-09
-1.20565e-09
3.11205e-09
-1.07003e-09
3.15522e-09
-5.60353e-10
3.35976e-09
-3.85062e-10
3.48928e-09
-5.00162e-10
3.52445e-09
-3.33495e-10
3.51279e-09
-2.04879e-10
3.51277e-09
-1.36959e-10
3.47395e-09
-8.86072e-11
3.41513e-09
-1.14647e-12
3.37927e-09
-1.00721e-11
3.40724e-09
-7.42856e-11
3.37747e-09
1.39534e-11
3.34448e-09
5.35459e-11
3.28812e-09
1.15977e-10
3.18721e-09
1.73856e-10
3.10829e-09
1.26891e-10
3.05523e-09
8.6628e-11
3.02502e-09
2.57817e-11
3.01494e-09
1.64008e-11
2.97273e-09
8.4546e-11
2.91709e-09
1.76575e-10
2.91492e-09
1.15437e-10
2.88282e-09
8.23067e-11
2.84377e-09
5.11479e-11
2.86463e-09
-1.65953e-11
2.85335e-09
-3.7244e-11
2.91678e-09
-1.1278e-10
2.88934e-09
-1.97696e-10
2.93372e-09
-1.7079e-10
3.06952e-09
-1.25694e-10
3.10417e-09
-1.34978e-10
3.06574e-09
-1.33984e-10
3.021e-09
-8.81197e-11
3.05936e-09
-9.8502e-11
3.00768e-09
-1.032e-11
2.94841e-09
7.01278e-11
2.93559e-09
-2.88468e-11
2.84006e-09
1.12519e-10
2.84523e-09
1.31875e-11
2.77484e-09
1.48019e-10
2.70632e-09
9.05055e-11
2.66319e-09
2.08578e-10
2.50368e-09
2.16208e-10
2.47825e-09
1.38969e-10
2.42186e-09
3.44349e-10
2.30463e-09
5.54409e-10
2.13882e-09
6.9023e-10
1.931e-09
1.03002e-09
1.45509e-09
1.20633e-09
9.63104e-10
1.4901e-09
4.60043e-10
1.66204e-09
7.79452e-17
1.81632e-09
-1.91285e-18
5.62375e-18
-1.95532e-18
2.15636e-18
-2.18363e-18
1.44405e-18
-2.39732e-18
9.56427e-19
-2.51989e-18
5.39263e-19
-2.54104e-18
1.83083e-19
-2.47094e-18
-1.15118e-19
-2.32381e-18
-3.61117e-19
-2.11366e-18
-5.60347e-19
-1.8533e-18
-7.18244e-19
-1.55461e-18
-8.38808e-19
-1.2287e-18
-9.25117e-19
-8.85964e-19
-9.79815e-19
-5.36089e-19
-1.00539e-18
-1.87985e-19
-1.00438e-18
1.50289e-19
-9.79462e-19
4.71623e-19
-9.33476e-19
7.6992e-19
-8.69433e-19
1.04015e-18
-7.90436e-19
1.27836e-18
-6.99612e-19
1.48166e-18
-6.00021e-19
1.64821e-18
-4.94583e-19
1.77707e-18
-3.86e-19
1.86818e-18
-2.76708e-19
1.92219e-18
-1.68837e-19
1.94036e-18
-6.41946e-20
1.92446e-18
3.57346e-20
1.87663e-18
1.29776e-19
1.79928e-18
2.17041e-19
1.69503e-18
2.96891e-19
1.56659e-18
3.68905e-19
1.41674e-18
4.32836e-19
1.24829e-18
4.88574e-19
1.06401e-18
5.36108e-19
8.66641e-19
5.75493e-19
6.58874e-19
6.06821e-19
4.43353e-19
6.30195e-19
2.22678e-19
6.45711e-19
6.5345e-19
-3.01856e-10
6.60449e-10
-7.83843e-10
8.25786e-10
-1.11852e-09
8.93224e-10
-1.35434e-09
1.18739e-09
-1.53867e-09
1.28813e-09
-1.6901e-09
1.32451e-09
-1.87e-09
1.41153e-09
-2.01815e-09
1.21884e-09
-1.97386e-09
6.61389e-10
-2.04914e-09
6.89533e-10
-2.00525e-09
4.81101e-10
-2.00682e-09
2.4646e-10
-2.05029e-09
-3.23188e-11
-1.74389e-09
-4.9034e-10
-1.70356e-09
-2.9665e-10
-1.65307e-09
-5.91475e-10
-1.5091e-09
-1.00852e-09
-1.14906e-09
-1.30671e-09
-7.77089e-10
-1.32641e-09
-2.6185e-10
-1.50987e-09
2.46479e-10
-1.64783e-09
6.96343e-10
-1.63592e-09
1.0781e-09
-1.52116e-09
1.53855e-09
-1.91156e-09
1.71257e-09
-1.12628e-09
2.10902e-09
-1.98261e-09
2.36489e-09
-1.56725e-09
2.74685e-09
-8.69008e-10
2.95386e-09
-1.41265e-09
3.17848e-09
-1.29465e-09
3.25567e-09
-6.37543e-10
3.41331e-09
-5.42702e-10
3.56878e-09
-6.55631e-10
3.62005e-09
-3.84762e-10
3.62934e-09
-2.14175e-10
3.66454e-09
-1.72159e-10
3.59376e-09
-1.78314e-11
3.52241e-09
7.02033e-11
3.44291e-09
6.94258e-11
3.36447e-09
4.16213e-12
3.32626e-09
5.21591e-11
3.27599e-09
1.03813e-10
3.22692e-09
1.65051e-10
3.16268e-09
2.38091e-10
3.09432e-09
1.95255e-10
3.01469e-09
1.66253e-10
2.94332e-09
9.71493e-11
2.8805e-09
7.92215e-11
2.80666e-09
1.58383e-10
2.77944e-09
2.03802e-10
2.78047e-09
1.14405e-10
2.74889e-09
1.13882e-10
2.72969e-09
7.03523e-11
2.71648e-09
-3.38249e-12
2.7558e-09
-7.65704e-11
2.80039e-09
-1.57362e-10
2.79883e-09
-1.96142e-10
2.82083e-09
-1.92785e-10
2.83195e-09
-1.36816e-10
2.80626e-09
-1.09291e-10
2.78353e-09
-1.11249e-10
2.73445e-09
-3.90415e-11
2.732e-09
-9.60527e-11
2.70113e-09
2.05541e-11
2.63767e-09
1.33587e-10
2.60981e-09
-9.82448e-13
2.5403e-09
1.82027e-10
2.44707e-09
1.06424e-10
2.41019e-09
1.84891e-10
2.27099e-09
2.29709e-10
2.29026e-09
1.89312e-10
2.1416e-09
3.64859e-10
1.99858e-09
2.81992e-10
2.00024e-09
3.42696e-10
1.87969e-09
6.74952e-10
1.75961e-09
8.10314e-10
1.44408e-09
1.34555e-09
1.08347e-09
1.56694e-09
5.23893e-10
2.04968e-09
1.44566e-10
2.04136e-09
9.54791e-17
1.96089e-09
-4.21826e-18
-5.12143e-18
-2.66653e-18
6.0444e-19
-2.67025e-18
1.44727e-18
-2.81357e-18
1.09912e-18
-2.87521e-18
6.00207e-19
-2.83844e-18
1.4558e-19
-2.71618e-18
-2.3812e-19
-2.5229e-18
-5.55113e-19
-2.27156e-18
-8.12369e-19
-1.97386e-18
-1.01656e-18
-1.64092e-18
-1.17229e-18
-1.2834e-18
-1.2831e-18
-9.11543e-19
-1.35204e-18
-5.3508e-19
-1.38213e-18
-1.63063e-19
-1.37658e-18
1.96275e-19
-1.3389e-18
5.35667e-19
-1.2729e-18
8.48917e-19
-1.18269e-18
1.13097e-18
-1.07251e-18
1.37795e-18
-9.46665e-19
1.5871e-18
-8.09351e-19
1.75679e-18
-6.64571e-19
1.88636e-18
-5.16012e-19
1.97605e-18
-3.66975e-19
2.02683e-18
-2.2033e-19
2.04029e-18
-7.84875e-20
2.01851e-18
5.65932e-20
1.9639e-18
1.83383e-19
1.87913e-18
3.00746e-19
1.76704e-18
4.0789e-19
1.63052e-18
5.04311e-19
1.47248e-18
5.89742e-19
1.29583e-18
6.64093e-19
1.1034e-18
7.27402e-19
8.97969e-19
7.79788e-19
6.82247e-19
8.21412e-19
4.58869e-19
8.52445e-19
2.30417e-19
8.73037e-19
8.83303e-19
-1.60102e-10
8.20552e-10
-2.9235e-10
9.58034e-10
-5.15496e-10
1.11637e-09
-8.34056e-10
1.50595e-09
-1.14098e-09
1.59506e-09
-1.18416e-09
1.36769e-09
-1.20437e-09
1.43174e-09
-1.52256e-09
1.53703e-09
-1.79945e-09
9.38282e-10
-1.77597e-09
6.66053e-10
-1.74328e-09
4.48414e-10
-1.73349e-09
2.36672e-10
-1.63137e-09
-1.34442e-10
-1.57455e-09
-5.47156e-10
-1.28937e-09
-5.81836e-10
-1.17681e-09
-7.04029e-10
-9.11331e-10
-1.274e-09
-5.96932e-10
-1.62111e-09
-7.17247e-11
-1.85162e-09
4.24718e-10
-2.00631e-09
7.02623e-10
-1.92574e-09
1.09965e-09
-2.03295e-09
1.45381e-09
-1.87532e-09
1.70172e-09
-2.15947e-09
2.02819e-09
-1.45275e-09
2.18021e-09
-2.13463e-09
2.45206e-09
-1.8391e-09
2.85841e-09
-1.27536e-09
3.0482e-09
-1.60244e-09
3.11779e-09
-1.36424e-09
3.3538e-09
-8.73555e-10
3.49506e-09
-6.83959e-10
3.59577e-09
-7.56338e-10
3.65629e-09
-4.4529e-10
3.63233e-09
-1.90218e-10
3.61676e-09
-1.5658e-10
3.58054e-09
1.83858e-11
3.50675e-09
1.43986e-10
3.42717e-09
1.49009e-10
3.26732e-09
1.64009e-10
3.18722e-09
1.32265e-10
3.10984e-09
1.81192e-10
3.03427e-09
2.40617e-10
3.01737e-09
2.54987e-10
2.99106e-09
2.21569e-10
2.92045e-09
2.3686e-10
2.83406e-09
1.83534e-10
2.72208e-09
1.91207e-10
2.6193e-09
2.61164e-10
2.56886e-09
2.5424e-10
2.55012e-09
1.33145e-10
2.51867e-09
1.45326e-10
2.52463e-09
6.43994e-11
2.52247e-09
-1.22428e-12
2.53658e-09
-9.06805e-11
2.56739e-09
-1.88173e-10
2.57281e-09
-2.01565e-10
2.62474e-09
-2.44711e-10
2.62289e-09
-1.34964e-10
2.60458e-09
-9.09857e-11
2.56454e-09
-7.1205e-11
2.57022e-09
-4.47221e-11
2.4961e-09
-2.19318e-11
2.44022e-09
7.64319e-11
2.42292e-09
1.5089e-10
2.35435e-09
6.75877e-11
2.24191e-09
2.94466e-10
2.24524e-09
1.03099e-10
2.14187e-09
2.88266e-10
2.08134e-09
2.90232e-10
2.0597e-09
2.10958e-10
1.87076e-09
5.538e-10
1.76146e-09
3.91296e-10
1.65708e-09
4.47077e-10
1.45374e-09
8.78293e-10
1.23187e-09
1.03218e-09
1.1496e-09
1.42782e-09
1.27762e-09
1.43892e-09
1.40824e-09
1.91905e-09
1.11402e-09
2.33558e-09
1.21243e-16
3.07491e-09
3.07601e-18
1.7135e-17
-1.8227e-18
5.50292e-18
-3.01739e-18
2.6414e-18
-3.31154e-18
1.39254e-18
-3.32898e-18
6.16785e-19
-3.22135e-18
3.70347e-20
-3.03243e-18
-4.27971e-19
-2.78007e-18
-8.0841e-19
-2.47575e-18
-1.11759e-18
-2.1296e-18
-1.36356e-18
-1.75172e-18
-1.55096e-18
-1.35234e-18
-1.68319e-18
-9.41636e-19
-1.76335e-18
-5.29531e-19
-1.79475e-18
-1.2538e-19
-1.78115e-18
2.62268e-19
-1.72687e-18
6.25879e-19
-1.63676e-18
9.59095e-19
-1.51609e-18
1.25682e-18
-1.37041e-18
1.51526e-18
-1.2053e-18
1.73188e-18
-1.02623e-18
1.90535e-18
-8.38399e-19
2.0354e-18
-6.4654e-19
2.1227e-18
-4.54876e-19
2.16867e-18
-2.67033e-19
2.17537e-18
-8.60241e-20
2.1453e-18
8.57409e-20
2.08126e-18
2.46418e-19
1.98628e-18
3.94673e-19
1.86346e-18
5.29613e-19
1.71595e-18
6.50711e-19
1.54683e-18
7.57731e-19
1.35914e-18
8.50655e-19
1.15578e-18
9.29618e-19
9.39593e-19
9.94843e-19
7.13279e-19
1.04659e-18
4.79461e-19
1.08513e-18
2.40683e-19
1.11069e-18
1.12342e-18
-1.6711e-10
9.87663e-10
-4.13942e-10
1.20487e-09
-7.10481e-10
1.41291e-09
-9.36296e-10
1.73177e-09
-1.23212e-09
1.89088e-09
-1.57954e-09
1.71512e-09
-1.79226e-09
1.64446e-09
-1.51872e-09
1.26349e-09
-1.55086e-09
9.70427e-10
-1.45525e-09
5.70447e-10
-1.38521e-09
3.78368e-10
-1.37922e-09
2.30686e-10
-1.34244e-09
-1.7122e-10
-1.41979e-09
-4.69802e-10
-1.08119e-09
-9.20443e-10
-8.31366e-10
-9.53848e-10
-5.22483e-10
-1.58288e-09
-2.48109e-10
-1.89548e-09
5.5461e-12
-2.10527e-09
4.28521e-10
-2.42928e-09
8.8737e-10
-2.38459e-09
1.18227e-09
-2.32784e-09
1.48647e-09
-2.17952e-09
1.59929e-09
-2.27229e-09
2.06352e-09
-1.91698e-09
2.10637e-09
-2.17749e-09
2.33706e-09
-2.06979e-09
2.88418e-09
-1.82248e-09
3.03492e-09
-1.75318e-09
3.22923e-09
-1.55856e-09
3.30106e-09
-9.45387e-10
3.402e-09
-7.849e-10
3.43017e-09
-7.84511e-10
3.54381e-09
-5.58931e-10
3.57536e-09
-2.21768e-10
3.52213e-09
-1.03346e-10
3.48068e-09
5.98378e-11
3.4006e-09
2.2406e-10
3.25766e-09
2.91948e-10
3.12493e-09
2.96742e-10
3.0329e-09
2.24288e-10
2.942e-09
2.72095e-10
2.9077e-09
2.74921e-10
2.82036e-09
3.42318e-10
2.75163e-09
2.90308e-10
2.6712e-09
3.17284e-10
2.55008e-09
3.04652e-10
2.45085e-09
2.90442e-10
2.3862e-09
3.25811e-10
2.35733e-09
2.8311e-10
2.3371e-09
1.5338e-10
2.36548e-09
1.16945e-10
2.32351e-09
1.06368e-10
2.33614e-09
-1.38584e-11
2.37281e-09
-1.27351e-10
2.45616e-09
-2.71521e-10
2.47457e-09
-2.19968e-10
2.51757e-09
-2.8771e-10
2.52481e-09
-1.42209e-10
2.50088e-09
-6.70535e-11
2.46978e-09
-4.01059e-11
2.41561e-09
9.44877e-12
2.40123e-09
-7.54605e-12
2.29843e-09
1.79232e-10
2.27909e-09
1.70232e-10
2.19974e-09
1.46939e-10
2.10149e-09
3.92716e-10
2.05108e-09
1.53511e-10
1.93546e-09
4.03891e-10
1.88235e-09
3.4334e-10
1.70503e-09
3.88274e-10
1.5947e-09
6.6414e-10
1.60158e-09
3.84409e-10
1.35632e-09
6.92336e-10
1.33042e-09
9.04202e-10
1.30971e-09
1.05289e-09
1.35603e-09
1.38149e-09
8.71122e-10
1.92384e-09
3.37511e-10
2.45266e-09
1.81046e-10
2.49205e-09
1.01064e-16
3.25596e-09
-6.64856e-18
6.79956e-18
-4.68282e-18
3.53688e-18
-4.26514e-18
2.22304e-18
-4.08633e-18
1.21286e-18
-3.90786e-18
4.37324e-19
-3.68557e-18
-1.86343e-19
-3.41216e-18
-7.02511e-19
-3.08921e-18
-1.13251e-18
-2.72172e-18
-1.48621e-18
-2.31699e-18
-1.76938e-18
-1.88395e-18
-1.98505e-18
-1.4325e-18
-2.13561e-18
-9.73035e-19
-2.22371e-18
-5.15929e-19
-2.25265e-18
-7.10965e-20
-2.22667e-18
3.52378e-19
-2.15093e-18
7.46541e-19
-2.03141e-18
1.10478e-18
-1.87474e-18
1.42193e-18
-1.68792e-18
1.69432e-18
-1.47804e-18
1.91972e-18
-1.25201e-18
2.09721e-18
-1.01634e-18
2.22706e-18
-7.76933e-19
2.31054e-18
-5.38994e-19
2.34968e-18
-3.06925e-19
2.34714e-18
-8.4329e-20
2.30597e-18
1.25971e-19
2.22951e-18
3.21874e-19
2.12122e-18
5.01916e-19
1.98456e-18
6.65179e-19
1.82297e-18
8.11188e-19
1.63976e-18
9.39815e-19
1.4381e-18
1.05118e-18
1.22101e-18
1.14557e-18
9.91344e-19
1.22337e-18
7.51819e-19
1.28498e-18
5.05015e-19
1.3308e-18
2.53415e-19
1.36115e-18
1.37627e-18
-2.86382e-10
1.27405e-09
-5.99843e-10
1.51833e-09
-9.47424e-10
1.76049e-09
-1.12007e-09
1.90442e-09
-1.01769e-09
1.7885e-09
-9.52033e-10
1.64946e-09
-8.90099e-10
1.58253e-09
-8.31839e-10
1.20523e-09
-1.10307e-09
1.24166e-09
-1.29146e-09
7.5883e-10
-1.27399e-09
3.60898e-10
-1.16581e-09
1.22512e-10
-1.15515e-09
-1.81878e-10
-9.824e-10
-6.42552e-10
-8.37104e-10
-1.06574e-09
-4.14549e-10
-1.3764e-09
-2.69317e-10
-1.72812e-09
-1.74234e-11
-2.14737e-09
2.99124e-10
-2.42182e-09
6.08767e-10
-2.73893e-09
9.58206e-10
-2.73403e-09
1.17328e-09
-2.54291e-09
1.34661e-09
-2.35286e-09
1.42666e-09
-2.35234e-09
1.83571e-09
-2.32603e-09
2.01661e-09
-2.35839e-09
2.17345e-09
-2.22663e-09
2.50411e-09
-2.15315e-09
2.70647e-09
-1.95554e-09
2.93331e-09
-1.7854e-09
3.21865e-09
-1.23072e-09
3.3874e-09
-9.53654e-10
3.37762e-09
-7.74735e-10
3.34867e-09
-5.29979e-10
3.44253e-09
-3.15625e-10
3.36271e-09
-2.35313e-11
3.256e-09
1.66546e-10
3.14326e-09
3.36806e-10
3.0063e-09
4.28898e-10
2.91157e-09
3.91479e-10
2.83463e-09
3.01221e-10
2.73114e-09
3.75583e-10
2.65648e-09
3.49581e-10
2.56487e-09
4.33927e-10
2.48102e-09
3.74156e-10
2.38214e-09
4.16167e-10
2.23756e-09
4.49232e-10
2.15531e-09
3.7269e-10
2.15464e-09
3.26485e-10
2.15089e-09
2.86854e-10
2.13174e-09
1.72537e-10
2.18275e-09
6.59353e-11
2.16553e-09
1.23583e-10
2.19707e-09
-4.53996e-11
2.29815e-09
-2.28432e-10
2.35294e-09
-3.26303e-10
2.4356e-09
-3.02628e-10
2.49477e-09
-3.46887e-10
2.51784e-09
-1.6527e-10
2.47767e-09
-2.68845e-11
2.47197e-09
-3.44053e-11
2.35402e-09
1.27403e-10
2.30814e-09
3.83296e-11
2.22244e-09
2.64934e-10
2.17148e-09
2.21202e-10
2.01907e-09
2.99346e-10
1.99949e-09
4.12303e-10
1.84072e-09
3.12278e-10
1.7833e-09
4.61317e-10
1.69438e-09
4.32258e-10
1.52999e-09
5.5267e-10
1.50148e-09
6.92644e-10
1.32207e-09
5.63824e-10
1.1973e-09
8.171e-10
1.10454e-09
9.96972e-10
9.1972e-10
1.23771e-09
7.14641e-10
1.58657e-09
5.1571e-10
2.12277e-09
5.27077e-10
2.4413e-09
3.17573e-10
2.70155e-09
8.04009e-17
3.57353e-09
-7.60168e-18
3.68449e-18
-5.99538e-18
1.93021e-18
-5.27421e-18
1.50111e-18
-4.8609e-18
7.98573e-19
-4.53067e-18
1.05974e-19
-4.20097e-18
-5.17263e-19
-3.84155e-18
-1.06322e-18
-3.44291e-18
-1.53249e-18
-3.00488e-18
-1.92557e-18
-2.53266e-18
-2.24293e-18
-2.03452e-18
-2.48447e-18
-1.5206e-18
-2.65076e-18
-1.00198e-18
-2.74348e-18
-4.89949e-19
-2.76576e-18
4.64944e-21
-2.72225e-18
4.71897e-19
-2.61905e-18
9.0321e-19
-2.46349e-18
1.2916e-18
-2.2638e-18
1.63181e-18
-2.02873e-18
1.92035e-18
-1.76712e-18
2.15539e-18
-1.48758e-18
2.33661e-18
-1.19812e-18
2.465e-18
-9.05945e-19
2.54261e-18
-6.17296e-19
2.57228e-18
-3.37378e-19
2.55744e-18
-7.03582e-20
2.50188e-18
1.80589e-19
2.40956e-18
4.13185e-19
2.28448e-18
6.25936e-19
2.13057e-18
8.17999e-19
1.9516e-18
9.8905e-19
1.75112e-18
1.13916e-18
1.53249e-18
1.26868e-18
1.29881e-18
1.37811e-18
1.05296e-18
1.46808e-18
7.97638e-19
1.53917e-18
5.35364e-19
1.59194e-18
2.68528e-19
1.62685e-18
1.64422e-18
-2.19578e-10
1.49362e-09
-4.28537e-10
1.72729e-09
-5.61758e-10
1.89371e-09
-6.50736e-10
1.9934e-09
-7.83403e-10
1.92117e-09
-9.48926e-10
1.81498e-09
-1.14969e-09
1.7833e-09
-1.41035e-09
1.46589e-09
-1.32056e-09
1.15187e-09
-1.18184e-09
6.20106e-10
-1.1333e-09
3.12356e-10
-1.04674e-09
3.5956e-11
-9.94528e-10
-2.34089e-10
-6.78341e-10
-9.58739e-10
-5.21372e-10
-1.22271e-09
-4.04156e-10
-1.49362e-09
-2.02033e-10
-1.93024e-09
1.73892e-10
-2.5233e-09
4.54955e-10
-2.70288e-09
6.47728e-10
-2.9317e-09
8.22455e-10
-2.90875e-09
9.09724e-10
-2.63018e-09
9.95895e-10
-2.43903e-09
1.14457e-09
-2.50101e-09
1.44771e-09
-2.62917e-09
1.82969e-09
-2.74037e-09
2.16487e-09
-2.5618e-09
2.39738e-09
-2.38565e-09
2.67636e-09
-2.23452e-09
2.71192e-09
-1.82096e-09
2.96302e-09
-1.48183e-09
3.04911e-09
-1.03974e-09
3.16275e-09
-8.8837e-10
3.07313e-09
-4.40364e-10
3.12023e-09
-3.62725e-10
3.05668e-09
4.00158e-11
3.00239e-09
2.20836e-10
2.88694e-09
4.52261e-10
2.83466e-09
4.8117e-10
2.66816e-09
5.57984e-10
2.55987e-09
4.09503e-10
2.36733e-09
5.68124e-10
2.22176e-09
4.95158e-10
2.18969e-09
4.65988e-10
2.05508e-09
5.08769e-10
1.95802e-09
5.13227e-10
1.94026e-09
4.66989e-10
1.93601e-09
3.76942e-10
1.93574e-09
3.26758e-10
1.91341e-09
3.09177e-10
1.92114e-09
1.64813e-10
1.97368e-09
1.3397e-11
2.10004e-09
-2.77748e-12
2.2154e-09
-1.60765e-10
2.3669e-09
-3.79926e-10
2.41558e-09
-3.74982e-10
2.44266e-09
-3.29705e-10
2.46418e-09
-3.6841e-10
2.49474e-09
-1.95827e-10
2.44982e-09
1.80359e-11
2.36044e-09
5.49751e-11
2.33232e-09
1.55525e-10
2.21299e-09
1.5767e-10
2.13166e-09
3.46262e-10
2.05232e-09
3.00542e-10
1.91024e-09
4.41436e-10
1.8575e-09
4.65037e-10
1.69492e-09
4.74868e-10
1.62547e-09
5.30766e-10
1.47341e-09
5.84318e-10
1.43822e-09
5.87861e-10
1.43024e-09
7.00625e-10
1.20503e-09
7.89042e-10
1.03055e-09
9.91583e-10
8.58567e-10
1.16895e-09
7.17027e-10
1.37925e-09
6.27536e-10
1.67606e-09
6.22946e-10
2.12736e-09
6.58451e-10
2.40579e-09
4.11279e-10
2.94872e-09
-2.16857e-17
3.98481e-09
-6.64935e-18
5.52591e-18
-6.4233e-18
1.70379e-18
-5.97569e-18
1.05277e-18
-5.55256e-18
3.7444e-19
-5.15308e-18
-2.94703e-19
-4.74619e-18
-9.25462e-19
-4.31033e-18
-1.50047e-18
-3.83598e-18
-2.00829e-18
-3.32224e-18
-2.44079e-18
-2.77421e-18
-2.79245e-18
-2.2008e-18
-3.05934e-18
-1.61332e-18
-3.23968e-18
-1.02426e-18
-3.33393e-18
-4.4644e-19
-3.34491e-18
1.07849e-19
-3.27779e-18
6.27458e-19
-3.13982e-18
1.1029e-18
-2.93999e-18
1.52667e-18
-2.68853e-18
1.89342e-18
-2.39633e-18
2.19989e-18
-2.07438e-18
2.44485e-18
-1.73327e-18
2.62879e-18
-1.38277e-18
2.75365e-18
-1.03154e-18
2.82253e-18
-6.86941e-19
2.8393e-18
-3.54984e-19
2.80838e-18
-4.03444e-20
2.73447e-18
2.5354e-19
2.62231e-18
5.24334e-19
2.47654e-18
7.70642e-19
2.30162e-18
9.91829e-19
2.10171e-18
1.18785e-18
1.88064e-18
1.3591e-18
1.64193e-18
1.50625e-18
1.38877e-18
1.63013e-18
1.12405e-18
1.73165e-18
8.50412e-19
1.81166e-18
5.70276e-19
1.87093e-18
2.859e-19
1.91009e-18
1.92955e-18
-2.48533e-10
1.74216e-09
-2.89907e-10
1.76866e-09
-4.05981e-10
2.00979e-09
-4.97852e-10
2.08527e-09
-6.75886e-10
2.09921e-09
-7.9514e-10
1.93424e-09
-7.73124e-10
1.76128e-09
-6.66598e-10
1.35936e-09
-5.81626e-10
1.0669e-09
-6.87388e-10
7.25868e-10
-6.94019e-10
3.18988e-10
-7.07789e-10
4.97272e-11
-5.31099e-10
-4.10779e-10
-4.33225e-10
-1.05661e-09
-4.17455e-10
-1.23848e-09
-4.22969e-10
-1.4881e-09
-1.79727e-10
-2.17348e-09
4.01652e-11
-2.74319e-09
2.0562e-10
-2.86833e-09
4.4938e-10
-3.17546e-09
5.69182e-10
-3.02855e-09
6.15691e-10
-2.67669e-09
6.60325e-10
-2.48366e-09
8.47803e-10
-2.68849e-09
1.29859e-09
-3.07996e-09
1.61611e-09
-3.05789e-09
1.97258e-09
-2.91828e-09
2.17117e-09
-2.58424e-09
2.34366e-09
-2.40702e-09
2.30235e-09
-1.77964e-09
2.63215e-09
-1.81163e-09
2.63803e-09
-1.04563e-09
2.69406e-09
-9.44409e-10
2.65884e-09
-4.0514e-10
2.61385e-09
-3.17731e-10
2.58332e-09
7.05399e-11
2.51287e-09
2.91288e-10
2.43607e-09
5.29055e-10
2.35608e-09
5.61161e-10
2.30937e-09
6.04698e-10
2.06262e-09
6.56252e-10
1.9706e-09
6.60137e-10
1.86686e-09
5.98903e-10
1.77637e-09
5.56479e-10
1.71739e-09
5.67747e-10
1.72615e-09
5.04465e-10
1.74075e-09
4.52383e-10
1.73012e-09
3.87573e-10
1.74357e-09
3.13308e-10
1.72754e-09
3.25209e-10
1.81755e-09
7.48051e-11
1.95143e-09
-1.20485e-10
2.19513e-09
-2.46476e-10
2.40453e-09
-3.70162e-10
2.44227e-09
-4.17667e-10
2.45888e-09
-3.9159e-10
2.43092e-09
-3.01737e-10
2.38623e-09
-3.23726e-10
2.3833e-09
-1.92893e-10
2.32024e-09
8.11025e-11
2.18779e-09
1.87427e-10
2.17389e-09
1.69432e-10
2.04571e-09
2.8585e-10
1.98589e-09
4.06083e-10
1.84653e-09
4.39908e-10
1.74049e-09
5.47476e-10
1.66159e-09
5.43939e-10
1.60465e-09
5.31817e-10
1.4054e-09
7.30017e-10
1.27724e-09
7.12481e-10
1.21907e-09
6.46035e-10
1.0963e-09
8.23394e-10
9.23563e-10
9.61783e-10
8.37489e-10
1.07766e-09
7.28681e-10
1.27776e-09
6.21473e-10
1.48645e-09
4.77236e-10
1.8203e-09
3.90169e-10
2.21442e-09
3.29833e-10
2.46613e-09
2.63656e-10
3.0149e-09
-1.65605e-16
4.24846e-09
-7.3443e-18
6.47714e-18
-7.07317e-18
1.43225e-18
-6.65298e-18
6.32025e-19
-6.22079e-18
-5.86218e-20
-5.78303e-18
-7.33585e-19
-5.3205e-18
-1.3893e-18
-4.81777e-18
-2.00462e-18
-4.26848e-18
-2.55908e-18
-3.6739e-18
-3.03693e-18
-3.0411e-18
-3.42682e-18
-2.38114e-18
-3.7209e-18
-1.70756e-18
-3.91484e-18
-1.03525e-18
-4.0078e-18
-3.79319e-19
-4.00236e-18
2.45819e-19
-3.9044e-18
8.27286e-19
-3.72269e-18
1.35436e-18
-3.4684e-18
1.81888e-18
-3.15428e-18
2.21537e-18
-2.79394e-18
2.541e-18
-2.40104e-18
2.79535e-18
-1.98856e-18
2.98002e-18
-1.56833e-18
3.09825e-18
-1.15064e-18
3.15448e-18
-7.44043e-19
3.15394e-18
-3.55337e-19
3.10227e-18
1.03817e-20
3.00527e-18
3.49555e-19
2.86862e-18
6.59956e-19
2.69773e-18
9.40462e-19
2.49765e-18
1.19082e-18
2.27295e-18
1.41143e-18
2.02779e-18
1.60314e-18
1.76581e-18
1.76709e-18
1.49028e-18
1.90452e-18
1.20406e-18
2.01673e-18
9.09685e-19
2.10489e-18
6.09429e-19
2.17005e-18
3.05365e-19
2.21301e-18
2.23434e-18
-8.7733e-11
1.82989e-09
-3.00911e-10
1.98184e-09
-3.16952e-10
2.02583e-09
-3.42479e-10
2.11079e-09
-3.12554e-10
2.06928e-09
-3.43623e-10
1.96531e-09
-3.77129e-10
1.79479e-09
-5.3447e-10
1.51671e-09
-7.31659e-10
1.26409e-09
-7.13624e-10
7.07834e-10
-5.69582e-10
1.74947e-10
-5.01564e-10
-1.82909e-11
-3.39584e-10
-5.72758e-10
-3.615e-10
-1.0347e-09
-3.27676e-10
-1.2723e-09
-2.92196e-10
-1.52358e-09
-1.44374e-10
-2.3213e-09
-3.98547e-11
-2.84771e-09
5.41442e-11
-2.96233e-09
2.07823e-10
-3.32914e-09
2.37793e-10
-3.05852e-09
2.02129e-10
-2.64103e-09
4.84601e-10
-2.76613e-09
8.50087e-10
-3.05397e-09
1.23199e-09
-3.46186e-09
1.46516e-09
-3.29106e-09
1.54869e-09
-3.0018e-09
1.55843e-09
-2.59398e-09
1.60555e-09
-2.45414e-09
1.72209e-09
-1.89618e-09
1.82374e-09
-1.91329e-09
1.93445e-09
-1.15633e-09
1.90229e-09
-9.12245e-10
2.21526e-09
-7.1811e-10
1.93224e-09
-3.47123e-11
1.85983e-09
1.42947e-10
1.84508e-09
3.06036e-10
1.83405e-09
5.40086e-10
1.78137e-09
6.13845e-10
1.79791e-09
5.88151e-10
1.62115e-09
8.33011e-10
1.59671e-09
6.84584e-10
1.53783e-09
6.57778e-10
1.45749e-09
6.36815e-10
1.4334e-09
5.91839e-10
1.41506e-09
5.22802e-10
1.44153e-09
4.25916e-10
1.46057e-09
3.6853e-10
1.56723e-09
2.06655e-10
1.64656e-09
2.45877e-10
1.90887e-09
-1.87504e-10
2.09247e-09
-3.0408e-10
2.33911e-09
-4.93116e-10
2.47288e-09
-5.03932e-10
2.44345e-09
-3.88233e-10
2.47624e-09
-4.2438e-10
2.37689e-09
-2.02383e-10
2.23707e-09
-1.83906e-10
2.14626e-09
-1.0208e-10
2.09556e-09
1.31799e-10
2.03342e-09
2.49572e-10
1.93914e-09
2.63724e-10
1.85925e-09
3.6574e-10
1.80643e-09
4.5891e-10
1.71405e-09
5.32293e-10
1.63055e-09
6.30975e-10
1.58149e-09
5.93004e-10
1.48205e-09
6.31263e-10
1.34551e-09
8.66556e-10
1.21746e-09
8.40543e-10
1.06971e-09
7.93787e-10
9.448e-10
9.48307e-10
8.26981e-10
1.0796e-09
7.19102e-10
1.18554e-09
6.1619e-10
1.38068e-09
5.35613e-10
1.56703e-09
3.86289e-10
1.96962e-09
3.94232e-10
2.20648e-09
3.29247e-10
2.53111e-09
3.07765e-10
3.03638e-09
-3.09858e-16
4.55623e-09
-8.76877e-18
4.64728e-18
-7.87224e-18
5.35352e-19
-7.34262e-18
1.02046e-19
-6.89487e-18
-5.07033e-19
-6.43798e-18
-1.19142e-18
-5.93515e-18
-1.89328e-18
-5.37197e-18
-2.56913e-18
-4.74634e-18
-3.18615e-18
-4.06378e-18
-3.72102e-18
-3.33518e-18
-4.15702e-18
-2.57508e-18
-4.48261e-18
-1.80052e-18
-4.69104e-18
-1.02981e-18
-4.78016e-18
-2.81355e-19
-4.75246e-18
4.27522e-19
-4.61489e-18
1.08158e-18
-4.37834e-18
1.66848e-18
-4.05683e-18
2.17921e-18
-3.66649e-18
2.60827e-18
-3.22439e-18
2.95348e-18
-2.74752e-18
3.21558e-18
-2.25183e-18
3.39771e-18
-1.75155e-18
3.50485e-18
-1.25879e-18
3.54319e-18
-7.83374e-19
3.51965e-18
-3.32788e-19
3.44144e-18
8.75976e-20
3.31567e-18
4.74308e-19
3.14912e-18
8.25454e-19
2.94809e-18
1.14042e-18
2.71826e-18
1.41955e-18
2.46467e-18
1.6639e-18
2.19173e-18
1.87495e-18
1.90325e-18
2.05443e-18
1.60249e-18
2.20415e-18
1.29222e-18
2.32585e-18
9.74838e-19
2.42114e-18
6.5239e-19
2.49135e-18
3.267e-19
2.53755e-18