/*--------------------------------*- C++ -*----------------------------------*\
  =========                 |
  \\      /  F ield         | OpenFOAM: The Open Source CFD Toolbox
   \\    /   O peration     | Website:  https://openfoam.org
    \\  /    A nd           | Version:  6
     \\/     M anipulation  |
\*---------------------------------------------------------------------------*/
FoamFile
{
    version     2.0;
    format      ascii;
    class       volScalarField;
    location    "3400";
    object      Su;
}
// * * * * * * * * * * * * * * * * * * * * * * * * * * * * * * * * * * * * * //

dimensions      [0 0 -1 0 0 0 0];

internalField   nonuniform List<scalar> 
4800
(
0.218083
0.21308
0.208116
0.203223
0.198446
0.193839
0.189463
0.185385
0.181647
0.178251
0.175187
0.17243
0.169947
0.1677
0.165652
0.163769
0.162026
0.16039
0.158836
0.157349
0.155913
0.154517
0.153152
0.151812
0.150495
0.149194
0.147898
0.146607
0.145317
0.144016
0.1427
0.141363
0.14
0.138609
0.137182
0.135713
0.134197
0.13263
0.131013
0.129348
0.127636
0.125881
0.124084
0.12225
0.120388
0.118506
0.116613
0.114715
0.112819
0.11093
0.109056
0.107206
0.105386
0.103601
0.101852
0.10014
0.0984623
0.0968123
0.0951776
0.093549
0.0919196
0.0902782
0.0886111
0.0869057
0.0851491
0.0833283
0.0814289
0.0794348
0.0773293
0.0750939
0.0727075
0.0701466
0.0673845
0.0643891
0.0611259
0.0575695
0.0537022
0.0495304
0.0450905
0.0404438
0.0357037
0.0309991
0.0264359
0.0219859
0.0176389
0.0133857
0.00921826
0.00512865
0.00110968
-0.00284537
-0.00674256
-0.0105875
-0.0143854
-0.0181408
-0.0218576
-0.0255396
-0.0291898
-0.0328111
-0.036406
-0.0399768
-0.0435255
-0.047054
-0.0505639
-0.0540568
-0.0575342
-0.0609975
-0.064448
-0.0678868
-0.0713151
-0.074734
-0.0781445
-0.0815476
-0.0849443
-0.0883353
-0.0917216
-0.095104
-0.0984831
-0.10186
-0.105235
-0.108609
0.218072
0.213045
0.208057
0.203151
0.198382
0.193808
0.189487
0.185468
0.181785
0.178437
0.175404
0.172667
0.170197
0.167952
0.165898
0.164002
0.162241
0.160584
0.159009
0.1575
0.156041
0.15462
0.15323
0.151866
0.150523
0.149196
0.147883
0.146569
0.145256
0.143945
0.142618
0.141269
0.139892
0.138487
0.137046
0.135562
0.134034
0.132458
0.130833
0.12916
0.12744
0.125674
0.123868
0.122026
0.120156
0.118266
0.116366
0.114463
0.112563
0.110672
0.108797
0.106945
0.105125
0.103339
0.10159
0.0998773
0.0981973
0.096545
0.0949095
0.0932804
0.0916494
0.0900059
0.0883366
0.086628
0.0848663
0.0830383
0.0811315
0.0791292
0.0770149
0.0747698
0.0723742
0.0698049
0.0670411
0.0640509
0.0608019
0.0572647
0.0534253
0.0492845
0.0448776
0.040266
0.0355502
0.0308568
0.0263049
0.0218648
0.0175268
0.0132821
0.00912267
0.00504083
0.00102928
-0.00291876
-0.00680937
-0.0106483
-0.0144405
-0.0181907
-0.0219029
-0.0255806
-0.029227
-0.0328449
-0.0364367
-0.0400046
-0.0435508
-0.0470769
-0.0505846
-0.0540756
-0.0575513
-0.0610129
-0.0644618
-0.0678992
-0.0713262
-0.0747438
-0.0781532
-0.0815553
-0.0849509
-0.088341
-0.0917263
-0.0951078
-0.098486
-0.101862
-0.105236
-0.108609
0.218063
0.213029
0.208053
0.203169
0.198432
0.193913
0.189666
0.185728
0.182114
0.17882
0.17583
0.173119
0.170656
0.168405
0.166331
0.164411
0.162618
0.160924
0.15931
0.157756
0.156251
0.154784
0.153347
0.151934
0.150538
0.149157
0.147798
0.146443
0.145084
0.143736
0.142382
0.141009
0.139614
0.138191
0.136733
0.135234
0.133689
0.132096
0.130452
0.128761
0.127025
0.125245
0.123425
0.12157
0.119686
0.117783
0.115871
0.113958
0.112052
0.110157
0.108279
0.106427
0.104605
0.102819
0.101069
0.0993553
0.0976739
0.0960213
0.0943886
0.0927609
0.0911268
0.0894774
0.0878019
0.0860871
0.0843175
0.0824791
0.0805611
0.0785456
0.0764192
0.0741601
0.0717527
0.0691714
0.0663979
0.0634131
0.0601839
0.0566809
0.0528897
0.0487997
0.0444431
0.0398859
0.0352275
0.0305713
0.0260437
0.0216231
0.0173027
0.0130747
0.00893144
0.00486517
0.000868514
-0.00306541
-0.00694282
-0.0107695
-0.0145505
-0.0182904
-0.0219933
-0.0256626
-0.0293013
-0.0329123
-0.0364978
-0.0400601
-0.0436011
-0.0471226
-0.0506261
-0.0541131
-0.0575852
-0.0610435
-0.0644894
-0.067924
-0.0713483
-0.0747635
-0.0781706
-0.0815705
-0.0849641
-0.0883522
-0.0917357
-0.0951153
-0.0984919
-0.101866
-0.105238
-0.10861
0.218069
0.213043
0.208083
0.203246
0.198588
0.194162
0.190008
0.186152
0.182611
0.179371
0.176417
0.173725
0.171262
0.169
0.166903
0.164944
0.163104
0.161357
0.159685
0.15807
0.156497
0.154954
0.153435
0.15194
0.150462
0.149001
0.147567
0.146152
0.144741
0.143343
0.141951
0.140547
0.139125
0.137682
0.136206
0.13469
0.133128
0.131515
0.12985
0.128134
0.126375
0.124575
0.122739
0.120869
0.118971
0.117054
0.115127
0.113201
0.111285
0.109385
0.107504
0.105651
0.103829
0.102043
0.100294
0.0985823
0.096904
0.0952541
0.0936232
0.0919966
0.0903627
0.0887119
0.0870321
0.0853129
0.0835374
0.0816897
0.0797618
0.0777322
0.0755923
0.0733197
0.0708997
0.0683108
0.0655283
0.0625455
0.0593359
0.0558685
0.0521313
0.048113
0.0438386
0.0393599
0.0347703
0.0301548
0.0256565
0.0212623
0.0169671
0.0127639
0.00864485
0.00460207
0.000627924
-0.0032847
-0.0071422
-0.0109505
-0.0147146
-0.0184392
-0.0221281
-0.0257847
-0.0294121
-0.0330127
-0.036589
-0.0401428
-0.0436762
-0.0471907
-0.0506878
-0.0541691
-0.0576358
-0.0610892
-0.0645305
-0.0679609
-0.0713813
-0.0747929
-0.0781965
-0.0815932
-0.0849837
-0.0883689
-0.0917496
-0.0951266
-0.0985005
-0.101872
-0.105242
-0.108611
0.218102
0.213147
0.20826
0.203492
0.198908
0.194567
0.190502
0.186722
0.183235
0.180038
0.177114
0.174433
0.171966
0.169683
0.16755
0.165549
0.163653
0.161838
0.160085
0.15838
0.156707
0.155057
0.153432
0.151826
0.150247
0.148686
0.147161
0.145672
0.144197
0.142742
0.141306
0.139865
0.13841
0.136943
0.135446
0.13391
0.132331
0.130699
0.129011
0.12727
0.125484
0.123661
0.121804
0.119917
0.118004
0.116074
0.114135
0.112197
0.110272
0.108365
0.106481
0.104628
0.102809
0.101025
0.0992799
0.0975729
0.0959019
0.0942596
0.0926369
0.0910172
0.089388
0.08774
0.08606
0.0843383
0.0825588
0.0807046
0.0787683
0.076728
0.0745783
0.0722956
0.0698657
0.0672724
0.0644873
0.0615086
0.0583171
0.0548856
0.0512138
0.0472942
0.0431424
0.0387715
0.0342285
0.0296172
0.0251458
0.020783
0.0165203
0.0123498
0.00826327
0.00425215
0.000308356
-0.00357559
-0.00740639
-0.01119
-0.0149317
-0.0186358
-0.0223062
-0.0259461
-0.0295584
-0.0331455
-0.0367094
-0.0402521
-0.0437754
-0.0472807
-0.0507694
-0.054243
-0.0577027
-0.0611496
-0.0645849
-0.0680097
-0.0714249
-0.0748317
-0.0782308
-0.0816231
-0.0850096
-0.088391
-0.091768
-0.0951414
-0.098512
-0.10188
-0.105247
-0.108613
0.218138
0.213255
0.208443
0.203764
0.199276
0.195023
0.191039
0.187348
0.18394
0.180793
0.177894
0.175216
0.172734
0.170417
0.16824
0.16618
0.164211
0.162304
0.160442
0.158618
0.15682
0.155045
0.153289
0.151554
0.149855
0.148184
0.146557
0.14498
0.143432
0.141916
0.14043
0.138946
0.137455
0.135958
0.134441
0.132886
0.131287
0.129636
0.127927
0.126162
0.124351
0.122504
0.120625
0.118719
0.116789
0.114846
0.112896
0.110951
0.109022
0.107112
0.105227
0.103378
0.101565
0.0997876
0.09805
0.0963528
0.0946944
0.0930637
0.0914541
0.0898462
0.0882262
0.0865841
0.0849078
0.0831883
0.0814063
0.0795492
0.0776082
0.0755589
0.0734021
0.0711115
0.0686751
0.0660812
0.0633023
0.0603381
0.0571725
0.0537892
0.0501801
0.0463224
0.042224
0.0379257
0.0334834
0.0289351
0.0245064
0.0201835
0.0159615
0.0118324
0.00778707
0.00381628
-8.89288e-05
-0.00393657
-0.00773371
-0.0114865
-0.0152
-0.0188787
-0.0225262
-0.0261455
-0.0297391
-0.0333094
-0.0368581
-0.0403871
-0.0438979
-0.0473918
-0.0508702
-0.0543344
-0.0577853
-0.0612242
-0.0646521
-0.06807
-0.0714788
-0.0748796
-0.0782731
-0.0816601
-0.0850416
-0.0884182
-0.0917907
-0.0951598
-0.0985261
-0.10189
-0.105253
-0.108615
0.21818
0.213383
0.208667
0.204097
0.199732
0.195601
0.191719
0.188101
0.184733
0.181611
0.178721
0.176039
0.173535
0.171182
0.168948
0.166808
0.164741
0.162719
0.160731
0.158768
0.156825
0.154898
0.152991
0.151112
0.149278
0.147488
0.145751
0.144069
0.142436
0.14085
0.13931
0.137784
0.136256
0.134727
0.133183
0.131609
0.129991
0.12832
0.126591
0.124806
0.122972
0.121103
0.119202
0.117278
0.115335
0.113382
0.111427
0.109478
0.107548
0.105641
0.10376
0.101917
0.100116
0.0983496
0.0966243
0.0949413
0.0932981
0.0916826
0.0900898
0.0884978
0.0868904
0.0852589
0.0835884
0.0818746
0.0800937
0.078237
0.0762938
0.0742415
0.0720809
0.0697884
0.0673545
0.0647668
0.0619981
0.0590518
0.0559111
0.0525621
0.0489979
0.0452139
0.041213
0.0370083
0.0326364
0.0281274
0.0237404
0.0194629
0.0152895
0.0112111
0.00721677
0.00329575
-0.000562096
-0.00436549
-0.0081219
-0.0118375
-0.0155175
-0.019166
-0.0227862
-0.026381
-0.0299526
-0.0335031
-0.0370339
-0.0405467
-0.0440428
-0.0475233
-0.0509895
-0.0544424
-0.0578831
-0.0613125
-0.0647316
-0.0681413
-0.0715426
-0.0749362
-0.0783231
-0.0817039
-0.0850795
-0.0884505
-0.0918176
-0.0951815
-0.0985428
-0.101902
-0.10526
-0.108617
0.21824
0.213567
0.208982
0.204538
0.200279
0.196232
0.192417
0.188851
0.185532
0.182454
0.179583
0.176891
0.174356
0.171953
0.169644
0.1674
0.165211
0.16306
0.160929
0.158809
0.1567
0.154607
0.152538
0.150504
0.148524
0.146605
0.144752
0.142961
0.141232
0.139564
0.137951
0.136373
0.134805
0.133244
0.131668
0.130074
0.128437
0.126751
0.125005
0.123202
0.121349
0.119461
0.117541
0.115603
0.113652
0.111695
0.109741
0.107796
0.105871
0.10397
0.102096
0.100262
0.0984765
0.0967288
0.0950209
0.0933562
0.0917287
0.0901277
0.0885513
0.0869777
0.0853852
0.0837675
0.0821087
0.0804036
0.0786287
0.0767778
0.0748357
0.0727874
0.0706279
0.0683388
0.0659126
0.0633387
0.0605907
0.057666
0.0545531
0.0512435
0.0477336
0.0440221
0.0401037
0.0359811
0.0316705
0.0271895
0.0228435
0.0186171
0.0145019
0.0104852
0.00655316
0.00269249
-0.00110849
-0.00485933
-0.00856784
-0.0122402
-0.0158813
-0.0194949
-0.0230839
-0.0266507
-0.0301972
-0.033725
-0.0372354
-0.0407297
-0.0442089
-0.0476742
-0.0511263
-0.0545664
-0.0579952
-0.0614137
-0.0648227
-0.0682231
-0.0716157
-0.0750012
-0.0783804
-0.0817541
-0.0851229
-0.0884874
-0.0918484
-0.0952064
-0.098562
-0.101916
-0.105268
-0.10862
0.218307
0.213774
0.209328
0.20501
0.200859
0.196905
0.193177
0.189685
0.186418
0.183359
0.180483
0.177767
0.175189
0.172717
0.170306
0.167942
0.16562
0.16332
0.161026
0.158738
0.156458
0.154194
0.151956
0.149761
0.147626
0.145563
0.143576
0.141664
0.139824
0.138064
0.136365
0.134728
0.13311
0.131513
0.129905
0.128284
0.126627
0.124923
0.123162
0.121348
0.119485
0.117587
0.115659
0.113714
0.111762
0.109808
0.10786
0.105924
0.104007
0.102118
0.100254
0.0984337
0.0966639
0.0949374
0.0932505
0.0916043
0.089994
0.0884077
0.0868458
0.0852908
0.0837165
0.0821136
0.080472
0.0787798
0.0770167
0.0751756
0.0732407
0.071203
0.0690533
0.0667726
0.0643566
0.0617988
0.0590775
0.0561854
0.0531125
0.0498475
0.0463853
0.0427228
0.0388579
0.0348015
0.0305574
0.0261064
0.0218048
0.0176386
0.0135945
0.00965381
0.00579771
0.00200953
-0.00172425
-0.00541395
-0.00906746
-0.0126907
-0.0162879
-0.0198624
-0.0234165
-0.0269521
-0.0304706
-0.0339732
-0.0374608
-0.0409345
-0.044395
-0.0478431
-0.0512796
-0.0547052
-0.0581209
-0.0615272
-0.0649249
-0.0683148
-0.0716976
-0.075074
-0.0784447
-0.0818103
-0.0851715
-0.0885288
-0.0918829
-0.0952342
-0.0985834
-0.101931
-0.105277
-0.108623
0.218382
0.213991
0.209679
0.205491
0.201458
0.197608
0.193959
0.190521
0.187284
0.184239
0.181365
0.178626
0.175998
0.173443
0.170927
0.168442
0.165979
0.16352
0.161055
0.15859
0.156132
0.153691
0.151282
0.148922
0.146622
0.144399
0.142258
0.140206
0.13824
0.136375
0.13458
0.132872
0.131194
0.12955
0.127913
0.126258
0.124574
0.122852
0.121077
0.119256
0.117396
0.115495
0.11357
0.11163
0.109684
0.107738
0.105799
0.103876
0.101973
0.100101
0.0982497
0.0964458
0.0946893
0.0929817
0.0913173
0.0896899
0.0881006
0.0865313
0.0849833
0.0834458
0.0818933
0.0803094
0.0786875
0.0770124
0.0752668
0.0734406
0.0715182
0.0694955
0.0673644
0.0651018
0.0627045
0.0601712
0.0574838
0.0546295
0.0515988
0.0483786
0.0449618
0.0413409
0.0375173
0.0335021
0.0293006
0.0248633
0.020608
0.0165157
0.0125617
0.00871641
0.00495335
0.00125169
-0.00240381
-0.00602373
-0.00961547
-0.0131841
-0.0167331
-0.0202648
-0.0237809
-0.0272824
-0.0307704
-0.0342455
-0.0377083
-0.0411595
-0.0445994
-0.0480287
-0.0514481
-0.054858
-0.058259
-0.0616519
-0.0650372
-0.0684156
-0.0717877
-0.075154
-0.0785153
-0.081872
-0.0852248
-0.0885742
-0.0919207
-0.0952648
-0.0986069
-0.101948
-0.105287
-0.108626
0.218452
0.214203
0.21003
0.205964
0.202034
0.198271
0.1947
0.191329
0.188145
0.185124
0.182238
0.179464
0.176777
0.174136
0.171515
0.168905
0.166298
0.163678
0.161044
0.158403
0.155769
0.153151
0.150559
0.148017
0.145539
0.143141
0.140836
0.138636
0.13654
0.134556
0.132659
0.130859
0.129107
0.127397
0.12572
0.12403
0.122317
0.120571
0.11878
0.11695
0.115095
0.113203
0.111288
0.109365
0.107435
0.105506
0.103583
0.101677
0.0997894
0.0979379
0.0960966
0.0943088
0.0925631
0.0908713
0.0892273
0.0876179
0.0860514
0.0845058
0.0829762
0.0814549
0.0799262
0.0783671
0.0767673
0.0751119
0.0733845
0.0715763
0.0696683
0.0676638
0.0655545
0.0633197
0.0609543
0.0584561
0.0558097
0.0530009
0.0500171
0.0468414
0.0434646
0.039871
0.0360619
0.0320531
0.0278683
0.0234256
0.0192241
0.0152311
0.0113974
0.00767463
0.00402605
0.000426714
-0.00313915
-0.00668116
-0.0102052
-0.0137148
-0.017212
-0.0206979
-0.0241733
-0.0276386
-0.031094
-0.0345397
-0.0379759
-0.0414028
-0.0448207
-0.0482298
-0.0516305
-0.0550234
-0.0584087
-0.061787
-0.0651589
-0.0685247
-0.0718851
-0.0752406
-0.0785917
-0.0819388
-0.0852826
-0.0886234
-0.0919616
-0.0952978
-0.0986323
-0.101966
-0.105298
-0.10863
0.218523
0.214413
0.210374
0.206437
0.202626
0.198965
0.195471
0.192148
0.188986
0.185965
0.183065
0.180258
0.177511
0.174788
0.172068
0.169339
0.166595
0.163823
0.16103
0.158222
0.155413
0.152616
0.149837
0.1471
0.144431
0.141854
0.139382
0.137026
0.134785
0.132667
0.130659
0.128756
0.126907
0.125116
0.123373
0.12164
0.1199
0.118135
0.116327
0.114488
0.112631
0.110749
0.108852
0.106952
0.105044
0.103138
0.101232
0.0993476
0.0974728
0.0956383
0.093809
0.0920349
0.090301
0.0886271
0.0870006
0.0854108
0.0838646
0.0823453
0.0808408
0.0793381
0.0778327
0.0762998
0.0747236
0.0730908
0.0713858
0.0696011
0.0677148
0.0657352
0.0636489
0.0614437
0.0591136
0.056654
0.0540511
0.0512878
0.0483495
0.0452156
0.0418697
0.0382902
0.0344709
0.03043
0.0262138
0.0217302
0.0176054
0.0137619
0.010098
0.00653564
0.00302728
-0.000453231
-0.00391908
-0.00737659
-0.0108285
-0.0142759
-0.0177189
-0.0211571
-0.0245901
-0.0280174
-0.0314386
-0.0348533
-0.0382614
-0.0416626
-0.045057
-0.0484446
-0.0518255
-0.0552001
-0.0585686
-0.0619314
-0.0652888
-0.0686413
-0.0719892
-0.0753331
-0.0786732
-0.0820101
-0.0853442
-0.0886758
-0.0920053
-0.0953331
-0.0986595
-0.101985
-0.105309
-0.108633
0.218599
0.214633
0.210724
0.206902
0.203196
0.199624
0.196198
0.192919
0.189778
0.186762
0.183848
0.181007
0.1782
0.1754
0.172588
0.169753
0.166888
0.163982
0.161046
0.158084
0.155105
0.152126
0.149147
0.146198
0.143326
0.140564
0.13792
0.135407
0.133022
0.130764
0.128629
0.126613
0.12466
0.12277
0.120931
0.119128
0.117344
0.115559
0.113744
0.111902
0.110046
0.108178
0.106304
0.104426
0.10254
0.100656
0.098767
0.0968992
0.0950397
0.0932141
0.0914025
0.0896446
0.0879237
0.0862724
0.0846638
0.0830952
0.0815699
0.0800734
0.0785934
0.0771131
0.0756293
0.0741212
0.0725703
0.0709605
0.0692799
0.0675194
0.0656619
0.0637136
0.0616577
0.0594901
0.0572043
0.0547898
0.0522321
0.0495131
0.0466152
0.043514
0.0401836
0.0366035
0.0327427
0.0286047
0.0242588
0.0196527
0.0156747
0.0120849
0.008671
0.00531857
0.0019777
-0.00136985
-0.00472862
-0.0080981
-0.0114761
-0.0148602
-0.0182479
-0.0216374
-0.025027
-0.0284153
-0.0318011
-0.0351838
-0.0385625
-0.0419368
-0.0453066
-0.0486715
-0.0520316
-0.0553869
-0.0587376
-0.062084
-0.0654261
-0.0687644
-0.0720991
-0.0754307
-0.0787593
-0.0820853
-0.0854092
-0.0887311
-0.0920513
-0.0953702
-0.098688
-0.102005
-0.105321
-0.108638
0.218671
0.214843
0.211056
0.207342
0.203731
0.200243
0.196883
0.193648
0.190532
0.187521
0.184589
0.181706
0.178841
0.175973
0.173083
0.17016
0.167194
0.164177
0.161113
0.158004
0.154859
0.151696
0.148516
0.145353
0.142277
0.139329
0.136512
0.133833
0.131289
0.128883
0.126612
0.124469
0.1224
0.120412
0.118481
0.116608
0.114767
0.112947
0.111118
0.109266
0.1074
0.10554
0.103686
0.101825
0.0999551
0.0980823
0.0962082
0.0943489
0.0925078
0.0906933
0.0889014
0.087162
0.0854601
0.0838295
0.0822413
0.0806907
0.0791852
0.0777084
0.0762505
0.0747951
0.0733347
0.0718505
0.070326
0.0687428
0.0670912
0.0653574
0.0635333
0.0616188
0.0596
0.0574725
0.0552296
0.0528618
0.0503528
0.0476811
0.044824
0.0417545
0.0384336
0.034828
0.0308766
0.0265449
0.021876
0.016913
0.0133175
0.0101993
0.00715448
0.00406467
0.000911155
-0.00229773
-0.00554919
-0.00883209
-0.0121378
-0.0154597
-0.0187931
-0.0221342
-0.0254802
-0.0288289
-0.0321788
-0.0355284
-0.0388769
-0.0422234
-0.0455675
-0.0489088
-0.0522471
-0.0555823
-0.0589144
-0.0622434
-0.0655696
-0.068893
-0.0722139
-0.0755325
-0.0788491
-0.0821638
-0.0854769
-0.0887887
-0.0920993
-0.0954089
-0.0987178
-0.102026
-0.105334
-0.108642
0.218735
0.215033
0.211363
0.207757
0.20424
0.200828
0.197527
0.194334
0.191239
0.188228
0.18528
0.182364
0.179449
0.176519
0.173558
0.170558
0.167508
0.164397
0.161223
0.157982
0.154687
0.151353
0.147989
0.144636
0.141364
0.138221
0.135217
0.132363
0.129657
0.127097
0.124679
0.122398
0.120205
0.1181
0.11606
0.114106
0.112201
0.11034
0.10849
0.106627
0.104748
0.102884
0.101035
0.0991792
0.0973153
0.0954436
0.0935769
0.091725
0.089899
0.0881022
0.0863356
0.0846148
0.0829379
0.0813245
0.0797569
0.0782238
0.0767345
0.0752749
0.0738365
0.072403
0.0709613
0.0694954
0.0679963
0.0664411
0.0648155
0.0631105
0.0613238
0.0594472
0.0574698
0.0553854
0.0531887
0.05087
0.0484129
0.0457953
0.0429869
0.0399524
0.0366404
0.0329947
0.0289108
0.0242615
0.0188916
0.0127513
0.0104327
0.00820205
0.00565258
0.00284839
-0.000123994
-0.00320582
-0.00636042
-0.00956473
-0.0128037
-0.0160674
-0.0193487
-0.0226428
-0.0259458
-0.0292551
-0.0325687
-0.0358848
-0.0392023
-0.0425202
-0.0458378
-0.0491547
-0.0524704
-0.0557847
-0.0590974
-0.0624085
-0.0657181
-0.0690261
-0.0723326
-0.0756379
-0.0789419
-0.0822449
-0.0855469
-0.0888482
-0.0921488
-0.0954489
-0.0987485
-0.102048
-0.105347
-0.108646
0.218792
0.215203
0.211644
0.208142
0.204717
0.201382
0.198138
0.194983
0.191908
0.188898
0.185931
0.182978
0.180015
0.177028
0.174007
0.170944
0.167827
0.164641
0.161371
0.158014
0.154581
0.151093
0.147566
0.144038
0.140579
0.137248
0.13406
0.131028
0.128162
0.125452
0.12289
0.120458
0.118123
0.115885
0.113723
0.111668
0.109682
0.107767
0.105878
0.103994
0.102103
0.100228
0.098369
0.0965082
0.0946402
0.0927677
0.0909047
0.0890639
0.0872525
0.0854741
0.0837329
0.0820348
0.0803829
0.078786
0.0772349
0.0757201
0.0742441
0.0727984
0.0713748
0.0699628
0.0685444
0.0671014
0.0656242
0.0640961
0.062498
0.0608244
0.0590697
0.0572271
0.0552903
0.0532526
0.0511069
0.0488428
0.0464429
0.0438848
0.041136
0.0381517
0.0348721
0.0312205
0.0270479
0.0220771
0.0155048
0.00328693
0.00739311
0.00648122
0.00437468
0.00177458
-0.00107336
-0.00406394
-0.00714424
-0.0102844
-0.013466
-0.0166773
-0.0199103
-0.0231594
-0.0264206
-0.029691
-0.0329681
-0.0362504
-0.0395364
-0.0428251
-0.0461157
-0.0494074
-0.0526998
-0.0559925
-0.0592853
-0.062578
-0.0658704
-0.0691625
-0.0724543
-0.0757457
-0.0790369
-0.0823278
-0.0856185
-0.088909
-0.0921994
-0.0954897
-0.0987799
-0.10207
-0.10536
-0.10865
0.218843
0.215355
0.211897
0.208489
0.205148
0.201882
0.198692
0.195574
0.19252
0.189514
0.186529
0.183538
0.180527
0.177487
0.174412
0.171294
0.168118
0.164862
0.161503
0.158033
0.154473
0.150851
0.147185
0.14351
0.139892
0.136397
0.133056
0.12987
0.126842
0.123973
0.121261
0.118674
0.116191
0.113805
0.111506
0.109323
0.107233
0.105242
0.103296
0.101378
0.0994675
0.0975752
0.095698
0.0938281
0.0919542
0.0900825
0.0882249
0.0863955
0.0845997
0.0828389
0.0811169
0.0794393
0.0778103
0.0762326
0.0746971
0.0731996
0.0717385
0.0703092
0.0688973
0.0674962
0.0660899
0.0646658
0.0632086
0.0617031
0.0601316
0.0584898
0.0567704
0.054967
0.0530736
0.0510848
0.0489933
0.0467886
0.0444527
0.0419602
0.0392785
0.0363665
0.0331656
0.0296032
0.0255613
0.0209084
0.015549
0.0097593
0.00791711
0.00591924
0.00356434
0.00092541
-0.00190252
-0.00485467
-0.00789045
-0.0109843
-0.0141197
-0.0172856
-0.0204745
-0.0236813
-0.026902
-0.0301339
-0.0333748
-0.036623
-0.0398771
-0.0431361
-0.0463989
-0.0496649
-0.0529335
-0.0562042
-0.0594765
-0.0627503
-0.0660252
-0.069301
-0.0725777
-0.0758552
-0.0791332
-0.0824118
-0.085691
-0.0889706
-0.0922506
-0.095531
-0.0988117
-0.102093
-0.105374
-0.108655
0.218888
0.215491
0.212121
0.208798
0.205531
0.202327
0.199187
0.196104
0.193067
0.190062
0.187058
0.184032
0.180976
0.177885
0.174755
0.17158
0.168345
0.165022
0.16158
0.158012
0.154335
0.150586
0.146795
0.14299
0.139233
0.135599
0.132127
0.128819
0.125667
0.122667
0.119814
0.117075
0.114434
0.111884
0.109428
0.107094
0.104875
0.102778
0.100755
0.0987904
0.096853
0.0949384
0.0930434
0.0911645
0.0892868
0.087416
0.085563
0.0837417
0.0819587
0.0802143
0.0785092
0.0768459
0.0752314
0.0736681
0.0721489
0.0706677
0.0692226
0.0678093
0.0664079
0.065018
0.0636244
0.0622159
0.0607757
0.0592896
0.0577437
0.0561306
0.0544427
0.0526756
0.050824
0.0488845
0.0468499
0.044707
0.0424387
0.0400217
0.0374265
0.0346158
0.0315399
0.0281444
0.0243673
0.0201986
0.0157491
0.011506
0.00840823
0.00570878
0.00302293
0.000246375
-0.00262809
-0.00558335
-0.00860056
-0.0116645
-0.014764
-0.017891
-0.0210399
-0.0242066
-0.027388
-0.030582
-0.0337866
-0.0370004
-0.0402222
-0.0434509
-0.0466856
-0.0499254
-0.0531697
-0.0564179
-0.0596695
-0.062924
-0.0661811
-0.0694405
-0.0727019
-0.0759652
-0.07923
-0.0824962
-0.0857638
-0.0890324
-0.092302
-0.0955724
-0.0988435
-0.102115
-0.105387
-0.108659
0.218929
0.215614
0.212328
0.209083
0.205886
0.20274
0.199644
0.196587
0.193555
0.190537
0.187508
0.184451
0.181354
0.178213
0.175028
0.171794
0.1685
0.165109
0.161584
0.157909
0.154114
0.150246
0.146348
0.142445
0.138593
0.134851
0.13126
0.127854
0.124612
0.121507
0.118529
0.115651
0.112857
0.110139
0.107513
0.105011
0.102644
0.100417
0.0983045
0.0962767
0.094295
0.0923443
0.0904232
0.0885324
0.0866506
0.0847803
0.0829285
0.0811102
0.0793339
0.0776024
0.0759143
0.0742683
0.072669
0.0711171
0.0696071
0.0681342
0.0667008
0.0653015
0.0639104
0.0625288
0.0611458
0.0597498
0.0583264
0.0568609
0.0553398
0.053756
0.0521006
0.050371
0.0485601
0.046666
0.044687
0.0426108
0.0404187
0.0380871
0.0355908
0.0329005
0.0299839
0.026802
0.0233236
0.0195864
0.0156989
0.0118926
0.00852674
0.00548634
0.00256213
-0.000350818
-0.00329205
-0.00627091
-0.00928548
-0.0123308
-0.0154019
-0.0184947
-0.0216063
-0.0247344
-0.0278772
-0.0310333
-0.0342014
-0.0373805
-0.0405695
-0.0437675
-0.0469735
-0.0501868
-0.0534064
-0.0566319
-0.0598625
-0.0630976
-0.0663368
-0.0695797
-0.0728257
-0.0760747
-0.0793263
-0.0825802
-0.0858361
-0.0890938
-0.092353
-0.0956135
-0.0988751
-0.102137
-0.1054
-0.108664
0.218968
0.21573
0.212519
0.209342
0.206205
0.203108
0.200047
0.197014
0.193988
0.190954
0.187896
0.184805
0.181666
0.178475
0.175229
0.17193
0.168565
0.165091
0.161464
0.157686
0.153776
0.149785
0.145771
0.141772
0.137847
0.134041
0.130378
0.126903
0.123603
0.120433
0.117369
0.114377
0.111448
0.108575
0.105781
0.103113
0.100594
0.0982285
0.096011
0.0939073
0.0918679
0.0898691
0.0879087
0.0859902
0.0840941
0.0822202
0.0803691
0.0785524
0.0767762
0.0750452
0.073359
0.0717146
0.0701197
0.0685745
0.0670716
0.0656054
0.0641774
0.0627849
0.0614042
0.06003
0.0586554
0.0572686
0.0558595
0.0544153
0.0529191
0.0513638
0.0497418
0.048053
0.0462891
0.0444442
0.0425207
0.0405128
0.0384002
0.0361586
0.0337695
0.0312058
0.0284419
0.0254652
0.0222554
0.0188439
0.0153118
0.0117298
0.00833189
0.00514643
0.00208025
-0.000934855
-0.0039367
-0.00694295
-0.00996074
-0.0129925
-0.0160387
-0.0190996
-0.022175
-0.0252647
-0.0283686
-0.0314864
-0.0346174
-0.0377611
-0.0409168
-0.0440836
-0.0472606
-0.0504469
-0.0536418
-0.0568443
-0.0600538
-0.0632695
-0.0664908
-0.0697171
-0.0729479
-0.0761828
-0.0794213
-0.0826629
-0.0859073
-0.0891542
-0.0924032
-0.0956539
-0.0989061
-0.102159
-0.105414
-0.108668
0.219005
0.21584
0.212696
0.20958
0.206495
0.20344
0.200411
0.197396
0.194372
0.191323
0.188239
0.185114
0.181932
0.178687
0.175376
0.172
0.168534
0.164931
0.161169
0.157275
0.153283
0.149213
0.145101
0.140993
0.136967
0.1331
0.129403
0.125895
0.122571
0.119376
0.11627
0.113209
0.110182
0.107185
0.104246
0.101421
0.0987478
0.0962419
0.0939068
0.0917119
0.0895982
0.0875399
0.0855314
0.0835707
0.0816467
0.0797565
0.0778932
0.0760673
0.0742833
0.072544
0.0708519
0.0691994
0.0675967
0.066045
0.0645387
0.063074
0.0616471
0.0602542
0.058879
0.0575099
0.0561417
0.0547642
0.0533683
0.0519429
0.0504735
0.0489481
0.0473625
0.0457173
0.0440058
0.0422198
0.0403581
0.0384196
0.0363883
0.0342372
0.031952
0.0295179
0.0269127
0.0241268
0.0211541
0.0180087
0.0147321
0.0113159
0.00792665
0.00468155
0.00153623
-0.00154712
-0.00459464
-0.00762292
-0.0106424
-0.0136602
-0.0166813
-0.0197094
-0.0227475
-0.0257977
-0.0288615
-0.0319397
-0.0350326
-0.0381401
-0.0412617
-0.0443968
-0.0475444
-0.0507036
-0.0538735
-0.0570531
-0.0602416
-0.063438
-0.0666415
-0.0698516
-0.0730673
-0.0762883
-0.0795139
-0.0827435
-0.0859767
-0.089213
-0.092452
-0.0956933
-0.0989363
-0.102181
-0.105426
-0.108672
0.21904
0.215945
0.212867
0.20981
0.206773
0.203754
0.200746
0.197736
0.194712
0.191653
0.188548
0.185387
0.182159
0.178856
0.175474
0.17201
0.168417
0.164652
0.160726
0.156688
0.152593
0.148458
0.144301
0.140162
0.136093
0.132145
0.128365
0.124805
0.121465
0.11828
0.11518
0.112103
0.109025
0.105951
0.102901
0.0999365
0.0971169
0.0944723
0.0920108
0.0897093
0.0875046
0.0853712
0.0833005
0.0812833
0.0793117
0.0773854
0.0754952
0.073647
0.0718434
0.070084
0.0683737
0.066705
0.0650863
0.0635196
0.0620007
0.0605288
0.0590963
0.0576987
0.0563228
0.0549546
0.0535891
0.0522177
0.0508341
0.0494264
0.047986
0.0464962
0.0449553
0.0433631
0.0417127
0.0399952
0.038207
0.0363465
0.0344013
0.0323471
0.0301718
0.0278649
0.0254147
0.0227962
0.0200066
0.0170781
0.0140128
0.0107317
0.00737217
0.00410768
0.000918075
-0.00220998
-0.00528876
-0.00833016
-0.0113454
-0.0143444
-0.0173362
-0.020328
-0.0233256
-0.0263335
-0.0293548
-0.0323915
-0.0354448
-0.0385149
-0.0416017
-0.0447045
-0.0478225
-0.0509545
-0.0540995
-0.0572564
-0.060424
-0.0636014
-0.0667876
-0.0699816
-0.0731827
-0.0763901
-0.0796032
-0.0828212
-0.0860435
-0.0892697
-0.092499
-0.0957311
-0.0989654
-0.102201
-0.105439
-0.108676
0.219074
0.216044
0.213026
0.21002
0.207027
0.204041
0.201054
0.198051
0.195021
0.191951
0.188823
0.185625
0.182346
0.178976
0.175508
0.171927
0.168183
0.164242
0.160144
0.155965
0.151761
0.147538
0.143319
0.139138
0.13505
0.131081
0.12725
0.123629
0.120259
0.117093
0.114038
0.110994
0.107915
0.104816
0.101715
0.0986568
0.0957118
0.0929327
0.0903406
0.0879215
0.0856165
0.0833973
0.0812498
0.0791621
0.0771253
0.07514
0.0731997
0.0713068
0.0694612
0.0676608
0.0659127
0.0642128
0.0625673
0.0609789
0.0594417
0.0579556
0.0565102
0.0551015
0.053714
0.0523389
0.0509705
0.0496018
0.0482299
0.0468451
0.0454409
0.0439996
0.0425204
0.0409991
0.0394252
0.0377888
0.0360835
0.0343075
0.0324485
0.0304893
0.0284201
0.026223
0.0239068
0.021451
0.0188382
0.0160696
0.0131507
0.0100036
0.00671271
0.00344674
0.00022534
-0.00293644
-0.00603615
-0.00908088
-0.0120826
-0.0150546
-0.0180097
-0.0209587
-0.0239105
-0.0268717
-0.029847
-0.0328396
-0.0358513
-0.0388827
-0.0419339
-0.045004
-0.0480921
-0.051197
-0.0543174
-0.0574519
-0.0605992
-0.063758
-0.0669272
-0.0701058
-0.0732928
-0.0764872
-0.0796882
-0.0828951
-0.0861071
-0.0893235
-0.0925437
-0.095767
-0.0989929
-0.102221
-0.10545
-0.10868
0.219104
0.216133
0.213168
0.21021
0.207257
0.204303
0.201337
0.198345
0.195314
0.192227
0.18907
0.185831
0.182497
0.179052
0.175482
0.171762
0.167848
0.163725
0.159468
0.155166
0.150867
0.146574
0.142321
0.138145
0.134075
0.1301
0.126221
0.122517
0.119064
0.115863
0.112848
0.109879
0.106839
0.103744
0.100638
0.0975496
0.0945292
0.091643
0.0889273
0.0863824
0.0839615
0.0816368
0.0793925
0.0772151
0.0750929
0.0730235
0.0710068
0.0690434
0.0671327
0.0652682
0.0634627
0.0617143
0.0600302
0.0584132
0.0568544
0.0553482
0.0538837
0.0524553
0.0510416
0.0496439
0.0482606
0.0468908
0.0455376
0.0441917
0.04285
0.0414829
0.0400927
0.038667
0.0371872
0.0356428
0.0340204
0.0323264
0.0305465
0.0286731
0.0267083
0.024621
0.0224333
0.0201151
0.0176648
0.0150597
0.0122823
0.00924688
0.0060117
0.00272271
-0.00054237
-0.00373909
-0.00685323
-0.00989042
-0.0128662
-0.015799
-0.0187065
-0.0216037
-0.0245022
-0.0274108
-0.0303357
-0.033281
-0.0362488
-0.0392402
-0.0422548
-0.045292
-0.0483504
-0.0514285
-0.0545247
-0.0576374
-0.060765
-0.063906
-0.067059
-0.0702229
-0.0733964
-0.0765784
-0.0797681
-0.0829645
-0.0861667
-0.0893739
-0.0925855
-0.0958007
-0.0990188
-0.102239
-0.105461
-0.108684
0.219132
0.216217
0.213305
0.210395
0.20748
0.204554
0.201604
0.198617
0.195579
0.192475
0.189293
0.186015
0.182624
0.1791
0.175423
0.17156
0.167476
0.16318
0.158773
0.154382
0.150058
0.145752
0.141475
0.137296
0.133263
0.129329
0.125437
0.12165
0.118091
0.114798
0.111758
0.108857
0.105906
0.102815
0.0997198
0.0966455
0.0936097
0.0906681
0.087852
0.085189
0.0826452
0.0801979
0.0778294
0.075531
0.073293
0.0711097
0.0689814
0.0669107
0.0649005
0.0629428
0.0610568
0.0592406
0.0575095
0.0558586
0.0542764
0.052742
0.0512445
0.0497809
0.0483203
0.0468822
0.0454738
0.0441069
0.0428013
0.0415289
0.0403087
0.0390457
0.0377753
0.0364615
0.035074
0.0336147
0.0320381
0.0304056
0.0286833
0.0268821
0.0250242
0.0230534
0.0209936
0.0188111
0.0165155
0.014072
0.0114413
0.00852306
0.00537427
0.00195099
-0.0014003
-0.00463971
-0.00776099
-0.0107757
-0.0137078
-0.0165845
-0.0194299
-0.0222633
-0.0250991
-0.027948
-0.0308173
-0.0337115
-0.0366332
-0.0395831
-0.0425608
-0.045565
-0.048594
-0.051646
-0.0547188
-0.0578106
-0.0609194
-0.0640435
-0.0671813
-0.0703313