/*--------------------------------*- C++ -*----------------------------------*\
  =========                 |
  \\      /  F ield         | OpenFOAM: The Open Source CFD Toolbox
   \\    /   O peration     | Website:  https://openfoam.org
    \\  /    A nd           | Version:  6
     \\/     M anipulation  |
\*---------------------------------------------------------------------------*/
FoamFile
{
    version     2.0;
    format      ascii;
    class       volScalarField;
    location    "4050";
    object      Su;
}
// * * * * * * * * * * * * * * * * * * * * * * * * * * * * * * * * * * * * * //

dimensions      [0 0 -1 0 0 0 0];

internalField   nonuniform List<scalar> 
4800
(
0.218284
0.213675
0.209077
0.204502
0.199965
0.195487
0.191095
0.186814
0.182665
0.178668
0.174838
0.171178
0.167681
0.164334
0.161122
0.158036
0.155062
0.152191
0.149415
0.146728
0.144122
0.141592
0.13913
0.136726
0.134374
0.132065
0.12979
0.127538
0.125296
0.123051
0.120791
0.118503
0.116179
0.113812
0.111401
0.108946
0.10645
0.103917
0.101357
0.0987796
0.0961981
0.0936261
0.0910779
0.0885667
0.0861042
0.0837007
0.0813646
0.0790998
0.0769062
0.0747832
0.0727295
0.0707409
0.06881
0.0669285
0.0650877
0.0632824
0.0615073
0.0597562
0.058023
0.0563002
0.0545802
0.0528581
0.0511326
0.0494101
0.0476843
0.0459363
0.0441544
0.0423278
0.0404435
0.0384864
0.0364412
0.034294
0.0320305
0.0296348
0.0270948
0.0244032
0.0215584
0.0185669
0.0154443
0.012217
0.00892594
0.0056291
0.00236368
-0.000873884
-0.00408573
-0.00727375
-0.0104396
-0.0135849
-0.0167109
-0.019819
-0.0229105
-0.0259864
-0.0290477
-0.0320956
-0.0351308
-0.0381543
-0.0411669
-0.0441693
-0.0471624
-0.0501468
-0.0531233
-0.0560924
-0.0590548
-0.0620111
-0.0649618
-0.0679074
-0.0708484
-0.0737853
-0.0767185
-0.0796485
-0.0825754
-0.0854998
-0.088422
-0.0913422
-0.0942608
-0.097178
-0.100094
-0.103009
-0.105924
-0.108838
0.218277
0.213652
0.209038
0.204446
0.199893
0.195403
0.191003
0.186724
0.182589
0.178612
0.174798
0.17115
0.16766
0.164319
0.161117
0.158041
0.155081
0.152223
0.14946
0.146784
0.144189
0.141668
0.139212
0.136812
0.13446
0.132151
0.129873
0.127616
0.125369
0.12312
0.120856
0.118564
0.116236
0.113865
0.111449
0.108988
0.106485
0.103945
0.101378
0.0987945
0.0962094
0.0936357
0.0910873
0.0885774
0.0861175
0.083717
0.0813823
0.0791178
0.0769248
0.0748016
0.072746
0.0707533
0.0688158
0.0669267
0.0650802
0.0632695
0.0614875
0.0597284
0.0579854
0.056253
0.0545264
0.0528014
0.0510742
0.0493395
0.0475961
0.0458362
0.0440453
0.0422115
0.0403236
0.0383662
0.0363236
0.0341788
0.031916
0.0295219
0.0269834
0.0242929
0.0214514
0.0184679
0.0153581
0.012143
0.00886161
0.00557173
0.00231195
-0.000920987
-0.00412892
-0.00731355
-0.0104764
-0.013619
-0.0167426
-0.0198486
-0.022938
-0.026012
-0.0290716
-0.0321179
-0.0351516
-0.0381737
-0.0411849
-0.0441861
-0.0471781
-0.0501614
-0.0531367
-0.0561049
-0.0590663
-0.0620217
-0.0649715
-0.0679163
-0.0708565
-0.0737926
-0.0767251
-0.0796543
-0.0825807
-0.0855044
-0.088426
-0.0913456
-0.0942636
-0.0971803
-0.100096
-0.103011
-0.105925
-0.108839
0.218264
0.213615
0.208975
0.204359
0.199788
0.19529
0.190893
0.186625
0.182507
0.178549
0.174753
0.171118
0.167639
0.164312
0.161128
0.158075
0.15514
0.152309
0.149571
0.146919
0.144346
0.141841
0.139397
0.137004
0.134655
0.132345
0.130064
0.127801
0.125547
0.123289
0.121014
0.118714
0.116376
0.113994
0.111565
0.10909
0.106573
0.10402
0.101441
0.0988476
0.0962546
0.0936772
0.091129
0.088622
0.0861664
0.0837698
0.0814371
0.079172
0.0769765
0.0748482
0.072784
0.0707803
0.06883
0.0669277
0.0650694
0.0632465
0.0614512
0.0596767
0.0579162
0.0561646
0.0544191
0.0526768
0.0509328
0.0491776
0.0474093
0.0456284
0.0438235
0.0419801
0.040086
0.038127
0.0360847
0.0339416
0.0316812
0.0292919
0.0267616
0.0240811
0.0212515
0.0182806
0.0151871
0.0119942
0.00873395
0.00545767
0.00220891
-0.00101497
-0.00421523
-0.00739319
-0.0105501
-0.0136874
-0.0168062
-0.0199077
-0.0229931
-0.0260633
-0.0291195
-0.0321625
-0.0351932
-0.0382125
-0.0412211
-0.0442198
-0.0472093
-0.0501904
-0.0531637
-0.0561297
-0.0590892
-0.0620428
-0.0649908
-0.0679339
-0.0708726
-0.0738072
-0.0767383
-0.0796661
-0.0825911
-0.0855136
-0.088434
-0.0913525
-0.0942694
-0.0971849
-0.100099
-0.103013
-0.105926
-0.108839
0.218251
0.213573
0.208904
0.204263
0.199678
0.195181
0.190795
0.186544
0.182446
0.178509
0.174732
0.171115
0.167656
0.164353
0.161197
0.158177
0.155279
0.152485
0.149782
0.147162
0.144615
0.142131
0.139701
0.137317
0.134976
0.132668
0.130385
0.128117
0.125855
0.123587
0.121301
0.118985
0.116629
0.114226
0.111775
0.109276
0.106735
0.104159
0.101562
0.0989558
0.096355
0.0937745
0.0912266
0.0887215
0.0862671
0.0838696
0.0815337
0.0792628
0.0770584
0.0749179
0.072838
0.0708155
0.0688457
0.0669243
0.0650459
0.063202
0.0613852
0.0595881
0.0578037
0.0560264
0.054253
0.0524815
0.0507073
0.0489233
0.0471266
0.0453192
0.0434937
0.041635
0.0397301
0.0377645
0.03572
0.0335814
0.0313275
0.0289481
0.0264346
0.0237742
0.0209665
0.0180176
0.0149438
0.011774
0.00854271
0.00528866
0.00205582
-0.0011551
-0.00434425
-0.00751244
-0.0106607
-0.01379
-0.0169016
-0.0199965
-0.0230758
-0.0261404
-0.0291914
-0.0322295
-0.0352557
-0.0382707
-0.0412753
-0.0442703
-0.0472562
-0.0502339
-0.0532039
-0.056167
-0.0591236
-0.0620743
-0.0650198
-0.0679604
-0.0708967
-0.073829
-0.0767579
-0.0796837
-0.0826067
-0.0855274
-0.0884459
-0.0913627
-0.0942779
-0.0971919
-0.100105
-0.103017
-0.105929
-0.10884
0.218238
0.213537
0.208853
0.204203
0.19961
0.195114
0.190743
0.186512
0.182435
0.178519
0.174764
0.171173
0.167745
0.164478
0.161363
0.158387
0.155533
0.152783
0.150118
0.147534
0.145018
0.142556
0.140142
0.137771
0.135439
0.133136
0.130853
0.128582
0.126314
0.124037
0.121736
0.119399
0.117016
0.114583
0.112098
0.109564
0.106987
0.104381
0.10176
0.099137
0.0965268
0.0939408
0.091389
0.0888797
0.0864196
0.0840145
0.081669
0.0793861
0.0771656
0.0750057
0.0729035
0.0708546
0.0688578
0.0669084
0.0649991
0.0631234
0.0612743
0.0594445
0.0576274
0.0558185
0.0540119
0.0522024
0.050388
0.0485668
0.0467372
0.0448992
0.0430489
0.0411712
0.0392522
0.0372783
0.0352329
0.0331023
0.0308627
0.0284999
0.0260085
0.0233777
0.0206045
0.0176906
0.0146521
0.0115135
0.00830644
0.00506983
0.0018546
-0.00134045
-0.0045155
-0.00767107
-0.0108079
-0.0139268
-0.0170289
-0.020115
-0.0231861
-0.0262433
-0.0292872
-0.0323189
-0.035339
-0.0383483
-0.0413475
-0.0443374
-0.0473186
-0.0502917
-0.0532575
-0.0562164
-0.0591691
-0.0621162
-0.0650582
-0.0679954
-0.0709286
-0.0738579
-0.0767839
-0.079707
-0.0826274
-0.0855456
-0.0884617
-0.0913762
-0.0942892
-0.097201
-0.100112
-0.103022
-0.105932
-0.108841
0.218226
0.213502
0.208804
0.204162
0.199594
0.195117
0.190762
0.186552
0.182498
0.178607
0.174882
0.171327
0.167942
0.164725
0.161663
0.158738
0.155932
0.153226
0.150602
0.148056
0.145567
0.143129
0.140734
0.138379
0.136058
0.133763
0.131482
0.12921
0.126938
0.12465
0.12233
0.119964
0.117548
0.115077
0.112549
0.10997
0.107352
0.104709
0.102057
0.0994082
0.0967785
0.0941771
0.0916129
0.0890925
0.0866208
0.0842023
0.0818412
0.0795398
0.0772964
0.0751094
0.0729768
0.0708946
0.0688604
0.06687
0.0649189
0.0630013
0.0611096
0.0592374
0.0573783
0.0555254
0.0536733
0.051819
0.0499617
0.0481002
0.0462331
0.044359
0.0424784
0.0405791
0.0386477
0.0366686
0.0346251
0.0325056
0.0302861
0.0279459
0.0254812
0.0228818
0.0201444
0.0172719
0.014278
0.0111818
0.00801112
0.00479954
0.0016058
-0.00157033
-0.00472849
-0.0078688
-0.0109917
-0.0140978
-0.017188
-0.0202632
-0.0233242
-0.0263719
-0.0294071
-0.0324305
-0.035443
-0.0384451
-0.0414376
-0.0444211
-0.0473963
-0.0503637
-0.0533241
-0.0562779
-0.0592258
-0.0621682
-0.0651058
-0.068039
-0.0709681
-0.0738937
-0.0768162
-0.0797358
-0.082653
-0.0855681
-0.0884813
-0.0913929
-0.0943032
-0.0972123
-0.100121
-0.103028
-0.105935
-0.108842
0.218231
0.213513
0.208814
0.204169
0.199619
0.19518
0.190863
0.186684
0.182661
0.178805
0.175123
0.171619
0.168291
0.165133
0.162128
0.159254
0.156494
0.153827
0.151244
0.148732
0.146273
0.143859
0.141488
0.139155
0.13685
0.134564
0.132287
0.130016
0.127737
0.125431
0.123081
0.120681
0.118225
0.115707
0.113125
0.110491
0.10782
0.105131
0.102439
0.0997586
0.0971023
0.0944781
0.0918938
0.0893551
0.0868658
0.0844289
0.0820474
0.0797217
0.0774499
0.0752304
0.0730606
0.0709371
0.0688552
0.066812
0.0648056
0.062832
0.0608851
0.0589582
0.0570452
0.0551403
0.0532363
0.0513292
0.0494201
0.0475088
0.0455971
0.0436855
0.0417736
0.0398518
0.0379094
0.0359283
0.0338907
0.031786
0.0295913
0.0272833
0.0248563
0.0223008
0.019613
0.0167913
0.0138416
0.0107902
0.00766195
0.00448004
0.00131092
-0.00184371
-0.00498259
-0.0081053
-0.0112119
-0.014303
-0.0173792
-0.0204412
-0.02349
-0.0265263
-0.0295509
-0.0325645
-0.0355677
-0.0385611
-0.0415454
-0.0445212
-0.0474891
-0.0504497
-0.0534035
-0.0563512
-0.0592933
-0.0622302
-0.0651625
-0.0680907
-0.0710151
-0.0739363
-0.0768545
-0.0797701
-0.0826834
-0.0855948
-0.0885045
-0.0914127
-0.0943197
-0.0972257
-0.100131
-0.103036
-0.10594
-0.108844
0.218245
0.213557
0.208889
0.204273
0.199743
0.195332
0.191055
0.186925
0.182951
0.179146
0.175521
0.17208
0.168817
0.165721
0.16277
0.159945
0.157226
0.154599
0.152054
0.149575
0.147146
0.144762
0.142421
0.140114
0.137827
0.135553
0.13328
0.131006
0.128708
0.126369
0.123978
0.121534
0.119029
0.116455
0.11381
0.111112
0.108381
0.105638
0.1029
0.10018
0.097489
0.0948351
0.0922243
0.0896611
0.0871487
0.0846889
0.0822829
0.0799295
0.0776259
0.0753689
0.0731542
0.0709794
0.0688407
0.0667352
0.0646617
0.062618
0.0606008
0.0586056
0.0566269
0.0546583
0.0526932
0.0507266
0.0487597
0.0467938
0.0448323
0.0428789
0.040934
0.0389901
0.0370378
0.0350588
0.0330329
0.030948
0.0287842
0.026516
0.0241353
0.0216345
0.019005
0.0162503
0.0133667
0.0103635
0.00727036
0.00411564
0.000972607
-0.00215884
-0.00527679
-0.00838007
-0.0114684
-0.0145423
-0.0176022
-0.0206491
-0.0236837
-0.0267066
-0.0297188
-0.0327207
-0.0357129
-0.0386961
-0.0416708
-0.0446375
-0.0475969
-0.0505494
-0.0534956
-0.0564361
-0.0593713
-0.0623018
-0.065228
-0.0681504
-0.0710693
-0.0739853
-0.0768986
-0.0798095
-0.0827184
-0.0856255
-0.0885311
-0.0914355
-0.0943387
-0.0972411
-0.100143
-0.103044
-0.105945
-0.108845
0.218255
0.2136
0.208987
0.204433
0.19996
0.195598
0.19137
0.187294
0.183387
0.179653
0.176102
0.172734
0.169539
0.166505
0.163608
0.160832
0.158155
0.155566
0.153055
0.150606
0.148209
0.145859
0.143547
0.141264
0.138993
0.136726
0.134452
0.132164
0.129832
0.127446
0.125005
0.122504
0.119935
0.117293
0.114575
0.111804
0.109004
0.106201
0.103413
0.100651
0.0979243
0.0952371
0.0925952
0.0900029
0.0874627
0.0849755
0.0825412
0.0801563
0.0778161
0.0755155
0.0732506
0.0710163
0.0688097
0.0666296
0.0644758
0.06235
0.0602509
0.0581756
0.0561197
0.0540779
0.0520428
0.050008
0.0479746
0.0459473
0.043932
0.0419348
0.0399565
0.0379913
0.0360299
0.034054
0.0320448
0.029988
0.0278636
0.0256439
0.0233183
0.0208767
0.0183057
0.0156059
0.0127828
0.00985026
0.00682237
0.00370825
0.000594959
-0.00251262
-0.00560933
-0.00869231
-0.0117609
-0.0148156
-0.0178573
-0.0208869
-0.0239051
-0.0269128
-0.0299106
-0.032899
-0.0358786
-0.03885
-0.0418136
-0.0447698
-0.0477193
-0.0506625
-0.0536
-0.0565322
-0.0594596
-0.0623827
-0.0653019
-0.0682177
-0.0711304
-0.0740405
-0.0769482
-0.0798538
-0.0827577
-0.08566
-0.0885611
-0.091461
-0.0943601
-0.0972584
-0.100156
-0.103053
-0.10595
-0.108847
0.218281
0.213676
0.20912
0.204637
0.200243
0.19596
0.191812
0.187818
0.183991
0.180342
0.176876
0.173588
0.170467
0.167498
0.164658
0.161931
0.159298
0.156747
0.154267
0.151846
0.149476
0.147154
0.144864
0.142593
0.140324
0.138052
0.135761
0.133438
0.131053
0.128607
0.126102
0.123529
0.120885
0.118169
0.115375
0.11253
0.109664
0.106803
0.103963
0.101155
0.0983889
0.0956687
0.092996
0.0903722
0.0878003
0.0852815
0.0828136
0.0803905
0.0780066
0.0756559
0.0733321
0.0710297
0.0687477
0.0664858
0.0642444
0.0620269
0.0598351
0.0576681
0.0555238
0.0533983
0.0512844
0.049174
0.0470677
0.0449713
0.0428953
0.04085
0.0388371
0.036852
0.034885
0.0329179
0.03093
0.0289064
0.0268286
0.0246645
0.0224033
0.020032
0.0175374
0.0149159
0.0121724
0.00931488
0.00634668
0.00327143
0.000187223
-0.00289926
-0.00597724
-0.00904081
-0.012089
-0.015123
-0.0181445
-0.0211546
-0.0241545
-0.0271448
-0.0301262
-0.0330994
-0.0360646
-0.0390225
-0.0419734
-0.0449178
-0.0478561
-0.0507888
-0.0537163
-0.0566391
-0.0595577
-0.0624725
-0.0653839
-0.0682923
-0.0711981
-0.0741016
-0.077003
-0.0799028
-0.0828011
-0.0856981
-0.0885941
-0.0914892
-0.0943836
-0.0972774
-0.100171
-0.103064
-0.105957
-0.108849
0.218327
0.213811
0.209333
0.204927
0.200627
0.196446
0.192397
0.1885
0.18477
0.181215
0.177841
0.174639
0.171596
0.168696
0.165918
0.163244
0.160654
0.158141
0.155692
0.153296
0.150947
0.148639
0.146353
0.144076
0.141793
0.139496
0.137167
0.134789
0.132339
0.129823
0.127243
0.124587
0.121855
0.11905
0.11617
0.113256
0.11033
0.107413
0.104524
0.101675
0.0988719
0.0961163
0.0934101
0.090755
0.0881509
0.0855972
0.0830898
0.0806212
0.078185
0.0757747
0.073384
0.0710085
0.0686458
0.0662973
0.0639638
0.0616479
0.0593547
0.0570863
0.0548434
0.0526247
0.0504238
0.048231
0.0460463
0.0438767
0.0417347
0.0396357
0.0375848
0.0355787
0.0336074
0.0316534
0.0296934
0.0277106
0.0256835
0.0235807
0.0213913
0.0190996
0.016693
0.0141646
0.0115086
0.00873298
0.00583996
0.00281544
-0.000239824
-0.00331179
-0.00637718
-0.00942433
-0.0124524
-0.0154645
-0.0184638
-0.0214524
-0.0244317
-0.0274026
-0.0303657
-0.0333216
-0.0362708
-0.0392135
-0.0421501
-0.0450811
-0.0480068
-0.0509277
-0.0538441
-0.0567565
-0.0596652
-0.0625708
-0.0654735
-0.0683738
-0.0712719
-0.0741681
-0.0770628
-0.0799561
-0.0828483
-0.0857395
-0.08863
-0.0915198
-0.0944091
-0.0972981
-0.100187
-0.103075
-0.105963
-0.108851
0.218392
0.214005
0.209653
0.205362
0.201162
0.197079
0.193133
0.18934
0.185712
0.18226
0.178984
0.175871
0.172909
0.170081
0.167367
0.164749
0.162206
0.159732
0.157313
0.154937
0.152599
0.15029
0.147993
0.145687
0.143365
0.141015
0.138616
0.136148
0.13361
0.131012
0.12835
0.125607
0.122785
0.119889
0.116928
0.113947
0.110966
0.108003
0.105073
0.102186
0.0993449
0.0965551
0.0938187
0.0911343
0.0884986
0.0859076
0.0833555
0.0808344
0.0783381
0.0758618
0.0733995
0.0709457
0.0684998
0.0660619
0.0636323
0.0612143
0.0588145
0.0564374
0.0540874
0.0517667
0.0494712
0.04719
0.0449222
0.0426758
0.0404655
0.0383103
0.0362194
0.0341927
0.0322188
0.0302792
0.0283479
0.0264083
0.0244335
0.022396
0.0202834
0.0180773
0.0157626
0.0133325
0.0107798
0.00810948
0.00531017
0.00234195
-0.00068294
-0.00374842
-0.00680891
-0.00984328
-0.0128516
-0.0158404
-0.0188155
-0.0217803
-0.0247368
-0.0276861
-0.0306289
-0.0335656
-0.0364967
-0.0394225
-0.0423432
-0.0452593
-0.048171
-0.0510787
-0.0539828
-0.0568837
-0.0597817
-0.0626771
-0.0655703
-0.0684616
-0.0713514
-0.0742397
-0.077127
-0.0800133
-0.0828989
-0.0857839
-0.0886684
-0.0915526
-0.0944365
-0.0973202
-0.100204
-0.103087
-0.10597
-0.108854
0.218463
0.214215
0.209999
0.20584
0.201768
0.197807
0.193982
0.190309
0.186799
0.183456
0.180276
0.177253
0.174374
0.171619
0.168971
0.166409
0.163913
0.161473
0.159079
0.156719
0.154384
0.152062
0.149732
0.147375
0.14499
0.142562
0.140071
0.137504
0.134867
0.132168
0.129401
0.126554
0.123633
0.120648
0.11761
0.114569
0.111543
0.108545
0.105584
0.102668
0.0998016
0.0969853
0.0942194
0.0915024
0.0888308
0.0861986
0.0835978
0.0810217
0.0784643
0.0759186
0.0733797
0.0708442
0.0683099
0.0657758
0.0632437
0.0607184
0.0582094
0.0557242
0.0532671
0.0508412
0.0484454
0.0460704
0.0437154
0.0413892
0.039109
0.0368971
0.0347661
0.0327177
0.0307398
0.0288144
0.0269143
0.0250204
0.0230992
0.0211282
0.019093
0.0169747
0.0147554
0.0124283
0.00998395
0.00742542
0.00472684
0.00179251
-0.00117298
-0.00422652
-0.00728184
-0.0103022
-0.0132885
-0.0162515
-0.0191998
-0.0221384
-0.0250698
-0.0279952
-0.0309154
-0.033831
-0.0367421
-0.0396491
-0.0425523
-0.0454519
-0.0483482
-0.0512415
-0.054132
-0.0570202
-0.0599064
-0.0627908
-0.0656737
-0.0685553
-0.071436
-0.0743159
-0.0771952
-0.0800741
-0.0829526
-0.0858309
-0.0887091
-0.0915873
-0.0944654
-0.0973435
-0.100222
-0.1031
-0.105978
-0.108856
0.218535
0.214431
0.21036
0.206349
0.202424
0.198608
0.194921
0.191378
0.18799
0.184761
0.181686
0.178756
0.175958
0.173275
0.170687
0.168177
0.165722
0.16331
0.160934
0.158579
0.156235
0.153885
0.151506
0.149089
0.146629
0.144108
0.14151
0.138829
0.136078
0.133261
0.130374
0.12741
0.124381
0.121303
0.118195
0.115106
0.112047
0.109024
0.106041
0.103103
0.100213
0.0973747
0.0945863
0.0918435
0.0891399
0.086468
0.08382
0.081189
0.0785693
0.0759539
0.0733374
0.0707174
0.0680936
0.065465
0.0628313
0.0601981
0.0575768
0.0549783
0.0524095
0.049875
0.0473748
0.0449021
0.0424581
0.0400514
0.0377
0.0354296
0.0332586
0.0311904
0.0292102
0.0272969
0.0254253
0.0235758
0.0217099
0.0198051
0.0178444
0.01581
0.0136813
0.0114521
0.00911441
0.00666436
0.0040362
0.00089718
-0.00178551
-0.00478604
-0.00781587
-0.0108096
-0.0137663
-0.0166987
-0.0196169
-0.0225266
-0.0254303
-0.0283296
-0.0312251
-0.0341173
-0.0370065
-0.039893
-0.0427768
-0.0456583
-0.0485376
-0.0514151
-0.054291
-0.0571654
-0.0600387
-0.0629112
-0.065783
-0.0686543
-0.0715253
-0.0743961
-0.077267
-0.0801379
-0.083009
-0.0858803
-0.0887518
-0.0916236
-0.0944957
-0.097368
-0.100241
-0.103113
-0.105986
-0.108859
0.218617
0.214678
0.21077
0.20692
0.20315
0.199482
0.195933
0.192521
0.189255
0.186141
0.183169
0.180333
0.177616
0.175
0.172466
0.169997
0.167574
0.165181
0.162812
0.160453
0.158088
0.155696
0.153259
0.15077
0.148219
0.145591
0.142872
0.140064
0.137183
0.134238
0.131222
0.128137
0.124999
0.121834
0.118671
0.115548
0.11247
0.109434
0.106438
0.103489
0.100588
0.0977352
0.0949307
0.0921677
0.0894362
0.0867272
0.0840341
0.0813509
0.0786721
0.0759904
0.0733005
0.0706003
0.0678877
0.0651616
0.0624261
0.0596885
0.0569582
0.0542467
0.0515623
0.0489135
0.0463043
0.0437303
0.041196
0.0387127
0.0362977
0.0339723
0.0317569
0.02966
0.0276712
0.0257659
0.0239161
0.022101
0.0202834
0.0184376
0.0165437
0.0145862
0.0125435
0.0104052
0.00815833
0.00579949
0.00328238
0.000467846
-0.00245258
-0.00543936
-0.00842209
-0.01137
-0.0142862
-0.0171821
-0.0200665
-0.0229444
-0.0258181
-0.0286889
-0.0315575
-0.0344242
-0.0372894
-0.0401533
-0.043016
-0.0458778
-0.0487387
-0.051599
-0.0544588
-0.0573184
-0.060178
-0.0630376
-0.0658975
-0.0687578
-0.0716185
-0.0744798
-0.0773418
-0.0802043
-0.0830676
-0.0859315
-0.0887961
-0.0916613
-0.0945271
-0.0973933
-0.10026
-0.103127
-0.105994
-0.108862
0.218704
0.214939
0.211201
0.207516
0.203905
0.200391
0.196988
0.19371
0.190567
0.187564
0.184692
0.181943
0.179298
0.176737
0.174243
0.171802
0.169398
0.167012
0.164639
0.162263
0.159859
0.157407
0.154896
0.152324
0.149675
0.146932
0.144086
0.141143
0.138127
0.135048
0.131906
0.128709
0.12548
0.122248
0.119047
0.115903
0.112814
0.109775
0.106781
0.103832
0.10093
0.098076
0.0952648
0.0924864
0.089733
0.0869971
0.0842713
0.0815458
0.0788134
0.0760703
0.0733139
0.0705398
0.0677436
0.0649232
0.0620831
0.0592356
0.0563954
0.0535748
0.0507819
0.0480231
0.0453044
0.0426297
0.0400062
0.0374449
0.0349634
0.0325826
0.0303234
0.0281939
0.0261875
0.0242805
0.0224412
0.0206463
0.0188649
0.0170672
0.0152305
0.013337
0.0113651
0.0093013
0.00712313
0.00482033
0.00236026
-0.000363245
-0.00325618
-0.00617544
-0.00908723
-0.0119761
-0.0148445
-0.0176997
-0.0205474
-0.023391
-0.0262324
-0.0290724
-0.0319118
-0.0347509
-0.0375901
-0.0404294
-0.0432692
-0.0461094
-0.0489503
-0.0517921
-0.0546347
-0.0574784
-0.0603232
-0.0631693
-0.0660166
-0.0688652
-0.0717151
-0.0745664
-0.077419
-0.0802728
-0.083128
-0.0859843
-0.0888416
-0.0917
-0.0945593
-0.0974193
-0.10028
-0.103141
-0.106003
-0.108865
0.218791
0.215198
0.211627
0.208102
0.204649
0.201285
0.198026
0.194884
0.191861
0.188963
0.186182
0.183509
0.180918
0.178394
0.175924
0.173498
0.171098
0.168708
0.166315
0.163899
0.161439
0.158921
0.156336
0.153675
0.150921
0.148059
0.145083
0.142007
0.138856
0.135649
0.132393
0.129102
0.125805
0.122532
0.119313
0.116163
0.113075
0.110042
0.107059
0.104125
0.101239
0.0983982
0.0955944
0.0928172
0.090061
0.0873166
0.0845731
0.0818206
0.0790497
0.0762565
0.0734414
0.0705999
0.0677269
0.0648229
0.0618929
0.0589449
0.0559943
0.0530592
0.0501546
0.047291
0.0444726
0.0417041
0.0389959
0.0363609
0.0338148
0.0313755
0.029066
0.026894
0.0248541
0.0229259
0.0210779
0.0192838
0.0175186
0.0157521
0.0139555
0.0121087
0.0101875
0.00817665
0.00604887
0.00378726
0.00137106
-0.0012841
-0.00410734
-0.00694679
-0.00978581
-0.0126152
-0.0154349
-0.0182481
-0.0210576
-0.0238652
-0.0266722
-0.0294794
-0.0322874
-0.0350967
-0.0379076
-0.0407203
-0.0435352
-0.0463522
-0.0491716
-0.0519934
-0.0548176
-0.0576443
-0.0604735
-0.0633051
-0.0661392
-0.0689755
-0.0718142
-0.074655
-0.0774979
-0.0803428
-0.0831896
-0.086038
-0.088888
-0.0917394
-0.094592
-0.0974457
-0.1003
-0.103156
-0.106011
-0.108867
0.218871
0.215437
0.212024
0.208652
0.205346
0.202123
0.198995
0.195972
0.193059
0.190255
0.18755
0.184927
0.182369
0.179864
0.177404
0.174977
0.172564
0.170149
0.167714
0.16524
0.16271
0.160116
0.157449
0.154699
0.151844
0.14887
0.145777
0.142578
0.139309
0.135998
0.132653
0.129295
0.125958
0.122669
0.119451
0.11631
0.113239
0.110232
0.107281
0.104383
0.101533
0.0987252
0.0959496
0.0931969
0.0904596
0.0877271
0.0849895
0.0822345
0.0794481
0.0766252
0.073766
0.070869
0.0679305
0.0649504
0.061936
0.0588981
0.0558515
0.052816
0.0498082
0.0468431
0.0439349
0.041091
0.0383162
0.0356162
0.0330061
0.0305054
0.028135
0.0259022
0.0238045
0.021826
0.0199399
0.0181185
0.0163385
0.014573
0.0127887
0.0109637
0.00907182
0.00709655
0.00500396
0.0027721
0.000390202
-0.00220049
-0.00495211
-0.00772163
-0.0104988
-0.013276
-0.0160509
-0.0188235
-0.0215947
-0.0243654
-0.0271365
-0.0299088
-0.0326832
-0.0354604
-0.0382408
-0.0410249
-0.0438129
-0.046605
-0.0494012
-0.0522017
-0.0550063
-0.057815
-0.0606277
-0.0634442
-0.0662644
-0.069088
-0.0719149
-0.074745
-0.077578
-0.0804137
-0.0832518
-0.0860923
-0.0889348
-0.0917791
-0.0946251
-0.0974724
-0.100321
-0.10317
-0.10602
-0.10887
0.218938
0.215639
0.212363
0.209127
0.20595
0.202848
0.199831
0.196906
0.194076
0.191337
0.188679
0.186084
0.183539
0.181035
0.178564
0.176113
0.173662
0.171196
0.168695
0.166145
0.163531
0.160848
0.158088
0.155245
0.152301
0.149242
0.146061
0.142772
0.139418
0.136037
0.132644
0.129256
0.125907
0.122627
0.119432
0.116324
0.113295
0.110341
0.107451
0.104617
0.101831
0.099085
0.0963673
0.0936696
0.0909815
0.0882918
0.085588
0.0828546
0.0800765
0.0772494
0.0743702
0.0714393
0.0684541
0.0654165
0.0623361
0.059225
0.0560987
0.0529775
0.0498815
0.0468335
0.0438533
0.0409489
0.0381215
0.0353721
0.0327095
0.0301489
0.0277087
0.0253991
0.0232178
0.0211533
0.0191885
0.0172997
0.0154624
0.0136534
0.0118406
0.00999878
0.0080989
0.00612554
0.00404545
0.00183141
-0.000529198
-0.00307037
-0.00576527
-0.00848247
-0.0112135
-0.0139496
-0.0166864
-0.019422
-0.0221563
-0.0248899
-0.0276238
-0.0303595
-0.0330981
-0.0358408
-0.0385884
-0.0413416
-0.0441008
-0.0468661
-0.0496378
-0.0524156
-0.0551995
-0.0579892
-0.0607846
-0.0635853
-0.0663911
-0.0692016
-0.0720165
-0.0748355
-0.0776584
-0.0804847
-0.0833142
-0.0861466
-0.0889816
-0.0918188
-0.094658
-0.0974989
-0.100341
-0.103184
-0.106029
-0.108873
0.218988
0.215791
0.212616
0.209482
0.206401
0.203385
0.200445
0.197585
0.194805
0.1921
0.189457
0.186862
0.184304
0.181773
0.179259
0.176748
0.174226
0.171676
0.169083
0.166438
0.163734
0.160966
0.158129
0.155209
0.152195
0.149071
0.145825
0.142473
0.139063
0.13565
0.132256
0.128888
0.125573
0.122339
0.119203
0.116164
0.113213
0.110345
0.107553
0.104822
0.102141
0.099499
0.0968826
0.0942815
0.0916835
0.0890744
0.086436
0.0837545
0.0810178
0.078223
0.0753603
0.0724278
0.0694263
0.0663619
0.0632458
0.0600862
0.0569032
0.0537228
0.0505686
0.047467
0.0444411
0.0414971
0.038631
0.0358362
0.0331182
0.030496
0.0279849
0.0255874
0.0232996
0.0211166
0.0190293
0.0170213
0.0150721
0.0131609
0.0112618
0.00934665
0.00738588
0.00536233
0.00324995
0.00101922
-0.00134856
-0.00386753
-0.00652656
-0.00921321
-0.0119172
-0.0146269
-0.0173355
-0.02004
-0.0227401
-0.0254371
-0.028133
-0.0308301
-0.0335307
-0.0362365
-0.0389489
-0.041669
-0.0443972
-0.047134
-0.0498794
-0.0526333
-0.0553954
-0.0581654
-0.0609428
-0.0637272
-0.0665182
-0.0693152
-0.0721179
-0.0749257
-0.0777383
-0.0805552
-0.0833761
-0.0862004
-0.0890278
-0.091858
-0.0946906
-0.0975251
-0.100361
-0.103199
-0.106037
-0.108876
0.219014
0.21587
0.212749
0.209667
0.206634
0.203658
0.200745
0.197901
0.195123
0.192405
0.189737
0.187105
0.184499
0.181906
0.179312
0.176707
0.17408
0.171416
0.168707
0.165946
0.163132
0.160263
0.157347
0.154373
0.151334
0.148202
0.144947
0.141571
0.138138
0.134737
0.131397
0.128104
0.124873
0.121731
0.118696
0.115772
0.112948
0.110215
0.107564
0.104984
0.102457
0.099969
0.0975069
0.0950567
0.0926039
0.0901272
0.0876052
0.0850253
0.0823795
0.0796612
0.0768593
0.0739699
0.0709942
0.0679373
0.0648161
0.0616426
0.0584436
0.0552477
0.0520833
0.0489767
0.0459504
0.0429997
0.0401143
0.0372842
0.03452
0.0318437
0.0292625
0.0267654
0.0243429
0.0219967
0.0197327
0.0175436
0.0154151
0.0133313
0.0112675
0.00919444
0.00708821
0.00493656
0.00272029
0.000408016
-0.00201826
-0.00455506
-0.00720625
-0.009892
-0.0125953
-0.0152989
-0.017993
-0.0206747
-0.0233446
-0.026006
-0.028663
-0.0313196
-0.0339796
-0.0366458
-0.0393204
-0.0420049
-0.0447002
-0.0474066
-0.0501243
-0.052853
-0.0555924
-0.0583418
-0.0611007
-0.0638684
-0.0666443
-0.0694277
-0.072218
-0.0750147
-0.077817
-0.0806246
-0.0834368
-0.0862531
-0.0890731
-0.0918964
-0.0947224
-0.0975507
-0.100381
-0.103213
-0.106045
-0.108879
0.219009
0.215855
0.212725
0.20963
0.206577
0.203573
0.200623
0.197729
0.194892
0.192106
0.18936
0.186644
0.183945
0.181244
0.178525
0.175774
0.172996
0.170187
0.167338
0.164449
0.161522
0.158554
0.155571
0.152569
0.149554
0.14649
0.143301
0.139937
0.136492
0.133135
0.129911
0.126762
0.123677
0.120684
0.117804
0.115046
0.112403
0.109861
0.10741
0.105036
0.102722
0.100452
0.0982115
0.0959825
0.093747
0.0914741
0.089142
0.086737
0.0842532
0.0816752
0.0789938
0.0762033
0.0733131
0.0703253
0.0672621
0.0641359
0.0609797
0.0578283
0.0547225
0.0516787
0.0487109
0.0457973
0.0429262
0.0400844
0.0372822
0.0345473
0.0318891
0.0292779
0.0266935
0.0241464
0.0216533
0.0192155
0.0168268
0.0144772
0.0121404
0.00979507
0.00742907
0.00504169
0.00261098
0.000115086
-0.00244786
-0.00506765
-0.00775948
-0.0104904
-0.0132321
-0.0159582
-0.0186567
-0.0213259
-0.0239702
-0.0265969
-0.0292134
-0.031827
-0.0344432
-0.0370667
-0.0397006
-0.042347
-0.0450071
-0.0476814
-0.0503701
-0.0530725
-0.0557883
-0.0585166
-0.0612566
-0.0640074
-0.0667681
-0.0695379
-0.0723159
-0.0751014
-0.0778936
-0.0806919
-0.0834956
-0.0863042
-0.089117
-0.0919335
-0.0947531
-0.0975754
-0.1004
-0.103226
-0.106053
-0.108881
0.218965
0.215723
0.212504
0.209316
0.206162
0.203048
0.199974
0.196945
0.193964
0.191028
0.188132
0.185263
0.182408
0.179543
0.176647
0.173706
0.170731
0.167741
0.16473
0.161703
0.158666
0.155623
0.152603
0.149615
0.146679
0.143762
0.140717
0.137424
0.134015
0.130748
0.12769
0.124734
0.121836
0.119037
0.116366
0.113829
0.11142
0.109122
0.106928
0.104827
0.102795
0.10082
0.0988847
0.096968
0.0950447
0.0930722
0.0910301
0.0889008
0.0866797
0.0843402
0.0818678
0.0792592
0.0765456
0.0737191
0.0708096
0.0678217
0.0648007
0.0617904
0.0588405
0.0559425
0.0530999
0.0502714
0.0474543
0.0446242
0.0417832
0.0389694
0.036225
0.0335024
0.0307595
0.0280007
0.025241
0.0224868
0.0197423
0.0170045
0.0142507
0.0114769
0.00868621
0.00590318
0.00310682
0.000293412
-0.00252755
-0.00532665
-0.00812865
-0.0109768
-0.0138157
-0.0166041
-0.0193298
-0.0219978
-0.0246202
-0.0272114
-0.0297847
-0.0323513
-0.0349199
-0.037497
-0.0400869
-0.0426924
-0.0453152
-0.0479557
-0.050614
-0.0532894
-0.055981
-0.0586879
-0.0614088
-0.0641426
-0.0668881
-0.0696443
-0.0724102
-0.0751848
-0.0779672
-0.0807565
-0.083552
-0.0863531
-0.0891589
-0.0919689
-0.0947825
-0.097599
-0.100418
-0.103239
-0.106061
-0.108884
0.218871
0.215439
0.212029
0.208644
0.205285
0.201953
0.198651
0.195382
0.192154
0.18897
0.18583
0.182722
0.179632
0.176535
0.173405
0.170232
0.16702
0.16381
0.160615
0.157444
0.154307
0.151231
0.148229
0.145307
0.142508
0.139824
0.137023
0.133871
0.130511
0.127349
0.124512
0.121814
0.119148
0.116584
0.114158
0.111881
0.109745
0.10774
0.105865
0.104107
0.102433
0.100834
0.0993039
0.0978205
0.0963359
0.0947852
0.0931568
0.0914317
0.0896098
0.0876438
0.0855086
0.0832126
0.0808301
0.0783229
0.0757268
0.0730133
0.070238
0.0674749
0.0647786
0.0621196
0.0594922
0.056808
0.0541021
0.0513168
0.0484505
0.0455354
0.0427056
0.0398793
0.0369968
0.0340425
0.0310032
0.0278735
0.0246757
0.0214086
0.0180643
0.0146786
0.0112618
0.00785386
0.00446133
0.00112297
-0.00213537
-0.00523261
-0.0082357
-0.0113227
-0.0143486
-0.0172498
-0.0200266
-0.0227015
-0.0253019
-0.0278535
-0.030378
-0.0328919
-0.0354076
-0.0379337
-0.0404759
-0.0430377
-0.0456209
-0.0482261
-0.050853
-0.0535007
-0.0561679
-0.0588532
-0.061555
-0.0642721
-0.0670028
-0.0697458
-0.0724999
-0.0752639
-0.0780368
-0.0808175
-0.0836053
-0.0863991
-0.0891984
-0.0920022
-0.09481
-0.0976212
-0.100435
-0.103251
-0.106068
-0.108886
0.218715
0.214974
0.211252
0.207549
0.203862
0.200189
0.19653
0.192892
0.189289
0.185734
0.182234
0.178778
0.175354
0.17194
0.16851
0.165061
0.161578
0.158115
0.154721
0.151409
0.148188
0.145137
0.142244
0.139449
0.136825
0.134411
0.131909
0.128995
0.125743
0.122694
0.12011
0.117744
0.115364
0.113071
0.110922
0.108921
0.107073
0.105386
0.10389
0.102545
0.101296
0.10016
0.0991452
0.0982607
0.0973718
0.0963706
0.0952918
0.0941296
0.0928891
0.0914788
0.0898613
0.0880803
0.0862874
0.0843604
0.0823284
0.0800663
0.0776582
0.0752513
0.0728992
0.0705434
0.0682218
0.0657425
0.0632629
0.0606006
0.0577882
0.0547443
0.0518341
0.0489035
0.0459385
0.0428163
0.0394843
0.0359384
0.0321924
0.0282625
0.0241376
0.0199493
0.0156705
0.0113066
0.00699426
0.00284443
-0.0011104
-0.00468567
-0.00795386
-0.0115222
-0.0148682