/*--------------------------------*- C++ -*----------------------------------*\
  =========                 |
  \\      /  F ield         | OpenFOAM: The Open Source CFD Toolbox
   \\    /   O peration     | Website:  https://openfoam.org
    \\  /    A nd           | Version:  6
     \\/     M anipulation  |
\*---------------------------------------------------------------------------*/
FoamFile
{
    version     2.0;
    format      ascii;
    class       volVectorField;
    location    "4050";
    object      U;
}
// * * * * * * * * * * * * * * * * * * * * * * * * * * * * * * * * * * * * * //

dimensions      [0 1 -1 0 0 0 0];

internalField   nonuniform List<vector> 
4800
(
(-1.62158e-05 0 -2.97348e-05)
(2.15185e-05 0 -2.47541e-05)
(1.54037e-05 0 -3.37447e-05)
(3.22996e-05 0 -2.89505e-05)
(3.3277e-05 0 -2.14586e-05)
(1.07292e-05 0 -4.06495e-05)
(-1.51289e-05 0 -0.000100439)
(-2.41708e-05 0 -7.85826e-05)
(-0.000101641 0 1.41754e-05)
(-0.000193532 0 -1.34183e-05)
(-0.000222934 0 -1.13269e-05)
(-0.000228858 0 -1.37968e-06)
(-0.00021514 0 -8.98495e-06)
(-0.000210307 0 -1.34166e-05)
(-0.0002128 0 -2.75857e-05)
(-0.000221917 0 -2.18038e-05)
(-0.000233351 0 -2.56629e-05)
(-0.000251089 0 -2.2753e-05)
(-0.000277032 0 -3.09586e-05)
(-0.000307031 0 -2.6459e-05)
(-0.000327458 0 -1.95032e-05)
(-0.000337745 0 -2.31651e-05)
(-0.000341495 0 -2.9379e-05)
(-0.000341448 0 -3.58275e-05)
(-0.000322021 0 -5.88124e-05)
(-0.000297689 0 -3.16488e-05)
(-0.000256802 0 -2.8818e-05)
(-0.000208391 0 -3.97146e-05)
(-0.000160394 0 -3.68222e-05)
(-0.000111645 0 -6.11711e-05)
(-6.21306e-05 0 -3.14439e-05)
(-4.01733e-05 0 -3.78006e-05)
(-1.48156e-05 0 -3.48963e-05)
(-1.20532e-07 0 -3.6522e-05)
(7.63305e-06 0 -2.50082e-05)
(9.4605e-06 0 -2.05078e-05)
(5.43064e-06 0 -8.74226e-06)
(-1.148e-05 0 -1.36871e-05)
(-2.9425e-05 0 -3.03423e-05)
(-4.30186e-05 0 -1.40935e-05)
(-9.76469e-05 0 -4.42575e-07)
(-0.000154271 0 -8.05879e-06)
(-0.0001915 0 -2.94947e-06)
(-0.000235605 0 -2.93452e-05)
(-0.000297525 0 -3.22279e-05)
(-0.000359544 0 -1.49519e-05)
(-0.00039175 0 -5.96112e-06)
(-0.000411617 0 9.34274e-06)
(-0.00043489 0 -7.40505e-06)
(-0.000458525 0 -8.70715e-06)
(-0.000467162 0 -1.15742e-05)
(-0.000447745 0 -2.6262e-05)
(-0.000403246 0 -4.86635e-05)
(-0.000374754 0 -5.71476e-05)
(-0.000358179 0 1.05395e-05)
(-0.000319928 0 -3.44475e-05)
(-0.000284487 0 -2.90826e-05)
(-0.000248737 0 -4.8749e-05)
(-0.00018597 0 -7.8619e-05)
(-0.000118263 0 -2.14939e-05)
(-6.72465e-05 0 -1.24246e-05)
(-4.6554e-05 0 -1.71438e-05)
(-6.17975e-05 0 -7.187e-05)
(-4.56188e-05 0 -0.00028719)
(0.000134141 0 -0.000174265)
(0.000250172 0 -0.000126773)
(0.000343327 0 -0.000118666)
(0.000381344 0 -8.55617e-05)
(0.000413617 0 -5.30178e-05)
(0.000453184 0 -0.000108013)
(0.000514988 0 1.29458e-05)
(0.00053447 0 -8.01181e-05)
(0.000551769 0 -5.36262e-05)
(0.000551894 0 -3.8094e-05)
(0.000547942 0 -9.41126e-06)
(0.000531776 0 -2.19848e-05)
(0.00050102 0 4.41935e-05)
(0.000437618 0 -4.69111e-05)
(0.00040738 0 6.21701e-05)
(-0.000184247 0 4.00224e-05)
(4.23164e-06 0 0.000109847)
(-4.31459e-13 0 1.2513e-13)
(-1.7253e-12 0 6.22194e-14)
(-8.68341e-13 0 3.97664e-14)
(-9.29564e-13 0 2.18343e-14)
(-9.57909e-13 0 6.8927e-15)
(-9.58527e-13 0 -5.86912e-15)
(-9.35317e-13 0 -1.69135e-14)
(-8.91472e-13 0 -2.64836e-14)
(-8.2983e-13 0 -3.46897e-14)
(-7.53081e-13 0 -4.15685e-14)
(-6.63878e-13 0 -4.71225e-14)
(-5.64878e-13 0 -5.13446e-14)
(-4.5875e-13 0 -5.42346e-14)
(-3.48145e-13 0 -5.58094e-14)
(-2.35662e-13 0 -5.61089e-14)
(-1.23793e-13 0 -5.51983e-14)
(-1.48744e-14 0 -5.31685e-14)
(8.89633e-14 0 -5.01327e-14)
(1.85838e-13 0 -4.6223e-14)
(2.74146e-13 0 -4.15846e-14)
(3.52582e-13 0 -3.637e-14)
(4.20148e-13 0 -3.07329e-14)
(4.76149e-13 0 -2.48227e-14)
(5.20178e-13 0 -1.87797e-14)
(5.52096e-13 0 -1.27316e-14)
(5.72005e-13 0 -6.79115e-15)
(5.80215e-13 0 -1.05453e-15)
(5.77214e-13 0 4.39862e-15)
(5.63631e-13 0 9.50473e-15)
(5.40211e-13 0 1.4215e-14)
(5.0778e-13 0 1.84939e-14)
(4.67228e-13 0 2.23171e-14)
(4.19482e-13 0 2.56691e-14)
(3.65496e-13 0 2.85418e-14)
(3.06231e-13 0 3.09322e-14)
(2.42656e-13 0 3.28407e-14)
(1.75732e-13 0 3.42703e-14)
(1.06415e-13 0 3.52269e-14)
(3.56383e-14 0 3.57247e-14)
(-9.97965e-06 0 -1.82533e-05)
(5.66592e-06 0 -1.70586e-05)
(3.86121e-07 0 -3.58127e-06)
(-5.75895e-06 0 1.20524e-05)
(-1.77609e-05 0 3.26019e-05)
(-9.62844e-05 0 7.36058e-05)
(-0.000152318 0 9.403e-05)
(-0.000198579 0 7.08797e-05)
(-0.000227404 0 7.38106e-05)
(-0.000255261 0 7.88551e-05)
(-0.000266228 0 5.19422e-05)
(-0.000268861 0 -1.22687e-05)
(-0.000261972 0 -1.77747e-05)
(-0.000260231 0 1.13757e-05)
(-0.000260525 0 4.52616e-05)
(-0.00027028 0 3.72918e-05)
(-0.000281711 0 6.62772e-05)
(-0.000303607 0 6.4006e-05)
(-0.000328478 0 6.76273e-05)
(-0.000355247 0 6.30375e-05)
(-0.000377041 0 4.50273e-05)
(-0.000383809 0 3.41202e-05)
(-0.000384619 0 2.31999e-05)
(-0.000380826 0 -5.03046e-08)
(-0.000374744 0 -2.59505e-06)
(-0.000353589 0 -4.35047e-05)
(-0.000318967 0 -6.92973e-05)
(-0.000283096 0 -9.15494e-05)
(-0.000259893 0 -5.03052e-05)
(-0.000203607 0 -0.000105345)
(-0.000161388 0 -5.76912e-05)
(-0.000120913 0 -5.85621e-05)
(-8.17533e-05 0 -3.7207e-05)
(-5.69467e-05 0 -1.94182e-05)
(-3.73161e-05 0 -5.28146e-06)
(-3.42167e-05 0 -4.78025e-07)
(-5.04657e-05 0 2.6256e-06)
(-6.0643e-05 0 3.66769e-05)
(-9.22423e-05 0 4.72454e-05)
(-0.000122198 0 5.12488e-05)
(-0.000162153 0 6.9468e-05)
(-0.000206997 0 9.48371e-05)
(-0.000262157 0 0.000118323)
(-0.00032087 0 0.000119665)
(-0.000364674 0 0.000123531)
(-0.000412177 0 9.87802e-05)
(-0.000453607 0 5.02913e-05)
(-0.000476066 0 3.63048e-05)
(-0.000488745 0 4.49462e-05)
(-0.000493394 0 3.73535e-05)
(-0.000471349 0 -3.03509e-06)
(-0.000451737 0 -1.74851e-05)
(-0.00043607 0 -5.52539e-05)
(-0.000410873 0 -4.67026e-05)
(-0.000378245 0 -2.37444e-05)
(-0.000342449 0 -5.09153e-05)
(-0.000310465 0 -4.78719e-05)
(-0.000268424 0 -7.56787e-05)
(-0.000222165 0 -8.89677e-05)
(-0.000163819 0 -8.32571e-05)
(-0.000100077 0 -2.02481e-05)
(-3.15582e-05 0 2.35899e-05)
(6.7843e-05 0 8.15376e-05)
(2.90323e-05 0 -0.000187967)
(0.000183629 0 -7.03919e-05)
(0.000238657 0 -5.58578e-06)
(0.000304591 0 -1.85536e-05)
(0.000341541 0 -8.91879e-05)
(0.000395434 0 -6.33887e-05)
(0.00045004 0 -9.71417e-06)
(0.000498084 0 -5.97554e-05)
(0.000552476 0 -6.14874e-05)
(0.000564046 0 9.51315e-06)
(0.000558387 0 1.54907e-05)
(0.000544145 0 3.59995e-05)
(0.000509334 0 5.57474e-05)
(0.000460851 0 9.20859e-05)
(0.000378796 0 0.00013545)
(0.000374461 0 0.000110269)
(-3.37084e-05 0 0.000170537)
(4.25808e-06 0 0.000239815)
(-4.67365e-13 0 3.44634e-13)
(-1.77715e-12 0 1.78088e-13)
(-9.08644e-13 0 1.14979e-13)
(-9.62437e-13 0 6.2689e-14)
(-9.85613e-13 0 1.8681e-14)
(-9.82333e-13 0 -1.91337e-14)
(-9.55931e-13 0 -5.2015e-14)
(-9.09248e-13 0 -8.06071e-14)
(-8.44915e-13 0 -1.05181e-13)
(-7.65514e-13 0 -1.25809e-13)
(-6.73654e-13 0 -1.42474e-13)
(-5.7199e-13 0 -1.55139e-13)
(-4.63215e-13 0 -1.63794e-13)
(-3.5002e-13 0 -1.68483e-13)
(-2.35051e-13 0 -1.69323e-13)
(-1.20852e-13 0 -1.66508e-13)
(-9.8087e-15 0 -1.60313e-13)
(9.59088e-14 0 -1.51081e-13)
(1.94386e-13 0 -1.39214e-13)
(2.83998e-13 0 -1.25154e-13)
(3.63434e-13 0 -1.09364e-13)
(4.31696e-13 0 -9.23112e-14)
(4.88102e-13 0 -7.44486e-14)
(5.32269e-13 0 -5.62005e-14)
(5.64085e-13 0 -3.79525e-14)
(5.83682e-13 0 -2.00435e-14)
(5.91405e-13 0 -2.76261e-15)
(5.87773e-13 0 1.36521e-14)
(5.73448e-13 0 2.90113e-14)
(5.492e-13 0 4.31706e-14)
(5.15882e-13 0 5.60252e-14)
(4.74403e-13 0 6.75042e-14)
(4.25707e-13 0 7.75637e-14)
(3.70759e-13 0 8.61811e-14)
(3.1053e-13 0 9.33487e-14)
(2.45994e-13 0 9.90692e-14)
(1.78119e-13 0 1.03351e-13)
(1.07869e-13 0 1.06207e-13)
(3.6136e-14 0 1.07653e-13)
(-2.1594e-05 0 -1.3632e-05)
(-2.67034e-06 0 -1.4978e-05)
(-2.71336e-05 0 1.18355e-05)
(-4.74665e-05 0 5.29554e-05)
(-7.37063e-05 0 8.90607e-05)
(-0.000151673 0 0.000128976)
(-0.000218112 0 0.000142074)
(-0.000264943 0 0.000128861)
(-0.00028752 0 9.99061e-05)
(-0.000298812 0 6.58529e-05)
(-0.000301885 0 3.79185e-05)
(-0.000322863 0 5.411e-06)
(-0.000343688 0 -9.07098e-06)
(-0.000351206 0 -1.02926e-05)
(-0.000359076 0 -1.05228e-05)
(-0.000370383 0 7.10993e-06)
(-0.000374862 0 2.21033e-05)
(-0.000382384 0 4.57499e-05)
(-0.000402859 0 4.73756e-05)
(-0.000418126 0 3.50975e-05)
(-0.000422038 0 2.12842e-05)
(-0.000413068 0 -1.26272e-05)
(-0.000406399 0 -1.41393e-05)
(-0.00040946 0 -1.85185e-05)
(-0.000412133 0 -1.68887e-05)
(-0.0003995 0 -9.60501e-05)
(-0.000385587 0 -7.28634e-05)
(-0.000356413 0 -0.000117924)
(-0.00033483 0 -0.00011215)
(-0.000295254 0 -0.000147499)
(-0.000270407 0 -8.713e-05)
(-0.000211017 0 -8.72331e-05)
(-0.000165951 0 -6.30469e-05)
(-0.000132724 0 -4.01924e-05)
(-0.000109302 0 -2.43039e-05)
(-9.46254e-05 0 -9.09414e-06)
(-9.82052e-05 0 1.89251e-05)
(-0.000114009 0 5.58026e-05)
(-0.000135057 0 8.26749e-05)
(-0.000171699 0 9.93014e-05)
(-0.000229304 0 0.000112543)
(-0.000286105 0 0.000120277)
(-0.00034171 0 0.000110537)
(-0.000379946 0 0.000105672)
(-0.000411243 0 0.000104092)
(-0.000442345 0 9.00749e-05)
(-0.000459827 0 8.41579e-05)
(-0.000471888 0 5.7177e-05)
(-0.000481027 0 2.17934e-05)
(-0.000483552 0 1.65338e-05)
(-0.000453504 0 -5.82988e-05)
(-0.000433729 0 -4.987e-05)
(-0.00042595 0 -7.53894e-05)
(-0.000403811 0 -6.30923e-05)
(-0.000354089 0 -9.66094e-05)
(-0.000315262 0 -9.74696e-05)
(-0.000266774 0 -0.000120671)
(-0.000221017 0 -0.000133572)
(-0.000178408 0 -0.000135439)
(-0.000139287 0 -0.000137442)
(-0.000117816 0 -0.000154941)
(-2.94406e-05 0 -0.000132507)
(2.93319e-05 0 -0.000141418)
(0.000101819 0 -0.000150354)
(0.000119375 0 -0.000278719)
(0.000189654 0 -0.000251145)
(0.000255979 0 -0.000188575)
(0.00031579 0 -0.000138659)
(0.000370275 0 -0.000153835)
(0.000436838 0 -0.000160747)
(0.000521949 0 -0.000112924)
(0.000549932 0 -3.9766e-05)
(0.000536769 0 -4.16434e-05)
(0.000528189 0 -2.16762e-05)
(0.000511157 0 6.71772e-05)
(0.00048841 0 5.11975e-05)
(0.000416005 0 0.000140777)
(0.000376159 0 7.61304e-05)
(0.00028088 0 0.000247383)
(-1.66335e-05 0 0.000281239)
(4.40756e-06 0 0.000372204)
(-5.58436e-13 0 5.91444e-13)
(-1.85455e-12 0 2.85517e-13)
(-9.83578e-13 0 1.79631e-13)
(-1.02586e-12 0 9.54114e-14)
(-1.03973e-12 0 2.44281e-14)
(-1.02922e-12 0 -3.7174e-14)
(-9.9679e-13 0 -9.12426e-14)
(-9.44638e-13 0 -1.38581e-13)
(-8.75032e-13 0 -1.79449e-13)
(-7.90374e-13 0 -2.13843e-13)
(-6.93207e-13 0 -2.41654e-13)
(-5.86198e-13 0 -2.62774e-13)
(-4.72094e-13 0 -2.77153e-13)
(-3.53675e-13 0 -2.84846e-13)
(-2.33687e-13 0 -2.86037e-13)
(-1.14783e-13 0 -2.81051e-13)
(5.52798e-16 0 -2.70352e-13)
(1.10062e-13 0 -2.54528e-13)
(2.11765e-13 0 -2.34267e-13)
(3.03996e-13 0 -2.10327e-13)
(3.85424e-13 0 -1.83502e-13)
(4.55064e-13 0 -1.54587e-13)
(5.1226e-13 0 -1.24354e-13)
(5.56674e-13 0 -9.35224e-14)
(5.88253e-13 0 -6.27419e-14)
(6.07195e-13 0 -3.2582e-14)
(6.13911e-13 0 -3.52489e-15)
(6.08988e-13 0 2.40348e-14)
(5.9315e-13 0 4.9786e-14)
(5.67225e-13 0 7.34939e-14)
(5.32114e-13 0 9.4991e-14)
(4.88767e-13 0 1.14166e-13)
(4.38159e-13 0 1.30952e-13)
(3.81281e-13 0 1.45319e-13)
(3.19119e-13 0 1.5726e-13)
(2.52658e-13 0 1.66783e-13)
(1.8287e-13 0 1.73904e-13)
(1.10717e-13 0 1.78642e-13)
(3.70846e-14 0 1.81007e-13)
(-2.821e-05 0 2.0528e-06)
(-9.35004e-06 0 5.2282e-06)
(-6.979e-05 0 6.13036e-05)
(-0.000139233 0 8.15005e-05)
(-0.000185362 0 0.000123867)
(-0.000211331 0 0.000182627)
(-0.000287577 0 0.000151853)
(-0.00032413 0 0.000126721)
(-0.000333195 0 0.000113413)
(-0.000336328 0 9.6129e-05)
(-0.000357971 0 3.34135e-05)
(-0.000382908 0 1.72755e-05)
(-0.000406686 0 5.82499e-05)
(-0.000440187 0 4.30487e-05)
(-0.000458469 0 4.44758e-05)
(-0.000460607 0 4.11895e-05)
(-0.000450361 0 5.2047e-05)
(-0.000446345 0 8.54519e-05)
(-0.000451555 0 0.000107173)
(-0.000455067 0 6.96231e-05)
(-0.000440213 0 3.10012e-05)
(-0.000437962 0 7.25475e-06)
(-0.000439867 0 -1.27176e-05)
(-0.000440024 0 -1.3233e-05)
(-0.000436648 0 -1.3866e-05)
(-0.000428196 0 -9.39204e-05)
(-0.000421769 0 -8.6741e-05)
(-0.000398098 0 -0.00013905)
(-0.000387609 0 -0.000135626)
(-0.000353807 0 -0.000156293)
(-0.000310678 0 -0.000146547)
(-0.000259069 0 -0.000141083)
(-0.000226435 0 -9.20142e-05)
(-0.000185216 0 -6.4353e-05)
(-0.00015526 0 -3.45992e-05)
(-0.000140901 0 -1.6482e-05)
(-0.0001575 0 6.0479e-06)
(-0.000158604 0 8.19184e-05)
(-0.000207885 0 9.42624e-05)
(-0.000225175 0 0.000147946)
(-0.000286954 0 0.000154995)
(-0.000336158 0 0.000158494)
(-0.000369786 0 0.000157011)
(-0.000382443 0 0.000166161)
(-0.000410838 0 0.000136137)
(-0.000433307 0 0.000118097)
(-0.000451626 0 7.97726e-05)
(-0.000459883 0 4.53062e-05)
(-0.000459654 0 2.23456e-05)
(-0.000463937 0 2.16815e-05)
(-0.000454868 0 -4.94392e-05)
(-0.00042265 0 -0.000134575)
(-0.000430394 0 -3.31662e-05)
(-0.00038402 0 -9.40459e-05)
(-0.000338124 0 -0.000111542)
(-0.000283165 0 -0.000140016)
(-0.000227382 0 -0.000159953)
(-0.00017093 0 -0.00017594)
(-0.000100375 0 -0.000175755)
(-5.37585e-05 0 -0.000153798)
(-9.39177e-05 0 -0.000185428)
(8.34559e-06 0 -0.000189846)
(3.81601e-05 0 -0.000205187)
(0.000145235 0 -0.000195907)
(0.000142651 0 -0.000295483)
(0.000223739 0 -0.000285731)
(0.00026863 0 -0.00023208)
(0.000306895 0 -0.0002226)
(0.00035425 0 -0.00025522)
(0.000461319 0 -0.000148475)
(0.000492538 0 -0.000104567)
(0.000503192 0 -4.08882e-05)
(0.000499602 0 -3.54867e-05)
(0.000477097 0 5.7872e-05)
(0.000470192 0 0.00011308)
(0.000445599 0 0.000167492)
(0.000377377 0 0.000249295)
(0.000282046 0 0.00026816)
(0.0003259 0 0.000327125)
(-0.000325993 0 0.000365361)
(4.6616e-06 0 0.000525826)
(-6.74561e-13 0 7.07374e-13)
(-2.02305e-12 0 3.49295e-13)
(-1.09859e-12 0 2.22783e-13)
(-1.11764e-12 0 1.14897e-13)
(-1.1182e-12 0 2.07867e-14)
(-1.098e-12 0 -6.27594e-14)
(-1.05734e-12 0 -1.37217e-13)
(-9.97455e-13 0 -2.0305e-13)
(-9.20176e-13 0 -2.60225e-13)
(-8.27719e-13 0 -3.08499e-13)
(-7.22585e-13 0 -3.47576e-13)
(-6.07489e-13 0 -3.77206e-13)
(-4.85287e-13 0 -3.97258e-13)
(-3.58903e-13 0 -4.07771e-13)
(-2.31256e-13 0 -4.08987e-13)
(-1.05167e-13 0 -4.01363e-13)
(1.6714e-14 0 -3.85571e-13)
(1.31993e-13 0 -3.62466e-13)
(2.38586e-13 0 -3.33055e-13)
(3.34764e-13 0 -2.98442e-13)
(4.19174e-13 0 -2.59783e-13)
(4.90843e-13 0 -2.18236e-13)
(5.49167e-13 0 -1.74911e-13)
(5.93882e-13 0 -1.30844e-13)
(6.25025e-13 0 -8.69594e-14)
(6.42899e-13 0 -4.40639e-14)
(6.48022e-13 0 -2.83329e-15)
(6.41084e-13 0 3.61852e-14)
(6.22907e-13 0 7.25657e-14)
(5.94405e-13 0 1.05993e-13)
(5.56554e-13 0 1.36246e-13)
(5.10365e-13 0 1.63185e-13)
(4.56861e-13 0 1.86732e-13)
(3.97066e-13 0 2.06857e-13)
(3.31993e-13 0 2.23563e-13)
(2.62638e-13 0 2.36872e-13)
(1.89977e-13 0 2.46816e-13)
(1.14972e-13 0 2.53425e-13)
(3.85011e-14 0 2.56722e-13)
(-2.57949e-05 0 -8.05945e-06)
(-7.74533e-07 0 2.50327e-05)
(-8.6882e-05 0 0.000105261)
(-5.58182e-05 0 0.000204655)
(-0.000238003 0 0.000178898)
(-0.000308313 0 0.000177628)
(-0.000309922 0 0.000224394)
(-0.000343672 0 0.000191227)
(-0.00037713 0 0.000125437)
(-0.000398788 0 6.9638e-05)
(-0.000413128 0 8.34547e-05)
(-0.000454328 0 7.48027e-05)
(-0.000499715 0 1.97985e-05)
(-0.000527987 0 3.70767e-05)
(-0.000541849 0 3.29585e-05)
(-0.000535573 0 2.38162e-05)
(-0.000505432 0 2.65757e-05)
(-0.000496579 0 5.13478e-05)
(-0.000501597 0 4.89727e-05)
(-0.000473762 0 8.14531e-06)
(-0.000444691 0 5.01595e-06)
(-0.000442373 0 1.79753e-06)
(-0.00045342 0 -2.25001e-06)
(-0.000455084 0 -1.55367e-05)
(-0.000452184 0 -3.88068e-05)
(-0.000449217 0 -7.41704e-05)
(-0.000440504 0 -0.000117288)
(-0.000442015 0 -0.000121789)
(-0.000410757 0 -0.000203509)
(-0.000389796 0 -0.000159649)
(-0.000308765 0 -0.00022289)
(-0.000284242 0 -0.000167785)
(-0.000239845 0 -0.000133711)
(-0.000209436 0 -8.9342e-05)
(-0.000190124 0 -5.32713e-05)
(-0.000188555 0 -1.50914e-05)
(-0.000210282 0 3.20851e-05)
(-0.000205376 0 0.000124474)
(-0.000290867 0 9.30757e-05)
(-0.000286082 0 0.000184504)
(-0.000321449 0 0.000190445)
(-0.000332408 0 0.000207133)
(-0.000350329 0 0.000201277)
(-0.000374435 0 0.000177444)
(-0.000400926 0 0.000153405)
(-0.000427714 0 0.000135978)
(-0.000446379 0 0.000114076)
(-0.000455413 0 9.08433e-05)
(-0.000458623 0 -2.62928e-05)
(-0.00044838 0 2.16591e-05)
(-0.000447848 0 -4.62396e-05)
(-0.000447846 0 -9.86668e-05)
(-0.000416907 0 -0.000103803)
(-0.000345116 0 -0.00019659)
(-0.000310528 0 -0.000186583)
(-0.000264576 0 -0.000193399)
(-0.000223538 0 -0.000205829)
(-0.00015632 0 -0.000234526)
(-9.56605e-05 0 -0.000217523)
(-5.97888e-05 0 -0.000219304)
(5.7879e-05 0 -0.000201834)
(3.25206e-05 0 -0.000224517)
(0.000107214 0 -0.000220526)
(0.000108264 0 -0.000271313)
(0.000140037 0 -0.000331046)
(0.000217851 0 -0.000359302)
(0.000285769 0 -0.000296783)
(0.000322244 0 -0.000279893)
(0.000363586 0 -0.000281176)
(0.000440619 0 -0.000150074)
(0.000425772 0 -0.000216406)
(0.000469975 0 -8.47727e-05)
(0.000481272 0 1.8245e-05)
(0.000465428 0 -6.34291e-05)
(0.000452199 0 0.000104722)
(0.000420141 0 0.00019696)
(0.000439937 0 0.000183087)
(0.000318599 0 0.000278958)
(0.00037123 0 0.000331254)
(-0.000112906 0 0.000436816)
(4.9087e-06 0 0.000622328)
(-7.71949e-13 0 8.78e-13)
(-2.11199e-12 0 3.97678e-13)
(-1.21782e-12 0 2.47525e-13)
(-1.22786e-12 0 1.20673e-13)
(-1.21739e-12 0 6.6421e-15)
(-1.18723e-12 0 -9.73783e-14)
(-1.13708e-12 0 -1.91766e-13)
(-1.06765e-12 0 -2.76133e-13)
(-9.80482e-13 0 -3.49868e-13)
(-8.77725e-13 0 -4.12328e-13)
(-7.61914e-13 0 -4.62927e-13)
(-6.3588e-13 0 -5.01203e-13)
(-5.02659e-13 0 -5.26892e-13)
(-3.65403e-13 0 -5.39985e-13)
(-2.27279e-13 0 -5.40766e-13)
(-9.13674e-14 0 -5.29837e-13)
(3.94497e-14 0 -5.08096e-13)
(1.62579e-13 0 -4.76708e-13)
(2.7579e-13 0 -4.37042e-13)
(3.77267e-13 0 -3.90603e-13)
(4.6563e-13 0 -3.38958e-13)
(5.39935e-13 0 -2.83667e-13)
(5.99652e-13 0 -2.2622e-13)
(6.44626e-13 0 -1.6799e-13)
(6.75033e-13 0 -1.10197e-13)
(6.91321e-13 0 -5.389e-14)
(6.9416e-13 0 6.17599e-17)
(6.84387e-13 0 5.09651e-14)
(6.62957e-13 0 9.82911e-14)
(6.30905e-13 0 1.41658e-13)
(5.89306e-13 0 1.80808e-13)
(5.39252e-13 0 2.15588e-13)
(4.81832e-13 0 2.45926e-13)
(4.18112e-13 0 2.71808e-13)
(3.49135e-13 0 2.93257e-13)
(2.75911e-13 0 3.10322e-13)
(1.99423e-13 0 3.23058e-13)
(1.20623e-13 0 3.31515e-13)
(4.03818e-14 0 3.35733e-13)
(-5.0227e-05 0 3.53879e-05)
(-6.51264e-05 0 8.20502e-05)
(-0.000231433 0 0.000114003)
(-0.000159972 0 0.000247434)
(-0.000136399 0 0.000333573)
(-0.000280177 0 0.000276474)
(-0.000360643 0 0.000223693)
(-0.00038612 0 0.000203721)
(-0.000420116 0 0.000150293)
(-0.000447201 0 0.00012977)
(-0.000486139 0 0.000146172)
(-0.000560049 0 0.000107539)
(-0.000598681 0 9.27176e-05)
(-0.000606868 0 8.00045e-05)
(-0.000608016 0 5.12464e-05)
(-0.000586942 0 -2.01585e-05)
(-0.000546503 0 -1.51799e-05)
(-0.000532675 0 -7.85912e-06)
(-0.000504893 0 0.000157824)
(-0.000467862 0 4.87648e-06)
(-0.000444201 0 1.25421e-05)
(-0.000444457 0 5.57486e-06)
(-0.000459798 0 2.00464e-05)
(-0.000468133 0 -6.21585e-06)
(-0.000470815 0 -3.72645e-05)
(-0.000466724 0 -8.36992e-05)
(-0.00046561 0 -0.000125978)
(-0.000469478 0 -0.000139263)
(-0.00043505 0 -0.000201843)
(-0.000368299 0 -0.000238895)
(-0.000296461 0 -0.000268663)
(-0.000279477 0 -0.000200337)
(-0.000228542 0 -0.00016424)
(-0.000197829 0 -0.000105757)
(-0.000180956 0 -4.12762e-05)
(-0.000176304 0 1.38216e-05)
(-0.000198484 0 7.48093e-05)
(-0.000207352 0 0.000155419)
(-0.000251295 0 0.000184861)
(-0.00026907 0 0.000223576)
(-0.000304981 0 0.000216739)
(-0.000324649 0 0.000214871)
(-0.000344499 0 0.000203734)
(-0.000362689 0 0.000198242)
(-0.000386738 0 0.000189705)
(-0.000408877 0 0.000176325)
(-0.00043409 0 0.000132803)
(-0.000453126 0 7.1617e-05)
(-0.000460395 0 3.9942e-05)
(-0.000461668 0 -1.00383e-05)
(-0.000462283 0 -5.24049e-05)
(-0.000460286 0 -8.757e-05)
(-0.00042771 0 -0.000158624)
(-0.000393849 0 -0.00020235)
(-0.000319378 0 -0.000269506)
(-0.000288712 0 -0.000256069)
(-0.000205099 0 -0.00029531)
(-0.000157122 0 -0.000277945)
(-4.37906e-05 0 -0.000267685)
(-3.69439e-05 0 -0.000261685)
(-8.24744e-06 0 -0.000260438)
(4.75299e-05 0 -0.000259379)
(9.30297e-05 0 -0.000266839)
(0.000135064 0 -0.000289222)
(0.000197376 0 -0.000317808)
(0.000203751 0 -0.000397926)
(0.000309483 0 -0.000332585)
(0.000305585 0 -0.000348477)
(0.000381629 0 -0.000262635)
(0.000405504 0 -0.000212352)
(0.00041458 0 -0.00019937)
(0.000452446 0 -7.68178e-05)
(0.000467514 0 1.0924e-05)
(0.000457589 0 4.01625e-05)
(0.00039014 0 0.000180238)
(0.000392136 0 0.000216671)
(0.000281587 0 0.00038726)
(0.000231164 0 0.000415006)
(0.000313515 0 0.000471855)
(-0.000228273 0 0.000504786)
(4.35156e-06 0 0.000721415)
(-7.66188e-13 0 8.96484e-13)
(-2.36716e-12 0 3.90084e-13)
(-1.37545e-12 0 2.49194e-13)
(-1.35852e-12 0 1.13717e-13)
(-1.33625e-12 0 -1.74308e-14)
(-1.29641e-12 0 -1.41556e-13)
(-1.23609e-12 0 -2.56271e-13)
(-1.15556e-12 0 -3.5979e-13)
(-1.05637e-12 0 -4.50738e-13)
(-9.40777e-13 0 -5.2798e-13)
(-8.1146e-13 0 -5.90567e-13)
(-6.71455e-13 0 -6.37759e-13)
(-5.24069e-13 0 -6.69099e-13)
(-3.72777e-13 0 -6.84486e-13)
(-2.21108e-13 0 -6.84236e-13)
(-7.24972e-14 0 -6.69102e-13)
(6.98427e-14 0 -6.40253e-13)
(2.03047e-13 0 -5.99215e-13)
(3.24692e-13 0 -5.47793e-13)
(4.32848e-13 0 -4.87964e-13)
(5.2611e-13 0 -4.21777e-13)
(6.03581e-13 0 -3.51255e-13)
(6.64845e-13 0 -2.78315e-13)
(7.09904e-13 0 -2.04703e-13)
(7.39124e-13 0 -1.31954e-13)
(7.53157e-13 0 -6.13671e-14)
(7.52877e-13 0 5.99876e-15)
(7.39313e-13 0 6.93161e-14)
(7.13599e-13 0 1.2797e-13)
(6.76922e-13 0 1.81533e-13)
(6.30485e-13 0 2.29734e-13)
(5.75483e-13 0 2.7243e-13)
(5.1308e-13 0 3.09573e-13)
(4.44397e-13 0 3.41185e-13)
(3.70508e-13 0 3.67331e-13)
(2.92439e-13 0 3.88097e-13)
(2.11171e-13 0 4.03574e-13)
(1.27647e-13 0 4.13842e-13)
(4.27186e-14 0 4.18959e-13)
(-5.54698e-05 0 9.21297e-05)
(-1.80333e-05 0 0.000150421)
(-0.000181405 0 0.000229399)
(-0.000315146 0 0.000214864)
(-0.000313651 0 0.000276384)
(-0.00027113 0 0.000359561)
(-0.000340735 0 0.000312175)
(-0.000398858 0 0.000253638)
(-0.000472602 0 0.0001797)
(-0.000513822 0 0.000184009)
(-0.000578618 0 0.000162654)
(-0.000626735 0 0.000153589)
(-0.000644393 0 0.000137852)
(-0.000637581 0 4.59255e-05)
(-0.000618378 0 4.24279e-05)
(-0.000620914 0 4.40647e-05)
(-0.000595267 0 -0.000131838)
(-0.000544837 0 1.26467e-05)
(-0.000491759 0 9.35914e-05)
(-0.000468077 0 -1.22537e-05)
(-0.000464053 0 -9.07179e-06)
(-0.000474017 0 1.32402e-05)
(-0.00047973 0 1.5725e-05)
(-0.000476287 0 -2.87068e-06)
(-0.00047548 0 -4.57188e-05)
(-0.000478035 0 -9.18989e-05)
(-0.000486622 0 -0.000103774)
(-0.000474855 0 -0.000142878)
(-0.000398211 0 -0.000270184)
(-0.000315916 0 -0.000312717)
(-0.000283764 0 -0.000286051)
(-0.000214681 0 -0.000266342)
(-0.000171558 0 -0.000215447)
(-0.000129128 0 -0.000148854)
(-0.000136885 0 -5.92553e-05)
(-0.000143828 0 3.96203e-05)
(-0.000174302 0 8.95704e-05)
(-0.000193578 0 0.000160353)
(-0.000236711 0 0.000190829)
(-0.000256993 0 0.000228521)
(-0.000284207 0 0.000235192)
(-0.000303895 0 0.000237088)
(-0.000328483 0 0.00022523)
(-0.000346625 0 0.000222543)
(-0.000373569 0 0.000206231)
(-0.000388982 0 0.000190321)
(-0.000415366 0 0.000134808)
(-0.000442809 0 7.54735e-05)
(-0.00045523 0 5.20458e-05)
(-0.000463957 0 8.97827e-07)
(-0.000460637 0 -6.14064e-05)
(-0.000436798 0 -0.000142678)
(-0.000425068 0 -0.000174646)
(-0.000404639 0 -0.000224448)
(-0.000358844 0 -0.000287283)
(-0.000292891 0 -0.000332531)
(-0.000227971 0 -0.000344507)
(-0.000131852 0 -0.000357857)
(-0.000120062 0 -0.000341006)
(-1.60219e-05 0 -0.000313156)
(2.67056e-05 0 -0.000283356)
(3.84823e-05 0 -0.000293887)
(9.37654e-05 0 -0.000297877)
(0.000100948 0 -0.000343687)
(0.000142654 0 -0.000394551)
(0.000214946 0 -0.000425778)
(0.000268499 0 -0.000410751)
(0.000280975 0 -0.000397756)
(0.000352955 0 -0.000312211)
(0.000360536 0 -0.000279592)
(0.000354622 0 -0.00026592)
(0.000398059 0 -0.000144831)
(0.000413375 0 3.13562e-05)
(0.00040298 0 6.03453e-05)
(0.000357107 0 0.000167902)
(0.000327826 0 0.000251555)
(0.000283183 0 0.000365967)
(0.000254324 0 0.0004359)
(0.000221093 0 0.000587008)
(-0.000343297 0 0.000628793)
(4.72622e-06 0 0.000838742)
(-9.13177e-13 0 6.72947e-13)
(-2.41407e-12 0 3.47235e-13)
(-1.49407e-12 0 2.45678e-13)
(-1.49448e-12 0 1.0253e-13)
(-1.47266e-12 0 -4.84315e-14)
(-1.42607e-12 0 -1.95059e-13)
(-1.35531e-12 0 -3.31892e-13)
(-1.26211e-12 0 -4.5595e-13)
(-1.14867e-12 0 -5.65255e-13)
(-1.01755e-12 0 -6.58239e-13)
(-8.71693e-13 0 -7.33562e-13)
(-7.14412e-13 0 -7.90134e-13)
(-5.49386e-13 0 -8.27226e-13)
(-3.8054e-13 0 -8.44595e-13)
(-2.11896e-13 0 -8.42564e-13)
(-4.73839e-14 0 -8.2206e-13)
(1.09337e-13 0 -7.84576e-13)
(2.55038e-13 0 -7.32091e-13)
(3.87041e-13 0 -6.6694e-13)
(5.03284e-13 0 -5.91676e-13)
(6.0234e-13 0 -5.08927e-13)
(6.83398e-13 0 -4.21261e-13)
(7.46204e-13 0 -3.31084e-13)
(7.90987e-13 0 -2.40558e-13)
(8.18369e-13 0 -1.51555e-13)
(8.29274e-13 0 -6.56299e-14)
(8.24843e-13 0 1.59773e-14)
(8.06358e-13 0 9.23234e-14)
(7.75174e-13 0 1.62733e-13)
(7.32669e-13 0 2.26763e-13)
(6.80203e-13 0 2.8416e-13)
(6.19092e-13 0 3.34818e-13)
(5.50587e-13 0 3.78746e-13)
(4.7587e-13 0 4.16024e-13)
(3.96047e-13 0 4.4678e-13)
(3.12154e-13 0 4.71157e-13)
(2.25167e-13 0 4.89295e-13)
(1.36008e-13 0 5.01314e-13)
(4.5499e-14 0 5.07299e-13)
(-3.06423e-05 0 0.000120952)
(3.11089e-05 0 0.00022866)
(-0.000135994 0 0.000301319)
(-0.00016092 0 0.000364748)
(-0.000310863 0 0.000340084)
(-0.000387418 0 0.000316875)
(-0.000399377 0 0.000322177)
(-0.000389089 0 0.000337421)
(-0.000501955 0 0.000243543)
(-0.000583355 0 0.00019538)
(-0.000624456 0 0.000201806)
(-0.000668514 0 0.000153079)
(-0.000681673 0 0.000115376)
(-0.0006651 0 8.48095e-07)
(-0.000645258 0 -2.04858e-05)
(-0.0006423 0 -4.02467e-05)
(-0.000655284 0 -4.94009e-05)
(-0.000600487 0 -8.08317e-05)
(-0.000542365 0 -3.5177e-05)
(-0.000525672 0 -8.6993e-06)
(-0.0005218 0 -1.29044e-05)
(-0.000515723 0 3.14445e-05)
(-0.000496836 0 1.83969e-06)
(-0.000470108 0 -1.55915e-05)
(-0.000455795 0 -3.24726e-05)
(-0.000447049 0 -0.000102235)
(-0.000439223 0 -0.000126604)
(-0.000377478 0 -0.000221361)
(-0.000337941 0 -0.000305496)
(-0.000234597 0 -0.000377434)
(-0.00024885 0 -0.000290598)
(-0.000185752 0 -0.000265236)
(-0.000141679 0 -0.000211121)
(-9.02125e-06 0 -0.000163883)
(-7.14659e-05 0 -2.36338e-05)
(-6.23103e-05 0 5.7e-05)
(-0.000101041 0 0.00012722)
(-0.000133651 0 0.000196106)
(-0.000172585 0 0.000239603)
(-0.000209703 0 0.000264151)
(-0.000258927 0 0.000259289)
(-0.000274644 0 0.000268043)
(-0.000305919 0 0.000252011)
(-0.000332631 0 0.00023636)
(-0.000353643 0 0.000230325)
(-0.00037235 0 0.000213628)
(-0.000388464 0 0.000183484)
(-0.000412427 0 0.000102911)
(-0.000417898 0 5.2769e-05)
(-0.000428748 0 -3.41848e-05)
(-0.00042402 0 -7.70467e-05)
(-0.000392514 0 -0.000167397)
(-0.000412735 0 -0.000175338)
(-0.000349549 0 -0.000299819)
(-0.000300591 0 -0.000360595)
(-0.000273972 0 -0.000391109)
(-0.000185615 0 -0.000421059)
(-0.000173901 0 -0.000406116)
(-6.44645e-05 0 -0.000407039)
(-5.54653e-05 0 -0.000366435)
(3.24988e-05 0 -0.000318507)
(2.55542e-05 0 -0.000327286)
(0.000106554 0 -0.000330211)
(0.000111932 0 -0.000380111)
(0.000152107 0 -0.000435166)
(0.000207103 0 -0.000471853)
(0.000251235 0 -0.000457664)
(0.00026551 0 -0.000440356)
(0.000320836 0 -0.000360767)
(0.000348274 0 -0.00027804)
(0.000333408 0 -0.000243171)
(0.000367251 0 -0.000104752)
(0.000373344 0 1.05992e-05)
(0.000343484 0 0.000110604)
(0.000325654 0 0.000191648)
(0.000264879 0 0.000317332)
(0.000385657 0 0.000309527)
(0.000142813 0 0.000516712)
(0.000593492 0 0.000458077)
(-0.000136313 0 0.000663628)
(5.1227e-06 0 0.000912258)
(-9.44305e-13 0 1.08088e-12)
(-2.39425e-12 0 4.64535e-13)
(-1.62006e-12 0 2.83971e-13)
(-1.65263e-12 0 9.92616e-14)
(-1.63384e-12 0 -8.36683e-14)
(-1.57987e-12 0 -2.58266e-13)
(-1.49698e-12 0 -4.20203e-13)
(-1.38892e-12 0 -5.66788e-13)
(-1.25866e-12 0 -6.96028e-13)
(-1.10908e-12 0 -8.06103e-13)
(-9.43354e-13 0 -8.9526e-13)
(-7.6512e-13 0 -9.61947e-13)
(-5.7853e-13 0 -1.00504e-12)
(-3.88115e-13 0 -1.02407e-12)
(-1.98573e-13 0 -1.01934e-12)
(-1.45097e-14 0 -9.9197e-13)
(1.59811e-13 0 -9.43879e-13)
(3.20684e-13 0 -8.77613e-13)
(4.65106e-13 0 -7.96184e-13)
(5.90861e-13 0 -7.02865e-13)
(6.96525e-13 0 -6.00988e-13)
(7.81424e-13 0 -4.93777e-13)
(8.45547e-13 0 -3.84204e-13)
(8.89433e-13 0 -2.74897e-13)
(9.14053e-13 0 -1.68085e-13)
(9.2069e-13 0 -6.55818e-14)
(9.1083e-13 0 3.12093e-14)
(8.8607e-13 0 1.21259e-13)
(8.48039e-13 0 2.03869e-13)
(7.98348e-13 0 2.7862e-13)
(7.3854e-13 0 3.45316e-13)
(6.70069e-13 0 4.03931e-13)
(5.94286e-13 0 4.54561e-13)
(5.12431e-13 0 4.97381e-13)
(4.2564e-13 0 5.32602e-13)
(3.34954e-13 0 5.6045e-13)
(2.41327e-13 0 5.8113e-13)
(1.45651e-13 0 5.94814e-13)
(4.87043e-14 0 6.01623e-13)
(-0.00010234 0 0.000138498)
(-0.000146017 0 0.000259709)
(-0.00012685 0 0.000390801)
(-0.000108977 0 0.000439382)
(-0.000254781 0 0.000428511)
(-0.000327096 0 0.000426564)
(-0.000409559 0 0.000388219)
(-0.000483286 0 0.0003252)
(-0.000525895 0 0.000327306)
(-0.000591737 0 0.000311537)
(-0.000641432 0 0.000261477)
(-0.000665391 0 0.000224137)
(-0.000684098 0 0.000158736)
(-0.000704695 0 1.14611e-05)
(-0.00068895 0 -4.40777e-05)
(-0.000684625 0 -3.44545e-05)
(-0.000688337 0 -6.90289e-05)
(-0.000674058 0 -6.93734e-05)
(-0.000622297 0 -7.60405e-05)
(-0.000596631 0 -4.44052e-05)
(-0.000569794 0 -5.08922e-05)
(-0.000531464 0 1.2493e-05)
(-0.000477026 0 2.17487e-05)
(-0.00041699 0 -9.09533e-05)
(-0.000374073 0 -7.46187e-05)
(-0.0003366 0 -0.000113213)
(-0.000313801 0 -0.000153723)
(-0.000181171 0 -0.000336013)
(-0.000130356 0 -0.000396552)
(-0.000134311 0 -0.000407813)
(-4.30629e-05 0 -0.000434622)
(-8.54628e-05 0 -0.000377573)
(4.33469e-05 0 -0.0002974)
(8.30594e-05 0 -0.000143298)
(5.51787e-05 0 2.63562e-05)
(2.31489e-05 0 9.17386e-05)
(-4.39965e-05 0 0.000170579)
(-0.000108286 0 0.000228942)
(-0.000147383 0 0.000267526)
(-0.000170172 0 0.000295127)
(-0.000194492 0 0.000311943)
(-0.000238346 0 0.000301984)
(-0.00028085 0 0.00027773)
(-0.000312923 0 0.000255835)
(-0.000334748 0 0.000245389)
(-0.000344305 0 0.000241744)
(-0.000368029 0 0.000173413)
(-0.000358389 0 0.000101813)
(-0.000352589 0 5.44828e-05)
(-0.000355733 0 8.47035e-06)
(-0.000368319 0 -3.50291e-05)
(-0.000287666 0 -0.000241647)