/*--------------------------------*- C++ -*----------------------------------*\
  =========                 |
  \\      /  F ield         | OpenFOAM: The Open Source CFD Toolbox
   \\    /   O peration     | Website:  https://openfoam.org
    \\  /    A nd           | Version:  6
     \\/     M anipulation  |
\*---------------------------------------------------------------------------*/
FoamFile
{
    version     2.0;
    format      ascii;
    class       surfaceScalarField;
    location    "4700";
    object      phi;
}
// * * * * * * * * * * * * * * * * * * * * * * * * * * * * * * * * * * * * * //

dimensions      [0 3 -1 0 0 0 0];

internalField   nonuniform List<scalar> 
9440
(
1.17337e-11
-1.17337e-11
3.03574e-11
-1.86225e-11
6.27744e-11
-3.24161e-11
8.27534e-11
-1.99778e-11
3.99273e-11
4.28275e-11
-1.02734e-10
1.42663e-10
-3.12075e-10
2.09343e-10
-5.38448e-10
2.26374e-10
-7.95625e-10
2.57178e-10
-9.94532e-10
1.98908e-10
-1.18471e-09
1.90178e-10
-1.40859e-09
2.23884e-10
-1.49677e-09
8.81801e-11
-1.54241e-09
4.56389e-11
-1.55951e-09
1.70992e-11
-1.59423e-09
3.47234e-11
-1.59682e-09
2.59425e-12
-1.51533e-09
-8.14922e-11
-1.39025e-09
-1.25083e-10
-1.24278e-09
-1.4747e-10
-1.09344e-09
-1.49339e-10
-9.43413e-10
-1.50023e-10
-8.13106e-10
-1.30306e-10
-7.08617e-10
-1.04488e-10
-5.85597e-10
-1.23019e-10
-5.45479e-10
-4.01171e-11
-5.11295e-10
-3.41826e-11
-5.31425e-10
2.0132e-11
-6.17928e-10
8.6505e-11
-8.23257e-10
2.05332e-10
-1.10014e-09
2.76882e-10
-1.30093e-09
2.00798e-10
-1.49442e-09
1.93493e-10
-1.68318e-09
1.88762e-10
-1.80238e-09
1.19195e-10
-1.99927e-09
1.96896e-10
-2.22919e-09
2.2992e-10
-2.45543e-09
2.26245e-10
-2.57547e-09
1.20041e-10
-2.66005e-09
8.45789e-11
-2.73931e-09
7.92609e-11
-2.82087e-09
8.1554e-11
-2.84807e-09
2.71987e-11
-2.87539e-09
2.73205e-11
-2.89017e-09
1.47817e-11
-2.87321e-09
-1.69616e-11
-2.86007e-09
-1.31335e-11
-2.8124e-09
-4.76773e-11
-2.73986e-09
-7.25427e-11
-2.48546e-09
-2.54396e-10
-2.17354e-09
-3.11922e-10
-1.88593e-09
-2.87606e-10
-1.67724e-09
-2.08688e-10
-1.52363e-09
-1.53618e-10
-1.31834e-09
-2.05283e-10
-9.17338e-10
-4.01003e-10
-6.65614e-10
-2.51723e-10
-5.23818e-10
-1.41795e-10
-1.52652e-10
-3.71166e-10
9.67753e-11
-2.49427e-10
2.16757e-10
-1.19982e-10
5.40773e-10
-3.24016e-10
6.37656e-10
-9.68831e-11
7.92179e-10
-1.54524e-10
9.09286e-10
-1.17108e-10
9.56223e-10
-4.69378e-11
1.00317e-09
-4.69522e-11
1.06927e-09
-6.61012e-11
1.06407e-09
5.19618e-12
1.04757e-09
1.65058e-11
1.02994e-09
1.76248e-11
9.9234e-10
3.7593e-11
9.51377e-10
4.09605e-11
9.03477e-10
4.78978e-11
8.75137e-10
2.83388e-11
8.0338e-10
7.17566e-11
7.8491e-10
1.84709e-11
7.70131e-10
1.47804e-11
8.47863e-10
-7.7731e-11
1.09767e-09
-2.49806e-10
1.02631e-09
7.13615e-11
8.21364e-10
2.04949e-10
-3.52194e-14
8.21423e-10
-1.11031e-18
2.18569e-18
-1.81077e-18
7.00467e-19
-2.02229e-18
2.18714e-19
-2.08156e-18
5.87462e-20
-2.06981e-18
-1.33285e-20
-2.00837e-18
-6.27522e-20
-1.90582e-18
-1.03501e-19
-1.7695e-18
-1.37134e-19
-1.60688e-18
-1.6351e-19
-1.42509e-18
-1.82768e-19
-1.23069e-18
-1.95393e-19
-1.02966e-18
-2.02006e-19
-8.27346e-19
-2.03208e-19
-6.28408e-19
-1.99566e-19
-4.36775e-19
-1.91698e-19
-2.55792e-19
-1.80318e-19
-8.83896e-20
-1.66149e-19
6.30202e-20
-1.49827e-19
1.96757e-19
-1.31929e-19
3.11808e-19
-1.13056e-19
4.07653e-19
-9.38128e-20
4.84236e-19
-7.47063e-20
5.41982e-19
-5.60939e-20
5.81677e-19
-3.82232e-20
6.04277e-19
-2.1286e-20
6.108e-19
-5.43747e-21
6.02352e-19
9.2025e-21
5.80166e-19
2.25419e-20
5.45603e-19
3.45071e-20
5.00113e-19
4.50457e-20
4.45196e-19
5.41439e-20
3.82377e-19
6.18325e-20
3.13169e-19
6.81728e-20
2.39017e-19
7.32268e-20
1.61263e-19
7.70275e-20
8.11658e-20
7.95579e-20
8.07388e-20
-2.2511e-11
1.07785e-11
-4.81684e-11
7.03686e-12
-6.11299e-11
-1.94525e-11
-8.4828e-11
3.72264e-12
-1.2251e-10
8.05116e-11
-1.98851e-10
2.19006e-10
-3.84669e-10
3.95163e-10
-7.94878e-10
6.36585e-10
-1.20807e-09
6.70366e-10
-1.52687e-09
5.17715e-10
-1.59207e-09
2.5538e-10
-1.60881e-09
2.40621e-10
-1.73942e-09
2.18792e-10
-1.7669e-09
7.31202e-11
-1.74006e-09
-9.74228e-12
-1.76039e-09
5.50598e-11
-1.74257e-09
-1.52248e-11
-1.64078e-09
-1.83286e-10
-1.60564e-09
-1.60221e-10
-1.55955e-09
-1.93554e-10
-1.45918e-09
-2.49704e-10
-1.32812e-09
-2.81083e-10
-1.1957e-09
-2.62728e-10
-1.08376e-09
-2.16426e-10
-9.72165e-10
-2.34612e-10
-9.44533e-10
-6.77462e-11
-9.40748e-10
-3.79638e-11
-9.44945e-10
2.43325e-11
-1.06771e-09
2.09279e-10
-1.21007e-09
3.47689e-10
-1.39415e-09
4.60962e-10
-1.74775e-09
5.54408e-10
-2.0332e-09
4.78948e-10
-2.25157e-09
4.07137e-10
-2.44284e-09
3.10462e-10
-2.52245e-09
2.76509e-10
-2.58159e-09
2.89067e-10
-2.60877e-09
2.5342e-10
-2.666e-09
1.77276e-10
-2.75306e-09
1.71635e-10
-2.83376e-09
1.59962e-10
-2.88955e-09
1.37342e-10
-2.93961e-09
7.72653e-11
-2.954e-09
4.17039e-11
-2.95504e-09
1.58199e-11
-2.93361e-09
-3.83869e-11
-2.93394e-09
-1.281e-11
-2.89444e-09
-8.71716e-11
-2.78686e-09
-1.80128e-10
-2.64478e-09
-3.96469e-10
-2.36526e-09
-5.9145e-10
-2.03678e-09
-6.16085e-10
-1.82323e-09
-4.22229e-10
-1.63219e-09
-3.44659e-10
-1.42657e-09
-4.10904e-10
-1.01074e-09
-8.16834e-10
-8.33894e-10
-4.28565e-10
-6.0486e-10
-3.70828e-10
-4.0263e-10
-5.73396e-10
-2.66226e-10
-3.8583e-10
-2.57936e-11
-3.60415e-10
2.00717e-10
-5.50528e-10
3.99258e-10
-2.95425e-10
5.75788e-10
-3.31056e-10
7.19867e-10
-2.61189e-10
8.38027e-10
-1.65101e-10
9.12222e-10
-1.21151e-10
1.03374e-09
-1.87624e-10
9.93937e-10
4.49933e-11
9.70363e-10
4.00738e-11
9.59702e-10
2.82809e-11
9.40163e-10
5.71275e-11
9.13419e-10
6.77013e-11
8.93321e-10
6.79937e-11
8.54958e-10
6.67026e-11
7.93416e-10
1.333e-10
6.48722e-10
1.63166e-10
3.50996e-10
3.12509e-10
-1.64156e-10
4.37424e-10
-6.6201e-10
2.4805e-10
-6.69163e-10
7.85088e-11
-2.27775e-10
-2.36473e-10
2.06171e-16
5.93544e-10
-2.42675e-18
1.7754e-18
-2.29567e-18
5.53951e-19
-2.18368e-18
1.02797e-19
-2.15348e-18
2.77897e-20
-2.11923e-18
-4.83616e-20
-2.04912e-18
-1.34101e-19
-1.93945e-18
-2.1445e-19
-1.79588e-18
-2.81924e-19
-1.62614e-18
-3.34564e-19
-1.43772e-18
-3.7266e-19
-1.2373e-18
-3.97233e-19
-1.03086e-18
-4.09478e-19
-8.23705e-19
-4.10647e-19
-6.2054e-19
-4.02073e-19
-4.25395e-19
-3.85195e-19
-2.41623e-19
-3.61471e-19
-7.20677e-20
-3.32281e-19
8.09183e-20
-2.98953e-19
2.1563e-19
-2.62772e-19
3.31051e-19
-2.24925e-19
4.26759e-19
-1.86443e-19
5.02848e-19
-1.48193e-19
5.59852e-19
-1.10885e-19
5.98614e-19
-7.50799e-20
6.20125e-19
-4.12033e-20
6.2544e-19
-9.57151e-21
6.15691e-19
1.95794e-20
5.92131e-19
4.60757e-20
5.56142e-19
6.98084e-20
5.09211e-19
9.07387e-20
4.52884e-19
1.0889e-19
3.88717e-19
1.24327e-19
3.18223e-19
1.37129e-19
2.42817e-19
1.47361e-19
1.63794e-19
1.55053e-19
8.23468e-20
1.60197e-19
1.62801e-19
-6.28382e-11
7.36177e-11
-1.41405e-10
8.56048e-11
-2.35364e-10
7.45086e-11
-2.84875e-10
5.3235e-11
-2.91615e-10
8.72527e-11
-4.41076e-10
3.68468e-10
-7.57917e-10
7.12005e-10
-1.06334e-09
9.42005e-10
-1.35404e-09
9.61073e-10
-1.5794e-09
7.4307e-10
-1.70098e-09
3.76959e-10
-1.77903e-09
3.18677e-10
-1.85576e-09
2.95515e-10
-1.9215e-09
1.38862e-10
-1.90221e-09
-2.90234e-11
-1.94597e-09
9.88161e-11
-1.91303e-09
-4.81599e-11
-1.89269e-09
-2.03631e-10
-1.86825e-09
-1.84661e-10
-1.82031e-09
-2.41484e-10
-1.7725e-09
-2.97515e-10
-1.72366e-09
-3.29925e-10
-1.54482e-09
-4.41562e-10
-1.46422e-09
-2.97025e-10
-1.44123e-09
-2.57596e-10
-1.37931e-09
-1.29661e-10
-1.37209e-09
-4.51869e-11
-1.38918e-09
4.1432e-11
-1.47048e-09
2.90573e-10
-1.63518e-09
5.12398e-10
-1.83228e-09
6.58061e-10
-2.03542e-09
7.57553e-10
-2.24912e-09
6.92655e-10
-2.38173e-09
5.39745e-10
-2.4908e-09
4.1954e-10
-2.59273e-09
3.78443e-10
-2.6505e-09
3.46835e-10
-2.69291e-09
2.95832e-10
-2.76691e-09
2.51278e-10
-2.82741e-09
2.32137e-10
-2.90178e-09
2.34338e-10
-2.96208e-09
1.9764e-10
-3.00179e-09
1.16972e-10
-2.98866e-09
2.85799e-11
-2.97002e-09
-2.82448e-12
-2.9443e-09
-6.41026e-11
-2.91398e-09
-4.31291e-11
-2.84476e-09
-1.56393e-10
-2.70959e-09
-3.15295e-10
-2.57602e-09
-5.30039e-10
-2.42331e-09
-7.44166e-10
-2.08495e-09
-9.54442e-10
-1.83321e-09
-6.73973e-10
-1.48865e-09
-6.89217e-10
-1.2195e-09
-6.80051e-10
-8.40084e-10
-1.19625e-09
-7.52286e-10
-5.16362e-10
-5.80339e-10
-5.42774e-10
-5.82559e-10
-5.71176e-10
-4.62666e-10
-5.05721e-10
-1.91319e-10
-6.31762e-10
-1.11039e-10
-6.30809e-10
4.95304e-11
-4.55996e-10
2.7292e-10
-5.54448e-10
4.37041e-10
-4.25313e-10
6.11971e-10
-3.40034e-10
7.21248e-10
-2.30432e-10
8.0446e-10
-2.7084e-10
8.66853e-10
-1.74041e-11
8.81682e-10
2.52417e-11
8.81877e-10
2.80829e-11
8.79733e-10
5.92693e-11
8.63618e-10
8.38154e-11
8.50311e-10
8.13008e-11
7.97853e-10
1.19161e-10
7.3937e-10
1.91784e-10
6.45045e-10
2.57493e-10
5.87457e-10
3.70097e-10
6.311e-10
3.93782e-10
5.84676e-10
2.94481e-10
6.00642e-10
6.25665e-11
4.94763e-10
-1.30546e-10
4.94782e-11
1.03885e-09
-6.09371e-19
4.94782e-11
-2.74576e-18
2.69138e-18
-2.25769e-18
-3.85657e-19
-2.22871e-18
-1.13225e-21
-2.20497e-18
-7.21789e-20
-2.12947e-18
-2.09741e-19
-2.00693e-18
-3.37078e-19
-1.84852e-18
-4.4046e-19
-1.66424e-18
-5.19178e-19
-1.46229e-18
-5.74999e-19
-1.24955e-18
-6.10033e-19
-1.03203e-18
-6.26395e-19
-8.15131e-19
-6.2615e-19
-6.03662e-19
-6.1135e-19
-4.01671e-19
-5.84185e-19
-2.12433e-19
-5.46959e-19
-3.87399e-20
-5.01872e-19
1.17099e-19
-4.50916e-19
2.53478e-19
-3.95883e-19
3.69532e-19
-3.38405e-19
4.65009e-19
-2.79948e-19
5.40157e-19
-2.21797e-19
5.95657e-19
-1.65043e-19
6.32491e-19
-1.10582e-19
6.51757e-19
-5.91283e-20
6.54591e-19
-1.12167e-20
6.42188e-19
3.27758e-20
6.15864e-19
7.26151e-20
5.77072e-19
1.0819e-19
5.27362e-19
1.39501e-19
4.68321e-19
1.66633e-19
4.01519e-19
1.89721e-19
3.28455e-19
2.08901e-19
2.5051e-19
2.24262e-19
1.68938e-19
2.35828e-19
8.49506e-20
2.43578e-19
2.47475e-19
-5.68696e-11
1.30488e-10
-1.30801e-10
1.59537e-10
-2.40961e-10
1.84669e-10
-3.53972e-10
1.66247e-10
-4.34467e-10
1.67748e-10
-5.26123e-10
4.60124e-10
-8.63949e-10
1.04983e-09
-1.10879e-09
1.18684e-09
-1.33027e-09
1.18255e-09
-1.60592e-09
1.01873e-09
-1.73193e-09
5.02966e-10
-1.84714e-09
4.33882e-10
-1.9148e-09
3.63181e-10
-1.95914e-09
1.83204e-10
-2.04749e-09
5.93203e-11
-2.11275e-09
1.64081e-10
-2.10555e-09
-5.53565e-11
-2.16717e-09
-1.42012e-10
-2.19404e-09
-1.57791e-10
-2.18327e-09
-2.52247e-10
-2.134e-09
-3.46784e-10
-2.06758e-09
-3.9634e-10
-1.99169e-09
-5.17448e-10
-1.9248e-09
-3.63909e-10
-1.89152e-09
-2.90872e-10
-1.84071e-09
-1.80466e-10
-1.83078e-09
-5.51204e-11
-1.84236e-09
5.30209e-11
-1.94795e-09
3.96166e-10
-2.11331e-09
6.77764e-10
-2.22906e-09
7.73811e-10
-2.31106e-09
8.39558e-10
-2.43117e-09
8.12768e-10
-2.54886e-09
6.57436e-10
-2.53358e-09
4.0427e-10
-2.61632e-09
4.61187e-10
-2.64998e-09
3.80498e-10
-2.68588e-09
3.31726e-10
-2.76791e-09
3.33312e-10
-2.8692e-09
3.33429e-10
-2.93556e-09
3.00701e-10
-2.96282e-09
2.24895e-10
-2.95348e-09
1.07634e-10
-2.93138e-09
6.48257e-12
-2.90044e-09
-3.37661e-11
-2.87744e-09
-8.71011e-11
-2.81448e-09
-1.06092e-10
-2.70921e-09
-2.61654e-10
-2.60472e-09
-4.19786e-10
-2.52237e-09
-6.12392e-10
-2.44119e-09
-8.25347e-10
-2.08396e-09
-1.31167e-09
-1.7904e-09
-9.67525e-10
-1.38354e-09
-1.09608e-09
-8.30962e-10
-1.23263e-09
-5.28909e-10
-1.4983e-09
-4.18383e-10
-6.26886e-10
-3.9902e-10
-5.62136e-10
-4.91361e-10
-4.78835e-10
-4.39692e-10
-5.5739e-10
-4.33888e-10
-6.37568e-10
-3.98162e-10
-6.66535e-10
-1.51865e-10
-7.02295e-10
2.23825e-11
-7.28699e-10
2.06933e-10
-6.09866e-10
4.09499e-10
-5.42604e-10
5.61242e-10
-3.82178e-10
5.96774e-10
-3.06374e-10
6.98213e-10
-1.18845e-10
7.32743e-10
-9.28957e-12
7.61479e-10
-6.54467e-13
7.83301e-10
3.74476e-11
7.7451e-10
9.26074e-11
7.28528e-10
1.27284e-10
7.24018e-10
1.23672e-10
6.99844e-10
2.1596e-10
6.64992e-10
2.92345e-10
6.78457e-10
3.56632e-10
6.98676e-10
3.73559e-10
7.08504e-10
2.84643e-10
7.59794e-10
1.12643e-11
3.14437e-10
3.14814e-10
1.6719e-10
1.1861e-09
-4.79696e-16
2.1667e-10
2.57479e-20
5.62683e-18
-1.8722e-18
1.51254e-18
-2.29885e-18
4.26102e-19
-2.34254e-18
-2.80711e-20
-2.25681e-18
-2.95134e-19
-2.11031e-18
-4.83189e-19
-1.92724e-18
-6.23022e-19
-1.72006e-18
-7.25837e-19
-1.49732e-18
-7.97103e-19
-1.26591e-18
-8.40382e-19
-1.03178e-18
-8.58692e-19
-8.00331e-19
-8.54923e-19
-5.76497e-19
-8.31907e-19
-3.64444e-19
-7.9261e-19
-1.67346e-19
-7.40115e-19
1.22163e-20
-6.77391e-19
1.72132e-19
-6.07116e-19
3.10956e-19
-5.31652e-19
4.27989e-19
-4.53109e-19
5.2316e-19
-3.7339e-19
5.96911e-19
-2.94197e-19
6.50118e-19
-2.1702e-19
6.83945e-19
-1.43116e-19
6.99668e-19
-7.34982e-20
6.98584e-19
-8.92072e-21
6.82027e-19
5.01174e-20
6.51439e-19
1.03358e-19
6.08382e-19
1.50751e-19
5.54494e-19
1.92397e-19
4.9141e-19
2.28486e-19
4.20699e-19
2.59225e-19
3.43816e-19
2.84778e-19
2.62075e-19
3.05231e-19
1.76688e-19
3.20597e-19
8.88476e-20
3.30854e-19
3.35965e-19
-1.06124e-10
2.36613e-10
-2.15561e-10
2.68974e-10
-3.31641e-10
3.00749e-10
-5.38883e-10
3.7349e-10
-8.72102e-10
5.00966e-10
-1.0747e-09
6.62717e-10
-1.18657e-09
1.1617e-09
-1.35438e-09
1.35465e-09
-1.43058e-09
1.25875e-09
-1.53491e-09
1.12305e-09
-1.79033e-09
7.58385e-10
-1.9546e-09
5.98149e-10
-2.04753e-09
4.5611e-10
-2.01433e-09
1.50012e-10
-2.17338e-09
2.18371e-10
-2.21669e-09
2.07394e-10
-2.26681e-09
-5.23916e-12
-2.32074e-09
-8.80766e-11
-2.35074e-09
-1.27792e-10
-2.37389e-09
-2.29088e-10
-2.37763e-09
-3.43042e-10
-2.36334e-09
-4.1063e-10
-2.40758e-09
-4.73203e-10
-2.35187e-09
-4.19612e-10
-2.30909e-09
-3.33655e-10
-2.29095e-09
-1.98593e-10
-2.31331e-09
-3.27645e-11
-2.36594e-09
1.05655e-10
-2.38466e-09
4.14899e-10
-2.47101e-09
7.64117e-10
-2.53366e-09
8.3646e-10
-2.56189e-09
8.67796e-10
-2.57907e-09
8.29949e-10
-2.58299e-09
6.61362e-10
-2.63617e-09
4.57456e-10
-2.65228e-09
4.77293e-10
-2.66401e-09
3.92231e-10
-2.69163e-09
3.5935e-10
-2.78586e-09
4.27545e-10
-2.86293e-09
4.10494e-10
-2.88543e-09
3.23205e-10
-2.84993e-09
1.89396e-10
-2.82599e-09
8.37008e-11
-2.80862e-09
-1.08895e-11
-2.79952e-09
-4.2865e-11
-2.78555e-09
-1.01071e-10
-2.71966e-09
-1.71976e-10
-2.57607e-09
-4.05246e-10
-2.46106e-09
-5.34794e-10
-2.358e-09
-7.15456e-10
-2.18438e-09
-9.98963e-10
-1.95955e-09
-1.53651e-09
-1.52219e-09
-1.40488e-09
-1.01791e-09
-1.60036e-09
-4.95146e-10
-1.75539e-09
-3.69174e-10
-1.62427e-09
-1.74954e-10
-8.21106e-10
-1.63807e-10
-5.73282e-10
-2.45498e-10
-3.97143e-10
-3.38688e-10
-4.642e-10
-3.81506e-10
-5.94751e-10
-3.36913e-10
-7.11131e-10
-2.72435e-10
-7.66775e-10
-2.39767e-10
-7.6137e-10
-9.00638e-11
-7.59572e-10
1.40925e-10
-7.73595e-10
3.51017e-10
-5.92272e-10
4.70452e-10
-4.25811e-10
5.59509e-10
-2.07902e-10
5.74761e-10
-2.45414e-11
5.95082e-10
-2.0974e-11
6.10668e-10
2.18635e-11
6.19333e-10
8.3943e-11
6.35292e-10
1.11326e-10
6.86171e-10
7.27929e-11
6.53114e-10
2.49017e-10
6.35836e-10
3.09624e-10
6.34339e-10
3.58133e-10
6.13369e-10
3.94535e-10
6.21553e-10
2.76464e-10
6.23391e-10
9.4248e-12
5.06151e-10
4.32057e-10
4.66506e-10
1.22575e-09
-1.67234e-16
6.83178e-10
-3.75974e-18
1.05302e-18
-2.95752e-18
7.10937e-19
-2.75211e-18
2.21155e-19
-2.6096e-18
-1.70232e-19
-2.44486e-18
-4.59527e-19
-2.25014e-18
-6.77457e-19
-2.03005e-18
-8.42363e-19
-1.79132e-18
-9.63686e-19
-1.5406e-18
-1.04678e-18
-1.28422e-18
-1.09541e-18
-1.02801e-18
-1.11299e-18
-7.77315e-19
-1.10304e-18
-5.37199e-19
-1.06911e-18
-3.1195e-19
-1.01493e-18
-1.04623e-19
-9.44368e-19
8.24917e-20
-8.61191e-19
2.47595e-19
-7.68846e-19
3.89499e-19
-6.70379e-19
5.07708e-19
-5.68492e-19
6.02353e-19
-4.6561e-19
6.74088e-19
-3.63894e-19
7.24021e-19
-2.65224e-19
7.53563e-19
-1.71169e-19
7.64246e-19
-8.29543e-20
7.57622e-19
-1.45784e-21
7.35268e-19
7.27862e-20
6.98832e-19
1.39553e-19
6.50029e-19
1.98868e-19
5.90583e-19
2.50927e-19
5.22148e-19
2.95997e-19
4.46252e-19
3.34343e-19
3.6427e-19
3.66157e-19
2.7744e-19
3.91543e-19
1.86945e-19
4.1054e-19
9.39583e-20
4.2316e-19
4.294e-19
-1.21557e-10
3.5817e-10
-2.11438e-10
3.58854e-10
-2.11977e-10
3.01287e-10
-2.96446e-10
4.57958e-10
-7.43763e-10
9.48282e-10
-1.21392e-09
1.13287e-09
-1.4287e-09
1.37648e-09
-1.5063e-09
1.43225e-09
-1.61208e-09
1.36453e-09
-1.64867e-09
1.15964e-09
-1.83101e-09
9.40728e-10
-1.98567e-09
7.52809e-10
-2.09057e-09
5.61009e-10
-2.18835e-09
2.47791e-10
-2.31476e-09
3.44778e-10
-2.38067e-09
2.73315e-10
-2.384e-09
-1.91354e-12
-2.43953e-09
-3.25433e-11
-2.54303e-09
-2.42844e-11
-2.57532e-09
-1.96801e-10
-2.5952e-09
-3.23157e-10
-2.63679e-09
-3.6903e-10
-2.65193e-09
-4.58063e-10
-2.68338e-09
-3.88153e-10
-2.69695e-09
-3.20078e-10
-2.67923e-09
-2.16317e-10
-2.68784e-09
-2.41424e-11
-2.75345e-09
1.71269e-10
-2.62279e-09
2.8424e-10
-2.71909e-09
8.60417e-10
-2.6509e-09
7.68276e-10
-2.64965e-09
8.66555e-10
-2.68591e-09
8.66204e-10
-2.67151e-09
6.46966e-10
-2.69636e-09
4.82315e-10
-2.68573e-09
4.66664e-10
-2.70595e-09
4.12448e-10
-2.6898e-09
3.43203e-10
-2.69544e-09
4.33186e-10
-2.73352e-09
4.48572e-10
-2.718e-09
3.07687e-10
-2.67951e-09
1.50909e-10
-2.67664e-09
8.08334e-11
-2.68097e-09
-6.55958e-12
-2.68212e-09
-4.17114e-11
-2.65211e-09
-1.31083e-10
-2.61141e-09
-2.12674e-10
-2.41223e-09
-6.04427e-10
-2.26151e-09
-6.85511e-10
-2.15061e-09
-8.26359e-10
-1.87365e-09
-1.27592e-09
-1.78775e-09
-1.62241e-09
-1.42046e-09
-1.77218e-09
-1.02401e-09
-1.9968e-09
-6.47997e-10
-2.13141e-09
-3.12516e-10
-1.95975e-09
8.68292e-11
-1.22045e-09
1.03832e-10
-5.90285e-10
-7.2698e-12
-2.86042e-10
-1.73911e-10
-2.97561e-10
-3.01805e-10
-4.6686e-10
-3.50679e-10
-6.6226e-10
-3.11532e-10
-8.05925e-10
-1.82407e-10
-8.90498e-10
-4.57367e-11
-8.96245e-10
2.10955e-11
-8.4043e-10
1.80147e-10
-7.51325e-10
3.57836e-10
-6.035e-10
4.36183e-10
-2.86248e-10
4.82103e-10
-7.04598e-11
4.88013e-10
-2.6882e-11
4.76442e-10
3.34364e-11
5.02228e-10
5.81585e-11
5.57101e-10
5.64542e-11
5.85313e-10
4.45803e-11
5.45009e-10
2.89319e-10
5.12952e-10
3.41681e-10
4.50977e-10
4.20108e-10
3.61435e-10
4.8408e-10
2.34352e-10
4.03552e-10
2.02417e-11
2.23539e-10
-2.29376e-10
6.81677e-10
-1.73221e-10
1.1696e-09
3.47309e-16
5.09958e-10
-3.89379e-18
7.78447e-19
-3.44624e-18
2.63617e-19
-3.14262e-18
-8.25403e-20
-2.89889e-18
-4.13777e-19
-2.66279e-18
-6.95263e-19
-2.41505e-18
-9.24754e-19
-2.15138e-18
-1.10524e-18
-1.87442e-18
-1.23978e-18
-1.58923e-18
-1.33111e-18
-1.3018e-18
-1.38198e-18
-1.01807e-18
-1.39574e-18
-7.43385e-19
-1.37632e-18
-4.83017e-19
-1.32793e-18
-2.41385e-19
-1.25512e-18
-2.14456e-20
-1.16261e-18
1.74837e-19
-1.05508e-18
3.46063e-19
-9.36916e-19
4.91385e-19
-8.12027e-19
6.10591e-19
-6.83881e-19
7.04069e-19
-5.55525e-19
7.72758e-19
-4.2959e-19
8.18077e-19
-3.08276e-19
8.41777e-19
-1.93332e-19
8.45742e-19
-8.60542e-20
8.31866e-19
1.26808e-20
8.02035e-19
1.02378e-19
7.58147e-19
1.82868e-19
7.02087e-19
2.54237e-19
6.35654e-19
3.16744e-19
5.60493e-19
3.70722e-19
4.78066e-19
4.16497e-19
3.89657e-19
4.54324e-19
2.96437e-19
4.84374e-19
1.99565e-19
5.0676e-19
1.00198e-19
5.21562e-19
5.28841e-19
-2.67503e-11
3.8492e-10
-2.54862e-10
5.86964e-10
-6.13117e-10
6.59541e-10
-7.30812e-10
5.75651e-10
-8.66498e-10
1.08397e-09
-1.0712e-09
1.33757e-09
-1.23601e-09
1.54129e-09
-1.36047e-09
1.55671e-09
-1.47994e-09
1.484e-09
-1.60914e-09
1.28884e-09
-1.7878e-09
1.11939e-09
-1.95511e-09
9.20118e-10
-2.07437e-09
6.80268e-10
-2.25334e-09
4.26762e-10
-2.34071e-09
4.32143e-10
-2.44783e-09
3.80438e-10
-2.53163e-09
8.18928e-11
-2.65503e-09
9.08591e-11
-2.73688e-09
5.75741e-11
-2.71057e-09
-2.2311e-10
-2.76478e-09
-2.68941e-10
-2.83857e-09
-2.95237e-10
-2.83634e-09
-4.60295e-10
-2.8402e-09
-3.84288e-10
-2.86747e-09
-2.92799e-10
-2.86471e-09
-2.19067e-10
-2.8731e-09
-1.57547e-11
-2.94672e-09
2.44895e-10
-2.85514e-09
1.92666e-10
-2.80188e-09
8.07159e-10
-2.73737e-09
7.03772e-10
-2.69104e-09
8.20226e-10
-2.6846e-09
8.59766e-10
-2.69543e-09
6.57794e-10
-2.66488e-09
4.51764e-10
-2.65842e-09
4.60209e-10
-2.65868e-09
4.12712e-10
-2.60853e-09
2.93054e-10
-2.5375e-09
3.62152e-10
-2.49703e-09
4.08109e-10
-2.51703e-09
3.27688e-10
-2.4575e-09
9.13833e-11
-2.43424e-09
5.75781e-11
-2.45911e-09
1.83107e-11
-2.43624e-09
-6.45786e-11
-2.39381e-09
-1.73516e-10
-2.37723e-09
-2.29247e-10
-2.17649e-09
-8.05166e-10
-2.03271e-09
-8.29293e-10
-1.89589e-09
-9.63178e-10
-1.64534e-09
-1.52647e-09
-1.56947e-09
-1.69829e-09
-1.29656e-09
-2.04508e-09
-1.0637e-09
-2.22967e-09
-9.09209e-10
-2.2859e-09
-4.69227e-10
-2.39973e-09
6.99083e-11
-1.75959e-09
1.75349e-10
-6.95727e-10
9.35157e-11
-2.0421e-10
-8.39049e-11
-1.20142e-10
-2.0231e-10
-3.48457e-10
-3.08923e-10
-5.55649e-10
-2.89906e-10
-8.24944e-10
-2.14971e-10
-9.65436e-10
-1.24788e-10
-9.8643e-10
6.25678e-12
-9.71477e-10
9.47981e-11
-8.39867e-10
1.97306e-10
-7.06008e-10
3.57815e-10
-4.46756e-10
4.14608e-10
-1.27251e-10
3.90688e-10
-2.95972e-12
4.00201e-10
2.39245e-11
4.44111e-10
1.42489e-11
4.61276e-10
3.92896e-11
4.40312e-10
6.55444e-11
4.0999e-10
3.19641e-10
3.98553e-10
3.53118e-10
3.28281e-10
4.90381e-10
2.78375e-10
5.33988e-10
9.00345e-11
5.91897e-10
-2.77381e-10
5.90959e-10
-4.82119e-10
8.86419e-10
-2.72375e-10
9.59856e-10
2.81583e-16
2.37582e-10
-4.12946e-18
7.02211e-19
-3.79139e-18
-7.46963e-20
-3.47304e-18
-4.01021e-19
-3.18038e-18
-7.05829e-19
-2.89228e-18
-9.82325e-19
-2.59553e-18
-1.22055e-18
-2.28592e-18
-1.41373e-18
-1.96574e-18
-1.55899e-18
-1.6401e-18
-1.65601e-18
-1.31556e-18
-1.70618e-18
-9.98653e-19
-1.71262e-18
-6.94998e-19
-1.67966e-18
-4.10204e-19
-1.61229e-18
-1.48876e-19
-1.51608e-18
8.60809e-20
-1.39681e-18
2.93005e-19
-1.26025e-18
4.70952e-19
-1.11189e-18
6.19531e-19
-9.56663e-19
7.38947e-19
-7.98928e-19
8.30004e-19
-6.42416e-19
8.94072e-19
-4.90214e-19
9.33022e-19
-3.44773e-19
9.49055e-19
-2.07914e-19
9.44477e-19
-8.08919e-20
9.21563e-19
3.552e-20
8.82525e-19
1.40936e-19
8.29516e-19
2.35277e-19
7.64594e-19
3.18698e-19
6.89632e-19
3.91522e-19
6.06268e-19
4.54158e-19
5.15893e-19
5.07023e-19
4.19708e-19
5.50484e-19
3.18823e-19
5.84833e-19
2.14366e-19
6.10304e-19
1.07477e-19
6.27079e-19
6.35308e-19
-2.68584e-10
6.53503e-10
-3.36455e-10
6.54834e-10
-4.1404e-10
7.37125e-10
-6.51858e-10
8.13469e-10
-7.94491e-10
1.2266e-09
-1.04696e-09
1.59004e-09
-1.19604e-09
1.69036e-09
-1.33867e-09
1.69934e-09
-1.43418e-09
1.57952e-09
-1.57017e-09
1.42484e-09
-1.73324e-09
1.28246e-09
-1.91524e-09
1.10212e-09
-2.02541e-09
7.90435e-10
-2.18549e-09
5.86851e-10
-2.28537e-09
5.32017e-10
-2.35212e-09
4.47191e-10
-2.54565e-09
2.75424e-10
-2.69445e-09
2.39666e-10
-2.69242e-09
5.55464e-11
-2.74464e-09
-1.70891e-10
-2.86411e-09
-1.49461e-10
-2.93389e-09
-2.25453e-10
-2.96882e-09
-4.25362e-10
-2.9641e-09
-3.89009e-10
-2.98797e-09
-2.68924e-10
-2.95619e-09
-2.50841e-10
-2.9371e-09
-3.4844e-11
-2.91131e-09
2.19111e-10
-2.96164e-09
2.43001e-10
-2.74062e-09
5.86146e-10
-2.75453e-09
7.17681e-10
-2.71552e-09
7.81221e-10
-2.65749e-09
8.01737e-10
-2.64365e-09
6.43948e-10
-2.60176e-09
4.09874e-10
-2.53892e-09
3.97379e-10
-2.55022e-09
4.24011e-10
-2.48313e-09
2.25961e-10
-2.41385e-09
2.92881e-10
-2.31864e-09
3.12893e-10
-2.27866e-09
2.87715e-10
-2.24404e-09
5.67644e-11
-2.19185e-09
5.39699e-12
-2.15557e-09
-1.79701e-11
-2.13453e-09
-8.56226e-11
-2.11818e-09
-1.89863e-10
-2.02428e-09
-3.23149e-10
-1.94327e-09
-8.86177e-10
-1.7968e-09
-9.75758e-10
-1.56883e-09
-1.19115e-09
-1.45934e-09
-1.63596e-09
-1.40353e-09
-1.7541e-09
-1.28745e-09
-2.16116e-09
-1.09342e-09
-2.4237e-09
-7.95104e-10
-2.58421e-09
-6.00902e-10
-2.59394e-09
-4.0437e-10
-1.95612e-09
-1.43316e-10
-9.56783e-10
-9.35406e-13
-3.46593e-10
-7.70399e-11
-4.40398e-11
-1.80317e-10
-2.45183e-10
-2.70431e-10
-4.65537e-10
-2.8233e-10
-8.13047e-10
-2.49699e-10
-9.98069e-10
-1.9375e-10
-1.04238e-09
-1.34883e-10
-1.03034e-09
-4.43972e-12
-9.70312e-10
1.07627e-10
-8.18075e-10
2.54477e-10
-5.93606e-10
3.24539e-10
-1.97313e-10
3.22454e-10
-8.73129e-13
3.43627e-10
2.75195e-12
3.56843e-10
1.03272e-12
3.59918e-10
3.62138e-11
3.4257e-10
8.28915e-11
3.62266e-10
2.99946e-10
3.74233e-10
3.41152e-10
3.16388e-10
5.48229e-10
2.46056e-10
6.04324e-10
3.8634e-11
7.99323e-10
-2.54351e-10
8.83948e-10
-4.09208e-10
1.04128e-09
-2.12272e-10
7.62921e-10
-5.92677e-16
2.5311e-11
-4.52848e-18
2.21446e-19
-4.11675e-18
-4.86636e-19
-3.77709e-18
-7.39856e-19
-3.45688e-18
-1.02415e-18
-3.13051e-18
-1.30619e-18
-2.78871e-18
-1.56008e-18
-2.43118e-18
-1.76927e-18
-2.06276e-18
-1.92586e-18
-1.69028e-18
-2.02722e-18
-1.32199e-18
-2.07383e-18
-9.6569e-19
-2.06888e-18
-6.27635e-19
-2.01738e-18
-3.13988e-19
-1.92546e-18
-2.96045e-20
-1.80004e-18
2.22633e-19
-1.6483e-18
4.4137e-19
-1.47736e-18
6.26178e-19
-1.29392e-18
7.77265e-19
-1.10404e-18
8.95459e-19
-9.13008e-19
9.82205e-19
-7.25253e-19
1.03951e-18
-5.44315e-19
1.06988e-18
-3.72857e-19
1.07608e-18
-2.12729e-19
1.06089e-18
-6.50789e-20
1.02698e-18
6.94982e-20
9.76865e-19
1.90805e-19
9.12938e-19
2.98925e-19
8.37417e-19
3.94146e-19
7.52268e-19
4.76906e-19
6.59133e-19
5.47733e-19
5.59354e-19
6.07182e-19
4.54057e-19
6.55777e-19
3.44295e-19
6.93981e-19
2.31141e-19
7.22187e-19
1.15705e-19
7.4071e-19
7.49794e-19
-8.61484e-11
7.39651e-10
-2.6945e-10
8.38134e-10
-4.83462e-10
9.51137e-10
-7.80591e-10
1.1106e-09
-1.08912e-09
1.53512e-09
-1.26263e-09
1.76355e-09
-1.30588e-09
1.73362e-09
-1.29158e-09
1.68504e-09
-1.34421e-09
1.63215e-09
-1.41086e-09
1.49149e-09
-1.49227e-09
1.36387e-09
-1.58945e-09
1.1993e-09
-1.81791e-09
1.01889e-09
-2.01309e-09
7.82034e-10
-2.13428e-09
6.53207e-10
-2.21923e-09
5.3214e-10
-2.38061e-09
4.36808e-10
-2.50007e-09
3.59125e-10
-2.50916e-09
6.46428e-11
-2.74185e-09
6.17995e-11
-2.83051e-09
-6.07983e-11
-2.87992e-09
-1.76042e-10
-3.00764e-09
-2.97639e-10
-3.02638e-09
-3.7026e-10
-3.06083e-09
-2.34474e-10
-3.0416e-09
-2.70064e-10
-2.95463e-09
-1.2181e-10
-2.86776e-09
1.3224e-10
-2.85477e-09
2.30019e-10
-2.68452e-09
4.15896e-10
-2.70482e-09
7.37989e-10
-2.60955e-09
6.8595e-10
-2.471e-09
6.63194e-10
-2.40128e-09
5.74227e-10
-2.45176e-09
4.6036e-10
-2.37893e-09
3.2455e-10
-2.33015e-09
3.7523e-10
-2.33199e-09
2.27811e-10
-2.26164e-09
2.22531e-10
-2.16918e-09
2.20438e-10
-2.06191e-09
1.80445e-10
-2.06311e-09
5.79676e-11
-1.9912e-09
-6.65097e-11
-1.89734e-09
-1.11834e-10
-1.82252e-09
-1.60438e-10
-1.76184e-09
-2.50547e-10
-1.69401e-09
-3.90977e-10
-1.64206e-09
-9.38132e-10
-1.4196e-09
-1.19822e-09
-1.19558e-09
-1.41516e-09
-1.27634e-09
-1.55519e-09
-1.29045e-09
-1.74e-09
-1.20996e-09
-2.24165e-09
-1.09411e-09
-2.53955e-09
-9.77858e-10
-2.70047e-09
-8.90001e-10
-2.6818e-09
-7.12159e-10
-2.13397e-09
-4.41331e-10
-1.22761e-09
-2.70124e-10
-5.17802e-10
-2.07927e-10
-1.06239e-10
-2.75419e-10
-1.77693e-10
-3.20811e-10
-4.20147e-10
-3.06942e-10
-8.26918e-10
-2.88131e-10
-1.01688e-09
-2.39826e-10
-1.09069e-09
-1.82441e-10
-1.08773e-09
-9.98069e-11
-1.05295e-09
-5.12121e-11
-8.66671e-10
3.9117e-11
-6.83936e-10
2.03112e-10
-3.61308e-10
2.50251e-10
-4.80119e-11
2.79285e-10
-2.62825e-11
2.98694e-10
-1.83757e-11
3.18701e-10
1.62053e-11
3.22626e-10
7.89665e-11
3.60208e-10
2.62365e-10
3.58254e-10
3.43109e-10
3.40205e-10
5.6628e-10
2.30722e-10
7.13811e-10
1.31441e-10
8.98607e-10
-8.76365e-11
1.10303e-09
-1.91621e-10
1.14527e-09
-1.0405e-10
6.75353e-10
-1.7494e-15
-7.87347e-11
-4.72249e-18
2.0932e-20
-4.36905e-18
-8.39517e-19
-4.0607e-18
-1.04583e-18
-3.73892e-18
-1.34238e-18
-3.38439e-18
-1.6566e-18
-2.99791e-18
-1.94255e-18
-2.58777e-18
-2.17609e-18
-2.16412e-18
-2.34682e-18
-1.73689e-18
-2.4518e-18
-1.31705e-18
-2.49169e-18
-9.14183e-19
-2.47053e-18
-5.35722e-19
-2.39441e-18
-1.88564e-19
-2.27113e-18
1.22136e-19
-2.10943e-18
3.93574e-19
-1.91833e-18
6.24809e-19
-1.70662e-18
8.16057e-19
-1.48242e-18
9.68298e-19
-1.25297e-18
1.08321e-18
-1.02446e-18
1.16314e-18
-8.02006e-19
1.21097e-18
-5.89551e-19
1.23001e-18
-3.89945e-19
1.22373e-18
-2.05037e-19
1.19547e-18
-3.5831e-20
1.14829e-18
1.17316e-19
1.08498e-18
2.54485e-19
1.00816e-18
3.76034e-19
9.20178e-19
4.82496e-19
8.23095e-19
5.7452e-19
7.18582e-19
6.52831e-19
6.07948e-19
7.1818e-19
4.92261e-19
7.71294e-19
3.72501e-19
8.1284e-19
2.49664e-19
8.43395e-19
1.24789e-19
8.63423e-19
8.73265e-19
-1.64459e-10
9.0411e-10
-3.28276e-10
1.00195e-09
-5.1383e-10
1.13669e-09
-6.1817e-10
1.21494e-09
-6.63829e-10
1.58078e-09
-7.81921e-10
1.88164e-09
-9.88566e-10
1.94026e-09
-1.14444e-09
1.84091e-09
-1.27698e-09
1.76469e-09
-1.38528e-09
1.59979e-09
-1.49758e-09
1.47617e-09
-1.55402e-09
1.25574e-09
-1.64133e-09
1.1062e-09
-1.80421e-09
9.44917e-10
-1.8732e-09
7.22194e-10
-1.94103e-09
5.99966e-10
-2.11326e-09
6.09048e-10
-2.22514e-09
4.71006e-10
-2.26365e-09
1.03152e-10
-2.40941e-09
2.0756e-10
-2.52772e-09
5.7508e-11
-2.58723e-09
-1.16526e-10
-2.75117e-09
-1.33692e-10
-2.865e-09
-2.56431e-10
-2.88843e-09
-2.11044e-10
-2.92135e-09
-2.37136e-10
-2.8667e-09
-1.76457e-10
-2.78407e-09
4.96155e-11
-2.68479e-09
1.30743e-10
-2.59049e-09
3.21597e-10
-2.50784e-09
6.55346e-10
-2.37423e-09
5.52342e-10
-2.24295e-09
5.31917e-10
-2.19296e-09
5.24234e-10
-2.2399e-09
5.07306e-10
-2.16271e-09
2.47359e-10
-2.09762e-09
3.10152e-10
-2.12143e-09
2.51623e-10
-2.12588e-09
2.26985e-10
-2.1023e-09
1.96863e-10
-2.00481e-09
8.29564e-11
-1.902e-09
-4.4847e-11
-1.79448e-09
-1.74027e-10
-1.69026e-09
-2.16051e-10
-1.57025e-09
-2.80444e-10
-1.46428e-09
-3.56523e-10
-1.3515e-09
-5.03752e-10
-1.20658e-09
-1.08306e-09
-1.13389e-09
-1.2709e-09
-1.16745e-09
-1.3816e-09
-1.18116e-09
-1.54148e-09
-1.10897e-09
-1.81218e-09
-1.1308e-09
-2.21982e-09
-1.14226e-09
-2.52809e-09
-1.08652e-09
-2.75621e-09
-9.72797e-10
-2.79552e-09
-8.62107e-10
-2.24466e-09
-7.49588e-10
-1.34014e-09
-5.86494e-10
-6.80899e-10
-4.04223e-10
-2.88512e-10
-4.21297e-10
-1.60621e-10
-4.73231e-10
-3.68214e-10
-4.47168e-10
-8.52982e-10
-4.75024e-10
-9.89027e-10
-4.57957e-10
-1.10776e-09
-4.13705e-10
-1.13198e-09
-3.59215e-10
-1.10744e-09
-2.62736e-10
-9.63151e-10
-1.65278e-10
-7.81394e-10
3.20065e-12
-5.29787e-10
1.37343e-10
-1.82155e-10
1.99807e-10
-8.87467e-11
2.42172e-10
-6.07409e-11
2.76838e-10
-1.84602e-11
2.96097e-10
5.97077e-11
3.4325e-10
2.15213e-10
3.5689e-10
3.29471e-10
3.84365e-10
5.38808e-10
3.76257e-10
7.21922e-10
4.42134e-10
8.32734e-10
4.59723e-10
1.08544e-09
6.04142e-10
1.00085e-09
4.88929e-10
7.9057e-10
-2.29136e-15
4.10202e-10
-4.84024e-18
-9.97083e-19
-4.57448e-18
-1.1035e-18
-4.35663e-18
-1.26055e-18
-4.05314e-18
-1.64138e-18
-3.67035e-18
-2.03414e-18
-3.23144e-18
-2.37582e-18
-2.7585e-18
-2.64424e-18
-2.26909e-18
-2.83232e-18
-1.77678e-18
-2.93977e-18
-1.29589e-18
-2.96891e-18
-8.38063e-19
-2.92548e-18
-4.12446e-19
-2.8173e-18
-2.68646e-20
-2.65428e-18