/*--------------------------------*- C++ -*----------------------------------*\
  =========                 |
  \\      /  F ield         | OpenFOAM: The Open Source CFD Toolbox
   \\    /   O peration     | Website:  https://openfoam.org
    \\  /    A nd           | Version:  6
     \\/     M anipulation  |
\*---------------------------------------------------------------------------*/
FoamFile
{
    version     2.0;
    format      ascii;
    class       volVectorField;
    location    "4700";
    object      U;
}
// * * * * * * * * * * * * * * * * * * * * * * * * * * * * * * * * * * * * * //

dimensions      [0 1 -1 0 0 0 0];

internalField   nonuniform List<vector> 
4800
(
(-1.37247e-05 0 -1.79683e-05)
(1.80685e-06 0 -3.36752e-05)
(1.85036e-05 0 -3.25064e-05)
(2.91212e-05 0 -3.76769e-05)
(3.16146e-05 0 -2.98158e-05)
(-3.66484e-06 0 -4.57163e-06)
(-8.03642e-05 0 7.53981e-06)
(-0.000152307 0 -0.000100672)
(-0.000275089 0 -0.000149364)
(-0.000300205 0 -0.000218674)
(-0.000404624 0 -9.15175e-05)
(-0.000533946 0 -1.27532e-05)
(-0.000579871 0 -7.06714e-05)
(-0.000602973 0 -2.78273e-05)
(-0.000618253 0 -4.89415e-05)
(-0.000633943 0 -5.21507e-05)
(-0.000639306 0 -6.34384e-05)
(-0.000633875 0 -9.11694e-05)
(-0.000588479 0 -0.000144579)
(-0.000516655 0 -0.000165334)
(-0.00045707 0 -0.000142385)
(-0.000400319 0 -0.000136427)
(-0.000345391 0 -0.000120754)
(-0.000300272 0 -6.52137e-05)
(-0.000267589 0 -2.71854e-05)
(-0.000237508 0 -6.34457e-05)
(-0.000216728 0 -5.39548e-05)
(-0.000199617 0 -5.18306e-05)
(-0.000211342 0 -4.25818e-05)
(-0.000297786 0 5.76918e-05)
(-0.000391412 0 8.81004e-05)
(-0.000484171 0 -5.71264e-05)
(-0.000557605 0 -4.01316e-05)
(-0.000644019 0 -6.57203e-05)
(-0.000715338 0 -0.000146058)
(-0.000775035 0 -9.06093e-05)
(-0.000847817 0 -4.40709e-05)
(-0.000955169 0 4.3598e-05)
(-0.00101752 0 5.93389e-05)
(-0.001052 0 -1.59833e-05)
(-0.0010849 0 2.02561e-06)
(-0.00111257 0 3.67109e-05)
(-0.00113326 0 4.29359e-06)
(-0.00115072 0 -2.42082e-07)
(-0.00115881 0 -2.19429e-06)
(-0.00114879 0 -1.15062e-05)
(-0.00114009 0 -5.82674e-06)
(-0.00114089 0 -1.27086e-05)
(-0.0011481 0 -1.84201e-05)
(-0.00106127 0 -4.84374e-05)
(-0.000914795 0 -5.4485e-05)
(-0.000800687 0 -4.58635e-05)
(-0.000720241 0 -3.85695e-05)
(-0.000655277 0 -3.19617e-05)
(-0.000561514 0 -3.88165e-05)
(-0.000432716 0 -8.97165e-05)
(-0.000322069 0 -4.78318e-05)
(-0.000232122 0 -1.6437e-05)
(-0.000133879 0 -8.6357e-05)
(-1.11351e-05 0 -6.93995e-05)
(5.83417e-05 0 -1.75064e-06)
(0.00013654 0 -2.06659e-05)
(0.000234265 0 4.14899e-05)
(0.000287274 0 -1.62857e-05)
(0.000328656 0 -1.53466e-05)
(0.00037319 0 -2.93398e-05)
(0.0004038 0 -8.15297e-07)
(0.000419396 0 -1.96642e-05)
(0.000433618 0 -1.28386e-05)
(0.000429808 0 -9.82873e-06)
(0.000415744 0 -1.0628e-05)
(0.000400548 0 -1.05754e-05)
(0.000390013 0 -5.8431e-06)
(0.000375098 0 -5.07536e-06)
(0.000355664 0 -2.00685e-06)
(0.000342028 0 7.6769e-07)
(0.000326137 0 1.66614e-05)
(0.000317659 0 -3.38386e-06)
(0.000338041 0 -1.32244e-05)
(0.000347087 0 -3.46763e-05)
(0.000384353 0 -4.7691e-05)
(0.000236764 0 -0.000101237)
(7.98711e-06 0 0.000103836)
(-5.22797e-13 0 4.42285e-13)
(-1.80055e-12 0 1.40105e-13)
(-7.66626e-13 0 4.37481e-14)
(-8.20783e-13 0 1.17511e-14)
(-8.30402e-13 0 -2.66571e-15)
(-8.15636e-13 0 -1.25504e-14)
(-7.82838e-13 0 -2.07001e-14)
(-7.35065e-13 0 -2.74269e-14)
(-6.75277e-13 0 -3.2702e-14)
(-6.06394e-13 0 -3.65535e-14)
(-5.31156e-13 0 -3.90787e-14)
(-4.52069e-13 0 -4.04013e-14)
(-3.71401e-13 0 -4.06416e-14)
(-2.91151e-13 0 -3.99133e-14)
(-2.13037e-13 0 -3.83397e-14)
(-1.38513e-13 0 -3.60636e-14)
(-6.88363e-14 0 -3.32298e-14)
(-5.07388e-15 0 -2.99654e-14)
(5.19555e-14 0 -2.63858e-14)
(1.01713e-13 0 -2.26112e-14)
(1.43892e-13 0 -1.87626e-14)
(1.78378e-13 0 -1.49413e-14)
(2.05243e-13 0 -1.12188e-14)
(2.24732e-13 0 -7.64464e-15)
(2.37191e-13 0 -4.25719e-15)
(2.43015e-13 0 -1.08749e-15)
(2.4263e-13 0 1.8405e-15)
(2.36504e-13 0 4.50838e-15)
(2.25154e-13 0 6.90142e-15)
(2.09143e-13 0 9.00914e-15)
(1.89062e-13 0 1.08288e-14)
(1.65515e-13 0 1.23665e-14)
(1.39109e-13 0 1.36346e-14)
(1.10437e-13 0 1.46454e-14)
(8.0056e-14 0 1.54055e-14)
(4.84858e-14 0 1.59116e-14)
(1.62332e-14 0 1.61478e-14)
(-2.48586e-05 0 4.07067e-08)
(-7.47453e-06 0 8.66193e-06)
(-1.8303e-05 0 7.51982e-06)
(-1.91625e-05 0 2.10178e-05)
(-5.70779e-05 0 4.11145e-05)
(-5.87673e-05 0 8.29249e-05)
(-7.57754e-05 0 0.000126331)
(-0.000192755 0 0.000220117)
(-0.000416282 0 0.000243373)
(-0.000533779 0 0.000180428)
(-0.000598409 0 4.01297e-05)
(-0.000632693 0 8.48838e-05)
(-0.000675197 0 9.33827e-05)
(-0.000691021 0 4.62423e-05)
(-0.000695918 0 5.47165e-05)
(-0.000706292 0 7.54159e-05)
(-0.000707025 0 5.32559e-05)
(-0.000671971 0 2.37057e-05)
(-0.000647045 0 2.93976e-05)
(-0.00062818 0 1.45163e-05)
(-0.000595683 0 -1.64993e-05)
(-0.000553556 0 -3.91552e-05)
(-0.000501022 0 -3.38349e-05)
(-0.000451601 0 -5.02106e-05)
(-0.000403986 0 -0.000102552)
(-0.000380767 0 1.01591e-05)
(-0.00037312 0 1.00861e-05)
(-0.000378598 0 3.54933e-05)
(-0.000408957 0 5.85765e-05)
(-0.000453161 0 8.55022e-05)
(-0.000532985 0 0.000130525)
(-0.000638004 0 0.000163088)
(-0.000758406 0 0.000116066)
(-0.000864868 0 0.00013741)
(-0.000955301 0 0.00014628)
(-0.000999604 0 0.000165523)
(-0.00101903 0 0.000137082)
(-0.00102946 0 6.60038e-05)
(-0.00105084 0 4.99506e-06)
(-0.00109122 0 5.56998e-05)
(-0.00112329 0 4.42835e-05)
(-0.00114749 0 3.41272e-05)
(-0.00116929 0 1.58743e-05)
(-0.00118286 0 1.73116e-05)
(-0.00118663 0 9.6779e-06)
(-0.00117503 0 -6.49822e-06)
(-0.00116936 0 -9.95558e-06)
(-0.00116737 0 -2.73709e-05)
(-0.00116961 0 -4.68025e-05)
(-0.00111929 0 -0.000186207)
(-0.000986962 0 -0.000206037)
(-0.000864204 0 -0.000174378)
(-0.000776346 0 -0.000131629)
(-0.00070638 0 -0.000105835)
(-0.000610274 0 -0.000133505)
(-0.000455016 0 -0.000227639)
(-0.000369543 0 -0.000155342)
(-0.000319365 0 -0.000108656)
(-0.00016249 0 -0.000247619)
(-0.000140934 0 -0.000142373)
(-6.64384e-05 0 -6.71842e-05)
(1.11329e-05 0 -0.000230033)
(0.000131138 0 -9.91476e-05)
(0.000188632 0 -8.57438e-05)
(0.000249756 0 -8.54836e-05)
(0.000318514 0 -1.67275e-05)
(0.000355125 0 -3.81702e-05)
(0.000379549 0 -3.64285e-05)
(0.000407678 0 4.95315e-06)
(0.000402847 0 1.58875e-05)
(0.000383235 0 2.41775e-05)
(0.000374082 0 3.59508e-05)
(0.000372776 0 3.20842e-05)
(0.000363197 0 3.52446e-05)
(0.000348573 0 8.37781e-06)
(0.000328719 0 4.75435e-05)
(0.000308954 0 2.87748e-05)
(0.000265732 0 8.00382e-05)
(0.000120234 0 5.9365e-05)
(-0.000340084 0 -7.5036e-05)
(-0.000368488 0 8.77737e-05)
(-0.000540073 0 5.85193e-05)
(8.03585e-06 0 0.000333166)
(-7.32517e-13 0 7.62574e-13)
(-2.15325e-12 0 2.5088e-13)
(-8.95868e-13 0 6.43004e-14)
(-8.6743e-13 0 1.73066e-14)
(-8.54514e-13 0 -1.2338e-14)
(-8.33671e-13 0 -3.93706e-14)
(-7.97714e-13 0 -6.35901e-14)
(-7.47067e-13 0 -8.38118e-14)
(-6.84404e-13 0 -9.96148e-14)
(-6.12771e-13 0 -1.11086e-13)
(-5.35004e-13 0 -1.18525e-13)
(-4.53632e-13 0 -1.22297e-13)
(-3.70913e-13 0 -1.22771e-13)
(-2.88849e-13 0 -1.20328e-13)
(-2.09187e-13 0 -1.15379e-13)
(-1.33404e-13 0 -1.08358e-13)
(-6.27381e-14 0 -9.96859e-14)
(1.77012e-15 0 -8.9756e-14)
(5.93097e-14 0 -7.89403e-14)
(1.09336e-13 0 -6.75961e-14)
(1.51562e-13 0 -5.60512e-14)
(1.85921e-13 0 -4.458e-14)
(2.1254e-13 0 -3.33958e-14)
(2.31693e-13 0 -2.26606e-14)
(2.43748e-13 0 -1.24978e-14)
(2.49113e-13 0 -3.0018e-15)
(2.48226e-13 0 5.75638e-15)
(2.41564e-13 0 1.37235e-14)
(2.29655e-13 0 2.08631e-14)
(2.13071e-13 0 2.71569e-14)
(1.92419e-13 0 3.26068e-14)
(1.6832e-13 0 3.72318e-14)
(1.41388e-13 0 4.10603e-14)
(1.12208e-13 0 4.41176e-14)
(8.13222e-14 0 4.64161e-14)
(4.92281e-14 0 4.7951e-14)
(1.64694e-14 0 4.8708e-14)
(-3.02711e-05 0 1.86756e-05)
(-3.08532e-05 0 1.62845e-05)
(-6.0507e-05 0 4.43498e-06)
(-0.000109457 0 3.57074e-06)
(-0.000126744 0 3.38186e-05)
(-0.000127151 0 9.44356e-05)
(-0.000205845 0 0.000185255)
(-0.000353934 0 0.000298218)
(-0.00050085 0 0.000315915)
(-0.00058548 0 0.000260036)
(-0.000640296 0 0.000139089)
(-0.000692727 0 1.84218e-05)
(-0.000727975 0 6.4836e-05)
(-0.000745018 0 5.07053e-06)
(-0.000753268 0 -3.11039e-05)
(-0.000769522 0 -2.00436e-05)
(-0.000772359 0 -4.80337e-05)
(-0.000758011 0 -0.000157442)
(-0.000746269 0 -0.000134118)
(-0.000740618 0 -0.000140393)
(-0.000734913 0 -0.000167706)
(-0.000696767 0 -0.000167713)
(-0.000652677 0 -0.000128775)
(-0.000625859 0 -0.000107156)
(-0.000593837 0 -0.000117779)
(-0.000556893 0 -8.13517e-05)
(-0.000551227 0 -5.80902e-05)
(-0.000552942 0 -3.78376e-05)
(-0.000572311 0 8.34186e-05)
(-0.00061752 0 0.000143892)
(-0.000695678 0 0.000175128)
(-0.000783591 0 0.000230412)
(-0.000870517 0 0.000212457)
(-0.000928813 0 0.000159246)
(-0.000968934 0 0.000146716)
(-0.0010239 0 0.000105513)
(-0.00105558 0 0.000126656)
(-0.00107125 0 0.00013413)
(-0.00108719 0 0.000100521)
(-0.00110977 0 6.85414e-05)
(-0.00114568 0 7.45937e-05)
(-0.00117939 0 6.7627e-05)
(-0.00119509 0 4.14715e-05)
(-0.00119922 0 2.01384e-05)
(-0.00120056 0 5.52982e-06)
(-0.00118871 0 -2.293e-05)
(-0.00116919 0 5.06184e-06)
(-0.00114176 0 -3.37786e-05)
(-0.00112302 0 -8.35425e-05)
(-0.00111678 0 -0.000158056)
(-0.0010268 0 -0.000308227)
(-0.00088194 0 -0.000314778)
(-0.000781459 0 -0.00021064)
(-0.000689158 0 -0.00019529)
(-0.000578392 0 -0.000248828)
(-0.000296013 0 -0.000427594)
(-0.000371655 0 -0.000182136)
(-0.000275885 0 -0.000191262)
(-0.000210391 0 -0.000231033)
(-0.000229959 0 -0.00018667)
(-0.00014126 0 -0.000249821)
(-4.44867e-05 0 -0.000250432)
(-4.45502e-05 0 -0.000155261)
(5.87855e-05 0 -0.000201077)
(0.000153688 0 -0.00013612)
(0.000205132 0 -0.000109954)
(0.000271777 0 -6.69543e-05)
(0.000297867 0 -0.000134968)
(0.000342168 0 3.2083e-05)
(0.000349975 0 2.01365e-05)
(0.000350327 0 -7.14052e-06)
(0.000352923 0 5.45615e-06)
(0.000351385 0 2.33448e-05)
(0.000344071 0 2.52496e-05)
(0.000328957 0 4.23068e-05)
(0.000313243 0 6.05352e-05)
(0.000286938 0 7.87019e-05)
(0.000270158 0 0.000123655)
(0.000213298 0 0.000157113)
(0.000213479 0 0.00010847)
(0.000259366 0 1.8671e-05)
(-6.01065e-06 0 -8.70703e-05)
(4.79111e-05 0 0.000318154)
(1.2938e-12 0 4.47556e-12)
(-2.37787e-12 0 6.24749e-13)
(-1.00068e-12 0 -5.65721e-14)
(-8.97277e-13 0 5.33149e-15)
(-8.86707e-13 0 -2.41081e-14)
(-8.66888e-13 0 -6.87684e-14)
(-8.27279e-13 0 -1.10306e-13)
(-7.71089e-13 0 -1.44477e-13)
(-7.02551e-13 0 -1.70748e-13)
(-6.25305e-13 0 -1.89532e-13)
(-5.42367e-13 0 -2.01453e-13)
(-4.56315e-13 0 -2.07175e-13)
(-3.69432e-13 0 -2.07359e-13)
(-2.83758e-13 0 -2.02685e-13)
(-2.01066e-13 0 -1.93876e-13)
(-1.22821e-13 0 -1.81686e-13)
(-5.02346e-14 0 -1.66831e-13)
(1.56718e-14 0 -1.49974e-13)
(7.41153e-14 0 -1.31731e-13)
(1.24602e-13 0 -1.12666e-13)
(1.66908e-13 0 -9.32783e-14)
(2.01033e-13 0 -7.39982e-14)
(2.27163e-13 0 -5.51855e-14)
(2.4563e-13 0 -3.71324e-14)
(2.5685e-13 0 -2.00663e-14)
(2.6127e-13 0 -4.15765e-15)
(2.59356e-13 0 1.0471e-14)
(2.5161e-13 0 2.37382e-14)
(2.38587e-13 0 3.55997e-14)
(2.20887e-13 0 4.60479e-14)
(1.99137e-13 0 5.51045e-14)
(1.73968e-13 0 6.28095e-14)
(1.45995e-13 0 6.9206e-14)
(1.15793e-13 0 7.43247e-14)
(8.38895e-14 0 7.81762e-14)
(5.07777e-14 0 8.0755e-14)
(1.69901e-14 0 8.20552e-14)
(-2.83221e-05 0 4.61751e-05)
(-3.25516e-05 0 5.50221e-05)
(-5.83967e-05 0 6.24971e-05)
(-9.83848e-05 0 4.77916e-05)
(-0.000191586 0 2.2229e-05)
(-0.000206768 0 0.000172913)
(-0.000228589 0 0.000376584)
(-0.000402684 0 0.000455434)
(-0.000472096 0 0.000465196)
(-0.000571049 0 0.000354173)
(-0.0007022 0 0.00013479)
(-0.000726441 0 0.000154205)
(-0.00074785 0 0.000129265)
(-0.000752996 0 8.80068e-05)
(-0.00079882 0 -1.8481e-05)
(-0.000823765 0 9.18871e-05)
(-0.00084257 0 7.52998e-06)
(-0.000857807 0 -2.85686e-05)
(-0.000868509 0 -4.08542e-05)
(-0.00086998 0 -7.3874e-05)
(-0.00086709 0 -8.05134e-05)
(-0.000850447 0 -0.00011961)
(-0.000791285 0 -0.000274523)
(-0.000780024 0 -0.000115978)
(-0.000762354 0 -5.59344e-05)
(-0.000751311 0 -4.26135e-05)
(-0.000737345 0 2.6764e-06)
(-0.000729172 0 5.09413e-05)
(-0.000753245 0 0.000103661)
(-0.000824842 0 0.000219503)
(-0.000875575 0 0.000285757)
(-0.000912146 0 0.000318711)
(-0.000942858 0 0.000304547)
(-0.000978319 0 0.000212867)
(-0.00101427 0 0.000117312)
(-0.00103735 0 0.000147867)
(-0.00105143 0 0.000136616)
(-0.00106087 0 0.000112417)
(-0.00108846 0 0.000117987)
(-0.0011335 0 0.000111692)
(-0.0011685 0 9.48869e-05)
(-0.00118283 0 8.31619e-05)
(-0.00118382 0 5.74017e-05)
(-0.00117406 0 5.25784e-06)
(-0.00117087 0 -1.18157e-06)
(-0.00117141 0 -1.51873e-05)
(-0.00114511 0 -2.31066e-05)
(-0.00109511 0 -8.7407e-05)
(-0.00105618 0 -0.00015802)
(-0.00104235 0 -0.000216325)
(-0.0010428 0 -0.00027167)
(-0.000859631 0 -0.000467182)
(-0.000760709 0 -0.000314498)
(-0.000639323 0 -0.000308976)
(-0.000577462 0 -0.000280933)
(-7.42181e-05 0 -0.000589451)
(-0.000269693 0 -0.000240156)
(-0.000138075 0 -0.000241054)
(-0.000189329 0 -0.000207077)
(-0.000197014 0 -0.00022278)
(-0.000158334 0 -0.000265194)
(-0.00018169 0 -0.000254214)
(-0.000154355 0 -0.000246151)
(-5.66035e-06 0 -0.000276519)
(4.01455e-05 0 -0.000203363)
(0.000124699 0 -0.000164105)
(0.000190722 0 -0.000125259)
(0.000236883 0 -8.61271e-05)
(0.000261684 0 -4.61228e-05)
(0.000282651 0 -8.36474e-06)
(0.00030607 0 2.00431e-05)
(0.000313254 0 4.1574e-05)
(0.000312803 0 4.06267e-05)
(0.000306244 0 3.07685e-05)
(0.000287289 0 6.17102e-05)
(0.000285688 0 8.71817e-05)
(0.00027527 0 0.000116297)
(0.000268718 0 0.000148798)
(0.000273453 0 0.000172923)
(0.000270793 0 0.000160044)
(0.000303225 0 2.11004e-05)
(0.000209443 0 1.1539e-06)
(4.86027e-05 0 0.000384741)
(1.09282e-05 0 2.99312e-05)
(-1.78619e-12 0 1.69434e-12)
(-1.51439e-12 0 2.25378e-13)
(-8.34215e-13 0 8.4994e-14)
(-9.28248e-13 0 -2.005e-14)
(-9.19868e-13 0 -1.00975e-13)
(-8.73423e-13 0 -1.64053e-13)
(-8.07509e-13 0 -2.12696e-13)
(-7.29459e-13 0 -2.49003e-13)
(-6.43476e-13 0 -2.7442e-13)
(-5.52646e-13 0 -2.90083e-13)
(-4.59538e-13 0 -2.97017e-13)
(-3.66423e-13 0 -2.96215e-13)
(-2.75365e-13 0 -2.88651e-13)
(-1.88188e-13 0 -2.75359e-13)
(-1.06358e-13 0 -2.57415e-13)
(-3.1026e-14 0 -2.35853e-13)
(3.68696e-14 0 -2.11606e-13)
(9.66176e-14 0 -1.85507e-13)
(1.47789e-13 0 -1.58303e-13)
(1.9023e-13 0 -1.30668e-13)
(2.24014e-13 0 -1.03199e-13)
(2.49406e-13 0 -7.64125e-14)
(2.66813e-13 0 -5.07397e-14)
(2.76723e-13 0 -2.65253e-14)
(2.7965e-13 0 -4.02749e-15)
(2.76122e-13 0 1.65786e-14)
(2.66693e-13 0 3.51947e-14)
(2.51964e-13 0 5.17883e-14)
(2.32575e-13 0 6.63796e-14)
(2.09181e-13 0 7.90237e-14)
(1.82422e-13 0 8.97892e-14)
(1.52903e-13 0 9.87357e-14)
(1.21178e-13 0 1.05899e-13)
(8.77525e-14 0 1.11285e-13)
(5.3107e-14 0 1.14886e-13)
(1.77695e-14 0 1.16688e-13)
(-3.4782e-05 0 7.34931e-05)
(-5.96818e-05 0 8.44918e-05)
(-0.000113362 0 8.15211e-05)
(-0.000126014 0 8.52175e-05)
(-0.000271604 0 0.000162148)
(-0.000455042 0 0.000231855)
(-0.000401954 0 0.000490907)
(-0.000522032 0 0.000503572)
(-0.00056425 0 0.000475393)
(-0.000554967 0 0.000457675)
(-0.000699747 0 0.000263851)
(-0.000763924 0 0.000198677)
(-0.000778671 0 0.00016907)
(-0.000800489 0 7.39953e-05)
(-0.000854439 0 5.12815e-05)
(-0.000879272 0 4.39778e-05)
(-0.000895987 0 -6.77429e-05)
(-0.000909257 0 -7.26508e-05)
(-0.000931722 0 -5.39308e-05)
(-0.000943169 0 -0.000105722)
(-0.000941413 0 -0.000165826)
(-0.000951288 0 -0.00017366)
(-0.000962003 0 -0.000167404)
(-0.000942647 0 -0.000208755)
(-0.000928278 0 -0.000183422)
(-0.000928926 0 -9.16644e-05)
(-0.000927324 0 -3.70098e-05)
(-0.000934409 0 -1.28454e-06)
(-0.000951886 0 0.000220575)
(-0.000966518 0 0.000343848)
(-0.00100667 0 0.000339315)
(-0.00102167 0 0.000340877)
(-0.00102241 0 0.000334575)
(-0.00102262 0 0.000299119)
(-0.00106016 0 0.000175293)
(-0.00106037 0 0.000196693)
(-0.00106075 0 0.000157768)
(-0.00105958 0 0.000156929)
(-0.00109824 0 0.000148765)
(-0.00113926 0 0.000154547)
(-0.00115181 0 0.000145539)
(-0.00115167 0 9.91081e-05)
(-0.00113466 0 2.26134e-05)
(-0.00112287 0 -2.66698e-06)
(-0.00112095 0 -2.53189e-05)
(-0.00112781 0 -5.57329e-05)
(-0.00112086 0 -8.17812e-05)
(-0.00104908 0 -0.000136804)
(-0.00100086 0 -0.000191544)
(-0.000975404 0 -0.0002752)
(-0.000960608 0 -0.000353521)
(-0.000782495 0 -0.00056103)
(-0.000690955 0 -0.000467182)
(-0.000501002 0 -0.000570012)
(-0.000344581 0 -0.000628435)
(-7.36685e-05 0 -0.00055408)
(-0.000165996 0 -0.000255834)
(-4.64339e-05 0 -0.000222331)
(-7.72107e-05 0 -0.000178639)
(-0.000114238 0 -0.000222583)
(-0.000166792 0 -0.000250876)
(-0.000135469 0 -0.00028588)
(-0.000132792 0 -0.000302412)
(-0.000103624 0 -0.00028995)
(-9.60561e-05 0 -0.000288096)
(4.11203e-06 0 -0.00028113)
(0.000110313 0 -0.000182456)
(0.000156734 0 -0.000157026)
(0.000217601 0 -6.93929e-05)
(0.000233161 0 4.66356e-06)
(0.000231174 0 -9.09887e-06)
(0.000240578 0 -1.34984e-05)
(0.000253929 0 2.87249e-05)
(0.000247918 0 7.46134e-05)
(0.00026287 0 2.73566e-05)
(0.000271174 0 7.46361e-05)
(0.000263069 0 0.000114664)
(0.000249458 0 0.000149263)
(0.00025497 0 0.000153262)
(0.000274499 0 0.00010237)
(0.000287986 0 -1.12154e-05)
(7.68293e-05 0 0.000141585)
(2.46891e-05 0 0.000531119)
(7.68976e-06 0 0.000219427)
(-9.35215e-13 0 1.32294e-12)
(-2.51171e-12 0 4.44696e-13)
(-1.14192e-12 0 1.29451e-13)
(-1.07231e-12 0 -3.96605e-14)
(-1.01089e-12 0 -1.50932e-13)
(-9.39001e-13 0 -2.32129e-13)
(-8.56039e-13 0 -2.93077e-13)
(-7.64275e-13 0 -3.37905e-13)
(-6.66385e-13 0 -3.68777e-13)
(-5.64964e-13 0 -3.87158e-13)
(-4.62447e-13 0 -3.94336e-13)
(-3.61066e-13 0 -3.91593e-13)
(-2.62903e-13 0 -3.80204e-13)
(-1.6983e-13 0 -3.61508e-13)
(-8.33145e-14 0 -3.36897e-13)
(-4.4262e-15 0 -3.07716e-13)
(6.60174e-14 0 -2.75192e-13)
(1.27419e-13 0 -2.40406e-13)
(1.79441e-13 0 -2.0432e-13)
(2.22012e-13 0 -1.678e-13)
(2.55288e-13 0 -1.31618e-13)
(2.79622e-13 0 -9.64488e-14)
(2.95517e-13 0 -6.2857e-14)
(3.03562e-13 0 -3.12905e-14)
(3.04374e-13 0 -2.07571e-15)
(2.98578e-13 0 2.45807e-14)
(2.8682e-13 0 4.85822e-14)
(2.69772e-13 0 6.99239e-14)
(2.48122e-13 0 8.86648e-14)
(2.22546e-13 0 1.04897e-13)
(1.9368e-13 0 1.18713e-13)
(1.62105e-13 0 1.30187e-13)
(1.28342e-13 0 1.39355e-13)
(9.2877e-14 0 1.46227e-13)
(5.61806e-14 0 1.50803e-13)
(1.87917e-14 0 1.53073e-13)
(-3.80011e-05 0 0.000113928)
(-6.49148e-05 0 0.000121298)
(-0.000104762 0 0.000148654)
(-6.50471e-05 0 0.000230626)
(-0.000134076 0 0.000297622)
(-0.000430355 0 0.000393516)
(-0.000578106 0 0.000484135)
(-0.000574791 0 0.000565502)
(-0.000619438 0 0.000513438)
(-0.000645547 0 0.000425899)
(-0.000707256 0 0.000335023)
(-0.000765531 0 0.000291873)
(-0.000785719 0 0.000235122)
(-0.000863926 0 5.57432e-05)
(-0.000915789 0 0.000113845)
(-0.000940367 0 9.10476e-05)
(-0.000942135 0 5.62521e-05)
(-0.000956552 0 1.32762e-05)
(-0.00100839 0 -4.47516e-05)
(-0.00102852 0 -7.51107e-05)
(-0.00103704 0 -0.000120911)
(-0.00104404 0 -0.00015906)
(-0.00105138 0 -0.000169573)
(-0.00107188 0 -0.000121455)
(-0.00107832 0 -0.00010442)
(-0.00106859 0 -7.39837e-05)
(-0.00107642 0 2.13626e-05)
(-0.00109182 0 9.50301e-05)
(-0.00107897 0 0.000141279)
(-0.0010668 0 0.000257584)
(-0.00106682 0 0.000353138)
(-0.00105714 0 0.000388416)
(-0.00106505 0 0.000356537)
(-0.00107586 0 0.000243779)
(-0.00107391 0 0.00019787)
(-0.00107521 0 0.000191412)
(-0.00108089 0 0.000157254)
(-0.00107884 0 0.000120748)
(-0.00107445 0 0.000184939)
(-0.00109159 0 0.000175966)
(-0.00109422 0 0.000121459)
(-0.00107705 0 4.8355e-05)
(-0.00107186 0 3.16822e-05)
(-0.00106955 0 -1.86656e-05)
(-0.00106916 0 -1.99416e-05)
(-0.00107983 0 -2.98146e-05)
(-0.00107646 0 -6.85425e-05)
(-0.000982618 0 -0.000213997)
(-0.000925836 0 -0.000243616)
(-0.000898437 0 -0.000311923)
(-0.000837552 0 -0.000445201)
(-0.000688058 0 -0.000654655)
(-0.00063645 0 -0.000636813)
(-0.000499387 0 -0.000725419)
(-0.000310445 0 -0.000775789)
(-0.000179166 0 -0.000632545)
(-5.78549e-05 0 -0.000353716)
(4.22345e-05 0 -0.000209506)
(2.60267e-05 0 -0.000138274)
(-1.32887e-05 0 -0.000150563)
(-0.000120254 0 -0.000210809)
(-0.000132355 0 -0.000285942)
(-0.000143075 0 -0.000323255)
(-0.000107476 0 -0.00034549)
(-5.78653e-05 0 -0.000347411)
(4.98154e-06 0 -0.000326591)
(-4.1894e-06 0 -0.000282334)
(0.00010899 0 -0.000184216)
(0.000171847 0 -9.44481e-05)
(0.000190378 0 -2.43586e-05)
(0.00019454 0 -1.54352e-05)
(0.000195838 0 2.4969e-05)
(0.000194346 0 3.87934e-05)
(0.000205487 0 1.11916e-05)
(0.000239693 0 2.18184e-05)
(0.000227078 0 0.000126713)
(0.000217122 0 0.000139995)
(0.000194313 0 0.000159542)
(0.000160578 0 0.00017813)
(0.000170606 0 0.000130104)
(0.000109356 0 7.04428e-05)
(-0.00014832 0 0.000267386)
(-0.000440585 0 0.000513992)
(6.43944e-06 0 0.000224124)
(-7.36659e-13 0 3.65473e-13)
(-2.63514e-12 0 1.94911e-13)
(-1.31776e-12 0 2.77227e-14)
(-1.20826e-12 0 -1.16802e-13)
(-1.11234e-12 0 -2.30958e-13)
(-1.01557e-12 0 -3.20442e-13)
(-9.13285e-13 0 -3.89521e-13)
(-8.05159e-13 0 -4.40694e-13)
(-6.92729e-13 0 -4.75578e-13)
(-5.78205e-13 0 -4.95477e-13)
(-4.63974e-13 0 -5.01745e-13)
(-3.52291e-13 0 -4.95873e-13)
(-2.4528e-13 0 -4.7941e-13)
(-1.4488e-13 0 -4.54011e-13)
(-5.25662e-14 0 -4.21396e-13)
(3.06782e-14 0 -3.83255e-13)
(1.0418e-13 0 -3.41152e-13)
(1.6749e-13 0 -2.96481e-13)
(2.20395e-13 0 -2.50475e-13)
(2.62932e-13 0 -2.04227e-13)
(2.95365e-13 0 -1.58697e-13)
(3.18167e-13 0 -1.147e-13)
(3.31971e-13 0 -7.29e-14)
(3.37504e-13 0 -3.38017e-14)
(3.35522e-13 0 2.24459e-15)
(3.2678e-13 0 3.50329e-14)
(3.12036e-13 0 6.44842e-14)
(2.92047e-13 0 9.06212e-14)
(2.67548e-13 0 1.13534e-13)
(2.39229e-13 0 1.33344e-13)
(2.07712e-13 0 1.50168e-13)
(1.73545e-13 0 1.64096e-13)
(1.37219e-13 0 1.75184e-13)
(9.92004e-14 0 1.8346e-13)
(5.99524e-14 0 1.88944e-13)
(2.00395e-14 0 1.91648e-13)
(-3.07109e-05 0 0.000156464)
(1.86252e-05 0 0.000206393)
(-0.00019125 0 0.000153514)
(-0.000333805 0 0.000128298)
(-0.00023155 0 0.000380921)
(-0.000423778 0 0.000464019)
(-0.000450536 0 0.000616628)
(-0.000530742 0 0.000611793)
(-0.000557242 0 0.00059487)
(-0.000625497 0 0.000502046)
(-0.000673282 0 0.000430231)
(-0.000740586 0 0.000343049)
(-0.000786784 0 0.000243799)
(-0.000890716 0 0.000121838)
(-0.000925598 0 0.000146155)
(-0.00093518 0 0.000140892)
(-0.000967392 0 -1.60145e-05)
(-0.00102972 0 -2.62315e-05)
(-0.00106271 0 1.35643e-05)
(-0.00107151 0 -7.31699e-05)
(-0.0010968 0 -0.000126922)
(-0.00112234 0 -0.000139155)
(-0.00112394 0 -0.000206293)
(-0.00113529 0 -0.000177792)
(-0.00114397 0 -0.000132596)
(-0.00114037 0 -8.77512e-05)
(-0.0011475 0 -2.92772e-05)
(-0.00117256 0 4.14462e-05)
(-0.00117955 0 5.32732e-05)
(-0.00110107 0 0.000426566)
(-0.00110982 0 0.000277158)
(-0.00109094 0 0.000317767)
(-0.0010861 0 0.000312551)
(-0.00107259 0 0.000250998)
(-0.00106704 0 0.000194635)
(-0.00106658 0 0.000184431)
(-0.00107179 0 0.000179073)
(-0.00104638 0 0.000162013)
(-0.00102441 0 0.000167634)
(-0.00102447 0 0.000166527)
(-0.00102785 0 9.1878e-05)
(-0.000988377 0 7.3954e-05)
(-0.000977422 0 4.76614e-05)
(-0.000979335 0 1.07671e-05)
(-0.000976921 0 -1.92206e-05)
(-0.000974878 0 -8.10945e-05)
(-0.000977877 0 -0.000105939)
(-0.000893939 0 -0.000260398)
(-0.000834612 0 -0.000314278)
(-0.000808818 0 -0.000361852)
(-0.000692776 0 -0.000590324)
(-0.000670175 0 -0.000658182)
(-0.000533142 0 -0.000794938)
(-0.000470738 0 -0.000852917)
(-0.000388762 0 -0.00087999)
(-0.000344898 0 -0.000841647)
(5.478e-06 0 -0.000643527)
(-6.6344e-06 0 -0.000219457)
(8.66343e-05 0 -8.51747e-05)
(1.86916e-05 0 -7.92021e-05)
(-7.59577e-05 0 -0.000164159)
(-0.000103864 0 -0.000253731)
(-0.000141474 0 -0.000333727)
(-9.1063e-05 0 -0.000379657)
(-8.25899e-05 0 -0.000385442)
(-4.18432e-05 0 -0.000372491)
(3.47173e-05 0 -0.000317819)
(6.36047e-06 0 -0.000282212)
(0.000132894 0 -0.000127413)
(0.000164663 0 -2.94175e-05)
(0.000164056 0 -3.98914e-06)
(0.000158669 0 9.50999e-06)
(0.000162881 0 6.70214e-06)
(0.00017667 0 3.0021e-05)
(0.000195743 0 4.42557e-05)
(0.000162614 0 0.000133996)
(0.000162741 0 0.000147447)
(0.000152261 0 0.00017961)
(0.000115778 0 0.000204227)
(0.000118786 0 0.000176556)
(6.7544e-05 0 0.000140041)
(-0.000245102 0 0.000344838)
(-0.000514206 0 0.000444876)
(7.24813e-06 0 0.000139448)
(-9.014e-13 0 2.95062e-13)
(-2.7503e-12 0 3.77841e-14)
(-1.45287e-12 0 -9.67124e-14)
(-1.33064e-12 0 -2.23921e-13)
(-1.21453e-12 0 -3.35517e-13)
(-1.09756e-12 0 -4.29061e-13)
(-9.76291e-13 0 -5.03794e-13)
(-8.50332e-13 0 -5.59755e-13)
(-7.21168e-13 0 -5.97423e-13)
(-5.91131e-13 0 -6.17633e-13)
(-4.62842e-13 0 -6.21671e-13)
(-3.3873e-13 0 -6.11195e-13)
(-2.2104e-13 0 -5.88045e-13)
(-1.11816e-13 0 -5.5424e-13)
(-1.25589e-14 0 -5.11883e-13)
(7.58172e-14 0 -4.63068e-13)
(1.52792e-13 0 -4.09761e-13)
(2.18097e-13 0 -3.53738e-13)
(2.71695e-13 0 -2.96562e-13)
(3.1379e-13 0 -2.39588e-13)
(3.44815e-13 0 -1.83961e-13)
(3.65419e-13 0 -1.3061e-13)
(3.76415e-13 0 -8.0249e-14)
(3.78706e-13 0 -3.33892e-14)
(3.73208e-13 0 9.64015e-15)
(3.60818e-13 0 4.86629e-14)
(3.42408e-13 0 8.3629e-14)
(3.18822e-13 0 1.14587e-13)
(2.90845e-13 0 1.41653e-13)
(2.5918e-13 0 1.64976e-13)
(2.24432e-13 0 1.84704e-13)
(1.8712e-13 0 2.00962e-13)
(1.47706e-13 0 2.13841e-13)
(1.06638e-13 0 2.23413e-13)
(6.43686e-14 0 2.29728e-13)
(2.14954e-14 0 2.3283e-13)
(-7.7895e-05 0 0.000202073)
(-0.000191769 0 0.000208055)
(-5.37968e-05 0 0.000294044)
(-0.000246211 0 0.00030553)
(-0.000269033 0 0.000482542)
(-0.00035901 0 0.000597556)
(-0.000450799 0 0.000650267)
(-0.000511111 0 0.000637165)
(-0.000553546 0 0.000599113)
(-0.000601874 0 0.000536006)
(-0.000651173 0 0.000474109)
(-0.000722585 0 0.00037376)
(-0.000796801 0 0.000232003)
(-0.000858169 0 0.000206828)
(-0.000874529 0 0.000221854)
(-0.000892568 0 0.00022002)
(-0.00100398 0 8.22595e-05)
(-0.0010439 0 7.80836e-05)
(-0.00104814 0 4.35417e-05)
(-0.00107969 0 -9.3303e-05)
(-0.00113903 0 -9.27819e-05)
(-0.00116216 0 -0.000111591)
(-0.00115998 0 -0.000175246)
(-0.0011758 0 -0.000135219)
(-0.00119093 0 -0.00010457)
(-0.00118691 0 -9.16403e-05)
(-0.00118111 0 -2.79004e-06)
(-0.00118045 0 0.000139252)
(-0.00117542 0 0.000103468)
(-0.0011236 0 0.000268791)
(-0.00110595 0 0.000277569)
(-0.00110145 0 0.000302612)
(-0.00106342 0 0.0003339)
(-0.00105541 0 0.000263674)
(-0.0010442 0 0.000179671)
(-0.00102632 0 0.000191184)
(-0.00103335 0 0.000151975)
(-0.00101871 0 6.47524e-05)
(-0.000971736 0 0.000113891)
(-0.000946493 0 0.000170405)
(-0.000936961 0 0.00019072)
(-0.000934686 0 -6.5552e-06)
(-0.000888861 0 -1.05759e-05)
(-0.000867217 0 2.37157e-05)
(-0.000857408 0 -1.99429e-05)
(-0.000856218 0 -5.62706e-05)
(-0.000867839 0 -7.74219e-05)
(-0.000764447 0 -0.000406995)
(-0.000745743 0 -0.00034095)
(-0.000705503 0 -0.000401397)
(-0.000570278 0 -0.000650998)
(-0.000605129 0 -0.000701476)
(-0.000513274 0 -0.000851941)
(-0.000465646 0 -0.000946952)
(-0.00042433 0 -0.000987559)
(-0.000242325 0 -0.00101305)
(-0.000201278 0 -0.000747289)
(-0.000192762 0 -0.00034033)
(1.62743e-05 0 -8.0151e-05)
(1.10948e-05 0 -1.9979e-05)
(-6.76766e-05 0 -0.000128116)
(-7.23059e-05 0 -0.000204217)
(-0.000131826 0 -0.000320709)
(-0.000112657 0 -0.000392666)
(-8.41594e-05 0 -0.00041056)
(-8.02868e-05 0 -0.000402913)
(-5.27411e-05 0 -0.000375558)
(1.17212e-05 0 -0.000307489)
(7.03432e-05 0 -0.000215304)
(0.000138113 0 -6.52785e-05)
(0.000136661 0 3.21717e-06)
(0.000133859 0 4.98189e-06)
(0.000136223 0 5.90216e-06)
(0.000140894 0 2.03536e-05)
(0.000147391 0 2.65728e-05)
(0.0001247 0 0.000115034)
(0.000167171 0 0.000129256)
(0.00013254 0 0.000202821)
(0.000155726 0 0.000207683)
(4.78915e-05 0 0.000258011)
(5.97147e-05 0 0.00025808)
(-0.000163554 0 0.000359879)
(-0.000560218 0 0.000320561)
(7.71878e-06 0 2.9525e-05)
(-1.03929e-12 0 1.79194e-13)
(-2.89792e-12 0 -1.12267e-13)
(-1.57875e-12 0 -2.28176e-13)
(-1.44675e-12 0 -3.45996e-13)
(-1.31748e-12 0 -4.57704e-13)
(-1.18384e-12 0 -5.56126e-13)
(-1.04398e-12 0 -6.366e-13)
(-8.98788e-13 0 -6.96969e-13)
(-7.50607e-13 0 -7.36644e-13)
(-6.02454e-13 0 -7.56003e-13)
(-4.57537e-13 0 -7.563e-13)
(-3.18665e-13 0 -7.39406e-13)
(-1.88325e-13 0 -7.07551e-13)
(-6.87185e-14 0 -6.63223e-13)
(3.86057e-14 0 -6.09021e-13)
(1.32801e-13 0 -5.47522e-13)
(2.1351e-13 0 -4.81161e-13)
(2.80689e-13 0 -4.12141e-13)
(3.34545e-13 0 -3.42387e-13)
(3.75533e-13 0 -2.73534e-13)
(4.04344e-13 0 -2.06906e-13)
(4.21879e-13 0 -1.43526e-13)
(4.29191e-13 0 -8.41286e-14)
(4.27393e-13 0 -2.91942e-14)
(4.17574e-13 0 2.10036e-14)
(4.00769e-13 0 6.63482e-14)
(3.77961e-13 0 1.0684e-13)
(3.50071e-13 0 1.42569e-13)
(3.17937e-13 0 1.73686e-13)
(2.8228e-13 0 2.00378e-13)
(2.43697e-13 0 2.22841e-13)
(2.02682e-13 0 2.41252e-13)
(1.5967e-13 0 2.55763e-13)
(1.15087e-13 0 2.66498e-13)
(6.93692e-14 0 2.73558e-13)
(2.31411e-14 0 2.7702e-13)
(-1.24585e-05 0 0.000271527)
(-7.08101e-05 0 0.000323247)
(-0.000144458 0 0.000349932)
(-0.000207919 0 0.000402568)
(-0.000413946 0 0.000542389)
(-0.000456641 0 0.000654318)
(-0.000553942 0 0.000640239)
(-0.000500231 0 0.00067952)
(-0.00052689 0 0.000645072)
(-0.00054572 0 0.000602559)
(-0.0005837 0 0.000551335)
(-0.000606501 0 0.0005079)
(-0.000678447 0 0.000407603)
(-0.000779611 0 0.00028541)
(-0.000809883 0 0.000232248)
(-0.000873033 0 0.00013174)
(-0.000936239 0 0.000130974)
(-0.000951652 0 0.000136184)
(-0.000968448 0 5.20668e-05)
(-0.00106622 0 -4.42566e-05)
(-0.00112018 0 -3.67242e-05)
(-0.00114052 0 -5.94377e-05)
(-0.00115224 0 -0.000162075)
(-0.00118571 0 -0.00016493)
(-0.00122185 0 -0.000106467)
(-0.00122651 0 -0.000118645)
(-0.00119627 0 -2.06222e-05)
(-0.00115742 0 6.59551e-05)
(-0.00113649 0 0.000116948)
(-0.00111784 0 0.000180345)
(-0.00109487 0 0.000281923)
(-0.00105599 0 0.000324336)
(-0.00100218 0 0.000335355)
(-0.000997417 0 0.000280325)
(-0.00100119 0 0.000146627)
(-0.000963006 0 0.000111041)
(-0.00093974 0 0.000182667)
(-0.000947993 0 0.000111737)
(-0.000923768 0 0.000112067)
(-0.00086824 0 8.01501e-05)
(-0.000845765 0 8.0464e-05)
(-0.0008453 0 7.7696e-05)
(-0.000826537 0 -1.4391e-06)
(-0.00077539 0 -6.35326e-05)
(-0.000741172 0 -5.61517e-05)
(-0.000723031 0 -9.36674e-05)
(-0.000712764 0 -0.000175293)
(-0.000669963 0 -0.000315265)
(-0.000595835 0 -0.000460541)
(-0.000518213 0 -0.000560661)
(-0.000467293 0 -0.000653397)
(-0.000573429 0 -0.000684271)
(-0.00048597 0 -0.000889026)
(-0.000452591 0 -0.00100807)
(-0.000403475 0 -0.00107341)
(-0.000410997 0 -0.00105543)
(-0.000348089 0 -0.000806016)