0 	-14.2176
0.010101 	-4.94471
0.020202 	-6.69295
0.030303 	-8.60417
0.040404 	-8.60417
0.0505051 	-8.60417
0.0606061 	-8.60417
0.0707071 	-8.60417
0.0808081 	-8.60417
0.0909091 	-8.60417
