0 	0 	0 	0
0.010101 	-3.63013e-28 	-5.02213e-28 	-1.34559e-27
0.020202 	-1.86017e-27 	-4.20698e-28 	-1.08867e-27
