/*--------------------------------*- C++ -*----------------------------------*\
  =========                 |
  \\      /  F ield         | OpenFOAM: The Open Source CFD Toolbox
   \\    /   O peration     | Website:  https://openfoam.org
    \\  /    A nd           | Version:  6
     \\/     M anipulation  |
\*---------------------------------------------------------------------------*/
FoamFile
{
    version     2.0;
    format      ascii;
    class       surfaceScalarField;
    location    "2300";
    object      phi;
}
// * * * * * * * * * * * * * * * * * * * * * * * * * * * * * * * * * * * * * //

dimensions      [0 3 -1 0 0 0 0];

internalField   nonuniform List<scalar> 
9440
(
-3.16282e-11
3.16282e-11
-1.51159e-10
1.19528e-10
-4.33573e-10
2.82411e-10
-6.70016e-10
2.36441e-10
-8.52652e-10
1.82635e-10
-1.23236e-09
3.79704e-10
-1.48511e-09
2.52748e-10
-1.69482e-09
2.09709e-10
-1.84147e-09
1.46646e-10
-1.91852e-09
7.70518e-11
-1.95681e-09
3.82926e-11
-1.96887e-09
1.20562e-11
-1.95026e-09
-1.86121e-11
-1.87749e-09
-7.27707e-11
-1.7695e-09
-1.07993e-10
-1.68218e-09
-8.73249e-11
-1.60302e-09
-7.91579e-11
-1.54749e-09
-5.55328e-11
-1.47983e-09
-6.76551e-11
-1.3635e-09
-1.16332e-10
-1.24215e-09
-1.2135e-10
-1.15926e-09
-8.28876e-11
-1.11146e-09
-4.78007e-11
-1.11509e-09
3.62616e-12
-1.14625e-09
3.11527e-11
-1.26392e-09
1.17678e-10
-1.47292e-09
2.08999e-10
-1.71927e-09
2.46348e-10
-1.88433e-09
1.65052e-10
-2.01831e-09
1.33982e-10
-2.13529e-09
1.16978e-10
-2.21468e-09
7.93942e-11
-2.27668e-09
6.19948e-11
-2.30238e-09
2.57004e-11
-2.29888e-09
-3.49778e-12
-2.28694e-09
-1.19436e-11
-2.28037e-09
-6.56819e-12
-2.24006e-09
-4.03064e-11
-2.22076e-09
-1.93071e-11
-2.22117e-09
4.10342e-13
-2.21304e-09
-8.13168e-12
-2.00842e-09
-2.04615e-10
-1.91744e-09
-9.09834e-11
-1.77835e-09
-1.39089e-10
-1.68099e-09
-9.7362e-11
-1.43015e-09
-2.50841e-10
-1.15171e-09
-2.78438e-10
-1.02643e-09
-1.2528e-10
-9.1017e-10
-1.16263e-10
-6.93872e-10
-2.16298e-10
-5.77442e-10
-1.16431e-10
-4.61808e-10
-1.15635e-10
-3.93593e-10
-6.82158e-11
-1.70805e-10
-2.22789e-10
-1.32952e-10
-3.78542e-11
-7.14089e-11
-6.15439e-11
-3.44907e-11
-3.69194e-11
1.01453e-10
-1.35945e-10
1.81342e-10
-7.98897e-11
2.81334e-10
-9.99934e-11
4.18971e-10
-1.37638e-10
4.83912e-10
-6.49423e-11
8.4256e-10
-3.58649e-10
9.42057e-10
-9.94983e-11
8.57031e-10
8.50254e-11
1.17407e-09
-3.17039e-10
1.40869e-09
-2.34618e-10
1.52006e-09
-1.11372e-10
1.64715e-09
-1.27094e-10
1.83862e-09
-1.91477e-10
1.83539e-09
3.2326e-12
1.76653e-09
6.88614e-11
1.57816e-09
1.88368e-10
1.48194e-09
9.62253e-11
1.22281e-09
2.59124e-10
1.11322e-09
1.09591e-10
8.9158e-10
2.21643e-10
7.12354e-10
1.79228e-10
6.01797e-10
1.10558e-10
4.26279e-10
1.75519e-10
-1.32795e-15
4.26282e-10
5.93167e-19
3.60799e-19
4.7233e-19
1.20837e-19
3.38355e-19
1.35752e-19
2.42345e-19
9.78389e-20
1.82065e-19
6.20077e-20
1.4939e-19
3.42814e-20
1.38222e-19
1.2637e-20
1.44335e-19
-4.78194e-21
1.64927e-19
-1.93952e-20
1.97632e-19
-3.16621e-20
2.40113e-19
-4.16148e-20
2.89928e-19
-4.91531e-20
3.44573e-19
-5.42036e-20
4.01561e-19
-5.67853e-20
4.5852e-19
-5.70208e-20
5.13294e-19
-5.51193e-20
5.6401e-19
-5.13534e-20
6.09122e-19
-4.60328e-20
6.47423e-19
-3.94794e-20
6.78044e-19
-3.20103e-20
7.00428e-19
-2.39258e-20
7.14292e-19
-1.55001e-20
7.19591e-19
-6.97417e-21
7.16483e-19
1.44653e-21
7.05279e-19
9.5935e-21
6.86403e-19
1.7334e-20
6.6035e-19
2.45713e-20
6.27661e-19
3.12414e-20
5.88906e-19
3.73101e-20
5.44684e-19
4.2766e-20
4.95612e-19
4.76137e-20
4.42314e-19
5.18661e-20
3.85406e-19
5.554e-20
3.25489e-19
5.86527e-20
2.63133e-19
6.12201e-20
1.98879e-19
6.32548e-20
1.33246e-19
6.47615e-20
6.67531e-20
6.57225e-20
6.60465e-20
-6.76731e-11
9.92984e-11
-1.06614e-10
1.58464e-10
-2.48876e-10
4.2467e-10
-8.51149e-10
8.3871e-10
-1.25028e-09
5.81761e-10
-1.18551e-09
3.14935e-10
-1.48411e-09
5.51341e-10
-1.63695e-09
3.62552e-10
-1.74468e-09
2.54364e-10
-1.9161e-09
2.48478e-10
-1.96044e-09
8.2625e-11
-2.01712e-09
6.8738e-11
-2.01944e-09
-1.62981e-11
-2.00015e-09
-9.20609e-11
-1.9863e-09
-1.21842e-10
-1.92355e-09
-1.50079e-10
-1.85804e-09
-1.44668e-10
-1.80249e-09
-1.11082e-10
-1.75377e-09
-1.16384e-10
-1.65524e-09
-2.14857e-10
-1.57453e-09
-2.02062e-10
-1.5167e-09
-1.40719e-10
-1.44883e-09
-1.15676e-10
-1.40692e-09
-3.82859e-11
-1.41424e-09
3.84759e-11
-1.48749e-09
1.90922e-10
-1.62162e-09
3.43127e-10
-1.80506e-09
4.29787e-10
-2.03025e-09
3.90246e-10
-2.20103e-09
3.04758e-10
-2.25027e-09
1.66217e-10
-2.2745e-09
1.03627e-10
-2.31548e-09
1.02966e-10
-2.35611e-09
6.63296e-11
-2.38335e-09
2.37444e-11
-2.4071e-09
1.18111e-11
-2.41477e-09
1.09551e-12
-2.3578e-09
-9.7274e-11
-2.30993e-09
-6.71829e-11
-2.2817e-09
-2.78147e-11
-2.24203e-09
-4.78048e-11
-2.10621e-09
-3.40433e-10
-1.90491e-09
-2.92286e-10
-1.80419e-09
-2.39812e-10
-1.68273e-09
-2.18821e-10
-1.49328e-09
-4.40296e-10
-1.22729e-09
-5.44421e-10
-1.14903e-09
-2.03542e-10
-9.93083e-10
-2.72215e-10
-7.95072e-10
-4.14311e-10
-7.00586e-10
-2.1092e-10
-5.95718e-10
-2.20505e-10
-4.26749e-10
-2.37186e-10
-3.71539e-10
-2.78001e-10
-2.81897e-10
-1.27498e-10
-2.60628e-10
-8.28147e-11
-1.78438e-10
-1.19112e-10
-6.70967e-11
-2.47288e-10
1.54519e-11
-1.6244e-10
1.44852e-10
-2.29395e-10
2.65167e-10
-2.57955e-10
4.17604e-10
-2.17381e-10
5.67071e-10
-5.08117e-10
8.14381e-10
-3.4681e-10
9.06183e-10
-6.77885e-12
1.05804e-09
-4.68899e-10
1.28392e-09
-4.60498e-10
1.39727e-09
-2.2472e-10
1.5253e-09
-2.55132e-10
1.69543e-09
-3.61608e-10
1.73178e-09
-3.31158e-11
1.62972e-09
1.70921e-10
1.54822e-09
2.69866e-10
1.35286e-09
2.91588e-10
1.21819e-09
3.93796e-10
1.07584e-09
2.51949e-10
9.81262e-10
3.16219e-10
8.04585e-10
3.55907e-10
5.79619e-10
3.35527e-10
4.08643e-10
3.46499e-10
-8.3593e-16
8.34928e-10
9.53408e-19
2.57448e-18
4.82834e-19
5.92931e-19
2.97415e-19
3.24215e-19
2.04726e-19
1.93562e-19
1.53667e-19
1.15892e-19
1.2781e-19
6.27274e-20
1.20803e-19
2.19755e-20
1.29722e-19
-1.16537e-20
1.5266e-19
-4.05922e-20
1.8768e-19
-6.52699e-20
2.32574e-19
-8.54572e-20
2.84878e-19
-1.00803e-19
3.41991e-19
-1.11094e-19
4.01325e-19
-1.16351e-19
4.60422e-19
-1.16826e-19
5.17059e-19
-1.12953e-19
5.6933e-19
-1.05288e-19
6.15675e-19
-9.4458e-20
6.54892e-19
-8.11192e-20
6.86129e-19
-6.59233e-20
7.08854e-19
-4.94901e-20
7.22818e-19
-3.23828e-20
7.28012e-19
-1.50976e-20
7.2463e-19
1.94253e-21
7.13019e-19
1.8391e-20
6.9364e-19
3.39804e-20
6.6702e-19
4.8525e-20
6.33729e-19
6.19137e-20
5.94362e-19
7.40956e-20
5.49532e-19
8.50618e-20
4.99865e-19
9.48265e-20
4.45988e-19
1.03413e-19
3.88519e-19
1.10848e-19
3.28056e-19
1.17155e-19
2.65168e-19
1.22359e-19
2.00386e-19
1.26481e-19
1.34207e-19
1.2954e-19
6.70771e-20
1.31551e-19
1.3254e-19
-1.236e-10
2.22896e-10
-3.67594e-10
4.02454e-10
-4.91936e-10
5.49009e-10
-5.24866e-10
8.71636e-10
-9.55155e-10
1.01205e-09
-1.30675e-09
6.66531e-10
-1.35348e-09
5.98068e-10
-1.64594e-09
6.55001e-10
-1.69601e-09
3.04432e-10
-1.86224e-09
4.14707e-10
-1.94623e-09
1.66616e-10
-1.94846e-09
7.09635e-11
-2.03214e-09
6.73852e-11
-2.07464e-09
-4.95603e-11
-2.10495e-09
-9.15358e-11
-2.10637e-09
-1.48666e-10
-2.10543e-09
-1.45601e-10
-2.07215e-09
-1.44371e-10
-2.01921e-09
-1.69325e-10
-2.0173e-09
-2.16763e-10
-1.97671e-09
-2.42662e-10
-1.88623e-09
-2.31201e-10
-1.84967e-09
-1.52229e-10
-1.84006e-09
-4.78966e-11
-1.84259e-09
4.10018e-11
-1.89713e-09
2.45456e-10
-2.00696e-09
4.52962e-10
-2.07228e-09
4.95101e-10
-2.17285e-09
4.90814e-10
-2.26697e-09
3.98882e-10
-2.34246e-09
2.41703e-10
-2.46532e-09
2.26488e-10
-2.56548e-09
2.0313e-10
-2.64501e-09
1.45853e-10
-2.69514e-09
7.38716e-11
-2.7108e-09
2.74695e-11
-2.67291e-09
-3.67874e-11
-2.62101e-09
-1.49178e-10
-2.52212e-09
-1.66075e-10
-2.44463e-09
-1.05308e-10
-2.34701e-09
-1.45424e-10
-2.3182e-09
-3.69243e-10
-2.02722e-09
-5.83269e-10
-1.89725e-09
-3.69777e-10
-1.70513e-09
-4.10943e-10
-1.55731e-09
-5.88113e-10
-1.29138e-09
-8.10354e-10
-1.21528e-09
-2.79648e-10
-9.77153e-10
-5.10341e-10
-8.43602e-10
-5.47863e-10
-7.00067e-10
-3.54456e-10
-5.80374e-10
-3.40199e-10
-4.76324e-10
-3.41238e-10
-5.10449e-10
-2.43878e-10
-4.226e-10
-2.15349e-10
-3.90584e-10
-1.14832e-10
-3.02933e-10
-2.06765e-10
-2.6021e-10
-2.90013e-10
-1.59058e-10
-2.63594e-10
-3.83569e-11
-3.50098e-10
6.35365e-11
-3.5985e-10
2.90355e-10
-4.44201e-10
3.56201e-10
-5.73965e-10
5.80959e-10
-5.71569e-10
8.92545e-10
-3.18366e-10
9.97706e-10
-5.74061e-10
1.23031e-09
-6.931e-10
1.39636e-09
-3.90773e-10
1.42387e-09
-2.82642e-10
1.58825e-09
-5.25989e-10
1.61176e-09
-5.66305e-11
1.55046e-09
2.32225e-10
1.46178e-09
3.58542e-10
1.33969e-09
4.13683e-10
1.22749e-09
5.05994e-10
1.06823e-09
4.11213e-10
9.17209e-10
4.67241e-10
7.65475e-10
5.07643e-10
5.81738e-10
5.19267e-10
3.50773e-10
5.77467e-10
-7.18552e-16
1.1857e-09
2.02125e-19
2.71e-18
2.14833e-19
5.81554e-19
1.67429e-19
3.74208e-19
1.2769e-19
2.35879e-19
1.0111e-19
1.44865e-19
8.74611e-20
7.8538e-20
8.7174e-20
2.41621e-20
1.00784e-19
-2.36339e-20
1.27983e-19
-6.6455e-20
1.67492e-19
-1.03737e-19
2.17229e-19
-1.34448e-19
2.74587e-19
-1.57732e-19
3.36733e-19
-1.73151e-19
4.0085e-19
-1.80732e-19
4.64295e-19
-1.80898e-19
5.24724e-19
-1.74369e-19
5.8016e-19
-1.62056e-19
6.29014e-19
-1.44969e-19
6.70088e-19
-1.24144e-19
7.02562e-19
-1.00598e-19
7.25961e-19
-7.52837e-20
7.40103e-19
-4.90567e-20
7.45052e-19
-2.26595e-20
7.41078e-19
3.28443e-21
7.28608e-19
2.827e-20
7.08185e-19
5.19093e-20
6.80409e-19
7.39302e-20
6.45911e-19
9.41677e-20
6.05328e-19
1.12546e-19
5.59297e-19
1.29053e-19
5.08451e-19
1.43714e-19
4.53422e-19
1.56574e-19
3.94826e-19
1.67683e-19
3.3326e-19
1.77088e-19
2.6929e-19
1.84836e-19
2.03445e-19
1.90966e-19
1.36218e-19
1.95517e-19
6.80663e-20
1.9852e-19
2.00004e-19
-2.33704e-10
4.56598e-10
-4.49407e-10
6.18154e-10
-7.67351e-10
8.66951e-10
-8.49368e-10
9.5365e-10
-9.34039e-10
1.09672e-09
-1.21086e-09
9.43345e-10
-1.27497e-09
6.62185e-10
-1.55614e-09
9.36164e-10
-1.69119e-09
4.39478e-10
-1.78318e-09
5.06697e-10
-1.93611e-09
3.19548e-10
-2.01629e-09
1.51143e-10
-2.11317e-09
1.64258e-10
-2.1896e-09
2.6873e-11
-2.20716e-09
-7.39817e-11
-2.23583e-09
-1.19999e-10
-2.27458e-09
-1.06848e-10
-2.2752e-09
-1.43756e-10
-2.26529e-09
-1.79235e-10
-2.27489e-09
-2.07159e-10
-2.27208e-09
-2.45479e-10
-2.2787e-09
-2.24583e-10
-2.28088e-09
-1.5005e-10
-2.26904e-09
-5.97354e-11
-2.28809e-09
6.00453e-11
-2.28323e-09
2.40596e-10
-2.33927e-09
5.09006e-10
-2.38191e-09
5.37734e-10
-2.40318e-09
5.12085e-10
-2.50084e-09
4.96542e-10
-2.61076e-09
3.51619e-10
-2.69516e-09
3.10891e-10
-2.7491e-09
2.57064e-10
-2.80992e-09
2.06674e-10
-2.82881e-09
9.27609e-11
-2.77227e-09
-2.90719e-11
-2.69436e-09
-1.14698e-10
-2.68516e-09
-1.58382e-10
-2.5533e-09
-2.97929e-10
-2.52754e-09
-1.31067e-10
-2.38627e-09
-2.86704e-10
-2.32577e-09
-4.29737e-10
-2.17005e-09
-7.38989e-10
-1.84198e-09
-6.97848e-10
-1.65698e-09
-5.95949e-10
-1.48589e-09
-7.59204e-10
-1.21533e-09
-1.08091e-09
-1.07967e-09
-4.15314e-10
-7.42579e-10
-8.47433e-10
-6.32868e-10
-6.57576e-10
-5.1891e-10
-4.68415e-10
-4.40368e-10
-4.18744e-10
-4.0277e-10
-3.78837e-10
-3.95242e-10
-2.51408e-10
-3.99525e-10
-2.11068e-10
-3.55222e-10
-1.59136e-10
-2.96876e-10
-2.65114e-10
-2.4095e-10
-3.4594e-10
-1.49532e-10
-3.55014e-10
-4.31924e-11
-4.56439e-10
8.47611e-11
-4.87805e-10
2.11328e-10
-5.7077e-10
2.18049e-10
-5.80687e-10
3.9669e-10
-7.50211e-10
8.15074e-10
-7.36752e-10
9.94646e-10
-7.53634e-10
1.10509e-09
-8.0355e-10
1.29803e-09
-5.8371e-10
1.43896e-09
-4.23575e-10
1.48117e-09
-5.682e-10
1.53813e-09
-1.13586e-10
1.56534e-09
2.05016e-10
1.45552e-09
4.68362e-10
1.33635e-09
5.32853e-10
1.1751e-09
6.67244e-10
1.00861e-09
5.77706e-10
8.63963e-10
6.11891e-10
7.09672e-10
6.61936e-10
5.2272e-10
7.06221e-10
3.52898e-10
7.4729e-10
-6.07766e-16
1.5386e-09
-8.65158e-21
3.62586e-18
8.19878e-21
5.65983e-19
2.97658e-20
3.55019e-19
3.73048e-20
2.30718e-19
3.53844e-20
1.48989e-19
3.34381e-20
8.24575e-20
3.93779e-20
1.98996e-20
5.79625e-20
-4.08358e-20
9.07007e-20
-9.81116e-20
1.36781e-19
-1.4903e-19
1.93946e-19
-1.91107e-19
2.59167e-19
-2.22729e-19
3.29152e-19
-2.43199e-19
4.00685e-19
-2.52607e-19
4.70824e-19
-2.51658e-19
5.37037e-19
-2.41475e-19
5.97248e-19
-2.23431e-19
6.49839e-19
-1.99001e-19
6.93633e-19
-1.69665e-19
7.27876e-19
-1.36839e-19
7.52188e-19
-1.01831e-19
7.665e-19
-6.57959e-20
7.70996e-19
-2.97191e-20
7.66064e-19
5.58875e-21
7.52248e-19
3.94788e-20
7.30205e-19
7.14551e-20
7.00646e-19
1.01166e-19
6.64289e-19
1.28396e-19
6.21835e-19
1.53047e-19
5.73958e-19
1.75111e-19
5.21312e-19
1.94634e-19
4.64531e-19
2.11698e-19
4.04232e-19
2.26389e-19
3.41007e-19
2.38793e-19
2.7542e-19
2.4899e-19
2.07995e-19
2.57047e-19
1.39221e-19
2.63024e-19
6.95508e-20
2.66969e-19
2.68916e-19
-3.14003e-10
7.70599e-10
-6.16318e-10
9.20466e-10
-9.4406e-10
1.19469e-09
-1.22429e-09
1.23387e-09
-1.18933e-09
1.06176e-09
-1.23168e-09
9.85686e-10
-1.37161e-09
8.02112e-10
-1.39515e-09
9.59705e-10
-1.66167e-09
7.05997e-10
-1.79656e-09
6.41579e-10
-1.91696e-09
4.39953e-10
-2.06698e-09
3.0116e-10
-2.15094e-09
2.4822e-10
-2.18903e-09
6.49584e-11
-2.20114e-09
-6.18742e-11
-2.34006e-09
1.89169e-11
-2.4018e-09
-4.511e-11
-2.40901e-09
-1.3654e-10
-2.4432e-09
-1.45054e-10
-2.48908e-09
-1.61273e-10
-2.49012e-09
-2.4445e-10
-2.52294e-09
-1.91756e-10
-2.56004e-09
-1.12953e-10
-2.58242e-09
-3.73596e-11
-2.63072e-09
1.08348e-10
-2.62256e-09
2.32429e-10
-2.60978e-09
4.96228e-10
-2.63202e-09
5.59973e-10
-2.67707e-09
5.57138e-10
-2.71774e-09
5.37209e-10
-2.81015e-09
4.44028e-10
-2.84752e-09
3.48254e-10
-2.84322e-09
2.52763e-10
-2.85869e-09
2.22144e-10
-2.81697e-09
5.10431e-11
-2.71139e-09
-1.34655e-10
-2.67357e-09
-1.52516e-10
-2.59858e-09
-2.33374e-10
-2.56312e-09
-3.33386e-10
-2.4874e-09
-2.06796e-10
-2.38458e-09
-3.8952e-10
-2.31886e-09
-4.95461e-10
-2.16919e-09
-8.88662e-10
-1.79565e-09
-1.07138e-09
-1.5741e-09
-8.17501e-10
-1.3213e-09
-1.01201e-09
-1.12898e-09
-1.27324e-09
-8.94717e-10
-6.49575e-10
-4.82307e-10
-1.25984e-09
-3.44859e-10
-7.95026e-10
-1.91914e-10
-6.2136e-10
-1.3171e-10
-4.78949e-10
-1.32855e-10
-3.77694e-10
-1.46172e-10
-2.38092e-10
-1.77983e-10
-1.79258e-10
-1.68092e-10
-1.69028e-10
-1.51842e-10
-2.81365e-10
-1.17807e-10
-3.79977e-10
-3.47664e-11
-4.38056e-10
1.01653e-10
-5.92861e-10
2.77118e-10
-6.63272e-10
4.62335e-10
-7.55988e-10
6.5408e-10
-7.72433e-10
7.8686e-10
-8.82993e-10
9.64629e-10
-9.14522e-10
1.12153e-09
-9.10533e-10
1.14996e-09
-8.31984e-10
1.29668e-09
-7.30431e-10
1.44755e-09
-5.7444e-10
1.38097e-09
-5.01619e-10
1.4546e-09
-1.87226e-10
1.44711e-09
2.12515e-10
1.38552e-09
5.29951e-10
1.25374e-09
6.64628e-10
1.12792e-09
7.93065e-10
1.02795e-09
6.77677e-10
8.82524e-10
7.57321e-10
7.16698e-10
8.27763e-10
5.39166e-10
8.83754e-10
3.86462e-10
8.99996e-10
-4.75579e-16
1.92507e-09
-3.52919e-19
4.52732e-18
-2.02061e-19
4.16332e-19
-9.38824e-20
2.48966e-19
-4.38076e-20
1.82802e-19
-3.05559e-20
1.37741e-19
-2.88369e-20
8.25372e-20
-2.13575e-20
1.39228e-20
6.86736e-22
-6.16931e-20
3.97822e-20
-1.36335e-19
9.47042e-20
-2.0338e-19
1.62324e-19
-2.58423e-19
2.38698e-19
-2.99048e-19
3.19744e-19
-3.24429e-19
4.01634e-19
-3.34906e-19
4.81007e-19
-3.31648e-19
5.55081e-19
-3.16358e-19
6.21678e-19
-2.91019e-19
6.79175e-19
-2.57696e-19
7.26459e-19
-2.18393e-19
7.62885e-19
-1.74983e-19
7.88223e-19
-1.2915e-19
8.02577e-19
-8.23615e-20
8.06304e-19
-3.58404e-20
7.99954e-19
9.42786e-21
7.84224e-19
5.2672e-20
7.59917e-19
9.33099e-20
7.27877e-19
1.30932e-19
6.8894e-19
1.65287e-19
6.43898e-19
1.96267e-19
5.93482e-19
2.23877e-19
5.38375e-19
2.48204e-19
4.79222e-19
2.69373e-19
4.16636e-19
2.87528e-19
3.51203e-19
3.02806e-19
2.83477e-19
3.15331e-19
2.13973e-19
3.25209e-19
1.43166e-19
3.32528e-19
7.14983e-20
3.37356e-19
3.39739e-19
-1.63504e-10
9.34101e-10
-4.49083e-10
1.20604e-09
-5.59668e-10
1.30527e-09
-7.58081e-10
1.43228e-09
-1.01585e-09
1.31952e-09
-1.15952e-09
1.12935e-09
-1.39367e-09
1.03626e-09
-1.46037e-09
1.02641e-09
-1.62134e-09
8.66959e-10
-1.76205e-09
7.82287e-10
-1.89546e-09
5.73366e-10
-2.03873e-09
4.44427e-10
-2.19019e-09
3.99675e-10
-2.31565e-09
1.90418e-10
-2.34856e-09
-2.89623e-11
-2.43648e-09
1.06834e-10
-2.45755e-09
-2.40385e-11
-2.40296e-09
-1.91138e-10
-2.48504e-09
-6.29669e-11
-2.55903e-09
-8.72908e-11
-2.58772e-09
-2.15753e-10
-2.67057e-09
-1.08916e-10
-2.72596e-09
-5.75657e-11
-2.78191e-09
1.85932e-11
-2.83662e-09
1.63058e-10
-2.86283e-09
2.58642e-10
-2.81426e-09
4.47658e-10
-2.7987e-09
5.44411e-10
-2.79623e-09
5.54662e-10
-2.73017e-09
4.71151e-10
-2.73707e-09
4.50924e-10
-2.77749e-09
3.88671e-10
-2.82091e-09
2.96185e-10
-2.81296e-09
2.14196e-10
-2.82039e-09
5.84758e-11
-2.70401e-09
-2.51045e-10
-2.64377e-09
-2.12755e-10
-2.60002e-09
-2.7712e-10
-2.61223e-09
-3.21183e-10
-2.49023e-09
-3.28788e-10
-2.40072e-09
-4.79037e-10
-2.26633e-09
-6.29855e-10
-2.0913e-09
-1.06369e-09
-1.89144e-09
-1.27124e-09
-1.57306e-09
-1.13588e-09
-1.21292e-09
-1.37216e-09
-1.04494e-09
-1.44121e-09
-5.39009e-10
-1.15551e-09
-2.25098e-10
-1.57376e-09
-1.39625e-10
-8.805e-10
-4.0143e-12
-7.56973e-10
7.17441e-11
-5.54709e-10
1.04215e-10
-4.10166e-10
7.68892e-11
-2.10767e-10
3.93266e-11
-1.41697e-10
2.14161e-11
-1.51119e-10
7.31816e-12
-2.67269e-10
3.48055e-11
-4.07466e-10
1.52514e-10
-5.55766e-10
2.97429e-10
-7.37778e-10
4.66837e-10
-8.32681e-10
6.23747e-10
-9.129e-10
7.78216e-10
-9.26904e-10
1.01762e-09
-1.1224e-09
1.19985e-09
-1.09675e-09
1.35048e-09
-1.06117e-09
1.40916e-09
-8.90668e-10
1.43602e-09
-7.57286e-10
1.45694e-09
-5.9536e-10
1.41195e-09
-4.56628e-10
1.39488e-09
-1.70158e-10
1.31101e-09
2.96384e-10
1.28731e-09
5.53651e-10
1.17676e-09
7.75187e-10
1.08659e-09
8.83231e-10
9.95447e-10
7.68821e-10
8.1501e-10
9.37759e-10
6.6896e-10
9.73814e-10
5.43464e-10
1.00925e-09
3.93321e-10
1.05014e-09
-3.43262e-16
2.31839e-09
-7.46853e-19
5.4548e-18
-3.68748e-19
3.93303e-20
-1.59418e-19
4.14699e-20
-8.82721e-20
1.13576e-19
-8.51849e-20
1.3646e-19
-9.72563e-20
9.62381e-20
-9.69734e-20
1.49999e-20
-7.39552e-20
-8.36552e-20
-2.72633e-20
-1.82284e-19
3.96621e-20
-2.69873e-19
1.21698e-19
-3.40288e-19
2.13318e-19
-3.90728e-19
3.09267e-19
-4.20643e-19
4.04892e-19
-4.30986e-19
4.96297e-19
-4.23679e-19
5.8042e-19
-4.01238e-19
6.55001e-19
-3.66452e-19
7.18478e-19
-3.22127e-19
7.6987e-19
-2.70905e-19
8.08717e-19
-2.15179e-19
8.35011e-19
-1.57045e-19
8.49098e-19
-9.82898e-20
8.51572e-19
-4.03689e-20
8.43198e-19
1.5576e-20
8.24862e-19
6.86816e-20
7.97538e-19
1.18316e-19
7.62232e-19
1.64047e-19
7.1992e-19
2.0562e-19
6.71509e-19
2.42941e-19
6.17809e-19
2.76047e-19
5.59545e-19
3.05074e-19
4.97377e-19
3.30214e-19
4.31914e-19
3.51678e-19
3.63728e-19
3.69669e-19
2.93355e-19
3.84371e-19
2.21292e-19
3.95937e-19
1.47994e-19
4.04493e-19
7.38819e-20
4.10131e-19
4.12916e-19
-2.51976e-10
1.18607e-09
-4.03513e-10
1.35758e-09
-5.56062e-10
1.45782e-09
-6.45609e-10
1.52183e-09
-8.39572e-10
1.51349e-09
-1.05492e-09
1.3447e-09
-1.21187e-09
1.1932e-09
-1.34671e-09
1.16125e-09
-1.51841e-09
1.03865e-09
-1.70579e-09
9.69667e-10
-1.82333e-09
6.90904e-10
-1.96594e-09
5.8704e-10
-2.1158e-09
5.49528e-10
-2.24132e-09
3.15939e-10
-2.31921e-09
4.89221e-11
-2.44229e-09
2.29919e-10
-2.53284e-09
6.65039e-11
-2.51326e-09
-2.10717e-10
-2.53554e-09
-4.06905e-11
-2.58151e-09
-4.1322e-11
-2.59282e-09
-2.0444e-10
-2.6633e-09
-3.84407e-11
-2.7458e-09
2.49291e-11
-2.76795e-09
4.07506e-11
-2.79994e-09
1.95044e-10
-2.81196e-09
2.70655e-10
-2.7699e-09
4.05597e-10
-2.76746e-09
5.4197e-10
-2.7495e-09
5.36706e-10
-2.73464e-09
4.56288e-10
-2.71864e-09
4.34929e-10
-2.73472e-09
4.04741e-10
-2.74077e-09
3.02236e-10
-2.71389e-09
1.87317e-10
-2.71901e-09
6.35993e-11
-2.7824e-09
-1.8766e-10
-2.62538e-09
-3.69773e-10
-2.60935e-09
-2.93154e-10
-2.56564e-09
-3.64891e-10
-2.47889e-09
-4.15538e-10
-2.34693e-09
-6.10998e-10
-2.15236e-09
-8.24429e-10
-2.01673e-09
-1.19933e-09
-1.9357e-09
-1.35226e-09
-1.66101e-09
-1.41057e-09
-1.41569e-09
-1.61748e-09
-1.12803e-09
-1.72886e-09
-5.13315e-10
-1.77023e-09
-3.70332e-10
-1.71674e-09
2.40642e-11
-1.2749e-09
3.78503e-10
-1.11141e-09
5.24276e-10
-7.00483e-10
4.67298e-10
-3.5319e-10
3.23561e-10
-6.70314e-11
2.3818e-10
-5.63175e-11
1.90153e-10
-1.03094e-10
1.72963e-10
-2.5008e-10
2.14204e-10
-4.48708e-10
3.28228e-10
-6.69792e-10
4.69863e-10
-8.79415e-10
6.39938e-10
-1.00276e-09
8.27071e-10
-1.10004e-09
1.06632e-09
-1.16616e-09
1.19233e-09
-1.2484e-09
1.29247e-09
-1.1969e-09
1.36252e-09
-1.13122e-09
1.43822e-09
-9.66367e-10
1.45575e-09
-7.74816e-10
1.46876e-09
-6.08365e-10
1.39939e-09
-3.87258e-10
1.30141e-09
-7.21775e-11
1.23551e-09
3.6228e-10
1.14047e-09
6.48687e-10
1.07457e-09
8.41097e-10
1.00351e-09
9.54288e-10
8.69167e-10
9.03164e-10
7.47679e-10
1.05925e-09
6.20003e-10
1.10149e-09
4.97699e-10
1.13156e-09
4.09702e-10
1.13814e-09
-2.42e-16
2.7281e-09
-1.02982e-18
7.42094e-18
-3.6598e-19
-6.23539e-19
-8.67269e-20
-2.3625e-19
-6.48205e-20
9.33283e-20
-1.24853e-19
1.981e-19
-1.78402e-19
1.51247e-19
-1.95629e-19
3.34357e-20
-1.72584e-19
-1.05754e-19
-1.14852e-19
-2.39344e-19
-3.07528e-20
-3.53603e-19
7.12578e-20
-4.42184e-19
1.83402e-19
-5.02982e-19
2.98924e-19
-5.36473e-19
4.12198e-19
-5.44748e-19
5.18738e-19
-5.30881e-19
6.15206e-19
-4.98489e-19
6.99327e-19
-4.51388e-19
7.69699e-19
-3.93302e-19
8.25596e-19
-3.27643e-19
8.66851e-19
-2.57401e-19
8.93767e-19
-1.85123e-19
9.07019e-19
-1.12916e-19
9.07517e-19
-4.24547e-20
8.96303e-19
2.49921e-20
8.74497e-19
8.85097e-20
8.43269e-19
1.47468e-19
8.03805e-19
2.01462e-19
7.57241e-19
2.50282e-19
7.04615e-19
2.93882e-19
6.46836e-19
3.32362e-19
5.84685e-19
3.65925e-19
5.1884e-19
3.94844e-19
4.49905e-19
4.19412e-19
3.7843e-19
4.39914e-19
3.04922e-19
4.56603e-19
2.29847e-19
4.69694e-19
1.53632e-19
4.79356e-19
7.6667e-20
4.85716e-19
4.88858e-19
3.99936e-11
1.14608e-09
-1.18348e-10
1.51592e-09
-4.27668e-10
1.76714e-09
-6.21728e-10
1.71589e-09
-7.85982e-10
1.67774e-09
-9.6162e-10
1.52034e-09
-1.14525e-09
1.37683e-09
-1.27424e-09
1.29024e-09
-1.39152e-09
1.15594e-09
-1.40196e-09
9.80101e-10
-1.63271e-09
9.21653e-10
-1.78934e-09
7.43668e-10
-1.9425e-09
7.02685e-10
-2.10939e-09
4.82826e-10
-2.19042e-09
1.29949e-10
-2.27784e-09
3.1734e-10
-2.38289e-09
1.71551e-10
-2.39381e-09
-1.99799e-10
-2.39342e-09
-4.10796e-11
-2.48054e-09
4.57988e-11
-2.56288e-09
-1.22096e-10
-2.57741e-09
-2.39145e-11
-2.6327e-09
8.02207e-11
-2.6369e-09
4.49453e-11
-2.65558e-09
2.13723e-10
-2.68577e-09
3.00842e-10
-2.63773e-09
3.57558e-10
-2.60622e-09
5.10463e-10
-2.60009e-09
5.30572e-10
-2.62755e-09
4.83752e-10
-2.63805e-09
4.45425e-10
-2.64404e-09
4.10731e-10
-2.60872e-09
2.66914e-10
-2.57353e-09
1.52126e-10
-2.52536e-09
1.54325e-11
-2.54291e-09
-1.70112e-10
-2.48225e-09
-4.30435e-10
-2.41333e-09
-3.62073e-10
-2.39122e-09
-3.87005e-10
-2.30959e-09
-4.97168e-10
-2.1704e-09
-7.50188e-10
-2.00669e-09
-9.88145e-10
-1.95662e-09
-1.2494e-09
-1.90112e-09
-1.40776e-09
-1.68412e-09
-1.62757e-09
-1.48469e-09
-1.81691e-09
-1.19398e-09
-2.01958e-09
-9.51582e-10
-2.01263e-09
-7.19339e-10
-1.94898e-09
-5.69336e-11
-1.9373e-09
3.09775e-10
-1.47812e-09
5.45361e-10
-9.36069e-10
5.86884e-10
-3.94714e-10
4.69789e-10
5.0062e-11
4.28762e-10
-1.52917e-11
3.73701e-10
-4.80345e-11
3.08783e-10
-1.85163e-10
2.96358e-10
-4.36285e-10
3.76505e-10
-7.4994e-10
5.17358e-10
-1.02027e-09
7.35312e-10
-1.22071e-09
9.34776e-10
-1.2995e-09
1.15283e-09
-1.38421e-09
1.2766e-09
-1.37217e-09
1.368e-09
-1.28831e-09
1.41025e-09
-1.17347e-09
1.45233e-09
-1.00844e-09
1.41577e-09
-7.38259e-10
1.37094e-09
-5.63534e-10
1.30832e-09
-3.24641e-10
1.23941e-09
-3.26081e-12
1.09926e-09
5.02428e-10
9.71579e-10
7.7637e-10
8.92915e-10
9.19761e-10
8.4371e-10
1.00349e-09
7.44172e-10
1.0027e-09
6.90767e-10
1.11265e-09
5.77653e-10
1.21461e-09
4.62526e-10
1.24669e-09
3.07921e-10
1.29274e-09
-1.97112e-16
3.03602e-09
-1.53901e-18
1.26717e-17
2.18394e-20
-2.18359e-18
2.43373e-19
-4.56563e-19
4.04835e-20
2.97577e-19
-1.71215e-19
4.11228e-19
-2.96195e-19
2.77561e-19
-3.34819e-19
7.31495e-20
-3.06173e-19
-1.33548e-19
-2.29111e-19
-3.15771e-19
-1.19334e-19
-4.63012e-19
1.04599e-20
-5.71843e-19
1.49912e-19
-6.42517e-19
2.90649e-19
-6.77495e-19
4.26065e-19
-6.80647e-19
5.5113e-19
-6.56641e-19
6.62307e-19
-6.10528e-19
7.57413e-19
-5.47391e-19
8.35358e-19
-4.72051e-19
8.95838e-19
-3.88821e-19
9.39129e-19
-3.01374e-19
9.65974e-19
-2.12739e-19
9.7748e-19
-1.25337e-19
9.74964e-19
-4.10298e-20
9.59821e-19
3.88332e-20
9.33455e-19
1.13339e-19
8.97264e-19
1.8192e-19
8.52624e-19
2.44266e-19
8.00841e-19
3.00272e-19
7.43094e-19
3.49992e-19
6.804e-19
3.93623e-19
6.13604e-19
4.31468e-19
5.43408e-19
4.63896e-19
4.70407e-19
4.91298e-19
3.9512e-19
5.14051e-19
3.18013e-19
5.32493e-19
2.39509e-19
5.46906e-19
1.59991e-19
5.57516e-19
7.98097e-20
5.64488e-19
5.67935e-19
-8.88923e-11
1.23497e-09
-1.63268e-11
1.44335e-09
6.15531e-11
1.68925e-09
-3.34313e-11
1.81087e-09
-2.61266e-10
1.90557e-09
-5.97716e-10
1.85679e-09
-8.90202e-10
1.66931e-09
-1.0867e-09
1.48673e-09
-1.28505e-09
1.35428e-09
-1.3603e-09
1.05536e-09
-1.5036e-09
1.06495e-09
-1.59177e-09
8.3184e-10
-1.703e-09
8.13907e-10
-1.83494e-09
6.14767e-10
-1.93735e-09
2.32358e-10
-2.00002e-09
3.8001e-10
-2.14632e-09
3.17848e-10
-2.20108e-09
-1.45044e-10
-2.26931e-09
2.71499e-11
-2.33222e-09
1.08707e-10
-2.35601e-09
-9.83086e-11
-2.36971e-09
-1.02145e-11
-2.39143e-09
1.01947e-10
-2.42318e-09
7.66945e-11
-2.41785e-09
2.08393e-10
-2.42547e-09
3.08461e-10
-2.42359e-09
3.55676e-10
-2.37045e-09
4.57321e-10
-2.37106e-09
5.31185e-10
-2.37895e-09
4.91639e-10
-2.3945e-09
4.60981e-10
-2.34302e-09
3.59252e-10
-2.28977e-09
2.13661e-10
-2.22616e-09
8.85152e-11
-2.18286e-09
-2.78673e-11
-2.1844e-09
-1.68576e-10
-2.16638e-09
-4.48457e-10
-2.04995e-09
-4.78497e-10
-2.00324e-09
-4.3372e-10
-1.98874e-09
-5.1167e-10
-1.92183e-09
-8.17102e-10
-1.76087e-09
-1.1491e-09
-1.7759e-09
-1.23437e-09
-1.75987e-09
-1.42379e-09
-1.62546e-09
-1.76198e-09
-1.55492e-09
-1.88745e-09
-1.39907e-09
-2.17543e-09
-1.208e-09
-2.20369e-09
-7.92447e-10
-2.36454e-09
-6.18328e-10
-2.11142e-09
-4.65066e-10
-1.63139e-09
-2.13793e-10
-1.18734e-09
7.30757e-11
-6.81583e-10
2.3421e-10
-1.11074e-10
2.80672e-10
-6.17549e-11
2.87607e-10
-5.49709e-11
2.61582e-10
-1.59139e-10
3.01096e-10
-4.758e-10
3.77496e-10
-8.26342e-10
5.14428e-10
-1.1572e-09
7.01768e-10
-1.40805e-09
9.17787e-10
-1.51552e-09
1.12965e-09
-1.59607e-09
1.27032e-09
-1.51284e-09
1.34736e-09
-1.36535e-09
1.36662e-09
-1.19273e-09
1.34241e-09
-9.84223e-10
1.27276e-09
-6.68614e-10
1.21321e-09
-5.03978e-10
1.12402e-09
-2.35454e-10
9.24797e-10
1.95964e-10
7.64022e-10
6.63204e-10
7.08622e-10
8.31771e-10
6.85686e-10
9.42699e-10
7.36229e-10
9.52951e-10
6.17952e-10
1.12098e-09
6.0591e-10
1.1247e-09
5.77141e-10
1.24338e-09
5.47991e-10
1.27584e-09
4.22141e-10
1.41859e-09
-2.35395e-16
3.45816e-09
-3.21131e-18
-3.87455e-18
1.74919e-18
-7.14347e-18
9.97951e-19
2.95525e-19
1.54638e-19
1.14203e-18
-3.04511e-19
8.71646e-19
-5.00607e-19
4.74883e-19
-5.41516e-19
1.1505e-19
-4.88397e-19
-1.85908e-19
-3.76352e-19
-4.27205e-19
-2.28166e-19
-6.10791e-19
-6.02134e-20
-7.39564e-19
1.14933e-19
-8.17608e-19
2.87497e-19
-8.50203e-19
4.50071e-19
-8.43574e-19
5.97244e-19
-8.04437e-19
7.25443e-19
-7.39619e-19
8.32753e-19
-6.55718e-19
9.18589e-19
-5.58817e-19
9.83285e-19
-4.54243e-19
1.02776e-18
-3.4642e-19
1.05338e-18
-2.38875e-19
1.06179e-18
-1.34318e-19
1.05483e-18
-3.47394e-20
1.03433e-18
5.84963e-20
1.00204e-18
1.44552e-19
9.59611e-19
2.22996e-19
9.08629e-19
2.9369e-19
8.50561e-19
3.56703e-19
7.86726e-19
4.12256e-19
7.18245e-19
4.60692e-19
6.46031e-19
5.02446e-19
5.7081e-19
5.3801e-19
4.9316e-19
5.67888e-19
4.13561e-19
5.92563e-19
3.32426e-19
6.12465e-19
2.50118e-19
6.27955e-19
1.66964e-19
6.39321e-19
8.32566e-20
6.46776e-19
6.50462e-19
-1.74877e-10
1.40985e-09
-4.40887e-10
1.70936e-09
-8.04112e-10
2.05248e-09
-1.08449e-09
2.09125e-09
-1.20207e-09
2.02315e-09
-1.05399e-09
1.7087e-09
-9.05102e-10
1.52043e-09
-1.01364e-09
1.59527e-09
-1.07586e-09
1.4165e-09
-1.15236e-09
1.13185e-09
-1.16583e-09
1.07841e-09
-1.32715e-09
9.93153e-10
-1.41189e-09
8.98648e-10
-1.54525e-09
7.48129e-10
-1.71348e-09
4.0058e-10
-1.76934e-09
4.35875e-10
-1.81624e-09
3.64747e-10
-1.93532e-09
-2.59709e-11
-2.0326e-09
1.24435e-10
-2.05948e-09
1.35583e-10
-2.14106e-09
-1.67316e-11
-2.17663e-09
2.53545e-11
-2.15999e-09
8.53113e-11
-2.18757e-09
1.04271e-10
-2.15952e-09
1.80345e-10
-2.11493e-09
2.63868e-10
-2.1189e-09
3.59644e-10
-2.07925e-09
4.17677e-10
-2.05673e-09
5.08658e-10
-2.04198e-09
4.76895e-10
-2.03047e-09
4.49474e-10
-1.95498e-09
2.83755e-10
-1.89826e-09
1.56938e-10
-1.84636e-09
3.66176e-11
-1.82279e-09
-5.14348e-11
-1.77655e-09
-2.14818e-10
-1.76638e-09
-4.58623e-10
-1.79222e-09
-4.52659e-10
-1.7363e-09
-4.8964e-10
-1.71954e-09
-5.28434e-10
-1.69722e-09
-8.39418e-10
-1.75603e-09
-1.09029e-09
-1.83453e-09
-1.15588e-09
-1.78232e-09
-1.476e-09
-1.7208e-09
-1.8235e-09
-1.66489e-09
-1.94337e-09
-1.52121e-09
-2.31911e-09
-1.3027e-09
-2.4222e-09
-1.19189e-09
-2.47535e-09
-1.10375e-09
-2.19957e-09
-9.00579e-10
-1.83456e-09
-7.26381e-10
-1.36154e-09
-4.63421e-10
-9.44545e-10
-1.90727e-10
-3.83769e-10
-1.30917e-10
-1.21566e-10
-8.37221e-11
-1.02167e-10
-8.4497e-11
-1.58366e-10
5.0603e-11
-6.10901e-10
2.52055e-10
-1.0278e-09
4.39494e-10
-1.34464e-09
6.36239e-10
-1.6048e-09
8.34316e-10
-1.7136e-09
9.87798e-10
-1.74956e-09
1.0855e-09
-1.61054e-09
1.13743e-09
-1.41728e-09
1.10958e-09
-1.16489e-09
1.02529e-09
-8.99927e-10
9.54958e-10
-5.98286e-10
9.1642e-10
-4.6544e-10
7.08142e-10
-2.71751e-11
5.16394e-10
3.87713e-10
4.94177e-10
6.85422e-10
5.3423e-10
7.91718e-10
5.34473e-10
9.42456e-10
5.33303e-10
9.54123e-10
4.69096e-10
1.18519e-09
5.41539e-10
1.05225e-09
5.20106e-10
1.26481e-09
4.70132e-10
1.32581e-09
5.47769e-10
1.34096e-09
4.36729e-11
3.96226e-09
4.44327e-17
4.36731e-11
9.32312e-18
2.79688e-17
1.84485e-18
7.77433e-18
-1.15232e-19
3.10295e-18
-7.01031e-19
1.45849e-18
-8.6044e-19
6.35404e-19
-8.42474e-19
9.79966e-20
-7.29693e-19
-2.98004e-19
-5.59938e-19
-5.96355e-19
-3.56938e-19
-8.13295e-19
-1.38257e-19
-9.57843e-19
8.23375e-20
-1.03789e-18
2.94127e-19
-1.06183e-18
4.89207e-19
-1.03867e-18
6.62062e-19
-9.77613e-19
8.09345e-19
-8.87615e-19
9.29653e-19
-7.7704e-19
1.02316e-18
-6.53382e-19
1.09111e-18
-5.23048e-19
1.13531e-18
-3.91238e-19
1.15793e-18
-2.61956e-19
1.16137e-18
-1.38143e-19
1.14806e-18
-2.18319e-20
1.12038e-18
8.56962e-20
1.08048e-18