/*--------------------------------*- C++ -*----------------------------------*\
  =========                 |
  \\      /  F ield         | OpenFOAM: The Open Source CFD Toolbox
   \\    /   O peration     | Website:  https://openfoam.org
    \\  /    A nd           | Version:  6
     \\/     M anipulation  |
\*---------------------------------------------------------------------------*/
FoamFile
{
    version     2.0;
    format      ascii;
    class       volScalarField;
    location    "2300";
    object      Su;
}
// * * * * * * * * * * * * * * * * * * * * * * * * * * * * * * * * * * * * * //

dimensions      [0 0 -1 0 0 0 0];

internalField   nonuniform List<scalar> 
4800
(
0.218664
0.214815
0.210985
0.207209
0.203537
0.200011
0.196663
0.193522
0.190598
0.187895
0.185404
0.183111
0.181001
0.179056
0.177254
0.175577
0.174003
0.172516
0.171102
0.169748
0.168441
0.167167
0.165915
0.164676
0.163442
0.162209
0.160975
0.159741
0.158513
0.157296
0.156089
0.154891
0.1537
0.15251
0.151319
0.15012
0.148908
0.147678
0.146424
0.145142
0.143828
0.142482
0.141094
0.139656
0.138162
0.136607
0.134984
0.133279
0.131488
0.129611
0.127645
0.125588
0.123445
0.121223
0.118926
0.11656
0.114138
0.111672
0.109167
0.106624
0.104048
0.101434
0.0987821
0.0960779
0.0932989
0.0904465
0.0875107
0.0844581
0.0812646
0.0779114
0.0743673
0.0706025
0.066608
0.0623926
0.0579718
0.053373
0.0486297
0.0437753
0.038859
0.033927
0.0290278
0.0242411
0.0196452
0.0152263
0.0109727
0.00686805
0.00289378
-0.000968766
-0.00473689
-0.00842608
-0.0120496
-0.0156188
-0.0191427
-0.0226291
-0.0260841
-0.0295128
-0.032919
-0.0363062
-0.0396769
-0.0430333
-0.0463772
-0.0497098
-0.0530326
-0.0563464
-0.0596521
-0.0629505
-0.0662422
-0.069528
-0.0728083
-0.0760837
-0.0793547
-0.0826218
-0.0858854
-0.089146
-0.092404
-0.0956599
-0.0989141
-0.102167
-0.105419
-0.10867
0.218664
0.214819
0.211002
0.207234
0.203566
0.20006
0.196737
0.193612
0.190701
0.188004
0.185515
0.183224
0.181114
0.179167
0.177363
0.175682
0.174107
0.17262
0.171206
0.169851
0.168543
0.167268
0.166015
0.164777
0.163546
0.162317
0.161089
0.159864
0.158646
0.157437
0.15624
0.155052
0.153869
0.152688
0.151503
0.150311
0.149106
0.147883
0.146635
0.145359
0.144052
0.142711
0.141327
0.139892
0.138398
0.136842
0.135214
0.1335
0.131701
0.129814
0.127832
0.125759
0.123598
0.121354
0.119032
0.116645
0.114204
0.111719
0.109196
0.106637
0.104044
0.101414
0.098743
0.096022
0.0932353
0.0903685
0.0874122
0.0843414
0.0811307
0.0777613
0.0742065
0.0704355
0.0664395
0.0622224
0.0578015
0.0532028
0.0484593
0.0436032
0.0386757
0.033732
0.0288286
0.0240374
0.0194453
0.0150378
0.0108007
0.0067151
0.00276027
-0.00108393
-0.00483556
-0.00851036
-0.0121216
-0.0156803
-0.0191954
-0.0226744
-0.0261231
-0.0295464
-0.0329481
-0.0363314
-0.0396988
-0.0430524
-0.0463937
-0.0497243
-0.0530452
-0.0563573
-0.0596616
-0.0629588
-0.0662495
-0.0695343
-0.0728137
-0.0760884
-0.0793587
-0.0826252
-0.0858883
-0.0891485
-0.0924061
-0.0956615
-0.0989153
-0.102168
-0.105419
-0.10867
0.218664
0.21482
0.211016
0.20729
0.203667
0.200187
0.196891
0.193793
0.190901
0.188218
0.185739
0.183454
0.181347
0.179399
0.177593
0.175911
0.174335
0.172847
0.171432
0.170077
0.168766
0.16749
0.166237
0.164999
0.163771
0.162549
0.161331
0.160121
0.158921
0.157732
0.156553
0.15538
0.154212
0.153045
0.151876
0.150699
0.149509
0.148299
0.147064
0.145798
0.144502
0.14317
0.141794
0.140362
0.138871
0.137313
0.135677
0.133948
0.132136
0.130229
0.12822
0.126115
0.123916
0.121629
0.119265
0.116838
0.114359
0.111837
0.109278
0.106686
0.10406
0.101398
0.0986918
0.0959359
0.0931232
0.0902289
0.0872373
0.0841328
0.0808883
0.0774858
0.0739076
0.070123
0.0661194
0.061898
0.0574734
0.0528662
0.0481092
0.0432382
0.0382955
0.0333354
0.0284219
0.0236216
0.019038
0.0146553
0.0104539
0.0064087
0.00249422
-0.00131251
-0.00503087
-0.00867693
-0.0122637
-0.0158018
-0.0192995
-0.0227638
-0.0262002
-0.029613
-0.0330058
-0.0363814
-0.0397423
-0.0430902
-0.0464266
-0.049753
-0.0530702
-0.0563791
-0.0596806
-0.0629754
-0.0662639
-0.0695468
-0.0728246
-0.0760978
-0.0793668
-0.0826321
-0.0858942
-0.0891534
-0.0924101
-0.0956647
-0.0989177
-0.102169
-0.10542
-0.10867
0.218669
0.21484
0.211058
0.207366
0.203798
0.200376
0.197126
0.194063
0.191198
0.188536
0.186073
0.183797
0.181695
0.179753
0.177953
0.176274
0.174699
0.173212
0.171799
0.170444
0.169133
0.167855
0.166602
0.165366
0.164142
0.162929
0.161724
0.160533
0.159355
0.158189
0.157034
0.155885
0.154741
0.153599
0.152455
0.151302
0.150133
0.148941
0.147721
0.146468
0.145184
0.143863
0.142496
0.14107
0.139579
0.138016
0.136371
0.134623
0.132794
0.130856
0.128807
0.126656
0.124404
0.12206
0.119638
0.117154
0.114622
0.112047
0.109438
0.106798
0.104126
0.101416
0.0986595
0.0958521
0.0929904
0.0900484
0.0870023
0.0838433
0.0805517
0.0771034
0.0734874
0.0696805
0.0656621
0.0614273
0.0569885
0.0523637
0.0475856
0.0426889
0.0377173
0.0327304
0.0277971
0.0229763
0.0184072
0.0140683
0.0099278
0.00594897
0.00209863
-0.00165015
-0.00531814
-0.00892134
-0.012472
-0.0159798
-0.0194522
-0.0228951
-0.0263134
-0.0297109
-0.0330906
-0.0364551
-0.0398064
-0.043146
-0.0464753
-0.0497954
-0.0531071
-0.0564114
-0.0597088
-0.0629999
-0.0662853
-0.0695654
-0.0728407
-0.0761117
-0.0793788
-0.0826424
-0.0859029
-0.0891606
-0.092416
-0.0956695
-0.0989214
-0.102172
-0.105422
-0.108671
0.218687
0.214894
0.211154
0.207506
0.203991
0.200631
0.197434
0.194417
0.191591
0.188956
0.186514
0.184256
0.182167
0.180238
0.178448
0.176775
0.175206
0.173727
0.172318
0.170966
0.169658
0.168383
0.167131
0.165899
0.164682
0.163479
0.162291
0.16112
0.159966
0.158828
0.157701
0.156583
0.15547
0.154358
0.153245
0.152122
0.150977
0.149805
0.148602
0.147362
0.146092
0.144782
0.143425
0.142003
0.140507
0.138936
0.137274
0.135503
0.133648
0.131668
0.12957
0.127361
0.125045
0.122632
0.12014
0.117586
0.114985
0.112346
0.109674
0.106976
0.104247
0.101481
0.0986688
0.0958002
0.0928657
0.0898483
0.0867278
0.0834945
0.0801347
0.0766237
0.0729536
0.0691074
0.0650623
0.0608078
0.056351
0.0517067
0.0469014
0.0419649
0.0369447
0.0319058
0.0269277
0.0220674
0.0175242
0.0132601
0.00921713
0.00533838
0.00157998
-0.00208899
-0.00568959
-0.00923657
-0.0127405
-0.0162094
-0.0196492
-0.0230648
-0.02646
-0.0298378
-0.0332008
-0.0365509
-0.0398898
-0.0432187
-0.0465387
-0.0498508
-0.0531555
-0.0564536
-0.0597457
-0.0630321
-0.0663133
-0.0695898
-0.0728619
-0.07613
-0.0793946
-0.0826559
-0.0859143
-0.0891702
-0.0924239
-0.0956757
-0.0989261
-0.102175
-0.105424
-0.108672
0.218725
0.215006
0.211339
0.207761
0.204301
0.200986
0.197835
0.194862
0.192078
0.189479
0.187068
0.184834
0.182765
0.180852
0.179077
0.177416
0.175861
0.174395
0.172995
0.17165
0.17035
0.169079
0.167835
0.166611
0.165404
0.164216
0.163045
0.161897
0.160769
0.159661
0.158566
0.157481
0.156401
0.155323
0.154243
0.153151
0.152031
0.150879
0.149693
0.148469
0.147213
0.145914
0.144565
0.14314
0.141631
0.140044
0.138357
0.136558
0.134662
0.132624
0.130465
0.128187
0.125797
0.123306
0.120735
0.118102
0.115423
0.112708
0.109966
0.107198
0.104399
0.101562
0.0986756
0.0957314
0.0927155
0.0896121
0.0864064
0.0830861
0.0796405
0.076054
0.0723176
0.0684167
0.064332
0.0600511
0.0555712
0.0508991
0.0460539
0.0410595
0.0359629
0.0308313
0.0257643
0.0208317
0.0163419
0.0122095
0.00832015
0.00458572
0.00095093
-0.00261608
-0.00613357
-0.00961273
-0.013061
-0.0164837
-0.0198851
-0.0232684
-0.0266362
-0.0299908
-0.0333339
-0.0366669
-0.0399909
-0.043307
-0.0466159
-0.0499182
-0.0532145
-0.0565052
-0.0597907
-0.0630714
-0.0663476
-0.0696196
-0.0728878
-0.0761525
-0.0794139
-0.0826724
-0.0859283
-0.0891819
-0.0924335
-0.0956834
-0.098932
-0.102179
-0.105426
-0.108672
0.218769
0.215142
0.211562
0.208064
0.204675
0.201422
0.198326
0.195404
0.192666
0.19011
0.187736
0.185532
0.18349
0.181601
0.179846
0.178202
0.176663
0.175213
0.173825
0.172492
0.171205
0.169945
0.168713
0.167503
0.166313
0.165143
0.163993
0.162867
0.161766
0.160687
0.159624
0.158572
0.157527
0.156485
0.155438
0.154376
0.153283
0.152152
0.150983
0.149777
0.148534
0.147244
0.145893
0.144457
0.142928
0.141311
0.139587
0.137746
0.135787
0.133682
0.131458
0.129105
0.12663
0.124048
0.121389
0.11867
0.115906
0.113109
0.110286
0.107437
0.104556
0.101635
0.0986645
0.095628
0.092512
0.0893063
0.0860017
0.0825872
0.0790519
0.0753849
0.0715767
0.0676164
0.0634846
0.0591693
0.0546621
0.0499563
0.0450629
0.0399927
0.0347765
0.0294803
0.0242322
0.0191488
0.0147877
0.0108975
0.00724834
0.00371309
0.000234257
-0.00321165
-0.00663399
-0.010037
-0.0134233
-0.0167948
-0.0201533
-0.0235006
-0.0268378
-0.0301662
-0.0334869
-0.0368005
-0.0401078
-0.0434093
-0.0467054
-0.0499966
-0.0532831
-0.0565653
-0.0598433
-0.0631173
-0.0663877
-0.0696545
-0.0729182
-0.0761787
-0.0794365
-0.0826918
-0.0859447
-0.0891956
-0.0924448
-0.0956924
-0.0989388
-0.102184
-0.105429
-0.108673
0.218828
0.215311
0.211826
0.20841
0.205099
0.201918
0.198888
0.196026
0.193344
0.190842
0.188512
0.186345
0.184335
0.182475
0.180746
0.179124
0.177607
0.176177
0.174805
0.173487
0.172214
0.170971
0.169755
0.168566
0.167395
0.166247
0.165122
0.16402
0.162946
0.161895
0.160863
0.159845
0.158837
0.15783
0.156816
0.155785
0.154721
0.153611
0.15246
0.151269
0.150038
0.14875
0.147389
0.145935
0.144383
0.142728
0.140954
0.139047
0.137004
0.134822
0.132506
0.130055
0.127485
0.124813
0.122066
0.119261
0.116409
0.113522
0.110608
0.107668
0.104694
0.101678
0.0986069
0.0954657
0.0922415
0.0889259
0.085513
0.0819949
0.0783628
0.0746114
0.0707321
0.0667122
0.0625326
0.0581825
0.0536483
0.0489129
0.0439704
0.0388098
0.0334264
0.0278509
0.0222175
0.0167541
0.0127601
0.00933413
0.00604717
0.00276664
-0.000533052
-0.00384811
-0.00717051
-0.0104942
-0.0138157
-0.0171334
-0.0204467
-0.0237555
-0.0270599
-0.0303602
-0.0336565
-0.0369491
-0.0402381
-0.0435236
-0.0468057
-0.0500846
-0.0533603
-0.0566329
-0.0599025
-0.0631692
-0.066433
-0.0696941
-0.0729525
-0.0762085
-0.0794622
-0.0827137
-0.0859633
-0.0892112
-0.0924575
-0.0957026
-0.0989466
-0.10219
-0.105432
-0.108674
0.21888
0.215472
0.212102
0.208792
0.205572
0.202472
0.199516
0.196722
0.1941
0.191653
0.189372
0.187253
0.185284
0.183458
0.181762
0.180167
0.178674
0.177267
0.175913
0.174612
0.17336
0.172138
0.170944
0.169777
0.16863
0.167507
0.166408
0.165334
0.164287
0.163266
0.162266
0.161284
0.160313
0.15934
0.158358
0.157355
0.15632
0.155234
0.1541
0.152923
0.151698
0.150409
0.149032
0.147559
0.145982
0.144283
0.142452
0.140471
0.13834
0.136048
0.133601
0.131026
0.128346
0.12558
0.122746
0.119851
0.11691
0.113934
0.110929
0.10789
0.104811
0.101685
0.0984986
0.0952405
0.0918987
0.0884655
0.0849368
0.0813098
0.0775795
0.0737426
0.0697898
0.0657126
0.061496
0.0571242
0.052575
0.047821
0.0428366
0.0375913
0.0320213
0.0260483
0.0196242
0.0129339
0.0101861
0.00763483
0.00483191
0.00182687
-0.00129911
-0.00449184
-0.00772041
-0.0109681
-0.0142262
-0.0174902
-0.0207576
-0.0240269
-0.0272974
-0.0305684
-0.0338393
-0.0371097
-0.0403793
-0.0436478
-0.046915
-0.0501808
-0.0534449
-0.0567072
-0.0599677
-0.0632263
-0.0664829
-0.0697376
-0.0729904
-0.0762414
-0.0794905
-0.082738
-0.0859839
-0.0892284
-0.0924717
-0.0957139
-0.0989552
-0.102196
-0.105436
-0.108676
0.218931
0.215621
0.212341
0.209124
0.206005
0.203015
0.200166
0.197462
0.194916
0.192534
0.190309
0.188239
0.186313
0.184525
0.182862
0.181298
0.179834
0.178453
0.177122
0.175844
0.174616
0.173417
0.172247
0.171106
0.169987
0.168893
0.167823
0.166778
0.165761
0.164772
0.163806
0.162861
0.161923
0.160983
0.16003
0.159056
0.158048
0.156985
0.15587
0.154704
0.153487
0.152192
0.150801
0.149313
0.147714
0.145976
0.144093
0.142041
0.139812
0.137398
0.134819
0.132109
0.129298
0.126412
0.123468
0.120471
0.117433
0.114365
0.111264
0.108119
0.104925
0.101673
0.0983555
0.0949657
0.091495
0.0879365
0.0842875
0.0805503
0.0767237
0.0728051
0.0687875
0.0646688
0.0604306
0.0560477
0.0514904
0.0467326
0.0417353
0.0364483
0.030753
0.0244155
0.0167462
0.0036617
0.00747506
0.00620731
0.00382063
0.00100228
-0.00200726
-0.00511022
-0.00826271
-0.0114439
-0.0146434
-0.0178559
-0.0210784
-0.0243086
-0.0275451
-0.0307864
-0.0340314
-0.0372792
-0.0405289
-0.0437798
-0.0470315
-0.0502835
-0.0535354
-0.0567869
-0.0600378
-0.0632878
-0.0665368
-0.0697847
-0.0730315
-0.076277
-0.0795212
-0.0827643
-0.0860063
-0.0892471
-0.0924871
-0.0957261
-0.0989645
-0.102202
-0.10544
-0.108677
0.218995
0.215811
0.21266
0.209568
0.206561
0.203662
0.200888
0.198256
0.195779
0.193458
0.191288
0.189268
0.187391
0.185643
0.184017
0.18249
0.181056
0.179701
0.178399
0.177149
0.175946
0.174774
0.173631
0.172518
0.171429
0.170366
0.169329
0.168317
0.167333
0.166378
0.165448
0.164537
0.163631
0.162722
0.161797
0.160852
0.159872
0.158835
0.157744
0.156596
0.155387
0.154093
0.152701
0.151209
0.149593
0.147829
0.145903
0.143784
0.141466
0.138944
0.136234
0.133379
0.130419
0.127389
0.124314
0.121202
0.118057
0.114884
0.111669
0.108399
0.105069
0.101674
0.0982121
0.0946808
0.091075
0.0873875
0.0836184
0.0797726
0.0758512
0.0718592
0.0677914
0.0636413
0.059385
0.0549965
0.0504447
0.0457063
0.0407359
0.0354933
0.0298981
0.0238566
0.0172983
0.010316
0.00830037
0.00592497
0.0032494
0.00037061
-0.00262389
-0.00568383
-0.00878349
-0.0119102
-0.0150578
-0.0182225
-0.0214021
-0.0245945
-0.0277976
-0.0310097
-0.0342291
-0.0374543
-0.040684
-0.0439173
-0.0471532
-0.0503912
-0.0536306
-0.0568709
-0.0601118
-0.0633529
-0.0665939
-0.0698347
-0.073075
-0.0763148
-0.0795539
-0.0827924
-0.0860301
-0.0892671
-0.0925034
-0.0957392
-0.0989745
-0.102209
-0.105444
-0.108678
0.219063
0.216016
0.212996
0.210022
0.207121
0.204316
0.201626
0.199069
0.196657
0.194395
0.192283
0.190316
0.188488
0.186785
0.185197
0.183707
0.182305
0.180977
0.179705
0.178484
0.177306
0.176163
0.175051
0.173969
0.172914
0.171886
0.170884
0.169909
0.168962
0.168043
0.167149
0.166272
0.165399
0.164521
0.16363
0.162717
0.16177
0.160769
0.159709
0.158587
0.157394
0.156115
0.154739
0.153253
0.151637
0.149866
0.147913
0.14575
0.143363
0.140745
0.137911
0.134917
0.131805
0.128622
0.125398
0.122147
0.118873
0.115577
0.112226
0.108807
0.105317
0.101756
0.0981328
0.0944453
0.0906938
0.0868735
0.0829855
0.0790371
0.0750313
0.0709757
0.0668632
0.0626802
0.0584019
0.0540047
0.0494578
0.0447416
0.0398212
0.0346822
0.0293058
0.023723
0.0180769
0.0128731
0.00913597
0.0059411
0.00289078
-0.000135192
-0.00316788
-0.00621481
-0.00927855
-0.0123607
-0.0154621
-0.018583
-0.0217224
-0.0248787
-0.02805
-0.031234
-0.0344285
-0.0376317
-0.0408419
-0.0440578
-0.0472781
-0.0505021
-0.0537289
-0.0569579
-0.0601887
-0.0634207
-0.0666535
-0.0698869
-0.0731207
-0.0763545
-0.0795882
-0.0828218
-0.0860551
-0.089288
-0.0925207
-0.095753
-0.098985
-0.102217
-0.105448
-0.10868
0.219127
0.216204
0.213302
0.210443
0.207649
0.204943
0.202343
0.199867
0.197529
0.195332
0.193275
0.191354
0.189568
0.187906
0.186354
0.184901
0.183531
0.182232
0.180991
0.179799
0.178651
0.177538
0.176459
0.175412
0.174394
0.173405
0.172443
0.171509
0.170604
0.169725
0.168869
0.168029
0.167193
0.166353
0.165502
0.16463
0.163726
0.162769
0.161753
0.160669
0.15951
0.158264
0.156919
0.15546
0.15387
0.152113
0.150157
0.147984
0.14556
0.142876
0.139941
0.136814
0.133553
0.130211
0.126826
0.123417
0.119992
0.116543
0.113021
0.109422
0.105746
0.101998
0.0981893
0.0943245
0.0904068
0.0864462
0.0824442
0.0783989
0.0743145
0.0701969
0.0660361
0.0618126
0.0575032
0.0530868
0.0485369
0.0438377
0.0389684
0.0339365
0.0287606
0.0235104
0.0183382
0.0135218
0.00940812
0.00582306
0.00253112
-0.000609855
-0.00367795
-0.00671623
-0.00974931
-0.0127915
-0.0158509
-0.0189312
-0.0220332
-0.0251559
-0.0282973
-0.0314549
-0.034626
-0.0378084
-0.0409999
-0.044199
-0.0474043
-0.0506146
-0.053829
-0.0570468
-0.0602674
-0.0634903
-0.0667148
-0.0699408
-0.0731678
-0.0763955
-0.0796237
-0.0828523
-0.086081
-0.0893098
-0.0925385
-0.0957672
-0.0989958
-0.102224
-0.105453
-0.108681
0.219182
0.216369
0.213576
0.210822
0.20813
0.205521
0.203012
0.200619
0.198355
0.196222
0.19422
0.192348
0.1906
0.188967
0.187444
0.186021
0.184681
0.183412
0.182201
0.18104
0.179923
0.178844
0.177802
0.176794
0.175818
0.174873
0.173957
0.173071
0.172213
0.17138
0.17057
0.169775
0.168985
0.168193
0.167391
0.166572
0.165723
0.164824
0.163863
0.162838
0.161734
0.160544
0.159253
0.157848
0.156303
0.154586
0.152668
0.150521
0.148094
0.145373
0.142361
0.13912
0.135721
0.132221
0.128666
0.125082
0.121478
0.117838
0.11411
0.110304
0.106418
0.102461
0.0984465
0.0943876
0.0902968
0.086185
0.0820555
0.0779077
0.0737387
0.0695487
0.065326
0.0610487
0.0566945
0.0522426
0.0476715
0.0429728
0.0381358
0.0331754
0.0281227
0.0230535
0.0181005
0.0133991
0.00917685
0.00545312
0.00206813
-0.00111303
-0.0041824
-0.00719825
-0.0101966
-0.0131993
-0.0162188
-0.0192614
-0.022329
-0.025421
-0.0285351
-0.0316685
-0.0348181
-0.0379812
-0.0411554
-0.0443387
-0.0475297
-0.0507269
-0.0539294
-0.0571364
-0.060347
-0.0635608
-0.0667771
-0.0699956
-0.0732158
-0.0764374
-0.07966
-0.0828835
-0.0861075
-0.089332
-0.0925568
-0.0957818
-0.099007
-0.102232
-0.105458
-0.108683
0.219227
0.216506
0.213806
0.211145
0.208544
0.206021
0.203592
0.201273
0.199072
0.196995
0.195044
0.193214
0.191504
0.189907
0.188416
0.18702
0.185707
0.184465
0.183283
0.182152
0.181067
0.180025
0.179023
0.17806
0.177132
0.176239
0.175377
0.174546
0.173744
0.172967
0.172212
0.171473
0.170742
0.17001
0.169272
0.168518
0.16774
0.166911
0.166026
0.165081
0.164058
0.162949
0.161739
0.16041
0.158935
0.157292
0.155451
0.153368
0.150981
0.148261
0.145205
0.141874
0.138348
0.13469
0.130957
0.127178
0.123369
0.119507
0.11555
0.111514
0.107399
0.103218
0.0989876
0.0947268
0.090453
0.0861804
0.081912
0.0776414
0.0733631
0.069074
0.0647627
0.0604082
0.0559887
0.0514857
0.0468785
0.0421567
0.0373172
0.0323803
0.0273704
0.0223571
0.017456
0.0127512
0.00850999
0.00481973
0.00147796
-0.00166015
-0.00468689
-0.00766007
-0.0106163
-0.0135784
-0.01656
-0.0195681
-0.0226048
-0.0256694
-0.0287592
-0.0318711
-0.0350015
-0.0381473
-0.0413058
-0.0444748
-0.0476525
-0.0508375
-0.0540288
-0.0572253
-0.0604264
-0.0636313
-0.0668396
-0.0700507
-0.0732642
-0.0764796
-0.0796967
-0.082915
-0.0861344
-0.0893546
-0.0925754
-0.0957967
-0.0990183
-0.10224
-0.105462
-0.108684
0.219259
0.216604
0.213973
0.211383
0.208852
0.206397
0.204035
0.201776
0.199629
0.197599
0.195689
0.193899
0.192224
0.190659
0.189197
0.187827
0.18654
0.185324
0.184171
0.183073
0.182025
0.181024
0.180069
0.179157
0.178285
0.177451
0.176652
0.175886
0.17515
0.17444
0.173754
0.173085
0.172427
0.171771
0.171112
0.170441
0.169748
0.169011
0.168225
0.167383
0.166468
0.165466
0.164361
0.163133
0.16176
0.160224
0.158491
0.156505
0.154194
0.151516
0.148457
0.145063
0.141428
0.137621
0.133708
0.129723
0.125687
0.121582
0.11738
0.113105
0.108758
0.104354
0.0999065
0.0954374
0.090967
0.0865109
0.0820727
0.0776504
0.0732361
0.0688197
0.0643895
0.0599293
0.0554179
0.0508377
0.0461715
0.0414105
0.0365441
0.0315724
0.026503
0.0213832
0.0163165
0.011454
0.00736574
0.00393871
0.000789737
-0.00222593
-0.00517252
-0.00808784
-0.0109978
-0.0139207
-0.0168679
-0.0198457
-0.0228557
-0.0258969
-0.0289661
-0.0320596
-0.0351736
-0.0383044
-0.0414491
-0.0446053
-0.0477711
-0.050945
-0.0541258
-0.0573126
-0.0605046
-0.0637011
-0.0669016
-0.0701055
-0.0733124
-0.0765218
-0.0797333
-0.0829466
-0.0861613
-0.0893772
-0.092594
-0.0958116
-0.0990297
-0.102248
-0.105467
-0.108686
0.219274
0.216652
0.214059
0.21151
0.209024
0.206614
0.204296
0.202081
0.199974
0.197981
0.196104
0.194344
0.192697
0.191159
0.189722
0.188375
0.187111
0.185922
0.1848
0.183738
0.182733
0.181781
0.180882
0.180031
0.179225
0.178462
0.177736
0.177046
0.176388
0.175759
0.175154
0.174571
0.174002
0.173439
0.172877
0.172306
0.171719
0.171096
0.170431
0.169715
0.16893
0.168059
0.167082
0.165984
0.164742
0.163338
0.161737
0.159874
0.157677
0.155086
0.152061
0.148638
0.144919
0.140981
0.136896
0.132701
0.128431
0.124074
0.119624
0.115115
0.110547
0.105926
0.101258
0.0965645
0.0918682
0.0872022
0.0825765
0.0779831
0.0734111
0.0688462
0.0642742
0.0596807
0.055049
0.0503657
0.0456166
0.0407887
0.0358656
0.0308306
0.0256523
0.0202889
0.0147094
0.009179
0.00558916
0.00287427
9.46029e-05
-0.00274455
-0.00559862
-0.00845725
-0.0113265
-0.0142166
-0.017136
-0.0200895
-0.0230782
-0.0261005
-0.0291531
-0.0322317
-0.035332
-0.0384504
-0.0415834
-0.0447286
-0.047884
-0.0510479
-0.0542193
-0.0573971
-0.0605807
-0.0637693
-0.0669624
-0.0701594
-0.0733599
-0.0765635
-0.0797696
-0.0829778
-0.086188
-0.0893996
-0.0926125
-0.0958263
-0.099041
-0.102256
-0.105472
-0.108688
0.219266
0.216631
0.214035
0.211494
0.209019
0.206625
0.204325
0.202129
0.200044
0.198073
0.196219
0.194482
0.192857
0.191341
0.189926
0.188603
0.187366
0.186208
0.185123
0.184105
0.183151
0.182258
0.181423
0.180643
0.179914
0.179231
0.178591
0.177989
0.177423
0.176888
0.176381
0.175898
0.175434
0.174981
0.174532
0.174081
0.173617
0.173126
0.1726
0.172028
0.17139
0.170668
0.169841
0.168895
0.167809
0.166558
0.165107
0.163391
0.161342
0.158869
0.155905
0.152479
0.148712
0.144687
0.140457
0.136062
0.131562
0.126962
0.12228
0.117556
0.11278
0.10795
0.103065
0.0981445
0.0932187
0.0883307
0.0834961
0.0787108
0.0739612
0.0692265
0.0644907
0.0597396
0.0549635
0.0501548
0.0453034
0.0403937
0.0354041
0.030307
0.0250327
0.019398
0.0130153
0.00607823
0.00219398
0.00193594
-0.00040932
-0.00311253
-0.00591225
-0.00874064
-0.0115875
-0.014458
-0.0173594
-0.0202962
-0.0232698
-0.0262784
-0.0293184
-0.0323856
-0.0354754
-0.0385837
-0.0417073
-0.0448434
-0.0479899
-0.0511452
-0.0543082
-0.057478
-0.0606539
-0.0638351
-0.0670213
-0.0702119
-0.0734063
-0.0766042
-0.079805
-0.0830085
-0.0862141
-0.0894216
-0.0926306
-0.0958409
-0.0990521
-0.102264
-0.105476
-0.108689
0.219231
0.216531
0.213882
0.211302
0.208801
0.206388
0.204075
0.201873
0.199787
0.197821
0.195976
0.194252
0.192645
0.191149
0.189758
0.188465
0.187262
0.186145
0.185107
0.184145
0.183255
0.182433
0.181674
0.180976
0.180334
0.179744
0.179201
0.178701
0.178239
0.177811
0.177415
0.177046
0.1767
0.176369
0.176048
0.175728
0.175401
0.175053
0.174675
0.174254
0.173771
0.173206
0.172541
0.171761
0.170841
0.169755
0.168462
0.1669
0.165005
0.162662
0.159789
0.156419
0.152674
0.148618
0.144278
0.139706
0.134986
0.130163
0.125287
0.120382
0.115429
0.11042
0.105351
0.100233
0.0950984
0.0899909
0.0849343
0.0799324
0.0749797
0.070054
0.0651349
0.0602091
0.0552742
0.0503277
0.0453602
0.0403567
0.0353024
0.0301775
0.0249339
0.0194797
0.0137182
0.0081215
0.0049089
0.00232939
-0.000404299
-0.00322701
-0.00607128
-0.00891789
-0.0117705
-0.0146397
-0.0175356
-0.0204648
-0.0234299
-0.0264299
-0.0294616
-0.0325207
-0.0356028
-0.0387037
-0.0418199
-0.0449487
-0.0480879
-0.051236
-0.0543918
-0.0575545
-0.0607234
-0.063898
-0.0670778
-0.0702623
-0.073451
-0.0766435
-0.0798394
-0.0830382
-0.0862396
-0.089443
-0.0926483
-0.095855
-0.0990629
-0.102272
-0.105481
-0.108691
0.21916
0.216323
0.213552
0.210872
0.208291
0.205816
0.203456
0.20122
0.199113
0.19714
0.195298
0.193586
0.192
0.190532
0.189178
0.187927
0.186775
0.185716
0.184744
0.183856
0.183047
0.182311
0.181645
0.181044
0.180504
0.18002
0.179587
0.1792
0.178854
0.178544
0.178267
0.178019
0.177796
0.177593
0.177402
0.177215
0.177023
0.176816
0.17658
0.176304
0.175969
0.175555
0.175047
0.174427
0.173667
0.172737
0.171592
0.170177
0.168432
0.166234
0.163496
0.160236
0.15656
0.152523
0.148129
0.143426
0.138526
0.133534
0.128516
0.123481
0.118411
0.113283
0.108082
0.102821
0.0975302
0.0922439
0.0869895
0.0817764
0.0766123
0.071485
0.0663762
0.0612681
0.0561609
0.0510537
0.0459424
0.0408243
0.035699
0.0305576
0.0253767
0.0201434
0.0149494
0.0101276
0.00636051
0.00302928
-0.000102786
-0.00312467
-0.00607583
-0.00898357
-0.0118713
-0.0147596
-0.0176642
-0.0205957
-0.0235592
-0.0265557
-0.0295829
-0.0326372
-0.0357141
-0.0388098
-0.0419207
-0.0450439
-0.0481774
-0.0513195
-0.0544693
-0.0576259
-0.0607888
-0.0639574
-0.0671314
-0.0703103
-0.0734937
-0.0766812
-0.0798724
-0.0830668
-0.086264
-0.0894636
-0.0926653
-0.0958686
-0.0990733
-0.102279
-0.105485
-0.108692
0.219044
0.215979
0.213
0.210142
0.207417
0.204829
0.202382
0.200084
0.197939
0.195948
0.19411
0.192418
0.190867
0.189448
0.188154
0.186973
0.1859
0.184928
0.184051
0.183266
0.182565
0.181942
0.181393
0.18091
0.18049
0.180127
0.179816
0.179551
0.179326
0.179137
0.17898
0.178851
0.178745
0.178658
0.178584
0.178514
0.17844
0.17835
0.178233
0.178075
0.177859
0.177569
0.177187
0.176692
0.176059
0.175251
0.174226
0.172939
0.171327
0.169271
0.166684
0.163565
0.160016
0.156065
0.1517
0.146943
0.141928
0.136837
0.131744
0.126652
0.121543
0.116384
0.111152
0.105847
0.100492
0.0951144
0.0897333
0.0843623
0.0790228
0.073715
0.0684215
0.0631273
0.0578428
0.0525651
0.0472935
0.0420376
0.0368164
0.0316318
0.0264721
0.0213477
0.0163702
0.0117169
0.00760963
0.00383061
0.000385673
-0.00284035
-0.0059296
-0.00893289
-0.0118855
-0.0148154
-0.0177448
-0.0206896
-0.0236592
-0.0266573
-0.0296837
-0.0327358
-0.03581
-0.0389024
-0.0420096
-0.0451288
-0.048258
-0.0513955
-0.0545404
-0.0576918
-0.0608495
-0.0640128
-0.0671816
-0.0703554
-0.073534
-0.0767168
-0.0799036
-0.0830939
-0.0862872
-0.0894832
-0.0926815
-0.0958816
-0.0990832
-0.102286
-0.105489
-0.108693
0.218871
0.215468
0.212176
0.209047
0.206101
0.203342
0.200769
0.198385
0.196191
0.194186
0.192363
0.190713
0.189227
0.187892
0.186697
0.185628
0.184675
0.183833
0.183093
0.18245
0.181895
0.181421
0.18102
0.180684
0.180406
0.180181
0.180002
0.179863
0.179759
0.179684
0.179634
0.179605
0.179594
0.179596
0.179606
0.179615
0.179617
0.1796
0.179551
0.179459
0.179308
0.179082
0.178765
0.178336
0.177769
0.177028
0.176074
0.174863
0.173327
0.171367
0.168913
0.165955
0.162575
0.158776
0.15452
0.149812
0.144808
0.139727
0.134653
0.1296
0.124555
0.119481
0.114343
0.109131
0.103853
0.0985198
0.0931385
0.0877299
0.0823149
0.0768993
0.0714743
0.0660345
0.0605995
0.0551616
0.04973
0.0443272
0.0389968
0.0337511
0.0285524
0.0233814
0.0183179
0.013462
0.00893717
0.00475654
0.00105703
-0.0023588
-0.00560887
-0.00874509
-0.0117989
-0.0147996
-0.0177747
-0.0207466
-0.023731
-0.0267363
-0.0297655
-0.032818
-0.0358913
-0.038982
-0.042087
-0.0452036
-0.0483296
-0.0514636
-0.0546046
-0.0577519
-0.0609051
-0.0640639
-0.0672281
-0.0703974
-0.0735715
-0.0767502
-0.0799329
-0.0831193
-0.0863091
-0.0895017
-0.0926967
-0.0958938
-0.0990925
-0.102293
-0.105493
-0.108695
0.218633
0.214767
0.211042
0.207537
0.204287
0.201299
0.198564
0.196079
0.193839
0.191837
0.190059
0.18849
0.187116
0.185914
0.18487
0.183965
0.183189
0.18253
0.18198
0.18153
0.18117
0.180889
0.180674
0.180515
0.180402
0.180328
0.180287
0.180273
0.180279
0.1803
0.180332
0.18037
0.180412
0.180456
0.180495
0.180525
0.180538
0.180525
0.180473
0.180371
0.180205
0.179961
0.179625
0.179178
0.178597
0.177847
0.176889
0.175669
0.174123
0.172186
0.169812
0.166987
0.163756
0.160138
0.156076
0.151563
0.146729
0.141794
0.136858
0.13196
0.127093
0.122223
0.117321
0.112366
0.107345
0.102253
0.0970709
0.0918186
0.0865065
0.0811423
0.0757274
0.070259
0.0647622
0.0592308
0.0536897
0.0481719
0.04275
0.0374457
0.0321591
0.026798
0.0213574
0.0158754
0.0105051
0.00580251
0.00195856
-0.0016069
-0.0050496
-0.00837548
-0.0115845
-0.0146976
-0.0177469
-0.0207645
-0.0237749
-0.026794
-0.0298299
-0.0328852
-0.0359592
-0.0390495
-0.0421535
-0.0452685
-0.0483925
-0.0515239
-0.0546619
-0.0578059
-0.0609555
-0.0641104
-0.0672707
-0.070436
-0.0736062
-0.0767809
-0.07996
-0.0831429
-0.0863294
-0.0895188
-0.0927109
-0.0959052
-0.0991012
-0.102299
-0.105497
-0.108696
0.218334
0.213885
0.209618
0.205641
0.202009
0.19874
0.19582
0.193236
0.190969
0.189003
0.187313
0.185875
0.184664
0.18365
0.182811
0.182126
0.181579
0.181157
0.180851
0.180647
0.180532
0.180488
0.180499
0.180545
0.180614
0.180699
0.180794
0.180893
0.180991
0.18108
0.181158
0.181218
0.181261
0.181285
0.181287
0.181264
0.181211
0.181121
0.180982
0.180785
0.18052
0.180175
0.179738
0.179192
0.178511
0.177664
0.176609
0.175294
0.173655
0.171646
0.169244
0.16645
0.163307
0.159886
0.156064
0.151807
0.147246
0.142559
0.137864
0.133217
0.128633
0.124099
0.119593
0.115088
0.110551
0.105955
0.101253
0.0964352
0.0914873
0.0864174
0.0812427
0.0759508
0.0705511
0.0650575
0.0595097
0.0539486
0.0484906
0.0431724
0.0378118
0.0321726
0.0260591
0.019356
0.0121235
0.00666812
0.00316838
-0.000447625
-0.00415129
-0.00776282
-0.0112075
-0.0144906
-0.0176527
-0.0207397
-0.0237903
-0.0268312
-0.0298782
-0.0329388
-0.036015
-0.0391061
-0.0422099
-0.0453241
-0.0484468
-0.0515766
-0.0547124
-0.0578538
-0.0610004
-0.0641522
-0.067309
-0.0704709
-0.0736376
-0.076809
-0.0799847
-0.0831645
-0.0863479
-0.0895345
-0.0927239
-0.0959156
-0.0991092
-0.102304
-0.1055
-0.108697
0.218009
0.212922
0.208061
0.203561
0.199511
0.195943
0.192843
0.19018
0.187918
0.186025
0.184462
0.183192
0.182178
0.181383
0.180778
0.180336
0.18004
0.179879
0.17984
0.179906
0.180062
0.180283
0.180538
0.180801
0.181056
0.181293
0.181509
0.181703
0.181868
0.181999
0.182089
0.182133
0.182128
0.182078
0.181982
0.181842
0.181658
0.181426
0.181139
0.180789
0.180368
0.179867
0.179274
0.178572
0.177729
0.176705
0.175454
0.173925
0.172059
0.169822
0.167202
0.164209
0.161005
0.157739
0.154169
0.150186
0.145902
0.141478
0.137078
0.132776
0.128596
0.124528
0.120576
0.116718
0.112926
0.109127
0.105239
0.101195
0.0969396
0.0924772
0.0878564
0.0830262
0.0779428
0.0726703
0.0672782
0.0618061
0.0564355
0.0512211
0.0459272
0.0401208
0.0332074
0.0246126
0.012383
0.00329076
0.00502084
0.00135502
-0.00281026
-0.00686233
-0.010646
-0.0141674
-0.017486
-0.0206699
-0.023777
-0.0268489
-0.0299119
-0.0329803
-0.0360601
-0.0391527
-0.042257
-0.0453711
-0.0484932
-0.0516219
-0.0547562
-0.0578956
-0.0610399
-0.064189
-0.067343
-0.0705019
-0.0736657
-0.0768341
-0.0800069
-0.0831839
-0.0863646
-0.0895487
-0.0927356
-0.095925
-0.0991164
-0.102309
-0.105503
-0.108698
0.217751
0.212152
0.206803
0.20187
0.197473
0.193662
0.190427
0.18772
0.185486
0.183675
0.182233
0.181108
0.180255
0.17963
0.179199
0.178934
0.178819
0.178843
0.178997
0.179274
0.179656
0.180105
0.180574
0.181026
0.181437
0.181797
0.182108