/*--------------------------------*- C++ -*----------------------------------*\
  =========                 |
  \\      /  F ield         | OpenFOAM: The Open Source CFD Toolbox
   \\    /   O peration     | Website:  https://openfoam.org
    \\  /    A nd           | Version:  6
     \\/     M anipulation  |
\*---------------------------------------------------------------------------*/
FoamFile
{
    version     2.0;
    format      ascii;
    class       volScalarField;
    location    "2300";
    object      T;
}
// * * * * * * * * * * * * * * * * * * * * * * * * * * * * * * * * * * * * * //

dimensions      [0 0 0 1 0 0 0];

internalField   nonuniform List<scalar> 
4800
(
552.48
552.341
552.202
552.065
551.932
551.804
551.682
551.568
551.462
551.364
551.274
551.191
551.114
551.044
550.978
550.918
550.861
550.807
550.755
550.706
550.659
550.613
550.567
550.522
550.477
550.433
550.388
550.343
550.299
550.255
550.211
550.167
550.124
550.081
550.038
549.994
549.95
549.906
549.86
549.814
549.766
549.717
549.667
549.615
549.561
549.504
549.445
549.384
549.319
549.251
549.179
549.105
549.027
548.946
548.863
548.777
548.689
548.6
548.509
548.417
548.323
548.229
548.132
548.034
547.934
547.83
547.724
547.613
547.497
547.376
547.247
547.111
546.966
546.813
546.652
546.486
546.314
546.138
545.959
545.78
545.603
545.429
545.263
545.102
544.948
544.799
544.655
544.515
544.378
544.244
544.113
543.984
543.856
543.729
543.604
543.48
543.356
543.233
543.111
542.989
542.868
542.747
542.627
542.507
542.387
542.267
542.148
542.028
541.91
541.791
541.672
541.554
541.435
541.317
541.199
541.081
540.963
540.845
540.727
540.609
552.48
552.341
552.202
552.066
551.933
551.805
551.685
551.572
551.466
551.368
551.278
551.195
551.118
551.048
550.982
550.921
550.864
550.81
550.759
550.71
550.662
550.616
550.571
550.526
550.481
550.437
550.392
550.348
550.304
550.26
550.216
550.173
550.13
550.087
550.044
550.001
549.958
549.913
549.868
549.822
549.774
549.726
549.675
549.623
549.569
549.513
549.454
549.392
549.326
549.258
549.186
549.111
549.032
548.951
548.867
548.78
548.692
548.602
548.51
548.417
548.323
548.228
548.131
548.032
547.931
547.827
547.72
547.609
547.492
547.37
547.241
547.104
546.96
546.807
546.646
546.479
546.307
546.131
545.953
545.773
545.595
545.422
545.255
545.095
544.942
544.793
544.65
544.511
544.375
544.241
544.11
543.981
543.854
543.728
543.603
543.478
543.355
543.232
543.11
542.989
542.867
542.747
542.626
542.506
542.386
542.267
542.147
542.028
541.909
541.791
541.672
541.553
541.435
541.317
541.199
541.081
540.963
540.845
540.727
540.609
552.48
552.341
552.203
552.068
551.936
551.81
551.691
551.578
551.473
551.376
551.286
551.203
551.127
551.056
550.991
550.93
550.873
550.819
550.767
550.718
550.671
550.624
550.579
550.534
550.489
550.445
550.401
550.357
550.313
550.27
550.228
550.185
550.143
550.1
550.058
550.015
549.972
549.928
549.883
549.838
549.791
549.742
549.692
549.64
549.586
549.53
549.471
549.408
549.342
549.273
549.2
549.124
549.044
548.961
548.875
548.787
548.697
548.606
548.513
548.419
548.324
548.227
548.129
548.029
547.927
547.822
547.714
547.601
547.484
547.36
547.23
547.093
546.948
546.795
546.634
546.467
546.295
546.118
545.939
545.759
545.581
545.407
545.241
545.082
544.929
544.782
544.64
544.502
544.368
544.235
544.105
543.977
543.85
543.724
543.6
543.476
543.353
543.231
543.109
542.987
542.866
542.746
542.625
542.505
542.386
542.266
542.147
542.028
541.909
541.79
541.672
541.553
541.435
541.317
541.199
541.081
540.963
540.845
540.727
540.609
552.48
552.341
552.204
552.07
551.941
551.817
551.699
551.588
551.484
551.388
551.298
551.216
551.139
551.069
551.004
550.943
550.886
550.832
550.781
550.731
550.684
550.638
550.592
550.547
550.503
550.459
550.415
550.372
550.329
550.287
550.245
550.203
550.162
550.12
550.079
550.037
549.995
549.952
549.907
549.862
549.815
549.767
549.718
549.666
549.612
549.555
549.496
549.432
549.366
549.296
549.221
549.143
549.062
548.977
548.889
548.799
548.707
548.614
548.519
548.423
548.326
548.228
548.128
548.026
547.922
547.816
547.705
547.591
547.471
547.346
547.215
547.077
546.931
546.778
546.617
546.449
546.276
546.098
545.918
545.737
545.558
545.383
545.218
545.06
544.91
544.766
544.626
544.49
544.357
544.226
544.098
543.97
543.845
543.72
543.596
543.472
543.35
543.228
543.106
542.985
542.865
542.744
542.624
542.504
542.385
542.265
542.146
542.027
541.908
541.79
541.671
541.553
541.435
541.316
541.198
541.08
540.962
540.845
540.727
540.609
552.481
552.343
552.208
552.075
551.948
551.826
551.71
551.601
551.498
551.403
551.314
551.232
551.157
551.087
551.022
550.961
550.904
550.85
550.799
550.75
550.703
550.657
550.611
550.567
550.522
550.479
550.436
550.393
550.351
550.31
550.269
550.229
550.188
550.148
550.108
550.067
550.025
549.983
549.939
549.894
549.848
549.801
549.752
549.7
549.646
549.589
549.528
549.464
549.397
549.325
549.249
549.169
549.085
548.997
548.907
548.814
548.72
548.624
548.528
548.43
548.331
548.23
548.128
548.024
547.918
547.809
547.695
547.578
547.456
547.329
547.196
547.056
546.91
546.755
546.594
546.425
546.251
546.072
545.89
545.707
545.527
545.35
545.186
545.031
544.884
544.744
544.607
544.474
544.344
544.215
544.088
543.962
543.837
543.713
543.59
543.468
543.346
543.224
543.103
542.983
542.862
542.742
542.622
542.503
542.383
542.264
542.145
542.026
541.908
541.789
541.671
541.552
541.434
541.316
541.198
541.08
540.962
540.844
540.727
540.609
552.482
552.347
552.214
552.085
551.959
551.839
551.725
551.617
551.516
551.422
551.334
551.253
551.178
551.109
551.044
550.984
550.928
550.875
550.824
550.775
550.728
550.682
550.637
550.592
550.549
550.505
550.463
550.421
550.381
550.34
550.301
550.261
550.222
550.183
550.144
550.104
550.064
550.022
549.979
549.934
549.889
549.842
549.793
549.741
549.686
549.629
549.568
549.502
549.434
549.36
549.281
549.199
549.112
549.022
548.929
548.833
548.736
548.638
548.538
548.438
548.336
548.233
548.129
548.022
547.913
547.8
547.684
547.563
547.438
547.308
547.173
547.031
546.883
546.728
546.565
546.396
546.22
546.039
545.854
545.668
545.484
545.306
545.143
544.993
544.852
544.716
544.584
544.455
544.328
544.201
544.076
543.952
543.829
543.706
543.584
543.462
543.341
543.22
543.1
542.979
542.859
542.74
542.62
542.501
542.382
542.263
542.144
542.025
541.907
541.788
541.67
541.552
541.434
541.316
541.198
541.08
540.962
540.844
540.727
540.609
552.484
552.352
552.223
552.096
551.973
551.855
551.743
551.637
551.537
551.445
551.359
551.279
551.205
551.136
551.072
551.013
550.957
550.904
550.854
550.806
550.759
550.713
550.669
550.625
550.582
550.539
550.497
550.457
550.417
550.378
550.339
550.301
550.263
550.225
550.187
550.149
550.109
550.068
550.026
549.982
549.937
549.89
549.841
549.789
549.733
549.675
549.612
549.546
549.474
549.398
549.318
549.232
549.142
549.049
548.952
548.854
548.754
548.652
548.55
548.446
548.342
548.236
548.128
548.018
547.905
547.789
547.669
547.545
547.417
547.284
547.146
547.002
546.852
546.696
546.532
546.362
546.184
546
545.811
545.619
545.429
545.245
545.086
544.945
544.813
544.685
544.558
544.433
544.309
544.186
544.063
543.941
543.819
543.698
543.577
543.456
543.336
543.215
543.095
542.976
542.856
542.737
542.618
542.499
542.38
542.261
542.142
542.024
541.906
541.787
541.669
541.551
541.433
541.315
541.197
541.08
540.962
540.844
540.726
540.609
552.486
552.359
552.232
552.108
551.988
551.873
551.763
551.659
551.562
551.471
551.387
551.308
551.235
551.168
551.105
551.046
550.991
550.939
550.89
550.842
550.796
550.75
550.706
550.663
550.621
550.579
550.538
550.498
550.459
550.421
550.384
550.347
550.31
550.274
550.237
550.2
550.161
550.121
550.079
550.036
549.991
549.945
549.895
549.843
549.786
549.726
549.662
549.593
549.519
549.44
549.356
549.267
549.173
549.077
548.977
548.875
548.772
548.667
548.561
548.455
548.347
548.238
548.126
548.012
547.895
547.775
547.651
547.524
547.392
547.256
547.115
546.97
546.818
546.66
546.496
546.324
546.145
545.958
545.762
545.56
545.356
545.158
545.013
544.889
544.769
544.65
544.531
544.41
544.29
544.169
544.049
543.929
543.808
543.688
543.569
543.449
543.329
543.21
543.091
542.972
542.853
542.734
542.615
542.496
542.378
542.259
542.141
542.022
541.904
541.786
541.668
541.55
541.432
541.315
541.197
541.079
540.962
540.844
540.726
540.609
552.488
552.364
552.242
552.122
552.005
551.893
551.786
551.684
551.589
551.501
551.418
551.341
551.27
551.203
551.142
551.084
551.03
550.979
550.93
550.882
550.837
550.793
550.749
550.707
550.666
550.625
550.585
550.546
550.508
550.471
550.435
550.399
550.364
550.329
550.293
550.257
550.219
550.18
550.139
550.096
550.052
550.005
549.955
549.901
549.844
549.783
549.716
549.644
549.567
549.484
549.395
549.302
549.205
549.104
549.002
548.897
548.79
548.682
548.573
548.463
548.351
548.238
548.122
548.004
547.883
547.758
547.631
547.499
547.364
547.225
547.081
546.933
546.78
546.622
546.457
546.284
546.104
545.913
545.711
545.495
545.262
545.019
544.92
544.827
544.725
544.616
544.503
544.387
544.27
544.152
544.034
543.916
543.797
543.679
543.56
543.441
543.323
543.204
543.086
542.967
542.849
542.73
542.612
542.493
542.375
542.257
542.139
542.021
541.903
541.785
541.667
541.549
541.432
541.314
541.196
541.079
540.961
540.844
540.726
540.609
552.49
552.37
552.251
552.134
552.021
551.913
551.809
551.711
551.619
551.532
551.452
551.377
551.307
551.242
551.182
551.125
551.072
551.022
550.973
550.927
550.883
550.839
550.797
550.755
550.715
550.675
550.636
550.598
550.561
550.526
550.491
550.456
550.422
550.388
550.354
550.318
550.282
550.243
550.203
550.161
550.116
550.069
550.019
549.965
549.907
549.844
549.776
549.701
549.621
549.533
549.439
549.341
549.239
549.135
549.028
548.919
548.809
548.698
548.585
548.471
548.355
548.237
548.117
547.994
547.868
547.739
547.607
547.471
547.333
547.191
547.045
546.895
546.742
546.583
546.417
546.245
546.064
545.872
545.665
545.436
545.158
544.743
544.821
544.775
544.689
544.586
544.477
544.365
544.25
544.135
544.019
543.902
543.786
543.668
543.551
543.433
543.316
543.198
543.08
542.962
542.844
542.726
542.608
542.491
542.373
542.255
542.137
542.019
541.901
541.784
541.666
541.548
541.431
541.313
541.196
541.078
540.961
540.844
540.726
540.609
552.492
552.377
552.262
552.15
552.041
551.936
551.835
551.74
551.65
551.566
551.487
551.414
551.346
551.283
551.224
551.168
551.116
551.067
551.02
550.974
550.931
550.888
550.847
550.806
550.767
550.728
550.691
550.654
550.618
550.584
550.55
550.517
550.484
550.451
550.418
550.383
550.348
550.31
550.271
550.229
550.185
550.138
550.088
550.034
549.975
549.911
549.841
549.765
549.681
549.589
549.491
549.387
549.28
549.17
549.059
548.946
548.832
548.717
548.6
548.481
548.361
548.238
548.112
547.984
547.853
547.719
547.583
547.443
547.301
547.156
547.009
546.858
546.704
546.545
546.38
546.208
546.027
545.837
545.634
545.415
545.177
544.934
544.851
544.765
544.668
544.563
544.455
544.344
544.231
544.118
544.004
543.889
543.774
543.658
543.542
543.425
543.309
543.192
543.075
542.957
542.84
542.722
542.605
542.488
542.37
542.252
542.135
542.017
541.9
541.782
541.665
541.547
541.43
541.313
541.195
541.078
540.961
540.843
540.726
540.609
552.495
552.384
552.275
552.167
552.061
551.96
551.862
551.769
551.682
551.6
551.523
551.452
551.386
551.324
551.266
551.212
551.161
551.113
551.067
551.023
550.98
550.939
550.898
550.859
550.821
550.783
550.747
550.712
550.677
550.644
550.612
550.58
550.548
550.516
550.484
550.451
550.417
550.38
550.342
550.301
550.258
550.212
550.162
550.108
550.049
549.985
549.914
549.836
549.75
549.655
549.552
549.443
549.33
549.215
549.098
548.98
548.861
548.742
548.62
548.496
548.37
548.241
548.109
547.975
547.839
547.701
547.56
547.417
547.271
547.124
546.975
546.823
546.668
546.509
546.344
546.173
545.994
545.808
545.613
545.41
545.206
545.017
544.881
544.765
544.655
544.545
544.435
544.325
544.214
544.102
543.989
543.876
543.762
543.648
543.533
543.417
543.301
543.185
543.069
542.952
542.835
542.718
542.601
542.484
542.367
542.25
542.133
542.015
541.898
541.781
541.664
541.546
541.429
541.312
541.195
541.077
540.96
540.843
540.726
540.609
552.497
552.391
552.286
552.182
552.081
551.982
551.888
551.798
551.714
551.634
551.559
551.49
551.425
551.364
551.308
551.255
551.206
551.159
551.114
551.07
551.029
550.988
550.949
550.911
550.874
550.838
550.804
550.77
550.737
550.705
550.674
550.644
550.613
550.583
550.552
550.52
550.488
550.453
550.416
550.377
550.335
550.29
550.241
550.188
550.131
550.067
549.996
549.917
549.829
549.732
549.626
549.512
549.394
549.273
549.15
549.026
548.902
548.777
548.649
548.519
548.385
548.249
548.111
547.971
547.829
547.685
547.54
547.394
547.245
547.096
546.945
546.792
546.636
546.475
546.31
546.14
545.963
545.781
545.593
545.403
545.215
545.04
544.891
544.761
544.642
544.528
544.417
544.306
544.196
544.086
543.975
543.863
543.751
543.638
543.524
543.409
543.294
543.179
543.063
542.947
542.831
542.714
542.598
542.481
542.364
542.247
542.13
542.014
541.896
541.779
541.662
541.545
541.428
541.311
541.194
541.077
540.96
540.843
540.726
540.609
552.499
552.397
552.296
552.196
552.098
552.003
551.912
551.826
551.743
551.666
551.593
551.526
551.462
551.403
551.348
551.296
551.247
551.201
551.157
551.115
551.075
551.036
550.998
550.961
550.926
550.892
550.858
550.826
550.795
550.765
550.736
550.707
550.678
550.65
550.621
550.591
550.56
550.527
550.493
550.456
550.416
550.372
550.326
550.275
550.219
550.157
550.087
550.009
549.921
549.823
549.713
549.596
549.473
549.346
549.217
549.087
548.956
548.824
548.689
548.551
548.41
548.266
548.121
547.974
547.825
547.676
547.526
547.376
547.225
547.073
546.919
546.764
546.606
546.445
546.279
546.109
545.933
545.753
545.57
545.386
545.207
545.036
544.883
544.748
544.625
544.51
544.398
544.289
544.18
544.071
543.962
543.851
543.74
543.628
543.515
543.401
543.287
543.173
543.057
542.942
542.826
542.71
542.594
542.478
542.361
542.245
542.128
542.012
541.895
541.778
541.661
541.544
541.427
541.31
541.193
541.076
540.959
540.842
540.725
540.608
552.501
552.402
552.304
552.207
552.113
552.021
551.933
551.849
551.769
551.694
551.623
551.557
551.495
551.437
551.383
551.332
551.285
551.239
551.197
551.156
551.116
551.078
551.042
551.007
550.974
550.941
550.91
550.88
550.851
550.823
550.795
550.768
550.742
550.715
550.689
550.661
550.633
550.603
550.571
550.537
550.5
550.46
550.416
550.368
550.314
550.255
550.188
550.113
550.026
549.927
549.817
549.696
549.568
549.435
549.3
549.163
549.025
548.885
548.741
548.595
548.446
548.294
548.141
547.986
547.831
547.676
547.521
547.366
547.211
547.055
546.899
546.741
546.581
546.417
546.25
546.079
545.904
545.724
545.543
545.361
545.183
545.013
544.859
544.725
544.604
544.49
544.38
544.272
544.165
544.058
543.949
543.84
543.73
543.619
543.507
543.394
543.281
543.167
543.052
542.937
542.822
542.706
542.591
542.475
542.359
542.242
542.126
542.01
541.893
541.776
541.66
541.543
541.426
541.309
541.193
541.076
540.959
540.842
540.725
540.608
552.502
552.405
552.31
552.216
552.124
552.035
551.949
551.867
551.79
551.716
551.647
551.582
551.521
551.464
551.411
551.361
551.315
551.271
551.229
551.189
551.151
551.115
551.08
551.047
551.015
550.985
550.956
550.928
550.902
550.876
550.851
550.827
550.803
550.779
550.755
550.731
550.706
550.679
550.651
550.62
550.587
550.551
550.511
550.466
550.417
550.361
550.298
550.226
550.143
550.045
549.935
549.812
549.68
549.542
549.4
549.255
549.109
548.96
548.808
548.653
548.495
548.335
548.174
548.012
547.85
547.688
547.527
547.367
547.207
547.046
546.886
546.724
546.56
546.394
546.225
546.052
545.876
545.695
545.511
545.326
545.142
544.966
544.817
544.693
544.579
544.47
544.363
544.257
544.151
544.045
543.938
543.83
543.721
543.611
543.499
543.387
543.274
543.161
543.047
542.932
542.818
542.702
542.587
542.471
542.356
542.24
542.124
542.008
541.891
541.775
541.658
541.542
541.425
541.309
541.192
541.075
540.959
540.842
540.725
540.608
552.502
552.407
552.313
552.221
552.13
552.043
551.959
551.878
551.802
551.73
551.662
551.598
551.538
551.482
551.43
551.381
551.335
551.292
551.251
551.213
551.177
551.142
551.109
551.079
551.049
551.022
550.995
550.97
550.946
550.924
550.902
550.881
550.86
550.84
550.819
550.799
550.777
550.755
550.731
550.705
550.676
550.645
550.61
550.57
550.525
550.474
550.416
550.348
550.269
550.175
550.065
549.941
549.806
549.664
549.515
549.363
549.208
549.051
548.889
548.726
548.56
548.392
548.223
548.053
547.883
547.713
547.545
547.379
547.213
547.047
546.882
546.715
546.547
546.377
546.205
546.03
545.851
545.668
545.48
545.286
545.084
544.887
544.753
544.654
544.554
544.451
544.347
544.243
544.139
544.034
543.929
543.821
543.713
543.603
543.493
543.381
543.269
543.156
543.042
542.928
542.813
542.699
542.584
542.468
542.353
542.237
542.122
542.006
541.89
541.773
541.657
541.541
541.424
541.308
541.191
541.075
540.958
540.842
540.725
540.608
552.502
552.406
552.312
552.22
552.13
552.043
551.96
551.88
551.804
551.733
551.666
551.603
551.544
551.489
551.437
551.389
551.345
551.303
551.263
551.226
551.192
551.159
551.129
551.101
551.074
551.05
551.026
551.005
550.984
550.965
550.946
550.929
550.912
550.896
550.879
550.863
550.846
550.828
550.809
550.789
550.766
550.739
550.709
550.675
550.636
550.59
550.538
550.476
550.401
550.312
550.204
550.08
549.944
549.798
549.644
549.485
549.322
549.155
548.985
548.814
548.641
548.466
548.289
548.11
547.932
547.754
547.579
547.405
547.233
547.061
546.89
546.717
546.544
546.37
546.194
546.015
545.834
545.65
545.458
545.254
545.026
544.788
544.666
544.621
544.536
544.437
544.336
544.233
544.13
544.026
543.92
543.814
543.706
543.597
543.487
543.375
543.263
543.151
543.037
542.924
542.81
542.695
542.58
542.465
542.35
542.235
542.119
542.004
541.888
541.772
541.656
541.54
541.423
541.307
541.191
541.074
540.958
540.841
540.725
540.608
552.501
552.403
552.307
552.213
552.122
552.035
551.951
551.871
551.795
551.724
551.657
551.594
551.536
551.482
551.431
551.384
551.341
551.3
551.263
551.228
551.195
551.166
551.138
551.113
551.09
551.068
551.049
551.03
551.014
550.998
550.984
550.97
550.958
550.946
550.934
550.923
550.911
550.898
550.884
550.869
550.852
550.831
550.807
550.779
550.745
550.706
550.659
550.602
550.534
550.449
550.344
550.222
550.087
549.94
549.783
549.617
549.446
549.271
549.094
548.916
548.737
548.555
548.372
548.186
548
547.815
547.631
547.45
547.27
547.092
546.913
546.734
546.555
546.376
546.196
546.014
545.831
545.645
545.455
545.257
545.048
544.849
544.729
544.635
544.536
544.433
544.33
544.227
544.123
544.019
543.914
543.808
543.7
543.591
543.482
543.371
543.259
543.146
543.033
542.92
542.806
542.692
542.577
542.463
542.348
542.233
542.117
542.002
541.886
541.77
541.655
541.539
541.422
541.306
541.19
541.074
540.957
540.841
540.725
540.608
552.498
552.395
552.295
552.197
552.104
552.014
551.928
551.847
551.771
551.699
551.632
551.57
551.513
551.459
551.41
551.365
551.323
551.285
551.25
551.217
551.188
551.161
551.137
551.116
551.096
551.078
551.063
551.049
551.036
551.025
551.015
551.006
550.998
550.99
550.983
550.977
550.97
550.962
550.953
550.943
550.931
550.916
550.897
550.875
550.847
550.813
550.772
550.72
550.657
550.577
550.478
550.36
550.227
550.081
549.922
549.751
549.574
549.393
549.211
549.028
548.845
548.659
548.47
548.28
548.088
547.896
547.706
547.517
547.33
547.144
546.958
546.773
546.588
546.403
546.217
546.032
545.846
545.659
545.471
545.281
545.093
544.918
544.781
544.661
544.547
544.437
544.33
544.225
544.12
544.015
543.909
543.803
543.696
543.587
543.477
543.366
543.255
543.143
543.03
542.916
542.803
542.689
542.575
542.46
542.345
542.231
542.115
542
541.885
541.769
541.653
541.537
541.422
541.305
541.189
541.073
540.957
540.841
540.724
540.608
552.494
552.383
552.275
552.171
552.072
551.978
551.889
551.806
551.728
551.656
551.589
551.528
551.472
551.42
551.373
551.33
551.292
551.256
551.225
551.196
551.171
551.148
551.128
551.111
551.096
551.083
551.071
551.062
551.053
551.047
551.041
551.036
551.032
551.029
551.026
551.024
551.021
551.017
551.013
551.007
550.999
550.989
550.975
550.957
550.933
550.904
550.867
550.82
550.761
550.687
550.593
550.48
550.351
550.208
550.05
549.878
549.696
549.512
549.327
549.143
548.958
548.771
548.581
548.389
548.195
548
547.805
547.611
547.417
547.225
547.033
546.841
546.649
546.458
546.267
546.076
545.887
545.699
545.512
545.326
545.145
544.976
544.827
544.69
544.565
544.448
544.336
544.226
544.119
544.013
543.907
543.8
543.692
543.583
543.473
543.363
543.251
543.139
543.026
542.913
542.8
542.686
542.572
542.458
542.343
542.228
542.114
541.998
541.883
541.768
541.652
541.536
541.421
541.305
541.189
541.073
540.957
540.84
540.724
540.608
552.488
552.364
552.245
552.131
552.024
551.924
551.831
551.744
551.665
551.592
551.526
551.466
551.412
551.364
551.321
551.282
551.247
551.217
551.19
551.167
551.147
551.13
551.115
551.103
551.093
551.085
551.078
551.073
551.069
551.067
551.065
551.064
551.063
551.063
551.063
551.064
551.063
551.063
551.061
551.057
551.052
551.043
551.031
551.016
550.995
550.968
550.933
550.889
550.833
550.762
550.673
550.565
550.443
550.305
550.151
549.981
549.8
549.616
549.432
549.249
549.066
548.882
548.696
548.507
548.316
548.123
547.928
547.732
547.536
547.34
547.144
546.946
546.75
546.552
546.356
546.16
545.967
545.776
545.588
545.4
545.216
545.04
544.876
544.724
544.589
544.465
544.347
544.233
544.123
544.014
543.906
543.798
543.689
543.58
543.471
543.36
543.248
543.136
543.024
542.911
542.797
542.684
542.57
542.456
542.341
542.227
542.112
541.997
541.882
541.767
541.651
541.536
541.42
541.304
541.188
541.072
540.956
540.84
540.724
540.608
552.479
552.339
552.204
552.077
551.959
551.85
551.751
551.661
551.58
551.507
551.443
551.386
551.336
551.292
551.255
551.222
551.194
551.17
551.15
551.134
551.121
551.111
551.103
551.097
551.093
551.09
551.089
551.088
551.088
551.089
551.09
551.091
551.093
551.094
551.096
551.097
551.097
551.096
551.094
551.09
551.084
551.075
551.063
551.046
551.025
550.997
550.962
550.918
550.861
550.791
550.704
550.602
550.485
550.354
550.207
550.043
549.868
549.69
549.511
549.333
549.157
548.981
548.803
548.624
548.442
548.258
548.07
547.88
547.688
547.494
547.298
547.1
546.901
546.7
546.5
546.3
546.103
545.911
545.719
545.525
545.327
545.128
544.933
544.762
544.622
544.493
544.368
544.247
544.13
544.017
543.907
543.797
543.688
543.578
543.468
543.357
543.246
543.134
543.021
542.908
542.795
542.681
542.568
542.454
542.339
542.225
542.11
541.996
541.881
541.765
541.65
541.535
541.419
541.303
541.188
541.072
540.956
540.84
540.724
540.608
552.468
552.307
552.153
552.009
551.877
551.759
551.653
551.559
551.477
551.405
551.344
551.292
551.248
551.211
551.181
551.156
551.136
551.121
551.109
551.102
551.098
551.096
551.097
551.098
551.101
551.104
551.107
551.111
551.114
551.117
551.12
551.122
551.124
551.124
551.124
551.123
551.121
551.118
551.113
551.105
551.096
551.083
551.067
551.047
551.022
550.991
550.953
550.904
550.845
550.771
550.684
550.582
550.468
550.344
550.205
550.051
549.886
549.716
549.546
549.378
549.212
549.047
548.884
548.721
548.557
548.391
548.221
548.047
547.868
547.685
547.498
547.306
547.111
546.912
546.711
546.51
546.312
546.119
545.925
545.72
545.498
545.254
544.991
544.793
544.666
544.535
544.401
544.269
544.144
544.025
543.91
543.798
543.687
543.577
543.466
543.355
543.244
543.132
543.019
542.906
542.793
542.68
542.566
542.452
542.338
542.223
542.109
541.994
541.879
541.764
541.649
541.534
541.418
541.303
541.187
541.072
540.956
540.84
540.724
540.608
552.457
552.273
552.097
551.935
551.788
551.659
551.547
551.45
551.368
551.299
551.242
551.196
551.159
551.13
551.108
551.091
551.081
551.074
551.073
551.075
551.08
551.088
551.097
551.107
551.116
551.124
551.132
551.139
551.145
551.15
551.153
551.155
551.155
551.153
551.149
551.144
551.137
551.129
551.119
551.106
551.091
551.073
551.051
551.026
550.995
550.958
550.912
550.856
550.788
550.706
550.61
550.501
550.385
550.266
550.136
549.992
549.836
549.676
549.517
549.361
549.209
549.062
548.919
548.779
548.642
548.505
548.365
548.219
548.065
547.904
547.737
547.562
547.378
547.187
546.992
546.794
546.599
546.41
546.218
546.007
545.756
545.443
545.008
544.774
544.733
544.6
544.449
544.302
544.165
544.037
543.916
543.801
543.688
543.576
543.465
543.354
543.242
543.13
543.017
542.905
542.791
542.678
542.564
542.45
542.336
542.222
542.108
541.993
541.878
541.764
541.648
541.533
541.418
541.302
541.187
541.071
540.955
540.84
540.724
540.608
552.448
552.246
552.054
551.876
551.718
551.58
551.463
551.364
551.283
551.217
551.164
551.123
551.092
551.068
551.052
551.042
551.037
551.037
551.042
551.051
551.065
551.08
551.097
551.113
551.128
551.141
551.152
551.161
551.169
551.175
551.179
551.18
551.178
551.174
551.167
551.157
551.146
551.133
551.118
551.101
551.083
551.061
551.037
551.007
550.972
550.927
550.872
550.802
550.718
550.617
550.501
550.372
550.246
550.129
550.003
549.862
549.71
549.555
549.404
549.261
549.127
549.001
548.886
548.779
548.679
548.585
548.489
548.384
548.266
548.136
548
547.852
547.685
547.507
547.325
547.137
546.954
546.776
546.596
546.389
546.118
545.782
545.408
545.116
544.899
544.698
544.513
544.344
544.191
544.053
543.925
543.805
543.689
543.576
543.465
543.353
543.241
543.129
543.016
542.903
542.79
542.676
542.563
542.449
542.335
542.221
542.107
541.992
541.878
541.763
541.648
541.533
541.417
541.302
541.186
541.071
540.955
540.839
540.724
540.608
552.451
552.253
552.061
551.882
551.721
551.581
551.463
551.363
551.281
551.214
551.16
551.117
551.083
551.057
551.038
551.024
551.015
551.011
551.012
551.02
551.033
551.05
551.069
551.088
551.105
551.12
551.133
551.145
551.155
551.165
551.171
551.175
551.175
551.171
551.164
551.154
551.143
551.132
551.12
551.108
551.094
551.079
551.06
551.034
550.997
550.947
550.878
550.787
550.676
550.54
550.382
550.219
550.077
549.961
549.829
549.674
549.513
549.354
549.207
549.075
548.963
548.859
548.777
548.714
548.665
548.63
548.6
548.545
548.462
548.362
548.266
548.15
547.991
547.82
547.659
547.491
547.332
547.174
547.013
546.809
546.506
546.122
545.709
545.342
545.032
544.783
544.572
544.385
544.219
544.07
543.935
543.81
543.692
543.577
543.464
543.352
543.24
543.128
543.015
542.902
542.789
542.675
542.562
542.448
542.334
542.22
542.106
541.991
541.877
541.762
541.647
541.532
541.417
541.302
541.186
541.071
540.955
540.839
540.724
540.608
552.482
552.34
552.191
552.04
551.898
551.768
551.652
551.55
551.459
551.38
551.31
551.247
551.192
551.144
551.101
551.062
551.027
550.995
550.97
550.954
550.949
550.953
550.961
550.972
550.986
551
551.014
551.028
551.044
551.061
551.078
551.093
551.103
551.109
551.113
551.115
551.12
551.127
551.137
551.15
551.162
551.171
551.173
551.165
551.138
551.089
551.002
550.873
550.724
550.532
550.296
550.083
549.924
549.824
549.687
549.498
549.308
549.133
548.975
548.846
548.764
548.667
548.631
548.624
548.639
548.683
548.751
548.737
548.655
548.555
548.506
548.419
548.21
548.011
547.881
547.737
547.624
547.502
547.367
547.112
546.737
546.286
545.81
545.387
545.038
544.805
544.603
544.416
544.244
544.087
543.946
543.816
543.694
543.578
543.464
543.352
543.239
543.127
543.014
542.901
542.788
542.674
542.561
542.447
542.333
542.219
542.105
541.991
541.876
541.761
541.647
541.532
541.417
541.301
541.186
541.07
540.955
540.839
540.724
540.608
552.579
552.606
552.582
552.517
552.426
552.319
552.206
552.09
551.971
551.852
551.734
551.615
551.501
551.393
551.29
551.186
551.082
550.981
550.89
550.812
550.759
550.723
550.693
550.677
550.676
550.683
550.694
550.712
550.738
550.771
550.811
550.852
550.89
550.925
550.961
551.003
551.055
551.116
551.186
551.26
551.329
551.386
551.428
551.459
551.454
551.421
551.311
551.116
550.949
550.695
550.305
550.027
549.843
549.676
549.462
549.243
549.003
548.831
548.659
548.529
548.493
548.431
548.441
548.511
548.632
548.691
548.883
548.847
548.788
548.788
548.676
548.546
548.281
548.074
547.882
547.782
547.713
547.639
547.483
547.081
546.536
546.003
545.463
545.102
544.805
544.73
544.595
544.431
544.262
544.102
543.956
543.822
543.697
543.579
543.464
543.351
543.239
543.126
543.013
542.9
542.787
542.674
542.56
542.446
542.333
542.219
542.104
541.99
541.876
541.761
541.646
541.531
541.416
541.301
541.186
541.07
540.955
540.839
540.723
540.608
552.811
553.219
553.461
553.56
553.561
553.484
553.367
553.212
553.023
552.811
552.588
552.351
552.113
551.886
551.661
551.424
551.181
550.949
550.734
550.545
550.409
550.295
550.18
550.098
550.059
550.042
550.041
550.056
550.098
550.16
550.244
550.336
550.429
550.527
550.639
550.773
550.937
551.108
551.293
551.474
551.623
551.735
551.819
551.904
551.937
551.951
551.807
551.513
551.236
550.87
550.431
550.093
549.746
549.487
549.267
549.072
548.85
548.725
548.488
548.45
548.377
548.296
548.359
548.589
548.801
548.796
549.138
548.99
548.95
548.983
548.8
548.546
548.18
547.922
547.59
547.399
547.334
547.098
546.679
546.167
545.662
545.103
544.441
544.346
544.54
544.619
544.564
544.433
544.273
544.113
543.964
543.827
543.7
543.58
543.465
543.351
543.238
543.126
543.013
542.9
542.787
542.673
542.56
542.446
542.332
542.218
542.104
541.99
541.875
541.761
541.646
541.531
541.416
541.301
541.185
541.07
540.955
540.839
540.723
540.608
553.326
554.465
555.152
555.479
555.594
555.547
555.428
555.193
554.864
554.452
554.047
553.629
553.173
552.737
552.304
551.813
551.314
550.874
550.474
550.118
549.875
549.668
549.404
549.193
549.064
548.96
548.907
548.878
548.933
549.03
549.203
549.4
549.606
549.841
550.113
550.436
550.832
551.167
551.481
551.765
551.966
552.092
552.165
552.242
552.324
552.286
552.228
552.022
551.601
551.219
550.76
550.379
549.935
549.699
549.455
549.433
549.179
548.924
548.525
548.582
548.567
548.594
548.787
548.994
549.128
548.989
549.561
549.257
549.164
549.337
549.045
548.528
547.831
547.514
546.855
545.92
546.038
545.725
544.815
544.495
544.34
543.259
543.269
543.22
544.245
544.516
544.534
544.431
544.28
544.121
543.969
543.83
543.702
543.581
543.465
543.351
543.238
543.126
543.013
542.9
542.786
542.673
542.559
542.446
542.332
542.218
542.104
541.989
541.875
541.76
541.646
541.531
541.416
541.301
541.185