/*--------------------------------*- C++ -*----------------------------------*\
  =========                 |
  \\      /  F ield         | OpenFOAM: The Open Source CFD Toolbox
   \\    /   O peration     | Website:  https://openfoam.org
    \\  /    A nd           | Version:  6
     \\/     M anipulation  |
\*---------------------------------------------------------------------------*/
FoamFile
{
    version     2.0;
    format      ascii;
    class       volVectorField;
    location    "2300";
    object      U;
}
// * * * * * * * * * * * * * * * * * * * * * * * * * * * * * * * * * * * * * //

dimensions      [0 1 -1 0 0 0 0];

internalField   nonuniform List<vector> 
4800
(
(-2.39556e-05 0 -2.98368e-05)
(-2.15338e-05 0 8.37e-06)
(-0.000109459 0 5.35295e-06)
(-0.000235172 0 -5.92132e-05)
(-0.000234458 0 0.000103951)
(-0.000305941 0 0.000203465)
(-0.000550346 0 -0.000147329)
(-0.000634158 0 0.000105342)
(-0.000715075 0 1.65842e-05)
(-0.00076077 0 -6.01992e-05)
(-0.000782126 0 6.79314e-06)
(-0.000786358 0 -3.45039e-05)
(-0.000787519 0 -3.89648e-05)
(-0.000782299 0 -5.55076e-05)
(-0.000736268 0 -5.28335e-05)
(-0.000681007 0 -2.83507e-05)
(-0.000653875 0 -4.5735e-05)
(-0.000649634 0 -7.18125e-05)
(-0.000634482 0 -8.08785e-05)
(-0.000566503 0 -1.21203e-05)
(-0.000508528 0 -5.26503e-05)
(-0.000479353 0 -5.90579e-05)
(-0.000468398 0 -5.90895e-06)
(-0.000456903 0 3.44023e-05)
(-0.000456041 0 4.59232e-06)
(-0.000478664 0 -1.43157e-05)
(-0.00054163 0 2.37148e-05)
(-0.000634199 0 -1.51215e-05)
(-0.00072427 0 -0.000123494)
(-0.00078644 0 -0.000121256)
(-0.000840077 0 -4.40326e-05)
(-0.000881203 0 -6.53007e-06)
(-0.000907454 0 -7.40155e-06)
(-0.000918462 0 -1.65557e-05)
(-0.000922345 0 -1.5693e-05)
(-0.00092619 0 -1.47245e-05)
(-0.00091824 0 -2.23081e-05)
(-0.000894805 0 -2.46491e-05)
(-0.000890819 0 -2.03866e-05)
(-0.000899274 0 -8.31856e-06)
(-0.000892706 0 -3.84867e-06)
(-0.000826393 0 -2.81195e-05)
(-0.000780882 0 -3.43266e-05)
(-0.000754478 0 -1.1065e-05)
(-0.000705203 0 -4.12126e-05)
(-0.00060451 0 -7.06432e-05)
(-0.000513692 0 -6.87047e-05)
(-0.00045556 0 -2.61787e-05)
(-0.000388811 0 -2.74182e-05)
(-0.000314822 0 -5.59695e-05)
(-0.000267458 0 -6.43905e-05)
(-0.000226291 0 -8.39017e-05)
(-0.000166823 0 -5.23988e-05)
(-0.000100259 0 -6.83877e-05)
(-6.36738e-05 0 -9.68723e-06)
(-3.89394e-05 0 -2.59446e-05)
(-2.10728e-05 0 -8.12401e-07)
(8.66309e-06 0 -2.34917e-05)
(5.45895e-05 0 -2.53972e-05)
(9.8288e-05 0 -2.46392e-05)
(0.000140303 0 -3.54543e-05)
(0.000207582 0 -6.13895e-06)
(0.000227589 0 -0.000119861)
(0.000350916 0 -8.49512e-05)
(0.000425961 0 -2.72355e-05)
(0.000417986 0 -9.90856e-05)
(0.000480711 0 -8.08443e-05)
(0.000578775 0 -7.33188e-05)
(0.000651235 0 -5.77549e-05)
(0.000708994 0 -5.16427e-05)
(0.000739656 0 -5.26858e-07)
(0.000729013 0 -8.47439e-06)
(0.000683987 0 5.83259e-05)
(0.000618694 0 -2.67762e-05)
(0.00053419 0 9.95789e-05)
(0.000471129 0 1.2664e-05)
(0.000428824 0 2.21031e-05)
(0.000338493 0 -4.67269e-05)
(0.000330015 0 -3.17019e-05)
(-0.000268567 0 -3.48213e-05)
(6.45651e-06 0 7.38717e-05)
(-2.29943e-13 0 7.09277e-14)
(-1.1569e-12 0 2.42064e-14)
(1.6212e-13 0 2.7179e-14)
(1.16125e-13 0 1.95865e-14)
(8.48701e-14 0 1.2412e-14)
(6.62568e-14 0 6.86012e-15)
(5.74464e-14 0 2.52739e-15)
(5.65115e-14 0 -9.56387e-16)
(6.18525e-14 0 -3.87904e-15)
(7.25119e-14 0 -6.33243e-15)
(8.7549e-14 0 -8.32296e-15)
(1.06008e-13 0 -9.83062e-15)
(1.269e-13 0 -1.08407e-14)
(1.49227e-13 0 -1.13571e-14)
(1.72016e-13 0 -1.14042e-14)
(1.94363e-13 0 -1.10239e-14)
(2.15461e-13 0 -1.02707e-14)
(2.34626e-13 0 -9.20656e-15)
(2.51309e-13 0 -7.89587e-15)
(2.65093e-13 0 -6.40205e-15)
(2.75694e-13 0 -4.78516e-15)
(2.82944e-13 0 -3.10002e-15)
(2.86777e-13 0 -1.39483e-15)
(2.87215e-13 0 2.89307e-16)
(2.84352e-13 0 1.9187e-15)
(2.78336e-13 0 3.4668e-15)
(2.69351e-13 0 4.91425e-15)
(2.57602e-13 0 6.24827e-15)
(2.43313e-13 0 7.46201e-15)
(2.26718e-13 0 8.5532e-15)
(2.08059e-13 0 9.52274e-15)
(1.87585e-13 0 1.03732e-14)
(1.65544e-13 0 1.1108e-14)
(1.42179e-13 0 1.17305e-14)
(1.17724e-13 0 1.2244e-14)
(9.24024e-14 0 1.2651e-14)
(6.6425e-14 0 1.29523e-14)
(3.99998e-14 0 1.31445e-14)
(1.33506e-14 0 1.32093e-14)
(-2.05904e-05 0 2.67285e-05)
(-5.54564e-05 0 3.50156e-05)
(-2.098e-05 0 0.000194574)
(-0.000178716 0 0.000247462)
(-0.000437191 0 3.05903e-05)
(-0.00043822 0 0.000106435)
(-0.000505365 0 0.000232493)
(-0.000629719 0 3.09992e-05)
(-0.000681623 0 9.33789e-05)
(-0.000737522 0 0.00010909)
(-0.000779494 0 2.00761e-05)
(-0.000800801 0 2.63931e-05)
(-0.000806402 0 1.51509e-05)
(-0.00080496 0 2.48293e-06)
(-0.000803924 0 -2.49685e-05)
(-0.000788701 0 -5.82254e-05)
(-0.000760484 0 -5.70079e-05)
(-0.000734947 0 -2.09831e-05)
(-0.000708242 0 -2.29931e-05)
(-0.000677105 0 -0.000114535)
(-0.000649385 0 -9.51691e-05)
(-0.000617229 0 -6.56364e-05)
(-0.00058384 0 -6.75857e-05)
(-0.000568709 0 -3.61672e-05)
(-0.000569157 0 1.06512e-05)
(-0.000586544 0 7.50654e-05)
(-0.000616341 0 0.000103557)
(-0.000675047 0 0.000173084)
(-0.000781299 0 0.000187529)
(-0.000859589 0 0.000148601)
(-0.000894639 0 7.85898e-05)
(-0.000909146 0 4.05954e-05)
(-0.00092187 0 4.82878e-05)
(-0.000931975 0 3.83811e-05)
(-0.00094467 0 1.7362e-05)
(-0.000964575 0 6.7943e-06)
(-0.00097267 0 1.1764e-05)
(-0.000950819 0 -1.1381e-05)
(-0.000926412 0 5.31533e-06)
(-0.000924351 0 1.65985e-05)
(-0.000929694 0 -4.06589e-06)
(-0.000859907 0 -0.000145783)
(-0.000790913 0 -2.61867e-05)
(-0.000748306 0 -8.37879e-05)
(-0.00071512 0 -2.04602e-05)
(-0.000625748 0 -0.000145042)
(-0.000530127 0 -0.000160611)
(-0.000486043 0 -6.83189e-05)
(-0.000434579 0 -7.03748e-05)
(-0.000352785 0 -0.000151249)
(-0.00030689 0 -5.88186e-05)
(-0.00025342 0 -3.15494e-05)
(-0.000216777 0 -2.72805e-05)
(-0.000141006 0 -0.000155216)
(-0.000134252 0 -3.0478e-05)
(-0.000105577 0 -4.13713e-05)
(-9.33852e-05 0 -4.20837e-05)
(-4.58248e-05 0 -0.000106666)
(-1.01115e-05 0 -4.99063e-05)
(4.01873e-05 0 -5.81292e-05)
(7.29992e-05 0 -7.80133e-05)
(0.00017981 0 -4.5903e-05)
(0.000126576 0 -0.000215302)
(0.000302019 0 -3.6588e-05)
(0.00039382 0 8.59059e-05)
(0.00036724 0 -0.000180089)
(0.000448776 0 -0.000144131)
(0.000566664 0 -9.39501e-05)
(0.000627406 0 -0.000105998)
(0.000643663 0 -0.000110725)
(0.000684828 0 3.31633e-06)
(0.000682324 0 4.99812e-05)
(0.00064626 0 9.18278e-05)
(0.000588777 0 7.9291e-05)
(0.000512114 0 0.000124576)
(0.000460057 0 6.53614e-05)
(0.000413607 0 0.000120159)
(0.000348134 0 0.000136807)
(0.000356643 0 0.000124705)
(-0.00026772 0 0.000114481)
(6.54183e-06 0 0.000253249)
(-2.71751e-13 0 5.83287e-13)
(-1.0836e-12 0 1.42741e-13)
(1.56048e-13 0 9.19843e-14)
(1.00427e-13 0 5.8274e-14)
(7.16779e-14 0 3.55766e-14)
(5.62947e-14 0 1.94005e-14)
(4.97218e-14 0 6.9225e-15)
(5.01051e-14 0 -3.28714e-15)
(5.64765e-14 0 -1.19975e-14)
(6.8068e-14 0 -1.93864e-14)
(8.40508e-14 0 -2.54144e-14)
(1.0349e-13 0 -2.99911e-14)
(1.25374e-13 0 -3.30594e-14)
(1.48663e-13 0 -3.46273e-14)
(1.72349e-13 0 -3.47693e-14)
(1.95496e-13 0 -3.36144e-14)
(2.17278e-13 0 -3.13282e-14)
(2.37001e-13 0 -2.80982e-14)
(2.54113e-13 0 -2.41197e-14)
(2.68204e-13 0 -1.95867e-14)
(2.78996e-13 0 -1.46832e-14)
(2.86334e-13 0 -9.57658e-15)
(2.90166e-13 0 -4.41436e-15)
(2.90528e-13 0 6.77814e-16)
(2.8753e-13 0 5.59691e-15)
(2.81332e-13 0 1.02629e-14)
(2.72132e-13 0 1.46193e-14)
(2.6015e-13 0 1.8631e-14)
(2.45618e-13 0 2.22811e-14)
(2.28779e-13 0 2.55656e-14)
(2.09879e-13 0 2.8488e-14)
(1.8917e-13 0 3.10558e-14)
(1.66901e-13 0 3.32775e-14)
(1.43315e-13 0 3.51615e-14)
(1.18645e-13 0 3.67158e-14)
(9.31107e-14 0 3.79471e-14)
(6.69185e-14 0 3.88602e-14)
(4.02568e-14 0 3.94547e-14)
(1.34154e-14 0 3.97174e-14)
(-3.41931e-05 0 6.34453e-05)
(-4.72844e-05 0 0.000120448)
(-0.000255868 0 0.00014427)
(-0.000173343 0 0.000376532)
(-0.000166028 0 0.000420917)
(-0.000499184 0 0.000124171)
(-0.000515144 0 0.00018214)
(-0.000595293 0 0.000190718)
(-0.000662592 0 9.07806e-05)
(-0.000721489 0 7.48581e-05)
(-0.00076011 0 1.27395e-05)
(-0.000776014 0 4.19571e-05)
(-0.00080274 0 -9.39897e-06)
(-0.000822878 0 -5.95039e-05)
(-0.000836251 0 -5.977e-05)
(-0.000846265 0 -5.07603e-05)
(-0.000849337 0 -4.9337e-05)
(-0.00082798 0 -5.86729e-05)
(-0.000812667 0 -5.64443e-05)
(-0.000810675 0 -5.61707e-05)
(-0.000808032 0 -6.78556e-05)
(-0.000783648 0 -7.51377e-05)
(-0.000761812 0 -4.98352e-05)
(-0.000741028 0 -2.35501e-05)
(-0.000733001 0 -7.79269e-06)
(-0.000748797 0 3.72168e-05)
(-0.000783026 0 0.000110915)
(-0.000809346 0 0.000122252)
(-0.000846511 0 0.00012458)
(-0.000884731 0 0.000126648)
(-0.000920907 0 8.43461e-05)
(-0.000965712 0 5.53889e-05)
(-0.00101183 0 3.93902e-05)
(-0.00104445 0 2.07546e-05)
(-0.00107047 0 8.52872e-06)
(-0.00108629 0 6.1582e-06)
(-0.00108841 0 -2.75835e-06)
(-0.00105388 0 -5.36797e-05)
(-0.00101438 0 -4.93152e-05)
(-0.00100145 0 -4.03466e-05)
(-0.00100146 0 -3.88411e-05)
(-0.00094425 0 -0.000138777)
(-0.000846324 0 -0.000205527)
(-0.000792476 0 -0.00011431)
(-0.000733543 0 -0.000145824)
(-0.000652285 0 -0.000204411)
(-0.000539178 0 -0.000275349)
(-0.000524109 0 -9.23727e-05)
(-0.000443038 0 -0.0001339)
(-0.000359638 0 -0.000174202)
(-0.000315988 0 -0.000104901)
(-0.000246547 0 -0.000135461)
(-0.000208579 0 -0.000135115)
(-0.000209219 0 -6.86949e-05)
(-0.00017642 0 -8.27171e-05)
(-0.000170497 0 -3.46149e-05)
(-0.00014076 0 -7.36253e-05)
(-0.000104036 0 -0.000107405)
(-9.10156e-05 0 -8.35102e-05)
(-2.82204e-05 0 -0.00012875)
(-4.52617e-06 0 -0.000122166)
(7.16184e-05 0 -0.000133839)
(0.000116515 0 -0.000179913)
(0.000189616 0 -0.000177397)
(0.000330604 0 -4.60002e-05)
(0.000340325 0 -0.0001978)
(0.000431313 0 -0.000230275)
(0.000552453 0 -7.81192e-05)
(0.000579403 0 -5.90778e-05)
(0.000580011 0 -0.000146404)
(0.000642275 0 -3.91113e-05)
(0.000646371 0 7.94044e-05)
(0.000616273 0 0.00011944)
(0.000559331 0 0.00016271)
(0.000508169 0 0.000170315)
(0.000467012 0 0.000123733)
(0.000405756 0 0.000153697)
(0.000321285 0 0.000170341)
(0.000350909 0 0.000168992)
(-0.000208764 0 0.000192708)
(6.36153e-06 0 0.000400716)
(-2.90564e-13 0 1.04937e-12)
(-1.28756e-12 0 2.34897e-13)
(7.64519e-14 0 1.39685e-13)
(5.90234e-14 0 8.58884e-14)
(4.57596e-14 0 5.21516e-14)
(3.77138e-14 0 2.82531e-14)
(3.49265e-14 0 9.22752e-15)
(3.75915e-14 0 -7.05753e-15)
(4.57532e-14 0 -2.14095e-14)
(5.9095e-14 0 -3.38014e-14)
(7.69443e-14 0 -4.39811e-14)
(9.83632e-14 0 -5.17069e-14)
(1.22264e-13 0 -5.6849e-14)
(1.47517e-13 0 -5.94167e-14)
(1.73029e-13 0 -5.95448e-14)
(1.97804e-13 0 -5.74643e-14)
(2.20977e-13 0 -5.34688e-14)
(2.41835e-13 0 -4.78853e-14)
(2.5982e-13 0 -4.10526e-14)
(2.7453e-13 0 -3.33043e-14)
(2.85705e-13 0 -2.49548e-14)
(2.93213e-13 0 -1.62879e-14)
(2.97031e-13 0 -7.55143e-15)
(2.97226e-13 0 1.04539e-15)
(2.93937e-13 0 9.3322e-15)
(2.87359e-13 0 1.71779e-14)
(2.77719e-13 0 2.4491e-14)
(2.65264e-13 0 3.12163e-14)
(2.50248e-13 0 3.73283e-14)
(2.32925e-13 0 4.28229e-14)
(2.1355e-13 0 4.77081e-14)
(1.92375e-13 0 5.19975e-14)
(1.6965e-13 0 5.57061e-14)
(1.45617e-13 0 5.88487e-14)
(1.2051e-13 0 6.14389e-14)
(9.45468e-14 0 6.34893e-14)
(6.79326e-14 0 6.50113e-14)
(4.08569e-14 0 6.60142e-14)
(1.36133e-14 0 6.65089e-14)
(-7.0638e-05 0 0.000135023)
(-0.000106492 0 0.000201954)
(-0.000274986 0 0.00029371)
(-0.000339178 0 0.000361119)
(-0.000317615 0 0.000398148)
(-0.000428181 0 0.000292874)
(-0.000505401 0 0.000201872)
(-0.000534412 0 0.000316483)
(-0.000681879 0 9.9775e-05)
(-0.000690973 0 0.000216401)
(-0.000748547 0 0.000110951)
(-0.000793047 0 1.12016e-05)
(-0.00083595 0 4.95315e-05)
(-0.000862897 0 -1.18248e-05)
(-0.000868811 0 -4.70669e-05)
(-0.000884992 0 -7.15899e-05)
(-0.000904902 0 -5.4512e-05)
(-0.000908462 0 -5.4879e-05)
(-0.000906047 0 -8.98352e-05)
(-0.000907888 0 -0.000112237)
(-0.000909314 0 -0.00010901)
(-0.000912765 0 -7.91959e-05)
(-0.000913431 0 -4.67616e-05)
(-0.000910885 0 -5.15902e-06)
(-0.000912385 0 4.28694e-05)
(-0.00091163 0 0.000162178)
(-0.000926099 0 0.000240692)
(-0.000944826 0 0.000233633)
(-0.000945605 0 0.000220416)
(-0.000971953 0 0.000141307)
(-0.00102889 0 6.87869e-05)
(-0.00106234 0 9.95264e-05)
(-0.00109085 0 0.000110793)
(-0.00111702 0 8.49576e-05)
(-0.00112868 0 4.65537e-05)
(-0.00112629 0 9.14287e-06)
(-0.00110761 0 -4.69285e-05)
(-0.00107631 0 -7.62046e-05)
(-0.0010388 0 -7.21315e-05)
(-0.00101157 0 -4.97628e-05)
(-0.00100178 0 -7.13243e-05)
(-0.000989083 0 -0.000159874)
(-0.000875636 0 -0.000268758)
(-0.00078782 0 -0.000151646)
(-0.000718512 0 -0.00017871)
(-0.000637168 0 -0.000258894)
(-0.00049528 0 -0.000363653)
(-0.000508091 0 -0.000139239)
(-0.000344168 0 -0.000278527)
(-0.000261796 0 -0.000249536)
(-0.000235895 0 -0.000156725)
(-0.000195336 0 -0.000140408)
(-0.000159698 0 -0.00014649)
(-0.000167845 0 -9.82567e-05)
(-0.000158441 0 -7.70521e-05)
(-0.000159939 0 -4.79383e-05)
(-0.000133372 0 -9.11285e-05)
(-9.91901e-05 0 -0.000127065)
(-8.10974e-05 0 -0.000130403)
(-3.36361e-05 0 -0.000157103)
(-9.85211e-06 0 -0.000169576)
(7.1649e-05 0 -0.000213923)
(0.000104473 0 -0.000241546)
(9.15189e-05 0 -0.0003042)
(0.000272988 0 -0.00023712)
(0.000343293 0 -0.000238936)
(0.000414295 0 -0.000273359)
(0.000506489 0 -0.000165202)
(0.000547866 0 -0.000127687)
(0.000538243 0 -0.000297881)
(0.000634452 0 -1.18223e-05)
(0.000630988 0 0.000127573)
(0.0006108 0 0.000163185)
(0.000568955 0 0.00016641)
(0.000491026 0 0.000234935)
(0.000442865 0 0.000210703)
(0.000384633 0 0.000220454)
(0.000298069 0 0.000233829)
(0.000328185 0 0.000246817)
(-0.000215432 0 0.00026014)
(6.39953e-06 0 0.000547662)
(-3.46633e-13 0 1.25293e-12)
(-1.37195e-12 0 2.29508e-13)
(7.59311e-15 0 1.45846e-13)
(1.34142e-14 0 9.33196e-14)
(1.45378e-14 0 5.87709e-14)
(1.37644e-14 0 3.21991e-14)
(1.45631e-14 0 8.81234e-15)
(1.94681e-14 0 -1.28939e-14)
(2.97326e-14 0 -3.29133e-14)
(4.54964e-14 0 -5.05534e-14)
(6.61454e-14 0 -6.51111e-14)
(9.06226e-14 0 -7.60922e-14)
(1.17664e-13 0 -8.327e-14)
(1.45967e-13 0 -8.6668e-14)
(1.74302e-13 0 -8.65113e-14)
(2.01572e-13 0 -8.31689e-14)
(2.26857e-13 0 -7.70975e-14)
(2.49417e-13 0 -6.8794e-14)
(2.68694e-13 0 -5.87617e-14)
(2.84302e-13 0 -4.74874e-14)
(2.96013e-13 0 -3.54229e-14)
(3.03738e-13 0 -2.29705e-14)
(3.07499e-13 0 -1.04757e-14)
(3.07412e-13 0 1.77464e-15)
(3.03662e-13 0 1.35498e-14)
(2.96491e-13 0 2.46729e-14)
(2.8617e-13 0 3.50193e-14)
(2.72987e-13 0 4.45128e-14)
(2.57225e-13 0 5.31187e-14)
(2.39159e-13 0 6.08326e-14)
(2.19054e-13 0 6.76697e-14)
(1.97169e-13 0 7.36545e-14)
(1.73752e-13 0 7.88144e-14)
(1.49048e-13 0 8.31764e-14)
(1.23285e-13 0 8.6765e-14)
(9.66831e-14 0 8.96025e-14)
(6.94434e-14 0 9.17081e-14)
(4.17544e-14 0 9.30977e-14)
(1.39102e-14 0 9.37841e-14)
(-5.32113e-05 0 0.000238913)
(-0.000192579 0 0.000304261)
(-0.000273268 0 0.000427354)
(-0.000526939 0 0.000357078)
(-0.000468527 0 0.000388571)
(-0.000441261 0 0.000379992)
(-0.000560185 0 0.000228494)
(-0.000497365 0 0.000413817)
(-0.000640981 0 0.000257406)
(-0.000684517 0 0.000211305)
(-0.000748189 0 0.000138463)
(-0.000815068 0 8.43373e-05)
(-0.000850734 0 7.46341e-05)
(-0.000857241 0 4.34687e-05)
(-0.000867149 0 2.25903e-05)
(-0.000926711 0 -4.32178e-06)
(-0.000949259 0 -2.76114e-05)
(-0.000953029 0 -6.28387e-05)
(-0.000967762 0 -6.02776e-05)
(-0.000982475 0 -6.41858e-05)
(-0.000985761 0 -9.77203e-05)
(-0.00100118 0 -0.000101809)
(-0.00101825 0 -7.14183e-05)
(-0.00103065 0 -3.72378e-05)
(-0.00104772 0 8.53366e-06)
(-0.00105187 0 5.48582e-05)
(-0.00104011 0 0.000213585)
(-0.00104877 0 0.000234433)
(-0.00105559 0 0.000216752)
(-0.00106156 0 0.000259642)
(-0.00111123 0 0.00018982)
(-0.00113152 0 0.000130912)
(-0.00114151 0 8.15839e-05)
(-0.00115228 0 7.09356e-05)
(-0.00113733 0 3.10869e-05)
(-0.00108945 0 -1.31398e-05)
(-0.00108011 0 -2.70416e-05)
(-0.00108535 0 -6.19683e-05)
(-0.00103647 0 -0.00022253)
(-0.00100563 0 -4.97055e-05)
(-0.000977705 0 -0.000140259)
(-0.000985914 0 -0.000161222)
(-0.000897489 0 -0.000355418)
(-0.00074023 0 -0.000401628)
(-0.000699824 0 -0.000253833)
(-0.000607364 0 -0.000317979)
(-0.000404251 0 -0.000487745)
(-0.000495793 0 -0.000178762)
(-0.000217282 0 -0.00038994)
(-0.000180623 0 -0.000289664)
(-9.83589e-05 0 -0.000231058)
(-6.54343e-05 0 -0.000192359)
(-4.72134e-05 0 -0.000152918)
(-5.84217e-05 0 -0.000104108)
(-6.50497e-05 0 -8.53022e-05)
(-8.25752e-05 0 -7.74259e-05)
(-6.19618e-05 0 -0.000119847)
(-4.6835e-05 0 -0.000151184)
(-4.69089e-05 0 -0.000161481)
(3.50516e-05 0 -0.000216295)
(4.06223e-05 0 -0.000238489)
(0.000166399 0 -0.00027994)
(0.000239575 0 -0.000272965)
(0.00030322 0 -0.000305192)
(0.000336924 0 -0.000351926)
(0.000401574 0 -0.000348444)
(0.000452686 0 -0.000354453)
(0.000498797 0 -0.000297426)
(0.000536883 0 -0.000234982)
(0.000567303 0 -0.000184863)
(0.000573293 0 -6.50132e-05)
(0.000592587 0 3.73685e-05)
(0.000566939 0 0.000219492)
(0.000540132 0 0.000249603)
(0.000472931 0 0.000293238)
(0.000434891 0 0.000243357)
(0.000393122 0 0.000251165)
(0.000305971 0 0.00028334)
(0.000322023 0 0.000308043)
(-0.000201487 0 0.000332562)
(6.39408e-06 0 0.000691629)
(-4.28571e-13 0 1.60382e-12)
(-1.48488e-12 0 1.96463e-13)
(-5.91877e-14 0 1.20797e-13)
(-2.75375e-14 0 8.27039e-14)
(-1.48726e-14 0 5.73459e-14)
(-1.18784e-14 0 3.2999e-14)
(-1.00388e-14 0 6.76448e-15)
(-4.13415e-15 0 -2.05058e-14)
(8.09378e-15 0 -4.68893e-14)
(2.68973e-14 0 -7.04821e-14)
(5.14055e-14 0 -8.99059e-14)
(8.02043e-14 0 -1.04356e-13)
(1.11688e-13 0 -1.13525e-13)
(1.44275e-13 0 -1.17503e-13)
(1.76528e-13 0 -1.16661e-13)
(2.07218e-13 0 -1.11567e-13)
(2.35352e-13 0 -1.0289e-13)
(2.60171e-13 0 -9.13394e-14)
(2.81127e-13 0 -7.76116e-14)
(2.97869e-13 0 -6.23643e-14)
(3.10221e-13 0 -4.61961e-14)
(3.1816e-13 0 -2.96315e-14)
(3.21776e-13 0 -1.31119e-14)
(3.21252e-13 0 3.00332e-15)
(3.16836e-13 0 1.84302e-14)
(3.08828e-13 0 3.2953e-14)
(2.97559e-13 0 4.64196e-14)
(2.83363e-13 0 5.87366e-14)
(2.66568e-13 0 6.98628e-14)
(2.47476e-13 0 7.97976e-14)
(2.26372e-13 0 8.85676e-14)
(2.03519e-13 0 9.62142e-14)
(1.79172e-13 0 1.02783e-13)
(1.53568e-13 0 1.0832e-13)
(1.26936e-13 0 1.12864e-13)
(9.94899e-14 0 1.16451e-13)
(7.14277e-14 0 1.1911e-13)
(4.29329e-14 0 1.20865e-13)
(1.42997e-14 0 1.21731e-13)
(-2.37851e-05 0 0.000342243)
(-8.03047e-05 0 0.000431862)
(-0.000300805 0 0.000487015)
(-0.000216099 0 0.000598593)
(-0.000314679 0 0.000557604)
(-0.000472918 0 0.000447638)
(-0.000503834 0 0.000426152)
(-0.000569559 0 0.000366227)
(-0.000633155 0 0.000298092)
(-0.000660407 0 0.000283096)
(-0.000735624 0 0.000175325)
(-0.000803889 0 0.00013518)
(-0.000846955 0 0.000114437)
(-0.00087225 0 1.79973e-05)
(-0.000915171 0 -6.9616e-05)
(-0.000964846 0 1.31295e-05)
(-0.000973323 0 -1.31813e-05)
(-0.000965707 0 -3.18625e-05)
(-0.00098731 0 -4.09219e-05)
(-0.00100875 0 -5.16736e-05)
(-0.00101631 0 -8.07786e-05)
(-0.00104677 0 -5.49834e-05)
(-0.0010776 0 -1.61513e-05)
(-0.00110349 0 7.47875e-06)
(-0.0011324 0 7.8431e-05)
(-0.00114304 0 0.000114518)
(-0.00113193 0 0.000175464)
(-0.0011241 0 0.000211523)
(-0.00112244 0 0.000217056)
(-0.00110029 0 0.000180135)
(-0.00108841 0 0.000187633)
(-0.00109819 0 0.000166492)
(-0.0011258 0 0.00012619)
(-0.0011391 0 0.000104249)
(-0.00113303 0 -6.98192e-06)
(-0.00108525 0 -9.58021e-05)
(-0.00106986 0 -9.39632e-05)
(-0.00107267 0 -0.000106411)
(-0.00105398 0 -6.82297e-05)
(-0.00100443 0 -0.00012257)
(-0.000976371 0 -0.000178263)
(-0.000964777 0 -0.000211196)
(-0.000918303 0 -0.000345944)
(-0.000765459 0 -0.000511193)
(-0.000714226 0 -0.000418217)
(-0.00056469 0 -0.000499627)
(-0.000367926 0 -0.000540989)
(-0.000439587 0 -0.000316748)
(-1.94447e-05 0 -0.000598045)
(-0.000127248 0 -0.00030993)
(-2.5465e-05 0 -0.000235168)
(7.87378e-06 0 -0.000179121)
(4.38573e-05 0 -0.000149145)
(4.05649e-05 0 -9.05142e-05)
(2.37118e-05 0 -6.49306e-05)
(-1.41819e-06 0 -6.763e-05)
(8.84734e-06 0 -0.000118763)
(1.43733e-05 0 -0.000167976)
(1.04073e-05 0 -0.000207154)
(0.000121289 0 -0.000284015)
(0.000134453 0 -0.000311918)
(0.000224321 0 -0.000337828)
(0.000294668 0 -0.000365029)
(0.000331726 0 -0.000429937)
(0.000463951 0 -0.000409641)
(0.000497418 0 -0.000399897)
(0.000562543 0 -0.000319978)
(0.000564412 0 -0.000298443)
(0.000573586 0 -0.000236674)
(0.000576093 0 -0.000187788)
(0.000567873 0 -8.50088e-05)
(0.000540146 0 0.000113227)
(0.000527355 0 0.000200276)
(0.000500629 0 0.000283334)
(0.000445339 0 0.000335814)
(0.000430209 0 0.000284914)
(0.000362784 0 0.000337431)
(0.000283338 0 0.000369288)
(0.000312554 0 0.000378921)
(-0.000205905 0 0.000386938)
(6.56427e-06 0 0.00083865)
(-5.86292e-13 0 1.94015e-12)
(-1.59981e-12 0 9.11316e-14)
(-1.05631e-13 0 5.80866e-14)
(-4.95374e-14 0 5.92753e-14)
(-3.46913e-14 0 5.48402e-14)
(-3.64878e-14 0 3.57551e-14)
(-3.88457e-14 0 5.78454e-15)
(-3.41857e-14 0 -2.90697e-14)
(-2.02437e-14 0 -6.37238e-14)
(2.47976e-15 0 -9.46507e-14)
(3.22719e-14 0 -1.19742e-13)
(6.70031e-14 0 -1.37955e-13)
(1.04517e-13 0 -1.49014e-13)
(1.42832e-13 0 -1.53178e-13)
(1.80238e-13 0 -1.51065e-13)
(2.15343e-13 0 -1.43519e-13)
(2.47084e-13 0 -1.31494e-13)
(2.74696e-13 0 -1.15964e-13)
(2.97669e-13 0 -9.78597e-14)
(3.15717e-13 0 -7.80323e-14)
(3.28746e-13 0 -5.72391e-14)
(3.36822e-13 0 -3.61303e-14)
(3.40134e-13 0 -1.52419e-14)
(3.38954e-13 0 5.00078e-15)
(3.33612e-13 0 2.42707e-14)
(3.2448e-13 0 4.23252e-14)
(3.11954e-13 0 5.89958e-14)
(2.9643e-13 0 7.41814e-14)
(2.78286e-13 0 8.78414e-14)
(2.57863e-13 0 9.99848e-14)
(2.35471e-13 0 1.10656e-13)
(2.11384e-13 0 1.19918e-13)
(1.85858e-13 0 1.27841e-13)
(1.59128e-13 0 1.34495e-13)
(1.31417e-13 0 1.3994e-13)
(1.02929e-13 0 1.44229e-13)
(7.38571e-14 0 1.47404e-13)
(4.43751e-14 0 1.49497e-13)
(1.47764e-14 0 1.50531e-13)
(-0.000144548 0 0.000427873)
(-0.000128635 0 0.000501408)
(-0.00021514 0 0.000567064)
(-0.000217763 0 0.000603908)
(-0.000288826 0 0.000577629)
(-0.000381751 0 0.000507956)
(-0.000476113 0 0.000455412)
(-0.000499632 0 0.000468884)
(-0.000575754 0 0.000399024)
(-0.000639655 0 0.000322835)
(-0.000702375 0 0.000249005)
(-0.000774538 0 0.000201993)
(-0.000810095 0 0.00020236)
(-0.000851196 0 0.000123893)
(-0.000916403 0 2.73024e-05)
(-0.000959997 0 7.25691e-05)
(-0.000981162 0 3.0296e-06)
(-0.000981161 0 -0.000129855)
(-0.00100396 0 -1.65472e-05)
(-0.00101506 0 -1.89797e-05)
(-0.00102208 0 -9.62816e-05)
(-0.00105858 0 -3.08467e-05)
(-0.00108036 0 -2.66393e-05)
(-0.00109613 0 2.26209e-05)
(-0.00111743 0 6.68842e-05)
(-0.00112523 0 0.000106751)
(-0.00111437 0 0.000182646)
(-0.00110641 0 0.00021877)
(-0.00110512 0 0.000229854)
(-0.00109751 0 0.000185341)
(-0.00108914 0 0.000161585)
(-0.00109047 0 0.000136769)
(-0.00109426 0 0.000112601)
(-0.00109741 0 7.39179e-05)
(-0.00110137 0 4.8518e-05)
(-0.00108835 0 -0.000126682)
(-0.00107255 0 -7.04247e-05)
(-0.0010609 0 -0.00011943)
(-0.00104748 0 -0.000159446)
(-0.00100997 0 -0.000150762)
(-0.000962479 0 -0.000198432)
(-0.000918475 0 -0.000291291)
(-0.000859929 0 -0.00044388)
(-0.00080941 0 -0.000496019)
(-0.00073527 0 -0.000519113)
(-0.000598292 0 -0.000608388)
(-0.00050346 0 -0.000587124)
(-0.000373821 0 -0.000589306)
(-7.52894e-05 0 -0.000653233)
(-0.000141201 0 -0.000343306)
(6.40354e-05 0 -0.000346059)
(0.000230544 0 -0.000209982)
(0.0001944 0 -0.000124515)
(0.000165245 0 -4.90806e-05)
(0.000106945 0 -3.21806e-05)
(6.90842e-05 0 -5.41917e-05)
(7.69296e-05 0 -0.000108526)
(7.84609e-05 0 -0.000182439)
(9.20938e-05 0 -0.000260619)
(0.000178205 0 -0.000333686)
(0.000235823 0 -0.00037558)
(0.000255795 0 -0.000422812)
(0.000404108 0 -0.000407397)
(0.000441087 0 -0.000480484)
(0.000512444 0 -0.00046965)
(0.000529959 0 -0.000445892)
(0.000557339 0 -0.000390797)
(0.000576634 0 -0.000317157)
(0.000581907 0 -0.000239181)
(0.000575852 0 -0.000189153)
(0.000545101 0 -6.04927e-05)
(0.000510408 0 0.000121676)
(0.000486922 0 0.000220923)
(0.000441222 0 0.000327391)
(0.000409678 0 0.000361067)
(0.000406565 0 0.000327339)
(0.000284927 0 0.000420554)
(0.00028947 0 0.000413717)
(0.000285677 0 0.000435359)
(-0.000195909 0 0.000454446)
(7.00081e-06 0 0.000994744)
(-8.51284e-13 0 2.43215e-12)
(-1.65913e-12 0 -1.16845e-13)
(-9.05388e-14 0 -3.89569e-14)
(-3.03093e-14 0 4.13807e-14)
(-3.79351e-14 0 6.69122e-14)
(-6.06501e-14 0 4.9497e-14)
(-7.48061e-14 0 9.68711e-15)
(-7.36425e-14 0 -3.78819e-14)
(-5.74872e-14 0 -8.43256e-14)
(-2.9121e-14 0 -1.24695e-13)
(8.10098e-15 0 -1.56494e-13)
(5.0932e-14 0 -1.78742e-13)
(9.64653e-14 0 -1.91423e-13)
(1.42225e-13 0 -1.95147e-13)
(1.86187e-13 0 -1.90912e-13)
(2.26789e-13 0 -1.79945e-13)
(2.62907e-13 0 -1.63568e-13)
(2.93805e-13 0 -1.43086e-13)
(3.19059e-13 0 -1.1971e-13)
(3.38489e-13 0 -9.45159e-14)
(3.52124e-13 0 -6.84336e-14)
(3.60157e-13 0 -4.22411e-14)
(3.62907e-13 0 -1.65647e-14)
(3.60764e-13 0 8.11363e-15)
(3.5416e-13 0 3.14383e-14)
(3.43553e-13 0 5.31568e-14)
(3.29415e-13 0 7.3102e-14)
(3.12209e-13 0 9.11805e-14)
(2.92371e-13 0 1.07365e-13)
(2.7029e-13 0 1.21682e-13)
(2.46304e-13 0 1.342e-13)
(2.20705e-13 0 1.45012e-13)
(1.93749e-13 0 1.54218e-13)
(1.65667e-13 0 1.61917e-13)
(1.3667e-13 0 1.68195e-13)
(1.06954e-13 0 1.73126e-13)
(7.66958e-14 0 1.7677e-13)
(4.60598e-14 0 1.79169e-13)
(1.53334e-14 0 1.80355e-13)
(-6.26165e-05 0 0.000479263)
(6.74504e-06 0 0.000609096)
(-7.64615e-05 0 0.000636651)
(-0.000243491 0 0.00061807)
(-0.000275515 0 0.000611822)
(-0.000343952 0 0.000554497)
(-0.000432151 0 0.00050034)
(-0.000482985 0 0.000480594)
(-0.000553562 0 0.000420004)
(-0.000528876 0 0.000457126)
(-0.000636696 0 0.00033265)
(-0.000694938 0 0.000284816)
(-0.000749402 0 0.000231421)
(-0.000800767 0 0.000101777)
(-0.000850837 0 -1.3673e-05)
(-0.00090273 0 8.96004e-05)
(-0.000928272 0 2.24438e-05)
(-0.000922825 0 -4.1157e-05)
(-0.000939501 0 8.32557e-06)
(-0.000972541 0 -8.57327e-06)
(-0.000989807 0 -6.88271e-05)
(-0.00101725 0 6.24436e-07)
(-0.00103369 0 3.35031e-05)
(-0.00104197 0 -3.2743e-06)
(-0.00106055 0 8.20534e-05)
(-0.0010735 0 0.000104236)
(-0.00106679 0 0.000142801)
(-0.00104183 0 0.000223169)
(-0.00103913 0 0.000212126)
(-0.00104535 0 0.000196361)
(-0.00105735 0 0.000192247)
(-0.00106109 0 0.00018505)
(-0.00104685 0 0.000129552)
(-0.00103028 0 7.79129e-05)
(-0.00103027 0 1.01499e-05)
(-0.00103728 0 -6.195e-05)
(-0.00098345 0 -0.0002699)
(-0.000981307 0 -0.000101345)
(-0.000971392 0 -0.00013472)
(-0.000956927 0 -0.000186447)
(-0.000878148 0 -0.000315975)
(-0.000833846 0 -0.000373383)
(-0.000788036 0 -0.000484378)
(-0.000781443 0 -0.000520545)
(-0.000728886 0 -0.00058716)
(-0.000649996 0 -0.000684632)
(-0.000469002 0 -0.000800088)
(-0.000396667 0 -0.000788316)
(-0.000430404 0 -0.000684344)
(-9.14237e-05 0 -0.000716968)
(-1.60917e-05 0 -0.000557145)
(0.000211229 0 -0.000340242)
(0.000240136 0 -0.000116248)
(0.000217037 0 8.90204e-06)
(0.000171615 0 -7.88187e-06)
(0.000156435 0 -2.14021e-05)
(0.000149893 0 -8.43629e-05)
(0.000113041 0 -0.000175532)
(0.000120448 0 -0.000281674)
(0.000194006 0 -0.000383639)
(0.000237291 0 -0.000459575)
(0.000348783 0 -0.000474521)
(0.000396534 0 -0.000522912)
(0.000491542 0 -0.000537784)
(0.000544684 0 -0.000495624)
(0.000550905 0 -0.000465426)
(0.000568895 0 -0.000397079)
(0.000586228 0 -0.000302015)
(0.000546486 0 -0.000264097)
(0.000550678 0 -0.000171803)
(0.000553687 0 -3.30752e-05)
(0.00048542 0 0.000138326)
(0.000408719 0 0.000289875)
(0.000380283 0 0.000344038)
(0.000328871 0 0.000402828)
(0.000339593 0 0.000383321)
(0.000276161 0 0.0004298)
(0.000229876 0 0.000463934)
(0.000350789 0 0.00047844)
(-0.000385476 0 0.000470352)
(7.60211e-06 0 0.00117313)
(-1.27116e-12 0 3.53394e-12)
(-1.68535e-12 0 -5.61435e-13)
(5.30441e-14 0 -1.38563e-13)
(5.67698e-14 0 7.81815e-14)
(-2.61476e-14 0 1.21866e-13)
(-9.34809e-14 0 8.57616e-14)
(-1.26203e-13 0 2.1317e-14)
(-1.28198e-13 0 -4.78605e-14)
(-1.07057e-13 0 -1.11023e-13)
(-6.96891e-14 0 -1.63323e-13)
(-2.17749e-14 0 -2.02806e-13)
(3.20743e-14 0 -2.291e-13)
(8.81121e-14 0 -2.42794e-13)
(1.43343e-13 0 -2.45079e-13)
(1.95439e-13 0 -2.37505e-13)
(2.42687e-13 0 -2.21803e-13)
(2.83944e-13 0 -1.99756e-13)
(3.18554e-13 0 -1.73071e-13)
(3.46239e-13 0 -1.43293e-13)
(3.66993e-13 0 -1.11755e-13)
(3.8102e-13 0 -7.95723e-14)
(3.88691e-13 0 -4.76506e-14)
(3.90489e-13 0 -1.66969e-14)
(3.86957e-13 0 1.27651e-14)
(3.78655e-13 0 4.03697e-14)
(3.66144e-13 0 6.58774e-14)
(3.49978e-13 0 8.91458e-14)
(3.30693e-13 0 1.10111e-13)
(3.08787e-13 0 1.28775e-13)
(2.84699e-13 0 1.45197e-13)
(2.58801e-13 0 1.59479e-13)
(2.31402e-13 0 1.71748e-13)
(2.02763e-13 0 1.82142e-13)
(1.73105e-13 0 1.90793e-13)
(1.42626e-13 0 1.97819e-13)
(1.11504e-13 0 2.0332e-13)
(7.99001e-14 0 2.07374e-13)
(4.79602e-14 0 2.10041e-13)
(1.59619e-14 0 2.11359e-13)
(1.3602e-05 0 0.000484726)
(-0.000135875 0 0.000632569)
(9.98991e-05 0 0.000720085)
(-2.03646e-05 0 0.000736988)
(-2.83393e-05 0 0.000751947)
(-0.000179298 0 0.000692343)
(-0.000303422 0 0.000614316)
(-0.000423383 0 0.000544567)
(-0.000430861 0 0.000527886)
(-0.000576753 0 0.000355854)
(-0.000552875 0 0.000384414)
(-0.000640911 0 0.000286089)
(-0.000648204 0 0.000301683)
(-0.000687288 0 0.000245165)
(-0.000770049 0 8.8181e-05)
(-0.000796333 0 0.000166418)
(-0.000817879 0 0.000136996)
(-0.000836003 0 -9.8022e-05)
(-0.000882397 0 -5.38418e-05)
(-0.000921721 0 2.36791e-05)
(-0.000931624 0 -4.45428e-05)
(-0.000940692 0 -3.04326e-05)
(-0.00095223 0 2.95137e-05)
(-0.000956698 0 1.92932e-05)
(-0.000959494 0 7.98138e-05)
(-0.000968147 0 0.000137329)
(-0.000972264 0 0.000142321)
(-0.000957971 0 0.000183157)
(-0.000945679 0 0.000200991)
(-0.000948106 0 0.000188168)
(-0.000958462 0 0.000167424)
(-0.000958668 0 0.000154811)
(-0.000928556 0 8.28704e-05)
(-0.000892632 0 4.11557e-05)
(-0.000882866 0 7.01962e-06)
(-0.00088693 0 -3.79876e-05)
(-0.000871015 0 -0.00010382)
(-0.000820865 0 -0.000217027)
(-0.00081402 0 -0.000174147)
(-0.000808604 0 -0.000205251)
(-0.000789675 0 -0.000296479)
(-0.000726063 0 -0.00045563)
(-0.000707114 0 -0.000563318)
(-0.000694726 0 -0.000631269)
(-0.000666691 0 -0.00070087)
(-0.000653056 0 -0.000749534)
(-0.000569641 0 -0.00082875)
(-0.000523428 0 -0.000860215)
(-0.000438264 0 -0.000871046)
(-0.000215433 0 -0.000859451)
(-0.000288675 0 -0.000613697)
(-0.000200059 0 -0.000464252)
(-1.89141e-06 0 -0.000269592)
(0.000114272 0 -1.16564e-05)
(7.9295e-05 0 -1.69617e-05)
(0.00012507 0 -1.78217e-05)
(0.000121499 0 -6.60108e-05)
(0.000112151 0 -0.000164649)
(0.000127487 0 -0.000301477)