/*--------------------------------*- C++ -*----------------------------------*\
  =========                 |
  \\      /  F ield         | OpenFOAM: The Open Source CFD Toolbox
   \\    /   O peration     | Website:  https://openfoam.org
    \\  /    A nd           | Version:  6
     \\/     M anipulation  |
\*---------------------------------------------------------------------------*/
FoamFile
{
    version     2.0;
    format      ascii;
    class       surfaceScalarField;
    location    "4300";
    object      phi;
}
// * * * * * * * * * * * * * * * * * * * * * * * * * * * * * * * * * * * * * //

dimensions      [0 3 -1 0 0 0 0];

internalField   nonuniform List<scalar> 
9440
(
4.9786e-11
-4.9786e-11
9.34255e-11
-4.36378e-11
1.12751e-10
-1.93238e-11
1.41978e-10
-2.92258e-11
1.74642e-10
-3.26628e-11
1.59477e-10
1.51657e-11
4.08795e-11
1.18598e-10
-3.27993e-11
7.36796e-11
-3.68969e-11
4.09826e-12
-2.26463e-10
1.89566e-10
-4.6507e-10
2.38607e-10
-6.02349e-10
1.37279e-10
-5.1778e-10
-8.45686e-11
-7.34974e-10
2.17194e-10
-8.31769e-10
9.67942e-11
-9.16367e-10
8.45969e-11
-1.05087e-09
1.34506e-10
-1.05336e-09
2.48452e-12
-1.13002e-09
7.66598e-11
-1.29751e-09
1.67485e-10
-1.56088e-09
2.63372e-10
-1.84375e-09
2.82865e-10
-2.09676e-09
2.53006e-10
-2.2388e-09
1.42046e-10
-2.31023e-09
7.14239e-11
-2.36878e-09
5.85448e-11
-2.38769e-09
1.89097e-11
-2.3975e-09
9.81442e-12
-2.40798e-09
1.04724e-11
-2.42091e-09
1.29319e-11
-2.45441e-09
3.35021e-11
-2.48541e-09
3.09912e-11
-2.47319e-09
-1.22145e-11
-2.47337e-09
1.778e-13
-2.44429e-09
-2.90812e-11
-2.42823e-09
-1.60609e-11
-2.43667e-09
8.43492e-12
-2.46046e-09
2.37905e-11
-2.47862e-09
1.81589e-11
-2.51193e-09
3.33081e-11
-2.46238e-09
-4.95551e-11
-2.37188e-09
-9.05053e-11
-2.31172e-09
-6.01593e-11
-2.35075e-09
3.90268e-11
-2.26492e-09
-8.58252e-11
-1.90767e-09
-3.57261e-10
-1.64933e-09
-2.58338e-10
-1.69492e-09
4.55857e-11
-1.55442e-09
-1.40494e-10
-9.29952e-10
-6.24474e-10
-7.76082e-10
-1.53872e-10
-8.64484e-10
8.83997e-11
-3.65334e-10
-4.99151e-10
-2.55663e-10
-1.09674e-10
-8.14743e-11
-1.74191e-10
8.91588e-11
-1.70635e-10
2.29308e-10
-1.40151e-10
4.34365e-10
-2.05059e-10
5.94407e-10
-1.60044e-10
5.59937e-10
3.44679e-11
7.8562e-10
-2.25685e-10
8.68617e-10
-8.29991e-11
8.64489e-10
4.1255e-12
8.69811e-10
-5.32448e-12
8.95049e-10
-2.52405e-11
8.81456e-10
1.35902e-11
8.43162e-10
3.82916e-11
7.96599e-10
4.65602e-11
7.70309e-10
2.62883e-11
7.53283e-10
1.70234e-11
7.4603e-10
7.2504e-12
7.34145e-10
1.18838e-11
7.05382e-10
2.87604e-11
6.69814e-10
3.5566e-11
6.22288e-10
4.75242e-11
5.76826e-10
4.54607e-11
5.31605e-10
4.52187e-11
4.95409e-10
3.61949e-11
5.51089e-10
-5.56818e-11
6.66998e-10
-1.1591e-10
6.93479e-10
-2.64832e-11
6.31205e-10
6.22719e-11
4.76155e-15
6.31196e-10
7.75719e-19
2.21576e-18
5.0926e-19
2.66459e-19
5.9912e-19
-9.22516e-20
7.65315e-19
-1.68088e-19
9.32519e-19
-1.69445e-19
1.08383e-18
-1.5416e-19
1.21848e-18
-1.38095e-19
1.33892e-18
-1.24375e-19
1.44721e-18
-1.1265e-19
1.54447e-18
-1.01919e-19
1.63095e-18
-9.1331e-20
1.70637e-18
-8.03362e-20
1.77018e-18
-6.86548e-20
1.82172e-18
-5.62071e-20
1.86041e-18
-4.30512e-20
1.88578e-18
-2.93347e-20
1.89755e-18
-1.52579e-20
1.89561e-18
-1.04406e-21
1.88008e-18
1.30822e-20
1.8512e-18
2.69129e-20
1.80941e-18
4.02693e-20
1.75525e-18
5.30048e-20
1.68938e-18
6.50054e-20
1.61257e-18
7.61849e-20
1.52561e-18
8.64832e-20
1.42937e-18
9.58651e-20
1.32472e-18
1.04318e-19
1.21254e-18
1.1185e-19
1.09369e-18
1.18483e-19
9.69035e-19
1.24253e-19
8.39409e-19
1.29195e-19
7.05612e-19
1.3335e-19
5.68413e-19
1.36752e-19
4.28549e-19
1.39433e-19
2.86724e-19
1.41414e-19
1.43632e-19
1.42701e-19
1.43256e-19
2.53549e-11
-7.51393e-11
8.91238e-12
-2.71927e-11
-3.00908e-11
1.96816e-11
-1.39581e-11
-4.53564e-11
1.04886e-11
-5.71076e-11
-6.62129e-11
9.18689e-11
-2.85879e-10
3.38266e-10
-6.35583e-10
4.23384e-10
-7.95248e-10
1.63764e-10
-7.98787e-10
1.93105e-10
-7.83425e-10
2.23246e-10
-8.23285e-10
1.77138e-10
-9.84486e-10
7.66316e-11
-1.13762e-09
3.70322e-10
-1.27273e-09
2.31906e-10
-1.46776e-09
2.7963e-10
-1.64401e-09
3.10747e-10
-1.84312e-09
2.01595e-10
-2.03243e-09
2.65964e-10
-2.13494e-09
2.69997e-10
-2.22463e-09
3.53057e-10
-2.33426e-09
3.92489e-10
-2.41995e-09
3.38697e-10
-2.54698e-09
2.69074e-10
-2.67127e-09
1.95712e-10
-2.75464e-09
1.41907e-10
-2.84589e-09
1.10161e-10
-2.90775e-09
7.16665e-11
-2.93979e-09
4.25159e-11
-2.96986e-09
4.29918e-11
-2.9887e-09
5.23427e-11
-2.99464e-09
3.69298e-11
-3.01603e-09
9.16749e-12
-3.04086e-09
2.50066e-11
-3.06443e-09
-5.51704e-12
-3.08567e-09
5.17853e-12
-3.09685e-09
1.96156e-11
-3.09048e-09
1.7418e-11
-3.06172e-09
-1.06025e-11
-3.00367e-09
-2.47505e-11
-2.97369e-09
-7.95375e-11
-2.87286e-09
-1.91335e-10
-2.74308e-09
-1.89939e-10
-2.67452e-09
-2.95405e-11
-2.61101e-09
-1.49342e-10
-2.07923e-09
-8.89045e-10
-1.83659e-09
-5.00979e-10
-1.76896e-09
-2.2045e-11
-1.63786e-09
-2.71597e-10
-1.06539e-09
-1.19695e-09
-1.01806e-09
-2.01203e-10
-7.82278e-10
-1.47388e-10
-5.22774e-10
-7.58659e-10
-3.84179e-10
-2.48272e-10
-2.19382e-10
-3.38991e-10
-2.35423e-11
-3.66479e-10
1.84392e-10
-3.48089e-10
3.63655e-10
-3.84327e-10
5.2791e-10
-3.24302e-10
6.7834e-10
-1.15967e-10
7.60269e-10
-3.07618e-10
8.4389e-10
-1.66625e-10
8.97716e-10
-4.97047e-11
9.3128e-10
-3.88933e-11
9.50434e-10
-4.4399e-11
9.44935e-10
1.90856e-11
8.98895e-10
8.43272e-11
8.47779e-10
9.76717e-11
7.94816e-10
7.92477e-11
7.51981e-10
5.98541e-11
7.20146e-10
3.90822e-11
6.97964e-10
3.40618e-11
6.7406e-10
5.26614e-11
6.34389e-10
7.52334e-11
5.91634e-10
9.02755e-11
5.34524e-10
1.02567e-10
4.65408e-10
1.14331e-10
3.88923e-10
1.12678e-10
3.82721e-10
-4.94831e-11
4.91364e-10
-2.24557e-10
4.99493e-10
-3.46144e-11
3.05865e-10
2.55901e-10
4.08565e-16
9.37071e-10
-6.56676e-19
1.26029e-19
1.48644e-19
-5.38608e-19
5.2263e-19
-4.69063e-19
7.6404e-19
-4.13755e-19
9.47804e-19
-3.58413e-19
1.09989e-18
-3.12295e-19
1.2322e-18
-2.77219e-19
1.35064e-18
-2.50277e-19
1.45794e-18
-2.27911e-19
1.55506e-18
-2.07299e-19
1.64194e-18
-1.8658e-19
1.71805e-18
-1.64693e-19
1.78262e-18
-1.41158e-19
1.83488e-18
-1.15894e-19
1.87413e-18
-8.90902e-20
1.89986e-18
-6.11019e-20
1.91176e-18
-3.23784e-20
1.90974e-18
-3.40535e-21
1.89391e-18
2.53416e-20
1.86456e-18
5.34311e-20
1.82214e-18
8.04966e-20
1.76725e-18
1.06242e-19
1.70056e-18
1.30439e-19
1.62286e-18
1.52921e-19
1.53499e-18
1.73577e-19
1.43782e-18
1.92351e-19
1.33225e-18
2.09235e-19
1.21917e-18
2.24263e-19
1.09946e-18
2.37491e-19
9.73978e-19
2.48994e-19
8.43563e-19
2.58851e-19
7.09014e-19
2.67139e-19
5.71094e-19
2.73928e-19
4.3053e-19
2.79278e-19
2.88011e-19
2.83239e-19
1.44187e-19
2.85848e-19
2.87141e-19
-1.62568e-11
-5.88811e-11
-7.95769e-11
3.61297e-11
-2.45157e-10
1.85263e-10
-5.27208e-10
2.36697e-10
-7.39616e-10
1.55302e-10
-8.5008e-10
2.02334e-10
-8.84287e-10
3.72474e-10
-9.68428e-10
5.07526e-10
-1.04011e-09
2.35449e-10
-1.03426e-09
1.87256e-10
-1.13357e-09
3.22555e-10
-1.14917e-09
1.92736e-10
-1.3665e-09
2.93961e-10
-1.46222e-09
4.66042e-10
-1.58237e-09
3.52053e-10
-1.87536e-09
5.72616e-10
-2.02439e-09
4.59778e-10
-2.24864e-09
4.25841e-10
-2.42767e-09
4.4499e-10
-2.49812e-09
3.40444e-10
-2.5769e-09
4.3184e-10
-2.64879e-09
4.64375e-10
-2.68555e-09
3.7545e-10
-2.76085e-09
3.4437e-10
-2.83908e-09
2.73947e-10
-2.88765e-09
1.90467e-10
-2.94964e-09
1.72155e-10
-3.00143e-09
1.23451e-10
-3.04557e-09
8.6655e-11
-3.10162e-09
9.90334e-11
-3.13612e-09
8.68424e-11
-3.15228e-09
5.30881e-11
-3.17038e-09
2.72624e-11
-3.17949e-09
3.41185e-11
-3.21049e-09
2.54794e-11
-3.2362e-09
3.08866e-11
-3.24959e-09
3.29974e-11
-3.22183e-09
-1.0344e-11
-3.18128e-09
-5.11487e-11
-3.10957e-09
-9.64662e-11
-3.01734e-09
-1.71772e-10
-2.92607e-09
-2.82607e-10
-2.79181e-09
-3.24203e-10
-2.57893e-09
-2.42417e-10
-2.46547e-09
-2.62809e-10
-2.2456e-09
-1.10891e-09
-1.93766e-09
-8.08924e-10
-1.76385e-09
-1.95857e-10
-1.48407e-09
-5.51379e-10
-1.25707e-09
-1.42395e-09
-1.04378e-09
-4.145e-10
-6.43925e-10
-5.47245e-10
-6.66289e-10
-7.36298e-10
-5.30729e-10
-3.83835e-10
-3.88589e-10
-4.81135e-10
-2.24051e-10
-5.3102e-10
6.02947e-11
-6.32439e-10
1.89702e-10
-5.13738e-10
2.57259e-10
-3.91863e-10
4.47348e-10
-3.06059e-10
5.06943e-10
-3.67217e-10
6.06911e-10
-2.66596e-10
6.78459e-10
-1.21256e-10
7.44686e-10
-1.05123e-10
7.90433e-10
-9.01493e-11
8.28484e-10
-1.8969e-11
8.41887e-10
7.09204e-11
8.4382e-10
9.57351e-11
8.25168e-10
9.78968e-11
7.91213e-10
9.38056e-11
7.42506e-10
8.77869e-11
7.0557e-10
7.09944e-11
6.84582e-10
7.36463e-11
6.46e-10
1.13812e-10
5.93623e-10
1.4265e-10
5.26991e-10
1.69197e-10
4.45841e-10
1.95478e-10
2.57425e-10
3.01092e-10
-2.57409e-10
4.65348e-10
-8.91133e-10
4.09164e-10
-1.03906e-09
1.13312e-10
-2.26195e-10
-5.56975e-10
7.34891e-17
7.10871e-10
-2.31811e-19
1.23298e-18
2.18885e-19
-9.9068e-19
5.78613e-19
-8.30982e-19
8.19795e-19
-6.57885e-19
9.93923e-19
-5.36174e-19
1.13497e-18
-4.57634e-19
1.25915e-18
-4.06324e-19
1.37301e-18
-3.69628e-19
1.47855e-18
-3.39398e-19
1.57578e-18
-3.10778e-19
1.66383e-18
-2.81063e-19
1.74159e-18
-2.489e-19
1.80789e-18
-2.13789e-19
1.86168e-18
-1.75776e-19
1.90212e-18
-1.35259e-19
1.92858e-18
-9.28477e-20
1.94074e-18
-4.92707e-20
1.93849e-18
-5.29338e-21
1.922e-18
3.83384e-20
1.89162e-18
8.09476e-20
1.84789e-18
1.2196e-19
1.79145e-18
1.60917e-19
1.72304e-18
1.97473e-19
1.64352e-18
2.31382e-19
1.55377e-18
2.62488e-19
1.45471e-18
2.90716e-19
1.34728e-18
3.16063e-19
1.2324e-18
3.38584e-19
1.11096e-18
3.58375e-19
9.83835e-19
3.75556e-19
8.51852e-19
3.90253e-19
7.15803e-19
4.02592e-19
5.76444e-19
4.12685e-19
4.3449e-19
4.20631e-19
2.9062e-19
4.26512e-19
1.4548e-19
4.30393e-19
4.32321e-19
-3.26066e-11
-2.62731e-11
-1.10715e-10
1.14241e-10
-2.08116e-10
2.82667e-10
-2.96814e-10
3.25396e-10
-5.10566e-10
3.69057e-10
-7.92684e-10
4.84454e-10
-9.8278e-10
5.62571e-10
-1.06777e-09
5.92515e-10
-1.25359e-09
4.2127e-10
-1.45766e-09
3.91328e-10
-1.6004e-09
4.65291e-10
-1.72439e-09
3.16731e-10
-1.84106e-09
4.10632e-10
-1.88715e-09
5.12132e-10
-2.00293e-09
4.67829e-10
-2.08612e-09
6.55804e-10
-2.27822e-09
6.51871e-10
-2.40512e-09
5.52739e-10
-2.52341e-09
5.63279e-10
-2.6316e-09
4.48637e-10
-2.70767e-09
5.07902e-10
-2.76846e-09
5.25169e-10
-2.82689e-09
4.33874e-10
-2.87889e-09
3.96363e-10
-2.90697e-09
3.02029e-10
-2.94824e-09
2.31735e-10
-2.96289e-09
1.868e-10
-2.97585e-09
1.36412e-10
-3.01228e-09
1.2308e-10
-3.04471e-09
1.31458e-10
-3.072e-09
1.14127e-10
-3.09624e-09
7.73261e-11
-3.09179e-09
2.28083e-11
-3.15889e-09
1.01223e-10
-3.1781e-09
4.4688e-11
-3.19325e-09
4.60366e-11
-3.2005e-09
4.02375e-11
-3.18353e-09
-2.73166e-11
-3.14373e-09
-9.09445e-11
-3.11069e-09
-1.29505e-10
-3.06674e-09
-2.15728e-10
-2.97902e-09
-3.70329e-10
-2.76266e-09
-5.40561e-10
-2.56531e-09
-4.39775e-10
-2.24584e-09
-5.82274e-10
-2.36643e-09
-9.88319e-10
-1.95488e-09
-1.22048e-09
-1.55736e-09
-5.93377e-10
-1.35673e-09
-7.52009e-10
-1.20063e-09
-1.58005e-09
-7.55462e-10
-8.59672e-10
-5.58483e-10
-7.44227e-10
-6.7092e-10
-6.23864e-10
-5.57998e-10
-4.9676e-10
-4.40374e-10
-5.98762e-10
-3.04846e-10
-6.66552e-10
-2.39599e-10
-6.97689e-10
-2.25484e-10
-5.27856e-10
-8.18365e-11
-5.35513e-10
1.20309e-10
-5.08207e-10
2.148e-10
-4.61712e-10
2.98618e-10
-3.50417e-10
3.74529e-10
-1.97171e-10
4.3462e-10
-1.65217e-10
5.01998e-10
-1.57531e-10
5.61892e-10
-7.88656e-11
6.41688e-10
-8.87888e-12
7.1582e-10
2.16001e-11
7.57044e-10
5.66697e-11
7.66564e-10
8.42828e-11
7.44303e-10
1.10045e-10
7.38672e-10
7.66226e-11
7.48012e-10
6.43033e-11
7.43913e-10
1.17907e-10
6.90066e-10
1.96494e-10
6.12343e-10
2.46916e-10
5.21999e-10
2.8582e-10
4.2869e-10
3.94398e-10
4.53876e-10
4.40161e-10
5.5288e-10
3.10159e-10
5.01482e-10
1.6471e-10
2.17288e-10
-2.72782e-10
-6.59924e-17
9.28159e-10
-5.60376e-19
-3.76603e-19
3.79217e-19
-1.93146e-18
7.52334e-19
-1.20557e-18
9.41856e-19
-8.49348e-19
1.07246e-18
-6.69256e-19
1.18628e-18
-5.74484e-19
1.29584e-18
-5.19481e-19
1.40324e-18
-4.81153e-19
1.50717e-18
-4.47928e-19
1.60549e-18
-4.14058e-19
1.69599e-18
-3.76793e-19
1.7767e-18
-3.34991e-19
1.8459e-18
-2.88441e-19
1.9022e-18
-2.37502e-19
1.94453e-18
-1.82896e-19
1.97216e-18
-1.25572e-19
1.98471e-18
-6.65887e-20
1.98212e-18
-7.03522e-21
1.96461e-18
5.20404e-20
1.93263e-18
1.09688e-19
1.88685e-18
1.65102e-19
1.828e-18
2.17648e-19
1.75695e-18
2.66856e-19
1.67463e-18
3.12405e-19
1.58199e-18
3.54099e-19
1.48006e-18
3.91854e-19
1.3698e-18
4.25679e-19
1.25219e-18
4.55659e-19
1.12814e-18
4.81937e-19
9.98533e-19
5.04691e-19
8.6419e-19
5.24108e-19
7.25896e-19
5.40372e-19
5.84391e-19
5.5365e-19
4.40372e-19
5.64088e-19
2.94501e-19
5.71807e-19
1.47407e-19
5.76898e-19
5.79425e-19
-8.54456e-11
5.91738e-11
-1.42579e-10
1.71376e-10
-2.21488e-10
3.61578e-10
-4.47878e-10
5.51788e-10
-7.62158e-10
6.83339e-10
-9.84061e-10
7.06357e-10
-1.20596e-09
7.8447e-10
-1.29497e-09
6.81526e-10
-1.42742e-09
5.53721e-10
-1.5801e-09
5.44007e-10
-1.67605e-09
5.61243e-10
-1.8628e-09
5.03479e-10
-1.95862e-09
5.06453e-10
-2.09573e-09
6.49238e-10
-2.32703e-09
6.99124e-10
-2.36213e-09
6.90911e-10
-2.40979e-09
6.99521e-10
-2.51959e-09
6.62539e-10
-2.5574e-09
6.01086e-10
-2.64836e-09
5.39599e-10
-2.68312e-09
5.42654e-10
-2.73877e-09
5.80823e-10
-2.79904e-09
4.94142e-10
-2.847e-09
4.44319e-10
-2.87199e-09
3.27011e-10
-2.87692e-09
2.36661e-10
-2.88294e-09
1.92821e-10
-2.89744e-09
1.50909e-10
-2.93471e-09
1.60343e-10
-2.96147e-09
1.58223e-10
-2.97794e-09
1.30586e-10
-2.99365e-09
9.30418e-11
-3.01145e-09
4.0602e-11
-3.04097e-09
1.30745e-10
-3.07856e-09
8.22752e-11
-3.09656e-09
6.40344e-11
-3.09546e-09
3.91314e-11
-3.10222e-09
-2.05544e-11
-3.06888e-09
-1.24286e-10
-3.05255e-09
-1.45837e-10
-2.98554e-09
-2.82738e-10
-2.94544e-09
-4.10429e-10
-2.7352e-09
-7.50803e-10
-2.57683e-09
-5.9814e-10
-2.38418e-09
-7.74929e-10
-2.36637e-09
-1.00613e-09
-2.05975e-09
-1.5271e-09
-1.53138e-09
-1.12175e-09
-9.60363e-10
-1.32303e-09
-9.42295e-10
-1.59812e-09
-5.49127e-10
-1.25284e-09
-4.22076e-10
-8.71281e-10
-4.68047e-10
-5.77896e-10
-5.01808e-10
-4.63003e-10
-4.62089e-10
-6.38484e-10
-4.21475e-10
-7.0717e-10
-3.98427e-10
-7.2074e-10
-3.01222e-10
-6.25065e-10
-2.44243e-10
-5.92496e-10
-2.23005e-10
-5.29448e-10
-1.69281e-10
-5.15439e-10
-3.54629e-11
-4.84238e-10
1.26512e-10
-3.59148e-10
2.44488e-10
-2.83195e-10
3.18556e-10
-2.316e-10
3.37718e-10
-9.80309e-11
3.83399e-10
-5.45625e-11
4.5482e-10
-4.98232e-11
5.24507e-10
-1.30197e-11
5.91124e-10
1.76625e-11
6.46979e-10
5.41876e-11
7.11449e-10
1.21497e-11
7.62186e-10
1.35629e-11
7.8406e-10
9.60303e-11
7.92413e-10
1.88139e-10
7.4593e-10
2.93397e-10
7.09295e-10
3.22452e-10
6.39437e-10
4.64253e-10
6.50132e-10
4.29464e-10
6.21808e-10
3.38482e-10
6.02163e-10
1.84354e-10
2.80912e-10
4.84694e-11
-2.14611e-16
1.20907e-09
1.10493e-18
4.46067e-18
1.10563e-18
-1.9328e-18
1.10912e-18
-1.20962e-18
1.12223e-18
-8.6335e-19
1.16723e-18
-7.15578e-19
1.24128e-18
-6.50299e-19
1.33417e-18
-6.14629e-19
1.43646e-18
-5.862e-19
1.54104e-18
-5.55731e-19
1.64276e-18
-5.19404e-19
1.7378e-18
-4.75802e-19
1.82325e-18
-4.24686e-19
1.89684e-18
-3.66492e-19
1.9568e-18
-3.02099e-19
2.00185e-18
-2.32686e-19
2.03114e-18
-1.59628e-19
2.04427e-18
-8.43859e-20
2.0412e-18
-8.41888e-21
2.02225e-18
6.68862e-20
1.98805e-18
1.40279e-19
1.93939e-18
2.10701e-19
1.87721e-18
2.77324e-19
1.8025e-18
3.39551e-19
1.71632e-18
3.9699e-19
1.61975e-18
4.49421e-19
1.51388e-18
4.96761e-19
1.39978e-18
5.39047e-19
1.27847e-18
5.76412e-19
1.15089e-18
6.09058e-19
1.01795e-18
6.37233e-19
8.80454e-19
6.612e-19
7.39174e-19
6.81217e-19
5.94829e-19
6.97518e-19
4.48091e-19
7.10307e-19
2.99592e-19
7.19749e-19
1.49934e-19
7.25972e-19
7.2906e-19
-1.99414e-10
2.58589e-10
-4.39875e-10
4.11839e-10
-6.26857e-10
5.48561e-10
-8.15751e-10
7.40683e-10
-9.93866e-10
8.61456e-10
-1.20686e-09
9.1935e-10
-1.39244e-09
9.70058e-10
-1.56464e-09
8.53726e-10
-1.69317e-09
6.82245e-10
-1.78492e-09
6.35759e-10
-1.90617e-09
6.82496e-10
-2.11576e-09
7.13066e-10
-2.279e-09
6.69695e-10
-2.28614e-09
6.56369e-10
-2.35905e-09
7.72039e-10
-2.43535e-09
7.67206e-10
-2.42428e-09
6.88451e-10
-2.4961e-09
7.34361e-10
-2.57361e-09
6.78592e-10
-2.61599e-09
5.8197e-10
-2.66866e-09
5.95323e-10
-2.69583e-09
6.07993e-10
-2.75372e-09
5.52027e-10
-2.7915e-09
4.82095e-10
-2.81085e-09
3.46365e-10
-2.85876e-09
2.84567e-10
-2.89618e-09
2.30237e-10
-2.91697e-09
1.71695e-10
-2.93139e-09
1.74767e-10
-2.92644e-09
1.53269e-10
-2.90507e-09
1.09214e-10
-2.91877e-09
1.0674e-10
-2.97446e-09
9.62819e-11
-2.96474e-09
1.21028e-10
-2.99791e-09
1.1544e-10
-3.02604e-09
9.21607e-11
-3.03293e-09
4.60304e-11
-3.04127e-09
-1.22183e-11
-3.01274e-09
-1.52822e-10
-2.98459e-09
-1.7398e-10
-2.94207e-09
-3.25263e-10
-2.89227e-09
-4.6023e-10
-2.72361e-09
-9.19462e-10
-2.55919e-09
-7.6256e-10
-2.35133e-09
-9.82785e-10
-2.0874e-09
-1.27007e-09
-1.92288e-09
-1.69161e-09
-1.47187e-09
-1.57276e-09
-1.10636e-09
-1.68854e-09
-9.06885e-10
-1.7976e-09
-3.65974e-10
-1.79376e-09
-2.73849e-10
-9.63409e-10
-3.62913e-10
-4.88835e-10
-4.16014e-10
-4.09905e-10
-4.59544e-10
-5.94958e-10
-4.97524e-10
-6.69194e-10
-5.02211e-10
-7.16057e-10
-4.61834e-10
-6.65445e-10
-4.80367e-10
-5.73966e-10
-4.99301e-10
-5.10518e-10
-5.36286e-10
-4.78457e-10
-5.60473e-10
-4.60053e-10
-4.63405e-10
-4.56219e-10
-2.97148e-10
-4.49454e-10
-7.00425e-11
-4.58707e-10
1.13647e-10
-2.81722e-10
1.78109e-10
-1.19027e-10
1.93461e-10
-6.51765e-11
2.15946e-10
-3.55073e-11
2.60464e-10
-2.68585e-11
3.61327e-10
-4.66782e-11
4.81668e-10
-1.08195e-10
5.7991e-10
-8.46817e-11
6.84237e-10
-8.30007e-12
7.60127e-10
1.12246e-10
7.72739e-10
2.80782e-10
7.74753e-10
3.20436e-10
7.95115e-10
4.4389e-10
7.61798e-10
4.62779e-10
6.59877e-10
4.40402e-10
5.11775e-10
3.32456e-10
4.73056e-10
8.71886e-11
2.80926e-14
1.6821e-09
3.3424e-18
2.84068e-14
1.82926e-18
-4.19787e-19
1.45591e-18
-8.36006e-19
1.2702e-18
-6.77618e-19
1.23251e-18
-6.78188e-19
1.27695e-18
-6.95417e-19
1.3626e-18
-7.01372e-19
1.46693e-18
-6.92067e-19
1.57737e-18
-6.68135e-19
1.68636e-18
-6.30766e-19
1.78891e-18
-5.81092e-19
1.88144e-18
-5.20278e-19
1.96123e-18
-4.4965e-19
2.02622e-18
-3.70753e-19
2.07491e-18
-2.85336e-19
2.10639e-18
-1.95293e-19
2.12023e-18
-1.02563e-19
2.1165e-18
-9.03265e-21
2.09564e-18
8.3536e-20
2.05847e-18
1.73569e-19
2.00601e-18
2.59741e-19
1.93944e-18
3.41021e-19
1.85994e-18
4.16684e-19
1.76875e-18
4.86277e-19
1.66709e-18
5.49571e-19
1.55617e-18
6.06514e-19
1.43714e-18
6.57193e-19
1.31111e-18
7.01807e-19
1.17907e-18
7.40637e-19
1.04192e-18
7.7402e-19
9.0047e-19
8.0231e-19
7.55475e-19
8.25853e-19
6.07618e-19
8.44966e-19
4.57533e-19
8.59922e-19
3.05815e-19
8.70942e-19
1.53022e-19
8.78195e-19
8.81794e-19
-4.18634e-11
3.00454e-10
-3.47877e-11
4.04766e-10
-1.08318e-10
6.22093e-10
-5.54154e-10
1.18652e-09
-9.65607e-10
1.27291e-09
-1.25645e-09
1.2102e-09
-1.4119e-09
1.1255e-09
-1.57648e-09
1.0183e-09
-1.8153e-09
9.21067e-10
-1.97522e-09
7.95678e-10
-2.06574e-09
7.73022e-10
-2.1965e-09
8.43825e-10
-2.3015e-09
7.74692e-10
-2.34471e-09
6.99572e-10
-2.37384e-09
8.01168e-10
-2.40451e-09
7.97877e-10
-2.44743e-09
7.3137e-10
-2.47312e-09
7.60046e-10
-2.54123e-09
7.46702e-10
-2.59319e-09
6.33922e-10
-2.63228e-09
6.34418e-10
-2.66496e-09
6.40669e-10
-2.71044e-09
5.97498e-10
-2.72913e-09
5.00785e-10
-2.80622e-09
4.23452e-10
-2.89128e-09
3.69628e-10
-2.92635e-09
2.65306e-10
-2.95387e-09
1.99209e-10
-2.96702e-09
1.87908e-10
-2.95511e-09
1.41357e-10
-2.93134e-09
8.54488e-11
-2.92071e-09
9.61053e-11
-2.91813e-09
9.36967e-11
-2.90688e-09
1.09787e-10
-2.92637e-09
1.34923e-10
-2.95317e-09
1.18962e-10
-2.96713e-09
5.99909e-11
-2.94328e-09
-3.60689e-11
-2.93917e-09
-1.56932e-10
-2.88499e-09
-2.28161e-10
-2.82939e-09
-3.80864e-10
-2.73226e-09
-5.57364e-10
-2.54854e-09
-1.10317e-09
-2.44767e-09
-8.63434e-10
-2.28298e-09
-1.14747e-09
-2.0832e-09
-1.46986e-09
-2.02249e-09
-1.75233e-09
-1.6786e-09
-1.91665e-09
-1.28095e-09
-2.08619e-09
-9.61644e-10
-2.11691e-09
-8.15869e-10
-1.93953e-09
-5.39138e-10
-1.24014e-09
-4.2445e-10
-6.03526e-10
-4.67937e-10
-3.66422e-10
-5.57122e-10
-5.05777e-10
-6.1922e-10
-6.071e-10
-6.70606e-10
-6.64675e-10
-6.88827e-10
-6.47228e-10
-7.36432e-10
-5.26364e-10
-8.14637e-10
-4.32316e-10
-8.89895e-10
-4.03201e-10
-9.26961e-10
-4.22989e-10
-9.01236e-10
-4.81946e-10
-8.14602e-10
-5.36089e-10
-6.58307e-10
-6.15004e-10
-4.3166e-10
-5.0837e-10
-2.45178e-10
-3.05511e-10
-9.39007e-11
-2.16455e-10
-6.46467e-12
-1.22946e-10
5.85497e-11
-9.18756e-11
1.41042e-10
-1.29173e-10
2.63096e-10
-2.30252e-10
3.26547e-10
-1.48136e-10
4.35565e-10
-1.17321e-10
5.77504e-10
-2.96956e-11
7.02784e-10
1.55499e-10
7.63854e-10
2.59363e-10
8.45025e-10
3.62717e-10
8.11574e-10
4.96229e-10
7.20328e-10
5.31647e-10
6.3561e-10
4.17174e-10
3.54879e-10
3.67921e-10
5.24173e-11
1.98456e-09
5.69797e-18
5.2446e-11
2.83442e-18
4.45193e-18
1.61481e-18
3.83778e-19
1.26979e-18
-3.31989e-19
1.21528e-18
-6.23253e-19
1.271e-18
-7.51017e-19
1.3719e-18
-8.02535e-19
1.49086e-18
-8.11665e-19
1.61474e-18
-7.93025e-19
1.73603e-18
-7.53439e-19
1.84973e-18
-6.96504e-19
1.95207e-18
-6.2465e-19
2.04013e-18
-5.40043e-19
2.11163e-18
-4.44928e-19
2.16495e-18
-3.41701e-19
2.19912e-18
-2.32868e-19
2.21376e-18
-1.20938e-19
2.20907e-18
-8.30096e-21
2.18568e-18
1.02864e-19
2.14464e-18
2.10645e-19
2.08729e-18
3.13446e-19
2.0151e-18
4.1004e-19
1.92953e-18
4.9958e-19
1.83205e-18
5.81572e-19
1.72403e-18
6.5581e-19
1.60684e-18
7.22301e-19
1.48176e-18
7.81217e-19
1.34994e-18
8.32853e-19
1.21245e-18
8.77597e-19
1.07021e-18
9.15892e-19
9.24014e-19
9.48202e-19
7.74589e-19
9.74979e-19
6.22574e-19
9.96636e-19
4.68553e-19
1.01353e-18
3.13067e-19
1.02594e-18
1.56622e-19
1.0341e-18
1.03815e-18
-2.13713e-10
5.14168e-10
-3.54673e-10
5.45728e-10
-3.38782e-10
6.06203e-10
-3.14726e-10
1.16247e-09
-4.74515e-10
1.4327e-09
-7.32723e-10
1.46841e-09
-1.11619e-09
1.50897e-09
-1.49152e-09
1.39363e-09
-1.81788e-09
1.24743e-09
-2.07271e-09
1.0505e-09
-2.19706e-09
8.97378e-10
-2.26465e-09
9.11416e-10
-2.33548e-09
8.45517e-10
-2.36679e-09
7.30879e-10
-2.40883e-09
8.43206e-10
-2.43382e-09
8.22872e-10
-2.46875e-09
7.66298e-10
-2.46463e-09
7.55919e-10
-2.49563e-09
7.77704e-10
-2.54683e-09
6.85123e-10
-2.59723e-09
6.84809e-10
-2.62469e-09
6.68129e-10
-2.69869e-09
6.71495e-10
-2.70816e-09
5.10253e-10
-2.79508e-09
5.10369e-10
-2.85606e-09
4.30609e-10
-2.88653e-09
2.95773e-10
-2.92963e-09
2.42302e-10
-2.95138e-09
2.0966e-10
-2.9519e-09
1.41871e-10
-2.97374e-09
1.07287e-10
-2.94598e-09
6.83448e-11
-2.91119e-09
5.89067e-11
-2.84313e-09
4.17224e-11
-2.85925e-09
1.51041e-10
-2.82564e-09
8.53506e-11
-2.77259e-09
6.94937e-12
-2.70534e-09
-1.03323e-10
-2.65506e-09
-2.0721e-10
-2.59856e-09
-2.84661e-10
-2.5162e-09
-4.63222e-10
-2.4062e-09
-6.67366e-10
-2.35652e-09
-1.15286e-09
-2.30898e-09
-9.10971e-10
-2.17807e-09
-1.27838e-09
-1.96213e-09
-1.6858e-09
-1.87541e-09
-1.83905e-09
-1.67887e-09
-2.11318e-09
-1.44283e-09
-2.32224e-09
-1.23247e-09
-2.32728e-09
-9.5353e-10
-2.21847e-09
-7.54846e-10
-1.43883e-09
-5.73761e-10
-7.84614e-10
-5.83575e-10
-3.56611e-10
-6.94073e-10
-3.95282e-10
-7.78764e-10
-5.22413e-10
-8.26324e-10
-6.17118e-10
-8.83526e-10
-5.9003e-10
-1.07283e-09
-3.37067e-10
-1.24291e-09
-2.62235e-10
-1.31276e-09
-3.33348e-10
-1.33719e-09
-3.98565e-10
-1.27237e-09
-5.46768e-10
-1.12208e-09
-6.86381e-10
-1.05131e-09
-6.85773e-10
-9.09527e-10
-6.50157e-10
-7.55795e-10
-4.59245e-10
-5.88412e-10
-3.8384e-10
-4.5143e-10
-2.5993e-10
-3.45913e-10
-1.97395e-10
-2.14699e-10
-2.6039e-10
6.52429e-11
-5.10197e-10
1.53544e-10
-2.36441e-10
2.19709e-10
-1.83489e-10
3.67868e-10
-1.77858e-10
5.79837e-10
-5.64734e-11
7.23239e-10
1.1596e-10
7.6586e-10
3.20095e-10
7.74704e-10
4.87384e-10
6.89036e-10
6.17316e-10
4.75383e-10
6.30826e-10
2.50288e-10
5.93017e-10
3.29739e-10
1.90511e-09
-2.96695e-16
3.82186e-10
7.76996e-19
3.40517e-19
8.9964e-19
2.61566e-19
9.78662e-19
-4.10211e-19
1.08752e-18
-7.31389e-19
1.21948e-18
-8.82499e-19
1.36277e-18
-9.45683e-19
1.5095e-18
-9.58575e-19
1.65432e-18
-9.38348e-19
1.79297e-18
-8.92888e-19
1.92158e-18
-8.26213e-19
2.03668e-18
-7.41096e-19
2.13525e-18
-6.4019e-19
2.21486e-18
-5.2639e-19
2.27379e-18
-4.02817e-19
2.31105e-18
-2.72711e-19
2.3264e-18
-1.39273e-19
2.32023e-18
-5.49304e-21
2.29346e-18
1.25972e-19
2.24744e-18
2.52856e-19
2.18389e-18
3.7331e-19
2.10464e-18
4.85933e-19
2.01153e-18
5.89792e-19
1.90628e-18
6.84384e-19
1.79052e-18
7.6956e-19
1.66576e-18
8.45436e-19
1.53339e-18
9.12313e-19
1.39469e-18
9.70624e-19
1.25075e-18
1.02089e-18
1.10252e-18
1.06369e-18
9.50791e-19
1.09963e-18
7.96245e-19
1.12926e-18
6.39466e-19
1.15312e-18
4.8097e-19
1.17167e-18
3.21226e-19
1.18526e-18
1.60669e-19
1.19417e-18
1.19858e-18
-2.39828e-10
7.53996e-10
-5.24609e-10
8.30511e-10
-9.04282e-10
9.85878e-10
-1.09891e-09
1.35709e-09
-1.17284e-09
1.50664e-09
-1.33047e-09
1.62603e-09
-1.46701e-09
1.64551e-09
-1.60103e-09
1.52765e-09
-1.74283e-09
1.38923e-09
-1.89777e-09
1.20544e-09
-2.08462e-09
1.08423e-09
-2.22034e-09
1.04713e-09
-2.31397e-09
9.39143e-10
-2.37607e-09
7.92983e-10
-2.4162e-09
8.83331e-10
-2.44011e-09
8.46786e-10
-2.4614e-09
7.87585e-10
-2.45286e-09
7.47374e-10
-2.46686e-09
7.91706e-10
-2.51843e-09
7.36684e-10
-2.55524e-09
7.21617e-10
-2.57449e-09
6.87381e-10
-2.61612e-09
7.13118e-10
-2.66837e-09
5.62509e-10
-2.69883e-09
5.40821e-10
-2.73004e-09
4.61815e-10
-2.77464e-09
3.40376e-10
-2.80538e-09
2.73033e-10
-2.79135e-09
1.95633e-10
-2.78666e-09
1.37174e-10
-2.79351e-09
1.1414e-10
-2.76712e-09
4.19517e-11
-2.78219e-09
7.39758e-11
-2.70113e-09
-3.93308e-11
-2.63298e-09
8.28813e-11
-2.5511e-09
3.47612e-12
-2.4603e-09
-8.38523e-11
-2.38063e-09
-1.82992e-10
-2.29456e-09
-2.93283e-10
-2.25002e-09
-3.29194e-10
-2.2064e-09
-5.06847e-10
-2.09836e-09
-7.75407e-10
-2.19448e-09
-1.05673e-09
-2.08347e-09
-1.02198e-09
-2.03519e-09
-1.32666e-09
-1.85415e-09
-1.86684e-09
-1.8109e-09
-1.88229e-09
-1.6924e-09
-2.23168e-09
-1.5304e-09
-2.48424e-09
-1.34172e-09
-2.51596e-09
-1.1744e-09
-2.3858e-09
-9.93011e-10
-1.62022e-09
-8.38233e-10
-9.39395e-10
-7.51494e-10
-4.43353e-10
-8.12956e-10
-3.33823e-10
-8.98794e-10
-4.36578e-10
-9.96438e-10
-5.19476e-10
-1.18561e-09
-4.00861e-10
-1.39593e-09
-1.26747e-10
-1.50062e-09
-1.57548e-10
-1.55232e-09
-2.81652e-10
-1.56346e-09
-3.87422e-10
-1.49473e-09
-6.15502e-10
-1.47157e-09
-7.09546e-10
-1.46435e-09
-6.92996e-10
-1.41255e-09
-7.01957e-10
-1.24144e-09
-6.3036e-10
-1.10178e-09
-5.23502e-10
-9.9442e-10
-3.67289e-10
-9.02937e-10
-2.88882e-10
-8.01489e-10
-3.61842e-10
-4.57935e-10
-8.53755e-10
-2.9289e-10
-4.0149e-10
-7.10667e-11
-4.05317e-10
2.27462e-10
-4.7639e-10
4.72499e-10
-3.01514e-10
6.38235e-10
-4.97779e-11
7.05857e-10
2.52471e-10
7.50708e-10
4.42533e-10
6.38689e-10
7.29334e-10
4.37069e-10
8.32446e-10
2.37168e-10
7.92918e-10
2.91332e-10
1.85095e-09
-2.30353e-16
6.73519e-10
-6.38312e-19
-1.69116e-18
2.28496e-19
-6.04706e-19
6.57629e-19
-8.38519e-19
9.36411e-19
-1.00943e-18
1.15629e-18
-1.10187e-18
1.34988e-18
-1.1391e-18
1.52973e-18
-1.13857e-18
1.69978e-18
-1.10883e-18
1.85964e-18
-1.05343e-18
2.0067e-18
-9.74199e-19
2.13758e-18
-8.73112e-19
2.24905e-18
-7.52918e-19
2.33843e-18
-6.17166e-19
2.40389e-18
-4.69874e-19
2.44448e-18
-3.1521e-19
2.46018e-18
-1.5724e-19
2.4517e-18
3.08962e-22
2.42034e-18
1.54222e-19
2.3679e-18
3.01858e-19
2.29651e-18
4.4114e-19
2.2085e-18
5.70555e-19
2.10612e-18
6.8914e-19
1.99146e-18
7.96441e-19
1.8664e-18
8.92427e-19
1.73264e-18
9.77378e-19
1.5917e-18
1.05178e-18
1.44496e-18
1.11625e-18
1.29355e-18
1.1715e-18
1.13845e-18
1.21827e-18
9.80426e-19
1.2573e-18
8.20109e-19
1.28932e-18
6.58008e-19
1.31497e-18
4.94558e-19
1.33481e-18
3.30136e-19
1.3493e-18
1.65087e-19
1.35878e-18
1.36347e-18
-1.4335e-10
8.97347e-10
-3.0027e-10
9.87432e-10
-5.16606e-10
1.20221e-09
-8.56707e-10
1.69719e-09
-1.1391e-09
1.78903e-09
-1.2349e-09
1.72183e-09
-1.32659e-09
1.73721e-09
-1.47971e-09
1.68077e-09
-1.71078e-09
1.6203e-09
-1.93247e-09
1.42712e-09
-2.08646e-09
1.23821e-09
-2.24137e-09
1.20205e-09
-2.30221e-09
9.99983e-10
-2.35355e-09
8.44321e-10
-2.37544e-09
9.05223e-10
-2.40578e-09
8.77116e-10
-2.41661e-09
7.98419e-10
-2.41982e-09
7.50579e-10
-2.41505e-09
7.86936e-10
-2.43735e-09
7.58983e-10
-2.43982e-09
7.24081e-10
-2.45793e-09
7.05496e-10
-2.45251e-09
7.07694e-10
-2.48143e-09
5.91421e-10
-2.45102e-09
5.10413e-10
-2.43289e-09
4.43679e-10
-2.4371e-09
3.44581e-10
-2.43028e-09
2.66212e-10
-2.42526e-09
1.90608e-10
-2.41557e-09
1.27482e-10
-2.38448e-09
8.3054e-11
-2.37176e-09
2.92264e-11
-2.32859e-09
3.08127e-11
-2.29878e-09
-6.91447e-11
-2.17809e-09
-3.78063e-11
-2.15748e-09
-1.71339e-11
-2.02968e-09
-2.11658e-10
-1.97498e-09
-2.37688e-10
-1.91103e-09
-3.57229e-10
-1.85623e-09
-3.83997e-10
-1.81234e-09
-5.50729e-10
-1.75215e-09
-8.35602e-10
-1.815e-09
-9.9388e-10
-1.74115e-09
-1.09583e-09
-1.78837e-09
-1.27944e-09
-1.84225e-09
-1.81297e-09
-1.76734e-09
-1.9572e-09
-1.67924e-09
-2.31979e-09
-1.58735e-09
-2.57613e-09
-1.47744e-09
-2.62587e-09
-1.3051e-09
-2.55814e-09
-1.08726e-09
-1.83806e-09
-1.03867e-09
-9.87993e-10
-9.72212e-10
-5.0981e-10
-9.45841e-10
-3.60196e-10
-1.00801e-09
-3.74407e-10
-1.14259e-09
-3.84902e-10
-1.32651e-09
-2.16947e-10
-1.48124e-09
2.79835e-11
-1.58195e-09
-5.68382e-11
-1.6527e-09
-2.10906e-10
-1.6667e-09
-3.73431e-10
-1.68711e-09
-5.95093e-10
-1.74521e-09
-6.51441e-10
-1.7627e-09
-6.75509e-10
-1.74156e-09
-7.23101e-10
-1.63053e-09
-7.41395e-10
-1.53376e-09
-6.20274e-10
-1.42665e-09
-4.74396e-10
-1.25222e-09
-4.63324e-10
-1.05584e-09
-5.5822e-10
-8.24529e-10
-1.08507e-09
-6.93662e-10
-5.32361e-10
-4.02857e-10
-6.96124e-10
-8.5746e-12
-8.70676e-10
3.56687e-10
-6.66778e-10
5.51295e-10
-2.44387e-10
5.86794e-10
2.16971e-10
5.96393e-10
4.32933e-10
5.50123e-10
7.75605e-10
4.48893e-10
9.33677e-10
2.68098e-10
9.73713e-10
3.36168e-10
1.78288e-09
-1.96766e-16
1.00969e-09
-6.66173e-19
-1.62463e-18
-4.71236e-21
-1.26572e-18
4.86867e-19
-1.32936e-18
8.43971e-19
-1.36588e-18
1.11907e-18
-1.37655e-18
1.35041e-18
-1.37038e-18
1.55947e-18
-1.34793e-18
1.75518e-18
-1.30517e-18
1.93887e-18
-1.23797e-18
2.10778e-18
-1.14421e-18
2.25778e-18
-1.0244e-18
2.3848e-18
-8.81331e-19
2.48572e-18
-7.19463e-19
2.55856e-18
-5.44086e-19
2.60245e-18
-3.60632e-19
2.61773e-18
-1.74282e-19
2.60561e-18
1.0332e-20
2.56798e-18
1.89337e-19
2.50718e-18
3.59688e-19
2.42593e-18
5.19128e-19
2.32708e-18
6.6611e-19
2.21342e-18
7.99745e-19
2.08745e-18
9.19721e-19