/*--------------------------------*- C++ -*----------------------------------*\
  =========                 |
  \\      /  F ield         | OpenFOAM: The Open Source CFD Toolbox
   \\    /   O peration     | Website:  https://openfoam.org
    \\  /    A nd           | Version:  6
     \\/     M anipulation  |
\*---------------------------------------------------------------------------*/
FoamFile
{
    version     2.0;
    format      ascii;
    class       volScalarField;
    location    "4300";
    object      Su;
}
// * * * * * * * * * * * * * * * * * * * * * * * * * * * * * * * * * * * * * //

dimensions      [0 0 -1 0 0 0 0];

internalField   nonuniform List<scalar> 
4800
(
0.218868
0.215426
0.211997
0.208594
0.205236
0.201936
0.198709
0.195579
0.192574
0.189705
0.186977
0.184399
0.181974
0.179689
0.177535
0.175509
0.173603
0.171809
0.170116
0.168509
0.166979
0.165517
0.164117
0.162773
0.161477
0.160219
0.158988
0.157775
0.156571
0.155371
0.154166
0.152955
0.151732
0.150496
0.149243
0.147971
0.146678
0.145363
0.144025
0.142662
0.141273
0.139855
0.1384
0.136903
0.135362
0.133777
0.132129
0.130399
0.128591
0.12671
0.12473
0.122639
0.120454
0.118175
0.115799
0.113338
0.110796
0.108179
0.105487
0.102717
0.0998789
0.0969746
0.0939959
0.0909448
0.0878246
0.0846329
0.0813658
0.0780221
0.0746024
0.0711058
0.067529
0.0638664
0.0601112
0.0562569
0.0522996
0.0482391
0.044081
0.0398385
0.0355355
0.0311999
0.0268516
0.0225102
0.0182023
0.0140064
0.00999605
0.00614884
0.00243778
-0.00116669
-0.00469119
-0.00815748
-0.0115822
-0.0149775
-0.0183522
-0.0217126
-0.0250631
-0.0284069
-0.0317463
-0.0350829
-0.0384179
-0.0417522
-0.0450863
-0.0484207
-0.0517559
-0.0550919
-0.0584289
-0.0617672
-0.0651066
-0.0684474
-0.0717894
-0.0751328
-0.0784773
-0.0818231
-0.0851699
-0.0885178
-0.0918666
-0.0952161
-0.0985664
-0.101917
-0.105268
-0.10862
0.218861
0.215402
0.211955
0.208533
0.205158
0.201844
0.198608
0.195471
0.192463
0.189605
0.186899
0.184342
0.181928
0.179653
0.177512
0.175497
0.1736
0.171815
0.170131
0.168539
0.167028
0.165587
0.164207
0.16288
0.161596
0.160347
0.159124
0.157918
0.156721
0.155526
0.154327
0.153122
0.151904
0.150672
0.149423
0.148155
0.146867
0.145558
0.144228
0.142873
0.141493
0.140082
0.138635
0.137145
0.135611
0.134033
0.132383
0.130649
0.128837
0.126946
0.124943
0.122832
0.120623
0.118308
0.1159
0.113407
0.110836
0.10819
0.105469
0.102678
0.099819
0.0968944
0.093904
0.0908472
0.0877241
0.0845327
0.0812688
0.0779303
0.074516
0.0710244
0.0674526
0.0637961
0.0600483
0.0562018
0.0522506
0.0481925
0.0440298
0.0397716
0.0354378
0.0310604
0.0266741
0.0223105
0.0180078
0.0138234
0.00983042
0.0060093
0.00232671
-0.0012522
-0.00475618
-0.00820697
-0.0116203
-0.0150074
-0.0183761
-0.021732
-0.0250792
-0.0284204
-0.0317577
-0.0350926
-0.0384262
-0.0417593
-0.0450924
-0.048426
-0.0517604
-0.0550958
-0.0584323
-0.06177
-0.065109
-0.0684494
-0.0717912
-0.0751342
-0.0784785
-0.081824
-0.0851707
-0.0885184
-0.0918671
-0.0952166
-0.0985667
-0.101917
-0.105268
-0.10862
0.218849
0.215367
0.211892
0.208437
0.205027
0.201691
0.198452
0.19533
0.19234
0.1895
0.186811
0.184273
0.181881
0.17963
0.177515
0.175525
0.173653
0.171893
0.170235
0.16867
0.167186
0.165772
0.16442
0.163118
0.161858
0.16063
0.159425
0.158235
0.157052
0.15587
0.154684
0.15349
0.152284
0.151062
0.149823
0.148565
0.147289
0.145993
0.144676
0.143336
0.14197
0.140573
0.139139
0.137661
0.136138
0.134562
0.132905
0.131162
0.129342
0.127428
0.125384
0.123234
0.12097
0.118588
0.116117
0.113561
0.110928
0.108219
0.105439
0.102596
0.0996925
0.0967315
0.0937154
0.0906427
0.0875121
0.084321
0.0810647
0.0777387
0.0743394
0.070863
0.0673059
0.0636644
0.0599336
0.0561044
0.0521677
0.0481181
0.043954
0.0396762
0.0352896
0.0308247
0.0263515
0.0219471
0.0176401
0.0134524
0.00949125
0.00572882
0.00210859
-0.00141705
-0.00488005
-0.00830088
-0.0116927
-0.0150643
-0.0184218
-0.0217694
-0.0251103
-0.0284465
-0.0317799
-0.0351116
-0.0384425
-0.0417733
-0.0451045
-0.0484364
-0.0517694
-0.0551034
-0.0584388
-0.0617756
-0.0651138
-0.0684535
-0.0717946
-0.075137
-0.0784809
-0.081826
-0.0851723
-0.0885197
-0.0918681
-0.0952174
-0.0985673
-0.101918
-0.105269
-0.10862
0.218839
0.215337
0.211845
0.208378
0.204954
0.2016
0.19835
0.195231
0.192252
0.189423
0.186751
0.184235
0.181873
0.179657
0.17758
0.17563
0.173799
0.172078
0.170458
0.168929
0.167478
0.166098
0.164777
0.163505
0.162274
0.161074
0.159895
0.158728
0.157567
0.156405
0.155239
0.154064
0.152875
0.151669
0.150447
0.149206
0.147948
0.146671
0.145373
0.144051
0.142703
0.141324
0.139907
0.138441
0.136927
0.135353
0.13369
0.131936
0.130098
0.128151
0.126057
0.123843
0.121496
0.119028
0.116468
0.113821
0.111092
0.108289
0.105423
0.102505
0.0995364
0.0965216
0.0934651
0.0903651
0.0872191
0.0840229
0.0807711
0.0774579
0.0740768
0.0706222
0.0670894
0.0634747
0.0597726
0.0559727
0.0520626
0.0480331
0.0438812
0.0396087
0.0352264
0.0307537
0.0262151
0.0216514
0.0171585
0.0128597
0.00895309
0.00530535
0.00179447
-0.00164676
-0.00504967
-0.00842879
-0.0117916
-0.0151427
-0.0184853
-0.0218218
-0.0251541
-0.0284837
-0.0318117
-0.0351389
-0.0384661
-0.0417937
-0.0451221
-0.0484516
-0.0517824
-0.0551147
-0.0584485
-0.0617839
-0.0651208
-0.0684594
-0.0717996
-0.0751413
-0.0784844
-0.0818289
-0.0851747
-0.0885217
-0.0918697
-0.0952186
-0.0985682
-0.101918
-0.105269
-0.10862
0.218829
0.215311
0.211807
0.208327
0.204892
0.201534
0.198288
0.195179
0.19222
0.189415
0.186772
0.184288
0.181959
0.179782
0.177745
0.17584
0.174058
0.172384
0.170809
0.169322
0.167911
0.166567
0.165282
0.164044
0.162847
0.161678
0.160529
0.159391
0.158256
0.157121
0.15598
0.154829
0.153664
0.152481
0.151281
0.150064
0.148829
0.147577
0.146303
0.145004
0.143679
0.142321
0.140924
0.139468
0.13796
0.136383
0.134719
0.132948
0.131085
0.129093
0.126937
0.124638
0.122194
0.119625
0.116957
0.114198
0.111357
0.108445
0.105476
0.102457
0.0993979
0.0963111
0.0932022
0.0900673
0.0868997
0.0836917
0.0804356
0.0771255
0.0737557
0.0703204
0.0668147
0.0632328
0.0595665
0.0558033
0.0519303
0.0479346
0.0438083
0.0395482
0.035155
0.0306295
0.0259739
0.0212062
0.01643
0.0118816
0.00815763
0.00474608
0.00141176
-0.00191418
-0.00524372
-0.0085753
-0.0119061
-0.0152348
-0.018561
-0.0218852
-0.0252078
-0.0285296
-0.0318512
-0.0351731
-0.0384958
-0.0418194
-0.0451445
-0.048471
-0.0517992
-0.0551292
-0.058461
-0.0617945
-0.06513
-0.0684672
-0.0718061
-0.0751468
-0.078489
-0.0818328
-0.0851779
-0.0885242
-0.0918717
-0.0952201
-0.0985694
-0.101919
-0.10527
-0.10862
0.218823
0.215292
0.21178
0.208299
0.20487
0.201524
0.198294
0.195202
0.192264
0.189489
0.18688
0.184433
0.182146
0.180016
0.17803
0.176176
0.174443
0.172818
0.171289
0.169846
0.168476
0.167171
0.165924
0.164724
0.163562
0.162427
0.16131
0.160204
0.159101
0.157998
0.156888
0.155768
0.154631
0.153476
0.152306
0.151118
0.149913
0.14869
0.147446
0.146174
0.144876
0.143542
0.142167
0.140721
0.139218
0.137641
0.135968
0.134172
0.132263
0.130208
0.127983
0.125589
0.123039
0.120361
0.117578
0.114699
0.111737
0.108706
0.105619
0.102489
0.0993298
0.0961547
0.092974
0.0897892
0.0865928
0.0833726
0.0801121
0.0768003
0.0734331
0.0700075
0.0665206
0.0629661
0.0593324
0.055606
0.0517732
0.0478169
0.0437227
0.0394802
0.035075
0.0304874
0.0256934
0.0206634
0.0153889
0.0100933
0.00705549
0.00411338
0.00102456
-0.00217401
-0.00543289
-0.00872149
-0.0120238
-0.0153321
-0.0186429
-0.0219549
-0.0252678
-0.0285816
-0.0318964
-0.0352126
-0.0385302
-0.0418495
-0.0451707
-0.0484939
-0.0518191
-0.0551464
-0.0584758
-0.0618074
-0.0651409
-0.0684765
-0.0718141
-0.0751535
-0.0784946
-0.0818374
-0.0851817
-0.0885273
-0.0918742
-0.0952221
-0.0985708
-0.10192
-0.10527
-0.10862
0.218831
0.215319
0.211826
0.208358
0.204937
0.201605
0.198395
0.195328
0.192414
0.189668
0.187096
0.184694
0.182456
0.180375
0.178438
0.176635
0.174951
0.173373
0.17189
0.17049
0.169162
0.167898
0.16669
0.165528
0.164403
0.163304
0.162223
0.161153
0.160086
0.159018
0.157944
0.156857
0.155755
0.154636
0.153499
0.152346
0.151177
0.149989
0.148779
0.147539
0.146271
0.144964
0.143611
0.142174
0.140673
0.13909
0.137395
0.135567
0.133604
0.131478
0.129165
0.126663
0.124008
0.121224
0.118327
0.115329
0.112246
0.109093
0.105887
0.102645
0.0993862
0.0961265
0.0928747
0.0896307
0.0863876
0.0831348
0.0798581
0.0765424
0.0731779
0.0697587
0.0662826
0.0627447
0.0591314
0.0554288
0.0516265
0.0477062
0.0436444
0.0394213
0.0350137
0.0303915
0.0255076
0.020239
0.0142206
0.00357511
0.00587601
0.0036366
0.000754979
-0.00236561
-0.00558546
-0.00884916
-0.012133
-0.0154264
-0.0187249
-0.0220266
-0.0253306
-0.0286367
-0.0319449
-0.0352553
-0.0385679
-0.0418827
-0.0451999
-0.0485195
-0.0518415
-0.0551659
-0.0584927
-0.061822
-0.0651535
-0.0684873
-0.0718232
-0.0751612
-0.0785011
-0.0818428
-0.0851861
-0.088531
-0.0918771
-0.0952243
-0.0985725
-0.101921
-0.105271
-0.108621
0.218834
0.215332
0.21186
0.208431
0.205061
0.201773
0.198596
0.195556
0.192674
0.189963
0.187431
0.185074
0.182885
0.180853
0.178963
0.177207
0.175569
0.174037
0.172598
0.171242
0.169955
0.168731
0.167562
0.16644
0.165353
0.164293
0.163252
0.162221
0.161192
0.160163
0.159126
0.158078
0.157015
0.155935
0.154836
0.153724
0.152596
0.151449
0.150276
0.149071
0.147833
0.146553
0.145217
0.143787
0.142289
0.140699
0.138982
0.137121
0.135101
0.132896
0.130492
0.127887
0.125123
0.122227
0.11922
0.11611
0.112914
0.109645
0.106323
0.102975
0.0996282
0.0962958
0.0929821
0.0896834
0.0863882
0.0830884
0.0797756
0.0764368
0.0730596
0.0696357
0.0661617
0.0626343
0.0590336
0.0553426
0.0515556
0.0476563
0.0436159
0.0394059
0.0350059
0.0303951
0.0255482
0.0204413
0.0150783
0.00981155
0.00676509
0.00381945
0.000737381
-0.00244543
-0.00568294
-0.0089478
-0.0122263
-0.015512
-0.0188023
-0.0220959
-0.0253926
-0.0286921
-0.0319943
-0.0352993
-0.038607
-0.0419175
-0.0452307
-0.0485467
-0.0518655
-0.055187
-0.0585111
-0.0618379
-0.0651673
-0.0684991
-0.0718333
-0.0751698
-0.0785083
-0.0818488
-0.0851911
-0.0885351
-0.0918804
-0.0952269
-0.0985744
-0.101923
-0.105272
-0.108621
0.218848
0.21537
0.211915
0.208508
0.205178
0.201945
0.198828
0.19585
0.193027
0.19037
0.187886
0.185573
0.183428
0.181441
0.179595
0.177881
0.176287
0.174797
0.173399
0.172083
0.170837
0.169653
0.168523
0.167441
0.166393
0.165373
0.164373
0.163382
0.162395
0.161406
0.16041
0.159403
0.158381
0.157345
0.156289
0.155221
0.154137
0.15303
0.151896
0.150725
0.149518
0.148263
0.146941
0.145524
0.144032
0.142437
0.140697
0.138805
0.136735
0.134461
0.131972
0.129268
0.126397
0.123395
0.120286
0.117076
0.113777
0.110403
0.106981
0.103552
0.100139
0.096749
0.0933824
0.0900288
0.0866778
0.0833261
0.0799685
0.0765933
0.0731863
0.0697404
0.0662506
0.0627123
0.0591019
0.0554084
0.0516248
0.0477276
0.0436857
0.0394737
0.0350799
0.0304984
0.025737
0.0208427
0.0159383
0.0113513
0.00758392
0.00415794
0.000837769
-0.00245357
-0.00573755
-0.00901986
-0.0123023
-0.015586
-0.0188716
-0.0221597
-0.0254507
-0.0287448
-0.032042
-0.0353423
-0.0386458
-0.0419523
-0.045262
-0.0485746
-0.0518903
-0.0552089
-0.0585305
-0.0618549
-0.065182
-0.0685118
-0.0718442
-0.0751791
-0.0785162
-0.0818554
-0.0851966
-0.0885395
-0.091884
-0.0952297
-0.0985765
-0.101924
-0.105272
-0.108621
0.218877
0.215456
0.212057
0.208699
0.205414
0.20223
0.199171
0.19625
0.19348
0.190874
0.188438
0.186172
0.184071
0.182126
0.18032
0.178645
0.177089
0.175636
0.174275
0.172995
0.171787
0.170641
0.169548
0.168504
0.167496
0.166515
0.165555
0.164605
0.163659
0.162711
0.161757
0.160793
0.159815
0.158824
0.157814
0.15679
0.15575
0.154685
0.153589
0.152453
0.151277
0.150049
0.148746
0.14735
0.145865
0.144268
0.142516
0.140603
0.138495
0.136167
0.13361
0.130823
0.127857
0.124759
0.121559
0.118263
0.114878
0.11142
0.107926
0.10444
0.100979
0.0975457
0.0941362
0.090736
0.0873398
0.0839448
0.0805435
0.0771246
0.073679
0.0702022
0.0666848
0.063111
0.059453
0.0557208
0.0519027
0.0479715
0.0438964
0.0396537
0.035243
0.0306769
0.0259842
0.0212287
0.0165343
0.0120975
0.00808761
0.00441087
0.000929102
-0.00244915
-0.00577503
-0.0090753
-0.0123637
-0.0156474
-0.0189305
-0.022215
-0.025502
-0.0287921
-0.0320855
-0.0353823
-0.0386824
-0.0419857
-0.0452923
-0.0486021
-0.051915
-0.055231
-0.0585501
-0.0618722
-0.0651972
-0.0685251
-0.0718557
-0.0751889
-0.0785245
-0.0818624
-0.0852024
-0.0885443
-0.0918878
-0.0952327
-0.0985788
-0.101926
-0.105273
-0.108621
0.218913
0.215562
0.212234
0.208952
0.205738
0.202613
0.199605
0.196737
0.194023
0.191471
0.189086
0.186866
0.184807
0.182896
0.181123
0.17948
0.177954
0.176532
0.175201
0.173954
0.172778
0.171665
0.170607
0.169597
0.168624
0.167679
0.166755
0.165843
0.164935
0.164027
0.163115
0.162194
0.161261
0.160315
0.159352
0.158373
0.157379
0.156357
0.155302
0.154204
0.153062
0.151864
0.15059
0.149222
0.147755
0.146168
0.144421
0.1425
0.140371
0.138009
0.135405
0.132557
0.12952
0.126352
0.123077
0.119708
0.116253
0.112737
0.109196
0.105674
0.102183
0.0987247
0.0952893
0.0918624
0.0884414
0.0850186
0.0815826
0.078122
0.0746353
0.0711167
0.0675511
0.0639115
0.0601755
0.0563671
0.0524604
0.0484375
0.0442831
0.0399734
0.0355137
0.0309266
0.0262456
0.021532
0.0168844
0.0124264
0.00827998
0.00448533
0.000934307
-0.0024778
-0.00581836
-0.00912399
-0.0124134
-0.015696
-0.0189771
-0.0222592
-0.0255438
-0.0288315
-0.0321225
-0.035417
-0.0387148
-0.042016
-0.0453204
-0.0486279
-0.0519386
-0.0552525
-0.0585695
-0.0618895
-0.0652125
-0.0685385
-0.0718674
-0.075199
-0.0785332
-0.0818697
-0.0852085
-0.0885493
-0.0918918
-0.0952359
-0.0985812
-0.101927
-0.105274
-0.108622
0.218947
0.215666
0.212411
0.209204
0.206066
0.203016
0.200077
0.197269
0.19461
0.192112
0.189778
0.187604
0.185584
0.183709
0.181967
0.18035
0.178849
0.177451
0.176146
0.174922
0.173771
0.172684
0.171653
0.17067
0.169726
0.168811
0.167918
0.167038
0.166167
0.165298
0.164426
0.163549
0.162662
0.161762
0.160848
0.159918
0.158971
0.157998
0.156987
0.155933
0.154831
0.15367
0.152434
0.151103
0.149667
0.148105
0.14638
0.144472
0.142349
0.139985
0.137368
0.134497
0.131421
0.128196
0.124859
0.121434
0.117931
0.11438
0.110813
0.107274
0.103772
0.100306
0.096865
0.0934336
0.0900073
0.08657
0.0831074
0.0796098
0.076078
0.0724996
0.0688559
0.0651175
0.0612775
0.0573502
0.0533067
0.0491405
0.0448514
0.0404312
0.0358859
0.0312304
0.0264979
0.0217364
0.0170147
0.0124233
0.00812896
0.00431924
0.00080763
-0.00256477
-0.00587915
-0.00917006
-0.0124517
-0.0157302
-0.019009
-0.0222897
-0.0255734
-0.0288603
-0.0321507
-0.0354444
-0.0387414
-0.0420416
-0.0453448
-0.048651
-0.0519603
-0.0552725
-0.0585878
-0.0619061
-0.0652275
-0.0685518
-0.0718791
-0.0752092
-0.0785419
-0.0818772
-0.0852148
-0.0885545
-0.091896
-0.0952392
-0.0985836
-0.101929
-0.105275
-0.108622
0.218984
0.215778
0.212599
0.209468
0.206406
0.203434
0.200569
0.197833
0.19524
0.192795
0.190505
0.18837
0.186384
0.184536
0.182818
0.18122
0.179736
0.178353
0.177062
0.175853
0.174718
0.173649
0.172636
0.171674
0.170751
0.16986
0.168993
0.168144
0.167307
0.166475
0.165645
0.164812
0.163972
0.163123
0.16226
0.161383
0.160489
0.159568
0.158609
0.157606
0.156554
0.15544
0.154254
0.152972
0.151582
0.150057
0.148369
0.146499
0.144409
0.142073
0.139473
0.136608
0.133521
0.130269
0.126897
0.123439
0.119914
0.116355
0.112782
0.109245
0.105749
0.102293
0.0988612
0.0954376
0.0920105
0.0885576
0.0850661
0.0815268
0.0779341
0.0742735
0.0705285
0.0666752
0.0627091
0.0586242
0.0544081
0.0500649
0.0455998
0.0410234
0.0363525
0.0315906
0.0267582
0.0218764
0.0169658
0.0120842
0.0074803
0.00383632
0.000531307
-0.00270754
-0.00595128
-0.00920817
-0.0124743
-0.0157465
-0.0190231
-0.0223038
-0.0255882
-0.0288763
-0.0321679
-0.0354627
-0.0387604
-0.042061
-0.0453643
-0.0486702
-0.0519789
-0.0552903
-0.0586046
-0.0619217
-0.0652417
-0.0685646
-0.0718905
-0.0752192
-0.0785506
-0.0818846
-0.0852211
-0.0885597
-0.0919002
-0.0952425
-0.0985861
-0.101931
-0.105276
-0.108622
0.219027
0.215907
0.212815
0.209771
0.206795
0.203902
0.201108
0.198432
0.195887
0.193486
0.191233
0.189128
0.187162
0.185329
0.183623
0.182035
0.180558
0.179183
0.1779
0.176699
0.175573
0.174514
0.173514
0.172566
0.171659
0.170788
0.169946
0.169126
0.168322
0.167529
0.166741
0.165954
0.165164
0.164368
0.163562
0.162744
0.161908
0.161046
0.160149
0.159207
0.158214
0.15716
0.156036
0.154817
0.153486
0.152016
0.150388
0.148577
0.146542
0.144263
0.141716
0.138895
0.13583
0.132575
0.12919
0.125725
0.122203
0.118653
0.115095
0.111573
0.108093
0.104649
0.101226
0.0978048
0.0943645
0.0908835
0.0873512
0.0837569
0.0800905
0.0763393
0.072484
0.0684998
0.0643774
0.0601109
0.0557008
0.0511547
0.046488
0.0417306
0.0369074
0.0320196
0.0270628
0.0220132
0.0168093
0.0113558
0.00585433
0.0029813
0.000162583
-0.00285429
-0.00600412
-0.00922211
-0.0124728
-0.0157398
-0.019016
-0.0222986
-0.025586
-0.0288774
-0.0321722
-0.03547
-0.0387703
-0.0420729
-0.0453777
-0.0486846
-0.0519938
-0.0553052
-0.0586191
-0.0619355
-0.0652547
-0.0685766
-0.0719013
-0.0752288
-0.078559
-0.0818919
-0.0852273
-0.0885649
-0.0919045
-0.0952458
-0.0985887
-0.101933
-0.105277
-0.108623
0.219069
0.216033
0.213023
0.21006
0.207161
0.204342
0.201616
0.198997
0.196498
0.194133
0.191906
0.189817
0.187863
0.186041
0.184341
0.182757
0.181282
0.179906
0.178624
0.177426
0.176304
0.175251
0.174258
0.17332
0.172429
0.171578
0.17076
0.169969
0.1692
0.168447
0.167703
0.166966
0.16623
0.165492
0.164748
0.163994
0.163225
0.162429
0.161601
0.16073
0.159809
0.158828
0.157777
0.156633
0.155374
0.153979
0.152433
0.150698
0.148743
0.146549
0.144083
0.141335
0.138318
0.135087
0.131714
0.128266
0.124767
0.121241
0.117713
0.11421
0.110744
0.107308
0.103883
0.100448
0.0969788
0.0934597
0.0898796
0.0862254
0.0824815
0.0786264
0.0746341
0.0704849
0.0661763
0.0617107
0.0570958
0.0523429
0.0474743
0.0425309
0.0375486
0.0325303
0.0274525
0.0222601
0.0167839
0.0105025
0.00084086
0.00206706
-3.21131e-05
-0.00287961
-0.00598505
-0.00918994
-0.0124373
-0.0157052
-0.0189847
-0.022272
-0.0255649
-0.0288619
-0.0321623
-0.0354651
-0.0387699
-0.0420763
-0.0453841
-0.0486934
-0.0520041
-0.0553166
-0.0586309
-0.0619473
-0.0652661
-0.0685873
-0.0719112
-0.0752378
-0.0785671
-0.0818989
-0.0852333
-0.0885699
-0.0919086
-0.0952491
-0.0985912
-0.101934
-0.105278
-0.108623
0.219104
0.216141
0.213206
0.210315
0.207486
0.204731
0.202061
0.19949
0.197031
0.194697
0.192496
0.190423
0.188477
0.186654
0.184951
0.183362
0.181882
0.180501
0.179213
0.178011
0.17689
0.175841
0.174857
0.173932
0.173058
0.172229
0.171439
0.170682
0.169952
0.169242
0.168549
0.167866
0.16719
0.166516
0.16584
0.165157
0.164459
0.163738
0.162988
0.162196
0.161358
0.160461
0.159494
0.158436
0.157264
0.155961
0.154505
0.15286
0.151008
0.148922
0.146559
0.143901
0.140951
0.137767
0.134433
0.131022
0.12756
0.124068
0.120573
0.117085
0.113618
0.110172
0.106725
0.103258
0.09975
0.0961863
0.0925542
0.088833
0.0849935
0.0810082
0.0768566
0.0725262
0.0680187
0.0633429
0.0585144
0.053553
0.0484897
0.0433707
0.0382422
0.0331094
0.0279553
0.0227531
0.0174495
0.0121056
0.00749331
0.0037151
0.00052039
-0.00264867
-0.00585902
-0.00910131
-0.0123641
-0.015641
-0.0189281
-0.0222231
-0.025524
-0.0288291
-0.0321372
-0.0354472
-0.0387584
-0.0420704
-0.0453828
-0.0486958
-0.0520094
-0.0553238
-0.0586395
-0.0619566
-0.0652756
-0.0685967
-0.0719201
-0.075246
-0.0785745
-0.0819055
-0.085239
-0.0885747
-0.0919126
-0.0952523
-0.0985936
-0.101936
-0.105279
-0.108623
0.219132
0.216225
0.213349
0.210518
0.207745
0.205041
0.202421
0.199894
0.197471
0.195161
0.192973
0.190906
0.188959
0.18713
0.185418
0.183819
0.182329
0.180944
0.179656
0.178456
0.17734
0.176299
0.175329
0.174423
0.173575
0.172777
0.172024
0.171309
0.170626
0.169969
0.169333
0.168713
0.168103
0.167499
0.166896
0.166288
0.165668
0.165028
0.164361
0.163657
0.162907
0.162101
0.161225
0.160259
0.159183
0.15798
0.156621
0.155083
0.15335
0.151383
0.149131
0.146566
0.143691
0.14057
0.137294
0.133934
0.130518
0.127061
0.123583
0.120087
0.116596
0.113119
0.109633
0.106124
0.102571
0.0989613
0.0952752
0.0914778
0.0875299
0.0834045
0.0790842
0.0745595
0.0698375
0.0649381
0.0598871
0.0547185
0.0494746
0.0442039
0.0389569
0.033739
0.0285439
0.023369
0.018222
0.0132275
0.00871834
0.00466028
0.00104163
-0.00236634
-0.00568692
-0.0089768
-0.0122612
-0.0155504
-0.0188476
-0.0221525
-0.0254635
-0.0287789
-0.0320968
-0.0354161
-0.0387356
-0.0420548
-0.0453735
-0.0486916
-0.0520092
-0.0553267
-0.0586446
-0.0619632
-0.065283
-0.0686044
-0.0719277
-0.0752533
-0.0785812
-0.0819115
-0.0852442
-0.0885792
-0.0919164
-0.0952553
-0.0985959
-0.101938
-0.10528
-0.108624
0.219148
0.216274
0.213434
0.210644
0.207914
0.205253
0.20267
0.200175
0.197777
0.195483
0.193297
0.191226
0.18927
0.187434
0.185716
0.184115
0.182625
0.181242
0.179959
0.178771
0.177672
0.176656
0.175717
0.174849
0.174044
0.173296
0.172597
0.17194
0.17132
0.170729
0.170161
0.169613
0.169077
0.16855
0.168025
0.167497
0.166959
0.166402
0.165819
0.165203
0.164542
0.163826
0.163039
0.162165
0.161184
0.160076
0.158815
0.157387
0.155773
0.153922
0.151777
0.149302
0.146497
0.14344
0.140227
0.136927
0.133562
0.130129
0.126645
0.123114
0.119571
0.116037
0.112495
0.108934
0.10534
0.10169
0.0979498
0.0940722
0.0900149
0.0857498
0.0812576
0.0765304
0.0715842
0.0664544
0.06118
0.0558103
0.0503999
0.0450048
0.0396679
0.0343871
0.0291615
0.0239909
0.018882
0.0139361
0.00935098
0.00516339
0.00137554
-0.00214677
-0.00552624
-0.00884292
-0.0121405
-0.0154392
-0.0187461
-0.0220619
-0.0253847
-0.0287121
-0.0320418
-0.035372
-0.0387016
-0.0420298
-0.0453561
-0.0486806
-0.0520034
-0.055325
-0.058646
-0.0619667
-0.065288
-0.0686102
-0.0719339
-0.0752594
-0.078587
-0.0819169
-0.085249
-0.0885834
-0.0919198
-0.0952581
-0.098598
-0.101939
-0.105281
-0.108624
0.219148
0.216276
0.213441
0.210663
0.207952
0.205315
0.202756
0.200282
0.197901
0.195615
0.193429
0.191351
0.189391
0.187554
0.18584
0.184247
0.182771
0.181407
0.180151
0.179
0.177947
0.176985
0.176108
0.175309
0.174579
0.17391
0.173293
0.172721
0.172186
0.171681
0.1712
0.170737
0.170286
0.169843
0.169401
0.168954
0.168495
0.168017
0.167513
0.166975
0.166392
0.165752
0.16504
0.164242
0.163339
0.162309
0.161134
0.1598
0.158288
0.156536
0.154475
0.152062
0.149303
0.146296
0.143145
0.139907
0.136589
0.133164
0.129641
0.126042
0.122421
0.118808
0.115197
0.111585
0.107952
0.104264
0.100473
0.0965223
0.092365
0.0879691
0.0833127
0.0783899
0.0732242
0.0678622
0.0623607
0.0567964
0.0512401
0.0457418
0.0403265
0.0349897
0.0297207
0.0244996
0.0193267
0.0142994
0.00957718
0.00529899
0.00148195
-0.00203941
-0.00540893
-0.00871696
-0.0120113
-0.0153126
-0.0186271
-0.0219539
-0.0252895
-0.0286303
-0.0319733
-0.0353162
-0.0386573
-0.0419957
-0.045331
-0.0486631
-0.0519922
-0.0553188
-0.0586436
-0.0619673
-0.0652906
-0.0686141
-0.0719385
-0.0752644
-0.0785919
-0.0819215
-0.0852532
-0.0885871
-0.0919229
-0.0952606
-0.0986
-0.101941
-0.105282
-0.108624
0.219129
0.21622
0.213354
0.210553
0.207831
0.205193
0.202639
0.200174
0.1978
0.195518
0.193334
0.191259
0.189306
0.18748
0.185784
0.184217
0.182778
0.181464
0.180273
0.179199
0.178236
0.177375
0.176608
0.175928
0.175322
0.174781
0.174293
0.173846
0.173434
0.173047
0.172679
0.172322
0.171971
0.171621
0.171264
0.170896
0.170509
0.170098
0.169656
0.169174
0.168645
0.168052
0.167386
0.166629
0.165768
0.164782
0.163657
0.162383
0.160928
0.159221
0.157182
0.154777
0.152029
0.149052
0.145953
0.142766
0.139471
0.136023
0.132421
0.12872
0.124995
0.12129
0.117609
0.113951
0.110286
0.106569
0.102738
0.0987284
0.094485
0.0899717
0.085171
0.0800798
0.0747215
0.0691519
0.0634511
0.0577137
0.052018
0.0464133
0.0409142
0.0355091
0.0301682
0.0248497
0.0195433
0.0143225
0.00934799
0.00500175
0.00133078
-0.00205307
-0.00533662
-0.00859958
-0.0118749
-0.015173
-0.0184934
-0.0218312
-0.0251805
-0.028536
-0.0318935
-0.0352501
-0.0386039
-0.0419537
-0.045299
-0.0486396
-0.0519759
-0.0553083
-0.0586377
-0.0619649
-0.0652907
-0.068616
-0.0719416
-0.075268
-0.0785958
-0.0819253
-0.0852568
-0.0885902
-0.0919256
-0.0952629
-0.0986017
-0.101942
-0.105283
-0.108625
0.219086
0.216093
0.21315
0.210285
0.207514
0.204846
0.202279
0.199809
0.197436
0.19516
0.192988
0.190928
0.188992
0.187191
0.185533
0.184022
0.182659
0.18144
0.180366
0.179428
0.178618
0.177926
0.177342
0.176855
0.176448
0.176106
0.175813
0.175555
0.17532
0.1751
0.174884
0.174664
0.174435
0.174189
0.173923
0.173631
0.173308
0.172946
0.172542
0.172086
0.171571
0.170981
0.170309
0.169538
0.168658
0.167656
0.166518
0.165231
0.163754
0.162011
0.159917
0.157455
0.15466
0.151654
0.148561
0.14537
0.142028
0.138494
0.13477
0.13094
0.127098
0.123301
0.119557
0.115861
0.112173
0.108439
0.104585
0.100532
0.0962198
0.0916124
0.0866947
0.0814695
0.0759643
0.0702357
0.0643737
0.0584902
0.0526712
0.0469638
0.0413787
0.0358952
0.0304726
0.0250415
0.0195493
0.0139938
0.00842729
0.00404026
0.000927999
-0.00213562
-0.00527153
-0.00847189
-0.0117247
-0.01502
-0.0183475
-0.0216975
-0.0250614
-0.0284322
-0.0318049
-0.0351761
-0.0385433
-0.0419052
-0.0452611
-0.048611
-0.0519551
-0.055294
-0.0586285
-0.0619597
-0.0652886
-0.068616
-0.0719431
-0.0752704
-0.0785986
-0.0819283
-0.0852596
-0.0885928
-0.0919279
-0.0952647
-0.0986031
-0.101943
-0.105283
-0.108625
0.219017
0.215889
0.212824
0.209852
0.206995
0.204265
0.201659
0.199168
0.196787
0.194517
0.19236
0.190323
0.188419
0.186663
0.185073
0.183656
0.182415
0.18135
0.180458
0.179731
0.179157
0.178725
0.17842
0.178224
0.178116
0.178072
0.178068
0.178085
0.178107
0.178123
0.178118
0.178084
0.178013
0.177899
0.17774
0.177531
0.177267
0.176942
0.17655
0.176084
0.175533
0.17489
0.174143
0.173279
0.172292
0.171176
0.169925
0.168523
0.166926
0.165047
0.162782
0.160134
0.157161
0.15401
0.150802
0.147477
0.143975
0.14028
0.1364
0.132434
0.128481
0.124595
0.120794
0.117067
0.113364
0.109619
0.105748
0.101668
0.097317
0.0926567
0.0876707
0.0823673
0.076779
0.0709638
0.0650136
0.0590387
0.0531236
0.0473185
0.0416435
0.0360964
0.0306438
0.0251807
0.0195581
0.0135184
0.00617463
0.00112009
0.00050217
-0.00211613
-0.00513387
-0.00830327
-0.0115525
-0.0148545
-0.0181936
-0.0215576
-0.0249366
-0.028323
-0.0317111
-0.0350968
-0.0384776
-0.0418519
-0.0452189
-0.0485784
-0.0519306
-0.0552764
-0.0586165
-0.0619521
-0.0652843
-0.0686143
-0.071943
-0.0752714
-0.0786003
-0.0819303
-0.0852617
-0.0885948
-0.0919296
-0.0952662
-0.0986043
-0.101944
-0.105284
-0.108625
0.218934
0.215642
0.212418
0.209301
0.20632
0.203492
0.200815
0.198281
0.195878
0.193604
0.191459
0.189448
0.187588
0.185897
0.184399
0.183107
0.182031
0.181173
0.180531
0.180096
0.179853
0.179785
0.179871
0.180084
0.180396
0.180772
0.181179
0.181589
0.181979
0.182331
0.182628
0.182857
0.183008
0.183078
0.183067
0.182972
0.182788
0.182504
0.182115
0.181615
0.180991
0.180236
0.179337
0.178281
0.17707
0.175709
0.174213
0.172565
0.170719
0.168542
0.165922
0.162891
0.15955
0.156088
0.15259
0.148948
0.145127
0.141147
0.137069
0.132959
0.128889
0.124907
0.121043
0.117289
0.113584
0.109841
0.10597
0.101887
0.0975322
0.0928648
0.0878717
0.0825731
0.0770031
0.0712036
0.0652543
0.0592549
0.0532913
0.047421
0.0416835
0.0361173
0.0307191
0.0253803
0.0199485
0.0143677
0.00879826
0.00450566
0.00140433
-0.00168263
-0.00484965
-0.00808045
-0.0113617
-0.0146844
-0.0180397
-0.0214186
-0.0248123
-0.0282133
-0.0316158
-0.0350155
-0.0384095
-0.0417959
-0.0451738
-0.0485429
-0.0519035
-0.0552563
-0.0586022
-0.0619424
-0.0652782
-0.0686109
-0.0719415
-0.0752713
-0.078601
-0.0819315
-0.0852631
-0.0885961
-0.0919309
-0.0952672
-0.0986051
-0.101944
-0.105284
-0.108625
0.21886
0.215419
0.212041
0.208768
0.205638
0.202678
0.199898
0.197292
0.194845
0.192549
0.190402
0.188406
0.18658
0.184944
0.18353
0.182363
0.181463
0.180837
0.180488
0.180409
0.180576
0.180967
0.181552
0.182296
0.183158
0.184093
0.185056
0.186006
0.186909
0.187737
0.188467
0.189079
0.189562
0.189915
0.190142
0.190237
0.190197
0.190008
0.189659
0.189144
0.188447
0.187552
0.186441
0.185099
0.183538
0.181797
0.179915
0.177887
0.17566
0.173016
0.169803
0.166111
0.162131
0.158132
0.154124
0.149921
0.145556
0.141115
0.136695
0.132354
0.128108
0.123993
0.120042
0.116252
0.112548
0.10882
0.104962
0.10088
0.096522
0.0918672
0.0869185
0.0817109
0.076289
0.0706678
0.0648788
0.0589827
0.0530658
0.0472114
0.0414916
0.0359761
0.0306981
0.0255642
0.0204108
0.0152489
0.0103038
0.00600331
0.0022771
-0.00117695
-0.00452798
-0.00785044
-0.0111787
-0.014527
-0.0178984
-0.0212897
-0.0246952
-0.0281083
-0.0315233
-0.0349355
-0.0383415
-0.0417394
-0.0451277
-0.0485061
-0.0518749
-0.0552346
-0.0585863
-0.0619312
-0.0652707
-0.0686061
-0.0719388
-0.07527
-0.0786007
-0.0819317
-0.0852636
-0.0885968
-0.0919315
-0.0952678
-0.0986056
-0.101945
-0.105285
-0.108625
0.218862
0.215407
0.211973
0.208601
0.20534
0.202236
0.19932
0.196601
0.194069
0.19171
0.189516
0.187488
0.185636
0.183989
0.182586
0.18147
0.180678
0.180234
0.180152
0.180417
0.181016
0.181912
0.183062
0.184422
0.185943
0.187568
0.189238
0.190895
0.192487
0.193971
0.195314
0.196485
0.197468
0.198266
0.198888
0.199324
0.199572
0.199608
0.19942
0.198998
0.198316
0.197345
0.196045
0.194382
0.192391
0.190168
0.187803
0.185312
0.182627
0.179339
0.175234
0.170529
0.165604
0.160856
0.15607
0.150943
0.145681
0.140486
0.135512
0.130762
0.126195
0.121826
0.117708
0.113825
0.110091
0.106361
0.102497
0.0983776
0.0939781
0.0893021
0.0843995
0.0793278
0.0741558
0.0688617
0.063426
0.0578485
0.0521702
0.046494
0.0409391
0.0355734
0.0304323
0.0254883
0.0206013
0.0157505
0.0110839
0.00676872
0.00282382
-0.000816116
-0.00428428
-0.00767331
-0.0110368
-0.0144025
-0.0177827
-0.0211802
-0.0245921
-0.0280132
-0.0314374
-0.0348598
-0.0382763
-0.0416843
-0.0450822
-0.0484693
-0.0518457
-0.0552121
-0.0585694
-0.0619188
-0.065262
-0.0686003
-0.0719351
-0.0752678
-0.0785995
-0.0819312
-0.0852635
-0.0885969
-0.0919317
-0.0952679
-0.0986056
-0.101945
-0.105285
-0.108625
0.219039
0.215898
0.212672
0.209381
0.20609
0.202886
0.199845
0.196999
0.194347
0.191871
0.189551
0.187377
0.185362
0.183537
0.181956
0.180684
0.17979
0.179327
0.179327
0.179785
0.180698
0.182017
0.183685
0.185649
0.187857
0.190249
0.192747
0.195266
0.197732
0.200077
0.202254
0.204208
0.20592