/*--------------------------------*- C++ -*----------------------------------*\
  =========                 |
  \\      /  F ield         | OpenFOAM: The Open Source CFD Toolbox
   \\    /   O peration     | Website:  https://openfoam.org
    \\  /    A nd           | Version:  6
     \\/     M anipulation  |
\*---------------------------------------------------------------------------*/
FoamFile
{
    version     2.0;
    format      ascii;
    class       volScalarField;
    location    "4300";
    object      T;
}
// * * * * * * * * * * * * * * * * * * * * * * * * * * * * * * * * * * * * * //

dimensions      [0 0 0 1 0 0 0];

internalField   nonuniform List<scalar> 
4800
(
552.488
552.363
552.238
552.115
551.993
551.873
551.756
551.643
551.534
551.43
551.331
551.238
551.15
551.067
550.989
550.915
550.846
550.781
550.719
550.661
550.606
550.553
550.502
550.453
550.406
550.36
550.316
550.272
550.228
550.185
550.141
550.097
550.053
550.008
549.962
549.916
549.869
549.822
549.773
549.724
549.673
549.622
549.569
549.515
549.459
549.402
549.342
549.279
549.214
549.145
549.073
548.998
548.918
548.836
548.75
548.66
548.568
548.473
548.376
548.275
548.172
548.067
547.959
547.848
547.735
547.619
547.501
547.38
547.256
547.129
546.999
546.866
546.73
546.59
546.447
546.299
546.149
545.995
545.839
545.682
545.524
545.366
545.21
545.058
544.913
544.773
544.638
544.508
544.38
544.254
544.13
544.007
543.884
543.763
543.641
543.52
543.399
543.278
543.157
543.036
542.915
542.794
542.673
542.552
542.431
542.31
542.189
542.068
541.946
541.825
541.704
541.583
541.461
541.34
541.218
541.097
540.975
540.854
540.732
540.611
552.487
552.362
552.237
552.113
551.99
551.87
551.753
551.639
551.53
551.426
551.328
551.235
551.148
551.065
550.988
550.915
550.846
550.781
550.72
550.662
550.607
550.555
550.505
550.457
550.41
550.365
550.321
550.277
550.234
550.19
550.147
550.103
550.059
550.014
549.969
549.923
549.876
549.829
549.781
549.731
549.681
549.63
549.578
549.524
549.468
549.411
549.351
549.288
549.222
549.154
549.081
549.005
548.925
548.841
548.753
548.663
548.57
548.474
548.375
548.274
548.17
548.064
547.956
547.845
547.731
547.616
547.497
547.376
547.252
547.126
546.996
546.864
546.728
546.588
546.445
546.298
546.147
545.992
545.835
545.676
545.517
545.359
545.203
545.051
544.907
544.768
544.634
544.505
544.377
544.252
544.129
544.006
543.884
543.762
543.64
543.519
543.398
543.277
543.156
543.036
542.915
542.794
542.673
542.552
542.431
542.31
542.189
542.068
541.946
541.825
541.704
541.583
541.461
541.34
541.218
541.097
540.975
540.854
540.732
540.611
552.487
552.361
552.235
552.109
551.986
551.865
551.747
551.634
551.525
551.422
551.325
551.233
551.146
551.065
550.988
550.916
550.848
550.784
550.724
550.667
550.613
550.562
550.513
550.466
550.42
550.375
550.332
550.289
550.246
550.203
550.16
550.116
550.073
550.028
549.983
549.938
549.892
549.845
549.797
549.748
549.699
549.648
549.596
549.542
549.487
549.43
549.37
549.307
549.241
549.171
549.097
549.019
548.937
548.851
548.761
548.668
548.573
548.475
548.374
548.271
548.165
548.058
547.949
547.837
547.724
547.608
547.49
547.369
547.246
547.12
546.991
546.859
546.724
546.585
546.442
546.295
546.144
545.989
545.83
545.668
545.506
545.346
545.19
545.038
544.894
544.758
544.626
544.499
544.373
544.249
544.126
544.004
543.882
543.76
543.639
543.518
543.397
543.277
543.156
543.035
542.914
542.793
542.673
542.552
542.431
542.31
542.189
542.067
541.946
541.825
541.704
541.582
541.461
541.34
541.218
541.097
540.975
540.854
540.732
540.611
552.486
552.359
552.233
552.107
551.983
551.861
551.743
551.63
551.522
551.42
551.323
551.232
551.146
551.065
550.99
550.919
550.853
550.791
550.732
550.676
550.624
550.574
550.526
550.48
550.435
550.391
550.349
550.306
550.264
550.222
550.18
550.137
550.094
550.05
550.006
549.961
549.915
549.869
549.822
549.774
549.725
549.675
549.624
549.571
549.516
549.459
549.398
549.335
549.268
549.198
549.122
549.041
548.956
548.867
548.774
548.678
548.579
548.477
548.373
548.267
548.16
548.05
547.94
547.827
547.713
547.597
547.479
547.359
547.237
547.111
546.983
546.852
546.718
546.58
546.438
546.292
546.141
545.987
545.828
545.665
545.501
545.335
545.172
545.016
544.875
544.742
544.615
544.49
544.367
544.244
544.122
544.001
543.88
543.759
543.638
543.517
543.396
543.276
543.155
543.034
542.914
542.793
542.672
542.551
542.43
542.309
542.188
542.067
541.946
541.825
541.704
541.582
541.461
541.34
541.218
541.097
540.975
540.854
540.732
540.611
552.486
552.358
552.231
552.105
551.981
551.859
551.741
551.628
551.521
551.419
551.324
551.233
551.149
551.07
550.996
550.927
550.862
550.802
550.745
550.691
550.639
550.591
550.544
550.499
550.456
550.413
550.372
550.33
550.289
550.248
550.207
550.165
550.123
550.08
550.036
549.992
549.947
549.902
549.856
549.809
549.761
549.711
549.661
549.608
549.553
549.496
549.436
549.371
549.304
549.232
549.153
549.07
548.981
548.888
548.792
548.691
548.588
548.483
548.375
548.266
548.155
548.043
547.93
547.816
547.702
547.585
547.467
547.347
547.225
547.1
546.973
546.843
546.71
546.574
546.433
546.289
546.139
545.984
545.825
545.661
545.492
545.319
545.146
544.981
544.846
544.722
544.601
544.481
544.36
544.239
544.118
543.997
543.877
543.756
543.636
543.515
543.395
543.274
543.154
543.033
542.913
542.792
542.671
542.551
542.43
542.309
542.188
542.067
541.946
541.825
541.703
541.582
541.461
541.34
541.218
541.097
540.975
540.854
540.732
540.611
552.486
552.358
552.23
552.104
551.98
551.859
551.741
551.629
551.523
551.422
551.327
551.239
551.156
551.078
551.006
550.939
550.876
550.817
550.762
550.71
550.66
550.613
550.567
550.524
550.482
550.44
550.4
550.36
550.32
550.28
550.24
550.199
550.158
550.116
550.073
550.03
549.987
549.942
549.897
549.851
549.804
549.756
549.706
549.653
549.599
549.542
549.481
549.416
549.347
549.272
549.191
549.105
549.012
548.915
548.814
548.71
548.602
548.492
548.38
548.267
548.152
548.037
547.922
547.806
547.691
547.574
547.455
547.335
547.213
547.089
546.963
546.834
546.702
546.567
546.428
546.284
546.136
545.982
545.822
545.656
545.482
545.299
545.108
544.916
544.806
544.699
544.587
544.471
544.353
544.234
544.114
543.994
543.874
543.754
543.634
543.513
543.393
543.273
543.153
543.032
542.912
542.791
542.671
542.55
542.429
542.308
542.188
542.067
541.946
541.824
541.703
541.582
541.461
541.339
541.218
541.097
540.975
540.854
540.732
540.611
552.486
552.359
552.232
552.106
551.982
551.861
551.745
551.634
551.528
551.429
551.335
551.248
551.167
551.091
551.021
550.956
550.895
550.837
550.784
550.733
550.685
550.639
550.595
550.553
550.512
550.472
550.433
550.394
550.356
550.317
550.278
550.238
550.198
550.158
550.117
550.075
550.032
549.989
549.945
549.901
549.855
549.807
549.758
549.706
549.652
549.594
549.533
549.466
549.395
549.318
549.234
549.144
549.047
548.946
548.841
548.732
548.621
548.506
548.39
548.273
548.154
548.036
547.918
547.801
547.683
547.565
547.446
547.326
547.204
547.08
546.954
546.826
546.695
546.56
546.423
546.28
546.133
545.98
545.82
545.652
545.475
545.284
545.066
544.771
544.763
544.682
544.577
544.464
544.347
544.229
544.11
543.991
543.871
543.751
543.631
543.511
543.391
543.271
543.151
543.031
542.911
542.79
542.67
542.549
542.429
542.308
542.187
542.066
541.945
541.824
541.703
541.582
541.461
541.339
541.218
541.097
540.975
540.854
540.732
540.611
552.486
552.359
552.233
552.109
551.987
551.868
551.752
551.642
551.537
551.439
551.347
551.262
551.182
551.109
551.04
550.976
550.917
550.862
550.809
550.76
550.713
550.669
550.627
550.586
550.546
550.508
550.47
550.433
550.396
550.358
550.321
550.283
550.244
550.205
550.165
550.125
550.084
550.042
550
549.956
549.911
549.865
549.816
549.764
549.71
549.653
549.59
549.523
549.449
549.37
549.282
549.188
549.088
548.983
548.874
548.761
548.645
548.526
548.406
548.285
548.163
548.042
547.922
547.803
547.683
547.564
547.443
547.322
547.2
547.076
546.95
546.822
546.691
546.557
546.42
546.279
546.132
545.979
545.82
545.653
545.477
545.291
545.097
544.906
544.795
544.689
544.577
544.461
544.344
544.226
544.107
543.987
543.868
543.749
543.629
543.509
543.39
543.27
543.15
543.03
542.91
542.789
542.669
542.549
542.428
542.307
542.187
542.066
541.945
541.824
541.703
541.582
541.46
541.339
541.218
541.096
540.975
540.854
540.732
540.611
552.487
552.361
552.235
552.112
551.991
551.874
551.761
551.653
551.55
551.454
551.364
551.28
551.202
551.13
551.063
551.001
550.943
550.889
550.838
550.791
550.745
550.702
550.661
550.622
550.584
550.547
550.511
550.475
550.439
550.403
550.367
550.331
550.294
550.256
550.218
550.179
550.14
550.1
550.058
550.016
549.972
549.927
549.879
549.827
549.773
549.715
549.652
549.584
549.509
549.426
549.336
549.238
549.134
549.025
548.912
548.796
548.676
548.554
548.43
548.306
548.182
548.059
547.937
547.815
547.694
547.572
547.45
547.328
547.205
547.08
546.953
546.825
546.694
546.56
546.423
546.281
546.135
545.982
545.822
545.656
545.484
545.306
545.128
544.962
544.825
544.701
544.58
544.461
544.342
544.223
544.104
543.985
543.866
543.746
543.627
543.508
543.388
543.268
543.148
543.029
542.909
542.788
542.668
542.548
542.427
542.307
542.186
542.065
541.944
541.824
541.703
541.581
541.46
541.339
541.218
541.096
540.975
540.854
540.732
540.611
552.488
552.364
552.24
552.119
552
551.884
551.773
551.667
551.567
551.472
551.384
551.302
551.225
551.155
551.089
551.029
550.972
550.919
550.87
550.824
550.78
550.738
550.699
550.661
550.624
550.589
550.554
550.519
550.485
550.451
550.416
550.381
550.345
550.31
550.273
550.236
550.198
550.159
550.12
550.079
550.036
549.991
549.944
549.894
549.84
549.782
549.718
549.649
549.573
549.488
549.395
549.294
549.187
549.074
548.958
548.839
548.716
548.591
548.464
548.338
548.212
548.088
547.964
547.841
547.718
547.595
547.471
547.347
547.222
547.096
546.969
546.839
546.707
546.571
546.433
546.29
546.142
545.988
545.828
545.663
545.493
545.32
545.15
544.989
544.843
544.71
544.584
544.461
544.341
544.221
544.102
543.983
543.863
543.744
543.625
543.506
543.386
543.267
543.147
543.027
542.907
542.787
542.667
542.547
542.427
542.306
542.186
542.065
541.944
541.823
541.702
541.581
541.46
541.339
541.218
541.096
540.975
540.854
540.732
540.611
552.489
552.368
552.247
552.128
552.011
551.898
551.789
551.685
551.586
551.494
551.407
551.327
551.252
551.183
551.118
551.059
551.003
550.952
550.904
550.858
550.816
550.775
550.737
550.7
550.665
550.631
550.597
550.564
550.531
550.498
550.465
550.432
550.398
550.364
550.329
550.293
550.257
550.22
550.182
550.142
550.101
550.057
550.011
549.961
549.908
549.851
549.787
549.718
549.641
549.555
549.461
549.357
549.247
549.132
549.014
548.891
548.766
548.639
548.51
548.383
548.256
548.131
548.006
547.882
547.758
547.634
547.509
547.384
547.257
547.13
547
546.868
546.733
546.595
546.453
546.307
546.156
546
545.838
545.672
545.502
545.331
545.162
545.001
544.85
544.713
544.584
544.46
544.339
544.219
544.1
543.981
543.862
543.743
543.624
543.504
543.385
543.266
543.146
543.026
542.906
542.786
542.666
542.546
542.426
542.305
542.185
542.064
541.944
541.823
541.702
541.581
541.46
541.339
541.217
541.096
540.975
540.853
540.732
540.611
552.49
552.371
552.253
552.137
552.023
551.913
551.806
551.704
551.608
551.517
551.432
551.353
551.28
551.212
551.149
551.09
551.036
550.985
550.938
550.893
550.852
550.812
550.775
550.739
550.705
550.672
550.639
550.607
550.576
550.544
550.513
550.481
550.449
550.416
550.383
550.349
550.315
550.28
550.243
550.205
550.165
550.123
550.078
550.03
549.978
549.921
549.858
549.789
549.712
549.627
549.532
549.428
549.316
549.199
549.078
548.954
548.827
548.698
548.569
548.441
548.314
548.188
548.063
547.939
547.815
547.69
547.565
547.438
547.31
547.18
547.048
546.912
546.773
546.63
546.484
546.333
546.177
546.017
545.852
545.683
545.511
545.338
545.167
545.001
544.845
544.707
544.579
544.457
544.337
544.217
544.098
543.98
543.861
543.742
543.623
543.503
543.384
543.265
543.145
543.025
542.906
542.786
542.666
542.545
542.425
542.305
542.184
542.064
541.943
541.822
541.702
541.581
541.46
541.338
541.217
541.096
540.975
540.853
540.732
540.611
552.492
552.375
552.26
552.147
552.035
551.928
551.824
551.725
551.63
551.542
551.459
551.381
551.309
551.242
551.18
551.122
551.068
551.018
550.971
550.927
550.886
550.847
550.81
550.775
550.742
550.71
550.678
550.647
550.617
550.587
550.557
550.527
550.496
550.465
550.434
550.402
550.37
550.336
550.302
550.265
550.227
550.187
550.144
550.097
550.047
549.992
549.931
549.863
549.787
549.702
549.608
549.504
549.392
549.274
549.152
549.027
548.899
548.77
548.64
548.512
548.385
548.26
548.136
548.012
547.887
547.762
547.636
547.507
547.377
547.244
547.108
546.969
546.825
546.677
546.524
546.366
546.204
546.038
545.869
545.696
545.521
545.343
545.165
544.988
544.821
544.689
544.569
544.452
544.334
544.216
544.098
543.979
543.86
543.741
543.622
543.503
543.383
543.264
543.144
543.025
542.905
542.785
542.665
542.545
542.425
542.304
542.184
542.063
541.943
541.822
541.701
541.58
541.459
541.338
541.217
541.096
540.975
540.853
540.732
540.611
552.493
552.38
552.268
552.158
552.05
551.945
551.843
551.746
551.654
551.567
551.485
551.409
551.337
551.271
551.209
551.151
551.098
551.048
551.001
550.958
550.917
550.879
550.842
550.808
550.775
550.743
550.713
550.683
550.654
550.625
550.597
550.568
550.539
550.511
550.481
550.452
550.421
550.39
550.358
550.323
550.288
550.249
550.209
550.164
550.116
550.063
550.004
549.938
549.864
549.782
549.689
549.587
549.476
549.358
549.235
549.11
548.982
548.853
548.724
548.597
548.47
548.346
548.222
548.097
547.973
547.846
547.718
547.588
547.455
547.319
547.179
547.035
546.885
546.73
546.57
546.406
546.236
546.064
545.889
545.711
545.532
545.348
545.16
544.962
544.763
544.658
544.556
544.446
544.332
544.216
544.098
543.979
543.86
543.741
543.622
543.503
543.383
543.264
543.144
543.024
542.904
542.784
542.664
542.544
542.424
542.304
542.183
542.063
541.942
541.822
541.701
541.58
541.459
541.338
541.217
541.096
540.975
540.853
540.732
540.611
552.495
552.385
552.275
552.168
552.063
551.961
551.862
551.767
551.676
551.59
551.509
551.434
551.363
551.297
551.235
551.178
551.124
551.074
551.028
550.984
550.943
550.905
550.869
550.835
550.803
550.772
550.742
550.714
550.686
550.659
550.632
550.605
550.578
550.551
550.524
550.497
550.469
550.44
550.41
550.379
550.345
550.31
550.272
550.23
550.185
550.134
550.078
550.015
549.944
549.865
549.775
549.676
549.566
549.449
549.327
549.202
549.075
548.947
548.819
548.692
548.567
548.442
548.318
548.193
548.067
547.94
547.81
547.677
547.542
547.402
547.257
547.107
546.95
546.788
546.621
546.449
546.272
546.093
545.912
545.73
545.546
545.357
545.159
544.931
544.613
544.625
544.549
544.446
544.333
544.217
544.099
543.98
543.862
543.742
543.623
543.503
543.384
543.264
543.144
543.024
542.904
542.784
542.664
542.544
542.424
542.303
542.183
542.063
541.942
541.821
541.701
541.58
541.459
541.338
541.217
541.096
540.974
540.853
540.732
540.611
552.496
552.389
552.282
552.177
552.075
551.975
551.878
551.785
551.695
551.611
551.531
551.456
551.385
551.319
551.257
551.2
551.146
551.096
551.049
551.005
550.965
550.927
550.891
550.858
550.826
550.796
550.767
550.74
550.713
550.688
550.662
550.638
550.613
550.589
550.564
550.539
550.514
550.488
550.461
550.432
550.402
550.369
550.334
550.296
550.253
550.206
550.153
550.094
550.027
549.951
549.865
549.769
549.662
549.546
549.425
549.302
549.176
549.05
548.923
548.796
548.671
548.546
548.421
548.295
548.168
548.039
547.907
547.772
547.633
547.488
547.337
547.18
547.017
546.847
546.672
546.492
546.309
546.123
545.937
545.751
545.564
545.375
545.183
544.989
544.822
544.684
544.569
544.454
544.338
544.22
544.102
543.983
543.864
543.744
543.624
543.505
543.385
543.264
543.144
543.024
542.904
542.784
542.664
542.544
542.423
542.303
542.183
542.062
541.942
541.821
541.7
541.58
541.459
541.338
541.217
541.096
540.974
540.853
540.732
540.611
552.497
552.392
552.287
552.185
552.084
551.986
551.891
551.799
551.711
551.628
551.548
551.473
551.403
551.336
551.274
551.216
551.162
551.112
551.065
551.022
550.981
550.944
550.908
550.876
550.845
550.816
550.789
550.763
550.738
550.714
550.691
550.669
550.647
550.625
550.603
550.581
550.558
550.535
550.511
550.485
550.458
550.429
550.397
550.362
550.323
550.279
550.23
550.174
550.111
550.04
549.958
549.865
549.761
549.648
549.529
549.407
549.283
549.158
549.032
548.905
548.779
548.652
548.526
548.399
548.27
548.139
548.005
547.868
547.724
547.575
547.418
547.254
547.083
546.905
546.722
546.534
546.344
546.153
545.963
545.774
545.585
545.398
545.211
545.03
544.866
544.719
544.588
544.464
544.344
544.224
544.105
543.986
543.867
543.747
543.627
543.506
543.386
543.266
543.145
543.025
542.904
542.784
542.664
542.544
542.423
542.303
542.182
542.062
541.941
541.821
541.7
541.579
541.459
541.338
541.217
541.095
540.974
540.853
540.732
540.611
552.498
552.393
552.29
552.189
552.09
551.994
551.9
551.809
551.722
551.639
551.56
551.485
551.414
551.347
551.285
551.227
551.173
551.123
551.076
551.033
550.994
550.957
550.923
550.891
550.862
550.835
550.81
550.786
550.764
550.742
550.722
550.702
550.683
550.663
550.644
550.625
550.606
550.585
550.564
550.542
550.518
550.492
550.463
550.432
550.396
550.356
550.31
550.258
550.199
550.132
550.054
549.964
549.863
549.752
549.635
549.516
549.394
549.269
549.143
549.015
548.886
548.758
548.63
548.5
548.37
548.238
548.102
547.961
547.814
547.659
547.497
547.325
547.146
546.96
546.768
546.574
546.378
546.182
545.988
545.797
545.607
545.42
545.235
545.055
544.889
544.737
544.6
544.472
544.35
544.229
544.11
543.99
543.87
543.75
543.629
543.509
543.388
543.267
543.146
543.026
542.905
542.785
542.664
542.544
542.423
542.303
542.182
542.062
541.941
541.821
541.7
541.579
541.458
541.337
541.216
541.095
540.974
540.853
540.732
540.611
552.498
552.393
552.291
552.19
552.091
551.996
551.903
551.813
551.727
551.644
551.565
551.489
551.418
551.352
551.29
551.232
551.178
551.129
551.083
551.042
551.004
550.969
550.937
550.908
550.882
550.858
550.836
550.815
550.796
550.778
550.76
550.743
550.727
550.711
550.695
550.679
550.662
550.645
550.626
550.607
550.586
550.562
550.536
550.507
550.475
550.437
550.394
550.346
550.291
550.227
550.152
550.065
549.964
549.855
549.741
549.623
549.503
549.379
549.251
549.121
548.989
548.858
548.727
548.596
548.464
548.331
548.193
548.05
547.899
547.74
547.571
547.392
547.205
547.01
546.811
546.609
546.408
546.208
546.012
545.819
545.628
545.438
545.251
545.069
544.897
544.742
544.604
544.476
544.354
544.234
544.114
543.995
543.874
543.754
543.633
543.512
543.39
543.269
543.148
543.027
542.906
542.785
542.664
542.544
542.423
542.303
542.182
542.062
541.941
541.82
541.7
541.579
541.458
541.337
541.216
541.095
540.974
540.853
540.732
540.611
552.497
552.391
552.287
552.186
552.087
551.991
551.899
551.809
551.723
551.64
551.561
551.486
551.415
551.349
551.288
551.231
551.179
551.131
551.088
551.049
551.015
550.983
550.956
550.931
550.91
550.89
550.873
550.857
550.842
550.828
550.815
550.802
550.789
550.776
550.763
550.75
550.736
550.721
550.705
550.687
550.668
550.647
550.622
550.595
550.563
550.527
550.486
550.44
550.387
550.325
550.25
550.163
550.063
549.955
549.842
549.727
549.607
549.482
549.351
549.217
549.082
548.948
548.814
548.682
548.549
548.414
548.275
548.129
547.975
547.812
547.638
547.453
547.259
547.057
546.85
546.642
546.436
546.232
546.033
545.837
545.644
545.451
545.258
545.069
544.889
544.731
544.598
544.476
544.356
544.238
544.119
544
543.879
543.758
543.637
543.515
543.393
543.272
543.15
543.029
542.907
542.786
542.665
542.544
542.423
542.303
542.182
542.062
541.941
541.82
541.7
541.579
541.458
541.337
541.216
541.095
540.974
540.853
540.732
540.611
552.495
552.387
552.28
552.176
552.076
551.979
551.886
551.796
551.71
551.628
551.549
551.474
551.404
551.339
551.279
551.224
551.175
551.13
551.092
551.058
551.029
551.004
550.983
550.965
550.951
550.939
550.928
550.919
550.911
550.903
550.895
550.888
550.879
550.871
550.861
550.85
550.839
550.826
550.811
550.794
550.775
550.754
550.729
550.701
550.669
550.632
550.591
550.544
550.49
550.426
550.35
550.26
550.159
550.049
549.937
549.821
549.699
549.571
549.436
549.297
549.158
549.02
548.884
548.75
548.616
548.481
548.341
548.194
548.038
547.871
547.692
547.503
547.303
547.096
546.883
546.67
546.459
546.252
546.05
545.851
545.654
545.458
545.258
545.057
544.856
544.696
544.584
544.473
544.359
544.243
544.125
544.005
543.885
543.763
543.641
543.519
543.397
543.274
543.152
543.03
542.909
542.787
542.666
542.545
542.424
542.303
542.182
542.062
541.941
541.82
541.7
541.579
541.458
541.337
541.216
541.095
540.974
540.853
540.732
540.611
552.493
552.38
552.269
552.161
552.057
551.958
551.864
551.773
551.687
551.605
551.526
551.452
551.383
551.32
551.262
551.211
551.166
551.127
551.095
551.069
551.048
551.033
551.022
551.015
551.011
551.01
551.01
551.011
551.012
551.013
551.013
551.012
551.01
551.006
551
550.993
550.983
550.972
550.957
550.94
550.92
550.897
550.87
550.838
550.802
550.761
550.715
550.664
550.606
550.537
550.455
550.358
550.25
550.135
550.018
549.897
549.77
549.636
549.495
549.351
549.207
549.066
548.928
548.793
548.659
548.523
548.382
548.234
548.077
547.908
547.727
547.535
547.332
547.121
546.906
546.689
546.475
546.265
546.059
545.858
545.66
545.462
545.259
545.04
544.777
544.613
544.568
544.473
544.364
544.249
544.131
544.011
543.89
543.768
543.646
543.523
543.4
543.277
543.155
543.032
542.91
542.788
542.667
542.545
542.424
542.303
542.182
542.062
541.941
541.82
541.699
541.579
541.458
541.337
541.216
541.095
540.974
540.853
540.732
540.611
552.49
552.371
552.254
552.141
552.033
551.931
551.834
551.742
551.655
551.572
551.494
551.421
551.354
551.292
551.238
551.191
551.152
551.121
551.098
551.082
551.073
551.071
551.074
551.082
551.094
551.108
551.123
551.138
551.152
551.166
551.177
551.185
551.191
551.194
551.194
551.191
551.184
551.174
551.16
551.142
551.12
551.092
551.06
551.021
550.977
550.927
550.873
550.813
550.745
550.666
550.57
550.459
550.338
550.211
550.084
549.951
549.812
549.667
549.519
549.37
549.222
549.077
548.937
548.801
548.666
548.53
548.39
548.241
548.083
547.914
547.733
547.541
547.339
547.129
546.914
546.697
546.481
546.268
546.06
545.859
545.663
545.47
545.273
545.071
544.869
544.713
544.601
544.489
544.374
544.257
544.138
544.017
543.896
543.773
543.65
543.527
543.403
543.28
543.157
543.034
542.912
542.79
542.668
542.546
542.425
542.304
542.183
542.062
541.941
541.82
541.699
541.579
541.458
541.337
541.216
541.095
540.974
540.853
540.732
540.611
552.488
552.363
552.241
552.123
552.01
551.902
551.802
551.707
551.618
551.535
551.457
551.384
551.318
551.258
551.207
551.164
551.131
551.108
551.096
551.093
551.099
551.113
551.134
551.161
551.192
551.226
551.262
551.297
551.33
551.36
551.387
551.41
551.428
551.441
551.45
551.454
551.453
551.447
551.434
551.416
551.391
551.359
551.319
551.27
551.214
551.15
551.082
551.008
550.927
550.831
550.714
550.579
550.434
550.288
550.142
549.988
549.829
549.667
549.506
549.348
549.194
549.044
548.901
548.763
548.628
548.492
548.352
548.204
548.046
547.877
547.697
547.509
547.312
547.109
546.899
546.686
546.472
546.26
546.053
545.853
545.662
545.476
545.289
545.102
544.923
544.767
544.632
544.507
544.386
544.265
544.144
544.023
543.901
543.778
543.654
543.531
543.407
543.283
543.16
543.036
542.913
542.791
542.669
542.547
542.425
542.304
542.183
542.062
541.941
541.82
541.699
541.579
541.458
541.337
541.216
541.095
540.974
540.853
540.732
540.611
552.488
552.364
552.24
552.118
552.001
551.888
551.783
551.684
551.592
551.506
551.427
551.353
551.285
551.225
551.174
551.133
551.104
551.087
551.083
551.092
551.113
551.145
551.187
551.236
551.291
551.35
551.41
551.471
551.529
551.583
551.632
551.676
551.712
551.742
551.765
551.781
551.791
551.793
551.787
551.773
551.749
551.714
551.668
551.608
551.537
551.457
551.371
551.281
551.184
551.065
550.915
550.744
550.564
550.391
550.217
550.03
549.838
549.648
549.466
549.293
549.127
548.968
548.818
548.676
548.54
548.403
548.263
548.113
547.953
547.783
547.605
547.421
547.234
547.042
546.846
546.644
546.438
546.233
546.032
545.837
545.651
545.472
545.295
545.12
544.951
544.795
544.652
544.52
544.394
544.272
544.15
544.027
543.905
543.782
543.658
543.534
543.41
543.286
543.162
543.038
542.915
542.792
542.67
542.548
542.426
542.304
542.183
542.062
541.941
541.82
541.699
541.579
541.458
541.337
541.216
541.095
540.974
540.853
540.732
540.611
552.495
552.382
552.267
552.149
552.03
551.915
551.805
551.702
551.606
551.516
551.431
551.352
551.279
551.212
551.154
551.107
551.073
551.055
551.054
551.069
551.101
551.147
551.207
551.277
551.356
551.442
551.533
551.624
551.714
551.799
551.879
551.95
552.013
552.067
552.113
552.15
552.179
552.199
552.208
552.206
552.193
552.166
552.121
552.055
551.972
551.876
551.776
551.673
551.564
551.417
551.223
551.001
550.779
550.576
550.363
550.125
549.885
549.653
549.438
549.239
549.051
548.872
548.709
548.556
548.412
548.271
548.126
547.97
547.803
547.626
547.445
547.264
547.087
546.911
546.733
546.549
546.36
546.168
545.979
545.793
545.61
545.436
545.272
545.108
544.95
544.798
544.655
544.523
544.398
544.274
544.152
544.03
543.908
543.785
543.661
543.537
543.413
543.288
543.164
543.04
542.917
542.794
542.671
542.549
542.427
542.305
542.184
542.062
541.941
541.82
541.7
541.579
541.458
541.337
541.216
541.095
540.974
540.853
540.732
540.611
552.514
552.438
552.349
552.247
552.135
552.021
551.91
551.804
551.704
551.609
551.518
551.429
551.343
551.261
551.185
551.117
551.064
551.028
551.013
551.018
551.046
551.095
551.162
551.245
551.343
551.453
551.573
551.697
551.823
551.946
552.063
552.172
552.27
552.358
552.435
552.503
552.561
552.61
552.649
552.677
552.692
552.693
552.67
552.615
552.534
552.437
552.335
552.236
552.13
551.959
551.713
551.435
551.168
550.94
550.682
550.378
550.082
549.791
549.525
549.283
549.057
548.839
548.646
548.467
548.297
548.136
547.975
547.803
547.618
547.417
547.22
547.031
546.86
546.701
546.542
546.38
546.204
546.021
545.85
545.676
545.495
545.33
545.183
545.041
544.901
544.766
544.634
544.513
544.393
544.273
544.153
544.031
543.909
543.787
543.663
543.539
543.415
543.29
543.166
543.042
542.918
542.795
542.672
542.549
542.427
542.305
542.184
542.063
541.942
541.821
541.7
541.579
541.458
541.337
541.216
541.095
540.974
540.853
540.732
540.611
552.555
552.552
552.519
552.454
552.365
552.263
552.161
552.06
551.962
551.866
551.768
551.666
551.561
551.454
551.345
551.237
551.14
551.059
551
550.965
550.958
550.979
551.027
551.102
551.202
551.323
551.461
551.612
551.771
551.933
552.091
552.243
552.383
552.51
552.626
552.73
552.826
552.915
553
553.081
553.156
553.221
553.259
553.254
553.217
553.153
553.08
553.025
552.961
552.785
552.494
552.172
551.864
551.628
551.319
550.922
550.582
550.206
549.876
549.579
549.309
549.009
548.766
548.515
548.278
548.059
547.858
547.661
547.441
547.174
546.936
546.706
546.529
546.383
546.235
546.09
545.904
545.694
545.554
545.408
545.234
545.077
544.958
544.856
544.757
544.671
544.574
544.484
544.38
544.268
544.15
544.031
543.91
543.788
543.665
543.541
543.417
543.292
543.168
543.043
542.919
542.796
542.673
542.55
542.428
542.306
542.184
542.063
541.942
541.821
541.7
541.579
541.458
541.337
541.216
541.095
540.974
540.853
540.732
540.611
552.625
552.748
552.808
552.806
552.759
552.692
552.622
552.55
552.473
552.389
552.293
552.185
552.063
551.931
551.784
551.62
551.45
551.285
551.137
551.01
550.91
550.848
550.825
550.845
550.912
551.01
551.134
551.285
551.46
551.65
551.844
552.035
552.214
552.379
552.528
552.665
552.796
552.929
553.074
553.238
553.411
553.593
553.758
553.877
553.96
553.996
554.001
554.056
554.075
553.92
553.625
553.309
552.959
552.736
552.364
551.877
551.456
550.942
550.46
550.099
549.753
549.353
549.044
548.66
548.308
547.995
547.709
547.469
547.216
546.909
546.594
546.336
546.127
545.94
545.719
545.564
545.308
545.06
544.911
544.817
544.706
544.55
544.455
544.45
544.417
544.469
544.49
544.438
544.359
544.258
544.146
544.029
543.909
543.788
543.666
543.542
543.418
543.294
543.169
543.045
542.92
542.797
542.673
542.551
542.428
542.306
542.185
542.063
541.942
541.821
541.7
541.579
541.458
541.337
541.216
541.095
540.974
540.853
540.732
540.611
552.727
553.029
553.217
553.298
553.323
553.327
553.342
553.349
553.331
553.289
553.224
553.138
553.027
552.905
552.754
552.549
552.291
551.999
551.706
551.414
551.125
550.878
550.684
550.569
550.548
550.547
550.579
550.659
550.799
550.981
551.187
551.398
551.602
551.788
551.952
552.103
552.251
552.414
552.617
552.893
553.192
553.558
553.938
554.259
554.526
554.753
554.882
555.101
555.216
555.162
554.925
554.654
554.269
553.978
553.585
553.186
552.752
552.14
551.629
551.225
550.778
550.245
549.793
549.177
548.662
548.168
547.712
547.452
547.141
546.808
546.349
546.074
545.714
545.36
545.013
544.707
544.327
544.064
544.007
543.88
543.881
543.741
543.716
543.775
543.764
544.075
544.356
544.375
544.331
544.246
544.141
544.026
543.908
543.788
543.666
543.543
543.419
543.295
543.17
543.046
542.921
542.797
542.674
542.551
542.429
542.307
542.185
542.063
541.942
541.821
541.7
541.579
541.458
541.337
541.216
541.095
540.974
540.853
540.732
540.611
552.833
553.337
553.673
553.854
554.01
554.138
554.324
554.496
554.589
554.623
554.657
554.688
554.643
554.612
554.599
554.475
554.17
553.703
553.203
552.676
552.089
551.516
550.941
550.518
550.314
550.072
549.858
549.7
549.677
549.764
549.913
550.1
550.292
550.471
550.62
550.752
550.885
551.042
551.282
551.716
552.096
552.708
553.369
553.912
554.402
554.928
555.429
555.807
556.01
556.131
556.082
556.003
555.592
555.288
554.999
554.812
554.484
553.943
553.481
553.005
552.436
551.586
550.775
549.92
549.347
548.618
548.052
547.755
547.145
546.923
546.367
546.007
545.357
544.707
544.078
543.267
542.677
542.333
542.789
542.824
543.113
542.351
542.709
543.478
542.883
543.387
544.207
544.314
544.305
544.235
544.136
544.024
543.907
543.788
543.666
543.544
543.42
543.295
543.171
543.046
542.922
542.798
542.675
542.552
542.429
542.307
542.185
542.064
541.942
541.821
541.7
541.579
541.458
541.337
541.216