/*--------------------------------*- C++ -*----------------------------------*\
  =========                 |
  \\      /  F ield         | OpenFOAM: The Open Source CFD Toolbox
   \\    /   O peration     | Website:  https://openfoam.org
    \\  /    A nd           | Version:  6
     \\/     M anipulation  |
\*---------------------------------------------------------------------------*/
FoamFile
{
    version     2.0;
    format      ascii;
    class       surfaceScalarField;
    location    "1400";
    object      phi;
}
// * * * * * * * * * * * * * * * * * * * * * * * * * * * * * * * * * * * * * //

dimensions      [0 3 -1 0 0 0 0];

internalField   nonuniform List<scalar> 
9440
(
-1.53558e-10
1.53558e-10
-2.02584e-10
4.90295e-11
-2.98475e-10
9.58947e-11
-4.36045e-10
1.37572e-10
-6.27098e-10
1.91057e-10
-8.60642e-10
2.33546e-10
-9.69528e-10
1.08889e-10
-1.03974e-09
7.02171e-11
-1.12516e-09
8.54229e-11
-1.22324e-09
9.80815e-11
-1.32715e-09
1.03911e-10
-1.48243e-09
1.55279e-10
-1.66194e-09
1.79514e-10
-1.84261e-09
1.80666e-10
-1.99751e-09
1.54904e-10
-2.16491e-09
1.67398e-10
-2.27313e-09
1.08221e-10
-2.33776e-09
6.46274e-11
-2.36633e-09
2.85757e-11
-2.3103e-09
-5.60296e-11
-2.14162e-09
-1.68677e-10
-2.00369e-09
-1.37938e-10
-1.88163e-09
-1.22051e-10
-1.71983e-09
-1.61804e-10
-1.56625e-09
-1.53585e-10
-1.40371e-09
-1.62538e-10
-1.24418e-09
-1.59524e-10
-1.11804e-09
-1.26148e-10
-1.01553e-09
-1.02504e-10
-9.58719e-10
-5.68127e-11
-8.40973e-10
-1.17747e-10
-6.73156e-10
-1.67817e-10
-5.36276e-10
-1.36881e-10
-4.77737e-10
-5.85392e-11
-3.18494e-10
-1.59243e-10
-2.96118e-10
-2.23758e-11
-3.01491e-10
5.37391e-12
-1.54832e-10
-1.46659e-10
-1.06522e-10
-4.83088e-11
-4.671e-11
-5.98103e-11
6.25989e-11
-1.09307e-10
5.78073e-11
4.79371e-12
-1.42841e-11
7.20936e-11
-1.08641e-10
9.43594e-11
-2.34327e-10
1.25688e-10
-4.64988e-10
2.30663e-10
-6.98494e-10
2.33508e-10
-1.02334e-09
3.24847e-10
-1.57733e-09
5.53997e-10
-1.95967e-09
3.82343e-10
-2.13929e-09
1.79613e-10
-2.21663e-09
7.73503e-11
-2.23757e-09
2.09412e-11
-2.22619e-09
-1.13835e-11
-2.04394e-09
-1.82246e-10
-1.89059e-09
-1.53345e-10
-1.80795e-09
-8.26457e-11
-1.71522e-09
-9.27246e-11
-1.60181e-09
-1.13403e-10
-1.5302e-09
-7.16084e-11
-1.49205e-09
-3.81529e-11
-1.3454e-09
-1.46652e-10
-1.1899e-09
-1.55494e-10
-1.07538e-09
-1.14521e-10
-9.30856e-10
-1.44521e-10
-8.09663e-10
-1.21192e-10
-7.00993e-10
-1.08668e-10
-6.21143e-10
-7.98476e-11
-5.62965e-10
-5.81763e-11
-5.36664e-10
-2.62998e-11
-5.26047e-10
-1.06142e-11
-5.40639e-10
1.45932e-11
-5.71552e-10
3.09156e-11
-6.30153e-10
5.86018e-11
-6.99345e-10
6.91937e-11
-8.17302e-10
1.17958e-10
-1.00615e-09
1.88851e-10
-7.36637e-10
-2.69515e-10
-3.88157e-10
-3.4848e-10
4.73114e-16
-3.88158e-10
-6.13218e-18
-4.45088e-19
-5.95047e-18
-1.81714e-19
-5.76848e-18
-1.82878e-19
-5.54117e-18
-2.2836e-19
-5.25819e-18
-2.83934e-19
-4.92041e-18
-3.38539e-19
-4.5336e-18
-3.87355e-19
-4.10605e-18
-4.27934e-19
-3.64736e-18
-4.58991e-19
-3.16771e-18
-4.79961e-19
-2.67731e-18
-4.90792e-19
-2.18601e-18
-4.91834e-19
-1.70296e-18
-4.83752e-19
-1.23637e-18
-4.67456e-19
-7.93343e-19
-4.44027e-19
-3.79778e-19
-4.14651e-19
-3.30148e-22
-3.80558e-19
3.41572e-19
-3.42967e-19
6.43662e-19
-3.03038e-19
9.04739e-19
-2.61839e-19
1.12454e-18
-2.20314e-19
1.3036e-18
-1.79276e-19
1.44312e-18
-1.39397e-19
1.54482e-18
-1.01212e-19
1.61083e-18
-6.51268e-20
1.64355e-18
-3.14362e-20
1.64554e-18
-3.33251e-22
1.61945e-18
2.80734e-20
1.56791e-18
5.37475e-20
1.49353e-18
7.6712e-20
1.39882e-18
9.70354e-20
1.28621e-18
1.14819e-19
1.15802e-18
1.30186e-19
1.01648e-18
1.43266e-19
8.63725e-19
1.54191e-19
7.01781e-19
1.63084e-19
5.32604e-19
1.70054e-19
3.58066e-19
1.75198e-19
1.79965e-19
1.78603e-19
1.80374e-19
-5.35602e-11
2.07122e-10
-1.5534e-10
1.50815e-10
-3.9852e-10
3.3908e-10
-6.34905e-10
3.73962e-10
-7.65838e-10
3.21994e-10
-8.90938e-10
3.58651e-10
-9.95071e-10
2.13025e-10
-1.03565e-09
1.10798e-10
-1.15868e-09
2.08461e-10
-1.23169e-09
1.71088e-10
-1.29621e-09
1.68442e-10
-1.44027e-09
2.99338e-10
-1.57527e-09
3.14514e-10
-1.71788e-09
3.23277e-10
-1.88051e-09
3.1754e-10
-2.03606e-09
3.22945e-10
-2.15598e-09
2.2814e-10
-2.22025e-09
1.28898e-10
-2.23344e-09
4.17644e-11
-2.20062e-09
-8.88402e-11
-2.13792e-09
-2.31376e-10
-2.04818e-09
-2.27687e-10
-1.90282e-09
-2.67402e-10
-1.68625e-09
-3.78377e-10
-1.45093e-09
-3.88903e-10
-1.28793e-09
-3.25539e-10
-1.16649e-09
-2.80968e-10
-1.08166e-09
-2.10978e-10
-9.70686e-10
-2.13475e-10
-8.49394e-10
-1.78105e-10
-7.6885e-10
-1.98291e-10
-6.41313e-10
-2.95355e-10
-4.59019e-10
-3.19175e-10
-4.77183e-10
-4.03751e-11
-4.05557e-10
-2.30868e-10
-4.09946e-10
-1.7986e-11
-3.29767e-10
-7.48041e-11
-2.98832e-10
-1.77591e-10
-2.51779e-10
-9.53597e-11
-2.11393e-10
-1.00193e-10
-2.3355e-10
-8.71465e-11
-1.8053e-10
-4.82225e-11
-1.5058e-10
4.2148e-11
-2.01011e-10
1.44794e-10
-3.39638e-10
2.6432e-10
-5.94108e-10
4.85137e-10
-9.40768e-10
5.80172e-10
-1.35447e-09
7.38553e-10
-1.55996e-09
7.59494e-10
-1.74757e-09
5.69958e-10
-1.86206e-09
2.941e-10
-1.9243e-09
1.39593e-10
-1.94146e-09
3.81122e-11
-1.93184e-09
-2.10095e-11
-1.81053e-09
-3.03547e-10
-1.69239e-09
-2.71482e-10
-1.6108e-09
-1.6423e-10
-1.4651e-09
-2.38428e-10
-1.38266e-09
-1.95839e-10
-1.33188e-09
-1.22382e-10
-1.27047e-09
-9.95678e-11
-1.14477e-09
-2.72347e-10
-9.78575e-10
-3.21683e-10
-8.15807e-10
-2.77286e-10
-6.45553e-10
-3.14771e-10
-4.67461e-10
-2.99281e-10
-2.99752e-10
-2.76374e-10
-1.76482e-10
-2.03114e-10
-7.23082e-11
-1.62347e-10
-2.22528e-11
-7.63519e-11
3.36029e-11
-6.64667e-11
1.3731e-11
3.44682e-11
-3.30127e-11
7.76621e-11
-1.23341e-10
1.48933e-10
-2.43541e-10
1.89395e-10
-3.06912e-10
1.8133e-10
-1.95174e-10
7.71123e-11
-2.20121e-10
-2.44569e-10
-3.05877e-10
-2.62726e-10
4.04314e-16
-6.94037e-10
-5.95945e-18
-1.14887e-19
-5.95193e-18
-1.90335e-19
-5.81384e-18
-3.22576e-19
-5.59675e-18
-4.46966e-19
-5.3128e-18
-5.69177e-19
-4.96922e-18
-6.83154e-19
-4.57418e-18
-7.83236e-19
-4.1371e-18
-8.6572e-19
-3.66833e-18
-9.28478e-19
-3.17854e-18
-9.70567e-19
-2.67835e-18
-9.91984e-19
-2.17793e-18
-9.93492e-19
-1.68667e-18
-9.76483e-19
-1.21294e-18
-9.4283e-19
-7.63967e-19
-8.94757e-19
-3.45685e-19
-8.34697e-19
3.72607e-20
-7.65165e-19
3.815e-19
-6.88648e-19
6.84862e-19
-6.07509e-19
9.46264e-19
-5.23912e-19
1.16558e-18
-4.39774e-19
1.34348e-18
-3.56733e-19
1.4813e-18
-2.76143e-19
1.58091e-18
-1.99083e-19
1.64452e-18
-1.26379e-19
1.67465e-18
-5.8624e-20
1.67395e-18
3.78988e-21
1.64512e-18
6.06521e-20
1.59087e-18
1.11908e-19
1.51385e-18
1.57628e-19
1.4166e-18
1.97986e-19
1.30157e-18
2.33218e-19
1.1711e-18
2.63603e-19
1.02741e-18
2.8943e-19
8.72618e-19
3.10984e-19
7.08751e-19
3.28525e-19
5.37748e-19
3.42279e-19
3.61471e-19
3.52434e-19
1.81736e-19
3.59135e-19
3.62476e-19
-9.26381e-11
2.99763e-10
-2.48605e-10
3.06787e-10
-4.45622e-10
5.36101e-10
-5.87215e-10
5.15559e-10
-7.34133e-10
4.68916e-10
-8.17889e-10
4.42411e-10
-9.16098e-10
3.11238e-10
-1.03299e-09
2.27698e-10
-1.11659e-09
2.92062e-10
-1.18488e-09
2.39375e-10
-1.21471e-09
1.98277e-10
-1.272e-09
3.56629e-10
-1.38239e-09
4.24908e-10
-1.55015e-09
4.91041e-10
-1.70496e-09
4.72346e-10
-1.80136e-09
4.19349e-10
-1.86275e-09
2.89523e-10
-1.87456e-09
1.40717e-10
-1.85933e-09
2.65337e-11
-1.88636e-09
-6.18165e-11
-1.91016e-09
-2.07573e-10
-1.88083e-09
-2.57022e-10
-1.79003e-09
-3.58202e-10
-1.59871e-09
-5.69696e-10
-1.41202e-09
-5.75585e-10
-1.28471e-09
-4.52853e-10
-1.13316e-09
-4.32518e-10
-1.03685e-09
-3.07282e-10
-8.9368e-10
-3.5665e-10
-7.66292e-10
-3.05494e-10
-6.40779e-10
-3.23803e-10
-4.68952e-10
-4.67182e-10
-4.24626e-10
-3.63501e-10
-4.64281e-10
-7.1957e-13
-4.82796e-10
-2.12353e-10
-4.46426e-10
-5.43559e-11
-3.95121e-10
-1.26108e-10
-4.16322e-10
-1.56389e-10
-3.832e-10
-1.2848e-10
-3.71624e-10
-1.11767e-10
-3.71519e-10
-8.7249e-11
-3.67463e-10
-5.22752e-11
-3.68376e-10
4.3063e-11
-3.29464e-10
1.05885e-10
-3.8151e-10
3.16369e-10
-5.89663e-10
6.93293e-10
-8.31899e-10
8.22411e-10
-1.09617e-09
1.00283e-09
-1.3415e-09
1.00483e-09
-1.52012e-09
7.48581e-10
-1.67699e-09
4.50971e-10
-1.7169e-09
1.79507e-10
-1.74018e-09
6.13949e-11
-1.74745e-09
-1.3744e-11
-1.65325e-09
-3.97741e-10
-1.5426e-09
-3.82131e-10
-1.4692e-09
-2.37621e-10
-1.43203e-09
-2.75594e-10
-1.39357e-09
-2.343e-10
-1.36499e-09
-1.50964e-10
-1.24515e-09
-2.19401e-10
-1.12187e-09
-3.95626e-10
-9.80762e-10
-4.62788e-10
-7.92403e-10
-4.65643e-10
-6.55912e-10
-4.5126e-10
-4.53196e-10
-5.01995e-10
-2.50095e-10
-4.79473e-10
-7.25577e-11
-3.80649e-10
1.00589e-10
-3.35492e-10
2.52456e-10
-2.28216e-10
3.98976e-10
-2.12984e-10
4.6705e-10
-3.36037e-11
5.20641e-10
2.40738e-11
4.66502e-10
2.03074e-10
4.50855e-10
2.05043e-10
4.68234e-10
1.63953e-10
4.49054e-10
9.62924e-11
1.5832e-10
4.61654e-11
-1.15947e-10
1.15409e-11
1.43974e-16
-8.09986e-10
-6.19675e-18
-4.85455e-19
-6.08352e-18
-3.04329e-19
-5.93785e-18
-4.69447e-19
-5.71896e-18
-6.67168e-19
-5.42678e-18
-8.6262e-19
-5.06931e-18
-1.04175e-18
-4.65666e-18
-1.19684e-18
-4.19986e-18
-1.32333e-18
-3.71042e-18
-1.41863e-18
-3.19995e-18
-1.48171e-18
-2.67986e-18
-1.5128e-18
-2.16092e-18
-1.51324e-18
-1.65301e-18
-1.48531e-18
-1.16487e-18
-1.43199e-18
-7.03906e-19
-1.35679e-18
-2.76153e-19
-1.26351e-18
1.13777e-19
-1.15608e-18
4.62639e-19
-1.03832e-18
7.68459e-19
-9.13889e-19
1.0304e-18
-7.86082e-19
1.24862e-18
-6.57819e-19
1.42407e-18
-5.31578e-19
1.55836e-18
-4.09386e-19
1.65361e-18
-2.92843e-19
1.71228e-18
-1.83148e-19
1.73707e-18
-8.11466e-20
1.73081e-18
1.26265e-20
1.69638e-18
9.7906e-20
1.63659e-18
1.74653e-19
1.55421e-18
2.43014e-19
1.45183e-18
3.03274e-19
1.33196e-18
3.55817e-19
1.19693e-18
4.01078e-19
1.04896e-18
4.3951e-19
8.90158e-19
4.71551e-19
7.22506e-19
4.97604e-19
5.47903e-19
5.1802e-19
3.68172e-19
5.33086e-19
1.85077e-19
5.43021e-19
5.47971e-19
-2.05611e-10
5.05377e-10
-3.78693e-10
4.79875e-10
-4.37947e-10
5.9536e-10
-5.28877e-10
6.06494e-10
-6.41345e-10
5.81388e-10
-7.31748e-10
5.32818e-10
-8.09764e-10
3.89257e-10
-9.47495e-10
3.65432e-10
-1.00554e-09
3.50113e-10
-1.06489e-09
2.98722e-10
-1.12374e-09
2.5713e-10
-1.16543e-09
3.98322e-10
-1.21876e-09
4.78239e-10
-1.29412e-09
5.66402e-10
-1.42179e-09
6.00021e-10
-1.49124e-09
4.88789e-10
-1.58147e-09
3.79761e-10
-1.66405e-09
2.23295e-10
-1.70475e-09
6.72322e-11
-1.70351e-09
-6.30556e-11
-1.68819e-09
-2.22892e-10
-1.61993e-09
-3.25286e-10
-1.4965e-09
-4.81633e-10
-1.39261e-09
-6.73581e-10
-1.28197e-09
-6.86226e-10
-1.159e-09
-5.75826e-10
-1.06247e-09
-5.29045e-10
-9.60386e-10
-4.09363e-10
-8.49614e-10
-4.67422e-10
-7.55886e-10
-3.99221e-10
-6.65269e-10
-4.1442e-10
-6.12063e-10
-5.20387e-10
-6.43458e-10
-3.32107e-10
-4.63029e-10
-1.81148e-10
-5.15645e-10
-1.59738e-10
-4.59279e-10
-1.10722e-10
-4.63713e-10
-1.21673e-10
-4.56618e-10
-1.63484e-10
-3.96264e-10
-1.88833e-10
-3.48425e-10
-1.59605e-10
-3.35412e-10
-1.0026e-10
-3.41995e-10
-4.56909e-11
-3.56192e-10
5.72629e-11
-3.75744e-10
1.25439e-10
-4.60493e-10
4.01121e-10
-5.70227e-10
8.0303e-10
-8.35212e-10
1.0874e-09
-1.03368e-09
1.2013e-09
-1.16341e-09
1.13456e-09
-1.31673e-09
9.01908e-10
-1.38022e-09
5.14466e-10
-1.52429e-09
3.23581e-10
-1.56434e-09
1.01448e-10
-1.53155e-09
-4.65315e-11
-1.49557e-09
-4.33716e-10
-1.48305e-09
-3.94655e-10
-1.44697e-09
-2.73696e-10
-1.43218e-09
-2.90376e-10
-1.46805e-09
-1.98426e-10
-1.46129e-09
-1.5772e-10
-1.36775e-09
-3.1294e-10
-1.24964e-09
-5.13734e-10
-1.11248e-09
-5.99952e-10
-9.74468e-10
-6.03649e-10
-7.9811e-10
-6.27616e-10
-5.78275e-10
-7.21829e-10
-3.91095e-10
-6.6665e-10
-1.82168e-10
-5.89575e-10
4.99068e-11
-5.67565e-10
2.84689e-10
-4.62997e-10
4.41795e-10
-3.70089e-10
5.49134e-10
-1.40941e-10
6.56476e-10
-8.32667e-11
6.81207e-10
1.78345e-10
7.54155e-10
1.32096e-10
7.40616e-10
1.77493e-10
6.58485e-10
1.78424e-10
6.2364e-10
8.1011e-11
4.78941e-10
1.5624e-10
-1.79616e-16
-3.31045e-10
-6.21189e-18
-1.91811e-19
-6.248e-18
-2.68928e-19
-6.13521e-18
-5.83212e-19
-5.91441e-18
-8.89224e-19
-5.6059e-18
-1.1725e-18
-5.2244e-18
-1.42459e-18
-4.78315e-18
-1.63928e-18
-4.29517e-18
-1.8123e-18
-3.77349e-18
-1.94109e-18
-3.23104e-18
-2.02478e-18
-2.68031e-18
-2.06406e-18
-2.13299e-18
-2.06104e-18
-1.59969e-18
-2.01909e-18
-1.08967e-18
-1.94251e-18
-6.1063e-19
-1.83633e-18
-1.68717e-19
-1.7059e-18
2.3153e-19
-1.55673e-18
5.87074e-19
-1.39415e-18
8.96265e-19
-1.22318e-18
1.15867e-18
-1.04833e-18
1.37486e-18
-8.73572e-19
1.54626e-18
-7.02223e-19
1.67491e-18
-5.36972e-19
1.76331e-18
-3.79897e-19
1.81428e-18
-2.32521e-19
1.83084e-18
-9.58768e-20
1.81609e-18
2.94193e-20
1.77312e-18
1.43104e-19
1.70496e-18
2.45202e-19
1.61447e-18
3.35974e-19
1.50438e-18
4.15849e-19
1.37722e-18
4.85378e-19
1.23536e-18
5.45176e-19
1.081e-18
5.95873e-19
9.16211e-19
6.3808e-19
7.42921e-19
6.72355e-19
5.62969e-19
6.99182e-19
3.78107e-19
7.18962e-19
1.90028e-19
7.31996e-19
7.38492e-19
6.54522e-11
4.39928e-10
-8.20656e-11
6.27398e-10
-3.1064e-10
8.2394e-10
-4.79962e-10
7.7582e-10
-5.87994e-10
6.89425e-10
-6.57628e-10
6.02455e-10
-7.40305e-10
4.71938e-10
-8.01703e-10
4.26833e-10
-8.5171e-10
4.00123e-10
-9.20574e-10
3.67588e-10
-1.00171e-09
3.38273e-10
-1.02334e-09
4.19948e-10
-1.04349e-09
4.98387e-10
-1.06072e-09
5.83633e-10
-1.11561e-09
6.5491e-10
-1.25984e-09
6.3302e-10
-1.39735e-09
5.17275e-10
-1.48779e-09
3.13736e-10
-1.51522e-09
9.4663e-11
-1.49991e-09
-7.83667e-11
-1.48549e-09
-2.37318e-10
-1.42552e-09
-3.85253e-10
-1.32294e-09
-5.84208e-10
-1.27971e-09
-7.16812e-10
-1.19984e-09
-7.66099e-10
-1.09434e-09
-6.81328e-10
-1.00869e-09
-6.14693e-10
-8.52332e-10
-5.65717e-10
-8.04734e-10
-5.15018e-10
-7.45896e-10
-4.58059e-10
-6.90255e-10
-4.7006e-10
-7.55187e-10
-4.55455e-10
-7.33913e-10
-3.5338e-10
-5.74923e-10
-3.40138e-10
-5.88172e-10
-1.46489e-10
-5.47091e-10
-1.51803e-10
-5.14838e-10
-1.53926e-10
-4.65285e-10
-2.13037e-10
-4.14369e-10
-2.3975e-10
-3.76281e-10
-1.97692e-10
-3.75932e-10
-1.00608e-10
-3.79312e-10
-4.23096e-11
-3.99068e-10
7.70201e-11
-3.94443e-10
1.20816e-10
-4.29632e-10
4.36312e-10
-4.58084e-10
8.31485e-10
-5.20198e-10
1.14952e-09
-6.54315e-10
1.33542e-09
-8.29942e-10
1.31019e-09
-1.10969e-09
1.18166e-09
-1.23135e-09
6.36132e-10
-1.33527e-09
4.27504e-10
-1.38549e-09
1.51664e-10
-1.32492e-09
-1.07099e-10
-1.39912e-09
-3.59505e-10
-1.46437e-09
-3.29404e-10
-1.47871e-09
-2.59358e-10
-1.55067e-09
-2.1841e-10
-1.6126e-09
-1.36487e-10
-1.6079e-09
-1.62417e-10
-1.50474e-09
-4.16107e-10
-1.37953e-09
-6.38935e-10
-1.25553e-09
-7.23955e-10
-1.10253e-09
-7.56641e-10
-8.74447e-10
-8.557e-10
-6.06976e-10
-9.89298e-10
-4.6188e-10
-8.11746e-10
-2.09681e-10
-8.41772e-10
1.07977e-11
-7.88042e-10
2.06607e-10
-6.58805e-10
3.4778e-10
-5.11261e-10
4.56384e-10
-2.49544e-10
5.77043e-10
-2.03924e-10
6.3276e-10
1.22629e-10
7.25767e-10
3.90896e-11
6.8422e-10
2.19041e-10
5.60333e-10
3.02313e-10
4.22214e-10
2.1913e-10
3.27217e-10
2.51238e-10
-5.27957e-16
-3.82693e-12
-6.50227e-18
2.44534e-19
-6.56165e-18
-2.10206e-19
-6.44085e-18
-7.04686e-19
-6.19769e-18
-1.13353e-18
-5.85799e-18
-1.51364e-18
-5.43909e-18
-1.845e-18
-4.95617e-18
-2.12362e-18
-4.42396e-18
-2.3457e-18
-3.85718e-18
-2.50879e-18
-3.27032e-18
-2.61228e-18
-2.67729e-18
-2.65748e-18
-2.09103e-18
-2.64752e-18
-1.52312e-18
-2.58711e-18
-9.83479e-19
-2.48221e-18
-4.80208e-19
-2.33961e-18
-1.95438e-20
-2.16655e-18
3.94109e-19
-1.97032e-18
7.58051e-19
-1.75797e-18
1.07111e-18
-1.53601e-18
1.33342e-18
-1.31027e-18
1.54621e-18
-1.0858e-18
1.71151e-18
-8.66771e-19
1.83198e-18
-6.56494e-19
1.91068e-18
-4.57479e-19
1.95092e-18
-2.71502e-19
1.95614e-18
-9.97056e-20
1.92977e-18
5.72938e-20
1.87522e-18
1.99312e-19
1.79573e-18
3.26507e-19
1.69434e-18
4.39308e-19
1.57391e-18
5.38338e-19
1.43702e-18
6.24351e-19
1.28606e-18
6.98169e-19
1.12321e-18
7.60628e-19
9.50486e-19
8.1253e-19
7.69749e-19
8.54606e-19
5.82748e-19
8.8749e-19
3.91142e-19
9.11706e-19
1.96523e-19
9.27651e-19
9.35592e-19
-4.03572e-10
8.43502e-10
-5.3439e-10
7.58221e-10
-4.4398e-10
7.33534e-10
-4.30866e-10
7.62711e-10
-4.96609e-10
7.55172e-10
-5.96092e-10
7.01941e-10
-6.67369e-10
5.43219e-10
-7.02363e-10
4.6183e-10
-7.24003e-10
4.21765e-10
-7.49824e-10
3.93412e-10
-8.44462e-10
4.32912e-10
-8.84558e-10
4.60045e-10
-8.68909e-10
4.82738e-10
-8.27159e-10
5.41884e-10
-7.62333e-10
5.90084e-10
-7.73865e-10
6.44551e-10
-8.80451e-10
6.2386e-10
-1.08093e-09
5.14213e-10
-1.26001e-09
2.73748e-10
-1.33187e-09
-6.50648e-12
-1.34614e-09
-2.23049e-10
-1.2987e-09
-4.32699e-10
-1.22096e-09
-6.6194e-10
-1.16817e-09
-7.69601e-10
-1.12921e-09
-8.05066e-10
-1.06703e-09
-7.43499e-10
-1.05589e-09
-6.25834e-10
-1.06396e-09
-5.57647e-10
-1.05581e-09
-5.23168e-10
-9.82247e-10
-5.3162e-10
-9.67846e-10
-4.8446e-10
-9.8779e-10
-4.3551e-10
-9.89941e-10
-3.51229e-10
-8.37063e-10
-4.93016e-10
-8.70862e-10
-1.1269e-10
-7.23762e-10
-2.98904e-10
-6.21842e-10
-2.55847e-10
-4.56373e-10
-3.78507e-10
-3.79427e-10
-3.16697e-10
-3.61512e-10
-2.15607e-10
-3.24969e-10
-1.37151e-10
-3.43262e-10
-2.40163e-11
-3.55578e-10
8.93375e-11
-3.98799e-10
1.64038e-10
-4.29948e-10
4.67463e-10
-4.37451e-10
8.3899e-10
-5.09684e-10
1.22175e-09
-5.80622e-10
1.40636e-09
-6.53062e-10
1.38263e-09
-7.68729e-10
1.29733e-09
-9.44155e-10
8.11561e-10
-1.0196e-09
5.02952e-10
-1.14935e-09
2.81421e-10
-1.23537e-09
-2.10793e-11
-1.34593e-09
-2.48947e-10
-1.42817e-09
-2.4716e-10
-1.49857e-09
-1.88948e-10
-1.62562e-09
-9.13603e-11
-1.6806e-09
-8.1509e-11
-1.65845e-09
-1.84564e-10
-1.46518e-09
-6.09369e-10
-1.35121e-09
-7.52904e-10
-1.18399e-09
-8.91173e-10
-9.03327e-10
-1.0373e-09
-6.8908e-10
-1.06995e-09
-4.6253e-10
-1.21585e-09
-2.41087e-10
-1.03319e-09
6.52114e-11
-1.14807e-09
2.52274e-10
-9.75104e-10
3.88299e-10
-7.9483e-10
4.5367e-10
-5.76631e-10
4.32564e-10
-2.28438e-10
5.54521e-10
-3.2588e-10
6.39226e-10
3.79247e-11
6.76235e-10
2.08156e-12
6.33857e-10
2.61419e-10
5.30634e-10
4.05536e-10
3.56323e-10
3.93443e-10
2.35142e-10
3.72419e-10
-8.53229e-16
2.31318e-10
-7.15202e-18
1.21256e-19
-7.05549e-18
-3.0727e-19
-6.86933e-18
-8.91121e-19
-6.5778e-18
-1.42595e-18
-6.18935e-18
-1.90344e-18
-5.71772e-18
-2.3182e-18
-5.17824e-18
-2.66467e-18
-4.58705e-18
-2.93827e-18
-3.96068e-18
-3.13623e-18
-3.31552e-18
-3.25814e-18
-2.66733e-18
-3.30603e-18
-2.03062e-18
-3.2843e-18
-1.41822e-18
-3.19939e-18
-8.40879e-19
-3.05929e-18
-3.07147e-19
-2.87301e-18
1.76683e-19
-2.65001e-18
6.06464e-19
-2.39973e-18
9.80011e-19
-2.13114e-18
1.29684e-18
-1.85247e-18
1.55789e-18
-1.57093e-18
1.76524e-18
-1.29268e-18
1.92179e-18
-1.02274e-18
2.031e-18
-7.65006e-19
2.09666e-18
-5.22339e-19
2.12272e-18
-2.9668e-19
2.11314e-18
-8.91798e-20
2.07179e-18
9.96493e-20
2.00242e-18
2.69802e-19
1.90853e-18
4.21661e-19
1.79337e-18
5.55902e-19
1.65992e-18
6.73403e-19
1.51084e-18
7.75176e-19
1.34852e-18
8.62291e-19
1.17511e-18
9.35819e-19
9.92562e-19
9.96778e-19
8.02633e-19
1.04609e-18
6.06964e-19
1.08457e-18
4.07087e-19
1.11286e-18
2.04464e-19
1.13146e-18
1.14072e-18
1.14553e-11
8.3205e-10
-1.54598e-10
9.24279e-10
-3.14467e-10
8.93407e-10
-4.65711e-10
9.13958e-10
-5.06361e-10
7.95826e-10
-4.69912e-10
6.65496e-10
-4.86795e-10
5.60105e-10
-5.24105e-10
4.99144e-10
-5.74905e-10
4.72568e-10
-6.47509e-10
4.66017e-10
-7.18809e-10
5.04214e-10
-7.77252e-10
5.18489e-10
-8.05199e-10
5.10686e-10
-7.83737e-10
5.20422e-10
-7.47667e-10
5.54014e-10
-6.94288e-10
5.91172e-10
-6.76677e-10
6.06249e-10
-7.48976e-10
5.86512e-10
-9.23752e-10
4.48524e-10
-1.12773e-09
1.97471e-10
-1.21565e-09
-1.35125e-10
-1.20621e-09
-4.42142e-10
-1.16676e-09
-7.01389e-10
-1.13795e-09
-7.98413e-10
-1.15331e-09
-7.89703e-10
-1.19368e-09
-7.03132e-10
-1.18693e-09
-6.32579e-10
-1.1548e-09
-5.8978e-10
-1.12757e-09
-5.50392e-10
-1.17251e-09
-4.86684e-10
-1.23112e-09
-4.25841e-10
-1.20472e-09
-4.61909e-10
-1.06976e-09
-4.86196e-10
-1.14503e-09
-4.1774e-10
-1.07517e-09
-1.8255e-10
-9.55682e-10
-4.18395e-10
-7.62172e-10
-4.49358e-10
-6.05575e-10
-5.35105e-10
-5.05617e-10
-4.16656e-10
-4.88741e-10
-2.32483e-10
-4.37291e-10
-1.88602e-10
-4.02556e-10
-5.87512e-11
-4.12247e-10
9.90286e-11
-4.56123e-10
2.07916e-10
-4.02383e-10
4.13724e-10
-4.078e-10
8.44409e-10
-3.73585e-10
1.18754e-09
-3.81898e-10
1.41468e-09
-4.23486e-10
1.42422e-09
-4.36433e-10
1.31028e-09
-6.26974e-10
1.0021e-09
-7.49745e-10
6.25726e-10
-8.57216e-10
3.88895e-10
-1.05721e-09
1.78916e-10
-1.22812e-09
-7.80365e-11
-1.34827e-09
-1.27006e-10
-1.46998e-09
-6.72328e-11
-1.55479e-09
-6.54439e-12
-1.57997e-09
-5.63308e-11
-1.5303e-09
-2.34223e-10
-1.39878e-09
-7.40892e-10
-1.33878e-09
-8.12901e-10
-1.22429e-09
-1.00566e-09
-1.05781e-09
-1.20378e-09
-8.42508e-10
-1.28525e-09
-5.97668e-10
-1.46069e-09
-2.56825e-10
-1.37403e-09
-4.27893e-11
-1.3621e-09
1.41469e-10
-1.15936e-09
3.54154e-10
-1.00751e-09
5.96237e-10
-8.18714e-10
6.73387e-10
-3.05586e-10
7.46216e-10
-3.98709e-10
7.12079e-10
7.20622e-11
6.44199e-10
6.99614e-11
5.77149e-10
3.2847e-10
4.87412e-10
4.95275e-10
4.11958e-10
4.68898e-10
2.10841e-10
5.73538e-10
-1.10585e-15
4.42161e-10
-7.7472e-18
2.17606e-19
-7.63871e-18
-4.16061e-19
-7.4038e-18
-1.1258e-18
-7.05529e-18
-1.7749e-18
-6.60411e-18
-2.35565e-18
-6.06419e-18
-2.85956e-18
-5.45183e-18
-3.27859e-18
-4.78502e-18
-3.60653e-18
-4.08258e-18
-3.83983e-18
-3.36341e-18
-3.97808e-18
-2.6456e-18
-4.0242e-18
-1.94571e-18
-3.98421e-18
-1.27812e-18
-3.86674e-18
-6.54595e-19
-3.68239e-18
-8.4149e-20
-3.44293e-18
4.26963e-19
-3.16056e-18
8.7505e-19
-2.84728e-18
1.25869e-18
-2.51432e-18
1.57838e-18
-2.17178e-18
1.83614e-18
-1.82841e-18
2.03519e-18
-1.49149e-18
2.17952e-18
-1.16682e-18
2.27366e-18
-8.58818e-19
2.32232e-18
-5.70587e-19
2.33022e-18
-3.04107e-19
2.30197e-18
-6.04086e-20
2.24195e-18
1.60229e-19
2.15428e-18
3.58106e-19
2.04277e-18
5.33942e-19
1.91088e-18
6.88758e-19
1.76169e-18
8.23772e-19
1.59795e-18
9.40313e-19
1.42205e-18
1.03975e-18
1.23607e-18
1.12343e-18
1.04188e-18
1.19262e-18
8.41107e-19
1.24845e-18
6.35253e-19
1.29192e-18
4.25693e-19
1.32382e-18
2.13724e-19
1.34478e-18
1.3552e-18
-1.48246e-11
8.46878e-10
-6.61782e-11
9.75638e-10
-1.59426e-10
9.86659e-10
-2.30349e-10
9.84885e-10
-3.40789e-10
9.06269e-10
-4.05222e-10
7.29933e-10
-4.44968e-10
5.99853e-10
-4.54988e-10
5.09166e-10
-4.75701e-10
4.93283e-10
-5.06972e-10
4.9729e-10
-5.25508e-10
5.22752e-10
-5.42114e-10
5.35097e-10
-5.46373e-10
5.14945e-10
-5.4165e-10
5.157e-10
-5.57655e-10
5.70019e-10
-5.78245e-10
6.11761e-10
-6.05895e-10
6.33899e-10
-6.30978e-10
6.11594e-10
-6.61888e-10
4.79434e-10
-7.96812e-10
3.32395e-10
-9.88777e-10
5.68398e-11
-1.1053e-09
-3.25617e-10
-1.17797e-09
-6.2872e-10
-1.25251e-09
-7.23868e-10
-1.37555e-09
-6.66666e-10
-1.49693e-09
-5.8175e-10
-1.55183e-09
-5.77674e-10
-1.58184e-09
-5.59769e-10
-1.56418e-09
-5.68054e-10
-1.51236e-09
-5.38505e-10
-1.46012e-09
-4.78074e-10
-1.43301e-09
-4.89023e-10
-1.41155e-09
-5.07657e-10
-1.41568e-09
-4.13612e-10
-1.16061e-09
-4.37621e-10
-1.06207e-09
-5.16936e-10
-8.8535e-10
-6.26075e-10
-8.23243e-10
-5.97213e-10
-7.22267e-10
-5.17634e-10
-6.82135e-10
-2.72616e-10
-6.10761e-10
-2.59976e-10
-5.86963e-10
-8.25498e-11
-5.71135e-10
8.32009e-11
-5.38551e-10
1.75334e-10
-4.42937e-10
3.1811e-10
-4.61405e-10
8.62878e-10
-4.48799e-10
1.17493e-09
-4.00575e-10
1.36645e-09
-3.6967e-10
1.39332e-09
-3.76072e-10
1.31668e-09
-4.30673e-10
1.05671e-09
-5.138e-10
7.08856e-10
-6.14215e-10
4.89312e-10
-8.0019e-10
3.64894e-10
-1.0365e-09
1.58278e-10
-1.20766e-09
4.41542e-11
-1.33081e-09
5.59185e-11
-1.42693e-09
8.95866e-11
-1.5417e-09
5.84421e-11
-1.4616e-09
-3.14327e-10
-1.38941e-09
-8.13077e-10
-1.39673e-09
-8.05583e-10
-1.32073e-09
-1.08166e-09
-1.21418e-09
-1.31033e-09
-9.73399e-10
-1.52603e-09
-7.83614e-10
-1.65047e-09
-4.85975e-10
-1.67167e-09
-2.94315e-10
-1.55376e-09
-1.06321e-10
-1.34736e-09
1.62281e-10
-1.27611e-09
4.34967e-10
-1.0914e-09
6.03283e-10
-4.73903e-10
8.1279e-10
-6.08216e-10
6.83192e-10
2.0166e-10
6.54477e-10
9.86765e-11
5.32504e-10
4.50442e-10
4.6271e-10
5.65069e-10
3.15116e-10
6.16493e-10
1.35318e-10
7.53339e-10
-1.24766e-15
5.77483e-10
-8.51808e-18
2.06909e-19
-8.34783e-18
-5.86266e-19
-8.05256e-18
-1.42027e-18
-7.63603e-18
-2.19127e-18
-7.10802e-18
-2.88418e-18
-6.48322e-18
-3.48539e-18
-5.77978e-18
-3.98333e-18
-5.01832e-18
-4.36932e-18
-4.22084e-18
-4.63843e-18
-3.40953e-18
-4.79016e-18
-2.60561e-18
-4.82849e-18
-1.82825e-18
-4.76156e-18
-1.09377e-18
-4.60093e-18
-4.15132e-19
-4.36053e-18
1.98216e-19
-4.05566e-18
7.40244e-19
-3.70194e-18
1.20801e-18
-3.31444e-18
1.60123e-18
-2.90705e-18
1.92175e-18
-2.49198e-18
2.17306e-18
-2.0796e-18
2.35985e-18
-1.67831e-18
2.48753e-18
-1.29461e-18
2.56189e-18
-9.33288e-19
2.5888e-18
-5.97527e-19
2.57392e-18
-2.8918e-19
2.5226e-18
-8.98764e-21
2.43982e-18
2.43167e-19
2.33011e-18
4.68038e-19
2.19758e-18
6.66819e-19
2.04589e-18
8.40995e-19
1.87823e-18
9.92216e-19
1.69739e-18
1.12221e-18
1.50573e-18
1.23271e-18
1.30526e-18
1.32537e-18
1.09771e-18
1.40174e-18
8.84574e-19
1.46319e-18
6.67158e-19
1.51091e-18
4.46648e-19
1.54586e-18
2.24141e-19
1.56878e-18
1.58016e-18
-3.17771e-11
8.78657e-10
-7.26171e-11
1.01648e-09
-1.24427e-10
1.03847e-09
-1.82269e-10
1.04273e-09
-2.26628e-10
9.50631e-10
-2.31599e-10
7.34907e-10
-2.39385e-10
6.07641e-10
-2.57126e-10
5.2691e-10
-2.49721e-10
4.8588e-10
-2.40631e-10
4.88202e-10
-2.20393e-10
5.02515e-10
-1.72266e-10
4.86972e-10
-9.21433e-11
4.34824e-10
-4.95672e-11
4.73124e-10
-7.89606e-11
5.99413e-10
-1.31087e-10
6.63887e-10
-1.86048e-10
6.8886e-10
-2.49517e-10
6.75063e-10
-3.62779e-10
5.92696e-10
-4.78818e-10
4.48435e-10
-7.1176e-10
2.89782e-10
-1.01972e-09
-1.76559e-11
-1.24276e-09
-4.05677e-10
-1.41665e-09
-5.49983e-10
-1.6024e-09
-4.8091e-10
-1.71582e-09
-4.68331e-10
-1.76903e-09
-5.24466e-10
-1.79508e-09
-5.33712e-10
-1.74222e-09
-6.20915e-10
-1.66382e-09
-6.169e-10
-1.59385e-09
-5.4805e-10
-1.5017e-09
-5.81167e-10
-1.47839e-09
-5.30969e-10
-1.41103e-09
-4.80976e-10
-1.30733e-09
-5.41322e-10
-1.1729e-09
-6.51365e-10
-1.07662e-09
-7.22357e-10
-9.49067e-10
-7.24766e-10
-9.04545e-10
-5.62157e-10
-8.3652e-10
-3.40642e-10
-7.97264e-10
-2.99233e-10
-7.86142e-10
-9.36718e-11
-7.26711e-10
2.37702e-11
-6.72303e-10
1.20926e-10
-6.20251e-10
2.6606e-10
-5.74853e-10
8.17481e-10
-5.19849e-10
1.11993e-09
-4.4908e-10
1.29569e-09
-3.89094e-10
1.33333e-09
-3.63657e-10
1.29125e-09
-3.98504e-10
1.09156e-09
-4.65149e-10
7.75504e-10
-5.41323e-10
5.65489e-10
-6.54318e-10
4.77892e-10
-8.68136e-10
3.72098e-10
-1.05879e-09
2.34815e-10
-1.19881e-09
1.95941e-10
-1.32047e-09
2.11248e-10
-1.42686e-09
1.64835e-10
-1.33469e-09
-4.06497e-10
-1.41075e-09
-7.37015e-10
-1.37262e-09
-8.43711e-10
-1.23481e-09
-1.21946e-09
-1.11795e-09
-1.4272e-09
-9.33903e-10
-1.71007e-09
-7.73784e-10
-1.81059e-09
-5.15615e-10
-1.92984e-09
-2.41737e-10
-1.82764e-09
1.55228e-11
-1.60462e-09
2.55508e-10
-1.5161e-09
4.28587e-10
-1.26448e-09
5.69655e-10
-6.14972e-10
6.02409e-10
-6.4097e-10
5.67489e-10
2.36578e-10
5.1195e-10
1.54216e-10
4.61378e-10
5.01013e-10
3.47151e-10
6.79296e-10
2.13761e-10
7.49885e-10
1.29835e-10
8.37267e-10
-1.22427e-15
7.07322e-10
-9.4161e-18
-3.58896e-20
-9.18124e-18
-8.20655e-19
-8.82324e-18
-1.77688e-18
-8.32894e-18
-2.68474e-18
-7.70924e-18
-3.50373e-18
-6.98116e-18
-4.21392e-18
-6.16576e-18
-4.79958e-18
-5.28743e-18
-5.24867e-18
-4.37256e-18
-5.55425e-18
-3.44786e-18
-5.71554e-18
-2.53869e-18
-5.73798e-18
-1.66761e-18
-5.6326e-18
-8.53368e-19
-5.41485e-18
-1.10264e-19
-5.10312e-18
5.51937e-19
-4.71723e-18
1.12774e-18
-4.27707e-18
1.61541e-18
-3.80148e-18
2.01629e-18
-3.30742e-18
2.33413e-18
-2.80952e-18
2.57436e-18
-2.31981e-18
2.74354e-18
-1.84773e-18
2.84885e-18
-1.40036e-18
2.89766e-18
-9.82595e-19
2.89715e-18
-5.97489e-19
2.85411e-18
-2.46521e-19
2.77476e-18
7.00789e-20
2.66469e-18
3.53025e-19
2.5289e-18
6.03705e-19
2.37176e-18
8.23944e-19
2.19711e-18
1.01582e-18
2.00823e-18
1.18153e-18
1.80789e-18
1.32329e-18
1.59839e-18
1.44324e-18
1.38162e-18
1.54342e-18
1.15916e-18
1.62567e-18
9.32294e-19
1.69163e-18
7.02113e-19
1.74271e-18
4.69571e-19
1.78003e-18
2.35521e-19
1.80447e-18
1.81658e-18
-1.46447e-11
8.93304e-10
-1.1031e-11
1.01287e-09
-6.11725e-11
1.08862e-09
-1.24571e-10
1.10613e-09
-1.69239e-10
9.95301e-10
-2.287e-10
7.9437e-10
-2.37105e-10
6.16049e-10
-2.08861e-10
4.98668e-10
-1.43534e-10
4.20555e-10
-5.96415e-11
4.04311e-10
-6.96386e-12
4.49839e-10
6.0031e-11
4.19978e-10
7.85924e-11
4.16264e-10
4.43683e-11
5.0735e-10
1.55036e-12
6.42232e-10
-4.61969e-11
7.11635e-10
-1.15592e-10
7.58255e-10
-2.30042e-10
7.89513e-10
-3.82157e-10
7.44811e-10
-5.44653e-10
6.10932e-10
-7.07708e-10
4.52837e-10
-9.77398e-10
2.52034e-10
-1.27006e-09
-1.13014e-10
-1.50532e-09
-3.14725e-10
-1.7469e-09
-2.39324e-10
-1.89212e-09
-3.23109e-10
-1.95733e-09
-4.59264e-10
-1.94319e-09
-5.47852e-10
-1.79238e-09
-7.71724e-10
-1.64961e-09
-7.59669e-10
-1.62057e-09
-5.77089e-10
-1.57933e-09
-6.22403e-10
-1.54245e-09
-5.67854e-10
-1.45714e-09
-5.66288e-10
-1.38098e-09
-6.17478e-10
-1.32917e-09
-7.03181e-10
-1.27579e-09
-7.7574e-10
-1.16925e-09
-8.31303e-10
-1.07325e-09
-6.58162e-10
-9.7524e-10
-4.38647e-10
-9.47067e-10
-3.27407e-10
-9.359e-10
-1.04839e-10
-8.99871e-10
-1.22594e-11
-8.61389e-10
8.2444e-11
-7.67616e-10
1.72287e-10
-6.19351e-10
6.69216e-10
-5.66016e-10
1.0666e-09
-4.84539e-10
1.21421e-09
-4.16655e-10
1.26545e-09
-3.6099e-10
1.23558e-09
-3.63615e-10
1.09419e-09
-4.22924e-10
8.34816e-10
-4.95788e-10
6.38355e-10
-5.53289e-10
5.35396e-10
-6.85946e-10
5.04757e-10
-8.83427e-10
4.32298e-10
-1.03146e-09
3.43981e-10
-1.14433e-09
3.24114e-10
-1.23051e-09
2.51017e-10
-1.2916e-09
-3.45397e-10
-1.4038e-09
-6.2482e-10
-1.29803e-09
-9.49474e-10
-1.16688e-09
-1.35062e-09
-1.08706e-09
-1.50701e-09
-9.17038e-10
-1.8801e-09
-7.70788e-10
-1.95684e-09
-6.74422e-10
-2.0262e-09
-4.55515e-10
-2.04655e-09
-2.00869e-10
-1.85926e-09
-3.88905e-11
-1.67808e-09
-3.85624e-11
-1.26481e-09
2.17903e-10
-8.71437e-10
2.53847e-10
-6.76914e-10
4.82815e-10
7.6084e-12
3.2701e-10
3.1002e-10
3.4764e-10
4.80383e-10
2.68641e-10
7.58295e-10
1.99385e-10
8.19143e-10
1.16439e-10
9.20216e-10
-1.03419e-15
8.23764e-10
-1.02742e-17
4.49099e-19
-1.01369e-17
-9.57036e-19
-9.7308e-18
-2.18114e-18
-9.14794e-18
-3.26618e-18
-8.41943e-18
-4.23147e-18
-7.56682e-18
-5.06641e-18
-6.61485e-18
-5.75195e-18
-5.59302e-18
-6.27119e-18
-4.53385e-18
-6.61417e-18
-3.4703e-18
-6.77968e-18
-2.43331e-18
-6.77525e-18
-1.44986e-18
-6.61603e-18
-5.41635e-19
-6.32282e-18