/*--------------------------------*- C++ -*----------------------------------*\
  =========                 |
  \\      /  F ield         | OpenFOAM: The Open Source CFD Toolbox
   \\    /   O peration     | Website:  https://openfoam.org
    \\  /    A nd           | Version:  6
     \\/     M anipulation  |
\*---------------------------------------------------------------------------*/
FoamFile
{
    version     2.0;
    format      ascii;
    class       volVectorField;
    location    "1400";
    object      U;
}
// * * * * * * * * * * * * * * * * * * * * * * * * * * * * * * * * * * * * * //

dimensions      [0 1 -1 0 0 0 0];

internalField   nonuniform List<vector> 
4800
(
(-1.88338e-05 0 2.04059e-05)
(-7.23683e-05 0 -8.2084e-05)
(-0.000109631 0 -0.000154511)
(-0.000121233 0 -0.000152649)
(-0.000195093 0 -5.07034e-05)
(-0.000340516 0 -1.02274e-05)
(-0.000376604 0 2.1614e-05)
(-0.000401236 0 5.56355e-05)
(-0.000439594 0 4.74225e-06)
(-0.000472666 0 1.64115e-05)
(-0.000500183 0 2.77811e-05)
(-0.000540217 0 3.98563e-05)
(-0.000608372 0 4.13349e-05)
(-0.000686071 0 3.92106e-05)
(-0.000768252 0 3.65165e-05)
(-0.00084018 0 4.77533e-05)
(-0.000893392 0 -6.86938e-06)
(-0.000929143 0 -2.85932e-05)
(-0.000949119 0 -3.51654e-05)
(-0.000948734 0 -4.59199e-05)
(-0.000886712 0 -8.23038e-05)
(-0.000824338 0 -7.80226e-05)
(-0.00077685 0 -7.45888e-05)
(-0.000722769 0 -7.90282e-05)
(-0.000656934 0 -6.67808e-05)
(-0.000583387 0 -5.60503e-05)
(-0.000518384 0 -4.23647e-05)
(-0.000470496 0 -2.35625e-05)
(-0.000435002 0 -2.47601e-05)
(-0.000399416 0 -5.30256e-05)
(-0.000353541 0 -7.89833e-05)
(-0.000308525 0 -6.64048e-05)
(-0.000266126 0 -3.55972e-05)
(-0.000207549 0 -4.02874e-05)
(-0.000149032 0 -6.63069e-05)
(-0.000134647 0 -2.62116e-05)
(-0.000122732 0 1.02869e-05)
(-8.13676e-05 0 -5.04631e-05)
(-5.83099e-05 0 -1.9317e-06)
(-3.86531e-05 0 -1.44166e-05)
(1.7673e-05 0 -7.20854e-05)
(1.79666e-05 0 -1.68979e-05)
(5.95934e-06 0 2.95747e-05)
(-2.50169e-05 0 1.49936e-05)
(-6.97611e-05 0 2.36622e-06)
(-0.000130845 0 4.43506e-05)
(-0.000238238 0 3.6197e-06)
(-0.000284097 0 9.13984e-06)
(-0.000441546 0 0.00012966)
(-0.00074317 0 -1.08798e-05)
(-0.000830855 0 2.14495e-05)
(-0.000882759 0 -3.75521e-06)
(-0.000900859 0 -1.41405e-05)
(-0.000885014 0 -2.72632e-05)
(-0.000839156 0 -5.15752e-05)
(-0.000823095 0 -8.10011e-05)
(-0.000787578 0 -0.000133908)
(-0.000709896 0 -2.79264e-05)
(-0.000654043 0 -3.90834e-05)
(-0.000631031 0 -3.84512e-05)
(-0.000612083 0 -3.24359e-05)
(-0.000558956 0 -4.97427e-05)
(-0.000500673 0 -5.34931e-05)
(-0.000447073 0 -5.54051e-05)
(-0.000392634 0 -6.13697e-05)
(-0.000346529 0 -6.23814e-05)
(-0.000302379 0 -6.84141e-05)
(-0.000265505 0 -6.84215e-05)
(-0.000237246 0 -6.73959e-05)
(-0.000219335 0 -7.15238e-05)
(-0.000212485 0 -7.55137e-05)
(-0.000211248 0 -8.73833e-05)
(-0.000219671 0 -9.46891e-05)
(-0.000253055 0 -6.37522e-05)
(-0.000280007 0 -6.28887e-05)
(-0.000301564 0 -6.88511e-05)
(-0.00031543 0 -0.000111482)
(-0.000346542 0 -0.000193844)
(-0.000563196 0 -0.00014329)
(4.80285e-06 0 -0.000154969)
(-1.24421e-12 0 -9.0782e-14)
(-3.28481e-12 0 -3.63448e-14)
(-2.3438e-12 0 -3.65761e-14)
(-2.26195e-12 0 -4.56721e-14)
(-2.15987e-12 0 -5.67868e-14)
(-2.03572e-12 0 -6.77077e-14)
(-1.8908e-12 0 -7.7471e-14)
(-1.72793e-12 0 -8.55868e-14)
(-1.55068e-12 0 -9.17982e-14)
(-1.36301e-12 0 -9.59921e-14)
(-1.169e-12 0 -9.81583e-14)
(-9.72665e-13 0 -9.83667e-14)
(-7.77795e-13 0 -9.67505e-14)
(-5.87867e-13 0 -9.34913e-14)
(-4.05943e-13 0 -8.88054e-14)
(-2.34624e-13 0 -8.29301e-14)
(-7.60216e-14 0 -7.61116e-14)
(6.82483e-14 0 -6.85934e-14)
(1.97047e-13 0 -6.06077e-14)
(3.0968e-13 0 -5.23677e-14)
(4.05856e-13 0 -4.40627e-14)
(4.85628e-13 0 -3.58552e-14)
(5.49344e-13 0 -2.78795e-14)
(5.97588e-13 0 -2.02424e-14)
(6.31131e-13 0 -1.30254e-14)
(6.50877e-13 0 -6.28725e-15)
(6.57819e-13 0 -6.66503e-17)
(6.52998e-13 0 5.61468e-15)
(6.37471e-13 0 1.07495e-14)
(6.12287e-13 0 1.53424e-14)
(5.78469e-13 0 1.94071e-14)
(5.37005e-13 0 2.29639e-14)
(4.88846e-13 0 2.60372e-14)
(4.34901e-13 0 2.86533e-14)
(3.76042e-13 0 3.08382e-14)
(3.13101e-13 0 3.26168e-14)
(2.46877e-13 0 3.40109e-14)
(1.78134e-13 0 3.50397e-14)
(1.07606e-13 0 3.57207e-14)
(3.59931e-14 0 3.60749e-14)
(7.0442e-06 0 7.02072e-05)
(-4.60637e-05 0 6.37409e-05)
(-0.000112148 0 0.000164273)
(-0.000172678 0 0.000196076)
(-0.000294783 0 0.00012714)
(-0.000328053 0 0.000142831)
(-0.000363631 0 6.76939e-05)
(-0.0003948 0 3.89909e-05)
(-0.000447813 0 6.54425e-05)
(-0.000480331 0 5.14743e-05)
(-0.000499158 0 4.57508e-05)
(-0.000528679 0 6.60758e-05)
(-0.000581486 0 9.13652e-05)
(-0.00064077 0 0.000114302)
(-0.000709061 0 0.000114078)
(-0.000785527 0 0.000110429)
(-0.000847271 0 9.06771e-05)
(-0.000883563 0 5.38777e-05)
(-0.000895001 0 3.73898e-05)
(-0.000890539 0 -1.93079e-05)
(-0.000862692 0 -9.54453e-05)
(-0.000844042 0 -9.63617e-05)
(-0.000800546 0 -0.000108103)
(-0.000714331 0 -0.00012568)
(-0.000626134 0 -0.000109709)
(-0.000546198 0 -0.000114069)
(-0.000484562 0 -0.000100317)
(-0.000445717 0 -7.1523e-05)
(-0.00042031 0 -5.58359e-05)
(-0.000393808 0 -4.04578e-05)
(-0.000331405 0 -8.91535e-05)
(-0.000262466 0 -9.33832e-05)
(-0.000222309 0 -5.19411e-05)
(-0.000200931 0 -3.89275e-05)
(-0.000157783 0 -9.80695e-05)
(-0.000171187 0 -2.54416e-05)
(-0.000151433 0 -2.89438e-05)
(-0.000110189 0 -9.36603e-05)
(-0.000121272 0 -5.18063e-05)
(-9.98818e-05 0 -7.02673e-05)
(-7.09042e-05 0 -7.17198e-05)
(-9.99998e-05 0 -2.20465e-05)
(-7.311e-05 0 -9.0553e-06)
(-6.50111e-05 0 2.00809e-05)
(-0.000108017 0 6.36936e-05)
(-0.000165406 0 0.000117583)
(-0.000264167 0 0.000165175)
(-0.000449156 0 0.0001864)
(-0.000578393 0 0.000202004)
(-0.000660436 0 0.000189912)
(-0.000735647 0 7.136e-05)
(-0.000764062 0 4.7176e-05)
(-0.000783985 0 2.34742e-05)
(-0.000787222 0 -1.43068e-05)
(-0.000723461 0 -0.000146846)
(-0.000687761 0 -9.41965e-05)
(-0.000664965 0 -3.46304e-05)
(-0.000599455 0 -0.000106773)
(-0.000558796 0 -7.70335e-05)
(-0.000543683 0 -4.95399e-05)
(-0.00052938 0 -3.43124e-05)
(-0.000480455 0 -9.55701e-05)
(-0.00041995 0 -8.39548e-05)
(-0.000357501 0 -4.54065e-05)
(-0.000283952 0 -6.16882e-05)
(-0.000218523 0 -3.80684e-05)
(-0.000153398 0 -2.2269e-05)
(-9.6184e-05 0 -2.66314e-06)
(-4.87279e-05 0 1.07665e-05)
(-1.92306e-05 0 3.19512e-05)
(3.91992e-06 0 5.16299e-05)
(1.51117e-05 0 8.5192e-05)
(9.37031e-06 0 0.000108621)
(-4.01557e-05 0 0.000100173)
(-8.30738e-05 0 8.82945e-05)
(-0.00011816 0 8.35663e-05)
(-0.000157067 0 5.54534e-05)
(0.000111407 0 -0.000140363)
(-0.000622461 0 -0.000176844)
(5.80827e-06 0 -0.000285444)
(-1.43974e-12 0 -1.16437e-13)
(-3.25738e-12 0 -7.4409e-14)
(-2.35313e-12 0 -1.01091e-13)
(-2.28208e-12 0 -1.35065e-13)
(-2.18191e-12 0 -1.70622e-13)
(-2.0564e-12 0 -2.04339e-13)
(-1.90868e-12 0 -2.34118e-13)
(-1.74226e-12 0 -2.58731e-13)
(-1.56109e-12 0 -2.77494e-13)
(-1.36937e-12 0 -2.90106e-13)
(-1.17138e-12 0 -2.96555e-13)
(-9.71257e-13 0 -2.97065e-13)
(-7.7292e-13 0 -2.92047e-13)
(-5.79922e-13 0 -2.82057e-13)
(-3.95382e-13 0 -2.67757e-13)
(-2.2193e-13 0 -2.49869e-13)
(-6.16849e-14 0 -2.29145e-13)
(8.37522e-14 0 -2.06323e-13)
(2.13272e-13 0 -1.8211e-13)
(3.26225e-13 0 -1.5715e-13)
(4.22368e-13 0 -1.32018e-13)
(5.01811e-13 0 -1.07202e-13)
(5.64956e-13 0 -8.31081e-14)
(6.12442e-13 0 -6.0059e-14)
(6.45086e-13 0 -3.83011e-14)
(6.63836e-13 0 -1.8012e-14)
(6.69721e-13 0 6.91326e-16)
(6.63814e-13 0 1.77451e-14)
(6.47199e-13 0 3.3131e-14)
(6.20945e-13 0 4.68681e-14)
(5.86091e-13 0 5.90042e-14)
(5.43635e-13 0 6.96075e-14)
(4.94535e-13 0 7.87577e-14)
(4.39702e-13 0 8.65393e-14)
(3.80005e-13 0 9.30351e-14)
(3.16274e-13 0 9.83217e-14)
(2.493e-13 0 1.02467e-13)
(1.79844e-13 0 1.05527e-13)
(1.08641e-13 0 1.07548e-13)
(3.63472e-14 0 1.0857e-13)
(2.02651e-07 0 0.000109787)
(-7.23891e-05 0 0.000102076)
(-0.000121902 0 0.000178977)
(-0.000225242 0 0.000178254)
(-0.000276914 0 0.000175274)
(-0.00030743 0 0.000161967)
(-0.000348066 0 8.94082e-05)
(-0.000400464 0 5.69697e-06)
(-0.000434401 0 8.80732e-05)
(-0.000461567 0 8.12341e-05)
(-0.000481319 0 7.66842e-05)
(-0.0004812 0 0.00016994)
(-0.000507593 0 0.00017002)
(-0.000573686 0 0.000163818)
(-0.000646712 0 0.000132618)
(-0.000702105 0 0.000133115)
(-0.000741832 0 8.53531e-05)
(-0.00074925 0 5.91344e-05)
(-0.000744883 0 2.03024e-05)
(-0.000749638 0 -3.57479e-05)
(-0.000761637 0 -8.63556e-05)
(-0.000765005 0 -8.71805e-05)
(-0.000744605 0 -0.000101724)
(-0.000668224 0 -0.000160484)
(-0.000591537 0 -0.000186609)
(-0.000539245 0 -0.000142605)
(-0.000480883 0 -0.000138276)
(-0.000430402 0 -0.00012882)
(-0.000377178 0 -0.000128146)
(-0.00034162 0 -0.000104288)
(-0.000305737 0 -9.88055e-05)
(-0.000218748 0 -0.000177909)
(-0.000126162 0 -0.000211626)
(-0.000233354 0 2.77362e-05)
(-0.000170875 0 -9.07391e-05)
(-0.000193157 0 3.2043e-06)
(-0.000167222 0 -4.63968e-05)
(-0.00015783 0 -7.27347e-05)
(-0.00016163 0 -5.21208e-05)
(-0.000160743 0 -3.29629e-05)
(-0.00015128 0 -1.20259e-05)
(-0.000142052 0 -2.4846e-05)
(-0.000162806 0 1.8473e-05)
(-0.000163003 0 5.74475e-05)
(-0.000150519 0 0.000101011)
(-0.000148915 0 0.000231784)
(-0.000273346 0 0.000259974)
(-0.000375271 0 0.000352126)
(-0.000467965 0 0.000366257)
(-0.000590631 0 0.000256494)
(-0.000659884 0 0.000119402)
(-0.000684026 0 3.14149e-05)
(-0.000701529 0 -5.82684e-06)
(-0.000715129 0 -1.04653e-05)
(-0.000676333 0 -0.000117119)
(-0.000616101 0 -0.000145239)
(-0.000595476 0 -8.81133e-05)
(-0.000574565 0 -8.42432e-05)
(-0.000558006 0 -0.000107591)
(-0.000544846 0 -7.93921e-05)
(-0.000522181 0 -5.08911e-05)
(-0.000476749 0 -0.000116476)
(-0.00041242 0 -0.000159159)
(-0.000355063 0 -0.000151318)
(-0.000287134 0 -0.000171482)
(-0.000214176 0 -0.000176454)
(-0.000137064 0 -0.000168991)
(-7.56421e-05 0 -0.000130383)
(3.54293e-06 0 -0.00011043)
(7.76367e-05 0 -4.74053e-05)
(0.000125221 0 -5.14245e-05)
(0.000172776 0 -7.49858e-06)
(0.000209723 0 1.08863e-05)
(0.000192213 0 7.12289e-05)
(0.000170831 0 9.98639e-05)
(0.000168625 0 8.52424e-05)
(0.000173509 0 4.69071e-05)
(0.000296277 0 1.63758e-05)
(-0.000549907 0 -8.81295e-05)
(6.0657e-06 0 -0.000310525)
(-1.49672e-12 0 -1.25873e-13)
(-3.34187e-12 0 -9.89327e-14)
(-2.40425e-12 0 -1.58405e-13)
(-2.33133e-12 0 -2.22827e-13)
(-2.22915e-12 0 -2.86359e-13)
(-2.09922e-12 0 -3.4498e-13)
(-1.94519e-12 0 -3.96015e-13)
(-1.7713e-12 0 -4.37809e-13)
(-1.58206e-12 0 -4.69422e-13)
(-1.38207e-12 0 -4.90455e-13)
(-1.17596e-12 0 -5.00957e-13)
(-9.68157e-13 0 -5.01347e-13)
(-7.62787e-13 0 -4.92359e-13)
(-5.63577e-13 0 -4.74964e-13)
(-3.73755e-13 0 -4.50309e-13)
(-1.96012e-13 0 -4.19642e-13)
(-3.24752e-14 0 -3.84248e-13)
(1.15283e-13 0 -3.45394e-13)
(2.4622e-13 0 -3.0428e-13)
(3.59772e-13 0 -2.61999e-13)
(4.55804e-13 0 -2.19519e-13)
(5.34537e-13 0 -1.77662e-13)
(5.96486e-13 0 -1.37106e-13)
(6.42395e-13 0 -9.83853e-14)
(6.73178e-13 0 -6.19053e-14)
(6.89869e-13 0 -2.79541e-14)
(6.93576e-13 0 3.28328e-15)
(6.85438e-13 0 3.17116e-14)
(6.66594e-13 0 5.73121e-14)
(6.38161e-13 0 8.01284e-14)
(6.01208e-13 0 1.00252e-13)
(5.56759e-13 0 1.17807e-13)
(5.05778e-13 0 1.32936e-13)
(4.49178e-13 0 1.45788e-13)
(3.87824e-13 0 1.56507e-13)
(3.22533e-13 0 1.65226e-13)
(2.54082e-13 0 1.7206e-13)
(1.83215e-13 0 1.77104e-13)
(1.1065e-13 0 1.80431e-13)
(3.70154e-14 0 1.8209e-13)
(-3.26995e-05 0 0.000156415)
(-0.00015741 0 0.000133884)
(-0.00013407 0 0.000218143)
(-0.000201545 0 0.000225275)
(-0.000240081 0 0.000214338)
(-0.00026797 0 0.000196449)
(-0.000323716 0 0.000140675)
(-0.000356976 0 0.000141658)
(-0.000393083 0 0.00012648)
(-0.000417355 0 0.000107365)
(-0.000438389 0 9.99058e-05)
(-0.000454709 0 0.000130833)
(-0.000465754 0 0.000153125)
(-0.000484971 0 0.000209283)
(-0.000531129 0 0.000227848)
(-0.000573979 0 0.000206296)
(-0.000610964 0 0.000161435)
(-0.000654526 0 6.6621e-05)
(-0.000680162 0 -8.84749e-06)
(-0.000684871 0 -2.61339e-05)
(-0.000677418 0 -8.08469e-05)
(-0.000664043 0 -0.000109068)
(-0.000637047 0 -0.000177545)
(-0.000566681 0 -0.000303797)
(-0.000523228 0 -0.00028574)
(-0.000493687 0 -0.000230462)
(-0.000440481 0 -0.000214504)
(-0.000419801 0 -0.00010815)
(-0.000342399 0 -0.000154738)
(-0.000315238 0 -0.000125162)
(-0.000298963 0 -0.00012501)
(-0.000268827 0 -0.000172239)
(-0.000235143 0 -0.000143645)
(-0.000229012 0 -4.11767e-05)
(-0.000191661 0 -6.80996e-05)
(-0.000192536 0 -3.49097e-05)
(-0.000185829 0 -5.2527e-05)
(-0.000189095 0 -5.25091e-05)
(-0.00017094 0 -6.03007e-05)
(-0.000148184 0 -6.70654e-05)
(-0.000133194 0 -6.34794e-05)
(-0.000140671 0 -2.83104e-05)
(-0.000137778 0 -5.36276e-07)
(-0.000136267 0 2.68593e-05)
(-0.000198165 0 0.000153746)
(-0.000173844 0 0.000287955)
(-0.000257241 0 0.000357397)
(-0.000384006 0 0.000400235)
(-0.000422464 0 0.000415382)
(-0.000515973 0 0.000313923)
(-0.000530382 0 0.000248443)
(-0.000606161 0 9.19898e-05)
(-0.000620711 0 2.90479e-05)
(-0.000625145 0 -7.58514e-06)
(-0.000595881 0 -0.000183369)
(-0.000587416 0 -0.000149941)
(-0.000581802 0 -0.000104309)
(-0.000569817 0 -0.000129677)
(-0.000585435 0 -7.29546e-05)
(-0.000591379 0 -2.91546e-05)
(-0.00056105 0 -0.000122535)
(-0.00052475 0 -0.000193035)
(-0.000476277 0 -0.000223652)
(-0.000407097 0 -0.000259249)
(-0.000365529 0 -0.000226949)
(-0.00026372 0 -0.000277257)
(-0.000185929 0 -0.000265141)
(-0.000123934 0 -0.000225246)
(-3.71374e-05 0 -0.000203507)
(9.16263e-05 0 -0.000149795)
(0.000131371 0 -0.00013361)
(0.000200684 0 -4.1748e-05)
(0.000240938 0 -2.34568e-05)
(0.000269611 0 6.64359e-05)
(0.000285378 0 6.23123e-05)
(0.000295681 0 6.75004e-05)
(0.000282176 0 5.36605e-05)
(0.00029976 0 2.74435e-05)
(-0.000101957 0 0.000172313)
(5.74034e-06 0 -0.000185742)
(-1.38083e-12 0 -1.39154e-13)
(-3.38989e-12 0 -1.14651e-13)
(-2.47661e-12 0 -2.10532e-13)
(-2.40989e-12 0 -3.11278e-13)
(-2.30406e-12 0 -4.07025e-13)
(-2.16606e-12 0 -4.93267e-13)
(-2.00151e-12 0 -5.67224e-13)
(-1.81566e-12 0 -6.27125e-13)
(-1.61373e-12 0 -6.71945e-13)
(-1.40091e-12 0 -7.01299e-13)
(-1.18227e-12 0 -7.15372e-13)
(-9.62659e-13 0 -7.14857e-13)
(-7.46537e-13 0 -7.0088e-13)
(-5.37872e-13 0 -6.74901e-13)
(-3.40059e-13 0 -6.38623e-13)
(-1.55869e-13 0 -5.93884e-13)
(1.25626e-14 0 -5.42562e-13)
(1.63721e-13 0 -4.86495e-13)
(2.96668e-13 0 -4.27413e-13)
(4.10986e-13 0 -3.66883e-13)
(5.06705e-13 0 -3.06278e-13)
(5.84224e-13 0 -2.4676e-13)
(6.44233e-13 0 -1.89272e-13)
(6.87643e-13 0 -1.34548e-13)
(7.15517e-13 0 -8.31337e-14)
(7.29024e-13 0 -3.54047e-14)
(7.29386e-13 0 8.40916e-15)
(7.17843e-13 0 4.82019e-14)
(6.95616e-13 0 8.39711e-14)
(6.63885e-13 0 1.15797e-13)
(6.23769e-13 0 1.43825e-13)
(5.76319e-13 0 1.68239e-13)
(5.22516e-13 0 1.89251e-13)
(4.63273e-13 0 2.07077e-13)
(3.99443e-13 0 2.21926e-13)
(3.31827e-13 0 2.33992e-13)
(2.61178e-13 0 2.4344e-13)
(1.88215e-13 0 2.50409e-13)
(1.13627e-13 0 2.55003e-13)
(3.80055e-14 0 2.57293e-13)
(1.67849e-05 0 0.000201061)
(1.59583e-05 0 0.000258777)
(-6.56435e-05 0 0.000288247)
(-0.00017865 0 0.000269077)
(-0.00022036 0 0.000246253)
(-0.000245558 0 0.000227109)
(-0.00028816 0 0.000179232)
(-0.000313711 0 0.000164576)
(-0.000327488 0 0.000152878)
(-0.00034134 0 0.00012817)
(-0.000388771 0 8.82239e-05)
(-0.0004072 0 0.000166143)
(-0.000405047 0 0.000212453)
(-0.000403158 0 0.000227603)
(-0.000403194 0 0.000263508)
(-0.000473296 0 0.000209382)
(-0.000535402 0 0.000155678)
(-0.000587789 0 8.8356e-05)
(-0.000603366 0 5.597e-05)
(-0.000603865 0 -7.29247e-06)
(-0.00060027 0 -7.41637e-05)
(-0.000587756 0 -0.000136742)
(-0.00055943 0 -0.000210996)
(-0.000524769 0 -0.000267951)
(-0.000479792 0 -0.000296582)
(-0.000459886 0 -0.000248809)
(-0.000424988 0 -0.000225435)
(-0.000375147 0 -0.000234545)
(-0.000322946 0 -0.000251658)
(-0.000307613 0 -0.00023139)
(-0.000286233 0 -0.000248268)
(-0.000300726 0 -0.000227301)
(-0.00031986 0 -0.000126153)
(-0.00023593 0 -0.000152279)
(-0.000236605 0 -7.93149e-05)
(-0.000221963 0 -7.4751e-05)
(-0.000222618 0 -4.98274e-05)
(-0.00019825 0 -6.79665e-05)
(-0.000169157 0 -7.66661e-05)
(-0.000158147 0 -5.61843e-05)
(-0.000153046 0 -3.0398e-05)
(-0.000149687 0 -1.47002e-05)
(-0.000161489 0 3.34818e-05)
(-0.000153519 0 5.12781e-05)
(-0.000170735 0 0.000156533)
(-0.000191246 0 0.00032722)
(-0.000181018 0 0.000440235)
(-0.000211403 0 0.000510681)
(-0.00030528 0 0.000491122)
(-0.000354972 0 0.000429129)
(-0.000534769 0 0.000162202)
(-0.000512601 0 0.000136922)
(-0.000545266 0 4.56493e-05)
(-0.000539741 0 -2.02085e-05)
(-0.000539732 0 -0.000157229)
(-0.000567413 0 -0.000146044)
(-0.000586265 0 -9.72597e-05)
(-0.000610501 0 -0.000108495)
(-0.000639721 0 -8.36746e-05)
(-0.000646604 0 -8.6376e-05)
(-0.000633846 0 -0.000133282)
(-0.00057453 0 -0.000232362)
(-0.000516661 0 -0.000261083)
(-0.000477573 0 -0.000213548)
(-0.00038873 0 -0.000255867)
(-0.000280721 0 -0.000294488)
(-0.000205964 0 -0.000263874)
(-0.000144682 0 -0.000241493)
(-3.86192e-05 0 -0.000265117)
(4.72622e-05 0 -0.000248061)
(0.000107742 0 -0.000196948)
(0.000159791 0 -8.13172e-05)
(0.000200714 0 -5.33198e-05)
(0.000246557 0 6.19463e-05)
(0.000269338 0 3.35262e-05)
(0.000281722 0 7.63296e-05)
(0.000257961 0 0.000102569)
(0.000266727 0 5.46148e-05)
(-0.000211184 0 5.1229e-05)
(5.86064e-06 0 -7.13491e-05)
(-1.38167e-12 0 9.82962e-15)
(-3.51814e-12 0 -9.58267e-14)
(-2.60047e-12 0 -2.5758e-13)
(-2.52767e-12 0 -4.04551e-13)
(-2.41114e-12 0 -5.37228e-13)
(-2.25942e-12 0 -6.53917e-13)
(-2.07905e-12 0 -7.52581e-13)
(-1.87603e-12 0 -8.31599e-13)
(-1.65623e-12 0 -8.89977e-13)
(-1.4255e-12 0 -9.27413e-13)
(-1.18952e-12 0 -9.44308e-13)
(-9.53664e-13 0 -9.41713e-13)
(-7.22831e-13 0 -9.2124e-13)
(-5.0132e-13 0 -8.84945e-13)
(-2.92738e-13 0 -8.35187e-13)
(-9.99504e-14 0 -7.7449e-13)
(7.4913e-14 0 -7.0541e-13)
(2.30432e-13 0 -6.30424e-13)
(3.65832e-13 0 -5.51836e-13)
(4.80907e-13 0 -4.71721e-13)
(5.75927e-13 0 -3.91875e-13)
(6.51544e-13 0 -3.13799e-13)
(7.08698e-13 0 -2.38693e-13)
(7.48533e-13 0 -1.67475e-13)
(7.72321e-13 0 -1.00805e-13)
(7.81412e-13 0 -3.91165e-14)
(7.77182e-13 0 1.73426e-14)
(7.60999e-13 0 6.84831e-14)
(7.3419e-13 0 1.14342e-13)
(6.98014e-13 0 1.55056e-13)
(6.5365e-13 0 1.90837e-13)
(6.02185e-13 0 2.21946e-13)
(5.44615e-13 0 2.48669e-13)
(4.81854e-13 0 2.713e-13)
(4.14739e-13 0 2.90122e-13)
(3.44047e-13 0 3.05392e-13)
(2.70499e-13 0 3.17335e-13)
(1.94778e-13 0 3.26134e-13)
(1.17533e-13 0 3.31929e-13)
(3.93046e-14 0 3.34817e-13)
(-0.000111626 0 0.000238082)
(-0.000268253 0 0.000228513)
(-0.000155038 0 0.000301088)
(-0.000176006 0 0.000307875)
(-0.000183917 0 0.000297482)
(-0.000220825 0 0.000255405)
(-0.000265409 0 0.000185718)
(-0.000274557 0 0.00016474)
(-0.000277695 0 0.000156944)
(-0.00029018 0 0.000152648)
(-0.000315965 0 0.000178719)
(-0.000346179 0 0.00018796)
(-0.000354372 0 0.000209513)
(-0.000335854 0 0.000246514)
(-0.00031574 0 0.000266199)
(-0.000280557 0 0.00030905)
(-0.000317477 0 0.00028455)
(-0.000392118 0 0.000207203)
(-0.000486758 0 6.55004e-05)
(-0.000531552 0 -3.93805e-05)
(-0.000544652 0 -0.000124559)
(-0.000531894 0 -0.000183768)
(-0.000502309 0 -0.000252853)
(-0.000481316 0 -0.00029328)
(-0.000454828 0 -0.000317862)
(-0.00043367 0 -0.000297175)
(-0.000423515 0 -0.000252376)
(-0.000421437 0 -0.00019779)
(-0.000428031 0 -0.000128545)
(-0.000413779 0 -0.000132714)
(-0.000394334 0 -0.000185972)
(-0.000386439 0 -0.000185706)
(-0.000399731 0 -7.51331e-05)
(-0.000367115 0 -7.65651e-05)
(-0.000341937 0 -6.9983e-05)
(-0.000316264 0 -6.1747e-05)
(-0.000264409 0 -9.50721e-05)
(-0.000215138 0 -0.000116477)
(-0.0001632 0 -0.00012551)
(-0.000139964 0 -9.83666e-05)
(-0.000141868 0 -4.91161e-05)
(-0.000136313 0 -2.36957e-05)
(-0.000143926 0 3.29965e-05)
(-0.000136559 0 4.92635e-05)
(-0.000181476 0 0.000181847)
(-0.000182898 0 0.000332897)
(-0.00018732 0 0.000465181)
(-0.000194802 0 0.000532507)
(-0.000262654 0 0.000529462)
(-0.000249879 0 0.000492009)
(-0.000396084 0 0.000282463)
(-0.000378671 0 0.00021948)
(-0.000449692 0 0.00010054)
(-0.000473127 0 -5.31978e-05)
(-0.000510662 0 -0.000112825)
(-0.000552397 0 -9.81276e-05)
(-0.000581539 0 -9.67947e-05)
(-0.000635138 0 -6.34719e-05)
(-0.000674201 0 -2.48219e-05)
(-0.0006783 0 -5.1716e-05)
(-0.000625678 0 -0.000195967)
(-0.000561292 0 -0.000279078)
(-0.000504749 0 -0.000317195)
(-0.000413619 0 -0.000379021)
(-0.000318492 0 -0.000408759)
(-0.000168641 0 -0.00042312)
(-0.000176869 0 -0.000325227)
(-3.22874e-05 0 -0.000377913)
(6.93935e-05 0 -0.000347783)
(0.000108539 0 -0.000276852)
(0.000202145 0 -0.000178597)
(0.000149745 0 -9.13505e-05)
(0.000181113 0 -0.000100501)
(0.000243687 0 4.11909e-05)
(0.000257927 0 -1.09389e-05)
(0.000258539 0 8.99616e-05)
(0.000225742 0 0.000127551)
(0.00028848 0 0.000122751)
(-0.000276286 0 9.68467e-05)
(5.63798e-06 0 4.72199e-05)
(-1.43956e-12 0 7.28563e-14)
(-3.75229e-12 0 -1.03495e-13)
(-2.78493e-12 0 -3.19161e-13)
(-2.68938e-12 0 -5.11895e-13)
(-2.55343e-12 0 -6.83415e-13)
(-2.38141e-12 0 -8.32641e-13)
(-2.17919e-12 0 -9.5766e-13)
(-1.95306e-12 0 -1.05679e-12)
(-1.70955e-12 0 -1.129e-12)
(-1.45524e-12 0 -1.17408e-12)
(-1.19657e-12 0 -1.1927e-12)
(-9.3959e-13 0 -1.18636e-12)
(-6.89768e-13 0 -1.1573e-12)
(-4.5182e-13 0 -1.1083e-12)
(-2.29605e-13 0 -1.04252e-12)
(-2.60929e-14 0 -9.63311e-13)
(1.56629e-13 0 -8.7401e-13)
(3.17295e-13 0 -7.77822e-13)
(4.5537e-13 0 -6.77694e-13)
(5.70947e-13 0 -5.76241e-13)
(6.64627e-13 0 -4.75698e-13)
(7.37406e-13 0 -3.77903e-13)
(7.90557e-13 0 -2.843e-13)
(8.25531e-13 0 -1.95964e-13)
(8.43876e-13 0 -1.13636e-13)
(8.47171e-13 0 -3.77771e-14)
(8.36986e-13 0 3.13886e-14)
(8.14842e-13 0 9.38227e-14)
(7.82189e-13 0 1.49634e-13)
(7.4038e-13 0 1.99042e-13)
(6.90659e-13 0 2.42348e-13)
(6.34151e-13 0 2.79905e-13)
(5.71871e-13 0 3.12092e-13)
(5.04726e-13 0 3.39289e-13)
(4.33535e-13 0 3.61862e-13)
(3.59039e-13 0 3.8014e-13)
(2.81919e-13 0 3.94411e-13)
(2.0281e-13 0 4.04913e-13)
(1.2231e-13 0 4.11823e-13)
(4.08929e-14 0 4.15263e-13)
(-9.01487e-05 0 0.000327265)
(3.56844e-05 0 0.000363539)
(-0.000104449 0 0.000340567)
(-0.000166434 0 0.000337092)
(-0.000238768 0 0.000290941)
(-0.000183193 0 0.000281589)
(-0.000192286 0 0.00023683)
(-0.000196979 0 0.000208096)
(-0.000208619 0 0.000193823)
(-0.000246107 0 0.000188706)
(-0.000275524 0 0.000193929)
(-0.000293011 0 0.000196812)
(-0.000317682 0 0.00018055)
(-0.00031802 0 0.000200034)
(-0.00030341 0 0.000225082)
(-0.000282478 0 0.00024379)
(-0.000270805 0 0.000249391)
(-0.000275669 0 0.000238796)
(-0.000328396 0 0.000178763)
(-0.000438165 0 3.67512e-05)
(-0.000482301 0 -5.59588e-05)
(-0.000491931 0 -0.000161561)
(-0.000471767 0 -0.000281789)
(-0.0004592 0 -0.000322765)
(-0.000455563 0 -0.00032167)
(-0.000467298 0 -0.000298193)
(-0.000489388 0 -0.000261044)
(-0.000479402 0 -0.000261027)
(-0.000444805 0 -0.000277324)
(-0.000449386 0 -0.000245411)
(-0.00049546 0 -0.000150174)
(-0.000500978 0 -0.000152155)
(-0.000452544 0 -0.000229182)
(-0.000401336 0 -0.000284527)
(-0.000493484 0 2.99532e-05)
(-0.000382108 0 -0.000166371)
(-0.000355789 0 -9.04055e-05)
(-0.000259291 0 -0.000195822)
(-0.000222392 0 -0.000141005)
(-0.00018457 0 -0.000110604)
(-0.000172357 0 -8.01482e-05)
(-0.000176833 0 -1.09858e-05)
(-0.000165574 0 9.57954e-06)
(-0.000164494 0 5.07117e-05)
(-0.00017466 0 0.000181406)
(-0.000176707 0 0.000327425)
(-0.000168859 0 0.00047654)
(-0.000113993 0 0.000565149)
(-0.000167881 0 0.000565837)
(-0.000174834 0 0.000529299)
(-0.000188414 0 0.000400368)
(-0.000313059 0 0.000207021)
(-0.000318765 0 0.000135833)
(-0.000363781 0 4.67603e-05)
(-0.000462628 0 -6.84697e-05)
(-0.000514073 0 -7.7202e-05)
(-0.000569434 0 -3.72606e-05)
(-0.000617076 0 -6.29847e-06)
(-0.000638275 0 -3.4645e-05)
(-0.000635448 0 -9.54458e-05)
(-0.000570537 0 -0.000283723)
(-0.000551636 0 -0.000312013)
(-0.000510996 0 -0.000387917)
(-0.00044887 0 -0.000459675)
(-0.000408298 0 -0.000470272)
(-0.00022392 0 -0.000553017)
(-0.000189618 0 -0.000510083)
(-6.24878e-05 0 -0.000493645)
(-3.52946e-07 0 -0.000392628)
(6.56062e-05 0 -0.000299584)
(0.000190555 0 -0.000243004)
(0.000283313 0 -6.66347e-05)
(0.000268395 0 -9.70838e-05)
(0.000280351 0 5.85621e-05)
(0.000270209 0 1.95508e-05)
(0.000243968 0 0.000115702)
(0.000173352 0 0.000185412)
(0.000344027 0 0.000179289)
(-0.000305749 0 0.000201022)
(5.64615e-06 0 0.000130663)
(-1.55777e-12 0 6.77281e-14)
(-3.9924e-12 0 -1.44666e-13)
(-3.00847e-12 0 -4.03385e-13)
(-2.89177e-12 0 -6.4017e-13)
(-2.73188e-12 0 -8.51817e-13)
(-2.53366e-12 0 -1.03555e-12)
(-2.3032e-12 0 -1.18865e-12)
(-2.04737e-12 0 -1.30896e-12)
(-1.77352e-12 0 -1.39521e-12)
(-1.4892e-12 0 -1.44724e-12)
(-1.2018e-12 0 -1.46605e-12)
(-9.18263e-13 0 -1.4537e-12)
(-6.44766e-13 0 -1.41323e-12)
(-3.86543e-13 0 -1.34834e-12)
(-1.47749e-13 0 -1.26319e-12)
(6.85629e-14 0 -1.16211e-12)
(2.60403e-13 0 -1.0494e-12)
(4.26748e-13 0 -9.29093e-13)
(5.67413e-13 0 -8.0485e-13)
(6.82903e-13 0 -6.79869e-13)
(7.74265e-13 0 -5.56835e-13)
(8.42942e-13 0 -4.37913e-13)
(8.90637e-13 0 -3.24765e-13)
(9.19197e-13 0 -2.18585e-13)
(9.30508e-13 0 -1.20157e-13)
(9.26437e-13 0 -2.99177e-14)
(9.08782e-13 0 5.19758e-14)
(8.79244e-13 0 1.25582e-13)
(8.39409e-13 0 1.91121e-13)
(7.90729e-13 0 2.48932e-13)
(7.34513e-13 0 2.99435e-13)
(6.71929e-13 0 3.43098e-13)
(6.03999e-13 0 3.80409e-13)
(5.31623e-13 0 4.1185e-13)
(4.5559e-13 0 4.37879e-13)
(3.76597e-13 0 4.58909e-13)
(2.95272e-13 0 4.75297e-13)
(2.12189e-13 0 4.87336e-13)
(1.27883e-13 0 4.95248e-13)
(4.27447e-14 0 4.99184e-13)
(-6.44224e-05 0 0.000356829)
(4.41681e-05 0 0.000378641)
(-6.38941e-05 0 0.000368525)
(-9.64515e-05 0 0.000379816)
(-0.000112357 0 0.00036005)
(-0.000171195 0 0.000275667)
(-0.000174289 0 0.00022301)
(-0.000169349 0 0.00019393)
(-0.000172434 0 0.00018564)
(-0.000199781 0 0.000190559)
(-0.000211486 0 0.000208185)
(-0.000217286 0 0.000205763)
(-0.000204257 0 0.000219283)
(-0.000218019 0 0.000208796)
(-0.00021158 0 0.000219305)
(-0.000222362 0 0.000230649)
(-0.000240901 0 0.000233926)
(-0.000249774 0 0.000219974)
(-0.000266999 0 0.000162205)
(-0.000275586 0 0.00011945)
(-0.000367547 0 -3.36347e-05)
(-0.00042553 0 -0.000176608)
(-0.000454108 0 -0.000271357)
(-0.00047726 0 -0.000309745)
(-0.000521476 0 -0.000293396)
(-0.000581364 0 -0.000241066)
(-0.000611843 0 -0.000220893)
(-0.000630985 0 -0.00020579)
(-0.000638286 0 -0.000197373)
(-0.000617948 0 -0.000198015)
(-0.000585188 0 -0.000204244)
(-0.000576342 0 -0.00019526)
(-0.000588872 0 -0.000160886)
(-0.000581738 0 -9.46533e-05)
(-0.000497113 0 -0.0001811)
(-0.000454471 0 -0.00017685)
(-0.000370629 0 -0.000262193)
(-0.000346886 0 -0.000201373)
(-0.00029941 0 -0.000181596)
(-0.000293906 0 -9.22735e-05)
(-0.000248232 0 -0.000108416)
(-0.000243127 0 -6.25759e-05)
(-0.000245135 0 6.12866e-05)
(-0.000214853 0 0.000105943)
(-0.000199773 0 0.000136433)
(-0.000181716 0 0.000336495)
(-0.000190386 0 0.000472293)
(-0.000163639 0 0.000555012)
(-0.000150581 0 0.000566715)
(-0.000151194 0 0.000531479)
(-0.00015616 0 0.000416156)
(-0.000194555 0 0.000281239)
(-0.000216827 0 0.000191521)
(-0.000264436 0 0.000127417)
(-0.000375885 0 2.8775e-05)
(-0.000456489 0 -1.75624e-05)
(-0.000503625 0 -9.29521e-06)
(-0.000564796 0 8.60687e-06)
(-0.000606492 0 -1.74589e-05)
(-0.000608581 0 -8.27766e-05)
(-0.000550998 0 -0.00030731)
(-0.000561778 0 -0.000339564)
(-0.000548428 0 -0.000409899)
(-0.000505285 0 -0.000485275)
(-0.000451022 0 -0.000538788)
(-0.000332471 0 -0.000608757)
(-0.000235014 0 -0.000623761)
(-0.000155177 0 -0.000566228)
(-9.64571e-05 0 -0.000453714)
(-5.93667e-05 0 -0.000410129)
(9.91379e-05 0 -0.000382694)
(0.000294954 0 -0.000154993)
(0.000235533 0 -0.00016865)
(0.00031074 0 -7.30142e-06)
(0.000289257 0 6.79341e-05)
(0.000232981 0 0.00016299)
(0.000126093 0 0.000212556)
(0.00038656 0 0.00021062)
(-0.000445844 0 0.000253677)
(6.03046e-06 0 0.000201111)
(-1.77016e-12 0 8.50917e-14)
(-4.29169e-12 0 -2.00465e-13)
(-3.28004e-12 0 -5.09214e-13)
(-3.13766e-12 0 -7.93235e-13)
(-2.94881e-12 0 -1.04797e-12)
(-2.71825e-12 0 -1.26899e-12)
(-2.4526e-12 0 -1.45238e-12)
(-2.15962e-12 0 -1.59517e-12)
(-1.84783e-12 0 -1.69565e-12)
(-1.52607e-12 0 -1.75365e-12)
(-1.20303e-12 0 -1.77054e-12)
(-8.86771e-13 0 -1.74916e-12)
(-5.84403e-13 0 -1.69353e-12)
(-3.0178e-13 0 -1.60858e-12)
(-4.3383e-14 0 -1.49972e-12)
(1.87692e-13 0 -1.3725e-12)
(3.89651e-13 0 -1.23235e-12)
(5.61848e-13 0 -1.08427e-12)
(7.04595e-13 0 -9.32754e-13)
(8.18962e-13 0 -7.81603e-13)
(9.06583e-13 0 -6.33959e-13)
(9.69476e-13 0 -4.92288e-13)
(1.00988e-12 0 -3.58421e-13)
(1.03014e-12 0 -2.33623e-13)
(1.03254e-12 0 -1.18657e-13)
(1.0193e-12 0 -1.38793e-14)
(9.92485e-13 0 8.06793e-14)
(9.53987e-13 0 1.65229e-13)
(9.0554e-13 0 2.40152e-13)
(8.48695e-13 0 3.05951e-13)
(7.84824e-13 0 3.63198e-13)
(7.15125e-13 0 4.12505e-13)
(6.40623e-13 0 4.54492e-13)
(5.62197e-13 0 4.8976e-13)
(4.80594e-13 0 5.18871e-13)
(3.96457e-13 0 5.42328e-13)
(3.10346e-13 0 5.60565e-13)
(2.22761e-13 0 5.73937e-13)
(1.34158e-13 0 5.82713e-13)
(4.48282e-14 0 5.87072e-13)
(-4.88932e-05 0 0.000348387)
(8.4166e-07 0 0.000398765)
(-3.10373e-05 0 0.000403473)
(-7.04197e-05 0 0.000402015)
(-8.40529e-05 0 0.000371248)
(-0.000118774 0 0.000291754)
(-7.14251e-05 0 0.000255219)
(-9.83356e-05 0 0.000218994)
(-9.20155e-05 0 0.000209222)
(-9.51502e-05 0 0.000204617)
(-0.000102336 0 0.000204235)
(-8.38499e-05 0 0.000221004)
(-5.5496e-05 0 0.000193481)
(-9.18737e-06 0 0.000199033)
(-1.96673e-05 0 0.000239257)
(-4.37146e-05 0 0.000258078)
(-6.63436e-05 0 0.00026987)
(-8.75376e-05 0 0.000268984)
(-0.000116444 0 0.000238761)
(-0.000171716 0 0.00017867)
(-0.000221176 0 0.000118059)
(-0.000348914 0 -4.41559e-05)
(-0.000448495 0 -0.00018861)
(-0.000523844 0 -0.000228725)
(-0.000612025 0 -0.000201064)
(-0.000674707 0 -0.000189455)
(-0.000702774 0 -0.000216502)
(-0.000716217 0 -0.000219068)
(-0.000710078 0 -0.000217724)
(-0.000683515 0 -0.000182249)
(-0.000661331 0 -0.000161433)
(-0.000626087 0 -0.000215739)
(-0.000592787 0 -0.000240311)
(-0.000576465 0 -0.00018039)
(-0.000545234 0 -0.000164747)
(-0.000493572 0 -0.000243154)
(-0.000451597 0 -0.000281247)
(-0.000391188 0 -0.00029393)
(-0.000362729 0 -0.00022431)
(-0.000357255 0 -0.000123464)
(-0.000326381 0 -0.000104627)
(-0.00032189 0 -1.4562e-05)
(-0.000298641 0 1.07986e-05)
(-0.000283109 0 4.2142e-05)
(-0.000264643 0 0.000107849)
(-0.000236806 0 0.000350766)
(-0.000224244 0 0.000461979)