0.010101 	-3.61942e-13 	8.08744e-16 	-4.73418e-15
0.020202 	-1.37093e-14 	3.36186e-17 	-2.63937e-16
