/*--------------------------------*- C++ -*----------------------------------*\
  =========                 |
  \\      /  F ield         | OpenFOAM: The Open Source CFD Toolbox
   \\    /   O peration     | Website:  https://openfoam.org
    \\  /    A nd           | Version:  6
     \\/     M anipulation  |
\*---------------------------------------------------------------------------*/
FoamFile
{
    version     2.0;
    format      ascii;
    class       surfaceScalarField;
    location    "1600";
    object      phi;
}
// * * * * * * * * * * * * * * * * * * * * * * * * * * * * * * * * * * * * * //

dimensions      [0 3 -1 0 0 0 0];

internalField   nonuniform List<scalar> 
9440
(
-4.2189e-10
4.2189e-10
-9.42403e-10
5.20514e-10
-1.22369e-09
2.81291e-10
-1.39977e-09
1.76074e-10
-1.63543e-09
2.35666e-10
-1.74542e-09
1.09984e-10
-1.85728e-09
1.11869e-10
-1.91734e-09
6.00552e-11
-1.93419e-09
1.68497e-11
-1.92889e-09
-5.3022e-12
-1.93159e-09
2.70073e-12
-1.92818e-09
-3.40118e-12
-1.91629e-09
-1.18933e-11
-1.84648e-09
-6.98133e-11
-1.63347e-09
-2.13009e-10
-1.48979e-09
-1.43679e-10
-1.29341e-09
-1.96375e-10
-9.96034e-10
-2.97378e-10
-8.12193e-10
-1.83841e-10
-5.60058e-10
-2.52134e-10
-3.7844e-11
-5.22213e-10
3.86966e-11
-7.65402e-11
3.29715e-10
-2.91018e-10
4.44e-10
-1.14284e-10
6.34527e-10
-1.90526e-10
8.2684e-10
-1.92312e-10
9.41034e-10
-1.14194e-10
1.13879e-09
-1.97758e-10
1.04078e-09
9.80146e-11
1.33693e-09
-2.96153e-10
1.50281e-09
-1.6588e-10
1.50697e-09
-4.1596e-12
1.52679e-09
-1.98166e-11
1.57415e-09
-4.73567e-11
1.59512e-09
-2.09706e-11
1.52426e-09
7.08619e-11
1.46266e-09
6.15933e-11
1.31505e-09
1.4761e-10
1.05603e-09
2.59024e-10
7.49153e-10
3.06877e-10
4.52349e-10
2.96805e-10
2.09093e-10
2.43256e-10
9.33577e-11
1.15736e-10
5.08965e-12
8.82687e-11
-1.01004e-10
1.06094e-10
-3.03213e-10
2.0221e-10
-5.87192e-10
2.8398e-10
-9.79231e-10
3.9204e-10
-1.20022e-09
2.20989e-10
-1.34113e-09
1.40913e-10
-1.41758e-09
7.64538e-11
-1.45963e-09
4.20507e-11
-1.50862e-09
4.89873e-11
-1.63447e-09
1.25847e-10
-1.76478e-09
1.30309e-10
-1.83946e-09
7.46786e-11
-1.90868e-09
6.92265e-11
-1.94269e-09
3.40058e-11
-1.93132e-09
-1.13665e-11
-1.91452e-09
-1.68033e-11
-1.90196e-09
-1.25527e-11
-1.95517e-09
5.32081e-11
-2.09947e-09
1.44301e-10
-2.26078e-09
1.61305e-10
-2.38146e-09
1.20679e-10
-2.43446e-09
5.29995e-11
-2.34231e-09
-9.21438e-11
-2.14289e-09
-1.99425e-10
-1.9893e-09
-1.53582e-10
-1.88035e-09
-1.08957e-10
-1.79443e-09
-8.59126e-11
-1.79819e-09
3.75964e-12
-1.76412e-09
-3.40709e-11
-1.7818e-09
1.76784e-11
-1.77155e-09
-1.02427e-11
-1.71677e-09
-5.47815e-11
-1.63525e-09
-8.15247e-11
-1.23584e-09
-3.99409e-10
-9.5655e-10
-2.79286e-10
-6.19261e-16
-9.56548e-10
-8.13929e-18
1.43892e-18
-8.88024e-18
7.40951e-19
-9.05885e-18
1.79712e-19
-8.92245e-18
-1.35016e-19
-8.59328e-18
-3.27649e-19
-8.13273e-18
-4.58903e-19
-7.57536e-18
-5.55639e-19
-6.9445e-18
-6.29069e-19
-6.25852e-18
-6.84138e-19
-5.53355e-18
-7.23121e-19
-4.78457e-18
-7.47125e-19
-4.02582e-18
-7.56928e-19
-3.27071e-18
-7.53332e-19
-2.5317e-18
-7.37313e-19
-1.82002e-18
-7.10056e-19
-1.14557e-18
-6.72935e-19
-5.16696e-19
-6.27469e-19
5.98421e-20
-5.75257e-19
5.78905e-19
-5.17916e-19
1.03693e-18
-4.57022e-19
1.43185e-18
-3.94058e-19
1.76293e-18
-3.30374e-19
2.03066e-18
-2.67164e-19
2.23653e-18
-2.05446e-19
2.38289e-18
-1.4606e-19
2.47275e-18
-8.9671e-20
2.50963e-18
-3.67804e-20
2.4974e-18
1.22593e-20
2.44015e-18
5.72254e-20
2.34207e-18
9.8004e-20
2.20739e-18
1.34569e-19
2.0403e-18
1.66962e-19
1.84488e-18
1.95272e-19
1.6251e-18
2.19623e-19
1.38478e-18
2.4015e-19
1.12762e-18
2.56993e-19
8.57159e-19
2.70286e-19
5.76841e-19
2.80141e-19
2.90017e-19
2.86646e-19
2.89839e-19
-5.38133e-10
9.60024e-10
-7.93422e-10
7.75804e-10
-1.04021e-09
5.28077e-10
-1.24968e-09
3.8555e-10
-1.4182e-09
4.04189e-10
-1.5815e-09
2.7328e-10
-1.65693e-09
1.873e-10
-1.76514e-09
1.68269e-10
-1.82991e-09
8.16164e-11
-1.88457e-09
4.93633e-11
-1.91779e-09
3.5915e-11
-1.93842e-09
1.72346e-11
-1.94431e-09
-6.00038e-12
-1.82497e-09
-1.89154e-10
-1.52047e-09
-5.1751e-10
-1.43585e-09
-2.28299e-10
-1.23894e-09
-3.93286e-10
-1.06842e-09
-4.67899e-10
-9.42729e-10
-3.09527e-10
-5.88234e-10
-6.06629e-10
-4.07058e-10
-7.03388e-10
-1.25291e-10
-3.58306e-10
9.34831e-11
-5.09792e-10
3.07537e-10
-3.28338e-10
5.31871e-10
-4.14859e-10
7.49965e-10
-4.10406e-10
9.32684e-10
-2.96913e-10
1.0932e-09
-3.58276e-10
1.18823e-09
2.98677e-12
1.37652e-09
-4.84436e-10
1.42648e-09
-2.15844e-10
1.47518e-09
-5.28629e-11
1.51962e-09
-6.42541e-11
1.59574e-09
-1.23475e-10
1.63372e-09
-5.89444e-11
1.59745e-09
1.07128e-10
1.56585e-09
9.32001e-11
1.53978e-09
1.73674e-10
1.41797e-09
3.80835e-10
1.24165e-09
4.832e-10
1.00532e-09
5.33136e-10
7.28002e-10
5.20578e-10
3.85003e-10
4.58736e-10
9.65856e-11
3.76687e-10
-1.77865e-10
3.80545e-10
-4.3899e-10
4.63336e-10
-6.72222e-10
5.17213e-10
-7.67437e-10
4.87255e-10
-9.01621e-10
3.55174e-10
-9.71517e-10
2.1081e-10
-9.88925e-10
9.38627e-11
-1.1164e-09
1.69528e-10
-1.26304e-09
1.95627e-10
-1.32961e-09
1.92415e-10
-1.36157e-09
1.62275e-10
-1.37581e-09
8.891e-11
-1.36642e-09
5.98455e-11
-1.34107e-09
8.65039e-12
-1.28742e-09
-6.50185e-11
-1.26249e-09
-4.1732e-11
-1.29347e-09
1.84318e-11
-1.40534e-09
1.65075e-10
-1.54137e-09
2.80337e-10
-1.64071e-09
2.60645e-10
-1.68471e-09
1.64681e-10
-1.63901e-09
7.29246e-12
-1.52991e-09
-2.0124e-10
-1.47719e-09
-2.5214e-10
-1.42195e-09
-2.08822e-10
-1.32698e-09
-2.03928e-10
-1.18543e-09
-2.27461e-10
-1.14713e-09
-3.45379e-11
-1.02323e-09
-1.5797e-10
-9.50355e-10
-5.51962e-11
-8.49805e-10
-1.10791e-10
-8.80919e-10
-2.36652e-11
-9.10931e-10
-5.15109e-11
-9.06403e-10
-4.03935e-10
-5.3986e-10
-6.45827e-10
-4.62789e-16
-1.49641e-09
-9.10941e-18
3.01358e-18
-9.44493e-18
1.0777e-18
-9.37626e-18
1.13432e-19
-9.11696e-18
-3.91613e-19
-8.72557e-18
-7.16133e-19
-8.22967e-18
-9.51751e-19
-7.64877e-18
-1.13336e-18
-6.99957e-18
-1.27503e-18
-6.29751e-18
-1.38293e-18
-5.55755e-18
-1.45982e-18
-4.79437e-18
-1.5071e-18
-4.02222e-18
-1.52596e-18
-3.2547e-18
-1.51787e-18
-2.50444e-18
-1.48473e-18
-1.7829e-18
-1.42893e-18
-1.1001e-18
-1.35327e-18
-4.64484e-19
-1.26084e-18
1.17183e-19
-1.15491e-18
6.39799e-19
-1.03877e-18
1.0999e-18
-9.15611e-19
1.49553e-18
-7.88438e-19
1.82614e-18
-6.59978e-19
2.09237e-18
-5.32628e-19
2.29591e-18
-4.08429e-19
2.43928e-18
-2.89058e-19
2.52564e-18
-1.75832e-19
2.55867e-18
-6.97409e-20
2.54237e-18
2.85293e-20
2.48093e-18
1.18551e-19
2.37863e-18
2.00117e-19
2.23979e-18
2.73192e-19
2.06861e-18
3.37879e-19
1.86923e-18
3.94374e-19
1.64563e-18
4.42933e-19
1.40163e-18
4.83844e-19
1.14091e-18
5.17399e-19
8.67014e-19
5.43869e-19
5.83345e-19
5.63494e-19
2.93211e-19
5.76462e-19
5.82911e-19
-3.29084e-10
1.28911e-09
-6.05594e-10
1.05231e-09
-8.82971e-10
8.05455e-10
-1.07501e-09
5.77594e-10
-1.25376e-09
5.82936e-10
-1.40151e-09
4.2103e-10
-1.54949e-09
3.35283e-10
-1.67117e-09
2.8995e-10
-1.80203e-09
2.12472e-10
-1.86887e-09
1.16209e-10
-1.91456e-09
8.16015e-11
-1.92133e-09
2.401e-11
-1.85694e-09
-7.03913e-11
-1.76318e-09
-2.82918e-10
-1.68565e-09
-5.9504e-10
-1.50928e-09
-4.04663e-10
-1.36495e-09
-5.37619e-10
-1.22958e-09
-6.03269e-10
-9.90599e-10
-5.48507e-10
-7.14464e-10
-8.82764e-10
-6.87515e-10
-7.30336e-10
-3.98819e-10
-6.47001e-10
-2.19601e-10
-6.89009e-10
1.5523e-10
-7.03168e-10
3.88108e-10
-6.47737e-10
5.14518e-10
-5.36815e-10
6.69772e-10
-4.52166e-10
7.48649e-10
-4.37152e-10
9.86087e-10
-2.34451e-10
9.63679e-10
-4.62027e-10
1.10785e-09
-3.60016e-10
1.21431e-09
-1.59323e-10
1.31428e-09
-1.64224e-10
1.32403e-09
-1.33217e-10
1.35583e-09
-9.0745e-11
1.40791e-09
5.50464e-11
1.41761e-09
8.35047e-11
1.44013e-09
1.51152e-10
1.44301e-09
3.77958e-10
1.35201e-09
5.74202e-10
1.2152e-09
6.6994e-10
9.48806e-10
7.86974e-10
5.71775e-10
8.35769e-10
2.35471e-10
7.12992e-10
-6.15132e-12
6.22168e-10
-9.57092e-11
5.52895e-10
-2.01196e-10
6.227e-10
-2.79072e-10
5.65132e-10
-3.85841e-10
4.61943e-10
-5.3668e-10
3.6165e-10
-6.95987e-10
2.53171e-10
-7.33054e-10
2.06596e-10
-7.03527e-10
1.66101e-10
-6.84447e-10
1.73335e-10
-7.58457e-10
2.36285e-10
-8.4379e-10
1.74244e-10
-8.91173e-10
1.07229e-10
-8.96793e-10
1.42712e-11
-8.53387e-10
-1.08425e-10
-8.03417e-10
-9.17017e-11
-7.95554e-10
1.05688e-11
-8.19773e-10
1.89295e-10
-8.51725e-10
3.12289e-10
-8.79665e-10
2.88586e-10
-9.23231e-10
2.08247e-10
-9.62775e-10
4.68371e-11
-1.05476e-09
-1.09256e-10
-1.12126e-09
-1.85638e-10
-1.13716e-09
-1.92917e-10
-1.09512e-09
-2.45975e-10
-9.50146e-10
-3.72431e-10
-8.21989e-10
-1.62694e-10
-5.14805e-10
-4.65153e-10
-2.19298e-10
-3.50702e-10
1.28404e-10
-4.58492e-10
3.54228e-10
-2.49487e-10
6.74941e-10
-3.72223e-10
5.9692e-10
-3.25912e-10
7.03629e-11
-1.19269e-10
-4.30313e-16
-1.42604e-09
-1.15523e-17
-1.25701e-18
-1.04086e-17
-6.49837e-20
-9.8808e-18
-4.12413e-19
-9.441e-18
-8.29152e-19
-8.96073e-18
-1.19398e-18
-8.41083e-18
-1.49909e-18
-7.7903e-18
-1.75123e-18
-7.10747e-18
-1.95514e-18
-6.37439e-18
-2.11325e-18
-5.60483e-18
-2.22663e-18
-4.81323e-18
-2.29596e-18
-4.01413e-18
-2.3224e-18
-3.22156e-18
-2.30787e-18
-2.44864e-18
-2.2552e-18
-1.70724e-18
-2.16803e-18
-1.00768e-18
-2.05069e-18
-3.58553e-19
-1.908e-18
2.33326e-19
-1.74502e-18
7.62958e-19
-1.56682e-18
1.22707e-18
-1.37835e-18
1.62399e-18
-1.18419e-18
1.95349e-18
-9.88514e-19
2.21657e-18
-7.94949e-19
2.41529e-18
-6.06569e-19
2.5525e-18
-4.25874e-19
2.63173e-18
-2.54815e-19
2.65694e-18
-9.48294e-20
2.63239e-18
5.31e-20
2.56249e-18
1.88386e-19
2.45171e-18
3.1077e-19
2.30447e-18
4.20254e-19
2.12511e-18
5.17036e-19
1.91779e-18
6.01456e-19
1.68654e-18
6.73937e-19
1.43518e-18
7.34941e-19
1.16738e-18
7.84932e-19
8.86639e-19
8.24342e-19
5.96314e-19
8.53545e-19
2.9966e-19
8.72841e-19
8.82436e-19
-2.13891e-10
1.503e-09
-4.70837e-10
1.30926e-09
-8.02431e-10
1.13705e-09
-1.08854e-09
8.63701e-10
-1.2284e-09
7.22794e-10
-1.31973e-09
5.12363e-10
-1.52598e-09
5.41531e-10
-1.65893e-09
4.22906e-10
-1.76902e-09
3.2256e-10
-1.86412e-09
2.11317e-10
-1.91242e-09
1.29898e-10
-1.93025e-09
4.18421e-11
-1.7966e-09
-2.0404e-10
-1.7039e-09
-3.75616e-10
-1.73947e-09
-5.59473e-10
-1.50556e-09
-6.38573e-10
-1.37786e-09
-6.65312e-10
-1.22971e-09
-7.51419e-10
-1.02963e-09
-7.48593e-10
-8.01419e-10
-1.11097e-09
-6.74777e-10
-8.56978e-10
-4.30929e-10
-8.90848e-10
-2.6974e-10
-8.50198e-10
-8.03041e-11
-8.92603e-10
4.97455e-11
-7.77786e-10
2.0405e-10
-6.91119e-10
3.43542e-10
-5.91658e-10
4.31062e-10
-5.24671e-10
6.52787e-10
-4.56176e-10
6.308e-10
-4.40039e-10
6.67288e-10
-3.96504e-10
8.37896e-10
-3.2993e-10
9.79432e-10
-3.0576e-10
9.96408e-10
-1.50193e-10
9.69617e-10
-6.39534e-11
1.04036e-09
-1.56959e-11
1.16717e-09
-4.33009e-11
1.26558e-09
5.27388e-11
1.32641e-09
3.17128e-10
1.29639e-09
6.04227e-10
1.21008e-09
7.56248e-10
1.02851e-09
9.6855e-10
7.84149e-10
1.08013e-09
4.58107e-10
1.03904e-09
1.82998e-10
8.97277e-10
6.4733e-11
6.71161e-10
-3.37022e-11
7.21136e-10
-1.75873e-10
7.07304e-10
-3.80909e-10
6.6698e-10
-5.66901e-10
5.47643e-10
-6.53133e-10
3.39403e-10
-6.30077e-10
1.83541e-10
-4.89676e-10
2.57002e-11
-3.21956e-10
5.61593e-12
-1.9129e-10
1.05619e-10
-9.10494e-11
7.40038e-11
-9.26913e-11
1.08871e-10
-1.96452e-10
1.18032e-10
-3.66891e-10
6.20145e-11
-5.01463e-10
4.28711e-11
-5.93062e-10
1.02168e-10
-6.78362e-10
2.74594e-10
-7.5391e-10
3.87838e-10
-8.14306e-10
3.48982e-10
-8.86015e-10
2.79957e-10
-9.60839e-10
1.21662e-10
-1.07588e-09
5.78326e-12
-1.19116e-09
-7.03582e-11
-1.21323e-09
-1.70838e-10
-1.11199e-09
-3.47223e-10
-9.41478e-10
-5.42938e-10
-6.96082e-10
-4.08088e-10
-4.31549e-10
-7.29685e-10
-1.4152e-10
-6.40729e-10
6.63316e-11
-6.66343e-10
1.34297e-10
-3.17451e-10
2.68337e-10
-5.06262e-10
2.52261e-10
-3.09834e-10
1.03177e-11
1.22676e-10
-4.01138e-16
-1.41572e-09
-1.10761e-17
-5.95319e-19
-1.07556e-17
-3.84562e-19
-1.02971e-17
-8.69059e-19
-9.80538e-18
-1.31873e-18
-9.26541e-18
-1.73167e-18
-8.66257e-18
-2.09953e-18
-7.99408e-18
-2.41722e-18
-7.26558e-18
-2.68106e-18
-6.48777e-18
-2.88845e-18
-5.67416e-18
-3.03761e-18
-4.83967e-18
-3.12785e-18
-3.9996e-18
-3.15993e-18
-3.16888e-18
-3.13613e-18
-2.36147e-18
-3.06025e-18
-1.58991e-18
-2.93736e-18
-8.64989e-19
-2.77353e-18
-1.95567e-19
-2.5755e-18
4.11521e-19
-2.35034e-18
9.51435e-19
-2.10515e-18
1.42123e-18
-1.84673e-18
1.81967e-18
-1.58141e-18
2.14705e-18
-1.31486e-18
2.40495e-18
-1.052e-18
2.59598e-18
-7.96932e-19
2.72356e-18
-5.52967e-19
2.79172e-18
-3.22643e-19
2.80487e-18
-1.07793e-19
2.76768e-18
9.03706e-20
2.68487e-18
2.71169e-19
2.56119e-18
4.34359e-19
2.40126e-18
5.80043e-19
2.20953e-18
7.08578e-19
1.99027e-18
8.20496e-19
1.74754e-18
9.16431e-19
1.48517e-18
9.97061e-19
1.20679e-18
1.06306e-18
9.15842e-19
1.11503e-18
6.15609e-19
1.15351e-18
3.09256e-19
1.17893e-18
1.19156e-18
-2.09358e-10
1.71236e-09
-4.43317e-10
1.54322e-09
-6.46802e-10
1.34054e-09
-9.44748e-10
1.16165e-09
-1.18444e-09
9.62489e-10
-1.39834e-09
7.26259e-10
-1.49307e-09
6.3626e-10
-1.6199e-09
5.49743e-10
-1.71755e-09
4.20203e-10
-1.81363e-09
3.07404e-10
-1.86437e-09
1.8064e-10
-1.86014e-09
3.76134e-11
-1.77897e-09
-2.85208e-10
-1.70664e-09
-4.47948e-10
-1.67896e-09
-5.87157e-10
-1.58664e-09
-7.30889e-10
-1.37345e-09
-8.78502e-10
-1.25971e-09
-8.65155e-10
-1.07176e-09
-9.36543e-10
-1.08549e-09
-1.09724e-09
-9.20898e-10
-1.02157e-09
-7.59254e-10
-1.05249e-09
-6.04667e-10
-1.00478e-09
-4.77486e-10
-1.01978e-09
-3.23461e-10
-9.31809e-10
-1.2716e-10
-8.87419e-10
4.80999e-12
-7.23627e-10
1.32646e-10
-6.52506e-10
3.37305e-10
-6.60835e-10
4.08721e-10
-5.11453e-10
4.15011e-10
-4.02792e-10
4.77095e-10
-3.92014e-10
5.18625e-10
-3.47288e-10
6.06495e-10
-2.38062e-10
6.93314e-10
-1.50771e-10
8.01396e-10
-1.23778e-10
9.60847e-10
-2.02752e-10
1.039e-09
-2.54141e-11
1.12291e-09
2.33224e-10
1.16316e-09
5.63973e-10
1.11109e-09
8.08322e-10
1.02904e-09
1.0506e-09
8.99768e-10
1.2094e-09
6.88242e-10
1.25056e-09
4.44986e-10
1.14053e-09
1.94175e-10
9.21973e-10
1.38337e-10
7.76975e-10
7.12814e-11
7.74361e-10
5.04894e-11
6.87772e-10
-7.53048e-12
6.05663e-10
-1.00562e-10
4.32435e-10
-1.44192e-10
2.27172e-10
-2.46568e-10
1.28077e-10
-2.5837e-10
1.74178e-11
-1.33802e-10
-1.89479e-11
-9.54003e-12
-5.02582e-11
1.08737e-11
8.84579e-11
-1.14815e-10
2.43721e-10
-3.18549e-10
2.65749e-10
-5.21687e-10
2.4601e-10
-6.85818e-10
2.663e-10
-7.56258e-10
3.45035e-10
-8.1691e-10
4.4849e-10
-8.93233e-10
4.25305e-10
-9.82438e-10
3.69162e-10
-1.05816e-09
1.97387e-10
-1.17527e-09
1.22891e-10
-1.2906e-09
4.49699e-11
-1.17161e-09
-2.89822e-10
-1.06734e-09
-4.51498e-10
-9.69459e-10
-6.40813e-10
-6.83598e-10
-6.93948e-10
-5.0353e-10
-9.09751e-10
-1.94261e-10
-9.49997e-10
-4.7823e-11
-8.1278e-10
-4.63969e-11
-3.18876e-10
6.73539e-11
-6.20011e-10
1.4192e-10
-3.84399e-10
7.27101e-11
1.91887e-10
-3.8658e-16
-1.34301e-09
-1.17276e-17
-1.30717e-18
-1.12397e-17
-8.71632e-19
-1.07463e-17
-1.36061e-18
-1.02179e-17
-1.84511e-18
-9.63289e-18
-2.31456e-18
-8.97991e-18
-2.75023e-18
-8.25781e-18
-3.13695e-18
-7.47297e-18
-3.46345e-18
-6.63694e-18
-3.72199e-18
-5.76441e-18
-3.90763e-18
-4.87174e-18
-4.01801e-18
-3.97581e-18
-4.0534e-18
-3.093e-18
-4.01654e-18
-2.23858e-18
-3.91237e-18
-1.42608e-18
-3.74768e-18
-6.6696e-19
-3.53059e-18
2.95879e-20
-3.27013e-18
6.56717e-19
-2.9757e-18
1.20986e-18
-2.65667e-18
1.68655e-18
-2.32195e-18
2.08622e-18
-1.97978e-18
2.40992e-18
-1.63742e-18
2.66002e-18
-1.30114e-18
2.83994e-18
-9.7608e-19
2.95389e-18
-6.6631e-19
3.00657e-18
-3.74896e-19
3.00304e-18
-1.03984e-19
2.94847e-18
1.45079e-19
2.84806e-18
3.71617e-19
2.70688e-18
5.75499e-19
2.52979e-18
7.57016e-19
2.32144e-18
9.16762e-19
2.08621e-18
1.05553e-18
1.82817e-18
1.17424e-18
1.55117e-18
1.27383e-18
1.25877e-18
1.35521e-18
9.54326e-19
1.41921e-18
6.41022e-19
1.46655e-18
3.21889e-19
1.49779e-18
1.51332e-18
-2.05952e-10
1.91831e-09
-3.97031e-10
1.7343e-09
-5.73963e-10
1.51747e-09
-8.40542e-10
1.42823e-09
-1.05996e-09
1.18191e-09
-1.32784e-09
9.94144e-10
-1.45312e-09
7.61538e-10
-1.55329e-09
6.49911e-10
-1.70739e-09
5.74308e-10
-1.75141e-09
3.51422e-10
-1.76407e-09
1.93304e-10
-1.74778e-09
2.13223e-11
-1.75373e-09
-2.79259e-10
-1.69186e-09
-5.09812e-10
-1.63835e-09
-6.40667e-10
-1.59136e-09
-7.77881e-10
-1.47804e-09
-9.91824e-10
-1.3773e-09
-9.65892e-10
-1.2453e-09
-1.06855e-09
-1.20455e-09
-1.13798e-09
-1.12704e-09
-1.09909e-09
-1.0526e-09
-1.12693e-09
-8.77944e-10
-1.17944e-09
-7.9803e-10
-1.0997e-09
-6.85617e-10
-1.04422e-09
-6.678e-10
-9.05236e-10
-6.56765e-10
-7.34662e-10
-5.57734e-10
-7.51536e-10
-2.64147e-10
-9.54421e-10
-2.35223e-11
-7.52077e-10
1.55212e-10
-5.81526e-10
2.25504e-10
-4.62306e-10
2.64576e-10
-3.86359e-10
3.24157e-10
-2.97643e-10
4.5299e-10
-2.79603e-10
5.98458e-10
-2.69245e-10
6.70937e-10
-2.75229e-10
6.98123e-10
-5.25998e-11
7.63478e-10
1.67871e-10
8.86309e-10
4.41143e-10
9.7069e-10
7.23941e-10
1.01931e-09
1.00199e-09
9.88824e-10
1.23988e-09
8.69301e-10
1.37009e-09
6.7142e-10
1.33842e-09
4.33784e-10
1.15961e-09
2.88904e-10
9.21856e-10
2.34959e-10
8.28306e-10
2.22177e-10
7.00556e-10
1.99739e-10
6.28101e-10
1.48114e-10
4.84061e-10
8.65626e-11
2.88724e-10
-4.06421e-11
2.55282e-10
-1.48597e-10
1.25373e-10
-5.42689e-11
-1.13276e-10
2.21964e-11
-1.26723e-10
-7.17948e-12
1.17834e-10
-1.33699e-10
3.70241e-10
-3.09962e-10
4.42012e-10
-5.09392e-10
4.4544e-10
-7.36365e-10
4.93273e-10
-8.89658e-10
4.98328e-10
-9.37508e-10
4.96341e-10
-9.97899e-10
4.85697e-10
-1.05881e-09
4.30077e-10
-1.08043e-09
2.19002e-10
-1.09695e-09
1.3941e-10
-1.0799e-09
2.79202e-11
-9.38657e-10
-4.31062e-10
-8.46058e-10
-5.44097e-10
-6.83844e-10
-8.03026e-10
-4.87918e-10
-8.89874e-10
-4.39275e-10
-9.58392e-10
-4.34023e-10
-9.55248e-10
-3.25014e-10
-9.21788e-10
-3.00548e-10
-3.43341e-10
-4.00676e-10
-5.19883e-10
-5.21764e-10
-2.6331e-10
-1.33455e-10
-1.96421e-10
-3.821e-16
-1.47647e-09
-1.22771e-17
-2.33658e-18
-1.17282e-17
-1.4197e-18
-1.12304e-17
-1.85669e-18
-1.0687e-17
-2.38662e-18
-1.00682e-17
-2.93129e-18
-9.36634e-18
-3.44993e-18
-8.58422e-18
-3.91678e-18
-7.73152e-18
-4.31379e-18
-6.82258e-18
-4.62852e-18
-5.87479e-18
-4.85298e-18
-4.90713e-18
-4.98322e-18
-3.93894e-18
-5.01917e-18
-2.98884e-18
-4.96429e-18
-2.07388e-18
-4.82505e-18
-1.20899e-18
-4.6104e-18
-4.06499e-19
-4.33104e-18
3.24015e-19
-3.99873e-18
9.75754e-19
-3.62566e-18
1.54457e-18
-3.22383e-18
2.02872e-18
-2.80459e-18
2.42857e-18
-2.37825e-18
2.7462e-18
-1.95383e-18
2.98508e-18
-1.53896e-18
3.14971e-18
-1.13982e-18
3.2453e-18
-7.61177e-19
3.27748e-18
-4.06533e-19
3.2521e-18
-7.82237e-20
3.17501e-18
2.22397e-19
3.05195e-18
4.94789e-19
2.88839e-18
7.3906e-19
2.68954e-18
9.55801e-19
2.46022e-18
1.14595e-18
2.20491e-18
1.31066e-18
1.92776e-18
1.45119e-18
1.63255e-18
1.56881e-18
1.32277e-18
1.66474e-18
1.00167e-18
1.74006e-18
6.72263e-19
1.7957e-18
3.37412e-19
1.83238e-18
1.8506e-18
-2.79447e-10
2.19776e-09
-6.18826e-10
2.07368e-09
-8.61104e-10
1.75975e-09
-9.79149e-10
1.54627e-09
-1.09048e-09
1.29324e-09
-1.24166e-09
1.14533e-09
-1.3999e-09
9.19775e-10
-1.48957e-09
7.39579e-10
-1.59599e-09
6.80736e-10
-1.66248e-09
4.1791e-10
-1.71128e-09
2.42099e-10
-1.70263e-09
1.26811e-11
-1.70861e-09
-2.73283e-10
-1.6144e-09
-6.04019e-10
-1.57893e-09
-6.76135e-10
-1.53043e-09
-8.26383e-10
-1.5817e-09
-9.40554e-10
-1.50736e-09
-1.04023e-09
-1.45011e-09
-1.1258e-09
-1.42235e-09
-1.16574e-09
-1.35234e-09
-1.1691e-09
-1.30166e-09
-1.1776e-09
-1.09597e-09
-1.38513e-09
-1.02621e-09
-1.16946e-09
-8.60871e-10
-1.20956e-09
-6.78487e-10
-1.08762e-09
-4.59515e-10
-9.53633e-10
-2.95849e-10
-9.15201e-10
-5.66653e-10
-6.83617e-10
-6.59924e-10
-6.58805e-10
-5.04254e-10
-7.37194e-10
-2.9791e-10
-6.68649e-10
-7.16395e-11
-6.12629e-10
1.24599e-10
-4.9388e-10
2.20688e-10
-3.75691e-10
3.44358e-10
-3.92914e-10
3.90518e-10
-3.21388e-10
4.96426e-10
-1.58507e-10
6.21665e-10
4.26326e-11
7.32817e-10
3.29992e-10
8.3758e-10
6.19179e-10
9.5041e-10
8.89157e-10
9.8987e-10
1.20042e-09
9.1771e-10
1.44225e-09
8.16227e-10
1.4399e-09
6.20061e-10
1.35578e-09
4.3662e-10
1.1053e-09
3.75872e-10
8.89055e-10
3.26272e-10
7.50156e-10
3.02329e-10
6.52044e-10
2.66614e-10
5.19776e-10
1.30154e-10
4.25185e-10
2.18049e-12
3.83256e-10
-6.53295e-11
1.92884e-10
7.2437e-12
-1.85849e-10
1.67863e-11
-1.36265e-10
-9.32872e-11
2.27908e-10
-2.30878e-10
5.07832e-10
-3.73506e-10
5.84639e-10
-5.38927e-10
6.10861e-10
-6.89017e-10
6.43363e-10
-8.39105e-10
6.48417e-10
-9.13058e-10
5.70293e-10
-9.63079e-10
5.35719e-10
-9.69753e-10
4.36752e-10
-9.75757e-10
2.25007e-10
-9.58882e-10
1.22536e-10
-9.09804e-10
-2.11575e-11
-8.6105e-10
-4.79814e-10
-7.11153e-10
-6.93993e-10
-6.063e-10
-9.07878e-10
-5.85349e-10
-9.10823e-10
-5.57922e-10
-9.85819e-10
-4.76411e-10
-1.03676e-09
-3.3988e-10
-1.05832e-09
-2.70796e-10
-4.12423e-10
-1.6844e-10
-6.22238e-10
-4.08646e-11
-3.90883e-10
2.11483e-10
-4.48767e-10
-3.87903e-16
-1.26498e-09
-1.24197e-17
-2.34548e-18
-1.21649e-17
-1.67379e-18
-1.176e-17
-2.25984e-18
-1.12314e-17
-2.91338e-18
-1.05866e-17
-3.57405e-18
-9.83294e-18
-4.20145e-18
-8.98115e-18
-4.76632e-18
-8.04625e-18
-5.24637e-18
-7.04704e-18
-5.62535e-18
-6.00503e-18
-5.89257e-18
-4.94309e-18
-6.04274e-18
-3.88406e-18
-6.0758e-18
-2.8496e-18
-5.99639e-18
-1.85923e-18
-5.81314e-18
-9.29625e-19
-5.53783e-18
-7.41902e-20
-5.18441e-18
6.97084e-19
-4.76807e-18
1.37758e-18
-4.30436e-18
1.96381e-18
-3.80839e-18
2.45507e-18
-3.29431e-18
2.85299e-18
-2.77474e-18
3.16107e-18
-2.26061e-18
3.38423e-18
-1.76095e-18
3.52835e-18
-1.28293e-18
3.59994e-18
-8.31927e-19
3.60579e-18
-4.11716e-19
3.55272e-18
-2.46638e-20
3.44741e-18
3.28041e-19
3.29622e-18
6.46165e-19
3.10514e-18
9.30213e-19
2.87969e-18
1.18123e-18
2.62493e-18
1.40062e-18
2.34544e-18
1.59e-18
2.04538e-18
1.75107e-18
1.72847e-18
1.88551e-18
1.39809e-18
1.99489e-18
1.05731e-18
2.0806e-18
7.08944e-19
2.14382e-18
3.55629e-19
2.18545e-18
2.20611e-18
-3.27296e-10
2.52505e-09
-6.35873e-10
2.38226e-09
-8.6949e-10
1.99336e-09
-9.78593e-10
1.65538e-09
-1.06017e-09
1.37481e-09
-1.12112e-09
1.20629e-09
-1.25899e-09
1.05764e-09
-1.33938e-09
8.19971e-10
-1.36454e-09
7.0589e-10
-1.52731e-09
5.80684e-10
-1.62338e-09
3.38172e-10
-1.6337e-09
2.29975e-11
-1.57771e-09
-3.29269e-10
-1.62182e-09
-5.59914e-10
-1.6656e-09
-6.32348e-10
-1.64286e-09
-8.49127e-10
-1.68159e-09
-9.01822e-10
-1.67747e-09
-1.04435e-09
-1.6771e-09
-1.12617e-09
-1.68052e-09
-1.16232e-09
-1.5745e-09
-1.27512e-09
-1.46295e-09
-1.28915e-09
-1.52999e-09
-1.31809e-09
-1.58235e-09
-1.11709e-09
-1.58383e-09
-1.20808e-09
-1.55596e-09
-1.11548e-09
-1.57008e-09
-9.39516e-10
-1.52635e-09
-9.58929e-10
-1.37807e-09
-8.31893e-10
-1.32557e-09
-7.11308e-10
-1.17447e-09
-8.88291e-10
-1.05714e-09
-7.85982e-10
-8.43555e-10
-8.26211e-10
-5.22836e-10
-8.14599e-10
-2.87932e-10
-6.10594e-10
-1.346e-11
-6.67385e-10
1.60398e-10
-4.95245e-10
3.05019e-10
-3.03127e-10
4.78159e-10
-1.30507e-10
6.57634e-10
1.50518e-10
8.23358e-10
4.53455e-10
8.77584e-10
8.34932e-10
8.82873e-10
1.19513e-09
8.64492e-10
1.46063e-09
8.28411e-10
1.47598e-09
7.66506e-10
1.41768e-09
6.02051e-10
1.26975e-09
5.1188e-10
9.79227e-10
4.34831e-10
8.27206e-10
3.29773e-10
7.57103e-10
2.14209e-10
6.35341e-10
2.58489e-11
6.13545e-10
-2.0483e-11
4.29588e-10
-1.61435e-11
1.88545e-10
3.25301e-11
-2.34522e-10
-4.58399e-12
-9.91511e-11
-1.61985e-10
3.85309e-10
-3.26348e-10
6.72196e-10
-5.00461e-10
7.58752e-10
-6.83013e-10
7.93414e-10
-7.85723e-10
7.46073e-10
-8.0231e-10
6.65004e-10
-7.99976e-10
5.6796e-10
-8.39946e-10
5.75689e-10
-8.25369e-10
4.22175e-10
-8.13239e-10
2.12877e-10
-7.95211e-10
1.04509e-10
-7.56087e-10
-6.02807e-11
-6.18697e-10
-6.17203e-10
-5.70094e-10
-7.42596e-10
-6.08334e-10
-8.69638e-10
-6.14701e-10
-9.04455e-10
-6.30325e-10
-9.70194e-10
-5.19462e-10
-1.14762e-09
-3.89572e-10
-1.18821e-09
-1.6047e-10
-6.41524e-10
2.55068e-10
-1.03778e-09
6.21517e-10
-7.57331e-10
4.90942e-10
-3.18191e-10
-4.00528e-16
-7.74038e-10
-1.28564e-17
-2.22176e-18
-1.27506e-17
-1.77886e-18
-1.24133e-17
-2.59544e-18
-1.18918e-17
-3.43297e-18
-1.12138e-17
-4.25001e-18
-1.03976e-17
-5.01545e-18
-9.46115e-18
-5.70052e-18
-8.42523e-18
-6.27994e-18
-7.31425e-18
-6.73392e-18
-6.1552e-18
-7.04917e-18
-4.97615e-18
-7.21933e-18
-3.80465e-18
-7.24485e-18
-2.66636e-18
-7.13226e-18
-1.58392e-18
-6.89323e-18
-5.76205e-19
-6.54331e-18
3.4215e-19
-6.10066e-18
1.1608e-18
-5.58475e-18
1.87354e-18
-5.01526e-18
2.4779e-18
-4.41105e-18
2.97463e-18
-3.78946e-18
3.36711e-18
-3.16576e-18
3.66073e-18
-2.55287e-18
3.86225e-18
-1.96124e-18
3.97936e-18
-1.39893e-18
4.02016e-18
-8.71774e-19
3.99284e-18
-3.83621e-19
3.90542e-18
6.33577e-20
3.76553e-18
4.68369e-19
3.58027e-18
8.31706e-19
3.35615e-18
1.15447e-18
3.09908e-18
1.43834e-18
2.81431e-18
1.68534e-18
2.50652e-18
1.89768e-18
2.17982e-18
2.0776e-18
1.83785e-18
2.22729e-18
1.4838e-18
2.34872e-18
1.12053e-18
2.44365e-18
7.50573e-19
2.51353e-18
3.76287e-19
2.55949e-18
2.58227e-18
-2.7644e-10
2.80149e-09
-5.04299e-10
2.61012e-09
-6.51214e-10
2.14028e-09
-7.61144e-10
1.76531e-09
-8.92182e-10
1.50585e-09
-1.00371e-09
1.31782e-09
-1.13138e-09
1.18531e-09
-1.26412e-09
9.52708e-10
-1.24193e-09
6.83705e-10
-1.24662e-09
5.85378e-10
-1.34946e-09
4.41011e-10
-1.47831e-09
1.51842e-10
-1.53016e-09
-2.77416e-10
-1.65336e-09
-4.36709e-10
-1.65646e-09
-6.29251e-10
-1.69599e-09
-8.09594e-10
-1.74245e-09
-8.55365e-10
-1.76005e-09
-1.02675e-09
-1.81168e-09
-1.07453e-09
-1.81943e-09
-1.15458e-09
-1.86007e-09
-1.23448e-09
-1.90456e-09
-1.24466e-09
-1.94138e-09
-1.28126e-09
-1.84179e-09
-1.21669e-09
-1.95166e-09
-1.0982e-09
-1.98476e-09
-1.08238e-09
-1.92516e-09
-9.99117e-10
-1.95582e-09
-9.28268e-10
-1.8599e-09
-9.27811e-10
-1.93326e-09
-6.37949e-10
-1.73705e-09
-1.08451e-09
-1.62843e-09
-8.94596e-10
-1.4897e-09
-9.64941e-10
-1.07971e-09
-1.22458e-09
-8.35961e-10
-8.54346e-10
-4.18451e-10
-1.08489e-09
-2.12889e-10
-7.00807e-10
1.12838e-11
-5.27299e-10
1.77018e-10
-2.9624e-10
3.75767e-10
-4.82309e-11
5.46777e-10
2.82447e-10
6.99634e-10
6.82075e-10
8.24355e-10
1.07041e-09
8.20335e-10
1.46465e-09
7.9748e-10
1.49884e-09
7.83504e-10
1.43166e-09
7.4939e-10
1.30387e-09
6.62058e-10
1.06656e-09
5.31191e-10
9.58074e-10
4.3292e-10
8.55374e-10
3.11705e-10
7.56557e-10
3.0396e-10
6.2129e-10
3.1851e-10
4.15039e-10
2.48092e-10
2.58962e-10
1.01172e-10
-8.76018e-11
-1.21487e-10
1.23508e-10
-2.81682e-10
5.45504e-10
-4.36347e-10
8.26861e-10
-5.42824e-10
8.65229e-10
-6.57161e-10
9.07751e-10
-7.55776e-10
8.44688e-10
-7.92e-10
7.01228e-10
-7.23551e-10
4.99511e-10
-6.5992e-10
5.12059e-10
-6.48332e-10
4.10587e-10
-6.37989e-10
2.02534e-10
-5.87784e-10
5.43046e-11
-5.21253e-10
-1.26811e-10
-4.87035e-10
-6.5142e-10
-5.03032e-10
-7.26598e-10
-4.91538e-10
-8.81131e-10
-4.77486e-10
-9.18507e-10
-5.43806e-10
-9.03873e-10
-5.01921e-10
-1.1895e-09
-3.87852e-10
-1.30228e-09
-2.45726e-11
-1.0048e-09
2.2511e-10
-1.28746e-09
4.52338e-10
-9.84557e-10
3.664e-10
-2.32251e-10
-4.11805e-16
-4.07637e-10
-1.35352e-17
-1.33272e-18
-1.35668e-17
-1.74642e-18
-1.32505e-17
-2.90999e-18
-1.27086e-17
-3.97293e-18
-1.19791e-17
-4.97746e-18
-1.10826e-17
-5.9097e-18
-1.00406e-17
-6.7402e-18
-8.87921e-18
-7.43886e-18
-7.6295e-18
-7.98116e-18
-6.32537e-18
-8.35078e-18
-5.00166e-18
-8.54049e-18
-3.69206e-18
-8.55189e-18
-2.42733e-18
-8.39446e-18
-1.234e-18
-8.08409e-18
-1.33549e-19
-7.6414e-18
8.58056e-19
-7.09003e-18
1.73029e-18
-6.45491e-18
2.47775e-18
-5.7608e-18
3.09949e-18
-5.03104e-18
3.59833e-18
-4.2867e-18
3.98001e-18
-3.54595e-18
4.25235e-18
-2.82382e-18
4.42456e-18
-2.13215e-18
4.50651e-18
-1.47971e-18
4.50831e-18
-8.72521e-19
4.43982e-18
-3.14243e-19
4.31044e-18
1.93457e-19
4.12887e-18
6.50478e-19
3.90303e-18
1.05791e-18
3.64002e-18
1.41771e-18
3.34607e-18
1.73238e-18
3.02665e-18
2.00476e-18
2.68645e-18
2.2378e-18
2.32951e-18
2.43441e-18
1.95928e-18
2.59734e-18
1.57873e-18
2.72907e-18
1.19041e-18
2.83176e-18
7.96527e-19
2.90718e-18
3.99074e-19
2.9567e-18
2.98123e-18
-2.48833e-10
3.05033e-09
-4.61232e-10
2.82252e-09
-5.33391e-10
2.21244e-09
-6.65134e-10
1.89705e-09
-8.02896e-10
1.64361e-09
-9.23581e-10
1.43851e-09
-9.88156e-10
1.24989e-09
-1.1067e-09
1.07125e-09
-1.16051e-09
7.37522e-10
-1.14737e-09
5.72239e-10
-1.13307e-09
4.26704e-10
-1.28388e-09
3.02653e-10
-1.48411e-09
-7.71776e-11
-1.59883e-09
-3.21989e-10
-1.66187e-09
-5.6621e-10
-1.76495e-09
-7.06512e-10
-1.82278e-09
-7.9754e-10
-1.91587e-09
-9.33654e-10
-2.01389e-09
-9.76509e-10
-2.06293e-09
-1.10554e-09
-2.11601e-09
-1.1814e-09
-2.16704e-09
-1.19363e-09
-2.28237e-09
-1.16593e-09
-2.37226e-09
-1.1268e-09
-2.3756e-09
-1.09487e-09
-2.44855e-09
-1.00943e-09
-2.52491e-09
-9.22762e-10
-2.56568e-09
-8.87496e-10
-2.64387e-09
-8.49617e-10
-2.46028e-09
-8.21536e-10
-2.29583e-09
-1.24896e-09
-2.06033e-09
-1.1301e-09
-1.8198e-09
-1.20547e-09
-1.32853e-09
-1.71585e-09
-1.03786e-09
-1.14501e-09
-7.45118e-10
-1.37763e-09
-5.78704e-10
-8.67219e-10
-3.13839e-10
-7.92163e-10
-1.58366e-10
-4.51712e-10
1.28164e-11
-2.19412e-10
2.33527e-10
6.17366e-11
3.96409e-10
5.19194e-10
5.38783e-10
9.28041e-10
6.60993e-10
1.34244e-09
7.29163e-10
1.43067e-09
7.39649e-10
1.42117e-09
7.11534e-10
1.33198e-09
6.14724e-10
1.16337e-09
5.4583e-10
1.02697e-09
4.85507e-10
9.15697e-10
4.62333e-10
7.79731e-10
4.36863e-10
6.4676e-10
2.44789e-10
6.07113e-10
1.25884e-10
3.77867e-10
-8.1934e-11
1.20217e-10
-2.59767e-10
3.01341e-10
-3.69796e-10
6.55533e-10
-5.10594e-10
9.67659e-10
-6.02727e-10
9.57363e-10
-6.56071e-10
9.61095e-10
-6.9098e-10
8.79598e-10
-7.39241e-10
7.4949e-10
-7.18378e-10
4.78648e-10
-6.02998e-10
3.96679e-10
-5.21335e-10
3.28924e-10
-4.67401e-10
1.48602e-10
-4.09519e-10
-3.57714e-12
-2.79252e-10
-2.57078e-10
-3.10033e-10
-6.20638e-10
-3.32066e-10
-7.04565e-10
-3.0782e-10
-9.05376e-10
-3.11508e-10
-9.14818e-10
-3.19488e-10
-8.95893e-10
-2.88456e-10
-1.22053e-09
-1.88938e-10
-1.40179e-09
9.10718e-11
-1.28481e-09
2.21127e-10
-1.41751e-09
3.95749e-10
-1.15918e-09
3.00781e-10
-1.37282e-10
-4.13018e-16
-1.06854e-10
-1.50297e-17
-1.66694e-18
-1.47301e-17
-2.04517e-18
-1.43132e-17
-3.32504e-18
-1.3713e-17
-4.57116e-18
-1.29112e-17
-5.77706e-18
-1.1913e-17
-6.90554e-18
-1.07392e-17
-7.91161e-18
-9.42151e-18
-8.75408e-18
-7.99912e-18
-9.40102e-18
-6.51508e-18
-9.83223e-18
-5.01307e-18
-1.00399e-17
-3.53463e-18
-1.00277e-17
-2.11695e-18
-9.80948e-18
-7.91317e-19
-9.40709e-18
4.17822e-19
-8.848e-18
1.49317e-18
-8.16298e-18
2.42441e-18
-7.38391e-18
3.2075e-18
-6.54184e-18
3.84383e-18