/*--------------------------------*- C++ -*----------------------------------*\
  =========                 |
  \\      /  F ield         | OpenFOAM: The Open Source CFD Toolbox
   \\    /   O peration     | Website:  https://openfoam.org
    \\  /    A nd           | Version:  6
     \\/     M anipulation  |
\*---------------------------------------------------------------------------*/
FoamFile
{
    version     2.0;
    format      ascii;
    class       volVectorField;
    location    "1600";
    object      U;
}
// * * * * * * * * * * * * * * * * * * * * * * * * * * * * * * * * * * * * * //

dimensions      [0 1 -1 0 0 0 0];

internalField   nonuniform List<vector> 
4800
(
(-0.000160877 0 3.85269e-05)
(-0.000330338 0 0.00010068)
(-0.000427282 0 4.0778e-05)
(-0.000536097 0 3.33107e-05)
(-0.000620816 0 6.7749e-05)
(-0.000683118 0 -2.34515e-05)
(-0.000729768 0 9.70165e-06)
(-0.000760892 0 -1.87336e-05)
(-0.000770556 0 -2.78179e-05)
(-0.000771066 0 -3.5882e-05)
(-0.000770763 0 -4.27011e-05)
(-0.000786498 0 -3.34481e-05)
(-0.000795242 0 -4.24119e-05)
(-0.000746107 0 -0.000106112)
(-0.000675633 0 -0.000107533)
(-0.000615928 0 -9.59236e-05)
(-0.000549655 0 -9.871e-05)
(-0.000475403 0 -0.000107741)
(-0.000400454 0 -5.79076e-05)
(-0.000288093 0 -6.28861e-05)
(-9.72348e-05 0 -0.000214033)
(-3.28685e-05 0 -5.51461e-05)
(0.000100981 0 -0.000136442)
(0.000138074 0 -7.29631e-05)
(0.000199031 0 -6.33991e-05)
(0.000279327 0 5.92896e-06)
(0.000352527 0 2.21072e-05)
(0.000417291 0 -2.43726e-05)
(0.000449485 0 -3.30131e-05)
(0.000461386 0 -0.000115548)
(0.000529828 0 -0.000116589)
(0.000625491 0 -4.98802e-05)
(0.000621718 0 -2.96204e-05)
(0.000609596 0 -3.88824e-05)
(0.000628923 0 -3.37273e-05)
(0.0006329 0 2.87683e-06)
(0.000606695 0 1.20535e-05)
(0.000552644 0 2.0038e-05)
(0.000488919 0 3.53766e-05)
(0.000389712 0 7.5998e-05)
(0.000223336 0 9.38248e-05)
(8.67749e-05 0 8.56235e-05)
(4.1901e-05 0 -3.08676e-05)
(2.18768e-05 0 -6.12442e-05)
(-1.51758e-05 0 -4.55954e-05)
(-6.24426e-05 0 1.85199e-06)
(-0.000110849 0 1.40867e-05)
(-0.000304149 0 0.000101723)
(-0.000452009 0 3.16612e-05)
(-0.000520074 0 -2.47147e-05)
(-0.000557529 0 -3.86732e-05)
(-0.000570884 0 -3.94648e-05)
(-0.000576589 0 -4.08234e-05)
(-0.000615644 0 1.50429e-06)
(-0.000678244 0 4.58677e-06)
(-0.000722383 0 -5.70679e-05)
(-0.00075658 0 -5.71068e-05)
(-0.00077368 0 -4.79437e-05)
(-0.00077526 0 -4.87141e-05)
(-0.000765436 0 -4.3413e-05)
(-0.000758863 0 -4.14911e-05)
(-0.000759867 0 -3.17691e-05)
(-0.000807286 0 1.79541e-05)
(-0.0008774 0 -1.00533e-05)
(-0.000943486 0 -6.3732e-05)
(-0.000979765 0 -9.21811e-05)
(-0.000980868 0 -0.000118093)
(-0.000889133 0 -0.000215123)
(-0.000806295 0 -0.000198763)
(-0.000762385 0 -0.000150179)
(-0.000732594 0 -0.000143912)
(-0.000719142 0 -0.000144114)
(-0.000706494 0 -0.000139073)
(-0.000701862 0 -0.000144462)
(-0.000711046 0 -0.000157848)
(-0.000718109 0 -0.000172592)
(-0.000685276 0 -0.000278576)
(-0.000663555 0 -0.000361694)
(-0.000751065 0 -0.000328223)
(2.76911e-06 0 -0.000507631)
(-1.88644e-12 0 2.8387e-13)
(-4.41541e-12 0 1.48174e-13)
(-3.58782e-12 0 3.5933e-14)
(-3.59626e-12 0 -2.70084e-14)
(-3.50314e-12 0 -6.55323e-14)
(-3.3452e-12 0 -9.17816e-14)
(-3.14163e-12 0 -1.11128e-13)
(-2.90398e-12 0 -1.25814e-13)
(-2.64061e-12 0 -1.36828e-13)
(-2.35841e-12 0 -1.44624e-13)
(-2.06362e-12 0 -1.49425e-13)
(-1.76208e-12 0 -1.51386e-13)
(-1.45931e-12 0 -1.50666e-13)
(-1.16048e-12 0 -1.47463e-13)
(-8.70344e-13 0 -1.42011e-13)
(-5.93118e-13 0 -1.34587e-13)
(-3.32453e-13 0 -1.25494e-13)
(-9.13707e-14 0 -1.15051e-13)
(1.2775e-13 0 -1.03583e-13)
(3.23168e-13 0 -9.14044e-14)
(4.93756e-13 0 -7.88116e-14)
(6.38955e-13 0 -6.60748e-14)
(7.58717e-13 0 -5.34328e-14)
(8.53437e-13 0 -4.10892e-14)
(9.23883e-13 0 -2.9212e-14)
(9.71128e-13 0 -1.79342e-14)
(9.96477e-13 0 -7.35607e-15)
(1.00141e-12 0 2.45186e-15)
(9.8751e-13 0 1.14451e-14)
(9.56443e-13 0 1.96008e-14)
(9.09892e-13 0 2.69138e-14)
(8.49539e-13 0 3.33923e-14)
(7.77037e-13 0 3.90545e-14)
(6.93997e-13 0 4.39245e-14)
(6.01977e-13 0 4.80299e-14)
(5.02481e-13 0 5.13986e-14)
(3.96956e-13 0 5.40572e-14)
(2.868e-13 0 5.60283e-14)
(1.73372e-13 0 5.73292e-14)
(5.80035e-14 0 5.79679e-14)
(-0.000248553 0 0.000221831)
(-0.000256178 0 0.0002721)
(-0.000386517 0 0.00017254)
(-0.000483501 0 9.37341e-05)
(-0.000553423 0 9.92301e-05)
(-0.000608543 0 6.26291e-05)
(-0.000653158 0 5.5309e-05)
(-0.000687851 0 5.26306e-05)
(-0.000712365 0 3.81289e-05)
(-0.00073874 0 2.02611e-05)
(-0.000762379 0 2.12058e-05)
(-0.000776638 0 9.59209e-06)
(-0.000784273 0 2.6166e-06)
(-0.000755576 0 -4.03492e-05)
(-0.000695475 0 -0.000119398)
(-0.000629998 0 -7.97102e-05)
(-0.000542265 0 -0.000110502)
(-0.000451873 0 -0.000158724)
(-0.000409382 0 -8.85057e-05)
(-0.000342829 0 -0.000167104)
(-0.000152314 0 -0.000299778)
(-0.000178355 0 -8.34451e-05)
(7.79597e-05 0 -0.000184227)
(5.26188e-05 0 -7.52783e-06)
(0.000159725 0 -6.27535e-05)
(0.00024099 0 -0.000119902)
(0.000344696 0 -6.22864e-05)
(0.000390193 0 -0.000123694)
(0.000485953 0 8.89824e-05)
(0.000482399 0 -0.000168879)
(0.000548098 0 -0.000102797)
(0.000606747 0 -7.7228e-06)
(0.000602379 0 -5.27497e-06)
(0.000607613 0 -1.84143e-05)
(0.000645742 0 -8.43693e-06)
(0.00065903 0 3.23584e-05)
(0.000640306 0 1.35232e-05)
(0.000607673 0 6.66412e-05)
(0.000587792 0 0.000139258)
(0.000558801 0 0.000143007)
(0.0004699 0 0.000139577)
(0.000339275 0 0.000140169)
(0.000203615 0 0.000135613)
(8.50314e-05 0 0.000125443)
(-1.44633e-05 0 0.000122917)
(-0.000122195 0 0.000142681)
(-0.000194774 0 0.000130915)
(-0.000269329 0 0.000132118)
(-0.000359985 0 8.9836e-05)
(-0.000378193 0 7.34426e-05)
(-0.000381007 0 6.69804e-05)
(-0.000406581 0 6.46135e-05)
(-0.000460629 0 6.41616e-05)
(-0.00050809 0 8.38143e-05)
(-0.000537378 0 7.13992e-05)
(-0.000549995 0 6.95192e-05)
(-0.000555102 0 7.21677e-05)
(-0.000546548 0 4.96783e-05)
(-0.000516105 0 2.29133e-05)
(-0.00050379 0 2.02796e-05)
(-0.000500154 0 3.31584e-05)
(-0.000522678 0 9.2719e-05)
(-0.00059423 0 0.000125972)
(-0.000647525 0 0.000132811)
(-0.00067536 0 0.000116244)
(-0.0006803 0 7.91975e-05)
(-0.000637456 0 -2.88214e-05)
(-0.000597964 0 -4.66143e-05)
(-0.000572896 0 -1.77174e-05)
(-0.000536774 0 -9.81897e-06)
(-0.000503684 0 9.67756e-07)
(-0.000474653 0 7.9592e-05)
(-0.000426667 0 7.07073e-05)
(-0.000385838 0 0.000120409)
(-0.000349883 0 0.000100866)
(-0.00034117 0 4.34417e-05)
(-0.000329988 0 -6.71681e-06)
(-0.000470452 0 -0.000185336)
(-0.000628442 0 -0.000157497)
(3.967e-06 0 -0.000569166)
(-2.38477e-12 0 8.81181e-13)
(-4.7379e-12 0 3.63736e-13)
(-3.76424e-12 0 5.86319e-14)
(-3.69864e-12 0 -1.05324e-13)
(-3.5685e-12 0 -2.08755e-13)
(-3.39104e-12 0 -2.8213e-13)
(-3.17564e-12 0 -3.37801e-13)
(-2.92965e-12 0 -3.8082e-13)
(-2.65942e-12 0 -4.13414e-13)
(-2.37101e-12 0 -4.36588e-13)
(-2.07038e-12 0 -4.50844e-13)
(-1.76332e-12 0 -4.56577e-13)
(-1.45538e-12 0 -4.54239e-13)
(-1.15183e-12 0 -4.44408e-13)
(-8.57468e-13 0 -4.27797e-13)
(-5.76601e-13 0 -4.05241e-13)
(-3.12917e-13 0 -3.77662e-13)
(-6.94601e-14 0 -3.46034e-13)
(1.51396e-13 0 -3.11337e-13)
(3.47939e-13 0 -2.74527e-13)
(5.19086e-13 0 -2.36499e-13)
(6.64334e-13 0 -1.9807e-13)
(7.83703e-13 0 -1.59958e-13)
(8.77658e-13 0 -1.22775e-13)
(9.47038e-13 0 -8.70235e-14)
(9.92984e-13 0 -5.31007e-14)
(1.01686e-12 0 -2.13043e-14)
(1.02021e-12 0 8.15773e-15)
(1.00466e-12 0 3.51553e-14)
(9.71912e-13 0 5.96241e-14)
(9.23684e-13 0 8.15522e-14)
(8.6168e-13 0 1.00968e-13)
(7.87569e-13 0 1.17929e-13)
(7.02972e-13 0 1.32511e-13)
(6.09451e-13 0 1.44799e-13)
(5.08508e-13 0 1.54878e-13)
(4.01585e-13 0 1.62831e-13)
(2.90072e-13 0 1.68727e-13)
(1.75311e-13 0 1.72622e-13)
(5.86422e-14 0 1.7455e-13)
(-4.22838e-05 0 0.00044203)
(-0.000172964 0 0.000369508)
(-0.000344229 0 0.000267166)
(-0.000416872 0 0.000213141)
(-0.000474437 0 0.000208209)
(-0.000544644 0 0.000150227)
(-0.000597761 0 0.000106265)
(-0.00064297 0 0.000106739)
(-0.000698519 0 4.33384e-05)
(-0.000736234 0 3.9261e-05)
(-0.00075796 0 2.78126e-05)
(-0.000766679 0 2.41188e-05)
(-0.000771271 0 1.22448e-05)
(-0.000756422 0 -0.000109643)
(-0.000681834 0 -0.00018421)
(-0.000646449 0 -5.36997e-05)
(-0.000565374 0 -0.000196692)
(-0.000497515 0 -0.000215435)
(-0.000481146 0 -0.000159303)
(-0.000360766 0 -0.000332015)
(-0.00027266 0 -0.000265715)
(-0.000208359 0 -0.000181972)
(-0.000140239 0 -0.000206662)
(-4.90274e-07 0 -0.000243878)
(9.41915e-05 0 -0.000264461)
(0.00016015 0 -0.000230816)
(0.000240836 0 -0.000190537)
(0.000275545 0 -0.000165048)
(0.000374781 0 -5.41612e-05)
(0.000340472 0 -0.00023746)
(0.000433864 0 -7.58091e-05)
(0.000469418 0 -6.24636e-06)
(0.000493652 0 -4.37871e-05)
(0.000521504 0 -8.9942e-05)
(0.000555164 0 -4.60642e-05)
(0.000563922 0 5.19765e-05)
(0.000561044 0 5.91491e-05)
(0.000568713 0 6.93605e-05)
(0.000581218 0 0.000159485)
(0.000565812 0 0.000217179)
(0.000534737 0 0.000237311)
(0.000454259 0 0.000262576)
(0.000307602 0 0.000276352)
(0.000155281 0 0.000238072)
(-1.58156e-06 0 0.000207411)
(-8.5048e-06 0 0.00021949)
(-4.04891e-05 0 0.000256435)
(-0.000108575 0 0.000217972)
(-0.000128311 0 0.000185127)
(-0.000177687 0 0.000138991)
(-0.000275406 0 4.91431e-05)
(-0.000288675 0 6.87915e-05)
(-0.00027375 0 9.59076e-05)
(-0.000262664 0 9.06387e-05)
(-0.000269983 0 9.42071e-05)
(-0.000323372 0 4.5234e-05)
(-0.000366799 0 3.68363e-08)
(-0.000373004 0 -3.74478e-05)
(-0.000341658 0 -8.01153e-05)
(-0.000320056 0 -5.23025e-05)
(-0.000314494 0 -1.76391e-05)
(-0.000317412 0 3.29276e-05)
(-0.000341014 0 9.06567e-05)
(-0.000351923 0 8.96743e-05)
(-0.000364504 0 5.99769e-05)
(-0.000383461 0 2.27694e-06)
(-0.000414273 0 -4.04316e-05)
(-0.000440722 0 -5.80193e-05)
(-0.000451381 0 -6.95306e-05)
(-0.000448362 0 -7.94706e-05)
(-0.000409722 0 -9.23998e-05)
(-0.000369894 0 -3.54574e-06)
(-0.000254816 0 -9.5896e-05)
(-0.000141349 0 -7.58173e-05)
(-9.03838e-06 0 -0.000123084)
(0.000102661 0 -3.57963e-05)
(0.000121389 0 -3.07555e-05)
(0.000433746 0 -1.07356e-05)
(-0.000206283 0 -0.000122004)
(3.65821e-06 0 -0.000541423)
(-2.2411e-12 0 3.44225e-13)
(-5.44274e-12 0 2.02544e-13)
(-4.05789e-12 0 -5.97961e-14)
(-3.86436e-12 0 -2.44153e-13)
(-3.68034e-12 0 -3.82022e-13)
(-3.47431e-12 0 -4.90167e-13)
(-3.24018e-12 0 -5.76919e-13)
(-2.97953e-12 0 -6.46033e-13)
(-2.69637e-12 0 -6.99236e-13)
(-2.39584e-12 0 -7.37289e-13)
(-2.08361e-12 0 -7.60612e-13)
(-1.76547e-12 0 -7.69672e-13)
(-1.44714e-12 0 -7.65148e-13)
(-1.13404e-12 0 -7.47985e-13)
(-8.31177e-13 0 -7.19391e-13)
(-5.42984e-13 0 -6.80792e-13)
(-2.73246e-13 0 -6.3377e-13)
(-2.50454e-14 0 -5.79986e-13)
(1.99257e-13 0 -5.21119e-13)
(3.98006e-13 0 -4.58792e-13)
(5.70212e-13 0 -3.94526e-13)
(7.15496e-13 0 -3.29698e-13)
(8.34013e-13 0 -2.65515e-13)
(9.26372e-13 0 -2.03e-13)
(9.93557e-13 0 -1.42986e-13)
(1.03685e-12 0 -8.61294e-14)
(1.05774e-12 0 -3.29141e-14)
(1.05787e-12 0 1.63259e-14)
(1.03898e-12 0 6.13875e-14)
(1.00284e-12 0 1.02177e-13)
(9.51236e-13 0 1.38689e-13)
(8.85916e-13 0 1.70983e-13)
(8.0858e-13 0 1.99166e-13)
(7.20866e-13 0 2.23374e-13)
(6.24344e-13 0 2.43757e-13)
(5.20513e-13 0 2.60466e-13)
(4.10804e-13 0 2.73642e-13)
(2.9659e-13 0 2.83408e-13)
(1.79195e-13 0 2.89861e-13)
(5.9932e-14 0 2.93069e-13)
(5.15451e-05 0 0.000596011)
(-0.00015579 0 0.000458657)
(-0.000255369 0 0.00039075)
(-0.000425102 0 0.000253519)
(-0.000456584 0 0.000251213)
(-0.000525942 0 0.00016736)
(-0.000577847 0 0.000135526)
(-0.000636687 0 0.000103427)
(-0.000686298 0 0.000112592)
(-0.000733105 0 4.35453e-05)
(-0.000755259 0 3.78688e-05)
(-0.000762798 0 -6.1512e-06)
(-0.000753863 0 -6.7146e-05)
(-0.000742763 0 -0.00012829)
(-0.000674343 0 -0.000309145)
(-0.00062333 0 -0.000258287)
(-0.000574599 0 -0.000212133)
(-0.000515053 0 -0.000258348)
(-0.00048252 0 -0.000293012)
(-0.000382033 0 -0.000415616)
(-0.0003125 0 -0.000345417)
(-0.000213634 0 -0.000346278)
(-0.000152085 0 -0.000343901)
(-7.61272e-05 0 -0.000351006)
(2.12057e-06 0 -0.000320754)
(-2.16693e-06 0 -0.000274705)
(0.000116628 0 -0.000222294)
(0.000143322 0 -0.000213006)
(0.000226562 0 -0.000182415)
(0.000254481 0 -0.000153795)
(0.000257406 0 -0.000182431)
(0.000297641 0 -0.000143333)
(0.000348947 0 -0.000100126)
(0.000409572 0 -3.1783e-05)
(0.000405706 0 -1.83356e-05)
(0.000399159 0 1.15038e-06)
(0.000421229 0 3.32684e-06)
(0.000486162 0 1.89049e-05)
(0.00055454 0 0.00011565)
(0.000532243 0 0.000248954)
(0.000504299 0 0.000294877)
(0.000465262 0 0.000337015)
(0.000373389 0 0.000374581)
(0.000271011 0 0.000337529)
(7.31844e-05 0 0.000306991)
(5.66369e-05 0 0.000238102)
(6.02128e-06 0 0.000271284)
(-3.37659e-05 0 0.000263492)
(-9.09488e-05 0 0.000215457)
(-0.00024585 0 0.000124239)
(-0.000237549 0 9.97301e-05)
(-0.000260347 0 6.03442e-05)
(-0.000214182 0 4.04005e-06)
(-0.00015207 0 2.76264e-05)
(-9.1818e-05 0 7.01088e-05)
(-4.93886e-05 0 6.57448e-05)
(-4.50611e-05 0 6.73979e-05)
(-7.50592e-05 0 5.33487e-05)
(-9.79988e-05 0 1.81953e-05)
(-0.000170064 0 1.35874e-06)
(-0.00021238 0 4.24165e-05)
(-0.000254041 0 0.000124948)
(-0.00029211 0 0.000162003)
(-0.000318487 0 0.000142856)
(-0.000340237 0 0.000105026)
(-0.000368762 0 3.62884e-05)
(-0.000405492 0 -2.35275e-05)
(-0.000463694 0 -7.07747e-05)
(-0.000492162 0 -9.38214e-05)
(-0.000477709 0 -0.000126837)
(-0.000387085 0 -0.000211775)
(-0.00035225 0 -0.000134822)
(-0.000186947 0 -0.000279351)
(-0.00016064 0 -0.00023554)
(4.39601e-05 0 -0.000271489)
(1.28401e-05 0 -0.000147188)
(4.20177e-05 0 -0.000213982)
(0.000241529 0 -0.000195837)
(-0.000405401 0 6.73963e-06)
(4.3061e-06 0 -0.000541098)
(-2.32439e-12 0 -3.7288e-13)
(-5.4382e-12 0 -8.9909e-14)
(-4.21053e-12 0 -2.56294e-13)
(-4.02049e-12 0 -4.29576e-13)
(-3.81416e-12 0 -5.8513e-13)
(-3.58559e-12 0 -7.19722e-13)
(-3.33128e-12 0 -8.3369e-13)
(-3.05191e-12 0 -9.27239e-13)
(-2.75067e-12 0 -1.00034e-12)
(-2.43239e-12 0 -1.05285e-12)
(-2.10277e-12 0 -1.08476e-12)
(-1.76786e-12 0 -1.09647e-12)
(-1.4337e-12 0 -1.0888e-12)
(-1.10607e-12 0 -1.06309e-12)
(-7.90276e-13 0 -1.02108e-12)
(-4.9098e-13 0 -9.64844e-13)
(-2.12111e-13 0 -8.96701e-13)
(4.31908e-14 0 -8.19072e-13)
(2.72591e-13 0 -7.34394e-13)
(4.74532e-13 0 -6.45015e-13)
(6.48179e-13 0 -5.5312e-13)
(7.93345e-13 0 -4.60675e-13)
(9.10402e-13 0 -3.69389e-13)
(1.00019e-12 0 -2.807e-13)
(1.06391e-12 0 -1.95768e-13)
(1.10306e-12 0 -1.15491e-13)
(1.11932e-12 0 -4.05245e-14)
(1.11451e-12 0 2.86941e-14)
(1.09051e-12 0 9.1911e-14)
(1.04921e-12 0 1.49026e-13)
(9.9249e-13 0 2.00059e-13)
(9.22157e-13 0 2.45123e-13)
(8.3996e-13 0 2.8439e-13)
(7.47563e-13 0 3.18074e-13)
(6.46543e-13 0 3.464e-13)
(5.38393e-13 0 3.69597e-13)
(4.24527e-13 0 3.87874e-13)
(3.0629e-13 0 4.01411e-13)
(1.84973e-13 0 4.10353e-13)
(6.18511e-14 0 4.14799e-13)
(-7.39282e-05 0 0.000680987)
(-0.000138562 0 0.000569286)
(-0.000215488 0 0.00049258)
(-0.00031755 0 0.000423562)
(-0.000433445 0 0.000331912)
(-0.000533662 0 0.000208409)
(-0.000559662 0 0.000247953)
(-0.00062188 0 0.000211591)
(-0.000675111 0 0.000147878)
(-0.000711642 0 0.000119752)
(-0.000743716 0 4.53485e-05)
(-0.000745867 0 1.49792e-05)
(-0.0007182 0 -9.61653e-05)
(-0.000705446 0 -0.000152116)
(-0.000711727 0 -0.000189495)
(-0.000633591 0 -0.000328372)
(-0.000574082 0 -0.000318033)
(-0.000527972 0 -0.000340051)
(-0.000530702 0 -0.000331107)
(-0.000400878 0 -0.000474033)
(-0.000417918 0 -0.000356915)
(-0.00032089 0 -0.000401531)
(-0.000294936 0 -0.000389575)
(-0.000209472 0 -0.00041286)
(-0.000194001 0 -0.000370814)
(-4.02731e-05 0 -0.000353877)
(-8.52929e-05 0 -0.000287243)
(-2.26584e-05 0 -0.000239528)
(0.000125949 0 -0.000197846)
(0.000140339 0 -0.000188503)
(0.000172649 0 -0.000154369)
(0.000178656 0 -0.000138225)
(0.000185701 0 -0.000151671)
(0.000242913 0 -7.63949e-05)
(0.000267585 0 -3.46198e-05)
(0.000292124 0 -3.96839e-05)
(0.000342311 0 -5.70806e-05)
(0.000413137 0 1.25584e-06)
(0.000451505 0 0.000113745)
(0.000467857 0 0.000217925)
(0.00046731 0 0.00031052)
(0.000423855 0 0.000432816)
(0.000395444 0 0.000454145)
(0.000339235 0 0.000446773)
(0.00021744 0 0.000396274)
(0.000117797 0 0.000297028)
(4.09073e-05 0 0.000290409)
(7.37355e-05 0 0.000290815)
(-2.03718e-05 0 0.000276653)
(1.12929e-05 0 0.00027891)
(-4.98436e-05 0 0.000176692)
(-1.12531e-05 0 9.68615e-05)
(-7.05095e-05 0 4.48023e-05)
(-0.000137816 0 -3.46864e-06)
(-6.49624e-05 0 4.03299e-06)
(-2.9055e-05 0 -5.44869e-06)
(-6.84709e-06 0 3.34358e-05)
(-1.84081e-05 0 6.60135e-05)
(-7.41841e-05 0 6.31388e-05)
(-0.000150442 0 6.02477e-05)
(-0.000255704 0 6.07477e-05)
(-0.000296661 0 0.000119223)
(-0.000314594 0 0.000168063)
(-0.000348761 0 0.000146065)
(-0.000368376 0 0.000127571)
(-0.000399073 0 7.59188e-05)
(-0.000456051 0 2.39653e-05)
(-0.000505838 0 -1.10637e-05)
(-0.000510539 0 -4.45791e-05)
(-0.000448251 0 -0.000165546)
(-0.000372598 0 -0.000227385)
(-0.000361196 0 -0.000186081)
(-0.000232116 0 -0.000338229)
(-0.000156172 0 -0.000315332)
(1.49548e-05 0 -0.000296615)
(-7.15242e-05 0 -0.000127854)
(1.11311e-05 0 -0.000238607)
(0.000102298 0 -0.000160714)
(-0.000363473 0 2.16779e-05)
(4.85153e-06 0 -0.000580388)
(-2.55677e-12 0 -3.814e-13)
(-5.68733e-12 0 -2.51238e-13)
(-4.39719e-12 0 -4.45933e-13)
(-4.19285e-12 0 -6.32768e-13)
(-3.97016e-12 0 -8.09246e-13)
(-3.72256e-12 0 -9.6995e-13)
(-3.44749e-12 0 -1.11083e-12)
(-3.14613e-12 0 -1.2289e-12)
(-2.82198e-12 0 -1.32209e-12)
(-2.48027e-12 0 -1.38905e-12)
(-2.12723e-12 0 -1.42917e-12)
(-1.76951e-12 0 -1.44266e-12)
(-1.41376e-12 0 -1.43053e-12)
(-1.06632e-12 0 -1.39452e-12)
(-7.32931e-13 0 -1.33701e-12)
(-4.18607e-13 0 -1.26082e-12)
(-1.27474e-13 0 -1.16913e-12)
(1.37261e-13 0 -1.06521e-12)
(3.73314e-13 0 -9.52363e-13)
(5.7928e-13 0 -8.33736e-13)
(7.54552e-13 0 -7.12237e-13)
(8.99227e-13 0 -5.90457e-13)
(1.01399e-12 0 -4.70628e-13)
(1.09999e-12 0 -3.54602e-13)
(1.15877e-12 0 -2.43855e-13)
(1.19209e-12 0 -1.39508e-13)
(1.20192e-12 0 -4.23554e-14)
(1.1903e-12 0 4.70898e-14)
(1.15931e-12 0 1.28557e-13)
(1.11099e-12 0 2.01972e-13)
(1.04733e-12 0 2.67412e-13)
(9.70247e-13 0 3.25068e-13)
(8.8153e-13 0 3.75206e-13)
(7.82876e-13 0 4.18135e-13)
(6.75868e-13 0 4.54178e-13)
(5.61987e-13 0 4.83652e-13)
(4.42618e-13 0 5.06848e-13)
(3.1907e-13 0 5.24013e-13)
(1.92582e-13 0 5.35344e-13)
(6.43779e-14 0 5.40975e-13)
(-0.000110964 0 0.000725951)
(-0.000108857 0 0.00067111)
(-0.000187537 0 0.000607771)
(-0.00028411 0 0.000523342)
(-0.000394667 0 0.000432968)
(-0.000465078 0 0.000363049)
(-0.0005647 0 0.000267236)
(-0.000608438 0 0.000238378)
(-0.000660806 0 0.000182057)
(-0.000693549 0 0.000132704)
(-0.0007048 0 0.000114665)
(-0.000709058 0 3.04121e-05)
(-0.000700026 0 -0.000145548)
(-0.000679798 0 -0.000206046)
(-0.000673169 0 -0.000218638)
(-0.000662217 0 -0.000248868)
(-0.000567954 0 -0.000415664)
(-0.000588769 0 -0.000357748)
(-0.000551774 0 -0.000412512)
(-0.000516671 0 -0.000432621)
(-0.000451164 0 -0.000442777)
(-0.000426945 0 -0.000435648)
(-0.000410973 0 -0.000426872)
(-0.000343322 0 -0.000450546)
(-0.000305429 0 -0.000399505)
(-0.000230149 0 -0.000343928)
(-0.000287639 0 -0.000209972)
(-0.000357635 0 -0.00017832)
(-0.000142409 0 -0.000343914)
(-0.000108576 0 -0.000239575)
(8.16635e-05 0 -0.000176989)
(6.29498e-05 0 -0.000179601)
(0.000104472 0 -0.000121982)
(0.000122518 0 -0.000108642)
(0.000150025 0 -8.99104e-05)
(0.00019968 0 -6.21679e-05)
(0.000248019 0 -8.41007e-05)
(0.000283652 0 1.3852e-05)
(0.000298557 0 8.67656e-05)
(0.000325989 0 0.000217729)
(0.000386111 0 0.000310359)
(0.000421268 0 0.000405526)
(0.00039849 0 0.000514173)
(0.000377639 0 0.000523676)
(0.000344012 0 0.000472636)
(0.000195875 0 0.000402308)
(0.000135932 0 0.000314077)
(7.24547e-05 0 0.000317955)
(8.11958e-05 0 0.000294077)
(0.000104406 0 0.000261635)
(4.57901e-05 0 0.000201248)
(6.8151e-05 0 0.000113466)
(1.75025e-05 0 7.79797e-05)
(-6.55608e-05 0 1.67696e-05)
(-2.86971e-05 0 -2.60743e-05)
(-1.07676e-05 0 -4.94431e-05)
(-4.67701e-06 0 1.80389e-05)
(-2.78951e-05 0 0.000106873)
(-6.93157e-05 0 0.000130843)
(-0.000137346 0 0.000134681)
(-0.000257707 0 0.000163687)
(-0.000347906 0 0.000158663)
(-0.000368441 0 0.000186689)
(-0.000389372 0 0.000188748)
(-0.000408484 0 0.000159231)
(-0.000432436 0 7.42571e-05)
(-0.000437105 0 7.07987e-05)
(-0.000454104 0 5.03046e-05)
(-0.000407056 0 -0.000200743)
(-0.00036802 0 -0.000205984)
(-0.000291733 0 -0.000293819)
(-0.000228346 0 -0.000369812)
(-0.000215049 0 -0.000376757)
(-7.81446e-05 0 -0.00036484)
(-0.000209377 0 -0.000260379)
(-0.000113604 0 -0.000114143)
(-6.56318e-05 0 -0.000198493)
(-0.000176186 0 -7.20328e-05)
(-0.000627644 0 4.31401e-05)
(5.59112e-06 0 -0.000632898)
(-2.88634e-12 0 -7.32022e-13)
(-5.9191e-12 0 -4.58266e-13)
(-4.59173e-12 0 -6.43459e-13)
(-4.38349e-12 0 -8.46346e-13)
(-4.15105e-12 0 -1.04917e-12)
(-3.88691e-12 0 -1.24003e-12)
(-3.59006e-12 0 -1.41075e-12)
(-3.26312e-12 0 -1.55545e-12)
(-2.91082e-12 0 -1.6701e-12)
(-2.53947e-12 0 -1.75212e-12)
(-2.15638e-12 0 -1.80025e-12)
(-1.76922e-12 0 -1.81451e-12)
(-1.38556e-12 0 -1.79617e-12)
(-1.01254e-12 0 -1.74749e-12)
(-6.56575e-13 0 -1.67162e-12)
(-3.23098e-13 0 -1.57233e-12)
(-1.64968e-14 0 -1.45377e-12)
(2.59954e-13 0 -1.32027e-12)
(5.04064e-13 0 -1.1761e-12)
(7.14658e-13 0 -1.02531e-12)
(8.91458e-13 0 -8.71605e-13)
(1.03495e-12 0 -7.18251e-13)
(1.14626e-12 0 -5.68021e-13)
(1.22696e-12 0 -4.23179e-13)
(1.279e-12 0 -2.85497e-13)
(1.30456e-12 0 -1.56286e-13)
(1.30592e-12 0 -3.64415e-14)
(1.28542e-12 0 7.34951e-14)
(1.24539e-12 0 1.73281e-13)
(1.18807e-12 0 2.62912e-13)
(1.11559e-12 0 3.42564e-13)
(1.02995e-12 0 4.12543e-13)
(9.33026e-13 0 4.73239e-13)
(8.26535e-13 0 5.25087e-13)
(7.12061e-13 0 5.68528e-13)
(5.91063e-13 0 6.03989e-13)
(4.64888e-13 0 6.31855e-13)
(3.34786e-13 0 6.52451e-13)
(2.01935e-13 0 6.66036e-13)
(6.74825e-14 0 6.72784e-13)
(-0.000124886 0 0.000800158)
(-0.00011042 0 0.000760774)
(-0.000384866 0 0.000623177)
(-0.000353894 0 0.000580489)
(-0.000411022 0 0.000489277)
(-0.000457321 0 0.000421529)
(-0.000540282 0 0.000315791)
(-0.000582323 0 0.000257114)
(-0.000603737 0 0.000253781)
(-0.000655197 0 0.000121643)
(-0.000671295 0 3.44539e-05)
(-0.000685441 0 -2.93095e-05)
(-0.000684624 0 -9.47524e-05)
(-0.000658403 0 -0.000215615)
(-0.000623738 0 -0.000311229)
(-0.00062795 0 -0.000328958)
(-0.000630345 0 -0.000377528)
(-0.000613101 0 -0.000423405)
(-0.000603498 0 -0.000444081)
(-0.000568217 0 -0.000473155)
(-0.000548127 0 -0.000465987)
(-0.000528487 0 -0.000473363)
(-0.000483048 0 -0.000509509)
(-0.000450133 0 -0.000489183)
(-0.000360023 0 -0.00049709)
(-0.000336127 0 -0.000461241)
(-0.000220726 0 -0.000478036)
(-0.000202779 0 -0.000464051)
(-0.00017053 0 -0.000375775)
(-0.000329972 0 -0.000274054)
(-0.00032221 0 -0.000238328)
(-0.000130004 0 -0.000205793)
(-9.28431e-05 0 -0.000191091)
(4.96305e-05 0 -0.000140444)
(7.29619e-05 0 -0.000121536)
(0.000106721 0 -0.000123827)
(0.000131464 0 -0.000120879)
(0.000182317 0 -5.93435e-05)
(0.00022018 0 3.72403e-05)
(0.000277673 0 0.000134715)
(0.000317708 0 0.00028275)
(0.000373212 0 0.000392282)
(0.000414985 0 0.000485773)
(0.000365424 0 0.000581891)
(0.000363087 0 0.000568911)
(0.000308651 0 0.000492626)
(0.000197241 0 0.000396353)
(0.000162154 0 0.000318467)
(0.000122019 0 0.000293951)
(0.000132634 0 0.000256339)
(0.000120324 0 0.00020071)
(8.99755e-05 0 0.000140664)
(-8.94191e-06 0 0.000113924)
(5.49923e-06 0 6.40052e-05)
(-6.24318e-06 0 -7.07698e-05)
(3.01803e-06 0 -5.58604e-05)
(-3.92481e-05 0 5.67231e-05)
(-6.11735e-05 0 0.000170928)
(-9.65228e-05 0 0.000206695)
(-0.000163139 0 0.000221855)
(-0.000263095 0 0.000236497)
(-0.00031117 0 0.000250131)
(-0.000355123 0 0.000221076)
(-0.000379209 0 0.000204381)
(-0.000389171 0 0.000184244)
(-0.00039668 0 8.0574e-05)
(-0.000384282 0 2.46117e-05)
(-0.000378861 0 -2.7305e-05)
(-0.000357099 0 -0.000146703)
(-0.000335688 0 -0.000228198)
(-0.000215893 0 -0.000358986)
(-0.000257504 0 -0.000362488)
(-0.00021901 0 -0.000389617)
(-0.000196692 0 -0.000397015)
(-0.000205431 0 -0.000365373)
(-7.93558e-05 0 -0.00013706)
(-6.04232e-05 0 -0.000209622)
(4.28499e-06 0 -0.000115503)
(-0.000432482 0 -0.000139578)
(5.65394e-06 0 -0.00049194)
(-2.87346e-12 0 -9.42941e-13)
(-6.06673e-12 0 -6.18698e-13)
(-4.78498e-12 0 -8.23305e-13)
(-4.59828e-12 0 -1.06e-12)
(-4.36359e-12 0 -1.30107e-12)
(-4.0839e-12 0 -1.53028e-12)
(-3.76276e-12 0 -1.73662e-12)
(-3.40545e-12 0 -1.91203e-12)
(-3.01866e-12 0 -2.05077e-12)
(-2.61041e-12 0 -2.14911e-12)
(-2.18962e-12 0 -2.20519e-12)
(-1.76543e-12 0 -2.21899e-12)
(-1.34673e-12 0 -2.19214e-12)
(-9.41767e-13 0 -2.12764e-12)
(-5.57771e-13 0 -2.02965e-12)
(-2.00763e-13 0 -1.90309e-12)
(1.24579e-13 0 -1.75336e-12)
(4.14933e-13 0 -1.586e-12)
(6.68278e-13 0 -1.40645e-12)
(8.83775e-13 0 -1.21978e-12)
(1.06161e-12 0 -1.0306e-12)
(1.20281e-12 0 -8.42888e-13)
(1.30906e-12 0 -6.59983e-13)
(1.38252e-12 0 -4.84549e-13)
(1.42566e-12 0 -3.18621e-13)
(1.44115e-12 0 -1.6365e-13)
(1.4317e-12 0 -2.05775e-14)
(1.40003e-12 0 1.10088e-13)
(1.34872e-12 0 2.28191e-13)
(1.28027e-12 0 3.33855e-13)
(1.19696e-12 0 4.27406e-13)
(1.10092e-12 0 5.09314e-13)
(9.94074e-13 0 5.80132e-13)
(8.78165e-13 0 6.40452e-13)
(7.54771e-13 0 6.90865e-13)
(6.25313e-13 0 7.31926e-13)
(4.9108e-13 0 7.64133e-13)
(3.53251e-13 0 7.87904e-13)
(2.12915e-13 0 8.03566e-13)
(7.11258e-14 0 8.11341e-13)
(-0.0001442 0 0.000922894)
(-0.000126608 0 0.000890641)
(-0.000380986 0 0.000757055)
(-0.000315538 0 0.000675647)
(-0.000420655 0 0.000536792)
(-0.000428314 0 0.000476766)
(-0.000478059 0 0.000407369)
(-0.000526791 0 0.000328191)
(-0.000529205 0 0.000302698)
(-0.000577929 0 0.000205921)
(-0.000642678 0 9.11059e-05)
(-0.000655874 0 1.86635e-05)
(-0.00064218 0 -0.000109026)
(-0.00062267 0 -0.000267826)
(-0.000649441 0 -0.000253293)
(-0.000637968 0 -0.000363584)
(-0.00067178 0 -0.000373443)
(-0.000671727 0 -0.00041356)
(-0.000663008 0 -0.000452847)
(-0.000673117 0 -0.000448875)
(-0.000663037 0 -0.000469847)
(-0.000627272 0 -0.000513088)
(-0.000507575 0 -0.000620103)
(-0.000722857 0 -0.000355394)
(-0.000612243 0 -0.000462334)
(-0.000627102 0 -0.00042508)
(-0.00068841 0 -0.000319033)
(-0.00062677 0 -0.000357876)
(-0.000630164 0 -0.000219904)
(-0.000521206 0 -0.000270976)
(-0.000520569 0 -0.000239519)
(-0.000465098 0 -0.000299457)
(-0.000416093 0 -0.000316115)
(-0.000275813 0 -0.000290268)
(-0.000127564 0 -0.000213304)
(-8.94029e-05 0 -0.000234149)
(3.60473e-05 0 -0.000163983)
(9.67808e-05 0 -9.37325e-05)
(0.000148948 0 -2.60083e-05)
(0.000219174 0 8.8646e-05)
(0.000307984 0 0.000171094)
(0.00036783 0 0.000305145)
(0.000366284 0 0.000477844)
(0.00034698 0 0.000588896)
(0.000338998 0 0.000597359)
(0.000320176 0 0.000573807)
(0.000293045 0 0.000473342)
(0.000225089 0 0.000374123)
(0.000181261 0 0.000297032)
(0.000147164 0 0.000265789)
(0.000138689 0 0.000220867)
(1.54241e-05 0 0.000192085)
(-3.89766e-05 0 0.000195729)
(3.17547e-05 0 5.78666e-05)
(1.9015e-05 0 -8.98378e-05)
(-3.69264e-06 0 -5.29334e-05)
(-7.51782e-05 0 0.000144017)
(-7.23254e-05 0 0.000247216)
(-0.000140985 0 0.000278031)
(-0.000250931 0 0.000259476)
(-0.000313076 0 0.000246342)
(-0.000317899 0 0.000250183)
(-0.000318734 0 0.000234485)
(-0.00033147 0 0.0002186)
(-0.00034752 0 0.000148135)
(-0.000326775 0 8.97621e-05)
(-0.000324616 0 6.50359e-05)
(-0.000334635 0 -1.60057e-05)
(-0.000264021 0 -0.000244379)
(-0.00021898 0 -0.000316722)
(-0.000219877 0 -0.000354394)
(-0.000265379 0 -0.000358116)
(-0.000220093 0 -0.000399463)
(-0.000271405 0 -0.000440356)
(-0.000194674 0 -0.000444317)
(-1.3717e-05 0 -0.000214153)
(-1.72274e-05 0 -0.000339464)
(0.000244712 0 -0.000221116)
(-5.95375e-05 0 -0.000157028)
(5.29242e-06 0 -0.000358545)
(-2.80684e-12 0 -9.18471e-13)
(-6.30592e-12 0 -6.90531e-13)
(-5.03277e-12 0 -9.71055e-13)
(-4.86101e-12 0 -1.26927e-12)
(-4.62111e-12 0 -1.56481e-12)
(-4.32227e-12 0 -1.84338e-12)
(-3.9717e-12 0 -2.09337e-12)
(-3.57725e-12 0 -2.30526e-12)
(-3.1479e-12 0 -2.47185e-12)
(-2.69389e-12 0 -2.58835e-12)
(-2.22627e-12 0 -2.65241e-12)
(-1.75616e-12 0 -2.66413e-12)
(-1.2942e-12 0 -2.62573e-12)
(-8.50056e-13 0 -2.54128e-12)
(-4.32026e-13 0 -2.41623e-12)
(-4.6811e-14 0 -2.25701e-12)
(3.0059e-13 0 -2.07056e-12)
(6.06869e-13 0 -1.86392e-12)
(8.70288e-13 0 -1.64389e-12)
(1.09051e-12 0 -1.41675e-12)
(1.26835e-12 0 -1.1881e-12)
(1.40557e-12 0 -9.62696e-13)
(1.5046e-12 0 -7.44439e-13)
(1.56832e-12 0 -5.36373e-13)
(1.5999e-12 0 -3.4074e-13)
(1.6026e-12 0 -1.59067e-13)
(1.57965e-12 0 7.73877e-15)
(1.53419e-12 0 1.59282e-13)
(1.46916e-12 0 2.95574e-13)
(1.38728e-12 0 4.16937e-13)
(1.29105e-12 0 5.23913e-13)
(1.18268e-12 0 6.17191e-13)
(1.06416e-12 0 6.97535e-13)
(9.37268e-13 0 7.65735e-13)
(8.03535e-13 0 8.2256e-13)
(6.64331e-13 0 8.68722e-13)
(5.20866e-13 0 9.0485e-13)
(3.7422e-13 0 9.3147e-13)
(2.25372e-13 0 9.48987e-13)
(7.52575e-14 0 9.57676e-13)
(-0.000164447 0 0.00107542)
(-0.000126133 0 0.00104702)
(-0.000203581 0 0.000888418)
(-0.000282924 0 0.000707422)
(-0.000332997 0 0.000597115)
(-0.000388344 0 0.00050985)
(-0.000416949 0 0.000458061)
(-0.000497428 0 0.00034464)
(-0.000511726 0 0.000257484)
(-0.000486686 0 0.000270182)
(-0.000511182 0 0.00022139)
(-0.000572593 0 3.68513e-05)
(-0.000605991 0 -0.00014113)
(-0.000641006 0 -0.000182778)
(-0.0006508 0 -0.000262277)
(-0.000649866 0 -0.000360548)
(-0.000692807 0 -0.000359793)
(-0.000699065 0 -0.000419049)
(-0.000713688 0 -0.000455308)
(-0.000722912 0 -0.000484922)
(-0.000717152 0 -0.000531707)
(-0.000770905 0 -0.000493708)
(-0.000791621 0 -0.000487513)
(-0.000711388 0 -0.000557119)
(-0.000775813 0 -0.000452862)
(-0.000794344 0 -0.000419406)
(-0.000819325 0 -0.000387085)
(-0.000819155 0 -0.000389573)
(-0.000777916 0 -0.0004039)
(-0.000778894 0 -0.000299946)
(-0.000698574 0 -0.000401122)
(-0.000702226 0 -0.000310567)
(-0.000661921 0 -0.00033119)
(-0.000519226 0 -0.000370981)
(-0.0003874 0 -0.00032093)
(-0.000254409 0 -0.000338356)
(-0.00012896 0 -0.000258982)
(-1.34129e-05 0 -0.00013723)
(3.80745e-05 0 -5.93109e-05)
(0.000101041 0 5.32764e-05)
(0.000177907 0 0.000176672)
(0.000251664 0 0.000311189)
(0.000347094 0 0.000423986)
(0.000344593 0 0.000564756)
(0.000326071 0 0.000593463)
(0.000316891 0 0.000575496)
(0.000289999 0 0.000538772)
(0.00032734 0 0.000406981)
(0.000215768 0 0.000349575)
(0.000159815 0 0.000306555)
(0.000196183 0 0.000244135)
(2.79037e-05 0 0.000265309)