0 	-12.4603
0.010101 	-7.99625
0.020202 	-8.04838
0.030303 	-9.51463
0.040404 	-9.59893
0.0505051 	-9.60384
0.0606061 	-9.60415
0.0707071 	-9.60417
0.0808081 	-9.60417
0.0909091 	-9.60417
