0 	-13.5629
0.010101 	-8.28745
0.020202 	-6.10945
0.030303 	-8.35838
0.040404 	-8.35838
