0 	-25.3235
0.010101 	-18.7278
0.020202 	-18.7278
0.030303 	-18.7278
0.040404 	-18.2975
0.0505051 	-11.343
0.0606061 	-16.8802
0.0707071 	-18.7278
0.0808081 	-18.7278
0.0909091 	-18.7278
