0 	300.275
0.010101 	309.637
0.020202 	313.886
