/*--------------------------------*- C++ -*----------------------------------*\
  =========                 |
  \\      /  F ield         | OpenFOAM: The Open Source CFD Toolbox
   \\    /   O peration     | Website:  https://openfoam.org
    \\  /    A nd           | Version:  6
     \\/     M anipulation  |
\*---------------------------------------------------------------------------*/
FoamFile
{
    version     2.0;
    format      ascii;
    class       surfaceScalarField;
    location    "7400";
    object      phi;
}
// * * * * * * * * * * * * * * * * * * * * * * * * * * * * * * * * * * * * * //

dimensions      [0 3 -1 0 0 0 0];

internalField   nonuniform List<scalar> 
9440
(
7.5493e-14
-7.54939e-14
1.50864e-13
-7.46384e-14
2.25563e-13
-7.41167e-14
2.99052e-13
-7.29362e-14
3.71223e-13
-7.16289e-14
4.42056e-13
-7.0305e-14
5.11529e-13
-6.89587e-14
5.79762e-13
-6.77407e-14
6.46876e-13
-6.6641e-14
7.13173e-13
-6.58533e-14
7.78825e-13
-6.52347e-14
8.44111e-13
-6.48975e-14
9.09355e-13
-6.48905e-14
9.74419e-13
-6.47446e-14
1.03924e-12
-6.45339e-14
1.10344e-12
-6.39548e-14
1.16713e-12
-6.34906e-14
1.23199e-12
-6.47025e-14
1.296e-12
-6.38876e-14
1.35803e-12
-6.19495e-14
1.41758e-12
-5.95175e-14
1.47813e-12
-6.05673e-14
1.53472e-12
-5.66389e-14
1.58807e-12
-5.34495e-14
1.63833e-12
-5.0401e-14
1.68452e-12
-4.63659e-14
1.72617e-12
-4.18674e-14
1.76298e-12
-3.70707e-14
1.7945e-12
-3.18113e-14
1.82063e-12
-2.64698e-14
1.84124e-12
-2.09682e-14
1.85621e-12
-1.53686e-14
1.86564e-12
-9.85353e-15
1.86956e-12
-4.35833e-15
1.86818e-12
9.02028e-16
1.86169e-12
6.00673e-15
1.85043e-12
1.07473e-14
1.83461e-12
1.53118e-14
1.81471e-12
1.93667e-14
1.79095e-12
2.32288e-14
1.76366e-12
2.67628e-14
1.73316e-12
2.99578e-14
1.69981e-12
3.28228e-14
1.66396e-12
3.53316e-14
1.62563e-12
3.78121e-14
1.58523e-12
3.99018e-14
1.54277e-12
4.19839e-14
1.49906e-12
4.32537e-14
1.45383e-12
4.48011e-14
1.40744e-12
4.59853e-14
1.36001e-12
4.70468e-14
1.31157e-12
4.80925e-14
1.26244e-12
4.88196e-14
1.21275e-12
4.942e-14
1.16256e-12
4.99479e-14
1.11221e-12
5.01481e-14
1.0616e-12
5.04529e-14
1.01107e-12
5.04148e-14
9.60406e-13
5.05949e-14
9.10046e-13
5.03301e-14
8.60032e-13
5.00299e-14
8.10429e-13
4.96616e-14
7.61292e-13
4.92368e-14
7.12681e-13
4.87551e-14
6.64682e-13
4.81837e-14
6.17408e-13
4.75003e-14
5.70826e-13
4.68492e-14
5.24976e-13
4.6153e-14
4.79895e-13
4.54204e-14
4.35802e-13
4.44685e-14
3.92713e-13
4.34936e-14
3.50833e-13
4.2313e-14
3.10586e-13
4.07084e-14
2.73255e-13
3.78134e-14
2.42236e-13
3.15217e-14
2.28922e-13
1.38364e-14
2.72269e-13
-4.28107e-14
1.39408e-13
1.33409e-13
-3.44473e-16
1.40306e-13
-9.49586e-22
-7.45132e-21
-8.92838e-22
-6.02291e-23
-8.20873e-22
-6.98451e-23
-7.01708e-22
-6.8656e-23
-5.76752e-22
-6.45718e-23
-4.51382e-22
-5.96604e-23
-3.26426e-22
-5.46456e-23
-2.02246e-22
-4.91656e-23
-7.97712e-23
-4.36338e-23
4.02217e-23
-3.75333e-23
1.55768e-22
-3.1071e-23
2.65267e-22
-2.42467e-23
3.667e-22
-1.74225e-23
4.5862e-22
-1.05983e-23
5.39942e-22
-3.92911e-24
6.10046e-22
2.27475e-24
6.68672e-22
8.22011e-24
7.15925e-22
1.36485e-23
7.52269e-22
1.8715e-23
7.78222e-22
2.33162e-23
7.943e-22
2.76072e-23
8.0128e-22
3.16914e-23
7.99677e-22
3.51035e-23
7.90475e-22
3.84122e-23
7.74138e-22
4.12556e-23
7.51494e-22
4.40991e-23
7.23111e-22
4.6684e-23
6.89559e-22
4.89588e-23
6.51508e-22
5.11301e-23
6.09529e-22
5.31464e-23
5.64241e-22
5.49558e-23
5.15747e-22
5.65068e-23
4.64617e-22
5.80577e-23
4.11471e-22
5.93502e-23
3.56256e-22
6.0591e-23
2.99595e-22
6.16767e-23
2.4164e-22
6.25555e-23
1.82548e-22
6.32276e-23
1.2263e-22
6.3848e-23
6.19869e-23
6.44167e-23
6.55541e-23
7.68251e-14
-1.51595e-13
1.52084e-13
-1.48738e-13
2.26206e-13
-1.47241e-13
2.99431e-13
-1.45198e-13
3.71534e-13
-1.42794e-13
4.4227e-13
-1.40134e-13
5.1163e-13
-1.37445e-13
5.79705e-13
-1.34983e-13
6.46715e-13
-1.32862e-13
7.12778e-13
-1.31179e-13
7.78307e-13
-1.30078e-13
8.43578e-13
-1.29548e-13
9.08808e-13
-1.29559e-13
9.73864e-13
-1.2931e-13
1.03886e-12
-1.29106e-13
1.10287e-12
-1.27616e-13
1.16724e-12
-1.27575e-13
1.23255e-12
-1.29803e-13
1.29681e-12
-1.28022e-13
1.35907e-12
-1.24161e-13
1.41975e-12
-1.20229e-13
1.48042e-12
-1.21341e-13
1.5376e-12
-1.14004e-13
1.59143e-12
-1.07536e-13
1.64232e-12
-1.01624e-13
1.689e-12
-9.34463e-14
1.73098e-12
-8.43115e-14
1.76813e-12
-7.47555e-14
1.79988e-12
-6.41614e-14
1.82617e-12
-5.34183e-14
1.84685e-12
-4.23572e-14
1.86182e-12
-3.10927e-14
1.87116e-12
-1.99868e-14
1.87491e-12
-8.95173e-15
1.87319e-12
1.74729e-15
1.86649e-12
1.18122e-14
1.85491e-12
2.13998e-14
1.83881e-12
3.04766e-14
1.81855e-12
3.8676e-14
1.79447e-12
4.63483e-14
1.76675e-12
5.35336e-14
1.73608e-12
5.96814e-14
1.70246e-12
6.55207e-14
1.66622e-12
7.06629e-14
1.62773e-12
7.54279e-14
1.58713e-12
7.96482e-14
1.54453e-12
8.37795e-14
1.50052e-12
8.64968e-14
1.45523e-12
8.93773e-14
1.40863e-12
9.19188e-14
1.36107e-12
9.3993e-14
1.31246e-12
9.61547e-14
1.26312e-12
9.76749e-14
1.21334e-12
9.87934e-14
1.16303e-12
9.99054e-14
1.1125e-12
1.00405e-13
1.06184e-12
1.00925e-13
1.01108e-12
1.01047e-13
9.60362e-13
1.01272e-13
9.09892e-13
1.00832e-13
8.59787e-13
1.00245e-13
8.10157e-13
9.94795e-14
7.6096e-13
9.86971e-14
7.12294e-13
9.77583e-14
6.6428e-13
9.66096e-14
6.16946e-13
9.53137e-14
5.70217e-13
9.41266e-14
5.24305e-13
9.26741e-14
4.79254e-13
9.11443e-14
4.35046e-13
8.94042e-14
3.91714e-13
8.7603e-14
3.49399e-13
8.54526e-14
3.08177e-13
8.27979e-14
2.6788e-13
7.90117e-14
2.27546e-13
7.27859e-14
1.79788e-13
6.25488e-14
9.43971e-14
4.35565e-14
5.29017e-14
1.75895e-13
-2.67157e-16
1.94264e-13
-9.42976e-22
-1.25402e-20
-9.02351e-22
-1.0226e-22
-8.19684e-22
-9.60564e-23
-6.97624e-22
-8.50445e-23
-5.7184e-22
-7.22232e-23
-4.46316e-22
-5.91951e-23
-3.20998e-22
-4.59085e-23
-1.96662e-22
-3.30872e-23
-7.36191e-23
-2.03176e-23
4.66323e-23
-8.11671e-24
1.62541e-22
3.51552e-24
2.72091e-22
1.45791e-23
3.73524e-22
2.48154e-23
4.65237e-22
3.42246e-23
5.46198e-22
4.291e-23
6.15939e-22
5.07682e-23
6.74204e-22
5.7851e-23
7.20991e-22
6.42099e-23
7.56922e-22
6.99485e-23
7.82461e-22
7.52734e-23
7.98333e-22
8.00297e-23
8.04692e-22
8.43207e-23
8.02934e-22
8.84566e-23
7.93421e-22
9.23857e-23
7.76981e-22
9.60564e-23
7.54079e-22
9.96236e-23
7.25386e-22
1.02932e-22
6.91678e-22
1.06241e-22
6.53524e-22
1.0924e-22
6.1139e-22
1.12238e-22
5.65792e-22
1.14978e-22
5.17195e-22
1.1777e-22
4.66013e-22
1.20303e-22
4.1266e-22
1.2263e-22
3.57342e-22
1.24697e-22
3.00473e-22
1.26559e-22
2.42312e-22
1.28006e-22
1.83169e-22
1.29299e-22
1.23302e-22
1.30178e-22
6.31242e-23
1.3085e-22
1.3116e-22
7.57512e-14
-2.26763e-13
1.52641e-13
-2.24622e-13
2.28401e-13
-2.22136e-13
3.02688e-13
-2.18648e-13
3.75332e-13
-2.14624e-13
4.46292e-13
-2.10302e-13
5.15564e-13
-2.05954e-13
5.83308e-13
-2.01998e-13
6.49781e-13
-1.98647e-13
7.15354e-13
-1.96106e-13
7.80215e-13
-1.94342e-13
8.44956e-13
-1.9374e-13
9.09677e-13
-1.93785e-13
9.74506e-13
-1.93703e-13
1.03921e-12
-1.93436e-13
1.10271e-12
-1.90795e-13
1.16818e-12
-1.92798e-13
1.23406e-12
-1.95498e-13
1.29865e-12
-1.92501e-13
1.36119e-12
-1.86644e-13
1.42423e-12
-1.83293e-13
1.4854e-12
-1.82593e-13
1.54356e-12
-1.72312e-13
1.59849e-12
-1.6268e-13
1.65054e-12
-1.53954e-13
1.69795e-12
-1.41196e-13
1.74072e-12
-1.27486e-13
1.77845e-12
-1.12938e-13
1.81073e-12
-9.69568e-14
1.83732e-12
-8.05793e-14
1.85803e-12
-6.36716e-14
1.87296e-12
-4.66767e-14
1.88207e-12
-2.97964e-14
1.88554e-12
-1.31402e-14
1.88336e-12
3.17527e-15
1.87605e-12
1.83398e-14
1.86388e-12
3.27689e-14
1.84709e-12
4.64489e-14
1.82627e-12
5.86812e-14
1.80155e-12
7.02398e-14
1.77321e-12
8.1045e-14
1.74183e-12
9.02475e-14
1.70763e-12
9.89089e-14
1.67086e-12
1.06648e-13
1.63194e-12
1.13578e-13
1.59097e-12
1.1988e-13
1.5478e-12
1.26237e-13
1.50336e-12
1.30269e-13
1.45764e-12
1.34474e-13
1.41071e-12
1.38268e-13
1.36286e-12
1.4131e-13
1.31397e-12
1.44565e-13
1.26431e-12
1.46907e-13
1.21418e-12
1.48565e-13
1.16351e-12
1.50264e-13
1.11278e-12
1.509e-13
1.06184e-12
1.51683e-13
1.01091e-12
1.51869e-13
9.59963e-13
1.52174e-13
9.09306e-13
1.51513e-13
8.59031e-13
1.50612e-13
8.09131e-13
1.49534e-13
7.59745e-13
1.48307e-13
7.10986e-13
1.46803e-13
6.62844e-13
1.45103e-13
6.15304e-13
1.43265e-13
5.68593e-13
1.41306e-13
5.22602e-13
1.39192e-13
4.77401e-13
1.36926e-13
4.33048e-13
1.34384e-13
3.89494e-13
1.3183e-13
3.4666e-13
1.28998e-13
3.04306e-13
1.259e-13
2.61727e-13
1.22369e-13
2.1666e-13
1.18662e-13
1.63695e-13
1.16343e-13
8.65702e-14
1.21525e-13
4.9102e-14
2.14222e-13
-2.55327e-16
2.44312e-13
-9.49595e-22
-1.89195e-20
-8.96147e-22
-1.54424e-22
-8.08724e-22
-1.37002e-22
-6.84854e-22
-1.17149e-22
-5.58761e-22
-9.62632e-23
-4.33029e-22
-7.53768e-23
-3.08177e-22
-5.48007e-23
-1.83944e-22
-3.48967e-23
-6.14699e-23
-1.57681e-23
5.83163e-23
2.32645e-24
1.73605e-22
1.92837e-23
2.82379e-22
3.49484e-23
3.82881e-22
4.94757e-23
4.73871e-22
6.25555e-23
5.54056e-22
7.44463e-23
6.23074e-22
8.49928e-23
6.80563e-22
9.45571e-23
7.26782e-22
1.03191e-22
7.62247e-22
1.10894e-22
7.87166e-22
1.17977e-22
8.02727e-22
1.24542e-22
8.08828e-22
1.30488e-22
8.06863e-22
1.36071e-22
7.97092e-22
1.41396e-22
7.80497e-22
1.46463e-22
7.57387e-22
1.51322e-22
7.28694e-22
1.56079e-22
6.94728e-22
1.60576e-22
6.56471e-22
1.65178e-22
6.1413e-22
1.6952e-22
5.68583e-22
1.7376e-22
5.19728e-22
1.77585e-22
4.68288e-22
1.81204e-22
4.14728e-22
1.84616e-22
3.59152e-22
1.87718e-22
3.01973e-22
1.90303e-22
2.43605e-22
1.92526e-22
1.84048e-22
1.94181e-22
1.23974e-22
1.95577e-22
6.33827e-23
1.963e-22
1.96455e-22
7.74595e-14
-3.03665e-13
1.5528e-13
-3.01459e-13
2.31983e-13
-2.9799e-13
3.06987e-13
-2.92833e-13
3.79981e-13
-2.86817e-13
4.50913e-13
-2.80459e-13
5.19834e-13
-2.74127e-13
5.86994e-13
-2.68447e-13
6.52697e-13
-2.63673e-13
7.17296e-13
-2.60073e-13
7.81454e-13
-2.57913e-13
8.45517e-13
-2.57269e-13
9.09422e-13
-2.57203e-13
9.74256e-13
-2.58109e-13
1.03864e-12
-2.5745e-13
1.10179e-12
-2.53641e-13
1.16893e-12
-2.59697e-13
1.23562e-12
-2.6201e-13
1.30128e-12
-2.58047e-13
1.36379e-12
-2.49101e-13
1.431e-12
-2.50517e-13
1.49252e-12
-2.442e-13
1.55244e-12
-2.32379e-13
1.60917e-12
-2.19616e-13
1.66271e-12
-2.0777e-13
1.71148e-12
-1.903e-13
1.75548e-12
-1.7188e-13
1.79415e-12
-1.52054e-13
1.82723e-12
-1.30549e-13
1.85413e-12
-1.08026e-13
1.87509e-12
-8.52324e-14
1.88992e-12
-6.21428e-14
1.89864e-12
-3.91893e-14
1.90156e-12
-1.67718e-14
1.89868e-12
5.31789e-15
1.89056e-12
2.56948e-14
1.87735e-12
4.51902e-14
1.85965e-12
6.33558e-14
1.83772e-12
7.98001e-14
1.81188e-12
9.52806e-14
1.78272e-12
1.09398e-13
1.75044e-12
1.21722e-13
1.71537e-12
1.33194e-13
1.6777e-12
1.43543e-13
1.63799e-12
1.52537e-13
1.5966e-12
1.60551e-13
1.5529e-12
1.69243e-13
1.50765e-12
1.74859e-13
1.46148e-12
1.80037e-13
1.414e-12
1.85173e-13
1.36563e-12
1.89161e-13
1.31626e-12
1.93461e-13
1.26613e-12
1.96622e-13
1.21559e-12
1.98749e-13
1.1646e-12
2.00951e-13
1.1134e-12
2.01869e-13
1.06205e-12
2.0286e-13
1.01071e-12
2.03099e-13
9.5947e-13
2.03368e-13
9.08524e-13
2.02483e-13
8.57922e-13
2.01304e-13
8.07809e-13
1.998e-13
7.58245e-13
1.98086e-13
7.09299e-13
1.96032e-13
6.60996e-13
1.9375e-13
6.13311e-13
1.91352e-13
5.6639e-13
1.88689e-13
5.20235e-13
1.85862e-13
4.74948e-13
1.8278e-13
4.30381e-13
1.79565e-13
3.86578e-13
1.7629e-13
3.4348e-13
1.72793e-13
3.00825e-13
1.69288e-13
2.57864e-13
1.66094e-13
2.13694e-13
1.63622e-13
1.67965e-13
1.62884e-13
1.227e-13
1.67622e-13
5.19695e-14
2.8579e-13
-2.51217e-16
2.97211e-13
-9.3636e-22
-2.56693e-20
-8.78673e-22
-2.10311e-22
-7.88924e-22
-1.81514e-22
-6.63916e-22
-1.51891e-22
-5.37874e-22
-1.22423e-22
-4.12505e-22
-9.33163e-23
-2.88272e-22
-6.52439e-23
-1.64867e-22
-3.82054e-23
-4.33236e-23
-1.26662e-23
7.53769e-23
1.14771e-23
1.89269e-22
3.37076e-23
2.96854e-22
5.4232e-23
3.95961e-22
7.27919e-23
4.85814e-22
8.97491e-23
5.64654e-22
1.04845e-22
6.32586e-22
1.18442e-22
6.89197e-22
1.30539e-22
7.34485e-22
1.41396e-22
7.69278e-22
1.51271e-22
7.93783e-22
1.60215e-22
8.08621e-22
1.68538e-22
8.14463e-22
1.76241e-22
8.12136e-22
1.83324e-22
8.0221e-22
1.902e-22
7.85356e-22
1.96817e-22
7.62092e-22
2.03176e-22
7.33296e-22
2.09328e-22
6.99278e-22
2.15325e-22
6.60866e-22
2.21271e-22
6.18421e-22
2.26958e-22
5.72409e-22
2.32386e-22
5.23347e-22
2.37453e-22
4.717e-22
2.42261e-22
4.17778e-22
2.46603e-22
3.6184e-22
2.50481e-22
3.04144e-22
2.53789e-22
2.45311e-22
2.56529e-22
1.85392e-22
2.58649e-22
1.24697e-22
2.60148e-22
6.35895e-23
2.60924e-22
2.61079e-22
7.97442e-14
-3.82857e-13
1.59158e-13
-3.799e-13
2.37016e-13
-3.75009e-13
3.12939e-13
-3.67945e-13
3.86305e-13
-3.5939e-13
4.5706e-13
-3.50444e-13
5.25427e-13
-3.41755e-13
5.91652e-13
-3.33966e-13
6.5621e-13
-3.27564e-13
7.19676e-13
-3.22913e-13
7.82628e-13
-3.20284e-13
8.45581e-13
-3.1969e-13
9.08704e-13
-3.19852e-13
9.73255e-13
-3.22235e-13
1.03671e-12
-3.20534e-13
1.10089e-12
-3.17521e-13
1.16936e-12
-3.27927e-13
1.23719e-12
-3.2966e-13
1.30381e-12
-3.24551e-13
1.36842e-12
-3.13659e-13
1.43867e-12
-3.20789e-13
1.5021e-12
-3.07706e-13
1.56418e-12
-2.94608e-13
1.62363e-12
-2.7927e-13
1.67908e-12
-2.63497e-13
1.72984e-12
-2.41391e-13
1.77554e-12
-2.17973e-13
1.81548e-12
-1.92437e-13
1.84948e-12
-1.65044e-13
1.87713e-12
-1.36227e-13
1.89822e-12
-1.06913e-13
1.91284e-12
-7.73954e-14
1.92108e-12
-4.80956e-14
1.92316e-12
-1.95533e-14
1.91922e-12
8.52437e-15
1.90999e-12
3.41689e-14
1.89544e-12
5.89637e-14
1.87643e-12
8.15763e-14
1.85311e-12
1.02322e-13
1.82588e-12
1.21717e-13
1.79534e-12
1.39134e-13
1.76181e-12
1.54459e-13
1.72555e-12
1.68673e-13
1.68686e-12
1.81472e-13
1.64619e-12
1.92461e-13
1.60385e-12
2.02182e-13
1.55977e-12
2.12634e-13
1.51329e-12
2.20693e-13
1.46637e-12
2.26343e-13
1.4183e-12
2.32681e-13
1.36929e-12
2.37654e-13
1.31933e-12
2.42959e-13
1.26867e-12
2.46872e-13
1.21758e-12
2.49485e-13
1.16594e-12
2.52299e-13
1.11424e-12
2.53334e-13
1.06235e-12
2.54582e-13
1.01054e-12
2.54799e-13
9.58815e-13
2.5505e-13
9.07511e-13
2.53808e-13
8.56511e-13
2.52394e-13
8.06105e-13
2.50359e-13
7.56201e-13
2.48208e-13
7.06971e-13
2.45541e-13
6.58473e-13
2.42588e-13
6.10572e-13
2.39653e-13
5.63463e-13
2.36253e-13
5.17222e-13
2.32612e-13
4.71732e-13
2.28831e-13
4.26978e-13
2.24928e-13
3.83074e-13
2.20844e-13
3.39891e-13
2.16669e-13
2.97445e-13
2.12459e-13
2.55726e-13
2.0857e-13
2.14132e-13
2.06e-13
1.74038e-13
2.03782e-13
1.33014e-13
2.09467e-13
5.39887e-14
3.65645e-13
-2.48479e-16
3.52115e-13
-9.0989e-22
-3.23597e-20
-8.49928e-22
-2.66766e-22
-7.593e-22
-2.27061e-22
-6.34448e-22
-1.87408e-22
-5.08768e-22
-1.48841e-22
-3.84432e-22
-1.11359e-22
-2.61182e-22
-7.53251e-23
-1.39277e-22
-4.11522e-23
-1.92319e-23
-8.99559e-24
9.76073e-23
2.10414e-23
2.09794e-22
4.85969e-23
3.15414e-22
7.38776e-23
4.12918e-22
9.66767e-23
5.0091e-22
1.17305e-22
5.78251e-22
1.35709e-22
6.44632e-22
1.52201e-22
7.00002e-22
1.66935e-22
7.44359e-22
1.8017e-22
7.78222e-22
1.92061e-22
8.02055e-22
2.02866e-22
8.16324e-22
2.12792e-22
8.21597e-22
2.21995e-22
8.18961e-22
2.30835e-22
8.08828e-22
2.39262e-22
7.91664e-22
2.47275e-22
7.68192e-22
2.5503e-22
7.39344e-22
2.62733e-22
7.05223e-22
2.70126e-22
6.66553e-22
2.77364e-22
6.23798e-22
2.84292e-22
5.77476e-22
2.91013e-22
5.28207e-22
2.97216e-22
4.76094e-22
3.03007e-22
4.21759e-22
3.08228e-22
3.65045e-22
3.12674e-22
3.06936e-22
3.16603e-22
2.47379e-22
3.19705e-22
1.86891e-22
3.22135e-22
1.25421e-22
3.23738e-22
6.36929e-23
3.24513e-22
3.2441e-22
8.2503e-14
-4.64814e-13
1.64367e-13
-4.60805e-13
2.44196e-13
-4.54009e-13
3.21296e-13
-4.44243e-13
3.95199e-13
-4.3251e-13
4.65768e-13
-4.20255e-13
5.33262e-13
-4.0852e-13
5.97996e-13
-3.98003e-13
6.60862e-13
-3.89771e-13
7.22702e-13
-3.84134e-13
7.84005e-13
-3.81016e-13
8.44909e-13
-3.8007e-13
9.07807e-13
-3.82275e-13
9.70803e-13
-3.84815e-13
1.03228e-12
-3.81653e-13
1.10054e-12
-3.85482e-13
1.16962e-12
-3.96761e-13
1.23842e-12
-3.98283e-13
1.30528e-12
-3.91303e-13
1.37642e-12
-3.8475e-13
1.44708e-12
-3.91465e-13
1.51411e-12
-3.74814e-13
1.57899e-12
-3.59631e-13
1.64213e-12
-3.4262e-13
1.69999e-12
-3.21616e-13
1.75338e-12
-2.95112e-13
1.80119e-12
-2.66169e-13
1.84289e-12
-2.34584e-13
1.87805e-12
-2.0069e-13
1.90654e-12
-1.65253e-13
1.92782e-12
-1.28785e-13
1.94216e-12
-9.23547e-14
1.9497e-12
-5.63e-14
1.95064e-12
-2.11867e-14
1.94542e-12
1.30151e-14
1.9345e-12
4.43449e-14
1.91821e-12
7.44911e-14
1.89743e-12
1.01576e-13
1.87231e-12
1.26651e-13
1.84321e-12
1.5003e-13
1.81101e-12
1.70542e-13
1.77587e-12
1.88817e-13
1.73826e-12
2.05512e-13
1.69814e-12
2.20842e-13
1.6564e-12
2.3346e-13
1.61253e-12
2.45354e-13
1.56821e-12
2.56277e-13
1.5204e-12
2.67858e-13
1.47242e-12
2.73731e-13
1.42366e-12
2.80886e-13
1.37367e-12
2.8713e-13
1.32317e-12
2.93003e-13
1.2717e-12
2.97933e-13
1.21986e-12
3.00973e-13
1.16753e-12
3.04343e-13
1.11518e-12
3.0545e-13
1.06271e-12
3.06892e-13
1.01024e-12
3.07166e-13
9.57989e-13
3.0726e-13
9.06058e-13
3.05762e-13
8.54657e-13
3.03884e-13
8.03884e-13
3.01284e-13
7.53692e-13
2.98615e-13
7.04104e-13
2.95404e-13
6.55337e-13
2.91693e-13
6.07212e-13
2.88175e-13
5.59959e-13
2.83958e-13
5.13484e-13
2.79591e-13
4.67792e-13
2.75075e-13
4.22909e-13
2.70413e-13
3.78875e-13
2.65525e-13
3.3575e-13
2.60479e-13
2.93725e-13
2.55204e-13
2.53058e-13
2.49985e-13
2.13711e-13
2.4612e-13
1.79271e-13
2.39018e-13
1.43e-13
2.46551e-13
4.19715e-14
4.67497e-13
-2.44822e-16
3.94993e-13
-8.70186e-22
-3.88051e-20
-8.10224e-22
-3.23117e-22
-7.19699e-22
-2.72866e-22
-5.9588e-22
-2.2308e-22
-4.71235e-22
-1.75104e-22
-3.48398e-22
-1.28782e-22
-2.27061e-22
-8.48377e-23
-1.07172e-22
-4.33236e-23
1.08051e-23
-4.39439e-24
1.25163e-22
3.14846e-23
2.35023e-22
6.44684e-23
3.38265e-22
9.45054e-23
4.33546e-22
1.21544e-22
5.19314e-22
1.45739e-22
5.94691e-22
1.67452e-22
6.59418e-22
1.86736e-22
7.13237e-22
2.03952e-22
7.56302e-22
2.19358e-22
7.89027e-22
2.33265e-22
8.12033e-22
2.45879e-22
8.25578e-22
2.57512e-22
8.30386e-22
2.68368e-22
8.27439e-22
2.78656e-22
8.16841e-22
2.88531e-22
7.9947e-22
2.97992e-22
7.75895e-22
3.07246e-22
7.46686e-22
3.16293e-22
7.12461e-22
3.25082e-22
6.7348e-22
3.33509e-22
6.30518e-22
3.41626e-22
5.83731e-22
3.49329e-22
5.33945e-22
3.56567e-22
4.81264e-22
3.63081e-22
4.26205e-22
3.68923e-22
3.68974e-22
3.74144e-22
3.10089e-22
3.78332e-22
2.49757e-22
3.8164e-22
1.88545e-22
3.84174e-22
1.26248e-22
3.85518e-22
6.35895e-23
3.86138e-22
3.85673e-22
8.63637e-14
-5.50636e-13
1.71656e-13
-5.4515e-13
2.54252e-13
-5.35787e-13
3.33005e-13
-5.22204e-13
4.07489e-13
-5.06222e-13
4.77558e-13
-4.89578e-13
5.43642e-13
-4.73883e-13
6.06478e-13
-4.60152e-13
6.67024e-13
-4.49668e-13
7.2627e-13
-4.42766e-13
7.84584e-13
-4.38765e-13
8.43785e-13
-4.38754e-13
9.05526e-13
-4.43548e-13
9.65655e-13
-4.44533e-13
1.02666e-12
-4.42305e-13
1.09853e-12
-4.57053e-13
1.16858e-12
-4.66578e-13
1.23884e-12
-4.68365e-13
1.30547e-12
-4.57825e-13
1.38682e-12
-4.66052e-13
1.45637e-12
-4.61026e-13
1.52845e-12
-4.46975e-13
1.59696e-12
-4.28286e-13
1.66439e-12
-4.1025e-13
1.72563e-12
-3.83123e-13
1.78229e-12
-3.52091e-13
1.83282e-12
-3.1708e-13
1.87672e-12
-2.78915e-13
1.91342e-12
-2.37882e-13
1.94279e-12
-1.95148e-13
1.96435e-12
-1.50924e-13
1.97826e-12
-1.06876e-13
1.98486e-12
-6.35553e-14
1.98427e-12
-2.12875e-14
1.97726e-12
1.9321e-14
1.96423e-12
5.66368e-14
1.94578e-12
9.21917e-14
1.92256e-12
1.24026e-13
1.89507e-12
1.53365e-13
1.86386e-12
1.80459e-13
1.82965e-12
2.03979e-13
1.79252e-12
2.25166e-13
1.75307e-12
2.44211e-13
1.71137e-12
2.61795e-13
1.66831e-12
2.75805e-13
1.62279e-12
2.90179e-13
1.57768e-12
3.0072e-13
1.5292e-12
3.15711e-13
1.47968e-12
3.2266e-13
1.43008e-12
3.29941e-13
1.37907e-12
3.37633e-13
1.32775e-12
3.43881e-13
1.27536e-12
3.49919e-13
1.22258e-12
3.53412e-13
1.16939e-12
3.57245e-13
1.11614e-12
3.58474e-13
1.06296e-12
3.59912e-13
1.00976e-12
3.60262e-13
9.56887e-13
3.60093e-13
9.04252e-13
3.58422e-13
8.52365e-13
3.5586e-13
8.01018e-13
3.52783e-13
7.50379e-13
3.49466e-13
7.00563e-13
3.45494e-13
6.51432e-13
3.41159e-13
6.03049e-13
3.36949e-13
5.55646e-13
3.31808e-13
5.09035e-13
3.26702e-13
4.63126e-13
3.21529e-13
4.18032e-13
3.161e-13
3.7377e-13
3.10423e-13
3.30473e-13
3.0445e-13
2.88475e-13
2.97912e-13
2.48635e-13
2.90565e-13
2.12868e-13
2.82651e-13
1.78877e-13
2.73793e-13
9.52424e-14
3.30987e-13
2.67913e-14
5.36757e-13
-2.41123e-16
4.22676e-13
-8.17247e-22
-4.48337e-20
-7.59972e-22
-3.79469e-22
-6.69965e-22
-3.18258e-22
-5.47852e-22
-2.58442e-22
-4.24912e-22
-2.0054e-22
-3.04403e-22
-1.4548e-22
-1.85547e-22
-9.32129e-23
-6.81907e-23
-4.40991e-23
4.66323e-23
1.44757e-24
1.58147e-22
4.33236e-23
2.6506e-22
8.17875e-23
3.65355e-22
1.16374e-22
4.57689e-22
1.476e-22
5.40976e-22
1.75414e-22
6.14027e-22
2.00229e-22
6.76582e-22
2.22253e-22
7.28643e-22
2.41847e-22
7.70157e-22
2.59321e-22
8.01642e-22
2.75089e-22
8.23613e-22
2.89462e-22
8.36383e-22
3.02593e-22
8.40674e-22
3.15001e-22
8.3721e-22
3.26685e-22
8.26354e-22
3.38007e-22
8.08724e-22
3.48915e-22
7.84891e-22
3.59462e-22
7.55474e-22
3.69853e-22
7.20836e-22
3.79831e-22
6.81545e-22
3.89499e-22
6.38222e-22
3.98649e-22
5.90969e-22
4.07128e-22
5.40511e-22
4.1509e-22
4.87158e-22
4.22327e-22
4.31323e-22
4.28583e-22
3.73162e-22
4.33805e-22
3.13398e-22
4.38199e-22
2.5229e-22
4.41559e-22
1.89941e-22
4.43834e-22
1.26869e-22
4.45023e-22
6.31242e-23
4.45178e-22
4.44403e-22
9.17175e-14
-6.41821e-13
1.81755e-13
-6.34255e-13
2.67927e-13
-6.21157e-13
3.48897e-13
-6.02398e-13
4.24052e-13
-5.80617e-13
4.93393e-13
-5.58185e-13
5.57375e-13
-5.37158e-13
6.1738e-13
-5.19484e-13
6.74541e-13
-5.06189e-13
7.29718e-13
-4.97344e-13
7.84325e-13
-4.92818e-13
8.42032e-13
-4.95952e-13
9.00427e-13
-5.01488e-13
9.56021e-13
-4.9972e-13
1.02241e-12
-5.08347e-13
1.09318e-12
-5.27526e-13
1.16504e-12
-5.38208e-13
1.23544e-12
-5.38597e-13
1.30944e-12
-5.31711e-13
1.39409e-12
-5.50661e-13
1.46775e-12
-5.34695e-13
1.54446e-12
-5.2377e-13
1.61899e-12
-5.02951e-13
1.69036e-12
-4.81822e-13
1.75655e-12
-4.49571e-13
1.81715e-12
-4.13015e-13
1.87128e-12
-3.71583e-13
1.91772e-12
-3.25777e-13
1.95622e-12
-2.76854e-13
1.98652e-12
-2.25968e-13
2.00836e-12
-1.73335e-13
2.02168e-12
-1.20805e-13
2.02688e-12
-6.93907e-14
2.0244e-12
-1.94827e-14
2.01517e-12
2.78539e-14
1.99922e-12
7.18627e-14
1.97818e-12
1.12489e-13
1.95207e-12
1.4938e-13
1.92159e-12
1.83086e-13
1.88771e-12
2.13575e-13
1.85098e-12
2.3994e-13
1.8116e-12
2.63793e-13
1.7698e-12
2.85259e-13
1.72659e-12
3.04283e-13
1.68169e-12
3.19995e-13
1.6351e-12
3.36083e-13
1.58745e-12
3.47717e-13
1.53975e-12
3.62795e-13
1.48805e-12
3.73777e-13
1.4372e-12
3.80252e-13
1.38518e-12
3.89164e-13
1.3329e-12
3.95719e-13
1.2796e-12
4.02826e-13
1.22564e-12
4.07038e-13
1.17165e-12
4.10963e-13
1.11717e-12
4.12728e-13
1.06313e-12
4.13797e-13
1.00894e-12
4.14351e-13
9.55518e-13
4.13478e-13
9.02017e-13
4.11949e-13
8.49437e-13
4.08527e-13
7.97669e-13
4.04698e-13
7.46553e-13
4.00792e-13
6.96262e-13
3.96057e-13
6.46725e-13
3.91026e-13
5.98241e-13
3.85816e-13
5.50587e-13
3.799e-13
5.03745e-13
3.74035e-13
4.57725e-13
3.68087e-13
4.12341e-13
3.62068e-13
3.67739e-13
3.55653e-13
3.23953e-13
3.48899e-13
2.81074e-13
3.41487e-13
2.39903e-13
3.32462e-13
2.03447e-13
3.19858e-13
1.8009e-13
2.97921e-13
6.71935e-14
4.44669e-13
2.91732e-14
5.75575e-13
-2.36084e-16
4.52724e-13
-7.54381e-22
-5.01541e-20
-6.98709e-22
-4.352e-22
-6.10098e-22
-3.63081e-22
-4.90001e-22
-2.92615e-22
-3.69905e-22
-2.2489e-22
-2.52135e-22
-1.60628e-22
-1.36433e-22
-1.00089e-22
-2.26441e-23
-4.34787e-23
8.86117e-23
8.8405e-24
1.96559e-22
5.70238e-23
2.99698e-22
1.00658e-22
3.9653e-22
1.4e-22
4.85555e-22
1.75207e-22
5.6574e-22
2.06485e-22
6.3605e-22
2.34351e-22
6.96228e-22
2.58856e-22
7.46117e-22
2.80673e-22
7.85977e-22
3.00163e-22
8.16014e-22
3.17586e-22
8.36745e-22
3.33561e-22
8.48791e-22
3.48295e-22
8.52358e-22
3.62047e-22
8.48532e-22
3.75178e-22
8.37262e-22
3.87689e-22
8.19322e-22
3.9989e-22
7.95334e-22
4.11781e-22
7.65556e-22
4.2331e-22
7.30504e-22
4.34322e-22
6.90799e-22
4.4492e-22
6.46752e-22
4.54898e-22
5.98879e-22
4.64203e-22
5.47697e-22
4.72424e-22
4.93465e-22
4.79816e-22
4.36596e-22
4.86227e-22
3.77556e-22
4.91449e-22
3.16707e-22
4.95533e-22
2.54565e-22
4.98635e-22
1.9113e-22
5.00444e-22
1.27024e-22
5.0122e-22
6.23487e-23
5.00858e-22
4.99462e-22
9.91131e-14
-7.40412e-13
1.95611e-13
-7.29843e-13
2.86724e-13
-7.11482e-13
3.70564e-13
-6.85478e-13
4.46407e-13
-6.55719e-13
5.14415e-13
-6.25473e-13
5.75318e-13
-5.97369e-13
6.31248e-13
-5.74755e-13
6.83244e-13
-5.57561e-13
7.32759e-13
-5.46273e-13
7.83619e-13
-5.43135e-13
8.38424e-13
-5.5026e-13
8.89544e-13
-5.5216e-13
9.44636e-13
-5.54415e-13
1.0151e-12
-5.78471e-13
1.08464e-12
-5.96774e-13
1.15646e-12
-6.09804e-13
1.22964e-12
-6.11601e-13
1.31775e-12
-6.19718e-13
1.39721e-12
-6.30069e-13
1.48105e-12
-6.18557e-13
1.56254e-12
-6.05331e-13
1.64456e-12
-5.85107e-13
1.72071e-12
-5.5817e-13
1.79292e-12
-5.22036e-13
1.85867e-12
-4.79077e-13
1.91688e-12
-4.30154e-13
1.96663e-12
-3.75943e-13
2.00743e-12
-3.18127e-13
2.03872e-12
-2.57768e-13
2.06076e-12
-1.95928e-13
2.07325e-12
-1.33879e-13
2.07643e-12
-7.31997e-14
2.0716e-12
-1.53172e-14
2.05924e-12
3.95268e-14
2.03997e-12
9.04285e-14
2.01544e-12
1.36297e-13
1.9857e-12
1.78372e-13
1.95163e-12
2.16411e-13
1.9146e-12
2.4986e-13
1.87481e-12
2.78986e-13
1.83275e-12
3.05108e-13
1.78853e-12
3.28754e-13
1.74328e-12
3.48816e-13
1.69654e-12
3.66046e-13
1.64875e-12
3.83204e-13
1.59874e-12
3.97093e-13
1.55101e-12
4.09915e-13
1.49798e-12
4.2624e-13
1.44528e-12
4.3243e-13
1.39237e-12
4.41591e-13
1.33861e-12
4.49051e-13
1.28435e-12
4.56701e-13
1.2291e-12
4.61953e-13
1.17398e-12
4.65818e-13
1.11822e-12
4.68273e-13
1.06316e-12
4.68696e-13
1.00791e-12
4.6951e-13
9.53711e-13
4.67637e-13
8.99255e-13
4.66429e-13
8.45939e-13
4.61931e-13
7.93481e-13
4.57302e-13
7.41873e-13
4.52606e-13
6.9116e-13
4.47039e-13
6.41283e-13
4.41228e-13
5.92637e-13
4.34841e-13
5.44773e-13
4.28195e-13
4.97772e-13
4.21516e-13
4.51491e-13
4.14898e-13
4.06014e-13
4.08117e-13
3.61064e-13
4.01214e-13
3.16586e-13
3.94029e-13
2.72473e-13
3.86282e-13
2.28186e-13
3.77463e-13
1.83413e-13
3.65365e-13
1.32392e-13
3.49699e-13
5.30823e-14
5.2475e-13
3.06103e-14
5.98829e-13
-2.30768e-16
4.8419e-13
-6.8159e-22
-5.44985e-20
-6.26589e-22
-4.90518e-22
-5.39632e-22
-4.07076e-22
-4.22276e-22
-3.25702e-22
-3.05592e-22
-2.47844e-22
-1.91596e-22
-1.74225e-22
-7.98229e-23
-1.05052e-22
2.97268e-23
-4.07386e-23
1.36692e-22
1.85082e-23
2.40193e-22
7.27919e-23
3.39092e-22
1.21751e-22
4.31685e-22
1.6554e-22
5.16885e-22
2.04572e-22
5.93554e-22
2.3921e-22
6.60607e-22
2.69713e-22
7.18045e-22
2.96699e-22
7.65556e-22
3.20533e-22
8.03399e-22
3.41729e-22
8.31989e-22
3.60806e-22
8.51531e-22
3.78177e-22
8.62543e-22
3.94152e-22
8.6549e-22
4.09248e-22
8.60992e-22
4.2362e-22
8.49411e-22
4.37475e-22
8.31213e-22
4.50865e-22
8.06811e-22
4.63686e-22
7.76568e-22
4.76198e-22
7.41051e-22
4.8814e-22
7.00725e-22
4.99462e-22
6.56006e-22
5.09905e-22
6.07202e-22
5.19469e-22
5.5509e-22
5.28051e-22
4.99824e-22
5.35341e-22
4.41818e-22
5.4139e-22
3.81692e-22
5.46146e-22
3.19809e-22
5.4961e-22
2.56374e-22
5.51988e-22
1.91958e-22
5.53022e-22
1.2661e-22
5.53022e-22
6.09529e-23
5.52143e-22
5.5023e-22
1.0936e-13
-8.49257e-13
2.15049e-13
-8.34644e-13
3.12925e-13
-8.08588e-13
4.0022e-13
-7.72027e-13
4.76594e-13
-7.3137e-13
5.42426e-13
-6.90604e-13
5.984e-13
-6.52664e-13
6.4915e-13
-6.24861e-13
6.92619e-13
-6.00418e-13
7.35476e-13
-5.88557e-13
7.84036e-13
-5.91165e-13
8.27547e-13
-5.93284e-13
8.72155e-13
-5.9633e-13
9.35506e-13
-6.17378e-13
1.00038e-12
-6.43014e-13
1.07152e-12
-6.6763e-13
1.14067e-12
-6.78732e-13
1.22726e-12
-6.98031e-13
1.31767e-12
-7.10028e-13
1.40258e-12
-7.14933e-13
1.49335e-12
-7.09341e-13
1.58399e-12
-6.96051e-13
1.67265e-12
-6.739e-13
1.75656e-12
-6.42267e-13
1.83556e-12
-6.01287e-13
1.90753e-12
-5.51343e-13
1.97075e-12
-4.93731e-13
2.02457e-12
-4.30174e-13
2.068e-12
-3.62016e-13
2.10057e-12
-2.90838e-13
2.12238e-12
-2.18277e-13
2.13367e-12
-1.45745e-13
2.13429e-12
-7.4431e-14
2.12635e-12
-8.02435e-15
2.10986e-12
5.53412e-14
2.08671e-12
1.12889e-13
2.05748e-12
1.64817e-13
2.02345e-12
2.11681e-13
1.98512e-12
2.54011e-13
1.94429e-12
2.89957e-13
1.90083e-12
3.2172e-13
1.85545e-12
3.4976e-13
1.80906e-12
3.74429e-13
1.76134e-12
3.95849e-13
1.71259e-12
4.14112e-13
1.66325e-12
4.31892e-13
1.61228e-12
4.47445e-13
1.56183e-12
4.59774e-13
1.50934e-12
4.78177e-13
1.45446e-12
4.86801e-13
1.40041e-12
4.95173e-13
1.34482e-12
5.04216e-13
1.28988e-12
5.11267e-13
1.23317e-12
5.18345e-13
1.17648e-12
5.22239e-13
1.11924e-12
5.25306e-13
1.06296e-12
5.24819e-13
1.00659e-12
5.25787e-13
9.51157e-13
5.23035e-13
8.95959e-13
5.21654e-13
8.41497e-13
5.16475e-13
7.88437e-13
5.10508e-13
7.3627e-13
5.04974e-13
6.85228e-13
4.98341e-13
6.35043e-13
4.91728e-13
5.86098e-13
4.84156e-13
5.38116e-13
4.76599e-13
4.91009e-13
4.69094e-13
4.44676e-13
4.61748e-13
3.99054e-13
4.543e-13
3.53845e-13
4.47024e-13
3.08841e-13
4.3967e-13
2.63226e-13
4.32568e-13
2.15508e-13
4.25878e-13
1.62578e-13
4.19017e-13
8.92202e-14
4.23796e-13
4.46235e-14
5.701e-13
2.65072e-14
6.1771e-13
-2.24865e-16
5.11533e-13
-5.98872e-22
-5.74929e-20
-5.43148e-22
-5.44492e-22
-4.58258e-22
-4.49573e-22
-3.44469e-22
-3.56928e-22
-2.31973e-22
-2.68679e-22
-1.22474e-22
-1.8534e-22
-1.54579e-23
-1.0743e-22
8.89736e-23
-3.53103e-23
1.90924e-22
3.08125e-23
2.891e-22
9.08865e-23
3.82881e-22
1.45067e-22
4.70769e-22
1.93353e-22
5.51523e-22
2.36057e-22
6.24056e-22
2.73745e-22
6.87542e-22
3.06781e-22
7.41929e-22
3.3599e-22
7.86804e-22
3.61581e-22
8.22424e-22
3.84329e-22
8.49411e-22
4.04698e-22
8.67506e-22
4.23206e-22
8.77639e-22
4.40474e-22
8.79913e-22
4.56604e-22
8.74847e-22
4.7201e-22
8.62853e-22
4.86848e-22
8.44086e-22
5.01116e-22
8.19322e-22
5.14972e-22
7.88458e-22
5.28155e-22
7.52373e-22
5.40769e-22
7.1122e-22
5.52557e-22
6.65519e-22
5.63258e-22
6.15784e-22
5.72771e-22
5.62379e-22
5.81094e-22
5.05821e-22
5.87815e-22
4.46574e-22
5.9314e-22
3.85156e-22
5.97121e-22
3.22135e-22
5.99654e-22
2.5746e-22
6.00792e-22
1.92009e-22
6.00947e-22
1.25731e-22
6.00016e-22
5.904e-23
5.98207e-22
5.95777e-22
1.23854e-13
-9.72609e-13
2.4206e-13
-9.51985e-13
3.49151e-13
-9.14932e-13
4.40859e-13
-8.6301e-13
5.17317e-13
-8.07122e-13
5.80132e-13
-7.52734e-13
6.29155e-13
-7.01029e-13
6.69322e-13
-6.64399e-13
7.02768e-13
-6.3327e-13
7.423e-13
-6.27533e-13
7.75621e-13
-6.23968e-13
8.08115e-13
-6.25305e-13
8.5854e-13
-6.4633e-13
9.15587e-13
-6.7405e-13
9.80914e-13
-7.08016e-13