/*--------------------------------*- C++ -*----------------------------------*\
  =========                 |
  \\      /  F ield         | OpenFOAM: The Open Source CFD Toolbox
   \\    /   O peration     | Website:  https://openfoam.org
    \\  /    A nd           | Version:  6
     \\/     M anipulation  |
\*---------------------------------------------------------------------------*/
FoamFile
{
    version     2.0;
    format      ascii;
    class       volVectorField;
    location    "7400";
    object      U;
}
// * * * * * * * * * * * * * * * * * * * * * * * * * * * * * * * * * * * * * //

dimensions      [0 1 -1 0 0 0 0];

internalField   nonuniform List<vector> 
4800
(
(1.60701e-08 0 -1.42895e-08)
(4.49829e-08 0 -1.72011e-08)
(7.50291e-08 0 -1.82207e-08)
(1.047e-07 0 -1.82342e-08)
(1.33792e-07 0 -1.7868e-08)
(1.62362e-07 0 -1.73297e-08)
(1.90404e-07 0 -1.67002e-08)
(2.17935e-07 0 -1.6057e-08)
(2.45006e-07 0 -1.54313e-08)
(2.71694e-07 0 -1.48812e-08)
(2.98094e-07 0 -1.43859e-08)
(3.2429e-07 0 -1.39957e-08)
(3.50378e-07 0 -1.37195e-08)
(3.7642e-07 0 -1.34862e-08)
(4.02403e-07 0 -1.32812e-08)
(4.2825e-07 0 -1.30575e-08)
(4.5392e-07 0 -1.28625e-08)
(4.79715e-07 0 -1.30113e-08)
(5.05495e-07 0 -1.28221e-08)
(5.30667e-07 0 -1.23873e-08)
(5.55198e-07 0 -1.1872e-08)
(5.79275e-07 0 -1.20603e-08)
(6.02652e-07 0 -1.12428e-08)
(6.24735e-07 0 -1.0587e-08)
(6.45423e-07 0 -9.93867e-09)
(6.64695e-07 0 -9.12125e-09)
(6.82261e-07 0 -8.20375e-09)
(6.97923e-07 0 -7.22736e-09)
(7.11568e-07 0 -6.16337e-09)
(7.23089e-07 0 -5.08151e-09)
(7.32423e-07 0 -3.97176e-09)
(7.3952e-07 0 -2.84475e-09)
(7.44387e-07 0 -1.73797e-09)
(7.47045e-07 0 -6.36167e-10)
(7.47545e-07 0 4.15037e-10)
(7.45962e-07 0 1.43599e-09)
(7.42413e-07 0 2.38091e-09)
(7.36986e-07 0 3.28969e-09)
(7.29844e-07 0 4.09694e-09)
(7.21107e-07 0 4.8634e-09)
(7.1088e-07 0 5.55341e-09)
(6.99325e-07 0 6.17943e-09)
(6.86558e-07 0 6.74798e-09)
(6.72705e-07 0 7.23305e-09)
(6.57883e-07 0 7.72689e-09)
(6.42178e-07 0 8.11875e-09)
(6.25617e-07 0 8.51611e-09)
(6.08395e-07 0 8.75372e-09)
(5.90607e-07 0 9.04369e-09)
(5.72281e-07 0 9.26304e-09)
(5.53508e-07 0 9.45249e-09)
(5.34342e-07 0 9.63491e-09)
(5.14836e-07 0 9.74856e-09)
(4.95076e-07 0 9.83977e-09)
(4.75104e-07 0 9.91395e-09)
(4.54991e-07 0 9.92126e-09)
(4.34804e-07 0 9.9443e-09)
(4.14577e-07 0 9.8979e-09)
(3.94353e-07 0 9.88539e-09)
(3.74165e-07 0 9.7946e-09)
(3.54081e-07 0 9.688e-09)
(3.34156e-07 0 9.56781e-09)
(3.1441e-07 0 9.43593e-09)
(2.94859e-07 0 9.28735e-09)
(2.75535e-07 0 9.11931e-09)
(2.56476e-07 0 8.93048e-09)
(2.37701e-07 0 8.74087e-09)
(2.1922e-07 0 8.54113e-09)
(2.01033e-07 0 8.34442e-09)
(1.83193e-07 0 8.10886e-09)
(1.65758e-07 0 7.86933e-09)
(1.48776e-07 0 7.61074e-09)
(1.32386e-07 0 7.29676e-09)
(1.16951e-07 0 6.78423e-09)
(1.03543e-07 0 5.92839e-09)
(9.45096e-08 0 4.14389e-09)
(9.35459e-08 0 -1.06118e-08)
(7.42269e-08 0 7.67179e-09)
(-1.7527e-10 0 2.76381e-08)
(3.57923e-15 0 -1.49852e-15)
(-1.81594e-16 0 -1.20458e-17)
(-3.42742e-16 0 -1.3969e-17)
(-3.04516e-16 0 -1.37312e-17)
(-2.55692e-16 0 -1.29144e-17)
(-2.05627e-16 0 -1.19321e-17)
(-1.55562e-16 0 -1.09291e-17)
(-1.05734e-16 0 -9.83311e-18)
(-5.64034e-17 0 -8.72676e-18)
(-7.90991e-18 0 -7.50666e-18)
(3.9198e-17 0 -6.21419e-18)
(8.4207e-17 0 -4.84935e-18)
(1.26393e-16 0 -3.4845e-18)
(1.65064e-16 0 -2.11965e-18)
(1.99712e-16 0 -7.85822e-19)
(2.29998e-16 0 4.5495e-19)
(2.55744e-16 0 1.64402e-18)
(2.76919e-16 0 2.7297e-18)
(2.93639e-16 0 3.74299e-18)
(3.06098e-16 0 4.66323e-18)
(3.14504e-16 0 5.52143e-18)
(3.19116e-16 0 6.33827e-18)
(3.20191e-16 0 7.0207e-18)
(3.1803e-16 0 7.68244e-18)
(3.12922e-16 0 8.25113e-18)
(3.05126e-16 0 8.81981e-18)
(2.94921e-16 0 9.3368e-18)
(2.82534e-16 0 9.79175e-18)
(2.68213e-16 0 1.0226e-17)
(2.52207e-16 0 1.06293e-17)
(2.34754e-16 0 1.09912e-17)
(2.15998e-16 0 1.13014e-17)
(1.96073e-16 0 1.16115e-17)
(1.75218e-16 0 1.187e-17)
(1.53545e-16 0 1.21182e-17)
(1.3117e-16 0 1.23353e-17)
(1.08247e-16 0 1.25111e-17)
(8.48377e-17 0 1.26455e-17)
(6.10356e-17 0 1.27696e-17)
(3.69233e-17 0 1.28833e-17)
(1.23974e-17 0 1.31108e-17)
(1.5812e-08 0 -4.49737e-08)
(4.59207e-08 0 -4.2145e-08)
(7.52426e-08 0 -4.10355e-08)
(1.04871e-07 0 -4.02698e-08)
(1.33907e-07 0 -3.96524e-08)
(1.62436e-07 0 -3.90998e-08)
(1.90434e-07 0 -3.86037e-08)
(2.17913e-07 0 -3.82091e-08)
(2.44931e-07 0 -3.79114e-08)
(2.71554e-07 0 -3.77562e-08)
(2.97884e-07 0 -3.77341e-08)
(3.24051e-07 0 -3.78419e-08)
(3.50143e-07 0 -3.80895e-08)
(3.76194e-07 0 -3.82036e-08)
(4.02182e-07 0 -3.82683e-08)
(4.28063e-07 0 -3.80244e-08)
(4.53855e-07 0 -3.78587e-08)
(4.79823e-07 0 -3.86812e-08)
(5.0575e-07 0 -3.82705e-08)
(5.31058e-07 0 -3.71143e-08)
(5.55843e-07 0 -3.57679e-08)
(5.80136e-07 0 -3.63828e-08)
(6.03717e-07 0 -3.40835e-08)
(6.25981e-07 0 -3.21702e-08)
(6.46901e-07 0 -3.03624e-08)
(6.66392e-07 0 -2.79552e-08)
(6.84122e-07 0 -2.52322e-08)
(6.99919e-07 0 -2.23624e-08)
(7.13676e-07 0 -1.92038e-08)
(7.25275e-07 0 -1.59925e-08)
(7.34654e-07 0 -1.26855e-08)
(7.41766e-07 0 -9.31476e-09)
(7.46613e-07 0 -5.99477e-09)
(7.49215e-07 0 -2.69003e-09)
(7.4962e-07 0 4.98519e-10)
(7.47926e-07 0 3.52986e-09)
(7.44265e-07 0 6.3941e-09)
(7.3872e-07 0 9.12266e-09)
(7.31448e-07 0 1.15737e-08)
(7.22575e-07 0 1.38841e-08)
(7.12207e-07 0 1.60267e-08)
(7.00527e-07 0 1.78945e-08)
(6.8766e-07 0 1.96436e-08)
(6.73693e-07 0 2.11722e-08)
(6.58754e-07 0 2.26444e-08)
(6.42969e-07 0 2.3909e-08)
(6.26344e-07 0 2.51501e-08)
(6.09043e-07 0 2.5957e-08)
(5.91177e-07 0 2.68552e-08)
(5.72793e-07 0 2.76135e-08)
(5.53961e-07 0 2.82619e-08)
(5.34731e-07 0 2.89156e-08)
(5.15155e-07 0 2.93851e-08)
(4.95329e-07 0 2.97538e-08)
(4.75309e-07 0 3.01019e-08)
(4.5515e-07 0 3.02663e-08)
(4.34909e-07 0 3.0465e-08)
(4.1463e-07 0 3.05148e-08)
(3.94349e-07 0 3.06311e-08)
(3.74122e-07 0 3.05297e-08)
(3.54005e-07 0 3.03894e-08)
(3.34055e-07 0 3.02006e-08)
(3.14289e-07 0 2.99954e-08)
(2.94721e-07 0 2.97525e-08)
(2.75378e-07 0 2.9459e-08)
(2.56306e-07 0 2.91076e-08)
(2.37496e-07 0 2.87881e-08)
(2.18968e-07 0 2.8414e-08)
(2.00766e-07 0 2.80134e-08)
(1.82912e-07 0 2.75172e-08)
(1.65402e-07 0 2.7012e-08)
(1.48265e-07 0 2.63951e-08)
(1.31531e-07 0 2.56139e-08)
(1.15178e-07 0 2.44356e-08)
(9.88638e-08 0 2.21945e-08)
(8.27974e-08 0 1.64964e-08)
(5.33069e-08 0 5.00859e-10)
(3.33682e-08 0 6.68087e-08)
(-5.44618e-11 0 6.43252e-08)
(2.53168e-15 0 -3.99583e-15)
(-1.83509e-16 0 -3.24979e-17)
(-3.44407e-16 0 -3.31803e-17)
(-3.03462e-16 0 -3.07401e-17)
(-2.53893e-16 0 -2.7359e-17)
(-2.03631e-16 0 -2.37711e-17)
(-1.53463e-16 0 -2.01108e-17)
(-1.03532e-16 0 -1.64506e-17)
(-5.40563e-17 0 -1.27903e-17)
(-5.39735e-18 0 -9.13001e-18)
(4.18347e-17 0 -5.51109e-18)
(8.69264e-17 0 -1.93353e-18)
(1.29123e-16 0 1.47859e-18)
(1.67752e-16 0 4.72527e-18)
(2.02287e-16 0 7.79618e-18)
(2.32427e-16 0 1.06086e-17)
(2.58029e-16 0 1.32142e-17)
(2.79039e-16 0 1.55717e-17)
(2.95583e-16 0 1.77327e-17)
(3.07877e-16 0 1.97179e-17)
(3.16159e-16 0 2.15274e-17)
(3.20605e-16 0 2.32024e-17)
(3.21525e-16 0 2.4712e-17)
(3.19271e-16 0 2.61596e-17)
(3.14081e-16 0 2.74624e-17)
(3.06212e-16 0 2.87445e-17)
(2.95893e-16 0 2.99233e-17)
(2.83413e-16 0 3.104e-17)
(2.69041e-16 0 3.20739e-17)
(2.52983e-16 0 3.30769e-17)
(2.35436e-16 0 3.39868e-17)
(2.16597e-16 0 3.48553e-17)
(1.96642e-16 0 3.56722e-17)
(1.75735e-16 0 3.6396e-17)
(1.54e-16 0 3.70577e-17)
(1.31563e-16 0 3.76471e-17)
(1.08557e-16 0 3.81123e-17)
(8.50962e-17 0 3.85053e-17)
(6.12941e-17 0 3.88051e-17)
(3.72852e-17 0 3.90533e-17)
(1.26248e-17 0 3.93428e-17)
(1.5495e-08 0 -7.58003e-08)
(4.58695e-08 0 -7.52142e-08)
(7.57565e-08 0 -7.45344e-08)
(1.05928e-07 0 -7.34329e-08)
(1.35276e-07 0 -7.21154e-08)
(1.63951e-07 0 -7.06706e-08)
(1.91975e-07 0 -6.92e-08)
(2.19365e-07 0 -6.78478e-08)
(2.46211e-07 0 -6.66824e-08)
(2.72628e-07 0 -6.57609e-08)
(2.98729e-07 0 -6.51107e-08)
(3.2466e-07 0 -6.48087e-08)
(3.50556e-07 0 -6.47815e-08)
(3.76466e-07 0 -6.46442e-08)
(4.02309e-07 0 -6.4539e-08)
(4.28125e-07 0 -6.37358e-08)
(4.54034e-07 0 -6.39668e-08)
(4.80273e-07 0 -6.50077e-08)
(5.06362e-07 0 -6.40247e-08)
(5.31918e-07 0 -6.22259e-08)
(5.57167e-07 0 -6.04928e-08)
(5.81961e-07 0 -6.08223e-08)
(6.05954e-07 0 -5.72375e-08)
(6.28581e-07 0 -5.40151e-08)
(6.49944e-07 0 -5.10624e-08)
(6.69834e-07 0 -4.69119e-08)
(6.87866e-07 0 -4.23342e-08)
(7.03927e-07 0 -3.75114e-08)
(7.17908e-07 0 -3.2198e-08)
(7.29666e-07 0 -2.67751e-08)
(7.39119e-07 0 -2.11799e-08)
(7.46227e-07 0 -1.55264e-08)
(7.5102e-07 0 -9.93007e-09)
(7.53522e-07 0 -4.39195e-09)
(7.53774e-07 0 1.01078e-09)
(7.51871e-07 0 6.05786e-09)
(7.47969e-07 0 1.08555e-08)
(7.4217e-07 0 1.54111e-08)
(7.34647e-07 0 1.94949e-08)
(7.25529e-07 0 2.33326e-08)
(7.14911e-07 0 2.69406e-08)
(7.02974e-07 0 3.0008e-08)
(6.89848e-07 0 3.29015e-08)
(6.7565e-07 0 3.54734e-08)
(6.60517e-07 0 3.78168e-08)
(6.44574e-07 0 3.99309e-08)
(6.27772e-07 0 4.20073e-08)
(6.10273e-07 0 4.33651e-08)
(5.92229e-07 0 4.47926e-08)
(5.73696e-07 0 4.60418e-08)
(5.54736e-07 0 4.70697e-08)
(5.35391e-07 0 4.81415e-08)
(5.15697e-07 0 4.89021e-08)
(4.95742e-07 0 4.94631e-08)
(4.75586e-07 0 5.00002e-08)
(4.55304e-07 0 5.02329e-08)
(4.34962e-07 0 5.04811e-08)
(4.14605e-07 0 5.05221e-08)
(3.9424e-07 0 5.06171e-08)
(3.73934e-07 0 5.03857e-08)
(3.5374e-07 0 5.00772e-08)
(3.33709e-07 0 4.9692e-08)
(3.13854e-07 0 4.92824e-08)
(2.94219e-07 0 4.87875e-08)
(2.74833e-07 0 4.82072e-08)
(2.55705e-07 0 4.75649e-08)
(2.36848e-07 0 4.69181e-08)
(2.18303e-07 0 4.61839e-08)
(2.00065e-07 0 4.54117e-08)
(1.82147e-07 0 4.45519e-08)
(1.64555e-07 0 4.36709e-08)
(1.47263e-07 0 4.26766e-08)
(1.30197e-07 0 4.15375e-08)
(1.13185e-07 0 4.00535e-08)
(9.56227e-08 0 3.78991e-08)
(7.73352e-08 0 3.51959e-08)
(4.8514e-08 0 3.23311e-08)
(2.88901e-08 0 8.06148e-08)
(-4.44337e-11 0 8.70524e-08)
(2.37066e-15 0 -6.29323e-15)
(-1.82303e-16 0 -5.13369e-17)
(-3.40974e-16 0 -4.66116e-17)
(-2.98716e-16 0 -4.04388e-17)
(-2.48723e-16 0 -3.36973e-17)
(-1.98358e-16 0 -2.69144e-17)
(-1.48241e-16 0 -2.01418e-17)
(-9.84242e-17 0 -1.35968e-17)
(-4.90828e-17 0 -7.21715e-18)
(-6.30719e-19 0 -1.15805e-18)
(4.63842e-17 0 4.55983e-18)
(9.11967e-17 0 9.90549e-18)
(1.33052e-16 0 1.48582e-17)
(1.7135e-16 0 1.9356e-17)
(2.05585e-16 0 2.34713e-17)
(2.35426e-16 0 2.71522e-17)
(2.60727e-16 0 3.04816e-17)
(2.81469e-16 0 3.34801e-17)
(2.97806e-16 0 3.61685e-17)
(3.09883e-16 0 3.865e-17)
(3.17979e-16 0 4.09144e-17)
(3.22311e-16 0 4.29617e-17)
(3.23138e-16 0 4.49056e-17)
(3.20791e-16 0 4.67564e-17)
(3.15518e-16 0 4.85038e-17)
(3.07577e-16 0 5.01892e-17)
(2.97216e-16 0 5.18022e-17)
(2.84685e-16 0 5.33635e-17)
(2.7024e-16 0 5.48834e-17)
(2.5412e-16 0 5.63517e-17)
(2.36543e-16 0 5.77476e-17)
(2.17662e-16 0 5.9071e-17)
(1.97603e-16 0 6.03015e-17)
(1.76603e-16 0 6.14492e-17)
(1.54776e-16 0 6.24832e-17)
(1.32225e-16 0 6.33724e-17)
(1.09115e-16 0 6.41065e-17)
(8.55305e-17 0 6.46959e-17)
(6.16043e-17 0 6.51508e-17)
(3.74713e-17 0 6.543e-17)
(1.26765e-17 0 6.5523e-17)
(1.57692e-08 0 -1.05892e-07)
(4.67922e-08 0 -1.05176e-07)
(7.69726e-08 0 -1.04051e-07)
(1.07498e-07 0 -1.02342e-07)
(1.37064e-07 0 -1.00322e-07)
(1.65799e-07 0 -9.8159e-08)
(1.93746e-07 0 -9.59917e-08)
(2.2095e-07 0 -9.4031e-08)
(2.47521e-07 0 -9.23757e-08)
(2.73591e-07 0 -9.1118e-08)
(2.99356e-07 0 -9.03101e-08)
(3.24985e-07 0 -9.00337e-08)
(3.50623e-07 0 -9.009e-08)
(3.76351e-07 0 -9.01328e-08)
(4.0205e-07 0 -9.00627e-08)
(4.27902e-07 0 -8.89452e-08)
(4.54064e-07 0 -9.01759e-08)
(4.80714e-07 0 -9.12867e-08)
(5.07094e-07 0 -9.01041e-08)
(5.33125e-07 0 -8.73512e-08)
(5.5903e-07 0 -8.60542e-08)
(5.84646e-07 0 -8.54685e-08)
(6.09236e-07 0 -8.08672e-08)
(6.32475e-07 0 -7.63454e-08)
(6.54503e-07 0 -7.22953e-08)
(6.74995e-07 0 -6.62354e-08)
(6.9352e-07 0 -5.98003e-08)
(7.10011e-07 0 -5.29748e-08)
(7.24346e-07 0 -4.54189e-08)
(7.36325e-07 0 -3.76641e-08)
(7.45895e-07 0 -2.97286e-08)
(7.53025e-07 0 -2.17128e-08)
(7.57723e-07 0 -1.37442e-08)
(7.60038e-07 0 -5.93343e-09)
(7.6004e-07 0 1.74385e-09)
(7.57834e-07 0 8.85655e-09)
(7.53569e-07 0 1.56298e-08)
(7.47372e-07 0 2.20039e-08)
(7.39449e-07 0 2.77355e-08)
(7.29897e-07 0 3.31271e-08)
(7.18869e-07 0 3.81279e-08)
(7.0659e-07 0 4.24274e-08)
(6.93123e-07 0 4.64544e-08)
(6.78572e-07 0 5.00639e-08)
(6.63097e-07 0 5.32476e-08)
(6.46901e-07 0 5.61693e-08)
(6.29906e-07 0 5.91244e-08)
(6.1216e-07 0 6.10247e-08)
(5.93861e-07 0 6.29523e-08)
(5.75119e-07 0 6.47325e-08)
(5.55954e-07 0 6.61159e-08)
(5.36399e-07 0 6.76552e-08)
(5.16518e-07 0 6.87438e-08)
(4.96391e-07 0 6.9496e-08)
(4.76071e-07 0 7.02838e-08)
(4.5565e-07 0 7.05869e-08)
(4.35137e-07 0 7.09364e-08)
(4.14608e-07 0 7.10202e-08)
(3.94091e-07 0 7.11444e-08)
(3.7368e-07 0 7.08222e-08)
(3.53371e-07 0 7.04076e-08)
(3.33225e-07 0 6.98897e-08)
(3.13284e-07 0 6.9291e-08)
(2.93582e-07 0 6.85734e-08)
(2.7413e-07 0 6.77694e-08)
(2.54934e-07 0 6.6915e-08)
(2.36011e-07 0 6.59962e-08)
(2.17392e-07 0 6.50078e-08)
(1.99098e-07 0 6.39392e-08)
(1.81125e-07 0 6.27776e-08)
(1.63441e-07 0 6.16081e-08)
(1.46055e-07 0 6.03323e-08)
(1.28893e-07 0 5.8983e-08)
(1.11797e-07 0 5.75733e-08)
(9.44143e-08 0 5.61783e-08)
(7.74803e-08 0 5.51099e-08)
(5.60178e-08 0 5.70399e-08)
(2.93352e-08 0 1.00265e-07)
(-4.81291e-11 0 1.07473e-07)
(2.33838e-15 0 -8.92221e-15)
(-1.78777e-16 0 -7.2947e-17)
(-3.33519e-16 0 -6.37033e-17)
(-2.90568e-16 0 -5.38081e-17)
(-2.40358e-16 0 -4.37372e-17)
(-1.90076e-16 0 -3.37386e-17)
(-1.40155e-16 0 -2.40089e-17)
(-9.0628e-17 0 -1.46204e-17)
(-4.16382e-17 0 -5.68687e-18)
(6.41066e-18 0 2.76072e-18)
(5.29292e-17 0 1.05983e-17)
(9.72248e-17 0 1.78361e-17)
(1.38563e-16 0 2.44535e-17)
(1.76355e-16 0 3.04609e-17)
(2.10094e-16 0 3.58583e-17)
(2.39448e-16 0 4.0687e-17)
(2.64357e-16 0 4.50193e-17)
(2.84736e-16 0 4.89174e-17)
(3.00753e-16 0 5.24329e-17)
(3.12612e-16 0 5.56382e-17)
(3.20481e-16 0 5.86161e-17)
(3.24617e-16 0 6.13458e-17)
(3.2532e-16 0 6.3879e-17)
(3.22869e-16 0 6.63192e-17)
(3.17513e-16 0 6.8656e-17)
(3.0949e-16 0 7.08997e-17)
(2.99078e-16 0 7.30814e-17)
(2.86515e-16 0 7.51804e-17)
(2.72029e-16 0 7.72897e-17)
(2.55857e-16 0 7.92956e-17)
(2.38166e-16 0 8.12291e-17)
(2.19151e-16 0 8.30076e-17)
(1.99009e-16 0 8.4693e-17)
(1.77896e-16 0 8.62439e-17)
(1.55924e-16 0 8.76398e-17)
(1.33197e-16 0 8.88185e-17)
(1.09891e-16 0 8.98111e-17)
(8.61405e-17 0 9.05659e-17)
(6.20179e-17 0 9.1145e-17)
(3.76574e-17 0 9.14448e-17)
(1.27179e-17 0 9.15069e-17)
(1.62047e-08 0 -1.36885e-07)
(4.80872e-08 0 -1.35811e-07)
(7.87185e-08 0 -1.34127e-07)
(1.09678e-07 0 -1.3169e-07)
(1.3951e-07 0 -1.28793e-07)
(1.68282e-07 0 -1.25754e-07)
(1.96083e-07 0 -1.22774e-07)
(2.22985e-07 0 -1.20106e-07)
(2.49141e-07 0 -1.17889e-07)
(2.74758e-07 0 -1.16255e-07)
(3.00043e-07 0 -1.15303e-07)
(3.25193e-07 0 -1.15147e-07)
(3.5053e-07 0 -1.15158e-07)
(3.75905e-07 0 -1.15704e-07)
(4.01408e-07 0 -1.15424e-07)
(4.27543e-07 0 -1.13769e-07)
(4.53931e-07 0 -1.17397e-07)
(4.81102e-07 0 -1.18292e-07)
(5.07928e-07 0 -1.16323e-07)
(5.34776e-07 0 -1.12164e-07)
(5.61407e-07 0 -1.14506e-07)
(5.88212e-07 0 -1.10181e-07)
(6.13487e-07 0 -1.05308e-07)
(6.37715e-07 0 -9.96318e-08)
(6.6066e-07 0 -9.42334e-08)
(6.81966e-07 0 -8.62408e-08)
(7.01193e-07 0 -7.78902e-08)
(7.18297e-07 0 -6.87996e-08)
(7.33068e-07 0 -5.90653e-08)
(7.45372e-07 0 -4.87743e-08)
(7.55107e-07 0 -3.83583e-08)
(7.62237e-07 0 -2.78377e-08)
(7.66795e-07 0 -1.73882e-08)
(7.68841e-07 0 -7.19993e-09)
(7.68469e-07 0 2.83063e-09)
(7.65826e-07 0 1.20342e-08)
(7.6107e-07 0 2.08746e-08)
(7.54346e-07 0 2.90561e-08)
(7.4588e-07 0 3.64766e-08)
(7.35773e-07 0 4.34519e-08)
(7.24196e-07 0 4.97532e-08)
(7.11393e-07 0 5.52816e-08)
(6.97431e-07 0 6.04141e-08)
(6.82437e-07 0 6.50418e-08)
(6.6656e-07 0 6.9042e-08)
(6.49986e-07 0 7.25563e-08)
(6.32709e-07 0 7.65451e-08)
(6.14659e-07 0 7.90836e-08)
(5.95995e-07 0 8.13189e-08)
(5.7695e-07 0 8.36216e-08)
(5.57549e-07 0 8.54102e-08)
(5.37752e-07 0 8.73397e-08)
(5.17637e-07 0 8.87524e-08)
(4.97299e-07 0 8.96878e-08)
(4.76741e-07 0 9.06964e-08)
(4.56093e-07 0 9.10965e-08)
(4.35361e-07 0 9.15345e-08)
(4.14638e-07 0 9.16271e-08)
(3.9393e-07 0 9.17211e-08)
(3.73349e-07 0 9.1312e-08)
(3.52885e-07 0 9.07731e-08)
(3.32604e-07 0 9.0077e-08)
(3.12536e-07 0 8.93024e-08)
(2.92711e-07 0 8.83683e-08)
(2.73161e-07 0 8.73179e-08)
(2.5388e-07 0 8.6253e-08)
(2.34884e-07 0 8.50352e-08)
(2.16198e-07 0 8.37514e-08)
(1.97853e-07 0 8.23778e-08)
(1.79809e-07 0 8.09515e-08)
(1.62066e-07 0 7.9478e-08)
(1.44647e-07 0 7.79324e-08)
(1.27526e-07 0 7.63638e-08)
(1.10707e-07 0 7.48958e-08)
(9.40358e-08 0 7.38198e-08)
(7.84691e-08 0 7.3459e-08)
(5.95695e-08 0 7.64736e-08)
(3.00759e-08 0 1.29221e-07)
(-5.05954e-11 0 1.30124e-07)
(2.30558e-15 0 -1.16196e-14)
(-1.72955e-16 0 -9.54153e-17)
(-3.21846e-16 0 -8.17151e-17)
(-2.7875e-16 0 -6.78598e-17)
(-2.28643e-16 0 -5.42527e-17)
(-1.7864e-16 0 -4.09351e-17)
(-1.29123e-16 0 -2.81138e-17)
(-8.00918e-17 0 -1.58715e-17)
(-3.17017e-17 0 -4.33236e-18)
(1.56751e-17 0 6.50371e-18)
(6.14802e-17 0 1.64609e-17)
(1.05042e-16 0 2.56219e-17)
(1.45667e-16 0 3.38937e-17)
(1.82766e-16 0 4.14107e-17)
(2.15832e-16 0 4.81109e-17)
(2.44577e-16 0 5.41286e-17)
(2.68927e-16 0 5.9495e-17)
(2.88872e-16 0 6.43133e-17)
(3.04516e-16 0 6.86663e-17)
(3.16055e-16 0 7.26161e-17)
(3.23676e-16 0 7.62661e-17)
(3.27584e-16 0 7.96472e-17)
(3.28112e-16 0 8.28318e-17)
(3.25558e-16 0 8.58924e-17)
(3.20098e-16 0 8.88185e-17)
(3.11971e-16 0 9.16413e-17)
(3.01507e-16 0 9.44123e-17)
(2.88914e-16 0 9.70903e-17)
(2.74355e-16 0 9.9727e-17)
(2.5807e-16 0 1.0225e-16)
(2.40255e-16 0 1.0468e-16)
(2.21136e-16 0 1.06934e-16)
(2.0086e-16 0 1.09053e-16)
(1.79571e-16 0 1.10966e-16)
(1.57361e-16 0 1.12631e-16)
(1.34396e-16 0 1.14079e-16)
(1.10863e-16 0 1.15247e-16)
(8.6854e-17 0 1.16157e-16)
(6.24625e-17 0 1.16777e-16)
(3.78228e-17 0 1.17087e-16)
(1.27386e-17 0 1.17098e-16)
(1.67488e-08 0 -1.69005e-07)
(4.9741e-08 0 -1.67577e-07)
(8.11584e-08 0 -1.65234e-07)
(1.1276e-07 0 -1.61873e-07)
(1.42952e-07 0 -1.57833e-07)
(1.71788e-07 0 -1.53613e-07)
(1.9937e-07 0 -1.49552e-07)
(2.25803e-07 0 -1.45916e-07)
(2.51328e-07 0 -1.43021e-07)
(2.76273e-07 0 -1.40955e-07)
(3.00846e-07 0 -1.3985e-07)
(3.25354e-07 0 -1.39768e-07)
(3.50274e-07 0 -1.39763e-07)
(3.74932e-07 0 -1.41354e-07)
(4.0016e-07 0 -1.40671e-07)
(4.26703e-07 0 -1.39587e-07)
(4.53699e-07 0 -1.44662e-07)
(4.81305e-07 0 -1.45372e-07)
(5.08579e-07 0 -1.4338e-07)
(5.36732e-07 0 -1.38919e-07)
(5.64495e-07 0 -1.42544e-07)
(5.92464e-07 0 -1.36355e-07)
(6.18814e-07 0 -1.30763e-07)
(6.44372e-07 0 -1.24129e-07)
(6.68537e-07 0 -1.16936e-07)
(6.90871e-07 0 -1.07182e-07)
(7.11014e-07 0 -9.67099e-08)
(7.28908e-07 0 -8.52905e-08)
(7.44259e-07 0 -7.30811e-08)
(7.56962e-07 0 -6.01771e-08)
(7.66895e-07 0 -4.70488e-08)
(7.74015e-07 0 -3.38603e-08)
(7.78376e-07 0 -2.07922e-08)
(7.80058e-07 0 -8.07083e-09)
(7.79198e-07 0 4.3981e-09)
(7.75969e-07 0 1.5776e-08)
(7.70533e-07 0 2.67783e-08)
(7.63093e-07 0 3.66883e-08)
(7.53909e-07 0 4.58635e-08)
(7.43083e-07 0 5.44099e-08)
(7.30799e-07 0 6.19996e-08)
(7.1733e-07 0 6.87068e-08)
(7.02787e-07 0 7.4899e-08)
(6.87234e-07 0 8.05067e-08)
(6.70853e-07 0 8.52552e-08)
(6.53758e-07 0 8.94804e-08)
(6.36117e-07 0 9.39535e-08)
(6.1773e-07 0 9.7741e-08)
(5.98668e-07 0 1.0005e-07)
(5.79216e-07 0 1.02815e-07)
(5.59501e-07 0 1.05014e-07)
(5.39403e-07 0 1.07267e-07)
(5.19e-07 0 1.09022e-07)
(4.9838e-07 0 1.1016e-07)
(4.77516e-07 0 1.11393e-07)
(4.56601e-07 0 1.11812e-07)
(4.35621e-07 0 1.1236e-07)
(4.14661e-07 0 1.12455e-07)
(3.93699e-07 0 1.12522e-07)
(3.72902e-07 0 1.11963e-07)
(3.52229e-07 0 1.1132e-07)
(3.31792e-07 0 1.10366e-07)
(3.11579e-07 0 1.09423e-07)
(2.91642e-07 0 1.08231e-07)
(2.7197e-07 0 1.06909e-07)
(2.52581e-07 0 1.0559e-07)
(2.33504e-07 0 1.04105e-07)
(2.14757e-07 0 1.02501e-07)
(1.96325e-07 0 1.00831e-07)
(1.78204e-07 0 9.91211e-08)
(1.60419e-07 0 9.73234e-08)
(1.42987e-07 0 9.54718e-08)
(1.25962e-07 0 9.35593e-08)
(1.09459e-07 0 9.17169e-08)
(9.32512e-08 0 9.04034e-08)
(7.91994e-08 0 8.88971e-08)
(6.3067e-08 0 9.24061e-08)
(3.07405e-08 0 1.61765e-07)
(-5.19105e-11 0 1.50521e-07)
(2.26966e-15 0 -1.42577e-14)
(-1.64907e-16 0 -1.17977e-16)
(-3.05984e-16 0 -9.99855e-17)
(-2.63116e-16 0 -8.20977e-17)
(-2.13423e-16 0 -6.47889e-17)
(-1.63927e-16 0 -4.80282e-17)
(-1.15092e-16 0 -3.20326e-17)
(-6.68465e-17 0 -1.68952e-17)
(-1.92733e-17 0 -2.678e-18)
(2.71936e-17 0 1.05052e-17)
(7.20371e-17 0 2.26131e-17)
(1.14658e-16 0 3.36766e-17)
(1.54362e-16 0 4.36441e-17)
(1.90572e-16 0 5.26087e-17)
(2.22801e-16 0 6.06323e-17)
(2.50822e-16 0 6.77875e-17)
(2.74531e-16 0 7.41774e-17)
(2.93908e-16 0 7.99057e-17)
(3.09066e-16 0 8.50652e-17)
(3.20212e-16 0 8.97491e-17)
(3.27522e-16 0 9.40608e-17)
(3.31193e-16 0 9.80726e-17)
(3.31565e-16 0 1.01898e-16)
(3.28856e-16 0 1.05559e-16)
(3.23262e-16 0 1.09053e-16)
(3.15073e-16 0 1.12455e-16)
(3.04516e-16 0 1.15805e-16)
(2.91829e-16 0 1.19042e-16)
(2.77188e-16 0 1.22175e-16)
(2.608e-16 0 1.25183e-16)
(2.4285e-16 0 1.28068e-16)
(2.23535e-16 0 1.30757e-16)
(2.03042e-16 0 1.33217e-16)
(1.81494e-16 0 1.3543e-16)
(1.59036e-16 0 1.37364e-16)
(1.35813e-16 0 1.38987e-16)
(1.11969e-16 0 1.40269e-16)
(8.76605e-17 0 1.41262e-16)
(6.29588e-17 0 1.41851e-16)
(3.79676e-17 0 1.4213e-16)
(1.27179e-17 0 1.42017e-16)
(1.75101e-08 0 -2.02419e-07)
(5.20506e-08 0 -2.00488e-07)
(8.45694e-08 0 -1.97256e-07)
(1.17091e-07 0 -1.92595e-07)
(1.47735e-07 0 -1.8707e-07)
(1.76586e-07 0 -1.81315e-07)
(2.03773e-07 0 -1.75858e-07)
(2.29557e-07 0 -1.71036e-07)
(2.54246e-07 0 -1.67287e-07)
(2.78148e-07 0 -1.64806e-07)
(3.01552e-07 0 -1.63742e-07)
(3.25491e-07 0 -1.63105e-07)
(3.49336e-07 0 -1.64779e-07)
(3.7319e-07 0 -1.65709e-07)
(3.9851e-07 0 -1.64351e-07)
(4.25064e-07 0 -1.68012e-07)
(4.53076e-07 0 -1.72341e-07)
(4.80841e-07 0 -1.73223e-07)
(5.09174e-07 0 -1.70243e-07)
(5.38712e-07 0 -1.68183e-07)
(5.68243e-07 0 -1.71213e-07)
(5.97415e-07 0 -1.63988e-07)
(6.25224e-07 0 -1.57454e-07)
(6.52399e-07 0 -1.504e-07)
(6.78146e-07 0 -1.40818e-07)
(7.01771e-07 0 -1.29301e-07)
(7.23122e-07 0 -1.16501e-07)
(7.41993e-07 0 -1.02575e-07)
(7.58102e-07 0 -8.75658e-08)
(7.71276e-07 0 -7.19799e-08)
(7.81449e-07 0 -5.58172e-08)
(7.88525e-07 0 -3.97317e-08)
(7.92619e-07 0 -2.38598e-08)
(7.93811e-07 0 -8.39016e-09)
(7.92292e-07 0 6.58156e-09)
(7.8828e-07 0 2.02819e-08)
(7.81989e-07 0 3.34268e-08)
(7.73636e-07 0 4.52072e-08)
(7.63488e-07 0 5.60715e-08)
(7.51758e-07 0 6.61747e-08)
(7.38653e-07 0 7.498e-08)
(7.24384e-07 0 8.28575e-08)
(7.09078e-07 0 9.00138e-08)
(6.92844e-07 0 9.66006e-08)
(6.75881e-07 0 1.01911e-07)
(6.58184e-07 0 1.07168e-07)
(6.40076e-07 0 1.11456e-07)
(6.21321e-07 0 1.16839e-07)
(6.01907e-07 0 1.19291e-07)
(5.81989e-07 0 1.2228e-07)
(5.61855e-07 0 1.2502e-07)
(5.41404e-07 0 1.27482e-07)
(5.20644e-07 0 1.29648e-07)
(4.99678e-07 0 1.30945e-07)
(4.78427e-07 0 1.32399e-07)
(4.57173e-07 0 1.32855e-07)
(4.35867e-07 0 1.33444e-07)
(4.14618e-07 0 1.33545e-07)
(3.93383e-07 0 1.3355e-07)
(3.72325e-07 0 1.32876e-07)
(3.5141e-07 0 1.32028e-07)
(3.3076e-07 0 1.30898e-07)
(3.10363e-07 0 1.29673e-07)
(2.90257e-07 0 1.28249e-07)
(2.70487e-07 0 1.26607e-07)
(2.50965e-07 0 1.25122e-07)
(2.31826e-07 0 1.23218e-07)
(2.12999e-07 0 1.21311e-07)
(1.94496e-07 0 1.1938e-07)
(1.76299e-07 0 1.17372e-07)
(1.58425e-07 0 1.15267e-07)
(1.4091e-07 0 1.13074e-07)
(1.23857e-07 0 1.10724e-07)
(1.07566e-07 0 1.08203e-07)
(9.17154e-08 0 1.05868e-07)
(7.9122e-08 0 1.01667e-07)
(5.40986e-08 0 1.19491e-07)
(2.63276e-08 0 2.06385e-07)
(-5.26399e-11 0 1.64204e-07)
(2.21484e-15 0 -1.6767e-14)
(-1.54717e-16 0 -1.40517e-16)
(-2.85987e-16 0 -1.18225e-16)
(-2.43563e-16 0 -9.63045e-17)
(-1.94553e-16 0 -7.51287e-17)
(-1.45863e-16 0 -5.48524e-17)
(-9.79899e-17 0 -3.56101e-17)
(-5.07475e-17 0 -1.74845e-17)
(-4.31168e-18 0 -5.89364e-19)
(4.09558e-17 0 1.49616e-17)
(8.46413e-17 0 2.92512e-17)
(1.26083e-16 0 4.21759e-17)
(1.64609e-16 0 5.38288e-17)
(1.99733e-16 0 6.42306e-17)
(2.31001e-16 0 7.35364e-17)
(2.58122e-16 0 8.17978e-17)
(2.81045e-16 0 8.91597e-17)
(2.9976e-16 0 9.57358e-17)
(3.1436e-16 0 1.01671e-16)
(3.25051e-16 0 1.07068e-16)
(3.31999e-16 0 1.12021e-16)
(3.35411e-16 0 1.16674e-16)
(3.35577e-16 0 1.21068e-16)
(3.32713e-16 0 1.25308e-16)
(3.27016e-16 0 1.29381e-16)
(3.18723e-16 0 1.33342e-16)
(3.08073e-16 0 1.37229e-16)
(2.95262e-16 0 1.40983e-16)
(2.80476e-16 0 1.44602e-16)
(2.63953e-16 0 1.48055e-16)
(2.45838e-16 0 1.51291e-16)
(2.26296e-16 0 1.54331e-16)
(2.05534e-16 0 1.57082e-16)
(1.83696e-16 0 1.59501e-16)
(1.60897e-16 0 1.6159e-16)
(1.37312e-16 0 1.63306e-16)
(1.13138e-16 0 1.6464e-16)
(8.84463e-17 0 1.65602e-16)
(6.3362e-17 0 1.66108e-16)
(3.79986e-17 0 1.66263e-16)
(1.26248e-17 0 1.66015e-16)
(1.85619e-08 0 -2.3762e-07)
(5.52445e-08 0 -2.34966e-07)
(8.92492e-08 0 -2.30472e-07)
(1.22975e-07 0 -2.24019e-07)
(1.54204e-07 0 -2.1649e-07)
(1.83036e-07 0 -2.08705e-07)
(2.09651e-07 0 -2.01402e-07)
(2.3448e-07 0 -1.95136e-07)
(2.57891e-07 0 -1.90376e-07)
(2.80079e-07 0 -1.87646e-07)
(3.02431e-07 0 -1.85766e-07)
(3.25179e-07 0 -1.85978e-07)
(3.4742e-07 0 -1.88342e-07)
(3.70448e-07 0 -1.89365e-07)
(3.96226e-07 0 -1.88232e-07)
(4.22818e-07 0 -1.96984e-07)
(4.51238e-07 0 -2.00329e-07)
(4.79331e-07 0 -2.01762e-07)
(5.10028e-07 0 -1.96127e-07)
(5.40369e-07 0 -2.04879e-07)
(5.72496e-07 0 -1.98237e-07)
(6.02625e-07 0 -1.94091e-07)
(6.32952e-07 0 -1.85733e-07)
(6.61965e-07 0 -1.78493e-07)
(6.89602e-07 0 -1.66265e-07)
(7.1488e-07 0 -1.5284e-07)
(7.3779e-07 0 -1.37552e-07)
(7.57897e-07 0 -1.2078e-07)
(7.74862e-07 0 -1.02788e-07)
(7.88565e-07 0 -8.40977e-08)
(7.98986e-07 0 -6.46804e-08)
(8.05992e-07 0 -4.53987e-08)
(8.09699e-07 0 -2.64591e-08)
(8.10235e-07 0 -8.03582e-09)
(8.07887e-07 0 9.56754e-09)
(8.02857e-07 0 2.57762e-08)
(7.9547e-07 0 4.10993e-08)
(7.86006e-07 0 5.47664e-08)
(7.74697e-07 0 6.736e-08)
(7.61819e-07 0 7.89302e-08)
(7.47693e-07 0 8.88763e-08)
(7.32464e-07 0 9.78889e-08)
(7.16236e-07 0 1.05903e-07)
(6.99222e-07 0 1.13362e-07)
(6.8161e-07 0 1.19224e-07)
(6.63307e-07 0 1.25404e-07)
(6.44522e-07 0 1.29483e-07)
(6.25348e-07 0 1.36305e-07)
(6.05656e-07 0 1.39141e-07)
(5.85192e-07 0 1.42061e-07)
(5.64469e-07 0 1.45495e-07)
(5.4366e-07 0 1.48013e-07)
(5.22509e-07 0 1.50656e-07)
(5.01161e-07 0 1.52165e-07)
(4.7949e-07 0 1.53786e-07)
(4.57842e-07 0 1.54293e-07)
(4.36118e-07 0 1.54845e-07)
(4.14492e-07 0 1.54979e-07)
(3.92949e-07 0 1.54859e-07)
(3.7159e-07 0 1.54139e-07)
(3.50413e-07 0 1.52918e-07)
(3.29491e-07 0 1.51582e-07)
(3.0891e-07 0 1.50131e-07)
(2.88664e-07 0 1.48362e-07)
(2.68688e-07 0 1.46536e-07)
(2.49061e-07 0 1.44623e-07)
(2.29839e-07 0 1.42409e-07)
(2.10936e-07 0 1.40223e-07)
(1.9236e-07 0 1.38008e-07)
(1.74071e-07 0 1.35721e-07)
(1.56076e-07 0 1.33318e-07)
(1.38388e-07 0 1.30796e-07)
(1.21068e-07 0 1.28057e-07)
(1.0435e-07 0 1.24891e-07)
(8.91301e-08 0 1.20859e-07)
(7.51545e-08 0 1.14664e-07)
(4.81351e-08 0 1.49545e-07)
(2.12203e-08 0 2.2636e-07)
(-5.26991e-11 0 1.74261e-07)
(2.14634e-15 0 -1.9058e-14)
(-1.42305e-16 0 -1.62934e-16)
(-2.61761e-16 0 -1.36268e-16)
(-2.2002e-16 0 -1.10211e-16)
(-1.71981e-16 0 -8.50859e-17)
(-1.24408e-16 0 -6.12217e-17)
(-7.77136e-17 0 -3.86604e-17)
(-3.18154e-17 0 -1.75155e-17)
(1.31935e-17 0 2.05761e-18)
(5.70341e-17 0 2.00695e-17)
(9.92514e-17 0 3.6489e-17)
(1.39246e-16 0 5.12749e-17)
(1.76417e-16 0 6.45615e-17)
(2.10259e-16 0 7.63798e-17)
(2.40358e-16 0 8.6916e-17)
(2.66456e-16 0 9.62218e-17)
(2.88469e-16 0 1.04504e-16)
(3.06419e-16 0 1.11897e-16)
(3.20398e-16 0 1.18535e-16)
(3.30552e-16 0 1.24604e-16)
(3.37107e-16 0 1.30178e-16)
(3.4023e-16 0 1.35409e-16)
(3.40178e-16 0 1.40373e-16)
(3.37159e-16 0 1.45139e-16)
(3.31317e-16 0 1.49761e-16)
(3.22931e-16 0 1.54249e-16)
(3.12178e-16 0 1.58633e-16)
(2.99212e-16 0 1.62831e-16)
(2.84261e-16 0 1.66884e-16)
(2.6751e-16 0 1.70709e-16)
(2.49126e-16 0 1.74266e-16)
(2.29315e-16 0 1.77503e-16)
(2.08232e-16 0 1.80429e-16)
(1.86012e-16 0 1.82962e-16)
(1.62831e-16 0 1.85051e-16)
(1.38853e-16 0 1.86746e-16)
(1.14254e-16 0 1.88039e-16)
(8.91391e-17 0 1.88856e-16)
(6.36309e-17 0 1.89249e-16)
(3.78745e-17 0 1.89207e-16)
(1.24697e-17 0 1.88773e-16)
(2.00092e-08 0 -2.75321e-07)
(5.96329e-08 0 -2.71635e-07)
(9.56945e-08 0 -2.65327e-07)
(1.31017e-07 0 -2.56422e-07)
(1.6299e-07 0 -2.4613e-07)
(1.91654e-07 0 -2.35638e-07)
(2.1746e-07 0 -2.25862e-07)
(2.40814e-07 0 -2.17832e-07)
(2.621e-07 0 -2.12059e-07)
(2.82503e-07 0 -2.08177e-07)
(3.03355e-07 0 -2.06093e-07)
(3.23834e-07 0 -2.07722e-07)
(3.4388e-07 0 -2.1165e-07)
(3.67298e-07 0 -2.09659e-07)
(3.92002e-07 0 -2.16662e-07)
(4.19467e-07 0 -2.24144e-07)
(4.47166e-07 0 -2.30194e-07)
(4.77548e-07 0 -2.29507e-07)
(5.09945e-07 0 -2.28041e-07)
(5.42459e-07 0 -2.37322e-07)
(5.76254e-07 0 -2.29802e-07)
(6.08712e-07 0 -2.2568e-07)
(6.41718e-07 0 -2.17245e-07)
(6.73143e-07 0 -2.07823e-07)
(7.02976e-07 0 -1.94089e-07)
(7.30435e-07 0 -1.78169e-07)
(7.55212e-07 0 -1.60141e-07)
(7.76808e-07 0 -1.40116e-07)
(7.94871e-07 0 -1.1879e-07)
(8.09254e-07 0 -9.65646e-08)
(8.199e-07 0 -7.36847e-08)
(8.26766e-07 0 -5.07507e-08)
(8.2991e-07 0 -2.83908e-08)
(8.29574e-07 0 -6.75974e-09)
(8.26142e-07 0 1.35861e-08)
(8.19822e-07 0 3.26426e-08)
(8.11052e-07 0 4.9874e-08)
(8.00205e-07 0 6.56804e-08)
(7.87435e-07 0 8.00071e-08)
(7.73182e-07 0 9.27887e-08)
(7.57838e-07 0 1.03882e-07)
(7.41466e-07 0 1.13894e-07)
(7.24211e-07 0 1.22942e-07)
(7.06302e-07 0 1.30654e-07)
(6.87911e-07 0 1.37292e-07)
(6.68997e-07 0 1.43987e-07)
(6.49498e-07 0 1.49098e-07)
(6.29902e-07 0 1.54537e-07)
(6.09718e-07 0 1.60258e-07)
(5.88901e-07 0 1.62513e-07)
(5.67531e-07 0 1.66312e-07)
(5.46239e-07 0 1.6904e-07)
(5.2462e-07 0 1.72058e-07)
(5.0278e-07 0 1.73922e-07)
(4.80675e-07 0 1.75446e-07)
(4.58509e-07 0 1.76321e-07)
(4.36365e-07 0 1.76605e-07)
(4.1425e-07 0 1.76919e-07)
(3.92431e-07 0 1.76284e-07)
(3.7064e-07 0 1.75747e-07)
(3.49167e-07 0 1.74241e-07)
(3.27982e-07 0 1.72441e-07)
(3.07132e-07 0 1.70765e-07)
(2.86695e-07 0 1.68744e-07)
(2.66598e-07 0 1.66499e-07)
(2.46839e-07 0 1.64239e-07)
(2.27557e-07 0 1.61707e-07)
(2.08583e-07 0 1.59203e-07)
(1.89919e-07 0 1.56692e-07)
(1.71554e-07 0 1.5414e-07)
(1.53461e-07 0 1.51482e-07)
(1.35558e-07 0 1.48717e-07)
(1.17806e-07 0 1.45739e-07)
(1.00119e-07 0 1.42311e-07)
(8.28908e-08 0 1.37883e-07)
(6.22225e-08 0 1.30872e-07)
(4.39699e-08 0 1.87821e-07)
(1.3037e-08 0 2.32953e-07)