0 	3.62956e-21 	0 	-4.71843e-20
0.010101 	-7.5452e-22 	1.35517e-22 	-1.72867e-19
0.020202 	2.80011e-20 	3.41347e-23 	-1.4395e-19
0.030303 	-3.32397e-20 	3.40654e-25 	-8.80094e-20
0.040404 	2.42618e-20 	3.39644e-23 	-4.21609e-20
0.0505051 	-2.96915e-20 	1.35176e-22 	-1.23552e-20
