0.010101 	8.62836e-09 	9.67819e-14 	4.05687e-11
0.020202 	9.15955e-10 	-2.09565e-13 	1.34739e-11
