0 	306.702
0.010101 	313.446
0.020202 	313.488
