/*--------------------------------*- C++ -*----------------------------------*\
  =========                 |
  \\      /  F ield         | OpenFOAM: The Open Source CFD Toolbox
   \\    /   O peration     | Website:  https://openfoam.org
    \\  /    A nd           | Version:  6
     \\/     M anipulation  |
\*---------------------------------------------------------------------------*/
FoamFile
{
    version     2.0;
    format      ascii;
    class       surfaceScalarField;
    location    "3600";
    object      phi;
}
// * * * * * * * * * * * * * * * * * * * * * * * * * * * * * * * * * * * * * //

dimensions      [0 3 -1 0 0 0 0];

internalField   nonuniform List<scalar> 
9440
(
-4.12175e-14
4.12168e-14
-8.20412e-14
4.11907e-14
-1.22641e-13
4.08939e-14
-1.62707e-13
4.03468e-14
-2.01964e-13
3.9537e-14
-2.40167e-13
3.84809e-14
-2.77165e-13
3.72724e-14
-3.12791e-13
3.58987e-14
-3.46899e-13
3.43779e-14
-3.79297e-13
3.26635e-14
-4.09888e-13
3.08537e-14
-4.38512e-13
2.88854e-14
-4.64977e-13
2.672e-14
-4.89593e-13
2.48656e-14
-5.12329e-13
2.29795e-14
-5.33536e-13
2.1447e-14
-5.52825e-13
1.95213e-14
-5.6857e-13
1.59733e-14
-5.82576e-13
1.42253e-14
-5.95577e-13
1.32125e-14
-6.07433e-13
1.20631e-14
-6.14485e-13
7.25172e-15
-6.21495e-13
7.19971e-15
-6.26614e-13
5.30105e-15
-6.29778e-13
3.33574e-15
-6.31398e-13
1.78328e-15
-6.31531e-13
2.84241e-16
-6.30114e-13
-1.26952e-15
-6.27317e-13
-2.66319e-15
-6.23018e-13
-4.1737e-15
-6.17281e-13
-5.62396e-15
-6.10162e-13
-7.01276e-15
-6.01684e-13
-8.38522e-15
-5.9185e-13
-9.74934e-15
-5.80667e-13
-1.1108e-14
-5.68187e-13
-1.24152e-14
-5.54383e-13
-1.37529e-14
-5.39356e-13
-1.49838e-14
-5.23087e-13
-1.62386e-14
-5.05685e-13
-1.7382e-14
-4.87152e-13
-1.85243e-14
-4.67613e-13
-1.95401e-14
-4.47134e-13
-2.0491e-14
-4.25796e-13
-2.13623e-14
-4.03793e-13
-2.20342e-14
-3.8112e-13
-2.27181e-14
-3.57981e-13
-2.31924e-14
-3.34538e-13
-2.35095e-14
-3.10935e-13
-2.36793e-14
-2.87271e-13
-2.37507e-14
-2.63752e-13
-2.36154e-14
-2.40499e-13
-2.3358e-14
-2.17698e-13
-2.29151e-14
-1.95506e-13
-2.23179e-14
-1.74048e-13
-2.1592e-14
-1.53386e-13
-2.08065e-14
-1.33689e-13
-1.9848e-14
-1.15e-13
-1.88486e-14
-9.7471e-14
-1.76985e-14
-8.10384e-14
-1.66088e-14
-6.57774e-14
-1.54459e-14
-5.16751e-14
-1.42934e-14
-3.8735e-14
-1.31387e-14
-2.69162e-14
-1.20239e-14
-1.61668e-14
-1.09594e-14
-6.34715e-15
-1.0038e-14
2.55134e-15
-9.12414e-15
1.06581e-14
-8.33506e-15
1.8188e-14
-7.76318e-15
2.53536e-14
-7.40414e-15
3.23349e-14
-7.22434e-15
3.95505e-14
-7.46041e-15
4.76109e-14
-8.31212e-15
5.80811e-14
-1.07213e-14
7.49693e-14
-1.71429e-14
1.10724e-13
-3.60107e-14
2.04463e-13
-9.39964e-14
9.00597e-14
1.1414e-13
1.62576e-16
8.96365e-14
1.26395e-21
2.47499e-21
1.25835e-21
7.96161e-24
1.24072e-21
1.7164e-23
1.19931e-21
2.03176e-23
1.15449e-21
2.18686e-23
1.1093e-21
2.31611e-23
1.06401e-21
2.42984e-23
1.01857e-21
2.53841e-23
9.7354e-22
2.62113e-23
9.28924e-22
2.68834e-23
8.84825e-22
2.73487e-23
8.4176e-22
2.78656e-23
7.99832e-22
2.82792e-23
7.5899e-22
2.85894e-23
7.19492e-22
2.86928e-23
6.81287e-22
2.88996e-23
6.4427e-22
2.89513e-23
6.08598e-22
2.90547e-23
5.74218e-22
2.90547e-23
5.41131e-22
2.89513e-23
5.09078e-22
2.88996e-23
4.78266e-22
2.88479e-23
4.48229e-22
2.87445e-23
4.19432e-22
2.85894e-23
3.9136e-22
2.84343e-23
3.64063e-22
2.82792e-23
3.3749e-22
2.82792e-23
3.1164e-22
2.80724e-23
2.86205e-22
2.78656e-23
2.61286e-22
2.77623e-23
2.3678e-22
2.76072e-23
2.12534e-22
2.74521e-23
1.88701e-22
2.7297e-23
1.64867e-22
2.70385e-23
1.41396e-22
2.69868e-23
1.1808e-22
2.68317e-23
9.47122e-23
2.68317e-23
7.14477e-23
2.67283e-23
4.81833e-23
2.678e-23
2.44018e-23
2.68834e-23
2.77623e-23
-4.0645e-14
8.22289e-14
-8.2346e-14
8.34788e-14
-1.2376e-13
8.2817e-14
-1.64358e-13
8.14426e-14
-2.03913e-13
7.9588e-14
-2.42402e-13
7.74615e-14
-2.79609e-13
7.49666e-14
-3.15395e-13
7.21668e-14
-3.49539e-13
6.89993e-14
-3.81998e-13
6.55929e-14
-4.12564e-13
6.18841e-14
-4.4112e-13
5.78948e-14
-4.6756e-13
5.36044e-14
-4.9206e-13
4.98017e-14
-5.14738e-13
4.60854e-14
-5.36188e-13
4.33121e-14
-5.54951e-13
3.86919e-14
-5.70623e-13
3.2036e-14
-5.8466e-13
2.86388e-14
-5.97814e-13
2.67346e-14
-6.09053e-13
2.36539e-14
-6.16443e-13
1.4979e-14
-6.23284e-13
1.43627e-14
-6.28408e-13
1.0729e-14
-6.31376e-13
6.59381e-15
-6.32961e-13
3.64289e-15
-6.33071e-13
6.49135e-16
-6.31648e-13
-2.45444e-15
-6.28738e-13
-5.35279e-15
-6.24396e-13
-8.31272e-15
-6.18654e-13
-1.11804e-14
-6.11554e-13
-1.39498e-14
-6.0301e-13
-1.67803e-14
-5.93167e-13
-1.94649e-14
-5.82037e-13
-2.21278e-14
-5.69443e-13
-2.49176e-14
-5.55632e-13
-2.7492e-14
-5.40567e-13
-2.99971e-14
-5.24255e-13
-3.25184e-14
-5.06765e-13
-3.48575e-14
-4.88189e-13
-3.71064e-14
-4.68559e-13
-3.91941e-14
-4.47988e-13
-4.11052e-14
-4.26579e-13
-4.28357e-14
-4.04348e-13
-4.43461e-14
-3.81572e-13
-4.55968e-14
-3.58293e-13
-4.65908e-14
-3.34708e-13
-4.72317e-14
-3.10891e-13
-4.76496e-14
-2.87081e-13
-4.77323e-14
-2.63407e-13
-4.74823e-14
-2.40049e-13
-4.69234e-14
-2.1713e-13
-4.60598e-14
-1.94782e-13
-4.49064e-14
-1.732e-13
-4.34292e-14
-1.52445e-13
-4.18347e-14
-1.32648e-13
-3.99332e-14
-1.1392e-13
-3.78806e-14
-9.63473e-14
-3.55913e-14
-7.98868e-14
-3.3398e-14
-6.462e-14
-3.10568e-14
-5.05008e-14
-2.87687e-14
-3.76011e-14
-2.64072e-14
-2.58528e-14
-2.41489e-14
-1.51292e-14
-2.20718e-14
-5.46565e-15
-2.01022e-14
3.26862e-15
-1.82649e-14
1.12557e-14
-1.67422e-14
1.86411e-14
-1.55751e-14
2.55679e-14
-1.47633e-14
3.21712e-14
-1.42642e-14
3.8678e-14
-1.44177e-14
4.53746e-14
-1.54556e-14
5.21294e-14
-1.79335e-14
5.76395e-14
-2.31085e-14
5.41143e-14
-3.29523e-14
9.60684e-15
-4.99539e-14
1.80026e-14
1.05277e-13
1.25384e-16
1.07145e-13
1.27718e-21
4.72499e-21
1.26755e-21
1.49926e-23
1.24387e-21
2.0421e-23
1.20081e-21
2.44535e-23
1.15578e-21
2.7969e-23
1.11039e-21
3.12778e-23
1.06505e-21
3.44831e-23
1.0195e-21
3.73782e-23
9.74212e-22
4.00149e-23
9.29389e-22
4.25998e-23
8.8529e-22
4.49263e-23
8.42173e-22
4.70459e-23
8.00091e-22
4.89071e-23
7.59145e-22
5.06131e-23
7.19647e-22
5.21641e-23
6.81338e-22
5.34049e-23
6.44374e-22
5.44388e-23
6.08546e-22
5.5266e-23
5.74115e-22
5.61449e-23
5.4108e-22
5.67653e-23
5.08975e-22
5.72306e-23
4.7811e-22
5.76442e-23
4.48125e-22
5.78509e-23
4.19277e-22
5.80577e-23
3.91205e-22
5.82645e-23
3.64011e-22
5.83679e-23
3.37283e-22
5.82128e-23
3.11434e-22
5.82128e-23
2.86101e-22
5.81094e-23
2.61131e-22
5.8006e-23
2.36522e-22
5.76442e-23
2.1243e-22
5.73857e-23
1.8839e-22
5.71789e-23
1.64764e-22
5.69204e-23
1.41293e-22
5.66102e-23
1.18028e-22
5.63e-23
9.46605e-23
5.58864e-23
7.14477e-23
5.56796e-23
4.8235e-23
5.54211e-23
2.53324e-23
5.55245e-23
5.54728e-23
-4.27445e-14
1.25268e-13
-8.40069e-14
1.2525e-13
-1.24902e-13
1.24157e-13
-1.6533e-13
1.22302e-13
-2.05017e-13
1.19704e-13
-2.43647e-13
1.16515e-13
-2.81123e-13
1.12864e-13
-3.17162e-13
1.08627e-13
-3.51676e-13
1.03926e-13
-3.8442e-13
9.87463e-14
-4.15352e-13
9.32195e-14
-4.44141e-13
8.70776e-14
-4.70907e-13
8.07555e-14
-4.95616e-13
7.48885e-14
-5.18651e-13
6.94912e-14
-5.40724e-13
6.57478e-14
-5.58791e-13
5.71071e-14
-5.74348e-13
4.79356e-14
-5.88741e-13
4.33574e-14
-6.02333e-13
4.06427e-14
-6.1214e-13
3.3769e-14
-6.20072e-13
2.32021e-14
-6.26779e-13
2.13521e-14
-6.31735e-13
1.59526e-14
-6.34488e-13
9.59671e-15
-6.361e-13
5.49298e-15
-6.36112e-13
8.83398e-16
-6.34599e-13
-3.75746e-15
-6.31662e-13
-8.09755e-15
-6.27295e-13
-1.25021e-14
-6.21528e-13
-1.6786e-14
-6.14338e-13
-2.09945e-14
-6.05786e-13
-2.52024e-14
-5.95884e-13
-2.9255e-14
-5.8466e-13
-3.32539e-14
-5.72071e-13
-3.7427e-14
-5.58188e-13
-4.13112e-14
-5.43037e-13
-4.51011e-14
-5.26597e-13
-4.89284e-14
-5.08971e-13
-5.24703e-14
-4.90252e-13
-5.58269e-14
-4.70477e-13
-5.89891e-14
-4.49662e-13
-6.19561e-14
-4.28023e-13
-6.45262e-14
-4.05565e-13
-6.68722e-14
-3.82547e-13
-6.86991e-14
-3.58993e-13
-7.02466e-14
-3.35102e-13
-7.12411e-14
-3.11006e-13
-7.18795e-14
-2.86872e-13
-7.2015e-14
-2.62896e-13
-7.16221e-14
-2.39195e-13
-7.0804e-14
-2.15975e-13
-6.94728e-14
-1.9339e-13
-6.76982e-14
-1.71575e-13
-6.54678e-14
-1.50549e-13
-6.30963e-14
-1.30568e-13
-6.01624e-14
-1.11725e-13
-5.69866e-14
-9.39945e-14
-5.35955e-14
-7.75087e-14
-5.01691e-14
-6.22082e-14
-4.66517e-14
-4.81971e-14
-4.30878e-14
-3.53948e-14
-3.95242e-14
-2.37147e-14
-3.61606e-14
-1.32286e-14
-3.28949e-14
-3.79601e-15
-2.98802e-14
4.75491e-15
-2.71692e-14
1.24686e-14
-2.48171e-14
1.9503e-14
-2.29774e-14
2.59594e-14
-2.15963e-14
3.19798e-14
-2.0666e-14
3.77037e-14
-2.05277e-14
4.28903e-14
-2.10329e-14
4.69339e-14
-2.23723e-14
4.74591e-14
-2.4032e-14
3.81446e-14
-2.40418e-14
2.43875e-15
-1.46523e-14
7.35105e-15
9.99581e-14
1.19365e-16
1.14052e-13
1.27718e-21
7.06762e-21
1.27293e-21
2.26441e-23
1.24791e-21
2.84343e-23
1.20432e-21
3.38627e-23
1.15909e-21
3.92911e-23
1.11359e-21
4.43059e-23
1.06799e-21
4.91656e-23
1.02214e-21
5.36633e-23
9.76745e-22
5.80577e-23
9.31716e-22
6.20386e-23
8.8741e-22
6.57609e-23
8.44034e-22
6.92247e-23
8.01797e-22
7.23266e-23
7.60644e-22
7.517e-23
7.2094e-22
7.74965e-23
6.82424e-22
7.96678e-23
6.45149e-22
8.1529e-23
6.09425e-22
8.308e-23
5.74787e-22
8.4269e-23
5.41597e-22
8.54064e-23
5.09388e-22
8.61302e-23
4.78421e-22
8.67506e-23
4.48384e-22
8.71642e-23
4.19432e-22
8.75778e-23
3.91256e-22
8.77329e-23
3.63856e-22
8.78879e-23
3.37283e-22
8.78362e-23
3.11382e-22
8.77846e-23
2.85894e-22
8.75261e-23
2.60769e-22
8.71125e-23
2.36263e-22
8.68023e-23
2.12172e-22
8.64404e-23
1.88132e-22
8.59234e-23
1.64454e-22
8.53547e-23
1.41034e-22
8.49411e-23
1.17615e-22
8.45275e-23
9.4402e-23
8.40105e-23
7.12409e-23
8.34936e-23
4.82867e-23
8.31834e-23
2.52807e-23
8.28215e-23
8.24079e-23
-4.30182e-14
1.68567e-13
-8.51298e-14
1.67856e-13
-1.26725e-13
1.66183e-13
-1.67708e-13
1.63709e-13
-2.07898e-13
1.60312e-13
-2.47104e-13
1.56139e-13
-2.8507e-13
1.51242e-13
-3.21599e-13
1.45566e-13
-3.56536e-13
1.39269e-13
-3.89737e-13
1.32344e-13
-4.20909e-13
1.24782e-13
-4.49958e-13
1.16511e-13
-4.77177e-13
1.08355e-13
-5.01843e-13
9.99225e-14
-5.25198e-13
9.32095e-14
-5.47933e-13
8.8836e-14
-5.64782e-13
7.43e-14
-5.8023e-13
6.37164e-14
-5.94979e-13
5.84299e-14
-6.09562e-13
5.55396e-14
-6.16532e-13
4.10375e-14
-6.25721e-13
3.26778e-14
-6.32031e-13
2.79363e-14
-6.36715e-13
2.08999e-14
-6.39314e-13
1.2443e-14
-6.4082e-13
7.23394e-15
-6.40675e-13
9.57155e-16
-6.39065e-13
-5.16367e-15
-6.36041e-13
-1.09305e-14
-6.31638e-13
-1.67302e-14
-6.25779e-13
-2.24868e-14
-6.1852e-13
-2.8111e-14
-6.09923e-13
-3.36747e-14
-5.99937e-13
-3.9127e-14
-5.88679e-13
-4.44178e-14
-5.76019e-13
-5.00071e-14
-5.62057e-13
-5.52107e-14
-5.46783e-13
-6.03306e-14
-5.3022e-13
-6.54617e-14
-5.12425e-13
-7.02553e-14
-4.93404e-13
-7.48522e-14
-4.73343e-13
-7.9068e-14
-4.523e-13
-8.30341e-14
-4.30283e-13
-8.65975e-14
-4.07526e-13
-8.96947e-14
-3.84034e-13
-9.22786e-14
-3.60044e-13
-9.4336e-14
-3.35694e-13
-9.57066e-14
-3.11144e-13
-9.65605e-14
-2.86534e-13
-9.67732e-14
-2.62072e-13
-9.62452e-14
-2.37947e-13
-9.51075e-14
-2.14267e-13
-9.33421e-14
-1.91231e-13
-9.09362e-14
-1.68989e-13
-8.79278e-14
-1.47705e-13
-8.46102e-14
-1.2751e-13
-8.06012e-14
-1.08415e-13
-7.63358e-14
-9.05266e-14
-7.17519e-14
-7.39251e-14
-6.70519e-14
-5.86626e-14
-6.22056e-14
-4.4649e-14
-5.74048e-14
-3.19542e-14
-5.2533e-14
-2.0498e-14
-4.79367e-14
-1.02318e-14
-4.34899e-14
-1.083e-15
-3.93692e-14
7.10146e-15
-3.57011e-14
1.43744e-14
-3.24447e-14
2.08779e-14
-2.98463e-14
2.67784e-14
-2.7861e-14
3.21833e-14
-2.64438e-14
3.7129e-14
-2.58522e-14
4.16182e-14
-2.59067e-14
4.51509e-14
-2.62913e-14
4.70337e-14
-2.63029e-14
4.68542e-14
-2.42553e-14
4.88616e-14
-1.70542e-14
5.63924e-15
1.42785e-13
1.18182e-16
1.19256e-13
1.29042e-21
9.35731e-21
1.27877e-21
3.01404e-23
1.25333e-21
3.72231e-23
1.2097e-21
4.43576e-23
1.16415e-21
5.12335e-23
1.11845e-21
5.81094e-23
1.07249e-21
6.46752e-23
1.02653e-21
7.09307e-23
9.80726e-22
7.69795e-23
9.35438e-22
8.2563e-23
8.90874e-22
8.77329e-23
8.47136e-22
9.24374e-23
8.0464e-22
9.66767e-23
7.63022e-22
1.00296e-22
7.23111e-22
1.03656e-22
6.84234e-22
1.06551e-22
6.467e-22
1.09033e-22
6.10614e-22
1.11152e-22
5.75925e-22
1.12962e-22
5.42269e-22
1.14306e-22
5.10009e-22
1.1534e-22
4.78834e-22
1.16219e-22
4.48746e-22
1.16839e-22
4.19587e-22
1.17201e-22
3.91463e-22
1.17408e-22
3.63804e-22
1.17356e-22
3.37231e-22
1.17253e-22
3.11072e-22
1.16994e-22
2.85532e-22
1.16632e-22
2.6051e-22
1.16064e-22
2.35902e-22
1.15495e-22
2.11707e-22
1.14823e-22
1.87615e-22
1.14048e-22
1.63989e-22
1.13375e-22
1.40569e-22
1.12703e-22
1.17098e-22
1.11824e-22
9.3885e-23
1.11101e-22
7.09307e-23
1.10429e-22
4.79765e-23
1.09757e-22
2.49705e-23
1.09033e-22
1.08619e-22
-4.36232e-14
2.12467e-13
-8.66595e-14
2.11382e-13
-1.2929e-13
2.09237e-13
-1.71135e-13
2.05974e-13
-2.12192e-13
2.01785e-13
-2.52171e-13
1.96528e-13
-2.9083e-13
1.90308e-13
-3.28008e-13
1.83147e-13
-3.63508e-13
1.7517e-13
-3.97151e-13
1.66381e-13
-4.28667e-13
1.56686e-13
-4.58112e-13
1.46339e-13
-4.85736e-13
1.36349e-13
-5.10305e-13
1.24861e-13
-5.34631e-13
1.17895e-13
-5.56521e-13
1.11075e-13
-5.72971e-13
9.1091e-14
-5.88716e-13
7.97927e-14
-6.03787e-13
7.38194e-14
-6.17888e-13
6.99479e-14
-6.2364e-13
4.70862e-14
-6.33077e-13
4.23976e-14
-6.39089e-13
3.42176e-14
-6.43173e-13
2.52421e-14
-6.45788e-13
1.53039e-14
-6.47038e-13
8.71386e-15
-6.46698e-13
8.34085e-16
-6.4493e-13
-6.72978e-15
-6.41849e-13
-1.38237e-14
-6.37301e-13
-2.11077e-14
-6.31359e-13
-2.82753e-14
-6.24119e-13
-3.52105e-14
-6.15488e-13
-4.21801e-14
-6.05454e-13
-4.90507e-14
-5.94131e-13
-5.56502e-14
-5.81331e-13
-6.27272e-14
-5.67264e-13
-6.92155e-14
-5.51749e-13
-7.57986e-14
-5.34971e-13
-8.22095e-14
-5.16962e-13
-8.82512e-14
-4.97707e-13
-9.41097e-14
-4.77283e-13
-9.95141e-14
-4.55833e-13
-1.0452e-13
-4.3336e-13
-1.09122e-13
-4.10054e-13
-1.13066e-13
-3.86044e-13
-1.16374e-13
-3.61476e-13
-1.19001e-13
-3.36483e-13
-1.20814e-13
-3.11302e-13
-1.2187e-13
-2.86057e-13
-1.22161e-13
-2.60897e-13
-1.21566e-13
-2.36146e-13
-1.20032e-13
-2.11827e-13
-1.17848e-13
-1.88264e-13
-1.14704e-13
-1.6555e-13
-1.10854e-13
-1.43804e-13
-1.06585e-13
-1.2323e-13
-1.01417e-13
-1.03852e-13
-9.59673e-14
-8.57616e-14
-9.01082e-14
-6.90706e-14
-8.40202e-14
-5.37779e-14
-7.77878e-14
-3.98576e-14
-7.16199e-14
-2.73472e-14
-6.53518e-14
-1.6126e-14
-5.94762e-14
-6.14093e-15
-5.38035e-14
2.56083e-15
-4.84078e-14
1.02429e-14
-4.37256e-14
1.69992e-14
-3.95504e-14
2.29062e-14
-3.61107e-14
2.80488e-14
-3.33675e-14
3.27756e-14
-3.15383e-14
3.70684e-14
-3.05207e-14
4.11482e-14
-3.03648e-14
4.52035e-14
-3.07295e-14
4.94122e-14
-3.08985e-14
5.47563e-14
-2.99897e-14
5.8455e-14
-2.11421e-14
5.09474e-15
1.95751e-13
1.16557e-16
1.23922e-13
1.30365e-21
1.16205e-20
1.28585e-21
3.7585e-23
1.26042e-21
4.64772e-23
1.21663e-21
5.51626e-23
1.17103e-21
6.40031e-23
1.12502e-21
7.25851e-23
1.07875e-21
8.1012e-23
1.03258e-21
8.9077e-23
9.8631e-22
9.6625e-23
9.40556e-22
1.03759e-22
8.95526e-22
1.10377e-22
8.51376e-22
1.16374e-22
8.08259e-22
1.21647e-22
7.66383e-22
1.26352e-22
7.26006e-22
1.30591e-22
6.86715e-22
1.34158e-22
6.48872e-22
1.3726e-22
6.12424e-22
1.39794e-22
5.77269e-22
1.41861e-22
5.43303e-22
1.43516e-22
5.10887e-22
1.4486e-22
4.79455e-22
1.45842e-22
4.49159e-22
1.46411e-22
4.19794e-22
1.46825e-22
3.91308e-22
1.46825e-22
3.63753e-22
1.46721e-22
3.36921e-22
1.46411e-22
3.10761e-22
1.45842e-22
2.85015e-22
1.45119e-22
2.5989e-22
1.44395e-22
2.3523e-22
1.43619e-22
2.10931e-22
1.42637e-22
1.86943e-22
1.41603e-22
1.63316e-22
1.40466e-22
1.3969e-22
1.39173e-22
1.16426e-22
1.38087e-22
9.32129e-23
1.37002e-22
7.02587e-23
1.3602e-22
4.72527e-23
1.35037e-22
2.44535e-23
1.34313e-22
1.33538e-22
-4.46698e-14
2.5741e-13
-8.87745e-14
2.55968e-13
-1.32437e-13
2.53319e-13
-1.75393e-13
2.49344e-13
-2.17446e-13
2.44244e-13
-2.58389e-13
2.37876e-13
-2.97933e-13
2.30254e-13
-3.3597e-13
2.21585e-13
-3.72228e-13
2.11819e-13
-4.06379e-13
2.00921e-13
-4.38352e-13
1.89041e-13
-4.68745e-13
1.77106e-13
-4.95904e-13
1.63877e-13
-5.21344e-13
1.50659e-13
-5.47706e-13
1.4461e-13
-5.66074e-13
1.29786e-13
-5.83166e-13
1.08518e-13
-5.99451e-13
9.64005e-14
-6.15581e-13
9.02656e-14
-6.26105e-13
8.07753e-14
-6.3349e-13
5.47624e-14
-6.42043e-13
5.12279e-14
-6.47876e-13
4.03227e-14
-6.51156e-13
2.87756e-14
-6.53888e-13
1.82754e-14
-6.54719e-13
9.77257e-15
-6.54212e-13
5.41986e-16
-6.52286e-13
-8.4565e-15
-6.4904e-13
-1.68864e-14
-6.44351e-13
-2.56268e-14
-6.38386e-13
-3.40845e-14
-6.31035e-13
-4.24199e-14
-6.22341e-13
-5.07514e-14
-6.12266e-13
-5.90186e-14
-6.00822e-13
-6.70016e-14
-5.8799e-13
-7.54805e-14
-5.73788e-13
-8.336e-14
-5.58089e-13
-9.14526e-14
-5.41094e-13
-9.91792e-14
-5.22766e-13
-1.06568e-13
-5.03161e-13
-1.1372e-13
-4.82285e-13
-1.20408e-13
-4.60289e-13
-1.26552e-13
-4.373e-13
-1.32163e-13
-4.1339e-13
-1.37044e-13
-3.88655e-13
-1.41193e-13
-3.63402e-13
-1.44354e-13
-3.37649e-13
-1.46683e-13
-3.1158e-13
-1.48068e-13
-2.85463e-13
-1.48421e-13
-2.59538e-13
-1.47649e-13
-2.33868e-13
-1.45874e-13
-2.08787e-13
-1.43117e-13
-1.84524e-13
-1.39166e-13
-1.61097e-13
-1.34496e-13
-1.38809e-13
-1.29101e-13
-1.17739e-13
-1.22727e-13
-9.80111e-14
-1.15946e-13
-7.96599e-14
-1.08721e-13
-6.28358e-14
-1.01115e-13
-4.75734e-14
-9.33334e-14
-3.36895e-14
-8.58006e-14
-2.13163e-14
-7.80273e-14
-1.04704e-14
-7.06369e-14
-9.46209e-16
-6.36537e-14
7.32187e-15
-5.70061e-14
1.44416e-14
-5.11846e-14
2.05092e-14
-4.59638e-14
2.5625e-14
-4.15797e-14
3.00273e-14
-3.81281e-14
3.38178e-14
-3.56923e-14
3.72847e-14
-3.43569e-14
4.08237e-14
-3.42827e-14
4.50711e-14
-3.53573e-14
5.11201e-14
-3.73316e-14
6.01161e-14
-3.9369e-14
5.71768e-14
-1.85908e-14
-8.40573e-15
2.60945e-13
1.14491e-16
1.15091e-13
1.30365e-21
1.37779e-20
1.29474e-21
4.5133e-23
1.26915e-21
5.5783e-23
1.22542e-21
6.64846e-23
1.17966e-21
7.71863e-23
1.1335e-21
8.76812e-23
1.08681e-21
9.81243e-23
1.04013e-21
1.0805e-22
9.93444e-22
1.17253e-22
9.47174e-22
1.26042e-22
9.01575e-22
1.33952e-22
8.56597e-22
1.41086e-22
8.13015e-22
1.476e-22
7.70519e-22
1.53339e-22
7.29573e-22
1.58405e-22
6.89817e-22
1.62593e-22
6.51405e-22
1.66108e-22
6.1444e-22
1.68952e-22
5.78975e-22
1.71485e-22
5.44647e-22
1.73243e-22
5.1187e-22
1.74587e-22
4.80023e-22
1.75569e-22
4.49521e-22
1.76189e-22
4.19846e-22
1.76448e-22
3.91256e-22
1.76241e-22
3.63443e-22
1.75828e-22
3.36352e-22
1.75259e-22
3.10038e-22
1.74535e-22
2.84292e-22
1.73501e-22
2.59063e-22
1.72312e-22
2.34247e-22
1.70916e-22
2.09897e-22
1.69314e-22
1.85805e-22
1.67866e-22
1.61972e-22
1.66263e-22
1.38604e-22
1.64661e-22
1.1534e-22
1.63058e-22
9.22306e-23
1.61507e-22
6.93798e-23
1.60008e-22
4.64772e-23
1.58715e-22
2.37297e-23
1.57526e-22
1.56492e-22
-4.59323e-14
3.0361e-13
-9.13426e-14
3.01852e-13
-1.36289e-13
2.98677e-13
-1.80545e-13
2.94003e-13
-2.23811e-13
2.87914e-13
-2.65925e-13
2.80388e-13
-3.06603e-13
2.71327e-13
-3.45643e-13
2.61014e-13
-3.82696e-13
2.49258e-13
-4.17514e-13
2.36121e-13
-4.50664e-13
2.22566e-13
-4.81425e-13
2.08238e-13
-5.08102e-13
1.90918e-13
-5.35993e-13
1.78905e-13
-5.62903e-13
1.71868e-13
-5.78085e-13
1.45305e-13
-5.95776e-13
1.26537e-13
-6.12493e-13
1.13439e-13
-6.31347e-13
1.09427e-13
-6.33875e-13
8.36007e-14
-6.45955e-13
6.71302e-14
-6.52801e-13
5.83507e-14
-6.58392e-13
4.61745e-14
-6.60693e-13
3.13279e-14
-6.63489e-13
2.13086e-14
-6.63962e-13
1.04714e-14
-6.63141e-13
-7.04517e-17
-6.61008e-13
-1.03906e-14
-6.57557e-13
-2.01547e-14
-6.52824e-13
-3.01952e-14
-6.46758e-13
-3.99997e-14
-6.39386e-13
-4.96546e-14
-6.30648e-13
-5.93679e-14
-6.20514e-13
-6.90446e-14
-6.09038e-13
-7.83884e-14
-5.96084e-13
-8.83578e-14
-5.81735e-13
-9.76505e-14
-5.6588e-13
-1.07264e-13
-5.48577e-13
-1.16454e-13
-5.29866e-13
-1.25266e-13
-5.09806e-13
-1.33785e-13
-4.88372e-13
-1.41862e-13
-4.65824e-13
-1.49135e-13
-4.42188e-13
-1.55851e-13
-4.17466e-13
-1.61833e-13
-3.91935e-13
-1.66807e-13
-3.65655e-13
-1.70732e-13
-3.38915e-13
-1.73535e-13
-3.11829e-13
-1.75282e-13
-2.84728e-13
-1.75665e-13
-2.5771e-13
-1.74825e-13
-2.31076e-13
-1.72676e-13
-2.05048e-13
-1.69332e-13
-1.79859e-13
-1.64551e-13
-1.55563e-13
-1.59003e-13
-1.32607e-13
-1.52281e-13
-1.10882e-13
-1.44688e-13
-9.07107e-14
-1.36363e-13
-7.20862e-14
-1.27603e-13
-5.51231e-14
-1.18352e-13
-3.97175e-14
-1.09019e-13
-2.6016e-14
-9.97928e-14
-1.39959e-14
-9.03495e-14
-3.40355e-15
-8.15396e-14
5.59399e-15
-7.29677e-14
1.3263e-14
-6.50015e-14
1.96486e-14
-5.79054e-14
2.49159e-14
-5.15751e-14
2.91234e-14
-4.61361e-14
3.24176e-14
-4.17772e-14
3.50454e-14
-3.86804e-14
3.73153e-14
-3.69919e-14
3.96767e-14
-3.7015e-14
4.3163e-14
-3.92141e-14
4.91586e-14
-4.37031e-14
5.97301e-14
-5.03234e-14
-1.37566e-14
5.45173e-14
-1.41598e-14
2.60962e-13
1.12912e-16
1.00513e-13
1.31689e-21
1.58028e-20
1.30539e-21
5.23709e-23
1.27986e-21
6.51922e-23
1.23612e-21
7.80652e-23
1.19016e-21
9.08865e-23
1.14384e-21
1.03708e-22
1.09674e-21
1.16012e-22
1.04933e-21
1.27903e-22
1.00223e-21
1.39018e-22
9.55084e-22
1.49358e-22
9.08761e-22
1.58819e-22
8.63163e-22
1.67246e-22
8.18702e-22
1.74794e-22
7.75637e-22
1.81411e-22
7.33761e-22
1.86995e-22
6.93333e-22
1.91854e-22
6.54248e-22
1.95835e-22
6.16922e-22
1.99247e-22
5.80784e-22
2.01625e-22
5.45991e-22
2.0359e-22
5.128e-22
2.05037e-22
4.80644e-22
2.05761e-22
4.49728e-22
2.06071e-22
4.19691e-22
2.06071e-22
3.90843e-22
2.05658e-22
3.62822e-22
2.04986e-22
3.35629e-22
2.04003e-22
3.09004e-22
2.02608e-22
2.83154e-22
2.01108e-22
2.57667e-22
1.99195e-22
2.32696e-22
1.97334e-22
2.08398e-22
1.95266e-22
1.84203e-22
1.9294e-22
1.6037e-22
1.90717e-22
1.3695e-22
1.8839e-22
1.13789e-22
1.86116e-22
9.07831e-23
1.83944e-22
6.79839e-23
1.81928e-22
4.53398e-23
1.80119e-22
2.26441e-23
1.78413e-22
1.77017e-22
-4.74832e-14
3.51359e-13
-9.44233e-14
3.49256e-13
-1.40879e-13
3.45536e-13
-1.86642e-13
3.40163e-13
-2.31358e-13
3.33024e-13
-2.74827e-13
3.24246e-13
-3.16877e-13
3.13767e-13
-3.57092e-13
3.01613e-13
-3.95113e-13
2.87658e-13
-4.31284e-13
2.72665e-13
-4.65604e-13
2.57254e-13
-4.9553e-13
2.38528e-13
-5.23794e-13
2.19536e-13
-5.5583e-13
2.1129e-13
-5.76738e-13
1.93116e-13
-5.9393e-13
1.62827e-13
-6.11361e-13
1.4429e-13
-6.29733e-13
1.32125e-13
-6.45313e-13
1.25307e-13
-6.46515e-13
8.50952e-14
-6.59898e-13
8.07967e-14
-6.65538e-13
6.42574e-14
-6.69823e-13
5.07207e-14
-6.72404e-13
3.41571e-14
-6.74379e-13
2.35179e-14
-6.74568e-13
1.08804e-14
-6.73334e-13
-1.09829e-15
-6.71092e-13
-1.2438e-14
-6.67479e-13
-2.35912e-14
-6.62617e-13
-3.48936e-14
-6.56562e-13
-4.59074e-14
-6.49095e-13
-5.69888e-14
-6.40338e-13
-6.80027e-14
-6.30177e-13
-7.91043e-14
-6.18643e-13
-8.98349e-14
-6.05718e-13
-1.01209e-13
-5.91091e-13
-1.1222e-13
-5.75035e-13
-1.23275e-13
-5.57456e-13
-1.34008e-13
-5.38346e-13
-1.44366e-13
-5.17848e-13
-1.54287e-13
-4.95898e-13
-1.63834e-13
-4.72545e-13
-1.72521e-13
-4.48035e-13
-1.8041e-13
-4.22522e-13
-1.87416e-13
-3.95917e-13
-1.93491e-13
-3.6852e-13
-1.98224e-13
-3.40575e-13
-2.01591e-13
-3.12364e-13
-2.03617e-13
-2.8391e-13
-2.04263e-13
-2.55603e-13
-2.03285e-13
-2.27636e-13
-2.00813e-13
-2.00474e-13
-1.96673e-13
-1.74119e-13
-1.91102e-13
-1.48866e-13
-1.84463e-13
-1.25076e-13
-1.76293e-13
-1.02704e-13
-1.67296e-13
-8.19295e-14
-1.5738e-13
-6.29213e-14
-1.46867e-13
-4.5721e-14
-1.35817e-13
-3.02855e-14
-1.24732e-13
-1.67267e-14
-1.13636e-13
-5.00163e-15
-1.0237e-13
5.01959e-15
-9.18655e-14
1.34668e-14
-8.17303e-14
2.04881e-14
-7.23431e-14
2.60479e-14
-6.37923e-14
3.03009e-14
-5.61658e-14
3.34366e-14
-4.96144e-14
3.55429e-14
-4.42339e-14
3.67513e-14
-4.02416e-14
3.72814e-14
-3.78831e-14
3.7444e-14
-3.75422e-14
3.82864e-14
-4.04249e-14
4.33073e-14
-4.90947e-14
6.40484e-14
-7.14366e-14
-4.69923e-14
1.65183e-13
-9.76338e-15
2.23357e-13
1.1126e-16
9.03378e-14
1.31689e-21
1.76822e-20
1.31822e-21
5.96087e-23
1.29268e-21
7.48082e-23
1.24899e-21
9.0111e-23
1.20293e-21
1.05414e-22
1.15619e-21
1.20613e-22
1.10863e-21
1.35296e-22
1.0605e-21
1.49048e-22
1.01257e-21
1.62179e-22
9.64493e-22
1.74122e-22
9.17188e-22
1.84978e-22
8.70659e-22
1.94853e-22
8.25371e-22
2.03331e-22
7.8122e-22
2.10828e-22
7.38569e-22
2.17135e-22
6.97313e-22
2.22305e-22
6.5766e-22
2.26648e-22
6.193e-22
2.29905e-22
5.82697e-22
2.32645e-22
5.47439e-22
2.34506e-22
5.13524e-22
2.3554e-22
4.81057e-22
2.36108e-22
4.49676e-22
2.36212e-22
4.19329e-22
2.35798e-22
3.90171e-22
2.34868e-22
3.61788e-22
2.33575e-22
3.34336e-22
2.32024e-22
3.07453e-22
2.30008e-22
2.81293e-22
2.27733e-22
2.55806e-22
2.252e-22
2.30628e-22
2.22357e-22
2.06071e-22
2.19461e-22
1.81928e-22
2.16256e-22
1.58095e-22
2.13102e-22
1.34727e-22
2.10001e-22
1.11669e-22
2.06847e-22
8.87668e-23
2.03745e-22
6.61745e-23
2.01057e-22
4.36338e-23
1.98472e-22
2.12999e-23
1.963e-22
1.94439e-22
-4.93013e-14
4.0092e-13
-9.80546e-14
3.98462e-13
-1.46278e-13
3.94153e-13
-1.93741e-13
3.88012e-13
-2.40205e-13
3.7987e-13
-2.85254e-13
3.69677e-13
-3.2883e-13
3.57719e-13
-3.70458e-13
3.43617e-13
-4.09958e-13
3.27528e-13
-4.47832e-13
3.10902e-13
-4.82268e-13
2.92048e-13
-5.1178e-13
2.68391e-13
-5.45253e-13
2.53357e-13
-5.76772e-13
2.43149e-13
-5.91909e-13
2.08586e-13
-6.12919e-13
1.84162e-13
-6.30924e-13
1.6261e-13
-6.50927e-13
1.52432e-13
-6.53786e-13
1.28466e-13
-6.66688e-13
9.8284e-14
-6.7412e-13
8.85032e-14
-6.80346e-13
7.07468e-14
-6.82467e-13
5.30956e-14
-6.85917e-13
3.78454e-14
-6.86737e-13
2.45669e-14
-6.86396e-13
1.0757e-14
-6.8494e-13
-2.35323e-15
-6.82434e-13
-1.47552e-14
-6.78605e-13
-2.72443e-14
-6.73726e-13
-3.96129e-14
-6.67583e-13
-5.1903e-14
-6.60228e-13
-6.42123e-14
-6.51461e-13
-7.66556e-14
-6.41349e-13
-8.91146e-14
-6.29822e-13
-1.01275e-13
-6.16778e-13
-1.14181e-13
-6.0197e-13
-1.26975e-13
-5.85804e-13
-1.39398e-13
-5.67914e-13
-1.51872e-13
-5.48369e-13
-1.63902e-13
-5.27235e-13
-1.75427e-13
-5.04686e-13
-1.86404e-13
-4.80561e-13
-1.96682e-13
-4.55022e-13
-2.05999e-13
-4.28352e-13
-2.14154e-13
-4.00652e-13
-2.21274e-13
-3.71959e-13
-2.27014e-13
-3.42546e-13
-2.31114e-13
-3.12792e-13
-2.33495e-13
-2.82905e-13
-2.34288e-13
-2.53053e-13
-2.33291e-13
-2.23715e-13
-2.30314e-13
-1.95128e-13
-2.25441e-13
-1.67269e-13
-2.19154e-13
-1.40907e-13
-2.11027e-13
-1.16007e-13
-2.01411e-13
-9.2787e-14
-1.90744e-13
-7.13397e-14
-1.79067e-13
-5.19303e-14
-1.66526e-13
-3.44401e-14
-1.5357e-13
-1.90596e-14
-1.40383e-13
-5.78815e-15
-1.27188e-13
5.66548e-15
-1.14115e-13
1.51013e-14
-1.01602e-13
2.28852e-14
-8.98211e-14
2.90657e-14
-7.88408e-14
3.36472e-14
-6.86961e-14
3.68928e-14
-5.97412e-14
3.87748e-14
-5.18325e-14
3.95284e-14
-4.53318e-14
3.91437e-14
-4.0204e-14
3.75823e-14
-3.6673e-14
3.47065e-14
-3.50243e-14
2.97664e-14
-3.58447e-14
2.11481e-14
-4.08393e-14
1.68151e-15
-5.23373e-14
-3.01017e-14
1.96596e-13
-8.46701e-15
2.01352e-13
1.08902e-16
8.14705e-14
1.33012e-21
1.9416e-20
1.33336e-21
6.68465e-23
1.30798e-21
8.47343e-23
1.26429e-21
1.02726e-22
1.21818e-21
1.2082e-22
1.17082e-21
1.38604e-22
1.12243e-21
1.55665e-22
1.07363e-21
1.71847e-22
1.02451e-21
1.86943e-22
9.75401e-22
2.00643e-22
9.27011e-22
2.13051e-22
8.79241e-22
2.24063e-22
8.32816e-22
2.3373e-22
7.87528e-22
2.41744e-22
7.43791e-22
2.48619e-22
7.01656e-22
2.54255e-22
6.60969e-22
2.58649e-22
6.2204e-22
2.62113e-22
5.84558e-22
2.64439e-22
5.48472e-22
2.66042e-22
5.14196e-22
2.66921e-22
4.81109e-22
2.67076e-22
4.49263e-22
2.66611e-22
4.18398e-22
2.65525e-22
3.88878e-22
2.63974e-22
3.60237e-22
2.61958e-22
3.32268e-22
2.59425e-22
3.05126e-22
2.56633e-22
2.7876e-22
2.53324e-22
2.5291e-22
2.49809e-22
2.27733e-22
2.45931e-22
2.02918e-22
2.41744e-22
1.78774e-22
2.37608e-22
1.54941e-22
2.33162e-22
1.31625e-22
2.28767e-22
1.08516e-22
2.24528e-22
8.60785e-23
2.20444e-22
6.35378e-23
2.16515e-22
4.14624e-23
2.13206e-22
1.94387e-23
2.10259e-22
2.07881e-22
-5.13814e-14
4.52557e-13
-1.02124e-13
4.49645e-13
-1.52368e-13
4.44781e-13
-2.0188e-13
4.37903e-13
-2.50283e-13
4.28646e-13
-2.97236e-13
4.17002e-13
-3.42817e-13
4.0367e-13
-3.85394e-13
3.8656e-13
-4.27611e-13
3.70105e-13
-4.6695e-13
3.50599e-13
-4.98787e-13
3.24236e-13
-5.35163e-13
3.05111e-13
-5.73528e-13
2.92063e-13
-5.91631e-13
2.61581e-13
-6.14639e-13
2.31918e-13
-6.33364e-13
2.032e-13
-6.58463e-13
1.88015e-13
-6.66044e-13
1.60314e-13
-6.71472e-13
1.34184e-13
-6.86184e-13
1.13274e-13
-6.91571e-13
9.41594e-14
-6.95735e-13
7.51705e-14
-6.97842e-13
5.54504e-14
-7.00324e-13
4.05632e-14
-7.00388e-13
2.48524e-14
-6.99552e-13
1.01306e-14
-6.97783e-13
-3.92545e-15
-6.94884e-13
-1.74674e-14
-6.90941e-13
-3.10165e-14
-6.85953e-13
-4.4444e-14
-6.79894e-13
-5.78186e-14
-6.72544e-13
-7.14332e-14
-6.63974e-13
-8.51124e-14
-6.53939e-13
-9.90496e-14
-6.42538e-13
-1.12593e-13
-6.29299e-13
-1.27352e-13
-6.14488e-13
-1.41731e-13
-5.97976e-13
-1.55869e-13
-5.79906e-13
-1.69919e-13
-5.59971e-13
-1.8383e-13
-5.38267e-13
-1.97136e-13
-5.14867e-13
-2.09825e-13
-4.89953e-13
-2.21631e-13
-4.6338e-13
-2.32622e-13
-4.35343e-13
-2.42258e-13
-4.0621e-13
-2.50486e-13
-3.76002e-13
-2.57316e-13
-3.4507e-13
-2.62153e-13
-3.13536e-13
-2.65149e-13
-2.81771e-13
-2.66189e-13
-2.5016e-13
-2.65052e-13
-2.19047e-13
-2.61589e-13
-1.88521e-13
-2.56142e-13
-1.59206e-13
-2.48656e-13
-1.315e-13
-2.38934e-13
-1.05256e-13
-2.27868e-13
-8.10146e-14
-2.15208e-13
-5.88368e-14
-2.01476e-13
-3.89409e-14
-1.86667e-13
-2.1267e-14
-1.71499e-13
-5.88995e-15
-1.56026e-13
7.20814e-15
-1.40559e-13
1.81414e-14
-1.25334e-13
2.70005e-14
-1.10755e-13
3.39686e-14
-9.70915e-14
3.91421e-14
-8.43244e-14
4.26767e-14
-7.25485e-14
4.46665e-14
-6.20551e-14
4.53e-14
-5.27946e-14
4.46214e-14
-4.49869e-14
4.26717e-14
-3.85979e-14
3.92696e-14
-3.3616e-14
3.37754e-14
-2.98797e-14
2.45839e-14
-2.70073e-14
6.96822e-15
-2.35801e-14
-3.59665e-14
-9.75899e-15
-2.24456e-14
1.82718e-13
-1.03801e-14
1.88924e-13
1.06004e-16
7.06957e-14
1.36321e-21
2.08587e-20
1.35125e-21
7.36191e-23
1.32597e-21
9.47122e-23
1.28239e-21
1.1596e-22
1.23596e-21
1.37157e-22
1.18793e-21
1.57888e-22
1.13861e-21
1.77689e-22
1.08872e-21
1.96455e-22
1.03816e-21
2.13568e-22
9.87809e-22
2.29232e-22
9.37971e-22
2.43139e-22
8.88909e-22
2.5534e-22
8.40881e-22
2.65783e-22
7.94352e-22
2.74624e-22
7.49374e-22
2.81862e-22
7.0605e-22
2.87652e-22
6.64433e-22
2.91943e-22
6.24418e-22
2.95097e-22
5.86058e-22
2.97216e-22
5.49403e-22
2.98509e-22
5.143e-22
2.98664e-22
4.80644e-22
2.98095e-22
4.48177e-22
2.96854e-22
4.16899e-22
2.95045e-22
3.8681e-22
2.92563e-22
3.57756e-22
2.89617e-22
3.29528e-22
2.86049e-22
3.01869e-22
2.81965e-22
2.75141e-22
2.77623e-22
2.49033e-22