/*--------------------------------*- C++ -*----------------------------------*\
  =========                 |
  \\      /  F ield         | OpenFOAM: The Open Source CFD Toolbox
   \\    /   O peration     | Website:  https://openfoam.org
    \\  /    A nd           | Version:  6
     \\/     M anipulation  |
\*---------------------------------------------------------------------------*/
FoamFile
{
    version     2.0;
    format      ascii;
    class       surfaceScalarField;
    location    "1100";
    object      phi;
}
// * * * * * * * * * * * * * * * * * * * * * * * * * * * * * * * * * * * * * //

dimensions      [0 3 -1 0 0 0 0];

internalField   nonuniform List<scalar> 
9440
(
-1.31917e-13
1.31917e-13
-2.62758e-13
1.30644e-13
-3.90698e-13
1.27782e-13
-5.1428e-13
1.2343e-13
-6.32165e-13
1.17735e-13
-7.43132e-13
1.10819e-13
-8.46096e-13
1.02817e-13
-9.40138e-13
9.38977e-14
-1.02449e-12
8.42025e-14
-1.09852e-12
7.38887e-14
-1.1618e-12
6.31405e-14
-1.21403e-12
5.20938e-14
-1.25513e-12
4.09626e-14
-1.28505e-12
2.97897e-14
-1.30412e-12
1.8931e-14
-1.31315e-12
8.90033e-15
-1.31309e-12
-1.84734e-16
-1.30239e-12
-1.08144e-14
-1.28268e-12
-1.98358e-14
-1.25583e-12
-2.69625e-14
-1.22332e-12
-3.26257e-14
-1.1815e-12
-4.19269e-14
-1.13542e-12
-4.61788e-14
-1.0849e-12
-5.06122e-14
-1.03032e-12
-5.46789e-14
-9.72808e-13
-5.75967e-14
-9.13238e-13
-5.96549e-14
-8.52281e-13
-6.10347e-14
-7.90631e-13
-6.17239e-14
-7.28875e-13
-6.18262e-14
-6.67593e-13
-6.13457e-14
-6.07278e-13
-6.03721e-14
-5.48384e-13
-5.89457e-14
-4.91228e-13
-5.72015e-14
-4.36131e-13
-5.51368e-14
-3.83346e-13
-5.28198e-14
-3.33044e-13
-5.03312e-14
-2.85376e-13
-4.76894e-14
-2.40365e-13
-4.50281e-14
-1.98084e-13
-4.2289e-14
-1.58532e-13
-3.95571e-14
-1.21706e-13
-3.68271e-14
-8.75084e-14
-3.41892e-14
-5.58996e-14
-3.15937e-14
-2.67944e-14
-2.90849e-14
-6.07025e-17
-2.67083e-14
2.44019e-14
-2.44297e-14
4.66611e-14
-2.22204e-14
6.68857e-14
-2.01806e-14
8.51494e-14
-1.8212e-14
1.01589e-13
-1.63822e-14
1.1628e-13
-1.46286e-14
1.29302e-13
-1.29535e-14
1.40734e-13
-1.13579e-14
1.50613e-13
-9.80007e-15
1.59089e-13
-8.39292e-15
1.66145e-13
-6.96539e-15
1.71854e-13
-5.61241e-15
1.76251e-13
-4.29503e-15
1.79394e-13
-3.03807e-15
1.81297e-13
-1.79231e-15
1.82032e-13
-6.19544e-16
1.81612e-13
5.4005e-16
1.80081e-13
1.65389e-15
1.77492e-13
2.71564e-15
1.73955e-13
3.66704e-15
1.69519e-13
4.56911e-15
1.6428e-13
5.37803e-15
1.58449e-13
5.971e-15
1.52149e-13
6.44493e-15
1.4567e-13
6.62537e-15
1.39384e-13
6.43589e-15
1.33984e-13
5.55065e-15
1.3107e-13
3.06465e-15
1.34975e-13
-3.75165e-15
1.58806e-13
-2.36738e-14
2.43955e-13
-8.49928e-14
1.01605e-13
1.42507e-13
-9.82753e-17
1.01862e-13
2.54663e-21
-6.84282e-20
2.51396e-21
-1.37519e-23
2.52337e-21
-9.25408e-24
2.53831e-21
-1.18907e-24
2.54673e-21
7.80652e-24
2.54715e-21
1.6647e-23
2.53924e-21
2.51773e-23
2.52357e-21
3.35525e-23
2.50036e-21
4.12556e-23
2.46981e-21
4.85969e-23
2.43253e-21
5.54211e-23
2.38874e-21
6.1625e-23
2.33896e-21
6.72084e-23
2.28317e-21
7.22749e-23
2.22243e-21
7.68244e-23
2.15703e-21
8.06501e-23
2.08718e-21
8.39588e-23
2.01367e-21
8.66472e-23
1.9369e-21
8.88702e-23
1.85723e-21
9.07314e-23
1.77518e-21
9.19722e-23
1.69096e-21
9.29027e-23
1.60525e-21
9.34714e-23
1.51814e-21
9.38333e-23
1.42999e-21
9.38333e-23
1.34101e-21
9.37299e-23
1.25142e-21
9.34197e-23
1.16162e-21
9.30061e-23
1.07156e-21
9.24374e-23
9.81295e-22
9.18171e-23
8.90977e-22
9.1145e-23
8.00918e-22
9.04729e-23
7.11065e-22
8.98525e-23
6.21213e-22
8.92321e-23
5.31722e-22
8.86634e-23
4.42542e-22
8.80947e-23
3.53465e-22
8.76812e-23
2.64543e-22
8.72676e-23
1.76138e-22
8.70608e-23
8.76812e-23
8.67506e-23
8.62853e-23
-1.33006e-13
2.64727e-13
-2.65726e-13
2.6305e-13
-3.9543e-13
2.57217e-13
-5.2055e-13
2.48282e-13
-6.3975e-13
2.3667e-13
-7.51862e-13
2.2267e-13
-8.55809e-13
2.06503e-13
-9.50648e-13
1.88479e-13
-1.03556e-12
1.68858e-13
-1.10998e-12
1.48055e-13
-1.17344e-12
1.26358e-13
-1.22571e-12
1.04121e-13
-1.26662e-12
8.16271e-14
-1.29618e-12
5.91177e-14
-1.31477e-12
3.72921e-14
-1.3236e-12
1.75099e-14
-1.32266e-12
-1.33766e-15
-1.31107e-12
-2.26174e-14
-1.29065e-12
-4.04636e-14
-1.26334e-12
-5.44645e-14
-1.22941e-12
-6.67467e-14
-1.18698e-12
-8.45411e-14
-1.14002e-12
-9.33055e-14
-1.08872e-12
-1.02089e-13
-1.03322e-12
-1.10335e-13
-9.74972e-13
-1.15993e-13
-9.14662e-13
-1.20104e-13
-8.53018e-13
-1.22807e-13
-7.90712e-13
-1.24149e-13
-7.28388e-13
-1.2426e-13
-6.66616e-13
-1.23219e-13
-6.05899e-13
-1.21181e-13
-5.46606e-13
-1.18319e-13
-4.89166e-13
-1.14712e-13
-4.33843e-13
-1.10519e-13
-3.80855e-13
-1.05857e-13
-3.30407e-13
-1.0082e-13
-2.82659e-13
-9.54662e-14
-2.3762e-13
-9.00834e-14
-1.95329e-13
-8.45855e-14
-1.55831e-13
-7.90492e-14
-1.19042e-13
-7.36e-14
-8.49309e-14
-6.82756e-14
-5.34216e-14
-6.30636e-14
-2.43829e-14
-5.80711e-14
2.23027e-15
-5.32598e-14
2.65791e-14
-4.87077e-14
4.87634e-14
-4.43221e-14
6.88878e-14
-4.02115e-14
8.70526e-14
-3.62768e-14
1.03397e-13
-3.26135e-14
1.17976e-13
-2.90861e-14
1.30897e-13
-2.57438e-14
1.42254e-13
-2.25714e-14
1.52095e-13
-1.94875e-14
1.60506e-13
-1.66408e-14
1.67535e-13
-1.3823e-14
1.73196e-13
-1.10972e-14
1.77533e-13
-8.44174e-15
1.80646e-13
-5.95267e-15
1.82527e-13
-3.46915e-15
1.83224e-13
-1.10337e-15
1.82742e-13
1.24262e-15
1.81153e-13
3.47081e-15
1.78494e-13
5.6087e-15
1.74827e-13
7.57651e-15
1.70274e-13
9.36893e-15
1.64931e-13
1.09744e-14
1.58905e-13
1.22554e-14
1.52399e-13
1.32128e-14
1.4551e-13
1.37786e-14
1.38488e-13
1.37279e-14
1.31542e-13
1.27711e-14
1.24588e-13
1.02962e-14
1.16099e-13
5.01712e-15
9.78832e-14
-5.17845e-15
3.47894e-14
-2.16182e-14
3.59483e-14
1.4163e-13
-7.63081e-17
1.38111e-13
2.43961e-21
-1.269e-19
2.51851e-21
-2.54875e-23
2.53138e-21
-7.70312e-24
2.5473e-21
1.09084e-23
2.55552e-21
2.94683e-23
2.55573e-21
4.7718e-23
2.54751e-21
6.52439e-23
2.53133e-21
8.17875e-23
2.50775e-21
9.74522e-23
2.47658e-21
1.11773e-22
2.43868e-21
1.25008e-22
2.39438e-21
1.37002e-22
2.34397e-21
1.476e-22
2.28767e-21
1.56802e-22
2.22631e-21
1.65023e-22
2.16029e-21
1.71795e-22
2.08987e-21
1.7743e-22
2.01599e-21
1.82031e-22
1.9387e-21
1.85599e-22
1.85852e-21
1.88132e-22
1.77606e-21
1.89941e-22
1.69158e-21
1.91027e-22
1.60551e-21
1.91492e-22
1.51819e-21
1.91234e-22
1.42983e-21
1.90717e-22
1.34076e-21
1.89786e-22
1.25106e-21
1.88442e-22
1.1611e-21
1.86995e-22
1.07094e-21
1.85392e-22
9.80674e-22
1.83686e-22
8.90305e-22
1.82083e-22
8.00297e-22
1.8048e-22
7.10445e-22
1.78878e-22
6.20644e-22
1.77379e-22
5.31257e-22
1.76189e-22
4.42128e-22
1.75104e-22
3.53051e-22
1.74277e-22
2.64284e-22
1.73605e-22
1.75828e-22
1.73139e-22
8.72676e-23
1.72881e-22
1.72829e-22
-1.37347e-13
4.01916e-13
-2.72337e-13
3.97766e-13
-4.04162e-13
3.88804e-13
-5.31492e-13
3.75382e-13
-6.52892e-13
3.57838e-13
-7.67044e-13
3.36595e-13
-8.72776e-13
3.12008e-13
-9.6912e-13
2.84598e-13
-1.05529e-12
2.54807e-13
-1.13062e-12
2.23172e-13
-1.19471e-12
1.90228e-13
-1.24724e-12
1.56438e-13
-1.28811e-12
1.2229e-13
-1.31728e-12
8.80856e-14
-1.33525e-12
5.50668e-14
-1.34385e-12
2.59129e-14
-1.3414e-12
-3.96784e-15
-1.32818e-12
-3.60234e-14
-1.30651e-12
-6.23135e-14
-1.27839e-12
-8.27511e-14
-1.24154e-12
-1.03762e-13
-1.19788e-12
-1.28361e-13
-1.1492e-12
-1.42132e-13
-1.09622e-12
-1.55218e-13
-1.03892e-12
-1.67764e-13
-9.79171e-13
-1.75877e-13
-9.1737e-13
-1.82028e-13
-8.54361e-13
-1.8593e-13
-7.90805e-13
-1.87812e-13
-7.27388e-13
-1.87776e-13
-6.64641e-13
-1.86055e-13
-6.0303e-13
-1.82873e-13
-5.43019e-13
-1.78401e-13
-4.84967e-13
-1.72827e-13
-4.29165e-13
-1.66375e-13
-3.75842e-13
-1.59226e-13
-3.25134e-13
-1.5156e-13
-2.77229e-13
-1.43398e-13
-2.3208e-13
-1.35249e-13
-1.89808e-13
-1.26863e-13
-1.50341e-13
-1.18513e-13
-1.13677e-13
-1.10249e-13
-7.97341e-14
-1.02196e-13
-4.83972e-14
-9.43681e-14
-1.95601e-14
-8.68662e-14
6.83187e-15
-7.96024e-14
3.09304e-14
-7.27467e-14
5.28914e-14
-6.62154e-14
7.27695e-14
-6.00096e-14
9.0764e-14
-5.41827e-14
1.06876e-13
-4.86295e-14
1.21289e-13
-4.33934e-14
1.34059e-13
-3.83981e-14
1.45285e-13
-3.3676e-14
1.54986e-13
-2.90579e-14
1.6333e-13
-2.48454e-14
1.70235e-13
-2.0581e-14
1.75817e-13
-1.65245e-14
1.80109e-13
-1.25706e-14
1.83128e-13
-8.80187e-15
1.84938e-13
-5.1011e-15
1.85512e-13
-1.49289e-15
1.84939e-13
2.00523e-15
1.83234e-13
5.37184e-15
1.8043e-13
8.61359e-15
1.76596e-13
1.1619e-14
1.71826e-13
1.43522e-14
1.66219e-13
1.68e-14
1.59878e-13
1.88211e-14
1.52932e-13
2.03842e-14
1.45449e-13
2.14924e-14
1.37552e-13
2.18597e-14
1.29057e-13
2.15005e-14
1.19259e-13
2.03334e-14
1.05717e-13
1.88021e-14
8.17122e-14
1.9068e-14
3.06546e-14
2.9685e-14
2.14169e-14
1.51112e-13
-7.3054e-17
1.59798e-13
2.43944e-21
-1.91515e-19
2.53629e-21
-3.84639e-23
2.54999e-21
-9.61598e-24
2.56586e-21
1.93353e-23
2.57382e-21
4.7718e-23
2.5732e-21
7.53768e-23
2.56411e-21
1.01795e-22
2.54699e-21
1.26921e-22
2.52207e-21
1.50288e-22
2.48992e-21
1.7195e-22
2.45063e-21
1.91751e-22
2.40498e-21
2.09484e-22
2.35317e-21
2.25252e-22
2.29584e-21
2.39004e-22
2.23313e-21
2.50843e-22
2.16592e-21
2.60872e-22
2.09452e-21
2.69092e-22
2.01956e-21
2.75606e-22
1.94124e-21
2.80569e-22
1.86033e-21
2.84343e-22
1.7772e-21
2.86618e-22
1.692e-21
2.87911e-22
1.6053e-21
2.88272e-22
1.51767e-21
2.87911e-22
1.42885e-21
2.86722e-22
1.33946e-21
2.85015e-22
1.24961e-21
2.82947e-22
1.1594e-21
2.80621e-22
1.06923e-21
2.78191e-22
9.7902e-22
2.75658e-22
8.88651e-22
2.73021e-22
7.98695e-22
2.70591e-22
7.08946e-22
2.68317e-22
6.19507e-22
2.663e-22
5.30119e-22
2.64491e-22
4.41249e-22
2.6294e-22
3.52379e-22
2.61544e-22
2.63819e-22
2.60665e-22
1.75569e-22
2.60148e-22
8.72159e-23
2.59786e-22
2.60045e-22
-1.4162e-13
5.43388e-13
-2.81302e-13
5.37185e-13
-4.1755e-13
5.24821e-13
-5.48961e-13
5.06564e-13
-6.74041e-13
4.82694e-13
-7.91486e-13
4.53814e-13
-9.00087e-13
4.20387e-13
-9.98793e-13
3.83085e-13
-1.08681e-12
3.42605e-13
-1.16346e-12
2.99609e-13
-1.22832e-12
2.54876e-13
-1.28111e-12
2.09023e-13
-1.32171e-12
1.62691e-13
-1.35006e-12
1.16234e-13
-1.36688e-12
7.16934e-14
-1.37513e-12
3.39704e-14
-1.3699e-12
-9.37574e-15
-1.35418e-12
-5.19236e-14
-1.3305e-12
-8.61704e-14
-1.30151e-12
-1.11907e-13
-1.25957e-12
-1.45863e-13
-1.21425e-12
-1.73838e-13
-1.163e-12
-1.93526e-13
-1.10731e-12
-2.11048e-13
-1.04746e-12
-2.27755e-13
-9.85362e-13
-2.38098e-13
-9.21335e-13
-2.46174e-13
-8.56248e-13
-2.51126e-13
-7.90821e-13
-2.53346e-13
-7.2571e-13
-2.5298e-13
-6.61449e-13
-2.50404e-13
-5.98558e-13
-2.4584e-13
-5.37476e-13
-2.39552e-13
-4.78532e-13
-2.31832e-13
-4.22016e-13
-2.22942e-13
-3.68151e-13
-2.13133e-13
-3.17114e-13
-2.02632e-13
-2.68939e-13
-1.91597e-13
-2.23719e-13
-1.80485e-13
-1.81445e-13
-1.69143e-13
-1.42069e-13
-1.57886e-13
-1.0558e-13
-1.46727e-13
-7.18803e-14
-1.35873e-13
-4.08422e-14
-1.25377e-13
-1.23664e-14
-1.153e-13
1.37064e-14
-1.05626e-13
3.74851e-14
-9.64668e-14
5.9068e-14
-8.77301e-14
7.86403e-14
-7.95052e-14
9.62728e-14
-7.17283e-14
1.12118e-13
-6.43799e-14
1.26241e-13
-5.74121e-14
1.3879e-13
-5.08349e-14
1.4979e-13
-4.45553e-14
1.59338e-13
-3.84774e-14
1.67499e-13
-3.28684e-14
1.74252e-13
-2.71906e-14
1.79728e-13
-2.18491e-14
1.83918e-13
-1.65993e-14
1.86843e-13
-1.15613e-14
1.88527e-13
-6.6111e-15
1.89024e-13
-1.81078e-15
1.88307e-13
2.9107e-15
1.86416e-13
7.45494e-15
1.8341e-13
1.18179e-14
1.79334e-13
1.59004e-14
1.74264e-13
1.96308e-14
1.68276e-13
2.30009e-14
1.61458e-13
2.58553e-14
1.53945e-13
2.81201e-14
1.45837e-13
2.98249e-14
1.37167e-13
3.07583e-14
1.27898e-13
3.10033e-14
1.17631e-13
3.08344e-14
1.05672e-13
3.0999e-14
9.1881e-14
3.30995e-14
8.17135e-14
4.00933e-14
1.72154e-14
2.15851e-13
-7.15832e-17
1.77277e-13
2.33358e-21
-2.57401e-19
2.56519e-21
-5.15437e-23
2.57899e-21
-1.17873e-23
2.59425e-21
2.76589e-23
2.60148e-21
6.63296e-23
2.59962e-21
1.03604e-22
2.58923e-21
1.39277e-22
2.57041e-21
1.72984e-22
2.54374e-21
2.04365e-22
2.50961e-21
2.33317e-22
2.46846e-21
2.59631e-22
2.42074e-21
2.83258e-22
2.36687e-21
3.04144e-22
2.30773e-21
3.22497e-22
2.24316e-21
3.37955e-22
2.17409e-21
3.51087e-22
2.10099e-21
3.61788e-22
2.02452e-21
3.70215e-22
1.94496e-21
3.76522e-22
1.86266e-21
3.81124e-22
1.77844e-21
3.83967e-22
1.69236e-21
3.85415e-22
1.60494e-21
3.85621e-22
1.51648e-21
3.84639e-22
1.4272e-21
3.82985e-22
1.33729e-21
3.8071e-22
1.24729e-21
3.77815e-22
1.15697e-21
3.74661e-22
1.06675e-21
3.71249e-22
9.76383e-22
3.67682e-22
8.86221e-22
3.64373e-22
7.96368e-22
3.61116e-22
7.06981e-22
3.58169e-22
6.17697e-22
3.55429e-22
5.2862e-22
3.52999e-22
4.39853e-22
3.51242e-22
3.515e-22
3.49794e-22
2.6325e-22
3.48708e-22
1.75207e-22
3.48191e-22
8.74227e-23
3.48036e-22
3.48243e-22
-1.477e-13
6.90937e-13
-2.93602e-13
6.82824e-13
-4.35875e-13
6.66865e-13
-5.72832e-13
6.43295e-13
-7.03021e-13
6.12664e-13
-8.24965e-13
5.75538e-13
-9.37433e-13
5.32635e-13
-1.03932e-12
4.84758e-13
-1.12981e-12
4.32873e-13
-1.20821e-12
3.77797e-13
-1.27407e-12
3.20526e-13
-1.32713e-12
2.61886e-13
-1.36728e-12
2.02639e-13
-1.3944e-12
1.43155e-13
-1.41044e-12
8.75431e-14
-1.4166e-12
3.99329e-14
-1.40805e-12
-1.81019e-14
-1.3897e-12
-7.04513e-14
-1.36353e-12
-1.12509e-13
-1.33117e-12
-1.44439e-13
-1.28462e-12
-1.92566e-13
-1.23607e-12
-2.2254e-13
-1.18137e-12
-2.48378e-13
-1.12176e-12
-2.70801e-13
-1.05879e-12
-2.90855e-13
-9.934e-13
-3.03613e-13
-9.26363e-13
-3.1333e-13
-8.5847e-13
-3.19129e-13
-7.90517e-13
-3.21403e-13
-7.23133e-13
-3.20461e-13
-6.56869e-13
-3.16754e-13
-5.92292e-13
-3.10494e-13
-5.29765e-13
-3.02146e-13
-4.69639e-13
-2.92017e-13
-4.1222e-13
-2.80413e-13
-3.57669e-13
-2.67726e-13
-3.06182e-13
-2.54148e-13
-2.57708e-13
-2.40097e-13
-2.1235e-13
-2.25859e-13
-1.70153e-13
-2.11345e-13
-1.30975e-13
-1.97058e-13
-9.47539e-14
-1.82935e-13
-6.1388e-14
-1.69215e-13
-3.07392e-14
-1.55993e-13
-2.69655e-15
-1.43302e-13
2.29078e-14
-1.31182e-13
4.61737e-14
-1.19675e-13
6.73193e-14
-1.0881e-13
8.6423e-14
-9.85308e-14
1.03635e-13
-8.88566e-14
1.19085e-13
-7.97345e-14
1.32861e-13
-7.10855e-14
1.45088e-13
-6.29519e-14
1.55792e-13
-5.51414e-14
1.651e-13
-4.76601e-14
1.73032e-13
-4.06659e-14
1.79647e-13
-3.36643e-14
1.84963e-13
-2.70145e-14
1.89034e-13
-2.0515e-14
1.9182e-13
-1.41804e-14
1.93366e-13
-7.98446e-15
1.93699e-13
-1.96651e-15
1.928e-13
3.99407e-15
1.90741e-13
9.70608e-15
1.87467e-13
1.52874e-14
1.83061e-13
2.05093e-14
1.7757e-13
2.5328e-14
1.71121e-13
2.96596e-14
1.6379e-13
3.34028e-14
1.55584e-13
3.6547e-14
1.46773e-13
3.88609e-14
1.3742e-13
4.03396e-14
1.27718e-13
4.09333e-14
1.17838e-13
4.09454e-14
1.08091e-13
4.09822e-14
9.94043e-14
4.20214e-14
8.98653e-14
4.98711e-14
1.69756e-14
2.88979e-13
-7.09763e-17
1.94515e-13
2.54526e-21
-3.23922e-19
2.605e-21
-6.47786e-23
2.61834e-21
-1.37002e-23
2.63292e-21
3.67578e-23
2.63871e-21
8.59751e-23
2.63529e-21
1.33331e-22
2.62289e-21
1.78464e-22
2.60179e-21
2.21012e-22
2.57274e-21
2.60562e-22
2.53588e-21
2.96854e-22
2.49209e-21
3.29942e-22
2.44163e-21
3.59462e-22
2.38523e-21
3.85518e-22
2.32324e-21
4.08059e-22
2.25629e-21
4.27239e-22
2.18474e-21
4.43162e-22
2.10936e-21
4.56138e-22
2.03083e-21
4.66323e-22
1.94956e-21
4.73871e-22
1.8655e-21
4.79093e-22
1.77989e-21
4.8235e-22
1.69257e-21
4.83642e-22
1.60396e-21
4.83539e-22
1.51477e-21
4.82298e-22
1.42492e-21
4.79817e-22
1.3344e-21
4.76559e-22
1.24413e-21
4.72785e-22
1.15361e-21
4.68598e-22
1.06324e-21
4.64307e-22
9.72971e-22
4.60016e-22
8.83015e-22
4.55828e-22
7.93421e-22
4.52054e-22
7.04241e-22
4.48539e-22
6.15267e-22
4.45437e-22
5.26759e-22
4.428e-22
4.38509e-22
4.40629e-22
3.50414e-22
4.39078e-22
2.62733e-22
4.38096e-22
1.75052e-22
4.3763e-22
8.76812e-23
4.37682e-22
4.38302e-22
-1.55751e-13
8.46541e-13
-3.09548e-13
8.3636e-13
-4.5936e-13
8.1645e-13
-6.03487e-13
7.87198e-13
-7.40164e-13
7.49117e-13
-8.67871e-13
7.03027e-13
-9.85255e-13
6.498e-13
-1.09123e-12
5.90521e-13
-1.18484e-12
5.26265e-13
-1.26541e-12
4.58164e-13
-1.33247e-12
3.87384e-13
-1.38581e-12
3.15019e-13
-1.42521e-12
2.41846e-13
-1.45065e-12
1.68391e-13
-1.46714e-12
1.03845e-13
-1.46829e-12
4.09032e-14
-1.45603e-12
-3.05465e-14
-1.43456e-12
-9.20898e-14
-1.40623e-12
-1.41006e-13
-1.36629e-12
-1.84546e-13
-1.31667e-12
-2.42337e-13
-1.2633e-12
-2.76062e-13
-1.20418e-12
-3.0765e-13
-1.1396e-12
-3.35516e-13
-1.07264e-12
-3.5795e-13
-1.00307e-12
-3.7331e-13
-9.32206e-13
-3.84307e-13
-8.60806e-13
-3.90637e-13
-7.8966e-13
-3.92648e-13
-7.19379e-13
-3.90834e-13
-6.50646e-13
-3.85574e-13
-5.83917e-13
-3.773e-13
-5.19615e-13
-3.66515e-13
-4.58084e-13
-3.53609e-13
-3.99517e-13
-3.39029e-13
-3.44169e-13
-3.23116e-13
-2.92175e-13
-3.06178e-13
-2.43338e-13
-2.88957e-13
-1.9794e-13
-2.71273e-13
-1.55804e-13
-2.53487e-13
-1.16888e-13
-2.35971e-13
-8.10169e-14
-2.18793e-13
-4.81311e-14
-2.02078e-13
-1.80347e-14
-1.86058e-13
9.40207e-15
-1.70698e-13
3.43968e-14
-1.56125e-13
5.70492e-14
-1.42268e-13
7.75367e-14
-1.29232e-13
9.60732e-14
-1.16992e-13
1.12739e-13
-1.05437e-13
1.27683e-13
-9.45855e-14
1.41025e-13
-8.43231e-14
1.52856e-13
-7.46722e-14
1.63182e-13
-6.53465e-14
1.72229e-13
-5.65813e-14
1.79924e-13
-4.82272e-14
1.86308e-13
-3.99059e-14
1.91449e-13
-3.20063e-14
1.95396e-13
-2.43045e-14
1.98061e-13
-1.66836e-14
1.99446e-13
-9.20034e-15
1.99635e-13
-1.97696e-15
1.98588e-13
5.22385e-15
1.96223e-13
1.22603e-14
1.92672e-13
1.90328e-14
1.87867e-13
2.55145e-14
1.81953e-13
3.14454e-14
1.74944e-13
3.68781e-14
1.66893e-13
4.16671e-14
1.57963e-13
4.56946e-14
1.48245e-13
4.88006e-14
1.38053e-13
5.07548e-14
1.27718e-13
5.14965e-14
1.17882e-13
5.10114e-14
1.09569e-13
4.95283e-14
1.03714e-13
4.81094e-14
8.38482e-14
6.99755e-14
5.99104e-15
3.67071e-13
-7.01604e-17
2.00767e-13
2.65119e-21
-3.88327e-19
2.65608e-21
-7.76516e-23
2.6688e-21
-1.50443e-23
2.68213e-21
4.67874e-23
2.68601e-21
1.07017e-22
2.68048e-21
1.65023e-22
2.66543e-21
2.20133e-22
2.64129e-21
2.71677e-22
2.60903e-21
3.19602e-22
2.56896e-21
3.63598e-22
2.52166e-21
4.03302e-22
2.46769e-21
4.38664e-22
2.40777e-21
4.69839e-22
2.34242e-21
4.96619e-22
2.27216e-21
5.19211e-22
2.19777e-21
5.37874e-22
2.1196e-21
5.52919e-22
2.03838e-21
5.64551e-22
1.95478e-21
5.73029e-22
1.8687e-21
5.78665e-22
1.78123e-21
5.81922e-22
1.69246e-21
5.83214e-22
1.60266e-21
5.82542e-22
1.5124e-21
5.80474e-22
1.42167e-21
5.77217e-22
1.33068e-21
5.73029e-22
1.23994e-21
5.68377e-22
1.14932e-21
5.63258e-22
1.05889e-21
5.58088e-22
9.68835e-22
5.5297e-22
8.7919e-22
5.48162e-22
7.89906e-22
5.43768e-22
7.01191e-22
5.39787e-22
6.12682e-22
5.36427e-22
5.24588e-22
5.33687e-22
4.36907e-22
5.31722e-22
3.49432e-22
5.30275e-22
2.62268e-22
5.29447e-22
1.75104e-22
5.29137e-22
8.82498e-23
5.29499e-22
5.30326e-22
-1.65758e-13
1.01215e-12
-3.29375e-13
9.9972e-13
-4.88636e-13
9.75489e-13
-6.41547e-13
9.39888e-13
-7.86238e-13
8.93589e-13
-9.21062e-13
8.37636e-13
-1.04454e-12
7.73065e-13
-1.15547e-12
7.01234e-13
-1.25285e-12
6.23436e-13
-1.336e-12
5.41108e-13
-1.40445e-12
4.55636e-13
-1.45807e-12
3.68431e-13
-1.49601e-12
2.79596e-13
-1.52062e-12
1.92808e-13
-1.53674e-12
1.19776e-13
-1.53123e-12
3.5209e-14
-1.51486e-12
-4.70901e-14
-1.48908e-12
-1.18042e-13
-1.45951e-12
-1.7075e-13
-1.40728e-12
-2.36936e-13
-1.35556e-12
-2.94208e-13
-1.29606e-12
-3.35712e-13
-1.23131e-12
-3.72536e-13
-1.16075e-12
-4.06215e-13
-1.08873e-12
-4.30102e-13
-1.01417e-12
-4.4799e-13
-9.38611e-13
-4.59979e-13
-8.62902e-13
-4.66452e-13
-7.87836e-13
-4.67815e-13
-7.14173e-13
-4.64589e-13
-6.42436e-13
-4.57394e-13
-5.73175e-13
-4.46637e-13
-5.06729e-13
-4.33027e-13
-4.43509e-13
-4.16889e-13
-3.83668e-13
-3.98918e-13
-3.27378e-13
-3.79446e-13
-2.74753e-13
-3.58836e-13
-2.25691e-13
-3.38041e-13
-1.80183e-13
-3.16796e-13
-1.38239e-13
-2.95435e-13
-9.96791e-14
-2.74529e-13
-6.43097e-14
-2.54152e-13
-3.20414e-14
-2.34325e-13
-2.68964e-15
-2.15378e-13
2.40041e-14
-1.97354e-13
4.81973e-14
-1.80271e-13
7.00968e-14
-1.64107e-13
8.98282e-14
-1.48895e-13
1.07621e-13
-1.34711e-13
1.23612e-13
-1.21345e-13
1.37937e-13
-1.08818e-13
1.50704e-13
-9.69897e-14
1.62043e-13
-8.59041e-14
1.71951e-13
-7.51364e-14
1.80682e-13
-6.51872e-14
1.88045e-13
-5.54555e-14
1.94266e-13
-4.59875e-14
1.99228e-13
-3.68215e-14
2.03005e-13
-2.79239e-14
2.05515e-13
-1.90331e-14
2.06846e-13
-1.03631e-14
2.06848e-13
-1.80497e-15
2.05541e-13
6.71175e-15
2.02976e-13
1.50107e-14
1.9905e-13
2.3149e-14
1.93855e-13
3.09083e-14
1.87433e-13
3.80684e-14
1.7976e-13
4.47572e-14
1.7091e-13
5.07314e-14
1.61001e-13
5.582e-14
1.50222e-13
5.97975e-14
1.38805e-13
6.23953e-14
1.27193e-13
6.33345e-14
1.16418e-13
6.20167e-14
1.08044e-13
5.81298e-14
1.03843e-13
5.25401e-14
4.36723e-15
1.69685e-13
4.36282e-15
3.67309e-13
-6.89579e-17
2.05385e-13
2.6511e-21
-4.53577e-19
2.71868e-21
-9.06797e-23
2.73063e-21
-1.55096e-23
2.74236e-21
5.83679e-23
2.74402e-21
1.30126e-22
2.73554e-21
1.99092e-22
2.71703e-21
2.64439e-22
2.68922e-21
3.25651e-22
2.65303e-21
3.82364e-22
2.60862e-21
4.34011e-22
2.55702e-21
4.8054e-22
2.49886e-21
5.21744e-22
2.43455e-21
5.5783e-22
2.36496e-21
5.88694e-22
2.29093e-21
6.14647e-22
2.21281e-21
6.35792e-22
2.13123e-21
6.5249e-22
2.04686e-21
6.65312e-22
1.96042e-21
6.74462e-22
1.87201e-21
6.80304e-22
1.78247e-21
6.83458e-22
1.69179e-21
6.8413e-22
1.60054e-21
6.82683e-22
1.50914e-21
6.79684e-22
1.41748e-21
6.75341e-22
1.32602e-21
6.70223e-22
1.23483e-21
6.64433e-22
1.14409e-21
6.58436e-22
1.05383e-21
6.52542e-22
9.64079e-22
6.46649e-22
8.74744e-22
6.41324e-22
7.85977e-22
6.36412e-22
6.97727e-22
6.32431e-22
6.09942e-22
6.29071e-22
5.22623e-22
6.26589e-22
4.35459e-22
6.24728e-22
3.48657e-22
6.23591e-22
2.61958e-22
6.23229e-22
1.75517e-22
6.23436e-22
8.90253e-23
6.24263e-22
6.25504e-22
-1.7799e-13
1.19e-12
-3.53559e-13
1.17504e-12
-5.24242e-13
1.14595e-12
-6.87812e-13
1.10324e-12
-8.42206e-13
1.04777e-12
-9.85578e-13
9.80796e-13
-1.11636e-12
9.03637e-13
-1.23319e-12
8.17856e-13
-1.33505e-12
7.25084e-13
-1.42117e-12
6.27025e-13
-1.49128e-12
5.25548e-13
-1.54484e-12
4.21794e-13
-1.58059e-12
3.15154e-13
-1.60773e-12
2.19762e-13
-1.61719e-12
1.29051e-13
-1.60631e-12
2.41537e-14
-1.58526e-12
-6.83165e-14
-1.55633e-12
-1.4714e-13
-1.51861e-12
-2.08638e-13
-1.45764e-12
-2.98061e-13
-1.40097e-12
-3.51033e-13
-1.3344e-12
-4.02425e-13
-1.26208e-12
-4.44994e-13
-1.18543e-12
-4.83006e-13
-1.10684e-12
-5.08817e-13
-1.02629e-12
-5.28658e-13
-9.45111e-13
-5.4127e-13
-8.64315e-13
-5.47353e-13
-7.84695e-13
-5.47532e-13
-7.0694e-13
-5.42431e-13
-6.31736e-13
-5.3268e-13
-5.595e-13
-5.18945e-13
-4.90699e-13
-5.01894e-13
-4.25517e-13
-4.82127e-13
-3.64228e-13
-4.60256e-13
-3.07015e-13
-4.36698e-13
-2.5369e-13
-4.12195e-13
-2.0438e-13
-3.87373e-13
-1.58968e-13
-3.62221e-13
-1.17258e-13
-3.37152e-13
-7.92782e-14
-3.12504e-13
-4.46149e-14
-2.888e-13
-1.3114e-14
-2.65805e-13
1.53848e-14
-2.43846e-13
4.11054e-14
-2.23037e-13
6.43094e-14
-2.03429e-13
8.52779e-14
-1.85019e-13
1.04107e-13
-1.6766e-13
1.20956e-13
-1.51488e-13
1.36145e-13
-1.3645e-13
1.49724e-13
-1.22309e-13
1.6189e-13
-1.09054e-13
1.7257e-13
-9.64778e-14
1.82067e-13
-8.45165e-14
1.904e-13
-7.33981e-14
1.97411e-13
-6.23341e-14
2.03378e-13
-5.18155e-14
2.08201e-13
-4.14987e-14
2.11824e-13
-3.13973e-14
2.14245e-13
-2.12943e-14
2.1548e-13
-1.14323e-14
2.15356e-13
-1.50965e-15
2.13875e-13
8.37104e-15
2.10997e-13
1.80736e-14
2.06745e-13
2.75904e-14
2.01172e-13
3.66761e-14
1.94114e-13
4.53244e-14
1.857e-13
5.33761e-14
1.75973e-13
6.06674e-14
1.64995e-13
6.70107e-14
1.52852e-13
7.21557e-14
1.39713e-13
7.57537e-14
1.25908e-13
7.73601e-14
1.12436e-13
7.57136e-14
1.02899e-13
6.7891e-14
1.10135e-13
4.5532e-14
-2.53879e-14
3.05439e-13
5.50589e-15
3.36644e-13
-6.80557e-17
2.11142e-13
2.75685e-21
-5.17343e-19
2.79385e-21
-1.03604e-22
2.8045e-21
-1.53545e-23
2.81412e-21
7.14477e-23
2.81303e-21
1.55613e-22
2.80094e-21
2.36263e-22
2.77819e-21
3.12571e-22
2.74593e-21
3.83864e-22
2.70467e-21
4.49418e-22
2.65515e-21
5.09026e-22
2.59828e-21
5.62535e-22
2.5349e-21
6.0958e-22
2.46536e-21
6.50371e-22
2.39097e-21
6.85112e-22
2.31207e-21
7.13909e-22
2.22951e-21
7.37276e-22
2.14405e-21
7.55526e-22
2.05601e-21
7.6902e-22
1.96626e-21
7.78532e-22
1.87517e-21
7.84219e-22
1.78314e-21
7.86701e-22
1.69034e-21
7.86494e-22
1.5976e-21
7.84116e-22
1.5048e-21
7.7998e-22
1.41231e-21
7.74551e-22
1.32023e-21
7.68192e-22
1.22888e-21
7.61368e-22
1.13815e-21
7.54492e-22
1.04799e-21
7.47668e-22
9.58651e-22
7.41309e-22
8.69884e-22
7.35622e-22
7.81944e-22
7.30814e-22
6.94418e-22
7.26833e-22
6.07461e-22
7.23731e-22
5.20762e-22
7.2156e-22
4.34322e-22
7.20371e-22
3.48243e-22
7.20009e-22
2.62165e-22
7.20164e-22
1.76345e-22
7.21095e-22
9.02661e-23
7.22336e-22
7.2399e-22
-1.92652e-13
1.38251e-12
-3.82566e-13
1.3647e-12
-5.66925e-13
1.3301e-12
-7.43232e-13
1.27934e-12
-9.09194e-13
1.21352e-12
-1.06271e-12
1.1341e-12
-1.20207e-12
1.04279e-12
-1.32584e-12
9.41431e-13
-1.43284e-12
8.3188e-13
-1.52233e-12
7.16313e-13
-1.59429e-12
5.97309e-13
-1.64635e-12
4.7366e-13
-1.68344e-12
3.52064e-13
-1.71054e-12
2.4667e-13
-1.70843e-12
1.26766e-13
-1.69473e-12
1.02726e-14
-1.66891e-12
-9.4304e-14
-1.63749e-12
-1.78722e-13
-1.57895e-12
-2.67348e-13
-1.52027e-12
-3.56895e-13
-1.45246e-12
-4.18988e-13
-1.37816e-12
-4.76867e-13
-1.2965e-12
-5.26792e-13
-1.21312e-12
-5.66513e-13
-1.12663e-12
-5.95437e-13
-1.03902e-12
-6.16374e-13
-9.51337e-13
-6.29066e-13
-8.64577e-13
-6.34213e-13
-7.7963e-13
-6.32573e-13
-6.97255e-13
-6.24896e-13
-6.18029e-13
-6.11989e-13
-5.42481e-13
-5.94565e-13
-4.70939e-13
-5.73501e-13
-4.03691e-13
-5.49428e-13
-3.40898e-13
-5.23096e-13
-2.82613e-13
-4.95023e-13
-2.28583e-13
-4.66253e-13
-1.79214e-13
-4.36765e-13
-1.33998e-13
-4.07451e-13
-9.2755e-14
-3.784e-13
-5.53544e-14
-3.499e-13
-2.16856e-14
-3.22459e-13
8.78894e-15
-2.9626e-13
3.6226e-14
-2.71254e-13
6.0791e-14
-2.47563e-13
8.28016e-14
-2.25392e-13
1.02553e-13
-2.04714e-13
1.20291e-13
-1.85332e-13
1.36131e-13
-1.67253e-13
1.50274e-13
-1.50514e-13
1.63001e-13
-1.34945e-13
1.74346e-13
-1.20303e-13
1.84347e-13
-1.06373e-13
1.93434e-13
-9.34927e-14
2.01234e-13
-8.10776e-14
2.08001e-13
-6.89731e-14
2.13719e-13
-5.73985e-14
2.184e-13
-4.60364e-14
2.21891e-13
-3.47364e-14
2.24308e-13
-2.35565e-14
2.25424e-13
-1.2385e-14
2.25136e-13
-1.05276e-15
2.23552e-13
1.01287e-14
2.2045e-13
2.13553e-14
2.15905e-13
3.23238e-14
2.09818e-13
4.29584e-14
2.02179e-13
5.31592e-14
1.92995e-13
6.27611e-14
1.82291e-13
7.15759e-14
1.70146e-13
7.93638e-14
1.565e-13
8.60127e-14
1.41288e-13
9.11827e-14
1.24316e-13
9.45495e-14
1.04748e-13
9.55013e-14
8.0469e-14
9.23932e-14
4.48291e-14
8.1392e-14
5.5578e-15
3.44937e-13
6.00866e-15
3.3642e-13
-6.64286e-17
2.17399e-13
2.75681e-21
-5.76238e-19
2.8821e-21
-1.15857e-22
2.89136e-21
-1.36485e-23
2.89823e-21
8.67506e-23
2.89358e-21
1.84203e-22
2.87724e-21
2.77312e-22
2.84948e-21
3.64993e-22
2.81154e-21
4.46678e-22
2.76433e-21
5.21744e-22
2.7086e-21
5.89521e-22
2.64538e-21
6.49906e-22
2.57569e-21
7.02793e-22
2.50015e-21
7.48288e-22
2.41976e-21
7.86545e-22
2.33539e-21
8.17978e-22
2.24776e-21
8.43156e-22
2.1576e-21
8.62336e-22
2.06547e-21
8.76295e-22
1.972e-21
8.85445e-22
1.8776e-21
8.90563e-22
1.78294e-21
8.92063e-22
1.68797e-21
8.90719e-22
1.59341e-21
8.86944e-22
1.49937e-21
8.81361e-22
1.40595e-21
8.74537e-22
1.31341e-21
8.67092e-22
1.222e-21
8.59234e-22
1.13132e-21
8.51324e-22
1.04163e-21
8.43828e-22
9.52964e-22
8.37107e-22
8.65128e-22
8.31368e-22
7.77963e-22
8.26664e-22
6.91316e-22
8.23045e-22
6.05289e-22
8.20718e-22
5.19573e-22
8.19478e-22
4.33908e-22
8.19116e-22
3.4845e-22
8.19684e-22
2.63095e-22
8.20822e-22
1.77585e-22
8.22476e-22
9.19205e-23
8.24389e-22
8.2656e-22
-2.10132e-13
1.5925e-12
-4.1705e-13
1.57137e-12
-6.17657e-13
1.53049e-12
-8.09048e-13
1.47052e-12
-9.88585e-13
1.39285e-12
-1.15398e-12
1.2993e-12
-1.30339e-12
1.19199e-12
-1.43523e-12
1.07307e-12
-1.54791e-12
9.44357e-13
-1.6414e-12
8.09616e-13
-1.71354e-12
6.69251e-13
-1.76582e-12
5.25752e-13
-1.81012e-12
3.96182e-13
-1.82246e-12
2.5883e-13
-1.81645e-12
1.20578e-13
-1.79633e-12
-1.00161e-14
-1.77234e-12
-1.18459e-13
-1.72101e-12
-2.30212e-13
-1.65414e-12
-3.34366e-13
-1.58959e-12
-4.21601e-13
-1.51139e-12
-4.97338e-13
-1.42626e-12
-5.62134e-13
-1.3355e-12
-6.17682e-13
-1.24291e-12
-6.59229e-13
-1.14762e-12
-6.90846e-13
-1.0518e-12
-7.12309e-13
-9.5657e-13
-7.24407e-13
-8.63008e-13
-7.27877e-13
-7.72009e-13
-7.23665e-13
-6.84345e-13
-7.12644e-13
-6.00664e-13
-6.95747e-13
-5.21385e-13
-6.73914e-13
-4.46894e-13
-6.48055e-13
-3.77389e-13
-6.18989e-13
-3.13082e-13
-5.8745e-13
-2.53638e-13
-5.54504e-13
-1.99192e-13
-5.2073e-13
-1.4965e-13
-4.86326e-13
-1.04912e-13
-4.52202e-13
-6.44447e-14
-4.18873e-13
-2.796e-14
-3.8638e-13
4.67871e-15
-3.55083e-13
3.37277e-14
-3.25286e-13
5.97644e-14
-2.97263e-13
8.30059e-14
-2.70764e-13
1.0361e-13
-2.45949e-13
1.21982e-13
-2.23032e-13
1.38306e-13
-2.01594e-13
1.52927e-13
-1.81802e-13
1.65971e-13
-1.63476e-13
1.77628e-13
-1.46514e-13
1.87981e-13
-1.3056e-13
1.97448e-13
-1.15737e-13
2.05858e-13
-1.01792e-13
2.13093e-13
-8.81924e-14
2.19618e-13
-7.53714e-14
2.25135e-13
-6.27833e-14
2.29714e-13
-5.04766e-14
2.33156e-13
-3.80337e-14
2.35528e-13
-2.57753e-14
2.36623e-13
-1.33182e-14
2.36369e-13
-6.34497e-16
2.34675e-13
1.19956e-14
2.31461e-13
2.47471e-14
2.26595e-13
3.73729e-14
2.20039e-13
4.97024e-14
2.1176e-13
6.16311e-14
2.01794e-13
7.2927e-14
1.90118e-13
8.34533e-14
1.76727e-13
9.29603e-14
1.61645e-13
1.01303e-13
1.4467e-13
1.08369e-13
1.25172e-13
1.14261e-13
1.01449e-13
1.19442e-13
6.84645e-14
1.25596e-13
8.97756e-15
1.411e-13
1.17836e-14
3.42353e-13
5.39733e-15
3.43029e-13
-6.51846e-17
2.2304e-13
2.75668e-21
-6.33859e-19
2.98431e-21
-1.28006e-22
2.99181e-21
-1.05983e-23
2.99569e-21
1.04897e-22
2.98674e-21
2.16515e-22
2.96493e-21
3.22962e-22
2.93117e-21
4.23051e-22
2.8866e-21
5.15851e-22
2.83206e-21
6.00533e-22
2.76894e-21
6.76737e-22
2.69826e-21
7.44152e-22
2.62118e-21
8.02675e-22
2.53836e-21
8.52461e-22
2.45119e-21
8.93924e-22
2.36057e-21
9.2758e-22
2.26694e-21
9.53791e-22
2.1715e-21
9.73592e-22
2.07467e-21
9.87292e-22
1.97701e-21
9.95822e-22
1.87915e-21
9.99751e-22
1.78154e-21
9.99803e-22
1.68424e-21
9.96804e-22
1.58788e-21
9.91376e-22
1.49254e-21
9.8419e-22
1.3985e-21
9.75866e-22
1.3056e-21
9.66871e-22
1.21409e-21
9.57772e-22
1.12383e-21
9.49138e-22
1.03496e-21
9.41177e-22
9.47174e-22
9.34301e-22
8.6032e-22
9.28717e-22
7.74396e-22
9.24633e-22
6.88938e-22
9.21893e-22
6.04049e-22
9.20549e-22
5.19263e-22
9.20445e-22
4.34425e-22
9.21428e-22
3.49587e-22
9.23289e-22
2.6475e-22
9.2577e-22
1.7955e-22