/*--------------------------------*- C++ -*----------------------------------*\
  =========                 |
  \\      /  F ield         | OpenFOAM: The Open Source CFD Toolbox
   \\    /   O peration     | Website:  https://openfoam.org
    \\  /    A nd           | Version:  6
     \\/     M anipulation  |
\*---------------------------------------------------------------------------*/
FoamFile
{
    version     2.0;
    format      ascii;
    class       volVectorField;
    location    "1100";
    object      U;
}
// * * * * * * * * * * * * * * * * * * * * * * * * * * * * * * * * * * * * * //

dimensions      [0 1 -1 0 0 0 0];

internalField   nonuniform List<vector> 
4800
(
(-2.57527e-08 0 2.68505e-08)
(-7.91698e-08 0 2.43978e-08)
(-1.30807e-07 0 2.30406e-08)
(-1.81133e-07 0 2.20076e-08)
(-2.29448e-07 0 2.09432e-08)
(-2.75238e-07 0 1.97485e-08)
(-3.18039e-07 0 1.83967e-08)
(-3.57449e-07 0 1.6893e-08)
(-3.9313e-07 0 1.52436e-08)
(-4.24805e-07 0 1.34655e-08)
(-4.52264e-07 0 1.15843e-08)
(-4.75363e-07 0 9.61794e-09)
(-4.9403e-07 0 7.60329e-09)
(-5.08274e-07 0 5.54723e-09)
(-5.18119e-07 0 3.51313e-09)
(-5.23651e-07 0 1.60076e-09)
(-5.25419e-07 0 -1.39944e-10)
(-5.23276e-07 0 -2.20467e-09)
(-5.1712e-07 0 -3.98164e-09)
(-5.07786e-07 0 -5.38591e-09)
(-4.95828e-07 0 -6.48962e-09)
(-4.80855e-07 0 -8.36291e-09)
(-4.63248e-07 0 -9.18696e-09)
(-4.43938e-07 0 -1.0067e-08)
(-4.22925e-07 0 -1.08556e-08)
(-4.0049e-07 0 -1.14359e-08)
(-3.77095e-07 0 -1.18336e-08)
(-3.53005e-07 0 -1.20987e-08)
(-3.28498e-07 0 -1.22272e-08)
(-3.03828e-07 0 -1.22398e-08)
(-2.79232e-07 0 -1.21372e-08)
(-2.54923e-07 0 -1.19382e-08)
(-2.3109e-07 0 -1.16502e-08)
(-2.07892e-07 0 -1.13005e-08)
(-1.85449e-07 0 -1.08877e-08)
(-1.63876e-07 0 -1.04257e-08)
(-1.43265e-07 0 -9.93052e-09)
(-1.23685e-07 0 -9.40664e-09)
(-1.0514e-07 0 -8.87817e-09)
(-8.76902e-08 0 -8.33619e-09)
(-7.13292e-08 0 -7.79579e-09)
(-5.60523e-08 0 -7.2567e-09)
(-4.18508e-08 0 -6.73551e-09)
(-2.86923e-08 0 -6.22309e-09)
(-1.65529e-08 0 -5.72882e-09)
(-5.38091e-09 0 -5.26085e-09)
(4.85374e-09 0 -4.8123e-09)
(1.41984e-08 0 -4.3773e-09)
(2.2696e-08 0 -3.97625e-09)
(3.03929e-08 0 -3.58948e-09)
(3.73344e-08 0 -3.22994e-09)
(4.35602e-08 0 -2.88542e-09)
(4.91029e-08 0 -2.55639e-09)
(5.39944e-08 0 -2.24293e-09)
(5.82588e-08 0 -1.9371e-09)
(6.19289e-08 0 -1.66008e-09)
(6.50442e-08 0 -1.3795e-09)
(6.75913e-08 0 -1.11361e-09)
(6.9624e-08 0 -8.54808e-10)
(7.11282e-08 0 -6.08148e-10)
(7.21439e-08 0 -3.64044e-10)
(7.26687e-08 0 -1.34467e-10)
(7.27332e-08 0 9.19642e-11)
(7.23419e-08 0 3.08854e-10)
(7.15178e-08 0 5.15095e-10)
(7.02932e-08 0 6.99113e-10)
(6.86991e-08 0 8.73058e-10)
(6.67655e-08 0 1.02813e-09)
(6.45511e-08 0 1.14184e-09)
(6.21271e-08 0 1.23038e-09)
(5.95715e-08 0 1.2619e-09)
(5.70199e-08 0 1.22129e-09)
(5.46897e-08 0 1.04999e-09)
(5.30476e-08 0 5.94109e-10)
(5.32558e-08 0 -7.10888e-10)
(5.88953e-08 0 -4.70652e-09)
(7.93838e-08 0 -1.71207e-08)
(3.90338e-08 0 2.51346e-08)
(-9.35496e-11 0 1.98136e-08)
(1.96238e-14 0 -1.36953e-14)
(5.02995e-16 0 -2.75038e-18)
(1.00746e-15 0 -1.85082e-18)
(1.01233e-15 0 -2.37815e-19)
(1.01701e-15 0 1.5613e-18)
(1.01878e-15 0 3.3294e-18)
(1.01728e-15 0 5.03546e-18)
(1.01256e-15 0 6.7105e-18)
(1.00479e-15 0 8.25113e-18)
(9.94033e-16 0 9.71937e-18)
(9.80468e-16 0 1.10842e-17)
(9.64255e-16 0 1.2325e-17)
(9.4554e-16 0 1.34417e-17)
(9.24426e-16 0 1.4455e-17)
(9.0112e-16 0 1.53649e-17)
(8.75891e-16 0 1.613e-17)
(8.48842e-16 0 1.67918e-17)
(8.2017e-16 0 1.73294e-17)
(7.90113e-16 0 1.7774e-17)
(7.58825e-16 0 1.81463e-17)
(7.26482e-16 0 1.83944e-17)
(6.93229e-16 0 1.85805e-17)
(6.59242e-16 0 1.86943e-17)
(6.24677e-16 0 1.87667e-17)
(5.89625e-16 0 1.87667e-17)
(5.54201e-16 0 1.8746e-17)
(5.18487e-16 0 1.86839e-17)
(4.82608e-16 0 1.86012e-17)
(4.46636e-16 0 1.84875e-17)
(4.10571e-16 0 1.83634e-17)
(3.74454e-16 0 1.8229e-17)
(3.38379e-16 0 1.80946e-17)
(3.02397e-16 0 1.79705e-17)
(2.66456e-16 0 1.78464e-17)
(2.30587e-16 0 1.77327e-17)
(1.94853e-16 0 1.76189e-17)
(1.59201e-16 0 1.75362e-17)
(1.23601e-16 0 1.74535e-17)
(8.81361e-17 0 1.74122e-17)
(5.27638e-17 0 1.73501e-17)
(1.75362e-17 0 1.72571e-17)
(-2.59722e-08 0 7.96935e-08)
(-7.99653e-08 0 8.06488e-08)
(-1.32363e-07 0 7.94418e-08)
(-1.83351e-07 0 7.68685e-08)
(-2.32239e-07 0 7.3316e-08)
(-2.78522e-07 0 6.89572e-08)
(-3.2175e-07 0 6.38989e-08)
(-3.61516e-07 0 5.82601e-08)
(-3.97468e-07 0 5.21385e-08)
(-4.29332e-07 0 4.56603e-08)
(-4.56905e-07 0 3.89295e-08)
(-4.80047e-07 0 3.20528e-08)
(-4.9868e-07 0 2.51355e-08)
(-5.12809e-07 0 1.82381e-08)
(-5.22493e-07 0 1.15685e-08)
(-5.27869e-07 0 5.45222e-09)
(-5.29436e-07 0 -9.15586e-11)
(-5.26921e-07 0 -6.55683e-09)
(-5.2047e-07 0 -1.19982e-08)
(-5.10869e-07 0 -1.62689e-08)
(-4.98569e-07 0 -1.97451e-08)
(-4.8316e-07 0 -2.5326e-08)
(-4.65271e-07 0 -2.78838e-08)
(-4.45616e-07 0 -3.05416e-08)
(-4.24259e-07 0 -3.29813e-08)
(-4.01501e-07 0 -3.47263e-08)
(-3.77812e-07 0 -3.5957e-08)
(-3.53435e-07 0 -3.67773e-08)
(-3.28658e-07 0 -3.71868e-08)
(-3.03745e-07 0 -3.72333e-08)
(-2.78938e-07 0 -3.69322e-08)
(-2.54451e-07 0 -3.63313e-08)
(-2.30458e-07 0 -3.5475e-08)
(-2.07124e-07 0 -3.44055e-08)
(-1.84579e-07 0 -3.31549e-08)
(-1.6292e-07 0 -3.176e-08)
(-1.42241e-07 0 -3.02546e-08)
(-1.22616e-07 0 -2.86564e-08)
(-1.04048e-07 0 -2.70452e-08)
(-8.65921e-08 0 -2.53976e-08)
(-7.02394e-08 0 -2.37434e-08)
(-5.49799e-08 0 -2.21067e-08)
(-4.08047e-08 0 -2.05127e-08)
(-2.76826e-08 0 -1.89499e-08)
(-1.55769e-08 0 -1.74475e-08)
(-4.44159e-09 0 -1.60082e-08)
(5.74594e-09 0 -1.46404e-08)
(1.50526e-08 0 -1.33199e-08)
(2.35153e-08 0 -1.20881e-08)
(3.11727e-08 0 -1.09051e-08)
(3.80752e-08 0 -9.80489e-09)
(4.426e-08 0 -8.74673e-09)
(4.97599e-08 0 -7.74158e-09)
(5.46166e-08 0 -6.78564e-09)
(5.88581e-08 0 -5.85621e-09)
(6.25078e-08 0 -5.00248e-09)
(6.56046e-08 0 -4.15224e-09)
(6.81372e-08 0 -3.33436e-09)
(7.0149e-08 0 -2.53831e-09)
(7.16346e-08 0 -1.78613e-09)
(7.26398e-08 0 -1.03736e-09)
(7.31531e-08 0 -3.26129e-10)
(7.31981e-08 0 3.78906e-10)
(7.27824e-08 0 1.05191e-09)
(7.19327e-08 0 1.69698e-09)
(7.06685e-08 0 2.28602e-09)
(6.90247e-08 0 2.83047e-09)
(6.70471e-08 0 3.3176e-09)
(6.47727e-08 0 3.70083e-09)
(6.2268e-08 0 3.99111e-09)
(5.95883e-08 0 4.14681e-09)
(5.68046e-08 0 4.10713e-09)
(5.40068e-08 0 3.7493e-09)
(5.12169e-08 0 2.76481e-09)
(4.80934e-08 0 3.62393e-10)
(4.30199e-08 0 -5.61706e-09)
(2.6286e-08 0 -2.16547e-08)
(1.74093e-08 0 5.74758e-08)
(-6.92696e-11 0 4.65578e-08)
(1.51057e-14 0 -3.90515e-14)
(5.03897e-16 0 -7.84788e-18)
(1.00998e-15 0 -3.39144e-18)
(1.01574e-15 0 1.94387e-18)
(1.02057e-15 0 7.45497e-18)
(1.02225e-15 0 1.2873e-17)
(1.02065e-15 0 1.80842e-17)
(1.01577e-15 0 2.3068e-17)
(1.00782e-15 0 2.77416e-17)
(9.96866e-16 0 3.20739e-17)
(9.83053e-16 0 3.60858e-17)
(9.66612e-16 0 3.97254e-17)
(9.4767e-16 0 4.29617e-17)
(9.26329e-16 0 4.58155e-17)
(9.02795e-16 0 4.83694e-17)
(8.77318e-16 0 5.0489e-17)
(8.50032e-16 0 5.22778e-17)
(8.21173e-16 0 5.37357e-17)
(7.9094e-16 0 5.48938e-17)
(7.59445e-16 0 5.57727e-17)
(7.26916e-16 0 5.63827e-17)
(6.93529e-16 0 5.6786e-17)
(6.59418e-16 0 5.69927e-17)
(6.24739e-16 0 5.70134e-17)
(5.89604e-16 0 5.691e-17)
(5.54118e-16 0 5.67032e-17)
(5.18363e-16 0 5.63724e-17)
(4.82432e-16 0 5.60001e-17)
(4.46409e-16 0 5.55659e-17)
(4.10323e-16 0 5.51006e-17)
(3.74196e-16 0 5.46456e-17)
(3.3812e-16 0 5.41907e-17)
(3.02148e-16 0 5.37461e-17)
(2.66218e-16 0 5.33221e-17)
(2.3038e-16 0 5.29706e-17)
(1.94677e-16 0 5.26397e-17)
(1.59036e-16 0 5.23916e-17)
(1.23467e-16 0 5.21744e-17)
(8.80224e-17 0 5.204e-17)
(5.2619e-17 0 5.19263e-17)
(1.74535e-17 0 5.18229e-17)
(-2.68166e-08 0 1.33169e-07)
(-8.21864e-08 0 1.31614e-07)
(-1.35444e-07 0 1.28529e-07)
(-1.8731e-07 0 1.24046e-07)
(-2.3709e-07 0 1.18246e-07)
(-2.84228e-07 0 1.11247e-07)
(-3.28223e-07 0 1.0316e-07)
(-3.68649e-07 0 9.41445e-08)
(-4.05155e-07 0 8.43362e-08)
(-4.37453e-07 0 7.39239e-08)
(-4.6533e-07 0 6.30696e-08)
(-4.88644e-07 0 5.19343e-08)
(-5.0732e-07 0 4.06707e-08)
(-5.21357e-07 0 2.93863e-08)
(-5.30846e-07 0 1.84616e-08)
(-5.3601e-07 0 8.63142e-09)
(-5.37247e-07 0 -1.01258e-09)
(-5.34086e-07 0 -1.16294e-08)
(-5.27106e-07 0 -2.04977e-08)
(-5.1702e-07 0 -2.74681e-08)
(-5.04021e-07 0 -3.39423e-08)
(-4.87757e-07 0 -4.26003e-08)
(-4.69298e-07 0 -4.70598e-08)
(-4.48946e-07 0 -5.1438e-08)
(-4.26887e-07 0 -5.5573e-08)
(-4.03484e-07 0 -5.8357e-08)
(-3.79192e-07 0 -6.04034e-08)
(-3.54245e-07 0 -6.17264e-08)
(-3.28945e-07 0 -6.23727e-08)
(-3.03564e-07 0 -6.2388e-08)
(-2.78343e-07 0 -6.1836e-08)
(-2.53482e-07 0 -6.07941e-08)
(-2.29167e-07 0 -5.93287e-08)
(-2.05567e-07 0 -5.74941e-08)
(-1.82803e-07 0 -5.53664e-08)
(-1.60983e-07 0 -5.30045e-08)
(-1.40184e-07 0 -5.04647e-08)
(-1.20477e-07 0 -4.77634e-08)
(-1.01852e-07 0 -4.5058e-08)
(-8.43816e-08 0 -4.22826e-08)
(-6.80377e-08 0 -3.95052e-08)
(-5.28085e-08 0 -3.6764e-08)
(-3.86934e-08 0 -3.40882e-08)
(-2.5639e-08 0 -3.14808e-08)
(-1.36081e-08 0 -2.89828e-08)
(-2.55583e-09 0 -2.65686e-08)
(7.53544e-09 0 -2.42867e-08)
(1.67477e-08 0 -2.21036e-08)
(2.51171e-08 0 -2.00408e-08)
(3.2691e-08 0 -1.80893e-08)
(3.95129e-08 0 -1.62462e-08)
(4.56181e-08 0 -1.4494e-08)
(5.10544e-08 0 -1.28264e-08)
(5.58548e-08 0 -1.12476e-08)
(6.00417e-08 0 -9.70922e-09)
(6.36511e-08 0 -8.29574e-09)
(6.67091e-08 0 -6.88177e-09)
(6.91998e-08 0 -5.52671e-09)
(7.1191e-08 0 -4.20342e-09)
(7.26455e-08 0 -2.95437e-09)
(7.36183e-08 0 -1.71701e-09)
(7.40942e-08 0 -5.25319e-10)
(7.40947e-08 0 6.43576e-10)
(7.36389e-08 0 1.76043e-09)
(7.27367e-08 0 2.83505e-09)
(7.14101e-08 0 3.82774e-09)
(6.96899e-08 0 4.73075e-09)
(6.76163e-08 0 5.53865e-09)
(6.5226e-08 0 6.19745e-09)
(6.25697e-08 0 6.70152e-09)
(5.96829e-08 0 7.03403e-09)
(5.66042e-08 0 7.09679e-09)
(5.33215e-08 0 6.83397e-09)
(4.96588e-08 0 6.10772e-09)
(4.49863e-08 0 4.76604e-09)
(3.76895e-08 0 2.78187e-09)
(2.2261e-08 0 1.64524e-09)
(1.15521e-08 0 5.93974e-08)
(-6.59396e-11 0 5.81576e-08)
(1.44511e-14 0 -6.36635e-14)
(5.07454e-16 0 -1.27903e-17)
(1.01726e-15 0 -3.46382e-18)
(1.02317e-15 0 6.04876e-18)
(1.02794e-15 0 1.54373e-17)
(1.02941e-15 0 2.4619e-17)
(1.02746e-15 0 3.34078e-17)
(1.02222e-15 0 4.17416e-17)
(1.01381e-15 0 4.95481e-17)
(1.0024e-15 0 5.67446e-17)
(9.88109e-16 0 6.33517e-17)
(9.7112e-16 0 6.92971e-17)
(9.5163e-16 0 7.45703e-17)
(9.29803e-16 0 7.91612e-17)
(9.05794e-16 0 8.3173e-17)
(8.7981e-16 0 8.65334e-17)
(8.52089e-16 0 8.93045e-17)
(8.22817e-16 0 9.15275e-17)
(7.9216e-16 0 9.32336e-17)
(7.60313e-16 0 9.44951e-17)
(7.27505e-16 0 9.53119e-17)
(6.93839e-16 0 9.57875e-17)
(6.59459e-16 0 9.5953e-17)
(6.24594e-16 0 9.58289e-17)
(5.89304e-16 0 9.54877e-17)
(5.53663e-16 0 9.49603e-17)
(5.17815e-16 0 9.42779e-17)
(4.81802e-16 0 9.35231e-17)
(4.45726e-16 0 9.27166e-17)
(4.09651e-16 0 9.18688e-17)
(3.73534e-16 0 9.10209e-17)
(3.37469e-16 0 9.02144e-17)
(3.01528e-16 0 8.94389e-17)
(2.6569e-16 0 8.87358e-17)
(2.29925e-16 0 8.81361e-17)
(1.94274e-16 0 8.76088e-17)
(1.58726e-16 0 8.71642e-17)
(1.2324e-16 0 8.6854e-17)
(8.78776e-17 0 8.66575e-17)
(5.2557e-17 0 8.65334e-17)
(1.74432e-17 0 8.65748e-17)
(-2.76443e-08 0 1.89203e-07)
(-8.48489e-08 0 1.87066e-07)
(-1.39918e-07 0 1.82769e-07)
(-1.93483e-07 0 1.76425e-07)
(-2.44815e-07 0 1.68146e-07)
(-2.93348e-07 0 1.58132e-07)
(-3.38578e-07 0 1.46543e-07)
(-3.8005e-07 0 1.33614e-07)
(-4.17397e-07 0 1.19572e-07)
(-4.50328e-07 0 1.04656e-07)
(-4.78624e-07 0 8.91293e-08)
(-5.02149e-07 0 7.32078e-08)
(-5.20826e-07 0 5.71176e-08)
(-5.34642e-07 0 4.10027e-08)
(-5.43762e-07 0 2.54725e-08)
(-5.48575e-07 0 1.18e-08)
(-5.49203e-07 0 -2.37117e-09)
(-5.44951e-07 0 -1.73853e-08)
(-5.37189e-07 0 -2.96942e-08)
(-5.26397e-07 0 -3.92376e-08)
(-5.12235e-07 0 -4.92383e-08)
(-4.94654e-07 0 -6.05364e-08)
(-4.75334e-07 0 -6.70826e-08)
(-4.53922e-07 0 -7.31795e-08)
(-4.30792e-07 0 -7.90712e-08)
(-4.06436e-07 0 -8.276e-08)
(-3.81222e-07 0 -8.56038e-08)
(-3.55415e-07 0 -8.7376e-08)
(-3.29326e-07 0 -8.81985e-08)
(-3.03231e-07 0 -8.81194e-08)
(-2.77368e-07 0 -8.72635e-08)
(-2.51949e-07 0 -8.57154e-08)
(-2.27164e-07 0 -8.35652e-08)
(-2.03172e-07 0 -8.09083e-08)
(-1.80086e-07 0 -7.78411e-08)
(-1.58014e-07 0 -7.44527e-08)
(-1.37043e-07 0 -7.08233e-08)
(-1.17218e-07 0 -6.69777e-08)
(-9.85186e-08 0 -6.31316e-08)
(-8.10381e-08 0 -5.91875e-08)
(-6.47146e-08 0 -5.52674e-08)
(-4.95307e-08 0 -5.13832e-08)
(-3.55062e-08 0 -4.76033e-08)
(-2.25563e-08 0 -4.39391e-08)
(-1.06608e-08 0 -4.04237e-08)
(2.59958e-10 0 -3.7036e-08)
(1.02204e-08 0 -3.38357e-08)
(1.92928e-08 0 -3.07816e-08)
(2.75265e-08 0 -2.7895e-08)
(3.49666e-08 0 -2.51752e-08)
(4.16625e-08 0 -2.25951e-08)
(4.76562e-08 0 -2.01545e-08)
(5.29904e-08 0 -1.78403e-08)
(5.77016e-08 0 -1.5641e-08)
(6.18115e-08 0 -1.35009e-08)
(6.53557e-08 0 -1.15369e-08)
(6.83444e-08 0 -9.55013e-09)
(7.07874e-08 0 -7.67185e-09)
(7.27323e-08 0 -5.82664e-09)
(7.41545e-08 0 -4.07169e-09)
(7.50744e-08 0 -2.33744e-09)
(7.55174e-08 0 -6.56439e-10)
(7.54691e-08 0 9.86431e-10)
(7.49497e-08 0 2.57025e-09)
(7.39686e-08 0 4.08985e-09)
(7.25535e-08 0 5.50835e-09)
(7.07252e-08 0 6.80175e-09)
(6.85149e-08 0 7.96456e-09)
(6.59543e-08 0 8.93915e-09)
(6.3089e-08 0 9.70362e-09)
(5.99631e-08 0 1.02675e-08)
(5.66065e-08 0 1.05254e-08)
(5.30177e-08 0 1.04972e-08)
(4.91144e-08 0 1.02142e-08)
(4.46849e-08 0 9.88858e-09)
(3.9691e-08 0 1.02622e-08)
(3.43655e-08 0 1.37744e-08)
(9.28908e-09 0 7.33043e-08)
(-6.53741e-11 0 6.64375e-08)
(1.43017e-14 0 -8.97638e-14)
(5.13225e-16 0 -1.80015e-17)
(1.02884e-15 0 -4.28066e-18)
(1.03465e-15 0 9.39884e-18)
(1.03915e-15 0 2.28095e-17)
(1.04022e-15 0 3.57962e-17)
(1.03777e-15 0 4.82143e-17)
(1.03193e-15 0 5.99809e-17)
(1.02283e-15 0 7.09307e-17)
(1.01067e-15 0 8.10534e-17)
(9.95615e-16 0 9.02764e-17)
(9.77841e-16 0 9.85482e-17)
(9.57524e-16 0 1.05879e-16)
(9.34921e-16 0 1.123e-16)
(9.10178e-16 0 1.1776e-16)
(8.8345e-16 0 1.22392e-16)
(8.55015e-16 0 1.26176e-16)
(8.25102e-16 0 1.29164e-16)
(7.93897e-16 0 1.31418e-16)
(7.61523e-16 0 1.33093e-16)
(7.28219e-16 0 1.34117e-16)
(6.9416e-16 0 1.34665e-16)
(6.59459e-16 0 1.34779e-16)
(6.24284e-16 0 1.3451e-16)
(5.88736e-16 0 1.33941e-16)
(5.52898e-16 0 1.33145e-16)
(5.16916e-16 0 1.32152e-16)
(4.8085e-16 0 1.31056e-16)
(4.44744e-16 0 1.29888e-16)
(4.08627e-16 0 1.28668e-16)
(3.72521e-16 0 1.27479e-16)
(3.36518e-16 0 1.26342e-16)
(3.0067e-16 0 1.25297e-16)
(2.64936e-16 0 1.24346e-16)
(2.29263e-16 0 1.23498e-16)
(1.93695e-16 0 1.22836e-16)
(1.58271e-16 0 1.22268e-16)
(1.2295e-16 0 1.21875e-16)
(8.76915e-17 0 1.21668e-16)
(5.2526e-17 0 1.21565e-16)
(1.74845e-17 0 1.21658e-16)
(-2.88088e-08 0 2.4712e-07)
(-8.85365e-08 0 2.44285e-07)
(-1.46048e-07 0 2.38628e-07)
(-2.01928e-07 0 2.30259e-07)
(-2.5539e-07 0 2.1935e-07)
(-3.05844e-07 0 2.06136e-07)
(-3.52748e-07 0 1.90856e-07)
(-3.95631e-07 0 1.73807e-07)
(-4.3411e-07 0 1.55321e-07)
(-4.67886e-07 0 1.35693e-07)
(-4.96734e-07 0 1.15281e-07)
(-5.20519e-07 0 9.43749e-08)
(-5.39156e-07 0 7.32492e-08)
(-5.52658e-07 0 5.21101e-08)
(-5.6138e-07 0 3.19584e-08)
(-5.65519e-07 0 1.51895e-08)
(-5.65088e-07 0 -5.40187e-09)
(-5.5968e-07 0 -2.45392e-08)
(-5.5088e-07 0 -3.95753e-08)
(-5.38885e-07 0 -5.08308e-08)
(-5.23025e-07 0 -6.80175e-08)
(-5.04063e-07 0 -7.91307e-08)
(-4.83347e-07 0 -8.83161e-08)
(-4.60489e-07 0 -9.62612e-08)
(-4.35935e-07 0 -1.03736e-07)
(-4.10317e-07 0 -1.08278e-07)
(-3.83832e-07 0 -1.11854e-07)
(-3.56866e-07 0 -1.14005e-07)
(-3.2971e-07 0 -1.14905e-07)
(-3.02655e-07 0 -1.14647e-07)
(-2.75937e-07 0 -1.13391e-07)
(-2.49781e-07 0 -1.11231e-07)
(-2.24369e-07 0 -1.08305e-07)
(-1.99853e-07 0 -1.04737e-07)
(-1.76351e-07 0 -1.00641e-07)
(-1.53955e-07 0 -9.6145e-08)
(-1.32764e-07 0 -9.1336e-08)
(-1.12786e-07 0 -8.63104e-08)
(-9.39999e-08 0 -8.12488e-08)
(-7.65023e-08 0 -7.60806e-08)
(-6.02457e-08 0 -7.09707e-08)
(-4.51415e-08 0 -6.59147e-08)
(-3.12455e-08 0 -6.10041e-08)
(-1.84352e-08 0 -5.62605e-08)
(-6.70774e-09 0 -5.17075e-08)
(4.02976e-09 0 -4.73498e-08)
(1.38046e-08 0 -4.32176e-08)
(2.26777e-08 0 -3.92977e-08)
(3.07322e-08 0 -3.55979e-08)
(3.79957e-08 0 -3.21076e-08)
(4.45279e-08 0 -2.88141e-08)
(5.0373e-08 0 -2.56912e-08)
(5.55731e-08 0 -2.27482e-08)
(6.01622e-08 0 -1.994e-08)
(6.4162e-08 0 -1.72114e-08)
(6.76169e-08 0 -1.46988e-08)
(7.05252e-08 0 -1.21673e-08)
(7.29196e-08 0 -9.76516e-09)
(7.47928e-08 0 -7.42068e-09)
(7.61838e-08 0 -5.1375e-09)
(7.70326e-08 0 -2.91996e-09)
(7.74199e-08 0 -7.45945e-10)
(7.73034e-08 0 1.38375e-09)
(7.67111e-08 0 3.43789e-09)
(7.56462e-08 0 5.42825e-09)
(7.41095e-08 0 7.28528e-09)
(7.21319e-08 0 8.98809e-09)
(6.97446e-08 0 1.05456e-08)
(6.69905e-08 0 1.18616e-08)
(6.38835e-08 0 1.29394e-08)
(6.04791e-08 0 1.37413e-08)
(5.68458e-08 0 1.42233e-08)
(5.30357e-08 0 1.43878e-08)
(4.91219e-08 0 1.43519e-08)
(4.51942e-08 0 1.43929e-08)
(4.15873e-08 0 1.50911e-08)
(3.76185e-08 0 1.81986e-08)
(8.39629e-09 0 1.00439e-07)
(-6.51115e-11 0 7.55531e-08)
(1.42434e-14 0 -1.16274e-13)
(5.21203e-16 0 -2.32645e-17)
(1.04467e-15 0 -5.0975e-18)
(1.05025e-15 0 1.28833e-17)
(1.05432e-15 0 3.04609e-17)
(1.0548e-15 0 4.73871e-17)
(1.05164e-15 0 6.35482e-17)
(1.04494e-15 0 7.87993e-17)
(1.03491e-15 0 9.29854e-17)
(1.02172e-15 0 1.06034e-16)
(1.00559e-15 0 1.17915e-16)
(9.86744e-16 0 1.28544e-16)
(9.65372e-16 0 1.37932e-16)
(9.41694e-16 0 1.46111e-16)
(9.15906e-16 0 1.53039e-16)
(8.88206e-16 0 1.5885e-16)
(8.5882e-16 0 1.63585e-16)
(8.28039e-16 0 1.67308e-16)
(7.96079e-16 0 1.70079e-16)
(7.63012e-16 0 1.72043e-16)
(7.29077e-16 0 1.73263e-16)
(6.94491e-16 0 1.73811e-16)
(6.59304e-16 0 1.73832e-16)
(6.23746e-16 0 1.73387e-16)
(5.87939e-16 0 1.7256e-16)
(5.51864e-16 0 1.71454e-16)
(5.15706e-16 0 1.7012e-16)
(4.79548e-16 0 1.68652e-16)
(4.43369e-16 0 1.67111e-16)
(4.07242e-16 0 1.6554e-16)
(3.71197e-16 0 1.6404e-16)
(3.35287e-16 0 1.62634e-16)
(2.99532e-16 0 1.61342e-16)
(2.63902e-16 0 1.60173e-16)
(2.28405e-16 0 1.5916e-16)
(1.93054e-16 0 1.58374e-16)
(1.57785e-16 0 1.57774e-16)
(1.2263e-16 0 1.57361e-16)
(8.75571e-17 0 1.57164e-16)
(5.25467e-17 0 1.57144e-16)
(1.75362e-17 0 1.57309e-16)
(-3.03537e-08 0 3.07806e-07)
(-9.33542e-08 0 3.04165e-07)
(-1.53941e-07 0 2.96993e-07)
(-2.12764e-07 0 2.86424e-07)
(-2.68958e-07 0 2.72674e-07)
(-3.21863e-07 0 2.56022e-07)
(-3.70903e-07 0 2.36785e-07)
(-4.15588e-07 0 2.15341e-07)
(-4.55509e-07 0 1.921e-07)
(-4.90346e-07 0 1.67454e-07)
(-5.19874e-07 0 1.41838e-07)
(-5.4396e-07 0 1.15617e-07)
(-5.62468e-07 0 8.91722e-08)
(-5.75588e-07 0 6.26464e-08)
(-5.83969e-07 0 3.79387e-08)
(-5.87252e-07 0 1.66438e-08)
(-5.85006e-07 0 -9.3866e-09)
(-5.78393e-07 0 -3.22638e-08)
(-5.68343e-07 0 -5.08826e-08)
(-5.54447e-07 0 -6.54124e-08)
(-5.36452e-07 0 -8.68283e-08)
(-5.15945e-07 0 -9.96539e-08)
(-4.93337e-07 0 -1.11154e-07)
(-4.68612e-07 0 -1.21125e-07)
(-4.42287e-07 0 -1.29709e-07)
(-4.15017e-07 0 -1.35317e-07)
(-3.86936e-07 0 -1.39465e-07)
(-3.58502e-07 0 -1.41893e-07)
(-3.30006e-07 0 -1.42753e-07)
(-3.01734e-07 0 -1.42206e-07)
(-2.73942e-07 0 -1.40418e-07)
(-2.46863e-07 0 -1.37512e-07)
(-2.20665e-07 0 -1.3369e-07)
(-1.9551e-07 0 -1.29085e-07)
(-1.7151e-07 0 -1.23852e-07)
(-1.48704e-07 0 -1.18132e-07)
(-1.2727e-07 0 -1.12036e-07)
(-1.07106e-07 0 -1.05782e-07)
(-8.82518e-08 0 -9.9399e-08)
(-7.07433e-08 0 -9.29443e-08)
(-5.45607e-08 0 -8.65835e-08)
(-3.95833e-08 0 -8.03225e-08)
(-2.58416e-08 0 -7.42427e-08)
(-1.32433e-08 0 -6.83917e-08)
(-1.7483e-09 0 -6.27862e-08)
(8.74176e-09 0 -5.74456e-08)
(1.82849e-08 0 -5.23723e-08)
(2.68933e-08 0 -4.7598e-08)
(3.47044e-08 0 -4.3092e-08)
(4.17464e-08 0 -3.8846e-08)
(4.80685e-08 0 -3.48525e-08)
(5.3725e-08 0 -3.10699e-08)
(5.87588e-08 0 -2.75145e-08)
(6.31948e-08 0 -2.40872e-08)
(6.70654e-08 0 -2.08385e-08)
(7.04208e-08 0 -1.77797e-08)
(7.32363e-08 0 -1.46962e-08)
(7.55473e-08 0 -1.17975e-08)
(7.73629e-08 0 -8.95564e-09)
(7.86984e-08 0 -6.16539e-09)
(7.95087e-08 0 -3.42821e-09)
(7.98128e-08 0 -7.93314e-10)
(7.9652e-08 0 1.85893e-09)
(7.89651e-08 0 4.40048e-09)
(7.77814e-08 0 6.86845e-09)
(7.61131e-08 0 9.1942e-09)
(7.39725e-08 0 1.1387e-08)
(7.13872e-08 0 1.33162e-08)
(6.83764e-08 0 1.50126e-08)
(6.49798e-08 0 1.64536e-08)
(6.12498e-08 0 1.75394e-08)
(5.72682e-08 0 1.82258e-08)
(5.31638e-08 0 1.84918e-08)
(4.91318e-08 0 1.83947e-08)
(4.54578e-08 0 1.81042e-08)
(4.27349e-08 0 1.79454e-08)
(3.74853e-08 0 2.43657e-08)
(5.17548e-09 0 1.31047e-07)
(-6.46146e-11 0 8.05403e-08)
(1.40514e-14 0 -1.42473e-13)
(5.31427e-16 0 -2.8486e-17)
(1.06497e-15 0 -5.74891e-18)
(1.07019e-15 0 1.67091e-17)
(1.07363e-15 0 3.85983e-17)
(1.0733e-15 0 5.96707e-17)
(1.06918e-15 0 7.97195e-17)
(1.06135e-15 0 9.85379e-17)
(1.05006e-15 0 1.16033e-16)
(1.0356e-15 0 1.3209e-16)
(1.01813e-15 0 1.46649e-16)
(9.97869e-16 0 1.59625e-16)
(9.75091e-16 0 1.71071e-16)
(9.50038e-16 0 1.80935e-16)
(9.22917e-16 0 1.8929e-16)
(8.93986e-16 0 1.96207e-16)
(8.63473e-16 0 2.01811e-16)
(8.31596e-16 0 2.06175e-16)
(7.98633e-16 0 2.0938e-16)
(7.64698e-16 0 2.11551e-16)
(7.29987e-16 0 2.12854e-16)
(6.94739e-16 0 2.13371e-16)
(6.59025e-16 0 2.13216e-16)
(6.23012e-16 0 2.12554e-16)
(5.86812e-16 0 2.11407e-16)
(5.50468e-16 0 2.09918e-16)
(5.14124e-16 0 2.08232e-16)
(4.77852e-16 0 2.06371e-16)
(4.41642e-16 0 2.04479e-16)
(4.05546e-16 0 2.02597e-16)
(3.69605e-16 0 2.00798e-16)
(3.33819e-16 0 1.99164e-16)
(2.98219e-16 0 1.97665e-16)
(2.62775e-16 0 1.96373e-16)
(2.27454e-16 0 1.95297e-16)
(1.92299e-16 0 1.9447e-16)
(1.57268e-16 0 1.9387e-16)
(1.2234e-16 0 1.93509e-16)
(8.74744e-17 0 1.93353e-16)
(5.26707e-17 0 1.93436e-16)
(1.765e-17 0 1.93726e-16)
(-3.22721e-08 0 3.72134e-07)
(-9.93454e-08 0 3.67633e-07)
(-1.63771e-07 0 3.58805e-07)
(-2.26239e-07 0 3.45827e-07)
(-2.85796e-07 0 3.28942e-07)
(-3.41728e-07 0 3.08522e-07)
(-3.93412e-07 0 2.84949e-07)
(-4.40305e-07 0 2.58712e-07)
(-4.81972e-07 0 2.30286e-07)
(-5.18081e-07 0 2.0019e-07)
(-5.48423e-07 0 1.68926e-07)
(-5.72808e-07 0 1.36973e-07)
(-5.91088e-07 0 1.047e-07)
(-6.03972e-07 0 7.22416e-08)
(-6.11714e-07 0 4.46193e-08)
(-6.13793e-07 0 1.60084e-08)
(-6.09303e-07 0 -1.52922e-08)
(-6.01335e-07 0 -4.19004e-08)
(-5.89706e-07 0 -6.30681e-08)
(-5.73279e-07 0 -8.23777e-08)
(-5.5244e-07 0 -1.08026e-07)
(-5.30292e-07 0 -1.22116e-07)
(-5.0529e-07 0 -1.35983e-07)
(-4.78237e-07 0 -1.48149e-07)
(-4.49762e-07 0 -1.5755e-07)
(-4.20452e-07 0 -1.64176e-07)
(-3.90439e-07 0 -1.68775e-07)
(-3.602e-07 0 -1.71344e-07)
(-3.30061e-07 0 -1.72022e-07)
(-3.00329e-07 0 -1.71019e-07)
(-2.7126e-07 0 -1.6853e-07)
(-2.43072e-07 0 -1.64731e-07)
(-2.1594e-07 0 -1.59855e-07)
(-1.90019e-07 0 -1.54051e-07)
(-1.6543e-07 0 -1.47543e-07)
(-1.42174e-07 0 -1.40475e-07)
(-1.20427e-07 0 -1.3296e-07)
(-1.00087e-07 0 -1.25367e-07)
(-8.11972e-08 0 -1.17586e-07)
(-6.36565e-08 0 -1.09749e-07)
(-4.7606e-08 0 -1.02078e-07)
(-3.2825e-08 0 -9.45677e-08)
(-1.92602e-08 0 -8.72508e-08)
(-6.9726e-09 0 -8.0272e-08)
(4.25458e-09 0 -7.359e-08)
(1.44134e-08 0 -6.72642e-08)
(2.36492e-08 0 -6.12571e-08)
(3.19721e-08 0 -5.56116e-08)
(3.94667e-08 0 -5.03251e-08)
(4.62296e-08 0 -4.53427e-08)
(5.22937e-08 0 -4.06669e-08)
(5.77109e-08 0 -3.62499e-08)
(6.25321e-08 0 -3.21002e-08)
(6.67849e-08 0 -2.80875e-08)
(7.05097e-08 0 -2.43403e-08)
(7.37363e-08 0 -2.07309e-08)
(7.64524e-08 0 -1.71707e-08)
(7.86916e-08 0 -1.3754e-08)
(8.04466e-08 0 -1.0434e-08)
(8.17e-08 0 -7.1485e-09)
(8.24795e-08 0 -3.88855e-09)
(8.27466e-08 0 -7.36725e-10)
(8.24746e-08 0 2.38047e-09)
(8.17053e-08 0 5.45623e-09)
(8.04082e-08 0 8.43067e-09)
(7.85949e-08 0 1.13425e-08)
(7.62624e-08 0 1.38921e-08)
(7.34466e-08 0 1.63238e-08)
(7.01429e-08 0 1.84904e-08)
(6.639e-08 0 2.03139e-08)
(6.22522e-08 0 2.17315e-08)
(5.7814e-08 0 2.2643e-08)
(5.32098e-08 0 2.29806e-08)
(4.87345e-08 0 2.26197e-08)
(4.49561e-08 0 2.1529e-08)
(4.20574e-08 0 2.01798e-08)
(2.15713e-08 0 4.87966e-08)
(3.28633e-09 0 1.61049e-07)
(-6.35539e-11 0 8.06682e-08)
(1.39305e-14 0 -1.68418e-13)
(5.43949e-16 0 -3.36663e-17)
(1.08986e-15 0 -6.1108e-18)
(1.0946e-15 0 2.10311e-17)
(1.09728e-15 0 4.74285e-17)
(1.09591e-15 0 7.28229e-17)
(1.09051e-15 0 9.69146e-17)
(1.08125e-15 0 1.19466e-16)
(1.06845e-15 0 1.40393e-16)
(1.05233e-15 0 1.59522e-16)
(1.03313e-15 0 1.76769e-16)
(1.01118e-15 0 1.92082e-16)
(9.86682e-16 0 2.05534e-16)
(9.59902e-16 0 2.17063e-16)
(9.31178e-16 0 2.26772e-16)
(9.00748e-16 0 2.34733e-16)
(8.68809e-16 0 2.41082e-16)
(8.35618e-16 0 2.45973e-16)
(8.01455e-16 0 2.49498e-16)
(7.66486e-16 0 2.51794e-16)
(7.30897e-16 0 2.53076e-16)
(6.94852e-16 0 2.53469e-16)
(6.58467e-16 0 2.53045e-16)
(6.21936e-16 0 2.52032e-16)
(5.85323e-16 0 2.50512e-16)
(5.487e-16 0 2.48651e-16)
(5.1217e-16 0 2.46562e-16)
(4.75784e-16 0 2.44339e-16)
(4.39584e-16 0 2.42126e-16)
(4.03581e-16 0 2.39924e-16)
(3.67765e-16 0 2.37897e-16)
(3.32144e-16 0 2.36036e-16)
(2.96741e-16 0 2.34444e-16)
(2.61534e-16 0 2.331e-16)
(2.26513e-16 0 2.32055e-16)
(1.91616e-16 0 2.3129e-16)
(1.56823e-16 0 2.30773e-16)
(1.22123e-16 0 2.30535e-16)
(8.7495e-17 0 2.30515e-16)
(5.29085e-17 0 2.30752e-16)
(1.78051e-17 0 2.31166e-16)
(-3.46132e-08 0 4.40936e-07)
(-1.0666e-07 0 4.35485e-07)
(-1.75742e-07 0 4.24822e-07)
(-2.42624e-07 0 4.09152e-07)
(-3.06256e-07 0 3.88785e-07)
(-3.6584e-07 0 3.64183e-07)
(-4.20696e-07 0 3.35817e-07)
(-4.70233e-07 0 3.04277e-07)
(-5.13976e-07 0 2.70144e-07)
(-5.51589e-07 0 2.34062e-07)
(-5.8288e-07 0 1.96601e-07)
(-6.07462e-07 0 1.58506e-07)
(-6.2553e-07 0 1.19746e-07)
(-6.38422e-07 0 8.17622e-08)
(-6.45003e-07 0 5.10942e-08)
(-6.44837e-07 0 1.20393e-08)
(-6.38563e-07 0 -2.27234e-08)
(-6.28848e-07 0 -5.33169e-08)
(-6.14826e-07 0 -7.48157e-08)
(-5.94857e-07 0 -1.07721e-07)
(-5.71876e-07 0 -1.28489e-07)
(-5.46878e-07 0 -1.47587e-07)
(-5.19167e-07 0 -1.6314e-07)
(-4.89251e-07 0 -1.77994e-07)
(-4.5836e-07 0 -1.87607e-07)
(-4.26483e-07 0 -1.95237e-07)
(-3.94164e-07 0 -2.00155e-07)
(-3.61786e-07 0 -2.02672e-07)
(-3.29715e-07 0 -2.02985e-07)
(-2.98256e-07 0 -2.01325e-07)
(-2.67674e-07 0 -1.97942e-07)
(-2.382e-07 0 -1.93049e-07)
(-2.10001e-07 0 -1.86921e-07)
(-1.83215e-07 0 -1.79744e-07)
(-1.57943e-07 0 -1.71783e-07)
(-1.34233e-07 0 -1.63196e-07)
(-1.12123e-07 0 -1.54135e-07)
(-9.16207e-08 0 -1.45055e-07)
(-7.26857e-08 0 -1.35765e-07)
(-5.52383e-08 0 -1.26476e-07)
(-3.93115e-08 0 -1.17378e-07)
(-2.48086e-08 0 -1.08566e-07)
(-1.15566e-08 0 -9.99964e-08)
(4.48109e-10 0 -9.18145e-08)
(1.12779e-08 0 -8.4061e-08)
(2.10663e-08 0 -7.67213e-08)
(2.98887e-08 0 -6.98094e-08)
(3.78835e-08 0 -6.32822e-08)
(4.49798e-08 0 -5.72343e-08)
(5.1404e-08 0 -5.15406e-08)
(5.7156e-08 0 -4.62091e-08)
(6.23054e-08 0 -4.11908e-08)
(6.68739e-08 0 -3.6484e-08)
(7.09125e-08 0 -3.18945e-08)
(7.44761e-08 0 -2.77047e-08)
(7.75539e-08 0 -2.35498e-08)
(8.01473e-08 0 -1.95546e-08)
(8.23107e-08 0 -1.56491e-08)
(8.40025e-08 0 -1.18564e-08)
(8.52142e-08 0 -8.04542e-09)
(8.59472e-08 0 -4.36224e-09)
(8.61644e-08 0 -6.6032e-10)
(8.58508e-08 0 3.0363e-09)
(8.49767e-08 0 6.62643e-09)
(8.35571e-08 0 1.01928e-08)
(8.1587e-08 0 1.34923e-08)
(7.90625e-08 0 1.6689e-08)
(7.5971e-08 0 1.96406e-08)
(7.23412e-08 0 2.22932e-08)
(6.82003e-08 0 2.45797e-08)
(6.35762e-08 0 2.64062e-08)
(5.85199e-08 0 2.76492e-08)
(5.31312e-08 0 2.81664e-08)
(4.76869e-08 0 2.75887e-08)
(4.31099e-08 0 2.52653e-08)
(4.24967e-08 0 1.9502e-08)
(8.83089e-09 0 9.25737e-08)
(1.5714e-09 0 1.32421e-07)
(-6.23595e-11 0 8.19264e-08)
(1.37169e-14 0 -1.94267e-13)
(5.58991e-16 0 -3.88568e-17)
(1.11967e-15 0 -6.17284e-18)
(1.12372e-15 0 2.59631e-17)
(1.12543e-15 0 5.71478e-17)
(1.12279e-15 0 8.70711e-17)
(1.11583e-15 0 1.15402e-16)
(1.10482e-15 0 1.41903e-16)
(1.09012e-15 0 1.66356e-16)
(1.07196e-15 0 1.88608e-16)
(1.05068e-15 0 2.08615e-16)
(1.02663e-15 0 2.26265e-16)
(1.00005e-15 0 2.4164e-16)
(9.71265e-16 0 2.54761e-16)
(9.40608e-16 0 2.65711e-16)
(9.08317e-16 0 2.74614e-16)
(8.74713e-16 0 2.81603e-16)
(8.40012e-16 0 2.86866e-16)
(8.04454e-16 0 2.90599e-16)
(7.68285e-16 0 2.92905e-16)
(7.31662e-16 0 2.94032e-16)
(6.94697e-16 0 2.94125e-16)
(6.57588e-16 0 2.9336e-16)
(6.20479e-16 0 2.91933e-16)
(5.83421e-16 0 2.89979e-16)
(5.46508e-16 0 2.87683e-16)
(5.09822e-16 0 2.8516e-16)
(4.73406e-16 0 2.82586e-16)
(4.37227e-16 0 2.80042e-16)
(4.01327e-16 0 2.77592e-16)
(3.65707e-16 0 2.75389e-16)
(3.30366e-16 0 2.73445e-16)
(2.95272e-16 0 2.71853e-16)
(2.60376e-16 0 2.7056e-16)
(2.25645e-16 0 2.6963e-16)
(1.91017e-16 0 2.6902e-16)
(1.56513e-16 0 2.6872e-16)
(1.22082e-16 0 2.68679e-16)
(8.77018e-17 0 2.68906e-16)
(5.33221e-17 0 2.6932e-16)
(1.80532e-17 0 2.69899e-16)
(-3.74143e-08 0 5.15144e-07)
(-1.15431e-07 0 5.08626e-07)
(-1.90095e-07 0 4.95888e-07)
(-2.6226e-07 0 4.77184e-07)
(-3.30756e-07 0 4.52907e-07)
(-3.94683e-07 0 4.23607e-07)
(-4.53284e-07 0 3.89895e-07)
(-5.05929e-07 0 3.52436e-07)
(-5.52089e-07 0 3.11956e-07)
(-5.91466e-07 0 2.6918e-07)
(-6.23678e-07 0 2.24983e-07)
(-6.48301e-07 0 1.80233e-07)
(-6.67093e-07 0 1.32861e-07)
(-6.79024e-07 0 9.31693e-08)
(-6.83858e-07 0 5.28458e-08)
(-6.80815e-07 0 6.98265e-09)
(-6.73629e-07 0 -3.2521e-08)
(-6.61158e-07 0 -6.6324e-08)
(-6.4319e-07 0 -9.13564e-08)
(-6.19637e-07 0 -1.32859e-07)
(-5.94654e-07 0 -1.53437e-07)
(-5.65849e-07 0 -1.75765e-07)
(-5.34776e-07 0 -1.94044e-07)
(-5.01741e-07 0 -2.09826e-07)
(-4.67826e-07 0 -2.20709e-07)
(-4.32993e-07 0 -2.28885e-07)
(-3.97957e-07 0 -2.33951e-07)
(-3.63085e-07 0 -2.36203e-07)
(-3.28757e-07 0 -2.35918e-07)
(-2.95306e-07 0 -2.3337e-07)
(-2.62998e-07 0 -2.28846e-07)
(-2.32056e-07 0 -2.2262e-07)
(-2.02647e-07 0 -2.15002e-07)
(-1.74905e-07 0 -2.0624e-07)
(-1.48895e-07 0 -1.9662e-07)
(-1.24724e-07 0 -1.86266e-07)
(-1.02196e-07 0 -1.75638e-07)
(-8.15663e-08 0 -1.64785e-07)
(-6.26501e-08 0 -1.53895e-07)
(-4.53949e-08 0 -1.4308e-07)
(-2.9587e-08 0 -1.32423e-07)
(-1.54358e-08 0 -1.22225e-07)
(-2.61522e-09 0 -1.12392e-07)
(8.99771e-09 0 -1.02984e-07)
(1.93906e-08 0 -9.40865e-08)
(2.8699e-08 0 -8.57431e-08)
(3.70514e-08 0 -7.79284e-08)
(4.45398e-08 0 -7.05897e-08)
(5.12918e-08 0 -6.37078e-08)
(5.72449e-08 0 -5.73916e-08)
(6.26398e-08 0 -5.14315e-08)
(6.74492e-08 0 -4.5857e-08)
(7.17248e-08 0 -4.05529e-08)
(7.55377e-08 0 -3.55757e-08)
(7.89175e-08 0 -3.09102e-08)
(8.18377e-08 0 -2.62323e-08)
(8.43336e-08 0 -2.18251e-08)
(8.64181e-08 0 -1.74936e-08)
(8.80567e-08 0 -1.32343e-08)
(8.92392e-08 0 -8.93911e-09)
(8.99451e-08 0 -4.74983e-09)
(9.01114e-08 0 -5.14451e-10)
(8.97388e-08 0 3.71967e-09)
(8.8804e-08 0 7.91396e-09)
(8.72744e-08 0 1.1975e-08)