0.010101 	7.18649e-09 	1.50583e-13 	2.1152e-11
0.020202 	8.61708e-10 	-1.94223e-13 	1.24184e-11
