0 	306.926
0.010101 	313.745
0.020202 	313.776
