0 	-12.0898
0.010101 	-7.21284
0.020202 	-8.82887
0.030303 	-9.56145
0.040404 	-9.60162
0.0505051 	-9.60401
0.0606061 	-9.60416
0.0707071 	-9.60417
0.0808081 	-9.60417
0.0909091 	-9.60417
