0 	6.57357e-27 	0 	2.39594e-11
0.010101 	2.20405e-26 	0 	1.36433e-11
