/*--------------------------------*- C++ -*----------------------------------*\
  =========                 |
  \\      /  F ield         | OpenFOAM: The Open Source CFD Toolbox
   \\    /   O peration     | Website:  https://openfoam.org
    \\  /    A nd           | Version:  6
     \\/     M anipulation  |
\*---------------------------------------------------------------------------*/
FoamFile
{
    version     2.0;
    format      ascii;
    class       volScalarField;
    location    "4100";
    object      T;
}
// * * * * * * * * * * * * * * * * * * * * * * * * * * * * * * * * * * * * * //

dimensions      [0 0 0 1 0 0 0];

internalField   nonuniform List<scalar> 
4800
(
552.485
552.356
552.227
552.099
551.971
551.845
551.722
551.601
551.486
551.375
551.271
551.173
551.082
550.998
550.92
550.849
550.784
550.724
550.669
550.619
550.572
550.529
550.49
550.454
550.42
550.388
550.357
550.328
550.299
550.271
550.243
550.215
550.187
550.158
550.128
550.097
550.065
550.032
549.998
549.962
549.924
549.884
549.841
549.797
549.749
549.699
549.646
549.588
549.527
549.461
549.39
549.314
549.233
549.147
549.056
548.962
548.864
548.763
548.659
548.554
548.448
548.34
548.232
548.123
548.012
547.901
547.788
547.674
547.558
547.44
547.317
547.191
547.061
546.925
546.784
546.637
546.483
546.324
546.159
545.989
545.815
545.639
545.463
545.291
545.125
544.966
544.813
544.666
544.522
544.383
544.246
544.113
543.981
543.85
543.722
543.594
543.467
543.34
543.214
543.089
542.964
542.839
542.715
542.59
542.466
542.342
542.218
542.094
541.97
541.846
541.723
541.599
541.475
541.352
541.229
541.105
540.982
540.858
540.735
540.612
552.485
552.354
552.224
552.094
551.965
551.838
551.714
551.595
551.48
551.37
551.267
551.17
551.08
550.997
550.92
550.85
550.785
550.725
550.671
550.621
550.575
550.533
550.495
550.459
550.426
550.394
550.364
550.336
550.307
550.28
550.252
550.224
550.196
550.167
550.138
550.107
550.076
550.043
550.008
549.972
549.934
549.894
549.852
549.807
549.759
549.708
549.653
549.595
549.533
549.466
549.395
549.318
549.237
549.15
549.059
548.964
548.865
548.763
548.66
548.554
548.447
548.339
548.23
548.121
548.01
547.899
547.786
547.672
547.556
547.437
547.315
547.189
547.058
546.922
546.78
546.633
546.479
546.318
546.152
545.982
545.807
545.631
545.455
545.283
545.118
544.96
544.807
544.66
544.518
544.379
544.243
544.11
543.978
543.849
543.72
543.592
543.465
543.339
543.214
543.088
542.963
542.839
542.714
542.59
542.466
542.341
542.218
542.094
541.97
541.846
541.723
541.599
541.475
541.352
541.228
541.105
540.982
540.858
540.735
540.612
552.484
552.35
552.218
552.086
551.957
551.829
551.706
551.587
551.472
551.364
551.263
551.167
551.079
550.997
550.921
550.852
550.788
550.73
550.677
550.628
550.584
550.543
550.506
550.471
550.439
550.408
550.379
550.351
550.324
550.297
550.27
550.243
550.215
550.187
550.158
550.128
550.096
550.064
550.029
549.993
549.955
549.915
549.872
549.826
549.777
549.725
549.669
549.609
549.545
549.477
549.404
549.327
549.244
549.157
549.064
548.968
548.868
548.766
548.661
548.554
548.447
548.338
548.229
548.119
548.008
547.896
547.783
547.669
547.552
547.433
547.311
547.184
547.053
546.917
546.774
546.625
546.47
546.309
546.141
545.969
545.794
545.617
545.44
545.268
545.103
544.946
544.795
544.65
544.509
544.372
544.237
544.105
543.974
543.845
543.717
543.59
543.463
543.337
543.212
543.087
542.962
542.837
542.713
542.589
542.465
542.341
542.217
542.093
541.97
541.846
541.722
541.599
541.475
541.352
541.228
541.105
540.982
540.858
540.735
540.612
552.482
552.347
552.212
552.079
551.948
551.821
551.697
551.579
551.466
551.36
551.26
551.167
551.08
551
550.926
550.858
550.796
550.74
550.688
550.641
550.598
550.559
550.523
550.49
550.458
550.429
550.401
550.374
550.347
550.321
550.295
550.269
550.242
550.215
550.186
550.157
550.126
550.094
550.06
550.024
549.985
549.944
549.9
549.853
549.803
549.749
549.69
549.628
549.562
549.491
549.416
549.337
549.253
549.164
549.071
548.974
548.873
548.77
548.664
548.556
548.448
548.339
548.229
548.118
548.007
547.894
547.781
547.665
547.548
547.428
547.305
547.178
547.046
546.908
546.765
546.615
546.459
546.296
546.126
545.952
545.774
545.595
545.418
545.244
545.08
544.925
544.777
544.635
544.497
544.361
544.229
544.098
543.968
543.84
543.712
543.586
543.46
543.334
543.209
543.085
542.96
542.836
542.712
542.588
542.464
542.34
542.216
542.093
541.969
541.845
541.722
541.598
541.475
541.352
541.228
541.105
540.981
540.858
540.735
540.612
552.481
552.343
552.207
552.072
551.941
551.814
551.691
551.574
551.463
551.358
551.26
551.169
551.084
551.006
550.934
550.869
550.809
550.754
550.705
550.659
550.618
550.581
550.546
550.514
550.484
550.456
550.429
550.403
550.378
550.353
550.328
550.302
550.277
550.25
550.222
550.193
550.163
550.131
550.097
550.062
550.023
549.981
549.936
549.888
549.835
549.779
549.718
549.653
549.583
549.509
549.431
549.349
549.263
549.173
549.078
548.98
548.879
548.775
548.668
548.56
548.451
548.341
548.23
548.118
548.006
547.893
547.778
547.661
547.542
547.421
547.296
547.168
547.035
546.896
546.752
546.601
546.444
546.279
546.107
545.93
545.749
545.567
545.386
545.21
545.047
544.896
544.753
544.615
544.48
544.348
544.217
544.088
543.96
543.833
543.707
543.581
543.456
543.331
543.206
543.082
542.958
542.834
542.71
542.586
542.463
542.339
542.215
542.092
541.968
541.845
541.721
541.598
541.475
541.351
541.228
541.105
540.981
540.858
540.735
540.612
552.48
552.341
552.203
552.068
551.937
551.81
551.688
551.572
551.463
551.36
551.264
551.175
551.092
551.017
550.947
550.884
550.827
550.774
550.726
550.683
550.644
550.608
550.575
550.544
550.516
550.489
550.463
550.439
550.414
550.39
550.366
550.342
550.317
550.291
550.264
550.236
550.207
550.175
550.142
550.106
550.067
550.024
549.978
549.928
549.874
549.815
549.751
549.683
549.609
549.532
549.45
549.364
549.275
549.183
549.087
548.988
548.886
548.781
548.674
548.565
548.455
548.344
548.232
548.12
548.006
547.891
547.775
547.656
547.535
547.412
547.285
547.155
547.02
546.88
546.735
546.583
546.424
546.258
546.084
545.904
545.718
545.53
545.342
545.161
545.003
544.859
544.724
544.592
544.461
544.333
544.205
544.078
543.951
543.825
543.7
543.575
543.451
543.327
543.203
543.079
542.955
542.831
542.708
542.584
542.461
542.338
542.214
542.091
541.967
541.844
541.721
541.597
541.474
541.351
541.228
541.104
540.981
540.858
540.735
540.612
552.48
552.34
552.202
552.066
551.935
551.809
551.689
551.574
551.467
551.366
551.272
551.185
551.105
551.032
550.965
550.904
550.849
550.799
550.753
550.712
550.674
550.64
550.608
550.579
550.552
550.527
550.502
550.479
550.455
550.432
550.409
550.386
550.362
550.337
550.311
550.284
550.255
550.224
550.191
550.155
550.115
550.072
550.026
549.974
549.918
549.857
549.79
549.719
549.642
549.56
549.475
549.386
549.293
549.198
549.099
548.998
548.895
548.789
548.682
548.572
548.462
548.35
548.237
548.123
548.008
547.891
547.772
547.651
547.527
547.401
547.271
547.138
547.001
546.86
546.713
546.56
546.4
546.233
546.058
545.874
545.683
545.484
545.283
545.09
544.943
544.814
544.69
544.566
544.441
544.316
544.191
544.066
543.941
543.817
543.693
543.569
543.445
543.322
543.198
543.075
542.952
542.829
542.705
542.582
542.459
542.336
542.213
542.09
541.966
541.843
541.72
541.597
541.474
541.35
541.227
541.104
540.981
540.858
540.735
540.612
552.479
552.339
552.201
552.067
551.936
551.811
551.692
551.58
551.474
551.376
551.284
551.2
551.123
551.052
550.988
550.929
550.876
550.828
550.784
550.744
550.708
550.676
550.646
550.618
550.593
550.568
550.545
550.522
550.5
550.478
550.456
550.433
550.41
550.386
550.361
550.335
550.307
550.276
550.243
550.208
550.168
550.124
550.077
550.024
549.967
549.903
549.834
549.76
549.68
549.595
549.505
549.412
549.316
549.217
549.116
549.013
548.908
548.802
548.693
548.583
548.472
548.359
548.244
548.129
548.011
547.891
547.77
547.645
547.518
547.389
547.256
547.119
546.98
546.836
546.688
546.534
546.373
546.206
546.029
545.842
545.644
545.433
545.206
544.971
544.865
544.765
544.656
544.54
544.421
544.3
544.177
544.054
543.931
543.808
543.685
543.562
543.439
543.316
543.194
543.071
542.948
542.826
542.703
542.58
542.457
542.334
542.211
542.088
541.965
541.842
541.719
541.596
541.473
541.35
541.227
541.104
540.981
540.858
540.735
540.612
552.479
552.339
552.202
552.069
551.94
551.817
551.699
551.588
551.485
551.389
551.3
551.219
551.144
551.076
551.014
550.958
550.907
550.86
550.819
550.781
550.746
550.715
550.687
550.66
550.636
550.613
550.59
550.568
550.547
550.526
550.504
550.483
550.461
550.438
550.414
550.388
550.36
550.331
550.298
550.263
550.223
550.179
550.131
550.078
550.019
549.954
549.883
549.806
549.723
549.635
549.542
549.446
549.346
549.244
549.14
549.035
548.927
548.819
548.71
548.599
548.486
548.371
548.255
548.136
548.016
547.893
547.768
547.64
547.509
547.375
547.238
547.099
546.956
546.81
546.66
546.505
546.345
546.177
546
545.812
545.609
545.386
545.118
544.722
544.782
544.724
544.628
544.519
544.403
544.284
544.164
544.042
543.921
543.799
543.677
543.555
543.433
543.311
543.189
543.067
542.945
542.822
542.7
542.577
542.455
542.332
542.21
542.087
541.964
541.841
541.718
541.595
541.472
541.349
541.226
541.103
540.98
540.857
540.734
540.611
552.48
552.341
552.204
552.072
551.945
551.824
551.709
551.601
551.5
551.406
551.32
551.241
551.169
551.103
551.044
550.989
550.94
550.896
550.856
550.82
550.787
550.757
550.73
550.704
550.681
550.658
550.637
550.616
550.595
550.575
550.554
550.534
550.512
550.49
550.467
550.442
550.415
550.386
550.354
550.319
550.279
550.236
550.188
550.134
550.074
550.008
549.935
549.857
549.772
549.681
549.586
549.486
549.384
549.278
549.171
549.063
548.954
548.844
548.733
548.62
548.505
548.388
548.268
548.147
548.022
547.896
547.766
547.634
547.499
547.361
547.221
547.078
546.933
546.785
546.633
546.477
546.316
546.148
545.972
545.786
545.587
545.374
545.143
544.915
544.816
544.72
544.615
544.504
544.388
544.27
544.151
544.031
543.911
543.79
543.669
543.548
543.427
543.305
543.184
543.062
542.941
542.819
542.697
542.575
542.453
542.33
542.208
542.085
541.963
541.84
541.717
541.594
541.472
541.349
541.226
541.103
540.98
540.857
540.734
540.611
552.481
552.344
552.21
552.079
551.954
551.834
551.722
551.616
551.517
551.426
551.343
551.266
551.196
551.133
551.076
551.024
550.976
550.934
550.895
550.86
550.829
550.8
550.774
550.749
550.726
550.705
550.684
550.663
550.643
550.624
550.604
550.584
550.564
550.543
550.52
550.496
550.47
550.441
550.41
550.375
550.336
550.293
550.245
550.191
550.131
550.064
549.991
549.911
549.825
549.733
549.635
549.534
549.429
549.321
549.211
549.099
548.988
548.876
548.762
548.646
548.528
548.408
548.285
548.16
548.031
547.9
547.767
547.63
547.491
547.349
547.206
547.06
546.911
546.761
546.607
546.45
546.289
546.122
545.948
545.766
545.574
545.375
545.174
544.988
544.847
544.725
544.609
544.492
544.376
544.258
544.14
544.021
543.901
543.782
543.661
543.541
543.421
543.3
543.179
543.058
542.937
542.815
542.694
542.572
542.45
542.328
542.206
542.084
541.961
541.839
541.716
541.594
541.471
541.348
541.225
541.103
540.98
540.857
540.734
540.611
552.483
552.349
552.217
552.088
551.965
551.848
551.737
551.633
551.537
551.449
551.368
551.294
551.226
551.165
551.11
551.059
551.014
550.973
550.935
550.902
550.871
550.843
550.818
550.794
550.772
550.751
550.73
550.71
550.691
550.672
550.653
550.634
550.614
550.594
550.572
550.549
550.524
550.496
550.466
550.432
550.394
550.351
550.303
550.249
550.189
550.122
550.049
549.969
549.882
549.789
549.691
549.588
549.481
549.371
549.259
549.145
549.03
548.915
548.798
548.678
548.557
548.433
548.306
548.176
548.043
547.908
547.77
547.629
547.486
547.341
547.193
547.044
546.893
546.74
546.585
546.426
546.265
546.098
545.926
545.748
545.564
545.375
545.188
545.013
544.861
544.726
544.601
544.482
544.364
544.247
544.129
544.011
543.893
543.774
543.654
543.535
543.415
543.295
543.174
543.054
542.933
542.812
542.691
542.569
542.448
542.326
542.204
542.082
541.96
541.838
541.715
541.593
541.47
541.348
541.225
541.102
540.98
540.857
540.734
540.611
552.484
552.353
552.224
552.098
551.977
551.862
551.754
551.653
551.559
551.473
551.394
551.323
551.257
551.198
551.144
551.095
551.051
551.011
550.975
550.942
550.913
550.886
550.861
550.837
550.816
550.795
550.775
550.756
550.737
550.719
550.701
550.682
550.663
550.644
550.623
550.601
550.576
550.55
550.52
550.487
550.45
550.408
550.361
550.308
550.249
550.183
550.11
550.03
549.943
549.851
549.752
549.649
549.541
549.43
549.315
549.199
549.081
548.962
548.84
548.717
548.59
548.461
548.33
548.195
548.058
547.918
547.776
547.632
547.485
547.336
547.185
547.033
546.88
546.724
546.567
546.407
546.244
546.078
545.908
545.733
545.552
545.37
545.188
545.014
544.856
544.716
544.589
544.469
544.352
544.236
544.119
544.002
543.885
543.766
543.648
543.529
543.409
543.29
543.17
543.05
542.929
542.809
542.688
542.567
542.446
542.324
542.202
542.08
541.958
541.836
541.714
541.592
541.469
541.347
541.224
541.102
540.979
540.857
540.734
540.611
552.485
552.357
552.23
552.107
551.989
551.876
551.771
551.673
551.582
551.498
551.421
551.351
551.288
551.23
551.178
551.13
551.087
551.048
551.013
550.981
550.952
550.926
550.901
550.878
550.857
550.837
550.818
550.799
550.781
550.764
550.746
550.729
550.711
550.692
550.672
550.651
550.628
550.603
550.575
550.543
550.507
550.467
550.421
550.369
550.311
550.246
550.174
550.096
550.01
549.918
549.82
549.717
549.609
549.496
549.38
549.261
549.139
549.015
548.889
548.76
548.628
548.494
548.358
548.219
548.077
547.934
547.788
547.64
547.489
547.337
547.184
547.029
546.872
546.714
546.555
546.393
546.229
546.063
545.893
545.718
545.539
545.357
545.175
544.997
544.831
544.692
544.569
544.453
544.339
544.225
544.11
543.994
543.877
543.76
543.642
543.523
543.404
543.285
543.166
543.046
542.926
542.806
542.685
542.564
542.443
542.322
542.201
542.079
541.957
541.835
541.713
541.591
541.469
541.346
541.224
541.101
540.979
540.856
540.734
540.611
552.487
552.36
552.237
552.116
552.001
551.891
551.788
551.692
551.603
551.522
551.447
551.379
551.317
551.26
551.209
551.162
551.12
551.082
551.048
551.016
550.988
550.962
550.938
550.916
550.896
550.876
550.858
550.84
550.823
550.806
550.789
550.773
550.756
550.739
550.721
550.701
550.68
550.656
550.63
550.6
550.566
550.528
550.484
550.434
550.378
550.315
550.245
550.167
550.084
549.993
549.896
549.793
549.684
549.571
549.452
549.33
549.204
549.075
548.943
548.808
548.671
548.532
548.39
548.247
548.101
547.953
547.804
547.652
547.499
547.345
547.188
547.03
546.871
546.711
546.549
546.385
546.22
546.051
545.879
545.703
545.523
545.338
545.149
544.957
544.778
544.649
544.54
544.433
544.325
544.214
544.102
543.987
543.871
543.754
543.637
543.519
543.4
543.281
543.162
543.043
542.923
542.803
542.682
542.562
542.441
542.32
542.199
542.077
541.956
541.834
541.712
541.59
541.468
541.346
541.223
541.101
540.979
540.856
540.734
540.611
552.488
552.364
552.243
552.125
552.012
551.905
551.804
551.71
551.623
551.543
551.469
551.402
551.341
551.286
551.236
551.19
551.149
551.111
551.077
551.047
551.019
550.994
550.971
550.95
550.93
550.911
550.894
550.877
550.861
550.845
550.83
550.815
550.801
550.785
550.769
550.752
550.733
550.712
550.688
550.661
550.63
550.594
550.553
550.506
550.453
550.392
550.324
550.249
550.168
550.078
549.981
549.878
549.769
549.655
549.534
549.408
549.276
549.141
549.002
548.861
548.718
548.573
548.427
548.278
548.128
547.977
547.824
547.669
547.513
547.356
547.197
547.037
546.876
546.713
546.549
546.383
546.215
546.044
545.87
545.693
545.509
545.316
545.111
544.892
544.671
544.586
544.505
544.413
544.312
544.205
544.094
543.981
543.866
543.75
543.632
543.515
543.397
543.278
543.159
543.04
542.92
542.8
542.68
542.56
542.439
542.318
542.197
542.076
541.954
541.833
541.711
541.589
541.467
541.345
541.223
541.101
540.978
540.856
540.734
540.611
552.489
552.367
552.248
552.133
552.022
551.916
551.817
551.724
551.639
551.56
551.487
551.421
551.36
551.306
551.256
551.211
551.17
551.134
551.101
551.071
551.044
551.02
550.998
550.978
550.959
550.942
550.926
550.911
550.897
550.883
550.87
550.858
550.845
550.832
550.819
550.805
550.789
550.772
550.752
550.728
550.701
550.67
550.632
550.589
550.539
550.481
550.417
550.345
550.265
550.177
550.08
549.977
549.868
549.752
549.629
549.497
549.358
549.214
549.068
548.92
548.771
548.62
548.467
548.314
548.159
548.003
547.846
547.688
547.529
547.369
547.208
547.046
546.882
546.718
546.552
546.384
546.214
546.042
545.865
545.685
545.497
545.297
545.076
544.81
544.426
544.515
544.478
544.399
544.303
544.199
544.089
543.976
543.862
543.746
543.629
543.512
543.394
543.275
543.156
543.037
542.918
542.798
542.678
542.558
542.437
542.316
542.196
542.074
541.953
541.832
541.71
541.588
541.466
541.344
541.222
541.1
540.978
540.856
540.733
540.611
552.489
552.369
552.252
552.137
552.028
551.923
551.825
551.733
551.648
551.569
551.497
551.431
551.371
551.316
551.267
551.223
551.183
551.147
551.115
551.087
551.061
551.039
551.018
551
550.984
550.969
550.955
550.942
550.931
550.92
550.91
550.901
550.892
550.883
550.874
550.864
550.852
550.84
550.825
550.806
550.784
550.758
550.726
550.687
550.641
550.588
550.527
550.458
550.381
550.294
550.197
550.094
549.984
549.867
549.739
549.599
549.45
549.297
549.142
548.986
548.829
548.671
548.512
548.352
548.192
548.031
547.869
547.707
547.545
547.381
547.218
547.053
546.887
546.721
546.554
546.385
546.214
546.039
545.861
545.679
545.489
545.289
545.078
544.856
544.648
544.567
544.489
544.399
544.3
544.195
544.086
543.973
543.859
543.743
543.627
543.51
543.392
543.273
543.154
543.035
542.916
542.796
542.676
542.556
542.436
542.315
542.194
542.073
541.952
541.831
541.709
541.587
541.466
541.344
541.222
541.1
540.978
540.856
540.733
540.611
552.49
552.37
552.253
552.139
552.029
551.924
551.826
551.733
551.648
551.569
551.496
551.43
551.37
551.316
551.267
551.223
551.185
551.15
551.12
551.094
551.07
551.05
551.032
551.017
551.003
550.991
550.981
550.972
550.965
550.958
550.953
550.948
550.944
550.94
550.936
550.931
550.926
550.919
550.91
550.899
550.883
550.862
550.836
550.804
550.763
550.715
550.659
550.593
550.519
550.433
550.338
550.234
550.124
550.004
549.87
549.719
549.556
549.391
549.226
549.06
548.894
548.728
548.562
548.395
548.229
548.062
547.895
547.727
547.56
547.392
547.224
547.056
546.887
546.718
546.548
546.378
546.206
546.032
545.853
545.67
545.482
545.288
545.092
544.901
544.734
544.611
544.506
544.404
544.301
544.193
544.083
543.971
543.857
543.742
543.625
543.508
543.39
543.272
543.153
543.034
542.914
542.795
542.675
542.555
542.434
542.314
542.193
542.072
541.951
541.83
541.708
541.587
541.465
541.343
541.221
541.099
540.977
540.855
540.733
540.611
552.489
552.368
552.25
552.134
552.023
551.917
551.817
551.723
551.636
551.555
551.482
551.415
551.355
551.301
551.253
551.211
551.174
551.142
551.114
551.09
551.07
551.053
551.04
551.028
551.019
551.012
551.007
551.003
551.001
551
551
551.001
551.003
551.006
551.009
551.011
551.013
551.014
551.012
551.008
550.999
550.986
550.967
550.941
550.908
550.866
550.814
550.753
550.682
550.6
550.505
550.402
550.29
550.166
550.024
549.859
549.68
549.501
549.323
549.146
548.97
548.794
548.619
548.444
548.27
548.097
547.923
547.749
547.576
547.402
547.227
547.053
546.878
546.705
546.532
546.359
546.186
546.012
545.835
545.654
545.47
545.284
545.099
544.923
544.764
544.63
544.514
544.406
544.3
544.192
544.082
543.97
543.856
543.741
543.625
543.507
543.39
543.271
543.152
543.033
542.913
542.793
542.673
542.553
542.433
542.312
542.192
542.071
541.95
541.829
541.707
541.586
541.464
541.343
541.221
541.099
540.977
540.855
540.733
540.611
552.487
552.363
552.24
552.121
552.006
551.896
551.793
551.696
551.607
551.524
551.449
551.382
551.322
551.269
551.223
551.183
551.149
551.12
551.097
551.078
551.063
551.052
551.044
551.038
551.036
551.035
551.036
551.04
551.044
551.05
551.058
551.066
551.076
551.086
551.097
551.107
551.117
551.126
551.132
551.135
551.135
551.129
551.118
551.099
551.073
551.038
550.992
550.936
550.871
550.792
550.7
550.596
550.482
550.352
550.2
550.023
549.826
549.629
549.437
549.247
549.059
548.872
548.687
548.503
548.321
548.141
547.96
547.779
547.598
547.415
547.232
547.048
546.864
546.681
546.501
546.324
546.149
545.975
545.801
545.625
545.447
545.268
545.091
544.919
544.758
544.621
544.507
544.401
544.296
544.189
544.079
543.968
543.855
543.74
543.624
543.507
543.389
543.271
543.152
543.032
542.913
542.793
542.673
542.552
542.432
542.311
542.191
542.07
541.949
541.828
541.707
541.585
541.464
541.342
541.22
541.099
540.977
540.855
540.733
540.611
552.484
552.351
552.221
552.095
551.973
551.858
551.749
551.648
551.555
551.47
551.394
551.327
551.268
551.217
551.174
551.139
551.11
551.087
551.07
551.059
551.052
551.049
551.049
551.052
551.058
551.066
551.076
551.087
551.1
551.115
551.131
551.147
551.165
551.184
551.203
551.221
551.239
551.256
551.27
551.28
551.287
551.288
551.284
551.272
551.253
551.225
551.186
551.137
551.077
551.003
550.914
550.81
550.691
550.555
550.395
550.207
549.992
549.777
549.569
549.365
549.164
548.965
548.77
548.579
548.39
548.202
548.015
547.826
547.635
547.442
547.246
547.049
546.851
546.655
546.463
546.277
546.097
545.921
545.749
545.578
545.407
545.236
545.064
544.891
544.718
544.579
544.484
544.388
544.288
544.184
544.076
543.966
543.854
543.74
543.624
543.507
543.39
543.271
543.152
543.032
542.912
542.792
542.672
542.552
542.431
542.311
542.19
542.069
541.948
541.827
541.706
541.585
541.463
541.342
541.22
541.098
540.977
540.855
540.733
540.611
552.477
552.332
552.19
552.053
551.921
551.796
551.68
551.573
551.476
551.389
551.312
551.246
551.19
551.144
551.108
551.079
551.059
551.046
551.039
551.039
551.043
551.051
551.063
551.078
551.095
551.114
551.134
551.155
551.178
551.202
551.227
551.252
551.278
551.304
551.331
551.356
551.38
551.402
551.422
551.437
551.448
551.455
551.455
551.448
551.435
551.413
551.381
551.339
551.285
551.218
551.133
551.029
550.906
550.764
550.6
550.404
550.175
549.944
549.72
549.501
549.287
549.078
548.875
548.678
548.485
548.294
548.102
547.906
547.705
547.497
547.285
547.068
546.851
546.636
546.427
546.227
546.036
545.856
545.683
545.516
545.351
545.187
545.021
544.843
544.633
544.479
544.451
544.374
544.28
544.179
544.073
543.964
543.853
543.739
543.624
543.508
543.39
543.271
543.152
543.032
542.912
542.792
542.672
542.551
542.431
542.31
542.189
542.068
541.948
541.827
541.705
541.584
541.463
541.341
541.22
541.098
540.976
540.855
540.733
540.611
552.467
552.303
552.143
551.989
551.842
551.706
551.58
551.466
551.365
551.277
551.202
551.14
551.09
551.052
551.025
551.008
551.001
551.002
551.01
551.024
551.044
551.069
551.096
551.125
551.156
551.188
551.221
551.254
551.287
551.32
551.353
551.387
551.419
551.451
551.482
551.512
551.538
551.562
551.582
551.597
551.608
551.613
551.614
551.608
551.597
551.579
551.552
551.516
551.469
551.409
551.33
551.229
551.104
550.96
550.795
550.596
550.361
550.118
549.882
549.651
549.427
549.212
549.006
548.809
548.62
548.431
548.238
548.037
547.824
547.6
547.366
547.124
546.88
546.639
546.406
546.186
545.98
545.789
545.611
545.444
545.283
545.128
544.973
544.817
544.662
544.54
544.456
544.368
544.274
544.173
544.069
543.962
543.851
543.739
543.624
543.508
543.391
543.272
543.153
543.033
542.913
542.792
542.671
542.551
542.43
542.309
542.189
542.068
541.947
541.826
541.705
541.584
541.462
541.341
541.219
541.098
540.976
540.854
540.733
540.611
552.454
552.263
552.078
551.901
551.736
551.584
551.448
551.327
551.224
551.137
551.065
551.01
550.969
550.943
550.93
550.929
550.939
550.959
550.987
551.022
551.063
551.107
551.154
551.202
551.25
551.298
551.344
551.39
551.434
551.477
551.518
551.557
551.593
551.627
551.658
551.686
551.709
551.727
551.739
551.747
551.749
551.746
551.738
551.727
551.712
551.691
551.665
551.632
551.591
551.539
551.469
551.375
551.256
551.115
550.951
550.756
550.526
550.283
550.041
549.804
549.577
549.362
549.162
548.979
548.804
548.629
548.443
548.24
548.017
547.772
547.509
547.233
546.953
546.677
546.414
546.169
545.942
545.734
545.546
545.374
545.214
545.065
544.922
544.786
544.66
544.55
544.457
544.364
544.268
544.168
544.065
543.959
543.85
543.738
543.624
543.509
543.391
543.273
543.153
543.033
542.913
542.792
542.671
542.551
542.43
542.309
542.188
542.067
541.946
541.825
541.704
541.583
541.462
541.341
541.219
541.098
540.976
540.854
540.733
540.611
552.437
552.215
551.999
551.796
551.61
551.443
551.296
551.171
551.066
550.982
550.916
550.869
550.839
550.825
550.828
550.846
550.876
550.919
550.971
551.031
551.097
551.166
551.236
551.307
551.376
551.442
551.505
551.565
551.621
551.674
551.721
551.763
551.799
551.829
551.854
551.871
551.882
551.886
551.881
551.87
551.852
551.83
551.804
551.777
551.75
551.72
551.688
551.652
551.615
551.574
551.517
551.437
551.329
551.196
551.038
550.856
550.645
550.413
550.179
549.947
549.724
549.52
549.342
549.191
549.052
548.907
548.736
548.537
548.304
548.032
547.729
547.409
547.081
546.762
546.464
546.188
545.935
545.707
545.501
545.318
545.154
545.005
544.871
544.75
544.64
544.543
544.453
544.36
544.263
544.163
544.061
543.955
543.847
543.737
543.624
543.509
543.392
543.274
543.154
543.034
542.913
542.793
542.672
542.551
542.43
542.309
542.188
542.067
541.946
541.825
541.704
541.583
541.462
541.34
541.219
541.097
540.976
540.854
540.733
540.611
552.424
552.174
551.931
551.704
551.498
551.318
551.165
551.037
550.933
550.85
550.786
550.742
550.716
550.71
550.723
550.755
550.805
550.871
550.948
551.034
551.127
551.223
551.321
551.418
551.511
551.6
551.683
551.761
551.832
551.896
551.949
551.992
552.024
552.045
552.055
552.054
552.043
552.022
551.99
551.949
551.901
551.848
551.794
551.741
551.69
551.642
551.591
551.543
551.511
551.49
551.455
551.395
551.305
551.187
551.042
550.882
550.699
550.495
550.288
550.074
549.866
549.683
549.545
549.457
549.379
549.283
549.132
548.942
548.706
548.388
548.027
547.657
547.272
546.902
546.565
546.26
545.98
545.727
545.493
545.288
545.115
544.954
544.82
544.708
544.613
544.53
544.454
544.358
544.259
544.158
544.056
543.951
543.845
543.735
543.623
543.509
543.393
543.274
543.155
543.035
542.914
542.793
542.672
542.551
542.43
542.309
542.188
542.067
541.946
541.825
541.704
541.583
541.461
541.34
541.219
541.097
540.976
540.854
540.733
540.611
552.43
552.185
551.938
551.702
551.488
551.304
551.15
551.02
550.91
550.817
550.739
550.677
550.633
550.612
550.617
550.648
550.705
550.783
550.879
550.987
551.101
551.223
551.35
551.478
551.602
551.72
551.829
551.93
552.02
552.098
552.16
552.205
552.231
552.238
552.228
552.203
552.162
552.108
552.043
551.967
551.882
551.794
551.708
551.624
551.545
551.47
551.391
551.322
551.301
551.322
551.317
551.28
551.203
551.102
550.972
550.843
550.693
550.531
550.357
550.18
549.993
549.834
549.752
549.783
549.785
549.755
549.609
549.435
549.206
548.807
548.35
547.956
547.513
547.095
546.721
546.397
546.09
545.824
545.539
545.287
545.118
544.917
544.769
544.664
544.581
544.518
544.478
544.361
544.255
544.152
544.05
543.947
543.842
543.734
543.623
543.509
543.393
543.275
543.156
543.035
542.915
542.793
542.672
542.551
542.43
542.309
542.187
542.067
541.946
541.825
541.704
541.582
541.461
541.34
541.219
541.097
540.976
540.854
540.732
540.611
552.489
552.338
552.148
551.941
551.745
551.58
551.432
551.292
551.156
551.02
550.885
550.755
550.642
550.558
550.512
550.506
550.537
550.603
550.696
550.807
550.929
551.064
551.22
551.386
551.548
551.701
551.843
551.973
552.088
552.187
552.264
552.315
552.337
552.332
552.304
552.255
552.187
552.104
552.01
551.906
551.794
551.683
551.586
551.492
551.401
551.31
551.201
551.114
551.118
551.194
551.208
551.186
551.096
551.019
550.884
550.786
550.643
550.515
550.328
550.193
550.056
549.9
549.858
549.981
550.061
550.037
549.913
549.762
549.512
549.121
548.665
548.234
547.798
547.316
546.911
546.595
546.248
545.907
545.582
545.273
545.048
544.873
544.71
544.619
544.55
544.498
544.473
544.355
544.247
544.145
544.044
543.942
543.839
543.732
543.622
543.509
543.393
543.275
543.156
543.036
542.915
542.794
542.672
542.551
542.43
542.309
542.187
542.066
541.945
541.824
541.703
541.582
541.461
541.34
541.218
541.097
540.976
540.854
540.732
540.611
552.679
552.824
552.813
552.699
552.565
552.458
552.32
552.137
551.926
551.682
551.411
551.115
550.834
550.604
550.437
550.325
550.265
550.263
550.31
550.388
550.482
550.602
550.787
550.999
551.206
551.398
551.572
551.731
551.871
551.995
552.094
552.161
552.191
552.184
552.154
552.1
552.027
551.942
551.849
551.742
551.637
551.554
551.508
551.474
551.45
551.397
551.242
551.137
551.104
551.145
551.13
551.074
550.945
550.85
550.688
550.732
550.587
550.42
550.281
550.206
550.146
550.037
549.958
550.025
550.029
549.946
549.877
549.757
549.467
549.153
548.821
548.344
548.003
547.574
547.156
546.959
546.43
546.161
545.839
545.262
545.009
544.874
544.734
544.688
544.562
544.485
544.465
544.343
544.237
544.137
544.038
543.938
543.835
543.73
543.621
543.508
543.393
543.276
543.157
543.036
542.915
542.794
542.673
542.551
542.43
542.309
542.187
542.066
541.945
541.824
541.703
541.582
541.461
541.34
541.218
541.097
540.976
540.854
540.732
540.611
553.161
553.977
554.332
554.385
554.359
554.397
554.231
553.928
553.578
553.158
552.652
552.01
551.379
550.898
550.519
550.195
549.905
549.728
549.654
549.627
549.636
549.685
549.886
550.127
550.364
550.573
550.741
550.9
551.046
551.199
551.333
551.432
551.498
551.514
551.517
551.486
551.473
551.468
551.436
551.362
551.348
551.462
551.54
551.703
551.826
551.848
551.661
551.472
551.432
551.494
551.4
551.216
551.031
550.981
550.727
550.859
550.682
550.37
550.288
550.537
550.436
550.266
550.091
550.006
549.686
549.454
549.493
549.33
549.085
548.745
548.655
548.055
548.035
547.822
547.416
547.759
546.57
546.332
546.261
545.879
545.518
545.283
545.09
544.989
544.802
544.522
544.453
544.325
544.224
544.128
544.032
543.934
543.833
543.728
543.62
543.508
543.393
543.276
543.157
543.037
542.916
542.794
542.673
542.551
542.43
542.309
542.187
542.066
541.945
541.824
541.703
541.582
541.461
541.34
541.218
541.097
540.975