/*--------------------------------*- C++ -*----------------------------------*\
  =========                 |
  \\      /  F ield         | OpenFOAM: The Open Source CFD Toolbox
   \\    /   O peration     | Website:  https://openfoam.org
    \\  /    A nd           | Version:  6
     \\/     M anipulation  |
\*---------------------------------------------------------------------------*/
FoamFile
{
    version     2.0;
    format      ascii;
    class       volVectorField;
    location    "4100";
    object      U;
}
// * * * * * * * * * * * * * * * * * * * * * * * * * * * * * * * * * * * * * //

dimensions      [0 1 -1 0 0 0 0];

internalField   nonuniform List<vector> 
4800
(
(7.42444e-06 0 -0.000102369)
(0.000145587 0 -7.56051e-05)
(0.000212554 0 -4.72684e-05)
(0.000247611 0 -3.49243e-05)
(0.00027577 0 -3.976e-05)
(0.000331527 0 -5.63223e-05)
(0.00033086 0 -3.89097e-05)
(0.00029829 0 -5.40199e-05)
(0.000171654 0 -4.85266e-07)
(2.64876e-06 0 -2.41064e-05)
(-8.41008e-05 0 -2.42728e-05)
(-0.000177858 0 -8.2667e-05)
(-0.000275385 0 2.28844e-05)
(-0.000337736 0 -2.59829e-05)
(-0.000379855 0 7.58782e-06)
(-0.000426983 0 -8.089e-06)
(-0.000477221 0 -4.25129e-05)
(-0.000531206 0 -2.00838e-05)
(-0.000604556 0 -5.49458e-05)
(-0.000688254 0 3.30995e-05)
(-0.000790641 0 -3.78324e-05)
(-0.00093538 0 0.000129131)
(-0.00113067 0 -7.48167e-05)
(-0.00127022 0 0.000163193)
(-0.0013893 0 -5.19142e-05)
(-0.00147141 0 0.00013128)
(-0.00155366 0 -2.6359e-05)
(-0.00161159 0 9.15426e-05)
(-0.00166144 0 3.21489e-06)
(-0.00169186 0 4.43839e-05)
(-0.00170557 0 1.66579e-05)
(-0.00170712 0 1.32431e-05)
(-0.00169851 0 -1.08132e-05)
(-0.00169249 0 -1.43955e-05)
(-0.00166274 0 -6.70734e-05)
(-0.0016281 0 -0.000114964)
(-0.00160681 0 -0.000178915)
(-0.00158621 0 -0.000148291)
(-0.00150689 0 0.000111596)
(-0.00137334 0 -0.000134502)
(-0.00125949 0 -0.000167548)
(-0.00116086 0 -7.85953e-05)
(-0.00102854 0 -7.35431e-05)
(-0.000886846 0 -0.000133584)
(-0.000733015 0 -0.000111394)
(-0.000557263 0 -6.61102e-05)
(-0.000384639 0 -7.97732e-05)
(-0.000240396 0 -7.65286e-05)
(-0.00013017 0 -5.15265e-05)
(-3.96485e-05 0 -4.32009e-05)
(2.43053e-05 0 -3.18015e-05)
(5.95071e-05 0 -3.09192e-05)
(7.8857e-05 0 -5.6373e-05)
(7.24728e-05 0 -6.06066e-05)
(0.000126912 0 -9.74831e-05)
(9.91799e-05 0 -3.71304e-05)
(8.46196e-05 0 -5.18284e-05)
(8.08363e-05 0 -3.42647e-05)
(7.83449e-05 0 -2.04482e-05)
(8.17944e-05 0 -2.28225e-05)
(0.000107919 0 -1.15905e-05)
(0.000116928 0 -1.12612e-05)
(0.000125487 0 -2.88754e-06)
(0.000133706 0 -1.92431e-05)
(0.000159912 0 1.40763e-05)
(0.000173802 0 -2.95847e-05)
(0.000207327 0 -3.48941e-05)
(0.000246385 0 2.37723e-05)
(0.000255669 0 -4.91302e-05)
(0.000297858 0 -3.46343e-05)
(0.000366802 0 7.75764e-07)
(0.00036622 0 -3.75783e-05)
(0.000377712 0 -2.27723e-05)
(0.000413715 0 1.5856e-05)
(0.000422506 0 -3.57277e-05)
(0.000415122 0 -8.21806e-05)
(0.000430322 0 -5.85253e-05)
(0.000435459 0 -4.3691e-05)
(0.000425189 0 -1.58139e-05)
(0.000397384 0 -3.05574e-05)
(0.000381417 0 3.26346e-05)
(-8.83909e-05 0 2.84991e-05)
(1.11053e-05 0 0.000110699)
(-1.74184e-13 0 2.65209e-13)
(-1.18636e-12 0 7.28729e-14)
(6.17964e-14 0 3.8089e-14)
(2.10538e-15 0 2.0753e-14)
(-3.08774e-14 0 1.16546e-14)
(-4.91901e-14 0 6.26762e-15)
(-5.79357e-14 0 2.59012e-15)
(-5.98789e-14 0 -4.13364e-16)
(-5.59275e-14 0 -3.08463e-15)
(-4.68196e-14 0 -5.47778e-15)
(-3.32974e-14 0 -7.54222e-15)
(-1.6211e-14 0 -9.20614e-15)
(3.54916e-15 0 -1.04233e-14)
(2.51108e-14 0 -1.11811e-14)
(4.76116e-14 0 -1.14889e-14)
(7.02119e-14 0 -1.13653e-14)
(9.21294e-14 0 -1.08408e-14)
(1.12671e-13 0 -9.96688e-15)
(1.31247e-13 0 -8.81131e-15)
(1.47375e-13 0 -7.4383e-15)
(1.60697e-13 0 -5.90115e-15)
(1.70996e-13 0 -4.254e-15)
(1.78177e-13 0 -2.56286e-15)
(1.82199e-13 0 -8.97967e-16)
(1.83044e-13 0 6.84772e-16)
(1.80729e-13 0 2.15364e-15)
(1.75342e-13 0 3.49791e-15)
(1.67056e-13 0 4.71883e-15)
(1.56122e-13 0 5.82214e-15)
(1.42855e-13 0 6.81476e-15)
(1.27598e-13 0 7.70128e-15)
(1.1069e-13 0 8.48021e-15)
(9.24287e-14 0 9.14154e-15)
(7.30573e-14 0 9.66804e-15)
(5.2789e-14 0 1.00396e-14)
(3.18626e-14 0 1.02353e-14)
(1.06342e-14 0 1.02105e-14)
(-3.11035e-06 0 -0.000162165)
(9.95471e-05 0 -0.000112187)
(0.000150154 0 -6.55639e-05)
(0.000117214 0 -3.92268e-05)
(9.78856e-05 0 -1.02738e-05)
(-3.31639e-05 0 4.3014e-05)
(-2.05238e-05 0 7.75387e-05)
(-1.00074e-05 0 0.000111097)
(-0.000158378 0 0.000114671)
(-0.00021083 0 0.00011273)
(-0.000263985 0 0.000197142)
(-0.000377257 0 0.000149135)
(-0.000433766 0 0.000116216)
(-0.000494071 0 0.000119874)
(-0.000569085 0 3.32631e-05)
(-0.000617137 0 0.000194409)
(-0.000724753 0 0.00012565)
(-0.000818228 0 0.000170492)
(-0.000942933 0 0.000199707)
(-0.00110263 0 0.000205621)
(-0.00122344 0 0.000247328)
(-0.00130937 0 0.000187505)
(-0.00134426 0 0.000233104)
(-0.00140056 0 9.40602e-05)
(-0.00144014 0 0.000140919)
(-0.00149221 0 5.54531e-05)
(-0.00153277 0 0.000108316)
(-0.00157213 0 4.13502e-05)
(-0.00159582 0 4.20429e-05)
(-0.0016087 0 1.32977e-05)
(-0.00161486 0 5.95884e-06)
(-0.00161981 0 -6.42274e-06)
(-0.00162024 0 -1.95217e-05)
(-0.00162163 0 -2.04612e-05)
(-0.00160327 0 -2.95853e-05)
(-0.00158467 0 -5.41194e-05)
(-0.00158514 0 -6.59221e-05)
(-0.00154378 0 -8.54594e-05)
(-0.00142686 0 -0.000116571)
(-0.00133663 0 -0.000154504)
(-0.00124975 0 -0.000138303)
(-0.00113427 0 -0.000136663)
(-0.000988467 0 -0.000291805)
(-0.00089468 0 -0.000178119)
(-0.000736694 0 -0.0001969)
(-0.000526681 0 -0.000309374)
(-0.00040198 0 -0.000195259)
(-0.000210724 0 -0.000218086)
(-0.000113737 0 -9.65302e-05)
(1.61206e-05 0 -7.10031e-05)
(0.000122024 0 -6.55928e-05)
(0.000161061 0 3.37931e-06)
(0.000161126 0 2.96062e-05)
(0.000143449 0 3.08295e-05)
(0.000137668 0 -4.15311e-06)
(3.68419e-05 0 6.18024e-05)
(5.44009e-05 0 9.56418e-06)
(4.72683e-07 0 1.01525e-05)
(1.92612e-07 0 -2.00135e-05)
(-8.65063e-06 0 -1.8402e-05)
(-4.07868e-06 0 -6.55622e-06)
(-6.00656e-06 0 -2.0985e-05)
(8.08396e-06 0 -2.12951e-05)
(2.61344e-05 0 -3.06152e-05)
(5.7516e-05 0 -3.04688e-05)
(7.45636e-05 0 -5.60134e-05)
(0.000121651 0 -1.11785e-05)
(0.000151328 0 -2.94252e-05)
(0.000179248 0 -5.85582e-05)
(0.000232766 0 -6.70247e-05)
(0.000291909 0 2.23368e-05)
(0.000306582 0 -3.69703e-05)
(0.000322047 0 7.35281e-06)
(0.000350042 0 -4.47837e-05)
(0.000392989 0 -4.75952e-05)
(0.000402252 0 2.46816e-06)
(0.000390857 0 1.22982e-05)
(0.000358492 0 3.75229e-05)
(0.00033699 0 3.32657e-05)
(0.000317273 0 3.51222e-05)
(0.00031712 0 6.19238e-05)
(-0.000116819 0 0.000136626)
(1.11205e-05 0 0.000283899)
(-2.44179e-13 0 7.25433e-13)
(-1.29451e-12 0 1.82206e-13)
(7.82514e-15 0 9.62754e-14)
(-2.52777e-14 0 5.35125e-14)
(-4.55475e-14 0 3.10005e-14)
(-5.80674e-14 0 1.73008e-14)
(-6.46166e-14 0 7.28406e-15)
(-6.55537e-14 0 -1.43853e-15)
(-6.09919e-14 0 -9.48618e-15)
(-5.12772e-14 0 -1.68076e-14)
(-3.70257e-14 0 -2.31428e-14)
(-1.90921e-14 0 -2.82336e-14)
(1.57423e-15 0 -3.19246e-14)
(2.40452e-14 0 -3.41677e-14)
(4.74273e-14 0 -3.49991e-14)
(7.086e-14 0 -3.45057e-14)
(9.35278e-14 0 -3.28081e-14)
(1.147e-13 0 -3.00644e-14)
(1.33776e-13 0 -2.64617e-14)
(1.50286e-13 0 -2.21962e-14)
(1.63881e-13 0 -1.74664e-14)
(1.74334e-13 0 -1.24793e-14)
(1.81533e-13 0 -7.44423e-15)
(1.85447e-13 0 -2.54595e-15)
(1.86095e-13 0 2.08656e-15)
(1.83542e-13 0 6.38962e-15)
(1.77908e-13 0 1.03512e-14)
(1.6938e-13 0 1.39855e-14)
(1.58218e-13 0 1.73091e-14)
(1.44734e-13 0 2.03262e-14)
(1.29263e-13 0 2.30219e-14)
(1.12131e-13 0 2.53644e-14)
(9.36166e-14 0 2.73142e-14)
(7.39553e-14 0 2.8836e-14)
(5.33562e-14 0 2.99101e-14)
(3.20335e-14 0 3.05362e-14)
(1.06095e-14 0 3.07243e-14)
(-2.47077e-05 0 -0.000191661)
(5.72132e-05 0 -0.000105884)
(-7.36317e-05 0 -0.000103685)
(-8.05094e-05 0 -6.32634e-05)
(-6.43063e-05 0 1.80738e-05)
(-0.000132247 0 0.000115901)
(-0.000196571 0 0.000118362)
(-0.000119975 0 0.000254087)
(-0.000359203 0 0.000108489)
(-0.000379175 0 0.000153326)
(-0.000445427 0 0.000168831)
(-0.000507553 0 0.000174358)
(-0.00054205 0 0.000174499)
(-0.000610371 0 0.000160626)
(-0.000692712 0 0.000206295)
(-0.000810253 0 7.21953e-05)
(-0.000877834 0 0.000269528)
(-0.00101845 0 0.000135485)
(-0.0010831 0 0.000318072)
(-0.00120485 0 0.000198787)
(-0.0012452 0 0.000291487)
(-0.00129242 0 0.000289621)
(-0.00134774 0 0.0002175)
(-0.00138825 0 0.000232296)
(-0.0014361 0 0.000178072)
(-0.00146812 0 0.000142955)
(-0.00149046 0 0.000130416)
(-0.00150966 0 0.000110687)
(-0.00152367 0 8.44534e-05)
(-0.00153479 0 3.75553e-05)
(-0.00154665 0 6.0911e-06)
(-0.00155363 0 1.44974e-05)
(-0.00152973 0 -5.15116e-05)
(-0.00149029 0 -1.65205e-05)
(-0.00146539 0 2.53762e-05)
(-0.00142902 0 -0.000168742)
(-0.00141491 0 -0.000137413)
(-0.00141196 0 -0.000155944)
(-0.00137969 0 -0.000208872)
(-0.00124593 0 -0.000304255)
(-0.00114884 0 -0.000219891)
(-0.00105661 0 -0.00025441)
(-0.000923061 0 -0.000410162)
(-0.000862496 0 -0.000303746)
(-0.00066431 0 -0.000501204)
(-0.000492883 0 -0.000530518)
(-0.000422371 0 -0.000398863)
(-0.000223871 0 -0.000398113)
(-0.000115346 0 -0.00032779)
(9.01416e-05 0 -0.000273107)
(0.00017914 0 -7.00061e-05)
(0.000208606 0 -1.44976e-05)
(0.00024409 0 7.65934e-05)
(0.000251572 0 8.28674e-05)
(0.000231501 0 6.4916e-05)
(6.59428e-05 0 0.000132098)
(6.06555e-05 0 8.71026e-05)
(-1.66946e-06 0 4.65574e-05)
(-2.85849e-05 0 5.48017e-06)
(-6.03478e-05 0 8.59331e-06)
(-6.40289e-05 0 -4.99813e-06)
(-4.55482e-05 0 -3.86891e-05)
(-4.37176e-05 0 -4.35957e-05)
(-2.05267e-05 0 -6.18815e-05)
(6.06826e-06 0 -6.24323e-05)
(3.97613e-05 0 -7.60144e-05)
(8.12167e-05 0 -9.63888e-05)
(0.000147218 0 -6.24608e-05)
(0.000181047 0 -0.000126307)
(0.000252054 0 -0.0001994)
(0.000313821 0 -6.8084e-06)
(0.00032971 0 -8.27774e-05)
(0.000357888 0 -0.000114991)
(0.000413781 0 -3.54097e-05)
(0.000426516 0 1.61935e-05)
(0.000408033 0 6.4926e-06)
(0.000381612 0 4.37391e-05)
(0.000364142 0 1.52765e-05)
(0.000322247 0 8.63482e-05)
(0.000280293 0 0.000104164)
(0.000274024 0 0.000144549)
(-0.000197816 0 0.000197807)
(1.14515e-05 0 0.000443466)
(-3.63892e-13 0 1.01843e-12)
(-1.44806e-12 0 2.02792e-13)
(-6.82924e-14 0 1.11051e-13)
(-6.36849e-14 0 6.56697e-14)
(-6.6907e-14 0 4.12889e-14)
(-7.25654e-14 0 2.47702e-14)
(-7.6675e-14 0 1.05259e-14)
(-7.66491e-14 0 -3.41339e-15)
(-7.12965e-14 0 -1.69812e-14)
(-6.04762e-14 0 -2.95304e-14)
(-4.47234e-14 0 -4.0368e-14)
(-2.49928e-14 0 -4.89682e-14)
(-2.38489e-15 0 -5.5063e-14)
(2.20363e-14 0 -5.8599e-14)
(4.72736e-14 0 -5.96853e-14)
(7.24029e-14 0 -5.85234e-14)
(9.65706e-14 0 -5.53608e-14)
(1.19017e-13 0 -5.04868e-14)
(1.39115e-13 0 -4.42252e-14)
(1.56371e-13 0 -3.69179e-14)
(1.70414e-13 0 -2.89139e-14)
(1.81018e-13 0 -2.05622e-14)
(1.8811e-13 0 -1.21896e-14)
(1.9173e-13 0 -4.067e-15)
(1.91979e-13 0 3.61997e-15)
(1.88994e-13 0 1.07789e-14)
(1.82938e-13 0 1.73912e-14)
(1.74014e-13 0 2.3476e-14)
(1.62463e-13 0 2.90506e-14)
(1.48568e-13 0 3.41046e-14)
(1.32636e-13 0 3.85949e-14)
(1.14983e-13 0 4.24597e-14)
(9.59003e-14 0 4.56428e-14)
(7.56532e-14 0 4.81157e-14)
(5.44892e-14 0 4.98897e-14)
(3.26768e-14 0 5.10162e-14)
(1.08224e-14 0 5.15868e-14)
(-3.48078e-05 0 -0.000187471)
(-2.61716e-05 0 -5.88826e-05)
(5.25465e-05 0 9.34828e-06)
(-0.000117916 0 0.000113365)
(-0.000159585 0 0.000148327)
(-0.000275901 0 0.000164275)
(-0.000365978 0 0.00012381)
(-0.000361533 0 0.000222762)
(-0.00039494 0 0.000328556)
(-0.000518811 0 0.000220108)
(-0.000555799 0 0.000233707)
(-0.000581781 0 0.00029713)
(-0.000682753 0 0.000154857)
(-0.000715533 0 0.000259996)
(-0.000839313 0 0.000230943)
(-0.000933327 0 0.000216791)
(-0.000980103 0 0.000324773)
(-0.00108517 0 0.000256276)
(-0.00112745 0 0.000329597)
(-0.0011731 0 0.000358485)
(-0.0012324 0 0.000298984)
(-0.00127297 0 0.000274924)
(-0.00130592 0 0.000280329)
(-0.00134873 0 0.00022574)
(-0.00137988 0 0.000201769)
(-0.00140007 0 0.00016428)
(-0.00141625 0 0.000122089)
(-0.00143038 0 9.32146e-05)
(-0.0014344 0 6.54801e-05)
(-0.00143397 0 3.64705e-05)
(-0.00144368 0 1.19759e-05)
(-0.0014506 0 4.06413e-07)
(-0.001427 0 -5.84917e-05)
(-0.00137132 0 -8.98185e-05)
(-0.00135241 0 -9.69552e-05)
(-0.00133386 0 -0.000142936)
(-0.00128484 0 -0.000181359)
(-0.00126159 0 -0.000159051)
(-0.00125655 0 -0.000175532)
(-0.00124207 0 -0.000232287)
(-0.00108155 0 -0.000456008)
(-0.00103078 0 -0.000283769)
(-0.000908587 0 -0.000403051)
(-0.000822402 0 -0.000458746)
(-0.000694184 0 -0.000572032)
(-0.000618392 0 -0.000539453)
(-0.000484491 0 -0.000535663)
(-0.000396526 0 -0.000510737)
(-0.00016066 0 -0.000554637)
(-3.40139e-05 0 -0.000459933)
(7.91987e-05 0 -0.000337007)
(0.000105236 0 -0.000263779)
(0.000253621 0 -8.62747e-06)
(0.000256362 0 6.46717e-05)
(0.000241769 0 0.000100212)
(0.000204186 0 0.000107516)
(0.000146361 0 0.000139253)
(0.000105685 0 9.21429e-05)
(-4.30045e-06 0 6.41282e-05)
(-6.65025e-05 0 3.63957e-05)
(-6.77212e-05 0 -1.45719e-06)
(-4.72755e-05 0 -3.81636e-05)
(-4.50975e-05 0 -5.32662e-05)
(-2.02555e-05 0 -7.38301e-05)
(1.74881e-05 0 -0.000100027)
(7.81412e-05 0 -0.000119841)
(0.000114836 0 -0.000161306)
(0.000198201 0 -0.00013533)
(0.00023394 0 -0.000181447)
(0.000279452 0 -0.000263034)
(0.000399274 0 -6.14548e-05)
(0.000422157 0 -0.000126794)
(0.000482058 0 -0.000120716)
(0.000486866 0 -8.54459e-05)
(0.000486742 0 -1.52624e-05)
(0.000474321 0 -8.63167e-06)
(0.00043637 0 5.57293e-05)
(0.000381119 0 0.000112749)
(0.000351606 0 7.59219e-05)
(0.000242145 0 0.000177125)
(0.000329356 0 0.000193049)
(-0.000313338 0 0.000266914)
(1.2206e-05 0 0.000593537)
(-5.19122e-13 0 1.18306e-12)
(-1.56717e-12 0 1.33395e-13)
(-1.28296e-13 0 7.95403e-14)
(-9.40985e-14 0 5.6745e-14)
(-8.56779e-14 0 4.35275e-14)
(-8.85201e-14 0 2.9676e-14)
(-9.28002e-14 0 1.27081e-14)
(-9.30608e-14 0 -6.60157e-15)
(-8.71089e-14 0 -2.63029e-14)
(-7.46639e-14 0 -4.46207e-14)
(-5.64635e-14 0 -6.02609e-14)
(-3.37871e-14 0 -7.24148e-14)
(-8.05661e-15 0 -8.07437e-14)
(1.94229e-14 0 -8.5255e-14)
(4.7503e-14 0 -8.62e-14)
(7.51845e-14 0 -8.39561e-14)
(1.01564e-13 0 -7.89455e-14)
(1.25836e-13 0 -7.16255e-14)
(1.47345e-13 0 -6.24823e-14)
(1.65597e-13 0 -5.2002e-14)
(1.80237e-13 0 -4.06467e-14)
(1.91059e-13 0 -2.88488e-14)
(1.98028e-13 0 -1.70079e-14)
(2.01256e-13 0 -5.47154e-15)
(2.00941e-13 0 5.49516e-15)
(1.97314e-13 0 1.573e-14)
(1.90605e-13 0 2.51664e-14)
(1.8104e-13 0 3.37986e-14)
(1.68847e-13 0 4.16376e-14)
(1.54278e-13 0 4.86776e-14)
(1.37619e-13 0 5.48849e-14)
(1.19178e-13 0 6.02088e-14)
(9.92726e-14 0 6.46044e-14)
(7.82023e-14 0 6.80545e-14)
(5.62567e-14 0 7.05805e-14)
(3.37306e-14 0 7.2239e-14)
(1.11801e-14 0 7.309e-14)
(-7.00834e-05 0 -0.00015522)
(-6.02527e-05 0 2.5799e-08)
(-0.000113794 0 1.87389e-06)
(-0.000330885 0 -1.46416e-05)
(-0.000316279 0 0.000204093)
(-0.000374675 0 0.000213368)
(-0.000374324 0 0.000302344)
(-0.000386157 0 0.000351302)
(-0.000528258 0 0.000294588)
(-0.000612734 0 0.00028627)
(-0.000638351 0 0.000317992)
(-0.000685526 0 0.000310276)
(-0.000727767 0 0.000367841)
(-0.000843679 0 0.000272448)
(-0.000891595 0 0.000362709)
(-0.000955226 0 0.000389562)
(-0.00103961 0 0.000299999)
(-0.00104576 0 0.000443558)
(-0.00111004 0 0.00037931)
(-0.00114536 0 0.000376273)
(-0.0011782 0 0.000375975)
(-0.00121167 0 0.00033677)
(-0.00124387 0 0.000289861)
(-0.00127307 0 0.000248409)
(-0.00128342 0 0.000234209)
(-0.00129511 0 0.000174735)
(-0.00130764 0 0.000136492)
(-0.00130842 0 0.000137981)
(-0.00128665 0 9.98289e-05)
(-0.00127528 0 6.10722e-05)
(-0.00127538 0 2.62551e-05)
(-0.00128036 0 -3.05343e-05)
(-0.00128164 0 -4.44595e-05)
(-0.00124648 0 -0.000165577)
(-0.00121804 0 -0.000117703)
(-0.00120176 0 -0.000107365)
(-0.00117372 0 -0.000236184)
(-0.00115144 0 -0.000275252)
(-0.00113532 0 -0.000318685)
(-0.00112705 0 -0.000353425)
(-0.00106272 0 -0.000379842)
(-0.00100502 0 -0.000397877)
(-0.000839149 0 -0.000645927)
(-0.000847977 0 -0.000564009)
(-0.000787463 0 -0.000603464)
(-0.000743773 0 -0.000580886)
(-0.00062561 0 -0.000624955)
(-0.000442443 0 -0.000690732)
(-0.000366104 0 -0.000616905)
(-0.000372553 0 -0.000479102)
(-0.000197554 0 -0.000434262)
(-0.000134267 0 -0.000303218)
(6.97176e-05 0 -0.000151691)
(8.24418e-05 0 4.94406e-05)
(0.000136895 0 7.87121e-05)
(0.000131329 0 0.000166812)
(9.94771e-05 0 0.00017286)
(6.3631e-05 0 0.000162326)
(6.81614e-06 0 0.000106787)
(-6.41545e-05 0 6.10608e-05)
(-7.37125e-05 0 -3.81319e-06)
(-5.72516e-05 0 -4.30777e-05)
(-3.45308e-05 0 -7.38395e-05)
(4.1056e-07 0 -0.000108514)
(4.59913e-05 0 -0.000140516)
(0.000107218 0 -0.000154486)
(0.000140704 0 -0.00020105)
(0.000238219 0 -0.000157922)
(0.000302024 0 -0.000170948)
(0.000290609 0 -0.000322028)
(0.000431095 0 -8.88176e-05)
(0.000444363 0 -0.000173765)
(0.000526621 0 -8.93012e-05)
(0.000524508 0 -6.14956e-05)
(0.000512565 0 1.23975e-05)
(0.000510561 0 4.99672e-05)
(0.000491906 0 8.20783e-05)
(0.000417849 0 0.000168155)
(0.000377104 0 0.000141736)
(0.000252178 0 0.000206073)
(0.000363924 0 0.000234186)
(-0.000296599 0 0.00033581)
(1.30251e-05 0 0.000727228)
(-7.01301e-13 0 1.40021e-12)
(-1.61207e-12 0 1.07596e-14)
(-1.43969e-13 0 1.68596e-14)
(-9.87787e-14 0 3.79201e-14)
(-9.32629e-14 0 4.60977e-14)
(-1.03122e-13 0 3.72827e-14)
(-1.12953e-13 0 1.65236e-14)
(-1.1566e-13 0 -1.00734e-14)
(-1.09316e-13 0 -3.75929e-14)
(-9.44342e-14 0 -6.28241e-14)
(-7.25175e-14 0 -8.38866e-14)
(-4.54756e-14 0 -9.98042e-14)
(-1.52251e-14 0 -1.10274e-13)
(1.658e-14 0 -1.15448e-13)
(4.85725e-14 0 -1.15788e-13)
(7.96574e-14 0 -1.11923e-13)
(1.08901e-13 0 -1.04524e-13)
(1.3548e-13 0 -9.42616e-14)
(1.58739e-13 0 -8.17968e-14)
(1.78206e-13 0 -6.77585e-14)
(1.93567e-13 0 -5.27201e-14)
(2.04657e-13 0 -3.7194e-14)
(2.11488e-13 0 -2.16408e-14)
(2.14233e-13 0 -6.47015e-15)
(2.13181e-13 0 7.97764e-15)
(2.08665e-13 0 2.14594e-14)
(2.01007e-13 0 3.38417e-14)
(1.90485e-13 0 4.50835e-14)
(1.77342e-13 0 5.51955e-14)
(1.61815e-13 0 6.41971e-14)
(1.44167e-13 0 7.20892e-14)
(1.24702e-13 0 7.88517e-14)
(1.03746e-13 0 8.44579e-14)
(8.16293e-14 0 8.88963e-14)
(5.86738e-14 0 9.21855e-14)
(3.51863e-14 0 9.43685e-14)
(1.16734e-14 0 9.54809e-14)
(-0.000153863 0 -8.87398e-05)
(-0.000211807 0 -4.52487e-05)
(-0.00019519 0 0.00016197)
(-0.000326597 0 0.000207679)
(-0.000305398 0 0.000329727)
(-0.000420952 0 0.0002636)
(-0.000347275 0 0.000423028)
(-0.000490194 0 0.000360528)
(-0.00057448 0 0.000340218)
(-0.000558017 0 0.000474315)
(-0.000699982 0 0.00035833)
(-0.000762519 0 0.000313828)
(-0.000804447 0 0.000357206)
(-0.000889875 0 0.000300578)
(-0.000908885 0 0.000378126)
(-0.000964225 0 0.000367109)
(-0.000996845 0 0.000413323)
(-0.00104738 0 0.000388068)
(-0.00106508 0 0.00042499)
(-0.00109496 0 0.00039571)
(-0.0011173 0 0.000375374)
(-0.00114115 0 0.000350229)
(-0.00116343 0 0.000311051)
(-0.00116722 0 0.000308942)
(-0.00117293 0 0.000237992)
(-0.00116544 0 0.000192807)
(-0.00116265 0 0.000168288)
(-0.0011641 0 9.87649e-05)
(-0.00115595 0 3.81322e-05)
(-0.00114444 0 -1.21237e-05)
(-0.00112686 0 1.39246e-05)
(-0.00111886 0 -3.10112e-06)
(-0.0011295 0 -7.41149e-05)
(-0.00114276 0 -7.54513e-05)
(-0.0011251 0 -0.00013848)
(-0.00108682 0 -0.000181844)
(-0.00108504 0 -0.000167049)
(-0.00109176 0 -0.000205966)
(-0.00108266 0 -0.000307465)
(-0.00105451 0 -0.000399976)
(-0.000940874 0 -0.000588249)
(-0.000961322 0 -0.000530955)
(-0.000981624 0 -0.000498389)
(-0.000838133 0 -0.000715019)
(-0.000819809 0 -0.000697728)
(-0.000761889 0 -0.000711185)
(-0.000635444 0 -0.000783116)
(-0.000617475 0 -0.000721908)
(-0.000579829 0 -0.000637106)
(-0.000431624 0 -0.000612209)
(-0.000448876 0 -0.000455226)
(-0.000399593 0 -0.000324451)
(-0.000321856 0 -0.000191236)
(-0.000189747 0 -5.42754e-05)
(-1.82675e-05 0 0.000109296)
(-9.27162e-06 0 0.000163953)
(-2.01614e-05 0 0.000180851)
(-2.6716e-05 0 0.000182964)
(-3.72646e-05 0 0.000145115)
(-8.6405e-05 0 7.45625e-05)
(-8.8392e-05 0 4.06035e-07)
(-8.41982e-05 0 -6.53129e-05)
(-4.71972e-05 0 -0.000106204)
(-1.47256e-06 0 -0.000156853)
(3.41588e-05 0 -0.000199959)
(0.000104252 0 -0.000221554)
(0.000105128 0 -0.000302518)
(0.000271878 0 -0.000242948)
(0.000313791 0 -0.00028596)
(0.000334892 0 -0.000348032)
(0.000411738 0 -0.000273409)
(0.000426643 0 -0.000298027)
(0.000523205 0 -0.000106134)
(0.00052584 0 -4.57575e-05)
(0.000516317 0 -4.67605e-05)
(0.000512488 0 5.6535e-05)
(0.000488924 0 0.000158849)
(0.000459001 0 0.000188574)
(0.000395754 0 0.00022642)
(0.000260523 0 0.00028186)
(0.000303606 0 0.000319757)
(-0.000210836 0 0.000382116)
(1.34002e-05 0 0.000868617)
(-9.19984e-13 0 1.85957e-12)
(-1.61514e-12 0 -1.66172e-13)
(-1.00214e-13 0 -6.0925e-14)
(-6.39796e-14 0 3.16742e-14)
(-8.56785e-14 0 6.55761e-14)
(-1.17893e-13 0 5.66752e-14)
(-1.40156e-13 0 2.58518e-14)
(-1.47177e-13 0 -1.2839e-14)
(-1.3986e-13 0 -5.12983e-14)
(-1.20958e-13 0 -8.5268e-14)
(-9.34436e-14 0 -1.1267e-13)
(-6.01749e-14 0 -1.32663e-13)
(-2.37005e-14 0 -1.45182e-13)
(1.39094e-14 0 -1.50651e-13)
(5.10278e-14 0 -1.49826e-13)
(8.64483e-14 0 -1.43648e-13)
(1.19226e-13 0 -1.33097e-13)
(1.48563e-13 0 -1.19125e-13)
(1.73848e-13 0 -1.02618e-13)
(1.94674e-13 0 -8.43816e-14)
(2.10801e-13 0 -6.51188e-14)
(2.22138e-13 0 -4.54313e-14)
(2.28752e-13 0 -2.58361e-14)
(2.30875e-13 0 -6.78712e-15)
(2.28871e-13 0 1.13229e-14)
(2.23178e-13 0 2.81883e-14)
(2.14229e-13 0 4.36182e-14)
(2.02393e-13 0 5.75393e-14)
(1.8796e-13 0 6.99649e-14)
(1.71172e-13 0 8.09445e-14)
(1.52273e-13 0 9.05214e-14)
(1.31547e-13 0 9.87123e-14)
(1.09317e-13 0 1.05514e-13)
(8.59298e-14 0 1.10922e-13)
(6.17289e-14 0 1.14953e-13)
(3.70261e-14 0 1.17634e-13)
(1.22926e-14 0 1.18986e-13)
(-3.07526e-05 0 -2.18224e-05)
(-1.94145e-05 0 0.000226521)
(-3.18947e-05 0 0.000273138)
(-0.000354321 0 0.000238493)
(-0.000404752 0 0.000284589)
(-0.000463689 0 0.000296715)
(-0.000430461 0 0.000406487)
(-0.000472397 0 0.000473242)
(-0.000631411 0 0.000362602)
(-0.000640034 0 0.000423485)
(-0.000740288 0 0.000381499)
(-0.000764589 0 0.000424938)
(-0.00081796 0 0.00040654)
(-0.00085848 0 0.000421708)
(-0.000887698 0 0.000442551)
(-0.000934373 0 0.000415781)
(-0.000956856 0 0.000445572)
(-0.000986988 0 0.000433612)
(-0.00100207 0 0.000439219)
(-0.00101748 0 0.000425017)
(-0.00103807 0 0.00038973)
(-0.00104913 0 0.000381926)
(-0.0010579 0 0.00035208)
(-0.00106439 0 0.000258506)
(-0.00105636 0 0.00020888)
(-0.00103619 0 0.000156251)
(-0.0010149 0 0.000113954)
(-0.00101061 0 0.000117303)
(-0.00103408 0 6.29739e-05)
(-0.00104572 0 5.66339e-05)
(-0.00103782 0 -1.21946e-05)
(-0.00102058 0 -4.41813e-05)
(-0.00101944 0 -6.75741e-05)
(-0.00102185 0 -0.000132637)
(-0.00102959 0 -0.000128411)
(-0.00101894 0 -0.000184398)
(-0.00100174 0 -0.000218425)
(-0.00100206 0 -0.000278573)
(-0.00100828 0 -0.000331214)
(-0.000975628 0 -0.000414813)
(-0.000987165 0 -0.000427757)
(-0.00101365 0 -0.000464043)
(-0.000916028 0 -0.000654133)
(-0.000903457 0 -0.000685467)
(-0.000880893 0 -0.000712277)
(-0.000772672 0 -0.000805073)
(-0.000800166 0 -0.000752684)
(-0.000733729 0 -0.000759069)
(-0.000627441 0 -0.000748675)
(-0.000600294 0 -0.000652579)
(-0.000519033 0 -0.000589908)
(-0.000445138 0 -0.000498304)
(-0.000376187 0 -0.000340182)
(-0.000304665 0 -0.000125783)
(-0.000217636 0 -9.70438e-06)
(-0.000186846 0 0.000127183)
(-0.000150875 0 0.000174181)
(-0.000105335 0 0.000205624)
(-0.000121171 0 0.000164296)
(-0.000123254 0 7.27799e-05)
(-0.000112345 0 -5.29365e-06)
(-0.000111716 0 -9.28699e-05)
(-5.24952e-05 0 -0.000161851)
(1.12309e-05 0 -0.000212377)
(7.52142e-05 0 -0.000253838)
(0.000108338 0 -0.000307867)
(0.000237049 0 -0.000315536)
(0.000263873 0 -0.000370164)
(0.000322847 0 -0.000391003)
(0.000391121 0 -0.000358645)
(0.000435264 0 -0.000294801)
(0.000436841 0 -0.000277231)
(0.000490213 0 -0.00016408)
(0.000506772 0 -9.52226e-05)
(0.000512095 0 -2.44475e-05)
(0.000494107 0 8.19234e-05)
(0.000483186 0 0.000158044)
(0.000425452 0 0.000285737)
(0.000417096 0 0.00027877)
(0.000292916 0 0.000348206)
(0.000358825 0 0.000364597)
(-0.000215793 0 0.000432628)
(1.36527e-05 0 0.00104461)
(-1.22981e-12 0 3.07932e-12)
(-1.59673e-12 0 -5.31147e-13)
(5.47132e-14 0 -1.25991e-13)
(2.85485e-14 0 8.41219e-14)
(-6.77165e-14 0 1.28131e-13)
(-1.42716e-13 0 9.8186e-14)
(-1.82467e-13 0 4.31669e-14)
(-1.9281e-13 0 -1.55937e-14)
(-1.81745e-13 0 -6.91704e-14)
(-1.55806e-13 0 -1.13946e-13)
(-1.19913e-13 0 -1.48556e-13)
(-7.79873e-14 0 -1.72786e-13)
(-3.32124e-14 0 -1.87077e-13)
(1.19357e-14 0 -1.92282e-13)
(5.5575e-14 0 -1.89545e-13)
(9.63862e-14 0 -1.80166e-13)
(1.33425e-13 0 -1.65489e-13)
(1.6596e-13 0 -1.46808e-13)
(1.93482e-13 0 -1.25304e-13)
(2.15706e-13 0 -1.02009e-13)
(2.32517e-13 0 -7.77927e-14)
(2.4394e-13 0 -5.33697e-14)
(2.50132e-13 0 -2.93164e-14)
(2.51392e-13 0 -6.11111e-15)
(2.48156e-13 0 1.58403e-14)
(2.4096e-13 0 3.62109e-14)
(2.30358e-13 0 5.47815e-14)
(2.16832e-13 0 7.1458e-14)
(2.00747e-13 0 8.62542e-14)
(1.82371e-13 0 9.92437e-14)
(1.61935e-13 0 1.10508e-13)
(1.39694e-13 0 1.20105e-13)
(1.15956e-13 0 1.2806e-13)
(9.1068e-14 0 1.34389e-13)
(6.53858e-14 0 1.39111e-13)
(3.92199e-14 0 1.4225e-13)
(1.3025e-14 0 1.43815e-13)
(-0.000303372 0 2.02713e-07)
(-0.000350189 0 3.06738e-05)
(-6.93809e-05 0 0.000400639)
(-0.000298799 0 0.000341123)
(-0.000356532 0 0.000366059)
(-0.000453469 0 0.000384328)
(-0.0005556 0 0.00036325)
(-0.000497506 0 0.000537404)
(-0.000601517 0 0.000500062)
(-0.00067629 0 0.000452496)
(-0.000679819 0 0.000533959)
(-0.000789852 0 0.000457953)
(-0.00080194 0 0.000482995)
(-0.000836455 0 0.000460642)
(-0.000870565 0 0.000450706)
(-0.000894417 0 0.000447999)
(-0.000917557 0 0.000429542)
(-0.000925621 0 0.00043398)
(-0.000924906 0 0.000449951)
(-0.000929682 0 0.000444231)
(-0.000919454 0 0.000445803)
(-0.000919198 0 0.000421574)
(-0.000944553 0 0.00032919)
(-0.00092953 0 0.000283135)
(-0.000915917 0 0.000237739)
(-0.000909583 0 0.000171744)
(-0.000893407 0 0.000126672)
(-0.000885241 0 0.00010421)
(-0.000893444 0 6.6999e-05)
(-0.000911844 0 2.75633e-05)
(-0.000921979 0 3.10691e-05)
(-0.000930873 0 -2.73395e-06)
(-0.000941844 0 -6.06284e-05)
(-0.000947548 0 -0.000116627)
(-0.000946119 0 -0.000152561)
(-0.000940019 0 -0.000180955)
(-0.000930676 0 -0.000202888)
(-0.000941343 0 -0.000217072)
(-0.000947147 0 -0.000272348)
(-0.000841633 0 -0.000545868)
(-0.000847049 0 -0.000610779)
(-0.00097127 0 -0.000508412)
(-0.000930337 0 -0.00063954)
(-0.000893358 0 -0.000729936)
(-0.00085609 0 -0.000778955)
(-0.000838482 0 -0.000802079)
(-0.000810042 0 -0.000824518)
(-0.00070561 0 -0.000866674)
(-0.000721786 0 -0.000755439)
(-0.000711585 0 -0.000670649)
(-0.000678657 0 -0.000594152)
(-0.000662309 0 -0.000456212)
(-0.000601315 0 -0.000291273)
(-0.000502104 0 -0.000118317)
(-0.000394118 0 -2.05806e-05)
(-0.000321914 0 8.21295e-05)
(-0.000275887 0 0.00014506)
(-0.000223994 0 0.000183764)
(-0.000182585 0 0.000145975)
(-0.000152828 0 6.05578e-05)
(-0.000120335 0 3.91438e-06)
(-0.000112392 0 -0.000124707)
(-5.94345e-05 0 -0.000220298)
(2.56095e-05 0 -0.000275313)
(0.000102078 0 -0.000310774)
(0.000181462 0 -0.000357866)
(0.000232541 0 -0.000407294)
(0.000285271 0 -0.000434302)
(0.000343042 0 -0.000419288)
(0.000371358 0 -0.000386812)
(0.000438157 0 -0.000294353)
(0.000353935 0 -0.00035141)
(0.000421886 0 -0.000215329)
(0.000424332 0 -0.000142865)
(0.000438284 0 7.38784e-06)
(0.000446886 0 5.46298e-05)
(0.000437288 0 0.000180316)
(0.000414621 0 0.000275382)
(0.000361396 0 0.000376633)
(0.000295657 0 0.000405999)
(0.000480854 0 0.000427316)
(-0.000288655 0 0.000556122)
(1.41961e-05 0 0.00132133)
(-1.7618e-12 0 5.76316e-12)
(-1.7463e-12 0 -1.84133e-12)
(5.15733e-13 0 4.42099e-15)
(1.90894e-13 0 3.03085e-13)
(-7.11646e-14 0 2.6536e-13)
(-2.02797e-13 0 1.65238e-13)
(-2.53936e-13 0 6.46177e-14)
(-2.59515e-13 0 -2.30536e-14)
(-2.38212e-13 0 -9.53054e-14)
(-2.00344e-13 0 -1.5221e-13)
(-1.52283e-13 0 -1.9428e-13)
(-9.86954e-14 0 -2.22388e-13)
(-4.3197e-14 0 -2.37723e-13)
(1.14416e-14 0 -2.41714e-13)
(6.31443e-14 0 -2.35987e-13)
(1.10504e-13 0 -2.22257e-13)
(1.52583e-13 0 -2.02265e-13)
(1.88748e-13 0 -1.77691e-13)
(2.18647e-13 0 -1.50064e-13)
(2.42185e-13 0 -1.20694e-13)
(2.5944e-13 0 -9.06575e-14)
(2.70614e-13 0 -6.08042e-14)
(2.76011e-13 0 -3.17789e-14)
(2.76032e-13 0 -4.07031e-15)
(2.71193e-13 0 2.19378e-14)
(2.62119e-13 0 4.59432e-14)
(2.49476e-13 0 6.77381e-14)
(2.33866e-13 0 8.72284e-14)
(2.15746e-13 0 1.04431e-13)
(1.95426e-13 0 1.19439e-13)
(1.73134e-13 0 1.32368e-13)
(1.49099e-13 0 1.43317e-13)
(1.23602e-13 0 1.52355e-13)
(9.69807e-14 0 1.59527e-13)
(6.95891e-14 0 1.64869e-13)
(4.17299e-14 0 1.68411e-13)
(1.38578e-14 0 1.70164e-13)
(-4.17154e-05 0 0.000218093)
(-0.000175279 0 0.0003162)
(-0.000247213 0 0.00038345)
(-0.000290355 0 0.000423855)
(-0.000330443 0 0.000460014)
(-0.000315335 0 0.000542518)
(-0.000519503 0 0.000495241)
(-0.00059229 0 0.000517565)
(-0.000612346 0 0.000564935)
(-0.000693894 0 0.00051163)
(-0.000731793 0 0.000505977)
(-0.000733412 0 0.00055471)
(-0.000781883 0 0.000506732)
(-0.000816239 0 0.000469546)
(-0.000827664 0 0.000479234)
(-0.000838306 0 0.000481358)
(-0.000841912 0 0.000479218)
(-0.000851285 0 0.000456318)
(-0.000856442 0 0.000435696)
(-0.000841845 0 0.00044141)
(-0.000867065 0 0.000336781)
(-0.000837244 0 0.000319577)
(-0.000795482 0 0.000334972)
(-0.000792881 0 0.000225602)
(-0.000775578 0 0.000162992)
(-0.000764915 0 0.000138867)
(-0.000765745 0 0.000119674)
(-0.000768459 0 9.85998e-05)
(-0.000778022 0 7.47329e-05)
(-0.000794678 0 5.32727e-05)
(-0.000807755 0 -3.59232e-06)
(-0.000826125 0 -5.15989e-05)
(-0.000854976 0 -4.9775e-05)
(-0.000864948 0 -9.81519e-05)
(-0.000863805 0 -0.000161851)
(-0.000865999 0 -0.000185908)
(-0.000851208 0 -0.000239608)
(-0.000850079 0 -0.000255816)
(-0.000850403 0 -0.000314617)
(-0.000861372 0 -0.000387441)
(-0.000971709 0 -0.000266463)
(-0.000861395 0 -0.000571269)
(-0.000812919 0 -0.000740559)
(-0.000900806 0 -0.000698427)
(-0.000843324 0 -0.000806976)
(-0.000820431 0 -0.000846029)
(-0.000801156 0 -0.000866997)
(-0.000770534 0 -0.00085615)
(-0.000749375 0 -0.000774999)
(-0.000716585 0 -0.000725492)
(-0.000726305 0 -0.00063134)
(-0.000694421 0 -0.00054266)
(-0.000637612 0 -0.000420808)
(-0.000589527 0 -0.000209757)
(-0.000487914 0 -0.000127278)
(-0.000442852 0 8.81895e-06)
(-0.000405026 0 7.28544e-05)
(-0.000335575 0 7.33813e-05)
(-0.000236835 0 8.57608e-05)
(-0.000175214 0 8.46084e-06)