0 	7.25912e-21 	0 	-5.44434e-20
0.010101 	-4.09257e-21 	6.79287e-23 	-4.91298e-20
0.020202 	-7.46188e-20 	-2.02764e-22 	-1.77605e-20
0.030303 	5.71568e-22 	-3.34534e-23 	-2.1277e-20
0.040404 	7.62045e-20 	-1.01552e-22 	7.03655e-20
0.0505051 	-1.14395e-19 	-3.39644e-23 	1.69484e-20
