/*--------------------------------*- C++ -*----------------------------------*\
  =========                 |
  \\      /  F ield         | OpenFOAM: The Open Source CFD Toolbox
   \\    /   O peration     | Website:  https://openfoam.org
    \\  /    A nd           | Version:  6
     \\/     M anipulation  |
\*---------------------------------------------------------------------------*/
FoamFile
{
    version     2.0;
    format      ascii;
    class       volScalarField;
    location    "2350";
    object      Su;
}
// * * * * * * * * * * * * * * * * * * * * * * * * * * * * * * * * * * * * * //

dimensions      [0 0 -1 0 0 0 0];

internalField   nonuniform List<scalar> 
4800
(
0.217553
0.211484
0.205425
0.199402
0.193505
0.187814
0.182401
0.177328
0.172645
0.168386
0.164557
0.161132
0.158074
0.155344
0.1529
0.150705
0.14872
0.146907
0.145231
0.143661
0.142167
0.140716
0.139293
0.137893
0.136513
0.135144
0.133777
0.132405
0.131032
0.129666
0.128314
0.126975
0.125646
0.12433
0.123027
0.121735
0.120458
0.119196
0.117947
0.116711
0.11549
0.114281
0.113082
0.111895
0.110715
0.10954
0.108364
0.107181
0.105987
0.104779
0.103553
0.102304
0.10103
0.0997241
0.0983822
0.0969987
0.0955693
0.0940902
0.092559
0.0909732
0.0893278
0.0876133
0.0858147
0.0839127
0.0818834
0.0797011
0.0773394
0.074771
0.0719701
0.0689145
0.0655878
0.0619829
0.0581384
0.0541331
0.0500286
0.0458801
0.0417467
0.0376687
0.033652
0.029675
0.0256795
0.0216666
0.0176584
0.0136728
0.00972015
0.0058067
0.00193579
-0.00189095
-0.00567284
-0.00941013
-0.0131036
-0.0167543
-0.0203638
-0.0239336
-0.0274656
-0.0309615
-0.0344235
-0.0378535
-0.0412535
-0.0446254
-0.0479713
-0.0512931
-0.0545927
-0.0578717
-0.061132
-0.0643752
-0.0676029
-0.0708165
-0.0740174
-0.0772071
-0.0803867
-0.0835574
-0.0867205
-0.0898768
-0.0930274
-0.0961733
-0.0993155
-0.102455
-0.105592
-0.108728
0.217504
0.211323
0.205158
0.199081
0.193177
0.187521
0.182163
0.177156
0.172536
0.168327
0.164539
0.161157
0.15814
0.155443
0.153029
0.150855
0.148883
0.147074
0.145394
0.143809
0.142296
0.140827
0.139386
0.137969
0.13657
0.135176
0.133777
0.132374
0.130976
0.129585
0.128204
0.126837
0.125486
0.124148
0.122827
0.121522
0.120233
0.118963
0.117706
0.116464
0.115235
0.114017
0.112809
0.111612
0.110424
0.109241
0.108061
0.106875
0.10568
0.104472
0.103246
0.101997
0.100721
0.0994147
0.0980736
0.0966931
0.0952685
0.093796
0.0922727
0.0906945
0.0890552
0.0873454
0.085551
0.083655
0.0816345
0.0794629
0.0771157
0.0745672
0.0717926
0.0687756
0.0655095
0.0620112
0.0583006
0.0544006
0.0503495
0.0462091
0.042042
0.0378978
0.0338094
0.0297655
0.0257166
0.0216733
0.0176474
0.0136513
0.00969263
0.00577585
0.00190337
-0.00192379
-0.00570537
-0.00944184
-0.0131341
-0.0167835
-0.0203915
-0.0239598
-0.0274902
-0.0309846
-0.034445
-0.0378735
-0.041272
-0.0446425
-0.0479871
-0.0513075
-0.0546058
-0.0578837
-0.0611429
-0.0643851
-0.0676118
-0.0708245
-0.0740246
-0.0772135
-0.0803923
-0.0835624
-0.0867247
-0.0898804
-0.0930304
-0.0961758
-0.0993173
-0.102456
-0.105593
-0.108728
0.217427
0.21111
0.204861
0.198748
0.192836
0.187204
0.181903
0.176972
0.172447
0.168337
0.164634
0.161319
0.158355
0.155705
0.153326
0.151178
0.14922
0.147411
0.145717
0.14411
0.142568
0.141062
0.139586
0.138132
0.136684
0.135234
0.133779
0.132327
0.130879
0.129437
0.128003
0.126583
0.125184
0.123806
0.122451
0.12112
0.119807
0.118519
0.117243
0.115988
0.114744
0.113509
0.112284
0.111069
0.109865
0.108669
0.107479
0.106287
0.105089
0.10388
0.102654
0.101405
0.100129
0.0988217
0.0974813
0.096104
0.094686
0.0932229
0.0917098
0.0901412
0.0885094
0.0868071
0.0850176
0.0831307
0.0811238
0.0789743
0.0766571
0.0741517
0.0714343
0.068495
0.0653265
0.0619406
0.0583455
0.0545554
0.0506011
0.0465347
0.0424071
0.0382447
0.0340704
0.029908
0.0257673
0.0216734
0.0176179
0.013604
0.00963492
0.00571251
0.0018375
-0.00199014
-0.00577083
-0.00950551
-0.0131954
-0.0168421
-0.0204471
-0.0240122
-0.0275394
-0.0310306
-0.0344879
-0.0379133
-0.0413088
-0.0446765
-0.0480184
-0.0513363
-0.0546321
-0.0579077
-0.0611647
-0.0644048
-0.0676296
-0.0708405
-0.0740389
-0.0772261
-0.0804035
-0.0835721
-0.0867331
-0.0898875
-0.0930364
-0.0961806
-0.099321
-0.102459
-0.105594
-0.108729
0.217361
0.210932
0.204606
0.198463
0.192564
0.186976
0.181758
0.176928
0.172503
0.168493
0.164885
0.161649
0.158747
0.156144
0.153801
0.151676
0.149725
0.147913
0.146203
0.144566
0.14298
0.141422
0.139893
0.138378
0.136856
0.135327
0.133801
0.132277
0.130752
0.129234
0.127727
0.126237
0.12477
0.123332
0.121926
0.120551
0.1192
0.117882
0.116574
0.115294
0.114029
0.112769
0.111517
0.110278
0.10905
0.107834
0.106632
0.105429
0.104223
0.103013
0.101788
0.100542
0.09927
0.0979673
0.0966309
0.095259
0.0938478
0.092393
0.0908887
0.0893298
0.087706
0.0860149
0.084235
0.0823606
0.0803751
0.0782562
0.0759809
0.0735335
0.0708917
0.0680469
0.0649862
0.0617158
0.0582413
0.0545716
0.050732
0.0467545
0.0426644
0.0384875
0.034259
0.0300096
0.0257868
0.0216436
0.0175568
0.0135231
0.00954225
0.00561361
0.00173618
-0.0020913
-0.0058701
-0.00960174
-0.0132878
-0.0169302
-0.0205305
-0.0240909
-0.0276133
-0.0310997
-0.0345522
-0.037973
-0.0413641
-0.0447275
-0.0480652
-0.0513792
-0.0546714
-0.0579435
-0.0611972
-0.0644342
-0.0676561
-0.0708643
-0.0740602
-0.077245
-0.0804202
-0.0835867
-0.0867457
-0.0898982
-0.0930453
-0.0961877
-0.0993265
-0.102463
-0.105596
-0.108729
0.217312
0.210811
0.204453
0.198313
0.19246
0.186938
0.181797
0.177068
0.172753
0.168844
0.165325
0.162164
0.159324
0.156771
0.154462
0.152355
0.150406
0.148587
0.146855
0.145183
0.143546
0.141926
0.140324
0.138726
0.137113
0.135492
0.133867
0.132241
0.130618
0.129003
0.127401
0.125822
0.124271
0.122751
0.121271
0.11983
0.118425
0.117064
0.115715
0.114395
0.113099
0.11181
0.110528
0.10926
0.108004
0.106764
0.105541
0.104324
0.103108
0.101893
0.10067
0.0994295
0.098163
0.0968673
0.0955386
0.0941745
0.0927721
0.0913278
0.0898362
0.0882929
0.0866884
0.0850177
0.0832616
0.0814075
0.0794454
0.0773575
0.0751248
0.0727355
0.0701687
0.0674143
0.0644566
0.0612937
0.0579308
0.0543744
0.0506393
0.0467418
0.0427049
0.0385594
0.0343297
0.0300292
0.025726
0.0215592
0.0174497
0.0133997
0.00940882
0.00547536
0.00159689
-0.00222897
-0.00600433
-0.00973127
-0.0134119
-0.0170481
-0.0206421
-0.0241959
-0.0277117
-0.0311916
-0.0346378
-0.0380524
-0.0414375
-0.0447952
-0.0481274
-0.0514363
-0.0547235
-0.057991
-0.0612403
-0.0644733
-0.0676913
-0.0708959
-0.0740884
-0.0772701
-0.0804422
-0.083606
-0.0867623
-0.0899124
-0.093057
-0.0961972
-0.0993338
-0.102468
-0.1056
-0.10873
0.217283
0.210745
0.204412
0.198341
0.192558
0.187119
0.182069
0.177432
0.173215
0.1694
0.165966
0.162879
0.160099
0.157597
0.155319
0.153224
0.151275
0.149445
0.14768
0.145961
0.144264
0.142575
0.140887
0.139187
0.13747
0.135743
0.134007
0.132269
0.130531
0.128796
0.127074
0.125378
0.123715
0.122091
0.120513
0.118983
0.117503
0.116076
0.114679
0.113312
0.111976
0.110654
0.109342
0.108042
0.106758
0.105494
0.104249
0.103012
0.101782
0.100559
0.0993321
0.0980967
0.0968365
0.0955473
0.0942271
0.0928731
0.0914833
0.0900554
0.0885858
0.0870668
0.0854938
0.0838548
0.0821331
0.0803124
0.078381
0.0763264
0.0741356
0.0717984
0.0692963
0.0666208
0.0637568
0.0606944
0.0574354
0.0539813
0.0503412
0.046523
0.0425373
0.0383999
0.0341489
0.0298562
0.0250907
0.0213999
0.017285
0.0132255
0.009229
0.00529392
0.00141702
-0.00240494
-0.00617473
-0.00989494
-0.013568
-0.0171963
-0.020782
-0.0243274
-0.0278349
-0.0313065
-0.0347446
-0.0381514
-0.041529
-0.0448794
-0.0482049
-0.0515072
-0.0547883
-0.0580499
-0.0612939
-0.0645217
-0.0677349
-0.070935
-0.0741233
-0.0773011
-0.0804696
-0.0836298
-0.0867829
-0.0899299
-0.0930716
-0.096209
-0.0993429
-0.102474
-0.105603
-0.108732
0.217329
0.210855
0.20455
0.198521
0.19282
0.18748
0.18253
0.177995
0.173878
0.170158
0.166811
0.163796
0.161077
0.158621
0.156369
0.154281
0.152325
0.150474
0.148667
0.146893
0.145132
0.143367
0.141586
0.139783
0.137956
0.13611
0.134249
0.132383
0.130514
0.128648
0.126791
0.124952
0.123145
0.121383
0.119676
0.118033
0.116462
0.11496
0.113507
0.112096
0.110713
0.10935
0.108001
0.106669
0.105356
0.104066
0.102796
0.101537
0.10029
0.0990549
0.0978186
0.0965814
0.0953254
0.0940415
0.0927279
0.0913834
0.0900062
0.0885951
0.0871504
0.0856599
0.0841205
0.0825214
0.0808413
0.0790651
0.0771762
0.0751611
0.073011
0.0707195
0.0682737
0.0656677
0.0628884
0.05992
0.0567588
0.0534009
0.0498493
0.0461094
0.0421942
0.0381296
0.0339522
0.0297071
0.0254246
0.0212004
0.0170618
0.0129956
0.0089984
0.00506603
0.00119423
-0.00262085
-0.00638244
-0.0100935
-0.0137569
-0.017375
-0.0209504
-0.0244854
-0.0279826
-0.0314442
-0.0348725
-0.0382698
-0.0416382
-0.04498
-0.0482972
-0.0515917
-0.0548654
-0.0581201
-0.0613576
-0.0645793
-0.0677868
-0.0709815
-0.0741648
-0.0773379
-0.080502
-0.0836581
-0.0868073
-0.0899506
-0.0930888
-0.0962229
-0.0993535
-0.102482
-0.105608
-0.108733
0.217392
0.211042
0.204845
0.198901
0.19328
0.188035
0.183188
0.178755
0.174737
0.17111
0.167852
0.164912
0.162251
0.159831
0.157597
0.15551
0.153543
0.151667
0.149815
0.147983
0.146158
0.144313
0.142436
0.140526
0.138583
0.136611
0.13462
0.132615
0.130601
0.128584
0.126567
0.124564
0.122588
0.120659
0.118796
0.117017
0.115334
0.113748
0.112233
0.110774
0.109342
0.107938
0.106552
0.105185
0.103841
0.102521
0.101223
0.099939
0.0986709
0.0974178
0.0961683
0.0949204
0.0936605
0.0923762
0.0910654
0.0897266
0.0883573
0.0869566
0.0855298
0.0840666
0.0825595
0.0810023
0.0793694
0.0776462
0.075809
0.0738425
0.0717413
0.0695028
0.0671172
0.0645775
0.0618728
0.0589879
0.0559166
0.0526504
0.0491885
0.0455369
0.0417107
0.0377292
0.0336115
0.0294041
0.0251456
0.0209087
0.0167677
0.0127049
0.00871384
0.00478937
0.000926786
-0.00287797
-0.00662838
-0.0103277
-0.0139787
-0.0175844
-0.0211473
-0.0246699
-0.0281548
-0.0316044
-0.0350211
-0.0384073
-0.0417651
-0.0450967
-0.0484042
-0.0516895
-0.0549546
-0.0582013
-0.0614311
-0.0646457
-0.0678466
-0.0710352
-0.0742127
-0.0773803
-0.0805393
-0.0836907
-0.0868354
-0.0899745
-0.0931087
-0.0962388
-0.0993658
-0.10249
-0.105613
-0.108735
0.217495
0.211326
0.205258
0.199411
0.193886
0.18874
0.184003
0.179679
0.175764
0.172234
0.169065
0.166199
0.163595
0.161205
0.158982
0.156893
0.154912
0.153006
0.151116
0.149233
0.147343
0.145412
0.143437
0.14142
0.139361
0.137263
0.135134
0.132982
0.130814
0.128634
0.126448
0.124264
0.122105
0.119998
0.117967
0.116027
0.114198
0.112492
0.110893
0.109379
0.107899
0.106448
0.105022
0.103618
0.10224
0.100888
0.0995602
0.0982481
0.0969546
0.0956777
0.0944088
0.0931417
0.0918676
0.0905734
0.0892562
0.0879154
0.0865476
0.0851523
0.0837364
0.0822947
0.0808192
0.0793022
0.0777193
0.076054
0.0742761
0.0723679
0.0703251
0.0681439
0.0658197
0.0633452
0.0607125
0.0579103
0.0549293
0.0517578
0.0483917
0.0448359
0.0410965
0.0371867
0.0331228
0.0289565
0.024739
0.0205273
0.0164016
0.0123521
0.008374
0.00446266
0.00061361
-0.00317716
-0.00691317
-0.0105977
-0.0142339
-0.0178247
-0.0213727
-0.0248807
-0.0283513
-0.031787
-0.0351903
-0.0385636
-0.041909
-0.045229
-0.0485254
-0.0518003
-0.0550555
-0.0582929
-0.0615141
-0.0647207
-0.067914
-0.0710956
-0.0742665
-0.0774281
-0.0805813
-0.0837273
-0.086867
-0.0900013
-0.0931309
-0.0962568
-0.0993796
-0.1025
-0.105619
-0.108737
0.217539
0.211492
0.205605
0.199944
0.194573
0.189567
0.184962
0.180761
0.176955
0.173517
0.170428
0.167629
0.165073
0.162712
0.160502
0.158413
0.15642
0.154486
0.152561
0.150625
0.148663
0.146649
0.144582
0.142465
0.140294
0.13807
0.135803
0.133503
0.131177
0.128829
0.126465
0.124099
0.12175
0.119449
0.117224
0.115099
0.113099
0.111244
0.109534
0.10794
0.106405
0.104906
0.103435
0.101991
0.100577
0.0991902
0.0978291
0.0964872
0.0951661
0.0938626
0.092569
0.0912771
0.0899797
0.088667
0.0873347
0.0859834
0.0846107
0.0832175
0.0818093
0.0803828
0.0789333
0.0774499
0.075912
0.074302
0.0725846
0.0707396
0.0687614
0.0666446
0.0643868
0.0619818
0.0594229
0.0567017
0.0538093
0.0507345
0.0474671
0.0440064
0.0403528
0.0365262
0.0325381
0.0284303
0.0242573
0.020072
0.0159682
0.0119384
0.00797894
0.00408559
0.000254279
-0.00351878
-0.00723707
-0.0109039
-0.0145225
-0.0180957
-0.0216265
-0.0251176
-0.0285718
-0.0319916
-0.0353796
-0.0387382
-0.0420697
-0.0453764
-0.0486603
-0.0519234
-0.0551677
-0.0583947
-0.0616062
-0.0648038
-0.0679887
-0.0711624
-0.074326
-0.0774808
-0.0806277
-0.0837677
-0.0869018
-0.0900308
-0.0931555
-0.0962766
-0.0993948
-0.102511
-0.105625
-0.108739
0.217608
0.211709
0.205979
0.200494
0.19531
0.190471
0.186006
0.181934
0.178251
0.174925
0.171926
0.169192
0.16668
0.164346
0.162153
0.160067
0.158064
0.156105
0.15413
0.152135
0.150097
0.148012
0.145871
0.14366
0.14138
0.139036
0.136634
0.13419
0.131706
0.129187
0.12664
0.124081
0.12153
0.119016
0.116577
0.114245
0.112051
0.110022
0.108169
0.106472
0.104874
0.103323
0.101804
0.100318
0.098866
0.0974423
0.0960469
0.0946741
0.0933246
0.0919932
0.0906723
0.0893537
0.0880301
0.0866953
0.0853445
0.0839778
0.0825942
0.0811956
0.0797875
0.0783691
0.076936
0.0754794
0.0739784
0.0724147
0.0707518
0.0689682
0.067054
0.0650056
0.0628203
0.0604917
0.0580138
0.0553815
0.0525832
0.049606
0.0464386
0.043077
0.0395218
0.0357857
0.0318803
0.0278396
0.0237112
0.019549
0.0154706
0.0114654
0.00752937
0.00365845
-0.000151099
-0.00390281
-0.00760005
-0.0112461
-0.0148442
-0.0183973
-0.0219083
-0.0253803
-0.0288158
-0.0322177
-0.0355885
-0.0389307
-0.0422466
-0.0455385
-0.0488084
-0.0520585
-0.0552904
-0.058506
-0.0617069
-0.0648944
-0.0680701
-0.0712352
-0.0743909
-0.0775382
-0.0806781
-0.0838117
-0.0869397
-0.0900629
-0.0931821
-0.096298
-0.0994113
-0.102522
-0.105632
-0.108741
0.217731
0.212054
0.206516
0.201202
0.196184
0.19151
0.187197
0.18326
0.179693
0.176461
0.173533
0.170859
0.168391
0.166087
0.163908
0.161823
0.159807
0.157813
0.15579
0.153759
0.15167
0.149523
0.147299
0.144995
0.142612
0.140151
0.137621
0.135037
0.132398
0.129707
0.126976
0.124217
0.121452
0.118714
0.116049
0.113498
0.111094
0.108872
0.106853
0.105022
0.103332
0.101719
0.100146
0.0986119
0.0971189
0.0956573
0.0942271
0.0928226
0.0914444
0.0900859
0.0887382
0.0873929
0.0860433
0.0846851
0.0833146
0.0819305
0.0805331
0.079124
0.077709
0.0762898
0.074863
0.0734226
0.0719492
0.070422
0.0688077
0.0670821
0.0652305
0.0632501
0.0611371
0.0588871
0.0564939
0.0539519
0.0512504
0.048376
0.0453155
0.042059
0.0386018
0.0349484
0.0311218
0.0271535
0.0230839
0.0189565
0.01491
0.0109346
0.00702639
0.00318201
-0.000601982
-0.00432882
-0.00800175
-0.011624
-0.0151987
-0.018729
-0.0222178
-0.0256682
-0.0290829
-0.0324647
-0.0358164
-0.0391403
-0.0424389
-0.0457145
-0.0489691
-0.0522047
-0.0554232
-0.0586263
-0.0618155
-0.0649922
-0.0681578
-0.0713136
-0.0744606
-0.0775998
-0.0807323
-0.0838588
-0.0869802
-0.0900973
-0.0932107
-0.096321
-0.0994289
-0.102535
-0.10564
-0.108744
0.217823
0.212353
0.207038
0.201938
0.197113
0.192609
0.188452
0.184654
0.181203
0.178073
0.175231
0.172622
0.170196
0.167915
0.165746
0.163661
0.161629
0.159611
0.157555
0.155487
0.153347
0.151141
0.148846
0.146456
0.143974
0.141402
0.138748
0.136026
0.133228
0.130362
0.127441
0.124484
0.121512
0.118555
0.115656
0.112872
0.110246
0.107816
0.105604
0.103611
0.101799
0.100105
0.0984738
0.0968876
0.0953487
0.0938471
0.0923818
0.0909455
0.0895381
0.0881528
0.0867796
0.0854088
0.0840346
0.0826537
0.0812636
0.0798628
0.0784515
0.0770309
0.075605
0.0741778
0.0727484
0.0713124
0.0698542
0.0683491
0.0667692
0.0650943
0.0633041
0.061394
0.0593562
0.0571853
0.0548758
0.0524227
0.0498151
0.0470401
0.0440821
0.0409264
0.0375719
0.0340133
0.0302663
0.0263728
0.0223769
0.0182974
0.0142892
0.0103479
0.00647157
0.00265743
-0.00109748
-0.00479612
-0.00844158
-0.012037
-0.0155855
-0.0190903
-0.0225543
-0.0259807
-0.0293723
-0.032732
-0.0360625
-0.0393663
-0.0426459
-0.0459036
-0.0491415
-0.0523615
-0.0555654
-0.0587548
-0.0619314
-0.0650964
-0.0682512
-0.0713969
-0.0745346
-0.0776653
-0.0807897
-0.0839088
-0.0870232
-0.0901337
-0.0932409
-0.0963453
-0.0994476
-0.102548
-0.105648
-0.108746
0.21795
0.212715
0.207612
0.202714
0.198079
0.193748
0.189749
0.186089
0.18276
0.179734
0.176973
0.174426
0.172045
0.169794
0.16764
0.165553
0.1635
0.161459
0.159374
0.157268
0.155087
0.152828
0.150465
0.148003
0.145438
0.142771
0.140003
0.137143
0.134184
0.131141
0.128033
0.124881
0.121706
0.118534
0.115402
0.112374
0.109508
0.106849
0.104425
0.102251
0.100296
0.0984981
0.096799
0.0951584
0.0935689
0.0920238
0.090522
0.0890537
0.0876163
0.0862039
0.0848063
0.0834118
0.0820148
0.0806126
0.079204
0.0777877
0.0763641
0.0749336
0.0734981
0.0720605
0.0706217
0.0691797
0.0677244
0.0662339
0.0646794
0.063042
0.0613008
0.0594509
0.0574821
0.0553876
0.0531618
0.0507983
0.0482833
0.045607
0.0427531
0.0397048
0.0364575
0.0330089
0.0293681
0.0255585
0.0216216
0.0175818
0.0136125
0.0097082
0.0058669
0.00208623
-0.00163644
-0.00530379
-0.00891879
-0.0124845
-0.016004
-0.0194805
-0.0229172
-0.0263171
-0.0296832
-0.0330186
-0.0363259
-0.0396078
-0.0428668
-0.046105
-0.0493247
-0.0525278
-0.0557159
-0.0588908
-0.0620539
-0.0652064
-0.0683497
-0.0714847
-0.0746125
-0.077734
-0.08085
-0.0839612
-0.0870683
-0.0901719
-0.0932725
-0.0963708
-0.0994671
-0.102562
-0.105656
-0.108749
0.218079
0.213086
0.208207
0.203519
0.199074
0.194926
0.191096
0.187589
0.184391
0.18147
0.178782
0.176286
0.173941
0.171715
0.169572
0.167482
0.165414
0.163352
0.161247
0.159105
0.156886
0.154573
0.152153
0.149627
0.146983
0.144212
0.141322
0.138322
0.135209
0.131998
0.128709
0.125367
0.121998
0.11862
0.115263
0.11199
0.108876
0.10598
0.103337
0.100967
0.0988486
0.0969252
0.0951349
0.0934317
0.0917918
0.0902016
0.0886614
0.0871595
0.0856911
0.0842504
0.0828283
0.0814113
0.0799932
0.0785718
0.0771462
0.0757157
0.0742805
0.0728409
0.0713976
0.0699517
0.0685035
0.0670509
0.0655869
0.0640947
0.062552
0.060942
0.0592434
0.0574408
0.0555305
0.0535045
0.0513565
0.0490775
0.046653
0.0440746
0.0413251
0.0383888
0.0352564
0.0319233
0.0283886
0.0246724
0.0208074
0.0168102
0.0128826
0.00901802
0.00521451
0.00147007
-0.00221756
-0.00585082
-0.00943252
-0.0129657
-0.0164534
-0.0198989
-0.0233055
-0.0266764
-0.0300148
-0.0333236
-0.0366057
-0.0398638
-0.0431003
-0.0463177
-0.0495178
-0.0527027
-0.0558741
-0.0590334
-0.0621821
-0.0653214
-0.0684524
-0.0715762
-0.0746937
-0.0778056
-0.0809127
-0.0840157
-0.0871151
-0.0902115
-0.0933053
-0.0963971
-0.0994873
-0.102576
-0.105664
-0.108752
0.218202
0.213457
0.208817
0.204348
0.200109
0.196145
0.192478
0.189112
0.18603
0.183203
0.18059
0.178153
0.17585
0.173648
0.171516
0.169428
0.167354
0.165274
0.163149
0.16097
0.158709
0.156349
0.153879
0.151287
0.148556
0.145682
0.142674
0.139533
0.136267
0.132893
0.129432
0.125909
0.122349
0.118775
0.115209
0.111705
0.108345
0.105205
0.102335
0.0997569
0.0974578
0.0953928
0.0934989
0.0917224
0.0900288
0.0883928
0.0868127
0.0852754
0.0837748
0.0823045
0.0808568
0.0794172
0.0779787
0.0765385
0.0750959
0.0736511
0.0722044
0.0707557
0.0693047
0.0678501
0.0663914
0.064927
0.0634517
0.0619536
0.0604135
0.0588163
0.057149
0.0553912
0.0535341
0.0515633
0.0494816
0.0472811
0.0449451
0.0424618
0.0398155
0.0369937
0.0339794
0.0307641
0.0273382
0.0237174
0.0199314
0.0159844
0.0121023
0.00828016
0.00451675
0.000810765
-0.0028395
-0.00643617
-0.00998192
-0.0134797
-0.0169329
-0.0203446
-0.0237185
-0.0270578
-0.0303658
-0.0336458
-0.0369006
-0.040133
-0.0433455
-0.0465403
-0.0497196
-0.0528852
-0.0560387
-0.0591815
-0.0623151
-0.0654405
-0.0685587
-0.0716708
-0.0747774
-0.0778793
-0.0809772
-0.0840717
-0.0871632
-0.0902521
-0.093339
-0.0964242
-0.0995081
-0.102591
-0.105673
-0.108755
0.218331
0.213839
0.20944
0.205199
0.201173
0.197397
0.193891
0.190662
0.187698
0.184965
0.182423
0.180035
0.177767
0.175589
0.173473
0.171388
0.16931
0.167212
0.165067
0.162857
0.160557
0.158156
0.155635
0.152972
0.150155
0.147187
0.144058
0.140771
0.137346
0.133804
0.130169
0.12647
0.122728
0.118968
0.115208
0.111489
0.107893
0.104514
0.101416
0.0986347
0.0961613
0.0939491
0.0919352
0.0900647
0.088301
0.0866139
0.0849901
0.0834158
0.081881
0.0803785
0.0789018
0.0774377
0.075978
0.0745194
0.0730597
0.0715992
0.0701392
0.068679
0.0672182
0.0657536
0.0642832
0.0628056
0.0613152
0.0598054
0.0582618
0.0566732
0.0550235
0.0532963
0.0514861
0.0495746
0.0475586
0.0454304
0.0431767
0.0407834
0.0382376
0.0355279
0.0326318
0.0295401
0.026236
0.0227171
0.0190056
0.0151088
0.0112751
0.00749776
0.00377611
0.000110107
-0.00350099
-0.00705892
-0.0105662
-0.014026
-0.0174416
-0.0208167
-0.024155
-0.0274599
-0.0307351
-0.0339839
-0.0372093
-0.040414
-0.0436007
-0.0467716
-0.0499287
-0.0530739
-0.0562085
-0.0593341
-0.0624518
-0.0655627
-0.0686677
-0.0717675
-0.074863
-0.0779547
-0.0810431
-0.0841288
-0.0872121
-0.0902935
-0.0933733
-0.0964518
-0.0995292
-0.102606
-0.105682
-0.108758
0.218455
0.21421
0.210053
0.206044
0.202228
0.19864
0.195302
0.192214
0.189363
0.186719
0.184247
0.18191
0.179683
0.177528
0.175427
0.173347
0.171267
0.169153
0.166991
0.164761
0.162428
0.159982
0.157401
0.154659
0.151751
0.148668
0.145407
0.141982
0.138407
0.134694
0.130884
0.127018
0.123112
0.119182
0.115235
0.11131
0.107495
0.103893
0.10058
0.0975935
0.0949355
0.0925704
0.0904406
0.088484
0.0866494
0.0849048
0.08323
0.0816114
0.0800366
0.0784971
0.0769853
0.0754902
0.0740031
0.0725211
0.071041
0.0695614
0.0680842
0.0666086
0.0651342
0.0636572
0.0621734
0.0606815
0.0591751
0.0576511
0.0560991
0.0545123
0.0528776
0.051178
0.0494035
0.0475424
0.045588
0.0435304
0.0413584
0.0390542
0.0366032
0.0339948
0.0312058
0.0282235
0.0250323
0.0216318
0.0180207
0.0141826
0.0104031
0.00667352
0.00299481
-0.000630395
-0.00420111
-0.00771847
-0.011185
-0.0146039
-0.0179791
-0.0213144
-0.0246139
-0.0278817
-0.0311213
-0.0343364
-0.0375301
-0.0407053
-0.0438645
-0.04701
-0.0501437
-0.0532674
-0.0563823
-0.0594899
-0.0625912
-0.0656871
-0.0687783
-0.0718657
-0.0749497
-0.0780309
-0.0811097
-0.0841864
-0.0872616
-0.0903353
-0.0934078
-0.0964795
-0.0995504
-0.102621
-0.105691
-0.108761
0.21858
0.214583
0.210664
0.206879
0.203271
0.199869
0.19669
0.193736
0.190996
0.188443
0.186037
0.183749
0.181564
0.179435
0.177352
0.17528
0.173201
0.171082
0.168906
0.166648
0.164281
0.16179
0.159153
0.156329
0.153315
0.150102
0.146692
0.143102
0.139356
0.13548
0.131524
0.127524
0.123475
0.119379
0.115249
0.111135
0.107131
0.103343
0.0998472
0.0966844
0.0938603
0.0913404
0.0890698
0.0869983
0.0850754
0.083264
0.081535
0.0798682
0.0782505
0.0766703
0.0751186
0.0735862
0.0720646
0.0705515
0.069044
0.0675391
0.0660386
0.0645415
0.0630473
0.061553
0.0600531
0.0585451
0.0570232
0.0554838
0.0539212
0.052331
0.0507049
0.0490295
0.0472893
0.0454749
0.0435792
0.0415924
0.0394998
0.0372811
0.0349199
0.0324065
0.0297229
0.0268531
0.0237799
0.020497
0.0169856
0.0131997
0.00948456
0.00580837
0.00217404
-0.00141005
-0.00493965
-0.00841482
-0.0118381
-0.0152132
-0.0185445
-0.0218367
-0.0250942
-0.0283215
-0.0315227
-0.0347015
-0.0378613
-0.041005
-0.0441351
-0.0472538
-0.0503629
-0.0534641
-0.0565587
-0.0596476
-0.0627319
-0.0658124
-0.0688897
-0.0719643
-0.0750367
-0.0781072
-0.0811763
-0.0842441
-0.0873109
-0.0903769
-0.0934423
-0.0965071
-0.0995716
-0.102636
-0.1057
-0.108764
0.218704
0.214952
0.211269
0.207705
0.204297
0.201073
0.198051
0.195227
0.192592
0.190119
0.187776
0.185537
0.183395
0.181292
0.179232
0.177175
0.175099
0.172974
0.170784
0.168504
0.166106
0.163566
0.160856
0.157942
0.154824
0.151482
0.147912
0.144133
0.140185
0.13613
0.132033
0.127904
0.123716
0.119472
0.115188
0.110921
0.106774
0.102847
0.0992083
0.0958976
0.0929215
0.0902582
0.0878572
0.0856688
0.0836431
0.0817439
0.0799424
0.0782141
0.0765417
0.0749113
0.0733118
0.0717339
0.0701699
0.0686171
0.067073
0.0655344
0.0640022
0.0624757
0.0609536
0.0594343
0.0579125
0.0563844
0.0548459
0.0532919
0.0517193
0.0501263
0.048506
0.0468492
0.0451414
0.0433739
0.0415377
0.0396215
0.037607
0.0354736
0.0332044
0.0307878
0.0282079
0.0254482
0.0224875
0.0193119
0.0158885
0.0121144
0.00850838
0.00490089
0.00131354
-0.00222949
-0.00571749
-0.00914881
-0.0125261
-0.0158539
-0.0191376
-0.0223826
-0.0255943
-0.0287777
-0.0319373
-0.0350771
-0.0382007
-0.0413109
-0.0444103
-0.0475009
-0.0505845
-0.0536624
-0.0567358
-0.0598057
-0.0628727
-0.0659376
-0.0690006
-0.0720624
-0.0751231
-0.078183
-0.0812423
-0.0843012
-0.0873598
-0.0904181
-0.0934763
-0.0965344
-0.0995925
-0.102651
-0.105709
-0.108766
0.218827
0.215315
0.211864
0.208515
0.205301
0.202248
0.199374
0.196675
0.194142
0.191743
0.189464
0.18727
0.185173
0.183098
0.18106
0.179018
0.17695
0.174832
0.172637
0.170339
0.167909
0.165313
0.162527
0.159518
0.156272
0.152769
0.149014
0.145033
0.14087
0.136621
0.132377
0.128121
0.123805
0.119429
0.115032
0.110674
0.106452
0.102448
0.0987156
0.0952866
0.0921719
0.0893605
0.086817
0.0844991
0.0823607
0.0803632
0.0784748
0.0766705
0.0749295
0.0732364
0.0715781
0.0699443
0.0683279
0.0667256
0.0651351
0.0635529
0.061979
0.060413
0.0588534
0.0572988
0.0557456
0.05419
0.0526295
0.0510598
0.0494803
0.0478899
0.0462838
0.0446529
0.0429827
0.0412624
0.0394835
0.0376355
0.0357005
0.0336575
0.0314844
0.0291672
0.0266892
0.0240349
0.0211797
0.0180993
0.0147314
0.010355
0.00747067
0.00395526
0.000413507
-0.00309053
-0.00653697
-0.00992249
-0.0132504
-0.0165266
-0.0197579
-0.0229512
-0.0261127
-0.0292483
-0.0323629
-0.0354608
-0.0385457
-0.0416206
-0.0446877
-0.0477491
-0.0508062
-0.0538602
-0.0569121
-0.0599626
-0.0630121
-0.0660612
-0.0691101
-0.0721589
-0.075208
-0.0782574
-0.081307
-0.0843571
-0.0874076
-0.0904584
-0.0935096
-0.0965611
-0.0996129
-0.102665
-0.105717
-0.108769
0.218944
0.215664
0.212434
0.209292
0.206268
0.203385
0.200653
0.198071
0.195633
0.193306
0.191088
0.188932
0.186868
0.184817
0.182798
0.180768
0.178708
0.17659
0.174388
0.172072
0.169609
0.166968
0.164116
0.161009
0.157621
0.153944
0.149992
0.145789
0.141397
0.136951
0.13255
0.128164
0.123727
0.119245
0.114793
0.110435
0.106227
0.102216
0.0984366
0.0949157
0.0916725
0.0887124
0.0860153
0.0835472
0.0812708
0.0791511
0.0771556
0.0752568
0.0734308
0.0716608
0.0699317
0.0682324
0.0665547
0.0648941
0.063248
0.0616121
0.0599859
0.0583689
0.0567595
0.0551558
0.0535564
0.0519605
0.0503683
0.0487795
0.0471985
0.0456221
0.0440468
0.0424602
0.0408468
0.0391899
0.037476
0.0356932
0.0338261
0.0318622
0.0297794
0.0275599
0.0251814
0.0226272
0.0198779
0.0169179
0.0137116
0.0101075
0.00655428
0.00300378
-0.000523004
-0.00399632
-0.00740223
-0.0107394
-0.0140132
-0.0172321
-0.0204052
-0.023541
-0.0266473
-0.0297306
-0.0327965
-0.0358496
-0.0388935
-0.0419312
-0.0449647
-0.0479958
-0.0510258
-0.0540555
-0.0570856
-0.0601165
-0.0631486
-0.0661819
-0.0692167
-0.0722529
-0.0752905
-0.0783295
-0.0813698
-0.0844113
-0.0874538
-0.0904973
-0.0935417
-0.0965869
-0.0996326
-0.102679
-0.105725
-0.108772
0.219054
0.21599
0.212969
0.210023
0.207181
0.204461
0.201868
0.199402
0.197055
0.194791
0.192626
0.190509
0.18847
0.186439
0.184428
0.182401
0.180341
0.17822
0.176014
0.173687
0.171201
0.168507
0.165563
0.162331
0.158798
0.154967
0.150833
0.146409
0.141785
0.137146
0.132587
0.128062
0.123529
0.119012
0.114593
0.1103
0.106136
0.10214
0.0983484
0.0947771
0.0914382
0.0883357
0.0854716
0.0828365
0.0804025
0.0781381
0.0760112
0.0739935
0.0720615
0.0701991
0.0683903
0.0666211
0.0648797
0.0631586
0.0614523
0.0597554
0.0580668
0.0563859
0.0547108
0.0530389
0.0513723
0.0497148
0.048077
0.0464662
0.0448953
0.0433542
0.0418395
0.0403253
0.0387936
0.0372181
0.0355764
0.0338567
0.0320448
0.0301395
0.0281268
0.0259902
0.0237012
0.0212408
0.0185891
0.0157279
0.0126346
0.0091663
0.00557419
0.00201098
-0.00150728
-0.00495523
-0.00832057
-0.0116049
-0.0148178
-0.0179717
-0.0210789
-0.0241503
-0.0271953
-0.0302215
-0.0332347
-0.0362399
-0.0392405
-0.0422393
-0.0452381
-0.0482382
-0.0512406
-0.0542458
-0.0572541
-0.0602656
-0.0632804
-0.0662984
-0.0693194
-0.0723432
-0.0753697
-0.0783986
-0.0814298
-0.084463
-0.087498
-0.0905345
-0.0935724
-0.0966114
-0.0996514
-0.102692
-0.105733
-0.108775
0.219156
0.216297
0.213473
0.210714
0.208046
0.205484
0.203028
0.200672
0.19841
0.196207
0.194079
0.191994
0.189955
0.187923
0.185901
0.183863
0.181788
0.179649
0.177419
0.175065
0.172538
0.169781
0.166757
0.163421
0.159766
0.155808
0.151521
0.146897
0.142052
0.137221
0.13251
0.127878
0.123288
0.118769
0.114408
0.110223
0.106177
0.102265
0.0985031
0.0949033
0.0914801
0.0882505
0.0852288
0.0824167
0.0798023
0.0773625
0.0750694
0.0729002
0.0708375
0.0688688
0.0669791
0.0651481
0.0633541
0.0615838
0.0598238
0.0580688
0.0563144
0.0545606
0.0528025
0.0510349
0.0492723
0.0475224
0.0458243
0.0441874
0.0426586
0.0411821
0.0397734
0.0383609
0.0369307
0.035442
0.0338592
0.0321944
0.0304183
0.0285507
0.0265805
0.0245025
0.022281
0.0198881
0.0173031
0.0145185
0.0115183
0.00813559
0.00453967
0.000967741
-0.00255263
-0.00598152
-0.00930398
-0.0125272
-0.0156683
-0.0187462
-0.0217776
-0.0247763
-0.0277531
-0.0307166
-0.0336731
-0.0366273
-0.0395825
-0.0425411
-0.0455043
-0.0484731
-0.0514479
-0.0544287
-0.0574155
-0.0604081
-0.063406
-0.066409
-0.0694167
-0.0724287
-0.0754445
-0.0784639
-0.0814864
-0.0845117
-0.0875395
-0.0905694
-0.0936012
-0.0966345
-0.099669
-0.102704
-0.105741
-0.108777
0.219249
0.216578
0.213945
0.211377
0.208888
0.206484
0.204162
0.201907
0.199716
0.197556
0.195443
0.193362
0.191295
0.189233
0.187169
0.185086
0.182965
0.180782
0.178506
0.176103
0.17352
0.170706
0.167607
0.164172
0.16041
0.156356
0.151971
0.147218
0.14222
0.137231
0.132399
0.127733
0.123175
0.118732
0.114457
0.110362
0.106413
0.102579
0.0988584
0.095262
0.0917994
0.0884793
0.0853204
0.0823414
0.0795378
0.076888
0.0743774
0.0720064
0.0697832
0.0676998
0.0657446
0.0638825
0.0620696
0.0602811
0.058485
0.0566952
0.0548877
0.0530651
0.0512137
0.0493106
0.0474226
0.0455459
0.0438124
0.042129
0.0407388
0.0393086
0.0380402
0.0367128
0.0353544
0.0339114
0.0323117
0.0307145
0.0289406
0.027097
0.0251411
0.0230966
0.0209254
0.0185917
0.0160615
0.0133255
0.0103917
0.00707979
0.00345773
-0.000138926
-0.00368557
-0.00710143
-0.0103716
-0.0135173
-0.0165694
-0.0195558
-0.0224987
-0.0254145
-0.0283154
-0.0312105
-0.0341061
-0.0370065
-0.0399147