/*--------------------------------*- C++ -*----------------------------------*\
  =========                 |
  \\      /  F ield         | OpenFOAM: The Open Source CFD Toolbox
   \\    /   O peration     | Website:  https://openfoam.org
    \\  /    A nd           | Version:  6
     \\/     M anipulation  |
\*---------------------------------------------------------------------------*/
FoamFile
{
    version     2.0;
    format      ascii;
    class       volScalarField;
    location    "2350";
    object      T;
}
// * * * * * * * * * * * * * * * * * * * * * * * * * * * * * * * * * * * * * //

dimensions      [0 0 0 1 0 0 0];

internalField   nonuniform List<scalar> 
4800
(
552.44
552.22
552
551.782
551.568
551.361
551.165
550.981
550.811
550.657
550.518
550.394
550.283
550.184
550.095
550.015
549.944
549.878
549.817
549.76
549.706
549.653
549.602
549.551
549.501
549.451
549.402
549.352
549.302
549.252
549.203
549.155
549.107
549.059
549.012
548.965
548.919
548.873
548.827
548.783
548.738
548.694
548.651
548.608
548.565
548.523
548.48
548.437
548.394
548.35
548.305
548.26
548.214
548.167
548.118
548.068
548.016
547.962
547.907
547.849
547.79
547.727
547.662
547.593
547.52
547.44
547.355
547.262
547.16
547.049
546.929
546.798
546.658
546.513
546.364
546.214
546.064
545.916
545.77
545.626
545.482
545.336
545.191
545.046
544.903
544.761
544.62
544.481
544.344
544.209
544.075
543.942
543.812
543.682
543.554
543.427
543.302
543.177
543.054
542.932
542.81
542.69
542.57
542.451
542.333
542.215
542.098
541.982
541.866
541.75
541.635
541.52
541.405
541.291
541.176
541.062
540.948
540.834
540.721
540.607
552.438
552.214
551.99
551.77
551.556
551.351
551.156
550.975
550.807
550.655
550.517
550.395
550.285
550.187
550.1
550.021
549.949
549.884
549.823
549.765
549.711
549.657
549.605
549.554
549.503
549.452
549.402
549.351
549.3
549.25
549.199
549.15
549.101
549.052
549.004
548.957
548.91
548.864
548.819
548.774
548.729
548.685
548.641
548.598
548.555
548.512
548.469
548.426
548.383
548.339
548.294
548.249
548.203
548.155
548.107
548.057
548.005
547.952
547.896
547.839
547.78
547.718
547.653
547.584
547.511
547.432
547.347
547.254
547.154
547.044
546.926
546.799
546.664
546.523
546.376
546.226
546.075
545.924
545.776
545.63
545.483
545.336
545.19
545.045
544.902
544.76
544.619
544.48
544.343
544.208
544.074
543.941
543.811
543.681
543.553
543.426
543.301
543.176
543.053
542.931
542.81
542.689
542.57
542.451
542.333
542.215
542.098
541.981
541.865
541.75
541.634
541.52
541.405
541.29
541.176
541.062
540.948
540.834
540.721
540.607
552.435
552.206
551.98
551.758
551.543
551.339
551.147
550.968
550.804
550.655
550.521
550.4
550.293
550.197
550.111
550.033
549.962
549.896
549.835
549.776
549.72
549.666
549.612
549.559
549.507
549.454
549.402
549.349
549.296
549.244
549.192
549.141
549.09
549.04
548.991
548.942
548.895
548.848
548.802
548.756
548.711
548.666
548.622
548.578
548.534
548.491
548.448
548.405
548.361
548.317
548.273
548.228
548.181
548.134
548.085
548.035
547.984
547.931
547.876
547.819
547.76
547.698
547.633
547.565
547.492
547.414
547.33
547.239
547.141
547.034
546.919
546.796
546.666
546.529
546.385
546.238
546.088
545.937
545.786
545.635
545.485
545.336
545.189
545.043
544.899
544.757
544.617
544.478
544.341
544.205
544.071
543.939
543.808
543.679
543.551
543.425
543.299
543.175
543.052
542.93
542.809
542.688
542.569
542.45
542.332
542.214
542.097
541.981
541.865
541.749
541.634
541.519
541.405
541.29
541.176
541.062
540.948
540.834
540.72
540.607
552.433
552.2
551.97
551.747
551.534
551.331
551.142
550.966
550.806
550.661
550.53
550.412
550.307
550.213
550.128
550.051
549.98
549.914
549.852
549.793
549.735
549.679
549.623
549.568
549.513
549.458
549.402
549.347
549.292
549.237
549.182
549.128
549.075
549.023
548.972
548.922
548.873
548.825
548.778
548.731
548.685
548.64
548.594
548.549
548.505
548.461
548.417
548.373
548.33
548.286
548.241
548.196
548.15
548.103
548.054
548.005
547.954
547.901
547.846
547.79
547.731
547.669
547.605
547.537
547.465
547.388
547.306
547.217
547.121
547.018
546.907
546.788
546.662
546.529
546.39
546.246
546.097
545.946
545.792
545.638
545.485
545.335
545.187
545.041
544.896
544.754
544.613
544.474
544.337
544.202
544.068
543.936
543.805
543.676
543.549
543.422
543.297
543.173
543.05
542.928
542.807
542.687
542.567
542.449
542.331
542.213
542.096
541.98
541.864
541.749
541.633
541.519
541.404
541.29
541.176
541.062
540.948
540.834
540.72
540.607
552.431
552.195
551.965
551.742
551.53
551.33
551.143
550.972
550.815
550.673
550.546
550.431
550.328
550.235
550.152
550.075
550.005
549.939
549.876
549.815
549.756
549.697
549.639
549.581
549.523
549.464
549.405
549.346
549.287
549.228
549.17
549.113
549.057
549.002
548.948
548.896
548.845
548.795
548.747
548.699
548.652
548.605
548.558
548.512
548.467
548.422
548.378
548.333
548.289
548.245
548.201
548.156
548.11
548.063
548.015
547.965
547.914
547.862
547.808
547.752
547.694
547.633
547.57
547.502
547.431
547.355
547.275
547.188
547.095
546.995
546.888
546.773
546.651
546.522
546.387
546.245
546.099
545.948
545.795
545.639
545.483
545.332
545.183
545.036
544.891
544.749
544.608
544.469
544.332
544.197
544.064
543.932
543.801
543.673
543.545
543.419
543.294
543.17
543.047
542.925
542.805
542.685
542.565
542.447
542.329
542.212
542.095
541.979
541.863
541.748
541.633
541.518
541.403
541.289
541.175
541.061
540.948
540.834
540.72
540.607
552.43
552.193
551.963
551.743
551.533
551.336
551.153
550.985
550.832
550.693
550.569
550.457
550.356
550.265
550.183
550.107
550.036
549.97
549.906
549.843
549.782
549.721
549.659
549.598
549.536
549.473
549.41
549.347
549.284
549.221
549.158
549.097
549.037
548.978
548.921
548.865
548.811
548.76
548.709
548.659
548.611
548.563
548.515
548.468
548.422
548.376
548.331
548.286
548.241
548.197
548.152
548.108
548.062
548.015
547.967
547.918
547.868
547.816
547.763
547.708
547.651
547.591
547.529
547.463
547.393
547.318
547.239
547.154
547.063
546.966
546.862
546.751
546.633
546.508
546.376
546.237
546.093
545.943
545.788
545.633
545.476
545.326
545.177
545.03
544.885
544.742
544.601
544.463
544.326
544.191
544.058
543.926
543.796
543.668
543.541
543.415
543.29
543.166
543.044
542.922
542.802
542.682
542.563
542.445
542.327
542.21
542.094
541.977
541.862
541.747
541.632
541.517
541.403
541.289
541.175
541.061
540.947
540.834
540.72
540.607
552.432
552.197
551.968
551.75
551.543
551.349
551.17
551.005
550.856
550.721
550.6
550.49
550.392
550.303
550.221
550.145
550.074
550.007
549.942
549.877
549.813
549.749
549.685
549.619
549.553
549.486
549.419
549.351
549.283
549.216
549.148
549.082
549.016
548.952
548.89
548.831
548.774
548.719
548.666
548.615
548.565
548.516
548.467
548.418
548.371
548.324
548.278
548.232
548.187
548.142
548.097
548.053
548.007
547.961
547.913
547.864
547.814
547.763
547.711
547.657
547.601
547.543
547.482
547.417
547.349
547.276
547.198
547.115
547.026
546.932
546.831
546.723
546.608
546.487
546.358
546.222
546.08
545.933
545.781
545.627
545.472
545.319
545.169
545.021
544.876
544.734
544.593
544.455
544.319
544.184
544.051
543.92
543.79
543.662
543.535
543.41
543.285
543.162
543.04
542.919
542.798
542.679
542.56
542.442
542.325
542.208
542.092
541.976
541.86
541.745
541.631
541.516
541.402
541.288
541.174
541.06
540.947
540.833
540.72
540.607
552.434
552.204
551.979
551.763
551.56
551.369
551.194
551.033
550.887
550.756
550.637
550.531
550.434
550.346
550.265
550.19
550.118
550.05
549.983
549.917
549.851
549.784
549.716
549.646
549.576
549.504
549.432
549.359
549.286
549.213
549.14
549.067
548.996
548.926
548.858
548.794
548.733
548.675
548.62
548.567
548.515
548.464
548.414
548.365
548.316
548.268
548.221
548.174
548.128
548.083
548.038
547.992
547.947
547.9
547.853
547.804
547.754
547.704
547.652
547.599
547.544
547.488
547.428
547.366
547.299
547.228
547.152
547.071
546.984
546.892
546.794
546.689
546.578
546.459
546.334
546.201
546.063
545.918
545.769
545.616
545.462
545.308
545.158
545.011
544.866
544.724
544.584
544.446
544.31
544.175
544.043
543.912
543.783
543.655
543.529
543.404
543.28
543.157
543.035
542.915
542.795
542.675
542.557
542.439
542.322
542.206
542.089
541.974
541.859
541.744
541.629
541.515
541.401
541.287
541.173
541.06
540.946
540.833
540.72
540.607
552.438
552.214
551.994
551.782
551.581
551.395
551.223
551.066
550.924
550.796
550.681
550.577
550.483
550.396
550.316
550.24
550.168
550.099
550.03
549.962
549.894
549.824
549.752
549.679
549.604
549.528
549.451
549.373
549.294
549.215
549.136
549.057
548.978
548.902
548.828
548.758
548.692
548.63
548.572
548.517
548.463
548.41
548.359
548.308
548.258
548.209
548.161
548.113
548.066
548.02
547.974
547.928
547.882
547.835
547.787
547.738
547.689
547.638
547.587
547.535
547.481
547.426
547.369
547.308
547.244
547.175
547.1
547.021
546.937
546.847
546.752
546.65
546.542
546.427
546.305
546.176
546.04
545.899
545.751
545.6
545.447
545.295
545.145
544.998
544.854
544.712
544.572
544.435
544.299
544.166
544.034
543.904
543.775
543.648
543.522
543.397
543.274
543.151
543.03
542.91
542.79
542.671
542.553
542.436
542.319
542.203
542.087
541.972
541.857
541.742
541.628
541.514
541.4
541.286
541.172
541.059
540.946
540.833
540.72
540.607
552.439
552.22
552.007
551.801
551.606
551.425
551.258
551.106
550.967
550.843
550.731
550.629
550.537
550.451
550.371
550.295
550.223
550.153
550.083
550.013
549.941
549.868
549.793
549.717
549.638
549.557
549.475
549.392
549.307
549.222
549.136
549.051
548.965
548.882
548.801
548.724
548.652
548.584
548.522
548.465
548.409
548.355
548.301
548.249
548.198
548.147
548.098
548.049
548.001
547.954
547.907
547.86
547.813
547.766
547.717
547.668
547.619
547.568
547.517
547.465
547.413
547.359
547.303
547.245
547.182
547.115
547.044
546.967
546.885
546.798
546.705
546.606
546.501
546.39
546.271
546.146
546.013
545.875
545.73
545.581
545.43
545.278
545.129
544.983
544.839
544.698
544.559
544.422
544.288
544.155
544.023
543.894
543.766
543.639
543.514
543.39
543.267
543.145
543.024
542.904
542.785
542.667
542.549
542.432
542.316
542.2
542.084
541.969
541.854
541.74
541.626
541.512
541.398
541.285
541.172
541.058
540.945
540.832
540.719
540.606
552.442
552.228
552.02
551.821
551.633
551.458
551.296
551.148
551.014
550.894
550.785
550.686
550.595
550.51
550.431
550.355
550.282
550.211
550.14
550.067
549.993
549.918
549.84
549.76
549.677
549.592
549.505
549.417
549.327
549.235
549.143
549.05
548.958
548.866
548.778
548.693
548.614
548.54
548.473
548.411
548.353
548.297
548.242
548.188
548.136
548.084
548.033
547.983
547.935
547.886
547.838
547.791
547.743
547.694
547.645
547.596
547.545
547.495
547.444
547.392
547.34
547.287
547.233
547.176
547.116
547.051
546.982
546.908
546.828
546.744
546.654
546.558
546.457
546.349
546.234
546.112
545.983
545.848
545.706
545.56
545.41
545.259
545.111
544.966
544.823
544.683
544.545
544.408
544.274
544.142
544.012
543.883
543.755
543.63
543.505
543.382
543.259
543.138
543.018
542.899
542.78
542.662
542.545
542.428
542.312
542.197
542.081
541.967
541.852
541.738
541.624
541.51
541.397
541.284
541.171
541.058
540.945
540.832
540.719
540.606
552.446
552.24
552.04
551.847
551.665
551.495
551.339
551.196
551.067
550.95
550.843
550.746
550.657
550.573
550.494
550.419
550.346
550.273
550.2
550.126
550.051
549.973
549.892
549.808
549.722
549.633
549.541
549.447
549.352
549.254
549.155
549.055
548.955
548.855
548.759
548.666
548.579
548.498
548.425
548.359
548.298
548.239
548.182
548.126
548.072
548.019
547.967
547.916
547.866
547.817
547.768
547.719
547.67
547.621
547.571
547.521
547.471
547.42
547.368
547.317
547.265
547.213
547.159
547.104
547.045
546.983
546.916
546.844
546.767
546.686
546.599
546.507
546.409
546.304
546.193
546.075
545.95
545.817
545.679
545.535
545.387
545.238
545.091
544.947
544.805
544.665
544.528
544.393
544.26
544.128
543.999
543.871
543.744
543.619
543.495
543.373
543.251
543.131
543.011
542.892
542.774
542.657
542.54
542.424
542.308
542.193
542.078
541.964
541.85
541.736
541.622
541.509
541.396
541.283
541.17
541.057
540.944
540.831
540.719
540.606
552.45
552.251
552.059
551.874
551.699
551.535
551.384
551.247
551.122
551.008
550.905
550.81
550.722
550.64
550.561
550.485
550.412
550.338
550.264
550.189
550.111
550.031
549.948
549.861
549.771
549.678
549.582
549.483
549.382
549.278
549.172
549.065
548.957
548.85
548.745
548.644
548.548
548.46
548.38
548.308
548.242
548.18
548.121
548.064
548.008
547.954
547.9
547.848
547.797
547.747
547.697
547.647
547.598
547.548
547.497
547.446
547.395
547.344
547.292
547.24
547.188
547.136
547.083
547.029
546.971
546.911
546.846
546.777
546.703
546.624
546.54
546.451
546.357
546.256
546.149
546.034
545.913
545.784
545.648
545.506
545.362
545.214
545.068
544.925
544.785
544.646
544.51
544.376
544.244
544.113
543.985
543.858
543.732
543.608
543.485
543.363
543.242
543.122
543.003
542.885
542.768
542.651
542.535
542.419
542.304
542.189
542.075
541.961
541.847
541.733
541.62
541.507
541.394
541.281
541.169
541.056
540.943
540.831
540.719
540.606
552.454
552.264
552.079
551.902
551.734
551.577
551.431
551.299
551.178
551.068
550.968
550.876
550.789
550.708
550.63
550.554
550.48
550.406
550.33
550.254
550.174
550.093
550.007
549.918
549.825
549.728
549.628
549.524
549.417
549.306
549.193
549.079
548.964
548.849
548.735
548.626
548.522
548.425
548.337
548.258
548.187
548.122
548.061
548.001
547.943
547.887
547.833
547.78
547.728
547.676
547.626
547.575
547.524
547.474
547.422
547.371
547.319
547.268
547.215
547.163
547.111
547.059
547.006
546.952
546.896
546.836
546.773
546.706
546.635
546.559
546.478
546.392
546.301
546.204
546.101
545.99
545.872
545.747
545.615
545.477
545.334
545.188
545.044
544.902
544.763
544.626
544.491
544.358
544.227
544.097
543.97
543.844
543.719
543.596
543.474
543.353
543.233
543.114
542.995
542.878
542.761
542.645
542.529
542.414
542.3
542.185
542.071
541.958
541.844
541.731
541.618
541.505
541.392
541.28
541.167
541.055
540.943
540.83
540.718
540.606
552.459
552.278
552.101
551.931
551.77
551.619
551.48
551.353
551.237
551.131
551.034
550.943
550.858
550.777
550.7
550.624
550.549
550.474
550.398
550.32
550.24
550.156
550.068
549.977
549.881
549.78
549.675
549.567
549.454
549.337
549.218
549.097
548.975
548.852
548.73
548.612
548.499
548.394
548.298
548.212
548.135
548.065
548
547.938
547.879
547.821
547.765
547.711
547.658
547.605
547.554
547.502
547.451
547.399
547.348
547.296
547.244
547.192
547.139
547.087
547.034
546.982
546.929
546.874
546.819
546.76
546.699
546.633
546.564
546.49
546.413
546.33
546.242
546.148
546.049
545.942
545.829
545.708
545.58
545.445
545.305
545.16
545.017
544.877
544.739
544.603
544.47
544.338
544.208
544.08
543.953
543.828
543.705
543.583
543.461
543.341
543.222
543.104
542.987
542.87
542.754
542.639
542.524
542.409
542.295
542.181
542.067
541.954
541.841
541.728
541.616
541.503
541.391
541.278
541.166
541.054
540.942
540.83
540.718
540.606
552.463
552.291
552.123
551.961
551.807
551.663
551.53
551.408
551.297
551.194
551.099
551.011
550.927
550.848
550.77
550.695
550.619
550.544
550.467
550.388
550.306
550.22
550.131
550.037
549.938
549.834
549.724
549.611
549.492
549.37
549.244
549.117
548.987
548.858
548.728
548.601
548.48
548.366
548.262
548.168
548.085
548.01
547.941
547.877
547.815
547.756
547.698
547.643
547.588
547.535
547.482
547.43
547.378
547.326
547.273
547.221
547.169
547.116
547.063
547.011
546.958
546.905
546.851
546.797
546.741
546.683
546.623
546.559
546.491
546.42
546.345
546.265
546.18
546.09
545.994
545.892
545.782
545.666
545.541
545.41
545.273
545.13
544.989
544.85
544.714
544.579
544.447
544.317
544.188
544.061
543.936
543.812
543.69
543.569
543.449
543.33
543.212
543.095
542.978
542.862
542.747
542.632
542.518
542.404
542.29
542.177
542.064
541.951
541.838
541.726
541.613
541.501
541.389
541.277
541.165
541.053
540.941
540.829
540.718
540.606
552.468
552.305
552.146
551.992
551.846
551.709
551.582
551.465
551.357
551.258
551.166
551.079
550.997
550.918
550.841
550.766
550.69
550.614
550.536
550.456
550.373
550.286
550.194
550.098
549.996
549.888
549.775
549.656
549.531
549.403
549.271
549.137
549.001
548.865
548.728
548.594
548.463
548.341
548.228
548.127
548.038
547.957
547.884
547.816
547.752
547.691
547.632
547.575
547.52
547.465
547.411
547.358
547.305
547.253
547.2
547.147
547.094
547.041
546.988
546.935
546.881
546.828
546.774
546.719
546.663
546.605
546.545
546.483
546.417
546.348
546.275
546.198
546.116
546.029
545.937
545.838
545.733
545.621
545.501
545.374
545.239
545.098
544.959
544.822
544.687
544.554
544.423
544.294
544.167
544.041
543.917
543.795
543.674
543.554
543.435
543.318
543.201
543.084
542.969
542.854
542.739
542.625
542.512
542.398
542.285
542.172
542.06
541.947
541.835
541.723
541.611
541.499
541.387
541.275
541.164
541.052
540.94
540.829
540.717
540.606
552.473
552.319
552.168
552.022
551.884
551.754
551.633
551.521
551.417
551.322
551.232
551.147
551.066
550.988
550.912
550.837
550.761
550.685
550.606
550.525
550.441
550.352
550.259
550.159
550.054
549.942
549.824
549.699
549.57
549.435
549.297
549.157
549.015
548.873
548.729
548.587
548.449
548.318
548.198
548.09
547.993
547.907
547.83
547.759
547.693
547.629
547.569
547.51
547.453
547.397
547.342
547.288
547.234
547.18
547.126
547.073
547.019
546.966
546.912
546.859
546.805
546.751
546.696
546.641
546.584
546.527
546.468
546.406
546.342
546.274
546.203
546.129
546.05
545.966
545.877
545.783
545.682
545.574
545.458
545.335
545.204
545.064
544.927
544.792
544.659
544.527
544.398
544.27
544.144
544.02
543.898
543.777
543.657
543.539
543.421
543.305
543.189
543.074
542.959
542.845
542.731
542.618
542.505
542.393
542.28
542.168
542.056
541.944
541.832
541.72
541.608
541.497
541.385
541.274
541.162
541.051
540.94
540.828
540.717
540.606
552.477
552.332
552.19
552.053
551.922
551.798
551.683
551.576
551.477
551.384
551.297
551.214
551.135
551.057
550.982
550.907
550.831
550.755
550.676
550.594
550.508
550.418
550.322
550.22
550.11
549.994
549.87
549.74
549.604
549.464
549.32
549.175
549.028
548.88
548.73
548.581
548.436
548.298
548.171
548.057
547.954
547.863
547.78
547.705
547.636
547.57
547.507
547.447
547.388
547.331
547.274
547.219
547.163
547.109
547.054
546.999
546.945
546.891
546.836
546.782
546.728
546.673
546.618
546.562
546.505
546.448
546.389
546.328
546.265
546.199
546.13
546.058
545.983
545.902
545.816
545.725
545.628
545.524
545.412
545.293
545.166
545.029
544.894
544.761
544.629
544.499
544.371
544.245
544.121
543.998
543.877
543.758
543.64
543.523
543.407
543.292
543.177
543.063
542.949
542.836
542.724
542.611
542.499
542.387
542.275
542.163
542.052
541.94
541.829
541.717
541.606
541.495
541.384
541.272
541.161
541.05
540.939
540.828
540.717
540.606
552.482
552.345
552.212
552.083
551.959
551.842
551.733
551.63
551.535
551.445
551.36
551.279
551.201
551.125
551.05
550.975
550.9
550.823
550.744
550.661
550.574
550.482
550.384
550.278
550.165
550.044
549.915
549.778
549.634
549.487
549.339
549.189
549.037
548.883
548.728
548.573
548.423
548.28
548.148
548.028
547.92
547.824
547.737
547.657
547.584
547.515
547.449
547.387
547.326
547.267
547.209
547.152
547.095
547.038
546.982
546.927
546.871
546.816
546.76
546.705
546.65
546.595
546.539
546.483
546.425
546.368
546.309
546.249
546.187
546.123
546.056
545.987
545.914
545.837
545.754
545.667
545.573
545.473
545.366
545.25
545.126
544.989
544.858
544.728
544.598
544.469
544.343
544.218
544.096
543.975
543.856
543.738
543.622
543.506
543.392
543.278
543.165
543.052
542.939
542.827
542.716
542.604
542.492
542.381
542.27
542.159
542.048
541.937
541.826
541.715
541.604
541.493
541.382
541.271
541.16
541.049
540.938
540.827
540.716
540.605
552.486
552.359
552.234
552.112
551.995
551.885
551.781
551.683
551.591
551.504
551.421
551.342
551.265
551.19
551.116
551.042
550.967
550.891
550.811
550.728
550.64
550.545
550.444
550.335
550.218
550.091
549.954
549.81
549.659
549.505
549.351
549.197
549.04
548.882
548.722
548.564
548.411
548.266
548.13
548.006
547.893
547.791
547.699
547.615
547.537
547.465
547.396
547.331
547.267
547.206
547.146
547.087
547.028
546.97
546.912
546.855
546.798
546.741
546.684
546.628
546.571
546.515
546.458
546.402
546.344
546.287
546.228
546.169
546.109
546.046
545.982
545.915
545.845
545.771
545.692
545.608
545.518
545.422
545.318
545.206
545.084
544.939
544.821
544.693
544.565
544.438
544.313
544.19
544.069
543.951
543.833
543.718
543.603
543.489
543.376
543.264
543.152
543.041
542.929
542.818
542.707
542.597
542.486
542.375
542.265
542.154
542.044
541.933
541.822
541.712
541.601
541.491
541.38
541.269
541.159
541.048
540.937
540.827
540.716
540.605
552.49
552.371
552.254
552.14
552.031
551.926
551.827
551.733
551.645
551.56
551.48
551.402
551.327
551.253
551.179
551.106
551.031
550.954
550.874
550.79
550.701
550.605
550.502
550.389
550.266
550.133
549.99
549.837
549.678
549.517
549.357
549.198
549.037
548.875
548.713
548.555
548.403
548.257
548.12
547.993
547.875
547.768
547.67
547.58
547.498
547.421
547.348
547.279
547.213
547.149
547.086
547.025
546.964
546.903
546.844
546.784
546.725
546.667
546.608
546.55
546.492
546.434
546.376
546.319
546.262
546.204
546.147
546.09
546.031
545.971
545.909
545.845
545.777
545.706
545.63
545.55
545.463
545.371
545.271
545.164
545.047
544.916
544.788
544.659
544.531
544.405
544.282
544.161
544.042
543.925
543.81
543.696
543.584
543.472
543.361
543.25
543.139
543.029
542.919
542.809
542.699
542.59
542.48
542.37
542.26
542.15
542.04
541.93
541.82
541.709
541.599
541.489
541.378
541.268
541.158
541.047
540.937
540.826
540.716
540.605
552.494
552.383
552.274
552.167
552.064
551.965
551.871
551.782
551.696
551.614
551.536
551.459
551.385
551.311
551.238
551.165
551.09
551.013
550.933
550.849
550.759
550.661
550.554
550.437
550.309
550.17
550.02
549.86
549.692
549.524
549.359
549.195
549.03
548.866
548.706
548.55
548.399
548.255
548.117
547.988
547.867
547.754
547.65
547.555
547.466
547.384
547.307
547.234
547.163
547.096
547.03
546.966
546.903
546.841
546.779
546.717
546.656
546.595
546.534
546.474
546.413
546.353
546.294
546.235
546.178
546.122
546.068
546.013
545.957
545.9
545.84
545.778
545.712
545.643
545.57
545.493
545.41
545.32
545.224
545.12
545.008
544.882
544.752
544.623
544.495
544.37
544.248
544.129
544.013
543.898
543.786
543.674
543.564
543.454
543.345
543.236
543.127
543.018
542.909
542.801
542.692
542.583
542.474
542.364
542.255
542.146
542.036
541.926
541.817
541.707
541.597
541.487
541.377
541.267
541.156
541.046
540.936
540.826
540.715
540.605
552.498
552.394
552.292
552.192
552.095
552.002
551.913
551.828
551.746
551.666
551.589
551.513
551.439
551.365
551.292
551.218
551.143
551.065
550.984
550.899
550.807
550.707
550.597
550.476
550.344
550.2
550.045
549.877
549.702
549.526
549.356
549.188
549.021
548.857
548.699
548.548
548.401
548.259
548.123
547.992
547.868
547.751
547.641
547.539
547.445
547.356
547.273
547.194
547.119
547.048
546.979
546.913
546.848
546.784
546.72
546.656
546.593
546.529
546.465
546.401
546.337
546.274
546.212
546.153
546.098
546.044
545.993
545.942
545.89
545.836
545.778
545.718
545.653
545.585
545.514
545.439
545.358
545.271
545.177
545.076
544.968
544.845
544.715
544.585
544.457
544.333
544.213
544.096
543.982
543.87
543.76
543.651
543.544
543.436
543.329
543.222
543.115
543.007
542.9
542.792
542.684
542.576
542.468
542.359
542.251
542.142
542.033
541.923
541.814
541.704
541.595
541.485
541.375
541.265
541.155
541.045
540.935
540.825
540.715
540.605
552.501
552.405
552.309
552.216
552.126
552.039
551.954
551.873
551.793
551.715
551.638
551.563
551.488
551.413
551.338
551.262
551.185
551.106
551.023
550.936
550.842
550.74
550.628
550.503
550.367
550.22
550.061
549.889
549.707
549.527
549.351
549.182
549.017
548.856
548.701
548.553
548.409
548.27
548.135
548.005
547.88
547.759
547.645
547.537
547.435
547.339
547.248
547.162
547.081
547.005
546.935
546.867
546.801
546.737
546.672
546.607
546.541
546.475
546.408
546.339
546.271
546.203
546.14
546.079
546.029
545.977
545.93
545.882
545.832
545.779
545.721
545.663
545.599
545.532
545.462
545.388
545.309
545.224
545.132
545.033
544.927
544.807
544.675
544.545
544.416
544.292
544.174
544.06
543.949
543.841
543.734
543.628
543.523
543.418
543.313
543.208
543.102
542.997
542.89
542.784
542.677
542.57
542.462
542.354
542.246
542.138
542.029
541.92
541.811
541.702
541.593
541.483
541.374
541.264
541.154
541.045
540.935
540.825
540.715
540.605
552.505
552.415
552.327
552.241
552.157
552.076
551.997
551.919
551.841
551.763
551.685
551.608
551.53
551.452
551.373
551.293
551.212
551.129
551.043
550.953
550.858
550.754
550.639
550.512
550.373
550.225
550.065
549.891
549.707
549.522
549.343
549.175
549.015
548.86
548.709
548.564
548.424
548.287
548.154
548.025
547.9
547.779
547.663
547.55
547.441
547.336
547.235
547.139
547.052
546.972
546.901
546.834
546.769
546.706
546.64
546.577
546.511
546.444
546.373
546.297
546.225
546.152
546.1
546.03
545.998
545.932
545.885
545.833
545.778
545.722
545.653
545.607
545.542
545.481
545.411
545.34
545.263
545.18
545.089
544.991
544.886
544.768
544.625
544.501
544.37
544.247
544.131
544.021
543.915
543.81
543.707
543.605
543.503
543.401
543.298
543.195
543.091
542.987
542.882
542.776
542.67
542.564
542.457
542.35
542.242
542.134
542.026
541.918
541.809
541.7
541.591
541.482
541.373
541.263
541.154
541.044
540.934
540.825
540.715
540.605
552.509
552.427
552.346
552.269
552.193
552.119
552.044
551.969
551.891
551.812
551.731
551.648
551.564
551.478
551.391
551.303
551.214
551.125
551.035
550.944
550.848
550.743
550.629
550.501
550.359
550.209
550.051
549.88
549.698
549.513
549.333
549.168
549.016
548.868
548.723
548.581
548.442
548.305
548.173
548.047
547.928
547.811
547.696
547.583
547.468
547.351
547.238
547.131
547.039
546.957
546.886
546.824
546.756
546.705
546.63
546.579
546.509
546.449
546.371
546.285
546.219
546.134
546.162
546.022
546.076
545.913
545.836
545.773
545.687
545.633
545.51
545.527
545.453
545.42
545.355
545.304
545.232
545.148
545.067
544.964
544.859
544.741
544.607
544.457
544.315
544.194
544.083
543.979
543.878
543.779
543.68
543.582
543.483
543.384
543.283
543.182
543.08
542.977
542.874
542.769
542.664
542.559
542.453
542.346
542.239
542.131
542.024
541.915
541.807
541.698
541.59
541.481
541.371
541.262
541.153
541.043
540.934
540.824
540.715
540.605
552.513
552.441
552.371
552.303
552.236
552.168
552.099
552.026
551.948
551.865
551.776
551.682
551.584
551.484
551.382
551.279
551.179
551.08
550.986
550.897
550.803
550.702
550.594
550.466
550.321
550.17
550.018
549.859
549.681
549.497
549.31
549.147
549.004
548.875
548.733
548.599
548.455
548.314
548.18
548.059
547.956
547.848
547.74
547.633
547.512
547.377
547.262
547.142
547.055
546.976
546.907
546.859
546.806
546.767
546.69
546.641
546.579
546.512
546.41
546.296
546.2
546.097
546.021
545.971
545.895
545.842
545.725
545.624
545.551
545.478
545.436
545.438
545.403
545.327
545.346
545.297
545.205
545.1
545.147
545.032
544.905
544.737
544.58
544.368
544.237
544.129
544.029
543.934
543.84
543.747
543.653
543.559
543.464
543.368
543.27
543.171
543.071
542.969
542.867
542.763
542.659
542.554
542.449
542.342
542.236
542.129
542.021
541.913
541.805
541.697
541.588
541.48
541.371
541.261
541.152
541.043
540.933
540.824
540.714
540.605
552.519
552.459
552.401
552.343
552.283
552.222
552.16
552.092
552.016
551.927
551.824
551.709
551.585
551.458
551.329
551.203
551.086
550.977
550.886
550.812
550.728
550.638
550.549
550.417
550.258
550.108
549.962
549.835
549.642
549.472
549.272
549.103
548.959
548.831
548.711
548.593
548.453
548.302
548.152
548.041
547.947
547.858
547.749
547.643
547.533
547.433
547.32
547.229
547.145
547.059
546.988
546.929
546.89
546.846
546.789
546.736
546.68
546.599
546.5
546.332
546.248
546.132
546.078
545.983
545.904
545.764
545.673
545.603
545.518
545.459
545.482
545.467
545.415
545.349
545.302
545.263
545.201
545.098
545.051
544.949
544.834
544.712
544.591
544.299
544.151
544.057
543.972
543.888
543.803
543.716
543.628
543.538
543.447
543.353
543.258
543.161
543.062
542.962
542.861
542.758
542.655
542.55
542.445
542.34
542.233
542.127
542.019
541.912
541.804
541.696
541.587
541.479
541.37
541.261
541.152
541.042
540.933
540.824
540.714
540.605
552.526
552.479
552.433
552.381
552.323
552.265
552.214
552.163
552.1
552.004
551.88
551.727
551.562
551.391
551.223
551.063
550.929
550.81
550.739
550.697
550.618
550.554
550.533
550.354
550.149
550.006
549.882
549.745
549.606
549.43
549.236
549.04
548.871
548.748
548.652
548.574
548.429
548.268
548.098
548.006
547.937
547.902
547.779
547.645
547.524
547.456
547.394
547.342
547.314
547.201
547.119
547.012
546.958
546.896
546.86
546.782
546.756
546.648
546.525
546.334
546.23
546.094
546.032
545.914
545.866
545.749
545.705
545.645
545.599
545.555
545.514
545.489
545.434
545.349
545.282
545.206
545.127
545.03
544.95
544.858
544.773
544.691
544.567
544.26
544.081
543.987
543.913
543.843
543.768
543.687
543.603
543.519
543.431
543.341
543.248
543.153
543.056
542.957
542.856
542.754
542.651
542.547
542.443
542.337
542.231
542.125
542.018
541.911
541.803
541.695
541.586
541.478
541.369
541.26
541.151
541.042
540.933
540.823
540.714
540.605
552.533
552.499
552.458
552.396
552.321
552.262
552.222
552.199
552.175
552.071
551.933
551.735
551.525
551.294
551.091
550.897
550.773
550.65
550.602
550.561
550.457
550.337
550.256
550.15
549.956
549.828
549.708
549.615
549.561
549.383
549.177
548.942
548.774
548.624
548.572
548.518
548.367
548.217
548.056
547.976
547.919
547.941
547.792
547.601
547.516
547.434
547.41
547.362
547.346
547.263
547.151
547.042
546.969
546.9
546.83
546.724
546.658
546.541
546.384
546.222
546.091
545.963
545.876
545.798
545.763
545.71
545.697
545.663
545.629
545.589
545.545
545.496
545.428
545.34
545.252
545.157
545.071
544.982
544.904
544.82
544.707
544.489
544.321
544.194
544.003
543.933
543.86
543.804
543.739
543.66
543.58
543.502
543.419
543.332
543.241
543.148
543.051
542.953
542.853
542.752
542.649
542.545
542.441
542.336
542.23
542.124
542.017
541.91
541.802
541.694
541.586
541.477
541.369
541.26