/*--------------------------------*- C++ -*----------------------------------*\
  =========                 |
  \\      /  F ield         | OpenFOAM: The Open Source CFD Toolbox
   \\    /   O peration     | Website:  https://openfoam.org
    \\  /    A nd           | Version:  6
     \\/     M anipulation  |
\*---------------------------------------------------------------------------*/
FoamFile
{
    version     2.0;
    format      ascii;
    class       volVectorField;
    location    "2350";
    object      U;
}
// * * * * * * * * * * * * * * * * * * * * * * * * * * * * * * * * * * * * * //

dimensions      [0 1 -1 0 0 0 0];

internalField   nonuniform List<vector> 
4800
(
(-0.000263724 0 -0.000102949)
(0.00026498 0 -0.000162953)
(0.000256757 0 -0.00014495)
(0.000258324 0 -0.000166732)
(0.00022812 0 -0.000202866)
(6.12073e-05 0 -5.53207e-05)
(-0.000165448 0 -0.000229551)
(-0.00041304 0 -0.000195747)
(-0.000517649 0 -0.000115259)
(-0.000656224 0 -5.72618e-05)
(-0.000753592 0 -0.000188862)
(-0.000869869 0 0.000115776)
(-0.000956805 0 -0.000160147)
(-0.00107157 0 8.07086e-05)
(-0.0011585 0 -3.43425e-05)
(-0.00120753 0 -4.15024e-05)
(-0.00124187 0 -8.03251e-05)
(-0.00126383 0 -8.76507e-05)
(-0.00116459 0 -0.000137481)
(-0.000950485 0 -0.000183016)
(-0.000797064 0 -0.000159666)
(-0.000701109 0 -0.000127699)
(-0.000625262 0 -0.000111447)
(-0.000504049 0 -0.000128646)
(-0.000377278 0 -3.93391e-05)
(-0.000214493 0 -9.77725e-05)
(-7.24555e-05 0 -0.00017267)
(7.45276e-05 0 -0.000142949)
(0.000156307 0 -9.36545e-05)
(0.000252599 0 -5.49941e-05)
(0.000342666 0 -0.000150706)
(0.00052643 0 -8.67981e-05)
(0.000673838 0 -8.32818e-05)
(0.000780269 0 -0.000103884)
(0.000907721 0 -0.000108255)
(0.00102294 0 -9.23957e-05)
(0.00104955 0 -6.78976e-05)
(0.00108012 0 -5.4574e-05)
(0.00114019 0 -2.09528e-05)
(0.00120012 0 -5.02861e-05)
(0.00125276 0 -7.50312e-05)
(0.00132498 0 -1.10938e-05)
(0.00138905 0 -6.00882e-05)
(0.00144738 0 -0.00011256)
(0.00152645 0 -8.43119e-05)
(0.00162414 0 7.67955e-06)
(0.00171259 0 -1.07255e-05)
(0.001721 0 -5.63781e-05)
(0.00171944 0 -4.34324e-05)
(0.00172211 0 -2.47591e-05)
(0.00173072 0 -1.73609e-06)
(0.00174502 0 -2.36523e-06)
(0.00174528 0 -9.15592e-06)
(0.00174528 0 -8.7776e-06)
(0.00173963 0 -9.07311e-06)
(0.00171289 0 -1.98733e-05)
(0.00166066 0 -3.38068e-05)
(0.00159642 0 2.42898e-06)
(0.00152906 0 2.68325e-05)
(0.00145838 0 3.0486e-05)
(0.00140902 0 1.22165e-06)
(0.0013949 0 -5.58299e-07)
(0.00138494 0 -4.05363e-06)
(0.00136932 0 -3.34301e-05)
(0.00134113 0 4.50535e-05)
(0.0012985 0 -7.61122e-05)
(0.00123697 0 0.000119208)
(0.00117076 0 -6.9955e-05)
(0.00105752 0 0.000161321)
(0.000944739 0 1.41478e-05)
(0.000810614 0 0.000125563)
(0.000603503 0 0.000198231)
(5.41425e-05 0 0.00016514)
(-0.000544491 0 -0.000341214)
(-0.000403144 0 -0.000227915)
(-0.000458183 0 -0.000138581)
(-0.000493365 0 -0.000194296)
(-0.000588131 0 -0.000159762)
(-0.000632645 0 -0.000230986)
(3.37897e-06 0 -0.000290092)
(-1.15412e-12 0 9.03353e-15)
(-3.49835e-12 0 -3.46881e-14)
(-2.24219e-12 0 -5.24867e-14)
(-2.13547e-12 0 -5.46521e-14)
(-2.02659e-12 0 -5.46467e-14)
(-1.91547e-12 0 -5.68772e-14)
(-1.7974e-12 0 -6.15952e-14)
(-1.6684e-12 0 -6.77645e-14)
(-1.52665e-12 0 -7.42871e-14)
(-1.37232e-12 0 -8.036e-14)
(-1.20684e-12 0 -8.54185e-14)
(-1.03259e-12 0 -8.91052e-14)
(-8.52535e-13 0 -9.12203e-14)
(-6.69888e-13 0 -9.16826e-14)
(-4.87946e-13 0 -9.0501e-14)
(-3.09916e-13 0 -8.77544e-14)
(-1.38797e-13 0 -8.35746e-14)
(2.27191e-14 0 -7.8133e-14)
(1.72306e-13 0 -7.16269e-14)
(3.08047e-13 0 -6.42685e-14)
(4.28452e-13 0 -5.62736e-14)
(5.3246e-13 0 -4.78533e-14)
(6.19419e-13 0 -3.92063e-14)
(6.89055e-13 0 -3.05134e-14)
(7.41437e-13 0 -2.19339e-14)
(7.76928e-13 0 -1.36037e-14)
(7.96136e-13 0 -5.63425e-15)
(7.99872e-13 0 1.88601e-15)
(7.89101e-13 0 8.89066e-15)
(7.649e-13 0 1.53326e-14)
(7.28424e-13 0 2.11816e-14)
(6.80874e-13 0 2.64211e-14)
(6.23474e-13 0 3.10454e-14)
(5.5745e-13 0 3.50572e-14)
(4.84019e-13 0 3.84643e-14)
(4.04378e-13 0 4.12778e-14)
(3.19698e-13 0 4.35104e-14)
(2.31129e-13 0 4.51744e-14)
(1.39793e-13 0 4.62821e-14)
(4.67863e-14 0 4.6849e-14)
(-4.88155e-05 0 -0.000156764)
(0.000122301 0 -0.00014585)
(-0.000110351 0 0.000138802)
(-0.000202381 0 0.000184746)
(-0.000219643 0 0.000179115)
(-0.000350664 0 0.000165337)
(-0.000456408 0 0.000300259)
(-0.000573725 0 0.000322025)
(-0.000755892 0 0.000321164)
(-0.000918264 0 0.000361335)
(-0.00103264 0 0.000271245)
(-0.00110903 0 0.000144291)
(-0.00115417 0 0.000228045)
(-0.00122434 0 0.000124873)
(-0.00125341 0 0.000150859)
(-0.0012613 0 9.2259e-05)
(-0.00124079 0 3.31445e-05)
(-0.00124238 0 6.51177e-06)
(-0.00119755 0 -0.000243165)
(-0.00103546 0 -0.000268417)
(-0.000868741 0 -0.000246316)
(-0.000777877 0 -6.78367e-05)
(-0.0006897 0 -4.79772e-05)
(-0.000552622 0 -0.000174366)
(-0.000442044 0 -0.000186587)
(-4.35018e-05 0 -0.000436198)
(-9.70232e-05 0 -0.000174439)
(-6.88789e-05 0 -0.000128746)
(0.000104542 0 -0.000122498)
(0.000226548 0 -8.37057e-05)
(0.000212368 0 -0.000327664)
(0.000452507 0 -0.00011292)
(0.000558725 0 -0.000152448)
(0.000653438 0 -0.000218253)
(0.000789847 0 -9.05621e-05)
(0.00087689 0 -5.92678e-05)
(0.000907469 0 -0.000142336)
(0.000966308 0 -9.00066e-05)
(0.00103162 0 -6.49007e-05)
(0.00111271 0 -5.46887e-05)
(0.00118342 0 -0.000141442)
(0.00124693 0 -7.27909e-05)
(0.00130435 0 -0.000122285)
(0.00138907 0 -9.57883e-05)
(0.00148108 0 -7.87905e-05)
(0.00154343 0 -0.000134219)
(0.00156086 0 -5.16193e-05)
(0.00156527 0 2.6188e-05)
(0.00158091 0 1.12049e-05)
(0.00161544 0 -5.80015e-06)
(0.00162528 0 -1.67655e-05)
(0.00161945 0 -2.07318e-05)
(0.00160859 0 -2.17728e-05)
(0.00159813 0 -4.49038e-06)
(0.00158941 0 2.64146e-05)
(0.00157478 0 5.56828e-05)
(0.00154255 0 9.4172e-05)
(0.00149404 0 0.000113169)
(0.00145471 0 9.68834e-05)
(0.00143135 0 6.14052e-05)
(0.00142 0 2.83654e-05)
(0.0014104 0 2.20577e-05)
(0.00139984 0 3.59367e-05)
(0.00139051 0 5.07173e-05)
(0.00137505 0 4.22782e-05)
(0.00132428 0 0.000128251)
(0.00125389 0 4.79559e-05)
(0.00114893 0 0.000197699)
(0.00106543 0 9.53448e-05)
(0.000912878 0 0.000264289)
(0.000798374 0 0.000192115)
(0.000727997 0 0.00031994)
(0.000541468 0 0.000316476)
(0.000519976 0 0.000422038)
(0.000372098 0 0.000380223)
(9.67616e-05 0 0.000221543)
(-0.000104678 0 1.00258e-05)
(-0.000441237 0 -0.000293419)
(-0.000584199 0 -0.000309243)
(4.0151e-06 0 -0.000399946)
(-1.44069e-12 0 6.824e-14)
(-3.58347e-12 0 -1.39231e-13)
(-2.26364e-12 0 -1.73463e-13)
(-2.13872e-12 0 -1.66478e-13)
(-2.02953e-12 0 -1.62037e-13)
(-1.92275e-12 0 -1.68461e-13)
(-1.80831e-12 0 -1.83538e-13)
(-1.68104e-12 0 -2.03045e-13)
(-1.53925e-12 0 -2.23416e-13)
(-1.38345e-12 0 -2.42195e-13)
(-1.21558e-12 0 -2.57723e-13)
(-1.03839e-12 0 -2.68978e-13)
(-8.55113e-13 0 -2.75399e-13)
(-6.69168e-13 0 -2.76771e-13)
(-4.84017e-13 0 -2.7314e-13)
(-3.0299e-13 0 -2.64761e-13)
(-1.29176e-13 0 -2.52044e-13)
(3.46668e-14 0 -2.35515e-13)
(1.8617e-13 0 -2.15778e-13)
(3.234e-13 0 -1.9348e-13)
(4.44867e-13 0 -1.69278e-13)
(5.49528e-13 0 -1.43811e-13)
(6.36759e-13 0 -1.17683e-13)
(7.06328e-13 0 -9.14378e-14)
(7.58347e-13 0 -6.55568e-14)
(7.93227e-13 0 -4.04476e-14)
(8.11626e-13 0 -1.64446e-14)
(8.14397e-13 0 6.18894e-15)
(8.02548e-13 0 2.72558e-14)
(7.77191e-13 0 4.66174e-14)
(7.39512e-13 0 6.41858e-14)
(6.90737e-13 0 7.99142e-14)
(6.3211e-13 0 9.37888e-14)
(5.64869e-13 0 1.05819e-13)
(4.9024e-13 0 1.16032e-13)
(4.09424e-13 0 1.24462e-13)
(3.23595e-13 0 1.31149e-13)
(2.33901e-13 0 1.36129e-13)
(1.41468e-13 0 1.39437e-13)
(4.73532e-14 0 1.411e-13)
(-4.93836e-05 0 -0.000154448)
(-0.000161576 0 -1.64181e-05)
(-0.000183164 0 0.00018572)
(-0.000250832 0 0.000314084)
(-0.000465157 0 0.00026471)
(-0.000481182 0 0.000415258)
(-0.000678112 0 0.000330199)
(-0.000776327 0 0.000374145)
(-0.000896219 0 0.000347602)
(-0.0010198 0 0.000237467)
(-0.00107575 0 0.000265984)
(-0.0011619 0 0.000128605)
(-0.00119238 0 0.000199783)
(-0.00123488 0 0.000134535)
(-0.00125629 0 0.000126882)
(-0.00124499 0 6.17683e-06)
(-0.00116293 0 -6.63771e-05)
(-0.00113208 0 -7.98783e-05)
(-0.00113236 0 -0.000153502)
(-0.00113448 0 -0.000216712)
(-0.000819742 0 -0.000653957)
(-0.000779292 0 -0.000268055)
(-0.000683009 0 -0.00016762)
(-0.000586046 0 -0.000293313)
(-0.000338932 0 -0.000509231)
(-0.000110641 0 -0.000425631)
(-0.000285502 0 -0.000127792)
(-5.45399e-05 0 -0.000268426)
(5.53146e-05 0 -0.000275251)
(0.00016309 0 -0.000289268)
(0.000236316 0 -0.000328554)
(0.000283995 0 -0.000375733)
(0.000406438 0 -0.000340601)
(0.000524868 0 -0.000247271)
(0.000602326 0 -0.000222851)
(0.0007077 0 -0.000172074)
(0.000788934 0 -0.000276108)
(0.000914573 0 -0.0001218)
(0.000982897 0 -0.000130181)
(0.00107665 0 -0.000203488)
(0.00120215 0 -0.000129059)
(0.00123613 0 -0.000151715)
(0.00126295 0 -0.000174724)
(0.00131696 0 -0.000222751)
(0.00139539 0 -0.000184475)
(0.00146285 0 -0.00015194)
(0.00149335 0 -0.000107815)
(0.00150002 0 -8.3108e-05)
(0.00152268 0 -7.25271e-05)
(0.00156335 0 -3.63117e-06)
(0.00156303 0 2.13135e-05)
(0.00154417 0 3.62093e-05)
(0.00151026 0 3.51318e-05)
(0.0014707 0 3.5372e-05)
(0.00143109 0 5.85537e-05)
(0.00139559 0 8.60172e-05)
(0.00137226 0 0.00012263)
(0.00136442 0 0.00012056)
(0.00136627 0 0.000113217)
(0.00136621 0 9.04972e-05)
(0.00136001 0 7.27652e-05)
(0.00135176 0 2.29919e-05)
(0.0013181 0 -1.50819e-05)
(0.00128541 0 1.84096e-05)
(0.00126189 0 7.19886e-05)
(0.00122259 0 0.000137553)
(0.00116681 0 0.000144133)
(0.00108227 0 0.000250599)
(0.000998852 0 0.000279848)
(0.000908649 0 0.000355607)
(0.000798943 0 0.000349229)
(0.000714262 0 0.00049172)
(0.000679046 0 0.000500671)
(0.000579739 0 0.000504475)
(0.000469636 0 0.000439985)
(0.00030985 0 0.000384225)
(0.000179822 0 0.000191937)
(0.000334434 0 0.000181932)
(-0.000294065 0 -0.000201232)
(4.22497e-06 0 -0.000412528)
(-1.43558e-12 0 -5.58686e-13)
(-3.79305e-12 0 -4.35032e-13)
(-2.27071e-12 0 -3.3596e-13)
(-2.12493e-12 0 -2.76039e-13)
(-2.02908e-12 0 -2.58826e-13)
(-1.93711e-12 0 -2.71643e-13)
(-1.83186e-12 0 -3.01146e-13)
(-1.70818e-12 0 -3.37466e-13)
(-1.5658e-12 0 -3.74192e-13)
(-1.40663e-12 0 -4.07332e-13)
(-1.23362e-12 0 -4.34351e-13)
(-1.05027e-12 0 -4.53732e-13)
(-8.60328e-13 0 -4.64672e-13)
(-6.67629e-13 0 -4.66902e-13)
(-4.75936e-13 0 -4.60567e-13)
(-2.8882e-13 0 -4.46142e-13)
(-1.0955e-13 0 -4.24357e-13)
(5.89851e-14 0 -3.96133e-13)
(2.14341e-13 0 -3.62516e-13)
(3.54547e-13 0 -3.24618e-13)
(4.78121e-13 0 -2.83564e-13)
(5.84055e-13 0 -2.40446e-13)
(6.71793e-13 0 -1.96285e-13)
(7.41181e-13 0 -1.52004e-13)
(7.92428e-13 0 -1.08409e-13)
(8.2604e-13 0 -6.61816e-14)
(8.42773e-13 0 -2.58774e-14)
(8.43573e-13 0 1.2071e-14)
(8.2953e-13 0 4.73425e-14)
(8.0183e-13 0 7.97156e-14)
(7.6172e-13 0 1.09053e-13)
(7.10477e-13 0 1.35288e-13)
(6.49379e-13 0 1.58405e-13)
(5.79694e-13 0 1.78431e-13)
(5.02662e-13 0 1.95415e-13)
(4.19494e-13 0 2.09425e-13)
(3.31365e-13 0 2.20529e-13)
(2.39417e-13 0 2.28793e-13)
(1.44764e-13 0 2.34271e-13)
(4.84498e-14 0 2.37e-13)
(-0.000121429 0 -0.000100169)
(-0.000137107 0 0.000180189)
(-0.000355531 0 0.000251679)
(-0.000394041 0 0.000407734)
(-0.000613998 0 0.000346857)
(-0.000751541 0 0.000306004)
(-0.000663906 0 0.000653218)
(-0.000914056 0 0.000468454)
(-0.00100351 0 0.000411026)
(-0.00104235 0 0.000405926)
(-0.00111688 0 0.000255167)
(-0.00113013 0 0.000328334)
(-0.00120564 0 0.000194938)
(-0.00122822 0 0.000170463)
(-0.00123691 0 0.000158783)
(-0.00124625 0 -3.85649e-05)
(-0.00118164 0 -0.000143361)
(-0.00111876 0 -0.000212241)
(-0.00108893 0 -0.000277028)
(-0.00108436 0 -0.000335258)
(-0.000983933 0 -0.000463383)
(-0.000832324 0 -0.00045381)
(-0.000768693 0 -0.000404571)
(-0.000592496 0 -0.000588709)
(-0.000523604 0 -0.000508459)
(-0.000352731 0 -0.000487295)
(-0.000415101 0 -0.000287409)
(-2.23927e-05 0 -0.000432988)
(-1.93082e-05 0 -0.000324048)
(-5.21142e-05 0 -0.000423671)
(0.000173688 0 -0.000384022)
(0.0001729 0 -0.000391959)
(0.000293159 0 -0.00035364)
(0.000408176 0 -0.000317288)
(0.000514044 0 -0.000295238)
(0.000666505 0 -0.000214667)
(0.000731401 0 -0.000404611)
(0.00094171 0 -0.000118934)
(0.000933429 0 -0.000408819)
(0.0010643 0 -0.000306878)
(0.00120324 0 -0.000242828)
(0.0012063 0 -0.00024108)
(0.00120816 0 -0.000231747)
(0.00125544 0 -0.000166321)
(0.0012962 0 -0.00028116)
(0.00134607 0 -0.00027762)
(0.00137813 0 -8.40356e-05)
(0.00137823 0 -7.10235e-05)
(0.00138616 0 -7.03487e-05)
(0.00141332 0 -5.28995e-05)
(0.00142083 0 -2.32769e-05)
(0.00140932 0 -8.23794e-06)
(0.00138526 0 1.98737e-05)
(0.00135525 0 4.93291e-05)
(0.00131303 0 6.99588e-05)
(0.00126665 0 0.000110054)
(0.00125524 0 9.58434e-05)
(0.00125056 0 9.33762e-05)
(0.001236 0 5.55575e-05)
(0.00120803 0 0.000106561)
(0.00117589 0 -4.23265e-05)
(0.00113148 0 0.000188967)
(0.00108327 0 -1.21263e-05)
(0.00103276 0 8.71143e-05)
(0.00102462 0 0.000146325)
(0.00101804 0 0.000176675)
(0.00100016 0 0.000194034)
(0.00094997 0 0.000316034)
(0.000941758 0 0.000289042)
(0.000855487 0 0.000454426)
(0.000836916 0 0.000433471)
(0.000768306 0 0.000488366)
(0.000779106 0 0.000463716)
(0.000759441 0 0.000451658)
(0.000631355 0 0.000530022)
(0.00063667 0 0.000381741)
(0.000460125 0 0.000289391)
(0.000439246 0 8.29232e-05)
(-0.000121068 0 -0.000156957)
(4.80138e-06 0 -0.000217128)
(-1.33349e-12 0 -1.38348e-12)
(-3.40141e-12 0 -7.07234e-13)
(-2.10425e-12 0 -4.5924e-13)
(-2.06119e-12 0 -3.42818e-13)
(-2.02473e-12 0 -3.25503e-13)
(-1.96468e-12 0 -3.58056e-13)
(-1.87385e-12 0 -4.11753e-13)
(-1.75399e-12 0 -4.71314e-13)
(-1.60911e-12 0 -5.28476e-13)
(-1.44361e-12 0 -5.78518e-13)
(-1.26198e-12 0 -6.18546e-13)
(-1.06872e-12 0 -6.46859e-13)
(-8.68283e-13 0 -6.62593e-13)
(-6.65063e-13 0 -6.65541e-13)
(-4.63257e-13 0 -6.56033e-13)
(-2.6678e-13 0 -6.34836e-13)
(-7.91666e-14 0 -6.0307e-13)
(9.65082e-14 0 -5.62111e-13)
(2.57686e-13 0 -5.13506e-13)
(4.02352e-13 0 -4.58888e-13)
(5.29039e-13 0 -3.99895e-13)
(6.36806e-13 0 -3.38109e-13)
(7.25201e-13 0 -2.74996e-13)
(7.94204e-13 0 -2.11875e-13)
(8.44169e-13 0 -1.49888e-13)
(8.75759e-13 0 -8.9991e-14)
(8.89878e-13 0 -3.29549e-14)
(8.87617e-13 0 2.06268e-14)
(8.70192e-13 0 7.03223e-14)
(8.38902e-13 0 1.15842e-13)
(7.95084e-13 0 1.57015e-13)
(7.40089e-13 0 1.93768e-13)
(6.75253e-13 0 2.26101e-13)
(6.01879e-13 0 2.54069e-13)
(5.21234e-13 0 2.77759e-13)
(4.34537e-13 0 2.97277e-13)
(3.42962e-13 0 3.12732e-13)
(2.47643e-13 0 3.24224e-13)
(1.49675e-13 0 3.31836e-13)
(5.00825e-14 0 3.35627e-13)
(-9.14916e-05 0 0.000112101)
(-0.000237016 0 0.000288017)
(-0.000354536 0 0.000452753)
(-0.000591571 0 0.000382828)
(-0.000626847 0 0.000486372)
(-0.000648451 0 0.000617294)
(-0.000936624 0 0.000412745)
(-0.000903569 0 0.000628718)
(-0.00100767 0 0.000540246)
(-0.00104185 0 0.000503607)
(-0.00107644 0 0.000424734)
(-0.00116943 0 0.000233029)
(-0.00119229 0 0.000285849)
(-0.00120897 0 0.000193634)
(-0.0011991 0 0.000119463)
(-0.00122524 0 -8.52004e-06)
(-0.00123298 0 -7.69903e-05)
(-0.00114249 0 -0.000245107)
(-0.00110114 0 -0.00026709)
(-0.00103382 0 -0.000454373)
(-0.000935979 0 -0.000570169)
(-0.000913347 0 -0.000429174)
(-0.000832102 0 -0.000500729)
(-0.000575201 0 -0.000782629)
(-0.000647549 0 -0.0005773)
(-0.000431142 0 -0.000595436)
(-0.0003793 0 -0.000505793)
(-0.000404762 0 -0.000420348)
(-0.000274102 0 -0.000457277)
(-0.000142431 0 -0.000488559)
(-0.000138973 0 -0.000498642)
(7.4107e-05 0 -0.000430684)
(0.000246944 0 -0.000391325)
(0.000249449 0 -0.000504592)
(0.000432738 0 -0.000484955)
(0.000575294 0 -0.000493857)
(0.000664092 0 -0.000581137)
(0.000954862 0 -0.000124522)
(0.000939835 0 -0.000442514)
(0.00100318 0 -0.000283123)
(0.0010742 0 -0.000116089)
(0.00110562 0 -0.00019295)
(0.00109012 0 -0.000306714)
(0.00112114 0 -0.000273591)
(0.00114246 0 -0.000210941)
(0.00112613 0 -0.000211742)
(0.00112 0 -0.000136157)
(0.00113341 0 -0.000131114)
(0.00116299 0 -0.000150893)
(0.00119757 0 -3.06813e-05)
(0.00121287 0 6.14436e-05)
(0.00121259 0 8.70692e-05)
(0.00119903 0 9.77657e-05)
(0.00116833 0 0.000144582)
(0.00114172 0 0.000132935)
(0.00112677 0 0.000130877)
(0.00111169 0 0.000156988)
(0.0010835 0 0.000169512)
(0.00102689 0 0.000172094)
(0.00100055 0 0.00014309)
(0.000981068 0 0.000129276)
(0.000955528 0 0.000110045)
(0.000913044 0 0.000171937)
(0.000886283 0 9.89285e-05)
(0.000832358 0 0.000138869)
(0.000805975 0 0.000228352)
(0.000796311 0 0.000269495)
(0.000776673 0 0.000380703)
(0.000805633 0 0.000407571)
(0.000787691 0 0.000516072)
(0.000768452 0 0.000540393)
(0.000748312 0 0.000544225)
(0.000704725 0 0.00057367)
(0.000673921 0 0.00060363)
(0.000650989 0 0.000603257)
(0.000660724 0 0.000500839)
(0.000476782 0 0.000470708)
(0.00044533 0 0.000240514)
(0.00026046 0 6.49022e-05)
(6.83757e-05 0 5.02448e-05)
(7.27153e-13 0 3.91346e-12)
(-2.8479e-12 0 -4.31146e-14)
(-1.90592e-12 0 -4.50937e-13)
(-1.99081e-12 0 -3.10462e-13)
(-2.04393e-12 0 -3.42269e-13)
(-2.02297e-12 0 -4.23271e-13)
(-1.94485e-12 0 -5.16339e-13)
(-1.82482e-12 0 -6.07423e-13)
(-1.67301e-12 0 -6.89825e-13)
(-1.4967e-12 0 -7.5966e-13)
(-1.30196e-12 0 -8.14402e-13)
(-1.09432e-12 0 -8.52512e-13)
(-8.79011e-13 0 -8.7325e-13)
(-6.61069e-13 0 -8.76593e-13)
(-4.45232e-13 0 -8.63148e-13)
(-2.35857e-13 0 -8.34069e-13)
(-3.68246e-14 0 -7.90948e-13)
(1.48549e-13 0 -7.35711e-13)
(3.17564e-13 0 -6.70491e-13)
(4.68157e-13 0 -5.97518e-13)
(5.98899e-13 0 -5.1901e-13)
(7.08954e-13 0 -4.3709e-13)
(7.98026e-13 0 -3.53711e-13)
(8.6629e-13 0 -2.70609e-13)
(9.14312e-13 0 -1.89274e-13)
(9.42973e-13 0 -1.10938e-13)
(9.5339e-13 0 -3.65775e-14)
(9.4685e-13 0 3.30687e-14)
(9.24745e-13 0 9.74777e-14)
(8.88522e-13 0 1.56313e-13)
(8.39646e-13 0 2.09395e-13)
(7.79563e-13 0 2.56665e-13)
(7.0968e-13 0 2.9816e-13)
(6.31352e-13 0 3.33982e-13)
(5.45871e-13 0 3.64272e-13)
(4.54467e-13 0 3.8919e-13)
(3.58312e-13 0 4.08895e-13)
(2.58521e-13 0 4.23532e-13)
(1.56167e-13 0 4.3322e-13)
(5.22401e-14 0 4.38042e-13)
(-0.000183238 0 0.00025927)
(-0.000551732 0 0.000282714)
(-0.000520768 0 0.000496645)
(-0.00043899 0 0.000685943)
(-0.000571582 0 0.000652568)
(-0.000685985 0 0.000681544)
(-0.000872803 0 0.000598575)
(-0.000888497 0 0.000649427)
(-0.000972059 0 0.000586038)
(-0.000989014 0 0.000570728)
(-0.00107889 0 0.000389902)
(-0.00113812 0 0.000327625)
(-0.00115709 0 0.000324088)
(-0.00115941 0 0.000131923)
(-0.00113786 0 9.14029e-05)
(-0.00116561 0 -2.95628e-05)
(-0.00117464 0 -0.000104032)
(-0.00106847 0 -0.000373881)
(-0.00103362 0 -0.000366503)
(-0.000982586 0 -0.000502234)
(-0.000952897 0 -0.000571131)
(-0.000824042 0 -0.000686952)
(-0.000795135 0 -0.000684109)
(-0.000789437 0 -0.000694282)
(-0.000721542 0 -0.000660151)
(-0.000556885 0 -0.000652181)
(-0.000477671 0 -0.00057706)
(-0.000446609 0 -0.000512412)
(-0.00030673 0 -0.000547015)
(-0.000301426 0 -0.000514327)
(-0.000281675 0 -0.000521661)
(-6.35312e-05 0 -0.000610332)
(9.63404e-05 0 -0.000657074)
(0.00020913 0 -0.000693442)
(0.000373384 0 -0.0006454)
(0.00048247 0 -0.000631883)
(0.0006504 0 -0.000486902)
(0.000696081 0 -0.000523417)
(0.000820285 0 -0.000375009)
(0.000755577 0 -0.000514417)
(0.000821559 0 -0.000390379)
(0.000878011 0 -0.000288107)
(0.000921946 0 -0.00018826)
(0.000914979 0 -0.000186939)
(0.000883717 0 -0.000249418)
(0.000895337 0 -0.000196108)
(0.000901414 0 -0.000167461)
(0.00091026 0 -0.000119834)
(0.000918169 0 -9.886e-05)
(0.000926542 0 -9.56174e-05)
(0.000943831 0 -3.82673e-05)
(0.000982819 0 2.82957e-05)
(0.000983477 0 5.63577e-05)
(0.00095917 0 7.88877e-05)
(0.000939477 0 0.000123418)
(0.00094556 0 0.000130106)
(0.000941237 0 0.00013583)
(0.000933853 0 0.000139464)
(0.000937049 0 0.000129143)
(0.000953446 0 0.000138855)
(0.000967292 0 0.000140637)
(0.000961135 0 0.000138272)
(0.000937634 0 0.000156561)
(0.000897557 0 0.000164842)
(0.000841446 0 0.000179145)
(0.000760669 0 0.000241025)
(0.00074678 0 0.000242055)
(0.00076216 0 0.000241653)
(0.000762473 0 0.000308487)
(0.000749403 0 0.000432008)
(0.00073247 0 0.000532155)
(0.000725802 0 0.000539716)
(0.000699351 0 0.000560446)
(0.000659003 0 0.000598811)
(0.000636895 0 0.000597566)
(0.000628834 0 0.000525933)
(0.000546166 0 0.000440867)
(0.000401471 0 0.000344167)
(0.00011329 0 0.000156909)
(-0.000220361 0 0.000142341)
(8.61133e-06 0 5.55287e-05)
(-2.76797e-12 0 2.31432e-12)
(-2.37116e-12 0 2.03663e-13)
(-1.95213e-12 0 -1.05792e-13)
(-2.13715e-12 0 -3.09796e-13)
(-2.13837e-12 0 -4.76365e-13)
(-2.05774e-12 0 -6.22743e-13)
(-1.92741e-12 0 -7.52084e-13)
(-1.76135e-12 0 -8.6368e-13)
(-1.56819e-12 0 -9.55829e-13)
(-1.35483e-12 0 -1.02683e-12)
(-1.12756e-12 0 -1.07547e-12)
(-8.92365e-13 0 -1.10125e-12)
(-6.54962e-13 0 -1.10438e-12)
(-4.20732e-13 0 -1.08585e-12)
(-1.9458e-13 0 -1.0473e-12)
(1.91906e-14 0 -9.9091e-13)
(2.16965e-13 0 -9.19267e-13)
(3.9588e-13 0 -8.35208e-13)
(5.53833e-13 0 -7.41664e-13)
(6.89467e-13 0 -6.41523e-13)
(8.02106e-13 0 -5.37519e-13)
(8.91682e-13 0 -4.3214e-13)
(9.58641e-13 0 -3.27571e-13)
(1.00384e-12 0 -2.25658e-13)
(1.02846e-12 0 -1.27907e-13)
(1.03388e-12 0 -3.54847e-14)
(1.02167e-12 0 5.0748e-14)
(9.93437e-13 0 1.30206e-13)
(9.50819e-13 0 2.02538e-13)
(8.95436e-13 0 2.67585e-13)
(8.28855e-13 0 3.25336e-13)
(7.5257e-13 0 3.75892e-13)
(6.67991e-13 0 4.19426e-13)
(5.76441e-13 0 4.56155e-13)
(4.7916e-13 0 4.86312e-13)
(3.77305e-13 0 5.10122e-13)
(2.71968e-13 0 5.27786e-13)
(1.64185e-13 0 5.39467e-13)
(5.49044e-14 0 5.45277e-13)
(-0.000128162 0 0.00047909)
(-0.000214668 0 0.000647809)
(-0.000526148 0 0.000626058)
(-0.000665569 0 0.0006204)
(-0.000569016 0 0.000757005)
(-0.000756402 0 0.000675395)
(-0.000836372 0 0.000669795)
(-0.000872774 0 0.000667359)
(-0.000932962 0 0.000611758)
(-0.000968204 0 0.000548379)
(-0.0010044 0 0.000461727)
(-0.00109262 0 0.000335612)
(-0.00109673 0 0.000334837)
(-0.00107039 0 0.000172752)
(-0.00103952 0 0.000115329)
(-0.00104851 0 4.03757e-05)
(-0.00106936 0 -9.53191e-05)
(-0.000985924 0 -0.000444729)
(-0.00101268 0 -0.000418602)
(-0.000993049 0 -0.00053696)
(-0.000959876 0 -0.000616207)
(-0.000894849 0 -0.000679226)
(-0.000839705 0 -0.000732049)
(-0.000808347 0 -0.000765894)
(-0.000705032 0 -0.000783099)
(-0.000607787 0 -0.000737187)
(-0.000598167 0 -0.000621829)
(-0.000484408 0 -0.000613065)
(-0.000447989 0 -0.000568683)
(-0.000342302 0 -0.000610212)
(-0.000146099 0 -0.000707508)
(-5.32988e-05 0 -0.000751284)
(-8.1634e-05 0 -0.000814097)
(0.000210029 0 -0.000785717)
(0.000164422 0 -0.000777345)
(0.000398127 0 -0.000661697)
(0.000444334 0 -0.000651799)
(0.000588106 0 -0.000512648)
(0.000592066 0 -0.000502929)
(0.000706505 0 -0.000345723)
(0.000708384 0 -0.000269869)
(0.00066738 0 -0.000265632)
(0.000664402 0 -0.000275738)
(0.000674206 0 -0.000268975)
(0.000681683 0 -0.000241599)
(0.00067723 0 -0.000221739)
(0.000693381 0 -0.000107915)
(0.00068343 0 -0.000138943)
(0.000696302 0 -0.000118283)
(0.000728201 0 -2.00989e-05)
(0.000752166 0 -9.67931e-05)
(0.000772739 0 8.68297e-05)
(0.000792168 0 0.000135925)
(0.000792798 0 0.000136506)
(0.000793786 0 0.000136859)
(0.000800749 0 0.000170261)
(0.000826911 0 0.000162362)
(0.000870509 0 0.000137489)
(0.000933712 0 0.000177173)
(0.000999131 0 4.71696e-05)
(0.000998997 0 0.000113617)
(0.000996024 0 0.00015378)
(0.000986314 0 0.000165575)
(0.000944776 0 0.000209114)
(0.000872052 0 0.000259092)
(0.000795525 0 0.000263818)
(0.000742751 0 0.000279271)
(0.000671595 0 0.000415713)
(0.000654116 0 0.000442707)
(0.000647424 0 0.000477662)
(0.000638035 0 0.000554076)
(0.00069288 0 0.000522934)
(0.000634857 0 0.000600582)
(0.000624064 0 0.000610044)
(0.000611841 0 0.000600282)
(0.000547808 0 0.000587028)
(0.000481594 0 0.000526178)
(0.000335864 0 0.000488053)
(0.00038061 0 0.000213283)
(-0.000135195 0 0.000329592)
(5.04172e-06 0 6.88298e-05)
(-1.83993e-12 0 1.86958e-12)
(-4.11735e-12 0 4.87247e-13)
(-2.50381e-12 0 -6.52327e-15)
(-2.41409e-12 0 -3.14713e-13)
(-2.33555e-12 0 -5.49598e-13)
(-2.22032e-12 0 -7.46018e-13)
(-2.0657e-12 0 -9.1437e-13)
(-1.87675e-12 0 -1.05692e-12)
(-1.65984e-12 0 -1.17308e-12)
(-1.4216e-12 0 -1.26154e-12)
(-1.16873e-12 0 -1.32124e-12)
(-9.07918e-13 0 -1.35181e-12)
(-6.45677e-13 0 -1.35377e-12)
(-3.88153e-13 0 -1.32853e-12)
(-1.40914e-13 0 -1.27833e-12)
(9.12095e-14 0 -1.20608e-12)
(3.04251e-13 0 -1.11521e-12)
(4.95168e-13 0 -1.00938e-12)
(6.61843e-13 0 -8.92383e-13)
(8.03044e-13 0 -7.67881e-13)
(9.18337e-13 0 -6.3931e-13)
(1.00797e-12 0 -5.0975e-13)
(1.07277e-12 0 -3.81868e-13)
(1.11398e-12 0 -2.57877e-13)
(1.13315e-12 0 -1.39543e-13)
(1.13205e-12 0 -2.8201e-14)
(1.11254e-12 0 7.52026e-14)
(1.07654e-12 0 1.7006e-13)
(1.0259e-12 0 2.56048e-13)
(9.62444e-13 0 3.3307e-13)
(8.8787e-13 0 4.01201e-13)
(8.0377e-13 0 4.60642e-13)
(7.11615e-13 0 5.11671e-13)
(6.12757e-13 0 5.54607e-13)
(5.08434e-13 0 5.89778e-13)
(3.99787e-13 0 6.17492e-13)
(2.87866e-13 0 6.38021e-13)
(1.73658e-13 0 6.5158e-13)
(5.80504e-14 0 6.5832e-13)
(-0.000157753 0 0.000695992)
(-0.000256631 0 0.000763822)
(-0.000411928 0 0.0007625)
(-0.000464001 0 0.000802665)
(-0.000638915 0 0.000767409)
(-0.000638255 0 0.000824572)
(-0.000717378 0 0.000802211)
(-0.000819776 0 0.000719538)
(-0.00085082 0 0.00069695)
(-0.000893053 0 0.000639599)
(-0.00091272 0 0.000535132)
(-0.000918613 0 0.000501)
(-0.000989305 0 0.000320009)
(-0.000989471 0 8.87785e-05)
(-0.000942167 0 1.16367e-05)
(-0.000926795 0 8.96879e-06)
(-0.000928934 0 -6.94587e-05)
(-0.000901252 0 -0.000419961)
(-0.000975158 0 -0.000460662)
(-0.00100216 0 -0.000525307)
(-0.000927218 0 -0.000670253)
(-0.000875131 0 -0.000729482)
(-0.000837136 0 -0.00077905)
(-0.000775999 0 -0.000829733)
(-0.000716749 0 -0.000840311)
(-0.000717594 0 -0.0007421)
(-0.000578365 0 -0.000743553)
(-0.000510906 0 -0.000693203)
(-0.000444006 0 -0.000679033)
(-0.000397126 0 -0.000696246)
(-0.000257067 0 -0.00078992)
(-0.000230879 0 -0.000826141)
(-0.000182871 0 -0.00085919)
(-0.00012122 0 -0.00086592)
(-0.000194764 0 -0.000842138)
(-7.91598e-06 0 -0.000915874)
(4.97228e-05 0 -0.000864766)
(0.000484372 0 -0.000595602)
(0.000460368 0 -0.000547959)
(0.000577208 0 -0.000358531)
(0.000489408 0 -0.000379439)
(0.000534287 0 -0.000239985)
(0.000544558 0 -0.000215669)
(0.000543272 0 -0.000216335)
(0.000540683 0 -0.000207617)
(0.00052617 0 -0.000193802)
(0.000526337 0 -0.000162456)
(0.000532903 0 -0.000156673)
(0.000547968 0 -0.000161207)
(0.000578587 0 -0.000100083)
(0.000593071 0 -2.25804e-05)
(0.000607964 0 1.45097e-05)
(0.00063565 0 8.27864e-05)
(0.000675749 0 0.000109949)
(0.000716735 0 0.00011253)
(0.000755776 0 7.21142e-05)
(0.000793878 0 7.40707e-05)
(0.00084147 0 2.14429e-05)
(0.000898182 0 4.33364e-05)
(0.000929489 0 0.000126317)
(0.000955354 0 3.60911e-05)
(0.000948349 0 0.000185823)
(0.000939523 0 0.000229716)
(0.000920194 0 0.000254272)
(0.00085153 0 0.000326106)
(0.000773442 0 0.000362262)
(0.000700912 0 0.000371335)
(0.000643742 0 0.000406135)
(0.000641967 0 0.000408316)
(0.000626627 0 0.000445131)
(0.000616299 0 0.000500204)
(0.000624931 0 0.000534657)
(0.000579503 0 0.000617561)
(0.000545597 0 0.000656342)
(0.000510546 0 0.00066896)
(0.000491695 0 0.00063834)
(0.000390078 0 0.000632039)
(0.000461118 0 0.000482003)
(0.000392321 0 0.000427034)
(-2.18414e-05 0 0.000444481)
(4.67258e-06 0 0.000281377)
(-1.54351e-12 0 5.85755e-13)
(-3.95938e-12 0 1.99327e-13)
(-2.7536e-12 0 -9.28025e-14)
(-2.6798e-12 0 -3.92906e-13)
(-2.56931e-12 0 -6.61256e-13)
(-2.42227e-12 0 -8.97206e-13)
(-2.23826e-12 0 -1.10237e-12)
(-2.02006e-12 0 -1.27649e-12)
(-1.77281e-12 0 -1.41797e-12)
(-1.50299e-12 0 -1.52494e-12)
(-1.21784e-12 0 -1.59606e-12)
(-9.24897e-13 0 -1.63092e-12)
(-6.31679e-13 0 -1.63029e-12)
(-3.45289e-13 0 -1.5961e-12)
(-7.21353e-14 0 -1.53134e-12)
(1.82311e-13 0 -1.43984e-12)
(4.13666e-13 0 -1.32605e-12)
(6.18702e-13 0 -1.1947e-12)
(7.95334e-13 0 -1.05058e-12)
(9.42539e-13 0 -8.98287e-13)
(1.06024e-12 0 -7.42071e-13)
(1.14912e-12 0 -5.8567e-13)
(1.21051e-12 0 -4.32263e-13)
(1.24616e-12 0 -2.84433e-13)
(1.25813e-12 0 -1.44183e-13)
(1.24863e-12 0 -1.29764e-14)
(1.21993e-12 0 1.08204e-13)
(1.17428e-12 0 2.18784e-13)
(1.11383e-12 0 3.18524e-13)
(1.04059e-12 0 4.07443e-13)
(9.56428e-13 0 4.85754e-13)
(8.6304e-13 0 5.53802e-13)
(7.61956e-13 0 6.12007e-13)
(6.54548e-13 0 6.60822e-13)
(5.42044e-13 0 7.00696e-13)
(4.25548e-13 0 7.32043e-13)
(3.06056e-13 0 7.5522e-13)
(1.84485e-13 0 7.70508e-13)
(6.16448e-14 0 7.78102e-13)
(-9.62618e-05 0 0.000730058)
(0.000211388 0 0.000948107)
(-0.000109427 0 0.000922773)
(-0.000408541 0 0.000865894)
(-0.000465002 0 0.000904964)
(-0.000650364 0 0.000843178)
(-0.000670925 0 0.000846653)
(-0.000747543 0 0.000781914)
(-0.000858695 0 0.000660761)
(-0.00079373 0 0.000716349)
(-0.000896999 0 0.000415354)
(-0.000808367 0 0.00034845)
(-0.000763784 0 0.000335242)
(-0.000802261 0 0.000191535)
(-0.000843762 0 4.98295e-05)
(-0.000842051 0 -1.13076e-05)
(-0.000827568 0 -0.000128748)
(-0.000734817 0 -0.00052194)
(-0.000845193 0 -0.000469435)
(-0.000935323 0 -0.000461363)
(-0.000758707 0 -0.000789789)
(-0.000772838 0 -0.000804035)
(-0.000828036 0 -0.000797507)
(-0.000772669 0 -0.000851809)
(-0.000730677 0 -0.000873394)
(-0.000651991 0 -0.000860202)
(-0.000606239 0 -0.000791624)
(-0.000543748 0 -0.000750771)
(-0.000465274 0 -0.000753795)
(-0.000400071 0 -0.000777774)
(-0.000359456 0 -0.000815641)
(-0.000337134 0 -0.000837748)
(-0.000297132 0 -0.000857551)
(-0.000354679 0 -0.00087537)
(-0.000251694 0 -0.000940837)
(-7.8193e-05 0 -0.000988054)
(-6.53904e-05 0 -0.000971528)
(0.00018565 0 -0.000919481)
(0.000250991 0 -0.000726257)
(0.00046685 0 -0.000374896)
(0.000405432 0 -0.000296502)
(0.000418016 0 -0.000274082)
(0.000429889 0 -0.000259456)
(0.000424548 0 -0.000259434)
(0.000420006 0 -0.000245309)
(0.000422458 0 -0.000200403)
(0.000428323 0 -0.000161387)
(0.000423169 0 -0.000175341)
(0.000435167 0 -0.000146516)
(0.000437455 0 -0.000116409)
(0.000438953 0 -0.000100846)
(0.000453288 0 -6.33621e-05)
(0.00048927 0 3.00435e-06)
(0.000532749 0 1.35966e-05)
(0.000575514 0 2.71743e-05)
(0.00061766 0 7.25725e-05)
(0.000661382 0 6.45987e-05)
(0.000689613 0 2.9069e-05)
(0.000712009 0 3.09448e-05)
(0.000742487 0 2.77059e-05)
(0.000779611 0 7.64525e-05)
(0.000802919 0 0.000158191)
(0.000841057 0 0.000163729)
(0.000809978 0 0.000344312)
(0.000784408 0 0.00037719)
(0.000737624 0 0.000390002)
(0.000644 0 0.000434279)