/*--------------------------------*- C++ -*----------------------------------*\
  =========                 |
  \\      /  F ield         | OpenFOAM: The Open Source CFD Toolbox
   \\    /   O peration     | Website:  https://openfoam.org
    \\  /    A nd           | Version:  6
     \\/     M anipulation  |
\*---------------------------------------------------------------------------*/
FoamFile
{
    version     2.0;
    format      ascii;
    class       volVectorField;
    location    "6000";
    object      U;
}
// * * * * * * * * * * * * * * * * * * * * * * * * * * * * * * * * * * * * * //

dimensions      [0 1 -1 0 0 0 0];

internalField   nonuniform List<vector> 
4800
(
(1.49976e-08 0 -1.34935e-08)
(4.20883e-08 0 -1.66449e-08)
(7.06455e-08 0 -1.77837e-08)
(9.904e-08 0 -1.80338e-08)
(1.27535e-07 0 -1.79419e-08)
(1.56165e-07 0 -1.77047e-08)
(1.84936e-07 0 -1.73646e-08)
(2.13804e-07 0 -1.69694e-08)
(2.42715e-07 0 -1.65384e-08)
(2.71603e-07 0 -1.61001e-08)
(3.00369e-07 0 -1.56215e-08)
(3.28905e-07 0 -1.51635e-08)
(3.571e-07 0 -1.47112e-08)
(3.84798e-07 0 -1.41972e-08)
(4.11799e-07 0 -1.36418e-08)
(4.37911e-07 0 -1.30265e-08)
(4.63095e-07 0 -1.24659e-08)
(4.87652e-07 0 -1.21602e-08)
(5.1116e-07 0 -1.14685e-08)
(5.33136e-07 0 -1.06611e-08)
(5.53976e-07 0 -9.95493e-09)
(5.73998e-07 0 -9.88811e-09)
(5.92737e-07 0 -8.84217e-09)
(6.10034e-07 0 -8.29035e-09)
(6.26266e-07 0 -7.7783e-09)
(6.41438e-07 0 -7.19743e-09)
(6.55503e-07 0 -6.66957e-09)
(6.68591e-07 0 -6.19882e-09)
(6.8079e-07 0 -5.74858e-09)
(6.92177e-07 0 -5.37141e-09)
(7.02853e-07 0 -5.02386e-09)
(7.12863e-07 0 -4.70496e-09)
(7.22297e-07 0 -4.43194e-09)
(7.31185e-07 0 -4.16536e-09)
(7.39585e-07 0 -3.93837e-09)
(7.47518e-07 0 -3.69826e-09)
(7.54977e-07 0 -3.47546e-09)
(7.61946e-07 0 -3.21778e-09)
(7.68404e-07 0 -2.96229e-09)
(7.74288e-07 0 -2.66493e-09)
(7.79542e-07 0 -2.34549e-09)
(7.84072e-07 0 -1.95162e-09)
(7.87773e-07 0 -1.5341e-09)
(7.90571e-07 0 -1.06369e-09)
(7.92328e-07 0 -4.96861e-10)
(7.92939e-07 0 6.42996e-11)
(7.92306e-07 0 7.20895e-10)
(7.90321e-07 0 1.40998e-09)
(7.86871e-07 0 2.17375e-09)
(7.81864e-07 0 2.94103e-09)
(7.75278e-07 0 3.75615e-09)
(7.66978e-07 0 4.62033e-09)
(7.56973e-07 0 5.457e-09)
(7.45237e-07 0 6.3358e-09)
(7.31714e-07 0 7.2042e-09)
(7.16492e-07 0 8.03128e-09)
(6.99557e-07 0 8.88894e-09)
(6.80938e-07 0 9.68363e-09)
(6.60691e-07 0 1.05005e-08)
(6.38879e-07 0 1.12129e-08)
(6.15611e-07 0 1.19008e-08)
(5.90957e-07 0 1.25554e-08)
(5.64985e-07 0 1.31674e-08)
(5.37788e-07 0 1.3721e-08)
(5.09465e-07 0 1.42256e-08)
(4.80123e-07 0 1.46694e-08)
(4.49853e-07 0 1.50758e-08)
(4.18748e-07 0 1.54257e-08)
(3.8691e-07 0 1.57237e-08)
(3.54473e-07 0 1.5948e-08)
(3.2157e-07 0 1.61217e-08)
(2.88349e-07 0 1.6218e-08)
(2.55046e-07 0 1.62006e-08)
(2.2212e-07 0 1.5896e-08)
(1.90824e-07 0 1.48768e-08)
(1.63885e-07 0 1.24404e-08)
(1.46074e-07 0 -1.10527e-09)
(1.00057e-07 0 2.28001e-08)
(-1.97182e-10 0 3.69425e-08)
(8.99203e-16 0 3.36599e-17)
(5.11857e-16 0 8.27181e-19)
(9.87478e-16 0 6.61745e-19)
(9.8997e-16 0 1.90252e-18)
(9.92844e-16 0 3.2777e-18)
(9.91211e-16 0 4.55983e-18)
(9.85255e-16 0 5.72823e-18)
(9.75546e-16 0 6.8139e-18)
(9.62632e-16 0 7.79618e-18)
(9.46956e-16 0 8.70608e-18)
(9.28872e-16 0 9.51258e-18)
(9.0873e-16 0 1.02364e-17)
(8.86841e-16 0 1.08774e-17)
(8.63422e-16 0 1.14668e-17)
(8.3873e-16 0 1.19838e-17)
(8.12984e-16 0 1.24387e-17)
(7.86318e-16 0 1.28627e-17)
(7.58887e-16 0 1.32349e-17)
(7.30814e-16 0 1.35658e-17)
(7.02163e-16 0 1.3907e-17)
(6.73005e-16 0 1.41861e-17)
(6.43391e-16 0 1.44446e-17)
(6.13365e-16 0 1.47031e-17)
(5.82956e-16 0 1.4941e-17)
(5.52164e-16 0 1.51788e-17)
(5.2102e-16 0 1.53959e-17)
(4.89505e-16 0 1.56027e-17)
(4.57638e-16 0 1.57992e-17)
(4.2544e-16 0 1.59749e-17)
(3.92869e-16 0 1.613e-17)
(3.59927e-16 0 1.62955e-17)
(3.26674e-16 0 1.64402e-17)
(2.93132e-16 0 1.65746e-17)
(2.593e-16 0 1.6678e-17)
(2.25221e-16 0 1.67814e-17)
(1.90893e-16 0 1.68745e-17)
(1.56347e-16 0 1.69262e-17)
(1.21658e-16 0 1.69779e-17)
(8.6885e-17 0 1.69882e-17)
(5.20503e-17 0 1.69675e-17)
(1.73088e-17 0 1.68228e-17)
(1.51143e-08 0 -4.19135e-08)
(4.23291e-08 0 -3.94719e-08)
(7.04324e-08 0 -3.88313e-08)
(9.85762e-08 0 -3.89455e-08)
(1.26949e-07 0 -3.93366e-08)
(1.55542e-07 0 -3.98468e-08)
(1.84316e-07 0 -4.03775e-08)
(2.13245e-07 0 -4.08704e-08)
(2.42265e-07 0 -4.12609e-08)
(2.71272e-07 0 -4.15227e-08)
(3.00188e-07 0 -4.16125e-08)
(3.28921e-07 0 -4.15134e-08)
(3.57316e-07 0 -4.12083e-08)
(3.85193e-07 0 -4.04605e-08)
(4.12331e-07 0 -3.94265e-08)
(4.38574e-07 0 -3.79849e-08)
(4.63953e-07 0 -3.66994e-08)
(4.88659e-07 0 -3.6063e-08)
(5.12203e-07 0 -3.41167e-08)
(5.34237e-07 0 -3.17981e-08)
(5.55168e-07 0 -2.98667e-08)
(5.7518e-07 0 -2.96858e-08)
(5.93881e-07 0 -2.6698e-08)
(6.11158e-07 0 -2.50678e-08)
(6.27361e-07 0 -2.3656e-08)
(6.42483e-07 0 -2.19577e-08)
(6.56472e-07 0 -2.04161e-08)
(6.69475e-07 0 -1.90793e-08)
(6.816e-07 0 -1.77823e-08)
(6.92908e-07 0 -1.66973e-08)
(7.03505e-07 0 -1.56909e-08)
(7.13452e-07 0 -1.47734e-08)
(7.22838e-07 0 -1.39768e-08)
(7.31688e-07 0 -1.32064e-08)
(7.4006e-07 0 -1.25172e-08)
(7.47985e-07 0 -1.18474e-08)
(7.55459e-07 0 -1.11564e-08)
(7.62457e-07 0 -1.03988e-08)
(7.68968e-07 0 -9.62449e-09)
(7.7492e-07 0 -8.72843e-09)
(7.80245e-07 0 -7.73057e-09)
(7.84874e-07 0 -6.56998e-09)
(7.88692e-07 0 -5.27203e-09)
(7.91598e-07 0 -3.82327e-09)
(7.93469e-07 0 -2.10937e-09)
(7.94199e-07 0 -3.77485e-10)
(7.93685e-07 0 1.61984e-09)
(7.91798e-07 0 3.75674e-09)
(7.88445e-07 0 6.05643e-09)
(7.83524e-07 0 8.44015e-09)
(7.76995e-07 0 1.09216e-08)
(7.68735e-07 0 1.35806e-08)
(7.58737e-07 0 1.61574e-08)
(7.47006e-07 0 1.88272e-08)
(7.33493e-07 0 2.15017e-08)
(7.18248e-07 0 2.407e-08)
(7.01265e-07 0 2.67065e-08)
(6.82583e-07 0 2.92005e-08)
(6.62264e-07 0 3.17214e-08)
(6.40389e-07 0 3.39594e-08)
(6.17046e-07 0 3.61456e-08)
(5.9231e-07 0 3.82172e-08)
(5.66263e-07 0 4.01869e-08)
(5.38982e-07 0 4.20039e-08)
(5.10568e-07 0 4.36738e-08)
(4.8113e-07 0 4.51839e-08)
(4.50743e-07 0 4.65953e-08)
(4.19519e-07 0 4.7821e-08)
(3.87582e-07 0 4.88812e-08)
(3.55036e-07 0 4.97462e-08)
(3.21968e-07 0 5.04563e-08)
(2.88493e-07 0 5.0908e-08)
(2.54746e-07 0 5.10296e-08)
(2.2079e-07 0 5.056e-08)
(1.8634e-07 0 4.89575e-08)
(1.51075e-07 0 4.36027e-08)
(1.03154e-07 0 2.78722e-08)
(6.35595e-08 0 9.8527e-08)
(-1.65379e-10 0 9.33973e-08)
(9.28717e-16 0 7.20738e-17)
(5.11899e-16 0 1.83014e-18)
(9.88564e-16 0 3.81537e-18)
(9.92586e-16 0 7.31021e-18)
(9.95502e-16 0 1.09291e-17)
(9.93661e-16 0 1.43516e-17)
(9.87509e-16 0 1.75466e-17)
(9.77604e-16 0 2.05348e-17)
(9.64513e-16 0 2.33058e-17)
(9.48673e-16 0 2.58391e-17)
(9.30403e-16 0 2.81552e-17)
(9.10095e-16 0 3.02748e-17)
(8.88061e-16 0 3.21877e-17)
(8.64518e-16 0 3.39041e-17)
(8.39712e-16 0 3.54654e-17)
(8.13873e-16 0 3.68716e-17)
(7.87114e-16 0 3.8164e-17)
(7.596e-16 0 3.93221e-17)
(7.31486e-16 0 4.03664e-17)
(7.02783e-16 0 4.1359e-17)
(6.73553e-16 0 4.22586e-17)
(6.43898e-16 0 4.30858e-17)
(6.13861e-16 0 4.38819e-17)
(5.83442e-16 0 4.46161e-17)
(5.52608e-16 0 4.53502e-17)
(5.21434e-16 0 4.59912e-17)
(4.89908e-16 0 4.66116e-17)
(4.5801e-16 0 4.72217e-17)
(4.25781e-16 0 4.77283e-17)
(3.932e-16 0 4.82143e-17)
(3.60237e-16 0 4.86692e-17)
(3.26954e-16 0 4.90725e-17)
(2.9338e-16 0 4.94447e-17)
(2.59507e-16 0 4.97549e-17)
(2.25396e-16 0 5.00341e-17)
(1.91027e-16 0 5.02409e-17)
(1.56451e-16 0 5.04063e-17)
(1.2173e-16 0 5.05201e-17)
(8.68643e-17 0 5.05614e-17)
(5.18746e-17 0 5.05407e-17)
(1.71743e-17 0 5.0365e-17)
(1.4715e-08 0 -7.05773e-08)
(4.15551e-08 0 -7.05354e-08)
(7.00439e-08 0 -7.08029e-08)
(9.84534e-08 0 -7.11641e-08)
(1.26984e-07 0 -7.15878e-08)
(1.55701e-07 0 -7.19775e-08)
(1.84602e-07 0 -7.22835e-08)
(2.13654e-07 0 -7.24925e-08)
(2.42809e-07 0 -7.25151e-08)
(2.71991e-07 0 -7.23259e-08)
(3.01091e-07 0 -7.18947e-08)
(3.30008e-07 0 -7.12326e-08)
(3.58618e-07 0 -7.02567e-08)
(3.86696e-07 0 -6.86504e-08)
(4.13944e-07 0 -6.66161e-08)
(4.40335e-07 0 -6.38574e-08)
(4.65994e-07 0 -6.20723e-08)
(4.90925e-07 0 -6.04555e-08)
(5.14436e-07 0 -5.70234e-08)
(5.36529e-07 0 -5.31998e-08)
(5.57673e-07 0 -5.03071e-08)
(5.77718e-07 0 -4.9226e-08)
(5.96291e-07 0 -4.45909e-08)
(6.13494e-07 0 -4.17494e-08)
(6.29624e-07 0 -3.94334e-08)
(6.44584e-07 0 -3.64768e-08)
(6.58394e-07 0 -3.39191e-08)
(6.71231e-07 0 -3.16743e-08)
(6.83176e-07 0 -2.95217e-08)
(6.94315e-07 0 -2.76948e-08)
(7.04759e-07 0 -2.60211e-08)
(7.14573e-07 0 -2.45255e-08)
(7.23858e-07 0 -2.32077e-08)
(7.32643e-07 0 -2.19632e-08)
(7.40979e-07 0 -2.08036e-08)
(7.48892e-07 0 -1.97479e-08)
(7.56396e-07 0 -1.86131e-08)
(7.63469e-07 0 -1.73872e-08)
(7.70101e-07 0 -1.61389e-08)
(7.76204e-07 0 -1.46634e-08)
(7.81697e-07 0 -1.29948e-08)
(7.86507e-07 0 -1.11157e-08)
(7.90528e-07 0 -8.96171e-09)
(7.93671e-07 0 -6.54926e-09)
(7.9579e-07 0 -3.71265e-09)
(7.96741e-07 0 -8.06783e-10)
(7.96424e-07 0 2.52926e-09)
(7.94727e-07 0 6.11764e-09)
(7.91552e-07 0 9.93269e-09)
(7.86783e-07 0 1.39569e-08)
(7.80379e-07 0 1.80939e-08)
(7.72213e-07 0 2.25785e-08)
(7.62265e-07 0 2.68992e-08)
(7.50541e-07 0 3.13552e-08)
(7.36976e-07 0 3.58273e-08)
(7.21676e-07 0 4.01171e-08)
(7.04633e-07 0 4.44998e-08)
(6.85854e-07 0 4.86778e-08)
(6.65409e-07 0 5.28352e-08)
(6.43384e-07 0 5.65487e-08)
(6.19871e-07 0 6.01706e-08)
(5.94942e-07 0 6.35868e-08)
(5.68675e-07 0 6.68206e-08)
(5.41191e-07 0 6.97815e-08)
(5.12588e-07 0 7.24975e-08)
(4.8294e-07 0 7.49735e-08)
(4.52349e-07 0 7.72263e-08)
(4.20939e-07 0 7.91868e-08)
(3.88782e-07 0 8.08752e-08)
(3.55983e-07 0 8.22845e-08)
(3.22636e-07 0 8.3438e-08)
(2.88823e-07 0 8.42379e-08)
(2.54555e-07 0 8.46398e-08)
(2.19721e-07 0 8.44895e-08)
(1.83812e-07 0 8.35614e-08)
(1.4613e-07 0 8.1697e-08)
(9.87998e-08 0 7.99074e-08)
(5.84288e-08 0 1.3226e-07)
(-1.58794e-10 0 1.35943e-07)
(9.38017e-16 0 9.47399e-17)
(5.14321e-16 0 2.4195e-18)
(9.92989e-16 0 8.06501e-18)
(9.97094e-16 0 1.37312e-17)
(9.99865e-16 0 1.93147e-17)
(9.97818e-16 0 2.46086e-17)
(9.91438e-16 0 2.96441e-17)
(9.81295e-16 0 3.43694e-17)
(9.67925e-16 0 3.87844e-17)
(9.51816e-16 0 4.2879e-17)
(9.33318e-16 0 4.66427e-17)
(9.12763e-16 0 5.01065e-17)
(8.9047e-16 0 5.32704e-17)
(8.6672e-16 0 5.61242e-17)
(8.41729e-16 0 5.87298e-17)
(8.15673e-16 0 6.10873e-17)
(7.88737e-16 0 6.3238e-17)
(7.61089e-16 0 6.51922e-17)
(7.32841e-16 0 6.6981e-17)
(7.04045e-16 0 6.86353e-17)
(6.74752e-16 0 7.01759e-17)
(6.45015e-16 0 7.15718e-17)
(6.14895e-16 0 7.29056e-17)
(5.84424e-16 0 7.41361e-17)
(5.53529e-16 0 7.53251e-17)
(5.22292e-16 0 7.64108e-17)
(4.90735e-16 0 7.74448e-17)
(4.58765e-16 0 7.84271e-17)
(4.26453e-16 0 7.93163e-17)
(3.9381e-16 0 8.01228e-17)
(3.60785e-16 0 8.08569e-17)
(3.2745e-16 0 8.14876e-17)
(2.93825e-16 0 8.20667e-17)
(2.599e-16 0 8.2563e-17)
(2.25696e-16 0 8.29766e-17)
(1.91244e-16 0 8.32868e-17)
(1.56627e-16 0 8.35246e-17)
(1.21833e-16 0 8.36797e-17)
(8.68953e-17 0 8.37624e-17)
(5.18539e-17 0 8.37624e-17)
(1.71537e-17 0 8.37107e-17)
(1.4721e-08 0 -9.78118e-08)
(4.1368e-08 0 -9.79983e-08)
(6.97072e-08 0 -9.84019e-08)
(9.80553e-08 0 -9.89266e-08)
(1.26585e-07 0 -9.95499e-08)
(1.5534e-07 0 -1.00175e-07)
(1.84343e-07 0 -1.00701e-07)
(2.13561e-07 0 -1.011e-07)
(2.42947e-07 0 -1.01256e-07)
(2.72407e-07 0 -1.01112e-07)
(3.01845e-07 0 -1.0063e-07)
(3.31128e-07 0 -9.98196e-08)
(3.60119e-07 0 -9.84846e-08)
(3.88565e-07 0 -9.632e-08)
(4.16073e-07 0 -9.33962e-08)
(4.42806e-07 0 -8.94874e-08)
(4.6897e-07 0 -8.7517e-08)
(4.94244e-07 0 -8.48638e-08)
(5.17694e-07 0 -7.98394e-08)
(5.39968e-07 0 -7.43317e-08)
(5.61444e-07 0 -7.10676e-08)
(5.81521e-07 0 -6.83593e-08)
(5.999e-07 0 -6.2359e-08)
(6.17033e-07 0 -5.82637e-08)
(6.33004e-07 0 -5.50572e-08)
(6.47723e-07 0 -5.07087e-08)
(6.61278e-07 0 -4.72072e-08)
(6.73864e-07 0 -4.40155e-08)
(6.8555e-07 0 -4.10357e-08)
(6.96425e-07 0 -3.84637e-08)
(7.06628e-07 0 -3.61791e-08)
(7.16246e-07 0 -3.41417e-08)
(7.25366e-07 0 -3.23254e-08)
(7.34033e-07 0 -3.06642e-08)
(7.42307e-07 0 -2.90789e-08)
(7.50213e-07 0 -2.76718e-08)
(7.57761e-07 0 -2.6157e-08)
(7.64939e-07 0 -2.45115e-08)
(7.71726e-07 0 -2.28258e-08)
(7.78027e-07 0 -2.08128e-08)
(7.838e-07 0 -1.85436e-08)
(7.88944e-07 0 -1.59243e-08)
(7.93282e-07 0 -1.29419e-08)
(7.96747e-07 0 -9.58945e-09)
(7.99221e-07 0 -5.62878e-09)
(8.0053e-07 0 -1.52431e-09)
(8.00576e-07 0 3.14946e-09)
(7.99199e-07 0 8.23484e-09)
(7.96296e-07 0 1.35981e-08)
(7.91747e-07 0 1.9322e-08)
(7.855e-07 0 2.51239e-08)
(7.77464e-07 0 3.15107e-08)
(7.67584e-07 0 3.76277e-08)
(7.55884e-07 0 4.3897e-08)
(7.42304e-07 0 5.02701e-08)
(7.26926e-07 0 5.62939e-08)
(7.09722e-07 0 6.2502e-08)
(6.90763e-07 0 6.84058e-08)
(6.70131e-07 0 7.42477e-08)
(6.47892e-07 0 7.95111e-08)
(6.24113e-07 0 8.46218e-08)
(5.98916e-07 0 8.94485e-08)
(5.72387e-07 0 9.39822e-08)
(5.44627e-07 0 9.81391e-08)
(5.1573e-07 0 1.01966e-07)
(4.85777e-07 0 1.05492e-07)
(4.54869e-07 0 1.08641e-07)
(4.23132e-07 0 1.11426e-07)
(3.90659e-07 0 1.13827e-07)
(3.57536e-07 0 1.15854e-07)
(3.23836e-07 0 1.17544e-07)
(2.89647e-07 0 1.18789e-07)
(2.54991e-07 0 1.19655e-07)
(2.19805e-07 0 1.20146e-07)
(1.83899e-07 0 1.20414e-07)
(1.47634e-07 0 1.20903e-07)
(1.08253e-07 0 1.2424e-07)
(5.83778e-08 0 1.72544e-07)
(-1.563e-10 0 1.76188e-07)
(9.44795e-16 0 1.33877e-16)
(5.18143e-16 0 3.36042e-18)
(9.99896e-16 0 1.15495e-17)
(1.00385e-15 0 1.95835e-17)
(1.00636e-15 0 2.7359e-17)
(1.00399e-15 0 3.47416e-17)
(9.9728e-16 0 4.17726e-17)
(9.86765e-16 0 4.83901e-17)
(9.73023e-16 0 5.45526e-17)
(9.56531e-16 0 6.02911e-17)
(9.3764e-16 0 6.55334e-17)
(9.16713e-16 0 7.03517e-17)
(8.94069e-16 0 7.47461e-17)
(8.69987e-16 0 7.87579e-17)
(8.44696e-16 0 8.23769e-17)
(8.18382e-16 0 8.56546e-17)
(7.91209e-16 0 8.86221e-17)
(7.63343e-16 0 9.13311e-17)
(7.34919e-16 0 9.3823e-17)
(7.05968e-16 0 9.61081e-17)
(6.76499e-16 0 9.8207e-17)
(6.46649e-16 0 1.00151e-16)
(6.16425e-16 0 1.01981e-16)
(5.8583e-16 0 1.03687e-16)
(5.54883e-16 0 1.0529e-16)
(5.23574e-16 0 1.0683e-16)
(4.91914e-16 0 1.08247e-16)
(4.59881e-16 0 1.0957e-16)
(4.27477e-16 0 1.10811e-16)
(3.9472e-16 0 1.11928e-16)
(3.61602e-16 0 1.12931e-16)
(3.28163e-16 0 1.1383e-16)
(2.94445e-16 0 1.14606e-16)
(2.60428e-16 0 1.15268e-16)
(2.26141e-16 0 1.15805e-16)
(1.91575e-16 0 1.1625e-16)
(1.56833e-16 0 1.1656e-16)
(1.21968e-16 0 1.16767e-16)
(8.69367e-17 0 1.16891e-16)
(5.18229e-17 0 1.16891e-16)
(1.7133e-17 0 1.16839e-16)
(1.47374e-08 0 -1.25064e-07)
(4.11205e-08 0 -1.25289e-07)
(6.91849e-08 0 -1.25823e-07)
(9.73279e-08 0 -1.26598e-07)
(1.25777e-07 0 -1.27504e-07)
(1.54544e-07 0 -1.28474e-07)
(1.83662e-07 0 -1.29353e-07)
(2.1311e-07 0 -1.30065e-07)
(2.42824e-07 0 -1.30454e-07)
(2.72708e-07 0 -1.30428e-07)
(3.02628e-07 0 -1.29962e-07)
(3.32426e-07 0 -1.29062e-07)
(3.6202e-07 0 -1.27198e-07)
(3.90916e-07 0 -1.24605e-07)
(4.1891e-07 0 -1.20389e-07)
(4.46395e-07 0 -1.15101e-07)
(4.73025e-07 0 -1.1434e-07)
(4.9863e-07 0 -1.09488e-07)
(5.22189e-07 0 -1.02266e-07)
(5.44869e-07 0 -9.51062e-08)
(5.66508e-07 0 -9.40904e-08)
(5.86638e-07 0 -8.63286e-08)
(6.04784e-07 0 -8.0244e-08)
(6.2184e-07 0 -7.47078e-08)
(6.37547e-07 0 -7.03983e-08)
(6.51935e-07 0 -6.46757e-08)
(6.65163e-07 0 -6.02112e-08)
(6.77391e-07 0 -5.60508e-08)
(6.88686e-07 0 -5.2228e-08)
(6.99212e-07 0 -4.89579e-08)
(7.091e-07 0 -4.60755e-08)
(7.18408e-07 0 -4.35205e-08)
(7.2728e-07 0 -4.12729e-08)
(7.35779e-07 0 -3.92605e-08)
(7.43961e-07 0 -3.73106e-08)
(7.51868e-07 0 -3.56428e-08)
(7.59493e-07 0 -3.37787e-08)
(7.66827e-07 0 -3.18204e-08)
(7.73854e-07 0 -2.97223e-08)
(7.80456e-07 0 -2.72513e-08)
(7.86568e-07 0 -2.44203e-08)
(7.92114e-07 0 -2.11164e-08)
(7.96914e-07 0 -1.73259e-08)
(8.00869e-07 0 -1.30331e-08)
(8.03843e-07 0 -8.01579e-09)
(8.05628e-07 0 -2.60954e-09)
(8.06123e-07 0 3.36233e-09)
(8.05172e-07 0 9.99556e-09)
(8.02645e-07 0 1.69696e-08)
(7.98421e-07 0 2.4429e-08)
(7.92422e-07 0 3.20108e-08)
(7.84577e-07 0 4.02775e-08)
(7.74806e-07 0 4.83053e-08)
(7.63135e-07 0 5.64364e-08)
(7.49493e-07 0 6.47606e-08)
(7.33996e-07 0 7.26074e-08)
(7.16616e-07 0 8.06761e-08)
(6.97423e-07 0 8.83323e-08)
(6.76493e-07 0 9.58674e-08)
(6.53947e-07 0 1.02727e-07)
(6.29834e-07 0 1.0934e-07)
(6.04271e-07 0 1.15561e-07)
(5.77361e-07 0 1.21414e-07)
(5.49204e-07 0 1.26772e-07)
(5.19908e-07 0 1.31709e-07)
(4.89551e-07 0 1.36284e-07)
(4.5824e-07 0 1.40309e-07)
(4.26101e-07 0 1.43899e-07)
(3.93221e-07 0 1.47018e-07)
(3.5966e-07 0 1.49685e-07)
(3.25533e-07 0 1.51891e-07)
(2.90939e-07 0 1.53607e-07)
(2.55952e-07 0 1.54872e-07)
(2.20671e-07 0 1.55823e-07)
(1.85114e-07 0 1.56746e-07)
(1.50028e-07 0 1.58066e-07)
(1.12552e-07 0 1.62411e-07)
(5.94446e-08 0 2.24046e-07)
(-1.54499e-10 0 2.18696e-07)
(9.54515e-16 0 1.75713e-16)
(5.23274e-16 0 4.41508e-18)
(1.00923e-15 0 1.50857e-17)
(1.01289e-15 0 2.55392e-17)
(1.01502e-15 0 3.56101e-17)
(1.01225e-15 0 4.51847e-17)
(1.00508e-15 0 5.42424e-17)
(9.94075e-16 0 6.2783e-17)
(9.79816e-16 0 7.07343e-17)
(9.62776e-16 0 7.81065e-17)
(9.43389e-16 0 8.48481e-17)
(9.21986e-16 0 9.10209e-17)
(8.98877e-16 0 9.66354e-17)
(8.7434e-16 0 1.01723e-16)
(8.48625e-16 0 1.06303e-16)
(8.21928e-16 0 1.1047e-16)
(7.94414e-16 0 1.14234e-16)
(7.6628e-16 0 1.17656e-16)
(7.37618e-16 0 1.20779e-16)
(7.08429e-16 0 1.23612e-16)
(6.78795e-16 0 1.26238e-16)
(6.4881e-16 0 1.28709e-16)
(6.18442e-16 0 1.30994e-16)
(5.87722e-16 0 1.33166e-16)
(5.56682e-16 0 1.35203e-16)
(5.2527e-16 0 1.37095e-16)
(4.93475e-16 0 1.38873e-16)
(4.61319e-16 0 1.40548e-16)
(4.2881e-16 0 1.42089e-16)
(3.9593e-16 0 1.43495e-16)
(3.62688e-16 0 1.44777e-16)
(3.29125e-16 0 1.45935e-16)
(2.95252e-16 0 1.46907e-16)
(2.6111e-16 0 1.47724e-16)
(2.26689e-16 0 1.48396e-16)
(1.92009e-16 0 1.48924e-16)
(1.57144e-16 0 1.49316e-16)
(1.22154e-16 0 1.49585e-16)
(8.70194e-17 0 1.4974e-16)
(5.17919e-17 0 1.49751e-16)
(1.70916e-17 0 1.49668e-16)
(1.46555e-08 0 -1.52241e-07)
(4.06043e-08 0 -1.52645e-07)
(6.84021e-08 0 -1.53436e-07)
(9.63179e-08 0 -1.5457e-07)
(1.24653e-07 0 -1.55848e-07)
(1.53442e-07 0 -1.57219e-07)
(1.82723e-07 0 -1.58522e-07)
(2.12449e-07 0 -1.59585e-07)
(2.4257e-07 0 -1.6028e-07)
(2.73021e-07 0 -1.60434e-07)
(3.03556e-07 0 -1.60025e-07)
(3.34063e-07 0 -1.58982e-07)
(3.64489e-07 0 -1.56439e-07)
(3.937e-07 0 -1.53895e-07)
(4.22382e-07 0 -1.4808e-07)
(4.51038e-07 0 -1.42119e-07)
(4.78378e-07 0 -1.40877e-07)
(5.0406e-07 0 -1.34035e-07)
(5.27998e-07 0 -1.25469e-07)
(5.51395e-07 0 -1.16796e-07)
(5.7307e-07 0 -1.15517e-07)
(5.93072e-07 0 -1.04942e-07)
(6.11112e-07 0 -9.78343e-08)
(6.27999e-07 0 -9.10553e-08)
(6.43354e-07 0 -8.51452e-08)
(6.57298e-07 0 -7.83526e-08)
(6.70062e-07 0 -7.27655e-08)
(6.81791e-07 0 -6.76444e-08)
(6.92597e-07 0 -6.29791e-08)
(7.02653e-07 0 -5.90688e-08)
(7.12104e-07 0 -5.55987e-08)
(7.2103e-07 0 -5.25781e-08)
(7.29601e-07 0 -4.99883e-08)
(7.3788e-07 0 -4.76954e-08)
(7.45941e-07 0 -4.54909e-08)
(7.53827e-07 0 -4.36263e-08)
(7.61517e-07 0 -4.15138e-08)
(7.69045e-07 0 -3.93689e-08)
(7.76369e-07 0 -3.69181e-08)
(7.83358e-07 0 -3.40516e-08)
(7.89931e-07 0 -3.0745e-08)
(7.96026e-07 0 -2.68263e-08)
(8.01446e-07 0 -2.22431e-08)
(8.06008e-07 0 -1.70454e-08)
(8.09619e-07 0 -1.09584e-08)
(8.12033e-07 0 -4.23516e-09)
(8.13118e-07 0 3.06616e-09)
(8.12718e-07 0 1.12981e-08)
(8.10682e-07 0 1.99459e-08)
(8.06887e-07 0 2.92098e-08)
(8.01196e-07 0 3.86749e-08)
(7.93589e-07 0 4.88466e-08)
(7.83948e-07 0 5.89279e-08)
(7.72286e-07 0 6.90232e-08)
(7.58574e-07 0 7.93536e-08)
(7.42925e-07 0 8.90637e-08)
(7.25335e-07 0 9.91028e-08)
(7.0583e-07 0 1.0857e-07)
(6.84538e-07 0 1.17854e-07)
(6.61575e-07 0 1.26301e-07)
(6.3701e-07 0 1.34489e-07)
(6.10991e-07 0 1.42062e-07)
(5.83614e-07 0 1.49294e-07)
(5.54976e-07 0 1.55849e-07)
(5.25167e-07 0 1.61895e-07)
(4.94306e-07 0 1.67484e-07)
(4.6251e-07 0 1.72445e-07)
(4.29874e-07 0 1.76815e-07)
(3.96464e-07 0 1.80664e-07)
(3.62385e-07 0 1.83967e-07)
(3.27749e-07 0 1.86684e-07)
(2.92664e-07 0 1.88835e-07)
(2.57285e-07 0 1.90391e-07)
(2.21817e-07 0 1.91503e-07)
(1.86303e-07 0 1.92497e-07)
(1.5239e-07 0 1.92862e-07)
(1.1602e-07 0 1.98939e-07)
(5.92686e-08 0 2.79832e-07)
(-1.52635e-10 0 2.58093e-07)
(9.66547e-16 0 2.16242e-16)
(5.29809e-16 0 5.60415e-18)
(1.02104e-15 0 1.88184e-17)
(1.02435e-15 0 3.17637e-17)
(1.02599e-15 0 4.42231e-17)
(1.02264e-15 0 5.60932e-17)
(1.01487e-15 0 6.72601e-17)
(1.00324e-15 0 7.7755e-17)
(9.88326e-16 0 8.74847e-17)
(9.70635e-16 0 9.64906e-17)
(9.50565e-16 0 1.04742e-16)
(9.2851e-16 0 1.12238e-16)
(9.04791e-16 0 1.19052e-16)
(8.79665e-16 0 1.25152e-16)
(8.53433e-16 0 1.30674e-16)
(8.26302e-16 0 1.35627e-16)
(7.98384e-16 0 1.40114e-16)
(7.69867e-16 0 1.44178e-16)
(7.40875e-16 0 1.47869e-16)
(7.11417e-16 0 1.51219e-16)
(6.81576e-16 0 1.54342e-16)
(6.51405e-16 0 1.57237e-16)
(6.20882e-16 0 1.59935e-16)
(5.90028e-16 0 1.6251e-16)
(5.58812e-16 0 1.64929e-16)
(5.27255e-16 0 1.67163e-16)
(4.95378e-16 0 1.69293e-16)
(4.63097e-16 0 1.71288e-16)
(4.30423e-16 0 1.7315e-16)
(3.97409e-16 0 1.74835e-16)
(3.64042e-16 0 1.76365e-16)
(3.30314e-16 0 1.7772e-16)
(2.96244e-16 0 1.78899e-16)
(2.61906e-16 0 1.7987e-16)
(2.2733e-16 0 1.80656e-16)
(1.92506e-16 0 1.81287e-16)
(1.57506e-16 0 1.81742e-16)
(1.22371e-16 0 1.82073e-16)
(8.71021e-17 0 1.82238e-16)
(5.17712e-17 0 1.8228e-16)
(1.70503e-17 0 1.82166e-16)
(1.45203e-08 0 -1.78989e-07)
(3.9883e-08 0 -1.79607e-07)
(6.73148e-08 0 -1.80743e-07)
(9.49362e-08 0 -1.8231e-07)
(1.23096e-07 0 -1.84115e-07)
(1.51882e-07 0 -1.86041e-07)
(1.81315e-07 0 -1.87931e-07)
(2.11414e-07 0 -1.89495e-07)
(2.42111e-07 0 -1.90621e-07)
(2.73203e-07 0 -1.91153e-07)
(3.04397e-07 0 -1.91029e-07)
(3.36167e-07 0 -1.89185e-07)
(3.67208e-07 0 -1.87315e-07)
(3.96947e-07 0 -1.83187e-07)
(4.26928e-07 0 -1.75447e-07)
(4.56679e-07 0 -1.71913e-07)
(4.85025e-07 0 -1.67785e-07)
(5.10567e-07 0 -1.59036e-07)
(5.35342e-07 0 -1.48195e-07)
(5.59632e-07 0 -1.3975e-07)
(5.81373e-07 0 -1.36671e-07)
(6.00952e-07 0 -1.23404e-07)
(6.18961e-07 0 -1.15106e-07)
(6.35579e-07 0 -1.07349e-07)
(6.50459e-07 0 -9.92778e-08)
(6.63801e-07 0 -9.15566e-08)
(6.75978e-07 0 -8.47475e-08)
(6.87077e-07 0 -7.867e-08)
(6.97254e-07 0 -7.3189e-08)
(7.0669e-07 0 -6.86227e-08)
(7.15562e-07 0 -6.4641e-08)
(7.23999e-07 0 -6.12428e-08)
(7.32181e-07 0 -5.83944e-08)
(7.40172e-07 0 -5.5922e-08)
(7.48055e-07 0 -5.35805e-08)
(7.55911e-07 0 -5.16428e-08)
(7.6371e-07 0 -4.93926e-08)
(7.71456e-07 0 -4.71728e-08)
(7.79136e-07 0 -4.45247e-08)
(7.86661e-07 0 -4.13489e-08)
(7.93838e-07 0 -3.76463e-08)
(8.00594e-07 0 -3.31811e-08)
(8.06785e-07 0 -2.78632e-08)
(8.12133e-07 0 -2.17523e-08)
(8.16543e-07 0 -1.46507e-08)
(8.19761e-07 0 -6.54719e-09)
(8.21604e-07 0 2.11927e-09)
(8.2197e-07 0 1.19356e-08)
(8.20559e-07 0 2.2446e-08)
(8.17276e-07 0 3.35292e-08)
(8.11967e-07 0 4.51018e-08)
(8.04655e-07 0 5.71631e-08)
(7.9516e-07 0 6.95408e-08)
(7.83489e-07 0 8.16173e-08)
(7.69674e-07 0 9.40902e-08)
(7.53805e-07 0 1.05775e-07)
(7.35924e-07 0 1.17802e-07)
(7.1603e-07 0 1.29189e-07)
(6.94285e-07 0 1.40261e-07)
(6.70796e-07 0 1.50401e-07)
(6.45683e-07 0 1.60105e-07)
(6.19103e-07 0 1.69165e-07)
(5.91109e-07 0 1.77671e-07)
(5.61869e-07 0 1.85465e-07)
(5.31491e-07 0 1.92627e-07)
(5.00021e-07 0 1.99329e-07)
(4.67642e-07 0 2.05055e-07)
(4.34407e-07 0 2.10272e-07)
(4.00399e-07 0 2.14895e-07)
(3.65689e-07 0 2.18837e-07)
(3.30401e-07 0 2.22087e-07)
(2.9466e-07 0 2.24645e-07)
(2.58661e-07 0 2.26406e-07)
(2.22774e-07 0 2.2737e-07)
(1.87029e-07 0 2.27628e-07)
(1.53965e-07 0 2.26096e-07)
(1.05224e-07 0 2.49902e-07)
(5.52563e-08 0 3.46825e-07)
(-1.50616e-10 0 2.91037e-07)
(9.83073e-16 0 2.5209e-16)
(5.37797e-16 0 6.85526e-18)
(1.03539e-15 0 2.27578e-17)
(1.03829e-15 0 3.83502e-17)
(1.03934e-15 0 5.32911e-17)
(1.03531e-15 0 6.75393e-17)
(1.02676e-15 0 8.09293e-17)
(1.01431e-15 0 9.34404e-17)
(9.98562e-16 0 1.05021e-16)
(9.80033e-16 0 1.1564e-16)
(9.59126e-16 0 1.25349e-16)
(9.36286e-16 0 1.34138e-16)
(9.11781e-16 0 1.42068e-16)
(8.85952e-16 0 1.49182e-16)
(8.591e-16 0 1.55562e-16)
(8.31379e-16 0 1.61259e-16)
(8.02986e-16 0 1.66356e-16)
(7.74045e-16 0 1.70978e-16)
(7.44659e-16 0 1.75156e-16)
(7.14891e-16 0 1.78961e-16)
(6.84802e-16 0 1.82486e-16)
(6.54403e-16 0 1.85754e-16)
(6.23694e-16 0 1.88804e-16)
(5.92696e-16 0 1.91709e-16)
(5.61345e-16 0 1.9445e-16)
(5.29623e-16 0 1.97045e-16)
(4.9758e-16 0 1.99495e-16)
(4.65175e-16 0 2.0177e-16)
(4.32347e-16 0 2.039e-16)
(3.99135e-16 0 2.05854e-16)
(3.65583e-16 0 2.07602e-16)
(3.31668e-16 0 2.09163e-16)
(2.97413e-16 0 2.10517e-16)
(2.62857e-16 0 2.11655e-16)
(2.28085e-16 0 2.12565e-16)
(1.93095e-16 0 2.13289e-16)
(1.57919e-16 0 2.13816e-16)
(1.2263e-16 0 2.14198e-16)
(8.72159e-17 0 2.14385e-16)
(5.17402e-17 0 2.14436e-16)
(1.69986e-17 0 2.14312e-16)
(1.43252e-08 0 -2.05123e-07)
(3.8895e-08 0 -2.05992e-07)
(6.57796e-08 0 -2.07552e-07)
(9.29837e-08 0 -2.09679e-07)
(1.20899e-07 0 -2.12207e-07)
(1.49672e-07 0 -2.14891e-07)
(1.79285e-07 0 -2.17582e-07)
(2.09876e-07 0 -2.19852e-07)
(2.41242e-07 0 -2.21649e-07)
(2.72853e-07 0 -2.22945e-07)
(3.05473e-07 0 -2.22301e-07)
(3.38512e-07 0 -2.20818e-07)
(3.69836e-07 0 -2.19212e-07)
(4.00745e-07 0 -2.12675e-07)
(4.32949e-07 0 -2.0403e-07)
(4.63499e-07 0 -2.03429e-07)
(4.92503e-07 0 -1.94822e-07)
(5.18566e-07 0 -1.84235e-07)
(5.45144e-07 0 -1.69952e-07)
(5.69299e-07 0 -1.6912e-07)
(5.91301e-07 0 -1.53183e-07)
(6.10464e-07 0 -1.43273e-07)
(6.28652e-07 0 -1.31654e-07)
(6.44647e-07 0 -1.2355e-07)
(6.58941e-07 0 -1.1264e-07)
(6.71584e-07 0 -1.04101e-07)
(6.83013e-07 0 -9.60576e-08)
(6.93263e-07 0 -8.89268e-08)
(7.02595e-07 0 -8.26754e-08)
(7.11251e-07 0 -7.74927e-08)
(7.19412e-07 0 -7.30711e-08)
(7.27231e-07 0 -6.94243e-08)
(7.34926e-07 0 -6.64054e-08)
(7.42563e-07 0 -6.38893e-08)
(7.50226e-07 0 -6.15407e-08)
(7.58007e-07 0 -5.96692e-08)
(7.65958e-07 0 -5.74892e-08)
(7.74009e-07 0 -5.53052e-08)
(7.82136e-07 0 -5.2584e-08)
(7.90238e-07 0 -4.92887e-08)
(7.98169e-07 0 -4.52408e-08)
(8.05759e-07 0 -4.03332e-08)
(8.1286e-07 0 -3.43848e-08)
(8.19246e-07 0 -2.73441e-08)
(8.24646e-07 0 -1.92349e-08)
(8.28873e-07 0 -9.72872e-09)
(8.3165e-07 0 3.42899e-10)
(8.32882e-07 0 1.17599e-08)
(8.32262e-07 0 2.43336e-08)
(8.29637e-07 0 3.73551e-08)
(8.24804e-07 0 5.11762e-08)
(8.17832e-07 0 6.51121e-08)
(8.08526e-07 0 8.01551e-08)
(7.96873e-07 0 9.43128e-08)
(7.82913e-07 0 1.09008e-07)
(7.66759e-07 0 1.2281e-07)
(7.48435e-07 0 1.36877e-07)
(7.28082e-07 0 1.50326e-07)
(7.05787e-07 0 1.63198e-07)
(6.81672e-07 0 1.75166e-07)
(6.55871e-07 0 1.86263e-07)
(6.28594e-07 0 1.96858e-07)
(5.9993e-07 0 2.06756e-07)
(5.6998e-07 0 2.15731e-07)
(5.38842e-07 0 2.24094e-07)
(5.06691e-07 0 2.31656e-07)
(4.73634e-07 0 2.38339e-07)
(4.39705e-07 0 2.44413e-07)
(4.04992e-07 0 2.4978e-07)
(3.69566e-07 0 2.544e-07)
(3.33514e-07 0 2.58204e-07)
(2.96935e-07 0 2.61208e-07)
(2.59969e-07 0 2.6325e-07)
(2.22952e-07 0 2.64068e-07)
(1.86823e-07 0 2.63206e-07)
(1.52191e-07 0 2.59453e-07)
(9.87673e-08 0 3.07071e-07)
(5.16947e-08 0 3.78589e-07)
(-1.47954e-10 0 3.22461e-07)
(1.00213e-15 0 2.7908e-16)
(5.47443e-16 0 8.08569e-18)
(1.05253e-15 0 2.69351e-17)
(1.05487e-15 0 4.53605e-17)
(1.05519e-15 0 6.29795e-17)
(1.05028e-15 0 7.96989e-17)
(1.04077e-15 0 9.53946e-17)
(1.02733e-15 0 1.09963e-16)
(1.01053e-15 0 1.23426e-16)
(9.90952e-16 0 1.3572e-16)
(9.69053e-16 0 1.46866e-16)
(9.4523e-16 0 1.56906e-16)
(9.19825e-16 0 1.65881e-16)
(8.93159e-16 0 1.73925e-16)
(8.65521e-16 0 1.81028e-16)
(8.37097e-16 0 1.87377e-16)
(8.08104e-16 0 1.93002e-16)
(7.78667e-16 0 1.98079e-16)
(7.48857e-16 0 2.02649e-16)
(7.18758e-16 0 2.06795e-16)
(6.884e-16 0 2.10611e-16)
(6.57743e-16 0 2.14188e-16)
(6.26827e-16 0 2.17538e-16)
(5.95673e-16 0 2.20723e-16)
(5.64168e-16 0 2.23742e-16)
(5.32301e-16 0 2.26627e-16)
(5.00093e-16 0 2.29336e-16)
(4.67502e-16 0 2.3191e-16)
(4.34508e-16 0 2.34289e-16)
(4.01131e-16 0 2.36512e-16)
(3.67351e-16 0 2.38476e-16)
(3.33199e-16 0 2.40265e-16)
(2.98736e-16 0 2.41785e-16)
(2.63964e-16 0 2.43077e-16)
(2.28953e-16 0 2.44122e-16)
(1.93767e-16 0 2.44908e-16)
(1.58415e-16 0 2.45507e-16)
(1.22929e-16 0 2.4591e-16)
(8.73399e-17 0 2.46138e-16)
(5.16988e-17 0 2.462e-16)
(1.69365e-17 0 2.46086e-16)
(1.40241e-08 0 -2.30434e-07)
(3.74999e-08 0 -2.31606e-07)
(6.36228e-08 0 -2.33727e-07)
(9.02837e-08 0 -2.36615e-07)
(1.17845e-07 0 -2.40094e-07)
(1.46531e-07 0 -2.43804e-07)
(1.76478e-07 0 -2.47469e-07)
(2.07558e-07 0 -2.50894e-07)
(2.39371e-07 0 -2.53819e-07)
(2.72332e-07 0 -2.55073e-07)
(3.06677e-07 0 -2.54842e-07)
(3.40395e-07 0 -2.54592e-07)
(3.72285e-07 0 -2.51793e-07)
(4.06284e-07 0 -2.4191e-07)
(4.39633e-07 0 -2.38426e-07)
(4.71652e-07 0 -2.33393e-07)
(5.00602e-07 0 -2.23833e-07)
(5.29254e-07 0 -2.09303e-07)
(5.56922e-07 0 -1.95148e-07)
(5.80961e-07 0 -1.93076e-07)
(6.02815e-07 0 -1.72765e-07)
(6.22242e-07 0 -1.6213e-07)
(6.40096e-07 0 -1.4865e-07)
(6.55345e-07 0 -1.38003e-07)
(6.68859e-07 0 -1.25828e-07)
(6.80681e-07 0 -1.15659e-07)
(6.91103e-07 0 -1.06437e-07)
(7.00316e-07 0 -9.81969e-08)
(7.08641e-07 0 -9.12885e-08)
(7.1634e-07 0 -8.55076e-08)
(7.23605e-07 0 -8.07375e-08)
(7.30641e-07 0 -7.69488e-08)
(7.37698e-07 0 -7.39237e-08)
(7.44877e-07 0 -7.15264e-08)
(7.5227e-07 0 -6.93644e-08)
(7.59974e-07 0 -6.76494e-08)
(7.68101e-07 0 -6.59015e-08)
(7.76494e-07 0 -6.37835e-08)
(7.85124e-07 0 -6.12434e-08)
(7.93955e-07 0 -5.79789e-08)
(8.02831e-07 0 -5.37249e-08)
(8.11454e-07 0 -4.84652e-08)
(8.19666e-07 0 -4.19513e-08)
(8.27263e-07 0 -3.41371e-08)
(8.33951e-07 0 -2.49137e-08)
(8.39446e-07 0 -1.40798e-08)
(8.4339e-07 0 -2.36461e-09)
(8.45622e-07 0 1.0732e-08)
(8.46026e-07 0 2.52513e-08)
(8.44181e-07 0 4.06417e-08)
(8.39961e-07 0 5.67541e-08)
(8.33302e-07 0 7.29491e-08)
(8.24184e-07 0 9.0552e-08)
(8.12536e-07 0 1.07165e-07)
(7.984e-07 0 1.24008e-07)
(7.81857e-07 0 1.40421e-07)
(7.63036e-07 0 1.56395e-07)
(7.42093e-07 0 1.72123e-07)
(7.19151e-07 0 1.86572e-07)
(6.94213e-07 0 2.00773e-07)
(6.67624e-07 0 2.13306e-07)
(6.39503e-07 0 2.25254e-07)
(6.09988e-07 0 2.36595e-07)
(5.79216e-07 0 2.46836e-07)
(5.47275e-07 0 2.56206e-07)
(5.14322e-07 0 2.64782e-07)
(4.80508e-07 0 2.7238e-07)
(4.45798e-07 0 2.79278e-07)
(4.10294e-07 0 2.85404e-07)
(3.74074e-07 0 2.90711e-07)
(3.3719e-07 0 2.95151e-07)
(2.99638e-07 0 2.98715e-07)
(2.61438e-07 0 3.01261e-07)
(2.22565e-07 0 3.02507e-07)
(1.83171e-07 0 3.01808e-07)
(1.3998e-07 0 2.97518e-07)
(9.75651e-08 0 3.7203e-07)
(4.67992e-08 0 4.04191e-07)
(-1.44823e-10 0 3.56304e-07)
(1.02289e-15 0 3.01533e-16)