0 	-12.9562
0.010101 	-9.35569
0.020202 	-9.5913
0.030303 	-9.6034
0.040404 	-9.60412
0.0505051 	-9.60416
0.0606061 	-9.60417
0.0707071 	-9.60417
0.0808081 	-9.60417
0.0909091 	-9.60417
