0.010101 	-7.20418e-09 	-1.51077e-13 	-2.12396e-11
0.020202 	-8.57691e-10 	1.93558e-13 	-1.23819e-11
