/*--------------------------------*- C++ -*----------------------------------*\
  =========                 |
  \\      /  F ield         | OpenFOAM: The Open Source CFD Toolbox
   \\    /   O peration     | Website:  https://openfoam.org
    \\  /    A nd           | Version:  6
     \\/     M anipulation  |
\*---------------------------------------------------------------------------*/
FoamFile
{
    version     2.0;
    format      ascii;
    class       volScalarField;
    location    "1750";
    object      Su;
}
// * * * * * * * * * * * * * * * * * * * * * * * * * * * * * * * * * * * * * //

dimensions      [0 0 -1 0 0 0 0];

internalField   nonuniform List<scalar> 
4800
(
0.219472
0.217224
0.214954
0.212649
0.210299
0.207897
0.20544
0.202926
0.20036
0.197746
0.195096
0.192428
0.189765
0.18713
0.184553
0.182064
0.179694
0.177461
0.175374
0.173439
0.171657
0.170022
0.168528
0.167163
0.165913
0.164763
0.163694
0.162689
0.16173
0.160805
0.159897
0.158991
0.158069
0.157121
0.156131
0.155074
0.153941
0.152726
0.15142
0.150009
0.148475
0.146809
0.145003
0.143053
0.140963
0.138741
0.136401
0.133957
0.131427
0.128826
0.126166
0.123457
0.120705
0.117917
0.115102
0.112267
0.109421
0.106569
0.103711
0.100839
0.0979436
0.0950179
0.0920512
0.0890305
0.0859375
0.0827511
0.079457
0.0760279
0.0724426
0.0686864
0.0647502
0.0606393
0.0563614
0.051937
0.047401
0.0427915
0.0381333
0.0334391
0.0287444
0.0241104
0.0195803
0.0151969
0.0109591
0.00686198
0.00289583
-0.000951627
-0.00469323
-0.00834174
-0.011909
-0.0154058
-0.0188413
-0.0222236
-0.0255597
-0.0288554
-0.0321156
-0.0353447
-0.0385463
-0.0417235
-0.0448791
-0.0480154
-0.0511346
-0.0542385
-0.0573288
-0.060407
-0.0634743
-0.0665321
-0.0695813
-0.0726231
-0.0756581
-0.0786874
-0.0817115
-0.0847312
-0.0877471
-0.0907597
-0.0937696
-0.0967773
-0.0997831
-0.102788
-0.105791
-0.108794
0.219473
0.217231
0.214966
0.212666
0.21032
0.207923
0.205471
0.202965
0.200408
0.197806
0.19517
0.192514
0.189857
0.187225
0.184655
0.182186
0.179834
0.177611
0.175532
0.173602
0.171822
0.17019
0.168697
0.167333
0.166084
0.164936
0.163869
0.162867
0.161914
0.160994
0.160089
0.159182
0.15826
0.157312
0.156316
0.155253
0.154122
0.152913
0.151612
0.150202
0.14867
0.147006
0.1452
0.143249
0.141156
0.138932
0.136589
0.134145
0.131616
0.129017
0.126361
0.123655
0.12091
0.118132
0.115326
0.112503
0.109672
0.106835
0.10399
0.101126
0.0982339
0.095307
0.0923328
0.0893013
0.0861958
0.0829969
0.0796822
0.0762253
0.0726124
0.0688299
0.0648725
0.0607398
0.0564379
0.0519842
0.0474119
0.042764
0.0380799
0.0333852
0.0286963
0.0240304
0.0194602
0.0150683
0.0108334
0.00674453
0.00278918
-0.00104652
-0.00477649
-0.00841412
-0.0119717
-0.0154599
-0.0188881
-0.0222642
-0.025595
-0.0288862
-0.0321427
-0.0353686
-0.0385675
-0.0417424
-0.044896
-0.0480305
-0.0511482
-0.0542508
-0.0573398
-0.0604169
-0.0634833
-0.0665402
-0.0695886
-0.0726295
-0.0756639
-0.0786925
-0.081716
-0.0847351
-0.0877505
-0.0907626
-0.093772
-0.0967792
-0.0997846
-0.102789
-0.105792
-0.108794
0.219476
0.21724
0.214983
0.21269
0.210353
0.207965
0.205526
0.203035
0.200494
0.197911
0.195296
0.192664
0.190031
0.187428
0.184885
0.182436
0.180104
0.1779
0.175835
0.173915
0.172142
0.170515
0.169026
0.167667
0.166422
0.165278
0.164216
0.16322
0.162275
0.161363
0.160463
0.159559
0.158638
0.157687
0.156681
0.155613
0.154486
0.15328
0.151978
0.150567
0.149036
0.147375
0.145568
0.143615
0.141519
0.139293
0.13695
0.134508
0.131982
0.129388
0.126738
0.124042
0.121309
0.118546
0.11576
0.112962
0.110159
0.107348
0.104521
0.101666
0.098778
0.0958461
0.0928563
0.0898031
0.0866683
0.0834315
0.0800694
0.0765664
0.0729052
0.0690689
0.0650601
0.0608777
0.056524
0.0520117
0.0473675
0.0426331
0.0378681
0.0331253
0.0284229
0.0237619
0.019188
0.0147994
0.0105766
0.00650688
0.00257474
-0.00123637
-0.00494237
-0.0085579
-0.0120958
-0.0155669
-0.0189806
-0.0223444
-0.0256648
-0.0289473
-0.0321964
-0.035416
-0.0386096
-0.0417799
-0.0449295
-0.0480606
-0.0511752
-0.0542751
-0.0573618
-0.0604367
-0.0635011
-0.0665562
-0.069603
-0.0726424
-0.0756754
-0.0787027
-0.081725
-0.084743
-0.0877573
-0.0907684
-0.0937769
-0.0967831
-0.0997876
-0.102791
-0.105793
-0.108795
0.21948
0.21725
0.215
0.212718
0.210393
0.208021
0.2056
0.203129
0.200612
0.198054
0.195464
0.192859
0.190263
0.187701
0.185201
0.182788
0.180481
0.1783
0.176259
0.174357
0.172599
0.170984
0.169506
0.168154
0.166917
0.165781
0.164728
0.163743
0.162808
0.161907
0.161015
0.160118
0.1592
0.158246
0.157236
0.156168
0.155036
0.153818
0.152503
0.151083
0.14955
0.147886
0.146074
0.144116
0.142018
0.139791
0.13745
0.135012
0.132493
0.129907
0.127267
0.124584
0.121868
0.119128
0.116372
0.113609
0.110839
0.108055
0.105244
0.102396
0.0995059
0.0965612
0.0935439
0.0904463
0.0872536
0.0839539
0.0805292
0.0769655
0.0732432
0.0693465
0.0652733
0.0610248
0.0566002
0.0520072
0.0472637
0.0424015
0.0374942
0.0326462
0.0279242
0.0233072
0.0187563
0.014381
0.0101811
0.0061443
0.00225056
-0.00152106
-0.00518951
-0.00877108
-0.0122792
-0.0157248
-0.0191168
-0.0224624
-0.0257676
-0.0290373
-0.0322756
-0.0354861
-0.0386718
-0.0418354
-0.0449792
-0.0481053
-0.0512154
-0.0543113
-0.0573944
-0.0604661
-0.0635277
-0.0665801
-0.0696244
-0.0726617
-0.0756926
-0.0787179
-0.0817384
-0.0847547
-0.0877674
-0.090777
-0.093784
-0.0967889
-0.0997921
-0.102794
-0.105795
-0.108795
0.219483
0.217261
0.215021
0.212752
0.210444
0.208092
0.205694
0.20325
0.200763
0.19824
0.195692
0.193132
0.190578
0.188057
0.185598
0.183223
0.180951
0.178802
0.176788
0.174911
0.173174
0.171577
0.170114
0.168773
0.167549
0.166426
0.165387
0.164419
0.1635
0.162612
0.161735
0.160846
0.159933
0.158981
0.157974
0.156903
0.155758
0.154526
0.153198
0.151762
0.150207
0.14852
0.146691
0.144724
0.142621
0.140394
0.138055
0.135622
0.133112
0.130537
0.12791
0.125245
0.122551
0.119837
0.117115
0.114389
0.111655
0.108898
0.106104
0.103262
0.100361
0.097386
0.0943183
0.0911505
0.0878758
0.084492
0.0809884
0.0773501
0.0735584
0.0695947
0.0654503
0.0611295
0.0566334
0.0519699
0.0471626
0.0422475
0.0372755
0.0323196
0.0274596
0.0227563
0.0181736
0.0138022
0.00963592
0.00565032
0.00181464
-0.00189949
-0.00551506
-0.00905007
-0.0125183
-0.0159301
-0.0192939
-0.0226159
-0.0259013
-0.0291544
-0.0323788
-0.0355776
-0.0387532
-0.0419081
-0.0450444
-0.0481639
-0.0512682
-0.0543589
-0.0574374
-0.0605049
-0.0635626
-0.0666116
-0.0696527
-0.072687
-0.0757152
-0.078738
-0.0817562
-0.0847702
-0.0877808
-0.0907884
-0.0937935
-0.0967966
-0.099798
-0.102798
-0.105797
-0.108796
0.219488
0.217278
0.215051
0.212799
0.210512
0.208184
0.205812
0.203396
0.20094
0.198452
0.195941
0.193424
0.19092
0.188453
0.186047
0.183721
0.181492
0.179381
0.177402
0.175558
0.17385
0.172277
0.170834
0.169511
0.168304
0.167199
0.166179
0.165232
0.164331
0.163463
0.162605
0.161725
0.160822
0.159876
0.158874
0.157803
0.15665
0.155402
0.154049
0.15258
0.15099
0.149264
0.147404
0.145416
0.143303
0.141075
0.13874
0.136313
0.13381
0.131245
0.128631
0.125986
0.12332
0.12064
0.117956
0.115264
0.112557
0.10982
0.107037
0.104193
0.101264
0.0982398
0.0951072
0.0918638
0.088502
0.0850229
0.0814253
0.0776938
0.0738109
0.0697596
0.0655368
0.0611417
0.0565746
0.0518518
0.0469934
0.0420283
0.0369883
0.0319247
0.0269121
0.0220671
0.017402
0.0130321
0.00892181
0.00501681
0.00126636
-0.00236813
-0.00591369
-0.00938914
-0.0128075
-0.016178
-0.0195076
-0.0228012
-0.0260631
-0.0292965
-0.0325043
-0.035689
-0.0388526
-0.0419971
-0.0451243
-0.0482358
-0.0513331
-0.0544175
-0.0574903
-0.0605527
-0.0636057
-0.0666504
-0.0696876
-0.0727183
-0.0757431
-0.0787628
-0.081778
-0.0847893
-0.0877973
-0.0908025
-0.0938052
-0.096806
-0.0998053
-0.102803
-0.105801
-0.108797
0.219496
0.217302
0.215093
0.212862
0.210599
0.208296
0.205952
0.203566
0.201144
0.198693
0.196226
0.193757
0.191303
0.188885
0.186528
0.184254
0.18208
0.18002
0.178086
0.176281
0.174607
0.173065
0.17165
0.170351
0.169166
0.168082
0.167086
0.166161
0.165282
0.164438
0.163598
0.162735
0.161847
0.160911
0.159916
0.158845
0.157679
0.156408
0.155024
0.153518
0.151882
0.150108
0.148207
0.146183
0.144048
0.141809
0.139474
0.137055
0.134562
0.132009
0.129415
0.126795
0.124151
0.121492
0.118829
0.116163
0.113479
0.110757
0.107977
0.105118
0.102151
0.09907
0.0958631
0.0925325
0.0890753
0.0854925
0.0817858
0.0779456
0.0739565
0.0698052
0.0654931
0.0610215
0.0563858
0.0516036
0.0466887
0.041657
0.036525
0.0313365
0.0261653
0.0211457
0.0163552
0.0120137
0.0080124
0.00423745
0.000609781
-0.0029187
-0.0063762
-0.00977964
-0.0131394
-0.0164622
-0.0197527
-0.0230143
-0.0262495
-0.0294607
-0.0326498
-0.0358185
-0.0389684
-0.042101
-0.0452178
-0.0483202
-0.0514093
-0.0544863
-0.0575526
-0.060609
-0.0636565
-0.0666962
-0.0697288
-0.0727552
-0.0757761
-0.0787921
-0.0818038
-0.0848119
-0.0878168
-0.0908191
-0.0938191
-0.0968172
-0.0998139
-0.102809
-0.105804
-0.108798
0.219505
0.217329
0.21514
0.212931
0.210693
0.20842
0.206106
0.203752
0.201364
0.198951
0.196526
0.194103
0.191698
0.189333
0.187032
0.184818
0.182704
0.180703
0.178821
0.177062
0.175431
0.173927
0.172545
0.171276
0.170116
0.169057
0.168086
0.167184
0.166332
0.165513
0.164694
0.163851
0.162979
0.162056
0.161071
0.16
0.158824
0.157534
0.156117
0.154564
0.152875
0.151046
0.149089
0.147018
0.144848
0.142586
0.140241
0.137823
0.13534
0.132804
0.130225
0.127612
0.124979
0.122341
0.119704
0.117062
0.114394
0.111678
0.108892
0.106009
0.102997
0.0998517
0.0965628
0.0931349
0.0895705
0.0858732
0.0820427
0.0780746
0.0739643
0.0697143
0.0653122
0.0607542
0.0560507
0.0512065
0.0462258
0.0411107
0.0358694
0.0305229
0.0251423
0.0198773
0.0148758
0.010664
0.00688444
0.00331753
-0.000140119
-0.00353492
-0.00688802
-0.0102095
-0.0135042
-0.0167749
-0.0200232
-0.0232502
-0.0264569
-0.0296441
-0.0328129
-0.0359642
-0.0390991
-0.0422187
-0.045324
-0.0484161
-0.051496
-0.0545649
-0.0576237
-0.0606733
-0.0637146
-0.0667486
-0.069776
-0.0727975
-0.0758138
-0.0788256
-0.0818334
-0.0848378
-0.0878392
-0.0908381
-0.0938349
-0.09683
-0.0998237
-0.102816
-0.105808
-0.1088
0.219514
0.217356
0.215187
0.213001
0.210791
0.208548
0.206266
0.203945
0.201593
0.199219
0.196836
0.194459
0.192107
0.189803
0.187564
0.18541
0.183353
0.181405
0.179575
0.177869
0.176287
0.174827
0.173483
0.172249
0.171122
0.170095
0.169153
0.168279
0.167453
0.166658
0.165862
0.16504
0.164186
0.163284
0.162313
0.161248
0.160068
0.158756
0.1573
0.155696
0.153945
0.152055
0.150039
0.14792
0.1457
0.143404
0.14104
0.138614
0.136133
0.133606
0.13104
0.128443
0.125826
0.1232
0.120578
0.117949
0.115289
0.112571
0.109769
0.10685
0.103784
0.100567
0.0971889
0.0936565
0.0899759
0.0861515
0.0821803
0.0780634
0.0738123
0.069445
0.0649521
0.0603282
0.0555716
0.0506699
0.0456179
0.0404113
0.0350452
0.0295132
0.0238501
0.0181587
0.0126192
0.00888858
0.0055491
0.00229275
-0.000949025
-0.00418942
-0.00742844
-0.0106631
-0.0138904
-0.0171075
-0.0203125
-0.0235039
-0.0266811
-0.0298435
-0.0329911
-0.0361241
-0.0392431
-0.0423487
-0.0454416
-0.0485226
-0.0515926
-0.0546524
-0.057703
-0.0607451
-0.0637795
-0.0668072
-0.0698287
-0.0728447
-0.075856
-0.0788631
-0.0818665
-0.0848667
-0.0878642
-0.0908594
-0.0938526
-0.0968443
-0.0998347
-0.102824
-0.105813
-0.108801
0.219523
0.217384
0.215237
0.213073
0.210887
0.208672
0.206421
0.204136
0.201821
0.199485
0.197143
0.194818
0.192526
0.190282
0.188106
0.186013
0.184015
0.182125
0.180353
0.178702
0.177169
0.175755
0.174454
0.173263
0.172174
0.171178
0.170264
0.169414
0.168613
0.167842
0.16707
0.166277
0.165453
0.164579
0.163624
0.162565
0.161381
0.160049
0.158559
0.156904
0.155094
0.153144
0.151066
0.148884
0.146605
0.144266
0.141872
0.139432
0.136948
0.134424
0.131864
0.129274
0.126669
0.124058
0.121444
0.118823
0.116162
0.113436
0.110608
0.107641
0.104512
0.101217
0.0977433
0.0941005
0.0902995
0.0863418
0.0822201
0.0779414
0.0735405
0.0690513
0.064471
0.0597834
0.054974
0.0500222
0.0449087
0.0396156
0.0341198
0.028385
0.0223682
0.0159684
0.00448137
0.00672539
0.00413322
0.00125533
-0.00175774
-0.00484403
-0.00797203
-0.0111231
-0.0142854
-0.0174508
-0.0206137
-0.0237704
-0.0269183
-0.0300558
-0.0331819
-0.0362963
-0.0393988
-0.0424898
-0.0455695
-0.0486388
-0.051698
-0.0547481
-0.0577898
-0.0608237
-0.0638507
-0.0668714
-0.0698865
-0.0728966
-0.0759023
-0.0789042
-0.0819028
-0.0848984
-0.0878916
-0.0908827
-0.0938721
-0.09686
-0.0998468
-0.102833
-0.105818
-0.108803
0.219531
0.217409
0.215278
0.213133
0.21097
0.20878
0.206561
0.204314
0.202042
0.199756
0.19747
0.195198
0.192955
0.190766
0.188649
0.186615
0.184679
0.18285
0.181137
0.179541
0.178058
0.17669
0.17543
0.174276
0.173222
0.172258
0.171375
0.170555
0.169785
0.169045
0.168306
0.167549
0.166758
0.165905
0.164966
0.163923
0.162742
0.161395
0.159873
0.158172
0.156304
0.154295
0.152154
0.149905
0.147571
0.145187
0.14276
0.140295
0.137798
0.13527
0.132715
0.130136
0.127542
0.124938
0.122325
0.119705
0.117035
0.114288
0.111419
0.108394
0.105191
0.101807
0.0982405
0.0944987
0.0905896
0.0865097
0.0822497
0.0778287
0.0732876
0.0686621
0.0639672
0.0591951
0.0543211
0.0493115
0.0441342
0.0387621
0.0331688
0.0273118
0.021124
0.0144788
0.0035368
0.00531779
0.00300286
0.000352388
-0.00249414
-0.00545797
-0.00849348
-0.0115727
-0.0146778
-0.0177966
-0.0209209
-0.024045
-0.0271651
-0.0302784
-0.0333833
-0.0364789
-0.0395647
-0.0426406
-0.0457067
-0.0487636
-0.0518116
-0.0548513
-0.0578835
-0.0609087
-0.0639276
-0.0669408
-0.069949
-0.0729527
-0.0759524
-0.0789487
-0.081942
-0.0849327
-0.0879213
-0.0909079
-0.0938931
-0.0968769
-0.0998598
-0.102842
-0.105824
-0.108805
0.219536
0.217426
0.215309
0.213181
0.211037
0.20887
0.206681
0.204471
0.202242
0.200002
0.197765
0.195545
0.193361
0.191232
0.189172
0.187199
0.185328
0.183565
0.181913
0.180373
0.178945
0.177626
0.176412
0.175299
0.174282
0.17335
0.172498
0.171709
0.17097
0.170261
0.169556
0.168835
0.168075
0.167247
0.166333
0.165309
0.164133
0.162776
0.161227
0.159484
0.157563
0.155497
0.153293
0.150981
0.148595
0.146161
0.143694
0.141201
0.138688
0.136152
0.133593
0.131019
0.128434
0.125842
0.123238
0.120624
0.117944
0.115167
0.112243
0.109144
0.105854
0.102374
0.0987161
0.0948879
0.0908856
0.086691
0.0822991
0.0777417
0.0730667
0.0683143
0.0635
0.0586226
0.0536658
0.0485957
0.0433708
0.0379549
0.0323142
0.0264068
0.0201762
0.0135326
0.00317227
0.00447341
0.00220509
-0.000357941
-0.0031168
-0.00600373
-0.00897436
-0.0119993
-0.0150586
-0.0181385
-0.0212293
-0.0243243
-0.0274186
-0.030509
-0.0335934
-0.0366705
-0.0397395
-0.0428
-0.0458522
-0.0488962
-0.0519324
-0.0549613
-0.0579834
-0.0609993
-0.0640096
-0.0670149
-0.0700157
-0.0730125
-0.0760058
-0.0789962
-0.0819839
-0.0849693
-0.0879529
-0.0909348
-0.0939154
-0.096895
-0.0998737
-0.102852
-0.105829
-0.108807
0.219539
0.217433
0.215324
0.213206
0.211077
0.208931
0.206769
0.204591
0.202402
0.20021
0.198028
0.195868
0.193747
0.191683
0.18969
0.187783
0.185973
0.184269
0.182675
0.181193
0.179819
0.17855
0.177382
0.176311
0.175332
0.174438
0.173621
0.172868
0.172163
0.171486
0.170816
0.170129
0.169401
0.168605
0.167719
0.166714
0.165544
0.16418
0.162608
0.16083
0.158864
0.156746
0.154487
0.152122
0.149687
0.147204
0.144698
0.142173
0.139635
0.137087
0.13453
0.131965
0.129397
0.126822
0.124232
0.121621
0.118923
0.1161
0.113106
0.109921
0.106537
0.102964
0.0992228
0.0953142
0.0912228
0.0869222
0.0824131
0.0777356
0.0729452
0.0680805
0.0631587
0.058182
0.053136
0.0479947
0.0427226
0.0372769
0.0316158
0.0257045
0.0195126
0.0129871
0.00301453
0.00403327
0.00169611
-0.000878784
-0.00361775
-0.00647185
-0.00940644
-0.0123963
-0.0154228
-0.0184727
-0.021536
-0.0246058
-0.027677
-0.0307461
-0.0338109
-0.0368699
-0.0399221
-0.0429672
-0.046005
-0.0490357
-0.0520597
-0.0550772
-0.0580888
-0.0610949
-0.0640962
-0.0670931
-0.0700861
-0.0730756
-0.0760622
-0.0790462
-0.082028
-0.0850079
-0.0879862
-0.0909631
-0.093939
-0.096914
-0.0998884
-0.102862
-0.105836
-0.108809
0.219538
0.217432
0.215324
0.21321
0.211089
0.20896
0.206822
0.204677
0.20253
0.200387
0.198258
0.196158
0.194103
0.192108
0.190183
0.188341
0.186594
0.18495
0.183416
0.181991
0.180671
0.179452
0.178332
0.177306
0.176369
0.175517
0.17474
0.174026
0.173357
0.172716
0.17208
0.171427
0.170733
0.169972
0.169116
0.168129
0.166967
0.165594
0.164001
0.162192
0.160189
0.158029
0.155723
0.15331
0.150827
0.148301
0.145756
0.143202
0.140648
0.138094
0.135542
0.132993
0.130444
0.127891
0.125321
0.122715
0.119994
0.117115
0.114042
0.110761
0.107275
0.103611
0.099788
0.0957957
0.0916123
0.0872114
0.0825996
0.0778219
0.0729328
0.0679735
0.0629628
0.0579029
0.0527813
0.0475761
0.0422577
0.0367876
0.0311273
0.0252478
0.0191479
0.0128314
0.00309303
0.00393963
0.00141548
-0.00124509
-0.00401279
-0.00686815
-0.00979113
-0.0127634
-0.0157696
-0.0187982
-0.02184
-0.0248887
-0.0279394
-0.0309889
-0.034035
-0.0370763
-0.0401118
-0.0431413
-0.0461645
-0.0491815
-0.0521927
-0.0551984
-0.058199
-0.0611949
-0.0641867
-0.0671748
-0.0701596
-0.0731416
-0.0761211
-0.0790984
-0.082074
-0.0850481
-0.0880209
-0.0909926
-0.0939636
-0.0969339
-0.0999036
-0.102873
-0.105842
-0.108811
0.219534
0.21742
0.215305
0.213189
0.211073
0.208957
0.206841
0.204727
0.202619
0.200523
0.198449
0.19641
0.19442
0.192492
0.190635
0.188861
0.187179
0.1856
0.184126
0.182759
0.181495
0.18033
0.179261
0.178284
0.177396
0.176589
0.175855
0.175182
0.174552
0.173946
0.173345
0.172725
0.172065
0.171336
0.170508
0.169539
0.168384
0.167006
0.165397
0.16356
0.161525
0.159328
0.156985
0.154534
0.152014
0.149453
0.146875
0.144299
0.141734
0.13918
0.136637
0.134106
0.131583
0.129059
0.126511
0.123903
0.121147
0.118201
0.115035
0.111652
0.108068
0.104319
0.100414
0.0963325
0.0920507
0.0875538
0.082851
0.0779902
0.0730304
0.0680056
0.0629304
0.057807
0.052625
0.047364
0.0419998
0.0365032
0.0308455
0.0250107
0.0190251
0.0130253
0.00753533
0.00411789
0.00125781
-0.00151724
-0.00433234
-0.00720801
-0.0101366
-0.0131052
-0.0161018
-0.0191167
-0.0221424
-0.0251735
-0.0282061
-0.0312373
-0.0342655
-0.0372893
-0.0403081
-0.0433216
-0.0463298
-0.0493328
-0.0523308
-0.0553242
-0.0583133
-0.0612986
-0.0642806
-0.0672595
-0.0702358
-0.0732098
-0.0761819
-0.0791524
-0.0821216
-0.0850896
-0.0880567
-0.0910231
-0.0939889
-0.0969543
-0.0999193
-0.102884
-0.105849
-0.108813
0.219526
0.217396
0.215269
0.213146
0.211031
0.208924
0.206827
0.20474
0.202668
0.200617
0.198597
0.196618
0.194693
0.192831
0.191044
0.189339
0.187726
0.186213
0.184803
0.183497
0.182292
0.181185
0.180171
0.179248
0.17841
0.177651
0.176963
0.176333
0.175741
0.175172
0.174605
0.174019
0.173391
0.172695
0.171893
0.170942
0.169791
0.168405
0.166781
0.164928
0.16287
0.160642
0.158272
0.155794
0.153249
0.150662
0.14806
0.145475
0.142909
0.140364
0.137838
0.135332
0.13284
0.130342
0.127811
0.125182
0.122374
0.119346
0.11608
0.112594
0.108917
0.105085
0.101093
0.0969167
0.0925312
0.0879321
0.0831488
0.0782386
0.0732445
0.0681836
0.0630663
0.057892
0.0526541
0.0473405
0.0419335
0.0364126
0.0307473
0.0249075
0.0188791
0.0127092
0.00680404
0.00372094
0.000997529
-0.00176558
-0.00460615
-0.00750835
-0.0104542
-0.0134298
-0.0164249
-0.0194321
-0.0224458
-0.025462
-0.0284781
-0.0314919
-0.0345024
-0.0375087
-0.0405106
-0.0435078
-0.0465005
-0.0494889
-0.0524732
-0.0554538
-0.0584311
-0.0614054
-0.064377
-0.0673465
-0.0703139
-0.0732798
-0.0762443
-0.0792077
-0.0821702
-0.0851321
-0.0880934
-0.0910542
-0.0940148
-0.0969752
-0.0999354
-0.102895
-0.105855
-0.108815
0.219514
0.217361
0.215216
0.213081
0.210961
0.20886
0.206778
0.204717
0.20268
0.200674
0.198706
0.196785
0.194922
0.193128
0.191409
0.189775
0.188231
0.186786
0.185443
0.184203
0.183063
0.182017
0.181062
0.180194
0.17941
0.178702
0.178061
0.177473
0.17692
0.176386
0.175852
0.175302
0.174705
0.174044
0.17327
0.172333
0.171182
0.169791
0.168156
0.166289
0.164214
0.161971
0.15959
0.157098
0.154538
0.151935
0.149326
0.146745
0.144188
0.141661
0.139162
0.136691
0.134231
0.131752
0.129219
0.126544
0.123667
0.120548
0.11718
0.113594
0.109824
0.105897
0.101807
0.0975374
0.0930678
0.0883912
0.0835479
0.0786021
0.0735813
0.0684959
0.0633504
0.0581382
0.0528531
0.0474913
0.0420412
0.0364901
0.0308071
0.0249386
0.0187696
0.0119696
0.00244688
0.00294444
0.000756811
-0.001955
-0.00483505
-0.00778012
-0.0107555
-0.0137467
-0.0167464
-0.01975
-0.0227542
-0.025757
-0.0287572
-0.0317538
-0.0347463
-0.0377348
-0.0407191
-0.0436994
-0.0466761
-0.0496493
-0.0526193
-0.0555867
-0.0585516
-0.0615145
-0.0644755
-0.0674351
-0.0703935
-0.073351
-0.0763077
-0.0792639
-0.0822196
-0.0851751
-0.0881305
-0.0910858
-0.094041
-0.0969963
-0.0999516
-0.102907
-0.105862
-0.108818
0.219499
0.217319
0.21515
0.212998
0.210867
0.208767
0.206697
0.20466
0.202658
0.200695
0.198778
0.196915
0.195115
0.193387
0.191737
0.190172
0.188699
0.187325
0.186053
0.184882
0.183808
0.182826
0.181932
0.181123
0.180394
0.179738
0.179144
0.178597
0.178082
0.177584
0.177084
0.176566
0.176002
0.17537
0.174616
0.173691
0.172545
0.171156
0.16952
0.167649
0.16557
0.163326
0.160948
0.158453
0.155888
0.153284
0.150688
0.148125
0.145593
0.143097
0.140635
0.138199
0.135762
0.133287
0.130724
0.127983
0.125025
0.12181
0.118343
0.114658
0.110788
0.10675
0.102545
0.098162
0.0935978
0.0888569
0.083983
0.0790259
0.0739956
0.0688959
0.0637262
0.0584804
0.0531571
0.0477552
0.0422688
0.0366916
0.031008
0.0251915
0.0192197
0.0131174
0.00736806
0.0040472
0.00102022
-0.001995
-0.00501612
-0.00803733
-0.0110552
-0.0140682
-0.0170756
-0.0200771
-0.0230725
-0.0260619
-0.0290457
-0.0320243
-0.0349981
-0.0379677
-0.0409335
-0.0438961
-0.0468558
-0.0498131
-0.0527684
-0.0557219
-0.0586741
-0.0616251
-0.0645753
-0.0675248
-0.0704739
-0.0734228
-0.0763716
-0.0793204
-0.0822693
-0.0852184
-0.0881678
-0.0911174
-0.0940673
-0.0970175
-0.0999679
-0.102918
-0.105869
-0.10882
0.21948
0.217264
0.215063
0.212887
0.210743
0.208639
0.206577
0.204562
0.202596
0.200681
0.19882
0.197016
0.195277
0.193614
0.192032
0.190538
0.189137
0.187836
0.186637
0.185537
0.184531
0.183614
0.182783
0.182032
0.181359
0.180754
0.180206
0.1797
0.179223
0.178759
0.178294
0.177807
0.177277
0.176672
0.175938
0.175023
0.173881
0.172492
0.170857
0.168995
0.166934
0.164714
0.162356
0.159874
0.157323
0.154744
0.152183
0.149654
0.14716
0.144703
0.142275
0.139865
0.137437
0.134944
0.132325
0.129503
0.12645
0.123134
0.119565
0.115773
0.111782
0.107613
0.103277
0.0987753
0.0941217
0.0893316
0.084441
0.0794759
0.0744364
0.0693212
0.0641248
0.0588451
0.0534874
0.0480529
0.042541
0.0369524
0.0312894
0.025561
0.0198141
0.0141793
0.00902304
0.00483599
0.00125262
-0.00204613
-0.00521292
-0.00831295
-0.0113739
-0.0144084
-0.0174227
-0.0204209
-0.0234059
-0.0263802
-0.029346
-0.0323048
-0.0352583
-0.0382076
-0.0411537
-0.0440973
-0.0470392
-0.0499798
-0.0529195
-0.0558587
-0.0587976
-0.0617365
-0.0646755
-0.0676147
-0.0705544
-0.0734946
-0.0764353
-0.0793767
-0.0823188
-0.0852615
-0.0882049
-0.0911488
-0.0940934
-0.0970385
-0.099984
-0.10293
-0.105876
-0.108822
0.219459
0.2172
0.214961
0.212753
0.21059
0.208476
0.206419
0.204425
0.202494
0.200626
0.198821
0.197081
0.195411
0.193817
0.192304
0.19088
0.189551
0.188323
0.187197
0.186168
0.185231
0.18438
0.18361
0.182919
0.182301
0.181747
0.181244
0.180778
0.180339
0.17991
0.179481
0.179029
0.178533
0.177953
0.177237
0.176328
0.175186
0.173797
0.172174
0.170343
0.168326
0.166153
0.163831
0.161389
0.15888
0.156355
0.153846
0.151364
0.148913
0.146492
0.144092
0.141692
0.139248
0.136701
0.133999
0.131081
0.127922
0.124497
0.120822
0.11691
0.112782
0.108462
0.103986
0.099376
0.0946464
0.0898127
0.0849014
0.0799182
0.0748565
0.0697092
0.0644718
0.0591514
0.0537609
0.0483067
0.0427903
0.0372115
0.0315847
0.0259444
0.0203385
0.0148484
0.00964053
0.00499665
0.00118059
-0.00224396
-0.00548965
-0.00864078
-0.0117324
-0.0147813
-0.0177977
-0.0207886
-0.0237597
-0.0267157
-0.0296603
-0.0325968
-0.0355276
-0.0384546
-0.0413792
-0.0443025
-0.0472254
-0.0501484
-0.0530719
-0.0559961
-0.0589214
-0.0618477
-0.0647753
-0.0677041
-0.0706343
-0.0735657
-0.0764984
-0.0794324
-0.0823676
-0.0853039
-0.0882414
-0.0911798
-0.0941191
-0.0970592
-0.0999999
-0.102941
-0.105883
-0.108825
0.219434
0.217128
0.214844
0.212603
0.210417
0.208294
0.206243
0.204272
0.202378
0.200556
0.198806
0.197129
0.195526
0.194
0.192556
0.191202
0.189945
0.18879
0.187736
0.186777
0.185908
0.185122
0.184416
0.183784
0.183221
0.182716
0.182257
0.181833
0.181432
0.181041
0.180649
0.180236
0.179772
0.179217
0.178516
0.177615
0.176482
0.175114
0.173526
0.171734
0.169769
0.167661
0.165407
0.163035
0.160597
0.158146
0.155703
0.153277
0.150871
0.14848
0.14609
0.14367
0.141175
0.138541
0.135732
0.132701
0.129423
0.12588
0.122088
0.118051
0.113786
0.10933
0.10473
0.100008
0.0951828
0.0902828
0.085328
0.0803033
0.0751915
0.0699847
0.0646888
0.0593276
0.0539225
0.0484739
0.0429725
0.0374161
0.0318173
0.0261989
0.0205894
0.0150271
0.00952534
0.00428889
0.000686894
-0.00263725
-0.0058723
-0.0090391
-0.0121449
-0.0151986
-0.0182096
-0.0211869
-0.0241385
-0.0270712
-0.0299906
-0.0329011
-0.0358061
-0.0387083
-0.0416094
-0.0445108
-0.0474134
-0.0503177
-0.0532242
-0.056133
-0.0590442
-0.0619579
-0.0648739
-0.0677922
-0.0707128
-0.0736355
-0.0765602
-0.0794868
-0.0824153
-0.0853454
-0.088277
-0.0912099
-0.0941441
-0.0970793
-0.100015
-0.102952
-0.105889
-0.108827
0.2194
0.217032
0.214705
0.212432
0.210225
0.208097
0.206055
0.204106
0.202246
0.200468
0.198772
0.197155
0.195617
0.19416
0.192788
0.191506
0.190322
0.189238
0.188255
0.187366
0.186564
0.185844
0.185201
0.184629
0.184121
0.183665
0.183252
0.182871
0.182512
0.182163
0.181812
0.181442
0.181014
0.180486
0.179801
0.178911
0.177795
0.176462
0.174927
0.173203
0.171324
0.169307
0.167143
0.164858
0.16251
0.160147
0.157777
0.155406
0.153033
0.150657
0.148255
0.145789
0.143209
0.14046
0.13752
0.134351
0.13093
0.127255
0.123339
0.119171
0.114772
0.110193
0.105482
0.100659
0.0957434
0.0907567
0.0857092
0.0805967
0.0754058
0.0701318
0.0647874
0.0593981
0.0539826
0.0485397
0.043056
0.0375189
0.0319291
0.0263035
0.0206532
0.0149516
0.00896896
0.000953709
-0.000131749
-0.00314389
-0.0063355
-0.00950808
-0.0126196
-0.015669
-0.0186657
-0.0216212
-0.024546
-0.027449
-0.0303378
-0.0332178
-0.0360934
-0.0389678
-0.0418431
-0.0447208
-0.0476017
-0.0504865
-0.0533753
-0.0562682
-0.0591651
-0.0620658
-0.0649702
-0.067878
-0.0707891
-0.0737031
-0.07662
-0.0795395
-0.0824613
-0.0853853
-0.0883112
-0.0912389
-0.0941681
-0.0970986
-0.10003
-0.102962
-0.105895
-0.108829
0.219372
0.216948
0.214565
0.212249
0.210018
0.207887
0.205856
0.203928
0.2021
0.200366
0.198724
0.197167
0.195694
0.194306
0.193004
0.191794
0.19068
0.189667
0.188753
0.187935
0.187203
0.186552
0.185974
0.185464
0.185013
0.184608
0.184243
0.183909
0.183597
0.183296
0.182992
0.182668
0.182283
0.181791
0.181129
0.180259
0.179177
0.177906
0.176439
0.174797
0.173025
0.171127
0.169073
0.166892
0.164647
0.162378
0.160089
0.157778
0.155438
0.153061
0.150623
0.14807
0.145373
0.14248
0.139376
0.136036
0.13245
0.128627
0.124574
0.120274
0.115757
0.111078
0.10628
0.101381
0.0963884
0.0913021
0.086139
0.0809136
0.0756219
0.070264
0.0648537
0.0594172
0.0539709
0.0485112
0.0430274
0.0375018
0.031924
0.0263071
0.0206638
0.0150051
0.00933418
0.00377266
1.02589e-05
-0.00349092
-0.00682954
-0.0100474
-0.0131654
-0.0162015
-0.019173
-0.0220962
-0.0249849
-0.0278505
-0.030702
-0.0335463
-0.0363883
-0.0392316
-0.0420786
-0.0449307
-0.0477888
-0.0506531
-0.0535236
-0.0564002
-0.0592826
-0.0621704
-0.0650632
-0.0679607
-0.0708624
-0.073768
-0.0766772
-0.0795897
-0.0825052
-0.0854233
-0.0883439
-0.0912665
-0.0941909
-0.0971169
-0.100044
-0.102972
-0.105901
-0.108831
0.219336
0.216846
0.214409
0.212053
0.209802
0.207666
0.205647
0.203743
0.201948
0.200259
0.198668
0.19717
0.19576
0.194437
0.193204
0.192064
0.191021
0.19008
0.18924
0.188496
0.18784
0.187263
0.186757
0.186313
0.185918
0.185567
0.185255
0.184975
0.184718
0.184473
0.184222
0.183954
0.183626
0.183183
0.182552
0.18171
0.180684
0.179496
0.178107
0.176563
0.174913
0.17315
0.171235
0.169175
0.167037
0.164868
0.162665
0.16041
0.158089
0.15569
0.1532
0.150545
0.14772
0.144651
0.141341
0.137792
0.134024
0.130035
0.125832
0.121401
0.116784
0.112027
0.107165
0.102203
0.097128
0.0919351
0.0866623
0.0813256
0.0759228
0.0704541
0.0649373
0.0594011
0.0538757
0.048368
0.0428627
0.0373419
0.0317924
0.0262085
0.0205893
0.0150034
0.00952085
0.0043083
-0.000167683
-0.0039873
-0.00744632
-0.0106943
-0.0138018
-0.0168073
-0.019738
-0.0226153
-0.0254566
-0.0282754
-0.0310822
-0.0338848
-0.0366886
-0.0394974
-0.0423136
-0.0451384
-0.0479724
-0.0508155
-0.0536673
-0.0565275
-0.0593954
-0.0622704
-0.0651518
-0.0680391
-0.0709318
-0.0738293
-0.0767312
-0.0796371
-0.0825465
-0.085459
-0.0883744
-0.0912923
-0.0942123
-0.097134
-0.100057
-0.102982
-0.105907
-0.108833
0.219297
0.216732
0.214235
0.211841
0.209573
0.207437
0.205432
0.203552
0.201792
0.200144
0.1986
0.197156
0.195807
0.194549
0.193384
0.192316
0.191349
0.190487
0.189728
0.18907
0.188502
0.188012
0.187584
0.187206
0.186869
0.186575
0.186323
0.186108
0.185919
0.185737
0.185548
0.18535
0.185107
0.184739
0.184148
0.183348
0.182406
0.181322
0.180028
0.178597
0.177091
0.17548
0.173702
0.171746
0.169698
0.167628
0.165512
0.163293
0.160983
0.158559
0.156033
0.153286
0.150331
0.147067
0.143493
0.139693
0.135728
0.131537
0.12715
0.122578
0.117861
0.113055
0.108182
0.103206
0.0980552
0.0927191
0.0873312
0.0819184
0.0764167
0.0707771
0.0650648
0.059327
0.0536581
0.0480726
0.042565
0.0371011
0.031626
0.0261264
0.0205285
0.0149629
0.00944889
0.00409349
-0.000876744
-0.00477309
-0.0082567
-0.0114856
-0.0145485
-0.0174969
-0.0203653
-0.0231798
-0.0259604
-0.0287219
-0.0314757
-0.0342301
-0.036991
-0.0397619
-0.042545
-0.0453409
-0.0481499
-0.0509713
-0.0538044
-0.0566482
-0.0595018
-0.0623643
-0.0652348
-0.0681124
-0.0709964
-0.0738862
-0.0767812
-0.0796808
-0.0825846
-0.085492
-0.0884026
-0.091316
-0.0942319
-0.0971498
-0.100069
-0.10299
-0.105912
-0.108834
0.219252
0.216607
0.21405
0.211619
0.209334
0.207199
0.20521
0.203357
0.201632
0.200023
0.198522
0.197125
0.195829
0.194635
0.193545
0.19256
0.191682
0.190914
0.190254
0.189701
0.189241
0.188852
0.188506
0.188187