/*--------------------------------*- C++ -*----------------------------------*\
  =========                 |
  \\      /  F ield         | OpenFOAM: The Open Source CFD Toolbox
   \\    /   O peration     | Website:  https://openfoam.org
    \\  /    A nd           | Version:  6
     \\/     M anipulation  |
\*---------------------------------------------------------------------------*/
FoamFile
{
    version     2.0;
    format      ascii;
    class       surfaceScalarField;
    location    "1700";
    object      phi;
}
// * * * * * * * * * * * * * * * * * * * * * * * * * * * * * * * * * * * * * //

dimensions      [0 3 -1 0 0 0 0];

internalField   nonuniform List<scalar> 
9440
(
-3.34731e-11
3.34731e-11
-4.65714e-11
1.30978e-11
-4.00143e-11
-6.55742e-12
-3.41462e-11
-5.86849e-12
-5.29695e-11
1.88231e-11
-9.17326e-11
3.87628e-11
-1.34708e-10
4.29751e-11
-2.10009e-10
7.53007e-11
-2.72818e-10
6.28096e-11
-3.63081e-10
9.02626e-11
-4.4654e-10
8.34594e-11
-5.25985e-10
7.94448e-11
-5.78312e-10
5.23271e-11
-5.77133e-10
-1.17875e-12
-3.99396e-10
-1.77736e-10
-3.11963e-10
-8.7433e-11
-2.19338e-10
-9.26243e-11
-1.31054e-10
-8.82844e-11
5.72644e-11
-1.88318e-10
2.83222e-10
-2.25957e-10
5.7239e-10
-2.89169e-10
7.40952e-10
-1.68562e-10
9.62297e-10
-2.21346e-10
8.97831e-10
6.44661e-11
1.16432e-09
-2.66487e-10
1.21225e-09
-4.79313e-11
1.23144e-09
-1.91904e-11
1.4066e-09
-1.75167e-10
1.42736e-09
-2.07557e-11
1.42134e-09
6.01259e-12
1.41185e-09
9.49602e-12
1.40334e-09
8.50539e-12
1.40184e-09
1.49857e-12
1.41248e-09
-1.06442e-11
1.41367e-09
-1.1875e-12
1.4384e-09
-2.47329e-11
1.49822e-09
-5.98229e-11
1.56651e-09
-6.82927e-11
1.61124e-09
-4.47253e-11
1.64211e-09
-3.0875e-11
1.65461e-09
-1.24993e-11
1.6829e-09
-2.82964e-11
1.728e-09
-4.50977e-11
1.7253e-09
2.70261e-12
1.8099e-09
-8.46033e-11
1.92808e-09
-1.18175e-10
1.99762e-09
-6.95401e-11
2.0253e-09
-2.76864e-11
2.03643e-09
-1.11272e-11
2.02785e-09
8.57735e-12
2.04051e-09
-1.26678e-11
2.05602e-09
-1.55078e-11
2.056e-09
1.80286e-14
2.06762e-09
-1.16216e-11
2.10425e-09
-3.66307e-11
2.13676e-09
-3.25081e-11
2.15551e-09
-1.8754e-11
2.17338e-09
-1.78676e-11
2.19264e-09
-1.92591e-11
2.18595e-09
6.69309e-12
2.19293e-09
-6.97598e-12
2.15329e-09
3.96389e-11
2.15153e-09
1.76128e-12
2.0663e-09
8.52287e-11
2.06865e-09
-2.3401e-12
1.94756e-09
1.2109e-10
1.93392e-09
1.36428e-11
1.819e-09
1.14913e-10
1.80259e-09
1.64118e-11
1.70138e-09
1.01213e-10
1.6193e-09
8.20745e-11
1.54261e-09
7.66956e-11
1.34879e-09
1.93818e-10
1.31494e-09
3.38492e-11
1.01349e-09
3.01446e-10
9.74318e-10
3.9178e-11
5.8579e-10
3.8853e-10
3.11307e-10
2.74486e-10
1.37466e-10
1.73844e-10
2.4862e-11
1.12602e-10
2.40584e-14
2.48225e-11
-1.95016e-19
4.66932e-20
-1.78401e-19
-1.66156e-20
-1.6438e-19
-2.11631e-20
-1.3821e-19
-2.4896e-20
-9.97886e-20
-3.60775e-20
-4.83104e-20
-5.00862e-20
1.55715e-20
-6.30477e-20
8.95793e-20
-7.31828e-20
1.70555e-19
-8.0037e-20
2.55112e-19
-8.37107e-20
3.40049e-19
-8.44842e-20
4.22608e-19
-8.26803e-20
5.00582e-19
-7.86343e-20
5.72304e-19
-7.26978e-20
6.36565e-19
-6.52414e-20
6.92519e-19
-5.66477e-20
7.39592e-19
-4.72955e-20
7.77419e-19
-3.75404e-20
8.05797e-19
-2.76951e-20
8.24684e-19
-1.80096e-20
8.3422e-19
-8.6577e-21
8.3476e-19
2.64129e-22
8.26869e-19
8.71317e-21
8.11257e-19
1.66686e-20
7.88668e-19
2.41004e-20
7.5977e-19
3.09589e-20
7.25093e-19
3.71879e-20
6.85029e-19
4.27417e-20
6.39891e-19
4.76036e-20
5.89974e-19
5.17878e-20
5.35611e-19
5.53336e-20
4.77194e-19
5.8295e-20
4.15178e-19
6.07275e-20
3.50066e-19
6.26811e-20
2.82398e-19
6.41932e-20
2.12751e-19
6.52785e-20
1.41768e-19
6.5902e-20
7.03051e-20
6.58727e-20
6.44184e-20
-1.26383e-11
4.6111e-11
-2.15583e-11
2.20171e-11
-2.11235e-11
-6.99285e-12
-3.25134e-11
5.52088e-12
-5.1985e-11
3.82942e-11
-1.00808e-10
8.75857e-11
-1.56613e-10
9.87796e-11
-2.57001e-10
1.75688e-10
-3.54889e-10
1.60698e-10
-4.60911e-10
1.96285e-10
-5.52798e-10
1.75347e-10
-6.35168e-10
1.61815e-10
-6.99412e-10
1.16572e-10
-7.6109e-10
6.05e-11
-5.44881e-10
-3.93943e-10
-4.70734e-10
-1.61579e-10
-2.83036e-10
-2.80323e-10
-1.24287e-10
-2.47033e-10
8.22657e-11
-3.9487e-10
2.85869e-10
-4.29561e-10
4.96261e-10
-4.99562e-10
7.9339e-10
-4.65691e-10
8.97036e-10
-3.24992e-10
9.99692e-10
-3.81912e-11
1.09706e-09
-3.63858e-10
1.1854e-09
-1.36267e-10
1.25336e-09
-8.71569e-11
1.28794e-09
-2.09745e-10
1.32721e-09
-6.00344e-11
1.32592e-09
7.29948e-12
1.32638e-09
9.03708e-12
1.31459e-09
2.02892e-11
1.31231e-09
3.77625e-12
1.32238e-09
-2.07103e-11
1.35956e-09
-3.83743e-11
1.39232e-09
-5.74992e-11
1.42917e-09
-9.66679e-11
1.47675e-09
-1.15881e-10
1.5565e-09
-1.24475e-10
1.57143e-09
-4.58115e-11
1.57768e-09
-1.87473e-11
1.62477e-09
-7.53895e-11
1.71274e-09
-1.33063e-10
1.81415e-09
-9.8713e-11
1.85609e-09
-1.26537e-10
1.85488e-09
-1.16972e-10
1.8779e-09
-9.25639e-11
1.89906e-09
-4.88433e-11
1.8784e-09
9.52811e-12
1.91165e-09
-2.46783e-11
1.92753e-09
-2.85445e-11
1.9392e-09
-2.71774e-11
1.9468e-09
-7.58628e-12
1.97767e-09
-4.24962e-11
2.01453e-09
-7.34931e-11
2.04782e-09
-6.57971e-11
2.07596e-09
-4.6892e-11
2.07567e-09
-1.75681e-11
2.06291e-09
-6.50269e-12
2.05553e-09
1.40794e-11
2.0253e-09
2.32576e-11
2.0079e-09
5.70419e-11
1.94384e-09
6.58236e-11
1.92972e-09
9.93478e-11
1.85578e-09
7.16012e-11
1.86151e-09
1.15367e-10
1.77174e-09
1.03413e-10
1.76432e-09
1.22337e-10
1.66476e-09
1.15964e-10
1.59698e-09
1.68999e-10
1.53818e-09
1.40871e-10
1.391e-09
2.23874e-10
1.36816e-09
2.16655e-10
1.10074e-09
3.01275e-10
1.16134e-09
2.40852e-10
8.29263e-10
3.71254e-10
7.23371e-10
4.94424e-10
7.01732e-10
2.96128e-10
4.11569e-10
4.64013e-10
1.34626e-10
3.89571e-10
-8.28547e-16
1.59523e-10
-2.57706e-19
-2.59821e-19
-1.82347e-19
-7.46685e-20
-1.67523e-19
-3.09425e-20
-1.49199e-19
-4.23623e-20
-1.13797e-19
-7.09074e-20
-6.1272e-20
-1.01594e-19
5.43642e-21
-1.28423e-19
8.2725e-20
-1.49129e-19
1.66881e-19
-1.6317e-19
2.54338e-19
-1.70729e-19
3.41853e-19
-1.7227e-19
4.26654e-19
-1.68387e-19
5.06519e-19
-1.59774e-19
5.7976e-19
-1.47217e-19
6.45158e-19
-1.31568e-19
7.01871e-19
-1.1371e-19
7.49347e-19
-9.44909e-20
7.87264e-19
-7.46472e-20
8.15483e-19
-5.47475e-20
8.34036e-19
-3.5175e-20
8.43141e-19
-1.61637e-20
8.43209e-19
2.13108e-21
8.34825e-19
1.95604e-20
8.18689e-19
3.594e-20
7.95526e-19
5.10578e-20
7.65999e-19
6.4716e-20
7.30646e-19
7.67807e-20
6.89891e-19
8.72139e-20
6.44075e-19
9.60724e-20
5.9352e-19
1.03485e-19
5.38572e-19
1.09619e-19
4.79627e-19
1.14646e-19
4.17132e-19
1.18727e-19
3.51578e-19
1.21991e-19
2.83483e-19
1.24541e-19
2.13374e-19
1.26443e-19
1.41739e-19
1.27733e-19
6.88509e-20
1.28438e-19
1.28767e-19
5.33009e-12
4.07806e-11
5.02197e-12
2.23244e-11
-9.12547e-12
7.15394e-12
-3.41819e-11
3.05767e-11
-6.57277e-11
6.98395e-11
-1.32185e-10
1.54042e-10
-2.11897e-10
1.78492e-10
-3.08926e-10
2.72717e-10
-4.48797e-10
3.00569e-10
-5.65717e-10
3.13205e-10
-6.85048e-10
2.94677e-10
-7.70086e-10
2.46854e-10
-7.6158e-10
1.08065e-10
-7.82663e-10
8.15843e-11
-6.31858e-10
-5.44748e-10
-5.18006e-10
-2.75431e-10
-2.70471e-10
-5.27858e-10
1.49582e-11
-5.32462e-10
3.17878e-10
-6.9779e-10
5.31989e-10
-6.43671e-10
6.05193e-10
-5.72766e-10
8.18763e-10
-6.79262e-10
8.70816e-10
-3.77045e-10
1.072e-09
-2.39381e-10
9.96876e-10
-2.88731e-10
1.10629e-09
-2.45682e-10
1.16763e-09
-1.48499e-10
1.14375e-09
-1.85866e-10
1.20463e-09
-1.20915e-10
1.23568e-09
-2.37529e-11
1.26333e-09
-1.86142e-11
1.26907e-09
1.45452e-11
1.29543e-09
-2.25838e-11
1.32647e-09
-5.17524e-11
1.34395e-09
-5.58586e-11
1.38123e-09
-9.47882e-11
1.40425e-09
-1.19688e-10
1.42289e-09
-1.34524e-10
1.47426e-09
-1.75842e-10
1.47266e-09
-4.42106e-11
1.52911e-09
-7.52058e-11
1.58583e-09
-1.32112e-10
1.6744e-09
-2.21624e-10
1.68657e-09
-1.10887e-10
1.70405e-09
-1.44015e-10
1.72014e-09
-1.33062e-10
1.66815e-09
-4.0578e-11
1.73928e-09
-1.19981e-10
1.80152e-09
-5.27108e-11
1.814e-09
-3.71618e-11
1.81973e-09
-3.42712e-11
1.83689e-09
-4.43447e-11
1.88093e-09
-5.16211e-11
1.9054e-09
-6.69737e-11
1.91192e-09
-8.00043e-11
1.90273e-09
-5.66073e-11
1.89762e-09
-4.17809e-11
1.90555e-09
-2.55003e-11
1.89585e-09
3.20356e-12
1.89828e-09
1.16525e-11
1.8682e-09
5.33357e-11
1.86512e-09
6.01292e-11
1.79936e-09
1.31578e-10
1.81167e-09
8.70381e-11
1.71837e-09
1.64908e-10
1.73751e-09
9.62232e-11
1.65105e-09
1.89877e-10
1.67048e-09
1.02909e-10
1.57848e-09
2.07962e-10
1.54012e-09
2.07352e-10
1.42229e-09
2.58706e-10
1.357e-09
2.89164e-10
1.28789e-09
2.85766e-10
1.05989e-09
5.29272e-10
1.03047e-09
2.70272e-10
8.68261e-10
5.33467e-10
8.05762e-10
5.56925e-10
6.42778e-10
4.59108e-10
4.09756e-10
6.97021e-10
1.82797e-10
6.16498e-10
-1.62545e-15
3.42306e-10
-7.19529e-20
-3.99663e-19
-1.38023e-19
-7.67172e-21
-1.78357e-19
1.1706e-20
-1.77571e-19
-4.21387e-20
-1.44484e-19
-1.03467e-19
-8.81009e-20
-1.57496e-19
-1.52694e-20
-2.00745e-19
6.86835e-20
-2.32591e-19
1.59322e-19
-2.53404e-19
2.52797e-19
-2.63963e-19
3.45736e-19
-2.65231e-19
4.35266e-19
-2.58279e-19
5.19076e-19
-2.44273e-19
5.95409e-19
-2.24456e-19
6.63016e-19
-2.00118e-19
7.2109e-19
-1.72552e-19
7.69191e-19
-1.4297e-19
8.07164e-19
-1.1243e-19
8.35055e-19
-8.17762e-20
8.53047e-19
-5.16311e-20
8.61436e-19
-2.24351e-20
8.60639e-19
5.48607e-21
8.51205e-19
3.18551e-20
8.33807e-19
5.6402e-20
8.09185e-19
7.8865e-20
7.78064e-19
9.90286e-20
7.4108e-19
1.16766e-19
6.9875e-19
1.32071e-19
6.51488e-19
1.45053e-19
5.99654e-19
1.55911e-19
5.436e-19
1.64893e-19
4.83707e-19
1.72253e-19
4.20396e-19
1.78228e-19
3.54127e-19
1.83019e-19
2.85386e-19
1.86787e-19
2.14664e-19
1.89653e-19
1.42444e-19
1.91709e-19
6.91802e-20
1.93042e-19
1.93779e-19
1.96696e-11
2.11106e-11
2.2253e-11
1.97401e-11
-1.24561e-11
4.18623e-11
-3.27831e-11
5.09029e-11
-4.56856e-11
8.27414e-11
-1.39238e-10
2.47594e-10
-2.63389e-10
3.02642e-10
-3.73111e-10
3.82439e-10
-5.38875e-10
4.66332e-10
-6.85494e-10
4.59824e-10
-7.44661e-10
3.53844e-10
-7.69491e-10
2.71684e-10
-7.16221e-10
5.47966e-11
-5.92581e-10
-4.20559e-11
-5.83999e-10
-5.53329e-10
-3.45404e-10
-5.14026e-10
-9.57316e-11
-7.77529e-10
2.18233e-10
-8.46426e-10
4.4087e-10
-9.20427e-10
6.48809e-10
-8.51611e-10
8.26635e-10
-7.50593e-10
8.3725e-10
-6.89877e-10
1.00483e-09
-5.44631e-10
1.1082e-09
-3.42746e-10
1.07205e-09
-2.5258e-10
1.07485e-09
-2.48483e-10
1.10676e-09
-1.80418e-10
1.0873e-09
-1.66407e-10
1.08638e-09
-1.19994e-10
1.14228e-09
-7.9654e-11
1.20539e-09
-8.17257e-11
1.23434e-09
-1.44089e-11
1.24642e-09
-3.46657e-11
1.27541e-09
-8.07416e-11
1.29148e-09
-7.19352e-11
1.33789e-09
-1.41197e-10
1.31843e-09
-1.00228e-10
1.4087e-09
-2.24797e-10
1.4619e-09
-2.29043e-10
1.44486e-09
-2.71734e-11
1.45587e-09
-8.62156e-11
1.48549e-09
-1.61731e-10
1.51829e-09
-2.54434e-10
1.5417e-09
-1.34292e-10
1.57295e-09
-1.75273e-10
1.60073e-09
-1.60838e-10
1.62921e-09
-6.90616e-11
1.63656e-09
-1.27328e-10
1.66988e-09
-8.6036e-11
1.69321e-09
-6.04959e-11
1.72314e-09
-6.42024e-11
1.72983e-09
-5.10291e-11
1.76121e-09
-8.30081e-11
1.77047e-09
-7.62249e-11
1.7851e-09
-9.46362e-11
1.77857e-09
-5.00802e-11
1.76878e-09
-3.19834e-11
1.76727e-09
-2.39949e-11
1.74969e-09
2.07878e-11
1.73153e-09
2.98136e-11
1.71465e-09
7.02132e-11
1.69025e-09
8.45369e-11
1.66555e-09
1.56281e-10
1.65677e-09
9.58142e-11
1.6222e-09
1.99479e-10
1.59788e-09
1.20539e-10
1.55541e-09
2.32351e-10
1.50071e-09
1.57612e-10
1.45395e-09
2.5472e-10
1.42434e-09
2.36959e-10
1.33621e-09
3.46837e-10
1.27017e-09
3.55206e-10
1.01657e-09
5.39366e-10
1.02715e-09
5.18687e-10
8.27572e-10
4.69853e-10
8.17979e-10
5.43061e-10
6.50479e-10
7.24429e-10
4.92859e-10
6.16736e-10
4.32479e-10
7.57412e-10
3.28545e-10
7.20431e-10
-5.9475e-16
6.70851e-10
3.20632e-19
1.29732e-18
-1.18045e-19
4.30292e-19
-2.31615e-19
1.26157e-19
-2.38758e-19
-3.44635e-20
-1.98513e-19
-1.43721e-19
-1.31349e-19
-2.25e-19
-4.71154e-20
-2.8541e-19
4.787e-20
-3.2793e-19
1.48763e-19
-3.5447e-19
2.5153e-19
-3.66699e-19
3.52687e-19
-3.6626e-19
4.49272e-19
-3.54826e-19
5.38894e-19
-3.34105e-19
6.19746e-19
-3.05816e-19
6.90582e-19
-2.71665e-19
7.50671e-19
-2.33314e-19
7.99731e-19
-1.92334e-19
8.37818e-19
-1.50136e-19
8.652e-19
-1.07904e-19
8.82243e-19
-6.65615e-20
8.89357e-19
-2.67875e-20
8.87008e-19
1.09292e-20
8.75751e-19
4.62249e-20
8.5627e-19
7.88067e-20
8.29348e-19
1.08432e-19
7.95801e-19
1.3492e-19
7.56384e-19
1.58187e-19
7.11732e-19
1.7827e-19
6.62346e-19
1.95327e-19
6.08635e-19
2.09613e-19
5.5096e-19
2.21443e-19
4.89682e-19
2.31142e-19
4.25188e-19
2.39017e-19
3.57895e-19
2.45337e-19
2.88251e-19
2.50321e-19
2.1672e-19
2.54141e-19
1.43777e-19
2.5693e-19
6.99173e-20
2.58795e-19
2.59822e-19
7.03228e-12
1.40778e-11
-8.38654e-13
2.76101e-11
-3.11439e-11
7.21667e-11
-8.62226e-11
1.05981e-10
-1.54772e-10
1.5129e-10
-2.38077e-10
3.30899e-10
-4.13933e-10
4.78497e-10
-5.51123e-10
5.19629e-10
-6.31096e-10
5.46305e-10
-6.67828e-10
4.96556e-10
-6.75915e-10
3.61932e-10
-6.10997e-10
2.06767e-10
-5.62381e-10
6.18052e-12
-4.05174e-10
-1.99262e-10
-3.31674e-10
-6.26829e-10
-8.25304e-11
-7.63169e-10
1.13616e-10
-9.73676e-10
3.46246e-10
-1.07906e-09
4.78265e-10
-1.05245e-09
6.46307e-10
-1.01965e-09
8.54132e-10
-9.58418e-10
9.23407e-10
-7.59153e-10
1.01344e-09
-6.34663e-10
1.11054e-09
-4.39845e-10
1.04806e-09
-1.90103e-10
1.04771e-09
-2.48136e-10
1.06307e-09
-1.95778e-10
1.01703e-09
-1.20367e-10
1.00071e-09
-1.03675e-10
1.01268e-09
-9.16273e-11
1.0257e-09
-9.47497e-11
1.085e-09
-7.37156e-11
1.10655e-09
-5.62131e-11
1.14584e-09
-1.20034e-10
1.17012e-09
-9.62142e-11
1.24727e-09
-2.1835e-10
1.26002e-09
-1.12979e-10
1.27234e-09
-2.3712e-10
1.35262e-09
-3.09326e-10
1.36564e-09
-4.01985e-11
1.35429e-09
-7.48672e-11
1.41087e-09
-2.18309e-10
1.44502e-09
-2.88587e-10
1.50187e-09
-1.91138e-10
1.49498e-09
-1.68391e-10
1.47098e-09
-1.3684e-10
1.50185e-09
-9.99343e-11
1.49532e-09
-1.20796e-10
1.53029e-09
-1.21007e-10
1.58011e-09
-1.10319e-10
1.62675e-09
-1.10838e-10
1.65386e-09
-7.81435e-11
1.65822e-09
-8.73619e-11
1.67556e-09
-9.35712e-11
1.68182e-09
-1.00893e-10
1.67686e-09
-4.51139e-11
1.67513e-09
-3.02593e-11
1.66338e-09
-1.22447e-11
1.63948e-09
4.46947e-11
1.62115e-09
4.81461e-11
1.5867e-09
1.04656e-10
1.54915e-09
1.22088e-10
1.56084e-09
1.44597e-10
1.4856e-09
1.71053e-10
1.4898e-09
1.95273e-10
1.4243e-09
1.86045e-10
1.4192e-09
2.37452e-10
1.33258e-09
2.44226e-10
1.28455e-09
3.02748e-10
1.22169e-09
2.99825e-10
1.19732e-09
3.71205e-10
1.15022e-09
4.02306e-10
1.14105e-09
5.48531e-10
1.00306e-09
6.56686e-10
7.72483e-10
7.00426e-10
6.69311e-10
6.46231e-10
5.74857e-10
8.1888e-10
3.81518e-10
8.10074e-10
3.02716e-10
8.36218e-10
1.26699e-10
8.96449e-10
-2.2827e-16
7.97552e-10
-5.45703e-19
4.12248e-19
-4.21559e-19
3.06065e-19
-3.91647e-19
9.65152e-20
-3.47917e-19
-7.8318e-20
-2.79792e-19
-2.12622e-19
-1.91759e-19
-3.14324e-19
-8.96353e-20
-3.88991e-19
2.13293e-20
-4.40181e-19
1.36534e-19
-4.70548e-19
2.5197e-19
-4.8246e-19
3.64121e-19
-4.7824e-19
4.69993e-19
-4.6023e-19
5.67183e-19
-4.30762e-19
6.53897e-19
-3.92111e-19
7.28934e-19
-3.46446e-19
7.91651e-19
-2.95825e-19
8.41928e-19
-2.42183e-19
8.8005e-19
-1.87289e-19
9.06543e-19
-1.32665e-19
9.22017e-19
-7.95307e-20
9.27074e-19
-2.87923e-20
9.22303e-19
1.89225e-20
9.08333e-19
6.31983e-20
8.85895e-19
1.0376e-19
8.55836e-19
1.40424e-19
8.19068e-19
1.73088e-19
7.76467e-19
2.01736e-19
7.28788e-19
2.26467e-19
6.76633e-19
2.47494e-19
6.20465e-19
2.65129e-19
5.60659e-19
2.79742e-19
4.97558e-19
2.91726e-19
4.31508e-19
3.01454e-19
3.62879e-19
3.09256e-19
2.92071e-19
3.15411e-19
2.19509e-19
3.20137e-19
1.45643e-19
3.23606e-19
7.09448e-20
3.25943e-19
3.27231e-19
1.54254e-11
-1.34813e-12
2.67683e-12
4.03577e-11
1.79411e-13
7.46634e-11
-4.58417e-12
1.10744e-10
-6.24555e-11
2.09161e-10
-9.89045e-11
3.67348e-10
-2.19095e-10
5.98687e-10
-3.94559e-10
6.95093e-10
-5.4577e-10
6.97516e-10
-5.6903e-10
5.19816e-10
-5.37343e-10
3.30245e-10
-4.70556e-10
1.3998e-10
-3.72253e-10
-9.21213e-11
-1.81705e-10
-3.8981e-10
-1.34399e-10
-6.74135e-10
3.0197e-11
-9.27765e-10
2.05675e-10
-1.14915e-09
4.05229e-10
-1.27861e-09
6.01987e-10
-1.2492e-09
7.43392e-10
-1.16106e-09
8.05628e-10
-1.02065e-09
9.17519e-10
-8.71045e-10
9.15347e-10
-6.32493e-10
1.0095e-09
-5.33995e-10
9.96785e-10
-1.77393e-10
9.39526e-10
-1.90878e-10
9.29792e-10
-1.86046e-10
9.01024e-10
-9.16e-11
8.85972e-10
-8.86249e-11
8.92496e-10
-9.81529e-11
8.92456e-10
-9.4712e-11
9.32917e-10
-1.14178e-10
9.61675e-10
-8.49728e-11
1.0262e-09
-1.84563e-10
1.06487e-09
-1.34882e-10
1.11158e-09
-2.65062e-10
1.1609e-09
-1.62306e-10
1.17421e-09
-2.50432e-10
1.24291e-09
-3.78023e-10
1.26916e-09
-6.64497e-11
1.30605e-09
-1.11756e-10
1.36359e-09
-2.75853e-10
1.41914e-09
-3.44142e-10
1.44069e-09
-2.12689e-10
1.42559e-09
-1.53298e-10
1.42207e-09
-1.33315e-10
1.44854e-09
-1.2641e-10
1.44703e-09
-1.19284e-10
1.46697e-09
-1.40949e-10
1.51443e-09
-1.57781e-10
1.5432e-09
-1.39605e-10
1.5702e-09
-1.05141e-10
1.57464e-09
-9.1804e-11
1.60595e-09
-1.24881e-10
1.59836e-09
-9.3299e-11
1.61083e-09
-5.75869e-11
1.61698e-09
-3.64037e-11
1.5942e-09
1.05331e-11
1.58034e-09
5.85562e-11
1.55062e-09
7.786e-11
1.53105e-09
1.24227e-10
1.49495e-09
1.58195e-10
1.44026e-09
1.9928e-10
1.4105e-09
2.0081e-10
1.38448e-09
2.21301e-10
1.2749e-09
2.95624e-10
1.24344e-09
2.68912e-10
1.22222e-09
2.65443e-10
1.17202e-09
3.52953e-10
1.07745e-09
3.9439e-10
9.34052e-10
5.14609e-10
7.60462e-10
5.75897e-10
7.79808e-10
5.29186e-10
7.13355e-10
7.2314e-10
6.3703e-10
7.76753e-10
5.04504e-10
7.78758e-10
4.76956e-10
8.46428e-10
4.0173e-10
8.85298e-10
2.90816e-10
9.47133e-10
1.57331e-10
1.02994e-09
-3.21701e-16
9.54884e-10
-6.51244e-19
6.66789e-19
-6.30496e-19
2.85438e-19
-5.65898e-19
3.21048e-20
-4.82177e-19
-1.62445e-19
-3.81494e-19
-3.14523e-19
-2.66425e-19
-4.31321e-19
-1.40826e-19
-5.16814e-19
-9.03735e-21
-5.7403e-19
1.24622e-19
-6.05736e-19
2.56189e-19
-6.14757e-19
3.82131e-19
-6.04051e-19
4.99461e-19
-5.76687e-19
6.05834e-19
-5.35746e-19
6.99562e-19
-4.84192e-19
7.79555e-19
-4.24774e-19
8.45293e-19
-3.6001e-19
8.96823e-19
-2.92205e-19
9.34674e-19
-2.23452e-19
9.59677e-19
-1.55565e-19
9.72755e-19
-9.00151e-20
9.74789e-19
-2.78933e-20
9.66579e-19
3.00686e-20
9.48895e-19
8.34304e-20
9.22559e-19
1.31964e-19
8.885e-19
1.75576e-19
8.47717e-19
2.14269e-19
8.01198e-19
2.4813e-19
7.49815e-19
2.77339e-19
6.94267e-19
3.02179e-19
6.35078e-19
3.23022e-19
5.72643e-19
3.40299e-19
5.07286e-19
3.54463e-19
4.3931e-19
3.65948e-19
3.69033e-19
3.75147e-19
2.96798e-19
3.82394e-19
2.22978e-19
3.87955e-19
1.47979e-19
3.92036e-19
7.22334e-20
3.94789e-19
3.96307e-19
6.03143e-11
-6.1663e-11
4.89754e-11
5.16958e-11
1.37067e-11
1.09931e-10
-7.70802e-11
2.0153e-10
-2.52306e-10
3.84386e-10
-4.29924e-10
5.44966e-10
-4.67603e-10
6.36366e-10
-4.48593e-10
6.76084e-10
-4.4525e-10
6.94174e-10
-4.39567e-10
5.14133e-10
-3.87998e-10
2.78676e-10
-3.22254e-10
7.42355e-11
-1.40801e-10
-2.73574e-10
1.81814e-11
-5.48792e-10
1.38062e-10
-7.94015e-10
2.46468e-10
-1.03617e-09
4.12525e-10
-1.31521e-09
5.03971e-10
-1.37006e-09
5.93278e-10
-1.33851e-09
6.90156e-10
-1.25794e-09
7.77285e-10
-1.10778e-09
9.0966e-10
-1.00342e-09
8.64315e-10
-5.87149e-10
8.19607e-10
-4.89288e-10
8.4469e-10
-2.02478e-10
7.48227e-10
-9.44158e-11
6.81161e-10
-1.18981e-10
6.8541e-10
-9.58506e-11
7.02576e-10
-1.05792e-10
7.29406e-10
-1.24985e-10
7.6094e-10
-1.26247e-10
8.15212e-10
-1.68451e-10
8.55555e-10
-1.25318e-10
9.23585e-10
-2.52594e-10
9.76632e-10
-1.87931e-10
1.03927e-09
-3.27698e-10
1.06976e-09
-1.92803e-10
1.15765e-09
-3.38322e-10
1.19397e-09
-4.14342e-10
1.17851e-09
-5.09944e-11
1.22558e-09
-1.58829e-10
1.22984e-09
-2.80116e-10
1.27907e-09
-3.93375e-10
1.35975e-09
-2.9337e-10
1.3826e-09
-1.76157e-10
1.39752e-09
-1.48234e-10
1.41554e-09
-1.44426e-10
1.41845e-09
-1.22202e-10
1.44206e-09
-1.64558e-10
1.47708e-09
-1.92799e-10
1.50614e-09
-1.6867e-10
1.52982e-09
-1.28823e-10
1.53786e-09
-9.98347e-11
1.53659e-09
-1.2361e-10
1.53424e-09
-9.09534e-11
1.53977e-09
-6.31105e-11
1.55252e-09
-4.91623e-11
1.53781e-09
2.52507e-11
1.52674e-09
6.96184e-11
1.49044e-09
1.14161e-10
1.46183e-09
1.52836e-10
1.46023e-09
1.5979e-10
1.37445e-09
2.8506e-10
1.29574e-09
2.79518e-10
1.25531e-09
2.61732e-10
1.16549e-09
3.85444e-10
1.0999e-09
3.3451e-10
1.02951e-09
3.35832e-10
9.93132e-10
3.89333e-10
9.98568e-10
3.88956e-10
9.51423e-10
5.61757e-10
8.65021e-10
6.62302e-10
7.11531e-10
6.82678e-10
6.03575e-10
8.31098e-10
5.15449e-10
8.64879e-10
4.19889e-10
8.74319e-10
3.33164e-10
9.33154e-10
2.09998e-10
1.00846e-09
1.38704e-10
1.01843e-09
9.56078e-11
1.07303e-09
-7.08212e-16
1.05049e-09
-1.03195e-18
3.86766e-19
-8.83225e-19
1.36759e-19
-7.59909e-19
-9.05104e-20
-6.34249e-19
-2.87977e-19
-4.98292e-19
-4.51232e-19
-3.51919e-19
-5.7935e-19
-1.98042e-19
-6.72871e-19
-4.0743e-20
-7.33518e-19
1.15601e-19
-7.63829e-19
2.66896e-19
-7.66974e-19
4.09496e-19
-7.46567e-19
5.40403e-19
-7.06501e-19
6.57388e-19
-6.50754e-19
7.58979e-19
-5.83154e-19
8.4432e-19
-5.07191e-19
9.13098e-19
-4.25946e-19
9.65576e-19
-3.4213e-19
1.00256e-18
-2.58121e-19
1.02523e-18
-1.75959e-19
1.03488e-18
-9.72837e-20
1.03275e-18
-2.33063e-20
1.01994e-18
4.51847e-20
9.97428e-19
1.07763e-19
9.66172e-19
1.64274e-19
9.27193e-19
2.1474e-19
8.81577e-19
2.59295e-19
8.30407e-19
2.98156e-19
7.74656e-19
3.31615e-19
7.1511e-19
3.60043e-19
6.52355e-19
3.83885e-19
5.86806e-19
4.03637e-19
5.18771e-19
4.19811e-19
4.4851e-19
4.32904e-19
3.76279e-19
4.43368e-19
3.02359e-19
4.51588e-19
2.2706e-19
4.57882e-19
1.50731e-19
4.62492e-19
7.37519e-20
4.65596e-19
4.67305e-19
-1.2474e-11
-4.91894e-11
2.0636e-11
1.85852e-11
5.12529e-11
7.93142e-11
3.97845e-11
2.12998e-10
2.74194e-11
3.96751e-10
-3.72192e-11
6.09604e-10
-1.70503e-10
7.69649e-10
-2.8001e-10
7.85591e-10
-2.71507e-10
6.85672e-10
-2.44877e-10
4.87504e-10
-1.99244e-10
2.33044e-10
-1.23497e-10
-1.51191e-12
7.72851e-12
-4.04799e-10
7.05226e-11
-6.11587e-10
1.5909e-10
-8.82583e-10
2.88174e-10
-1.16525e-09
3.93733e-10
-1.42077e-09
4.85738e-10
-1.46206e-09
5.6685e-10
-1.41962e-09
6.07857e-10
-1.29894e-09
5.711e-10
-1.07103e-09
5.22559e-10
-9.54878e-10
5.57228e-10
-6.21818e-10
5.16194e-10
-4.48254e-10
5.31687e-10
-2.17971e-10
5.19469e-10
-8.21993e-11
4.92115e-10
-9.16278e-11
5.08662e-10
-1.12398e-10
5.36944e-10
-1.34076e-10
5.75309e-10
-1.63351e-10
6.27704e-10
-1.78643e-10
6.94366e-10
-2.35115e-10
7.72906e-10
-2.03859e-10
8.29731e-10
-3.0942e-10
9.21297e-10
-2.79499e-10
9.50612e-10
-3.57015e-10
1.02846e-09
-2.70648e-10
1.04147e-09
-3.51337e-10
1.12262e-09
-4.95497e-10
1.15592e-09
-8.42911e-11
1.20883e-09
-2.11743e-10
1.21383e-09
-2.85124e-10
1.1925e-09
-3.72044e-10
1.254e-09
-3.54873e-10
1.30396e-09
-2.26124e-10
1.35042e-09
-1.94693e-10
1.38941e-09
-1.8342e-10
1.41223e-09
-1.45025e-10
1.44097e-09
-1.93296e-10
1.456e-09
-2.07831e-10
1.46215e-09
-1.7482e-10
1.47312e-09
-1.39794e-10
1.48297e-09
-1.09687e-10
1.47595e-09
-1.16586e-10
1.47736e-09
-9.23657e-11
1.46441e-09
-5.01556e-11
1.45318e-09
-3.79297e-11
1.46142e-09
1.70082e-11
1.43152e-09
9.95102e-11
1.40047e-09
1.4521e-10
1.35057e-09
2.0274e-10
1.30419e-09
2.06166e-10
1.26799e-09
3.21259e-10
1.18322e-09
3.6429e-10
1.15685e-09
2.88109e-10
1.07325e-09
4.69045e-10
9.90354e-10
4.17403e-10
9.42115e-10
3.84074e-10
8.73615e-10
4.57837e-10
6.72116e-10
5.90459e-10
6.8977e-10
5.44106e-10
6.63665e-10
6.88411e-10
5.83389e-10
7.62956e-10
5.12499e-10
9.01991e-10
3.77062e-10
1.00032e-09
2.79139e-10
9.72243e-10
1.87889e-10
1.02441e-09
1.05859e-10
1.0905e-09
2.31446e-11
1.10114e-09
-6.82728e-12
1.10301e-09
-1.30025e-15
1.04367e-09
-1.28133e-18
9.32088e-20
-1.1099e-18
-3.43889e-20
-9.56925e-19
-2.41459e-19
-7.97504e-19
-4.45682e-19
-6.2641e-19
-6.21367e-19
-4.45439e-19
-7.60368e-19
-2.58689e-19
-8.60449e-19
-7.1054e-20
-9.22303e-19
1.12455e-19
-9.48374e-19
2.87303e-19
-9.42305e-19
4.49561e-19
-9.08515e-19
5.9615e-19
-8.51886e-19
7.24988e-19
-7.77464e-19
8.34942e-19
-6.90125e-19
9.25564e-19
-5.94276e-19
9.96914e-19
-4.93708e-19
1.04958e-18
-3.91603e-19
1.08472e-18
-2.90622e-19
1.1039e-18
-1.92955e-19
1.10885e-18
-1.00323e-19
1.10124e-18
-1.39637e-20
1.08252e-18
6.53517e-20
1.05394e-18
1.37262e-19
1.01664e-18
2.01722e-19
9.71748e-19
2.58901e-19
9.20438e-19
3.09096e-19
8.63866e-19
3.52679e-19
8.03084e-19
3.9008e-19
7.38952e-19
4.21785e-19
6.72107e-19
4.48328e-19
6.0298e-19
4.7028e-19
5.31865e-19
4.8822e-19
4.58973e-19
5.02704e-19
3.845e-19
5.14243e-19
3.08652e-19
5.23276e-19
2.31671e-19
5.30167e-19
1.53835e-19
5.35198e-19
7.54614e-20
5.38574e-19
5.40428e-19
6.10546e-11
-1.10244e-10
1.38361e-10
-5.87217e-11
1.5454e-10
6.31355e-11
1.0482e-10
2.62718e-10
-2.75036e-12
5.04322e-10
-6.94927e-11
6.76347e-10
-1.23157e-10
8.23315e-10
-1.71239e-10
8.33673e-10
-1.4785e-10
6.62284e-10
-9.4483e-11
4.34137e-10
2.57691e-12
1.35984e-10
1.03907e-10
-1.02842e-10
9.61645e-11
-3.97057e-10
1.48148e-10
-6.63571e-10
2.41481e-10
-9.75916e-10
3.50378e-10
-1.27415e-09
4.20714e-10
-1.49111e-09
4.67311e-10
-1.50866e-09
4.73833e-10
-1.42615e-09
3.96222e-10
-1.22133e-09
3.00904e-10
-9.75709e-10
2.0263e-10
-8.56603e-10
2.33867e-10
-6.53054e-10
2.47186e-10
-4.61573e-10
2.43702e-10
-2.14488e-10
2.77234e-10
-1.15732e-10
3.10222e-10
-1.24616e-10
3.5339e-10
-1.55567e-10
4.02692e-10
-1.83379e-10
4.58972e-10
-2.19631e-10
5.29574e-10
-2.49246e-10
5.93669e-10
-2.9921e-10
6.99081e-10
-3.09272e-10
7.41735e-10
-3.52075e-10
8.47827e-10
-3.85592e-10
8.48207e-10
-3.57396e-10
9.74259e-10
-3.96702e-10
1.00112e-09
-3.78203e-10
1.09855e-09
-5.92923e-10
1.11171e-09
-9.74587e-11
1.12497e-09
-2.25004e-10
1.13505e-09
-2.9521e-10
1.15136e-09
-3.88351e-10
1.18257e-09
-3.86092e-10
1.24778e-09
-2.91335e-10
1.30944e-09
-2.56359e-10
1.36466e-09
-2.38642e-10
1.40678e-09
-1.87147e-10
1.41494e-09
-2.0145e-10
1.41366e-09
-2.06555e-10
1.41301e-09
-1.74171e-10
1.41189e-09
-1.38669e-10
1.40375e-09
-1.01552e-10
1.39297e-09
-1.05806e-10
1.40444e-09
-1.03836e-10
1.40009e-09
-4.58036e-11
1.35109e-09
1.10647e-11
1.34412e-09
2.39791e-11
1.32519e-09
1.18436e-10
1.27892e-09
1.91484e-10
1.2285e-09
2.53157e-10
1.17703e-09
2.57634e-10
1.15163e-09
3.46657e-10
1.08853e-09
4.27398e-10
9.82496e-10
3.9414e-10
9.40869e-10
5.10675e-10
9.01446e-10
4.56829e-10
8.11679e-10
4.73845e-10
7.53671e-10
5.15849e-10
6.57236e-10
6.86898e-10
5.95384e-10
6.05962e-10
4.58438e-10
8.25361e-10
4.45e-10
7.76397e-10
4.56388e-10
8.90605e-10
4.64596e-10
9.92113e-10
4.05812e-10
1.03103e-09
3.31801e-10
1.09842e-09
2.60614e-10
1.16168e-09
1.40781e-10
1.22098e-09
3.65055e-11
1.20729e-09
-1.85954e-15
1.08018e-09
-1.40832e-18
1.54096e-19
-1.3164e-18
-1.25162e-19
-1.1608e-18
-3.93045e-19
-9.73189e-19
-6.29212e-19
-7.65411e-19
-8.25466e-19
-5.45519e-19
-9.77473e-19
-3.20544e-19
-1.08354e-18
-9.71243e-20
-1.14447e-18
1.18523e-19
-1.1631e-18
3.21093e-19
-1.1439e-18
5.0619e-19
-1.09239e-18
6.70572e-19
-1.01469e-18
8.12327e-19
-9.17139e-19
9.30791e-19
-8.05827e-19
1.02613e-18
-6.86244e-19
1.09902e-18
-5.63029e-19
1.15057e-18
-4.39936e-19
1.18239e-18
-3.1993e-19
1.19653e-18
-2.05303e-19
1.19521e-18
-9.77591e-20
1.18056e-18
1.54361e-21
1.15443e-18
9.19501e-20
1.1184e-18
1.73241e-19
1.07382e-18
2.45537e-19
1.02194e-18
3.09195e-19
9.64021e-19
3.64704e-19
9.01267e-19
4.12624e-19
8.34789e-19
4.53555e-19
7.65495e-19
4.88118e-19
6.94058e-19
5.16961e-19
6.2092e-19
5.40742e-19
5.46349e-19
5.60113e-19
4.70512e-19
5.75696e-19
3.93533e-19
5.88057e-19
3.15542e-19
5.97689e-19
2.36702e-19
6.05003e-19
1.57211e-19
6.1032e-19
7.73154e-20
6.13874e-19
6.15819e-19
8.85732e-11
-1.98818e-10
1.94577e-10
-1.64726e-10
1.74379e-10
8.3334e-11
6.16102e-11
3.75487e-10
-4.26857e-11
6.08619e-10
-7.76575e-11
7.1132e-10
-2.87562e-11
7.74414e-10
-1.18002e-11
8.16718e-10
3.23357e-11
6.18148e-10
7.42053e-11
3.92268e-10
1.8062e-10
2.95699e-11
2.48821e-10
-1.71044e-10
3.09593e-10
-4.57829e-10
3.81495e-10
-7.35473e-10
3.8343e-10
-9.77851e-10
3.98429e-10
-1.28915e-09
4.0628e-10
-1.49896e-09
3.94135e-10
-1.49651e-09
3.30214e-10
-1.36223e-09
1.99108e-10
-1.09023e-09
1.40262e-10
-9.16861e-10
6.85597e-11
-7.84901e-10
-3.65252e-11
-5.47969e-10
-2.97643e-11
-4.68333e-10
3.62465e-11
-2.80499e-10
1.21835e-10
-2.01321e-10
1.77982e-10
-1.80763e-10
2.38708e-10
-2.16293e-10
3.05446e-10
-2.50117e-10
3.72785e-10
-2.86971e-10
4.48593e-10
-3.25054e-10
5.12902e-10
-3.63519e-10
6.01225e-10
-3.97595e-10
6.51347e-10
-4.02198e-10
7.32522e-10
-4.66767e-10
7.93176e-10
-4.18051e-10
8.4582e-10
-4.49347e-10
9.28448e-10
-4.60834e-10
9.4303e-10
-6.07508e-10
1.09037e-09
-2.44799e-10
1.12991e-09
-2.64551e-10
1.12341e-09
-2.88709e-10
1.11825e-09
-3.83194e-10
1.11887e-09
-3.86724e-10
1.15677e-09
-3.29237e-10
1.19472e-09
-2.94312e-10
1.23677e-09
-2.80693e-10
1.30914e-09
-2.59513e-10
1.32996e-09
-2.22277e-10
1.32573e-09
-2.02322e-10
1.32505e-09
-1.73488e-10
1.31433e-09
-1.27953e-10
1.31723e-09
-1.04453e-10
1.29092e-09
-7.9503e-11
1.26924e-09
-8.21571e-11
1.29867e-09
-7.52279e-11
1.26117e-09
4.85629e-11
1.18668e-09
9.84675e-11
1.19195e-09
1.13164e-10
1.15783e-09
2.25602e-10
1.10965e-09
3.01338e-10
1.05427e-09
3.13011e-10
9.86533e-10
4.14393e-10
9.50606e-10
4.63327e-10
8.44507e-10
5.00241e-10
8.02633e-10
5.52551e-10
7.66906e-10
4.92559e-10
6.7962e-10
5.61134e-10
6.4115e-10
5.54321e-10
6.41743e-10
6.86309e-10
5.49213e-10
6.98495e-10
5.26331e-10
8.48245e-10
3.60007e-10
9.42723e-10
2.74169e-10
9.76446e-10
2.15923e-10
1.05036e-09
1.79128e-10
1.06782e-09
1.61064e-10
1.11648e-09
1.03699e-10
1.21905e-09
6.82683e-11
1.25642e-09
3.30183e-11
1.24254e-09
-2.02213e-15
1.11321e-09
-1.68698e-18
2.92476e-19
-1.58373e-18
-2.25883e-19
-1.39673e-18
-5.74154e-19
-1.16944e-18
-8.50162e-19
-9.17419e-19
-1.07104e-18
-6.51589e-19
-1.23737e-18
-3.81469e-19
-1.34847e-18
-1.15759e-19
-1.40569e-18
1.37723e-19
-1.41276e-18
3.72606e-19
-1.37541e-18
5.83887e-19
-1.30071e-18
7.68126e-19
-1.1964e-18
9.23639e-19
-1.0704e-18
1.05037e-18
-9.30209e-19
1.14935e-18
-7.82523e-19
1.22211e-18
-6.32924e-19
1.27057e-18
-4.85804e-19
1.29702e-18
-3.44457e-19
1.30408e-18
-2.11244e-19
1.29452e-18
-8.77622e-20
1.27096e-18
2.50268e-20
1.23572e-18
1.26703e-19
1.1907e-18
2.17291e-19
1.13747e-18
2.97158e-19
1.07745e-18
3.669e-19
1.01194e-18
4.27244e-19
9.42198e-19
4.78974e-19
8.69352e-19
5.22881e-19
7.94338e-19
5.59756e-19
7.17839e-19
5.90375e-19
6.40291e-19
6.15503e-19
5.61932e-19
6.35873e-19
4.82873e-19
6.52176e-19
4.03166e-19
6.65037e-19
3.22856e-19
6.75002e-19
2.42018e-19
6.82523e-19
1.60766e-19
6.87961e-19
7.92595e-20
6.9158e-19
6.93551e-19
1.62311e-11
-2.15049e-10
3.52752e-11
-1.8377e-10