/*--------------------------------*- C++ -*----------------------------------*\
  =========                 |
  \\      /  F ield         | OpenFOAM: The Open Source CFD Toolbox
   \\    /   O peration     | Website:  https://openfoam.org
    \\  /    A nd           | Version:  6
     \\/     M anipulation  |
\*---------------------------------------------------------------------------*/
FoamFile
{
    version     2.0;
    format      ascii;
    class       volScalarField;
    location    "1700";
    object      Su;
}
// * * * * * * * * * * * * * * * * * * * * * * * * * * * * * * * * * * * * * //

dimensions      [0 0 -1 0 0 0 0];

internalField   nonuniform List<scalar> 
4800
(
0.219241
0.216541
0.213842
0.211144
0.208446
0.20575
0.203061
0.200388
0.197741
0.195133
0.192575
0.190079
0.187653
0.185302
0.183029
0.180822
0.178666
0.176553
0.174473
0.172418
0.170373
0.168325
0.166263
0.164178
0.162072
0.159947
0.157799
0.155634
0.153454
0.151256
0.149047
0.146833
0.14462
0.142412
0.140214
0.138028
0.135857
0.133701
0.131558
0.129427
0.127306
0.125196
0.123098
0.121011
0.118933
0.116862
0.114793
0.11272
0.110642
0.108557
0.106463
0.104359
0.10224
0.100104
0.0979466
0.0957622
0.0935432
0.0912823
0.0889724
0.0866061
0.0841761
0.0816753
0.0790969
0.0764346
0.0736835
0.0708379
0.0678928
0.0648443
0.0616875
0.0584184
0.0550321
0.0515287
0.0479069
0.0441743
0.0403377
0.0364114
0.0324106
0.0283592
0.0243012
0.02027
0.0162984
0.0124055
0.00860054
0.00487718
0.00122984
-0.00234773
-0.0058617
-0.00931822
-0.0127231
-0.0160816
-0.0193989
-0.0226795
-0.0259274
-0.0291464
-0.0323398
-0.0355107
-0.0386616
-0.0417949
-0.0449127
-0.0480168
-0.0511089
-0.0541904
-0.0572625
-0.0603264
-0.0633831
-0.0664334
-0.0694782
-0.072518
-0.0755536
-0.0785855
-0.0816142
-0.08464
-0.0876635
-0.0906849
-0.0937047
-0.096723
-0.0997403
-0.102757
-0.105772
-0.108788
0.219243
0.216546
0.213849
0.21115
0.208451
0.205754
0.203063
0.200387
0.197738
0.195128
0.19257
0.190074
0.187648
0.185295
0.183019
0.180808
0.178649
0.176532
0.174446
0.172378
0.170317
0.168253
0.166176
0.164077
0.161956
0.159815
0.157655
0.155476
0.153283
0.151078
0.148864
0.146646
0.144429
0.142217
0.140016
0.137827
0.135651
0.133491
0.131345
0.129211
0.127087
0.124974
0.122875
0.120788
0.118706
0.116629
0.114553
0.112477
0.110397
0.108311
0.106217
0.104112
0.101993
0.0998564
0.0976978
0.0955115
0.0932907
0.0910278
0.0887155
0.0863472
0.0839155
0.0814137
0.0788345
0.0761729
0.0734226
0.0705801
0.0676386
0.0645944
0.061442
0.0581773
0.0547979
0.0513017
0.0476914
0.0439692
0.0401496
0.0362429
0.0322653
0.0282479
0.0242103
0.0201812
0.016205
0.0123109
0.00851022
0.00479294
0.00115222
-0.0024187
-0.00592625
-0.00937669
-0.0127759
-0.0161292
-0.0194417
-0.0227178
-0.0259618
-0.0291772
-0.0323674
-0.0355354
-0.0386837
-0.0418147
-0.0449304
-0.0480327
-0.0511231
-0.054203
-0.0572738
-0.0603365
-0.0633921
-0.0664415
-0.0694853
-0.0725244
-0.0755592
-0.0785904
-0.0816185
-0.0846438
-0.0876667
-0.0906877
-0.0937069
-0.0967248
-0.0997416
-0.102758
-0.105773
-0.108788
0.219246
0.216554
0.21386
0.211162
0.208463
0.205763
0.203069
0.200391
0.19774
0.19513
0.192573
0.19008
0.187658
0.185305
0.183022
0.1808
0.178629
0.176499
0.174395
0.172303
0.17021
0.168112
0.166002
0.163875
0.161724
0.159553
0.157367
0.155164
0.152951
0.150732
0.148507
0.14628
0.144056
0.141838
0.139629
0.137432
0.135249
0.133081
0.130927
0.128787
0.126657
0.124539
0.122434
0.120339
0.118251
0.116166
0.114084
0.112003
0.109922
0.107835
0.10574
0.103633
0.101513
0.0993746
0.0972127
0.0950224
0.0927973
0.0905312
0.0882168
0.0858469
0.0834143
0.0809123
0.0783341
0.0756738
0.0729262
0.0700863
0.0671499
0.0641115
0.060968
0.0577135
0.0543461
0.050865
0.0472727
0.0435715
0.0397743
0.0359
0.0319602
0.0279749
0.0239668
0.0199632
0.0160015
0.0121164
0.00832772
0.00462389
0.000996964
-0.00256042
-0.00605501
-0.00949323
-0.012881
-0.0162239
-0.0195267
-0.0227941
-0.0260302
-0.0292384
-0.0324222
-0.0355845
-0.0387276
-0.041854
-0.0449656
-0.0480641
-0.0511512
-0.0542282
-0.0572963
-0.0603566
-0.0634101
-0.0664574
-0.0694995
-0.072537
-0.0755704
-0.0786003
-0.0816271
-0.0846512
-0.0876731
-0.0906931
-0.0937114
-0.0967284
-0.0997444
-0.10276
-0.105774
-0.108788
0.21925
0.216565
0.213876
0.211181
0.208483
0.205783
0.203087
0.200408
0.197759
0.195152
0.192603
0.190117
0.187699
0.185345
0.183049
0.180807
0.178611
0.17645
0.174307
0.172172
0.170036
0.167892
0.165737
0.16357
0.161379
0.159169
0.156946
0.15471
0.152468
0.150225
0.147982
0.145741
0.143504
0.141274
0.139054
0.136847
0.134654
0.132475
0.130314
0.128167
0.126027
0.123898
0.121782
0.119679
0.117583
0.115492
0.113405
0.111318
0.109231
0.107141
0.105044
0.102935
0.100812
0.0986699
0.0965047
0.0943117
0.0920837
0.089815
0.0874986
0.0851267
0.0826935
0.0801913
0.0776146
0.0749559
0.0722119
0.069375
0.0664441
0.0634114
0.0602775
0.0570369
0.0536878
0.0502277
0.0466577
0.042986
0.0392208
0.0353816
0.0314826
0.0275363
0.023574
0.0196161
0.015685
0.011819
0.00805184
0.00436993
0.000764522
-0.00277213
-0.00624706
-0.00966685
-0.0130375
-0.0163646
-0.0196531
-0.0229075
-0.0261317
-0.0293294
-0.0325037
-0.0356573
-0.0387928
-0.0419123
-0.0450178
-0.0481109
-0.051193
-0.0542656
-0.0573298
-0.0603865
-0.0634367
-0.0664812
-0.0695207
-0.0725557
-0.0755869
-0.0786148
-0.0816398
-0.0846623
-0.0876826
-0.0907011
-0.0937181
-0.0967338
-0.0997485
-0.102762
-0.105776
-0.108789
0.219254
0.216579
0.213897
0.211207
0.208512
0.205815
0.203122
0.200447
0.197805
0.19521
0.192672
0.190194
0.187775
0.185411
0.183095
0.180821
0.178583
0.176368
0.174168
0.171973
0.169779
0.167579
0.16537
0.16315
0.160912
0.158656
0.15639
0.154116
0.151839
0.149564
0.147294
0.145031
0.142777
0.14053
0.138297
0.136077
0.133873
0.131681
0.129508
0.127354
0.125204
0.123063
0.120937
0.118826
0.116722
0.114622
0.112527
0.110433
0.108339
0.106244
0.104143
0.102032
0.0999053
0.0977596
0.0955913
0.0933961
0.0911667
0.0888968
0.0865796
0.0842072
0.0817739
0.0792719
0.0766964
0.0740389
0.0712967
0.0684632
0.0655372
0.0625128
0.0593897
0.0561638
0.0528356
0.0494027
0.04587
0.0422368
0.0385077
0.0347054
0.0308516
0.0269543
0.0230397
0.0191286
0.0152436
0.0114164
0.00768257
0.00403179
0.000456017
-0.00305249
-0.00650092
-0.00989601
-0.0132439
-0.01655
-0.0198195
-0.0230566
-0.0262652
-0.0294489
-0.0326106
-0.035753
-0.0388785
-0.041989
-0.0450864
-0.0481722
-0.051248
-0.0543148
-0.0573737
-0.0604258
-0.0634718
-0.0665124
-0.0695484
-0.0725804
-0.0756087
-0.078634
-0.0816566
-0.0846768
-0.0876951
-0.0907117
-0.0937268
-0.0967408
-0.0997539
-0.102766
-0.105778
-0.10879
0.219261
0.216599
0.213929
0.211251
0.208564
0.205876
0.203193
0.200529
0.197897
0.195312
0.192781
0.190303
0.187876
0.185493
0.183143
0.180821
0.178524
0.176243
0.173972
0.171705
0.169437
0.167167
0.164892
0.16261
0.16032
0.158013
0.155698
0.153382
0.151067
0.148758
0.146457
0.144167
0.141889
0.139623
0.137372
0.135135
0.132917
0.130711
0.128525
0.126361
0.1242
0.122047
0.119909
0.117788
0.115676
0.113569
0.111466
0.109364
0.107262
0.10516
0.103053
0.100938
0.0988066
0.0966568
0.0944857
0.0922887
0.0900588
0.0877894
0.0854733
0.0831022
0.0806707
0.078171
0.0755967
0.0729412
0.0702015
0.0673721
0.0644502
0.0614363
0.0583285
0.0551206
0.0518124
0.0484024
0.0449001
0.0413103
0.037632
0.0338809
0.0300801
0.0262427
0.022386
0.018531
0.0146983
0.0109147
0.00722255
0.00361145
7.33914e-05
-0.00339944
-0.00681445
-0.0101785
-0.0134978
-0.0167779
-0.0200237
-0.0232395
-0.0264289
-0.0295954
-0.0327417
-0.0358703
-0.0389834
-0.0420829
-0.0451704
-0.0482475
-0.0513153
-0.054375
-0.0574276
-0.0604739
-0.0635148
-0.0665508
-0.0695826
-0.0726106
-0.0756355
-0.0786576
-0.0816772
-0.0846947
-0.0877105
-0.0907247
-0.0937376
-0.0967495
-0.0997605
-0.102771
-0.105781
-0.108791
0.219271
0.216626
0.213972
0.211306
0.208628
0.205947
0.203277
0.200632
0.19802
0.195448
0.192921
0.190436
0.18799
0.185575
0.18318
0.1808
0.178432
0.176071
0.173713
0.171358
0.169005
0.166655
0.164307
0.161955
0.159603
0.157243
0.154878
0.152517
0.150162
0.147816
0.145482
0.143162
0.140857
0.138566
0.136294
0.134036
0.1318
0.129579
0.127378
0.125202
0.123027
0.120858
0.118704
0.116572
0.114453
0.112339
0.110228
0.108119
0.106009
0.103898
0.101785
0.099663
0.097527
0.0953721
0.0931976
0.0909983
0.088768
0.0865003
0.0841866
0.0818187
0.0793902
0.0768947
0.0743256
0.0716734
0.0689376
0.0661165
0.0632022
0.0601988
0.0571072
0.0539238
0.0506484
0.0472765
0.0438096
0.040259
0.0366286
0.0329308
0.0291842
0.0254034
0.0216068
0.0178159
0.0140463
0.0103163
0.0066745
0.00311149
-0.000380718
-0.00381022
-0.00718477
-0.0105115
-0.0137966
-0.0170456
-0.0202633
-0.0234538
-0.0266207
-0.0297669
-0.0328951
-0.0360076
-0.0391063
-0.0421929
-0.0452689
-0.0483356
-0.0513942
-0.0544457
-0.0574908
-0.0605304
-0.0635652
-0.0665958
-0.0696226
-0.0726462
-0.0756669
-0.0786852
-0.0817014
-0.0847157
-0.0877285
-0.0907399
-0.0937503
-0.0967597
-0.0997684
-0.102776
-0.105784
-0.108792
0.21928
0.216657
0.214025
0.211381
0.208725
0.206066
0.203413
0.20078
0.198179
0.195614
0.193083
0.190582
0.188105
0.185643
0.183188
0.180739
0.17829
0.175841
0.17339
0.170938
0.168488
0.166044
0.163613
0.16119
0.158775
0.156362
0.153948
0.15154
0.149143
0.146757
0.144385
0.14203
0.139693
0.137372
0.135073
0.132792
0.130534
0.128293
0.126075
0.123887
0.121697
0.119513
0.117341
0.115192
0.113061
0.110938
0.10882
0.106704
0.104585
0.102466
0.100344
0.0982145
0.0960726
0.093913
0.0917349
0.0895336
0.0873022
0.0850358
0.0827256
0.0803622
0.0779383
0.0754474
0.0728867
0.070244
0.067517
0.0647087
0.0618076
0.05882
0.0557476
0.0525853
0.0493366
0.0460054
0.0425851
0.0390853
0.035509
0.0318673
0.0281796
0.0244608
0.0207272
0.0169993
0.0132946
0.00962521
0.00604147
0.00253494
-0.000903042
-0.00428133
-0.00760825
-0.0108912
-0.0141366
-0.0173497
-0.0205352
-0.0236969
-0.0268379
-0.0299611
-0.0330688
-0.036163
-0.0392454
-0.0423175
-0.0453805
-0.0484356
-0.0514837
-0.0545258
-0.0575625
-0.0605946
-0.0636225
-0.0666469
-0.0696681
-0.0726866
-0.0757027
-0.0787167
-0.0817289
-0.0847396
-0.087749
-0.0907573
-0.0937647
-0.0967712
-0.0997772
-0.102783
-0.105788
-0.108793
0.219294
0.216696
0.214088
0.211464
0.208828
0.206188
0.203558
0.200944
0.198355
0.195792
0.193253
0.19073
0.188212
0.185694
0.183173
0.180645
0.178108
0.175562
0.173009
0.170455
0.167904
0.165363
0.162845
0.160346
0.157865
0.155394
0.152929
0.150473
0.148029
0.145597
0.143182
0.140785
0.138409
0.136053
0.13372
0.131411
0.129127
0.126865
0.124626
0.122424
0.120218
0.118017
0.115827
0.113659
0.111512
0.109376
0.107246
0.105121
0.102994
0.100866
0.0987359
0.0965991
0.0944507
0.0922862
0.0901046
0.0879024
0.0856714
0.0834055
0.0810992
0.0787421
0.0763255
0.0738426
0.0712922
0.0686631
0.0659486
0.0631556
0.0602741
0.0573085
0.0542613
0.0511325
0.0479161
0.0446219
0.0412454
0.0377989
0.0342845
0.0307078
0.0270847
0.0234312
0.019762
0.0160958
0.0124521
0.00884456
0.00532612
0.00188503
-0.00148967
-0.00480838
-0.00808032
-0.0113132
-0.0145135
-0.0176862
-0.0208356
-0.0239652
-0.0270777
-0.0301755
-0.0332605
-0.0363346
-0.039399
-0.042455
-0.0455037
-0.048546
-0.0515827
-0.0546144
-0.0576419
-0.0606656
-0.063686
-0.0667035
-0.0697185
-0.0727314
-0.0757423
-0.0787516
-0.0817595
-0.0847662
-0.0877718
-0.0907766
-0.0937806
-0.0967841
-0.0997871
-0.10279
-0.105792
-0.108794
0.219306
0.216733
0.214148
0.211546
0.208933
0.206319
0.203713
0.201119
0.19854
0.195976
0.193421
0.190867
0.188305
0.185729
0.183135
0.180521
0.177888
0.175241
0.172585
0.169928
0.167279
0.164645
0.162036
0.159454
0.156901
0.154368
0.151847
0.149336
0.146838
0.144354
0.141887
0.13944
0.137017
0.134618
0.132247
0.129905
0.127589
0.125301
0.123038
0.120817
0.118598
0.116382
0.114173
0.111983
0.109815
0.107659
0.105514
0.103376
0.101241
0.0991054
0.0969674
0.0948236
0.0926693
0.0905007
0.0883154
0.0861122
0.0838846
0.0816207
0.0793178
0.0769694
0.0745629
0.0720909
0.069553
0.0669396
0.0642443
0.0614702
0.0586117
0.0556734
0.0526561
0.0495647
0.0463896
0.04314
0.039809
0.0364058
0.0329409
0.0294216
0.0258615
0.0222743
0.0186748
0.0150805
0.0115082
0.0079721
0.00452962
0.00116513
-0.00213584
-0.00538588
-0.00859527
-0.011772
-0.0149221
-0.0180504
-0.0211603
-0.024255
-0.0273365
-0.0304068
-0.0334675
-0.0365199
-0.039565
-0.0426038
-0.0456371
-0.0486656
-0.0516899
-0.0547105
-0.057728
-0.0607426
-0.0637549
-0.066765
-0.0697733
-0.07278
-0.0757854
-0.0787896
-0.0817927
-0.084795
-0.0877966
-0.0907976
-0.093798
-0.0967981
-0.0997978
-0.102797
-0.105797
-0.108796
0.219316
0.216762
0.214201
0.211629
0.209048
0.206463
0.203879
0.201299
0.198724
0.196151
0.193575
0.190983
0.188369
0.185729
0.183061
0.180363
0.177637
0.174889
0.172132
0.169377
0.166633
0.163906
0.161208
0.158543
0.155912
0.153307
0.15072
0.148147
0.145587
0.143041
0.140514
0.138008
0.135529
0.133081
0.130665
0.128284
0.125934
0.123615
0.121326
0.119077
0.116842
0.11461
0.112384
0.110174
0.107982
0.105805
0.103639
0.101484
0.0993379
0.0971945
0.095049
0.0928988
0.0907385
0.088567
0.08638
0.084176
0.0819514
0.0796927
0.0773948
0.0750559
0.0726609
0.0702022
0.0676815
0.0650868
0.0624148
0.0596651
0.0568341
0.053926
0.0509406
0.0478838
0.0447516
0.0415478
0.0382702
0.0349201
0.031508
0.0280442
0.0245396
0.0210117
0.0174769
0.0139525
0.0104572
0.00700483
0.003653
0.000379567
-0.00283521
-0.00600669
-0.00914594
-0.0122607
-0.0153563
-0.0184366
-0.0215045
-0.0245619
-0.0276107
-0.030652
-0.033687
-0.0367164
-0.0397412
-0.0427618
-0.0457788
-0.0487927
-0.051804
-0.0548128
-0.0578197
-0.0608248
-0.0638284
-0.0668307
-0.0698318
-0.072832
-0.0758314
-0.0788301
-0.0818283
-0.0848259
-0.0878231
-0.09082
-0.0938167
-0.0968131
-0.0998093
-0.102805
-0.105802
-0.108797
0.219328
0.216798
0.214262
0.211718
0.209167
0.20661
0.204046
0.201478
0.198902
0.196315
0.193711
0.191078
0.188413
0.18571
0.182967
0.180183
0.177364
0.174521
0.171666
0.168814
0.165975
0.16316
0.160375
0.157624
0.154908
0.152223
0.149561
0.146916
0.144286
0.141671
0.139075
0.136503
0.133961
0.131454
0.128987
0.126562
0.124172
0.121818
0.119497
0.117215
0.114956
0.112707
0.110464
0.108234
0.106021
0.103823
0.101636
0.0994617
0.0972997
0.0951476
0.0929953
0.0908391
0.0886724
0.0864964
0.0843088
0.0821065
0.0798852
0.0776334
0.0753436
0.0730158
0.0706364
0.0681945
0.0656921
0.0631176
0.0604676
0.0577412
0.0549397
0.0520714
0.0491334
0.0461224
0.0430355
0.0398757
0.0366477
0.0333505
0.0299909
0.0265832
0.0231358
0.0196603
0.0161774
0.0127122
0.00929236
0.00593793
0.00269794
-0.000465028
-0.00357878
-0.00666126
-0.00972325
-0.0127712
-0.0158089
-0.0188388
-0.0218627
-0.0248815
-0.0278963
-0.0309076
-0.0339159
-0.0369217
-0.0399253
-0.042927
-0.0459272
-0.048926
-0.0519236
-0.0549202
-0.057916
-0.0609111
-0.0639057
-0.0668997
-0.0698934
-0.0728868
-0.0758799
-0.0788729
-0.0818657
-0.0848584
-0.0878511
-0.0908437
-0.0938363
-0.0968289
-0.0998215
-0.102814
-0.105807
-0.108799
0.21934
0.216836
0.214326
0.211811
0.209288
0.206752
0.204205
0.201645
0.199066
0.196462
0.193827
0.191152
0.188432
0.185663
0.182845
0.179979
0.177074
0.17414
0.171194
0.168249
0.165321
0.162418
0.159547
0.15671
0.153905
0.151131
0.148382
0.145654
0.142946
0.140257
0.137588
0.134943
0.13233
0.129755
0.127225
0.124747
0.122312
0.11992
0.117566
0.115248
0.112958
0.110684
0.108423
0.106175
0.103941
0.101723
0.0995169
0.0973249
0.0951467
0.092983
0.0908242
0.0886618
0.0864901
0.0843088
0.0821206
0.0799209
0.0777043
0.0754607
0.0731828
0.0708681
0.0685057
0.0660846
0.0636053
0.0610587
0.0584409
0.0557513
0.0529851
0.050149
0.0472475
0.0442816
0.0412468
0.038138
0.0349583
0.0317094
0.0284005
0.025045
0.0216504
0.0182224
0.014774
0.0113414
0.00798565
0.0047603
0.00166829
-0.00135719
-0.00435302
-0.00733672
-0.010316
-0.0132939
-0.0162718
-0.0192503
-0.0222293
-0.0252089
-0.0281891
-0.0311699
-0.0341511
-0.0371328
-0.0401149
-0.0430975
-0.0460804
-0.0490637
-0.0520474
-0.0550314
-0.0580158
-0.0610007
-0.0639859
-0.0669714
-0.0699574
-0.0729437
-0.0759303
-0.0789174
-0.0819047
-0.0848923
-0.0878802
-0.0908684
-0.0938568
-0.0968453
-0.0998341
-0.102823
-0.105812
-0.108801
0.219353
0.216875
0.21439
0.211898
0.209397
0.206884
0.204351
0.201794
0.199208
0.196584
0.193914
0.191193
0.188417
0.185584
0.182696
0.179755
0.176769
0.173751
0.170719
0.167688
0.164675
0.161688
0.158732
0.155807
0.152913
0.150047
0.147207
0.14439
0.141593
0.138817
0.136065
0.13334
0.130649
0.127999
0.125398
0.122855
0.120368
0.117929
0.115538
0.113187
0.110866
0.108563
0.106277
0.10401
0.101758
0.0995211
0.0972971
0.0950881
0.0928949
0.090718
0.0885534
0.0863858
0.0842112
0.0820258
0.0798378
0.0776412
0.0754298
0.0731958
0.0709295
0.068628
0.0662819
0.0638833
0.0614287
0.0589084
0.0563194
0.0536647
0.0509411
0.0481518
0.0452996
0.042385
0.0394046
0.0363537
0.0332324
0.0300372
0.0267766
0.0234652
0.0201105
0.016713
0.0132746
0.00982468
0.00647847
0.00345666
0.0005775
-0.00227521
-0.00513729
-0.00801602
-0.0109105
-0.0138182
-0.0167366
-0.0196639
-0.0225984
-0.0255391
-0.028485
-0.0314354
-0.0343896
-0.0373472
-0.0403078
-0.043271
-0.0462366
-0.0492042
-0.0521738
-0.0551451
-0.058118
-0.0610924
-0.0640681
-0.067045
-0.070023
-0.0730021
-0.0759821
-0.078963
-0.0819447
-0.0849271
-0.0879101
-0.0908937
-0.0938778
-0.0968623
-0.0998471
-0.102832
-0.105817
-0.108803
0.219367
0.216915
0.214455
0.211984
0.209498
0.206995
0.204467
0.201908
0.199311
0.196665
0.193961
0.191195
0.188368
0.185475
0.182519
0.179505
0.176444
0.173351
0.170242
0.167134
0.164041
0.160972
0.157933
0.154924
0.151945
0.148993
0.146066
0.143161
0.140275
0.137408
0.134565
0.131748
0.128967
0.12623
0.123545
0.12092
0.118366
0.115877
0.113443
0.111054
0.1087
0.106367
0.104054
0.101763
0.0994922
0.0972373
0.0949966
0.0927716
0.0905646
0.0883754
0.0862035
0.0840316
0.0818557
0.0796685
0.0774794
0.0752851
0.0730789
0.0708554
0.0686028
0.0663156
0.0639841
0.0616054
0.0591762
0.0566885
0.0541369
0.0515221
0.0488413
0.0460965
0.0432931
0.0404332
0.0375131
0.0345276
0.031475
0.0283459
0.0251424
0.0218816
0.0185692
0.0151935
0.0117303
0.00815801
0.00459419
0.00202238
-0.000531008
-0.00317798
-0.00590149
-0.00867812
-0.0114919
-0.0143329
-0.0171946
-0.0200728
-0.0229645
-0.0258675
-0.02878
-0.0317006
-0.0346284
-0.0375623
-0.0405016
-0.0434456
-0.0463939
-0.049346
-0.0523015
-0.0552601
-0.0582214
-0.0611853
-0.0641514
-0.0671196
-0.0700897
-0.0730614
-0.0760348
-0.0790095
-0.0819854
-0.0849625
-0.0879406
-0.0909195
-0.0938992
-0.0968795
-0.0998603
-0.102841
-0.105823
-0.108805
0.219376
0.216943
0.214501
0.212042
0.209562
0.207061
0.204532
0.201966
0.199356
0.196687
0.19395
0.191144
0.188266
0.185317
0.1823
0.179224
0.176101
0.172944
0.169768
0.16659
0.163424
0.16028
0.157166
0.154079
0.151021
0.147988
0.144977
0.141986
0.139012
0.136054
0.133115
0.130199
0.127315
0.124479
0.121702
0.118993
0.116357
0.113797
0.111308
0.108874
0.106487
0.104123
0.101782
0.0994659
0.0971722
0.094898
0.0926396
0.0903979
0.0881764
0.0859763
0.0837962
0.0816205
0.0794437
0.0772579
0.0750687
0.0728737
0.0706686
0.068451
0.0662129
0.0639473
0.0616416
0.059291
0.0568893
0.0544318
0.0519167
0.0493431
0.0467076
0.0440098
0.041255
0.0384457
0.03558
0.0326552
0.0296739
0.0266327
0.0235195
0.0203342
0.0170848
0.0137591
0.0102913
0.00648625
0.00163743
0.000587757
-0.00153391
-0.00399666
-0.00660838
-0.00930124
-0.0120461
-0.014828
-0.0176382
-0.020471
-0.0233225
-0.0261897
-0.0290703
-0.0319624
-0.0348646
-0.0377754
-0.040694
-0.0436194
-0.0465508
-0.0494876
-0.0524292
-0.0553751
-0.058325
-0.0612784
-0.064235
-0.0671945
-0.0701566
-0.0731211
-0.0760877
-0.0790562
-0.0820264
-0.0849981
-0.0879712
-0.0909455
-0.0939207
-0.0968968
-0.0998736
-0.102851
-0.105829
-0.108806
0.219378
0.216948
0.214509
0.212052
0.209569
0.20706
0.204526
0.201953
0.199327
0.196637
0.193872
0.19103
0.188112
0.185121
0.182058
0.178931
0.175751
0.172536
0.169302
0.166065
0.162836
0.159627
0.156444
0.153287
0.150155
0.147046
0.143957
0.140883
0.137823
0.134773
0.131734
0.128715
0.125726
0.122789
0.119915
0.117115
0.114393
0.111753
0.109192
0.106696
0.104258
0.101854
0.099482
0.0971384
0.0948218
0.0925284
0.0902525
0.087994
0.0857569
0.0835441
0.081353
0.079173
0.0769954
0.0748119
0.0726262
0.070436
0.0682384
0.0660289
0.0638023
0.0615532
0.0592719
0.0569515
0.0545813
0.0521554
0.0496758
0.0471438
0.0445558
0.0419066
0.0392022
0.036449
0.0336438
0.0307829
0.027867
0.0248988
0.0218794
0.0188048
0.0156762
0.0124921
0.00923229
0.00587881
0.00253231
0.000179409
-0.00218182
-0.00465831
-0.00722988
-0.00987084
-0.0125635
-0.0152963
-0.0180615
-0.0208535
-0.0236681
-0.0265021
-0.0293527
-0.0322179
-0.0350956
-0.0379845
-0.0408831
-0.0437904
-0.0467054
-0.0496273
-0.0525554
-0.055489
-0.0584277
-0.0613708
-0.064318
-0.0672689
-0.0702231
-0.0731804
-0.0761403
-0.0791026
-0.0820672
-0.0850336
-0.0880017
-0.0909713
-0.0939422
-0.0969141
-0.0998869
-0.10286
-0.105834
-0.108808
0.219365
0.216913
0.214458
0.21199
0.209497
0.206977
0.204433
0.20185
0.199208
0.196497
0.193709
0.19084
0.187889
0.184859
0.181755
0.178587
0.175366
0.172109
0.168833
0.16555
0.162273
0.159012
0.155772
0.152554
0.149357
0.14618
0.143018
0.139867
0.136725
0.133586
0.130452
0.127331
0.12424
0.1212
0.118225
0.115329
0.112518
0.109796
0.107158
0.104589
0.10208
0.0996169
0.0971943
0.0948101
0.0924631
0.0901486
0.0878568
0.0855834
0.0833311
0.0811045
0.0788996
0.0767122
0.0745334
0.0723548
0.0701759
0.0679918
0.0658025
0.063602
0.0613856
0.0591501
0.0568888
0.0545966
0.0522629
0.0498751
0.0474333
0.044941
0.0423994
0.0398019
0.0371501
0.0344525
0.0317103
0.0289206
0.0260851
0.0232053
0.0202882
0.0173353
0.0143504
0.0113434
0.00832374
0.00530928
0.00238966
-0.000202518
-0.00270266
-0.00521804
-0.00777879
-0.0103881
-0.0130419
-0.0157345
-0.018461
-0.0212168
-0.0239981
-0.0268016
-0.0296245
-0.0324644
-0.0353193
-0.0381873
-0.041067
-0.0439571
-0.0468564
-0.049764
-0.052679
-0.0556007
-0.0585284
-0.0614615
-0.0643996
-0.0673421
-0.0702886
-0.0732387
-0.0761921
-0.0791484
-0.0821073
-0.0850685
-0.0880318
-0.0909968
-0.0939633
-0.0969311
-0.0998999
-0.10287
-0.10584
-0.10881
0.219339
0.216837
0.214338
0.21184
0.20933
0.206794
0.204231
0.201633
0.198973
0.196245
0.193442
0.190556
0.187587
0.184536
0.181408
0.178213
0.174965
0.171679
0.16837
0.165053
0.161742
0.158442
0.155157
0.151889
0.148637
0.1454
0.142171
0.13895
0.135732
0.132511
0.129288
0.126073
0.122884
0.119745
0.116671
0.113678
0.110771
0.107954
0.105226
0.102575
0.0999898
0.0974609
0.0949825
0.0925483
0.0901548
0.0878004
0.0854791
0.0831848
0.0809175
0.0786803
0.076465
0.0742707
0.0720884
0.0699114
0.0677372
0.0655582
0.0633778
0.0611877
0.058982
0.0567607
0.0545161
0.052245
0.0499418
0.0475939
0.0451963
0.0427486
0.0402536
0.0377077
0.0351097
0.0324684
0.0297905
0.027076
0.0243281
0.0215474
0.0187404
0.0159157
0.0130832
0.0102525
0.00743942
0.00465789
0.0019345
-0.000664224
-0.00319981
-0.00572772
-0.00827763
-0.0108619
-0.0134837
-0.0161424
-0.0188351
-0.0215588
-0.0243101
-0.0270859
-0.0298834
-0.0327
-0.0355336
-0.0383821
-0.0412441
-0.0441178
-0.0470023
-0.0498962
-0.0527987
-0.055709
-0.0586262
-0.0615497
-0.0644789
-0.0674133
-0.0703524
-0.0732956
-0.0762426
-0.079193
-0.0821465
-0.0851026
-0.0880611
-0.0910216
-0.0939839
-0.0969477
-0.0999126
-0.102879
-0.105845
-0.108812
0.219301
0.216725
0.214159
0.211608
0.209064
0.206501
0.203911
0.20129
0.198613
0.195872
0.193059
0.190167
0.187192
0.184133
0.180992
0.177782
0.17452
0.171224
0.167905
0.164576
0.161247
0.157923
0.154609
0.151302
0.148005
0.144714
0.141427
0.138143
0.134856
0.131562
0.128261
0.12496
0.12168
0.118448
0.115278
0.112186
0.109178
0.106259
0.103432
0.100691
0.0980229
0.0954178
0.092869
0.0903755
0.087933
0.0855381
0.0831833
0.0808631
0.0785752
0.0763195
0.0740875
0.0718799
0.0696884
0.0675078
0.0653354
0.0631596
0.0609834
0.0588036
0.0566083
0.0544014
0.0521735
0.049923
0.0476463
0.0453336
0.0429801
0.0405794
0.0381319
0.035641
0.0331038
0.030523
0.0279064
0.0252617
0.0225956
0.0199154
0.0172271
0.0145378
0.011857
0.00919252
0.00655212
0.00394578
0.00136293
-0.00118212
-0.0036998
-0.00621334
-0.0087428
-0.0113007
-0.0138929
-0.0165208
-0.0191835
-0.0218783
-0.0246026
-0.0273533
-0.0301276
-0.0329229
-0.0357368
-0.0385674
-0.0414127
-0.0442713
-0.0471418
-0.0500229
-0.0529136
-0.055813
-0.0587202
-0.0616346
-0.0645553
-0.0674819
-0.0704138
-0.0733504
-0.0762913
-0.0792361
-0.0821842
-0.0851355
-0.0880893
-0.0910456
-0.0940038
-0.0969636
-0.0999249
-0.102887
-0.10585
-0.108814
0.219253
0.216582
0.213928
0.2113
0.208697
0.206093
0.203464
0.200812
0.198119
0.19537
0.192554
0.189664
0.186693
0.183641
0.180511
0.17731
0.174052
0.170758
0.167445
0.16412
0.160788
0.157456
0.154127
0.150797
0.147465
0.144132
0.140795
0.137453
0.134105
0.130749
0.127383
0.124011
0.120652
0.117335
0.114075
0.110885
0.107775
0.104751
0.101818
0.0989705
0.0962026
0.0935089
0.0908831
0.0883233
0.0858228
0.0833794
0.0809845
0.0786317
0.0763194
0.0740431
0.0717925
0.0695687
0.0673649
0.0651751
0.0629966
0.0608222
0.0586455
0.0564713
0.0542848
0.0520909
0.0498785
0.047647
0.045395
0.0431144
0.0408023
0.038448
0.0360468
0.0336046
0.0311211
0.0286018
0.0260518
0.0234816
0.0209007
0.0183199
0.0157471
0.01319
0.010653
0.0081397
0.00565191
0.00319918
0.000754001
-0.00172688
-0.00420339
-0.00668396
-0.00918258
-0.01171
-0.0142723
-0.0168711
-0.019506
-0.0221747
-0.0248746
-0.0276026
-0.0303558
-0.0331317
-0.0359277
-0.0387417
-0.0415718
-0.0444164
-0.0472738
-0.0501429
-0.0530226
-0.0559118
-0.0588096
-0.0617153
-0.0646281
-0.0675473
-0.0704723
-0.0734027
-0.0763377
-0.0792771
-0.0822202
-0.0851667
-0.0881162
-0.0910683
-0.0940227
-0.0969788
-0.0999365
-0.102895
-0.105855
-0.108815
0.219194
0.21641
0.21365
0.210926
0.208241
0.205575
0.202898
0.200207
0.197491
0.194733
0.191918
0.189034
0.186075
0.18304
0.179932
0.176759
0.173533
0.170269
0.166982
0.163678
0.16036
0.157033
0.1537
0.15036
0.147008
0.143644
0.140267
0.136878
0.13348
0.130075
0.126662
0.123243
0.119826
0.116436
0.113092
0.109806
0.106592
0.103457
0.10041
0.0974509
0.0945797
0.0917914
0.0890799
0.086444
0.083878
0.0813755
0.0789308
0.0765374
0.074192
0.0718859
0.06961
0.0673638
0.0651412
0.062937
0.0607456
0.0585657
0.0563865
0.0542122
0.0520321
0.0498482
0.0476507
0.0454372
0.0432089
0.0409598
0.0386871
0.0363771
0.0340211
0.0316262
0.0291935
0.02673
0.0242432
0.0217458
0.0192495
0.016765
0.0143005
0.0118651
0.00945919
0.00708386
0.00473986
0.00243366
0.000165131
-0.00228482
-0.00470798
-0.00714091
-0.00959926
-0.0120918
-0.014623
-0.0171936
-0.0198026
-0.0224474
-0.0251251
-0.0278327
-0.030567
-0.0333253
-0.0361051
-0.0389041
-0.0417203
-0.0445519
-0.0473974
-0.0502555
-0.0531249
-0.0560046
-0.0588937
-0.0617912
-0.0646965
-0.0676088
-0.0705275
-0.0734519
-0.0763814
-0.0793157
-0.0822541
-0.0851962
-0.0881415
-0.0910897
-0.0940404
-0.0969931
-0.0999474
-0.102903
-0.10586
-0.108817
0.219126
0.216209
0.213326
0.210489
0.207702
0.204954
0.202218
0.199482
0.196736
0.193963
0.19115
0.188282
0.18535
0.182349
0.179281
0.176152
0.172974
0.169757
0.16651
0.16324
0.159949
0.156641
0.153317
0.149976
0.146616
0.143236
0.139836
0.136418
0.132989
0.129557
0.126122
0.122678
0.119225
0.115776
0.112355
0.108978
0.10566
0.102412
0.0992448
0.096162
0.0931704
0.0902703
0.0874603
0.0847387
0.082101
0.0795364
0.0770384
0.0745994
0.0722143
0.069871
0.0675627
0.0652866
0.0630372
0.0608112
0.0586036
0.0564111
0.0542266
0.0520494
0.0498738
0.0476985
0.0455157
0.0433205
0.0411152
0.0388961
0.0366598
0.034393
0.0320876
0.0297425
0.0273599
0.0249463
0.0225123
0.0200765
0.017656
0.0152614
0.0128958
0.0105637
0.00827199
0.00601987
0.00380329
0.00160239
-0.000625505
-0.0028945
-0.00521443
-0.00758055
-0.00999021
-0.0124447
-0.0149443
-0.0174879
-0.0200728
-0.0226959
-0.0253537
-0.0280429
-0.0307603
-0.0335029
-0.0362681
-0.0390536
-0.0418572
-0.0446771
-0.0475117
-0.0503597
-0.0532197
-0.0560907
-0.0589717
-0.0618618
-0.0647601
-0.067666
-0.0705787
-0.0734975
-0.076422
-0.0793515
-0.0822855
-0.0852234
-0.0881649
-0.0911095
-0.0940568
-0.0970062
-0.0999575
-0.10291
-0.105864
-0.108818
0.219047
0.215976
0.212946
0.209978
0.207077
0.204236
0.201433
0.19865
0.19587
0.193081
0.190269
0.187422
0.184525
0.181572
0.178559
0.175492
0.172376
0.169217
0.166022
0.162796
0.159545
0.156269
0.152968
0.149641
0.146289
0.142911
0.13951
0.136091
0.132661
0.129225
0.125782
0.122324
0.118844
0.11535
0.111862
0.108403
0.104991
0.101638
0.0983547
0.0951492
0.0920351
0.0890177
0.0860959
0.0832707
0.0805411
0.077897
0.0753324
0.0728372
0.0704025
0.068013
0.0656629
0.0633486
0.0610656
0.0588116
0.0565854
0.0543796
0.0521896
0.0500125
0.0478434
0.0456796
0.0435149
0.0413425
0.0391636
0.0369757
0.0347732
0.0325413
0.0302817
0.0279817
0.025644
0.0232753
0.0208861
0.0184974
0.0161343
0.013812
0.0115343
0.00929481
0.00710268
0.00495935
0.00286265
0.000774421
-0.0013561
-0.00347731
-0.00569263
-0.00798813
-0.0103476
-0.0127643
-0.015234
-0.0177526
-0.0203158
-0.0229194
-0.0255596
-0.0282326
-0.030935
-0.0336638
-0.036416
-0.0391894
-0.0419817
-0.0447911
-0.047616
-0.0504548
-0.0533063
-0.0561694
-0.0590431
-0.0619263
-0.0648183
-0.0677183
-0.0706255
-0.0735393
-0.0764591
-0.0793842
-0.0823141
-0.0852483
-0.0881862
-0.0911275
-0.0940716
-0.0970181
-0.0999666
-0.102917
-0.105868
-0.108819
0.218959
0.215711
0.212516
0.209401
0.206379
0.203437
0.200557
0.197717
0.194898
0.192088
0.189275
0.186449
0.183597
0.180705
0.177764
0.174774
0.171733
0.168644
0.165514
0.162348
0.15915
0.15592
0.15266
0.149368
0.146045
0.142696
0.139323
0.135933
0.132529
0.12911
0.125674
0.122212
0.118719
0.115195
0.111655
0.108121
0.104616
0.101156
0.0977537
0.0944206
0.0911742
0.0880267
0.0849809
0.0820401
0.0792047
0.0764659
0.0738191
0.0712539
0.0687574
0.0663126
0.063912
0.0615515
0.0592304
0.0569482
0.0547059
0.0524933
0.0503059
0.0481399
0.0459893
0.0438511
0.0417185
0.03958
0.037433
0.0352763
0.0331064
0.0309054
0.028679
0.0264161
0.0241148
0.021778
0.0194179
0.0170564
0.0147279
0.0124532
0.0102423
0.00807691
0.00597265
0.0039363
0.0019606
-5.92424e-06
-0.00201611
-0.00399683
-0.00611492
-0.0083463
-0.0106612
-0.0130451
-0.015489
-0.0179861
-0.0205306
-0.0231175
-0.0257424
-0.0284013
-0.0310907
-0.0338073
-0.0365482
-0.0393109