/*--------------------------------*- C++ -*----------------------------------*\
  =========                 |
  \\      /  F ield         | OpenFOAM: The Open Source CFD Toolbox
   \\    /   O peration     | Website:  https://openfoam.org
    \\  /    A nd           | Version:  6
     \\/     M anipulation  |
\*---------------------------------------------------------------------------*/
FoamFile
{
    version     2.0;
    format      ascii;
    class       volScalarField;
    location    "1700";
    object      T;
}
// * * * * * * * * * * * * * * * * * * * * * * * * * * * * * * * * * * * * * //

dimensions      [0 0 0 1 0 0 0];

internalField   nonuniform List<scalar> 
4800
(
552.501
552.403
552.305
552.207
552.11
552.012
551.914
551.817
551.721
551.627
551.534
551.443
551.355
551.27
551.188
551.108
551.03
550.953
550.877
550.803
550.729
550.655
550.58
550.504
550.428
550.351
550.273
550.194
550.115
550.035
549.955
549.875
549.795
549.715
549.635
549.556
549.477
549.399
549.321
549.244
549.167
549.09
549.014
548.939
548.863
548.788
548.713
548.638
548.563
548.487
548.411
548.335
548.258
548.18
548.102
548.023
547.942
547.86
547.777
547.691
547.603
547.512
547.419
547.322
547.222
547.119
547.012
546.902
546.787
546.669
546.546
546.419
546.287
546.152
546.013
545.87
545.725
545.578
545.431
545.285
545.141
545
544.862
544.727
544.595
544.465
544.337
544.212
544.089
543.967
543.846
543.727
543.61
543.493
543.377
543.262
543.148
543.034
542.921
542.809
542.696
542.585
542.473
542.362
542.251
542.141
542.03
541.92
541.81
541.7
541.59
541.48
541.371
541.261
541.152
541.042
540.933
540.823
540.714
540.605
552.501
552.403
552.305
552.208
552.11
552.012
551.914
551.817
551.721
551.627
551.534
551.443
551.355
551.27
551.187
551.107
551.029
550.952
550.876
550.801
550.727
550.652
550.577
550.5
550.424
550.346
550.268
550.189
550.109
550.029
549.949
549.868
549.788
549.708
549.628
549.548
549.47
549.391
549.313
549.236
549.159
549.082
549.006
548.93
548.855
548.78
548.704
548.629
548.554
548.478
548.402
548.326
548.249
548.171
548.093
548.014
547.933
547.851
547.767
547.681
547.593
547.503
547.409
547.312
547.213
547.11
547.003
546.893
546.778
546.66
546.537
546.41
546.28
546.145
546.006
545.864
545.72
545.574
545.428
545.282
545.138
544.997
544.859
544.724
544.592
544.462
544.335
544.21
544.087
543.965
543.845
543.726
543.608
543.492
543.376
543.261
543.147
543.034
542.921
542.808
542.696
542.584
542.473
542.362
542.251
542.14
542.03
541.92
541.81
541.7
541.59
541.48
541.371
541.261
541.152
541.042
540.933
540.823
540.714
540.605
552.501
552.404
552.306
552.208
552.11
552.012
551.915
551.817
551.721
551.627
551.534
551.443
551.356
551.27
551.187
551.107
551.028
550.951
550.875
550.799
550.723
550.647
550.57
550.493
550.415
550.336
550.257
550.177
550.097
550.016
549.936
549.855
549.774
549.694
549.614
549.534
549.455
549.376
549.298
549.221
549.143
549.067
548.99
548.914
548.838
548.763
548.687
548.612
548.536
548.461
548.385
548.308
548.231
548.154
548.076
547.996
547.915
547.833
547.749
547.663
547.575
547.484
547.391
547.294
547.195
547.092
546.985
546.875
546.761
546.643
546.521
546.395
546.264
546.13
545.992
545.852
545.709
545.565
545.419
545.274
545.13
544.989
544.852
544.718
544.586
544.457
544.33
544.206
544.083
543.962
543.842
543.723
543.606
543.49
543.374
543.259
543.145
543.032
542.919
542.807
542.695
542.583
542.472
542.361
542.25
542.14
542.03
541.919
541.809
541.699
541.59
541.48
541.37
541.261
541.151
541.042
540.933
540.823
540.714
540.605
552.501
552.404
552.306
552.209
552.111
552.013
551.915
551.818
551.722
551.627
551.535
551.445
551.357
551.272
551.188
551.107
551.028
550.949
550.871
550.794
550.717
550.639
550.561
550.482
550.403
550.322
550.242
550.161
550.079
549.998
549.917
549.835
549.754
549.673
549.593
549.513
549.433
549.354
549.276
549.198
549.121
549.043
548.967
548.89
548.814
548.738
548.663
548.587
548.511
548.436
548.36
548.283
548.206
548.128
548.05
547.97
547.889
547.807
547.723
547.637
547.549
547.458
547.365
547.268
547.169
547.066
546.96
546.85
546.736
546.618
546.497
546.372
546.242
546.109
545.972
545.833
545.692
545.549
545.405
545.261
545.119
544.979
544.842
544.708
544.578
544.449
544.323
544.199
544.077
543.957
543.837
543.719
543.602
543.486
543.371
543.257
543.143
543.03
542.917
542.805
542.693
542.582
542.471
542.36
542.249
542.139
542.029
541.919
541.809
541.699
541.589
541.48
541.37
541.261
541.151
541.042
540.932
540.823
540.714
540.605
552.502
552.404
552.307
552.21
552.112
552.014
551.916
551.819
551.724
551.63
551.537
551.448
551.36
551.274
551.19
551.108
551.027
550.946
550.866
550.787
550.707
550.627
550.547
550.467
550.386
550.304
550.222
550.139
550.057
549.974
549.892
549.81
549.728
549.646
549.565
549.485
549.405
549.326
549.247
549.169
549.091
549.013
548.936
548.859
548.783
548.707
548.631
548.555
548.479
548.403
548.327
548.25
548.173
548.095
548.017
547.937
547.856
547.774
547.69
547.604
547.516
547.425
547.331
547.235
547.136
547.033
546.927
546.817
546.704
546.587
546.466
546.342
546.213
546.082
545.946
545.809
545.669
545.528
545.386
545.244
545.103
544.964
544.829
544.696
544.567
544.439
544.314
544.191
544.07
543.95
543.831
543.714
543.597
543.482
543.367
543.253
543.14
543.027
542.915
542.803
542.691
542.58
542.469
542.359
542.248
542.138
542.028
541.918
541.808
541.698
541.589
541.479
541.37
541.26
541.151
541.042
540.932
540.823
540.714
540.605
552.502
552.405
552.308
552.211
552.114
552.016
551.919
551.822
551.727
551.633
551.541
551.452
551.364
551.277
551.192
551.108
551.024
550.942
550.859
550.777
550.695
550.612
550.53
550.447
550.364
550.28
550.197
550.113
550.029
549.945
549.861
549.778
549.696
549.614
549.532
549.451
549.37
549.29
549.211
549.133
549.054
548.976
548.899
548.822
548.745
548.669
548.592
548.516
548.44
548.364
548.287
548.211
548.133
548.055
547.977
547.897
547.816
547.734
547.65
547.564
547.476
547.385
547.292
547.195
547.096
546.993
546.887
546.778
546.665
546.549
546.429
546.305
546.178
546.048
545.915
545.779
545.641
545.502
545.362
545.222
545.083
544.946
544.812
544.681
544.553
544.427
544.303
544.181
544.06
543.942
543.824
543.707
543.592
543.477
543.363
543.249
543.136
543.024
542.912
542.8
542.689
542.578
542.467
542.357
542.247
542.136
542.026
541.917
541.807
541.697
541.588
541.478
541.369
541.26
541.15
541.041
540.932
540.823
540.714
540.605
552.502
552.406
552.31
552.213
552.116
552.019
551.922
551.826
551.731
551.638
551.547
551.456
551.368
551.28
551.193
551.107
551.021
550.935
550.85
550.764
550.679
550.594
550.509
550.423
550.338
550.253
550.167
550.081
549.996
549.911
549.826
549.742
549.658
549.575
549.493
549.411
549.33
549.249
549.17
549.091
549.012
548.933
548.855
548.778
548.701
548.624
548.548
548.471
548.395
548.318
548.241
548.164
548.087
548.009
547.93
547.85
547.769
547.687
547.603
547.517
547.429
547.339
547.245
547.149
547.05
546.948
546.842
546.733
546.621
546.506
546.387
546.265
546.139
546.01
545.878
545.744
545.608
545.471
545.334
545.196
545.059
544.924
544.792
544.663
544.536
544.412
544.289
544.169
544.05
543.932
543.815
543.699
543.585
543.47
543.357
543.244
543.132
543.02
542.908
542.797
542.686
542.575
542.465
542.355
542.245
542.135
542.025
541.915
541.806
541.696
541.587
541.478
541.368
541.259
541.15
541.041
540.932
540.823
540.714
540.605
552.502
552.407
552.312
552.216
552.12
552.023
551.927
551.832
551.737
551.644
551.552
551.462
551.372
551.283
551.194
551.105
551.016
550.927
550.838
550.749
550.66
550.572
550.484
550.396
550.308
550.221
550.133
550.046
549.959
549.872
549.786
549.701
549.616
549.532
549.449
549.366
549.284
549.203
549.122
549.043
548.963
548.884
548.805
548.728
548.65
548.573
548.496
548.42
548.343
548.266
548.189
548.112
548.034
547.956
547.877
547.797
547.716
547.634
547.55
547.464
547.376
547.286
547.193
547.097
546.999
546.897
546.791
546.683
546.572
546.457
546.339
546.218
546.094
545.967
545.838
545.706
545.572
545.437
545.302
545.166
545.032
544.899
544.769
544.642
544.517
544.395
544.274
544.155
544.037
543.921
543.805
543.691
543.577
543.463
543.351
543.238
543.127
543.015
542.904
542.793
542.683
542.573
542.462
542.352
542.243
542.133
542.023
541.914
541.805
541.695
541.586
541.477
541.368
541.259
541.15
541.04
540.931
540.822
540.713
540.604
552.503
552.409
552.314
552.219
552.123
552.028
551.932
551.837
551.744
551.651
551.559
551.467
551.376
551.284
551.193
551.101
551.009
550.917
550.824
550.732
550.639
550.547
550.456
550.365
550.275
550.186
550.096
550.007
549.918
549.83
549.743
549.656
549.57
549.484
549.399
549.316
549.233
549.151
549.07
548.99
548.91
548.83
548.751
548.672
548.594
548.517
548.439
548.362
548.285
548.208
548.131
548.053
547.975
547.897
547.818
547.738
547.657
547.575
547.491
547.406
547.318
547.228
547.135
547.04
546.942
546.84
546.736
546.628
546.518
546.404
546.288
546.168
546.046
545.921
545.793
545.664
545.532
545.4
545.267
545.134
545.002
544.871
544.743
544.618
544.496
544.376
544.257
544.14
544.024
543.909
543.794
543.681
543.568
543.456
543.344
543.232
543.121
543.01
542.9
542.789
542.679
542.569
542.46
542.35
542.24
542.131
542.022
541.912
541.803
541.694
541.585
541.476
541.367
541.258
541.149
541.04
540.931
540.822
540.713
540.604
552.503
552.41
552.316
552.222
552.127
552.032
551.938
551.844
551.75
551.657
551.565
551.472
551.379
551.286
551.192
551.097
551.001
550.905
550.809
550.713
550.617
550.521
550.426
550.333
550.24
550.148
550.057
549.966
549.875
549.785
549.696
549.607
549.519
549.432
549.346
549.261
549.177
549.094
549.012
548.932
548.851
548.771
548.691
548.611
548.533
548.454
548.377
548.299
548.222
548.144
548.067
547.989
547.911
547.832
547.753
547.673
547.592
547.51
547.427
547.341
547.254
547.164
547.072
546.978
546.88
546.779
546.676
546.569
546.46
546.347
546.232
546.114
545.994
545.87
545.745
545.617
545.488
545.358
545.227
545.097
544.967
544.839
544.714
544.592
544.473
544.355
544.238
544.123
544.009
543.895
543.783
543.67
543.559
543.447
543.336
543.226
543.115
543.005
542.895
542.785
542.675
542.566
542.456
542.347
542.238
542.129
542.02
541.911
541.802
541.693
541.584
541.475
541.366
541.257
541.148
541.039
540.931
540.822
540.713
540.604
552.504
552.411
552.318
552.225
552.131
552.038
551.944
551.85
551.757
551.664
551.57
551.476
551.381
551.286
551.189
551.091
550.992
550.893
550.793
550.693
550.593
550.494
550.396
550.3
550.204
550.11
550.016
549.923
549.83
549.738
549.646
549.555
549.465
549.376
549.289
549.202
549.117
549.033
548.95
548.868
548.787
548.706
548.626
548.546
548.466
548.387
548.309
548.23
548.153
548.075
547.997
547.919
547.841
547.762
547.683
547.603
547.522
547.44
547.357
547.272
547.185
547.096
547.005
546.91
546.814
546.714
546.611
546.506
546.397
546.287
546.173
546.057
545.938
545.816
545.693
545.567
545.44
545.312
545.184
545.056
544.929
544.804
544.682
544.564
544.447
544.332
544.218
544.105
543.993
543.881
543.77
543.659
543.549
543.438
543.328
543.218
543.109
542.999
542.89
542.78
542.671
542.562
542.453
542.344
542.235
542.126
542.017
541.909
541.8
541.691
541.582
541.474
541.365
541.256
541.148
541.039
540.93
540.822
540.713
540.604
552.504
552.412
552.32
552.228
552.136
552.043
551.95
551.857
551.763
551.67
551.575
551.48
551.383
551.285
551.186
551.085
550.982
550.879
550.776
550.672
550.569
550.467
550.366
550.266
550.168
550.07
549.974
549.878
549.783
549.688
549.594
549.5
549.408
549.317
549.228
549.14
549.053
548.968
548.884
548.801
548.719
548.637
548.556
548.475
548.395
548.315
548.236
548.157
548.079
548.001
547.923
547.844
547.766
547.687
547.608
547.528
547.447
547.365
547.282
547.198
547.112
547.023
546.932
546.839
546.743
546.644
546.542
546.438
546.332
546.223
546.111
545.996
545.879
545.759
545.638
545.514
545.389
545.263
545.137
545.011
544.887
544.765
544.648
544.533
544.42
544.308
544.197
544.087
543.977
543.867
543.757
543.648
543.538
543.429
543.32
543.211
543.102
542.993
542.884
542.776
542.667
542.558
542.45
542.341
542.232
542.124
542.015
541.907
541.798
541.69
541.581
541.473
541.364
541.255
541.147
541.038
540.93
540.821
540.713
540.604
552.505
552.414
552.323
552.232
552.14
552.048
551.956
551.863
551.769
551.675
551.579
551.482
551.384
551.283
551.181
551.077
550.972
550.865
550.759
550.652
550.546
550.44
550.336
550.233
550.132
550.031
549.931
549.832
549.734
549.637
549.54
549.444
549.349
549.256
549.164
549.074
548.986
548.899
548.814
548.73
548.647
548.564
548.482
548.401
548.32
548.239
548.159
548.08
548.001
547.922
547.844
547.765
547.687
547.608
547.528
547.448
547.368
547.287
547.204
547.12
547.034
546.947
546.857
546.764
546.669
546.572
546.472
546.369
546.263
546.156
546.046
545.933
545.818
545.7
545.58
545.458
545.335
545.211
545.086
544.961
544.84
544.723
544.611
544.501
544.392
544.284
544.176
544.068
543.96
543.852
543.744
543.636
543.528
543.42
543.311
543.203
543.095
542.987
542.879
542.771
542.662
542.554
542.446
542.338
542.229
542.121
542.013
541.905
541.796
541.688
541.58
541.471
541.363
541.255
541.146
541.038
540.929
540.821
540.713
540.604
552.505
552.415
552.325
552.235
552.144
552.053
551.961
551.868
551.775
551.679
551.583
551.484
551.383
551.28
551.176
551.069
550.961
550.851
550.741
550.631
550.522
550.414
550.307
550.2
550.096
549.992
549.889
549.786
549.685
549.584
549.484
549.386
549.288
549.192
549.098
549.005
548.915
548.827
548.74
548.655
548.571
548.487
548.404
548.322
548.24
548.159
548.079
547.998
547.919
547.84
547.761
547.683
547.604
547.525
547.445
547.366
547.286
547.205
547.122
547.039
546.954
546.867
546.778
546.686
546.592
546.496
546.397
546.296
546.193
546.087
545.979
545.868
545.755
545.639
545.521
545.401
545.279
545.156
545.031
544.906
544.785
544.675
544.571
544.468
544.364
544.259
544.154
544.049
543.943
543.837
543.73
543.624
543.517
543.41
543.303
543.196
543.088
542.981
542.873
542.766
542.658
542.55
542.442
542.334
542.226
542.119
542.011
541.902
541.794
541.686
541.578
541.47
541.362
541.254
541.145
541.037
540.929
540.821
540.712
540.604
552.506
552.417
552.327
552.238
552.148
552.057
551.965
551.872
551.778
551.682
551.584
551.484
551.381
551.276
551.169
551.06
550.949
550.837
550.724
550.611
550.499
550.388
550.278
550.168
550.06
549.953
549.847
549.742
549.637
549.533
549.43
549.328
549.227
549.128
549.03
548.935
548.843
548.752
548.664
548.577
548.492
548.407
548.324
548.241
548.158
548.076
547.995
547.914
547.834
547.755
547.676
547.597
547.519
547.439
547.36
547.28
547.2
547.12
547.038
546.955
546.87
546.784
546.696
546.606
546.513
546.418
546.321
546.222
546.12
546.016
545.91
545.802
545.691
545.578
545.462
545.344
545.223
545.101
544.975
544.846
544.717
544.623
544.531
544.435
544.336
544.235
544.133
544.03
543.926
543.822
543.717
543.612
543.506
543.4
543.294
543.188
543.081
542.974
542.867
542.76
542.653
542.546
542.439
542.331
542.223
542.116
542.008
541.9
541.793
541.685
541.577
541.469
541.361
541.253
541.145
541.037
540.928
540.82
540.712
540.604
552.506
552.418
552.329
552.24
552.15
552.059
551.968
551.875
551.78
551.683
551.584
551.482
551.378
551.271
551.161
551.05
550.937
550.822
550.707
550.592
550.477
550.363
550.25
550.138
550.027
549.917
549.808
549.699
549.591
549.484
549.377
549.272
549.167
549.064
548.964
548.865
548.77
548.677
548.587
548.498
548.412
548.326
548.241
548.157
548.074
547.992
547.91
547.828
547.748
547.668
547.589
547.51
547.431
547.352
547.272
547.193
547.113
547.032
546.951
546.869
546.785
546.7
546.613
546.524
546.433
546.339
546.244
546.146
546.046
545.944
545.84
545.734
545.626
545.516
545.403
545.287
545.17
545.049
544.923
544.785
544.612
544.571
544.494
544.405
544.31
544.213
544.113
544.012
543.91
543.808
543.704
543.6
543.496
543.391
543.286
543.18
543.074
542.968
542.862
542.755
542.649
542.542
542.435
542.328
542.22
542.113
542.006
541.898
541.791
541.683
541.575
541.467
541.36
541.252
541.144
541.036
540.928
540.82
540.712
540.604
552.506
552.418
552.329
552.24
552.15
552.059
551.967
551.874
551.779
551.681
551.581
551.478
551.372
551.264
551.153
551.039
550.924
550.807
550.69
550.573
550.455
550.339
550.224
550.109
549.996
549.883
549.771
549.659
549.548
549.438
549.327
549.218
549.11
549.003
548.899
548.797
548.699
548.603
548.51
548.419
548.331
548.244
548.158
548.073
547.989
547.906
547.823
547.741
547.66
547.58
547.5
547.421
547.342
547.263
547.184
547.104
547.025
546.945
546.864
546.782
546.7
546.615
546.529
546.441
546.352
546.26
546.166
546.07
545.972
545.872
545.77
545.666
545.561
545.453
545.343
545.232
545.119
545.003
544.885
544.763
544.642
544.557
544.471
544.381
544.288
544.192
544.094
543.995
543.895
543.794
543.692
543.589
543.485
543.382
543.277
543.172
543.067
542.962
542.856
542.75
542.644
542.538
542.431
542.324
542.217
542.11
542.003
541.896
541.789
541.681
541.574
541.466
541.359
541.251
541.143
541.035
540.927
540.82
540.712
540.604
552.506
552.417
552.328
552.238
552.148
552.056
551.964
551.87
551.775
551.676
551.575
551.471
551.364
551.254
551.142
551.027
550.91
550.792
550.673
550.554
550.435
550.317
550.199
550.083
549.967
549.851
549.737
549.622
549.508
549.395
549.281
549.168
549.056
548.945
548.837
548.732
548.631
548.532
548.436
548.343
548.252
548.163
548.075
547.988
547.903
547.819
547.736
547.654
547.572
547.491
547.411
547.332
547.253
547.174
547.095
547.016
546.936
546.857
546.776
546.695
546.613
546.53
546.445
546.359
546.27
546.18
546.088
545.993
545.897
545.799
545.7
545.599
545.496
545.392
545.286
545.179
545.07
544.961
544.852
544.743
544.637
544.543
544.452
544.361
544.268
544.173
544.077
543.979
543.88
543.781
543.68
543.578
543.476
543.373
543.269
543.165
543.061
542.956
542.851
542.745
542.64
542.534
542.427
542.321
542.214
542.108
542.001
541.894
541.787
541.68
541.572
541.465
541.357
541.25
541.142
541.035
540.927
540.819
540.712
540.604
552.505
552.414
552.323
552.233
552.142
552.05
551.957
551.862
551.766
551.667
551.565
551.461
551.353
551.242
551.129
551.013
550.895
550.776
550.656
550.536
550.416
550.296
550.177
550.058
549.94
549.823
549.706
549.589
549.472
549.356
549.239
549.122
549.006
548.893
548.781
548.673
548.567
548.465
548.366
548.27
548.176
548.085
547.995
547.906
547.82
547.734
547.65
547.567
547.485
547.403
547.323
547.244
547.164
547.085
547.007
546.928
546.849
546.769
546.689
546.609
546.527
546.445
546.361
546.276
546.189
546.1
546.01
545.918
545.823
545.727
545.63
545.532
545.432
545.331
545.23
545.127
545.024
544.922
544.82
544.719
544.62
544.526
544.434
544.342
544.25
544.156
544.061
543.965
543.867
543.768
543.668
543.568
543.466
543.364
543.261
543.158
543.054
542.95
542.845
542.74
542.635
542.53
542.424
542.318
542.212
542.105
541.999
541.892
541.785
541.678
541.571
541.464
541.356
541.249
541.142
541.034
540.927
540.819
540.711
540.604
552.503
552.41
552.317
552.224
552.132
552.039
551.945
551.85
551.753
551.654
551.552
551.447
551.339
551.228
551.114
550.997
550.879
550.76
550.639
550.519
550.398
550.277
550.157
550.037
549.918
549.798
549.679
549.56
549.441
549.321
549.202
549.082
548.963
548.846
548.731
548.619
548.509
548.404
548.301
548.202
548.105
548.01
547.918
547.828
547.739
547.652
547.567
547.483
547.4
547.318
547.237
547.157
547.077
546.998
546.92
546.841
546.762
546.683
546.603
546.523
546.442
546.361
546.278
546.194
546.109
546.022
545.933
545.843
545.751
545.657
545.562
545.466
545.369
545.272
545.175
545.077
544.98
544.883
544.788
544.693
544.599
544.507
544.416
544.325
544.233
544.14
544.046
543.951
543.854
543.757
543.658
543.558
543.457
543.356
543.254
543.151
543.048
542.944
542.84
542.736
542.631
542.526
542.42
542.315
542.209
542.103
541.996
541.89
541.783
541.676
541.569
541.462
541.355
541.248
541.141
541.033
540.926
540.819
540.711
540.604
552.501
552.405
552.308
552.213
552.119
552.024
551.929
551.833
551.735
551.635
551.533
551.428
551.321
551.21
551.096
550.98
550.862
550.743
550.623
550.502
550.381
550.26
550.14
550.019
549.898
549.777
549.656
549.535
549.413
549.292
549.17
549.047
548.926
548.805
548.687
548.571
548.459
548.349
548.243
548.139
548.039
547.941
547.846
547.753
547.663
547.574
547.487
547.402
547.318
547.235
547.154
547.073
546.993
546.914
546.835
546.756
546.677
546.598
546.519
546.439
546.359
546.278
546.196
546.114
546.03
545.944
545.857
545.769
545.679
545.587
545.495
545.402
545.308
545.214
545.121
545.028
544.936
544.845
544.755
544.666
544.577
544.487
544.398
544.308
544.217
544.125
544.032
543.938
543.843
543.746
543.648
543.549
543.449
543.348
543.247
543.145
543.042
542.939
542.836
542.731
542.627
542.522
542.417
542.312
542.206
542.1
541.994
541.888
541.782
541.675
541.568
541.461
541.354
541.247
541.14
541.033
540.926
540.818
540.711
540.604
552.499
552.398
552.298
552.199
552.102
552.005
551.908
551.811
551.712
551.612
551.51
551.405
551.298
551.188
551.075
550.96
550.843
550.725
550.606
550.486
550.366
550.245
550.124
550.003
549.881
549.759
549.637
549.514
549.391
549.267
549.144
549.02
548.896
548.773
548.652
548.532
548.416
548.302
548.192
548.084
547.98
547.879
547.781
547.685
547.592
547.501
547.413
547.326
547.241
547.157
547.075
546.993
546.912
546.833
546.753
546.674
546.595
546.516
546.437
546.358
546.278
546.198
546.117
546.036
545.953
545.869
545.784
545.697
545.609
545.519
545.429
545.339
545.248
545.158
545.069
544.98
544.893
544.807
544.722
544.638
544.556
544.467
544.379
544.291
544.202
544.111
544.02
543.926
543.832
543.736
543.639
543.541
543.441
543.341
543.241
543.139
543.037
542.934
542.831
542.727
542.623
542.519
542.414
542.309
542.204
542.098
541.992
541.886
541.78
541.674
541.567
541.46
541.353
541.247
541.14
541.032
540.925
540.818
540.711
540.604
552.497
552.391
552.286
552.184
552.082
551.983
551.884
551.784
551.685
551.584
551.482
551.378
551.272
551.163
551.052
550.938
550.823
550.706
550.589
550.47
550.351
550.231
550.11
549.989
549.867
549.745
549.621
549.497
549.373
549.249
549.124
548.999
548.874
548.749
548.625
548.502
548.382
548.264
548.149
548.038
547.929
547.824
547.722
547.623
547.528
547.435
547.344
547.256
547.169
547.084
547
546.918
546.836
546.755
546.675
546.596
546.517
546.438
546.359
546.28
546.201
546.121
546.041
545.961
545.88
545.797
545.714
545.629
545.542
545.455
545.367
545.278
545.19
545.104
545.018
544.933
544.85
544.768
544.688
544.608
544.527
544.445
544.361
544.275
544.188
544.099
544.008
543.916
543.822
543.727
543.63
543.533
543.434
543.335
543.235
543.134
543.032
542.93
542.827
542.724
542.62
542.516
542.411
542.307
542.201
542.096
541.99
541.885
541.778
541.672
541.566
541.459
541.353
541.246
541.139
541.032
540.925
540.818
540.711
540.604
552.494
552.383
552.273
552.165
552.06
551.957
551.855
551.754
551.653
551.552
551.45
551.347
551.242
551.135
551.025
550.914
550.801
550.687
550.571
550.454
550.336
550.217
550.098
549.977
549.855
549.733
549.61
549.486
549.361
549.237
549.112
548.987
548.86
548.734
548.607
548.482
548.358
548.236
548.117
548.001
547.888
547.779
547.673
547.57
547.471
547.375
547.282
547.192
547.103
547.017
546.931
546.847
546.765
546.683
546.602
546.522
546.443
546.364
546.285
546.207
546.128
546.05
545.971
545.891
545.811
545.73
545.648
545.565
545.48
545.394
545.308
545.221
545.135
545.051
544.968
544.887
544.808
544.73
544.654
544.578
544.501
544.424
544.343
544.26
544.175
544.087
543.997
543.906
543.813
543.719
543.623
543.526
543.428
543.329
543.229
543.129
543.027
542.926
542.823
542.72
542.617
542.513
542.409
542.304
542.199
542.094
541.989
541.883
541.777
541.671
541.565
541.458
541.352
541.245
541.138
541.032
540.925
540.818
540.711
540.604
552.491
552.373
552.257
552.144
552.034
551.928
551.823
551.72
551.618
551.516
551.414
551.311
551.208
551.103
550.997
550.888
550.778
550.666
550.552
550.438
550.322
550.205
550.087
549.967
549.847
549.725
549.603
549.48
549.357
549.233
549.108
548.983
548.856
548.728
548.6
548.472
548.344
548.219
548.095
547.975
547.857
547.743
547.632
547.525
547.423
547.323
547.227
547.134
547.043
546.955
546.868
546.782
546.698
546.615
546.534
546.454
546.375
546.296
546.218
546.141
546.063
545.986
545.908
545.83
545.751
545.671
545.591
545.508
545.425
545.34
545.255
545.169
545.084
545.002
544.922
544.843
544.767
544.693
544.621
544.55
544.477
544.405
544.328
544.247
544.163
544.077
543.988
543.898
543.805
543.712
543.616
543.52
543.422
543.324
543.225
543.124
543.023
542.922
542.82
542.717
542.614
542.51
542.406
542.302
542.197
542.092
541.987
541.882
541.776
541.67
541.564
541.458
541.351
541.245
541.138
541.031
540.924
540.817
540.71
540.603
552.487
552.363
552.241
552.123
552.009
551.898
551.79
551.684
551.579
551.475
551.373
551.271
551.169
551.067
550.964
550.859
550.753
550.644
550.534
550.422
550.309
550.194
550.078
549.961
549.843
549.724
549.604
549.484
549.362
549.24
549.115
548.99
548.863
548.733
548.603
548.471
548.34
548.211
548.084
547.958
547.836
547.718
547.602
547.491
547.383
547.279
547.179
547.083
546.989
546.898
546.809
546.722
546.637
546.553
546.472
546.392
546.313
546.236
546.16
546.085
546.01
545.935
545.858
545.781
545.703
545.624
545.543
545.462
545.379
545.295
545.21
545.123
545.038
544.955
544.876
544.8
544.727
544.657
544.59
544.524
544.457
544.39
544.316
544.237
544.154
544.068
543.98
543.89
543.799
543.705
543.611
543.515
543.417
543.319
543.22
543.12
543.02
542.919
542.817
542.714
542.611
542.508
542.404
542.3
542.196
542.091
541.986
541.88
541.775
541.669
541.563
541.457
541.351
541.244
541.137
541.031
540.924
540.817
540.71
540.603
552.484
552.353
552.225
552.102
551.984
551.869
551.757
551.647
551.538
551.432
551.327
551.225
551.125
551.026
550.927
550.828
550.726
550.623
550.517
550.409
550.301
550.19
550.077
549.964
549.85
549.735
549.619
549.502
549.383
549.262
549.137
549.01
548.881
548.749
548.614
548.478
548.343
548.209
548.078
547.95
547.825
547.704
547.585
547.469
547.356
547.245
547.139
547.037
546.939
546.845
546.755
546.667
546.582
546.499
546.418
546.338
546.261
546.186
546.114
546.044
545.974
545.903
545.828
545.752
545.673
545.593
545.512
545.43
545.347
545.262
545.175
545.085
544.996
544.91
544.829
544.755
544.686
544.622
544.561
544.5
544.442
544.38
544.308
544.229
544.147
544.061
543.974
543.884
543.793
543.7
543.606
543.51
543.413
543.315
543.217
543.117
543.017
542.916
542.814
542.712
542.609
542.506
542.403
542.299
542.194
542.09
541.985
541.879
541.774
541.668
541.562
541.456
541.35
541.244
541.137
541.031
540.924
540.817
540.71
540.603
552.48
552.342
552.207
552.078
551.956
551.839
551.724
551.61
551.498
551.387
551.278
551.174
551.076
550.98
550.888
550.796
550.703
550.607
550.508
550.409
550.311
550.207
550.101
549.994
549.886
549.777
549.667
549.555
549.44
549.316
549.186
549.05
548.914
548.775
548.633
548.49
548.348
548.212
548.08
547.952
547.829
547.708
547.589
547.469
547.349
547.23
547.113
547.001
546.897
546.8
546.71
546.626
546.546
546.463
546.381
546.299
546.221
546.152
546.092
546.034
545.972
545.903
545.826
545.749
545.669
545.586
545.502
545.418
545.334
545.242
545.149
545.051
544.95
544.854
544.77
544.699
544.637
544.581
544.531
544.478
544.439
544.378
544.304
544.225
544.142
544.056
543.969
543.879
543.788
543.696
543.602
543.506
543.41
543.312
543.214
543.114
543.014
542.913
542.812
542.71
542.608
542.505
542.401
542.297
542.193
542.089
541.984
541.879
541.773
541.668
541.562
541.456
541.35
541.243
541.137
541.03
540.924
540.817
540.71
540.603
552.475
552.328
552.183
552.046
551.921
551.805
551.692
551.581
551.471
551.354
551.238
551.131
551.035
550.948
550.868
550.79
550.708
550.623
550.536
550.452
550.386
550.298
550.204
550.11
550.011
549.916
549.815
549.708
549.593
549.456
549.304
549.136
548.981
548.823
548.667
548.518
548.374
548.241
548.112
547.99
547.879
547.764
547.647
547.522
547.393
547.261
547.119
546.991
546.879
546.78
546.702
546.63
546.564
546.477
546.381
546.287
546.215
546.163
546.134
546.091
546.028
545.953
545.852
545.774
545.698
545.605
545.515
545.432
545.356
545.233
545.115
545
544.874
544.768
544.682
544.621
544.57
544.531
544.506
544.458
544.464
544.386
544.306
544.223
544.138
544.052
543.965
543.876
543.785
543.692
543.598
543.503
543.407
543.31
543.211
543.112
543.012
542.912
542.81
542.709
542.606
542.503
542.4
542.296
542.192
542.088
541.983
541.878
541.773
541.667
541.561
541.455
541.349
541.243
541.137
541.03
540.924
540.817
540.71
540.603
552.473
552.321
552.166
552.017
551.893
551.789
551.685
551.591
551.51
551.386
551.256
551.143
551.053
550.99
550.946
550.9
550.818
550.744
550.678
550.618
550.601
550.511
550.429
550.354
550.267
550.21
550.126
550.035
549.908
549.734
549.539
549.269
549.076
548.861
548.689
548.565
548.438
548.326
548.203
548.097
548.009
547.897
547.775
547.638
547.488
547.357
547.165
547.013
546.918
546.811
546.789
546.735
546.679
546.57
546.404
546.321
546.374
546.338
546.339
546.264
546.12
546.017
545.837
545.778
545.776
545.62
545.521
545.464
545.477
545.197
544.979
544.886
544.688
544.604
544.609
544.539
544.476
544.463
544.487
544.472
544.468
544.397
544.309
544.222
544.136
544.05
543.962
543.873
543.782
543.69
543.596
543.501
543.405
543.308
543.21
543.111
543.011
542.91
542.809
542.707
542.605
542.502
542.399
542.295
542.191
542.087
541.982
541.877
541.772
541.667
541.561
541.455
541.349
541.243
541.137
541.03
540.924
540.817
540.71
540.603
552.487
552.373
552.228
552.054
551.949
551.899
551.775
551.673
551.667
551.499
551.355
551.256
551.165
551.21
551.241
551.245
551.07
550.993
551.019
550.938
550.854
550.588
550.457
550.397
550.314
550.381
550.324
550.261
550.068
549.839
549.579
549.159
548.881
548.566
548.448
548.451
548.436
548.326
548.191
548.131
548.029
547.882
547.737
547.621
547.457
547.277
547.058
546.915
546.946
546.816
546.936
546.902
546.732
546.528
546.19
546.378
547.048
547.085
546.562
546.268
546.029
545.789
545.607
545.441
545.938
545.378
545.353
545.437
545.805
544.826
544.479
544.694
544.114
544.225
544.696
544.497
544.429
544.489
544.495
544.483
544.471
544.425
544.31
544.22
544.134
544.047
543.96
543.871
543.78
543.688
543.595
543.5
543.404
543.307
543.208
543.11
543.01
542.909
542.808
542.707
542.604
542.502
542.399
542.295
542.191
542.087
541.982
541.877
541.772
541.667
541.561
541.455
541.349
541.243
541.137
541.03
540.924
540.817
540.71