/*--------------------------------*- C++ -*----------------------------------*\
  =========                 |
  \\      /  F ield         | OpenFOAM: The Open Source CFD Toolbox
   \\    /   O peration     | Website:  https://openfoam.org
    \\  /    A nd           | Version:  6
     \\/     M anipulation  |
\*---------------------------------------------------------------------------*/
FoamFile
{
    version     2.0;
    format      ascii;
    class       volScalarField;
    location    "4400";
    object      dmdt;
}
// * * * * * * * * * * * * * * * * * * * * * * * * * * * * * * * * * * * * * //

dimensions      [0 0 0 0 0 0 0];

internalField   nonuniform List<scalar> 
4800
(
-0.219103
-0.21613
-0.21316
-0.210182
-0.207187
-0.204183
-0.201185
-0.198212
-0.195285
-0.192429
-0.189662
-0.18699
-0.18442
-0.181959
-0.179613
-0.177383
-0.175265
-0.173255
-0.171346
-0.169526
-0.167785
-0.16611
-0.164491
-0.16292
-0.161391
-0.159903
-0.158455
-0.157045
-0.155671
-0.154329
-0.153025
-0.151755
-0.150523
-0.149343
-0.148214
-0.147137
-0.146118
-0.145151
-0.144232
-0.143363
-0.142541
-0.141762
-0.141022
-0.140322
-0.139664
-0.139045
-0.13846
-0.137907
-0.137378
-0.136868
-0.136371
-0.135876
-0.135379
-0.134874
-0.134355
-0.133819
-0.133267
-0.132699
-0.132116
-0.131519
-0.130908
-0.130282
-0.129639
-0.128975
-0.128285
-0.127561
-0.126792
-0.125966
-0.125065
-0.124068
-0.122946
-0.121662
-0.120167
-0.118399
-0.116275
-0.113684
-0.110495
-0.106551
-0.101658
-0.0955982
-0.0881741
-0.0792027
-0.0685641
-0.0562198
-0.0423161
-0.0271076
-0.00837016
-0.00907949
-0.00642375
-0.00312845
0.000580255
0.00453212
0.00861248
0.0127476
0.0168915
0.0210161
0.0251048
0.0291486
0.0331431
0.0370869
0.0409805
0.0448252
0.0486235
0.0523776
0.0560905
0.0597647
0.0634029
0.067008
0.0705825
0.074129
0.0776499
0.0811479
0.0846253
0.0880846
0.0915282
0.0949586
0.098378
0.101789
0.105194
0.108595
-0.219098
-0.216115
-0.21313
-0.210135
-0.207128
-0.204115
-0.20111
-0.198133
-0.195211
-0.192364
-0.189603
-0.18694
-0.184383
-0.181937
-0.179608
-0.177394
-0.175294
-0.173301
-0.171409
-0.169604
-0.167875
-0.166211
-0.164603
-0.163041
-0.161519
-0.160034
-0.158584
-0.157167
-0.15578
-0.154421
-0.153095
-0.151791
-0.150526
-0.149305
-0.148124
-0.146989
-0.14591
-0.144893
-0.143931
-0.143022
-0.142171
-0.141373
-0.140616
-0.139905
-0.139242
-0.138622
-0.138038
-0.13749
-0.136967
-0.136465
-0.135979
-0.135494
-0.135006
-0.134509
-0.133996
-0.133465
-0.132914
-0.132346
-0.131761
-0.131161
-0.130546
-0.129916
-0.129268
-0.1286
-0.127904
-0.127173
-0.126396
-0.12556
-0.124648
-0.123637
-0.122501
-0.1212
-0.119686
-0.117897
-0.115752
-0.113139
-0.109932
-0.10597
-0.101082
-0.095048
-0.0876807
-0.0788106
-0.0683452
-0.0562535
-0.0426672
-0.0278141
-0.00884457
-0.00995047
-0.00708043
-0.00355863
0.000320635
0.00438767
0.00854233
0.0127243
0.0168972
0.0210392
0.0251379
0.0291869
0.0331836
0.0371276
0.0410202
0.0448632
0.0486592
0.052411
0.0561213
0.059793
0.0634288
0.0670314
0.0706035
0.0741478
0.0776666
0.0811625
0.084638
0.0880954
0.0915372
0.0949658
0.0983836
0.101793
0.105196
0.108596
-0.219083
-0.216068
-0.213049
-0.210024
-0.206995
-0.203968
-0.200962
-0.197999
-0.195097
-0.19227
-0.18953
-0.18689
-0.184359
-0.181943
-0.179644
-0.177463
-0.175396
-0.173436
-0.171576
-0.169801
-0.168099
-0.16646
-0.164872
-0.163327
-0.161818
-0.160342
-0.15889
-0.15746
-0.156047
-0.154653
-0.153275
-0.151906
-0.150574
-0.149264
-0.14798
-0.146736
-0.14554
-0.144415
-0.143365
-0.142382
-0.141473
-0.140633
-0.139844
-0.139109
-0.138434
-0.137811
-0.137229
-0.136686
-0.136167
-0.135679
-0.13521
-0.134742
-0.13427
-0.133787
-0.133286
-0.132762
-0.132215
-0.131647
-0.13106
-0.130454
-0.129832
-0.129194
-0.128536
-0.127857
-0.12715
-0.126405
-0.125612
-0.124758
-0.123824
-0.122787
-0.121621
-0.120287
-0.118737
-0.11691
-0.114725
-0.112071
-0.108826
-0.104833
-0.0999374
-0.093957
-0.0867017
-0.0780468
-0.0679743
-0.0565391
-0.0437372
-0.0296659
-0.0102111
-0.0119821
-0.00840584
-0.00436286
-0.000143126
0.00413957
0.00842943
0.0126955
0.0169198
0.0210925
0.0252086
0.0292664
0.0332663
0.0372101
0.0411002
0.0449394
0.0487309
0.0524777
0.0561829
0.0598494
0.0634802
0.067078
0.0706454
0.0741852
0.0776997
0.0811916
0.0846631
0.0881168
0.0915551
0.0949803
0.0983947
0.101801
0.105201
0.108598
-0.219058
-0.215993
-0.212931
-0.209871
-0.206819
-0.203787
-0.200794
-0.197853
-0.194979
-0.192187
-0.189486
-0.186884
-0.184393
-0.182021
-0.17977
-0.177638
-0.175623
-0.173717
-0.171907
-0.170179
-0.168519
-0.166918
-0.165363
-0.163843
-0.162352
-0.160884
-0.159427
-0.157976
-0.156526
-0.155073
-0.153624
-0.152167
-0.15073
-0.149286
-0.147856
-0.146451
-0.145088
-0.143796
-0.142602
-0.141507
-0.140513
-0.139606
-0.138765
-0.137989
-0.137291
-0.136657
-0.136075
-0.135538
-0.135023
-0.134547
-0.134095
-0.133645
-0.133191
-0.132725
-0.132237
-0.131722
-0.131178
-0.13061
-0.130021
-0.129409
-0.128777
-0.128127
-0.127456
-0.126761
-0.126036
-0.125269
-0.124453
-0.123572
-0.122606
-0.121532
-0.120328
-0.118944
-0.11734
-0.115459
-0.113219
-0.110511
-0.107217
-0.103189
-0.0982556
-0.0922918
-0.0851432
-0.0767478
-0.0671025
-0.0562875
-0.0445351
-0.0325441
-0.0218087
-0.0154463
-0.0102139
-0.00535967
-0.000685699
0.00386855
0.00832502
0.0126936
0.0169802
0.0211894
0.0253253
0.0293924
0.0333946
0.0373364
0.0412217
0.0450546
0.0488388
0.0525779
0.0562752
0.0599339
0.0635571
0.0671475
0.070708
0.074241
0.0777491
0.0812349
0.0847006
0.0881488
0.0915817
0.0950018
0.0984113
0.101813
0.105208
0.1086
-0.219029
-0.215907
-0.212798
-0.209711
-0.206651
-0.203627
-0.200653
-0.197745
-0.194912
-0.192164
-0.189509
-0.186959
-0.184524
-0.182213
-0.180028
-0.177967
-0.176025
-0.174192
-0.172453
-0.170787
-0.169183
-0.167632
-0.166117
-0.164625
-0.163152
-0.16169
-0.160222
-0.158744
-0.157249
-0.155732
-0.154198
-0.152624
-0.151047
-0.149434
-0.147816
-0.146206
-0.144634
-0.143136
-0.141745
-0.140481
-0.139354
-0.138352
-0.137442
-0.13661
-0.135873
-0.135222
-0.134634
-0.134099
-0.133591
-0.133122
-0.132679
-0.132242
-0.1318
-0.131349
-0.130869
-0.130364
-0.129822
-0.129253
-0.128658
-0.128038
-0.127394
-0.126731
-0.126042
-0.125329
-0.12458
-0.123781
-0.122936
-0.122019
-0.121008
-0.119885
-0.118629
-0.117182
-0.115506
-0.113554
-0.11124
-0.108457
-0.10511
-0.101065
-0.0961549
-0.0902774
-0.0833155
-0.075195
-0.0659028
-0.0557144
-0.0450202
-0.0344551
-0.0251218
-0.0177928
-0.0116576
-0.00619064
-0.00112357
0.00368
0.00829333
0.0127591
0.0171041
0.0213463
0.0254988
0.0295716
0.0335728
0.0375091
0.0413863
0.0452095
0.0489832
0.0527115
0.056398
0.0600462
0.0636591
0.0672397
0.0707907
0.0743148
0.0778145
0.0812921
0.0847502
0.088191
0.0916169
0.0950302
0.0984332
0.101828
0.105217
0.108603
-0.219003
-0.215834
-0.212689
-0.209582
-0.206525
-0.203527
-0.200592
-0.197725
-0.194934
-0.192237
-0.189642
-0.187156
-0.184793
-0.182561
-0.180461
-0.178492
-0.176643
-0.1749
-0.173245
-0.171653
-0.170112
-0.168618
-0.167149
-0.165688
-0.164234
-0.162778
-0.161298
-0.15979
-0.158243
-0.156652
-0.155007
-0.153305
-0.151569
-0.14976
-0.147914
-0.146055
-0.144224
-0.14247
-0.140842
-0.139369
-0.138069
-0.136935
-0.135933
-0.135038
-0.134247
-0.133561
-0.132955
-0.132416
-0.131913
-0.131447
-0.131006
-0.130572
-0.130133
-0.129688
-0.129211
-0.128715
-0.128171
-0.127599
-0.126995
-0.126365
-0.125706
-0.125026
-0.124314
-0.123579
-0.122801
-0.121964
-0.121082
-0.120118
-0.119051
-0.117867
-0.11655
-0.115031
-0.113273
-0.111233
-0.108831
-0.105951
-0.102517
-0.0984032
-0.0934695
-0.0876403
-0.0808475
-0.0730386
-0.0642209
-0.0546619
-0.0447743
-0.0351552
-0.0264474
-0.0189541
-0.0124439
-0.00663456
-0.00131192
0.00366693
0.00839436
0.0129308
0.0173167
0.0215796
0.0257395
0.0298109
0.033805
0.0377307
0.0415953
0.0454048
0.0491644
0.0528785
0.0565511
0.0601858
0.0637858
0.067354
0.0708933
0.0744062
0.0778953
0.0813629
0.0848114
0.0882431
0.0916603
0.0950652
0.0984601
0.101847
0.105229
0.108607
-0.218992
-0.2158
-0.212631
-0.209512
-0.206466
-0.203496
-0.200605
-0.197794
-0.195066
-0.192433
-0.189908
-0.187504
-0.185235
-0.183105
-0.181113
-0.179252
-0.177506
-0.175861
-0.174298
-0.172787
-0.171315
-0.16988
-0.168459
-0.167031
-0.165598
-0.164145
-0.16265
-0.161105
-0.159498
-0.157821
-0.156056
-0.154213
-0.152279
-0.150248
-0.148146
-0.146003
-0.143872
-0.141823
-0.139922
-0.13821
-0.136707
-0.135413
-0.134294
-0.133316
-0.132458
-0.131723
-0.131089
-0.130539
-0.130033
-0.129563
-0.129115
-0.128675
-0.12823
-0.12778
-0.127299
-0.126801
-0.126255
-0.125677
-0.12506
-0.124416
-0.123738
-0.123035
-0.122292
-0.121529
-0.120713
-0.119837
-0.118908
-0.117892
-0.116763
-0.115509
-0.114116
-0.112513
-0.110671
-0.108542
-0.106047
-0.103093
-0.0996066
-0.0954767
-0.090567
-0.0847785
-0.0780984
-0.0705596
-0.0622124
-0.0532382
-0.0439842
-0.034945
-0.0265703
-0.0191366
-0.0125376
-0.00660278
-0.00116924
0.00389124
0.00867191
0.0132388
0.0176381
0.0219026
0.026056
0.0301155
0.0340945
0.0380031
0.0418497
0.0456408
0.0493821
0.0530784
0.0567339
0.0603521
0.0639364
0.0674898
0.0710149
0.0745145
0.077991
0.0814467
0.0848838
0.0883048
0.0917117
0.0951067
0.098492
0.10187
0.105242
0.108611
-0.218984
-0.215787
-0.212632
-0.209543
-0.206533
-0.203606
-0.200761
-0.198004
-0.195342
-0.192783
-0.190342
-0.188039
-0.185883
-0.183871
-0.182
-0.180258
-0.178624
-0.177085
-0.175617
-0.174187
-0.172786
-0.171407
-0.170031
-0.168634
-0.167216
-0.165756
-0.164235
-0.162638
-0.160951
-0.159164
-0.157259
-0.155251
-0.153113
-0.150853
-0.148484
-0.146044
-0.143594
-0.141222
-0.139015
-0.137029
-0.135296
-0.133818
-0.132561
-0.131485
-0.130547
-0.129749
-0.129078
-0.128505
-0.127987
-0.127505
-0.127041
-0.126588
-0.12613
-0.125664
-0.125173
-0.12466
-0.124106
-0.123516
-0.122883
-0.122218
-0.121517
-0.120785
-0.120007
-0.119205
-0.118342
-0.117424
-0.116439
-0.115368
-0.114173
-0.112849
-0.111374
-0.109676
-0.107736
-0.105501
-0.102897
-0.0998391
-0.0962555
-0.0920689
-0.087188
-0.0814843
-0.0749494
-0.0676377
-0.0596655
-0.0512089
-0.0425007
-0.0339112
-0.0257576
-0.0184854
-0.0119731
-0.00607877
-0.000664872
0.0043823
0.00914941
0.0137001
0.0180804
0.0223234
0.0264535
0.0304888
0.0344431
0.0383271
0.0421495
0.0459171
0.0496359
0.0533106
0.0569454
0.0605442
0.0641101
0.0676461
0.0711549
0.074639
0.0781009
0.0815428
0.084967
0.0883755
0.0917706
0.0951542
0.0985286
0.101896
0.105258
0.108617
-0.219001
-0.215836
-0.212721
-0.209679
-0.206719
-0.203846
-0.20106
-0.198363
-0.19577
-0.193301
-0.190966
-0.18878
-0.186748
-0.184866
-0.183127
-0.181511
-0.179996
-0.178564
-0.177186
-0.175832
-0.174491
-0.173157
-0.171813
-0.170441
-0.169025
-0.167548
-0.165989
-0.164329
-0.162554
-0.160647
-0.158597
-0.156403
-0.154045
-0.151533
-0.148886
-0.146141
-0.143361
-0.140647
-0.138115
-0.13584
-0.133859
-0.132176
-0.130761
-0.129567
-0.128547
-0.127679
-0.126958
-0.12635
-0.12581
-0.125304
-0.124817
-0.124344
-0.123868
-0.123382
-0.122871
-0.122334
-0.121761
-0.121149
-0.120494
-0.119802
-0.11907
-0.118302
-0.117487
-0.116633
-0.11572
-0.11475
-0.113706
-0.112571
-0.111307
-0.109914
-0.108355
-0.106574
-0.104544
-0.102211
-0.0995128
-0.0963661
-0.0926983
-0.0884235
-0.0834791
-0.0777617
-0.071297
-0.0641435
-0.0564235
-0.048331
-0.0400704
-0.0319222
-0.0240664
-0.0170731
-0.0107945
-0.0050815
0.000196424
0.00514159
0.00983033
0.0143184
0.0186463
0.0228439
0.0269331
0.030931
0.0348506
0.0387021
0.0424939
0.0462328
0.0499245
0.0535737
0.0571847
0.060761
0.0643058
0.0678219
0.0713122
0.0747788
0.0782242
0.0816506
0.0850601
0.0884547
0.0918365
0.0952074
0.0985695
0.101925
0.105275
0.108622
-0.219035
-0.21594
-0.212891
-0.209911
-0.207011
-0.204198
-0.201479
-0.198864
-0.196369
-0.194008
-0.191791
-0.189732
-0.187834
-0.18609
-0.184487
-0.183001
-0.181602
-0.180267
-0.178966
-0.177675
-0.176385
-0.175085
-0.173764
-0.172405
-0.170988
-0.16949
-0.167884
-0.166145
-0.164259
-0.162205
-0.159978
-0.157567
-0.154967
-0.152184
-0.149241
-0.146184
-0.143088
-0.140053
-0.137206
-0.134648
-0.132422
-0.130533
-0.128946
-0.12761
-0.126485
-0.125542
-0.124763
-0.124108
-0.123531
-0.122994
-0.122478
-0.121979
-0.121479
-0.120967
-0.120431
-0.119863
-0.11926
-0.118616
-0.117928
-0.117198
-0.116426
-0.115613
-0.114754
-0.113841
-0.112871
-0.111838
-0.110733
-0.109531
-0.108195
-0.106724
-0.105076
-0.103205
-0.10107
-0.0986397
-0.0958435
-0.092604
-0.0888419
-0.0844956
-0.0795062
-0.0737767
-0.0673304
-0.0602501
-0.0526649
-0.0447636
-0.0367795
-0.0289971
-0.0215156
-0.0149449
-0.00905311
-0.00365459
0.00138245
0.00614712
0.0107002
0.0150841
0.0193296
0.0234595
0.0274916
0.0314395
0.0353147
0.039126
0.042881
0.046586
0.0502462
0.0538663
0.05745
0.0610009
0.064522
0.0680161
0.0714856
0.0749328
0.07836
0.0817692
0.0851625
0.0885417
0.0919089
0.0952658
0.0986144
0.101956
0.105294
0.108629
-0.219085
-0.216088
-0.213132
-0.210238
-0.207419
-0.204686
-0.202051
-0.199533
-0.197146
-0.1949
-0.192811
-0.190887
-0.18913
-0.187529
-0.186064
-0.184701
-0.183407
-0.182156
-0.180922
-0.179686
-0.178439
-0.177168
-0.175864
-0.174514
-0.17309
-0.171553
-0.169874
-0.168026
-0.166
-0.163772
-0.161338
-0.158691
-0.155833
-0.152772
-0.149532
-0.146164
-0.142753
-0.139414
-0.136275
-0.133443
-0.130971
-0.128869
-0.127112
-0.125638
-0.1244
-0.123366
-0.122518
-0.121808
-0.121186
-0.120612
-0.120064
-0.119531
-0.118999
-0.118454
-0.117883
-0.117279
-0.116635
-0.115947
-0.115215
-0.114438
-0.113616
-0.112748
-0.111828
-0.110851
-0.109814
-0.108711
-0.107538
-0.106264
-0.104855
-0.103303
-0.101573
-0.0996269
-0.0973983
-0.0948737
-0.0919703
-0.0886455
-0.0848078
-0.0803986
-0.0753542
-0.0695928
-0.0631265
-0.0560051
-0.048378
-0.0404591
-0.0325267
-0.0250054
-0.0180593
-0.012139
-0.00682145
-0.00187048
0.00283458
0.00735598
0.0117291
0.0159769
0.0201163
0.0241607
0.0281217
0.0320091
0.0358312
0.0395953
0.0433078
0.0469741
0.0505988
0.0541861
0.0577395
0.0612623
0.0647573
0.068227
0.0716738
0.0750998
0.0785071
0.0818977
0.0852733
0.0886359
0.0919872
0.0953289
0.0986629
0.101991
0.105314
0.108635
-0.219145
-0.216266
-0.213424
-0.210638
-0.207924
-0.205295
-0.202763
-0.200352
-0.198081
-0.195964
-0.194013
-0.192233
-0.190625
-0.189168
-0.187834
-0.186583
-0.185381
-0.184203
-0.183029
-0.181843
-0.180636
-0.179391
-0.178102
-0.176754
-0.175312
-0.173717
-0.171943
-0.169957
-0.167754
-0.165318
-0.162651
-0.159752
-0.156624
-0.153275
-0.14974
-0.146077
-0.14237
-0.138738
-0.13532
-0.132226
-0.129518
-0.127211
-0.12528
-0.123668
-0.122319
-0.12119
-0.120257
-0.11948
-0.118806
-0.118191
-0.117605
-0.117033
-0.11646
-0.115874
-0.11526
-0.114609
-0.113915
-0.113172
-0.112382
-0.111545
-0.110663
-0.10973
-0.108737
-0.107681
-0.106562
-0.105382
-0.10413
-0.102778
-0.101291
-0.0996553
-0.0978442
-0.0958254
-0.0935218
-0.0909244
-0.087946
-0.0845471
-0.0806456
-0.0761914
-0.071093
-0.0652642
-0.0587256
-0.0514763
-0.0436211
-0.0353263
-0.0269662
-0.01948
-0.0135926
-0.0087395
-0.00422942
0.00015511
0.00446554
0.00870679
0.0128751
0.0169682
0.0209868
0.0249338
0.0288138
0.0326323
0.0363945
0.0401056
0.0437706
0.0473938
0.0509793
0.0545306
0.0580509
0.0615431
0.0650096
0.068453
0.0718753
0.0752784
0.0786644
0.0820349
0.0853916
0.0887364
0.0920707
0.0953963
0.0987146
0.102027
0.105336
0.108643
-0.219213
-0.216469
-0.213755
-0.211093
-0.2085
-0.205994
-0.20359
-0.201308
-0.199169
-0.197192
-0.195385
-0.193754
-0.192291
-0.19097
-0.189759
-0.188612
-0.187497
-0.18639
-0.185274
-0.184133
-0.182959
-0.181738
-0.180464
-0.179103
-0.177611
-0.175925
-0.174021
-0.171871
-0.169472
-0.166814
-0.163894
-0.160726
-0.157315
-0.153678
-0.149858
-0.14592
-0.141939
-0.138033
-0.13435
-0.131007
-0.128073
-0.125568
-0.123467
-0.121714
-0.120254
-0.119033
-0.118014
-0.117158
-0.116423
-0.115758
-0.115128
-0.11451
-0.113889
-0.113253
-0.112586
-0.111879
-0.111123
-0.110313
-0.109452
-0.108539
-0.107581
-0.10657
-0.105496
-0.104353
-0.10314
-0.101865
-0.100516
-0.0990706
-0.0974908
-0.0957623
-0.0938662
-0.0917798
-0.0894307
-0.0867913
-0.0837769
-0.0803317
-0.0763807
-0.0719019
-0.0668035
-0.0609524
-0.0543397
-0.0469135
-0.0387089
-0.0297636
-0.0201475
-0.0114676
-0.00813632
-0.00502338
-0.00152586
0.00224797
0.00616138
0.0101258
0.01409
0.0180259
0.0219191
0.0257632
0.0295567
0.0333007
0.0369979
0.0406515
0.0442649
0.0478416
0.0513846
0.054897
0.0583816
0.0618409
0.0652771
0.0686923
0.0720884
0.0754672
0.0788304
0.0821797
0.0855165
0.0888423
0.0921587
0.0954672
0.0987691
0.102066
0.105359
0.10865
-0.219291
-0.216699
-0.214134
-0.211617
-0.209166
-0.206798
-0.20453
-0.202385
-0.200385
-0.198548
-0.196889
-0.195411
-0.194095
-0.192907
-0.191809
-0.190759
-0.189728
-0.188691
-0.187629
-0.186529
-0.185379
-0.184165
-0.182872
-0.181451
-0.179864
-0.178059
-0.176002
-0.173673
-0.171069
-0.168185
-0.165016
-0.16158
-0.157886
-0.153961
-0.149857
-0.145647
-0.141409
-0.137254
-0.133328
-0.129761
-0.126624
-0.12394
-0.121681
-0.119795
-0.118225
-0.116913
-0.115813
-0.114878
-0.114068
-0.113341
-0.112656
-0.111982
-0.111304
-0.110607
-0.109878
-0.109103
-0.108275
-0.107386
-0.10644
-0.105436
-0.104383
-0.103274
-0.102103
-0.100862
-0.0995534
-0.0981798
-0.0967297
-0.095182
-0.0935036
-0.0916819
-0.0896939
-0.0875259
-0.0851263
-0.0824532
-0.0794431
-0.0760161
-0.0720574
-0.0675497
-0.0624713
-0.0566886
-0.050105
-0.0426687
-0.0343412
-0.0248987
-0.0125398
0.00134754
-0.00258237
-0.0017494
0.000875315
0.00419009
0.00780124
0.0115412
0.0153283
0.0191197
0.0228922
0.0266337
0.0303388
0.0340057
0.0376347
0.0412274
0.0447861
0.0483131
0.051811
0.0552822
0.058729
0.0621533
0.0655574
0.0689428
0.0723113
0.0756645
0.0790039
0.0823308
0.0856467
0.0889528
0.0922505
0.0955411
0.0988259
0.102106
0.105383
0.108658
-0.219374
-0.216947
-0.214548
-0.212196
-0.209904
-0.207688
-0.20557
-0.203575
-0.201724
-0.200037
-0.198529
-0.197197
-0.196013
-0.194946
-0.193957
-0.193002
-0.192051
-0.191077
-0.190057
-0.188979
-0.187829
-0.186588
-0.185232
-0.183721
-0.182011
-0.180055
-0.177821
-0.175296
-0.17248
-0.169367
-0.165955
-0.162264
-0.158308
-0.154119
-0.149752
-0.14528
-0.140796
-0.13641
-0.132272
-0.128515
-0.125208
-0.122368
-0.119965
-0.117954
-0.116274
-0.114868
-0.113683
-0.112671
-0.111781
-0.110977
-0.11022
-0.109475
-0.108723
-0.10795
-0.10714
-0.106282
-0.105366
-0.104387
-0.103344
-0.102238
-0.101079
-0.0998592
-0.0985743
-0.0972185
-0.095799
-0.0943152
-0.0927604
-0.0911079
-0.0893271
-0.0874165
-0.0853447
-0.0831115
-0.0806765
-0.0779768
-0.0749734
-0.0716061
-0.0677334
-0.0632709
-0.058242
-0.0525937
-0.0461764
-0.0389782
-0.0310439
-0.0224813
-0.0135428
-0.00531616
-0.00278128
-0.000358244
0.00254954
0.00582061
0.00930587
0.0129055
0.0165581
0.0202267
0.0238891
0.0275325
0.0311502
0.034739
0.0382979
0.0418276
0.0453292
0.0488043
0.0522549
0.0556828
0.0590898
0.0624777
0.0658481
0.0692024
0.0725422
0.0758687
0.0791833
0.082487
0.0857811
0.0890668
0.0923452
0.0956173
0.0988844
0.102148
0.105408
0.108666
-0.219461
-0.21721
-0.214989
-0.212813
-0.210694
-0.208646
-0.206689
-0.204851
-0.203156
-0.201625
-0.200266
-0.199075
-0.19802
-0.197072
-0.196186
-0.195315
-0.194429
-0.1935
-0.192501
-0.191418
-0.190236
-0.18893
-0.187473
-0.185833
-0.183964
-0.181826
-0.1794
-0.176673
-0.173644
-0.17031
-0.166668
-0.162733
-0.158532
-0.154111
-0.149516
-0.144825
-0.140134
-0.135561
-0.131252
-0.127329
-0.123866
-0.120887
-0.118357
-0.11623
-0.114446
-0.112946
-0.111672
-0.110573
-0.109597
-0.108704
-0.107855
-0.107021
-0.106177
-0.105306
-0.104393
-0.103429
-0.102404
-0.101312
-0.100151
-0.0989258
-0.0976429
-0.0962991
-0.0948854
-0.0934032
-0.0918604
-0.0902566
-0.0885917
-0.0868373
-0.0849601
-0.0829684
-0.0808238
-0.0785484
-0.0761053
-0.0734242
-0.0704674
-0.0671846
-0.0634587
-0.0591548
-0.0542631
-0.0488017
-0.0426487
-0.0358179
-0.0284522
-0.0208513
-0.0135324
-0.00722
-0.00299121
0.000484687
0.00382831
0.00722114
0.0106883
0.0142119
0.0177675
0.0213346
0.0248985
0.0284497
0.0319823
0.0354933
0.0389814
0.0424465
0.0458893
0.0493108
0.0527124
0.0560954
0.0594612
0.0628112
0.0661467
0.0694689
0.0727789
0.0760779
0.0793669
0.0826468
0.0859186
0.0891833
0.0924419
0.0956952
0.0989441
0.10219
0.105433
0.108675
-0.219554
-0.217491
-0.215458
-0.213468
-0.211531
-0.209657
-0.207867
-0.206192
-0.204657
-0.20328
-0.202067
-0.201016
-0.200086
-0.199249
-0.198454
-0.197649
-0.196807
-0.195898
-0.194894
-0.193777
-0.192522
-0.19111
-0.189516
-0.187708
-0.185649
-0.18331
-0.180677
-0.177742
-0.174505
-0.170963
-0.167113
-0.162972
-0.158569
-0.153949
-0.149165
-0.1443
-0.139449
-0.134728
-0.130279
-0.126224
-0.122637
-0.11954
-0.116893
-0.114653
-0.112764
-0.111165
-0.109796
-0.108602
-0.107528
-0.106531
-0.10557
-0.104621
-0.103658
-0.102664
-0.101621
-0.100525
-0.0993692
-0.0981419
-0.0968446
-0.0954791
-0.094054
-0.0925721
-0.0910145
-0.0893979
-0.0877235
-0.0859979
-0.0842248
-0.0823771
-0.0804202
-0.0783659
-0.076177
-0.0738956
-0.0714771
-0.0688594
-0.0659919
-0.0628385
-0.0592854
-0.0552061
-0.050544
-0.0453061
-0.03945
-0.0330044
-0.0261411
-0.0192181
-0.012681
-0.00705834
-0.00247941
0.00143393
0.00503964
0.00853536
0.0120062
0.0154799
0.0189593
0.0224396
0.0259143
0.0293784
0.0328284
0.0362624
0.0396793
0.043079
0.0464618
0.0498283
0.0531795
0.0565164
0.0598398
0.0631509
0.0664506
0.0697398
0.0730194
0.0762903
0.0795531
0.0828088
0.0860579
0.0893013
0.0925397
0.0957739
0.0990045
0.102232
0.105458
0.108683
-0.219653
-0.21779
-0.215957
-0.214162
-0.212415
-0.210724
-0.209112
-0.207606
-0.206232
-0.205006
-0.203935
-0.203009
-0.202192
-0.201449
-0.200717
-0.199953
-0.199126
-0.198205
-0.197159
-0.195971
-0.194599
-0.19304
-0.191268
-0.189256
-0.186982
-0.184426
-0.181581
-0.17844
-0.175009
-0.171281
-0.167255
-0.162948
-0.158393
-0.153631
-0.148713
-0.14372
-0.13875
-0.133917
-0.129368
-0.125224
-0.121546
-0.118355
-0.115623
-0.11329
-0.111296
-0.109584
-0.108098
-0.106782
-0.105583
-0.104458
-0.10336
-0.102266
-0.101154
-0.100004
-0.0988018
-0.0975469
-0.096232
-0.0948446
-0.0933915
-0.0918726
-0.0902919
-0.0886586
-0.0869538
-0.0852011
-0.0833993
-0.081562
-0.0796952
-0.0777764
-0.0757713
-0.0736824
-0.0714925
-0.0692516
-0.0669077
-0.064424
-0.0616988
-0.0587249
-0.0553576
-0.0514975
-0.0470823
-0.0420696
-0.0364695
-0.030325
-0.0237758
-0.0171778
-0.0109734
-0.00573391
-0.00123846
0.00272029
0.00637178
0.00987524
0.013317
0.0167352
0.020143
0.0235426
0.0269335
0.030314
0.0336834
0.037041
0.0403865
0.0437201
0.047042
0.0503526
0.0536524
0.0569421
0.0602223
0.0634937
0.066757
0.0700127
0.0732615
0.0765038
0.0797403
0.0829714
0.0861977
0.0894196
0.0926378
0.0958528
0.0990651
0.102275
0.105484
0.108692
-0.21976
-0.21811
-0.216486
-0.214895
-0.213343
-0.211839
-0.210403
-0.209066
-0.20785
-0.20677
-0.20583
-0.205014
-0.204296
-0.203615
-0.202918
-0.202166
-0.201319
-0.200348
-0.199216
-0.197909
-0.196376
-0.194628
-0.192641
-0.1904
-0.187893
-0.185107
-0.182043
-0.178711
-0.175111
-0.171234
-0.167082
-0.162666
-0.158019
-0.153179
-0.14819
-0.14313
-0.1381
-0.13322
-0.12863
-0.124437
-0.120699
-0.117429
-0.114592
-0.112141
-0.110033
-0.108202
-0.106583
-0.105118
-0.103757
-0.102463
-0.101189
-0.099916
-0.0986212
-0.097286
-0.0958956
-0.0944594
-0.0929666
-0.0914033
-0.0897838
-0.0881085
-0.0863705
-0.0845865
-0.0827496
-0.0808778
-0.0789763
-0.0770603
-0.0751325
-0.0731768
-0.0711693
-0.0690963
-0.0669666
-0.0648192
-0.062599
-0.060299
-0.0577707
-0.0550032
-0.0518241
-0.0481238
-0.0438349
-0.0389094
-0.0333831
-0.0272935
-0.0207495
-0.0141299
-0.00806699
-0.00331849
0.000757642
0.00444157
0.00792087
0.0113085
0.0146607
0.0179985
0.021327
0.0246457
0.0279543
0.0312531
0.0345428
0.0378243
0.0410982
0.0443652
0.0476254
0.0508793
0.054127
0.0573689
0.0606054
0.0638367
0.0670632
0.0702851
0.0735028
0.0767165
0.0799265
0.0831331
0.0863365
0.0895371
0.0927352
0.095931
0.0991251
0.102318
0.105509
0.1087
-0.219875
-0.21845
-0.217047
-0.215668
-0.214316
-0.213
-0.211739
-0.210565
-0.209501
-0.208555
-0.207727
-0.207004
-0.206353
-0.2057
-0.205003
-0.20422
-0.203311
-0.202241
-0.200971
-0.199489
-0.197757
-0.195785
-0.193559
-0.191069
-0.188319
-0.185308
-0.182033
-0.178514
-0.174762
-0.170781
-0.16657
-0.162124
-0.157464
-0.152627
-0.147646
-0.1426
-0.137592
-0.132735
-0.128151
-0.123934
-0.120135
-0.116767
-0.113823
-0.11125
-0.108995
-0.107004
-0.105212
-0.103558
-0.101995
-0.100487
-0.0989943
-0.0975041
-0.0959962
-0.0944506
-0.0928542
-0.0912246
-0.0895502
-0.0878224
-0.0860545
-0.0842475
-0.0823878
-0.0804941
-0.0785742
-0.076638
-0.0746981
-0.0727657
-0.0708348
-0.068888
-0.0669133
-0.0649071
-0.0628971
-0.0609055
-0.0588719
-0.0567733
-0.0544522
-0.0518208
-0.0486903
-0.0449329
-0.0404796
-0.0353202
-0.0295474
-0.0232218
-0.0164072
-0.00937289
-0.00321753
0.000488283
0.00361214
0.0066535
0.00972954
0.0128669
0.016058
0.0192816
0.0225166
0.0257498
0.0289753
0.0321923
0.0354024
0.0386077
0.0418097
0.0450094
0.0482075
0.0514041
0.0545993
0.0577931
0.0609855
0.0641766
0.0673662
0.0705544
0.0737411
0.0769264
0.0801101
0.0832924
0.0864732
0.0896527
0.0928308
0.0960079
0.099184
0.102359
0.105534
0.108708
-0.219996
-0.218813
-0.217643
-0.216484
-0.215335
-0.214207
-0.213119
-0.212098
-0.21117
-0.21034
-0.2096
-0.208942
-0.208312
-0.207648
-0.206907
-0.206046
-0.205025
-0.203804
-0.202348
-0.200647
-0.198681
-0.196457
-0.193974
-0.191241
-0.188254
-0.185022
-0.181554
-0.177883
-0.174024
-0.169989
-0.165779
-0.16137
-0.156771
-0.152014
-0.147128
-0.142173
-0.137245
-0.132442
-0.127867
-0.123616
-0.119747
-0.11628
-0.113207
-0.11049
-0.108069
-0.105887
-0.10388
-0.101988
-0.100173
-0.0983997
-0.0966487
-0.0949164
-0.0931898
-0.0914456
-0.0896637
-0.0878684
-0.0860519
-0.084222
-0.0823826
-0.0805337
-0.0786617
-0.0767738
-0.0748811
-0.0729889
-0.0711075
-0.0692347
-0.0673504
-0.0654363
-0.0634931
-0.0615581
-0.0596896
-0.0578959
-0.056088
-0.0541726
-0.0519747
-0.0492771
-0.0458251
-0.0414558
-0.0362105
-0.030194
-0.0237008
-0.0167902
-0.00963934
-0.00197127
0.00487924
0.00598536
0.00731753
0.00931831
0.0117797
0.0145473
0.0175118
0.0205874
0.0237136
0.0268545
0.0299942
0.0331284
0.0362583
0.0393867
0.0425162
0.0456482
0.0487836
0.0519226
0.055065
0.0582107
0.0613592
0.0645101
0.0676632
0.0708179
0.073974
0.0771312
0.0802891
0.0834475
0.0866062
0.0897651
0.0929239
0.0960826
0.0992412
0.1024
0.105558
0.108716
-0.220126
-0.2192
-0.218275
-0.217343
-0.216401
-0.215458
-0.214533
-0.213652
-0.212839
-0.212096
-0.21141
-0.210779
-0.210125
-0.209412
-0.208584
-0.207603
-0.206428
-0.205013
-0.203333
-0.201382
-0.199157
-0.196672
-0.193938
-0.190965
-0.18776
-0.184348
-0.180732
-0.176951
-0.173029
-0.168981
-0.16481
-0.160487
-0.156007
-0.151389
-0.146658
-0.141854
-0.137045
-0.132316
-0.127775
-0.123514
-0.11958
-0.115991
-0.112746
-0.109817
-0.107155
-0.104709
-0.102419
-0.100223
-0.0980954
-0.0960143
-0.0939806
-0.0920107
-0.0901069
-0.0882429
-0.0863768
-0.0845296
-0.0827142
-0.0809482
-0.0792347
-0.0775611
-0.0759026
-0.0742386
-0.0725629
-0.0708682
-0.0691433
-0.0673581
-0.0654716
-0.0634807
-0.0614387
-0.0594711
-0.0577027
-0.05612
-0.0545365
-0.0527537
-0.0505297
-0.0473915
-0.042921
-0.0368748
-0.0297267
-0.0217904
-0.0139611
-0.00630832
0.00033721
0.00808354
0.0129308
0.012322
0.0112809
0.0121689
0.0139607
0.0163067
0.0190069
0.0219117
0.0249161
0.0279582
0.0310084
0.0340577
0.037106
0.0401566
0.0432127
0.0462765
0.0493489
0.0524302
0.05552
0.0586177
0.0617227
0.064834
0.067951
0.071073
0.0741992
0.077329
0.0804618
0.083597
0.0867343
0.0898732
0.0930133
0.0961544
0.0992962
0.102439
0.105581
0.108724
-0.22026
-0.219596
-0.218922
-0.218221
-0.217484
-0.216718
-0.215944
-0.215184
-0.214461
-0.213774
-0.213115
-0.212468
-0.211763
-0.210977
-0.210041
-0.208925
-0.207575
-0.205945
-0.204019
-0.201808
-0.199323
-0.19658
-0.193599
-0.190404
-0.18701
-0.183445
-0.179717
-0.175861
-0.171909
-0.167883
-0.163782
-0.159579
-0.155255
-0.150821
-0.146293
-0.141686
-0.137037
-0.132411
-0.127898
-0.123563
-0.119462
-0.115648
-0.112147
-0.108945
-0.105984
-0.103199
-0.100544
-0.0979748
-0.0954869
-0.0930863
-0.0907936
-0.0886622
-0.0867284
-0.0849546
-0.0832678
-0.0816534
-0.0801696
-0.0788347
-0.0776474
-0.07656
-0.0754918
-0.0743525
-0.0730962
-0.0716808
-0.0700591
-0.0681705
-0.0659576
-0.0635019
-0.0609824
-0.0587226
-0.0569495
-0.0555967
-0.0542694
-0.0527297
-0.0505765
-0.0464193
-0.0397528
-0.0301083
-0.0194273
-0.00811741
0.00115215
0.00918599
0.0120953
0.0159199
0.00881134
0.0138621
0.0140743
0.0147488
0.0160976
0.0180733
0.020515
0.023244
0.0261204
0.0290581
0.0320149
0.0349762
0.0379408
0.0409121
0.043894
0.0468891
0.0498984
0.0529221
0.0559597
0.0590101
0.0620722
0.0651448
0.0682267
0.0713169
0.0744141
0.0775175
0.0806262
0.0837392
0.086856
0.0899758
0.0930982
0.0962225
0.0993483
0.102475
0.105603
0.108731
-0.220381
-0.219958
-0.219517
-0.219034
-0.218491
-0.217893
-0.217258
-0.216606
-0.215956
-0.215313
-0.214664
-0.213993
-0.213249
-0.212409
-0.211395
-0.210175
-0.208666
-0.206826
-0.204668
-0.202208
-0.199452
-0.196439
-0.193212
-0.189805
-0.18623
-0.182514
-0.17868
-0.174764
-0.170796
-0.166805
-0.162789
-0.158723
-0.154587
-0.150365
-0.146047
-0.141636
-0.137148
-0.132612
-0.128068
-0.123573
-0.119194
-0.115031
-0.111168
-0.107609
-0.104265
-0.101045
-0.0979122
-0.0948958
-0.092035
-0.089379
-0.0869691
-0.0849033
-0.0832942
-0.0820858
-0.0811485
-0.0803857
-0.0798883
-0.0796732
-0.079684
-0.0797483
-0.0796572
-0.0791786
-0.0782794
-0.0768541
-0.0748082
-0.0720948
-0.0686672
-0.0648999
-0.0612712
-0.0584374
-0.0566181
-0.0555081
-0.0545788
-0.0543464
-0.0538107
-0.0471505
-0.035877
-0.0192988
-0.0038649
0.0125547
0.0208922
0.0303849
0.0200536
0.0251182
0.0118703
0.0154606
0.016423
0.0170416
0.0180949
0.0197837
0.022005
0.0245712
0.0273207
0.0301506
0.0330097
0.0358793
0.0387575
0.0416477
0.0445544
0.0474802
0.0504265
0.0533932
0.0563793
0.0593834
0.0624039
0.065439
0.0684872
0.0715468
0.0746164
0.0776947
0.0807805
0.0838726
0.08697
0.0900719
0.0931775
0.0962861
0.099397
0.10251
0.105623
0.108738
-0.220453
-0.220178
-0.219895
-0.219581
-0.21921
-0.218774
-0.218282
-0.217751
-0.2172
-0.216631
-0.216035
-0.215406
-0.214711
-0.21392
-0.212935
-0.211704
-0.210094
-0.208085
-0.205729
-0.203022
-0.199961
-0.196638
-0.193158