/*--------------------------------*- C++ -*----------------------------------*\
  =========                 |
  \\      /  F ield         | OpenFOAM: The Open Source CFD Toolbox
   \\    /   O peration     | Website:  https://openfoam.org
    \\  /    A nd           | Version:  6
     \\/     M anipulation  |
\*---------------------------------------------------------------------------*/
FoamFile
{
    version     2.0;
    format      ascii;
    class       surfaceScalarField;
    location    "4400";
    object      phi;
}
// * * * * * * * * * * * * * * * * * * * * * * * * * * * * * * * * * * * * * //

dimensions      [0 3 -1 0 0 0 0];

internalField   nonuniform List<scalar> 
9440
(
5.58653e-11
-5.58653e-11
1.78478e-10
-1.22609e-10
4.59751e-10
-2.81271e-10
5.3389e-10
-7.41369e-11
5.49939e-10
-1.60479e-11
5.27638e-10
2.23021e-11
4.68822e-10
5.88169e-11
3.56077e-10
1.12746e-10
1.67363e-10
1.88714e-10
8.88706e-11
7.84916e-11
2.61639e-11
6.27058e-11
-1.1141e-10
1.37573e-10
-2.87296e-10
1.75885e-10
-4.35925e-10
1.48628e-10
-6.0153e-10
1.65603e-10
-7.66724e-10
1.65193e-10
-9.37333e-10
1.70608e-10
-1.09212e-09
1.54781e-10
-1.22418e-09
1.32065e-10
-1.32788e-09
1.03704e-10
-1.43307e-09
1.05187e-10
-1.54171e-09
1.0864e-10
-1.67636e-09
1.34654e-10
-1.84126e-09
1.64904e-10
-1.97945e-09
1.38191e-10
-2.09343e-09
1.13978e-10
-2.14893e-09
5.55025e-11
-2.08251e-09
-6.64204e-11
-1.95755e-09
-1.24953e-10
-2.11653e-09
1.58981e-10
-1.51199e-09
-6.04539e-10
-1.65417e-09
1.42177e-10
-1.3135e-09
-3.40666e-10
-6.64788e-10
-6.48712e-10
-1.382e-10
-5.26586e-10
9.18175e-10
-1.05637e-09
1.87117e-09
-9.52991e-10
2.70185e-09
-8.30681e-10
3.51119e-09
-8.09344e-10
4.43667e-09
-9.25473e-10
5.17976e-09
-7.43098e-10
5.59986e-09
-4.20095e-10
6.11364e-09
-5.13774e-10
6.61472e-09
-5.01081e-10
6.97069e-09
-3.55969e-10
7.25287e-09
-2.82185e-10
7.70206e-09
-4.49185e-10
7.91793e-09
-2.15872e-10
8.09075e-09
-1.72821e-10
8.24816e-09
-1.5741e-10
8.22043e-09
2.77347e-11
8.17064e-09
4.97867e-11
8.10795e-09
6.26958e-11
7.96662e-09
1.41331e-10
7.78137e-09
1.85245e-10
7.61921e-09
1.62157e-10
7.48756e-09
1.31655e-10
7.34561e-09
1.41948e-10
7.27717e-09
6.84386e-11
7.22952e-09
4.76496e-11
7.21757e-09
1.19499e-11
7.21232e-09
5.25177e-12
7.20373e-09
8.58893e-12
7.1954e-09
8.33161e-12
7.18067e-09
1.4724e-11
7.16354e-09
1.71278e-11
7.14648e-09
1.7065e-11
7.11139e-09
3.50889e-11
7.06971e-09
4.16848e-11
7.0038e-09
6.59088e-11
6.90828e-09
9.55114e-11
6.79618e-09
1.121e-10
6.6076e-09
1.88584e-10
6.51297e-09
9.46281e-11
6.24455e-09
2.68421e-10
6.05389e-09
1.90664e-10
5.60526e-09
4.48628e-10
5.49096e-09
1.14298e-10
4.81655e-09
6.74411e-10
4.45583e-09
3.60723e-10
3.71325e-09
7.4258e-10
3.20368e-09
5.09565e-10
2.32832e-09
8.75363e-10
1.51005e-09
8.18275e-10
6.54276e-10
8.55772e-10
4.64774e-15
6.54269e-10
-3.01924e-18
4.41092e-17
-6.30438e-18
3.28514e-18
-6.8206e-18
5.14494e-19
-6.93564e-18
1.15004e-19
-6.89845e-18
-3.6942e-20
-6.70745e-18
-1.91394e-19
-6.36695e-18
-3.41507e-19
-5.89985e-18
-4.68587e-19
-5.33614e-18
-5.65572e-19
-4.70583e-18
-6.3237e-19
-4.03616e-18
-6.71663e-19
-3.35083e-18
-6.86948e-19
-2.67007e-18
-6.81769e-19
-2.01074e-18
-6.59476e-19
-1.38658e-18
-6.23231e-19
-8.08605e-19
-5.75973e-19
-2.85407e-19
-5.20317e-19
1.76868e-19
-4.58598e-19
5.74441e-19
-3.93038e-19
9.05323e-19
-3.25771e-19
1.16876e-18
-2.58643e-19
1.36521e-18
-1.93004e-19
1.49659e-18
-1.2973e-19
1.56631e-18
-6.94605e-20
1.57887e-18
-1.28298e-20
1.5393e-18
3.94767e-20
1.45278e-18
8.6806e-20
1.32457e-18
1.28648e-19
1.1601e-18
1.64677e-19
9.65006e-19
1.94715e-19
7.45182e-19
2.18668e-19
5.06748e-19
2.36476e-19
2.56072e-19
2.4804e-19
2.53006e-19
1.4792e-10
-2.03782e-10
3.80096e-10
-3.54781e-10
5.0985e-10
-4.11021e-10
6.10186e-10
-1.7447e-10
6.27997e-10
-3.38565e-11
5.58821e-10
9.14787e-11
3.45713e-10
2.71926e-10
1.25078e-10
3.3338e-10
-1.53682e-11
3.29159e-10
-1.63066e-10
2.26188e-10
-3.30943e-10
2.30581e-10
-4.74033e-10
2.8066e-10
-6.24068e-10
3.25917e-10
-8.12726e-10
3.37284e-10
-9.63899e-10
3.16775e-10
-1.11628e-09
3.17569e-10
-1.31052e-09
3.64847e-10
-1.43863e-09
2.82894e-10
-1.5443e-09
2.37733e-10
-1.72649e-09
2.85895e-10
-1.88798e-09
2.66684e-10
-1.99095e-09
2.11615e-10
-2.09369e-09
2.37396e-10
-2.24258e-09
3.1379e-10
-2.3932e-09
2.8882e-10
-2.49872e-09
2.19501e-10
-2.57223e-09
1.29017e-10
-2.56564e-09
-7.30164e-11
-2.50514e-09
-1.85449e-10
-2.38882e-09
4.26708e-11
-1.90203e-09
-1.09133e-09
-2.12044e-09
3.60583e-10
-1.41629e-09
-1.04481e-09
-9.09999e-10
-1.155e-09
-2.9718e-10
-1.1394e-09
3.20077e-10
-1.67363e-09
1.48244e-09
-2.11535e-09
2.43629e-09
-1.78453e-09
3.09814e-09
-1.4712e-09
3.86896e-09
-1.69629e-09
4.55359e-09
-1.42772e-09
5.04255e-09
-9.0906e-10
5.43128e-09
-9.025e-10
5.85464e-09
-9.24434e-10
6.28205e-09
-7.83382e-10
6.66966e-09
-6.69794e-10
7.04956e-09
-8.29077e-10
7.31621e-09
-4.82521e-10
7.57235e-09
-4.28965e-10
7.73998e-09
-3.25033e-10
7.74564e-09
2.20691e-11
7.76278e-09
3.26466e-11
7.66471e-09
1.60768e-10
7.55212e-09
2.53918e-10
7.40612e-09
3.31246e-10
7.26082e-09
3.07455e-10
7.12525e-09
2.67218e-10
7.04599e-09
2.21214e-10
6.98041e-09
1.34011e-10
6.95152e-09
7.65395e-11
6.91691e-09
4.6563e-11
6.90599e-09
1.61663e-11
6.91509e-09
-5.12164e-13
6.93417e-09
-1.07461e-11
6.92752e-09
2.13805e-11
6.90372e-09
4.09228e-11
6.88312e-09
3.76606e-11
6.83544e-09
8.27717e-11
6.75183e-09
1.25299e-10
6.70685e-09
1.10887e-10
6.63332e-09
1.69033e-10
6.45469e-09
2.90733e-10
6.36855e-09
2.74722e-10
6.18058e-09
2.82603e-10
5.986e-09
4.62997e-10
5.68937e-09
4.87302e-10
5.47555e-09
6.6245e-10
5.0998e-09
4.90049e-10
4.81399e-09
9.60222e-10
4.14252e-09
1.03219e-09
3.71129e-09
1.17381e-09
2.86213e-09
1.35873e-09
2.26322e-09
1.47427e-09
9.01974e-10
2.17952e-09
3.9803e-10
1.35972e-09
4.618e-17
1.05231e-09
-2.14755e-17
-1.32431e-16
-9.07461e-18
-9.11202e-18
-7.21962e-18
-1.33894e-18
-7.08709e-18
-1.82268e-20
-7.05291e-18
-7.2764e-20
-6.85756e-18
-3.89095e-19
-6.49403e-18
-7.07996e-19
-5.99684e-18
-9.69093e-19
-5.40294e-18
-1.16283e-18
-4.74512e-18
-1.29323e-18
-4.05144e-18
-1.36765e-18
-3.34565e-18
-1.39386e-18
-2.64777e-18
-1.37929e-18
-1.9745e-18
-1.33081e-18
-1.33933e-18
-1.25483e-18
-7.52949e-19
-1.15719e-18
-2.23688e-19
-1.04321e-18
2.42429e-19
-9.1785e-19
6.41708e-19
-7.85668e-19
9.72451e-19
-6.50626e-19
1.2344e-18
-5.15842e-19
1.42849e-18
-3.83635e-19
1.55686e-18
-2.55844e-19
1.62294e-18
-1.34144e-19
1.63118e-18
-2.0156e-20
1.58663e-18
8.46482e-20
1.49462e-18
1.79086e-19
1.3606e-18
2.62332e-19
1.19014e-18
3.33887e-19
9.8896e-19
3.93489e-19
7.62989e-19
4.41033e-19
5.18312e-19
4.76517e-19
2.61038e-19
5.00012e-19
5.11736e-19
1.46188e-10
-3.49968e-10
3.35116e-10
-5.43705e-10
3.96654e-10
-4.72557e-10
4.26303e-10
-2.04117e-10
3.49969e-10
4.24795e-11
1.64756e-10
2.76692e-10
-5.79126e-12
4.42474e-10
-1.33057e-10
4.60646e-10
-2.41961e-10
4.38062e-10
-4.21998e-10
4.06224e-10
-6.18006e-10
4.26587e-10
-7.92615e-10
4.55267e-10
-9.68651e-10
5.01951e-10
-1.14278e-09
5.11411e-10
-1.33384e-09
5.07839e-10
-1.53898e-09
5.22704e-10
-1.74008e-09
5.65944e-10
-1.94313e-09
4.85947e-10
-2.10321e-09
3.97812e-10
-2.25345e-09
4.36131e-10
-2.41436e-09
4.27601e-10
-2.56409e-09
3.61343e-10
-2.6966e-09
3.69908e-10
-2.80412e-09
4.21314e-10
-2.87931e-09
3.64009e-10
-2.87787e-09
2.18062e-10
-2.90041e-09
1.51564e-10
-2.89561e-09
-7.78152e-11
-2.86032e-09
-2.2074e-10
-2.46171e-09
-3.55931e-10
-2.57434e-09
-9.78702e-10
-2.51047e-09
2.96716e-10
-1.66921e-09
-1.88607e-09
-1.51547e-09
-1.30874e-09
-7.34934e-10
-1.91994e-09
-1.1296e-10
-2.2956e-09
5.91107e-10
-2.81942e-09
1.67603e-09
-2.86945e-09
2.59226e-09
-2.38743e-09
3.1645e-09
-2.26852e-09
3.63176e-09
-1.89498e-09
4.21186e-09
-1.48916e-09
4.71019e-09
-1.40083e-09
5.23992e-09
-1.45416e-09
5.77563e-09
-1.31909e-09
6.20986e-09
-1.10402e-09
6.27897e-09
-8.98184e-10
6.33104e-09
-5.34594e-10
6.64934e-09
-7.47259e-10
6.81098e-09
-4.86674e-10
6.90107e-09
-6.80274e-11
6.96263e-09
-2.89079e-11
6.97576e-09
1.47633e-10
6.91908e-09
3.10593e-10
6.82722e-09
4.23106e-10
6.72581e-09
4.08867e-10
6.70451e-09
2.88521e-10
6.6733e-09
2.52422e-10
6.5981e-09
2.09211e-10
6.53578e-09
1.38858e-10
6.52733e-09
5.50073e-11
6.50831e-09
3.51932e-11
6.53061e-09
-2.28163e-11
6.55185e-09
-3.19831e-11
6.54999e-09
2.32439e-11
6.53301e-09
5.78942e-11
6.49612e-09
7.45529e-11
6.45268e-09
1.26209e-10
6.33714e-09
2.40841e-10
6.27212e-09
1.7591e-10
6.12165e-09
3.19502e-10
6.03151e-09
3.8087e-10
5.94317e-09
3.6306e-10
5.77323e-09
4.52542e-10
5.55982e-09
6.7641e-10
5.2543e-09
7.92821e-10
5.0752e-09
8.41546e-10
4.59994e-09
9.65314e-10
4.52964e-09
1.03052e-09
4.09843e-09
1.4634e-09
3.65736e-09
1.61488e-09
2.84882e-09
2.16727e-09
2.72865e-09
1.59444e-09
2.59404e-09
2.31412e-09
1.57658e-09
2.37718e-09
6.40688e-16
2.62888e-09
1.73717e-17
1.12267e-16
-1.30162e-18
9.56128e-18
-5.89853e-18
3.25754e-18
-7.14111e-18
1.22277e-18
-7.36924e-18
1.53268e-19
-7.17646e-18
-5.84329e-19
-6.75512e-18
-1.132e-18
-6.19058e-18
-1.53628e-18
-5.53334e-18
-1.82243e-18
-4.81954e-18
-2.00889e-18
-4.07766e-18
-2.1107e-18
-3.33108e-18
-2.14077e-18
-2.5993e-18
-2.1105e-18
-1.89851e-18
-2.03021e-18
-1.24168e-18
-1.90948e-18
-6.38974e-19
-1.75707e-18
-9.83257e-20
-1.58085e-18
3.74611e-19
-1.38785e-18
7.7675e-19
-1.18459e-18
1.10723e-18
-9.77017e-19
1.36661e-18
-7.70184e-19
1.55628e-18
-5.68069e-19
1.67856e-18
-3.73705e-19
1.73693e-18
-1.89526e-19
1.73598e-18
-1.76448e-20
1.68107e-18
1.4007e-19
1.57787e-18
2.82067e-19
1.43216e-18
4.07198e-19
1.24974e-18
5.14726e-19
1.0365e-18
6.04273e-19
7.98473e-19
6.75724e-19
5.41807e-19
7.29134e-19
2.72762e-19
7.64653e-19
7.82458e-19
8.99626e-11
-4.39929e-10
1.84691e-10
-6.3843e-10
1.90013e-10
-4.77877e-10
1.04513e-10
-1.18614e-10
-9.3034e-11
2.40028e-10
-2.18334e-10
4.01993e-10
-3.16096e-10
5.40236e-10
-4.69638e-10
6.14189e-10
-5.93201e-10
5.61624e-10
-7.12e-10
5.25022e-10
-8.5283e-10
5.67416e-10
-1.06579e-09
6.68225e-10
-1.26776e-09
7.03923e-10
-1.46674e-09
7.10391e-10
-1.68111e-09
7.22198e-10
-1.92843e-09
7.70027e-10
-2.11952e-09
7.57035e-10
-2.32976e-09
6.96188e-10
-2.48027e-09
5.48315e-10
-2.62977e-09
5.85634e-10
-2.79388e-09
5.91712e-10
-2.88169e-09
4.49153e-10
-2.9191e-09
4.07327e-10
-2.9309e-09
4.3311e-10
-2.93652e-09
3.69631e-10
-2.85795e-09
1.39491e-10
-2.81384e-09
1.07463e-10
-2.81215e-09
-7.9504e-11
-2.79183e-09
-2.41055e-10
-2.84996e-09
-2.978e-10
-2.6947e-09
-1.13396e-09
-2.26426e-09
-1.33723e-10
-1.9067e-09
-2.24363e-09
-1.65769e-09
-1.55774e-09
-1.02435e-09
-2.55328e-09
-5.03376e-10
-2.81657e-09
-1.00539e-10
-3.22225e-09
5.47018e-10
-3.51701e-09
1.61107e-09
-3.45148e-09
2.49706e-09
-3.15452e-09
3.16525e-09
-2.56317e-09
3.67227e-09
-1.99618e-09
4.0891e-09
-1.81765e-09
4.65158e-09
-2.01664e-09
4.95303e-09
-1.62054e-09
5.03482e-09
-1.18581e-09
5.13601e-09
-9.99374e-10
5.20686e-09
-6.05444e-10
5.3679e-09
-9.08299e-10
5.58189e-09
-7.00668e-10
5.79117e-09
-2.77308e-10
5.863e-09
-1.00738e-10
5.94378e-09
6.68536e-11
5.966e-09
2.88369e-10
6.0645e-09
3.24604e-10
6.07983e-09
3.93539e-10
6.09335e-09
2.74995e-10
6.1218e-09
2.23972e-10
6.12017e-09
2.10848e-10
6.10298e-09
1.56043e-10
6.11324e-09
4.47469e-11
6.1137e-09
3.47292e-11
6.09946e-09
-8.57107e-12
6.07129e-09
-3.8111e-12
6.0499e-09
4.4632e-11
6.06856e-09
3.92308e-11
6.01863e-09
1.24482e-10
5.93575e-09
2.09087e-10
5.91155e-09
2.6504e-10
5.86724e-09
2.20225e-10
5.68559e-09
5.01151e-10
5.62258e-09
4.43877e-10
5.54986e-09
4.35782e-10
5.37996e-09
6.22433e-10
5.198e-09
8.58379e-10
4.95714e-09
1.03368e-09
4.76607e-09
1.03261e-09
4.09756e-09
1.63383e-09
3.57031e-09
1.55776e-09
3.05173e-09
1.98197e-09
2.43925e-09
2.22736e-09
2.27157e-09
2.33496e-09
2.21255e-09
1.65346e-09
1.2891e-09
3.23757e-09
5.18456e-10
3.14782e-09
2.27531e-16
3.14734e-09
-1.11733e-17
2.91256e-18
-7.60429e-18
5.99173e-18
-7.93261e-18
3.58429e-18
-8.20998e-18
1.49826e-18
-8.10682e-18
4.80201e-20
-7.72413e-18
-9.69129e-19
-7.1594e-18
-1.69866e-18
-6.47673e-18
-2.22045e-18
-5.7198e-18
-2.58028e-18
-4.92135e-18
-2.80765e-18
-4.10773e-18
-2.92404e-18
-3.30081e-18
-2.94683e-18
-2.51901e-18
-2.89101e-18
-1.77778e-18
-2.76999e-18
-1.08928e-18
-2.59627e-18
-4.62748e-19
-2.38143e-18
9.46721e-20
-2.13586e-18
5.77868e-19
-1.86885e-18
9.84324e-19
-1.58888e-18
1.31407e-18
-1.30381e-18
1.56872e-18
-1.02057e-18
1.75064e-18
-7.44771e-19
1.86274e-18
-4.80726e-19
1.90881e-18
-2.31681e-19
1.8937e-18
-2.20008e-22
1.82306e-18
2.11512e-19
1.703e-18
4.01765e-19
1.53969e-18
5.69225e-19
1.33929e-18
7.1304e-19
1.10796e-18
8.32779e-19
8.51883e-19
9.28335e-19
5.77326e-19
9.99809e-19
2.90567e-19
1.04739e-18
1.07125e-18
-1.32563e-11
-4.26671e-10
-1.18739e-10
-5.32946e-10
-1.32616e-10
-4.63998e-10
-1.97325e-10
-5.39042e-11
-3.37803e-10
3.80508e-10
-5.51887e-10
6.16078e-10
-6.89328e-10
6.77677e-10
-7.75022e-10
6.99884e-10
-8.08849e-10
5.95451e-10
-9.60304e-10
6.76478e-10
-1.16394e-09
7.7105e-10
-1.36508e-09
8.69366e-10
-1.57359e-09
9.12435e-10
-1.78938e-09
9.26178e-10
-2.02804e-09
9.60857e-10
-2.23075e-09
9.72731e-10
-2.4016e-09
9.27891e-10
-2.55301e-09
8.476e-10
-2.63646e-09
6.31756e-10
-2.70195e-09
6.51126e-10
-2.79482e-09
6.84585e-10
-2.79076e-09
4.4509e-10
-2.77725e-09
3.93819e-10
-2.7752e-09
4.31067e-10
-2.79831e-09
3.92739e-10
-2.72018e-09
6.13645e-11
-2.66861e-09
5.58927e-11
-2.62799e-09
-1.20117e-10
-2.5286e-09
-3.40451e-10
-2.46734e-09
-3.59052e-10
-2.17011e-09
-1.43118e-09
-2.00362e-09
-3.00216e-10
-2.09473e-09
-2.15252e-09
-1.54399e-09
-2.10848e-09
-1.2062e-09
-2.89106e-09
-6.49523e-10
-3.37324e-09
1.34095e-11
-3.88518e-09
6.4382e-10
-4.14741e-09
1.20785e-09
-4.01551e-09
1.80108e-09
-3.74775e-09
2.55427e-09
-3.31636e-09
3.15028e-09
-2.59219e-09
3.47672e-09
-2.14409e-09
3.54538e-09
-2.0853e-09
3.77799e-09
-1.85315e-09
4.03901e-09
-1.44683e-09
4.25075e-09
-1.21112e-09
4.58139e-09
-9.36088e-10
4.58057e-09
-9.07477e-10
4.57472e-09
-6.94821e-10
4.74056e-09
-4.43144e-10
4.87828e-09
-2.38467e-10
5.08623e-09
-1.41093e-10
5.15958e-09
2.15023e-10
5.3279e-09
1.56277e-10
5.33198e-09
3.89463e-10
5.39547e-09
2.11508e-10
5.4105e-09
2.08943e-10
5.47167e-09
1.49676e-10
5.50682e-09
1.20888e-10
5.57697e-09
-2.53995e-11
5.56965e-09
4.20467e-11
5.59429e-09
-3.32093e-11
5.53727e-09
5.32103e-11
5.38615e-09
1.95746e-10
5.47453e-09
-4.91526e-11
5.40815e-09
1.90864e-10
5.30612e-09
3.11119e-10
5.24469e-09
3.26462e-10
5.20665e-09
2.58267e-10
5.07981e-09
6.27992e-10
4.92931e-09
5.94383e-10
4.83031e-09
5.34778e-10
4.69967e-09
7.53071e-10
4.40971e-09
1.14834e-09
4.48869e-09
9.54698e-10
4.24944e-09
1.27186e-09
4.10939e-09
1.77388e-09
3.77429e-09
1.89286e-09
3.46188e-09
2.29439e-09
3.10549e-09
2.58374e-09
2.61713e-09
2.82333e-09
1.4183e-09
2.85229e-09
1.26214e-09
3.39373e-09
7.5983e-10
3.65013e-09
-3.42911e-16
3.90717e-09
-8.09302e-18
1.85374e-17
-1.00106e-17
7.90812e-18
-1.00178e-17
3.59063e-18
-9.6595e-18
1.13897e-18
-9.12388e-18
-4.88647e-19
-8.45366e-18
-1.64019e-18
-7.68119e-18
-2.47156e-18
-6.83657e-18
-3.06483e-18
-5.94717e-18
-3.46865e-18
-5.03774e-18
-3.71533e-18
-4.13053e-18
-3.82899e-18
-3.24498e-18
-3.82963e-18
-2.398e-18
-3.73493e-18
-1.60406e-18
-3.561e-18
-8.74436e-19
-3.32306e-18
-2.17185e-19
-3.03549e-18
3.61686e-19
-2.71137e-18
8.57836e-19
-2.36226e-18
1.26939e-18
-1.99859e-18
1.59732e-18
-1.62994e-18
1.84452e-18
-1.26493e-18
2.01469e-18
-9.10779e-19
2.11178e-18
-5.73103e-19
2.14027e-18
-2.56048e-19
2.10543e-18
3.73204e-20
2.01332e-18
3.04665e-19
1.87046e-18
5.44193e-19
1.6835e-18
7.54607e-19
1.45903e-18
9.35087e-19
1.20351e-18
1.08525e-18
9.23357e-19
1.20504e-18
6.24908e-19
1.29464e-18
3.1443e-19
1.35429e-18
1.38419e-18
-1.85258e-10
-2.41411e-10
-3.32744e-10
-3.85459e-10
-3.8718e-10
-4.0956e-10
-5.33556e-10
9.24723e-11
-5.45835e-10
3.92788e-10
-5.53434e-10
6.23677e-10
-6.13628e-10
7.37873e-10
-8.17634e-10
9.0389e-10
-1.10508e-09
8.82893e-10
-1.11089e-09
6.82288e-10
-1.34201e-09
1.00218e-09
-1.57194e-09
1.09929e-09
-1.84385e-09
1.18434e-09
-2.12539e-09
1.20772e-09
-2.33571e-09
1.17118e-09
-2.43278e-09
1.0698e-09
-2.52062e-09
1.01573e-09
-2.55291e-09
8.79889e-10
-2.55925e-09
6.38092e-10
-2.56802e-09
6.59897e-10
-2.63204e-09
7.48606e-10
-2.62255e-09
4.356e-10
-2.49475e-09
2.6602e-10
-2.47893e-09
4.15244e-10
-2.38937e-09
3.03186e-10
-2.3334e-09
5.39424e-12
-2.18458e-09
-9.2925e-11
-2.05327e-09
-2.51423e-10
-1.92765e-09
-4.66071e-10
-1.60328e-09
-6.83417e-10
-2.16115e-09
-8.73303e-10
-1.21453e-09
-1.24683e-09
-1.2427e-09
-2.12435e-09
-9.37083e-10
-2.41409e-09
-7.82336e-10
-3.04581e-09
-3.88275e-10
-3.7673e-09
7.91484e-11
-4.3526e-09
5.70267e-10
-4.63853e-09
1.052e-09
-4.49724e-09
1.50443e-09
-4.20018e-09
1.98681e-09
-3.79874e-09
2.46883e-09
-3.07421e-09
2.84721e-09
-2.52247e-09
2.9325e-09
-2.1706e-09
3.09479e-09
-2.01544e-09
3.29498e-09
-1.64702e-09
3.56449e-09
-1.48062e-09
3.67536e-09
-1.04696e-09
3.73872e-09
-9.70844e-10
3.81686e-09
-7.72958e-10
3.89734e-09
-5.23631e-10
3.98794e-09
-3.29068e-10
4.15085e-09
-3.03998e-10
4.27613e-09
8.97405e-11
4.52419e-09
-9.17799e-11
4.54361e-09
3.7004e-10
4.68408e-09
7.10361e-11
4.70158e-09
1.91449e-10
4.84599e-09
5.26102e-12
4.916e-09
5.08826e-11
4.95952e-09
-6.89181e-11
4.92014e-09
8.14202e-11
5.0176e-09
-1.30671e-10
4.92223e-09
1.48576e-10
4.86617e-09
2.51805e-10
4.83863e-09
-2.16095e-11
4.66021e-09
3.69284e-10
4.57386e-09
3.97468e-10
4.51936e-09
3.80968e-10
4.50031e-09
2.77313e-10
4.442e-09
6.86298e-10
4.28419e-09
7.52195e-10
4.07907e-09
7.399e-10
3.85889e-09
9.73248e-10
3.67723e-09
1.33001e-09
3.30505e-09
1.32688e-09
2.78593e-09
1.79098e-09
2.39241e-09
2.1674e-09
2.04308e-09
2.24218e-09
1.94043e-09
2.39704e-09
1.95718e-09
2.56699e-09
1.55941e-09
3.22109e-09
9.06936e-10
3.50476e-09
4.67372e-10
3.83329e-09
9.65567e-11
4.02095e-09
-1.3034e-15
4.00373e-09
-1.87193e-17
3.54829e-18
-1.43265e-17
3.51459e-18
-1.24684e-17
1.73343e-18
-1.12863e-17
-4.23515e-20
-1.02753e-17
-1.49896e-18
-9.28502e-18
-2.62949e-18
-8.27446e-18
-3.48071e-18
-7.24039e-18
-4.09685e-18
-6.19384e-18
-4.51232e-18
-5.1514e-18
-4.75417e-18
-4.13117e-18
-4.84515e-18
-3.15028e-18
-4.806e-18
-2.22406e-18
-4.65624e-18
-1.36612e-18
-4.41431e-18
-5.86871e-19
-4.09806e-18
1.06937e-19
-3.7247e-18
7.10794e-19
-3.31015e-18
1.22151e-18
-2.86849e-18
1.63804e-18
-2.4122e-18
1.96233e-18
-1.9525e-18
2.19867e-18
-1.49945e-18
2.35236e-18
-1.06167e-18
2.42884e-18
-6.45944e-19
2.43364e-18
-2.57298e-19
2.37277e-18
1.0072e-19
2.25285e-18
4.25629e-19
2.08087e-18
7.1571e-19
1.86398e-18
9.6983e-19
1.60919e-18
1.18736e-18
1.32331e-18
1.36808e-18
1.01295e-18
1.51213e-18
6.84556e-19
1.61979e-18
3.44335e-19
1.69142e-18
1.7273e-18
-5.57361e-11
-1.85674e-10
-2.63148e-10
-1.78045e-10
-7.15041e-10
4.23335e-11
-9.06058e-10
2.8349e-10
-1.02659e-09
5.13318e-10
-1.06604e-09
6.63131e-10
-1.06082e-09
7.3265e-10
-1.0371e-09
8.80174e-10
-1.22339e-09
1.06919e-09
-1.40318e-09
8.62071e-10
-1.56284e-09
1.16184e-09
-1.87742e-09
1.41388e-09
-2.05571e-09
1.36263e-09
-2.2063e-09
1.35831e-09
-2.33272e-09
1.29759e-09
-2.39352e-09
1.1306e-09
-2.45583e-09
1.07804e-09
-2.4859e-09
9.09962e-10
-2.42646e-09
5.78647e-10
-2.3396e-09
5.73033e-10
-2.24161e-09
6.50617e-10
-2.24458e-09
4.3857e-10
-2.10672e-09
1.28164e-10
-1.93528e-09
2.43807e-10
-1.70494e-09
7.28512e-11
-1.55606e-09
-1.43487e-10
-1.33949e-09
-3.09491e-10
-1.06795e-09
-5.22961e-10
-8.93275e-10
-6.40742e-10
-4.76458e-10
-1.10023e-09
-4.38177e-10
-9.11581e-10
-5.77972e-11
-1.62721e-09
-3.86365e-10
-1.79578e-09
-2.42838e-10
-2.55761e-09
-2.56643e-10
-3.032e-09
-2.34377e-10
-3.78957e-09
-2.94655e-12
-4.58403e-09
3.60555e-10
-5.00203e-09
8.31953e-10
-4.96864e-09
1.30513e-09
-4.67336e-09
1.69841e-09
-4.19201e-09
2.06207e-09
-3.43787e-09
2.29106e-09
-2.75146e-09
2.33663e-09
-2.21617e-09
2.53181e-09
-2.21062e-09
2.78894e-09
-1.90415e-09
2.94833e-09
-1.64001e-09
3.08862e-09
-1.18725e-09
3.10706e-09
-9.89285e-10
3.08817e-09
-7.54073e-10
3.14155e-09
-5.7701e-10
3.25431e-09
-4.41825e-10
3.31619e-09
-3.65884e-10
3.57281e-09
-1.66877e-10
3.70485e-09
-2.23825e-10
3.98887e-09
8.60289e-11
4.07567e-09
-1.57633e-11
4.19266e-09
7.44602e-11
4.22775e-09
-2.98308e-11
4.25263e-09
2.60053e-11
4.21525e-09
-3.15406e-11
4.17893e-09
1.17733e-10
4.20692e-09
-1.58664e-10
4.08586e-09
2.69636e-10
4.16889e-09
1.68777e-10
3.92168e-09
2.25606e-10
3.92225e-09
3.68709e-10
3.79415e-09
5.25565e-10
3.72226e-09
4.52859e-10
3.57387e-09
4.25711e-10
3.46065e-09
7.99517e-10
3.50749e-09
7.05353e-10
3.43123e-09
8.16162e-10
3.23526e-09
1.16921e-09
3.28876e-09
1.27651e-09
3.11314e-09
1.50249e-09
3.0681e-09
1.83602e-09
2.98038e-09
2.25512e-09
2.43758e-09
2.78499e-09
1.97521e-09
2.85941e-09
1.56281e-09
2.97939e-09
1.39166e-09
3.39225e-09
1.12293e-09
3.77349e-09
4.70187e-10
4.48604e-09
1.51771e-10
4.33936e-09
-1.86834e-15
4.1555e-09
-1.87513e-17
-9.42905e-19
-1.61063e-17
8.6989e-19
-1.42432e-17
-1.26923e-19
-1.27422e-17
-1.54085e-18
-1.14057e-17
-2.83314e-18
-1.01362e-17
-3.89647e-18
-8.8906e-18
-4.72366e-18
-7.65586e-18
-5.3285e-18
-6.43569e-18
-5.72877e-18
-5.24238e-18
-5.94315e-18
-4.09202e-18
-5.99094e-18
-3.00052e-18
-5.89257e-18
-1.98214e-18
-5.66909e-18
-1.04987e-18
-5.34131e-18
-2.13509e-19
-4.92979e-18
5.21493e-19
-4.45469e-18
1.15245e-18
-3.93502e-18
1.6778e-18
-3.3877e-18
2.09775e-18
-2.82751e-18
2.41537e-18
-2.26741e-18
2.63645e-18
-1.71879e-18
2.76809e-18
-1.19133e-18
2.81749e-18
-6.92737e-19
2.79166e-18
-2.28726e-19
2.69768e-18
1.96791e-19
2.54293e-18
5.81276e-19
2.33499e-18
9.23189e-19
2.08151e-18
1.2217e-18
1.78991e-18
1.47653e-18
1.46735e-18
1.6878e-18
1.12061e-18
1.8559e-18
7.56187e-19
1.98139e-18
3.80215e-19
2.0648e-18
2.10653e-18
-3.7724e-10
1.91566e-10
-6.23273e-10
6.79889e-11
-8.17915e-10
2.36977e-10
-9.11093e-10
3.76669e-10
-9.65354e-10
5.6758e-10
-1.00475e-09
7.02531e-10
-1.12564e-09
8.53537e-10
-1.16529e-09
9.19825e-10
-1.21953e-09
1.12343e-09
-1.58355e-09
1.22609e-09
-1.77756e-09
1.35585e-09
-1.91864e-09
1.55496e-09
-2.03254e-09
1.47653e-09
-2.14473e-09
1.47049e-09
-2.21477e-09
1.36763e-09
-2.24687e-09
1.16269e-09
-2.25322e-09
1.08439e-09
-2.16619e-09
8.22926e-10
-2.0805e-09
4.92954e-10
-1.92271e-09
4.15245e-10
-1.68022e-09
4.08126e-10
-1.49612e-09
2.54469e-10
-1.38273e-09
1.47747e-11
-1.08796e-09
-5.0964e-11
-8.35188e-10
-1.79915e-10
-6.2949e-10
-3.49183e-10
-4.23686e-10
-5.15293e-10
-2.80789e-10
-6.65855e-10
-1.16138e-10
-8.0539e-10
-1.27495e-10
-1.08887e-09
7.21417e-11
-1.11122e-09
1.82818e-10
-1.73788e-09
4.04e-10
-2.01696e-09
3.67928e-10
-2.52154e-09
3.41918e-10
-3.00599e-09
2.04338e-10
-3.65198e-09
2.36726e-10
-4.61642e-09
4.93224e-10
-5.25853e-09
7.60449e-10
-5.23586e-09
1.07913e-09
-4.99204e-09
1.32729e-09
-4.44017e-09
1.61262e-09
-3.7232e-09
1.89267e-09
-3.03151e-09
2.04128e-09
-2.36478e-09
2.04725e-09
-2.21659e-09
2.27939e-09
-2.13629e-09
2.41056e-09
-1.77119e-09
2.50748e-09
-1.28417e-09
2.50096e-09
-9.82763e-10
2.52238e-09
-7.75493e-10
2.62782e-09
-6.82456e-10
2.73451e-09
-5.48514e-10
2.83007e-09
-4.61438e-10
3.00066e-09
-3.37468e-10
3.06349e-09
-2.86658e-10
3.31767e-09
-1.68143e-10
3.39584e-09
-9.39357e-11
3.48059e-09
-1.02947e-11
3.4795e-09
-2.87341e-11
3.49128e-09
1.4224e-11
3.42976e-09
2.99731e-11
3.41764e-09
1.29855e-10
3.2211e-09
3.78775e-11
3.22343e-09
2.673e-10
3.21425e-09
1.77962e-10
3.08611e-09
3.53743e-10
3.11672e-09
3.38098e-10
3.07837e-09
5.63918e-10
3.03986e-09
4.91367e-10
2.84255e-09
6.23022e-10
2.70741e-09
9.3466e-10
2.5244e-09
8.8836e-10
2.22861e-09
1.11195e-09
2.18721e-09
1.21062e-09
1.92338e-09
1.54033e-09
1.61648e-09
1.8094e-09
1.48614e-09
1.96636e-09
1.6673e-09
2.07395e-09
1.78068e-09
2.67161e-09
1.731e-09
2.90909e-09
1.35519e-09
3.35521e-09
1.17951e-09
3.56793e-09
9.73027e-10
3.97998e-09
7.71753e-10
4.68732e-09
4.03345e-10
4.70778e-09
-1.71566e-15
4.55885e-09
-1.6937e-17
7.8396e-18
-1.71018e-17
1.03614e-18
-1.56561e-17
-1.56879e-18
-1.40337e-17
-3.15976e-18
-1.24689e-17
-4.39497e-18
-1.09634e-17
-5.39894e-18
-9.49545e-18
-6.18862e-18
-8.05614e-18
-6.76473e-18
-6.65006e-18
-7.13142e-18
-5.29017e-18
-7.29917e-18
-3.99365e-18
-7.28376e-18
-2.77703e-18
-7.10542e-18
-1.65437e-18
-6.78717e-18
-6.3834e-19
-6.35279e-18
2.61583e-19
-5.82608e-18
1.04117e-18
-5.23051e-18
1.69977e-18
-4.58835e-18
2.23799e-18
-3.91967e-18
2.65784e-18
-3.2419e-18
2.96399e-18
-2.56996e-18
3.16392e-18
-1.91658e-18
3.26668e-18
-1.29233e-18
3.2815e-18
-7.05512e-19
3.21717e-18
-1.62204e-19
3.08217e-18
3.3357e-19
2.88484e-18
7.79422e-19
2.63351e-18
1.17416e-18
2.33634e-18
1.51744e-18
2.00118e-18
1.8095e-18
1.63545e-18
2.05096e-18
1.2461e-18
2.24267e-18
8.39593e-19
2.38552e-18
4.21943e-19
2.48033e-18
2.5277e-18
-3.10896e-10
5.02462e-10
-6.88327e-10
4.45421e-10
-7.84461e-10
3.33111e-10
-8.54422e-10
4.46631e-10
-8.99351e-10
6.12509e-10
-8.44994e-10
6.48175e-10
-9.32118e-10
9.40662e-10
-1.27149e-09
1.2592e-09
-1.48607e-09
1.33801e-09
-1.66278e-09
1.4028e-09
-1.83478e-09
1.52785e-09
-1.88242e-09
1.6026e-09
-1.96323e-09
1.55735e-09
-2.009e-09
1.51626e-09
-1.97112e-09
1.32976e-09
-1.93859e-09
1.13017e-09
-1.81667e-09
9.62465e-10
-1.63547e-09
6.41732e-10
-1.4964e-09
3.53882e-10
-1.30994e-09
2.28784e-10
-1.05757e-09
1.55761e-10
-8.92363e-10
8.92585e-11
-7.95691e-10
-8.1897e-11
-5.63089e-10
-2.83564e-10
-3.756e-10
-3.67402e-10
-2.14345e-10
-5.10436e-10
-3.01337e-11
-6.99502e-10
2.35317e-10
-9.31304e-10
5.63589e-10
-1.13366e-09
7.53919e-10
-1.2792e-09
1.1313e-09
-1.48859e-09
1.17226e-09
-1.77884e-09
1.27741e-09
-2.12211e-09
1.25973e-09
-2.50386e-09
1.27668e-09
-3.02294e-09
1.1006e-09
-3.47591e-09
7.25129e-10
-4.24095e-09
6.02187e-10
-5.13558e-09
6.87836e-10
-5.32151e-09
6.64284e-10
-4.96848e-09
7.17133e-10
-4.49302e-09
8.79205e-10
-3.88528e-09
1.19219e-09
-3.3445e-09
1.64237e-09
-2.81496e-09
1.75954e-09
-2.33375e-09
1.79617e-09
-2.17293e-09
1.85017e-09
-1.82519e-09
1.93957e-09
-1.37357e-09
1.95479e-09
-9.97983e-10
2.02563e-09
-8.46331e-10
2.15461e-09
-8.1144e-10
2.24253e-09
-6.36435e-10
2.33231e-09
-5.51208e-10
2.388e-09
-3.93166e-10
2.40805e-09
-3.06707e-10
2.48547e-09
-2.45558e-10
2.52975e-09
-1.38217e-10
2.58324e-09
-6.37897e-11
2.58297e-09
-2.84583e-11
2.582e-09
1.5189e-11
2.561e-09
5.09737e-11
2.58825e-09
1.02606e-10
2.4525e-09
1.73628e-10
2.5153e-09
2.045e-10
2.45122e-09
2.42043e-10
2.47844e-09
3.26519e-10
2.41442e-09
4.02119e-10
2.38268e-09
5.95661e-10
2.3397e-09
5.34343e-10
2.24059e-09
7.22131e-10
2.28529e-09
8.8996e-10
2.21869e-09
9.54964e-10
2.16023e-09
1.17041e-09
1.99127e-09
1.37958e-09
1.81983e-09
1.71177e-09
1.82591e-09
1.80332e-09
1.66468e-09
2.1276e-09
1.29388e-09
2.44476e-09
9.3127e-10
3.03422e-09
5.71676e-10
3.26869e-09
4.37117e-10
3.48977e-09
1.62725e-10
3.84232e-09
-1.15309e-10
4.25802e-09
-1.49677e-10
4.72169e-09
-1.35147e-10
4.69325e-09
-9.00304e-16
4.42371e-09
-2.37379e-17
-2.83755e-18
-1.97053e-17
-2.99438e-18
-1.72461e-17
-4.02435e-18
-1.52683e-17
-5.13401e-18
-1.34727e-17
-6.18743e-18
-1.17531e-17
-7.11558e-18
-1.00716e-17
-7.86726e-18
-8.42283e-18
-8.41069e-18
-6.81781e-18
-8.73354e-18
-5.27476e-18
-8.8389e-18
-3.81531e-18
-8.74045e-18
-2.45878e-18
-8.45967e-18
-1.21999e-18
-8.02277e-18
-1.11629e-19
-7.45768e-18
8.57154e-19
-6.79249e-18
1.68333e-18
-6.05466e-18
2.36844e-18
-5.27008e-18
2.91576e-18
-4.46213e-18
3.32978e-18
-3.65111e-18
3.61737e-18
-2.85413e-18
3.78817e-18
-2.08535e-18
3.85349e-18
-1.35613e-18
3.8248e-18
-6.75146e-19
3.71295e-18
-4.84622e-20
3.52802e-18
5.20144e-19
3.27958e-18
1.02875e-18
2.97679e-18
1.47681e-18
2.6284e-18
1.8647e-18
2.24264e-18
2.1934e-18
1.82715e-18
2.46423e-18
1.38895e-18
2.67867e-18
9.34408e-19
2.83811e-18
4.69315e-19
2.94375e-18
2.99647e-18
-2.8316e-10
7.85623e-10
-5.30994e-10
6.93256e-10
-7.61049e-10
5.63167e-10
-8.52561e-10
5.38144e-10
-9.92172e-10
7.52121e-10
-1.12344e-09
7.79439e-10
-1.208e-09
1.02523e-09
-1.35382e-09
1.40502e-09
-1.47182e-09
1.45601e-09
-1.58531e-09
1.5163e-09
-1.69556e-09
1.63809e-09
-1.75478e-09
1.66182e-09
-1.80041e-09
1.60298e-09
-1.75569e-09
1.47154e-09
-1.62152e-09
1.19559e-09
-1.43448e-09
9.43126e-10
-1.19911e-09
7.27091e-10
-1.0264e-09
4.69023e-10
-9.45951e-10
2.73435e-10
-8.79144e-10
1.61977e-10
-7.48092e-10
2.47091e-11
-6.24212e-10
-3.46216e-11
-5.40323e-10
-1.65784e-10
-4.38521e-10
-3.85365e-10
-2.10082e-10
-5.95839e-10
2.08391e-10
-9.28908e-10
6.04036e-10
-1.09515e-09
8.58426e-10
-1.18569e-09
1.15155e-09
-1.42678e-09
1.36795e-09
-1.4956e-09
1.56859e-09
-1.68923e-09
1.62923e-09
-1.83948e-09
1.59001e-09
-2.08289e-09
1.49902e-09
-2.41286e-09
1.29877e-09
-2.82269e-09
1.18021e-09
-3.35734e-09
9.24724e-10
-3.98546e-09
6.54736e-10
-4.86559e-09
5.77553e-10
-5.24433e-09
6.5401e-10
-5.04494e-09
9.02505e-10
-4.74151e-09
1.11573e-09
-4.0985e-09
1.05555e-09
-3.28432e-09
1.06636e-09
-2.82577e-09
1.30514e-09
-2.57253e-09
1.40153e-09
-2.26932e-09
1.35207e-09
-1.77573e-09
1.36858e-09
-1.39007e-09
1.46118e-09
-1.09058e-09
1.53515e-09
-9.20293e-10
1.60196e-09
-8.78253e-10
1.67137e-09
-7.05838e-10
1.68181e-09
-5.6165e-10
1.7144e-09
-4.25751e-10
1.73271e-09
-3.25025e-10
1.73672e-09
-2.49566e-10
1.74712e-09
-1.48619e-10
1.77827e-09
-9.49434e-11
1.80246e-09
-5.26479e-11
1.818e-09
-3.48447e-13
1.85872e-09
1.02501e-11
1.90238e-09
5.89419e-11
1.90805e-09
1.67963e-10
1.91981e-09
1.92736e-10
1.88381e-09
2.7805e-10
1.95633e-09
2.54e-10
1.90123e-09
4.57215e-10
1.86377e-09
6.3312e-10
1.76769e-09
6.30429e-10
1.63687e-09
8.52947e-10
1.49909e-09
1.02774e-09
1.20344e-09
1.25061e-09
1.18524e-09
1.18861e-09
1.11176e-09
1.45306e-09
1.18328e-09
1.64024e-09
8.86637e-10
2.09996e-09
6.75714e-10
2.33852e-09
4.87462e-10
2.63302e-09
2.90017e-10
3.23167e-09
2.83987e-11
3.53032e-09
-1.81009e-10
3.69918e-09
-3.4814e-10
4.00946e-09
-5.82207e-10
4.49209e-09
-6.92031e-10
4.83152e-09
-4.19707e-10
4.42093e-09
1.6785e-16
4.00401e-09
-2.38929e-17
-6.48147e-18
-2.07339e-17
-6.15124e-18
-1.83548e-17
-6.40095e-18
-1.63214e-17
-7.16433e-18
-1.44009e-17
-8.10454e-18
-1.25048e-17
-9.00815e-18
-1.0615e-17
-9.75347e-18
-8.74568e-18
-1.02767e-17
-6.92317e-18
-1.05528e-17
-5.17631e-18
-1.05818e-17
-3.53453e-18
-1.03791e-17
-2.02188e-18
-9.97033e-18
-6.54897e-19
-9.387e-18
5.53556e-19
-8.66282e-18
1.59499e-18
-7.83163e-18
2.46791e-18
-6.92597e-18
3.17638e-18
-5.97598e-18
3.72678e-18
-5.00863e-18
4.12676e-18
-4.04711e-18
4.38616e-18
-3.11076e-18
4.51739e-18
-2.21513e-18
4.53448e-18
-1.3723e-18
4.45149e-18
-5.91011e-19
4.28156e-18
1.22992e-19
4.03663e-18
7.66593e-19
3.72764e-18
1.33874e-18
3.36468e-18
1.83989e-18
2.9571e-18
2.27148e-18
2.51348e-18