/*--------------------------------*- C++ -*----------------------------------*\
  =========                 |
  \\      /  F ield         | OpenFOAM: The Open Source CFD Toolbox
   \\    /   O peration     | Website:  https://openfoam.org
    \\  /    A nd           | Version:  6
     \\/     M anipulation  |
\*---------------------------------------------------------------------------*/
FoamFile
{
    version     2.0;
    format      ascii;
    class       volScalarField;
    location    "4400";
    object      T;
}
// * * * * * * * * * * * * * * * * * * * * * * * * * * * * * * * * * * * * * //

dimensions      [0 0 0 1 0 0 0];

internalField   nonuniform List<scalar> 
4800
(
552.496
552.388
552.281
552.173
552.064
551.955
551.846
551.738
551.632
551.529
551.428
551.332
551.238
551.149
551.064
550.983
550.906
550.833
550.764
550.698
550.635
550.574
550.515
550.458
550.403
550.349
550.297
550.245
550.196
550.147
550.1
550.053
550.009
549.966
549.925
549.886
549.849
549.814
549.781
549.749
549.719
549.691
549.664
549.639
549.615
549.592
549.571
549.551
549.532
549.513
549.495
549.477
549.459
549.441
549.422
549.403
549.383
549.362
549.341
549.319
549.297
549.275
549.251
549.227
549.202
549.176
549.148
549.118
549.085
549.049
549.009
548.962
548.908
548.844
548.767
548.673
548.557
548.414
548.236
548.017
547.748
547.422
547.036
546.589
546.085
545.533
544.945
544.879
544.783
544.663
544.529
544.386
544.238
544.088
543.937
543.788
543.64
543.493
543.348
543.205
543.064
542.924
542.787
542.65
542.516
542.383
542.251
542.12
541.99
541.862
541.734
541.607
541.481
541.356
541.231
541.106
540.982
540.859
540.735
540.612
552.496
552.388
552.279
552.171
552.062
551.953
551.844
551.736
551.63
551.526
551.426
551.33
551.237
551.148
551.064
550.984
550.907
550.835
550.766
550.701
550.638
550.578
550.52
550.463
550.408
550.354
550.301
550.25
550.2
550.15
550.102
550.055
550.009
549.965
549.922
549.881
549.841
549.805
549.77
549.737
549.706
549.677
549.649
549.624
549.599
549.577
549.556
549.536
549.517
549.499
549.481
549.464
549.446
549.428
549.409
549.39
549.37
549.349
549.328
549.306
549.284
549.261
549.238
549.214
549.188
549.162
549.134
549.103
549.07
549.034
548.992
548.945
548.89
548.825
548.748
548.653
548.537
548.393
548.216
547.997
547.73
547.408
547.028
546.59
546.097
545.559
544.974
544.911
544.807
544.679
544.538
544.391
544.24
544.089
543.937
543.787
543.638
543.492
543.347
543.204
543.062
542.923
542.785
542.649
542.515
542.382
542.25
542.119
541.989
541.861
541.733
541.607
541.481
541.355
541.23
541.106
540.982
540.858
540.735
540.612
552.495
552.386
552.277
552.167
552.057
551.947
551.838
551.731
551.626
551.523
551.424
551.328
551.236
551.148
551.065
550.986
550.911
550.84
550.772
550.708
550.646
550.587
550.529
550.473
550.419
550.365
550.312
550.26
550.209
550.159
550.109
550.059
550.011
549.963
549.917
549.871
549.828
549.787
549.749
549.713
549.68
549.65
549.621
549.595
549.57
549.548
549.526
549.507
549.488
549.47
549.453
549.436
549.419
549.402
549.383
549.364
549.345
549.324
549.303
549.281
549.258
549.235
549.211
549.187
549.161
549.134
549.105
549.074
549.04
549.003
548.96
548.912
548.856
548.79
548.71
548.614
548.496
548.352
548.174
547.957
547.694
547.38
547.015
546.6
546.136
545.626
545.063
544.985
544.855
544.708
544.555
544.4
544.244
544.09
543.936
543.785
543.636
543.489
543.344
543.201
543.059
542.92
542.783
542.647
542.512
542.38
542.248
542.117
541.988
541.86
541.732
541.606
541.48
541.354
541.23
541.105
540.982
540.858
540.735
540.612
552.494
552.383
552.272
552.161
552.051
551.941
551.832
551.725
551.621
551.52
551.422
551.328
551.237
551.151
551.07
550.992
550.919
550.85
550.785
550.722
550.662
550.604
550.547
550.492
550.438
550.385
550.332
550.279
550.227
550.174
550.121
550.069
550.016
549.964
549.912
549.861
549.812
549.765
549.722
549.682
549.646
549.613
549.582
549.554
549.529
549.506
549.485
549.465
549.446
549.429
549.413
549.396
549.38
549.363
549.345
549.327
549.307
549.286
549.265
549.243
549.22
549.196
549.172
549.147
549.121
549.093
549.063
549.031
548.996
548.957
548.914
548.863
548.805
548.737
548.656
548.558
548.438
548.292
548.113
547.897
547.638
547.333
546.983
546.591
546.165
545.73
545.341
545.11
544.92
544.744
544.575
544.41
544.248
544.09
543.934
543.782
543.632
543.484
543.339
543.196
543.055
542.916
542.779
542.643
542.509
542.376
542.245
542.115
541.986
541.858
541.73
541.604
541.478
541.353
541.229
541.105
540.981
540.858
540.735
540.611
552.493
552.38
552.267
552.156
552.045
551.935
551.827
551.722
551.619
551.519
551.423
551.33
551.242
551.158
551.079
551.004
550.934
550.867
550.804
550.744
550.686
550.629
550.575
550.52
550.467
550.414
550.361
550.307
550.253
550.198
550.142
550.085
550.028
549.969
549.911
549.852
549.795
549.741
549.69
549.645
549.604
549.567
549.534
549.504
549.477
549.454
549.432
549.413
549.394
549.377
549.361
549.346
549.33
549.313
549.296
549.278
549.258
549.237
549.216
549.193
549.17
549.146
549.121
549.095
549.068
549.039
549.008
548.975
548.938
548.897
548.852
548.8
548.739
548.668
548.584
548.483
548.362
548.215
548.037
547.824
547.571
547.277
546.94
546.571
546.183
545.8
545.461
545.195
544.973
544.775
544.591
544.417
544.249
544.087
543.93
543.776
543.625
543.478
543.332
543.19
543.049
542.91
542.774
542.638
542.505
542.372
542.241
542.111
541.983
541.855
541.728
541.602
541.476
541.352
541.227
541.104
540.98
540.857
540.734
540.611
552.492
552.378
552.263
552.151
552.04
551.931
551.825
551.721
551.62
551.522
551.428
551.338
551.252
551.171
551.095
551.023
550.956
550.893
550.833
550.775
550.719
550.665
550.612
550.559
550.506
550.453
550.4
550.345
550.289
550.231
550.172
550.11
550.047
549.981
549.914
549.847
549.781
549.717
549.658
549.604
549.557
549.516
549.48
549.447
549.418
549.393
549.371
549.352
549.334
549.317
549.301
549.285
549.269
549.253
549.236
549.218
549.198
549.177
549.155
549.133
549.109
549.084
549.058
549.031
549.003
548.973
548.941
548.906
548.867
548.824
548.777
548.722
548.658
548.584
548.497
548.392
548.268
548.119
547.94
547.728
547.482
547.199
546.879
546.532
546.174
545.825
545.509
545.238
545.001
544.791
544.598
544.417
544.246
544.081
543.922
543.767
543.617
543.469
543.324
543.182
543.042
542.903
542.767
542.632
542.499
542.367
542.237
542.107
541.979
541.852
541.725
541.599
541.474
541.35
541.226
541.102
540.979
540.856
540.734
540.611
552.492
552.376
552.261
552.148
552.038
551.93
551.825
551.723
551.624
551.529
551.437
551.35
551.268
551.191
551.118
551.051
550.988
550.928
550.871
550.816
550.763
550.711
550.66
550.608
550.556
550.503
550.449
550.393
550.335
550.274
550.21
550.143
550.073
549.999
549.923
549.845
549.768
549.693
549.624
549.562
549.508
549.461
549.42
549.385
549.353
549.327
549.304
549.284
549.265
549.248
549.232
549.216
549.2
549.184
549.166
549.148
549.128
549.108
549.085
549.062
549.037
549.012
548.985
548.957
548.928
548.896
548.862
548.825
548.784
548.739
548.688
548.63
548.563
548.486
548.396
548.289
548.162
548.012
547.834
547.624
547.382
547.109
546.806
546.481
546.145
545.817
545.514
545.244
545.005
544.789
544.592
544.409
544.236
544.07
543.91
543.756
543.605
543.458
543.314
543.172
543.032
542.895
542.759
542.625
542.492
542.361
542.231
542.102
541.975
541.848
541.722
541.596
541.472
541.348
541.224
541.101
540.978
540.856
540.733
540.611
552.492
552.376
552.261
552.149
552.04
551.934
551.831
551.731
551.634
551.542
551.453
551.37
551.291
551.218
551.151
551.087
551.028
550.972
550.919
550.867
550.816
550.766
550.717
550.666
550.614
550.562
550.506
550.448
550.387
550.323
550.253
550.181
550.103
550.021
549.935
549.847
549.758
549.672
549.592
549.52
549.457
549.403
549.357
549.318
549.284
549.255
549.231
549.21
549.191
549.174
549.157
549.141
549.124
549.107
549.089
549.071
549.051
549.029
549.006
548.982
548.957
548.93
548.902
548.873
548.842
548.808
548.773
548.734
548.69
548.642
548.589
548.527
548.457
548.376
548.282
548.171
548.041
547.889
547.712
547.505
547.268
547.003
546.714
546.407
546.091
545.78
545.484
545.221
544.984
544.77
544.574
544.391
544.218
544.053
543.894
543.74
543.591
543.444
543.301
543.16
543.021
542.885
542.75
542.617
542.485
542.354
542.225
542.097
541.969
541.843
541.718
541.593
541.469
541.345
541.222
541.099
540.977
540.855
540.733
540.611
552.492
552.378
552.265
552.154
552.047
551.943
551.842
551.744
551.65
551.56
551.476
551.396
551.323
551.255
551.191
551.133
551.078
551.026
550.976
550.927
550.878
550.83
550.781
550.731
550.68
550.627
550.57
550.51
550.445
550.376
550.302
550.222
550.137
550.046
549.95
549.85
549.749
549.651
549.559
549.476
549.405
549.343
549.292
549.249
549.212
549.18
549.154
549.132
549.112
549.094
549.076
549.059
549.042
549.024
549.006
548.986
548.966
548.943
548.92
548.894
548.868
548.84
548.811
548.78
548.746
548.711
548.673
548.632
548.586
548.536
548.479
548.415
548.341
548.257
548.159
548.045
547.912
547.757
547.577
547.37
547.136
546.876
546.596
546.303
546.003
545.708
545.423
545.169
544.942
544.734
544.543
544.364
544.194
544.031
543.874
543.722
543.573
543.428
543.286
543.146
543.009
542.873
542.739
542.607
542.476
542.346
542.218
542.09
541.964
541.838
541.713
541.589
541.465
541.342
541.219
541.097
540.975
540.854
540.732
540.611
552.494
552.381
552.271
552.163
552.058
551.956
551.857
551.762
551.672
551.586
551.506
551.431
551.362
551.299
551.241
551.187
551.136
551.088
551.041
550.994
550.947
550.9
550.852
550.803
550.751
550.697
550.639
550.576
550.507
550.433
550.352
550.265
550.17
550.069
549.963
549.852
549.74
549.629
549.526
549.433
549.353
549.284
549.226
549.178
549.137
549.103
549.074
549.051
549.03
549.01
548.992
548.973
548.955
548.937
548.917
548.897
548.875
548.851
548.827
548.8
548.772
548.743
548.711
548.678
548.643
548.606
548.566
548.522
548.474
548.42
548.36
548.293
548.215
548.127
548.026
547.908
547.772
547.614
547.433
547.225
546.992
546.735
546.46
546.173
545.884
545.602
545.33
545.092
544.878
544.683
544.5
544.327
544.162
544.003
543.849
543.699
543.553
543.41
543.269
543.131
542.995
542.861
542.728
542.596
542.467
542.338
542.21
542.083
541.958
541.832
541.708
541.585
541.461
541.339
541.217
541.095
540.974
540.852
540.731
540.61
552.495
552.387
552.28
552.175
552.072
551.973
551.878
551.786
551.7
551.618
551.543
551.473
551.409
551.351
551.298
551.249
551.202
551.156
551.112
551.067
551.022
550.975
550.928
550.879
550.828
550.772
550.711
550.644
550.57
550.49
550.401
550.305
550.202
550.091
549.973
549.851
549.727
549.606
549.492
549.39
549.3
549.224
549.16
549.106
549.061
549.024
548.993
548.967
548.945
548.924
548.904
548.885
548.865
548.846
548.825
548.803
548.78
548.755
548.728
548.7
548.67
548.639
548.605
548.57
548.532
548.492
548.45
548.404
548.352
548.296
548.233
548.163
548.082
547.991
547.885
547.765
547.626
547.466
547.283
547.074
546.839
546.581
546.304
546.017
545.73
545.457
545.205
544.99
544.797
544.618
544.447
544.283
544.125
543.971
543.82
543.674
543.53
543.389
543.251
543.114
542.979
542.846
542.715
542.585
542.456
542.328
542.202
542.076
541.951
541.826
541.703
541.58
541.457
541.336
541.214
541.093
540.972
540.851
540.731
540.61
552.498
552.393
552.29
552.189
552.091
551.995
551.904
551.816
551.734
551.657
551.586
551.522
551.463
551.411
551.362
551.317
551.273
551.231
551.188
551.145
551.101
551.056
551.009
550.96
550.908
550.85
550.786
550.714
550.634
550.546
550.449
550.344
550.23
550.109
549.981
549.848
549.714
549.582
549.458
549.346
549.247
549.164
549.093
549.035
548.986
548.945
548.911
548.883
548.858
548.836
548.815
548.794
548.773
548.752
548.73
548.706
548.681
548.654
548.625
548.595
548.563
548.529
548.493
548.455
548.414
548.371
548.326
548.277
548.223
548.164
548.098
548.025
547.941
547.847
547.739
547.616
547.475
547.313
547.128
546.917
546.68
546.417
546.132
545.831
545.528
545.257
545.043
544.867
544.703
544.544
544.388
544.234
544.083
543.935
543.789
543.646
543.505
543.367
543.23
543.096
542.963
542.831
542.701
542.572
542.445
542.318
542.192
542.067
541.943
541.82
541.697
541.575
541.453
541.332
541.211
541.09
540.97
540.85
540.73
540.61
552.5
552.401
552.302
552.206
552.112
552.021
551.934
551.851
551.773
551.702
551.636
551.577
551.524
551.476
551.432
551.39
551.35
551.31
551.269
551.228
551.185
551.141
551.095
551.046
550.991
550.93
550.861
550.783
550.696
550.6
550.494
550.379
550.255
550.124
549.985
549.842
549.698
549.556
549.423
549.301
549.195
549.104
549.028
548.964
548.911
548.867
548.83
548.799
548.772
548.748
548.725
548.703
548.68
548.657
548.633
548.607
548.58
548.55
548.519
548.486
548.451
548.415
548.376
548.334
548.29
548.244
548.195
548.143
548.085
548.023
547.954
547.878
547.793
547.697
547.588
547.463
547.32
547.158
546.973
546.76
546.521
546.251
545.954
545.629
545.281
544.966
544.845
544.732
544.605
544.469
544.327
544.183
544.039
543.896
543.755
543.616
543.478
543.342
543.208
543.076
542.945
542.815
542.686
542.559
542.433
542.307
542.183
542.059
541.936
541.813
541.691
541.57
541.449
541.328
541.208
541.088
540.968
540.848
540.729
540.61
552.503
552.409
552.316
552.225
552.136
552.05
551.968
551.89
551.817
551.751
551.691
551.637
551.589
551.546
551.506
551.468
551.431
551.393
551.355
551.315
551.273
551.229
551.182
551.131
551.073
551.008
550.933
550.849
550.754
550.65
550.535
550.41
550.276
550.134
549.985
549.832
549.679
549.528
549.386
549.256
549.142
549.045
548.963
548.895
548.838
548.79
548.75
548.716
548.687
548.66
548.635
548.611
548.586
548.561
548.535
548.506
548.476
548.444
548.41
548.373
548.335
548.295
548.252
548.207
548.16
548.11
548.058
548.002
547.941
547.875
547.803
547.724
547.637
547.54
547.431
547.307
547.163
547
546.816
546.606
546.367
546.097
545.795
545.453
545.024
544.475
544.644
544.614
544.518
544.398
544.267
544.131
543.994
543.857
543.72
543.584
543.45
543.317
543.185
543.055
542.926
542.798
542.671
542.545
542.42
542.296
542.173
542.05
541.928
541.806
541.685
541.564
541.444
541.324
541.204
541.085
540.966
540.847
540.728
540.609
552.506
552.418
552.331
552.246
552.163
552.082
552.005
551.933
551.866
551.805
551.75
551.702
551.659
551.62
551.584
551.55
551.515
551.48
551.443
551.404
551.362
551.317
551.268
551.213
551.151
551.08
550.999
550.908
550.805
550.692
550.569
550.435
550.291
550.14
549.981
549.819
549.656
549.497
549.347
549.211
549.091
548.988
548.901
548.828
548.767
548.716
548.673
548.636
548.604
548.575
548.547
548.52
548.493
548.465
548.435
548.404
548.371
548.335
548.297
548.257
548.215
548.171
548.124
548.075
548.024
547.97
547.914
547.854
547.789
547.72
547.645
547.564
547.476
547.378
547.269
547.147
547.006
546.845
546.662
546.457
546.225
545.963
545.676
545.365
545.041
544.743
544.651
544.563
544.458
544.339
544.213
544.082
543.95
543.816
543.684
543.552
543.42
543.29
543.161
543.033
542.906
542.78
542.655
542.531
542.407
542.284
542.162
542.04
541.919
541.799
541.678
541.559
541.439
541.32
541.201
541.082
540.964
540.845
540.727
540.609
552.509
552.427
552.347
552.268
552.191
552.117
552.046
551.979
551.918
551.862
551.813
551.77
551.732
551.697
551.665
551.633
551.601
551.568
551.531
551.492
551.449
551.402
551.349
551.29
551.222
551.144
551.056
550.957
550.848
550.727
550.595
550.452
550.3
550.139
549.973
549.803
549.632
549.467
549.31
549.168
549.043
548.935
548.843
548.766
548.701
548.646
548.6
548.56
548.525
548.492
548.461
548.431
548.4
548.369
548.336
548.3
548.263
548.224
548.182
548.137
548.091
548.042
547.991
547.937
547.881
547.823
547.762
547.699
547.631
547.559
547.481
547.399
547.31
547.213
547.106
546.987
546.852
546.695
546.518
546.32
546.097
545.849
545.582
545.306
545.041
544.812
544.659
544.532
544.411
544.288
544.162
544.035
543.906
543.776
543.647
543.518
543.39
543.263
543.136
543.011
542.886
542.762
542.638
542.516
542.394
542.272
542.151
542.031
541.911
541.791
541.672
541.553
541.434
541.316
541.197
541.08
540.962
540.844
540.726
540.609
552.512
552.438
552.364
552.292
552.221
552.154
552.089
552.028
551.972
551.922
551.878
551.84
551.806
551.776
551.747
551.718
551.687
551.655
551.618
551.578
551.532
551.481
551.423
551.357
551.283
551.198
551.103
550.996
550.879
550.75
550.611
550.461
550.301
550.133
549.96
549.783
549.608
549.436
549.275
549.128
548.998
548.886
548.79
548.708
548.64
548.582
548.532
548.489
548.45
548.413
548.378
548.344
548.309
548.273
548.235
548.195
548.153
548.109
548.061
548.012
547.96
547.906
547.85
547.791
547.731
547.668
547.604
547.537
547.466
547.392
547.313
547.23
547.142
547.048
546.944
546.829
546.7
546.552
546.383
546.193
545.98
545.747
545.498
545.246
545.009
544.806
544.64
544.498
544.367
544.24
544.115
543.989
543.862
543.736
543.61
543.485
543.359
543.235
543.111
542.988
542.865
542.743
542.621
542.5
542.38
542.26
542.14
542.021
541.902
541.783
541.665
541.547
541.429
541.311
541.194
541.077
540.959
540.842
540.725
540.608
552.516
552.448
552.382
552.317
552.254
552.192
552.134
552.079
552.029
551.985
551.946
551.912
551.883
551.856
551.829
551.802
551.771
551.738
551.7
551.657
551.607
551.551
551.486
551.414
551.331
551.238
551.135
551.021
550.897
550.762
550.616
550.46
550.294
550.122
549.943
549.762
549.582
549.407
549.242
549.092
548.959
548.843
548.744
548.659
548.587
548.524
548.47
548.423
548.379
548.338
548.298
548.258
548.218
548.176
548.132
548.087
548.039
547.989
547.936
547.881
547.824
547.765
547.703
547.639
547.574
547.508
547.44
547.371
547.298
547.222
547.143
547.062
546.977
546.887
546.788
546.68
546.558
546.418
546.257
546.075
545.872
545.649
545.411
545.172
544.947
544.757
544.594
544.451
544.319
544.192
544.067
543.943
543.82
543.696
543.573
543.451
543.328
543.207
543.085
542.964
542.844
542.724
542.604
542.485
542.366
542.247
542.129
542.011
541.893
541.776
541.658
541.541
541.424
541.307
541.19
541.074
540.957
540.841
540.724
540.608
552.52
552.46
552.401
552.343
552.287
552.233
552.181
552.132
552.088
552.049
552.015
551.985
551.959
551.934
551.909
551.882
551.851
551.816
551.775
551.727
551.672
551.608
551.536
551.455
551.364
551.263
551.152
551.031
550.901
550.76
550.609
550.449
550.281
550.105
549.925
549.741
549.559
549.382
549.216
549.064
548.928
548.809
548.706
548.617
548.541
548.474
548.415
548.362
548.312
548.265
548.219
548.173
548.126
548.077
548.027
547.975
547.921
547.864
547.805
547.745
547.682
547.617
547.551
547.483
547.414
547.345
547.275
547.204
547.132
547.057
546.98
546.902
546.821
546.738
546.646
546.545
546.429
546.295
546.138
545.959
545.759
545.538
545.3
545.06
544.84
544.669
544.521
544.388
544.262
544.14
544.018
543.897
543.777
543.656
543.536
543.417
543.297
543.178
543.06
542.941
542.823
542.705
542.587
542.469
542.352
542.235
542.118
542.001
541.884
541.768
541.651
541.535
541.419
541.303
541.187
541.071
540.955
540.839
540.724
540.608
552.524
552.472
552.422
552.372
552.322
552.275
552.229
552.186
552.148
552.113
552.083
552.057
552.034
552.01
551.984
551.956
551.923
551.884
551.838
551.784
551.722
551.65
551.569
551.479
551.379
551.27
551.151
551.024
550.888
550.744
550.591
550.43
550.261
550.085
549.905
549.722
549.54
549.364
549.198
549.045
548.907
548.785
548.678
548.585
548.503
548.43
548.365
548.305
548.248
548.193
548.139
548.085
548.03
547.974
547.916
547.857
547.797
547.734
547.67
547.605
547.538
547.469
547.4
547.33
547.26
547.19
547.12
547.05
546.978
546.906
546.833
546.761
546.687
546.61
546.526
546.429
546.315
546.177
546.015
545.827
545.617
545.388
545.141
544.886
544.664
544.53
544.417
544.308
544.196
544.083
543.967
543.851
543.733
543.616
543.499
543.383
543.266
543.15
543.034
542.918
542.802
542.686
542.57
542.454
542.338
542.223
542.107
541.991
541.876
541.76
541.645
541.529
541.414
541.299
541.183
541.068
540.953
540.838
540.723
540.608
552.528
552.486
552.443
552.401
552.359
552.319
552.279
552.242
552.208
552.178
552.151
552.127
552.104
552.08
552.053
552.022
551.985
551.941
551.888
551.826
551.755
551.674
551.584
551.485
551.377
551.26
551.134
551.001
550.861
550.715
550.562
550.402
550.236
550.063
549.886
549.706
549.528
549.354
549.188
549.033
548.893
548.767
548.656
548.557
548.469
548.389
548.316
548.247
548.181
548.117
548.053
547.991
547.928
547.865
547.801
547.736
547.67
547.604
547.538
547.472
547.404
547.336
547.268
547.2
547.132
547.064
546.995
546.926
546.855
546.785
546.717
546.652
546.586
546.516
546.435
546.336
546.209
546.049
545.857
545.638
545.403
545.153
544.895
544.618
544.371
544.331
544.283
544.211
544.122
544.022
543.915
543.803
543.69
543.576
543.462
543.349
543.235
543.122
543.008
542.895
542.781
542.667
542.553
542.439
542.325
542.21
542.096
541.982
541.867
541.753
541.638
541.524
541.409
541.295
541.18
541.065
540.951
540.836
540.722
540.607
552.533
552.5
552.466
552.432
552.398
552.364
552.33
552.298
552.269
552.242
552.217
552.194
552.17
552.144
552.114
552.079
552.036
551.985
551.924
551.853
551.772
551.682
551.583
551.475
551.359
551.235
551.104
550.967
550.825
550.678
550.527
550.37
550.208
550.041
549.869
549.695
549.52
549.349
549.184
549.029
548.887
548.756
548.638
548.532
548.435
548.346
548.262
548.182
548.105
548.03
547.956
547.885
547.816
547.749
547.682
547.616
547.551
547.488
547.427
547.367
547.307
547.248
547.187
547.126
547.063
546.998
546.928
546.855
546.781
546.709
546.645
546.587
546.529
546.464
546.383
546.266
546.101
545.879
545.618
545.331
545.048
544.773
544.535
544.255
543.853
544.101
544.139
544.107
544.043
543.958
543.86
543.755
543.646
543.536
543.425
543.315
543.204
543.094
542.983
542.872
542.76
542.649
542.537
542.424
542.312
542.199
542.086
541.972
541.859
541.746
541.632
541.518
541.404
541.291
541.177
541.063
540.949
540.835
540.721
540.607
552.538
552.514
552.489
552.464
552.437
552.409
552.381
552.353
552.327
552.302
552.278
552.255
552.23
552.201
552.167
552.127
552.078
552.019
551.949
551.869
551.779
551.679
551.571
551.455
551.332
551.203
551.068
550.928
550.785
550.639
550.49
550.337
550.181
550.02
549.856
549.689
549.52
549.352
549.188
549.03
548.881
548.743
548.615
548.499
548.391
548.29
548.193
548.1
548.01
547.923
547.84
547.764
547.694
547.631
547.571
547.515
547.462
547.416
547.374
547.336
547.297
547.256
547.21
547.158
547.097
547.027
546.945
546.854
546.762
546.68
546.616
546.566
546.518
546.463
546.385
546.228
545.98
545.629
545.242
544.837
544.505
544.219
544.117
543.981
544.085
544.049
544.04
544.014
543.965
543.894
543.805
543.707
543.603
543.496
543.389
543.282
543.174
543.066
542.958
542.85
542.74
542.631
542.521
542.41
542.299
542.187
542.076
541.964
541.851
541.739
541.626
541.513
541.4
541.287
541.174
541.06
540.947
540.834
540.72
540.607
552.542
552.527
552.51
552.493
552.473
552.451
552.428
552.405
552.381
552.358
552.335
552.31
552.284
552.254
552.217
552.173
552.118
552.052
551.974
551.884
551.784
551.675
551.558
551.434
551.304
551.17
551.031
550.888
550.745
550.6
550.454
550.307
550.156
550.003
549.847
549.686
549.523
549.359
549.193
549.03
548.87
548.719
548.578
548.449
548.328
548.211
548.097
547.987
547.884
547.788
547.702
547.629
547.573
547.531
547.5
547.475
547.46
547.455
547.456
547.459
547.454
547.434
547.399
547.344
547.265
547.163
547.036
546.898
546.766
546.665
546.6
546.558
546.526
546.523
546.504
546.247
545.821
545.227
544.674
544.098
543.801
543.454
543.822
543.612
544.092
543.996
543.957
543.932
543.893
543.832
543.751
543.659
543.559
543.457
543.353
543.249
543.144
543.04
542.934
542.828
542.721
542.614
542.505
542.396
542.287
542.177
542.066
541.955
541.844
541.732
541.62
541.508
541.396
541.283
541.171
541.058
540.945
540.832
540.719
540.606
552.545
552.534
552.523
552.512
552.498
552.482
552.465
552.446
552.426
552.406
552.385
552.362
552.338
552.309
552.274
552.23
552.172
552.099
552.013
551.915
551.804
551.684
551.557
551.426
551.289
551.147
551.003
550.859
550.715
550.572
550.429
550.285
550.14
549.992
549.84
549.684
549.524
549.358
549.188
549.013
548.838
548.668
548.509
548.368
548.235
548.1
547.966
547.839
547.726
547.631
547.556
547.508
547.492
547.504
547.54
547.59
547.655
547.729
547.802
547.856
547.876
547.854
547.792
547.687
547.533
547.343
547.113
546.879
546.683
546.568
546.52
546.465
546.449
546.639
546.883
546.306
545.496
544.413
543.955
543.376
543.623
542.878
543.289
542.147
544.135
543.992
543.895
543.864
543.829
543.774
543.699
543.611
543.516
543.417
543.317
543.217
543.116
543.014
542.911
542.808
542.703
542.598
542.491
542.384
542.276
542.167
542.057
541.948
541.837
541.726
541.615
541.504
541.392
541.28
541.168
541.056
540.944
540.831
540.719
540.606
552.543
552.529
552.517
552.507
552.498
552.488
552.478
552.467
552.456
552.444
552.431
552.418
552.403
552.384
552.357
552.318
552.258
552.18
552.09
551.983
551.86
551.728
551.591
551.45
551.304
551.155
551.008
550.864
550.719
550.578
550.436
550.293
550.148
549.998
549.843
549.682
549.516
549.345
549.164
548.971
548.771
548.573
548.391
548.237
548.107
547.958
547.804
547.665
547.558
547.491
547.458
547.471
547.542
547.659
547.809
547.998
548.205
548.398
548.551
548.619
548.588
548.466
548.269
547.999
547.661
547.326
546.934
546.537
546.268
546.224
546.321
546.13
546.144
546.242
546.27
545.426
544.586
543.989
543.821
543.25
543.176
543.018
542.797
542.371
543.654
543.86
543.828
543.807
543.774
543.72
543.649
543.564
543.473
543.379
543.283
543.186
543.088
542.989
542.89
542.788
542.686
542.583
542.478
542.372
542.265
542.158
542.049
541.941
541.831
541.721
541.611
541.5
541.389
541.277
541.166
541.054
540.942
540.83
540.718
540.606
552.532
552.499
552.474
552.459
552.452
552.451
552.454
552.46
552.468
552.477
552.486
552.494
552.5
552.502
552.493
552.464
552.402
552.321
552.228
552.116
551.984
551.846
551.705
551.557
551.397
551.235
551.085
550.952
550.812
550.678
550.532
550.382
550.223
550.054
549.875
549.69
549.502
549.311
549.107
548.883
548.646
548.407
548.191
548.025
547.928
547.777
547.608
547.471
547.412
547.443
547.501
547.639
547.861
548.133
548.432
548.822
549.205
549.506
549.68
549.561
549.311
549.065
548.598
547.88
547.166
546.756
546.162
545.654
545.649
545.928
545.631
545.651
545.61
545.781
545.457
545.282
544.742
544.137
543.795
543.276
542.994
542.707
542.386
542.223
542.792
543.664
543.785
543.765
543.726
543.671
543.6
543.519
543.432
543.341
543.249
543.156
543.062
542.966
542.869
542.771
542.671
542.569
542.466
542.362
542.256
542.15
542.042
541.934
541.826
541.716
541.606
541.496
541.386
541.275
541.164
541.052
540.941
540.829
540.718
540.606
552.509
552.434
552.377
552.346
552.339
552.352
552.381
552.423
552.474
552.526
552.575
552.62
552.66
552.695
552.71
552.692
552.631
552.55
552.461
552.354
552.226
552.098
551.97
551.818
551.632
551.442
551.278
551.171
551.048
550.931
550.775
550.599
550.402
550.17
549.921
549.673
549.428
549.193
548.938
548.651
548.365
548.076
547.826
547.617
547.487
547.346
547.232
547.246
547.346
547.593
547.785
547.962
548.365
548.813
549.324
549.972
550.681
551.165
551.121
550.33
549.574
549.328
549.008
547.586
546.897
546.887
546.468
545.676
545.972
546.036
545.617
545.499
545.596
545.594
545.489
545.184
544.694
544.111
543.663
543.15
542.761
542.404
542.209
542.224
542.589
543.528
543.74
543.722
543.68
543.623
543.553
543.474
543.391
543.305
543.217
543.128
543.037
542.945
542.851
542.755
542.657
542.557
542.456
542.352
542.248
542.143
542.036
541.929
541.821
541.712
541.603
541.493
541.383
541.273
541.162
541.051
540.94
540.829
540.717
540.606
552.477
552.336
552.227
552.168
552.165
552.206
552.278
552.386
552.517
552.647
552.758
552.85
552.925
552.993
553.026
553.017
552.963
552.891
552.805
552.716
552.61
552.502
552.41
552.243
552.004
551.782
551.645
551.532
551.395
551.248
551.054
550.833
550.547
550.172
549.791
549.421
549.073
548.754
548.396
548.012
547.66
547.339
547.062
546.876
546.754
546.724
546.871
547.178
547.78
548.063
548.348
548.905
549.902
550.517
550.824
551.352
551.749
551.605
551.407
551.169
550.418
549.785
549.621
548.729
548.017
547.656
547.397
546.8
546.639
546.449
546.167
545.964
545.928
545.833
545.62
545.255
544.799
544.289
543.789
543.273
542.839
542.516
542.385
542.741
543.246
543.535
543.7
543.687
543.629
543.573
543.507
543.43
543.352
543.271
543.187
543.102
543.015
542.926
542.835
542.741
542.645
542.547
542.447
542.345
542.242
542.137
542.031
541.925
541.817
541.709
541.6
541.491
541.381
541.271
541.16
541.05
540.939
540.828
540.717
540.606
552.462
552.266
552.092
552
552.026
552.114
552.232
552.435
552.703
552.952
553.134
553.271
553.359
553.421
553.421
553.395
553.318
553.244
553.139
553.052
552.954
552.868
552.75
552.55
552.287
552.079
551.996
551.989
551.899
551.746
551.485
551.182
550.723
550.079
549.493
548.945
548.383
547.817
547.289
546.854
546.473
546.145
545.95
545.84
545.873
546.22
546.63
547.536
548.671
549.238
549.019
549.503
550.642
551.14
550.955
550.902
551.176
551.176
551.019
550.897
550.548
550.08
549.775
549.357
548.825
548.345
548.029
547.617
547.274
547
546.715
546.498
546.332
546.149
545.91
545.584
545.154
544.659
544.134
543.569
543.062
542.854
543.101
543.385
543.573
543.642
543.683
543.66
543.576
543.532
543.457
543.386
543.314
543.239
543.159
543.078
542.995
542.91
542.822
542.73
542.636
542.539
542.44
542.339
542.237
542.133
542.027
541.921
541.814
541.706
541.598
541.489
541.379
541.27
541.159
541.049
540.938
540.827
540.717
540.606
552.575
552.434
552.196
552.055
552.186
552.341
552.41
552.672
553.123
553.511
553.714
553.909
553.991
553.923
553.697
553.595
553.371
553.234
553.082
552.96
552.892
552.836
552.785
552.634
552.472
552.282
552.322
552.606
552.658
552.462
552.099
551.66
550.947
549.922
548.994
548.139
547.228
546.366
545.997
545.893
545.345
544.835
544.758
544.921
545.096
545.41
545.848
546.846
547.862
548.399
548.46
548.706
549.217
549.694
549.896
549.883
549.921
549.963
549.93
549.864
549.726
549.497
549.247
548.996
548.704
548.395
548.119
547.831
547.545
547.274
547.027
546.81
546.627
546.438
546.224
545.907
545.458
544.938
544.442
543.822
543.432
543.513
543.788
543.855
543.849
543.786
543.75
543.706
543.612
543.49
543.428
543.341
543.28
543.214
543.134
543.055
542.978
542.898
542.812
542.723
542.63
542.534
542.435
542.335
542.233
542.13
542.025
541.919
541.812
541.705
541.596
541.488
541.378
541.269
541.159
541.048
540.938
540.827