/*--------------------------------*- C++ -*----------------------------------*\
  =========                 |
  \\      /  F ield         | OpenFOAM: The Open Source CFD Toolbox
   \\    /   O peration     | Website:  https://openfoam.org
    \\  /    A nd           | Version:  6
     \\/     M anipulation  |
\*---------------------------------------------------------------------------*/
FoamFile
{
    version     2.0;
    format      ascii;
    class       volVectorField;
    location    "4400";
    object      U;
}
// * * * * * * * * * * * * * * * * * * * * * * * * * * * * * * * * * * * * * //

dimensions      [0 1 -1 0 0 0 0];

internalField   nonuniform List<vector> 
4800
(
(-7.29145e-05 0 -6.92695e-05)
(6.24002e-05 0 -4.74739e-05)
(0.00010755 0 -0.000112474)
(0.000209585 0 -1.36677e-05)
(0.000216369 0 -6.20865e-05)
(0.000211625 0 -4.70964e-05)
(0.000208716 0 -2.79689e-05)
(0.000192774 0 -3.73126e-06)
(0.0001265 0 4.48626e-05)
(1.66847e-05 0 -3.27384e-06)
(2.16459e-05 0 1.26282e-05)
(-1.27939e-05 0 6.76809e-05)
(-7.57621e-05 0 3.71426e-05)
(-0.000152117 0 7.67306e-06)
(-0.000206648 0 3.56966e-05)
(-0.000270239 0 -7.86818e-07)
(-0.000332385 0 2.97892e-05)
(-0.000400874 0 4.34772e-06)
(-0.000461777 0 7.10659e-06)
(-0.000508824 0 -2.49687e-05)
(-0.000546105 0 7.82918e-07)
(-0.000587251 0 1.74401e-05)
(-0.000636701 0 6.16717e-06)
(-0.000691023 0 3.14708e-05)
(-0.000756831 0 4.66201e-05)
(-0.000824309 0 -4.30727e-06)
(-0.000852421 0 -2.14394e-05)
(-0.000830784 0 -3.21833e-05)
(-0.000795269 0 1.7767e-06)
(-0.000783309 0 -2.16374e-05)
(-0.000732395 0 -0.000102301)
(-0.000616713 0 -3.18086e-05)
(-0.000550686 0 -7.55893e-05)
(-0.000457563 0 -0.000263238)
(-5.4214e-05 0 -0.000188937)
(9.82143e-05 0 -0.000313896)
(0.000550312 0 -0.000181806)
(0.00091952 0 -0.000226709)
(0.00126751 0 -0.000209414)
(0.00157587 0 -0.000257489)
(0.00190318 0 -0.000210108)
(0.00220211 0 -0.000162551)
(0.00238936 0 -0.000175301)
(0.00254714 0 -0.000112854)
(0.00273699 0 -0.000125155)
(0.00293237 0 -0.000114691)
(0.00312453 0 -1.38237e-05)
(0.00320437 0 -3.57302e-05)
(0.00320432 0 -4.63123e-05)
(0.00323918 0 -5.16275e-05)
(0.00330518 0 -2.30498e-05)
(0.0032967 0 -1.61401e-05)
(0.00325492 0 -2.19899e-05)
(0.00320073 0 -8.18175e-06)
(0.00315126 0 1.66387e-05)
(0.00309409 0 1.73092e-05)
(0.00303104 0 1.03947e-05)
(0.00296929 0 3.09849e-05)
(0.0029157 0 -3.79024e-06)
(0.00290565 0 9.96189e-06)
(0.0029014 0 -4.57658e-06)
(0.00289289 0 -5.55778e-06)
(0.00288095 0 -6.26805e-06)
(0.00287558 0 -3.53022e-06)
(0.00287336 0 -1.23893e-05)
(0.00286944 0 -1.43736e-05)
(0.00286253 0 -1.58643e-05)
(0.00285256 0 -1.56756e-05)
(0.00283722 0 -1.0615e-05)
(0.00281501 0 -3.59921e-07)
(0.00278315 0 5.90635e-06)
(0.00274058 0 -1.97274e-05)
(0.00268429 0 4.46798e-05)
(0.00261755 0 -4.94657e-05)
(0.00254732 0 7.29431e-05)
(0.00246933 0 -4.58371e-05)
(0.00235228 0 0.000132079)
(0.00221585 0 -0.000103131)
(0.00206299 0 0.000213505)
(0.00190845 0 -5.09691e-05)
(0.00165369 0 0.000323101)
(0.00146167 0 -9.11789e-05)
(0.00108965 0 0.000552746)
(0.00101605 0 -0.000278337)
(0.000389581 0 -0.000424486)
(-1.36943e-06 0 -0.000577979)
(-1.60077e-12 0 8.17522e-12)
(-1.4812e-12 0 6.57021e-13)
(-2.62501e-12 0 1.02898e-13)
(-2.75124e-12 0 2.30007e-14)
(-2.76677e-12 0 -7.38841e-15)
(-2.72118e-12 0 -3.82789e-14)
(-2.61488e-12 0 -6.83015e-14)
(-2.45336e-12 0 -9.37174e-14)
(-2.2472e-12 0 -1.13114e-13)
(-2.0084e-12 0 -1.26474e-13)
(-1.7484e-12 0 -1.34333e-13)
(-1.4774e-12 0 -1.3739e-13)
(-1.20418e-12 0 -1.36354e-13)
(-9.36162e-13 0 -1.31895e-13)
(-6.79465e-13 0 -1.24646e-13)
(-4.39038e-13 0 -1.15195e-13)
(-2.18802e-13 0 -1.04063e-13)
(-2.17077e-14 0 -9.17197e-14)
(1.50262e-13 0 -7.86075e-14)
(2.95953e-13 0 -6.51541e-14)
(4.14817e-13 0 -5.17286e-14)
(5.06795e-13 0 -3.86008e-14)
(5.72361e-13 0 -2.59459e-14)
(6.12581e-13 0 -1.38921e-14)
(6.29037e-13 0 -2.56597e-15)
(6.23634e-13 0 7.89533e-15)
(5.98416e-13 0 1.73612e-14)
(5.55471e-13 0 2.57296e-14)
(4.96935e-13 0 3.29354e-14)
(4.25022e-13 0 3.89429e-14)
(3.42038e-13 0 4.37337e-14)
(2.50386e-13 0 4.72953e-14)
(1.52564e-13 0 4.9608e-14)
(5.12144e-14 0 5.06012e-14)
(-4.09412e-05 0 -4.01877e-05)
(0.000155818 0 -9.45003e-05)
(0.000130996 0 -0.000165146)
(0.000216688 0 -0.000119081)
(0.000260388 0 -1.48827e-05)
(0.000239787 0 5.93165e-06)
(0.000205838 0 3.41334e-05)
(0.000115889 0 8.66671e-05)
(1.3532e-05 0 0.000107065)
(-4.96043e-05 0 6.16599e-05)
(-0.000101899 0 4.67438e-05)
(-0.000165015 0 6.80751e-05)
(-0.000216118 0 0.00012386)
(-0.000296555 0 0.000106935)
(-0.00035566 0 0.000103844)
(-0.000408096 0 0.000145087)
(-0.000492774 0 0.000113604)
(-0.000549245 0 0.000123023)
(-0.000593603 0 0.000117738)
(-0.000649892 0 0.000129265)
(-0.000724023 0 0.000112979)
(-0.000778361 0 8.77736e-05)
(-0.000810539 0 0.000114186)
(-0.000857581 0 0.000123827)
(-0.000936455 0 8.95719e-05)
(-0.000992337 0 7.83663e-05)
(-0.00101092 0 5.22359e-05)
(-0.00101126 0 -1.05483e-05)
(-0.0010246 0 -7.3215e-05)
(-0.000999147 0 0.000143244)
(-0.000861543 0 -0.000403751)
(-0.000756087 0 0.000138402)
(-0.000700094 0 -0.000101499)
(-0.000554116 0 -0.000318169)
(4.00136e-06 0 -0.000212462)
(-0.000243592 0 -0.000655763)
(0.000394053 0 -0.000700826)
(0.000835374 0 -0.00043982)
(0.00111013 0 -0.000447505)
(0.00134685 0 -0.000580232)
(0.00167001 0 -0.000500354)
(0.0019584 0 -0.000240887)
(0.0021119 0 -0.000305922)
(0.00226346 0 -0.000342433)
(0.00247738 0 -0.000161186)
(0.00271396 0 -0.000168874)
(0.00291437 0 -0.000344046)
(0.00294952 0 -9.83067e-05)
(0.00296316 0 -7.73045e-05)
(0.00302979 0 -8.135e-05)
(0.00312443 0 3.63123e-05)
(0.00312207 0 6.23811e-05)
(0.00310245 0 7.0474e-05)
(0.00306799 0 0.000121206)
(0.00301961 0 0.000155918)
(0.00295304 0 0.000143976)
(0.00287884 0 0.000115323)
(0.00281798 0 8.92643e-05)
(0.00279199 0 4.66863e-05)
(0.00278388 0 2.04876e-05)
(0.00277765 0 1.90898e-05)
(0.00277345 0 -5.4375e-06)
(0.00276749 0 -1.94285e-06)
(0.00276681 0 3.43001e-06)
(0.0027715 0 1.54423e-05)
(0.00276881 0 2.31436e-05)
(0.00275766 0 2.84189e-05)
(0.00274219 0 3.81454e-05)
(0.0027211 0 3.54188e-05)
(0.00268825 0 5.02187e-05)
(0.00265586 0 5.14939e-05)
(0.00261899 0 6.54529e-05)
(0.00256541 0 9.31588e-05)
(0.00250445 0 0.000103598)
(0.00244058 0 0.000144026)
(0.00235072 0 0.000175798)
(0.00223749 0 0.000209182)
(0.00211527 0 0.000104132)
(0.00197585 0 0.00027511)
(0.00182798 0 0.0002101)
(0.00162314 0 0.000319339)
(0.00131433 0 0.00050129)
(0.00118622 0 0.000380553)
(0.000551651 0 0.000955329)
(0.000135752 0 0.000825157)
(-1.38787e-06 0 0.000578059)
(-5.48776e-12 0 -1.11367e-11)
(-3.20247e-12 0 -1.16533e-12)
(-3.25884e-12 0 -1.64885e-13)
(-2.86134e-12 0 1.93556e-14)
(-2.82794e-12 0 -2.19412e-14)
(-2.78209e-12 0 -1.16098e-13)
(-2.67032e-12 0 -2.09901e-13)
(-2.49817e-12 0 -2.87536e-13)
(-2.27996e-12 0 -3.45681e-13)
(-2.02961e-12 0 -3.8512e-13)
(-1.75931e-12 0 -4.07862e-13)
(-1.47942e-12 0 -4.16162e-13)
(-1.19869e-12 0 -4.12211e-13)
(-9.24454e-13 0 -3.98058e-13)
(-6.62765e-13 0 -3.75612e-13)
(-4.18455e-13 0 -3.46632e-13)
(-1.95327e-13 0 -3.12706e-13)
(3.74812e-15 0 -2.7529e-13)
(1.76827e-13 0 -2.35741e-13)
(3.22832e-13 0 -1.95279e-13)
(4.41371e-13 0 -1.54897e-13)
(5.32578e-13 0 -1.15328e-13)
(5.97069e-13 0 -7.71146e-14)
(6.35961e-13 0 -4.07209e-14)
(6.50824e-13 0 -6.59717e-15)
(6.43561e-13 0 2.4825e-14)
(6.1625e-13 0 5.31784e-14)
(5.71045e-13 0 7.81961e-14)
(5.10149e-13 0 9.97127e-14)
(4.3582e-13 0 1.17641e-13)
(3.5039e-13 0 1.3194e-13)
(2.5626e-13 0 1.42599e-13)
(1.5587e-13 0 1.4961e-13)
(5.22075e-14 0 1.52948e-13)
(1.0462e-05 0 -0.000112957)
(0.000130536 0 -0.000193856)
(0.000124209 0 -0.000182314)
(0.000140468 0 -8.90991e-05)
(0.000180254 0 -6.77937e-05)
(0.000119986 0 4.20581e-05)
(1.1385e-05 0 0.000145845)
(1.26276e-05 0 0.000156235)
(-7.22275e-05 0 0.000148391)
(-0.000142644 0 0.000124468)
(-0.000220259 0 0.000136376)
(-0.000291234 0 0.000161765)
(-0.000364228 0 0.000148363)
(-0.000411138 0 0.00018838)
(-0.000487062 0 0.000185208)
(-0.000589175 0 0.000141025)
(-0.000652691 0 0.000221042)
(-0.000742134 0 0.000149383)
(-0.000806904 0 0.000117343)
(-0.000871973 0 0.000148822)
(-0.000938006 0 0.000137027)
(-0.000987626 0 0.000124471)
(-0.00104879 0 0.00011378)
(-0.00111157 0 0.00014782)
(-0.00114455 0 0.000152168)
(-0.00115212 0 0.000125622)
(-0.00114573 0 8.32576e-05)
(-0.00115963 0 -2.52708e-05)
(-0.00116016 0 -5.32833e-05)
(-0.00111206 0 -6.38889e-05)
(-0.000971502 0 -0.000513915)
(-0.00107831 0 0.000217803)
(-0.000712128 0 -0.000644495)
(-0.000659318 0 -0.000423196)
(-0.000539009 0 -0.000596163)
(-0.000177478 0 -0.000768038)
(5.99721e-05 0 -0.000997381)
(0.000461934 0 -0.00101485)
(0.000939514 0 -0.00071868)
(0.00109498 0 -0.000773306)
(0.00137984 0 -0.000669612)
(0.0016167 0 -0.000538972)
(0.00179194 0 -0.000461912)
(0.00197814 0 -0.000461065)
(0.00220166 0 -0.000583414)
(0.00248505 0 -0.000464666)
(0.00253908 0 -0.000333545)
(0.00253372 0 -0.000294774)
(0.00256045 0 -0.000251078)
(0.00266621 0 -0.000201549)
(0.0027913 0 -5.23505e-05)
(0.00278847 0 -6.35624e-05)
(0.00278843 0 4.91144e-05)
(0.00278475 0 7.73283e-05)
(0.00275947 0 0.00010768)
(0.00271333 0 0.00010354)
(0.00268074 0 9.89818e-05)
(0.00267105 0 8.8072e-05)
(0.00265724 0 8.57832e-05)
(0.00262712 0 6.03035e-05)
(0.00260806 0 2.68788e-05)
(0.00260875 0 3.05245e-05)
(0.00261372 0 5.24794e-06)
(0.0026169 0 -1.08431e-05)
(0.00261935 0 4.14088e-06)
(0.00261721 0 1.03832e-05)
(0.00260713 0 1.1649e-05)
(0.00258846 0 4.11188e-05)
(0.00256015 0 6.92855e-05)
(0.00251911 0 5.55081e-05)
(0.00247341 0 0.000102068)
(0.0024217 0 0.000170725)
(0.00237526 0 8.3551e-05)
(0.0023287 0 0.000106222)
(0.0022715 0 0.000211189)
(0.00218172 0 0.000230755)
(0.00204239 0 0.000356477)
(0.00194497 0 0.000335613)
(0.00181218 0 0.000473941)
(0.0016884 0 0.000503234)
(0.0015853 0 0.000385838)
(0.00137216 0 0.000487187)
(0.000999986 0 0.0006725)
(0.00108734 0 0.000589445)
(0.00102833 0 0.000492752)
(4.47845e-06 0 0.000736336)
(-2.31448e-11 0 7.6329e-12)
(4.98746e-13 0 8.97324e-14)
(-1.44008e-12 0 3.83701e-13)
(-2.60794e-12 0 2.40905e-13)
(-2.902e-12 0 1.61006e-14)
(-2.90914e-12 0 -1.94685e-13)
(-2.78632e-12 0 -3.67999e-13)
(-2.58914e-12 0 -5.01074e-13)
(-2.34478e-12 0 -5.97053e-13)
(-2.07058e-12 0 -6.60424e-13)
(-1.77944e-12 0 -6.95669e-13)
(-1.48175e-12 0 -7.06926e-13)
(-1.18608e-12 0 -6.97958e-13)
(-8.99563e-13 0 -6.72205e-13)
(-6.28039e-13 0 -6.32861e-13)
(-3.76131e-13 0 -5.82852e-13)
(-1.4746e-13 0 -5.24812e-13)
(5.5257e-14 0 -4.6114e-13)
(2.30272e-13 0 -3.94052e-13)
(3.76797e-13 0 -3.25529e-13)
(4.94769e-13 0 -2.57205e-13)
(5.84577e-13 0 -1.90341e-13)
(6.46968e-13 0 -1.2591e-13)
(6.83098e-13 0 -6.47339e-14)
(6.94583e-13 0 -7.56016e-15)
(6.8341e-13 0 4.49436e-14)
(6.51787e-13 0 9.22306e-14)
(6.02005e-13 0 1.33906e-13)
(5.3638e-13 0 1.69723e-13)
(4.57249e-13 0 1.99552e-13)
(3.66996e-13 0 2.23351e-13)
(2.68056e-13 0 2.4113e-13)
(1.62914e-13 0 2.52933e-13)
(5.45524e-14 0 2.58839e-13)
(2.79009e-05 0 -0.000146513)
(5.5985e-05 0 -0.000244837)
(7.09899e-05 0 -0.000199)
(2.92429e-05 0 -2.15866e-05)
(-2.7158e-05 0 9.41456e-05)
(-2.82617e-05 0 0.000142506)
(-0.00010126 0 0.000198725)
(-0.000124727 0 0.000208919)
(-0.000217793 0 0.000161474)
(-0.000258817 0 0.000163741)
(-0.00032001 0 0.000206397)
(-0.000418423 0 0.000192972)
(-0.000467503 0 0.000242899)
(-0.00054786 0 0.000224464)
(-0.000638186 0 0.000232418)
(-0.000722119 0 0.000287133)
(-0.000820602 0 0.000254775)
(-0.000886672 0 0.00024212)
(-0.000953841 0 0.000198831)
(-0.00102862 0 0.000179159)
(-0.00109124 0 0.00017756)
(-0.00113041 0 0.000150118)
(-0.00115996 0 0.000157986)
(-0.00117981 0 0.000174773)
(-0.00118459 0 0.00013052)
(-0.00114415 0 4.20498e-05)
(-0.00112882 0 3.47436e-05)
(-0.00113305 0 -5.31958e-05)
(-0.00112885 0 -0.000151608)
(-0.00112218 0 -0.000203984)
(-0.0011128 0 -0.000182233)
(-0.0011299 0 -8.65447e-05)
(-0.000579474 0 -0.000972556)
(-0.00083318 0 -0.000639047)
(-0.000573534 0 -0.000908955)
(-0.000208816 0 -0.00102993)
(-0.000192811 0 -0.00115922)
(1.62402e-05 0 -0.00133517)
(0.000458955 0 -0.0012615)
(0.000807276 0 -0.0010641)
(0.00115896 0 -0.000829172)
(0.00137927 0 -0.000688745)
(0.00151815 0 -0.000715743)
(0.00168477 0 -0.000756241)
(0.00196922 0 -0.00048462)
(0.00204043 0 -0.000373253)
(0.00203697 0 -0.000353127)
(0.00210555 0 -0.000160218)
(0.00214204 0 -0.000483545)
(0.00228309 0 -0.000254848)
(0.00231897 0 1.9499e-05)
(0.0023259 0 5.52845e-05)
(0.00235734 0 0.000100613)
(0.00240168 0 0.000186214)
(0.00242347 0 0.000209037)
(0.00243021 0 0.000199895)
(0.00243708 0 0.000114919)
(0.00244087 0 0.000111749)
(0.00245037 0 6.65844e-05)
(0.00244815 0 4.42776e-05)
(0.00244065 0 1.76155e-05)
(0.00244281 0 1.07207e-05)
(0.00244325 0 -4.73342e-06)
(0.00243743 0 -1.00158e-05)
(0.00242346 0 1.89499e-05)
(0.00242006 0 2.48604e-05)
(0.00241676 0 3.26281e-05)
(0.00239893 0 4.8391e-05)
(0.00235512 0 0.000126537)
(0.00232188 0 5.81741e-05)
(0.00229124 0 0.000132865)
(0.00222131 0 0.000160232)
(0.00215488 0 0.000201069)
(0.00215616 0 0.00018505)
(0.00211952 0 0.000262805)
(0.00201273 0 0.000288619)
(0.00188738 0 0.000201769)
(0.00176986 0 0.000432572)
(0.00167442 0 0.000527621)
(0.00137902 0 0.000927448)
(0.0010985 0 0.00111595)
(0.000759608 0 0.0012422)
(0.00123748 0 0.000548286)
(0.000356145 0 0.00124309)
(0.000555932 0 0.00115094)
(-4.86752e-07 0 0.00107406)
(-2.63921e-12 0 5.4891e-12)
(-3.75545e-12 0 3.11064e-12)
(-3.10738e-12 0 1.36837e-12)
(-3.22852e-12 0 5.44204e-13)
(-3.26328e-12 0 4.02578e-14)
(-3.16618e-12 0 -3.10692e-13)
(-2.97671e-12 0 -5.66133e-13)
(-2.72723e-12 0 -7.51345e-13)
(-2.43931e-12 0 -8.80543e-13)
(-2.12823e-12 0 -9.63308e-13)
(-1.80582e-12 0 -1.00695e-12)
(-1.48171e-12 0 -1.01752e-12)
(-1.16396e-12 0 -1.0003e-12)
(-8.59358e-13 0 -9.6004e-13)
(-5.73411e-13 0 -9.01149e-13)
(-3.10405e-13 0 -8.277e-13)
(-7.36153e-14 0 -7.43342e-13)
(1.34508e-13 0 -6.5134e-13)
(3.12438e-13 0 -5.54695e-13)
(4.59678e-13 0 -4.56166e-13)
(5.76559e-13 0 -3.5815e-13)
(6.63873e-13 0 -2.62568e-13)
(7.22676e-13 0 -1.70886e-13)
(7.5431e-13 0 -8.42413e-14)
(7.60502e-13 0 -3.57296e-15)
(7.43352e-13 0 7.03164e-14)
(7.05212e-13 0 1.36766e-13)
(6.48537e-13 0 1.95285e-13)
(5.75795e-13 0 2.45553e-13)
(4.89449e-13 0 2.87411e-13)
(3.91968e-13 0 3.20812e-13)
(2.85842e-13 0 3.45789e-13)
(1.73579e-13 0 3.62409e-13)
(5.81135e-14 0 3.70742e-13)
(7.68522e-06 0 -0.000173287)
(-1.1544e-06 0 -0.000254388)
(-0.000115956 0 -0.000181715)
(-9.90214e-05 0 -7.18569e-05)
(-0.000127724 0 0.000136914)
(-0.000144905 0 0.000199069)
(-0.000255696 0 0.000210966)
(-0.000284603 0 0.000236567)
(-0.000286629 0 0.00026949)
(-0.00033286 0 0.000245711)
(-0.000460338 0 0.000197996)
(-0.000504236 0 0.000298205)
(-0.000593692 0 0.000307033)
(-0.00066552 0 0.000349856)
(-0.000759694 0 0.000366522)
(-0.000869238 0 0.000342298)
(-0.000936534 0 0.000335348)
(-0.000975021 0 0.000307062)
(-0.0010339 0 0.000210003)
(-0.00107579 0 0.000261215)
(-0.0011013 0 0.000278817)
(-0.00111585 0 0.000198676)
(-0.00110948 0 0.000153413)
(-0.00111713 0 0.000158019)
(-0.00112955 0 0.000136614)
(-0.00110638 0 1.78609e-05)
(-0.00107155 0 1.9386e-05)
(-0.00105456 0 -1.44162e-05)
(-0.00105994 0 -6.36434e-05)
(-0.00105559 0 -0.000146353)
(-0.000672593 0 -0.0008183)
(-0.00109308 0 -8.96355e-05)
(-0.00058527 0 -0.000938801)
(-0.000867485 0 -0.000697478)
(-0.000430728 0 -0.00116314)
(-0.000388193 0 -0.00130589)
(-0.000173581 0 -0.00147525)
(0.000146811 0 -0.00155335)
(0.000420644 0 -0.00148755)
(0.000528192 0 -0.0014404)
(0.000878019 0 -0.00121051)
(0.00117514 0 -0.000922638)
(0.00133811 0 -0.000763541)
(0.00140284 0 -0.000820799)
(0.00150522 0 -0.000739997)
(0.00159791 0 -0.000548948)
(0.00165048 0 -0.000464492)
(0.00175001 0 -0.000368403)
(0.00185422 0 -0.000283764)
(0.00185464 0 -0.000266972)
(0.00185821 0 -0.000215593)
(0.00190707 0 -0.000145661)
(0.00198831 0 -5.62908e-05)
(0.00207863 0 3.72602e-05)
(0.00211482 0 9.58562e-05)
(0.0021347 0 0.000136514)
(0.00214625 0 0.000114324)
(0.00215791 0 6.11491e-05)
(0.002176 0 0.000107049)
(0.00220238 0 6.74304e-05)
(0.00221605 0 3.3096e-06)
(0.00223012 0 4.5755e-06)
(0.00223108 0 -7.77297e-06)
(0.00222608 0 1.10731e-05)
(0.00220419 0 2.01678e-05)
(0.00216173 0 5.17541e-05)
(0.0021658 0 7.16715e-05)
(0.00215339 0 0.000102113)
(0.00210245 0 7.89017e-05)
(0.00204963 0 0.000131538)
(0.00203727 0 0.000247443)
(0.00200877 0 0.000167167)
(0.00190416 0 0.000233198)
(0.00185774 0 0.000396986)
(0.00184241 0 0.000424639)
(0.00175582 0 0.000333545)
(0.00169487 0 0.000263405)
(0.00159598 0 0.00057041)
(0.00160213 0 0.000444013)
(0.00150605 0 0.000510893)
(0.0013243 0 0.000689881)
(0.00114088 0 0.000831477)
(0.00104782 0 0.000939735)
(0.000192911 0 0.00135714)
(0.000717482 0 0.0013239)
(1.03482e-06 0 0.00136315)
(-2.9578e-12 0 4.28996e-12)
(-3.62073e-12 0 2.77998e-12)
(-4.00566e-12 0 1.43499e-12)
(-3.93544e-12 0 5.27446e-13)
(-3.75659e-12 0 -8.81251e-14)
(-3.51549e-12 0 -5.21865e-13)
(-3.22697e-12 0 -8.34043e-13)
(-2.90355e-12 0 -1.05706e-12)
(-2.55675e-12 0 -1.20979e-12)
(-2.19698e-12 0 -1.3046e-12)
(-1.83365e-12 0 -1.35061e-12)
(-1.4751e-12 0 -1.35529e-12)
(-1.1286e-12 0 -1.32519e-12)
(-8.00411e-13 0 -1.2662e-12)
(-4.95699e-13 0 -1.18387e-12)
(-2.18324e-13 0 -1.08338e-12)
(2.89001e-14 0 -9.69447e-13)
(2.43904e-13 0 -8.46222e-13)
(4.25446e-13 0 -7.17494e-13)
(5.73342e-13 0 -5.8675e-13)
(6.88367e-13 0 -4.57099e-13)
(7.71841e-13 0 -3.3111e-13)
(8.25294e-13 0 -2.10766e-13)
(8.50411e-13 0 -9.75457e-14)
(8.4914e-13 0 7.42009e-15)
(8.23749e-13 0 1.03235e-13)
(7.76755e-13 0 1.89192e-13)
(7.10792e-13 0 2.64766e-13)
(6.28506e-13 0 3.29625e-13)
(5.32508e-13 0 3.83605e-13)
(4.25374e-13 0 4.26675e-13)
(3.09653e-13 0 4.58889e-13)
(1.87868e-13 0 4.80335e-13)
(6.2886e-14 0 4.91089e-13)
(-2.90693e-05 0 -0.000135954)
(-8.7394e-05 0 -0.000152564)
(-0.000203486 0 -0.000140637)
(-0.000248588 0 4.14903e-05)
(-0.000231578 0 0.000200973)
(-0.000185924 0 0.000333466)
(-0.000229429 0 0.00038135)
(-0.00023988 0 0.000391233)
(-0.000411511 0 0.000234464)
(-0.000452832 0 0.000259203)
(-0.000486537 0 0.000386851)
(-0.000577393 0 0.000415997)
(-0.000671657 0 0.000451513)
(-0.000810336 0 0.000407634)
(-0.000905589 0 0.000385599)
(-0.000961599 0 0.000402808)
(-0.000997987 0 0.000393172)
(-0.00101472 0 0.000353353)
(-0.00101552 0 0.000298906)
(-0.00102931 0 0.000278986)
(-0.00105129 0 0.000269687)
(-0.00105576 0 0.000144142)
(-0.00100776 0 0.000161562)
(-0.00099621 0 0.000182055)
(-0.000993335 0 0.000188545)
(-0.000963927 0 7.02444e-06)
(-0.000898132 0 -7.1725e-06)
(-0.000841756 0 -0.000114136)
(-0.000767628 0 -0.000263178)
(-0.000774639 0 -0.000120132)
(-0.000564045 0 -0.000562663)
(-0.000861355 0 -0.00022405)
(-0.000372706 0 -0.000871612)
(-0.000401511 0 -0.000984276)
(-0.000366254 0 -0.00120962)
(-0.000243013 0 -0.0014827)
(-0.000109825 0 -0.00170874)
(0.00014091 0 -0.00178932)
(0.000308235 0 -0.00173002)
(0.000451523 0 -0.00161486)
(0.000677138 0 -0.00148246)
(0.000941247 0 -0.0011827)
(0.00104636 0 -0.000936375)
(0.00115975 0 -0.000838579)
(0.00121112 0 -0.000757368)
(0.00127926 0 -0.000646456)
(0.00135874 0 -0.000530747)
(0.00145679 0 -0.000391882)
(0.00150439 0 -0.000392532)
(0.00152885 0 -0.000286224)
(0.0015441 0 -0.000177849)
(0.0015741 0 -6.26825e-05)
(0.0016219 0 -8.01197e-05)
(0.00170501 0 7.96993e-05)
(0.00176981 0 -1.88932e-05)
(0.00182243 0 0.000165589)
(0.0018511 0 7.642e-05)
(0.00187876 0 0.000134358)
(0.0019163 0 4.811e-05)
(0.00195185 0 5.81046e-05)
(0.00196866 0 -1.78954e-05)
(0.00198162 0 2.98796e-05)
(0.00198638 0 -2.15917e-05)
(0.00198687 0 7.65469e-06)
(0.00196594 0 9.27774e-05)
(0.00189605 0 -0.000136859)
(0.00187089 0 8.8533e-05)
(0.00184886 0 0.00015937)
(0.00180979 0 0.000165459)
(0.00176814 0 -9.11477e-07)
(0.00174384 0 0.000257586)
(0.00172614 0 0.000285946)
(0.00167694 0 0.000126805)
(0.00160525 0 0.000236846)
(0.001498 0 0.000547473)
(0.00146768 0 0.000543688)
(0.0011828 0 0.00093062)
(0.00107166 0 0.00108283)
(0.000831098 0 0.00124505)
(0.00074615 0 0.00120735)
(0.000881322 0 0.00106075)
(0.000660647 0 0.00121826)
(0.000686976 0 0.00125264)
(0.000133083 0 0.0014559)
(3.50353e-05 0 0.00159418)
(-2.41234e-06 0 0.00163369)
(-3.1092e-12 0 4.41719e-12)
(-6.60905e-12 0 2.28456e-12)
(-5.35894e-12 0 1.06482e-12)
(-4.75092e-12 0 2.19324e-13)
(-4.31222e-12 0 -3.97522e-13)
(-3.91203e-12 0 -8.53937e-13)
(-3.5119e-12 0 -1.19045e-12)
(-3.10297e-12 0 -1.43234e-12)
(-2.68685e-12 0 -1.5962e-12)
(-2.26905e-12 0 -1.6939e-12)
(-1.85651e-12 0 -1.73483e-12)
(-1.45629e-12 0 -1.72713e-12)
(-1.07487e-12 0 -1.67823e-12)
(-7.18036e-13 0 -1.59506e-12)
(-3.90598e-13 0 -1.48422e-12)
(-9.59867e-14 0 -1.35204e-12)
(1.63546e-13 0 -1.2043e-12)
(3.86461e-13 0 -1.04615e-12)
(5.7191e-13 0 -8.82157e-13)
(7.20074e-13 0 -7.16487e-13)
(8.32199e-13 0 -5.52876e-13)
(9.10206e-13 0 -3.9449e-13)
(9.56241e-13 0 -2.43809e-13)
(9.72496e-13 0 -1.02669e-13)
(9.61283e-13 0 2.7608e-14)
(9.25124e-13 0 1.46059e-13)
(8.66743e-13 0 2.51981e-13)
(7.88971e-13 0 3.44887e-13)
(6.94633e-13 0 4.24489e-13)
(5.86498e-13 0 4.90666e-13)
(4.67252e-13 0 5.43433e-13)
(3.39502e-13 0 5.82885e-13)
(2.05778e-13 0 6.0914e-13)
(6.88669e-14 0 6.22297e-13)
(1.94967e-05 0 -4.24184e-05)
(-1.40802e-05 0 -8.078e-05)
(-0.000280803 0 -0.000125758)
(-0.000365682 0 0.000100814)
(-0.000377491 0 0.000192631)
(-0.000413348 0 0.000221316)
(-0.000449769 0 0.00021801)
(-0.000415274 0 0.00028346)
(-0.000344051 0 0.000412041)
(-0.000554637 0 0.000315993)
(-0.000567629 0 0.000472545)
(-0.000678502 0 0.000491544)
(-0.000800519 0 0.000481966)
(-0.000865125 0 0.000511917)
(-0.000897639 0 0.00051828)
(-0.000951044 0 0.000451434)
(-0.000973399 0 0.000427376)
(-0.000995716 0 0.000356534)
(-0.000987165 0 0.000208323)
(-0.000952005 0 0.000226541)
(-0.000921836 0 0.000299933)
(-0.000900991 0 0.000189281)
(-0.00085417 0 3.06436e-05)
(-0.000799766 0 0.000141355)
(-0.000751066 0 4.01128e-05)
(-0.000663605 0 -2.00836e-05)
(-0.000569795 0 -8.21738e-05)
(-0.000500993 0 -0.00012191)
(-0.000415805 0 -0.000225276)
(-0.000125846 0 -0.000504121)
(-0.000419769 0 -0.000284455)
(0.000214841 0 -0.000813025)
(-0.000301305 0 -0.000726069)
(-4.05479e-05 0 -0.00102113)
(-6.4634e-05 0 -0.00122623)
(-0.000140345 0 -0.00152825)
(-6.91609e-05 0 -0.00183064)
(8.46659e-05 0 -0.0019796)
(0.000209844 0 -0.00194483)
(0.000378985 0 -0.00183825)
(0.000611187 0 -0.00163175)
(0.000856311 0 -0.00126856)
(0.000781552 0 -0.00104667)
(0.000962922 0 -0.000887198)
(0.000955007 0 -0.000858945)
(0.00108758 0 -0.000668708)
(0.00111441 0 -0.000657071)
(0.00123776 0 -0.000442695)
(0.00125244 0 -0.000380739)
(0.00124353 0 -0.000309706)
(0.00124343 0 -0.000210013)
(0.0012659 0 -0.00017344)
(0.00131279 0 -0.00015122)
(0.00139046 0 3.24988e-08)
(0.00145432 0 -8.41718e-05)
(0.00154503 0 0.000117247)
(0.0016091 0 -4.67973e-05)
(0.00166116 0 2.00598e-06)
(0.00167735 0 -7.71496e-05)
(0.00169821 0 -3.6614e-05)
(0.00169399 0 -4.68055e-05)
(0.00168606 0 3.70546e-05)
(0.00166093 0 -8.50641e-05)
(0.00165665 0 0.000114947)
(0.0016466 0 0.000126306)
(0.00162402 0 9.45994e-05)
(0.0015782 0 0.000210627)
(0.00154905 0 0.000160754)
(0.00150781 0 0.000174397)
(0.00144202 0 0.00025759)
(0.00140694 0 0.000310162)
(0.00136202 0 0.000299623)
(0.00134944 0 0.000247482)
(0.00132581 0 0.000351608)
(0.00129809 0 0.000388031)
(0.0012955 0 0.000387833)
(0.00123742 0 0.000454251)
(0.00118295 0 0.000587581)
(0.00118639 0 0.000668097)
(0.000852442 0 0.000974838)
(0.000677363 0 0.00114181)
(0.000517479 0 0.00132742)
(0.000629023 0 0.00139689)
(0.000388873 0 0.00153393)
(4.09714e-07 0 0.00166185)
(-1.36433e-07 0 0.00169466)
(-3.71583e-12 0 5.21077e-13)
(-6.97144e-12 0 8.76899e-13)
(-6.06985e-12 0 3.21302e-13)
(-5.39704e-12 0 -3.16641e-13)
(-4.82944e-12 0 -8.66422e-13)
(-4.30835e-12 0 -1.30519e-12)
(-3.80537e-12 0 -1.64087e-12)
(-3.30929e-12 0 -1.88507e-12)
(-2.81831e-12 0 -2.04822e-12)
(-2.33561e-12 0 -2.13946e-12)
(-1.86688e-12 0 -2.16722e-12)
(-1.41851e-12 0 -2.13971e-12)
(-9.96532e-13 0 -2.06507e-12)
(-6.06402e-13 0 -1.95113e-12)
(-2.52675e-13 0 -1.80557e-12)
(6.15968e-14 0 -1.63588e-12)
(3.34788e-13 0 -1.44903e-12)
(5.6605e-13 0 -1.25124e-12)
(7.5511e-13 0 -1.04794e-12)
(9.02623e-13 0 -8.43981e-13)
(1.01036e-12 0 -6.43649e-13)
(1.08091e-12 0 -4.50599e-13)
(1.11711e-12 0 -2.67736e-13)
(1.12183e-12 0 -9.72048e-14)
(1.09787e-12 0 5.9502e-14)
(1.04812e-12 0 2.01381e-13)
(9.75584e-13 0 3.2778e-13)
(8.833e-13 0 4.38307e-13)
(7.74284e-13 0 5.32778e-13)
(6.51452e-13 0 6.11177e-13)
(5.17592e-13 0 6.73606e-13)
(3.7536e-13 0 7.20235e-13)
(2.2728e-13 0 7.51243e-13)
(7.6043e-14 0 7.66765e-13)
(-0.000141297 0 -4.09996e-05)
(-0.000240263 0 -0.000124285)
(-0.000291007 0 0.000109621)
(-0.000361398 0 9.97912e-05)
(-0.000373426 0 0.000213181)
(-0.00038995 0 0.000279778)
(-0.000444409 0 0.000308373)
(-0.000462432 0 0.000340922)
(-0.000316442 0 0.000541892)
(-0.000579251 0 0.000458373)
(-0.000713304 0 0.000465971)
(-0.000725605 0 0.000601391)
(-0.000800697 0 0.000589683)
(-0.000832403 0 0.000579929)
(-0.000867428 0 0.000538593)
(-0.000913532 0 0.000457697)
(-0.000911043 0 0.000419017)
(-0.000900077 0 0.000341969)
(-0.000867021 0 0.000198757)
(-0.00078422 0 0.000192369)
(-0.000713708 0 0.000194663)
(-0.000661038 0 0.000137683)
(-0.000579106 0 3.15705e-05)
(-0.000478025 0 3.33997e-05)
(-0.000385155 0 -7.49307e-06)
(-0.000305983 0 -0.000111324)
(-0.000209099 0 -0.000193597)
(-0.000116417 0 -0.000299144)
(-0.000132575 0 -0.000259575)
(7.67468e-05 0 -0.000424529)
(-0.000145281 0 -0.000369708)
(0.000103066 0 -0.000632934)
(0.000120372 0 -0.000804954)
(0.000174622 0 -0.00101947)
(0.000160847 0 -0.00121789)
(0.000133534 0 -0.00151923)
(2.30554e-05 0 -0.00186427)
(0.000168221 0 -0.00208258)
(0.000240217 0 -0.00206976)
(0.000306708 0 -0.00194734)
(0.000603887 0 -0.00167063)
(0.000607051 0 -0.00142147)
(0.000536986 0 -0.00118933)
(0.000901032 0 -0.000878671)
(0.000812767 0 -0.000879624)
(0.000812831 0 -0.000842855)
(0.000941108 0 -0.000658214)
(0.00101423 0 -0.000495651)
(0.00101618 0 -0.000416712)
(0.0010086 0 -0.000303369)
(0.00102035 0 -0.000258454)
(0.00106876 0 -0.000204891)
(0.00113159 0 -0.000159185)
(0.00117833 0 -0.000155953)
(0.00121304 0 -0.000106352)
(0.00127117 0 -5.19348e-05)
(0.00134222 0 4.63846e-06)
(0.00139118 0 3.84847e-05)
(0.00139015 0 4.15845e-05)
(0.0013927 0 4.92923e-05)
(0.00138635 0 1.84626e-05)
(0.00137494 0 5.9647e-05)
(0.00133132 0 -2.62389e-05)
(0.00129016 0 0.000134977)
(0.00127058 0 6.54147e-06)
(0.00125327 0 0.000144513)
(0.00124514 0 8.79099e-05)
(0.00121814 0 0.000247967)
(0.00120389 0 0.000196214)
(0.00117038 0 0.000137311)
(0.0010854 0 0.00038866)
(0.0010848 0 0.000345317)
(0.000947545 0 0.000559892)
(0.000847176 0 0.000701318)
(0.000876338 0 0.00070176)
(0.000700761 0 0.000879844)
(0.00058486 0 0.000970105)
(0.000598964 0 0.0010228)
(0.000493563 0 0.00116165)
(0.000892238 0 0.00105058)
(0.000621432 0 0.00121445)
(0.000408381 0 0.0014)
(0.000455933 0 0.00161843)
(0.000293631 0 0.00181664)
(0.000482326 0 0.00171579)
(-2.29385e-07 0 0.00170106)
(-3.54832e-12 0 1.37937e-12)
(-6.80774e-12 0 3.81208e-13)
(-6.55154e-12 0 -3.39147e-13)
(-5.93793e-12 0 -9.40126e-13)
(-5.30037e-12 0 -1.44563e-12)
(-4.68644e-12 0 -1.85908e-12)
(-4.09178e-12 0 -2.18246e-12)
(-3.51032e-12 0 -2.41865e-12)
(-2.94124e-12 0 -2.57204e-12)
(-2.38805e-12 0 -2.64846e-12)
(-1.85676e-12 0 -2.65494e-12)
(-1.35414e-12 0 -2.5996e-12)
(-8.8628e-13 0 -2.49125e-12)
(-4.58541e-13 0 -2.33882e-12)
(-7.53513e-14 0 -2.15117e-12)
(2.60551e-13 0 -1.93704e-12)
(5.48187e-13 0 -1.70467e-12)
(7.87552e-13 0 -1.46147e-12)
(9.79167e-13 0 -1.21388e-12)
(1.12437e-12 0 -9.67475e-13)
(1.22558e-12 0 -7.27075e-13)
(1.28612e-12 0 -4.9673e-13)
(1.30963e-12 0 -2.7965e-13)
(1.29973e-12 0 -7.81861e-14)
(1.25987e-12 0 1.06072e-13)
(1.1934e-12 0 2.7214e-13)
(1.10367e-12 0 4.1947e-13)
(9.93969e-13 0 5.4783e-13)
(8.67503e-13 0 6.57207e-13)
(7.27326e-13 0 7.47752e-13)
(5.76311e-13 0 8.19714e-13)
(4.17139e-13 0 8.73382e-13)
(2.52307e-13 0 9.09026e-13)
(8.43886e-14 0 9.26846e-13)
(-0.000119695 0 0.000130464)
(-0.000201621 0 0.000138592)
(-0.000315978 0 7.19442e-05)
(-0.00033086 0 0.000174048)
(-0.000353437 0 0.000230834)
(-0.000359196 0 0.000294976)
(-0.000341472 0 0.000426389)
(-0.000379644 0 0.000498819)
(-0.000551225 0 0.000451024)
(-0.000661706 0 0.000498872)
(-0.00073354 0 0.000562243)
(-0.000717625 0 0.000646685)
(-0.000783707 0 0.000602512)
(-0.000792205 0 0.000602445)
(-0.000799586 0 0.000549066)
(-0.000809379 0 0.000445396)
(-0.000748957 0 0.000407787)
(-0.000707003 0 0.000266745)
(-0.000639707 0 0.000155332)
(-0.000550895 0 0.000114581)
(-0.000457317 0 0.000110226)
(-0.000403249 0 6.8215e-05)
(-0.000352027 0 -1.6889e-06)
(-0.000253705 0 -7.99761e-05)
(-0.000174648 0 -0.000113344)
(-0.000128314 0 -0.000149409)
(-7.997e-06 0 -0.000190494)
(-5.50645e-05 0 -0.000262504)
(0.000242959 0 -0.000432736)
(0.000210614 0 -0.000479504)
(0.000428042 0 -0.000576423)
(0.00042298 0 -0.000697585)
(0.00052554 0 -0.000826225)
(0.000523051 0 -0.000998782)
(0.000474 0 -0.0012104)
(0.000583742 0 -0.00142793)
(0.000388499 0 -0.00176849)
(0.00018689 0 -0.0020873)
(0.00025116 0 -0.00210921)
(0.000339475 0 -0.00196678)
(0.000257982 0 -0.00178709)
(0.000337981 0 -0.00155618)
(0.000303479 0 -0.00129823)
(0.000601431 0 -0.00107429)
(0.000740162 0 -0.000915605)
(0.000685133 0 -0.000847213)
(0.00070051 0 -0.000729751)
(0.000767738 0 -0.000538431)
(0.000797098 0 -0.000383272)
(0.000798234 0 -0.00032724)
(0.000818956 0 -0.000305037)
(0.000885538 0 -0.000260089)
(0.000934241 0 -0.000230963)
(0.000954511 0 -0.000144333)
(0.000958939 0 -0.000134745)
(0.000976011 0 -9.92513e-05)
(0.00100303 0 -7.0393e-05)
(0.00102911 0 -3.88553e-05)
(0.00103244 0 -4.71837e-05)
(0.00103306 0 -2.10916e-05)
(0.00102435 0 1.71269e-05)
(0.00102856 0 4.69582e-05)
(0.00101736 0 4.87647e-05)
(0.000993511 0 9.15531e-05)
(0.000983402 0 0.000126751)
(0.000986479 0 0.000132958)
(0.000978943 0 0.000161322)
(0.000965826 0 0.000205816)
(0.000947211 0 0.00019918)
(0.000902461 0 0.000279648)
(0.000901627 0 0.00029614)
(0.000902078 0 0.000293144)
(0.000888542 0 0.000267391)
(0.000880923 0 0.000265702)
(0.000697492 0 0.00058492)
(0.000751965 0 0.000612108)
(0.000691035 0 0.000772502)
(0.00070121 0 0.000891283)
(0.000354692 0 0.0011992)