0 	-14.631
0.010101 	-6.62752
0.020202 	-5.95939
0.030303 	-9.08323
0.040404 	-9.57637
0.0505051 	-9.60253
0.0606061 	-9.60406
0.0707071 	-9.60416
0.0808081 	-9.60417
0.0909091 	-9.60417
