/*--------------------------------*- C++ -*----------------------------------*\
  =========                 |
  \\      /  F ield         | OpenFOAM: The Open Source CFD Toolbox
   \\    /   O peration     | Website:  https://openfoam.org
    \\  /    A nd           | Version:  6
     \\/     M anipulation  |
\*---------------------------------------------------------------------------*/
FoamFile
{
    version     2.0;
    format      ascii;
    class       surfaceScalarField;
    location    "8800";
    object      phi;
}
// * * * * * * * * * * * * * * * * * * * * * * * * * * * * * * * * * * * * * //

dimensions      [0 3 -1 0 0 0 0];

internalField   nonuniform List<scalar> 
9440
(
2.7718e-13
-2.77181e-13
5.4908e-13
-2.71952e-13
8.15716e-13
-2.66679e-13
1.07136e-12
-2.55683e-13
1.31344e-12
-2.4212e-13
1.54027e-12
-2.26872e-13
1.75046e-12
-2.10227e-13
1.94321e-12
-1.92792e-13
2.11815e-12
-1.74984e-13
2.27534e-12
-1.57224e-13
2.41492e-12
-1.39624e-13
2.53728e-12
-1.22396e-13
2.64314e-12
-1.05898e-13
2.73275e-12
-8.9648e-14
2.8067e-12
-7.39885e-14
2.86513e-12
-5.84582e-14
2.90767e-12
-4.25837e-14
2.9376e-12
-2.99597e-14
2.95514e-12
-1.75768e-14
2.96026e-12
-5.15127e-15
2.94989e-12
1.03393e-14
2.9319e-12
1.7953e-14
2.90424e-12
2.76225e-14
2.86765e-12
3.6567e-14
2.8236e-12
4.40125e-14
2.77213e-12
5.14407e-14
2.71507e-12
5.70335e-14
2.65373e-12
6.13146e-14
2.58842e-12
6.52823e-14
2.52005e-12
6.83476e-14
2.44958e-12
7.04444e-14
2.37777e-12
7.17903e-14
2.30516e-12
7.25938e-14
2.23246e-12
7.26831e-14
2.16013e-12
7.23063e-14
2.08837e-12
7.17456e-14
2.01757e-12
7.07822e-14
1.9478e-12
6.97604e-14
1.87936e-12
6.84339e-14
1.81231e-12
6.70377e-14
1.74663e-12
6.56741e-14
1.68237e-12
6.4255e-14
1.61955e-12
6.2822e-14
1.55823e-12
6.13176e-14
1.49811e-12
6.01182e-14
1.43935e-12
5.87659e-14
1.38152e-12
5.78307e-14
1.32512e-12
5.64038e-14
1.26982e-12
5.53049e-14
1.21571e-12
5.41226e-14
1.16274e-12
5.29836e-14
1.1107e-12
5.20496e-14
1.05965e-12
5.10663e-14
1.00965e-12
5.00122e-14
9.60596e-13
4.90684e-14
9.12634e-13
4.79796e-14
8.65609e-13
4.70432e-14
8.19662e-13
4.5967e-14
7.74526e-13
4.51563e-14
7.30439e-13
4.41089e-14
6.87388e-13
4.30752e-14
6.45354e-13
4.20588e-14
6.04288e-13
4.10891e-14
5.64181e-13
4.01325e-14
5.25041e-13
3.91683e-14
4.86897e-13
3.81723e-14
4.49692e-13
3.72351e-14
4.13399e-13
3.63228e-14
3.7797e-13
3.54613e-14
3.43625e-13
3.4376e-14
3.10338e-13
3.33203e-14
2.78246e-13
3.21251e-14
2.47758e-13
3.05212e-14
2.19918e-13
2.78742e-14
1.98034e-13
2.19183e-14
1.9307e-13
5.00008e-15
2.41794e-13
-4.86904e-14
1.29002e-13
1.12828e-13
-2.21736e-17
1.29059e-13
1.03234e-21
1.05884e-22
1.02643e-21
4.65289e-25
1.02364e-21
2.63664e-24
1.02074e-21
5.89366e-24
1.01459e-21
9.04729e-24
1.00518e-21
1.21492e-23
9.92565e-22
1.51477e-23
9.76952e-22
1.78361e-23
9.58444e-22
2.03693e-23
9.37609e-22
2.26958e-23
9.145e-22
2.46603e-23
8.89426e-22
2.65732e-23
8.62698e-22
2.82275e-23
8.3447e-22
2.96234e-23
8.05209e-22
3.07608e-23
7.74965e-22
3.16914e-23
7.44049e-22
3.24151e-23
7.12564e-22
3.30355e-23
6.80666e-22
3.36042e-23
6.4851e-22
3.40178e-23
6.16508e-22
3.42763e-23
5.84403e-22
3.45348e-23
5.5235e-22
3.46382e-23
5.204e-22
3.47416e-23
4.8876e-22
3.47933e-23
4.57534e-22
3.50518e-23
4.26205e-22
3.50518e-23
3.95341e-22
3.51552e-23
3.64632e-22
3.51552e-23
3.34078e-22
3.52586e-23
3.03782e-22
3.54137e-23
2.73538e-22
3.55171e-23
2.43346e-22
3.55688e-23
2.13413e-22
3.56722e-23
1.83479e-22
3.57239e-23
1.53494e-22
3.58273e-23
1.23612e-22
3.5879e-23
9.35231e-23
3.60858e-23
6.32793e-23
3.62926e-23
3.25185e-23
3.67578e-23
3.83605e-23
2.81896e-13
-5.59131e-13
5.5844e-13
-5.48579e-13
8.26588e-13
-5.349e-13
1.08411e-12
-5.13274e-13
1.32801e-12
-4.86091e-13
1.55607e-12
-4.55005e-13
1.76703e-12
-4.21254e-13
1.96013e-12
-3.85966e-13
2.13516e-12
-3.50082e-13
2.29208e-12
-3.14214e-13
2.43133e-12
-2.78942e-13
2.5534e-12
-2.44534e-13
2.65882e-12
-2.11385e-13
2.74791e-12
-1.78806e-13
2.82163e-12
-1.47774e-13
2.87901e-12
-1.15898e-13
2.92115e-12
-8.47912e-14
2.95073e-12
-5.95924e-14
2.96781e-12
-3.47252e-14
2.97109e-12
-8.48987e-15
2.96073e-12
2.06497e-14
2.94163e-12
3.69939e-14
2.91305e-12
5.61444e-14
2.87534e-12
7.42299e-14
2.83045e-12
8.88559e-14
2.77782e-12
1.04014e-13
2.71984e-12
1.14966e-13
2.65757e-12
1.23549e-13
2.59135e-12
1.31459e-13
2.52218e-12
1.37473e-13
2.45101e-12
1.41577e-13
2.37855e-12
1.44215e-13
2.3054e-12
1.45708e-13
2.23228e-12
1.45775e-13
2.1595e-12
1.45062e-13
2.08752e-12
1.43701e-13
2.01647e-12
1.41809e-13
1.94661e-12
1.39605e-13
1.87801e-12
1.37016e-13
1.81093e-12
1.34107e-13
1.74515e-12
1.31449e-13
1.68101e-12
1.28387e-13
1.61826e-12
1.25569e-13
1.55685e-12
1.22728e-13
1.49682e-12
1.20155e-13
1.43815e-12
1.17442e-13
1.38045e-12
1.15539e-13
1.32399e-12
1.12874e-13
1.26888e-12
1.1043e-13
1.21477e-12
1.08252e-13
1.16184e-12
1.05934e-13
1.10981e-12
1.04108e-13
1.05874e-12
1.02159e-13
1.0088e-12
9.99743e-14
9.59744e-13
9.8161e-14
9.11736e-13
9.60224e-14
8.64736e-13
9.40807e-14
8.1874e-13
9.20017e-14
7.73646e-13
9.0291e-14
7.29549e-13
8.82482e-14
6.86494e-13
8.61743e-14
6.44532e-13
8.40663e-14
6.0349e-13
8.21793e-14
5.63414e-13
8.02556e-14
5.24307e-13
7.83259e-14
4.86193e-13
7.6338e-14
4.48887e-13
7.45948e-14
4.12559e-13
7.27034e-14
3.77218e-13
7.08574e-14
3.42793e-13
6.88582e-14
3.09313e-13
6.68584e-14
2.76892e-13
6.46044e-14
2.4554e-13
6.1934e-14
2.15229e-13
5.82442e-14
1.85111e-13
5.2098e-14
1.4782e-13
4.23527e-14
7.58466e-14
2.33438e-14
4.23367e-14
1.46401e-13
-1.69084e-17
1.7146e-13
1.02572e-21
1.58824e-22
1.02855e-21
7.23783e-25
1.02689e-21
7.18613e-24
1.02389e-21
1.35968e-23
1.01769e-21
1.99557e-23
1.00813e-21
2.61079e-23
9.95253e-22
3.19499e-23
9.79485e-22
3.73265e-23
9.60719e-22
4.22379e-23
9.39677e-22
4.69425e-23
9.16361e-22
5.0975e-23
8.9108e-22
5.46456e-23
8.64094e-22
5.77476e-23
8.35659e-22
6.04359e-23
8.06088e-22
6.2814e-23
7.7574e-22
6.49337e-23
7.44618e-22
6.65363e-23
7.13081e-22
6.78805e-23
6.81028e-22
6.90179e-23
6.4882e-22
7.00002e-23
6.16818e-22
7.09307e-23
5.84507e-22
7.15511e-23
5.52453e-22
7.20164e-23
5.20503e-22
7.243e-23
4.89019e-22
7.2947e-23
4.57483e-22
7.33089e-23
4.26257e-22
7.37225e-23
3.95341e-22
7.41361e-23
3.64787e-22
7.44463e-23
3.34181e-22
7.48082e-23
3.03834e-22
7.51183e-23
2.7359e-22
7.54285e-23
2.43553e-22
7.57387e-23
2.13413e-22
7.59972e-23
1.83582e-22
7.62557e-23
1.53545e-22
7.63591e-23
1.23819e-22
7.66176e-23
9.37299e-23
7.66176e-23
6.37963e-23
7.6721e-23
3.41212e-23
7.68244e-23
7.70829e-23
2.88064e-13
-8.47238e-13
5.72657e-13
-8.33248e-13
8.48446e-13
-8.10753e-13
1.11184e-12
-7.7673e-13
1.35997e-12
-7.34285e-13
1.59098e-12
-6.86071e-13
1.80362e-12
-6.33953e-13
1.9974e-12
-5.79808e-13
2.17231e-12
-5.25055e-13
2.32876e-12
-4.70725e-13
2.46707e-12
-4.17301e-13
2.58808e-12
-3.65603e-13
2.69229e-12
-3.15651e-13
2.78025e-12
-2.66828e-13
2.8529e-12
-2.20478e-13
2.90792e-12
-1.70975e-13
2.9492e-12
-1.26123e-13
2.97771e-12
-8.81574e-14
2.99366e-12
-5.0723e-14
2.9931e-12
-7.98657e-15
2.98254e-12
3.11574e-14
2.96152e-12
5.79689e-14
2.93087e-12
8.67519e-14
2.89097e-12
1.14081e-13
2.84417e-12
1.35608e-13
2.78911e-12
1.59036e-13
2.72933e-12
1.74697e-13
2.66505e-12
1.87796e-13
2.59699e-12
1.99481e-13
2.52622e-12
2.08207e-13
2.45358e-12
2.1418e-13
2.37979e-12
2.17978e-13
2.30555e-12
2.19916e-13
2.23163e-12
2.19668e-13
2.15819e-12
2.18477e-13
2.08555e-12
2.16322e-13
2.0141e-12
2.13245e-13
1.94384e-12
2.09845e-13
1.87521e-12
2.05636e-13
1.80809e-12
2.01217e-13
1.74233e-12
1.97199e-13
1.67813e-12
1.92588e-13
1.61546e-12
1.88234e-13
1.55413e-12
1.84065e-13
1.49425e-12
1.80031e-13
1.43575e-12
1.75954e-13
1.3781e-12
1.73194e-13
1.32174e-12
1.69246e-13
1.26662e-12
1.6557e-13
1.21256e-12
1.62328e-13
1.15969e-12
1.58815e-13
1.10776e-12
1.56058e-13
1.05668e-12
1.5327e-13
1.00667e-12
1.50003e-13
9.57569e-13
1.47292e-13
9.09619e-13
1.44001e-13
8.62626e-13
1.41105e-13
8.16673e-13
1.37989e-13
7.71573e-13
1.35425e-13
7.27497e-13
1.32362e-13
6.84477e-13
1.29231e-13
6.42411e-13
1.26171e-13
6.01367e-13
1.23267e-13
5.61313e-13
1.20352e-13
5.22219e-13
1.17463e-13
4.84028e-13
1.14575e-13
4.46863e-13
1.11805e-13
4.10517e-13
1.09096e-13
3.75118e-13
1.06307e-13
3.40648e-13
1.03379e-13
3.07024e-13
1.00532e-13
2.74162e-13
9.75191e-14
2.41751e-13
9.43963e-14
2.09262e-13
9.0787e-14
1.7431e-13
8.71017e-14
1.32002e-13
8.47141e-14
6.66224e-14
8.87785e-14
3.82265e-14
1.74852e-13
-1.56402e-17
2.09746e-13
1.03234e-21
1.19124e-22
1.03501e-21
6.72084e-25
1.0333e-21
1.07533e-23
1.03025e-21
2.07312e-23
1.02384e-21
3.04506e-23
1.01392e-21
3.99115e-23
1.00063e-21
4.85969e-23
9.84397e-22
5.67653e-23
9.65372e-22
6.42616e-23
9.43761e-22
7.10341e-23
9.1998e-22
7.7238e-23
8.94182e-22
8.27698e-23
8.66834e-22
8.75261e-23
8.37986e-22
9.17137e-23
8.08207e-22
9.51775e-23
7.77395e-22
9.81243e-23
7.45962e-22
1.00606e-22
7.14219e-22
1.02726e-22
6.8201e-22
1.0438e-22
6.4975e-22
1.05827e-22
6.17387e-22
1.06965e-22
5.84972e-22
1.07947e-22
5.52867e-22
1.08774e-22
5.2102e-22
1.09653e-22
4.89329e-22
1.10222e-22
4.57948e-22
1.10842e-22
4.2667e-22
1.11463e-22
3.95651e-22
1.1198e-22
3.65097e-22
1.12548e-22
3.34543e-22
1.12962e-22
3.04144e-22
1.13427e-22
2.73952e-22
1.13892e-22
2.4376e-22
1.14254e-22
2.13723e-22
1.14565e-22
1.83686e-22
1.14823e-22
1.53804e-22
1.15082e-22
1.23819e-22
1.15133e-22
9.37816e-23
1.15185e-22
6.3848e-23
1.15288e-22
3.43797e-23
1.15288e-22
1.14926e-22
3.01137e-13
-1.14842e-12
5.96908e-13
-1.12909e-12
8.82773e-13
-1.09668e-12
1.15434e-12
-1.04836e-12
1.40847e-12
-9.8847e-13
1.64328e-12
-9.20943e-13
1.85795e-12
-8.48685e-13
2.05235e-12
-7.74263e-13
2.2269e-12
-6.99665e-13
2.38221e-12
-6.26095e-13
2.51923e-12
-5.54374e-13
2.63882e-12
-4.8526e-13
2.74103e-12
-4.17914e-13
2.82773e-12
-3.53581e-13
2.89867e-12
-2.91478e-13
2.95083e-12
-2.23182e-13
2.99097e-12
-1.66323e-13
3.01773e-12
-1.14968e-13
3.03254e-12
-6.55754e-14
3.02593e-12
-1.43202e-15
3.01539e-12
4.16453e-14
2.99107e-12
8.22445e-14
2.95759e-12
1.20185e-13
2.9146e-12
1.57029e-13
2.86441e-12
1.85762e-13
2.80619e-12
2.17216e-13
2.74343e-12
2.37415e-13
2.67612e-12
2.5507e-13
2.60533e-12
2.7023e-13
2.53208e-12
2.81422e-13
2.45734e-12
2.88896e-13
2.38153e-12
2.93755e-13
2.30566e-12
2.95757e-13
2.23048e-12
2.9483e-13
2.15592e-12
2.93016e-13
2.08253e-12
2.89686e-13
2.01044e-12
2.85315e-13
1.93984e-12
2.80431e-13
1.8709e-12
2.74565e-13
1.80353e-12
2.68576e-13
1.73786e-12
2.62866e-13
1.67377e-12
2.56668e-13
1.61126e-12
2.50746e-13
1.55008e-12
2.45239e-13
1.49022e-12
2.39902e-13
1.43209e-12
2.34082e-13
1.37476e-12
2.30534e-13
1.31837e-12
2.25649e-13
1.26338e-12
2.20575e-13
1.20941e-12
2.16313e-13
1.15661e-12
2.11629e-13
1.10469e-12
2.08003e-13
1.05362e-12
2.04356e-13
1.00365e-12
2e-13
9.54643e-13
1.96326e-13
9.06646e-13
1.92021e-13
8.59617e-13
1.88166e-13
8.13587e-13
1.8405e-13
7.68524e-13
1.80522e-13
7.24471e-13
1.76449e-13
6.81429e-13
1.72308e-13
6.39408e-13
1.68231e-13
5.98413e-13
1.64303e-13
5.58408e-13
1.60398e-13
5.19396e-13
1.56518e-13
4.81221e-13
1.52793e-13
4.43962e-13
1.4911e-13
4.07659e-13
1.45445e-13
3.72307e-13
1.41705e-13
3.3776e-13
1.37973e-13
3.03967e-13
1.34374e-13
2.70888e-13
1.30646e-13
2.38257e-13
1.27075e-13
2.05272e-13
1.23822e-13
1.71053e-13
1.21371e-13
1.35364e-13
1.20455e-13
9.97285e-14
1.24465e-13
4.22216e-14
2.32411e-13
-1.5953e-17
2.52026e-13
1.05881e-21
2.51476e-22
1.04514e-21
9.82277e-25
1.04328e-21
1.47859e-23
1.04008e-21
2.83309e-23
1.03325e-21
4.14107e-23
1.02271e-21
5.40252e-23
1.0088e-21
6.58126e-23
9.91893e-22
7.68244e-23
9.72144e-22
8.69574e-23
9.49914e-22
9.61598e-23
9.25512e-22
1.0438e-22
8.98939e-22
1.11618e-22
8.7097e-22
1.17977e-22
8.41501e-22
1.23405e-22
8.11206e-22
1.2811e-22
7.79876e-22
1.31935e-22
7.48082e-22
1.35192e-22
7.15873e-22
1.37984e-22
6.83406e-22
1.40207e-22
6.50888e-22
1.42068e-22
6.18318e-22
1.43516e-22
5.85851e-22
1.44757e-22
5.53746e-22
1.45946e-22
5.21589e-22
1.46773e-22
4.89898e-22
1.47652e-22
4.58568e-22
1.48427e-22
4.27187e-22
1.49048e-22
3.96271e-22
1.49771e-22
3.6551e-22
1.50288e-22
3.34956e-22
1.50857e-22
3.04609e-22
1.51322e-22
2.74262e-22
1.51788e-22
2.4407e-22
1.5215e-22
2.13981e-22
1.5246e-22
1.83944e-22
1.52718e-22
1.53959e-22
1.52873e-22
1.23819e-22
1.52822e-22
9.39367e-23
1.52822e-22
6.3848e-23
1.52667e-22
3.40178e-23
1.5246e-22
1.51994e-22
3.19293e-13
-1.46775e-12
6.31313e-13
-1.44118e-12
9.31238e-13
-1.39666e-12
1.21403e-12
-1.33121e-12
1.47587e-12
-1.25037e-12
1.71534e-12
-1.16047e-12
1.93219e-12
-1.06559e-12
2.12683e-12
-9.68961e-13
2.30032e-12
-8.73217e-13
2.45393e-12
-7.79764e-13
2.58887e-12
-6.89364e-13
2.70614e-12
-6.02584e-13
2.80619e-12
-5.1802e-13
2.89117e-12
-4.38616e-13
2.95848e-12
-3.58846e-13
3.0087e-12
-2.73456e-13
3.04721e-12
-2.0488e-13
3.07222e-12
-1.40028e-13
3.08199e-12
-7.53909e-14
3.07234e-12
8.16894e-15
3.05903e-12
5.49089e-14
3.03081e-12
1.10417e-13
2.99316e-12
1.57785e-13
2.94631e-12
2.03841e-13
2.89112e-12
2.4091e-13
2.82884e-12
2.79451e-13
2.76198e-12
3.04239e-13
2.69063e-12
3.26376e-13
2.61603e-12
3.448e-13
2.53962e-12
3.578e-13
2.46181e-12
3.66672e-13
2.38343e-12
3.72106e-13
2.30546e-12
3.73698e-13
2.2285e-12
3.71766e-13
2.1525e-12
3.68989e-13
2.07814e-12
3.64025e-13
2.00521e-12
3.58225e-13
1.9342e-12
3.51435e-13
1.86505e-12
3.43701e-13
1.79757e-12
3.36047e-13
1.73189e-12
3.28541e-13
1.66795e-12
3.20602e-13
1.6056e-12
3.13097e-13
1.54463e-12
3.06208e-13
1.48508e-12
2.99456e-13
1.42706e-12
2.92115e-13
1.37042e-12
2.87175e-13
1.31398e-12
2.82103e-13
1.25904e-12
2.7553e-13
1.20522e-12
2.70145e-13
1.15249e-12
2.64379e-13
1.10066e-12
2.59854e-13
1.04973e-12
2.55311e-13
9.99811e-13
2.49938e-13
9.5069e-13
2.45473e-13
9.02717e-13
2.40022e-13
8.55656e-13
2.35258e-13
8.09621e-13
2.30114e-13
7.64488e-13
2.25687e-13
7.20539e-13
2.20434e-13
6.7748e-13
2.15404e-13
6.35529e-13
2.10223e-13
5.94527e-13
2.05342e-13
5.54507e-13
2.00459e-13
5.15535e-13
1.95531e-13
4.77384e-13
1.90987e-13
4.4018e-13
1.86357e-13
4.03966e-13
1.81703e-13
3.68583e-13
1.77137e-13
3.33966e-13
1.72637e-13
3.0023e-13
1.68161e-13
2.6721e-13
1.63716e-13
2.34881e-13
1.59452e-13
2.03221e-13
1.5553e-13
1.71495e-13
1.53147e-13
1.41003e-13
1.51e-13
1.09626e-13
1.55894e-13
4.51021e-14
2.96988e-13
-1.52801e-17
2.97184e-13
1.05881e-21
2.5148e-22
1.05889e-21
1.13737e-24
1.05688e-21
1.8715e-23
1.0531e-21
3.60341e-23
1.04581e-21
5.28362e-23
1.03444e-21
6.88111e-23
1.01981e-21
8.38037e-23
1.00203e-21
9.78141e-23
9.81346e-22
1.1048e-22
9.58185e-22
1.22061e-22
9.3275e-22
1.32452e-22
9.05298e-22
1.41396e-22
8.76398e-22
1.49306e-22
8.46206e-22
1.56079e-22
8.1498e-22
1.61817e-22
7.83133e-22
1.66625e-22
7.50925e-22
1.70606e-22
7.18096e-22
1.73811e-22
6.85268e-22
1.76551e-22
6.52387e-22
1.78671e-22
6.1961e-22
1.8048e-22
5.86988e-22
1.8198e-22
5.54573e-22
1.83169e-22
5.2252e-22
1.84306e-22
4.90673e-22
1.85133e-22
4.59189e-22
1.85961e-22
4.27911e-22
1.86633e-22
3.96788e-22
1.87253e-22
3.66131e-22
1.87873e-22
3.35422e-22
1.88339e-22
3.05023e-22
1.88804e-22
2.74624e-22
1.89166e-22
2.4438e-22
1.89424e-22
2.14188e-22
1.89579e-22
1.84048e-22
1.89631e-22
1.53907e-22
1.89528e-22
1.2387e-22
1.89424e-22
9.37299e-23
1.89166e-22
6.36929e-23
1.88856e-22
3.35525e-23
1.88287e-22
1.8777e-22
3.43943e-13
-1.81173e-12
6.78307e-13
-1.77561e-12
9.97238e-13
-1.71565e-12
1.29425e-12
-1.62828e-12
1.56559e-12
-1.52176e-12
1.81017e-12
-1.4051e-12
2.02872e-12
-1.2842e-12
2.22254e-12
-1.16284e-12
2.39371e-12
-1.04444e-12
2.54449e-12
-9.30595e-13
2.67648e-12
-8.21415e-13
2.79003e-12
-7.16189e-13
2.88827e-12
-6.16312e-13
2.97071e-12
-5.21108e-13
3.03191e-12
-4.20092e-13
3.08221e-12
-3.23805e-13
3.11871e-12
-2.41436e-13
3.14187e-12
-1.63241e-13
3.14126e-12
-7.48218e-14
3.13381e-12
1.55672e-14
3.11383e-12
7.4844e-14
3.08113e-12
1.43073e-13
3.03786e-12
2.01017e-13
2.98626e-12
2.55396e-13
2.92423e-12
3.02902e-13
2.85703e-12
3.46612e-13
2.78475e-12
3.7648e-13
2.7083e-12
4.02781e-13
2.62892e-12
4.24152e-13
2.54822e-12
4.38471e-13
2.46668e-12
4.4818e-13
2.38506e-12
4.53695e-13
2.3045e-12
4.54233e-13
2.22536e-12
4.50885e-13
2.14776e-12
4.46566e-13
2.07209e-12
4.39671e-13
1.99829e-12
4.32018e-13
1.92675e-12
4.22953e-13
1.85737e-12
4.13069e-13
1.78976e-12
4.03644e-13
1.72421e-12
3.94083e-13
1.66047e-12
3.84347e-13
1.59856e-12
3.75004e-13
1.53782e-12
3.66954e-13
1.47891e-12
3.58363e-13
1.42065e-12
3.50386e-13
1.36493e-12
3.42897e-13
1.30859e-12
3.38457e-13
1.25361e-12
3.30521e-13
1.20006e-12
3.23715e-13
1.14727e-12
3.17185e-13
1.09566e-12
3.1148e-13
1.04473e-12
3.06265e-13
9.94843e-13
2.99846e-13
9.45747e-13
2.94595e-13
8.9776e-13
2.88034e-13
8.50728e-13
2.82321e-13
8.04653e-13
2.76217e-13
7.59546e-13
2.70828e-13
7.15475e-13
2.64536e-13
6.72472e-13
2.58444e-13
6.30598e-13
2.52132e-13
5.89703e-13
2.46278e-13
5.49776e-13
2.40425e-13
5.10862e-13
2.34487e-13
4.72767e-13
2.29124e-13
4.35633e-13
2.23536e-13
3.99427e-13
2.17953e-13
3.64048e-13
2.12561e-13
3.29497e-13
2.07238e-13
2.9577e-13
2.01935e-13
2.62921e-13
1.96611e-13
2.31189e-13
1.91233e-13
2.00721e-13
1.86049e-13
1.71321e-13
1.82595e-13
1.46271e-13
1.761e-13
1.21488e-13
1.80728e-13
3.44454e-14
3.84083e-13
-1.50616e-17
3.31683e-13
1.08528e-21
3.30892e-22
1.07647e-21
1.44757e-24
1.0742e-21
2.30577e-23
1.06985e-21
4.43576e-23
1.06179e-21
6.49854e-23
1.04949e-21
8.45275e-23
1.03382e-21
1.02932e-22
1.01474e-21
1.19786e-22
9.92875e-22
1.35451e-22
9.68525e-22
1.4941e-22
9.41745e-22
1.61662e-22
9.13207e-22
1.72571e-22
8.8317e-22
1.81876e-22
8.51893e-22
1.89838e-22
8.19788e-22
1.96559e-22
7.87114e-22
2.02142e-22
7.5413e-22
2.06795e-22
7.20836e-22
2.10466e-22
6.87439e-22
2.13568e-22
6.54145e-22
2.16049e-22
6.21109e-22
2.18066e-22
5.88125e-22
2.19616e-22
5.55659e-22
2.20909e-22
5.23347e-22
2.21891e-22
4.915e-22
2.2277e-22
4.59809e-22
2.2339e-22
4.28583e-22
2.24011e-22
3.97357e-22
2.24528e-22
3.66596e-22
2.24941e-22
3.35887e-22
2.252e-22
3.05333e-22
2.2551e-22
2.74934e-22
2.25665e-22
2.44587e-22
2.25665e-22
2.1424e-22
2.2551e-22
1.84048e-22
2.252e-22
1.53752e-22
2.24941e-22
1.23612e-22
2.24424e-22
9.3368e-23
2.23959e-22
6.31759e-23
2.23287e-22
3.29838e-23
2.22512e-22
2.21684e-22
3.77361e-13
-2.18913e-12
7.41992e-13
-2.14031e-12
1.08542e-12
-2.05914e-12
1.40016e-12
-1.94308e-12
1.68205e-12
-1.80371e-12
1.93105e-12
-1.65416e-12
2.14974e-12
-1.50295e-12
2.34095e-12
-1.3541e-12
2.508e-12
-1.21155e-12
2.65415e-12
-1.0768e-12
2.78106e-12
-9.48378e-13
2.89105e-12
-8.26234e-13
2.98688e-12
-7.1219e-13
3.06414e-12
-5.98419e-13
3.12131e-12
-4.77317e-13
3.17102e-12
-3.73556e-13
3.20516e-12
-2.75628e-13
3.22556e-12
-1.83684e-13
3.21368e-12
-6.29913e-14
3.20904e-12
2.01642e-14
3.18001e-12
1.03825e-13
3.14268e-12
1.80359e-13
3.09194e-12
2.51711e-13
3.03439e-12
3.12905e-13
2.9635e-12
3.7375e-13
2.89041e-12
4.1967e-13
2.81143e-12
4.55425e-13
2.72857e-12
4.85609e-13
2.64343e-12
5.09257e-13
2.55737e-12
5.24497e-13
2.4713e-12
5.34222e-13
2.38589e-12
5.3908e-13
2.30235e-12
5.37742e-13
2.22065e-12
5.32566e-13
2.1411e-12
5.26093e-13
2.06401e-12
5.16746e-13
1.98931e-12
5.06699e-13
1.91717e-12
4.95078e-13
1.84755e-12
4.82682e-13
1.78001e-12
4.7117e-13
1.71479e-12
4.59296e-13
1.6514e-12
4.47739e-13
1.58987e-12
4.36528e-13
1.52954e-12
4.27289e-13
1.4713e-12
4.16601e-13
1.41304e-12
4.08651e-13
1.35801e-12
3.97934e-13
1.30242e-12
3.94055e-13
1.24741e-12
3.8555e-13
1.19408e-12
3.77062e-13
1.14131e-12
3.69971e-13
1.08982e-12
3.62987e-13
1.03895e-12
3.57153e-13
9.88991e-13
3.49827e-13
9.39837e-13
3.43773e-13
8.91724e-13
3.36174e-13
8.44722e-13
3.29352e-13
7.98606e-13
3.22363e-13
7.53584e-13
3.15881e-13
7.09404e-13
3.08749e-13
6.6648e-13
3.01403e-13
6.24575e-13
2.94073e-13
5.8373e-13
2.87159e-13
5.43974e-13
2.80222e-13
5.0512e-13
2.73377e-13
4.67084e-13
2.67201e-13
4.30183e-13
2.60478e-13
3.94105e-13
2.54074e-13
3.58734e-13
2.47976e-13
3.24163e-13
2.41856e-13
2.9044e-13
2.35703e-13
2.57598e-13
2.29501e-13
2.26035e-13
2.22844e-13
1.96447e-13
2.15683e-13
1.70681e-13
2.0841e-13
1.47129e-13
1.99703e-13
8.10894e-14
2.46816e-13
1.76989e-14
4.47523e-13
-1.42346e-17
3.49435e-13
1.09851e-21
3.17661e-22
1.09803e-21
1.60266e-24
1.0955e-21
2.77106e-23
1.09048e-21
5.33532e-23
1.08133e-21
7.80652e-23
1.06784e-21
1.01536e-22
1.05073e-21
1.23353e-22
1.03036e-21
1.43568e-22
1.00689e-21
1.61869e-22
9.8083e-22
1.78154e-22
9.52602e-22
1.9263e-22
9.22513e-22
2.05141e-22
8.9108e-22
2.15998e-22
8.58665e-22
2.25148e-22
8.25371e-22
2.32748e-22
7.91767e-22
2.39107e-22
7.57801e-22
2.44225e-22
7.23938e-22
2.48361e-22
6.8992e-22
2.51515e-22
6.56109e-22
2.53996e-22
6.22609e-22
2.56168e-22
5.8947e-22
2.57667e-22
5.56589e-22
2.58856e-22
5.24226e-22
2.59786e-22
4.92069e-22
2.60407e-22
4.60481e-22
2.60924e-22
4.291e-22
2.61131e-22
3.97822e-22
2.61286e-22
3.66855e-22
2.61389e-22
3.36197e-22
2.61441e-22
3.05488e-22
2.61234e-22
2.74934e-22
2.60976e-22
2.4438e-22
2.6051e-22
2.1393e-22
2.60045e-22
1.83738e-22
2.59476e-22
1.53339e-22
2.58494e-22
1.23095e-22
2.57667e-22
9.26959e-23
2.56685e-22
6.24004e-23
2.55754e-22
3.22083e-23
2.54617e-22
2.53531e-22
4.22321e-13
-2.61149e-12
8.28218e-13
-2.54627e-12
1.20271e-12
-2.43368e-12
1.53838e-12
-2.27881e-12
1.83103e-12
-2.09642e-12
2.08222e-12
-1.9054e-12
2.29824e-12
-1.71902e-12
2.48351e-12
-1.53943e-12
2.64336e-12
-1.37146e-12
2.78206e-12
-1.21556e-12
2.90237e-12
-1.06873e-12
3.0092e-12
-9.33112e-13
3.10106e-12
-8.04107e-13
3.16975e-12
-6.67153e-13
3.22906e-12
-5.36677e-13
3.27591e-12
-4.2045e-13
3.3082e-12
-3.07966e-13
3.31689e-12
-1.92427e-13
3.30702e-12
-5.31711e-14
3.29501e-12
3.21378e-14
3.25957e-12
1.3922e-13
3.21481e-12
2.25079e-13
3.15629e-12
3.10187e-13
3.08925e-12
3.7991e-13
3.01018e-12
4.52783e-13
2.92873e-12
5.0108e-13
2.84171e-12
5.42412e-13
2.75085e-12
5.76441e-13
2.65885e-12
6.01223e-13
2.5667e-12
6.16622e-13
2.47496e-12
6.25932e-13
2.38521e-12
6.28807e-13
2.2982e-12
6.24724e-13
2.21357e-12
6.17179e-13
2.1321e-12
6.07534e-13
2.05326e-12
5.95572e-13
1.97779e-12
5.82151e-13
1.90534e-12
5.67514e-13
1.83547e-12
5.5254e-13
1.76816e-12
5.38471e-13
1.70336e-12
5.24099e-13
1.64065e-12
5.10442e-13
1.57944e-12
4.97736e-13
1.52001e-12
4.86714e-13
1.46216e-12
4.74452e-13
1.40518e-12
4.65636e-13
1.34915e-12
4.53975e-13
1.29552e-12
4.47691e-13
1.2404e-12
4.40679e-13
1.18708e-12
4.30403e-13
1.13436e-12
4.22705e-13
1.08299e-12
4.14373e-13
1.03223e-12
4.0794e-13
9.82086e-13
3.99995e-13
9.33066e-13
3.92816e-13
8.84698e-13
3.84566e-13
8.37681e-13
3.76396e-13
7.91395e-13
3.68677e-13
7.46531e-13
3.60775e-13
7.02328e-13
3.52983e-13
6.59401e-13
3.44366e-13
6.17687e-13
3.35823e-13
5.76968e-13
3.27915e-13
5.37236e-13
3.19991e-13
4.98423e-13
3.12228e-13
4.60713e-13
3.04951e-13
4.23885e-13
2.97347e-13
3.87857e-13
2.90143e-13
3.52661e-13
2.83215e-13
3.18042e-13
2.7652e-13
2.8414e-13
2.6965e-13
2.51034e-13
2.62652e-13
2.18779e-13
2.55143e-13
1.88196e-13
2.46313e-13
1.62471e-13
2.34185e-13
1.49089e-13
2.1313e-13
5.58294e-14
3.40123e-13
1.90533e-14
4.84346e-13
-1.35599e-17
3.6854e-13
1.12498e-21
2.77959e-22
1.12419e-21
1.70606e-24
1.12119e-21
3.2777e-23
1.11514e-21
6.30725e-23
1.10475e-21
9.2334e-23
1.08976e-21
1.19941e-22
1.07089e-21
1.45636e-22
1.04861e-21
1.69107e-22
1.02322e-21
1.902e-22
9.95202e-22
2.09018e-22
9.65113e-22
2.25407e-22
9.3337e-22
2.39727e-22
9.00231e-22
2.51877e-22
8.66317e-22
2.62113e-22
8.31678e-22
2.70591e-22
7.96833e-22
2.77519e-22
7.61989e-22
2.82999e-22
7.2704e-22
2.87187e-22
6.92505e-22
2.90496e-22
6.58281e-22
2.92977e-22
6.24211e-22
2.94683e-22
5.90659e-22
2.96027e-22
5.5752e-22
2.9701e-22
5.24846e-22
2.9763e-22
4.92638e-22
2.97888e-22
4.60636e-22
2.97992e-22
4.29255e-22
2.97888e-22
3.97874e-22
2.97578e-22
3.66855e-22
2.97165e-22
3.36042e-22
2.96596e-22
3.0523e-22
2.95769e-22
2.74469e-22
2.94787e-22
2.43915e-22
2.93804e-22
2.13361e-22
2.92667e-22
1.82807e-22
2.91323e-22
1.5246e-22
2.89979e-22
1.22113e-22
2.88531e-22
9.17137e-23
2.87032e-22
6.13148e-23
2.85584e-22
3.1071e-23
2.8424e-22
2.82844e-22
4.8124e-13
-3.09276e-12
9.45797e-13
-3.01089e-12
1.36342e-12
-2.85135e-12
1.71768e-12
-2.63312e-12
2.0204e-12
-2.3992e-12
2.26872e-12
-2.15377e-12
2.47747e-12
-1.92782e-12
2.65152e-12
-1.71354e-12
2.79864e-12
-1.51863e-12
2.92674e-12
-1.34371e-12
3.04062e-12
-1.18266e-12
3.14333e-12
-1.03587e-12
3.22616e-12
-8.8699e-13
3.29233e-12
-7.33369e-13
3.3529e-12
-5.97294e-13
3.39781e-12
-4.65404e-13
3.42482e-12
-3.35017e-13
3.4215e-12
-1.89149e-13
3.42137e-12
-5.30874e-14
3.39302e-12
6.04446e-14
3.3536e-12
1.78601e-13
3.29811e-12
2.80532e-13
3.23109e-12
3.77164e-13
3.15162e-12
4.59341e-13
3.06405e-12
5.40319e-13
2.97169e-12
5.93405e-13
2.87461e-12
6.3946e-13
2.77464e-12
6.76376e-13
2.67445e-12
7.01387e-13
2.57495e-12
7.16095e-13
2.47685e-12
7.24003e-13
2.38243e-12
7.23199e-13
2.29128e-12
7.15855e-13
2.20364e-12
7.04792e-13
2.11992e-12
6.91236e-13
2.03958e-12
6.75894e-13
1.96334e-12
6.58379e-13
1.89068e-12
6.40166e-13
1.82084e-12
6.22372e-13
1.75404e-12
6.05253e-13
1.68986e-12
5.88281e-13
1.62805e-12
5.72243e-13
1.56757e-12
5.5821e-13
1.50909e-12
5.45194e-13
1.4518e-12
5.31754e-13
1.39615e-12
5.21283e-13
1.33953e-12
5.10605e-13
1.2876e-12
4.99629e-13
1.23295e-12
4.95346e-13
1.17929e-12
4.84076e-13
1.12685e-12
4.7516e-13
1.07526e-12
4.65976e-13
1.02465e-12
4.58576e-13
9.74356e-13
4.50307e-13
9.25303e-13
4.4189e-13
8.76713e-13
4.33185e-13
8.29622e-13
4.23514e-13
7.83133e-13
4.15195e-13
7.38476e-13
4.05463e-13
6.94161e-13
3.97328e-13
6.51287e-13
3.87273e-13
6.09616e-13
3.77528e-13
5.69013e-13
3.68552e-13
5.29477e-13
3.59562e-13
4.90837e-13
3.50903e-13
4.53426e-13
3.42403e-13
4.16786e-13
3.34027e-13
3.80937e-13
3.26032e-13
3.45744e-13
3.18449e-13
3.11253e-13
3.11052e-13
2.77235e-13
3.03711e-13
2.43645e-13
2.96286e-13
2.10421e-13
2.88412e-13
1.77156e-13
2.7962e-13
1.43635e-13
2.67752e-13
1.05058e-13
2.51753e-13
3.67456e-14
4.08481e-13
2.01632e-14
5.00974e-13
-1.31284e-17
3.88752e-13
1.16469e-21
2.51489e-22
1.15521e-21
1.65436e-24
1.15144e-21
3.82571e-23
1.14446e-21
7.3981e-23
1.13241e-21
1.08102e-22
1.11545e-21
1.40207e-22
1.09431e-21
1.69831e-22
1.06975e-21
1.96817e-22
1.04199e-21
2.20961e-22
1.01169e-21
2.42364e-22
9.79434e-22
2.60924e-22
9.45519e-22
2.76744e-22
9.10467e-22
2.9003e-22
8.74744e-22
3.01145e-22
8.38658e-22
3.10038e-22
8.02365e-22
3.17275e-22
7.66228e-22
3.22962e-22
7.30349e-22
3.27357e-22
6.94935e-22
3.3051e-22
6.60038e-22
3.32682e-22
6.25504e-22
3.34233e-22
5.91641e-22
3.35163e-22
5.5814e-22
3.35525e-22
5.25105e-22
3.35525e-22
4.92741e-22
3.35318e-22
4.60533e-22
3.34698e-22
4.28945e-22
3.34026e-22
3.97512e-22
3.32992e-22
3.66286e-22
3.31803e-22
3.35215e-22
3.30304e-22
3.04299e-22
3.28804e-22
2.73487e-22
3.27047e-22
2.42726e-22
3.25185e-22
2.12017e-22
3.23117e-22
1.81463e-22
3.21101e-22
1.51012e-22
3.18982e-22
1.20613e-22
3.16862e-22
9.03178e-23
3.14794e-22
5.99189e-23
3.12778e-22
2.97268e-23
3.10865e-22
3.09262e-22
5.67243e-13
-3.66004e-12
1.10098e-12
-3.54469e-12
1.56888e-12
-3.3193e-12
1.95597e-12
-3.02026e-12
2.26237e-12
-2.70565e-12
2.50205e-12
-2.39349e-12
2.68958e-12
-2.1154e-12
2.84285e-12
-1.86685e-12
2.97098e-12
-1.64681e-12
3.08646e-12
-1.45924e-12
3.19336e-12
-1.28961e-12
3.2877e-12
-1.13026e-12
3.36284e-12
-9.62168e-13
3.4342e-12
-8.04777e-13
3.4925e-12
-6.55628e-13
3.53615e-12
-5.09104e-13
3.55174e-12
-3.50656e-13
3.55386e-12
-1.91309e-13
3.54519e-12
-4.44555e-14
3.51001e-12
9.55754e-14
3.46036e-12
2.28214e-13
3.39428e-12
3.46579e-13
3.31599e-12
4.55411e-13
3.22317e-12
5.52123e-13
3.1237e-12
6.3976e-13
3.01881e-12
6.98255e-13
2.90963e-12
7.48613e-13
2.79915e-12
7.86825e-13
2.68947e-12
8.11041e-13
2.581e-12
8.24532e-13
2.47604e-12
8.28937e-13
2.37643e-12
8.22793e-13
2.28069e-12
8.11575e-13
2.18996e-12
7.95498e-13
2.10365e-12
7.77529e-13
2.0223e-12
7.57225e-13
1.94542e-12
7.35254e-13
1.87287e-12
7.12703e-13
1.80338e-12
6.91847e-13
1.73747e-12
6.71156e-13
1.6743e-12
6.51444e-13
1.61318e-12
6.33359e-13
1.55417e-12
6.17215e-13
1.49676e-12
6.02609e-13
1.44044e-12
5.88077e-13
1.38568e-12
5.76053e-13
1.33051e-12
5.65778e-13
1.27785e-12
5.52303e-13
1.22492e-12
5.4829e-13
1.17095e-12
5.38049e-13
1.11884e-12
5.27296e-13
1.06667e-12
5.18158e-13
1.01639e-12
5.08875e-13
9.65969e-13
5.00748e-13
9.16641e-13
4.91242e-13
8.67666e-13
4.82184e-13
8.20417e-13
4.7079e-13
7.73984e-13
4.61655e-13
7.29097e-13
4.50379e-13
6.84945e-13
4.41512e-13
6.41876e-13
4.30372e-13
6.00349e-13
4.19089e-13
5.59964e-13
4.08973e-13
5.20808e-13
3.98756e-13
4.82391e-13
3.89356e-13
4.45175e-13
3.79657e-13
4.08844e-13
3.70395e-13
3.73233e-13
3.61682e-13
3.38263e-13
3.53458e-13
3.03894e-13
3.45463e-13
2.6977e-13
3.37878e-13
2.35774e-13
3.30325e-13
2.01175e-13
3.23055e-13
1.64488e-13
3.1635e-13
1.23224e-13
3.09058e-13
6.32081e-14
3.11812e-13
2.39935e-14
4.47739e-13
1.6162e-14
5.08847e-13
-1.23813e-17
4.04963e-13
1.18785e-21
2.2502e-22
1.19181e-21
2.01625e-24
1.18721e-21
4.45644e-23
1.17858e-21
8.62336e-23
1.16446e-21
1.25887e-22
1.14508e-21
1.62799e-22
1.12135e-21
1.96817e-22
1.09395e-21
2.27526e-22
1.06334e-21
2.54668e-22
1.0302e-21
2.78398e-22
9.95253e-22
2.98871e-22
9.58806e-22
3.16242e-22
9.21583e-22
3.30717e-22
8.83687e-22
3.42453e-22
8.45896e-22
3.5181e-22
8.07949e-22
3.59152e-22
7.70571e-22
3.64735e-22
7.33502e-22
3.68767e-22
6.97158e-22
3.71611e-22
6.61538e-22
3.73472e-22
6.26486e-22
3.74403e-22
5.91951e-22
3.74558e-22
5.5814e-22
3.74196e-22
5.24898e-22
3.73472e-22
4.92173e-22
3.7249e-22
4.59861e-22
3.71094e-22
4.27859e-22
3.69388e-22
3.96323e-22
3.67423e-22
3.64838e-22
3.65149e-22
3.33612e-22
3.62874e-22
3.02541e-22
3.60082e-22
2.71625e-22
3.57239e-22
2.4071e-22
3.5424e-22
2.09949e-22
3.51242e-22
1.79343e-22
3.48088e-22
1.48944e-22
3.45038e-22
1.18545e-22
3.41936e-22
8.82498e-23
3.39144e-22
5.80577e-23
3.36507e-22
2.81241e-23
3.34233e-22
3.32216e-22
6.8211e-13
-4.34219e-12
1.31713e-12
-4.17977e-12
1.85386e-12
-3.85608e-12
2.26597e-12
-3.43242e-12
2.56136e-12
-3.00109e-12
2.78075e-12
-2.61294e-12
2.94583e-12
-2.28052e-12
3.07306e-12
-1.99413e-12
3.17363e-12
-1.74742e-12
3.26054e-12
-1.54619e-12
3.3487e-12
-1.37782e-12
3.43754e-12
-1.21914e-12
3.51815e-12
-1.04282e-12
3.58943e-12
-8.76099e-13
3.64813e-12
-7.14368e-13
3.68557e-12
-5.46579e-13
3.70341e-12
-3.68543e-13
3.70682e-12
-1.94758e-13
3.68522e-12
-2.28876e-14
3.64446e-12
1.36302e-13
3.58266e-12
2.89973e-13
3.50423e-12
4.24978e-13
3.41221e-12
5.47393e-13
3.30272e-12
6.61582e-13
3.18915e-12
7.53296e-13
3.06955e-12
8.17826e-13
2.94621e-12
8.71923e-13
2.82308e-12
9.09925e-13