/*--------------------------------*- C++ -*----------------------------------*\
  =========                 |
  \\      /  F ield         | OpenFOAM: The Open Source CFD Toolbox
   \\    /   O peration     | Website:  https://openfoam.org
    \\  /    A nd           | Version:  6
     \\/     M anipulation  |
\*---------------------------------------------------------------------------*/
FoamFile
{
    version     2.0;
    format      ascii;
    class       volScalarField;
    location    "700";
    object      dmdt;
}
// * * * * * * * * * * * * * * * * * * * * * * * * * * * * * * * * * * * * * //

dimensions      [0 0 0 0 0 0 0];

internalField   nonuniform List<scalar> 
4800
(
-0.218887
-0.215482
-0.21208
-0.208684
-0.205298
-0.20193
-0.198592
-0.195296
-0.192062
-0.188913
-0.185881
-0.182984
-0.180226
-0.17761
-0.175136
-0.1728
-0.170598
-0.168523
-0.166567
-0.164721
-0.162981
-0.161338
-0.159786
-0.158313
-0.156907
-0.155557
-0.154254
-0.152984
-0.151732
-0.15049
-0.149249
-0.14799
-0.146703
-0.145381
-0.14401
-0.142574
-0.141062
-0.139467
-0.137774
-0.135967
-0.134031
-0.131947
-0.129702
-0.127293
-0.124731
-0.12204
-0.119246
-0.116373
-0.113441
-0.110469
-0.107474
-0.104468
-0.101462
-0.098471
-0.0955127
-0.092601
-0.0897427
-0.0869411
-0.0841963
-0.0815049
-0.0788618
-0.0762566
-0.0736736
-0.0711019
-0.0685325
-0.0659489
-0.0633413
-0.0606992
-0.0580101
-0.0552635
-0.0524446
-0.0495413
-0.0465475
-0.0434602
-0.0402832
-0.037024
-0.0336934
-0.0303103
-0.0268895
-0.0234311
-0.0199289
-0.0164137
-0.012897
-0.00938936
-0.00589656
-0.00242191
0.00103292
0.00446712
0.00788075
0.0112744
0.0146489
0.0180054
0.0213452
0.0246696
0.0279799
0.0312773
0.0345631
0.0378385
0.0411046
0.0443624
0.0476128
0.0508566
0.0540946
0.0573275
0.0605558
0.0637801
0.0670009
0.0702185
0.0734335
0.076646
0.0798565
0.0830651
0.0862722
0.0894779
0.0926824
0.095886
0.0990889
0.102291
0.105493
0.108695
-0.218889
-0.215487
-0.212089
-0.2087
-0.205321
-0.201959
-0.198622
-0.195324
-0.192095
-0.188963
-0.185951
-0.183067
-0.180318
-0.177713
-0.175251
-0.172928
-0.17074
-0.168679
-0.166736
-0.164905
-0.163179
-0.16155
-0.160008
-0.158542
-0.157141
-0.155794
-0.154489
-0.153212
-0.151954
-0.150706
-0.149457
-0.148184
-0.146884
-0.145546
-0.144153
-0.142698
-0.141172
-0.139562
-0.137853
-0.136031
-0.134081
-0.13199
-0.129744
-0.127341
-0.124789
-0.122107
-0.119321
-0.116459
-0.113539
-0.110579
-0.107596
-0.104602
-0.101614
-0.0986446
-0.0957079
-0.0928126
-0.0899669
-0.0871763
-0.0844415
-0.0817584
-0.0791214
-0.0765208
-0.0739415
-0.0713708
-0.0688034
-0.0662208
-0.0636125
-0.060968
-0.0582775
-0.0555278
-0.052705
-0.0497989
-0.0468026
-0.0437119
-0.04053
-0.0372643
-0.0339228
-0.0305106
-0.0270341
-0.0235119
-0.0199657
-0.0164283
-0.0128986
-0.00938249
-0.00588401
-0.00240553
0.00105179
0.0044875
0.00790188
0.0112957
0.01467
0.018026
0.0213651
0.0246886
0.0279978
0.0312942
0.034579
0.0378533
0.0411183
0.0443751
0.0476244
0.0508673
0.0541044
0.0573363
0.0605638
0.0637874
0.0670074
0.0702244
0.0734387
0.0766507
0.0798606
0.0830687
0.0862752
0.0894805
0.0926846
0.0958878
0.0990903
0.102292
0.105494
0.108695
-0.218894
-0.215503
-0.212116
-0.208739
-0.205374
-0.202026
-0.198705
-0.195427
-0.19222
-0.18911
-0.186116
-0.183252
-0.180526
-0.177943
-0.1755
-0.173198
-0.171031
-0.16899
-0.167071
-0.165265
-0.163562
-0.161954
-0.16043
-0.158978
-0.157587
-0.156246
-0.154942
-0.15366
-0.152393
-0.151131
-0.14986
-0.148558
-0.14723
-0.145857
-0.144429
-0.14294
-0.141382
-0.13974
-0.137999
-0.136147
-0.134173
-0.132069
-0.129827
-0.127438
-0.124906
-0.122242
-0.119476
-0.116636
-0.113742
-0.110808
-0.107849
-0.104881
-0.101921
-0.0989815
-0.096073
-0.0932038
-0.0903827
-0.087614
-0.0848986
-0.0822327
-0.079611
-0.0770232
-0.0744522
-0.0718897
-0.0693236
-0.0667331
-0.06412
-0.0614686
-0.0587705
-0.0560087
-0.0531694
-0.0502434
-0.0472233
-0.0441038
-0.0408882
-0.037582
-0.0341921
-0.0307247
-0.0271896
-0.0236103
-0.0200181
-0.0164492
-0.0128977
-0.00936645
-0.00585745
-0.00237181
0.00109019
0.00452868
0.00794443
0.0113385
0.0147123
0.0180673
0.0214048
0.0247265
0.0280337
0.031328
0.0346106
0.0378828
0.0411457
0.0444003
0.0476477
0.0508886
0.0541238
0.0573541
0.0605799
0.0638019
0.0670205
0.0702362
0.0734492
0.07666
0.0798688
0.0830758
0.0862814
0.0894857
0.0926889
0.0958913
0.0990929
0.102294
0.105495
0.108695
-0.218906
-0.215536
-0.212172
-0.208814
-0.205466
-0.202136
-0.19884
-0.195598
-0.192429
-0.189352
-0.186386
-0.183547
-0.180848
-0.178292
-0.175877
-0.173603
-0.171462
-0.169449
-0.167558
-0.16578
-0.164103
-0.162519
-0.161015
-0.15958
-0.158202
-0.156869
-0.155565
-0.154278
-0.152998
-0.151716
-0.150415
-0.149082
-0.14772
-0.146306
-0.144835
-0.1433
-0.141693
-0.140001
-0.138215
-0.136327
-0.134329
-0.132211
-0.129967
-0.127592
-0.125083
-0.12245
-0.119719
-0.116917
-0.114062
-0.111164
-0.10824
-0.105305
-0.102379
-0.0994725
-0.0965977
-0.0937618
-0.0909729
-0.0882352
-0.0855494
-0.0829107
-0.0803134
-0.0777449
-0.0751841
-0.0726245
-0.0700507
-0.0674512
-0.0648278
-0.0621631
-0.0594495
-0.0566667
-0.0538016
-0.0508427
-0.0477816
-0.0446136
-0.0413403
-0.0379642
-0.0344966
-0.0309542
-0.0273519
-0.0237134
-0.0200728
-0.0164671
-0.0128884
-0.00933735
-0.00581425
-0.00231892
0.00114936
0.00459152
0.00800892
0.0114032
0.014776
0.0181291
0.0214642
0.0247831
0.0280873
0.0313784
0.0346577
0.0379266
0.0411863
0.0444379
0.0476823
0.0509203
0.0541528
0.0573805
0.0606039
0.0638236
0.0670401
0.0702537
0.0734648
0.0766738
0.0798809
0.0830864
0.0862905
0.0894935
0.0926954
0.0958965
0.0990969
0.102297
0.105496
0.108696
-0.218923
-0.215588
-0.212257
-0.20893
-0.205612
-0.202313
-0.199048
-0.195841
-0.192712
-0.189678
-0.186751
-0.183949
-0.181282
-0.178757
-0.176372
-0.174128
-0.172019
-0.170037
-0.168174
-0.166421
-0.164769
-0.163208
-0.161725
-0.160308
-0.158942
-0.157613
-0.156308
-0.155014
-0.153724
-0.152423
-0.151098
-0.149738
-0.148336
-0.146879
-0.145361
-0.143775
-0.142115
-0.140373
-0.138542
-0.136617
-0.134587
-0.132445
-0.130192
-0.127826
-0.125344
-0.122755
-0.120073
-0.117317
-0.114503
-0.111647
-0.108764
-0.105871
-0.102984
-0.100117
-0.0972814
-0.0944847
-0.0917358
-0.0890375
-0.0863879
-0.0837807
-0.0812085
-0.0786551
-0.0760995
-0.0735398
-0.0709597
-0.0683493
-0.0657068
-0.0630199
-0.0602761
-0.057453
-0.0545387
-0.0515247
-0.0484052
-0.0451743
-0.0418305
-0.0383759
-0.0348225
-0.031189
-0.027504
-0.0238055
-0.020119
-0.016474
-0.0128645
-0.00929052
-0.00575098
-0.0022444
0.00123104
0.00467715
0.00809606
0.01149
0.014861
0.0182114
0.0215432
0.0248581
0.0281582
0.031445
0.0347199
0.0379845
0.04124
0.0444874
0.0477278
0.0509621
0.054191
0.0574153
0.0606355
0.0638521
0.0670657
0.0702767
0.0734854
0.076692
0.079897
0.0831004
0.0863026
0.0895037
0.0927039
0.0959033
0.0991022
0.102301
0.105499
0.108697
-0.218946
-0.215656
-0.212369
-0.209087
-0.205814
-0.202561
-0.199343
-0.196177
-0.193084
-0.190086
-0.187198
-0.184432
-0.181801
-0.179311
-0.176962
-0.174751
-0.172673
-0.170719
-0.168882
-0.167153
-0.165525
-0.163986
-0.162521
-0.161118
-0.159761
-0.158437
-0.157133
-0.155837
-0.154538
-0.153222
-0.151877
-0.150494
-0.14906
-0.147565
-0.146002
-0.144367
-0.142655
-0.140862
-0.138981
-0.137007
-0.134939
-0.132778
-0.130519
-0.128163
-0.125709
-0.123163
-0.120534
-0.117832
-0.115071
-0.112265
-0.109429
-0.106581
-0.103739
-0.100915
-0.0981227
-0.09537
-0.0926648
-0.0900077
-0.0873929
-0.0848135
-0.0822615
-0.0797183
-0.0771664
-0.0746028
-0.072013
-0.069388
-0.066721
-0.0639979
-0.0612022
-0.0583153
-0.0553318
-0.0522464
-0.0490531
-0.0457462
-0.0423215
-0.0387829
-0.035145
-0.0314304
-0.0276698
-0.0238993
-0.0201521
-0.0164624
-0.0128194
-0.00922074
-0.00566365
-0.00214529
0.00133731
0.00478699
0.0082067
0.0115993
0.0149676
0.0183142
0.0216413
0.0249512
0.0282459
0.0315272
0.0347967
0.0380559
0.0413061
0.0445484
0.0477839
0.0510135
0.054238
0.057458
0.0606743
0.0638872
0.0670974
0.070305
0.0735106
0.0767144
0.0799167
0.0831176
0.0863174
0.0895163
0.0927143
0.0959118
0.0991087
0.102305
0.105501
0.108697
-0.218972
-0.215734
-0.212499
-0.209268
-0.206047
-0.202846
-0.19968
-0.196568
-0.193526
-0.190573
-0.187725
-0.184997
-0.182403
-0.179947
-0.177628
-0.175447
-0.173396
-0.171468
-0.169656
-0.16795
-0.166343
-0.164823
-0.163375
-0.161986
-0.16064
-0.159324
-0.158024
-0.156729
-0.155427
-0.154103
-0.152747
-0.151346
-0.149886
-0.148358
-0.146759
-0.145083
-0.143327
-0.141487
-0.139559
-0.137544
-0.135443
-0.133257
-0.130986
-0.128634
-0.126201
-0.123695
-0.121118
-0.118475
-0.115771
-0.113019
-0.110237
-0.10744
-0.104642
-0.101863
-0.0991153
-0.0964086
-0.0937463
-0.0911261
-0.0885414
-0.0859866
-0.0834527
-0.080918
-0.0783682
-0.0757966
-0.0731924
-0.070543
-0.0678371
-0.0650628
-0.0622034
-0.0592416
-0.0561747
-0.0529982
-0.0497082
-0.0463058
-0.0427876
-0.0391586
-0.0354348
-0.0316395
-0.027803
-0.0239629
-0.0201572
-0.0164225
-0.0127457
-0.00912216
-0.00554777
-0.00201826
0.00147056
0.00492262
0.0083418
0.0117318
0.0150958
0.0184371
0.0217582
0.0250618
0.0283498
0.0316245
0.0348874
0.0381401
0.0413839
0.0446202
0.0478499
0.051074
0.0542932
0.0575083
0.0607199
0.0639285
0.0671345
0.0703384
0.0735404
0.0767408
0.0799399
0.0831379
0.0863349
0.0895311
0.0927267
0.0959217
0.0991163
0.102311
0.105505
0.108699
-0.219
-0.215821
-0.212645
-0.209477
-0.206321
-0.203184
-0.200077
-0.197016
-0.19402
-0.191111
-0.188305
-0.185617
-0.183058
-0.180635
-0.178348
-0.176194
-0.17417
-0.172267
-0.170478
-0.168796
-0.167209
-0.165708
-0.164278
-0.162904
-0.161572
-0.160267
-0.158976
-0.157687
-0.156386
-0.15506
-0.153697
-0.152284
-0.150807
-0.149258
-0.147631
-0.145923
-0.144128
-0.142246
-0.140277
-0.138224
-0.136095
-0.133891
-0.131611
-0.129261
-0.126844
-0.12437
-0.121836
-0.119245
-0.116601
-0.11391
-0.111186
-0.108443
-0.105696
-0.102961
-0.100255
-0.0975889
-0.0949636
-0.0923753
-0.0898165
-0.0872842
-0.0847653
-0.0822351
-0.0796811
-0.0770957
-0.0744704
-0.0717901
-0.0690395
-0.0662035
-0.0632659
-0.0602148
-0.0570494
-0.0537651
-0.050361
-0.0468418
-0.0432101
-0.0394782
-0.0356644
-0.0317929
-0.0278896
-0.023985
-0.0201223
-0.0163447
-0.0126354
-0.00898851
-0.00539842
-0.00185962
0.00163339
0.00508572
0.0085023
0.0118876
0.0152456
0.0185798
0.0218934
0.0251891
0.0284692
0.0317359
0.034991
0.0382362
0.0414728
0.0447021
0.0479251
0.0511429
0.0543562
0.0575656
0.0607719
0.0639755
0.0671769
0.0703763
0.0735742
0.0767708
0.0799663
0.0831609
0.0863548
0.089548
0.0927407
0.095933
0.099125
0.102317
0.105508
0.1087
-0.219031
-0.215913
-0.2128
-0.209693
-0.206597
-0.203522
-0.200478
-0.197479
-0.194539
-0.191678
-0.188916
-0.186268
-0.183748
-0.181359
-0.179103
-0.176979
-0.174981
-0.173103
-0.171338
-0.169679
-0.168115
-0.166634
-0.165225
-0.163867
-0.162552
-0.161261
-0.159982
-0.158703
-0.15741
-0.156088
-0.154725
-0.153309
-0.151823
-0.150261
-0.148617
-0.146885
-0.145063
-0.143151
-0.141152
-0.139074
-0.136925
-0.134703
-0.132411
-0.130064
-0.12766
-0.125211
-0.122716
-0.120172
-0.117579
-0.114943
-0.112274
-0.109583
-0.106885
-0.104196
-0.101531
-0.0989016
-0.0963058
-0.0937419
-0.0912042
-0.088691
-0.0861817
-0.0836528
-0.0810927
-0.0784919
-0.0758351
-0.0731073
-0.0702954
-0.067384
-0.0643565
-0.0612024
-0.057924
-0.0545191
-0.0509896
-0.0473434
-0.0435806
-0.0397171
-0.0357855
-0.0318282
-0.0278764
-0.0239378
-0.0200338
-0.0162193
-0.0124807
-0.0088131
-0.00521028
-0.0016654
0.00182855
0.00527804
0.00868911
0.0120671
0.0154167
0.0187419
0.0220461
0.0253323
0.0286031
0.0318606
0.0351068
0.0383434
0.0415718
0.0447932
0.0480088
0.0512195
0.0544261
0.0576293
0.0608297
0.0640278
0.0672239
0.0704185
0.0736119
0.0768042
0.0799957
0.0831866
0.0863769
0.0895668
0.0927563
0.0959456
0.0991346
0.102324
0.105512
0.108701
-0.219064
-0.216012
-0.212963
-0.20992
-0.206889
-0.203875
-0.200889
-0.197944
-0.195058
-0.192248
-0.189534
-0.186935
-0.18446
-0.18211
-0.179887
-0.177792
-0.17582
-0.173967
-0.172227
-0.17059
-0.169051
-0.167592
-0.166203
-0.164866
-0.163571
-0.162298
-0.161037
-0.159772
-0.158492
-0.157181
-0.155826
-0.154412
-0.152926
-0.151362
-0.149711
-0.147966
-0.146129
-0.144199
-0.142183
-0.14009
-0.137926
-0.135692
-0.133397
-0.131058
-0.128666
-0.126238
-0.123771
-0.121263
-0.118715
-0.11613
-0.11351
-0.110864
-0.108207
-0.105557
-0.102931
-0.100335
-0.0977659
-0.0952217
-0.092701
-0.0902019
-0.0876989
-0.0851676
-0.0825935
-0.0799637
-0.0772582
-0.0744648
-0.0715681
-0.068561
-0.0654325
-0.0621695
-0.0587728
-0.0552421
-0.0515827
-0.0478062
-0.0439137
-0.0399295
-0.0358856
-0.0318236
-0.0277969
-0.0238224
-0.0198879
-0.0160391
-0.0122736
-0.00858872
-0.00497755
-0.00143134
0.00205887
0.0055012
0.00890296
0.0122704
0.0156088
0.0189226
0.0222154
0.0254904
0.0287504
0.0319974
0.0352336
0.0384606
0.0416799
0.0448927
0.0481001
0.0513031
0.0545024
0.0576987
0.0608927
0.0640847
0.0672752
0.0704645
0.0736529
0.0768406
0.0800278
0.0832145
0.086401
0.0895872
0.0927733
0.0959593
0.0991452
0.102331
0.105517
0.108703
-0.219098
-0.216113
-0.21313
-0.210151
-0.207182
-0.204228
-0.2013
-0.198409
-0.195575
-0.192823
-0.190167
-0.18762
-0.185189
-0.182876
-0.180688
-0.178621
-0.176675
-0.174848
-0.173134
-0.171524
-0.170009
-0.168575
-0.167209
-0.165896
-0.164623
-0.163374
-0.162132
-0.160887
-0.159625
-0.158331
-0.156991
-0.155587
-0.15411
-0.152551
-0.150901
-0.149155
-0.147314
-0.145378
-0.143357
-0.141263
-0.139098
-0.136865
-0.13458
-0.132249
-0.129869
-0.127461
-0.125016
-0.122538
-0.12003
-0.117486
-0.114904
-0.112291
-0.109666
-0.107048
-0.104453
-0.101886
-0.0993418
-0.0968169
-0.0943111
-0.0918215
-0.0893189
-0.0867729
-0.0841687
-0.0814893
-0.0787129
-0.075833
-0.0728361
-0.0697208
-0.066477
-0.0630963
-0.0595767
-0.0559184
-0.052131
-0.0482312
-0.0442241
-0.040138
-0.0360004
-0.0318476
-0.0277306
-0.0236798
-0.0196881
-0.0157969
-0.0120048
-0.00830709
-0.00469383
-0.00115302
0.00232704
0.00575655
0.00914423
0.0124972
0.0158211
0.0191208
0.0224001
0.0256622
0.0289098
0.0321451
0.0353702
0.0385867
0.041796
0.0449994
0.048198
0.0513926
0.0545841
0.057773
0.0609601
0.0641457
0.0673301
0.0705138
0.0736969
0.0768796
0.0800621
0.0832445
0.0864268
0.0896092
0.0927915
0.095974
0.0991564
0.102339
0.105522
0.108704
-0.219133
-0.216217
-0.213303
-0.210395
-0.207494
-0.204607
-0.201742
-0.198915
-0.19614
-0.193437
-0.190822
-0.188316
-0.185923
-0.183647
-0.181493
-0.179459
-0.177545
-0.175747
-0.174061
-0.17248
-0.170992
-0.169584
-0.168243
-0.166956
-0.165708
-0.164484
-0.163265
-0.162042
-0.160803
-0.159529
-0.158207
-0.156819
-0.155356
-0.153809
-0.152172
-0.150438
-0.148603
-0.146672
-0.144661
-0.142579
-0.140428
-0.138212
-0.135943
-0.133625
-0.131265
-0.128877
-0.126456
-0.124005
-0.121529
-0.119016
-0.11646
-0.11387
-0.111268
-0.108674
-0.106103
-0.103558
-0.101035
-0.0985286
-0.0960353
-0.0935507
-0.0910416
-0.0884693
-0.0858179
-0.0830669
-0.0801975
-0.0772092
-0.0740949
-0.0708569
-0.067486
-0.0639775
-0.0603272
-0.0565386
-0.0526247
-0.048604
-0.04449
-0.040315
-0.0361013
-0.0318719
-0.0276551
-0.0234959
-0.0194192
-0.0154781
-0.0116616
-0.00795834
-0.00435231
-0.000826284
0.00263521
0.00604484
0.00941271
0.0127466
0.0160526
0.0193354
0.0225989
0.0258462
0.0290799
0.0323023
0.0355152
0.0387203
0.0419189
0.0451123
0.0483014
0.0514872
0.0546703
0.0578515
0.0610313
0.06421
0.0673881
0.0705658
0.0737433
0.0769208
0.0800984
0.0832761
0.0864541
0.0896323
0.0928108
0.0959895
0.0991684
0.102347
0.105527
0.108706
-0.219168
-0.216323
-0.213481
-0.210643
-0.207814
-0.204997
-0.202199
-0.199433
-0.196713
-0.194058
-0.191487
-0.18902
-0.186665
-0.184428
-0.182311
-0.180314
-0.178434
-0.176668
-0.175014
-0.173464
-0.172005
-0.170627
-0.169313
-0.168053
-0.166832
-0.165633
-0.164437
-0.163238
-0.162021
-0.16077
-0.159466
-0.158097
-0.156652
-0.155125
-0.153507
-0.151791
-0.149972
-0.14806
-0.146072
-0.144014
-0.141886
-0.139695
-0.137448
-0.135155
-0.132826
-0.130466
-0.128072
-0.12565
-0.123199
-0.120707
-0.118167
-0.115592
-0.113008
-0.110433
-0.107881
-0.105353
-0.102845
-0.10035
-0.0978645
-0.0953776
-0.0928516
-0.0902377
-0.0875216
-0.0846834
-0.0817113
-0.0786053
-0.0753623
-0.0719852
-0.0684693
-0.0648161
-0.0610246
-0.0570998
-0.0530579
-0.048917
-0.0446956
-0.0404245
-0.0361127
-0.0317769
-0.0274554
-0.0232052
-0.0190489
-0.0150604
-0.0112281
-0.00753203
-0.00394686
-0.000448169
0.00298422
0.0063656
0.00970722
0.0130172
0.0163014
0.0195645
0.02281
0.0260407
0.0292592
0.0324675
0.0356673
0.0388602
0.0420474
0.0452302
0.0484093
0.0515858
0.0547603
0.0579334
0.0611055
0.0642771
0.0674485
0.07062
0.0737917
0.0769637
0.0801362
0.0833091
0.0864826
0.0896565
0.0928309
0.0960056
0.0991808
0.102356
0.105532
0.108708
-0.219206
-0.216436
-0.213667
-0.210902
-0.208143
-0.205393
-0.20266
-0.199953
-0.197288
-0.194684
-0.192162
-0.18974
-0.187431
-0.185237
-0.183159
-0.181198
-0.179354
-0.177626
-0.176008
-0.174492
-0.173067
-0.171718
-0.170432
-0.169198
-0.168003
-0.166827
-0.165655
-0.164477
-0.163282
-0.162049
-0.160765
-0.159416
-0.157992
-0.156486
-0.154889
-0.153192
-0.151395
-0.149513
-0.147561
-0.145538
-0.143443
-0.141286
-0.139072
-0.136815
-0.134522
-0.132193
-0.129831
-0.127438
-0.12501
-0.122534
-0.120008
-0.117448
-0.114879
-0.112319
-0.109778
-0.107261
-0.104763
-0.102275
-0.0997911
-0.0972937
-0.0947355
-0.0920668
-0.0892777
-0.0863508
-0.0832744
-0.0800471
-0.0766729
-0.0731505
-0.0694781
-0.0656625
-0.0617108
-0.0576351
-0.0534508
-0.0491765
-0.0448365
-0.0404569
-0.036047
-0.0316161
-0.0271844
-0.0228114
-0.0185522
-0.0145201
-0.0106885
-0.00701973
-0.00347436
-1.87109e-05
0.0033724
0.00671646
0.0100252
0.0133064
0.0165653
0.0198059
0.0230313
0.0262439
0.0294459
0.032639
0.0358249
0.0390049
0.0421802
0.0453518
0.0485207
0.0516875
0.054853
0.0580176
0.0611819
0.0643462
0.0675108
0.0706758
0.0738415
0.0770079
0.0801751
0.0833431
0.0865119
0.0896814
0.0928515
0.0960223
0.0991936
0.102365
0.105537
0.108709
-0.219248
-0.21656
-0.21387
-0.211181
-0.208494
-0.205812
-0.203142
-0.200494
-0.197887
-0.19534
-0.192877
-0.190509
-0.188248
-0.186095
-0.184055
-0.182135
-0.180333
-0.178647
-0.177069
-0.17559
-0.174198
-0.17288
-0.171623
-0.170414
-0.169242
-0.168086
-0.166934
-0.165774
-0.164593
-0.163375
-0.162106
-0.160773
-0.159367
-0.157879
-0.1563
-0.154627
-0.152863
-0.151021
-0.149109
-0.147124
-0.145069
-0.142953
-0.140782
-0.138565
-0.136309
-0.134015
-0.131685
-0.129322
-0.126918
-0.124462
-0.121955
-0.119416
-0.116866
-0.114319
-0.111787
-0.109276
-0.106781
-0.104295
-0.101806
-0.0992921
-0.0966909
-0.0939697
-0.0911112
-0.0880978
-0.0849199
-0.0815808
-0.0780804
-0.0744077
-0.0705639
-0.0665641
-0.0624288
-0.0581818
-0.0538397
-0.0494158
-0.0449326
-0.0404123
-0.0358641
-0.0313003
-0.026744
-0.0222498
-0.0178831
-0.0138271
-0.0100288
-0.00641881
-0.00293801
0.000456693
0.00379408
0.00709229
0.0103622
0.0136105
0.0168411
0.0200571
0.0232607
0.0264538
0.0296381
0.0328153
0.0359865
0.039153
0.0423159
0.045476
0.0486342
0.0517912
0.0549474
0.0581035
0.0612598
0.0644166
0.0675742
0.0707327
0.0738922
0.0770529
0.0802147
0.0833777
0.0865417
0.0897067
0.0928726
0.0960393
0.0992066
0.102374
0.105543
0.108711
-0.219294
-0.216698
-0.214096
-0.21149
-0.20888
-0.206272
-0.203671
-0.201091
-0.19855
-0.196067
-0.19366
-0.191343
-0.189128
-0.187018
-0.185026
-0.183158
-0.181406
-0.179766
-0.178232
-0.176793
-0.175438
-0.174152
-0.172923
-0.171738
-0.170585
-0.169445
-0.168307
-0.167156
-0.165982
-0.164771
-0.163509
-0.162186
-0.16079
-0.159313
-0.15775
-0.156099
-0.154368
-0.152563
-0.150689
-0.148743
-0.146731
-0.144659
-0.142534
-0.140359
-0.138141
-0.135881
-0.133583
-0.13125
-0.128876
-0.126448
-0.123971
-0.12146
-0.118931
-0.116398
-0.113874
-0.111368
-0.108875
-0.106388
-0.10389
-0.101351
-0.0987027
-0.0959336
-0.0930112
-0.0899204
-0.0866523
-0.0832086
-0.0795762
-0.0757428
-0.071719
-0.0675291
-0.0632025
-0.0587713
-0.0542555
-0.0496663
-0.0450236
-0.0403463
-0.0356387
-0.0309073
-0.0261712
-0.0214932
-0.016973
-0.012941
-0.00924093
-0.00573797
-0.00235159
0.000964794
0.00423838
0.00748468
0.010712
0.0139247
0.0171252
0.020315
0.0234955
0.0266681
0.029834
0.0329944
0.0361505
0.0393031
0.0424532
0.0456016
0.0487489
0.0518958
0.0550427
0.05819
0.0613382
0.0644875
0.067638
0.0707899
0.0739433
0.0770982
0.0802547
0.0834125
0.0865717
0.0897322
0.0928938
0.0960564
0.0992197
0.102384
0.105548
0.108713
-0.219345
-0.216849
-0.214345
-0.211832
-0.209309
-0.206782
-0.204258
-0.20175
-0.199277
-0.196858
-0.194512
-0.192255
-0.190098
-0.188049
-0.186123
-0.184317
-0.182623
-0.181036
-0.179551
-0.178157
-0.176842
-0.17559
-0.174391
-0.17323
-0.172093
-0.170964
-0.16983
-0.16868
-0.167504
-0.16629
-0.165024
-0.163697
-0.162298
-0.160821
-0.159264
-0.157629
-0.155919
-0.154139
-0.152291
-0.150379
-0.148405
-0.146371
-0.144283
-0.142144
-0.139957
-0.137728
-0.135461
-0.133162
-0.130825
-0.128433
-0.125994
-0.123517
-0.121013
-0.118495
-0.11598
-0.113479
-0.110988
-0.108498
-0.105984
-0.103417
-0.100727
-0.0979138
-0.0949345
-0.0917774
-0.0884305
-0.0848838
-0.0811159
-0.0771244
-0.0729248
-0.0685469
-0.0640283
-0.0594071
-0.054707
-0.0499415
-0.0451275
-0.0402785
-0.0353879
-0.0304467
-0.0254564
-0.0204674
-0.0156427
-0.0117936
-0.00832996
-0.00500545
-0.00174368
0.00148311
0.00468911
0.00788235
0.0110667
0.0142435
0.0174132
0.0205763
0.0237332
0.0268847
0.0300316
0.0331748
0.0363152
0.0394536
0.0425907
0.0457272
0.0488635
0.0520002
0.0551377
0.0582764
0.0614165
0.0645582
0.0677016
0.070847
0.0739943
0.0771434
0.0802944
0.0834472
0.0866017
0.0897576
0.0929149
0.0960734
0.0992328
0.102393
0.105554
0.108715
-0.2194
-0.217016
-0.214623
-0.212216
-0.209794
-0.20736
-0.204922
-0.202496
-0.2001
-0.197755
-0.195481
-0.193295
-0.191213
-0.189245
-0.187402
-0.185671
-0.184045
-0.182522
-0.181099
-0.179762
-0.178495
-0.177285
-0.17612
-0.174983
-0.17386
-0.172737
-0.171602
-0.170445
-0.169257
-0.168025
-0.166739
-0.165389
-0.163967
-0.162469
-0.160895
-0.15925
-0.157537
-0.15576
-0.153923
-0.152028
-0.150072
-0.148058
-0.145992
-0.143871
-0.141702
-0.13949
-0.137244
-0.134974
-0.132675
-0.130324
-0.127928
-0.12549
-0.123012
-0.120514
-0.11801
-0.115516
-0.113026
-0.110527
-0.107995
-0.105397
-0.102673
-0.0998164
-0.096789
-0.093579
-0.0901631
-0.0865171
-0.0826228
-0.0784855
-0.0741234
-0.0695684
-0.064865
-0.0600596
-0.0551804
-0.0502408
-0.045254
-0.0402257
-0.03514
-0.0299605
-0.0246278
-0.019063
-0.0133452
-0.010298
-0.00734976
-0.00428431
-0.00116017
0.00198165
0.00512709
0.00827284
0.0114178
0.0145609
0.0177011
0.0208378
0.0239711
0.0271013
0.0302289
0.0333547
0.0364793
0.0396033
0.0427272
0.0458516
0.0489769
0.0521035
0.0552317
0.0583617
0.0614937
0.0646279
0.0677644
0.0709033
0.0740445
0.0771879
0.0803336
0.0834814
0.0866311
0.0897826
0.0929357
0.0960901
0.0992457
0.102402
0.105559
0.108717
-0.219462
-0.217202
-0.214933
-0.212648
-0.210344
-0.20802
-0.205685
-0.203358
-0.201057
-0.198806
-0.196625
-0.194534
-0.192549
-0.190681
-0.188932
-0.187291
-0.185753
-0.184316
-0.182976
-0.181712
-0.18051
-0.179357
-0.178235
-0.177127
-0.176021
-0.174904
-0.173764
-0.172594
-0.171382
-0.170118
-0.168792
-0.167395
-0.165921
-0.164369
-0.162744
-0.16105
-0.159297
-0.157489
-0.155631
-0.15372
-0.151753
-0.149728
-0.147651
-0.145518
-0.143336
-0.141115
-0.138872
-0.136614
-0.134337
-0.132015
-0.129656
-0.127255
-0.124804
-0.122328
-0.119838
-0.117348
-0.114854
-0.112343
-0.109787
-0.107153
-0.104395
-0.101496
-0.098426
-0.0951616
-0.0916712
-0.0879303
-0.0839274
-0.0796692
-0.0751742
-0.0704735
-0.0656161
-0.0606516
-0.0556123
-0.0505148
-0.0453721
-0.040186
-0.0349329
-0.0295495
-0.0238736
-0.0173889
-0.00433052
-0.00864047
-0.00652333
-0.00369223
-0.000658427
0.00243103
0.00553586
0.00864605
0.0117587
0.0148721
0.017985
0.0210966
0.0242068
0.0273159
0.0304243
0.0335325
0.0366411
0.0397506
0.0428614
0.0459738
0.0490881
0.0522047
0.0553236
0.058445
0.0615691
0.064696
0.0678257
0.0709582
0.0740934
0.0772314
0.0803718
0.0835147
0.0866598
0.089807
0.0929559
0.0961064
0.0992582
0.102411
0.105564
0.108718
-0.219529
-0.217403
-0.21527
-0.213122
-0.21095
-0.208758
-0.206554
-0.204355
-0.202178
-0.200049
-0.197989
-0.196019
-0.194157
-0.192413
-0.190787
-0.189268
-0.187848
-0.186532
-0.185306
-0.184144
-0.183031
-0.181954
-0.180893
-0.17983
-0.178753
-0.17765
-0.17651
-0.175322
-0.174075
-0.172761
-0.171373
-0.169902
-0.168343
-0.166699
-0.164978
-0.16319
-0.161348
-0.15946
-0.15753
-0.155555
-0.153528
-0.151448
-0.149316
-0.147128
-0.144893
-0.142624
-0.140339
-0.138051
-0.135756
-0.133433
-0.131086
-0.128697
-0.126259
-0.123792
-0.121308
-0.118817
-0.11631
-0.113772
-0.111178
-0.108498
-0.105694
-0.102741
-0.0996078
-0.096267
-0.0926941
-0.0888709
-0.0847879
-0.0804475
-0.0758637
-0.0710653
-0.0660983
-0.0610159
-0.0558598
-0.0506516
-0.0454015
-0.0401119
-0.0347719
-0.0293505
-0.0237875
-0.018017
-0.0123895
-0.00934888
-0.00640604
-0.00336081
-0.000273126
0.00282017
0.00591033
0.00899839
0.0120861
0.0151741
0.0182622
0.0213501
0.0244381
0.0275265
0.0306157
0.0337065
0.0367992
0.0398943
0.042992
0.0460925
0.049196
0.0523027
0.0554125
0.0585256
0.061642
0.0647618
0.0678848
0.0710112
0.0741407
0.0772732
0.0804086
0.0835468
0.0866875
0.0898304
0.0929753
0.096122
0.0992702
0.102419
0.10557
0.10872
-0.219594
-0.217601
-0.215604
-0.213599
-0.211579
-0.209546
-0.207507
-0.205473
-0.203462
-0.201496
-0.199598
-0.197788
-0.196088
-0.194507
-0.193046
-0.191693
-0.190444
-0.189296
-0.188227
-0.187208
-0.186225
-0.185261
-0.184293
-0.183301
-0.182275
-0.181202
-0.180069
-0.178864
-0.177575
-0.176197
-0.174726
-0.173152
-0.171474
-0.169698
-0.167833
-0.165899
-0.163913
-0.161886
-0.159824
-0.157725
-0.155581
-0.153387
-0.151141
-0.148843
-0.1465
-0.144131
-0.141757
-0.139383
-0.136999
-0.134598
-0.132188
-0.129757
-0.127294
-0.124811
-0.122311
-0.119793
-0.117244
-0.114649
-0.111986
-0.109227
-0.106345
-0.10331
-0.100091
-0.0966646
-0.0930125
-0.0891237
-0.0849869
-0.080598
-0.0759654
-0.0711141
-0.06609
-0.0609458
-0.0557271
-0.0504633
-0.0451668
-0.0398467
-0.0345092
-0.0291581
-0.0238181
-0.0185798
-0.0137456
-0.00985751
-0.00639681
-0.00312
5.74757e-05
0.00317638
0.0062633
0.00933527
0.0124016
0.0154664
0.0185311
0.0215965
0.024663
0.0277311
0.0308016
0.0338752
0.0369522
0.040033
0.0431178
0.0462066
0.0492996
0.0523966
0.0554976
0.0586027
0.0617117
0.0648246
0.0679413
0.0710617
0.0741856
0.077313
0.0804437
0.0835773
0.0867137
0.0898526
0.0929938
0.0961369
0.0992815
0.102427
0.105574
0.108722
-0.219644
-0.217755
-0.215877
-0.214011
-0.212153
-0.210304
-0.208466
-0.206645
-0.204854
-0.20311
-0.201434
-0.199847
-0.198368
-0.197011
-0.195778
-0.194658
-0.193646
-0.192727
-0.191876
-0.191061
-0.190267
-0.189472
-0.188644
-0.187761
-0.186819
-0.185803
-0.184696
-0.183483
-0.182153
-0.180704
-0.179135
-0.177437
-0.175611
-0.173665
-0.171616
-0.169488
-0.16731
-0.165091
-0.162845
-0.160566
-0.158242
-0.155868
-0.153443
-0.150968
-0.148455
-0.145925
-0.143391
-0.140845
-0.13828
-0.135698
-0.133116
-0.130542
-0.127972
-0.125408
-0.122833
-0.120232
-0.117584
-0.114873
-0.11208
-0.109185
-0.106168
-0.103005
-0.0996706
-0.0961414
-0.0924008
-0.0884436
-0.0842573
-0.0798311
-0.0751743
-0.0703034
-0.0652532
-0.0600934
-0.05488
-0.0496436
-0.0443869
-0.039124
-0.0338779
-0.0286679
-0.0235463
-0.0186018
-0.0139785
-0.00987249
-0.0061961
-0.00279896
0.000424953
0.00354865
0.00662045
0.00966933
0.0127104
0.0157502
0.0187913
0.0218342
0.0248796
0.0279281
0.0309803
0.034037
0.0370986
0.0401655
0.0432377
0.0463152
0.0493978
0.0524856
0.0555782
0.0586755
0.0617774
0.0648838
0.0679944
0.0711092
0.0742279
0.0773505
0.0804765
0.0836059
0.0867383
0.0898734
0.093011
0.0961507
0.0992921
0.102435
0.105579
0.108723
-0.219663
-0.217818
-0.216008
-0.214248
-0.212544
-0.210893
-0.209292
-0.207736
-0.206229
-0.204781
-0.203407
-0.202124
-0.200951
-0.199903
-0.198983
-0.198182
-0.197493
-0.196886
-0.196345
-0.195821
-0.195298
-0.194748
-0.194122
-0.193405
-0.192593
-0.191673
-0.190624
-0.189425
-0.188067
-0.186553
-0.184882
-0.183052
-0.181064
-0.178933
-0.176679
-0.174335
-0.171941
-0.169508
-0.167052
-0.16456
-0.162014
-0.159409
-0.156749
-0.154043
-0.151308
-0.148565
-0.145811
-0.143021
-0.140174
-0.137267
-0.134346
-0.131453
-0.128615
-0.125842
-0.123081
-0.120287
-0.117432
-0.114494
-0.111457
-0.108312
-0.105054
-0.101672
-0.0981503
-0.0944695
-0.0906077
-0.0865588
-0.0823082
-0.0778389
-0.0731561
-0.0682715
-0.0632095
-0.0580655
-0.0529133
-0.0477831
-0.0426618
-0.0375576
-0.0325
-0.0275069
-0.0226346
-0.0179498
-0.0134389
-0.00932871
-0.00564323
-0.00226489
0.000917436
0.00399016
0.00701172
0.0100161
0.0130196
0.0160281
0.0190424
0.022062
0.0250863
0.0281155
0.03115
0.0341903
0.0372371
0.0402904
0.0433504
0.046417
0.0494899
0.0525687
0.0556533
0.0587433
0.0618386
0.0649388
0.0680437
0.0711533
0.0742671
0.0773851
0.0805069
0.0836323
0.0867609
0.0898926
0.0930268
0.0961634
0.0993018
0.102442
0.105583
0.108725
-0.219631
-0.217736
-0.215911
-0.214193
-0.212601
-0.211136
-0.209786
-0.208534
-0.207371
-0.206293
-0.205309
-0.204427
-0.203663
-0.203029
-0.202532
-0.202161
-0.201906
-0.201724
-0.201605
-0.201483
-0.201336
-0.201123
-0.200785
-0.200311
-0.199697
-0.198931
-0.197988
-0.196846
-0.195495
-0.193943
-0.192194
-0.190249
-0.188119
-0.185823
-0.183386
-0.180852
-0.178276
-0.175671
-0.173051
-0.170379
-0.16762
-0.164772
-0.161857
-0.158895
-0.155916
-0.152947
-0.149971
-0.146893
-0.143636
-0.140213
-0.136728
-0.13328
-0.129935
-0.126741
-0.123596
-0.120418
-0.11716
-0.1138
-0.110325
-0.106737
-0.103052
-0.0992787
-0.0954187
-0.0914668
-0.0874011
-0.0832016
-0.0788338
-0.0742745
-0.0695236
-0.0645896
-0.0594943
-0.0543742
-0.049327
-0.0443734
-0.0394843
-0.034655
-0.0298997
-0.0252294
-0.0206999
-0.0163403
-0.0120422
-0.00809894
-0.00460519
-0.00141286
0.00160651
0.00454559
0.00746302
0.0103893
0.0133356
0.0163019
0.0192844
0.0222785
0.0252814
0.0282916
0.0313089
0.0343336
0.0373661
0.0404066
0.043455
0.0465112
0.0495748
0.0526453
0.0557223
0.0588055
0.0618945
0.064989
0.0680888
0.0711934
0.0743028
0.0774165
0.0805344
0.0836561
0.0867814
0.0899098
0.0930411
0.0961748
0.0993106
0.102448
0.105586
0.108726
-0.219557
-0.21752
-0.215583
-0.213813
-0.212252
-0.210907