/*--------------------------------*- C++ -*----------------------------------*\
  =========                 |
  \\      /  F ield         | OpenFOAM: The Open Source CFD Toolbox
   \\    /   O peration     | Website:  https://openfoam.org
    \\  /    A nd           | Version:  6
     \\/     M anipulation  |
\*---------------------------------------------------------------------------*/
FoamFile
{
    version     2.0;
    format      ascii;
    class       surfaceScalarField;
    location    "700";
    object      phi;
}
// * * * * * * * * * * * * * * * * * * * * * * * * * * * * * * * * * * * * * //

dimensions      [0 3 -1 0 0 0 0];

internalField   nonuniform List<scalar> 
9440
(
-5.35728e-11
5.35728e-11
-9.92295e-11
4.56565e-11
-1.59058e-10
5.98287e-11
-2.46077e-10
8.70182e-11
-3.56914e-10
1.10837e-10
-4.62387e-10
1.05472e-10
-5.37707e-10
7.53197e-11
-6.72319e-10
1.34612e-10
-8.99825e-10
2.27506e-10
-1.25497e-09
3.55142e-10
-1.44962e-09
1.94652e-10
-1.5832e-09
1.33586e-10
-1.74754e-09
1.64331e-10
-1.92932e-09
1.81781e-10
-2.11221e-09
1.8289e-10
-2.28778e-09
1.75576e-10
-2.49169e-09
2.0391e-10
-2.68714e-09
1.95448e-10
-2.90999e-09
2.22857e-10
-3.18923e-09
2.7924e-10
-3.40888e-09
2.19652e-10
-3.6128e-09
2.03921e-10
-3.74117e-09
1.2837e-10
-3.82106e-09
7.98857e-11
-3.86596e-09
4.49082e-11
-3.86312e-09
-2.84611e-12
-3.65106e-09
-2.12061e-10
-3.37043e-09
-2.80621e-10
-3.28839e-09
-8.20399e-11
-3.06245e-09
-2.25946e-10
-2.53256e-09
-5.29885e-10
-2.27862e-09
-2.53942e-10
-1.97432e-09
-3.04299e-10
-1.46269e-09
-5.11628e-10
-9.30711e-10
-5.31973e-10
-7.27175e-10
-2.03534e-10
-4.50151e-10
-2.77022e-10
-1.64304e-10
-2.85846e-10
1.33712e-10
-2.98015e-10
3.0743e-10
-1.73718e-10
5.32177e-10
-2.24746e-10
5.22959e-10
9.2176e-12
4.05798e-10
1.17159e-10
1.28622e-10
2.77176e-10
-1.29909e-10
2.58529e-10
-3.39768e-10
2.09858e-10
-5.1711e-10
1.77342e-10
-7.07256e-10
1.90146e-10
-8.54624e-10
1.47368e-10
-9.96235e-10
1.41612e-10
-1.06305e-09
6.6819e-11
-1.21872e-09
1.55665e-10
-1.3983e-09
1.79578e-10
-1.62312e-09
2.24821e-10
-1.76649e-09
1.43366e-10
-1.86063e-09
9.41395e-11
-1.92698e-09
6.63576e-11
-1.97113e-09
4.41488e-11
-1.98384e-09
1.27047e-11
-1.98362e-09
-2.17167e-13
-1.90386e-09
-7.97665e-11
-1.79204e-09
-1.11822e-10
-1.75538e-09
-3.66549e-11
-1.63474e-09
-1.20644e-10
-1.50098e-09
-1.33758e-10
-1.44881e-09
-5.21763e-11
-1.29284e-09
-1.55976e-10
-1.18819e-09
-1.04641e-10
-1.07777e-09
-1.10429e-10
-9.09928e-10
-1.67839e-10
-8.24521e-10
-8.54059e-11
-7.5957e-10
-6.49488e-11
-7.23145e-10
-3.64218e-11
-7.3615e-10
1.30079e-11
-7.27799e-10
-8.34783e-12
-7.65657e-10
3.7862e-11
-8.06495e-10
4.08406e-11
-6.2954e-10
-1.76952e-10
-2.55532e-10
-3.74004e-10
-1.61977e-14
-2.55503e-10
1.24698e-18
-1.37979e-19
1.38731e-18
-1.40328e-19
1.54262e-18
-1.5024e-19
1.69589e-18
-1.51978e-19
1.84728e-18
-1.50543e-19
1.99663e-18
-1.47939e-19
2.14275e-18
-1.44321e-19
2.28351e-18
-1.38928e-19
2.41674e-18
-1.31627e-19
2.54016e-18
-1.22232e-19
2.65158e-18
-1.10733e-19
2.74899e-18
-9.72744e-20
2.83069e-18
-8.21083e-20
2.89534e-18
-6.55529e-20
2.94205e-18
-4.79644e-20
2.97033e-18
-2.97155e-20
2.98007e-18
-1.11782e-20
2.97152e-18
7.29052e-21
2.94517e-18
2.5362e-20
2.90169e-18
4.2752e-20
2.84189e-18
5.92348e-20
2.76672e-18
7.46502e-20
2.67723e-18
8.89e-20
2.57458e-18
1.01941e-19
2.46001e-18
1.13773e-19
2.33476e-18
1.24427e-19
2.20011e-18
1.33956e-19
2.05723e-18
1.4242e-19
1.90723e-18
1.4988e-19
1.75108e-18
1.56401e-19
1.58966e-18
1.62047e-19
1.42372e-18
1.6688e-19
1.2539e-18
1.70963e-19
1.08079e-18
1.74354e-19
9.04906e-19
1.7711e-19
7.26721e-19
1.79284e-19
5.46695e-19
1.80929e-19
3.65282e-19
1.82096e-19
1.82918e-19
1.82844e-19
1.83264e-19
-7.2371e-11
1.25944e-10
-1.50296e-10
1.23581e-10
-2.22633e-10
1.32165e-10
-2.81096e-10
1.45481e-10
-3.7165e-10
2.01391e-10
-4.8858e-10
2.22401e-10
-7.24183e-10
3.10923e-10
-1.04808e-09
4.58511e-10
-1.29667e-09
4.76089e-10
-1.42078e-09
4.79255e-10
-1.50447e-09
2.78338e-10
-1.70938e-09
3.38497e-10
-1.9583e-09
4.13253e-10
-2.06639e-09
2.89874e-10
-2.20706e-09
3.23562e-10
-2.42271e-09
3.91233e-10
-2.4727e-09
2.53893e-10
-2.67176e-09
3.94513e-10
-2.8621e-09
4.13201e-10
-2.9777e-09
3.94837e-10
-3.20868e-09
4.5064e-10
-3.31038e-09
3.05614e-10
-3.42698e-09
2.44971e-10
-3.4919e-09
1.44812e-10
-3.54177e-09
9.47789e-11
-3.55079e-09
6.17339e-12
-3.52467e-09
-2.38186e-10
-3.49306e-09
-3.12226e-10
-3.21013e-09
-3.64971e-10
-3.03583e-09
-4.00238e-10
-2.43493e-09
-1.13078e-09
-2.21882e-09
-4.70053e-10
-1.71833e-09
-8.0478e-10
-1.35915e-09
-8.70806e-10
-1.07263e-09
-8.18486e-10
-7.29835e-10
-5.46331e-10
-3.83736e-10
-6.23118e-10
-4.89356e-11
-6.20645e-10
1.99626e-10
-5.46576e-10
3.90585e-10
-3.64678e-10
4.86396e-10
-3.20559e-10
5.03199e-10
-7.58655e-12
3.63113e-10
2.57243e-10
1.42957e-10
4.9733e-10
-1.06527e-10
5.08012e-10
-3.49249e-10
4.52579e-10
-5.77645e-10
4.05737e-10
-7.16338e-10
3.28838e-10
-8.90394e-10
3.21424e-10
-1.04559e-09
2.96811e-10
-1.14922e-09
1.70449e-10
-1.28668e-09
2.93121e-10
-1.38178e-09
2.74685e-10
-1.46463e-09
3.07668e-10
-1.52892e-09
2.07651e-10
-1.63621e-09
2.01433e-10
-1.70948e-09
1.39627e-10
-1.75026e-09
8.49233e-11
-1.7514e-09
1.38405e-11
-1.76041e-09
8.79517e-12
-1.72993e-09
-1.1025e-10
-1.63901e-09
-2.02747e-10
-1.54762e-09
-1.28044e-10
-1.60838e-09
-5.98923e-11
-1.29387e-09
-4.48265e-10
-1.2198e-09
-1.26248e-10
-1.08506e-09
-2.90725e-10
-9.60006e-10
-2.29693e-10
-7.91184e-10
-2.7925e-10
-6.3685e-10
-3.22171e-10
-4.61697e-10
-2.60556e-10
-3.18188e-10
-2.08453e-10
-1.55751e-10
-1.98854e-10
-5.87566e-11
-8.3981e-11
5.64767e-11
-1.23575e-10
1.9926e-10
-1.04916e-10
3.63067e-10
-1.22961e-10
3.48004e-10
-1.61886e-10
1.69459e-10
-1.95469e-10
-1.08619e-15
-8.60823e-11
1.19886e-18
-4.17808e-19
1.37342e-18
-3.21228e-19
1.53804e-18
-3.13774e-19
1.69561e-18
-3.06379e-19
1.84928e-18
-3.00777e-19
2.00036e-18
-2.95696e-19
2.14814e-18
-2.89034e-19
2.29081e-18
-2.78966e-19
2.42613e-18
-2.64951e-19
2.55166e-18
-2.46552e-19
2.66504e-18
-2.23759e-19
2.76416e-18
-1.96872e-19
2.84724e-18
-1.664e-19
2.91293e-18
-1.32996e-19
2.9603e-18
-9.74043e-20
2.98887e-18
-6.04238e-20
2.99854e-18
-2.28717e-20
2.98959e-18
1.44626e-20
2.96256e-18
5.08758e-20
2.91817e-18
8.57971e-20
2.85731e-18
1.18813e-19
2.78097e-18
1.49661e-19
2.69027e-18
1.78203e-19
2.58642e-18
2.04391e-19
2.47066e-18
2.28238e-19
2.34429e-18
2.49795e-19
2.20857e-18
2.69127e-19
2.06469e-18
2.86312e-19
1.91375e-18
3.0144e-19
1.75673e-18
3.14609e-19
1.5945e-18
3.25932e-19
1.4278e-18
3.35533e-19
1.2573e-18
3.43547e-19
1.08355e-18
3.50117e-19
9.07081e-19
3.55387e-19
7.28365e-19
3.59501e-19
5.47863e-19
3.62598e-19
3.6603e-19
3.648e-19
1.83338e-19
3.6621e-19
3.66911e-19
-1.02986e-10
2.2893e-10
-1.9801e-10
2.18604e-10
-2.83939e-10
2.18093e-10
-3.55407e-10
2.16948e-10
-4.01934e-10
2.47917e-10
-5.17723e-10
3.3819e-10
-7.15063e-10
5.08262e-10
-9.87751e-10
7.31199e-10
-1.21977e-09
7.08105e-10
-1.39866e-09
6.58151e-10
-1.61721e-09
4.96888e-10
-1.73774e-09
4.59025e-10
-1.85682e-09
5.32339e-10
-2.01585e-09
4.48902e-10
-2.17238e-09
4.80092e-10
-2.28745e-09
5.06305e-10
-2.43575e-09
4.02198e-10
-2.53616e-09
4.9492e-10
-2.64263e-09
5.19671e-10
-2.72516e-09
4.77365e-10
-2.77962e-09
5.05105e-10
-2.87004e-09
3.96032e-10
-2.90728e-09
2.82211e-10
-2.96528e-09
2.02811e-10
-2.94861e-09
7.81161e-11
-2.87917e-09
-6.32669e-11
-2.86434e-09
-2.53018e-10
-2.80077e-09
-3.75792e-10
-2.69203e-09
-4.73704e-10
-2.3588e-09
-7.33471e-10
-2.23311e-09
-1.25647e-09
-1.96915e-09
-7.34005e-10
-1.67237e-09
-1.10156e-09
-1.49906e-09
-1.04412e-09
-1.23165e-09
-1.08589e-09
-8.33761e-10
-9.44216e-10
-4.53013e-10
-1.00387e-09
-1.69672e-10
-9.03985e-10
3.38631e-11
-7.50112e-10
1.52302e-10
-4.83117e-10
1.0743e-10
-2.75688e-10
2.32475e-10
-1.32633e-10
1.99363e-10
2.90353e-10
1.68296e-10
5.28396e-10
-9.23205e-11
7.68627e-10
-4.00837e-10
7.61095e-10
-6.12115e-10
6.17015e-10
-8.10255e-10
5.26978e-10
-8.98872e-10
4.10041e-10
-1.02904e-09
4.26975e-10
-1.17552e-09
3.16934e-10
-1.24155e-09
3.59148e-10
-1.30492e-09
3.38058e-10
-1.35777e-09
3.60514e-10
-1.43057e-09
2.80459e-10
-1.49883e-09
2.69689e-10
-1.5504e-09
1.91197e-10
-1.6008e-09
1.35321e-10
-1.62155e-09
3.45895e-11
-1.62693e-09
1.41747e-11
-1.61571e-09
-1.21475e-10
-1.5044e-09
-3.14055e-10
-1.42563e-09
-2.06823e-10
-1.21524e-09
-2.70285e-10
-1.11892e-09
-5.44585e-10
-1.01523e-09
-2.29937e-10
-8.73561e-10
-4.324e-10
-7.40155e-10
-3.631e-10
-5.43544e-10
-4.7586e-10
-4.2212e-10
-4.43594e-10
-2.70149e-10
-4.12525e-10
-1.42093e-10
-3.36506e-10
-8.71455e-12
-3.32229e-10
7.60742e-11
-1.68766e-10
1.59359e-10
-2.06857e-10
2.85903e-10
-2.31455e-10
3.68251e-10
-2.05301e-10
3.59789e-10
-1.53411e-10
2.00921e-10
-3.65772e-11
-6.25419e-16
1.14852e-10
1.20928e-18
-4.72006e-19
1.38158e-18
-4.92593e-19
1.54614e-18
-4.76171e-19
1.70191e-18
-4.59305e-19
1.85506e-18
-4.50875e-19
2.0075e-18
-4.4512e-19
2.15821e-18
-4.36871e-19
2.30483e-18
-4.22974e-19
2.44453e-18
-4.02428e-19
2.57446e-18
-3.74747e-19
2.69193e-18
-3.40088e-19
2.79463e-18
-2.99048e-19
2.88065e-18
-2.52517e-19
2.94852e-18
-2.01569e-19
2.99728e-18
-1.47389e-19
3.02642e-18
-9.12131e-20
3.03587e-18
-3.42721e-20
3.026e-18
2.22687e-20
2.99748e-18
7.73756e-20
2.95119e-18
1.3021e-19
2.88816e-18
1.80158e-19
2.80952e-18
2.2682e-19
2.71646e-18
2.69973e-19
2.61026e-18
3.09527e-19
2.49222e-18
3.45482e-19
2.36363e-18
3.77897e-19
2.22576e-18
4.06873e-19
2.07982e-18
4.32536e-19
1.92692e-18
4.55036e-19
1.76805e-18
4.74542e-19
1.6041e-18
4.91245e-19
1.43582e-18
5.05355e-19
1.26386e-18
5.17096e-19
1.08882e-18
5.26699e-19
9.11196e-19
5.34394e-19
7.31462e-19
5.40406e-19
5.50064e-19
5.44939e-19
3.67441e-19
5.48177e-19
1.84038e-19
5.50265e-19
5.51304e-19
-1.00955e-10
3.29885e-10
-2.00364e-10
3.18012e-10
-2.77572e-10
2.95302e-10
-3.87664e-10
3.2704e-10
-5.37637e-10
3.9789e-10
-7.01025e-10
5.01577e-10
-8.45732e-10
6.5297e-10
-9.09177e-10
7.94645e-10
-1.10228e-09
9.01213e-10
-1.30855e-09
8.64415e-10
-1.53419e-09
7.22526e-10
-1.7261e-09
6.5094e-10
-1.8353e-09
6.41542e-10
-1.94604e-09
5.59638e-10
-2.0473e-09
5.81353e-10
-2.13465e-09
5.93657e-10
-2.27727e-09
5.44825e-10
-2.34662e-09
5.64267e-10
-2.35461e-09
5.27666e-10
-2.37257e-09
4.95327e-10
-2.35381e-09
4.86344e-10
-2.36273e-09
4.04953e-10
-2.39633e-09
3.1581e-10
-2.39701e-09
2.03493e-10
-2.32375e-09
4.85241e-12
-2.23357e-09
-1.53444e-10
-2.19328e-09
-2.93298e-10
-2.16164e-09
-4.07435e-10
-2.09681e-09
-5.38528e-10
-2.01279e-09
-8.17488e-10
-2.2549e-09
-1.01437e-09
-1.83439e-09
-1.15451e-09
-1.71116e-09
-1.22479e-09
-1.43962e-09
-1.31566e-09
-1.29495e-09
-1.23056e-09
-1.02563e-09
-1.21353e-09
-8.32285e-10
-1.19721e-09
-6.8022e-10
-1.05605e-09
-5.58322e-10
-8.72011e-10
-4.05034e-10
-6.36407e-10
-2.37636e-10
-4.43087e-10
-1.46182e-10
-2.24088e-10
-3.98498e-11
1.8402e-10
-2.761e-11
5.16155e-10
-2.19735e-10
9.60751e-10
-5.11287e-10
1.05265e-09
-7.21897e-10
8.27625e-10
-7.94902e-10
5.99983e-10
-8.77124e-10
4.92264e-10
-9.56397e-10
5.06249e-10
-1.11563e-09
4.76169e-10
-1.19663e-09
4.40144e-10
-1.26022e-09
4.01657e-10
-1.31877e-09
4.19064e-10
-1.37643e-09
3.38113e-10
-1.43843e-09
3.31695e-10
-1.50273e-09
2.55493e-10
-1.53984e-09
1.72423e-10
-1.54282e-09
3.75682e-11
-1.50042e-09
-2.82198e-11
-1.42929e-09
-1.92615e-10
-1.25936e-09
-4.83986e-10
-1.13545e-09
-3.30734e-10
-9.97076e-10
-4.08666e-10
-1.05148e-09
-4.90187e-10
-8.31828e-10
-4.49587e-10
-7.3476e-10
-5.2947e-10
-5.5373e-10
-5.44132e-10
-3.26916e-10
-7.02674e-10
-1.02121e-10
-6.6839e-10
1.27069e-10
-6.41714e-10
2.98583e-10
-5.08019e-10
3.82599e-10
-4.16244e-10
4.67672e-10
-2.53836e-10
4.6172e-10
-2.00903e-10
4.01821e-10
-1.71555e-10
3.53784e-10
-1.57265e-10
3.86978e-10
-1.86607e-10
2.71737e-10
7.86693e-11
-1.23177e-15
3.86595e-10
1.09957e-18
-1.49248e-18
1.3987e-18
-7.89898e-19
1.5637e-18
-6.38276e-19
1.71103e-18
-6.03661e-19
1.8615e-18
-5.98325e-19
2.01621e-18
-5.96831e-19
2.1721e-18
-5.89854e-19
2.32537e-18
-5.73488e-19
2.47221e-18
-5.46763e-19
2.60911e-18
-5.09496e-19
2.73297e-18
-4.6225e-19
2.84116e-18
-4.06098e-19
2.93159e-18
-3.4244e-19
3.0027e-18
-2.7287e-19
3.05346e-18
-1.99069e-19
3.08336e-18
-1.22731e-19
3.09241e-18
-4.55011e-20
3.08111e-18
3.10824e-20
3.05031e-18
1.05654e-19
3.00113e-18
1.77091e-19
2.93482e-18
2.44553e-19
2.85267e-18
3.07481e-19
2.75602e-18
3.65554e-19
2.64622e-18
4.18632e-19
2.52463e-18
4.66708e-19
2.3926e-18
5.09872e-19
2.25142e-18
5.48281e-19
2.10232e-18
5.82139e-19
1.94642e-18
6.11685e-19
1.78476e-18
6.37189e-19
1.61821e-18
6.58946e-19
1.44756e-18
6.77268e-19
1.27347e-18
6.92479e-19
1.09652e-18
7.04903e-19
9.17207e-19
7.14857e-19
7.35996e-19
7.22637e-19
5.53302e-19
7.28514e-19
3.69528e-19
7.3272e-19
1.85077e-19
7.3544e-19
7.36796e-19
-8.91819e-11
4.19066e-10
-1.69077e-10
3.97907e-10
-2.64558e-10
3.90782e-10
-3.81145e-10
4.43627e-10
-5.41966e-10
5.58712e-10
-7.34793e-10
6.94404e-10
-9.4387e-10
8.62048e-10
-1.05834e-09
9.09117e-10
-1.08804e-09
9.30917e-10
-1.20409e-09
9.80458e-10
-1.37718e-09
8.95618e-10
-1.49844e-09
7.72199e-10
-1.61082e-09
7.5393e-10
-1.76382e-09
7.1264e-10
-1.86074e-09
6.78267e-10
-1.9233e-09
6.56217e-10
-1.96984e-09
5.91372e-10
-1.98151e-09
5.75936e-10
-1.97075e-09
5.16905e-10
-1.99833e-09
5.2291e-10
-1.99164e-09
4.79652e-10
-1.9373e-09
3.50616e-10
-1.87894e-09
2.57448e-10
-1.79047e-09
1.15024e-10
-1.73589e-09
-4.9718e-11
-1.73743e-09
-1.51903e-10
-1.75533e-09
-2.75394e-10
-1.76575e-09
-3.9702e-10
-1.71262e-09
-5.91657e-10
-1.72544e-09
-8.04659e-10
-1.75076e-09
-9.89045e-10
-1.71523e-09
-1.19005e-09
-1.62619e-09
-1.31383e-09
-1.56464e-09
-1.37721e-09
-1.40899e-09
-1.38621e-09
-1.20793e-09
-1.4146e-09
-1.09457e-09
-1.31057e-09
-8.84823e-10
-1.2658e-09
-6.57023e-10
-1.09981e-09
-4.09385e-10
-8.84046e-10
-3.32125e-10
-5.20348e-10
-3.88236e-10
-1.67977e-10
-3.21313e-10
1.17096e-10
-2.88771e-10
4.83613e-10
-3.16542e-10
9.88522e-10
-4.15507e-10
1.15161e-09
-5.95201e-10
1.00732e-09
-7.43653e-10
7.48435e-10
-8.8516e-10
6.33772e-10
-9.50651e-10
5.7174e-10
-1.06094e-09
5.86462e-10
-1.14349e-09
5.2269e-10
-1.20429e-09
4.62461e-10
-1.25959e-09
4.74362e-10
-1.32424e-09
4.02765e-10
-1.36932e-09
3.76776e-10
-1.39712e-09
2.83287e-10
-1.38033e-09
1.55638e-10
-1.34599e-09
3.22429e-12
-1.25077e-09
-1.23449e-10
-1.14228e-09
-3.01099e-10
-1.05667e-09
-5.69602e-10
-9.36159e-10
-4.51249e-10
-7.99552e-10
-5.45275e-10
-7.32695e-10
-5.57047e-10
-6.49699e-10
-5.32585e-10
-5.25424e-10
-6.53747e-10
-3.05683e-10
-7.63873e-10
-4.84324e-11
-9.59927e-10
1.85504e-10
-9.02327e-10
3.42388e-10
-7.98599e-10
4.99196e-10
-6.64826e-10
6.05595e-10
-5.22641e-10
6.90858e-10
-3.39097e-10
6.76266e-10
-1.86306e-10
5.95802e-10
-9.10859e-11
4.54687e-10
-1.61456e-11
2.05229e-10
6.2854e-11
3.65916e-11
2.4731e-10
-1.46563e-15
4.23191e-10
1.73331e-18
-3.00393e-19
1.551e-18
-6.06e-19
1.599e-18
-6.83151e-19
1.71704e-18
-7.18692e-19
1.86366e-18
-7.42064e-19
2.02362e-18
-7.54033e-19
2.18847e-18
-7.52075e-19
2.35209e-18
-7.34643e-19
2.50948e-18
-7.0188e-19
2.65636e-18
-6.54382e-19
2.78912e-18
-5.93389e-19
2.90482e-18
-5.20634e-19
3.00116e-18
-4.38175e-19
3.0765e-18
-3.48249e-19
3.1298e-18
-2.53131e-19
3.16059e-18
-1.5504e-19
3.169e-18
-5.60777e-20
3.15568e-18
4.18205e-20
3.12175e-18
1.36944e-19
3.0686e-18
2.27872e-19
2.99775e-18
3.13531e-19
2.91074e-18
3.93194e-19
2.80909e-18
4.66448e-19
2.69429e-18
5.33123e-19
2.5678e-18
5.93235e-19
2.43101e-18
6.46932e-19
2.28528e-18
6.94463e-19
2.13186e-18
7.36141e-19
1.97193e-18
7.72327e-19
1.80651e-18
8.03417e-19
1.63653e-18
8.29831e-19
1.46277e-18
8.51999e-19
1.28589e-18
8.70354e-19
1.10647e-18
8.8532e-19
9.24987e-19
8.97298e-19
7.41873e-19
9.06658e-19
5.57508e-19
9.1373e-19
3.72248e-19
9.18795e-19
1.86434e-19
9.22071e-19
9.23704e-19
-5.94407e-11
4.78507e-10
-1.1739e-10
4.55856e-10
-1.88591e-10
4.61983e-10
-2.84643e-10
5.39679e-10
-3.6768e-10
6.41749e-10
-4.87986e-10
8.1471e-10
-6.14486e-10
9.88549e-10
-8.36395e-10
1.13103e-09
-1.06332e-09
1.15784e-09
-1.17743e-09
1.09457e-09
-1.31646e-09
1.03465e-09
-1.48445e-09
9.40194e-10
-1.57859e-09
8.48062e-10
-1.60479e-09
7.38848e-10
-1.66308e-09
7.36549e-10
-1.67948e-09
6.72626e-10
-1.69329e-09
6.05178e-10
-1.69141e-09
5.7406e-10
-1.72095e-09
5.46443e-10
-1.71068e-09
5.12643e-10
-1.69019e-09
4.59158e-10
-1.59183e-09
2.52256e-10
-1.57328e-09
2.38902e-10
-1.5506e-09
9.2351e-11
-1.55058e-09
-4.97441e-11
-1.5505e-09
-1.51976e-10
-1.5646e-09
-2.61291e-10
-1.57116e-09
-3.9046e-10
-1.59339e-09
-5.69431e-10
-1.68875e-09
-7.09292e-10
-1.74453e-09
-9.33262e-10
-1.73223e-09
-1.20235e-09
-1.66581e-09
-1.38025e-09
-1.61254e-09
-1.43049e-09
-1.55068e-09
-1.44806e-09
-1.53237e-09
-1.43291e-09
-1.37292e-09
-1.47003e-09
-1.25443e-09
-1.38429e-09
-1.14389e-09
-1.21035e-09
-1.07565e-09
-9.52287e-10
-9.68288e-10
-6.27707e-10
-7.88109e-10
-3.48157e-10
-6.80161e-10
9.14871e-12
-5.39117e-10
3.42569e-10
-5.01365e-10
9.50771e-10
-4.68863e-10
1.11911e-09
-5.90395e-10
1.12885e-09
-7.224e-10
8.8044e-10
-7.84101e-10
6.95474e-10
-8.84591e-10
6.72231e-10
-1.00375e-09
7.05621e-10
-1.09223e-09
6.11167e-10
-1.14817e-09
5.18401e-10
-1.17519e-09
5.01385e-10
-1.21839e-09
4.45967e-10
-1.25184e-09
4.10225e-10
-1.23611e-09
2.6756e-10
-1.17559e-09
9.51127e-11
-1.14382e-09
-2.85461e-11
-1.0899e-09
-1.77379e-10
-9.87601e-10
-4.03397e-10
-9.77156e-10
-5.8005e-10
-8.30639e-10
-5.97768e-10
-7.28362e-10
-6.47555e-10
-6.11783e-10
-6.73628e-10
-4.52366e-10
-6.92004e-10
-2.91854e-10
-8.14261e-10
-1.01784e-10
-9.53945e-10
1.63705e-11
-1.07808e-09
1.60639e-10
-1.0466e-09
3.24837e-10
-9.62797e-10
5.22873e-10
-8.62863e-10
6.95629e-10
-6.95396e-10
8.15868e-10
-4.59335e-10
8.06995e-10
-1.77432e-10
7.18212e-10
-2.29849e-12
5.80018e-10
1.22054e-10
4.07127e-10
2.35749e-10
2.42496e-10
4.11945e-10
-1.58664e-15
6.65692e-10
1.41955e-18
-3.82114e-19
1.47454e-18
-6.59596e-19
1.56413e-18
-7.69623e-19
1.69433e-18
-8.46006e-19
1.85234e-18
-8.97511e-19
2.02599e-18
-9.25407e-19
2.2059e-18
-9.29985e-19
2.38486e-18
-9.11848e-19
2.55698e-18
-8.72481e-19
2.71735e-18
-8.13477e-19
2.86188e-18
-7.36924e-19
2.98728e-18
-6.45368e-19
3.09109e-18
-5.41685e-19
3.17162e-18
-4.28906e-19
3.22789e-18
-3.1004e-19
3.25955e-18
-1.87949e-19
3.2669e-18
-6.52696e-20
3.25081e-18
5.56265e-20
3.21268e-18
1.72669e-19
3.15425e-18
2.84143e-19
3.07741e-18
3.88747e-19
2.984e-18
4.85608e-19
2.87577e-18
5.74247e-19
2.75441e-18
6.54503e-19
2.62149e-18
7.26453e-19
2.47854e-18
7.90355e-19
2.32696e-18
8.46585e-19
2.16805e-18
8.95605e-19
2.00302e-18
9.37929e-19
1.83293e-18
9.74103e-19
1.6587e-18
1.00469e-18
1.48112e-18
1.03025e-18
1.30086e-18
1.05135e-18
1.11845e-18
1.06849e-18
9.34347e-19
1.08219e-18
7.48945e-19
1.09287e-18
5.62572e-19
1.10094e-18
3.75524e-19
1.10671e-18
1.88066e-19
1.11044e-18
1.11229e-18
-5.27705e-11
5.31277e-10
-1.06114e-10
5.09199e-10
-1.86188e-10
5.42057e-10
-2.98766e-10
6.52257e-10
-4.48712e-10
7.91695e-10
-5.81084e-10
9.47082e-10
-6.77246e-10
1.08471e-09
-7.34899e-10
1.18868e-09
-8.1527e-10
1.23821e-09
-9.46175e-10
1.22548e-09
-1.09067e-09
1.17915e-09
-1.232e-09
1.08152e-09
-1.32605e-09
9.42108e-10
-1.3982e-09
8.11003e-10
-1.4619e-09
8.00253e-10
-1.48321e-09
6.93931e-10
-1.51619e-09
6.38165e-10
-1.52296e-09
5.80827e-10
-1.56264e-09
5.86126e-10
-1.54963e-09
4.99632e-10
-1.52602e-09
4.3555e-10
-1.54679e-09
2.73034e-10
-1.48474e-09
1.76848e-10
-1.47399e-09
8.16011e-11
-1.4931e-09
-3.06259e-11
-1.48885e-09
-1.56228e-10
-1.5027e-09
-2.47441e-10
-1.52609e-09
-3.67066e-10
-1.54581e-09
-5.49707e-10
-1.5665e-09
-6.88604e-10
-1.614e-09
-8.85764e-10
-1.65468e-09
-1.16167e-09
-1.69843e-09
-1.33651e-09
-1.71841e-09
-1.41051e-09
-1.68792e-09
-1.47856e-09
-1.59464e-09
-1.52618e-09
-1.52634e-09
-1.53833e-09
-1.42013e-09
-1.49051e-09
-1.28787e-09
-1.3426e-09
-1.20223e-09
-1.03792e-09
-1.11727e-09
-7.12673e-10
-1.05067e-09
-4.14754e-10
-9.82195e-10
-5.9325e-11
-8.50424e-10
2.10798e-10
-6.63351e-10
7.63698e-10
-6.02528e-10
1.05829e-09
-5.2777e-10
1.0541e-09
-5.92915e-10
9.45585e-10
-7.16668e-10
8.19226e-10
-8.00261e-10
7.55824e-10
-8.54564e-10
7.59925e-10
-9.74533e-10
7.31136e-10
-1.08426e-09
6.28124e-10
-1.11851e-09
5.35636e-10
-1.1236e-09
4.51061e-10
-1.07393e-09
3.60549e-10
-1.05437e-09
2.47997e-10
-1.02222e-09
6.29646e-11
-9.86708e-10
-6.40615e-11
-9.6015e-10
-2.03939e-10
-8.61389e-10
-5.02161e-10
-8.09555e-10
-6.31886e-10
-6.89463e-10
-7.17862e-10
-5.79279e-10
-7.5774e-10
-4.2444e-10
-8.28469e-10
-2.98703e-10
-8.17743e-10
-2.311e-10
-8.81864e-10
-6.5658e-11
-1.11939e-09
1.11354e-10
-1.25509e-09
2.26327e-10
-1.16157e-09
4.02752e-10
-1.13922e-09
5.36294e-10
-9.96404e-10
6.60587e-10
-8.19687e-10
8.46654e-10
-6.454e-10
8.76075e-10
-2.06851e-10
8.12531e-10
6.12491e-11
6.80249e-10
2.5434e-10
4.76794e-10
4.39208e-10
2.42607e-10
6.46137e-10
-1.74472e-15
9.08306e-10
1.21226e-18
-9.54371e-19
1.3652e-18
-8.11208e-19
1.48842e-18
-8.89711e-19
1.64348e-18
-9.98335e-19
1.82508e-18
-1.0769e-18
2.02179e-18
-1.12036e-18
2.22404e-18
-1.13092e-18
2.42423e-18
-1.11109e-18
2.61598e-18
-1.0636e-18
2.79391e-18
-9.90992e-19
2.95344e-18
-8.96271e-19
3.09096e-18
-7.82909e-19
3.20387e-18
-6.54761e-19
3.29049e-18
-5.15832e-19
3.34998e-18
-3.70043e-19
3.38223e-18
-2.2105e-19
3.38779e-18
-7.21369e-20
3.36785e-18
7.38327e-20
3.32415e-18
2.14419e-19
3.25886e-18
3.47635e-19
3.17427e-18
4.71987e-19
3.07264e-18
5.86498e-19
2.95602e-18
6.90668e-19
2.82636e-18
7.84395e-19
2.6854e-18
8.67876e-19
2.53477e-18
9.41527e-19
2.37598e-18
1.00591e-18
2.21037e-18
1.06166e-18
2.03919e-18
1.1095e-18
1.86351e-18
1.15014e-18
1.68426e-18
1.18431e-18
1.50222e-18
1.21272e-18
1.31801e-18
1.23604e-18
1.13214e-18
1.25493e-18
9.45032e-19
1.26995e-18
7.5701e-19
1.28164e-18
5.68344e-19
1.29044e-18
3.79253e-19
1.29672e-18
1.89919e-19
1.30077e-18
1.30277e-18
-4.9822e-11
5.81099e-10
-9.09897e-11
5.50367e-10
-1.26535e-10
5.77602e-10
-1.26548e-10
6.5227e-10
-1.23733e-10
7.8888e-10
-1.74874e-10
9.98223e-10
-2.9914e-10
1.20898e-09
-4.87018e-10
1.37656e-09
-6.32949e-10
1.38414e-09
-7.55938e-10
1.34847e-09
-8.79714e-10
1.30292e-09
-1.02049e-09
1.2223e-09
-1.14161e-09
1.06323e-09
-1.21226e-09
8.81659e-10
-1.27545e-09
8.63441e-10
-1.36992e-09
7.88398e-10
-1.38889e-09
6.57136e-10
-1.43061e-09
6.22546e-10
-1.4204e-09
5.75925e-10
-1.45214e-09
5.31369e-10
-1.4463e-09
4.29709e-10
-1.5261e-09
3.52842e-10
-1.46057e-09
1.11316e-10
-1.46362e-09
8.46579e-11
-1.45596e-09
-3.82863e-11
-1.45039e-09
-1.61793e-10
-1.46122e-09
-2.36618e-10
-1.45637e-09
-3.71913e-10
-1.51142e-09
-4.9465e-10
-1.55431e-09
-6.45713e-10
-1.64274e-09
-7.97338e-10
-1.69507e-09
-1.10933e-09
-1.75021e-09
-1.28137e-09
-1.76994e-09
-1.39077e-09
-1.74946e-09
-1.49904e-09
-1.74357e-09
-1.53207e-09
-1.72846e-09
-1.55344e-09
-1.69864e-09
-1.52033e-09
-1.68292e-09
-1.35832e-09
-1.64633e-09
-1.07451e-09
-1.48697e-09
-8.72039e-10
-1.292e-09
-6.09721e-10
-1.20302e-09
-1.48303e-10
-1.11784e-09
1.25622e-10
-9.17498e-10
5.63352e-10
-7.46977e-10
8.87765e-10
-7.17244e-10
1.02436e-09
-6.85546e-10
9.13887e-10
-6.74255e-10
8.07934e-10
-6.97626e-10
7.79195e-10
-7.1076e-10
7.73058e-10
-7.62134e-10
7.82508e-10
-8.63265e-10
7.29254e-10
-9.57322e-10
6.29691e-10
-1.01502e-09
5.08761e-10
-9.66288e-10
3.11811e-10
-9.13074e-10
1.94782e-10
-8.81135e-10
3.10239e-11
-8.75808e-10
-6.93908e-11
-7.96592e-10
-2.83157e-10
-7.3081e-10
-5.67944e-10
-6.77573e-10
-6.85125e-10
-6.41152e-10
-7.54284e-10
-5.59315e-10
-8.39577e-10
-3.74676e-10
-1.01311e-09
-1.1767e-10
-1.07475e-09
5.4053e-11
-1.05359e-09
1.31712e-10
-1.19705e-09
2.56868e-10
-1.38025e-09
4.04712e-10
-1.30941e-09
5.29686e-10
-1.2642e-09
6.52121e-10
-1.11884e-09
7.00929e-10
-8.68493e-10
7.84962e-10
-7.29431e-10
8.49844e-10
-2.71731e-10
8.97861e-10
1.32357e-11
8.67758e-10
2.84447e-10
7.29389e-10
5.77582e-10
4.10893e-10
9.64638e-10
-1.83218e-15
1.3192e-09
1.54126e-18
9.57436e-19
1.28738e-18
-5.55959e-19
1.38044e-18
-9.79613e-19
1.56555e-18
-1.18079e-18
1.78223e-18
-1.29157e-18
2.01157e-18
-1.34828e-18
2.24386e-18
-1.36232e-18
2.47172e-18
-1.33853e-18
2.68859e-18
-1.2804e-18
2.88863e-18
-1.19121e-18
3.0668e-18
-1.07481e-18
3.21911e-18
-9.35725e-19
3.3428e-18
-7.7897e-19
3.43628e-18
-6.09741e-19
3.49897e-18
-4.33079e-19
3.53114e-18
-2.5362e-19
3.53376e-18
-7.5425e-20
3.50843e-18
9.80772e-20
3.45737e-18
2.64074e-19
3.38321e-18
4.20345e-19
3.28878e-18
5.65274e-19
3.17681e-18
6.97846e-19
3.04975e-18
8.1761e-19
2.90984e-18
9.24586e-19
2.75905e-18
1.01916e-18
2.59915e-18
1.10196e-18
2.43174e-18
1.17378e-18
2.25821e-18
1.23552e-18
2.07983e-18
1.28809e-18
1.89768e-18
1.33244e-18
1.71267e-18
1.36946e-18
1.52554e-18
1.40004e-18
1.33689e-18
1.42498e-18
1.14717e-18
1.44506e-18
9.56719e-19
1.46094e-18
7.65809e-19
1.47323e-18
5.74626e-19
1.48244e-18
3.83302e-19
1.48899e-18
1.91923e-19
1.4932e-18
1.49528e-18
-4.44015e-11
6.255e-10
-7.44763e-11
5.80441e-10
-1.00398e-10
6.03522e-10
-1.66768e-10
7.18639e-10
-2.30407e-10
8.52519e-10
-2.4759e-10
1.01541e-09
-2.3032e-10
1.19171e-09
-2.5865e-10
1.40489e-09
-3.9771e-10
1.5232e-09
-5.24419e-10
1.47518e-09
-6.82035e-10
1.46054e-09
-8.61754e-10
1.40202e-09
-9.8448e-10
1.18596e-09
-1.15125e-09
1.04843e-09
-1.16605e-09
8.78249e-10
-1.20888e-09
8.31223e-10
-1.25441e-09
7.02674e-10
-1.31111e-09
6.79243e-10
-1.31293e-09
5.77746e-10
-1.33836e-09
5.56801e-10
-1.34494e-09
4.36292e-10
-1.35821e-09
3.6612e-10
-1.37705e-09
1.30154e-10
-1.40156e-09
1.09171e-10
-1.35841e-09
-8.14363e-11
-1.40946e-09
-1.10735e-10
-1.41302e-09
-2.33061e-10
-1.41939e-09
-3.65547e-10
-1.46441e-09
-4.49626e-10
-1.50219e-09
-6.07936e-10
-1.53664e-09
-7.62884e-10
-1.62499e-09
-1.02098e-09
-1.75024e-09
-1.15612e-09
-1.79221e-09
-1.3488e-09
-1.80124e-09
-1.49002e-09
-1.81619e-09
-1.51712e-09
-1.84567e-09
-1.52396e-09
-1.87349e-09
-1.49251e-09
-1.85127e-09
-1.38054e-09
-1.75493e-09
-1.17085e-09
-1.61408e-09
-1.01288e-09
-1.53069e-09
-6.93113e-10
-1.47549e-09
-2.03502e-10
-1.28526e-09
-6.46024e-11
-1.17507e-09
4.53157e-10
-9.27184e-10
6.39878e-10
-7.51812e-10
8.4899e-10
-6.93767e-10
8.5584e-10
-7.09508e-10
8.23674e-10
-6.86804e-10
7.5649e-10
-6.57967e-10
7.44218e-10
-6.55359e-10
7.79898e-10
-6.96089e-10
7.69982e-10
-7.58738e-10
6.92339e-10
-8.03606e-10
5.53628e-10
-8.44448e-10
3.52652e-10
-8.33793e-10
1.84125e-10
-8.28029e-10
2.52582e-11
-8.23734e-10
-7.36878e-11
-7.34778e-10
-3.72115e-10
-7.11245e-10
-5.91478e-10
-6.48976e-10
-7.47395e-10
-5.4032e-10
-8.6294e-10
-3.54066e-10
-1.02583e-09
-2.2612e-10
-1.14105e-09
-1.26931e-11
-1.28818e-09
2.86767e-10
-1.35305e-09
4.21134e-10
-1.33141e-09
4.71904e-10
-1.43102e-09
5.45929e-10
-1.38344e-09
6.19994e-10
-1.33826e-09
6.862e-10
-1.18504e-09
7.14728e-10
-8.97019e-10
7.65758e-10
-7.80458e-10
6.73938e-10
-1.79907e-10
4.18936e-10
2.6824e-10
2.63978e-10
4.39408e-10
3.018e-10
5.39764e-10
4.05362e-10
8.61081e-10
-1.6457e-15
1.72457e-09
3.47528e-19
-3.96654e-19
8.64415e-19
-1.07134e-18
1.17991e-18
-1.29203e-18
1.45538e-18
-1.45372e-18
1.72611e-18
-1.56039e-18
1.99782e-18
-1.61866e-18
2.26766e-18
-1.63137e-18
2.52985e-18
-1.60043e-18
2.77778e-18
-1.52841e-18
3.00503e-18
-1.41875e-18
3.20588e-18
-1.27613e-18
3.37586e-18
-1.1063e-18
3.51203e-18
-9.15715e-19
3.61294e-18
-7.11034e-19
3.67843e-18
-4.98675e-19
3.70934e-18
-2.84459e-19
3.70726e-18
-7.33762e-20
3.67443e-18
1.30506e-19
3.61364e-18
3.24002e-19
3.52814e-18
5.04724e-19
3.42136e-18
6.71026e-19
3.29657e-18
8.21965e-19
3.15673e-18
9.57236e-19
3.00441e-18
1.07707e-18
2.84185e-18
1.1821e-18
2.67098e-18
1.27326e-18
2.49347e-18
1.35164e-18
2.31079e-18
1.41841e-18
2.12418e-18
1.47477e-18
1.9347e-18
1.52189e-18
1.74324e-18
1.56088e-18
1.55049e-18
1.59281e-18
1.35696e-18
1.61864e-18
1.16305e-18
1.63925e-18
9.6901e-19
1.65542e-18
7.75021e-19
1.66785e-18
5.81178e-19
1.6771e-18
3.87511e-19
1.68364e-18
1.93996e-19
1.68781e-18
1.68986e-18
-1.64342e-11
6.41934e-10
-3.93306e-11
6.03336e-10
-5.68098e-11
6.21001e-10
-5.01554e-11
7.11984e-10
-6.85378e-11
8.70901e-10
-9.57869e-11
1.04265e-09
-1.52444e-10
1.24837e-09
-1.93592e-10
1.44604e-09
-2.9456e-10
1.62417e-09
-4.79966e-10
1.66059e-09
-6.68396e-10
1.64897e-09
-7.34033e-10
1.46765e-09
-7.86797e-10
1.23872e-09
-9.03273e-10
1.1649e-09
-9.92432e-10
9.6741e-10
-1.04384e-09
8.82634e-10
-1.11365e-09
7.72479e-10
-1.14966e-09
7.15259e-10
-1.19908e-09
6.27166e-10
-1.24149e-09
5.99219e-10
-1.24199e-09
4.36788e-10
-1.23366e-09
3.57795e-10
-1.3269e-09
2.23396e-10
-1.32593e-09
1.08206e-10
-1.33853e-09
-6.88332e-11
-1.32312e-09
-1.26146e-10
-1.34117e-09
-2.15012e-10
-1.40619e-09
-3.00519e-10
-1.3757e-09
-4.80113e-10
-1.4204e-09
-5.63243e-10
-1.44891e-09
-7.34374e-10
-1.59247e-09
-8.77414e-10
-1.69951e-09
-1.04908e-09
-1.75526e-09
-1.29305e-09
-1.81176e-09
-1.43352e-09
-1.84725e-09
-1.48163e-09
-1.87539e-09
-1.49581e-09
-1.92327e-09
-1.44464e-09
-1.95631e-09
-1.34749e-09
-1.89956e-09
-1.2276e-09
-1.83871e-09
-1.07374e-09
-1.8197e-09
-7.1212e-10
-1.6955e-09
-3.27698e-10
-1.49852e-09
-2.61586e-10
-1.34351e-09
2.98151e-10
-1.12347e-09
4.19829e-10
-9.38177e-10
6.63699e-10
-8.70646e-10
7.88309e-10
-7.99743e-10
7.5277e-10
-7.09408e-10
6.66154e-10
-6.37451e-10
6.7226e-10
-6.09345e-10
7.5179e-10
-6.18649e-10
7.79284e-10
-6.65555e-10
7.39243e-10
-6.95542e-10
5.83612e-10
-7.23275e-10
3.80383e-10
-7.55079e-10
2.15928e-10
-8.24765e-10
9.49423e-11
-8.24214e-10
-7.42399e-11
-7.76371e-10
-4.19959e-10
-6.81081e-10
-6.86768e-10
-5.76695e-10
-8.51781e-10
-4.21302e-10
-1.01833e-09
-2.17638e-10
-1.22949e-09
-4.34909e-11
-1.3152e-09
1.39479e-10
-1.47115e-09
2.55006e-10
-1.46857e-09
4.51068e-10
-1.52747e-09
5.71734e-10
-1.55168e-09
6.36912e-10
-1.44861e-09
6.92998e-10
-1.39434e-09
7.2008e-10
-1.21212e-09
7.00227e-10
-8.77165e-10
6.88729e-10
-7.68958e-10
4.91012e-10
1.7812e-11
2.89827e-10
4.69427e-10
-2.14765e-11
7.50714e-10
-3.02242e-10
8.20532e-10
-7.55555e-11
6.34399e-10
-1.07426e-15
1.64902e-09
1.45195e-19
-9.72779e-19
6.44371e-19
-1.56889e-18
1.01883e-18
-1.66388e-18
1.34928e-18
-1.78195e-18
1.6684e-18
-1.87781e-18
1.98535e-18
-1.93436e-18
2.29859e-18
-1.94377e-18
2.60187e-18
-1.90334e-18
2.88744e-18
-1.81394e-18
3.14765e-18
-1.67904e-18
3.37571e-18
-1.5044e-18
3.56645e-18
-1.29739e-18
3.71671e-18
-1.06635e-18
3.8253e-18
-8.19792e-19
3.89265e-18
-5.65841e-19
3.92042e-18
-3.11734e-19
3.91115e-18
-6.35365e-20
3.86793e-18
1.73978e-19
3.79436e-18
3.97267e-19
3.69444e-18
6.03863e-19
3.5723e-18
7.92227e-19
3.43184e-18
9.61638e-19
3.27656e-18
1.11208e-18
3.10944e-18
1.2441e-18
2.933e-18
1.35871e-18
2.74935e-18