/*--------------------------------*- C++ -*----------------------------------*\
  =========                 |
  \\      /  F ield         | OpenFOAM: The Open Source CFD Toolbox
   \\    /   O peration     | Website:  https://openfoam.org
    \\  /    A nd           | Version:  6
     \\/     M anipulation  |
\*---------------------------------------------------------------------------*/
FoamFile
{
    version     2.0;
    format      ascii;
    class       volScalarField;
    location    "700";
    object      T;
}
// * * * * * * * * * * * * * * * * * * * * * * * * * * * * * * * * * * * * * //

dimensions      [0 0 0 1 0 0 0];

internalField   nonuniform List<scalar> 
4800
(
552.488
552.365
552.241
552.118
551.995
551.873
551.752
551.633
551.515
551.401
551.291
551.186
551.086
550.991
550.901
550.817
550.737
550.662
550.591
550.524
550.461
550.401
550.345
550.291
550.24
550.191
550.144
550.098
550.053
550.008
549.963
549.917
549.87
549.822
549.773
549.721
549.666
549.608
549.546
549.481
549.411
549.335
549.254
549.166
549.073
548.976
548.874
548.77
548.664
548.556
548.447
548.338
548.229
548.121
548.014
547.908
547.805
547.703
547.603
547.506
547.41
547.316
547.222
547.129
547.035
546.942
546.847
546.751
546.654
546.554
546.452
546.347
546.238
546.126
546.011
545.893
545.772
545.649
545.525
545.4
545.273
545.145
545.018
544.891
544.764
544.638
544.513
544.388
544.264
544.141
544.019
543.897
543.776
543.655
543.535
543.416
543.297
543.178
543.059
542.941
542.823
542.706
542.588
542.471
542.354
542.237
542.12
542.003
541.887
541.77
541.654
541.538
541.421
541.305
541.189
541.073
540.956
540.84
540.724
540.608
552.488
552.365
552.242
552.119
551.996
551.874
551.753
551.634
551.516
551.403
551.294
551.189
551.089
550.995
550.906
550.821
550.742
550.667
550.597
550.53
550.468
550.409
550.353
550.3
550.249
550.2
550.153
550.106
550.061
550.015
549.97
549.924
549.877
549.828
549.778
549.725
549.67
549.611
549.549
549.483
549.412
549.337
549.255
549.168
549.075
548.978
548.877
548.773
548.667
548.56
548.452
548.343
548.235
548.127
548.021
547.916
547.813
547.711
547.612
547.515
547.419
547.325
547.232
547.138
547.045
546.952
546.857
546.761
546.664
546.564
546.462
546.356
546.247
546.135
546.02
545.902
545.78
545.657
545.53
545.403
545.274
545.146
545.018
544.89
544.763
544.637
544.512
544.387
544.263
544.14
544.018
543.896
543.775
543.655
543.535
543.415
543.296
543.177
543.059
542.941
542.823
542.705
542.588
542.471
542.354
542.237
542.12
542.003
541.887
541.77
541.654
541.537
541.421
541.305
541.189
541.073
540.956
540.84
540.724
540.608
552.488
552.365
552.243
552.12
551.998
551.877
551.756
551.637
551.521
551.408
551.3
551.196
551.097
551.003
550.915
550.831
550.753
550.679
550.609
550.543
550.482
550.423
550.368
550.315
550.265
550.216
550.169
550.123
550.077
550.031
549.985
549.938
549.889
549.84
549.788
549.734
549.677
549.618
549.555
549.487
549.416
549.339
549.258
549.172
549.08
548.983
548.883
548.78
548.675
548.568
548.461
548.353
548.246
548.14
548.034
547.93
547.828
547.727
547.629
547.532
547.437
547.343
547.25
547.157
547.064
546.97
546.875
546.779
546.681
546.581
546.478
546.372
546.263
546.15
546.033
545.913
545.79
545.664
545.536
545.406
545.276
545.147
545.018
544.89
544.762
544.636
544.51
544.386
544.262
544.139
544.016
543.895
543.774
543.653
543.533
543.414
543.295
543.176
543.058
542.94
542.822
542.704
542.587
542.47
542.353
542.236
542.119
542.003
541.886
541.77
541.653
541.537
541.421
541.305
541.189
541.072
540.956
540.84
540.724
540.608
552.489
552.367
552.245
552.123
552.001
551.881
551.761
551.644
551.529
551.417
551.309
551.206
551.109
551.016
550.928
550.846
550.768
550.695
550.627
550.562
550.501
550.444
550.389
550.337
550.287
550.239
550.192
550.145
550.099
550.052
550.005
549.957
549.907
549.856
549.803
549.747
549.689
549.627
549.562
549.494
549.421
549.345
549.263
549.177
549.086
548.991
548.892
548.79
548.686
548.581
548.475
548.369
548.263
548.157
548.053
547.95
547.849
547.75
547.653
547.557
547.463
547.37
547.277
547.184
547.091
546.996
546.901
546.805
546.706
546.605
546.501
546.394
546.283
546.168
546.049
545.927
545.801
545.673
545.542
545.41
545.278
545.147
545.018
544.889
544.761
544.634
544.508
544.383
544.26
544.136
544.014
543.893
543.772
543.651
543.531
543.412
543.293
543.175
543.056
542.938
542.821
542.703
542.586
542.469
542.352
542.235
542.119
542.002
541.886
541.769
541.653
541.537
541.421
541.304
541.188
541.072
540.956
540.84
540.724
540.608
552.49
552.369
552.248
552.127
552.007
551.887
551.769
551.652
551.539
551.429
551.323
551.221
551.124
551.033
550.946
550.865
550.788
550.717
550.649
550.585
550.525
550.469
550.415
550.364
550.314
550.266
550.219
550.172
550.125
550.078
550.03
549.98
549.929
549.877
549.822
549.764
549.704
549.641
549.574
549.504
549.431
549.353
549.271
549.186
549.096
549.002
548.904
548.804
548.702
548.599
548.494
548.389
548.285
548.181
548.078
547.977
547.877
547.779
547.683
547.588
547.495
547.403
547.31
547.217
547.124
547.029
546.933
546.836
546.736
546.634
546.528
546.419
546.306
546.188
546.067
545.942
545.813
545.681
545.548
545.413
545.28
545.148
545.017
544.887
544.759
544.631
544.505
544.38
544.256
544.133
544.011
543.89
543.769
543.648
543.529
543.41
543.291
543.172
543.054
542.937
542.819
542.702
542.585
542.468
542.351
542.234
542.118
542.001
541.885
541.769
541.652
541.536
541.42
541.304
541.188
541.072
540.956
540.84
540.724
540.608
552.49
552.371
552.252
552.133
552.014
551.896
551.779
551.665
551.552
551.444
551.339
551.239
551.143
551.053
550.968
550.887
550.812
550.741
550.675
550.612
550.553
550.497
550.444
550.393
550.344
550.296
550.249
550.202
550.154
550.107
550.058
550.008
549.956
549.901
549.845
549.786
549.723
549.658
549.59
549.519
549.444
549.365
549.283
549.198
549.109
549.016
548.921
548.823
548.723
548.621
548.518
548.415
548.312
548.21
548.108
548.009
547.911
547.814
547.719
547.626
547.533
547.441
547.349
547.256
547.162
547.067
546.97
546.871
546.77
546.665
546.557
546.445
546.329
546.209
546.085
545.957
545.825
545.69
545.554
545.417
545.281
545.147
545.015
544.884
544.755
544.628
544.502
544.376
544.252
544.129
544.007
543.886
543.765
543.645
543.526
543.407
543.288
543.17
543.052
542.934
542.817
542.7
542.583
542.466
542.35
542.233
542.117
542
541.884
541.768
541.652
541.536
541.42
541.304
541.188
541.072
540.956
540.84
540.724
540.608
552.491
552.374
552.256
552.139
552.022
551.906
551.792
551.679
551.568
551.461
551.358
551.259
551.165
551.076
550.992
550.913
550.838
550.768
550.703
550.641
550.583
550.527
550.475
550.425
550.376
550.328
550.281
550.234
550.187
550.139
550.089
550.039
549.986
549.93
549.872
549.811
549.748
549.681
549.611
549.538
549.462
549.383
549.3
549.215
549.127
549.036
548.942
548.846
548.748
548.649
548.548
548.446
548.345
548.244
548.144
548.046
547.95
547.855
547.761
547.668
547.577
547.485
547.392
547.299
547.205
547.108
547.01
546.91
546.806
546.699
546.587
546.472
546.353
546.229
546.102
545.97
545.835
545.698
545.558
545.419
545.281
545.146
545.012
544.881
544.751
544.623
544.497
544.371
544.247
544.125
544.003
543.881
543.761
543.641
543.522
543.403
543.285
543.167
543.049
542.932
542.815
542.698
542.581
542.464
542.348
542.232
542.115
541.999
541.883
541.767
541.651
541.535
541.419
541.303
541.187
541.071
540.955
540.84
540.724
540.608
552.492
552.377
552.262
552.147
552.032
551.919
551.806
551.695
551.586
551.481
551.379
551.282
551.189
551.101
551.018
550.94
550.866
550.797
550.733
550.671
550.614
550.56
550.508
550.458
550.409
550.362
550.315
550.269
550.221
550.173
550.124
550.073
550.019
549.963
549.904
549.842
549.777
549.709
549.637
549.563
549.485
549.406
549.323
549.238
549.15
549.06
548.968
548.874
548.779
548.681
548.582
548.483
548.383
548.284
548.186
548.089
547.994
547.9
547.807
547.716
547.624
547.532
547.44
547.346
547.251
547.154
547.054
546.951
546.845
546.734
546.619
546.5
546.376
546.249
546.117
545.982
545.843
545.703
545.562
545.42
545.28
545.143
545.008
544.876
544.746
544.617
544.491
544.366
544.242
544.119
543.997
543.876
543.756
543.636
543.518
543.399
543.281
543.163
543.046
542.929
542.812
542.695
542.579
542.462
542.346
542.23
542.114
541.998
541.882
541.766
541.65
541.534
541.418
541.302
541.187
541.071
540.955
540.839
540.724
540.608
552.493
552.38
552.267
552.155
552.042
551.931
551.821
551.712
551.605
551.501
551.401
551.305
551.214
551.127
551.045
550.968
550.896
550.828
550.764
550.704
550.647
550.593
550.542
550.493
550.445
550.398
550.352
550.305
550.258
550.211
550.161
550.11
550.056
549.999
549.94
549.877
549.811
549.741
549.669
549.593
549.516
549.435
549.352
549.267
549.18
549.091
549
548.908
548.814
548.718
548.622
548.524
548.426
548.329
548.232
548.137
548.043
547.95
547.858
547.767
547.676
547.584
547.491
547.397
547.3
547.201
547.099
546.994
546.884
546.77
546.651
546.527
546.399
546.267
546.131
545.99
545.848
545.704
545.561
545.418
545.277
545.138
545.003
544.87
544.739
544.61
544.484
544.359
544.235
544.112
543.991
543.87
543.75
543.631
543.513
543.395
543.277
543.159
543.042
542.926
542.809
542.692
542.576
542.46
542.344
542.228
542.112
541.996
541.88
541.765
541.649
541.533
541.417
541.302
541.186
541.07
540.955
540.839
540.723
540.608
552.495
552.384
552.273
552.163
552.053
551.944
551.835
551.729
551.624
551.522
551.424
551.329
551.24
551.154
551.074
550.998
550.926
550.859
550.796
550.737
550.681
550.628
550.577
550.529
550.482
550.436
550.39
550.344
550.298
550.25
550.201
550.15
550.096
550.039
549.979
549.916
549.849
549.779
549.706
549.63
549.552
549.471
549.388
549.303
549.216
549.128
549.039
548.948
548.855
548.761
548.667
548.571
548.474
548.378
548.283
548.189
548.096
548.003
547.912
547.821
547.731
547.639
547.545
547.45
547.352
547.251
547.146
547.037
546.923
546.805
546.682
546.553
546.421
546.284
546.143
545.998
545.852
545.704
545.558
545.414
545.272
545.132
544.995
544.862
544.731
544.602
544.475
544.351
544.227
544.105
543.984
543.864
543.744
543.626
543.507
543.39
543.272
543.155
543.038
542.922
542.806
542.689
542.573
542.457
542.342
542.226
542.11
541.995
541.879
541.763
541.648
541.532
541.417
541.301
541.185
541.07
540.954
540.839
540.723
540.608
552.496
552.388
552.279
552.171
552.064
551.957
551.85
551.746
551.643
551.543
551.447
551.354
551.266
551.182
551.103
551.028
550.957
550.891
550.829
550.77
550.716
550.663
550.614
550.566
550.52
550.475
550.43
550.385
550.339
550.292
550.243
550.192
550.139
550.082
550.022
549.959
549.892
549.822
549.749
549.673
549.594
549.513
549.43
549.346
549.26
549.172
549.084
548.994
548.903
548.811
548.717
548.622
548.527
548.432
548.338
548.245
548.153
548.061
547.97
547.88
547.789
547.697
547.603
547.505
547.405
547.3
547.192
547.079
546.961
546.838
546.711
546.578
546.441
546.299
546.154
546.006
545.856
545.705
545.556
545.409
545.264
545.123
544.986
544.851
544.72
544.592
544.466
544.341
544.218
544.097
543.976
543.857
543.738
543.619
543.502
543.384
543.267
543.151
543.034
542.918
542.802
542.686
542.57
542.455
542.339
542.224
542.108
541.993
541.877
541.762
541.646
541.531
541.416
541.3
541.185
541.069
540.954
540.839
540.723
540.608
552.497
552.391
552.286
552.18
552.075
551.97
551.866
551.764
551.663
551.565
551.47
551.38
551.293
551.21
551.132
551.058
550.989
550.924
550.863
550.805
550.751
550.7
550.651
550.605
550.559
550.515
550.471
550.427
550.382
550.335
550.287
550.237
550.184
550.128
550.068
550.005
549.939
549.869
549.796
549.72
549.642
549.562
549.48
549.396
549.31
549.224
549.136
549.047
548.957
548.866
548.773
548.68
548.585
548.491
548.398
548.306
548.214
548.123
548.033
547.943
547.852
547.759
547.662
547.563
547.458
547.35
547.237
547.12
546.997
546.87
546.738
546.6
546.459
546.313
546.164
546.012
545.859
545.706
545.553
545.402
545.255
545.112
544.973
544.839
544.708
544.58
544.454
544.331
544.209
544.088
543.968
543.849
543.73
543.613
543.495
543.379
543.262
543.146
543.03
542.914
542.798
542.683
542.567
542.452
542.337
542.221
542.106
541.991
541.876
541.76
541.645
541.53
541.415
541.299
541.184
541.069
540.954
540.838
540.723
540.608
552.498
552.395
552.292
552.189
552.087
551.985
551.883
551.783
551.684
551.588
551.495
551.405
551.32
551.239
551.162
551.089
551.021
550.957
550.897
550.841
550.788
550.738
550.69
550.645
550.6
550.557
550.513
550.47
550.426
550.38
550.333
550.283
550.231
550.176
550.117
550.055
549.989
549.919
549.847
549.772
549.695
549.616
549.534
549.451
549.367
549.281
549.194
549.107
549.018
548.927
548.835
548.742
548.648
548.555
548.462
548.371
548.28
548.189
548.099
548.009
547.917
547.823
547.724
547.621
547.513
547.401
547.283
547.161
547.033
546.901
546.763
546.621
546.474
546.324
546.171
546.016
545.86
545.702
545.546
545.392
545.241
545.096
544.957
544.823
544.693
544.566
544.442
544.319
544.198
544.078
543.959
543.84
543.723
543.606
543.489
543.373
543.256
543.141
543.025
542.91
542.794
542.679
542.564
542.449
542.334
542.219
542.104
541.989
541.874
541.759
541.644
541.529
541.414
541.298
541.183
541.068
540.953
540.838
540.723
540.608
552.5
552.399
552.299
552.199
552.099
551.999
551.9
551.802
551.705
551.611
551.519
551.431
551.348
551.268
551.193
551.122
551.055
550.992
550.933
550.878
550.827
550.778
550.731
550.686
550.643
550.6
550.558
550.515
550.472
550.427
550.38
550.331
550.28
550.225
550.167
550.105
550.04
549.972
549.901
549.828
549.752
549.673
549.593
549.511
549.428
549.344
549.258
549.171
549.083
548.994
548.902
548.809
548.716
548.623
548.531
548.44
548.349
548.259
548.169
548.078
547.986
547.889
547.788
547.682
547.57
547.453
547.331
547.203
547.07
546.931
546.788
546.64
546.488
546.333
546.176
546.017
545.857
545.697
545.536
545.377
545.223
545.077
544.938
544.805
544.676
544.551
544.428
544.306
544.186
544.067
543.949
543.832
543.715
543.598
543.482
543.366
543.251
543.135
543.02
542.905
542.79
542.675
542.561
542.446
542.331
542.216
542.102
541.987
541.872
541.757
541.642
541.527
541.413
541.298
541.183
541.068
540.953
540.838
540.723
540.608
552.501
552.404
552.306
552.209
552.111
552.014
551.917
551.821
551.727
551.634
551.545
551.459
551.377
551.299
551.225
551.156
551.09
551.029
550.972
550.918
550.868
550.82
550.774
550.73
550.688
550.646
550.604
550.562
550.519
550.475
550.429
550.381
550.329
550.275
550.218
550.157
550.093
550.026
549.957
549.885
549.811
549.734
549.655
549.575
549.493
549.41
549.325
549.239
549.152
549.063
548.972
548.88
548.788
548.696
548.604
548.513
548.422
548.332
548.242
548.151
548.056
547.958
547.854
547.745
547.63
547.509
547.382
547.248
547.109
546.964
546.814
546.66
546.503
546.342
546.18
546.016
545.851
545.685
545.52
545.357
545.199
545.052
544.914
544.783
544.657
544.534
544.412
544.293
544.174
544.056
543.939
543.823
543.706
543.591
543.475
543.36
543.245
543.13
543.015
542.901
542.786
542.672
542.557
542.443
542.328
542.214
542.099
541.985
541.87
541.756
541.641
541.526
541.411
541.297
541.182
541.067
540.952
540.837
540.722
540.607
552.503
552.409
552.315
552.22
552.126
552.031
551.937
551.843
551.751
551.661
551.574
551.49
551.409
551.333
551.261
551.193
551.129
551.07
551.014
550.962
550.913
550.866
550.822
550.779
550.737
550.696
550.654
550.612
550.57
550.526
550.48
550.432
550.381
550.328
550.271
550.211
550.148
550.082
550.014
549.944
549.871
549.796
549.718
549.64
549.559
549.477
549.394
549.309
549.223
549.135
549.045
548.954
548.863
548.771
548.679
548.589
548.498
548.408
548.317
548.225
548.129
548.029
547.923
547.811
547.692
547.567
547.436
547.297
547.151
546.999
546.842
546.681
546.518
546.351
546.183
546.013
545.843
545.671
545.499
545.33
545.166
545.02
544.885
544.758
544.635
544.515
544.396
544.279
544.162
544.045
543.929
543.813
543.698
543.583
543.468
543.353
543.239
543.125
543.01
542.896
542.782
542.668
542.554
542.44
542.325
542.211
542.097
541.983
541.868
541.754
541.639
541.525
541.41
541.296
541.181
541.066
540.952
540.837
540.722
540.607
552.505
552.414
552.324
552.233
552.141
552.05
551.958
551.867
551.777
551.69
551.605
551.523
551.445
551.37
551.301
551.235
551.174
551.116
551.062
551.012
550.964
550.919
550.875
550.833
550.792
550.751
550.71
550.668
550.625
550.581
550.535
550.487
550.436
550.383
550.326
550.267
550.204
550.14
550.073
550.003
549.931
549.858
549.782
549.704
549.625
549.544
549.462
549.378
549.294
549.207
549.118
549.029
548.938
548.847
548.755
548.665
548.575
548.484
548.393
548.3
548.202
548.1
547.992
547.878
547.756
547.628
547.491
547.347
547.194
547.036
546.872
546.704
546.534
546.361
546.187
546.011
545.834
545.654
545.473
545.292
545.117
544.978
544.852
544.732
544.613
544.496
544.38
544.264
544.149
544.033
543.919
543.804
543.689
543.575
543.461
543.347
543.233
543.119
543.005
542.892
542.778
542.664
542.55
542.437
542.323
542.209
542.095
541.981
541.867
541.752
541.638
541.524
541.409
541.295
541.18
541.066
540.951
540.837
540.722
540.607
552.507
552.42
552.334
552.246
552.159
552.07
551.982
551.894
551.807
551.722
551.64
551.561
551.485
551.414
551.347
551.284
551.225
551.17
551.119
551.07
551.024
550.98
550.938
550.897
550.856
550.816
550.774
550.732
550.689
550.645
550.598
550.549
550.497
550.443
550.385
550.326
550.263
550.199
550.132
550.063
549.992
549.919
549.844
549.767
549.688
549.608
549.526
549.444
549.361
549.275
549.188
549.1
549.01
548.92
548.829
548.738
548.648
548.557
548.466
548.371
548.273
548.169
548.059
547.943
547.819
547.687
547.546
547.396
547.238
547.072
546.902
546.728
546.551
546.372
546.191
546.009
545.824
545.637
545.443
545.241
545.034
544.923
544.817
544.706
544.592
544.478
544.364
544.25
544.136
544.022
543.908
543.794
543.681
543.567
543.454
543.34
543.227
543.114
543
542.887
542.774
542.66
542.547
542.433
542.32
542.206
542.092
541.979
541.865
541.751
541.637
541.522
541.408
541.294
541.18
541.065
540.951
540.836
540.722
540.607
552.509
552.427
552.345
552.262
552.179
552.094
552.01
551.925
551.842
551.76
551.681
551.606
551.534
551.466
551.403
551.343
551.288
551.236
551.187
551.141
551.098
551.056
551.015
550.975
550.935
550.895
550.853
550.811
550.767
550.721
550.673
550.622
550.569
550.512
550.453
550.392
550.328
550.262
550.194
550.125
550.053
549.98
549.904
549.827
549.748
549.667
549.585
549.503
549.421
549.337
549.251
549.164
549.075
548.985
548.895
548.804
548.714
548.623
548.53
548.435
548.335
548.229
548.118
548
547.873
547.737
547.592
547.438
547.275
547.105
546.929
546.749
546.566
546.382
546.195
546.007
545.817
545.622
545.416
545.18
544.846
544.863
544.787
544.684
544.574
544.462
544.349
544.236
544.124
544.011
543.898
543.785
543.672
543.559
543.447
543.334
543.221
543.108
542.996
542.883
542.77
542.657
542.544
542.43
542.317
542.204
542.09
541.977
541.863
541.749
541.635
541.521
541.407
541.293
541.179
541.065
540.95
540.836
540.722
540.607
552.511
552.434
552.357
552.279
552.2
552.121
552.041
551.961
551.883
551.806
551.731
551.66
551.592
551.529
551.47
551.415
551.364
551.316
551.272
551.23
551.19
551.151
551.112
551.074
551.035
550.995
550.954
550.911
550.865
550.818
550.767
550.714
550.657
550.598
550.535
550.47
550.403
550.334
550.264
550.192
550.118
550.043
549.965
549.886
549.805
549.722
549.639
549.556
549.473
549.388
549.303
549.216
549.128
549.038
548.948
548.858
548.767
548.674
548.58
548.483
548.381
548.274
548.16
548.039
547.909
547.771
547.623
547.465
547.299
547.125
546.946
546.761
546.575
546.386
546.196
546.004
545.811
545.614
545.412
545.203
544.999
544.889
544.782
544.672
544.56
544.448
544.336
544.224
544.112
544
543.888
543.776
543.664
543.552
543.44
543.328
543.215
543.103
542.991
542.878
542.766
542.653
542.54
542.427
542.314
542.201
542.088
541.975
541.861
541.748
541.634
541.52
541.406
541.292
541.178
541.064
540.95
540.836
540.721
540.607
552.514
552.441
552.369
552.296
552.223
552.149
552.075
552.002
551.929
551.858
551.789
551.724
551.662
551.605
551.552
551.503
551.458
551.417
551.378
551.341
551.306
551.271
551.236
551.2
551.163
551.124
551.083
551.04
550.993
550.943
550.89
550.833
550.772
550.707
550.64
550.569
550.497
550.423
550.348
550.272
550.194
550.114
550.033
549.949
549.864
549.778
549.692
549.605
549.519
549.431
549.344
549.255
549.166
549.075
548.985
548.893
548.8
548.706
548.609
548.509
548.404
548.294
548.177
548.053
547.92
547.779
547.629
547.47
547.302
547.126
546.944
546.758
546.569
546.378
546.186
545.994
545.8
545.607
545.413
545.223
545.048
544.907
544.782
544.663
544.548
544.435
544.323
544.211
544.1
543.989
543.878
543.767
543.656
543.544
543.433
543.321
543.21
543.098
542.986
542.874
542.762
542.65
542.537
542.425
542.312
542.199
542.086
541.973
541.86
541.746
541.633
541.519
541.405
541.291
541.177
541.063
540.949
540.835
540.721
540.607
552.516
552.447
552.379
552.311
552.243
552.176
552.11
552.044
551.979
551.916
551.855
551.798
551.745
551.696
551.651
551.611
551.574
551.541
551.51
551.481
551.453
551.424
551.394
551.362
551.329
551.292
551.252
551.208
551.16
551.107
551.051
550.989
550.923
550.852
550.778
550.701
550.622
550.541
550.459
550.377
550.292
550.206
550.118
550.028
549.937
549.845
549.753
549.661
549.567
549.473
549.379
549.285
549.192
549.098
549.004
548.91
548.813
548.714
548.613
548.507
548.398
548.282
548.161
548.033
547.897
547.753
547.601
547.441
547.272
547.095
546.912
546.725
546.537
546.347
546.157
545.966
545.777
545.588
545.403
545.224
545.056
544.908
544.774
544.651
544.535
544.421
544.31
544.199
544.089
543.979
543.869
543.758
543.648
543.537
543.426
543.316
543.205
543.093
542.982
542.87
542.759
542.647
542.534
542.422
542.31
542.197
542.084
541.971
541.858
541.745
541.631
541.518
541.404
541.291
541.177
541.063
540.949
540.835
540.721
540.607
552.516
552.449
552.383
552.319
552.257
552.197
552.139
552.083
552.028
551.976
551.926
551.88
551.838
551.8
551.767
551.738
551.713
551.692
551.672
551.653
551.635
551.615
551.593
551.567
551.538
551.505
551.467
551.424
551.375
551.32
551.26
551.193
551.122
551.044
550.963
550.878
550.791
550.703
550.614
550.524
550.431
550.337
550.241
550.142
550.043
549.944
549.844
549.743
549.639
549.534
549.427
549.321
549.217
549.116
549.015
548.913
548.809
548.702
548.591
548.476
548.357
548.234
548.106
547.971
547.831
547.684
547.529
547.367
547.197
547.02
546.836
546.65
546.463
546.278
546.093
545.908
545.725
545.545
545.369
545.199
545.036
544.888
544.754
544.632
544.516
544.405
544.296
544.187
544.078
543.969
543.859
543.75
543.64
543.53
543.42
543.31
543.2
543.089
542.978
542.867
542.755
542.644
542.532
542.42
542.307
542.195
542.082
541.97
541.857
541.744
541.63
541.517
541.404
541.29
541.176
541.063
540.949
540.835
540.721
540.607
552.515
552.446
552.38
552.317
552.259
552.206
552.157
552.111
552.069
552.03
551.994
551.962
551.935
551.912
551.894
551.881
551.872
551.866
551.862
551.858
551.853
551.845
551.833
551.817
551.795
551.767
551.734
551.693
551.644
551.588
551.525
551.455
551.378
551.295
551.207
551.116
551.023
550.929
550.834
550.738
550.638
550.535
550.43
550.322
550.215
550.107
550
549.888
549.77
549.645
549.518
549.392
549.269
549.152
549.037
548.921
548.802
548.679
548.552
548.42
548.286
548.148
548.007
547.862
547.714
547.561
547.402
547.236
547.063
546.884
546.699
546.514
546.331
546.152
545.976
545.801
545.63
545.461
545.298
545.14
544.985
544.842
544.716
544.601
544.491
544.385
544.279
544.173
544.066
543.959
543.851
543.742
543.633
543.524
543.415
543.305
543.195
543.085
542.974
542.863
542.752
542.641
542.529
542.417
542.305
542.193
542.081
541.968
541.855
541.742
541.629
541.516
541.403
541.289
541.176
541.062
540.948
540.835
540.721
540.607
552.513
552.439
552.369
552.305
552.248
552.198
552.156
552.121
552.092
552.067
552.047
552.033
552.023
552.019
552.02
552.027
552.038
552.052
552.068
552.083
552.096
552.105
552.108
552.104
552.093
552.075
552.048
552.012
551.967
551.912
551.849
551.777
551.698
551.613
551.523
551.429
551.335
551.242
551.149
551.052
550.949
550.84
550.727
550.612
550.497
550.385
550.272
550.149
550.008
549.857
549.699
549.543
549.391
549.248
549.107
548.964
548.818
548.668
548.513
548.354
548.192
548.028
547.863
547.7
547.537
547.373
547.206
547.034
546.856
546.673
546.486
546.301
546.123
545.953
545.788
545.628
545.472
545.32
545.174
545.034
544.894
544.766
544.657
544.556
544.457
544.359
544.26
544.158
544.054
543.949
543.842
543.735
543.627
543.518
543.409
543.3
543.191
543.081
542.971
542.86
542.749
542.638
542.527
542.415
542.303
542.191
542.079
541.967
541.854
541.741
541.628
541.515
541.402
541.289
541.175
541.062
540.948
540.834
540.721
540.607
552.511
552.434
552.359
552.289
552.229
552.179
552.139
552.11
552.089
552.076
552.07
552.071
552.08
552.095
552.118
552.149
552.184
552.223
552.262
552.3
552.336
552.366
552.388
552.403
552.408
552.405
552.391
552.366
552.329
552.281
552.223
552.156
552.082
552.003
551.919
551.834
551.752
551.674
551.599
551.514
551.416
551.306
551.191
551.072
550.953
550.841
550.73
550.589
550.416
550.226
550.029
549.835
549.644
549.461
549.278
549.091
548.899
548.703
548.504
548.299
548.091
547.884
547.679
547.481
547.292
547.11
546.929
546.746
546.56
546.372
546.183
545.999
545.827
545.668
545.518
545.375
545.238
545.108
544.988
544.874
544.759
544.653
544.575
544.497
544.416
544.329
544.238
544.142
544.042
543.939
543.834
543.728
543.621
543.513
543.404
543.296
543.187
543.077
542.968
542.857
542.747
542.636
542.525
542.414
542.302
542.19
542.078
541.966
541.853
541.741
541.628
541.515
541.402
541.288
541.175
541.061
540.948
540.834
540.721
540.607
552.517
552.449
552.376
552.301
552.232
552.172
552.124
552.089
552.066
552.053
552.05
552.057
552.074
552.102
552.143
552.196
552.257
552.323
552.388
552.452
552.513
552.568
552.617
552.657
552.687
552.708
552.716
552.712
552.694
552.663
552.621
552.571
552.515
552.458
552.4
552.346
552.301
552.272
552.247
552.199
552.118
552.016
551.903
551.781
551.659
551.554
551.447
551.27
551.045
550.808
550.569
550.336
550.094
549.851
549.606
549.346
549.083
548.819
548.555
548.285
548.008
547.731
547.459
547.202
546.972
546.766
546.567
546.368
546.17
545.978
545.789
545.609
545.447
545.308
545.176
545.051
544.934
544.83
544.742
544.661
544.58
544.495
544.48
544.432
544.369
544.296
544.214
544.125
544.03
543.93
543.827
543.722
543.615
543.508
543.4
543.292
543.183
543.074
542.965
542.855
542.745
542.634
542.523
542.412
542.301
542.189
542.077
541.965
541.852
541.74
541.627
541.514
541.401
541.288
541.175
541.061
540.948
540.834
540.72
540.607
552.547
552.526
552.477
552.404
552.32
552.237
552.163
552.101
552.053
552.016
551.991
551.978
551.978
551.995
552.034
552.098
552.179
552.266
552.353
552.438
552.523
552.606
552.686
552.761
552.827
552.885
552.931
552.964
552.982
552.986
552.978
552.966
552.956
552.951
552.956
552.976
553.023
553.102
553.185
553.209
553.168
553.079
552.97
552.838
552.701
552.603
552.477
552.221
551.919
551.639
551.358
551.094
550.774
550.44
550.106
549.732
549.369
549.018
548.681
548.33
547.956
547.586
547.212
546.857
546.571
546.341
546.125
545.91
545.7
545.51
545.324
545.152
545.009
544.914
544.809
544.697
544.589
544.506
544.46
544.423
544.395
544.406
544.412
544.375
544.324
544.262
544.19
544.108
544.018
543.921
543.82
543.716
543.611
543.504
543.397
543.289
543.181
543.072
542.963
542.853
542.743
542.633
542.522
542.411
542.299
542.188
542.076
541.964
541.852
541.739
541.627
541.514
541.401
541.288
541.174
541.061
540.948
540.834
540.72
540.607
552.629
552.741
552.765
552.709
552.605
552.481
552.355
552.235
552.13
552.031
551.938
551.855
551.787
551.741
551.729
551.774
551.853
551.941
552.03
552.118
552.213
552.319
552.43
552.543
552.654
552.761
552.863
552.956
553.036
553.102
553.161
553.223
553.301
553.403
553.537
553.711
553.94
554.225
554.483
554.643
554.696
554.607
554.506
554.354
554.162
554.046
553.833
553.436
553.037
552.726
552.378
552.111
551.654
551.158
550.713
550.153
549.681
549.232
548.848
548.438
547.937
547.47
546.96
546.441
546.104
545.868
545.642
545.413
545.196
545.019
544.838
544.68
544.549
544.577
544.509
544.38
544.243
544.16
544.19
544.221
544.221
544.285
544.401
544.333
544.283
544.23
544.167
544.092
544.007
543.913
543.814
543.712
543.607
543.501
543.394
543.286
543.178
543.07
542.961
542.852
542.742
542.631
542.521
542.41
542.299
542.187
542.075
541.963
541.851
541.739
541.626
541.513
541.401
541.287
541.174
541.061
540.947
540.834
540.72
540.607
552.815
553.214
553.386
553.367
553.232
553.048
552.843
552.635
552.447
552.242
552.016
551.79
551.578
551.38
551.22
551.173
551.184
551.212
551.251
551.296
551.37
551.476
551.603
551.747
551.903
552.067
552.236
552.409
552.581
552.746
552.918
553.11
553.343
553.639
554.011
554.448
554.981
555.589
556.082
556.497
556.806
556.616
556.593
556.464
556.172
555.949
555.534
554.987
554.461
554.009
553.524
553.103
552.503
551.846
551.25
550.402
549.851
549.275
548.91
548.491
547.839
547.249
546.598
546.05
545.719
545.395
545.149
544.942
544.82
544.707
544.555
544.372
544.213
544.209
544.113
544.023
543.912
543.862
544.105
544.172
544.091
544.206
544.361
544.287
544.243
544.2
544.146
544.078
543.997
543.907
543.809
543.708
543.604
543.498
543.392
543.285
543.177
543.069
542.96
542.85
542.741
542.631
542.52
542.409
542.298
542.187
542.075
541.963
541.851
541.739
541.626
541.513
541.4
541.287
541.174
541.061
540.947
540.834
540.72
540.607
553.182
554.09
554.484
554.495
554.306
554.063
553.79
553.492
553.263
552.926
552.487
552.034
551.595
551.142
550.661
550.368
550.147
549.978
549.882
549.794
549.771
549.808
549.892
550.029
550.2
550.405
550.634
550.896
551.199
551.528
551.894
552.295
552.764
553.384
554.187
554.989
555.889
556.92
557.845
558.718
559.273
559.219
559.399
559.264
558.822
558.333
557.616
556.745
555.948
555.17
554.432
553.842
553.115
552.146
551.325
550.231
549.708
549.009
548.665
548.128
547.532
547.118
546.367
545.926
545.467
544.946
544.728
544.785
544.742
544.771
544.525
544.325
544.138
544.055
543.939
543.881
543.83
543.909
544.02
544.111
544.143
544.239
544.287
544.237
544.208
544.176
544.13
544.067
543.99
543.902
543.806
543.706
543.602
543.497
543.391
543.284
543.176
543.068
542.959
542.85
542.74
542.63
542.52
542.409
542.298
542.187
542.075
541.963
541.851
541.739
541.626
541.513
541.4
541.287
541.174
541.061