0 	-3.18617e-15 	0 	-9.23293e-15
0.010101 	-9.37985e-13 	0 	2.99082e-14
0.020202 	-1.82481e-11 	0 	1.0231e-12
0.030303 	-3.13567e-10 	0 	4.78282e-12
0.040404 	2.47858e-10 	0 	4.03341e-12
