/*--------------------------------*- C++ -*----------------------------------*\
  =========                 |
  \\      /  F ield         | OpenFOAM: The Open Source CFD Toolbox
   \\    /   O peration     | Website:  https://openfoam.org
    \\  /    A nd           | Version:  6
     \\/     M anipulation  |
\*---------------------------------------------------------------------------*/
FoamFile
{
    version     2.0;
    format      ascii;
    class       volVectorField;
    location    "7600";
    object      U;
}
// * * * * * * * * * * * * * * * * * * * * * * * * * * * * * * * * * * * * * //

dimensions      [0 1 -1 0 0 0 0];

internalField   nonuniform List<vector> 
4800
(
(2.30837e-08 0 -2.12491e-08)
(6.57992e-08 0 -2.41063e-08)
(1.09407e-07 0 -2.50577e-08)
(1.52517e-07 0 -2.49473e-08)
(1.94746e-07 0 -2.44229e-08)
(2.36094e-07 0 -2.36942e-08)
(2.765e-07 0 -2.28463e-08)
(3.15929e-07 0 -2.19605e-08)
(3.54391e-07 0 -2.10719e-08)
(3.91926e-07 0 -2.0238e-08)
(4.28593e-07 0 -1.9444e-08)
(4.64448e-07 0 -1.8734e-08)
(4.99553e-07 0 -1.81269e-08)
(5.33947e-07 0 -1.75453e-08)
(5.6758e-07 0 -1.69737e-08)
(6.00349e-07 0 -1.63688e-08)
(6.32164e-07 0 -1.57603e-08)
(6.63274e-07 0 -1.54971e-08)
(6.9358e-07 0 -1.49076e-08)
(7.22495e-07 0 -1.40518e-08)
(7.49882e-07 0 -1.30688e-08)
(7.75928e-07 0 -1.28394e-08)
(8.00492e-07 0 -1.16325e-08)
(8.22986e-07 0 -1.05562e-08)
(8.43276e-07 0 -9.52281e-09)
(8.61426e-07 0 -8.35765e-09)
(8.77222e-07 0 -7.11309e-09)
(8.90509e-07 0 -5.84888e-09)
(9.01247e-07 0 -4.53138e-09)
(9.09411e-07 0 -3.23865e-09)
(9.15016e-07 0 -1.9532e-09)
(9.18092e-07 0 -6.81871e-10)
(9.18658e-07 0 5.6207e-10)
(9.16867e-07 0 1.6917e-09)
(9.12875e-07 0 2.76324e-09)
(9.06732e-07 0 3.808e-09)
(8.98605e-07 0 4.75458e-09)
(8.88627e-07 0 5.64491e-09)
(8.76969e-07 0 6.43227e-09)
(8.63779e-07 0 7.15945e-09)
(8.49171e-07 0 7.81551e-09)
(8.333e-07 0 8.40086e-09)
(8.16288e-07 0 8.93546e-09)
(7.98255e-07 0 9.38217e-09)
(7.79314e-07 0 9.84286e-09)
(7.59545e-07 0 1.02057e-08)
(7.38964e-07 0 1.05808e-08)
(7.17746e-07 0 1.07996e-08)
(6.95995e-07 0 1.10644e-08)
(6.73738e-07 0 1.12677e-08)
(6.51056e-07 0 1.14352e-08)
(6.28009e-07 0 1.16005e-08)
(6.0464e-07 0 1.16986e-08)
(5.81036e-07 0 1.17683e-08)
(5.57246e-07 0 1.18244e-08)
(5.33338e-07 0 1.18099e-08)
(5.09383e-07 0 1.18102e-08)
(4.8542e-07 0 1.17402e-08)
(4.61494e-07 0 1.17002e-08)
(4.37639e-07 0 1.15855e-08)
(4.13923e-07 0 1.1451e-08)
(3.90403e-07 0 1.13037e-08)
(3.67106e-07 0 1.11413e-08)
(3.44051e-07 0 1.0961e-08)
(3.21267e-07 0 1.07646e-08)
(2.9879e-07 0 1.05469e-08)
(2.76645e-07 0 1.03251e-08)
(2.5484e-07 0 1.00969e-08)
(2.3337e-07 0 9.87414e-09)
(2.12287e-07 0 9.6123e-09)
(1.9165e-07 0 9.34755e-09)
(1.71505e-07 0 9.06674e-09)
(1.51982e-07 0 8.73593e-09)
(1.33442e-07 0 8.2122e-09)
(1.16939e-07 0 7.38393e-09)
(1.04794e-07 0 5.69432e-09)
(1.00556e-07 0 -9.13899e-09)
(7.90568e-08 0 8.58798e-09)
(7.63079e-12 0 2.89639e-08)
(5.2381e-16 0 8.1169e-17)
(3.15048e-16 0 6.20386e-19)
(6.19755e-16 0 1.36485e-18)
(6.16032e-16 0 2.09897e-18)
(6.10583e-16 0 2.79173e-18)
(6.03583e-16 0 3.46382e-18)
(5.95177e-16 0 4.09454e-18)
(5.85478e-16 0 4.69425e-18)
(5.74622e-16 0 5.27328e-18)
(5.62679e-16 0 5.81094e-18)
(5.49775e-16 0 6.31759e-18)
(5.35961e-16 0 6.77254e-18)
(5.21279e-16 0 7.20681e-18)
(5.05862e-16 0 7.59972e-18)
(4.89805e-16 0 7.95127e-18)
(4.73168e-16 0 8.24079e-18)
(4.56014e-16 0 8.51996e-18)
(4.38457e-16 0 8.76812e-18)
(4.20528e-16 0 8.96457e-18)
(4.02279e-16 0 9.14035e-18)
(3.83781e-16 0 9.2851e-18)
(3.65076e-16 0 9.39884e-18)
(3.46237e-16 0 9.48156e-18)
(3.27253e-16 0 9.53326e-18)
(3.08197e-16 0 9.55394e-18)
(2.8911e-16 0 9.55394e-18)
(2.69961e-16 0 9.5436e-18)
(2.50843e-16 0 9.53326e-18)
(2.31786e-16 0 9.47122e-18)
(2.12751e-16 0 9.40918e-18)
(1.93798e-16 0 9.35748e-18)
(1.74907e-16 0 9.26442e-18)
(1.56079e-16 0 9.19205e-18)
(1.37395e-16 0 9.10933e-18)
(1.18793e-16 0 9.00593e-18)
(1.00265e-16 0 8.92321e-18)
(8.18082e-17 0 8.81981e-18)
(6.34034e-17 0 8.74744e-18)
(4.51124e-17 0 8.66472e-18)
(2.69247e-17 0 8.56132e-18)
(8.92321e-18 0 8.39588e-18)
(2.27582e-08 0 -6.61476e-08)
(6.6927e-08 0 -6.31904e-08)
(1.09826e-07 0 -6.18483e-08)
(1.52988e-07 0 -6.06834e-08)
(1.95234e-07 0 -5.9557e-08)
(2.36597e-07 0 -5.84028e-08)
(2.77008e-07 0 -5.72245e-08)
(3.16428e-07 0 -5.60769e-08)
(3.54874e-07 0 -5.49686e-08)
(3.92378e-07 0 -5.39479e-08)
(4.29006e-07 0 -5.30118e-08)
(4.64861e-07 0 -5.21576e-08)
(5.00001e-07 0 -5.1402e-08)
(5.34433e-07 0 -5.04677e-08)
(5.68108e-07 0 -4.94338e-08)
(6.00942e-07 0 -4.80329e-08)
(6.32897e-07 0 -4.66145e-08)
(6.64204e-07 0 -4.61978e-08)
(6.94688e-07 0 -4.45729e-08)
(7.23741e-07 0 -4.2137e-08)
(7.51373e-07 0 -3.93751e-08)
(7.77632e-07 0 -3.87235e-08)
(8.02386e-07 0 -3.52375e-08)
(8.25018e-07 0 -3.20437e-08)
(8.45492e-07 0 -2.90703e-08)
(8.63808e-07 0 -2.56004e-08)
(8.797e-07 0 -2.18863e-08)
(8.93045e-07 0 -1.81395e-08)
(9.03821e-07 0 -1.42175e-08)
(9.11986e-07 0 -1.03613e-08)
(9.17558e-07 0 -6.52938e-09)
(9.20573e-07 0 -2.72331e-09)
(9.21043e-07 0 1.00985e-09)
(9.19143e-07 0 4.39415e-09)
(9.1501e-07 0 7.65491e-09)
(9.08714e-07 0 1.07586e-08)
(9.00445e-07 0 1.36316e-08)
(8.90325e-07 0 1.63142e-08)
(8.78522e-07 0 1.8705e-08)
(8.65186e-07 0 2.09095e-08)
(8.50433e-07 0 2.29538e-08)
(8.34438e-07 0 2.47131e-08)
(8.17327e-07 0 2.63628e-08)
(7.99186e-07 0 2.77864e-08)
(7.80131e-07 0 2.9166e-08)
(7.60284e-07 0 3.03467e-08)
(7.39645e-07 0 3.15261e-08)
(7.18356e-07 0 3.22763e-08)
(6.9653e-07 0 3.31047e-08)
(6.74216e-07 0 3.38109e-08)
(6.51477e-07 0 3.43946e-08)
(6.28365e-07 0 3.49957e-08)
(6.04925e-07 0 3.54158e-08)
(5.81252e-07 0 3.57196e-08)
(5.57409e-07 0 3.6005e-08)
(5.33453e-07 0 3.60999e-08)
(5.0944e-07 0 3.62213e-08)
(4.85423e-07 0 3.61916e-08)
(4.61437e-07 0 3.62242e-08)
(4.37539e-07 0 3.60402e-08)
(4.13786e-07 0 3.58085e-08)
(3.90243e-07 0 3.55245e-08)
(3.66928e-07 0 3.52195e-08)
(3.43853e-07 0 3.48732e-08)
(3.21048e-07 0 3.44823e-08)
(2.9856e-07 0 3.40325e-08)
(2.76382e-07 0 3.36117e-08)
(2.5453e-07 0 3.31434e-08)
(2.33046e-07 0 3.2656e-08)
(2.11954e-07 0 3.20701e-08)
(1.91248e-07 0 3.1482e-08)
(1.7095e-07 0 3.07928e-08)
(1.51091e-07 0 2.99484e-08)
(1.31646e-07 0 2.87262e-08)
(1.12274e-07 0 2.64325e-08)
(9.32337e-08 0 2.07279e-08)
(6.07177e-08 0 4.7249e-09)
(3.7927e-08 0 7.03679e-08)
(5.2996e-12 0 6.82921e-08)
(5.48224e-16 0 2.1955e-16)
(3.15821e-16 0 1.68538e-18)
(6.21233e-16 0 3.85673e-18)
(6.17449e-16 0 6.0074e-18)
(6.11928e-16 0 8.04433e-18)
(6.04876e-16 0 1.00502e-17)
(5.96408e-16 0 1.19631e-17)
(5.86657e-16 0 1.38036e-17)
(5.75728e-16 0 1.55303e-17)
(5.63724e-16 0 1.7195e-17)
(5.50737e-16 0 1.8746e-17)
(5.3684e-16 0 2.01625e-17)
(5.22096e-16 0 2.14964e-17)
(5.06596e-16 0 2.26648e-17)
(4.90446e-16 0 2.37504e-17)
(4.73747e-16 0 2.46913e-17)
(4.56562e-16 0 2.55599e-17)
(4.38923e-16 0 2.63043e-17)
(4.20901e-16 0 2.69144e-17)
(4.02599e-16 0 2.74624e-17)
(3.8405e-16 0 2.78967e-17)
(3.65283e-16 0 2.82275e-17)
(3.46372e-16 0 2.84654e-17)
(3.27326e-16 0 2.85998e-17)
(3.08228e-16 0 2.86722e-17)
(2.891e-16 0 2.86722e-17)
(2.6995e-16 0 2.86308e-17)
(2.50781e-16 0 2.85067e-17)
(2.31652e-16 0 2.83103e-17)
(2.12616e-16 0 2.81138e-17)
(1.93643e-16 0 2.7845e-17)
(1.74742e-16 0 2.75658e-17)
(1.55913e-16 0 2.72866e-17)
(1.37198e-16 0 2.69661e-17)
(1.18597e-16 0 2.66456e-17)
(1.00068e-16 0 2.6356e-17)
(8.16324e-17 0 2.60562e-17)
(6.32483e-17 0 2.57977e-17)
(4.49263e-17 0 2.55599e-17)
(2.66456e-17 0 2.53221e-17)
(8.74744e-18 0 2.50636e-17)
(2.25012e-08 0 -1.11344e-07)
(6.716e-08 0 -1.10529e-07)
(1.10776e-07 0 -1.09413e-07)
(1.54639e-07 0 -1.07643e-07)
(1.97337e-07 0 -1.05467e-07)
(2.38968e-07 0 -1.03004e-07)
(2.79507e-07 0 -1.00383e-07)
(3.18925e-07 0 -9.77646e-08)
(3.57275e-07 0 -9.52358e-08)
(3.94639e-07 0 -9.2866e-08)
(4.31107e-07 0 -9.06838e-08)
(4.66792e-07 0 -8.87732e-08)
(5.01798e-07 0 -8.70642e-08)
(5.36158e-07 0 -8.51742e-08)
(5.69759e-07 0 -8.3242e-08)
(6.02592e-07 0 -8.04717e-08)
(6.34707e-07 0 -7.86087e-08)
(6.66336e-07 0 -7.75995e-08)
(6.97045e-07 0 -7.4562e-08)
(7.26349e-07 0 -7.05632e-08)
(7.54427e-07 0 -6.64915e-08)
(7.81175e-07 0 -6.46954e-08)
(8.0631e-07 0 -5.90707e-08)
(8.2922e-07 0 -5.36978e-08)
(8.50029e-07 0 -4.87847e-08)
(8.68633e-07 0 -4.28377e-08)
(8.84696e-07 0 -3.65901e-08)
(8.98158e-07 0 -3.02912e-08)
(9.09e-07 0 -2.36971e-08)
(9.17162e-07 0 -1.71943e-08)
(9.22656e-07 0 -1.07304e-08)
(9.25505e-07 0 -4.34341e-09)
(9.25767e-07 0 1.93826e-09)
(9.23667e-07 0 7.5682e-09)
(9.19285e-07 0 1.30943e-08)
(9.12692e-07 0 1.82485e-08)
(9.0411e-07 0 2.30394e-08)
(8.93681e-07 0 2.75075e-08)
(8.81591e-07 0 3.14615e-08)
(8.67993e-07 0 3.51105e-08)
(8.52983e-07 0 3.85337e-08)
(8.36732e-07 0 4.14158e-08)
(8.19371e-07 0 4.41241e-08)
(8.01012e-07 0 4.65188e-08)
(7.81771e-07 0 4.87007e-08)
(7.61776e-07 0 5.06591e-08)
(7.40977e-07 0 5.26253e-08)
(7.195e-07 0 5.38885e-08)
(6.97498e-07 0 5.51998e-08)
(6.75038e-07 0 5.63543e-08)
(6.52171e-07 0 5.72712e-08)
(6.2894e-07 0 5.8247e-08)
(6.05382e-07 0 5.89142e-08)
(5.8158e-07 0 5.93643e-08)
(5.57596e-07 0 5.97925e-08)
(5.3351e-07 0 5.99074e-08)
(5.09388e-07 0 6.00201e-08)
(4.85287e-07 0 5.99153e-08)
(4.61211e-07 0 5.987e-08)
(4.37227e-07 0 5.94912e-08)
(4.13393e-07 0 5.90248e-08)
(3.89766e-07 0 5.84729e-08)
(3.66361e-07 0 5.78947e-08)
(3.43218e-07 0 5.72286e-08)
(3.20369e-07 0 5.64791e-08)
(2.97826e-07 0 5.56655e-08)
(2.75604e-07 0 5.48492e-08)
(2.53737e-07 0 5.39531e-08)
(2.32222e-07 0 5.30236e-08)
(2.11076e-07 0 5.20137e-08)
(1.90295e-07 0 5.09924e-08)
(1.69854e-07 0 4.98716e-08)
(1.49677e-07 0 4.86203e-08)
(1.29589e-07 0 4.70337e-08)
(1.08982e-07 0 4.47999e-08)
(8.77313e-08 0 4.20469e-08)
(5.58824e-08 0 3.90709e-08)
(3.34307e-08 0 8.68837e-08)
(4.89361e-12 0 9.36256e-08)
(5.53738e-16 0 3.48112e-16)
(3.17295e-16 0 2.63664e-18)
(6.24066e-16 0 6.18318e-18)
(6.2022e-16 0 9.69869e-18)
(6.14616e-16 0 1.31005e-17)
(6.07481e-16 0 1.64299e-17)
(5.9891e-16 0 1.96662e-17)
(5.89046e-16 0 2.27681e-17)
(5.78013e-16 0 2.56943e-17)
(5.65885e-16 0 2.85171e-17)
(5.52743e-16 0 3.11227e-17)
(5.38691e-16 0 3.35215e-17)
(5.2376e-16 0 3.57549e-17)
(5.08106e-16 0 3.77608e-17)
(4.91831e-16 0 3.95909e-17)
(4.74988e-16 0 4.12143e-17)
(4.57638e-16 0 4.26515e-17)
(4.39822e-16 0 4.38923e-17)
(4.21666e-16 0 4.49573e-17)
(4.0324e-16 0 4.58568e-17)
(3.84556e-16 0 4.65496e-17)
(3.65666e-16 0 4.70976e-17)
(3.46609e-16 0 4.74905e-17)
(3.2746e-16 0 4.76973e-17)
(3.08259e-16 0 4.7811e-17)
(2.89048e-16 0 4.77697e-17)
(2.69806e-16 0 4.76249e-17)
(2.50553e-16 0 4.73561e-17)
(2.31393e-16 0 4.70149e-17)
(2.12275e-16 0 4.66116e-17)
(1.9325e-16 0 4.60946e-17)
(1.74339e-16 0 4.5588e-17)
(1.55489e-16 0 4.504e-17)
(1.36764e-16 0 4.44713e-17)
(1.18173e-16 0 4.39026e-17)
(9.96649e-17 0 4.33649e-17)
(8.12498e-17 0 4.28376e-17)
(6.29174e-17 0 4.23723e-17)
(4.46574e-17 0 4.19691e-17)
(2.64284e-17 0 4.16382e-17)
(8.65438e-18 0 4.14107e-17)
(2.29029e-08 0 -1.56023e-07)
(6.85209e-08 0 -1.54957e-07)
(1.12674e-07 0 -1.53175e-07)
(1.5713e-07 0 -1.50495e-07)
(2.00255e-07 0 -1.47244e-07)
(2.42121e-07 0 -1.4362e-07)
(2.82731e-07 0 -1.39812e-07)
(3.22088e-07 0 -1.36055e-07)
(3.60272e-07 0 -1.32477e-07)
(3.97391e-07 0 -1.29183e-07)
(4.33613e-07 0 -1.26229e-07)
(4.69088e-07 0 -1.237e-07)
(5.0394e-07 0 -1.21407e-07)
(5.38219e-07 0 -1.18997e-07)
(5.71779e-07 0 -1.16372e-07)
(6.04752e-07 0 -1.12465e-07)
(6.37184e-07 0 -1.10777e-07)
(6.69313e-07 0 -1.09009e-07)
(7.00402e-07 0 -1.04918e-07)
(7.30203e-07 0 -9.89959e-08)
(7.58902e-07 0 -9.44545e-08)
(7.86456e-07 0 -9.08418e-08)
(8.12147e-07 0 -8.32998e-08)
(8.3554e-07 0 -7.57346e-08)
(8.56863e-07 0 -6.89059e-08)
(8.75901e-07 0 -6.02998e-08)
(8.92249e-07 0 -5.14841e-08)
(9.05904e-07 0 -4.25752e-08)
(9.16855e-07 0 -3.32199e-08)
(9.25001e-07 0 -2.39506e-08)
(9.30376e-07 0 -1.48118e-08)
(9.32989e-07 0 -5.71768e-09)
(9.3293e-07 0 3.09749e-09)
(9.30499e-07 0 1.09977e-08)
(9.25704e-07 0 1.88572e-08)
(9.18674e-07 0 2.60839e-08)
(9.0963e-07 0 3.28128e-08)
(8.98733e-07 0 3.90416e-08)
(8.86197e-07 0 4.45572e-08)
(8.72141e-07 0 4.96676e-08)
(8.56707e-07 0 5.43942e-08)
(8.40114e-07 0 5.84217e-08)
(8.22431e-07 0 6.21737e-08)
(8.0374e-07 0 6.55392e-08)
(7.84177e-07 0 6.85038e-08)
(7.63939e-07 0 7.12045e-08)
(7.42959e-07 0 7.40014e-08)
(7.21258e-07 0 7.57755e-08)
(6.99009e-07 0 7.75428e-08)
(6.76343e-07 0 7.91897e-08)
(6.53277e-07 0 8.04258e-08)
(6.29833e-07 0 8.18287e-08)
(6.0608e-07 0 8.27902e-08)
(5.82093e-07 0 8.33909e-08)
(5.57933e-07 0 8.40193e-08)
(5.33702e-07 0 8.41541e-08)
(5.09402e-07 0 8.43135e-08)
(4.85117e-07 0 8.41921e-08)
(4.60877e-07 0 8.41161e-08)
(4.36783e-07 0 8.35838e-08)
(4.12828e-07 0 8.294e-08)
(3.89082e-07 0 8.21836e-08)
(3.65587e-07 0 8.1343e-08)
(3.42373e-07 0 8.0384e-08)
(3.19458e-07 0 7.93348e-08)
(2.96851e-07 0 7.82342e-08)
(2.74564e-07 0 7.70754e-08)
(2.5263e-07 0 7.58581e-08)
(2.31071e-07 0 7.45595e-08)
(2.09881e-07 0 7.31846e-08)
(1.89021e-07 0 7.18176e-08)
(1.685e-07 0 7.03556e-08)
(1.48242e-07 0 6.88432e-08)
(1.28084e-07 0 6.72842e-08)
(1.07665e-07 0 6.57539e-08)
(8.77602e-08 0 6.45477e-08)
(6.31886e-08 0 6.634e-08)
(3.38928e-08 0 1.09038e-07)
(4.85004e-12 0 1.16634e-07)
(5.63496e-16 0 4.79279e-16)
(3.19457e-16 0 3.60858e-18)
(6.28285e-16 0 8.60268e-18)
(6.24366e-16 0 1.35037e-17)
(6.18679e-16 0 1.83427e-17)
(6.11452e-16 0 2.3068e-17)
(6.02736e-16 0 2.76692e-17)
(5.92696e-16 0 3.20326e-17)
(5.81477e-16 0 3.61892e-17)
(5.69152e-16 0 4.01389e-17)
(5.55762e-16 0 4.37889e-17)
(5.41452e-16 0 4.71493e-17)
(5.26325e-16 0 5.02719e-17)
(5.10453e-16 0 5.3105e-17)
(4.9391e-16 0 5.56589e-17)
(4.76818e-16 0 5.7944e-17)
(4.5924e-16 0 5.99292e-17)
(4.41218e-16 0 6.1656e-17)
(4.22855e-16 0 6.31346e-17)
(4.04171e-16 0 6.43443e-17)
(3.8527e-16 0 6.52852e-17)
(3.66224e-16 0 6.60194e-17)
(3.46982e-16 0 6.6526e-17)
(3.27646e-16 0 6.68155e-17)
(3.0829e-16 0 6.69086e-17)
(2.88914e-16 0 6.67948e-17)
(2.69537e-16 0 6.65363e-17)
(2.50191e-16 0 6.61434e-17)
(2.30918e-16 0 6.56058e-17)
(2.11696e-16 0 6.49337e-17)
(1.92619e-16 0 6.42306e-17)
(1.73677e-16 0 6.34241e-17)
(1.54807e-16 0 6.25969e-17)
(1.36061e-16 0 6.17697e-17)
(1.1748e-16 0 6.09115e-17)
(9.90135e-17 0 6.00947e-17)
(8.06501e-17 0 5.93399e-17)
(6.23901e-17 0 5.86678e-17)
(4.42025e-17 0 5.80991e-17)
(2.60872e-17 0 5.76442e-17)
(8.51996e-18 0 5.7334e-17)
(2.35217e-08 0 -2.01941e-07)
(7.04114e-08 0 -2.00393e-07)
(1.15368e-07 0 -1.97817e-07)
(1.60592e-07 0 -1.94074e-07)
(2.04266e-07 0 -1.89525e-07)
(2.464e-07 0 -1.84544e-07)
(2.87051e-07 0 -1.79398e-07)
(3.26259e-07 0 -1.74377e-07)
(3.64162e-07 0 -1.69663e-07)
(4.00948e-07 0 -1.65395e-07)
(4.36812e-07 0 -1.61678e-07)
(4.71933e-07 0 -1.58639e-07)
(5.06615e-07 0 -1.55625e-07)
(5.40679e-07 0 -1.53042e-07)
(5.74177e-07 0 -1.49482e-07)
(6.07572e-07 0 -1.44159e-07)
(6.40346e-07 0 -1.44025e-07)
(6.73139e-07 0 -1.41276e-07)
(7.04758e-07 0 -1.35525e-07)
(7.35437e-07 0 -1.27046e-07)
(7.64814e-07 0 -1.2527e-07)
(7.93575e-07 0 -1.17091e-07)
(8.19853e-07 0 -1.08197e-07)
(8.44065e-07 0 -9.85802e-08)
(8.66119e-07 0 -8.95462e-08)
(8.85727e-07 0 -7.82069e-08)
(9.0248e-07 0 -6.67471e-08)
(9.16433e-07 0 -5.4934e-08)
(9.27484e-07 0 -4.28697e-08)
(9.35608e-07 0 -3.06471e-08)
(9.40812e-07 0 -1.86964e-08)
(9.43082e-07 0 -6.66998e-09)
(9.42599e-07 0 4.57187e-09)
(9.39677e-07 0 1.48833e-08)
(9.34295e-07 0 2.5142e-08)
(9.2665e-07 0 3.44292e-08)
(9.16982e-07 0 4.31496e-08)
(9.05462e-07 0 5.10937e-08)
(8.92326e-07 0 5.81796e-08)
(8.77691e-07 0 6.47607e-08)
(8.61703e-07 0 7.06814e-08)
(8.446e-07 0 7.58304e-08)
(8.26445e-07 0 8.05973e-08)
(8.07334e-07 0 8.49083e-08)
(7.87399e-07 0 8.8635e-08)
(7.66814e-07 0 9.186e-08)
(7.45567e-07 0 9.56366e-08)
(7.23598e-07 0 9.80315e-08)
(7.01e-07 0 1.00081e-07)
(6.78024e-07 0 1.02208e-07)
(6.54722e-07 0 1.0382e-07)
(6.31032e-07 0 1.05574e-07)
(6.07035e-07 0 1.0683e-07)
(5.82827e-07 0 1.07574e-07)
(5.58418e-07 0 1.08375e-07)
(5.33943e-07 0 1.08562e-07)
(5.09408e-07 0 1.08757e-07)
(4.84918e-07 0 1.08589e-07)
(4.60472e-07 0 1.08414e-07)
(4.36196e-07 0 1.07731e-07)
(4.12081e-07 0 1.06894e-07)
(3.88191e-07 0 1.0589e-07)
(3.64558e-07 0 1.04803e-07)
(3.41219e-07 0 1.03559e-07)
(3.18207e-07 0 1.02183e-07)
(2.95517e-07 0 1.008e-07)
(2.73163e-07 0 9.92701e-08)
(2.51172e-07 0 9.76823e-08)
(2.29573e-07 0 9.60086e-08)
(2.08324e-07 0 9.43036e-08)
(1.87423e-07 0 9.25718e-08)
(1.6689e-07 0 9.07809e-08)
(1.46697e-07 0 8.89994e-08)
(1.26846e-07 0 8.73385e-08)
(1.07161e-07 0 8.61042e-08)
(8.86232e-08 0 8.55991e-08)
(6.66656e-08 0 8.84947e-08)
(3.45589e-08 0 1.40349e-07)
(4.7814e-12 0 1.41867e-07)
(5.66712e-16 0 6.04166e-16)
(3.22386e-16 0 4.59085e-18)
(6.33962e-16 0 1.10739e-17)
(6.2996e-16 0 1.74742e-17)
(6.2418e-16 0 2.37814e-17)
(6.16818e-16 0 2.99543e-17)
(6.07895e-16 0 3.591e-17)
(5.97586e-16 0 4.15865e-17)
(5.86109e-16 0 4.69735e-17)
(5.73474e-16 0 5.20297e-17)
(5.59784e-16 0 5.67446e-17)
(5.45174e-16 0 6.1077e-17)
(5.29706e-16 0 6.50991e-17)
(5.13514e-16 0 6.8718e-17)
(4.9667e-16 0 7.19751e-17)
(4.79268e-16 0 7.49012e-17)
(4.6137e-16 0 7.74345e-17)
(4.43028e-16 0 7.96161e-17)
(4.24364e-16 0 8.14566e-17)
(4.05412e-16 0 8.29455e-17)
(3.86221e-16 0 8.41553e-17)
(3.66886e-16 0 8.50342e-17)
(3.47416e-16 0 8.56029e-17)
(3.27843e-16 0 8.59234e-17)
(3.08249e-16 0 8.59751e-17)
(2.88686e-16 0 8.57786e-17)
(2.69144e-16 0 8.5365e-17)
(2.49633e-16 0 8.47653e-17)
(2.30194e-16 0 8.39795e-17)
(2.1089e-16 0 8.30593e-17)
(1.9173e-16 0 8.2046e-17)
(1.72705e-16 0 8.09293e-17)
(1.53814e-16 0 7.97712e-17)
(1.35058e-16 0 7.86028e-17)
(1.16498e-16 0 7.74345e-17)
(9.81036e-17 0 7.63178e-17)
(7.98229e-17 0 7.53148e-17)
(6.16767e-17 0 7.44256e-17)
(4.36441e-17 0 7.36708e-17)
(2.56529e-17 0 7.30918e-17)
(8.33385e-18 0 7.26678e-17)
(2.43176e-08 0 -2.49442e-07)
(7.28631e-08 0 -2.47392e-07)
(1.19072e-07 0 -2.43879e-07)
(1.65356e-07 0 -2.38819e-07)
(2.09737e-07 0 -2.32648e-07)
(2.52218e-07 0 -2.25951e-07)
(2.92876e-07 0 -2.19153e-07)
(3.31798e-07 0 -2.12578e-07)
(3.69216e-07 0 -2.0659e-07)
(4.05461e-07 0 -2.0129e-07)
(4.40753e-07 0 -1.96812e-07)
(4.75376e-07 0 -1.93216e-07)
(5.09806e-07 0 -1.89543e-07)
(5.43336e-07 0 -1.87293e-07)
(5.76744e-07 0 -1.82602e-07)
(6.10685e-07 0 -1.77059e-07)
(6.4426e-07 0 -1.77515e-07)
(6.77722e-07 0 -1.7373e-07)
(7.09867e-07 0 -1.66969e-07)
(7.4189e-07 0 -1.5715e-07)
(7.72456e-07 0 -1.5569e-07)
(8.02384e-07 0 -1.44675e-07)
(8.29581e-07 0 -1.33977e-07)
(8.54919e-07 0 -1.22449e-07)
(8.77955e-07 0 -1.10695e-07)
(8.9827e-07 0 -9.67259e-08)
(9.15554e-07 0 -8.23829e-08)
(9.29875e-07 0 -6.75809e-08)
(9.41068e-07 0 -5.24919e-08)
(9.49136e-07 0 -3.72429e-08)
(9.54094e-07 0 -2.22227e-08)
(9.55909e-07 0 -7.20952e-09)
(9.54873e-07 0 6.60534e-09)
(9.5129e-07 0 1.94087e-08)
(9.45139e-07 0 3.21314e-08)
(9.36696e-07 0 4.35056e-08)
(9.26189e-07 0 5.42673e-08)
(9.13844e-07 0 6.38047e-08)
(8.99927e-07 0 7.24827e-08)
(8.84549e-07 0 8.04935e-08)
(8.67861e-07 0 8.75767e-08)
(8.50113e-07 0 9.37843e-08)
(8.31412e-07 0 9.95072e-08)
(8.1179e-07 0 1.04724e-07)
(7.91396e-07 0 1.09139e-07)
(7.70331e-07 0 1.13032e-07)
(7.48743e-07 0 1.1723e-07)
(7.26464e-07 0 1.20842e-07)
(7.03503e-07 0 1.2298e-07)
(6.80109e-07 0 1.25528e-07)
(6.56488e-07 0 1.27526e-07)
(6.3249e-07 0 1.29574e-07)
(6.08192e-07 0 1.31139e-07)
(5.83692e-07 0 1.32049e-07)
(5.58956e-07 0 1.33034e-07)
(5.34195e-07 0 1.33192e-07)
(5.0939e-07 0 1.33435e-07)
(4.84646e-07 0 1.33213e-07)
(4.59931e-07 0 1.3295e-07)
(4.35425e-07 0 1.32047e-07)
(4.11083e-07 0 1.31038e-07)
(3.87027e-07 0 1.29706e-07)
(3.63243e-07 0 1.28372e-07)
(3.39793e-07 0 1.26789e-07)
(3.16662e-07 0 1.25067e-07)
(2.93865e-07 0 1.23351e-07)
(2.71436e-07 0 1.2148e-07)
(2.49393e-07 0 1.19494e-07)
(2.2772e-07 0 1.17456e-07)
(2.06411e-07 0 1.15396e-07)
(1.85491e-07 0 1.13274e-07)
(1.64973e-07 0 1.11117e-07)
(1.44907e-07 0 1.08935e-07)
(1.25405e-07 0 1.06855e-07)
(1.06219e-07 0 1.05354e-07)
(8.9216e-08 0 1.03695e-07)
(7.0162e-08 0 1.06993e-07)
(3.5317e-08 0 1.75143e-07)
(4.40768e-12 0 1.64958e-07)
(5.80764e-16 0 7.25135e-16)
(3.26094e-16 0 5.58347e-18)
(6.41168e-16 0 1.36278e-17)
(6.37095e-16 0 2.15998e-17)
(6.3117e-16 0 2.9458e-17)
(6.2357e-16 0 3.70887e-17)
(6.14378e-16 0 4.44196e-17)
(6.03759e-16 0 5.14403e-17)
(5.9191e-16 0 5.80991e-17)
(5.78913e-16 0 6.42926e-17)
(5.6482e-16 0 7.00622e-17)
(5.49817e-16 0 7.53975e-17)
(5.33966e-16 0 8.02675e-17)
(5.17339e-16 0 8.46723e-17)
(5.00082e-16 0 8.86221e-17)
(4.82267e-16 0 9.21376e-17)
(4.63955e-16 0 9.51878e-17)
(4.4524e-16 0 9.77728e-17)
(4.26195e-16 0 9.99648e-17)
(4.0689e-16 0 1.01743e-16)
(3.87369e-16 0 1.03129e-16)
(3.67671e-16 0 1.04121e-16)
(3.47871e-16 0 1.04742e-16)
(3.28019e-16 0 1.05031e-16)
(3.08145e-16 0 1.0498e-16)
(2.88293e-16 0 1.04649e-16)
(2.68513e-16 0 1.04028e-16)
(2.48806e-16 0 1.03149e-16)
(2.29212e-16 0 1.02095e-16)
(2.09773e-16 0 1.00854e-16)
(1.905e-16 0 9.94788e-17)
(1.71392e-16 0 9.79899e-17)
(1.5247e-16 0 9.64493e-17)
(1.33734e-16 0 9.49086e-17)
(1.15206e-16 0 9.3399e-17)
(9.68835e-17 0 9.19722e-17)
(7.87269e-17 0 9.06487e-17)
(6.07461e-17 0 8.95113e-17)
(4.2879e-17 0 8.85497e-17)
(2.50843e-17 0 8.78156e-17)
(8.10637e-18 0 8.72986e-17)
(2.54084e-08 0 -2.98846e-07)
(7.62048e-08 0 -2.96104e-07)
(1.24102e-07 0 -2.91366e-07)
(1.71842e-07 0 -2.84525e-07)
(2.17103e-07 0 -2.763e-07)
(2.59918e-07 0 -2.67455e-07)
(3.00418e-07 0 -2.58635e-07)
(3.38871e-07 0 -2.50243e-07)
(3.75598e-07 0 -2.42782e-07)
(4.10942e-07 0 -2.36468e-07)
(4.45207e-07 0 -2.31438e-07)
(4.79434e-07 0 -2.26672e-07)
(5.12973e-07 0 -2.24041e-07)
(5.4594e-07 0 -2.20546e-07)
(5.79688e-07 0 -2.14261e-07)
(6.13797e-07 0 -2.12738e-07)
(6.48681e-07 0 -2.11696e-07)
(6.82576e-07 0 -2.07163e-07)
(7.15936e-07 0 -1.9826e-07)
(7.49376e-07 0 -1.89929e-07)
(7.81807e-07 0 -1.8673e-07)
(8.12962e-07 0 -1.7363e-07)
(8.41431e-07 0 -1.60803e-07)
(8.68141e-07 0 -1.47843e-07)
(8.92455e-07 0 -1.32706e-07)
(9.13647e-07 0 -1.16018e-07)
(9.31648e-07 0 -9.85338e-08)
(9.46413e-07 0 -8.05277e-08)
(9.57792e-07 0 -6.20669e-08)
(9.65755e-07 0 -4.37256e-08)
(9.70375e-07 0 -2.53163e-08)
(9.71584e-07 0 -7.08771e-09)
(9.69863e-07 0 9.24429e-09)
(9.6542e-07 0 2.48418e-08)
(9.58262e-07 0 4.0006e-08)
(9.48776e-07 0 5.35453e-08)
(9.37227e-07 0 6.62688e-08)
(9.23855e-07 0 7.74771e-08)
(9.08921e-07 0 8.76416e-08)
(8.92619e-07 0 9.70331e-08)
(8.7513e-07 0 1.05174e-07)
(8.56632e-07 0 1.12415e-07)
(8.3723e-07 0 1.18989e-07)
(8.16985e-07 0 1.25115e-07)
(7.96078e-07 0 1.30022e-07)
(7.74459e-07 0 1.34931e-07)
(7.52454e-07 0 1.38892e-07)
(7.2981e-07 0 1.44051e-07)
(7.06544e-07 0 1.46373e-07)
(6.82695e-07 0 1.49121e-07)
(6.58641e-07 0 1.5163e-07)
(6.34278e-07 0 1.53871e-07)
(6.09602e-07 0 1.55814e-07)
(5.84738e-07 0 1.56853e-07)
(5.59588e-07 0 1.58022e-07)
(5.34464e-07 0 1.58168e-07)
(5.09307e-07 0 1.58398e-07)
(4.84249e-07 0 1.5812e-07)
(4.5924e-07 0 1.57729e-07)
(4.34455e-07 0 1.56642e-07)
(4.09855e-07 0 1.55356e-07)
(3.85574e-07 0 1.53769e-07)
(3.61601e-07 0 1.52079e-07)
(3.37973e-07 0 1.50183e-07)
(3.14743e-07 0 1.48058e-07)
(2.91816e-07 0 1.46096e-07)
(2.69334e-07 0 1.43729e-07)
(2.47223e-07 0 1.41358e-07)
(2.25495e-07 0 1.38985e-07)
(2.04133e-07 0 1.3655e-07)
(1.83151e-07 0 1.34052e-07)
(1.62581e-07 0 1.3149e-07)
(1.42522e-07 0 1.2881e-07)
(1.23277e-07 0 1.26003e-07)
(1.04495e-07 0 1.23458e-07)
(8.89552e-08 0 1.19062e-07)
(6.14493e-08 0 1.36279e-07)
(3.09085e-08 0 2.22072e-07)
(3.76945e-12 0 1.81327e-07)
(5.90171e-16 0 8.34353e-16)
(3.30635e-16 0 6.55541e-18)
(6.49978e-16 0 1.62541e-17)
(6.4579e-16 0 2.58908e-17)
(6.3968e-16 0 3.5362e-17)
(6.3178e-16 0 4.4523e-17)
(6.22236e-16 0 5.33118e-17)
(6.11266e-16 0 6.1718e-17)
(5.98962e-16 0 6.96279e-17)
(5.85447e-16 0 7.70209e-17)
(5.70889e-16 0 8.38554e-17)
(5.55369e-16 0 9.01627e-17)
(5.38981e-16 0 9.58599e-17)
(5.21879e-16 0 1.0104e-16)
(5.04136e-16 0 1.05662e-16)
(4.85814e-16 0 1.09746e-16)
(4.67006e-16 0 1.13262e-16)
(4.47815e-16 0 1.16271e-16)
(4.28335e-16 0 1.18752e-16)
(4.08576e-16 0 1.20768e-16)
(3.88609e-16 0 1.22257e-16)
(3.68509e-16 0 1.23322e-16)
(3.48326e-16 0 1.23932e-16)
(3.28091e-16 0 1.24129e-16)
(3.07877e-16 0 1.23912e-16)
(2.87735e-16 0 1.23364e-16)
(2.67645e-16 0 1.22485e-16)
(2.47679e-16 0 1.21285e-16)
(2.27888e-16 0 1.19869e-16)
(2.08284e-16 0 1.18235e-16)
(1.88876e-16 0 1.16446e-16)
(1.69675e-16 0 1.14544e-16)
(1.50733e-16 0 1.12559e-16)
(1.32018e-16 0 1.10584e-16)
(1.13562e-16 0 1.08671e-16)
(9.53533e-17 0 1.06892e-16)
(7.73621e-17 0 1.05238e-16)
(5.95777e-17 0 1.03811e-16)
(4.19381e-17 0 1.02653e-16)
(2.44122e-17 0 1.01754e-16)
(7.83754e-18 0 1.01195e-16)
(2.68848e-08 0 -3.50828e-07)
(8.07379e-08 0 -3.47117e-07)
(1.30863e-07 0 -3.4068e-07)
(1.80444e-07 0 -3.31453e-07)
(2.26784e-07 0 -3.20524e-07)
(2.69933e-07 0 -3.08926e-07)
(3.10102e-07 0 -2.9754e-07)
(3.47754e-07 0 -2.87031e-07)
(3.83329e-07 0 -2.77921e-07)
(4.17075e-07 0 -2.70768e-07)
(4.50427e-07 0 -2.64353e-07)
(4.8363e-07 0 -2.59838e-07)
(5.1583e-07 0 -2.57373e-07)
(5.48213e-07 0 -2.53264e-07)
(5.82694e-07 0 -2.46515e-07)
(6.17142e-07 0 -2.49183e-07)
(6.52866e-07 0 -2.46499e-07)
(6.87282e-07 0 -2.41585e-07)
(7.23348e-07 0 -2.2857e-07)
(7.57555e-07 0 -2.3017e-07)
(7.9295e-07 0 -2.16391e-07)
(8.2487e-07 0 -2.0484e-07)
(8.55703e-07 0 -1.89061e-07)
(8.84005e-07 0 -1.74724e-07)
(9.09812e-07 0 -1.55872e-07)
(9.32132e-07 0 -1.36215e-07)
(9.51084e-07 0 -1.15367e-07)
(9.66419e-07 0 -9.3764e-08)
(9.7795e-07 0 -7.17348e-08)
(9.85738e-07 0 -4.9897e-08)
(9.89802e-07 0 -2.78943e-08)
(9.90246e-07 0 -6.16105e-09)
(9.87712e-07 0 1.27869e-08)
(9.82116e-07 0 3.13795e-08)
(9.73716e-07 0 4.89913e-08)
(9.62918e-07 0 6.48035e-08)
(9.50061e-07 0 7.94457e-08)
(9.35461e-07 0 9.2266e-08)
(9.19326e-07 0 1.03895e-07)
(9.01885e-07 0 1.1454e-07)
(8.83423e-07 0 1.23629e-07)
(8.6405e-07 0 1.31848e-07)
(8.43825e-07 0 1.39161e-07)
(8.22876e-07 0 1.46091e-07)
(8.01409e-07 0 1.51485e-07)
(7.79253e-07 0 1.57321e-07)
(7.56659e-07 0 1.61026e-07)
(7.33561e-07 0 1.67612e-07)
(7.10072e-07 0 1.7035e-07)
(6.85714e-07 0 1.73032e-07)
(6.61036e-07 0 1.76222e-07)
(6.36295e-07 0 1.7851e-07)
(6.11201e-07 0 1.80895e-07)
(5.85926e-07 0 1.82119e-07)
(5.60321e-07 0 1.83416e-07)
(5.34774e-07 0 1.83563e-07)
(5.09169e-07 0 1.83703e-07)
(4.83705e-07 0 1.83392e-07)
(4.58361e-07 0 1.82811e-07)
(4.33252e-07 0 1.81605e-07)
(4.08378e-07 0 1.79875e-07)
(3.83806e-07 0 1.78e-07)
(3.59637e-07 0 1.75996e-07)
(3.35869e-07 0 1.73673e-07)
(3.1243e-07 0 1.71278e-07)
(2.89397e-07 0 1.68812e-07)
(2.6684e-07 0 1.66046e-07)
(2.44667e-07 0 1.63312e-07)
(2.22889e-07 0 1.60573e-07)
(2.01459e-07 0 1.57782e-07)
(1.80387e-07 0 1.54907e-07)
(1.59683e-07 0 1.5195e-07)
(1.39403e-07 0 1.48815e-07)
(1.19778e-07 0 1.45315e-07)
(1.01698e-07 0 1.41015e-07)
(8.48819e-08 0 1.34587e-07)
(5.54761e-08 0 1.68323e-07)
(2.57408e-08 0 2.45486e-07)
(3.41945e-12 0 1.93884e-07)
(6.07271e-16 0 9.25273e-16)
(3.3608e-16 0 7.50666e-18)
(6.60504e-16 0 1.90045e-17)
(6.56192e-16 0 3.04196e-17)
(6.49802e-16 0 4.15865e-17)
(6.4153e-16 0 5.23605e-17)
(6.31563e-16 0 6.26796e-17)
(6.20086e-16 0 7.2492e-17)
(6.07213e-16 0 8.16841e-17)
(5.9313e-16 0 9.02868e-17)
(5.77961e-16 0 9.81967e-17)
(5.61831e-16 0 1.05445e-16)
(5.44854e-16 0 1.12011e-16)
(5.27131e-16 0 1.17935e-16)
(5.08768e-16 0 1.23178e-16)
(4.89867e-16 0 1.2781e-16)
(4.705e-16 0 1.3177e-16)
(4.50731e-16 0 1.35151e-16)
(4.30682e-16 0 1.37901e-16)
(4.10395e-16 0 1.40042e-16)
(3.89912e-16 0 1.41624e-16)
(3.69336e-16 0 1.42699e-16)
(3.48688e-16 0 1.43206e-16)
(3.27998e-16 0 1.43237e-16)
(3.07391e-16 0 1.42813e-16)
(2.86866e-16 0 1.41965e-16)
(2.66435e-16 0 1.40693e-16)
(2.46179e-16 0 1.39121e-16)
(2.26151e-16 0 1.3725e-16)
(2.06351e-16 0 1.35151e-16)
(1.86788e-16 0 1.32866e-16)
(1.67504e-16 0 1.30467e-16)
(1.4852e-16 0 1.28006e-16)
(1.29867e-16 0 1.25566e-16)
(1.11535e-16 0 1.23209e-16)
(9.34714e-17 0 1.21017e-16)
(7.56767e-17 0 1.19042e-16)
(5.81611e-17 0 1.17336e-16)
(4.08317e-17 0 1.1594e-16)
(2.36367e-17 0 1.14916e-16)
(7.53768e-18 0 1.14306e-16)
(2.88829e-08 0 -4.06333e-07)
(8.68567e-08 0 -4.01265e-07)
(1.3998e-07 0 -3.92416e-07)
(1.9193e-07 0 -3.79954e-07)
(2.39565e-07 0 -3.65391e-07)
(2.82891e-07 0 -3.50212e-07)
(3.22446e-07 0 -3.35528e-07)
(3.58725e-07 0 -3.22503e-07)
(3.92241e-07 0 -3.11738e-07)
(4.24269e-07 0 -3.02883e-07)
(4.56258e-07 0 -2.9565e-07)
(4.87391e-07 0 -2.92187e-07)
(5.17585e-07 0 -2.90731e-07)
(5.5081e-07 0 -2.82806e-07)
(5.84406e-07 0 -2.83643e-07)
(6.20323e-07 0 -2.84291e-07)
(6.55707e-07 0 -2.83555e-07)
(6.92746e-07 0 -2.75279e-07)
(7.30802e-07 0 -2.65593e-07)
(7.6753e-07 0 -2.6621e-07)
(8.04787e-07 0 -2.50513e-07)
(8.38921e-07 0 -2.37459e-07)
(8.72277e-07 0 -2.20358e-07)
(9.02726e-07 0 -2.02486e-07)
(9.3021e-07 0 -1.8087e-07)
(9.54065e-07 0 -1.57586e-07)
(9.74137e-07 0 -1.33014e-07)
(9.90122e-07 0 -1.07346e-07)
(1.00186e-06 0 -8.13823e-08)
(1.00942e-06 0 -5.5616e-08)
(1.01272e-06 0 -2.92832e-08)
(1.01226e-06 0 -4.75581e-09)
(1.00861e-06 0 1.75184e-08)
(1.00151e-06 0 3.9333e-08)
(9.91556e-07 0 5.93842e-08)
(9.7913e-07 0 7.76967e-08)
(9.64683e-07 0 9.38817e-08)
(9.48595e-07 0 1.08455e-07)
(9.31e-07 0 1.21502e-07)
(9.12228e-07 0 1.33092e-07)
(8.92641e-07 0 1.4309e-07)
(8.7226e-07 0 1.52123e-07)
(8.51133e-07 0 1.60377e-07)
(8.29423e-07 0 1.67496e-07)
(8.07279e-07 0 1.7361e-07)
(7.84609e-07 0 1.79937e-07)
(7.61353e-07 0 1.84755e-07)
(7.37907e-07 0 1.89929e-07)
(7.13893e-07 0 1.95492e-07)
(6.89242e-07 0 1.97636e-07)
(6.63878e-07 0 2.01177e-07)
(6.3862e-07 0 2.03661e-07)
(6.13026e-07 0 2.06395e-07)
(5.87222e-07 0 2.0796e-07)
(5.61144e-07 0 2.09125e-07)
(5.3503e-07 0 2.09583e-07)
(5.08971e-07 0 2.09402e-07)
(4.8297e-07 0 2.09201e-07)
(4.57326e-07 0 2.08041e-07)
(4.31759e-07 0 2.06925e-07)
(4.06564e-07 0 2.04843e-07)
(3.81719e-07 0 2.02419e-07)
(3.57267e-07 0 2.00099e-07)
(3.33299e-07 0 1.97438e-07)
(3.09738e-07 0 1.94542e-07)
(2.86578e-07 0 1.91636e-07)
(2.6397e-07 0 1.8846e-07)
(2.4174e-07 0 1.85322e-07)
(2.19889e-07 0 1.82199e-07)
(1.98412e-07 0 1.79058e-07)
(1.77276e-07 0 1.75846e-07)
(1.56399e-07 0 1.72564e-07)
(1.35743e-07 0 1.69118e-07)
(1.15215e-07 0 1.65284e-07)
(9.52295e-08 0 1.60521e-07)
(7.18596e-08 0 1.5326e-07)
(5.10498e-08 0 2.08545e-07)
(1.71696e-08 0 2.54875e-07)
(3.26587e-12 0 2.07412e-07)
(6.23541e-16 0 9.95262e-16)
(3.42555e-16 0 8.41656e-18)
(6.72891e-16 0 2.19306e-17)
(6.68372e-16 0 3.52482e-17)
(6.6161e-16 0 4.82246e-17)
(6.52863e-16 0 6.07357e-17)
(6.42368e-16 0 7.26471e-17)