0 	-15.2176
0.010101 	-9.60417
0.020202 	-9.60417
0.030303 	-9.60417
0.040404 	-9.60413
0.0505051 	-9.60351
0.0606061 	-9.59488
0.0707071 	-9.60267
0.0808081 	-9.60409
0.0909091 	-9.60416
