/*--------------------------------*- C++ -*----------------------------------*\
  =========                 |
  \\      /  F ield         | OpenFOAM: The Open Source CFD Toolbox
   \\    /   O peration     | Website:  https://openfoam.org
    \\  /    A nd           | Version:  6
     \\/     M anipulation  |
\*---------------------------------------------------------------------------*/
FoamFile
{
    version     2.0;
    format      ascii;
    class       volScalarField;
    location    "3700";
    object      T;
}
// * * * * * * * * * * * * * * * * * * * * * * * * * * * * * * * * * * * * * //

dimensions      [0 0 0 1 0 0 0];

internalField   nonuniform List<scalar> 
4800
(
552.456
552.268
552.083
551.903
551.728
551.56
551.397
551.241
551.091
550.949
550.814
550.686
550.565
550.451
550.343
550.24
550.143
550.05
549.96
549.874
549.79
549.709
549.629
549.551
549.474
549.399
549.326
549.254
549.184
549.116
549.049
548.985
548.923
548.862
548.804
548.747
548.693
548.64
548.589
548.54
548.493
548.447
548.403
548.361
548.319
548.279
548.24
548.202
548.165
548.128
548.092
548.056
548.019
547.982
547.944
547.905
547.865
547.822
547.776
547.727
547.674
547.617
547.554
547.487
547.413
547.332
547.245
547.15
547.047
546.936
546.817
546.689
546.554
546.412
546.266
546.117
545.967
545.816
545.664
545.512
545.359
545.207
545.059
544.914
544.771
544.631
544.493
544.358
544.225
544.093
543.964
543.836
543.71
543.586
543.462
543.341
543.22
543.1
542.982
542.864
542.747
542.631
542.515
542.4
542.286
542.172
542.058
541.945
541.833
541.72
541.608
541.496
541.384
541.273
541.161
541.05
540.939
540.828
540.717
540.606
552.455
552.267
552.081
551.901
551.725
551.556
551.392
551.235
551.085
550.942
550.806
550.678
550.556
550.441
550.333
550.23
550.132
550.038
549.949
549.863
549.779
549.697
549.617
549.539
549.463
549.388
549.314
549.242
549.172
549.104
549.038
548.973
548.911
548.85
548.792
548.735
548.68
548.628
548.577
548.528
548.48
548.435
548.391
548.349
548.307
548.268
548.229
548.191
548.154
548.118
548.082
548.046
548.01
547.974
547.936
547.898
547.857
547.815
547.769
547.72
547.668
547.611
547.548
547.481
547.407
547.326
547.239
547.144
547.042
546.932
546.814
546.688
546.554
546.413
546.267
546.117
545.965
545.814
545.661
545.509
545.356
545.205
545.057
544.912
544.769
544.629
544.492
544.356
544.223
544.092
543.963
543.835
543.709
543.585
543.461
543.34
543.219
543.099
542.981
542.863
542.746
542.63
542.515
542.4
542.285
542.172
542.058
541.945
541.832
541.72
541.608
541.496
541.384
541.273
541.161
541.05
540.939
540.828
540.717
540.606
552.455
552.265
552.079
551.897
551.72
551.548
551.383
551.224
551.072
550.927
550.79
550.661
550.538
550.423
550.313
550.21
550.111
550.017
549.928
549.841
549.757
549.676
549.595
549.517
549.441
549.366
549.292
549.22
549.15
549.082
549.015
548.95
548.888
548.827
548.768
548.711
548.656
548.603
548.552
548.503
548.456
548.411
548.367
548.325
548.284
548.244
548.206
548.169
548.133
548.098
548.063
548.028
547.993
547.957
547.92
547.882
547.842
547.8
547.755
547.707
547.655
547.598
547.536
547.468
547.395
547.314
547.227
547.133
547.031
546.922
546.805
546.681
546.549
546.409
546.264
546.114
545.961
545.808
545.654
545.502
545.35
545.2
545.053
544.908
544.766
544.626
544.489
544.353
544.22
544.089
543.96
543.833
543.707
543.582
543.46
543.338
543.217
543.098
542.979
542.862
542.745
542.629
542.514
542.399
542.285
542.171
542.057
541.944
541.832
541.719
541.607
541.496
541.384
541.272
541.161
541.05
540.939
540.828
540.716
540.605
552.454
552.263
552.075
551.891
551.712
551.538
551.37
551.208
551.055
550.908
550.77
550.639
550.516
550.399
550.288
550.183
550.083
549.988
549.897
549.81
549.727
549.645
549.565
549.486
549.41
549.334
549.261
549.189
549.118
549.05
548.983
548.918
548.854
548.793
548.734
548.677
548.621
548.568
548.517
548.468
548.421
548.376
548.333
548.291
548.251
548.212
548.174
548.138
548.103
548.069
548.035
548.001
547.967
547.932
547.897
547.86
547.821
547.779
547.735
547.688
547.636
547.579
547.518
547.45
547.377
547.297
547.21
547.117
547.016
546.907
546.792
546.669
546.538
546.4
546.256
546.107
545.955
545.802
545.648
545.496
545.344
545.194
545.047
544.902
544.76
544.621
544.484
544.349
544.216
544.085
543.956
543.829
543.704
543.579
543.457
543.335
543.215
543.096
542.977
542.86
542.743
542.627
542.512
542.397
542.283
542.17
542.056
541.944
541.831
541.719
541.607
541.495
541.383
541.272
541.161
541.049
540.938
540.827
540.716
540.605
552.453
552.261
552.071
551.884
551.702
551.525
551.354
551.191
551.035
550.888
550.749
550.617
550.492
550.373
550.261
550.154
550.052
549.954
549.862
549.773
549.689
549.607
549.527
549.448
549.371
549.296
549.222
549.15
549.079
549.01
548.942
548.876
548.812
548.751
548.691
548.633
548.578
548.525
548.473
548.424
548.378
548.333
548.29
548.248
548.209
548.171
548.134
548.099
548.065
548.032
548
547.967
547.934
547.901
547.867
547.831
547.793
547.752
547.709
547.662
547.611
547.555
547.494
547.427
547.354
547.274
547.188
547.095
546.995
546.887
546.773
546.651
546.523
546.387
546.246
546.098
545.946
545.79
545.636
545.484
545.335
545.186
545.039
544.895
544.753
544.614
544.478
544.343
544.211
544.08
543.951
543.824
543.699
543.575
543.453
543.332
543.211
543.092
542.974
542.857
542.741
542.625
542.51
542.396
542.282
542.168
542.055
541.942
541.83
541.718
541.606
541.494
541.383
541.271
541.16
541.049
540.938
540.827
540.716
540.605
552.452
552.258
552.065
551.875
551.69
551.511
551.339
551.174
551.017
550.868
550.728
550.594
550.467
550.346
550.231
550.122
550.017
549.918
549.823
549.733
549.647
549.564
549.484
549.405
549.328
549.252
549.178
549.105
549.033
548.963
548.895
548.828
548.764
548.701
548.641
548.583
548.527
548.473
548.422
548.373
548.326
548.282
548.24
548.199
548.16
548.123
548.087
548.053
548.021
547.989
547.958
547.927
547.895
547.864
547.831
547.796
547.759
547.72
547.678
547.632
547.581
547.526
547.465
547.399
547.326
547.247
547.161
547.068
546.969
546.862
546.749
546.629
546.502
546.369
546.229
546.084
545.933
545.78
545.627
545.475
545.325
545.176
545.03
544.886
544.745
544.606
544.47
544.336
544.204
544.074
543.945
543.819
543.694
543.57
543.448
543.327
543.207
543.089
542.971
542.854
542.738
542.622
542.508
542.393
542.28
542.166
542.053
541.941
541.829
541.717
541.605
541.493
541.382
541.271
541.16
541.049
540.938
540.827
540.716
540.605
552.451
552.254
552.059
551.867
551.679
551.498
551.324
551.158
551
550.85
550.708
550.572
550.443
550.32
550.203
550.091
549.984
549.882
549.785
549.693
549.605
549.521
549.439
549.359
549.281
549.205
549.129
549.055
548.983
548.911
548.842
548.774
548.709
548.646
548.584
548.525
548.469
548.415
548.364
548.315
548.269
548.225
548.183
548.143
548.105
548.069
548.035
548.002
547.971
547.94
547.911
547.881
547.851
547.821
547.789
547.756
547.721
547.683
547.641
547.596
547.547
547.492
547.432
547.366
547.294
547.215
547.129
547.037
546.938
546.833
546.721
546.602
546.478
546.347
546.209
546.067
545.919
545.768
545.616
545.464
545.314
545.165
545.019
544.876
544.735
544.597
544.461
544.327
544.196
544.066
543.938
543.812
543.687
543.564
543.442
543.322
543.202
543.084
542.967
542.85
542.734
542.619
542.505
542.391
542.277
542.164
542.051
541.939
541.827
541.715
541.604
541.492
541.381
541.27
541.159
541.048
540.937
540.827
540.716
540.605
552.45
552.251
552.053
551.859
551.67
551.487
551.312
551.145
550.986
550.834
550.69
550.553
550.422
550.296
550.177
550.062
549.953
549.85
549.751
549.656
549.566
549.48
549.396
549.315
549.235
549.156
549.079
549.004
548.929
548.856
548.785
548.717
548.65
548.585
548.523
548.464
548.407
548.352
548.3
548.251
548.206
548.162
548.122
548.083
548.045
548.011
547.977
547.946
547.916
547.887
547.859
547.831
547.802
547.774
547.743
547.712
547.678
547.641
547.601
547.557
547.508
547.455
547.395
547.33
547.258
547.179
547.094
547.002
546.904
546.799
546.688
546.572
546.449
546.32
546.185
546.045
545.9
545.752
545.601
545.45
545.3
545.152
545.007
544.864
544.724
544.586
544.451
544.317
544.186
544.057
543.93
543.804
543.68
543.557
543.436
543.316
543.197
543.079
542.962
542.846
542.73
542.615
542.501
542.387
542.274
542.161
542.049
541.937
541.825
541.713
541.602
541.491
541.38
541.269
541.158
541.047
540.937
540.826
540.716
540.605
552.449
552.248
552.048
551.853
551.662
551.479
551.303
551.135
550.974
550.822
550.676
550.536
550.403
550.276
550.154
550.038
549.927
549.821
549.72
549.624
549.531
549.442
549.356
549.272
549.19
549.109
549.03
548.952
548.875
548.801
548.728
548.657
548.588
548.523
548.459
548.399
548.341
548.286
548.234
548.185
548.139
548.096
548.056
548.018
547.982
547.948
547.916
547.887
547.858
547.831
547.804
547.777
547.75
547.723
547.694
547.663
547.631
547.595
547.556
547.513
547.466
547.413
547.354
547.289
547.218
547.139
547.055
546.963
546.866
546.762
546.652
546.537
546.416
546.29
546.158
546.02
545.878
545.732
545.583
545.434
545.285
545.138
544.993
544.851
544.711
544.574
544.439
544.307
544.176
544.047
543.92
543.795
543.672
543.549
543.429
543.309
543.191
543.073
542.956
542.841
542.726
542.611
542.497
542.384
542.271
542.159
542.046
541.935
541.823
541.712
541.6
541.489
541.379
541.268
541.157
541.047
540.936
540.826
540.716
540.605
552.448
552.246
552.045
551.848
551.657
551.473
551.296
551.127
550.966
550.812
550.664
550.523
550.388
550.26
550.137
550.019
549.906
549.799
549.696
549.597
549.502
549.41
549.321
549.234
549.149
549.065
548.983
548.903
548.824
548.747
548.672
548.599
548.529
548.461
548.396
548.333
548.274
548.218
548.165
548.116
548.07
548.028
547.988
547.951
547.917
547.884
547.854
547.825
547.798
547.772
547.747
547.721
547.695
547.669
547.641
547.611
547.58
547.545
547.507
547.465
547.419
547.367
547.309
547.245
547.174
547.096
547.012
546.921
546.825
546.722
546.614
546.5
546.381
546.257
546.127
545.992
545.853
545.709
545.563
545.416
545.269
545.122
544.978
544.836
544.697
544.561
544.427
544.295
544.165
544.036
543.91
543.786
543.662
543.541
543.421
543.301
543.183
543.066
542.95
542.835
542.72
542.606
542.493
542.38
542.268
542.155
542.044
541.932
541.821
541.71
541.599
541.488
541.377
541.267
541.156
541.046
540.936
540.825
540.715
540.605
552.448
552.245
552.044
551.847
551.655
551.47
551.292
551.122
550.96
550.805
550.656
550.514
550.379
550.249
550.125
550.006
549.892
549.782
549.677
549.576
549.478
549.383
549.29
549.2
549.112
549.026
548.941
548.858
548.777
548.698
548.62
548.545
548.472
548.402
548.334
548.27
548.209
548.151
548.097
548.047
548.001
547.959
547.92
547.884
547.851
547.819
547.79
547.763
547.737
547.712
547.688
547.664
547.639
547.613
547.586
547.557
547.526
547.493
547.455
547.414
547.368
547.317
547.26
547.197
547.127
547.05
546.966
546.876
546.78
546.679
546.572
546.46
546.343
546.22
546.093
545.961
545.824
545.684
545.54
545.396
545.25
545.105
544.961
544.821
544.682
544.546
544.413
544.281
544.152
544.025
543.899
543.775
543.652
543.531
543.412
543.293
543.176
543.059
542.944
542.829
542.715
542.601
542.488
542.376
542.264
542.152
542.04
541.929
541.818
541.707
541.597
541.486
541.376
541.266
541.155
541.045
540.935
540.825
540.715
540.605
552.448
552.245
552.044
551.847
551.655
551.47
551.292
551.121
550.958
550.802
550.653
550.51
550.374
550.244
550.119
549.999
549.884
549.773
549.666
549.562
549.461
549.362
549.266
549.173
549.082
548.993
548.905
548.82
548.736
548.654
548.574
548.496
548.421
548.348
548.277
548.21
548.147
548.087
548.032
547.981
547.934
547.891
547.853
547.817
547.785
547.755
547.726
547.7
547.675
547.651
547.628
547.605
547.581
547.556
547.529
547.501
547.47
547.437
547.4
547.359
547.314
547.264
547.207
547.144
547.075
546.999
546.916
546.827
546.733
546.632
546.527
546.417
546.301
546.181
546.056
545.927
545.793
545.655
545.515
545.374
545.231
545.087
544.944
544.804
544.666
544.531
544.398
544.267
544.139
544.012
543.887
543.763
543.642
543.521
543.402
543.284
543.168
543.052
542.937
542.822
542.709
542.596
542.483
542.371
542.26
542.148
542.037
541.926
541.816
541.705
541.595
541.484
541.374
541.264
541.154
541.044
540.934
540.825
540.715
540.605
552.448
552.246
552.046
551.849
551.658
551.473
551.295
551.124
550.96
550.804
550.654
550.512
550.375
550.244
550.119
549.998
549.882
549.77
549.662
549.555
549.451
549.349
549.25
549.154
549.059
548.967
548.877
548.789
548.702
548.618
548.536
548.455
548.376
548.3
548.227
548.157
548.091
548.029
547.972
547.92
547.872
547.828
547.789
547.754
547.721
547.691
547.664
547.638
547.614
547.59
547.568
547.545
547.522
547.497
547.471
547.442
547.412
547.378
547.341
547.3
547.255
547.205
547.15
547.088
547.019
546.944
546.862
546.775
546.681
546.582
546.479
546.37
546.257
546.139
546.017
545.89
545.759
545.625
545.488
545.35
545.21
545.067
544.926
544.786
544.649
544.515
544.382
544.252
544.124
543.998
543.874
543.751
543.63
543.51
543.392
543.275
543.159
543.043
542.929
542.815
542.702
542.59
542.478
542.366
542.255
542.144
542.034
541.923
541.813
541.702
541.592
541.482
541.373
541.263
541.153
541.043
540.934
540.824
540.714
540.605
552.449
552.248
552.049
551.854
551.664
551.48
551.302
551.132
550.968
550.812
550.663
550.52
550.383
550.251
550.125
550.004
549.887
549.775
549.665
549.557
549.45
549.346
549.243
549.143
549.045
548.95
548.857
548.766
548.677
548.591
548.506
548.422
548.339
548.26
548.183
548.111
548.042
547.978
547.919
547.864
547.815
547.771
547.73
547.694
547.661
547.631
547.603
547.577
547.552
547.529
547.507
547.484
547.461
547.436
547.409
547.381
547.35
547.316
547.279
547.238
547.193
547.143
547.088
547.026
546.958
546.884
546.803
546.717
546.625
546.528
546.426
546.32
546.209
546.094
545.975
545.851
545.723
545.592
545.458
545.323
545.187
545.045
544.906
544.767
544.631
544.497
544.366
544.236
544.109
543.984
543.86
543.738
543.618
543.499
543.381
543.265
543.149
543.035
542.921
542.808
542.696
542.584
542.472
542.361
542.251
542.14
542.03
541.92
541.81
541.7
541.59
541.48
541.371
541.261
541.152
541.042
540.933
540.823
540.714
540.605
552.45
552.251
552.055
551.863
551.674
551.491
551.314
551.145
550.983
550.827
550.678
550.535
550.398
550.266
550.14
550.018
549.901
549.787
549.676
549.567
549.458
549.351
549.246
549.142
549.041
548.943
548.847
548.753
548.662
548.573
548.485
548.398
548.312
548.228
548.149
548.073
548.001
547.934
547.873
547.816
547.765
547.719
547.677
547.639
547.605
547.573
547.544
547.517
547.491
547.467
547.444
547.421
547.397
547.371
547.344
547.315
547.284
547.25
547.212
547.17
547.125
547.075
547.019
546.958
546.891
546.818
546.739
546.654
546.563
546.468
546.369
546.265
546.157
546.045
545.928
545.808
545.684
545.557
545.427
545.295
545.161
545.023
544.884
544.746
544.611
544.478
544.348
544.219
544.093
543.968
543.845
543.724
543.605
543.487
543.37
543.254
543.139
543.026
542.913
542.8
542.689
542.577
542.466
542.356
542.246
542.136
542.026
541.916
541.807
541.697
541.588
541.478
541.369
541.26
541.151
541.041
540.932
540.823
540.714
540.605
552.452
552.256
552.063
551.872
551.686
551.506
551.332
551.164
551.004
550.849
550.701
550.559
550.422
550.29
550.164
550.041
549.924
549.809
549.697
549.587
549.477
549.367
549.259
549.153
549.049
548.947
548.848
548.751
548.658
548.566
548.475
548.384
548.294
548.207
548.123
548.044
547.97
547.9
547.836
547.776
547.722
547.673
547.629
547.588
547.552
547.518
547.486
547.457
547.43
547.404
547.379
547.354
547.328
547.302
547.274
547.245
547.212
547.178
547.139
547.097
547.051
547
546.945
546.884
546.817
546.745
546.667
546.584
546.495
546.402
546.305
546.204
546.099
545.99
545.877
545.761
545.64
545.517
545.391
545.263
545.133
544.997
544.859
544.723
544.589
544.457
544.328
544.201
544.075
543.952
543.83
543.71
543.591
543.474
543.358
543.243
543.129
543.016
542.904
542.792
542.681
542.571
542.46
542.35
542.241
542.131
542.022
541.913
541.803
541.694
541.585
541.476
541.367
541.258
541.149
541.04
540.931
540.822
540.713
540.604
552.453
552.261
552.071
551.884
551.701
551.524
551.353
551.188
551.03
550.878
550.731
550.591
550.455
550.324
550.198
550.076
549.959
549.844
549.731
549.619
549.507
549.395
549.285
549.176
549.068
548.964
548.861
548.761
548.664
548.568
548.474
548.379
548.286
548.195
548.109
548.026
547.949
547.876
547.808
547.745
547.687
547.634
547.586
547.542
547.501
547.463
547.428
547.396
547.366
547.337
547.309
547.282
547.254
547.226
547.197
547.166
547.133
547.098
547.058
547.015
546.968
546.917
546.861
546.8
546.734
546.663
546.587
546.505
546.419
546.328
546.234
546.136
546.034
545.929
545.82
545.708
545.592
545.473
545.35
545.225
545.098
544.966
544.83
544.697
544.565
544.435
544.307
544.181
544.057
543.934
543.813
543.694
543.576
543.46
543.345
543.231
543.118
543.006
542.895
542.784
542.674
542.564
542.454
542.345
542.236
542.127
542.018
541.909
541.8
541.691
541.583
541.474
541.365
541.257
541.148
541.039
540.931
540.822
540.713
540.604
552.455
552.267
552.081
551.898
551.719
551.546
551.379
551.218
551.062
550.913
550.77
550.631
550.498
550.369
550.245
550.124
550.007
549.892
549.779
549.666
549.551
549.437
549.324
549.212
549.102
548.994
548.887
548.784
548.682
548.582
548.483
548.384
548.287
548.194
548.104
548.019
547.939
547.862
547.79
547.723
547.66
547.602
547.548
547.499
547.452
547.409
547.369
547.332
547.297
547.264
547.232
547.201
547.171
547.141
547.11
547.078
547.044
547.007
546.967
546.923
546.876
546.824
546.768
546.707
546.641
546.571
546.495
546.416
546.332
546.244
546.153
546.058
545.961
545.86
545.756
545.648
545.537
545.423
545.305
545.184
545.06
544.932
544.8
544.668
544.539
544.411
544.284
544.16
544.037
543.915
543.796
543.678
543.561
543.446
543.332
543.219
543.107
542.996
542.885
542.775
542.666
542.557
542.448
542.339
542.23
542.122
542.014
541.905
541.797
541.688
541.58
541.472
541.363
541.255
541.147
541.038
540.93
540.821
540.713
540.604
552.458
552.274
552.093
551.915
551.742
551.573
551.41
551.253
551.102
550.957
550.817
550.682
550.552
550.426
550.305
550.186
550.07
549.957
549.844
549.73
549.613
549.495
549.378
549.263
549.15
549.037
548.926
548.818
548.712
548.607
548.504
548.401
548.3
548.204
548.111
548.024
547.94
547.86
547.783
547.71
547.64
547.575
547.515
547.458
547.404
547.354
547.307
547.263
547.221
547.182
547.145
547.11
547.076
547.043
547.01
546.976
546.941
546.903
546.862
546.818
546.77
546.718
546.662
546.601
546.536
546.466
546.392
546.315
546.234
546.149
546.061
545.97
545.877
545.781
545.682
545.581
545.475
545.366
545.254
545.138
545.02
544.896
544.766
544.637
544.51
544.384
544.259
544.136
544.015
543.895
543.777
543.66
543.545
543.431
543.318
543.206
543.095
542.985
542.875
542.766
542.658
542.549
542.441
542.333
542.225
542.117
542.009
541.901
541.794
541.686
541.578
541.47
541.362
541.253
541.145
541.037
540.929
540.821
540.712
540.604
552.461
552.283
552.108
551.936
551.768
551.605
551.447
551.296
551.151
551.011
550.876
550.746
550.621
550.499
550.381
550.265
550.152
550.041
549.929
549.814
549.694
549.571
549.45
549.33
549.211
549.092
548.975
548.861
548.75
548.643
548.535
548.428
548.324
548.224
548.129
548.038
547.951
547.866
547.783
547.704
547.627
547.553
547.484
547.418
547.355
547.296
547.239
547.186
547.136
547.089
547.045
547.004
546.965
546.929
546.893
546.857
546.82
546.781
546.739
546.694
546.646
546.595
546.539
546.48
546.415
546.347
546.275
546.2
546.122
546.041
545.957
545.87
545.782
545.692
545.599
545.504
545.405
545.303
545.197
545.087
544.974
544.855
544.728
544.603
544.478
544.355
544.233
544.112
543.992
543.874
543.757
543.642
543.528
543.415
543.304
543.193
543.083
542.974
542.866
542.757
542.65
542.542
542.435
542.327
542.22
542.113
542.005
541.898
541.79
541.683
541.575
541.467
541.36
541.252
541.144
541.036
540.928
540.82
540.712
540.604
552.464
552.294
552.125
551.96
551.799
551.643
551.493
551.349
551.21
551.078
550.95
550.827
550.708
550.592
550.478
550.366
550.256
550.146
550.037
549.92
549.795
549.666
549.538
549.411
549.283
549.156
549.03
548.91
548.796
548.686
548.576
548.464
548.356
548.254
548.156
548.062
547.97
547.88
547.791
547.704
547.618
547.535
547.455
547.378
547.304
547.232
547.164
547.099
547.038
546.981
546.928
546.879
546.834
546.794
546.755
546.717
546.678
546.638
546.595
546.55
546.502
546.452
546.397
546.339
546.277
546.211
546.142
546.07
545.995
545.918
545.839
545.758
545.675
545.591
545.506
545.417
545.326
545.232
545.133
545.03
544.923
544.809
544.687
544.565
544.444
544.323
544.203
544.085
543.967
543.851
543.736
543.622
543.51
543.399
543.289
543.179
543.071
542.963
542.856
542.748
542.642
542.535
542.428
542.321
542.215
542.108
542.001
541.894
541.787
541.68
541.573
541.465
541.358
541.25
541.143
541.035
540.927
540.82
540.712
540.604
552.468
552.306
552.146
551.989
551.837
551.69
551.549
551.413
551.284
551.161
551.043
550.929
550.818
550.708
550.599
550.492
550.385
550.278
550.169
550.048
549.916
549.777
549.641
549.505
549.366
549.227
549.091
548.964
548.848
548.736
548.624
548.508
548.397
548.292
548.192
548.094
547.997
547.901
547.805
547.709
547.613
547.518
547.426
547.336
547.247
547.161
547.079
547
546.926
546.856
546.791
546.732
546.681
546.635
546.592
546.551
546.509
546.468
546.425
546.38
546.333
546.286
546.234
546.178
546.12
546.057
545.992
545.924
545.854
545.782
545.708
545.632
545.556
545.479
545.402
545.322
545.24
545.155
545.065
544.97
544.869
544.761
544.642
544.524
544.407
544.289
544.172
544.056
543.94
543.826
543.713
543.602
543.491
543.382
543.273
543.166
543.059
542.952
542.846
542.739
542.633
542.528
542.422
542.316
542.21
542.103
541.997
541.891
541.784
541.677
541.57
541.463
541.356
541.249
541.141
541.034
540.927
540.819
540.711
540.604
552.474
552.322
552.172
552.026
551.884
551.747
551.617
551.493
551.376
551.265
551.158
551.055
550.954
550.853
550.751
550.648
550.544
550.437
550.327
550.2
550.057
549.906
549.759
549.61
549.457
549.303
549.157
549.023
548.903
548.79
548.676
548.557
548.444
548.336
548.232
548.13
548.028
547.926
547.822
547.716
547.608
547.499
547.392
547.286
547.182
547.079
546.979
546.884
546.794
546.71
546.631
546.56
546.5
546.447
546.4
546.354
546.31
546.268
546.225
546.182
546.138
546.095
546.047
545.996
545.943
545.887
545.827
545.764
545.7
545.633
545.565
545.497
545.428
545.359
545.29
545.22
545.148
545.073
544.993
544.907
544.813
544.71
544.594
544.481
544.368
544.253
544.139
544.025
543.912
543.8
543.69
543.58
543.472
543.364
543.258
543.152
543.046
542.941
542.836
542.731
542.626
542.521
542.415
542.31
542.205
542.099
541.993
541.887
541.781
541.674
541.568
541.461
541.354
541.247
541.14
541.033
540.926
540.818
540.711
540.604
552.48
552.341
552.204
552.071
551.943
551.82
551.703
551.594
551.491
551.394
551.301
551.212
551.122
551.031
550.937
550.838
550.735
550.627
550.512
550.376
550.218
550.051
549.889
549.724
549.553
549.385
549.229
549.089
548.966
548.849
548.732
548.608
548.491
548.38
548.272
548.165
548.059
547.95
547.837
547.721
547.599
547.475
547.35
547.225
547.102
546.98
546.861
546.746
546.639
546.539
546.445
546.361
546.289
546.229
546.176
546.125
546.077
546.034
545.993
545.954
545.916
545.88
545.84
545.796
545.75
545.702
545.65
545.596
545.538
545.479
545.418
545.355
545.293
545.232
545.171
545.111
545.051
544.987
544.918
544.842
544.756
544.657
544.543
544.436
544.327
544.216
544.104
543.992
543.882
543.773
543.665
543.558
543.452
543.347
543.242
543.138
543.034
542.93
542.826
542.722
542.618
542.514
542.409
542.305
542.2
542.095
541.989
541.884
541.778
541.672
541.566
541.459
541.353
541.246
541.139
541.032
540.925
540.818
540.711
540.604
552.488
552.365
552.244
552.127
552.016
551.91
551.811
551.719
551.633
551.553
551.477
551.403
551.326
551.247
551.16
551.062
550.957
550.844
550.721
550.574
550.398
550.211
550.032
549.849
549.657
549.474
549.309
549.163
549.033
548.911
548.787
548.658
548.536
548.419
548.306
548.194
548.08
547.964
547.843
547.716
547.582
547.44
547.294
547.146
547
546.856
546.716
546.582
546.457
546.341
546.232
546.134
546.05
545.98
545.918
545.862
545.812
545.768
545.731
545.699
545.671
545.645
545.617
545.584
545.55
545.513
545.472
545.427
545.378
545.327
545.272
545.214
545.154
545.098
545.043
544.991
544.942
544.891
544.836
544.773
544.698
544.607
544.497
544.395
544.287
544.177
544.066
543.957
543.85
543.744
543.639
543.535
543.431
543.329
543.226
543.124
543.021
542.919
542.816
542.714
542.611
542.507
542.404
542.3
542.195
542.091
541.986
541.881
541.775
541.67
541.564
541.458
541.351
541.245
541.138
541.031
540.924
540.818
540.711
540.604
552.498
552.394
552.294
552.197
552.106
552.021
551.943
551.873
551.808
551.749
551.692
551.633
551.571
551.502
551.421
551.321
551.207
551.084
550.948
550.786
550.591
550.384
550.188
549.985
549.772
549.575
549.4
549.243
549.1
548.968
548.836
548.699
548.572
548.448
548.328
548.21
548.086
547.959
547.83
547.694
547.551
547.389
547.219
547.042
546.866
546.697
546.534
546.384
546.244
546.116
545.994
545.883
545.785
545.703
545.635
545.573
545.523
545.476
545.447
545.425
545.415
545.404
545.393
545.374
545.363
545.336
545.306
545.27
545.232
545.192
545.144
545.076
545.006
544.948
544.892
544.843
544.803
544.766
544.732
544.689
544.637
544.57
544.483
544.368
544.25
544.137
544.027
543.92
543.815
543.713
543.611
543.511
543.41
543.31
543.21
543.11
543.01
542.909
542.807
542.706
542.604
542.501
542.398
542.295
542.191
542.087
541.983
541.878
541.773
541.668
541.562
541.456
541.35
541.244
541.137
541.031
540.924
540.817
540.71
540.603
552.509
552.43
552.354
552.283
552.217
552.158
552.105
552.061
552.022
551.988
551.951
551.909
551.86
551.801
551.72
551.609
551.478
551.338
551.186
551.005
550.79
550.567
550.357
550.137
549.905
549.696
549.511
549.335
549.166
549.015
548.876
548.718
548.588
548.454
548.327
548.209
548.066
547.915
547.775
547.627
547.491
547.304
547.112
546.891
546.677
546.479
546.292
546.14
545.991
545.861
545.727
545.607
545.499
545.397
545.338
545.27
545.231
545.167
545.163
545.145
545.168
545.17
545.189
545.187
545.228
545.195
545.163
545.126
545.089
545.083
545.04
544.937
544.818
544.759
544.687
544.63
544.596
544.573
544.577
544.566
544.558
544.517
544.446
544.328
544.204
544.091
543.982
543.879
543.779
543.681
543.583
543.486
543.39
543.292
543.195
543.097
542.998
542.899
542.799
542.699
542.598
542.496
542.394
542.291
542.188
542.084
541.98
541.876
541.771
541.666
541.56
541.455
541.349
541.243
541.136
541.03
540.923
540.817
540.71
540.603
552.523
552.472
552.425
552.384
552.349
552.321
552.301
552.289
552.284
552.281
552.265
552.237
552.198
552.145
552.061
551.931
551.77
551.603
551.424
551.217
550.987
550.758
550.542
550.315
550.061
549.851
549.654
549.441
549.215
549.037
548.903
548.721
548.601
548.462
548.305
548.115
547.935
547.743
547.575
547.407
547.249
547.064
546.864
546.65
546.438
546.246
546.059
545.915
545.776
545.637
545.513
545.366
545.26
545.166
545.056
544.972
544.88
544.835
544.775
544.782
544.734
544.789
544.798
544.863
544.877
544.93
544.934
544.964
544.987
544.945
544.908
544.791
544.671
544.504
544.372
544.223
544.129
544.074
544.187
544.275
544.42
544.457
544.419
544.248
544.143
544.04
543.931
543.833
543.739
543.647
543.555
543.462
543.369
543.275
543.181
543.085
542.988
542.89
542.792
542.692
542.592
542.491
542.39
542.287
542.185
542.081
541.978
541.874
541.769
541.664
541.559
541.453
541.348
541.242
541.136
541.029
540.923
540.816
540.71
540.603
552.539
552.519
552.507
552.504
552.508
552.519
552.536
552.564
552.603
552.644
552.649
552.629
552.593
552.547
552.454
552.295
552.093
551.879
551.641
551.38
551.14
550.939
550.727
550.515
550.272
550.064
549.771
549.509
549.282
549.075
548.925
548.734
548.577
548.391
548.161
547.924
547.697
547.463
547.252
547.057
546.875
546.702
546.528
546.355
546.187
546.032
545.864
545.754
545.579
545.455
545.297
545.153
545.042
544.933
544.828
544.748
544.623
544.531
544.41
544.368
544.357
544.421
544.486
544.556
544.614
544.654
544.674
544.65
544.664
544.651
544.676
544.613
544.555
544.421
544.331
544.254
544.23
544.207
544.28
544.318
544.397
544.419
544.385
544.211
544.101
543.965
543.869
543.782
543.698
543.613
543.526
543.438
543.349
543.259
543.167
543.074
542.979
542.883
542.785
542.687
542.587
542.487
542.386
542.284
542.182
542.079
541.976
541.872
541.768
541.663
541.558
541.452
541.347
541.241
541.135
541.029
540.923
540.816
540.71
540.603
552.555
552.571
552.601
552.647
552.7
552.762
552.823
552.9
552.994
553.102
553.118
553.112
553.064
553.024
552.906
552.705
552.461
552.157
551.789
551.469
551.231
551.086
550.914
550.725
550.517
550.272
549.971
549.632
549.356
549.076
548.885
548.68
548.472
548.254
547.985
547.71
547.403
547.088
546.803
546.598
546.424
546.287
546.155
546.044
545.921
545.825
545.663
545.488
545.294
545.178
545.017
544.921
544.8
544.716
544.664
544.628
544.55
544.421
544.333
544.299
544.279
544.28
544.326
544.376
544.428
544.484
544.504
544.523
544.555
544.58
544.605
544.58
544.535
544.465
544.397
544.355
544.34
544.338
544.361
544.376
544.394
544.375
544.274
544.079
544.021
543.908
543.804
543.728
543.656
543.58
543.499
543.415
543.331
543.245
543.156
543.065
542.972
542.877
542.78
542.683
542.584
542.484
542.383
542.282
542.18
542.077
541.974
541.87
541.766
541.662
541.557
541.452
541.346
541.241
541.135
541.029
540.922
540.816
540.71
540.603
552.573
552.628
552.707
552.815
552.925
553.065
553.182
553.314
553.434
553.62
553.641
553.797
553.634
553.624
553.449
553.187
552.871
552.498
552.037
551.678
551.403
551.293
551.11
550.899
550.774
550.555
550.19
549.732
549.369
549.055
548.774
548.504
548.236
548.005
547.714
547.451
547.117
546.707
546.36
546.183
545.991
545.871
545.736
545.683
545.574
545.561
545.429
545.223
544.966
544.855
544.824
544.822
544.667
544.584
544.521
544.454
544.349
544.247
544.172
544.152
544.133
544.152
544.19
544.24
544.303
544.36
544.406
544.449
544.502
544.534
544.558
544.559
544.547
544.515
544.479
544.451
544.434
544.424
544.42
544.41
544.388
544.313
544.203
544.037
543.935
543.837
543.761
543.677
543.619
543.553
543.473
543.393
543.315
543.234
543.148
543.059
542.967
542.873
542.777
542.68
542.581
542.482
542.382
542.28
542.179
542.076
541.973
541.87
541.766
541.661
541.556
541.451
541.346
541.24
541.134
541.028
540.922