0.010101 	9.91885e-14 	-1.13371e-16 	1.23381e-15
0.020202 	9.96722e-15 	-1.81625e-17 	8.17286e-17
