0 	580.884
0.010101 	588.57
0.020202 	588.587
0.030303 	588.591
0.040404 	588.583
