0.010101 	-2.67527e-10 	9.87941e-16 	-2.07703e-12
0.020202 	-1.31181e-11 	3.66315e-15 	-2.50272e-13
