/*--------------------------------*- C++ -*----------------------------------*\
  =========                 |
  \\      /  F ield         | OpenFOAM: The Open Source CFD Toolbox
   \\    /   O peration     | Website:  https://openfoam.org
    \\  /    A nd           | Version:  6
     \\/     M anipulation  |
\*---------------------------------------------------------------------------*/
FoamFile
{
    version     2.0;
    format      ascii;
    class       volScalarField;
    location    "100";
    object      dmdt;
}
// * * * * * * * * * * * * * * * * * * * * * * * * * * * * * * * * * * * * * //

dimensions      [0 0 0 0 0 0 0];

internalField   nonuniform List<scalar> 
4800
(
-0.219823
-0.218287
-0.216746
-0.215198
-0.21364
-0.212069
-0.210482
-0.208875
-0.207246
-0.205591
-0.203906
-0.202187
-0.200432
-0.198637
-0.196797
-0.194909
-0.192969
-0.190973
-0.188918
-0.1868
-0.184614
-0.182357
-0.180025
-0.177614
-0.17512
-0.172542
-0.169876
-0.167124
-0.164287
-0.161374
-0.158401
-0.155395
-0.1524
-0.149458
-0.146603
-0.143855
-0.141221
-0.138701
-0.136288
-0.133974
-0.131742
-0.129573
-0.127446
-0.125343
-0.123236
-0.121101
-0.118925
-0.116707
-0.114435
-0.112096
-0.109691
-0.107213
-0.104663
-0.10204
-0.0993427
-0.0965731
-0.093734
-0.0908276
-0.0878563
-0.0848218
-0.0817245
-0.078564
-0.0753402
-0.0720559
-0.0687158
-0.0653244
-0.0618875
-0.0584128
-0.0549122
-0.0513982
-0.0478802
-0.0443631
-0.0408485
-0.0373348
-0.0338192
-0.0303035
-0.0268001
-0.0233323
-0.0198972
-0.0164766
-0.0130223
-0.00952104
-0.00599625
-0.00246398
0.00106535
0.00458428
0.00808744
0.0115708
0.0150311
0.0184661
0.0218737
0.0252524
0.0286012
0.0319192
0.035206
0.0384612
0.0416847
0.0448766
0.0480373
0.0511672
0.0542668
0.0573368
0.060378
0.0633915
0.0663781
0.0693391
0.0722757
0.0751892
0.0780809
0.0809524
0.0838051
0.0866407
0.0894608
0.0922671
0.0950613
0.0978453
0.100621
0.10339
0.106154
0.108915
-0.219823
-0.218286
-0.216745
-0.215197
-0.213639
-0.212068
-0.21048
-0.208874
-0.207245
-0.20559
-0.203906
-0.202189
-0.200435
-0.19864
-0.196802
-0.194917
-0.192979
-0.190987
-0.188936
-0.186822
-0.184642
-0.182392
-0.180068
-0.177667
-0.175185
-0.17262
-0.169972
-0.167239
-0.164426
-0.161541
-0.1586
-0.155631
-0.152674
-0.149769
-0.146944
-0.144219
-0.141604
-0.1391
-0.136706
-0.134406
-0.13218
-0.13001
-0.127879
-0.125769
-0.123651
-0.121505
-0.119324
-0.117093
-0.114807
-0.112463
-0.110052
-0.10757
-0.105022
-0.1024
-0.0997064
-0.0969413
-0.0941073
-0.091204
-0.0882338
-0.0851987
-0.0820993
-0.0789362
-0.0757112
-0.0724265
-0.0690856
-0.0656937
-0.0622592
-0.0587927
-0.0553037
-0.0518009
-0.0482906
-0.0447738
-0.0412492
-0.0377162
-0.0341775
-0.0306386
-0.027106
-0.0235888
-0.0200867
-0.0166023
-0.0130986
-0.00957074
-0.00603033
-0.00248814
0.00104792
0.00457166
0.00807837
0.0115644
0.0150268
0.0184633
0.0218721
0.0252518
0.0286013
0.0319198
0.0352069
0.0384624
0.041686
0.0448781
0.0480388
0.0511687
0.0542682
0.0573382
0.0603793
0.0633927
0.0663792
0.0693402
0.0722766
0.07519
0.0780817
0.0809531
0.0838057
0.0866412
0.0894612
0.0922675
0.0950616
0.0978455
0.100621
0.10339
0.106154
0.108915
-0.219823
-0.218285
-0.216743
-0.215194
-0.213635
-0.212064
-0.210476
-0.20887
-0.207242
-0.205588
-0.203905
-0.20219
-0.200439
-0.198647
-0.196813
-0.194931
-0.192999
-0.191013
-0.188969
-0.186865
-0.184695
-0.182458
-0.18015
-0.177768
-0.175309
-0.172772
-0.170156
-0.167462
-0.164696
-0.161864
-0.158984
-0.156081
-0.153189
-0.150347
-0.147581
-0.144909
-0.142337
-0.139871
-0.137503
-0.135219
-0.132999
-0.130826
-0.128685
-0.126561
-0.124423
-0.12225
-0.120041
-0.11778
-0.115469
-0.113097
-0.110661
-0.108162
-0.105599
-0.102964
-0.100264
-0.0974954
-0.0946614
-0.0917583
-0.0887886
-0.0857526
-0.0826515
-0.0794871
-0.0762621
-0.0729809
-0.0696485
-0.0662709
-0.0628551
-0.0594067
-0.0559321
-0.0524365
-0.0489206
-0.0453853
-0.0418345
-0.0382723
-0.0347048
-0.0311372
-0.0275696
-0.0239885
-0.0203897
-0.0168057
-0.0132285
-0.00965912
-0.00609288
-0.00253342
0.00101482
0.00454746
0.00806088
0.011552
0.0150184
0.0184579
0.0218691
0.0252505
0.0286013
0.0319209
0.0352087
0.0384646
0.0416886
0.0448808
0.0480416
0.0511714
0.0542709
0.0573407
0.0603817
0.0633949
0.0663813
0.069342
0.0722783
0.0751915
0.078083
0.0809542
0.0838067
0.0866421
0.089462
0.0922681
0.0950621
0.0978459
0.100621
0.10339
0.106154
0.108915
-0.219822
-0.218282
-0.216739
-0.215189
-0.213629
-0.212057
-0.21047
-0.208864
-0.207237
-0.205584
-0.203904
-0.202191
-0.200443
-0.198656
-0.196826
-0.194951
-0.193026
-0.191049
-0.189016
-0.186925
-0.184771
-0.182552
-0.180267
-0.177911
-0.175485
-0.172986
-0.170417
-0.167778
-0.165075
-0.162318
-0.159522
-0.156711
-0.153918
-0.151171
-0.148492
-0.145892
-0.143372
-0.14094
-0.138596
-0.136325
-0.13411
-0.131936
-0.129786
-0.127642
-0.125465
-0.12325
-0.121
-0.118698
-0.116349
-0.113933
-0.111459
-0.108929
-0.106338
-0.10368
-0.100961
-0.0981775
-0.0953299
-0.0924148
-0.0894358
-0.0863924
-0.0832846
-0.0801145
-0.076886
-0.0736049
-0.0702757
-0.0669032
-0.0634922
-0.0600468
-0.056571
-0.0530663
-0.0495337
-0.0459767
-0.0423998
-0.038807
-0.0352029
-0.031589
-0.0279637
-0.0243175
-0.0206564
-0.0170113
-0.0133791
-0.00976991
-0.0061749
-0.00259438
0.000969558
0.00451414
0.00803673
0.011535
0.0150069
0.0184507
0.0218652
0.0252491
0.0286018
0.0319227
0.0352115
0.0384681
0.0416925
0.0448849
0.0480457
0.0511755
0.0542748
0.0573444
0.0603852
0.0633981
0.0663842
0.0693447
0.0722807
0.0751936
0.0780849
0.0809558
0.0838081
0.0866433
0.089463
0.0922689
0.0950628
0.0978465
0.100622
0.10339
0.106154
0.108915
-0.219821
-0.218279
-0.216733
-0.215181
-0.21362
-0.212047
-0.210459
-0.208854
-0.207228
-0.205577
-0.203899
-0.20219
-0.200446
-0.198665
-0.196842
-0.194974
-0.193059
-0.191093
-0.189074
-0.186998
-0.184864
-0.182669
-0.180412
-0.17809
-0.175703
-0.173252
-0.170738
-0.168165
-0.16554
-0.162871
-0.160174
-0.157468
-0.154776
-0.152121
-0.149522
-0.146999
-0.144548
-0.142175
-0.139872
-0.137625
-0.135422
-0.133247
-0.131083
-0.128906
-0.126689
-0.124431
-0.122131
-0.119781
-0.11738
-0.114916
-0.1124
-0.10983
-0.107198
-0.104506
-0.101759
-0.098951
-0.0960809
-0.0931479
-0.0901544
-0.0870984
-0.0839792
-0.0807998
-0.077564
-0.0742769
-0.0709418
-0.0675623
-0.0641421
-0.0606846
-0.0571921
-0.053666
-0.0501085
-0.0465235
-0.0429156
-0.0392885
-0.0356445
-0.0319806
-0.0282906
-0.0245782
-0.0208742
-0.0172007
-0.0135346
-0.00989131
-0.00626812
-0.00266525
0.000916293
0.00447474
0.00800826
0.0115151
0.0149938
0.0184429
0.0218614
0.0252484
0.0286034
0.031926
0.0352159
0.0384732
0.0416981
0.0448907
0.0480515
0.0511811
0.0542802
0.0573495
0.0603899
0.0634024
0.0663881
0.0693482
0.0722839
0.0751964
0.0780873
0.080958
0.08381
0.0866449
0.0894644
0.0922701
0.0950638
0.0978472
0.100622
0.103391
0.106155
0.108915
-0.219819
-0.218274
-0.216725
-0.21517
-0.213607
-0.212033
-0.210445
-0.208839
-0.207214
-0.205566
-0.203891
-0.202185
-0.200447
-0.198671
-0.196856
-0.194998
-0.193094
-0.191141
-0.189137
-0.187081
-0.18497
-0.182802
-0.180577
-0.178293
-0.175952
-0.173554
-0.171103
-0.168602
-0.166059
-0.163486
-0.160895
-0.158303
-0.155728
-0.153185
-0.150686
-0.148243
-0.145852
-0.143522
-0.141254
-0.139034
-0.136839
-0.134658
-0.132471
-0.130258
-0.128001
-0.125698
-0.123344
-0.120937
-0.118475
-0.115959
-0.113395
-0.110779
-0.108108
-0.105385
-0.102608
-0.0997735
-0.0968806
-0.0939291
-0.0909189
-0.0878471
-0.0847133
-0.0815199
-0.078271
-0.0749706
-0.0716209
-0.0682245
-0.0647848
-0.0613048
-0.0577865
-0.0542314
-0.0506421
-0.0470226
-0.0433776
-0.0397121
-0.0360296
-0.0323289
-0.0286091
-0.0248764
-0.0211389
-0.0174092
-0.013694
-0.0100166
-0.00636607
-0.00274072
0.000859223
0.0044326
0.00797815
0.0114946
0.0149808
0.0184359
0.0218589
0.0252494
0.0286069
0.0319313
0.0352225
0.0384805
0.0417057
0.0448984
0.0480591
0.0511885
0.0542871
0.057356
0.0603959
0.0634079
0.0663931
0.0693527
0.0722879
0.0752
0.0780904
0.0809607
0.0838123
0.0866469
0.089466
0.0922714
0.0950649
0.0978481
0.100623
0.103391
0.106155
0.108916
-0.219817
-0.218267
-0.216714
-0.215155
-0.213589
-0.212013
-0.210424
-0.208818
-0.207194
-0.205548
-0.203876
-0.202175
-0.200442
-0.198674
-0.196867
-0.195019
-0.193127
-0.191189
-0.189203
-0.187167
-0.185081
-0.182943
-0.180753
-0.178511
-0.176219
-0.173877
-0.171491
-0.169064
-0.166606
-0.164126
-0.161638
-0.159155
-0.15669
-0.154253
-0.151849
-0.149486
-0.147166
-0.144894
-0.142668
-0.140466
-0.13827
-0.136076
-0.133863
-0.131617
-0.129324
-0.126976
-0.124565
-0.122102
-0.119589
-0.117026
-0.114417
-0.11176
-0.109053
-0.106298
-0.103493
-0.100634
-0.0977182
-0.0947462
-0.0917155
-0.0886247
-0.0854729
-0.0822622
-0.0789952
-0.0756747
-0.0723035
-0.0688835
-0.0654182
-0.0619097
-0.0583604
-0.054772
-0.0511467
-0.0474877
-0.0437995
-0.0400874
-0.0363568
-0.0326127
-0.0288599
-0.0251002
-0.0213348
-0.0175801
-0.0138416
-0.0101383
-0.00646315
-0.00281607
0.00080237
0.00439113
0.00794925
0.0114758
0.0149701
0.0184314
0.0218592
0.0252533
0.0286134
0.0319395
0.0352318
0.0384905
0.0417159
0.0449085
0.0480689
0.0511978
0.0542959
0.0573642
0.0604034
0.0634148
0.0663993
0.0693582
0.0722927
0.0752043
0.0780942
0.080964
0.0838151
0.0866493
0.089468
0.0922731
0.0950662
0.0978492
0.100624
0.103392
0.106155
0.108916
-0.219814
-0.218258
-0.216699
-0.215136
-0.213565
-0.211986
-0.210395
-0.208789
-0.207165
-0.205521
-0.203852
-0.202156
-0.200429
-0.198668
-0.19687
-0.195033
-0.193154
-0.191232
-0.189264
-0.187251
-0.185191
-0.183085
-0.180931
-0.178733
-0.17649
-0.174205
-0.171884
-0.169531
-0.167154
-0.164762
-0.162367
-0.159981
-0.157613
-0.15527
-0.152956
-0.150672
-0.148416
-0.14619
-0.143994
-0.14181
-0.139623
-0.137424
-0.135192
-0.132913
-0.130575
-0.128176
-0.125724
-0.123225
-0.120674
-0.118074
-0.115428
-0.112739
-0.110003
-0.107222
-0.104391
-0.10151
-0.0985747
-0.0955839
-0.0925329
-0.0894213
-0.0862497
-0.0830191
-0.0797302
-0.0763858
-0.0729885
-0.0695407
-0.0660458
-0.0625059
-0.058923
-0.055299
-0.0516356
-0.047935
-0.0441996
-0.040434
-0.0366443
-0.0328415
-0.029042
-0.0252533
-0.0214802
-0.0177277
-0.0139789
-0.0102539
-0.00655568
-0.00288735
0.000749502
0.00435372
0.00792452
0.0114613
0.0149637
0.0184312
0.0218638
0.0252613
0.0286238
0.0319515
0.0352447
0.0385038
0.0417291
0.0449214
0.0480813
0.0512095
0.0543068
0.0573742
0.0604125
0.063423
0.0664067
0.0693648
0.0722986
0.0752094
0.0780986
0.0809678
0.0838184
0.0866521
0.0894704
0.0922751
0.0950678
0.0978504
0.100625
0.103392
0.106156
0.108916
-0.219809
-0.218246
-0.21668
-0.21511
-0.213534
-0.21195
-0.210356
-0.208748
-0.207125
-0.205482
-0.203817
-0.202126
-0.200405
-0.198652
-0.196863
-0.195037
-0.193171
-0.191265
-0.189316
-0.187326
-0.185293
-0.183218
-0.181102
-0.178947
-0.176753
-0.174525
-0.172267
-0.169983
-0.167682
-0.16537
-0.163059
-0.160756
-0.158471
-0.156207
-0.153968
-0.151751
-0.149554
-0.147373
-0.145206
-0.143035
-0.14085
-0.138641
-0.136388
-0.134087
-0.13173
-0.129311
-0.126829
-0.124293
-0.121709
-0.119084
-0.116415
-0.113702
-0.110945
-0.108143
-0.105293
-0.102393
-0.0994406
-0.0964307
-0.0933605
-0.0902291
-0.0870359
-0.0837826
-0.0804707
-0.0771015
-0.0736767
-0.0701989
-0.0666722
-0.0630986
-0.0594803
-0.0558198
-0.0521188
-0.0483789
-0.0445998
-0.0407815
-0.0369308
-0.033071
-0.0292248
-0.0254122
-0.0216454
-0.017891
-0.0141164
-0.010364
-0.0066408
-0.00295084
0.000704346
0.0043238
0.00790704
0.0114538
0.0149639
0.0184374
0.0218743
0.0252749
0.0286394
0.0319683
0.035262
0.038521
0.041746
0.0449376
0.0480965
0.0512237
0.0543199
0.0573861
0.0604234
0.0634328
0.0664154
0.0693725
0.0723054
0.0752153
0.0781038
0.0809723
0.0838222
0.0866553
0.0894731
0.0922773
0.0950696
0.0978519
0.100626
0.103393
0.106156
0.108916
-0.219804
-0.21823
-0.216655
-0.215076
-0.213493
-0.211903
-0.210304
-0.208694
-0.20707
-0.205429
-0.203767
-0.20208
-0.200365
-0.19862
-0.196841
-0.195026
-0.193173
-0.191283
-0.189353
-0.187386
-0.18538
-0.183337
-0.181258
-0.179145
-0.176999
-0.174825
-0.172626
-0.170407
-0.168174
-0.165935
-0.163696
-0.161465
-0.159248
-0.157049
-0.154868
-0.152705
-0.150553
-0.148408
-0.146262
-0.144102
-0.141919
-0.1397
-0.137435
-0.135117
-0.132738
-0.130299
-0.127801
-0.12525
-0.122652
-0.120011
-0.117331
-0.114611
-0.111847
-0.109039
-0.106182
-0.103272
-0.100306
-0.0972809
-0.0941941
-0.0910443
-0.0878302
-0.0845537
-0.0812174
-0.0778216
-0.074367
-0.0708569
-0.0672955
-0.0636856
-0.0600305
-0.056333
-0.052596
-0.0488234
-0.0450196
-0.041191
-0.0373418
-0.0334838
-0.0296284
-0.0257798
-0.0219364
-0.0180911
-0.0142544
-0.0104646
-0.00671403
-0.00300218
0.00067092
0.004305
0.00789999
0.011456
0.0149732
0.0184519
0.0218925
0.0252955
0.0286614
0.0319909
0.0352845
0.0385429
0.041767
0.0449574
0.048115
0.0512408
0.0543355
0.0574003
0.0604362
0.0634442
0.0664255
0.0693814
0.0723132
0.0752222
0.0781097
0.0809773
0.0838266
0.086659
0.0894762
0.0922798
0.0950717
0.0978535
0.100627
0.103394
0.106156
0.108916
-0.219798
-0.218211
-0.216622
-0.215032
-0.213439
-0.211841
-0.210237
-0.208623
-0.206998
-0.205357
-0.203697
-0.202015
-0.200306
-0.198569
-0.196799
-0.194995
-0.193155
-0.19128
-0.18937
-0.187424
-0.185445
-0.183433
-0.18139
-0.179318
-0.177219
-0.175096
-0.172952
-0.170792
-0.168621
-0.166445
-0.164269
-0.162098
-0.159938
-0.157791
-0.155656
-0.153532
-0.151413
-0.149294
-0.147163
-0.145012
-0.14283
-0.140605
-0.138333
-0.136005
-0.133618
-0.131173
-0.128675
-0.126127
-0.123532
-0.120891
-0.11821
-0.115489
-0.112724
-0.109914
-0.107054
-0.10414
-0.101167
-0.0981319
-0.0950312
-0.0918642
-0.0886308
-0.0853302
-0.0819647
-0.0785365
-0.0750486
-0.0715042
-0.0679066
-0.0642592
-0.0605655
-0.0568291
-0.0530546
-0.0492483
-0.0454177
-0.0415713
-0.0377116
-0.0338405
-0.0299529
-0.026055
-0.0221526
-0.0182474
-0.0143663
-0.0105442
-0.00676837
-0.0030361
0.000653642
0.00430114
0.00790673
0.0114708
0.014994
0.0184769
0.0219202
0.0253246
0.028691
0.0320202
0.0353129
0.0385701
0.0417926
0.0449813
0.0481371
0.0512609
0.0543538
0.0574168
0.0604509
0.0634573
0.0664372
0.0693917
0.0723221
0.0752299
0.0781164
0.0809831
0.0838314
0.0866631
0.0894796
0.0922826
0.095074
0.0978553
0.100628
0.103395
0.106157
0.108916
-0.219789
-0.218186
-0.216582
-0.214977
-0.213371
-0.211763
-0.21015
-0.208531
-0.206903
-0.205262
-0.203604
-0.201926
-0.200224
-0.198493
-0.196733
-0.194939
-0.193112
-0.191252
-0.18936
-0.187436
-0.185483
-0.183501
-0.181493
-0.17946
-0.177405
-0.17533
-0.173238
-0.171133
-0.169017
-0.166897
-0.164775
-0.162656
-0.160544
-0.158438
-0.156339
-0.154245
-0.152149
-0.150048
-0.147926
-0.145782
-0.143602
-0.141378
-0.139105
-0.136777
-0.134394
-0.131955
-0.129463
-0.126922
-0.124335
-0.121705
-0.119031
-0.116316
-0.113556
-0.110751
-0.107894
-0.10498
-0.102005
-0.0989626
-0.0958511
-0.0926682
-0.0894137
-0.0860885
-0.0826953
-0.0792358
-0.0757143
-0.0721345
-0.0684997
-0.064813
-0.0610786
-0.0573004
-0.053484
-0.0496362
-0.0457653
-0.0418799
-0.0379851
-0.0340798
-0.030159
-0.0262215
-0.0222731
-0.0183373
-0.0144374
-0.0105934
-0.00679714
-0.00304722
0.000657115
0.00431624
0.00793072
0.0115013
0.0150289
0.0185145
0.0219591
0.0253637
0.0287294
0.0320572
0.0353482
0.0386032
0.0418234
0.0450097
0.048163
0.0512845
0.0543751
0.0574358
0.0604678
0.0634723
0.0664503
0.0694032
0.0723322
0.0752386
0.0781239
0.0809895
0.0838369
0.0866676
0.0894834
0.0922858
0.0950765
0.0978572
0.10063
0.103396
0.106158
0.108917
-0.219779
-0.218155
-0.216531
-0.214908
-0.213286
-0.211664
-0.210041
-0.208414
-0.206782
-0.205139
-0.203483
-0.201809
-0.200112
-0.198389
-0.196637
-0.194854
-0.193039
-0.191194
-0.189319
-0.187417
-0.185489
-0.183537
-0.181563
-0.179568
-0.177555
-0.175526
-0.173482
-0.171426
-0.169361
-0.16729
-0.165216
-0.163142
-0.161069
-0.158999
-0.156929
-0.154858
-0.15278
-0.150691
-0.148578
-0.146441
-0.144264
-0.142044
-0.139775
-0.137453
-0.135079
-0.132651
-0.130171
-0.127643
-0.125069
-0.12245
-0.119789
-0.117086
-0.114338
-0.111543
-0.108694
-0.105785
-0.102811
-0.0997655
-0.0966453
-0.093449
-0.0901753
-0.0868259
-0.0834038
-0.0799122
-0.0763559
-0.0727383
-0.069064
-0.0653365
-0.06156
-0.0577387
-0.053877
-0.0499797
-0.0460531
-0.0421054
-0.0381461
-0.0341844
-0.0302263
-0.0262728
-0.022321
-0.0183797
-0.014468
-0.010608
-0.00679526
-0.00303051
0.000685989
0.00435443
0.00797558
0.0115505
0.0150805
0.0185669
0.022011
0.0254142
0.0287778
0.0321029
0.0353909
0.0386428
0.0418598
0.0450429
0.0481931
0.0513115
0.0543993
0.0574574
0.0604869
0.0634891
0.0664651
0.069416
0.0723433
0.0752482
0.0781321
0.0809965
0.0838428
0.0866726
0.0894875
0.0922892
0.0950792
0.0978594
0.100631
0.103397
0.106158
0.108917
-0.219766
-0.218116
-0.216468
-0.214823
-0.213181
-0.211541
-0.209904
-0.208267
-0.206629
-0.204984
-0.203328
-0.201658
-0.199967
-0.198251
-0.196508
-0.194735
-0.192932
-0.191101
-0.189244
-0.187363
-0.18546
-0.183538
-0.181597
-0.17964
-0.177669
-0.175683
-0.173684
-0.171675
-0.169656
-0.16763
-0.165598
-0.163563
-0.161525
-0.159484
-0.15744
-0.155388
-0.153326
-0.151247
-0.149144
-0.147012
-0.144841
-0.142627
-0.140365
-0.138053
-0.13569
-0.133275
-0.130809
-0.128295
-0.125735
-0.123132
-0.120486
-0.117798
-0.115065
-0.112283
-0.109446
-0.106546
-0.103576
-0.10053
-0.0974035
-0.094193
-0.0908995
-0.0875254
-0.0840739
-0.0805496
-0.0769574
-0.0733018
-0.0695876
-0.0658193
-0.0620011
-0.0581369
-0.0542307
-0.0502844
-0.0462997
-0.042281
-0.0382437
-0.0342096
-0.0301963
-0.026219
-0.0222826
-0.0183664
-0.0144581
-0.0105856
-0.00675822
-0.00298092
0.000745122
0.00442009
0.00804506
0.0116216
0.0151513
0.0186361
0.0220775
0.0254773
0.028837
0.032158
0.0354417
0.0386893
0.0419021
0.0450811
0.0482274
0.0513422
0.0544266
0.0574815
0.0605082
0.0635078
0.0664813
0.0694302
0.0723555
0.0752587
0.0781411
0.0810041
0.0838492
0.086678
0.089492
0.0922928
0.0950821
0.0978617
0.100633
0.103398
0.106159
0.108917
-0.21975
-0.21807
-0.216392
-0.214719
-0.213052
-0.211391
-0.209736
-0.208086
-0.206439
-0.20479
-0.203135
-0.201467
-0.199782
-0.198075
-0.19634
-0.194578
-0.192788
-0.190972
-0.189133
-0.187274
-0.185397
-0.183505
-0.181598
-0.179679
-0.177748
-0.175805
-0.17385
-0.171884
-0.169908
-0.167923
-0.16593
-0.16393
-0.161923
-0.159909
-0.157887
-0.155853
-0.153805
-0.151737
-0.149643
-0.147517
-0.145353
-0.143148
-0.140895
-0.138593
-0.136242
-0.133839
-0.131387
-0.128886
-0.12634
-0.123752
-0.12112
-0.118447
-0.115729
-0.112962
-0.11014
-0.107252
-0.10429
-0.101244
-0.0981111
-0.0948875
-0.0915742
-0.0881742
-0.0846924
-0.0811344
-0.0775057
-0.073812
-0.070058
-0.0662495
-0.0623904
-0.0584858
-0.0545406
-0.050558
-0.0465439
-0.0425055
-0.0384538
-0.0343987
-0.0303514
-0.0263253
-0.0223293
-0.0183616
-0.0144196
-0.0105241
-0.00668073
-0.00289264
0.000839907
0.00451789
0.00814311
0.0117177
0.015244
0.0187242
0.0221603
0.0255544
0.0289081
0.0322232
0.0355011
0.0387431
0.0419505
0.0451244
0.0482661
0.0513766
0.054457
0.0575083
0.0605317
0.0635282
0.0664991
0.0694455
0.0723688
0.0752701
0.0781508
0.0810123
0.0838562
0.0866838
0.0894968
0.0922967
0.0950853
0.0978641
0.100635
0.1034
0.10616
0.108917
-0.219732
-0.218015
-0.216302
-0.214595
-0.212898
-0.21121
-0.209534
-0.207867
-0.206209
-0.204554
-0.202898
-0.201234
-0.199554
-0.197855
-0.196131
-0.19438
-0.192604
-0.190805
-0.188986
-0.187151
-0.185302
-0.183442
-0.181571
-0.17969
-0.1778
-0.175899
-0.173988
-0.172065
-0.17013
-0.168183
-0.166226
-0.164258
-0.162279
-0.16029
-0.158288
-0.156271
-0.154236
-0.152179
-0.150094
-0.147977
-0.145821
-0.143624
-0.141381
-0.139089
-0.136748
-0.134356
-0.131915
-0.129426
-0.12689
-0.124312
-0.121691
-0.11903
-0.116325
-0.113573
-0.110766
-0.107893
-0.104939
-0.101896
-0.0987563
-0.0955183
-0.0921835
-0.0887563
-0.0852431
-0.0816505
-0.077985
-0.0742528
-0.0704596
-0.0666113
-0.0627129
-0.0587704
-0.0547897
-0.0507763
-0.046737
-0.0426798
-0.0386132
-0.0345445
-0.0304816
-0.0264298
-0.022382
-0.0183386
-0.0143369
-0.0104125
-0.00655381
-0.00275823
0.000976536
0.00465291
0.00827378
0.0118421
0.015361
0.0188329
0.0222606
0.0256462
0.0289917
0.0322988
0.0355692
0.0388041
0.042005
0.0451729
0.0483091
0.0514145
0.0544903
0.0575375
0.0605572
0.0635504
0.0665183
0.0694621
0.072383
0.0752822
0.0781611
0.0810211
0.0838635
0.0866899
0.0895018
0.0923008
0.0950886
0.0978667
0.100637
0.103401
0.106161
0.108917
-0.21971
-0.217951
-0.216197
-0.214452
-0.212718
-0.210999
-0.209296
-0.207608
-0.205935
-0.204273
-0.202614
-0.200953
-0.199279
-0.19759
-0.195877
-0.194141
-0.192382
-0.190603
-0.188808
-0.187
-0.185182
-0.183356
-0.181524
-0.179684
-0.177837
-0.175979
-0.174111
-0.172229
-0.170334
-0.168424
-0.1665
-0.164562
-0.162609
-0.160642
-0.158659
-0.156659
-0.154637
-0.152591
-0.150516
-0.148408
-0.146261
-0.144073
-0.141838
-0.139555
-0.137222
-0.134838
-0.132404
-0.12992
-0.12739
-0.124816
-0.1222
-0.119545
-0.116848
-0.114107
-0.111314
-0.108454
-0.10551
-0.102469
-0.0993225
-0.0960684
-0.09271
-0.0892541
-0.0857083
-0.0820808
-0.0783786
-0.0746086
-0.0707772
-0.0668902
-0.0629534
-0.0589742
-0.0549587
-0.0509134
-0.0468441
-0.0427577
-0.03866
-0.0345575
-0.0304596
-0.0263698
-0.022284
-0.0182056
-0.0141741
-0.0102325
-0.00636573
-0.00256897
0.00116178
0.00483042
0.00844111
0.0119979
0.0155044
0.018964
0.0223795
0.0257536
0.0290881
0.0323851
0.0356461
0.0388725
0.0420656
0.0452264
0.0483562
0.0514559
0.0545265
0.057569
0.0605846
0.0635741
0.0665388
0.0694797
0.072398
0.075295
0.078172
0.0810302
0.0838712
0.0866963
0.0895071
0.0923051
0.095092
0.0978694
0.100639
0.103402
0.106161
0.108918
-0.219686
-0.217879
-0.216079
-0.21429
-0.212516
-0.21076
-0.209026
-0.207313
-0.20562
-0.203944
-0.202279
-0.200618
-0.19895
-0.197272
-0.195576
-0.193862
-0.192128
-0.190376
-0.18861
-0.186834
-0.185052
-0.183266
-0.181475
-0.179678
-0.177874
-0.17606
-0.174234
-0.172393
-0.170536
-0.168661
-0.166768
-0.164858
-0.162929
-0.160983
-0.159018
-0.157033
-0.155024
-0.15299
-0.150925
-0.148825
-0.146687
-0.144506
-0.142279
-0.140002
-0.137675
-0.135294
-0.132861
-0.130378
-0.127845
-0.125267
-0.122646
-0.119987
-0.117291
-0.114554
-0.111771
-0.108923
-0.105988
-0.102949
-0.0997936
-0.0965203
-0.0931357
-0.0896491
-0.0860703
-0.0824081
-0.0786704
-0.0748641
-0.0709959
-0.0670718
-0.0630977
-0.0590813
-0.0550298
-0.0509494
-0.046845
-0.0427204
-0.0385774
-0.0344178
-0.030247
-0.0260918
-0.0219885
-0.0179331
-0.0139136
-0.00997076
-0.00610566
-0.00231618
0.00140241
0.00505554
0.00864882
0.0121875
0.015676
0.0191183
0.0225177
0.0258766
0.0291975
0.032482
0.0357317
0.0389479
0.0421319
0.0452846
0.0484071
0.0515003
0.0545651
0.0576026
0.0606136
0.0635992
0.0665603
0.0694982
0.0724138
0.0753084
0.0781833
0.0810398
0.0838792
0.0867029
0.0895125
0.0923095
0.0950955
0.0978721
0.100641
0.103404
0.106162
0.108918
-0.219661
-0.217803
-0.215954
-0.214118
-0.2123
-0.210504
-0.208734
-0.206991
-0.205272
-0.203576
-0.201898
-0.200235
-0.198573
-0.196908
-0.195233
-0.193543
-0.191839
-0.190122
-0.188396
-0.186663
-0.184926
-0.183185
-0.181439
-0.179687
-0.177927
-0.176157
-0.174373
-0.172572
-0.170751
-0.168909
-0.167044
-0.165158
-0.163251
-0.161324
-0.159375
-0.157403
-0.155407
-0.153383
-0.151327
-0.149237
-0.147106
-0.144931
-0.14271
-0.140437
-0.138111
-0.13573
-0.133293
-0.130802
-0.128259
-0.125666
-0.12303
-0.120356
-0.117648
-0.114906
-0.112124
-0.109282
-0.106353
-0.103315
-0.100149
-0.0968541
-0.0934413
-0.0899237
-0.0863126
-0.0826176
-0.0788467
-0.0750068
-0.0711048
-0.0671462
-0.0631364
-0.0590825
-0.0549921
-0.0508721
-0.0467274
-0.0425609
-0.0383782
-0.0341891
-0.030003
-0.0258282
-0.0216837
-0.0175965
-0.0135645
-0.00962074
-0.00576454
-0.00199178
0.00170472
0.00533277
0.00889994
0.0124128
0.0158769
0.0192964
0.022675
0.0260152
0.0293193
0.0325888
0.0358253
0.0390298
0.0422034
0.0453469
0.0484613
0.0515474
0.0546059
0.0576379
0.060644
0.0636253
0.0665827
0.0695173
0.0724301
0.0753222
0.0781949
0.0810495
0.0838873
0.0867097
0.0895181
0.092314
0.0950991
0.0978749
0.100643
0.103405
0.106163
0.108918
-0.219636
-0.217728
-0.21583
-0.213947
-0.212086
-0.21025
-0.208444
-0.206666
-0.204917
-0.203197
-0.201504
-0.199833
-0.198175
-0.196524
-0.194871
-0.19321
-0.19154
-0.189864
-0.188183
-0.186499
-0.184812
-0.183121
-0.181424
-0.17972
-0.178006
-0.17628
-0.174537
-0.172774
-0.170987
-0.169174
-0.167335
-0.16547
-0.163581
-0.161669
-0.159734
-0.157774
-0.155788
-0.153773
-0.151725
-0.149641
-0.147517
-0.145347
-0.143129
-0.140858
-0.138531
-0.136146
-0.1337
-0.131195
-0.128633
-0.126016
-0.123351
-0.120647
-0.117914
-0.115155
-0.112362
-0.109514
-0.106585
-0.103543
-0.100366
-0.0970492
-0.0936097
-0.0900635
-0.0864232
-0.0826992
-0.0788994
-0.0750304
-0.0710991
-0.0671105
-0.0630685
-0.0589788
-0.0548477
-0.0506821
-0.0464881
-0.0422719
-0.0380441
-0.0338188
-0.0296129
-0.0254395
-0.0212911
-0.0171742
-0.0131129
-0.00917029
-0.00533205
-0.00158786
0.00207418
0.00566553
0.00919632
0.0126747
0.016107
0.0194978
0.0228508
0.0261684
0.0294526
0.0327047
0.035926
0.0391172
0.0422792
0.0454126
0.0485182
0.0515965
0.0546484
0.0576744
0.0606754
0.0636522
0.0666057
0.0695368
0.0724466
0.0753362
0.0782067
0.0810594
0.0838955
0.0867164
0.0895236
0.0923185
0.0951026
0.0978776
0.100645
0.103407
0.106164
0.108919
-0.219614
-0.217663
-0.215723
-0.213801
-0.211904
-0.210034
-0.208194
-0.206384
-0.204604
-0.202859
-0.201149
-0.19947
-0.197812
-0.196168
-0.194533
-0.1929
-0.191267
-0.189634
-0.188
-0.186366
-0.184729
-0.183089
-0.181442
-0.179785
-0.178117
-0.176433
-0.174729
-0.173
-0.171242
-0.169453
-0.167633
-0.165785
-0.163909
-0.162008
-0.160083
-0.158131
-0.156152
-0.154143
-0.152102
-0.150023
-0.147904
-0.145739
-0.143523
-0.141253
-0.138924
-0.136532
-0.134076
-0.131555
-0.128969
-0.126321
-0.123618
-0.120871
-0.118096
-0.115301
-0.112477
-0.109606
-0.10666
-0.103608
-0.10042
-0.0970881
-0.09363
-0.0900626
-0.0864
-0.0826531
-0.0788308
-0.0749392
-0.0709852
-0.0669729
-0.0629049
-0.0587854
-0.0546173
-0.0504034
-0.0461511
-0.041874
-0.0375839
-0.0332912
-0.0290155
-0.024795
-0.0206543
-0.0165766
-0.0125287
-0.00860223
-0.00479659
-0.00109711
0.00251473
0.00605537
0.00953796
0.0129722
0.0163649
0.0197209
0.0230433
0.0263345
0.0295959
0.0328283
0.0360325
0.0392091
0.0423584
0.0454809
0.048577
0.0516471
0.0546918
0.0577116
0.0607073
0.0636794
0.0666289
0.0695565
0.0724633
0.0753502
0.0782185
0.0810692
0.0839036
0.0867231
0.0895291
0.0923229
0.0951061
0.0978803
0.100647
0.103408
0.106165
0.108919
-0.2196
-0.217623
-0.215657
-0.213712
-0.211794
-0.209906
-0.208048
-0.206221
-0.204428
-0.202671
-0.200947
-0.199252
-0.197584
-0.195938
-0.194309
-0.192692
-0.191083
-0.189482
-0.187887
-0.186294
-0.1847
-0.183102
-0.181496
-0.17988
-0.178252
-0.176604
-0.174932
-0.173229
-0.171493
-0.169721
-0.167915
-0.166076
-0.164209
-0.162313
-0.160391
-0.158442
-0.156465
-0.154459
-0.15242
-0.150346
-0.148232
-0.146072
-0.143861
-0.141594
-0.139265
-0.13687
-0.134405
-0.13187
-0.129262
-0.126584
-0.123842
-0.121048
-0.118221
-0.115369
-0.112489
-0.109569
-0.106588
-0.103514
-0.100315
-0.0969769
-0.0935124
-0.0899349
-0.0862589
-0.0824972
-0.07866
-0.0747536
-0.0707844
-0.0667561
-0.0626706
-0.0585314
-0.0543422
-0.0501061
-0.0458266
-0.0415122
-0.0371781
-0.0328457
-0.0285411
-0.0242768
-0.0200513
-0.0158973
-0.0118125
-0.00790219
-0.00414702
-0.00051405
0.00302753
0.0065009
0.00992219
0.0133021
0.0166474
0.0199625
0.0232499
0.0265111
0.0297469
0.0329576
0.0361432
0.039304
0.0424398
0.0455506
0.0486367
0.0516983
0.0547356
0.057749
0.0607392
0.0637065
0.0666519
0.069576
0.0724797
0.075364
0.07823
0.0810788
0.0839115
0.0867296
0.0895343
0.0923271
0.0951095
0.0978829
0.100649
0.103409
0.106165
0.108919
-0.2196
-0.217624
-0.215663
-0.213724
-0.211813
-0.209932
-0.208081
-0.206261
-0.204471
-0.202709
-0.200972
-0.19926
-0.197574
-0.195912
-0.194272
-0.192652
-0.191048
-0.18946
-0.187885
-0.186317
-0.184748
-0.183174
-0.181591
-0.179997
-0.17839
-0.176761
-0.175103
-0.173412
-0.171685
-0.16992
-0.168118
-0.166282
-0.164415
-0.162518
-0.160594
-0.158641
-0.156662
-0.154655
-0.152618
-0.150548
-0.148441
-0.146291
-0.144092
-0.141835
-0.139514
-0.137124
-0.134661
-0.132121
-0.129503
-0.126805
-0.124034
-0.121202
-0.118324
-0.11541
-0.112466
-0.109484
-0.106448
-0.103328
-0.100105
-0.0967623
-0.093299
-0.089722
-0.0860436
-0.0822767
-0.0784332
-0.07452
-0.0705423
-0.0665042
-0.0624074
-0.0582557
-0.0540529
-0.0498008
-0.0455003
-0.0411587
-0.0367901
-0.0324084
-0.0280244
-0.0236533
-0.0193182
-0.015068
-0.0109175
-0.0070404
-0.00337017
0.000163412
0.00360901
0.0069963
0.0103428
0.0136585
0.0169493
0.0202181
0.0234665
0.0266948
0.0299028
0.0330901
0.0362561
0.0394001
0.0425217
0.0456205
0.0486964
0.0517491
0.0547789
0.0577859
0.0607705
0.0637331
0.0666744
0.0695949
0.0724956
0.0753773
0.0782411
0.081088
0.0839191
0.0867358
0.0895393
0.0923311
0.0951126
0.0978853
0.100651
0.10341
0.106166
0.108919
-0.219623
-0.217694
-0.215779
-0.21389
-0.212029
-0.210196
-0.208388
-0.206602
-0.204834
-0.203079
-0.201334
-0.199599
-0.197879
-0.19618
-0.194504
-0.192854
-0.191226
-0.189622
-0.188034
-0.186455
-0.184876
-0.183291
-0.181696
-0.18009
-0.17847
-0.176832
-0.175165
-0.173464
-0.171727
-0.169954
-0.168146
-0.166304
-0.164428
-0.162523
-0.16059
-0.15863
-0.156646
-0.154636
-0.152602
-0.15054
-0.148447
-0.146317
-0.144141
-0.141908
-0.139611
-0.137241
-0.134795
-0.132268
-0.129658
-0.126964
-0.124189
-0.121341
-0.118433
-0.115476
-0.112476
-0.109432
-0.106332
-0.103157
-0.0998983
-0.0965447
-0.0930836
-0.0895133
-0.0858424
-0.0820818
-0.0782409
-0.0743266
-0.0703439
-0.0662967
-0.0621876
-0.0580208
-0.0538001
-0.0495263
-0.0451993
-0.0408205
-0.0363943
-0.0319258
-0.0274223
-0.0229052
-0.018417
-0.0140216
-0.00975213
-0.00597106
-0.00245594
0.000928878
0.00424752
0.00752953
0.0107889
0.0140324
0.0172629
0.0204816
0.0236881
0.0268814
0.0300602
0.0332231
0.0363686
0.0394954
0.0426026
0.0456892
0.0487547
0.0517987
0.054821
0.0578216
0.0608007
0.0637586
0.0666959
0.069613
0.0725107
0.0753899
0.0782515
0.0810966
0.0839262
0.0867415
0.0895439
0.0923348
0.0951155
0.0978875
0.100652
0.103412
0.106167
0.108919
-0.219678
-0.217857
-0.21605
-0.214268
-0.212514
-0.210782
-0.209065
-0.207352
-0.205633
-0.203899
-0.202145
-0.200374
-0.198597
-0.196829