/*--------------------------------*- C++ -*----------------------------------*\
  =========                 |
  \\      /  F ield         | OpenFOAM: The Open Source CFD Toolbox
   \\    /   O peration     | Website:  https://openfoam.org
    \\  /    A nd           | Version:  6
     \\/     M anipulation  |
\*---------------------------------------------------------------------------*/
FoamFile
{
    version     2.0;
    format      ascii;
    class       volScalarField;
    location    "100";
    object      T;
}
// * * * * * * * * * * * * * * * * * * * * * * * * * * * * * * * * * * * * * //

dimensions      [0 0 0 1 0 0 0];

internalField   nonuniform List<scalar> 
4800
(
552.522
552.466
552.411
552.354
552.298
552.241
552.183
552.125
552.066
552.006
551.945
551.882
551.819
551.754
551.687
551.618
551.548
551.476
551.401
551.324
551.245
551.163
551.079
550.991
550.901
550.807
550.71
550.611
550.508
550.402
550.294
550.185
550.077
549.97
549.867
549.767
549.671
549.58
549.493
549.409
549.328
549.249
549.172
549.096
549.019
548.942
548.863
548.783
548.7
548.615
548.528
548.438
548.346
548.251
548.153
548.052
547.949
547.844
547.736
547.626
547.514
547.399
547.282
547.163
547.042
546.919
546.794
546.668
546.541
546.414
546.286
546.159
546.031
545.904
545.777
545.649
545.522
545.396
545.272
545.148
545.022
544.895
544.768
544.639
544.511
544.384
544.257
544.13
544.005
543.88
543.757
543.634
543.513
543.393
543.273
543.155
543.038
542.923
542.808
542.694
542.582
542.471
542.36
542.251
542.143
542.035
541.929
541.823
541.718
541.614
541.511
541.408
541.306
541.204
541.103
541.002
540.901
540.8
540.7
540.6
552.522
552.466
552.411
552.354
552.298
552.241
552.183
552.125
552.066
552.006
551.945
551.883
551.819
551.754
551.687
551.619
551.548
551.476
551.402
551.325
551.246
551.164
551.08
550.993
550.903
550.81
550.714
550.615
550.513
550.408
550.302
550.194
550.087
549.981
549.879
549.78
549.685
549.595
549.508
549.424
549.344
549.265
549.188
549.111
549.034
548.957
548.877
548.797
548.714
548.629
548.541
548.451
548.359
548.264
548.166
548.066
547.963
547.858
547.75
547.64
547.527
547.413
547.296
547.177
547.055
546.932
546.808
546.682
546.556
546.429
546.301
546.174
546.046
545.918
545.79
545.661
545.533
545.406
545.279
545.152
545.025
544.897
544.769
544.64
544.512
544.384
544.257
544.131
544.005
543.88
543.757
543.634
543.513
543.392
543.273
543.155
543.038
542.923
542.808
542.694
542.582
542.471
542.36
542.251
542.143
542.035
541.929
541.823
541.718
541.614
541.511
541.408
541.306
541.204
541.103
541.002
540.901
540.8
540.7
540.6
552.522
552.466
552.41
552.354
552.298
552.241
552.183
552.125
552.066
552.006
551.945
551.883
551.819
551.754
551.688
551.619
551.549
551.477
551.403
551.327
551.248
551.167
551.083
550.997
550.908
550.816
550.721
550.623
550.523
550.42
550.315
550.21
550.105
550.002
549.902
549.805
549.712
549.622
549.537
549.454
549.373
549.295
549.217
549.14
549.062
548.984
548.903
548.821
548.738
548.652
548.563
548.473
548.38
548.284
548.186
548.086
547.983
547.878
547.77
547.66
547.547
547.433
547.316
547.197
547.076
546.953
546.83
546.704
546.578
546.452
546.324
546.196
546.067
545.938
545.809
545.679
545.55
545.42
545.29
545.16
545.03
544.9
544.771
544.642
544.513
544.385
544.258
544.131
544.005
543.881
543.757
543.634
543.513
543.392
543.273
543.155
543.038
542.922
542.808
542.694
542.582
542.471
542.36
542.251
542.143
542.035
541.929
541.823
541.718
541.614
541.511
541.408
541.306
541.204
541.102
541.002
540.901
540.8
540.7
540.6
552.522
552.466
552.41
552.354
552.297
552.24
552.183
552.125
552.066
552.006
551.945
551.883
551.819
551.754
551.688
551.62
551.55
551.478
551.405
551.329
551.251
551.17
551.087
551.002
550.914
550.823
550.73
550.634
550.536
550.436
550.335
550.233
550.132
550.032
549.935
549.841
549.749
549.661
549.576
549.494
549.414
549.335
549.257
549.179
549.1
549.02
548.938
548.855
548.77
548.682
548.592
548.5
548.406
548.31
548.211
548.111
548.007
547.902
547.794
547.683
547.57
547.455
547.338
547.219
547.099
546.976
546.853
546.728
546.602
546.475
546.346
546.217
546.088
545.957
545.827
545.696
545.564
545.432
545.299
545.167
545.035
544.904
544.774
544.644
544.515
544.386
544.259
544.132
544.006
543.881
543.757
543.634
543.513
543.392
543.273
543.155
543.038
542.922
542.808
542.694
542.582
542.47
542.36
542.251
542.143
542.035
541.929
541.823
541.718
541.614
541.511
541.408
541.306
541.204
541.102
541.002
540.901
540.8
540.7
540.6
552.522
552.466
552.41
552.354
552.297
552.24
552.183
552.124
552.065
552.005
551.945
551.883
551.819
551.755
551.689
551.621
551.551
551.48
551.407
551.332
551.254
551.175
551.093
551.008
550.922
550.833
550.742
550.648
550.553
550.456
550.359
550.261
550.163
550.067
549.972
549.881
549.792
549.706
549.623
549.541
549.461
549.382
549.304
549.225
549.144
549.063
548.979
548.894
548.807
548.718
548.626
548.533
548.438
548.34
548.24
548.139
548.034
547.928
547.82
547.709
547.596
547.48
547.363
547.244
547.123
547
546.876
546.751
546.624
546.496
546.367
546.237
546.106
545.975
545.843
545.71
545.576
545.441
545.307
545.174
545.041
544.909
544.777
544.647
544.517
544.388
544.26
544.132
544.006
543.881
543.757
543.634
543.513
543.392
543.273
543.155
543.038
542.922
542.807
542.694
542.582
542.47
542.36
542.251
542.142
542.035
541.929
541.823
541.718
541.614
541.511
541.408
541.306
541.204
541.102
541.001
540.901
540.8
540.7
540.6
552.522
552.466
552.41
552.353
552.297
552.24
552.182
552.124
552.065
552.005
551.944
551.882
551.819
551.755
551.689
551.622
551.553
551.482
551.409
551.335
551.258
551.179
551.099
551.016
550.931
550.844
550.755
550.664
550.572
550.479
550.385
550.291
550.197
550.105
550.015
549.926
549.839
549.755
549.673
549.592
549.513
549.433
549.354
549.274
549.192
549.109
549.023
548.936
548.847
548.755
548.662
548.567
548.471
548.372
548.271
548.168
548.063
547.956
547.847
547.736
547.622
547.506
547.389
547.269
547.147
547.024
546.9
546.773
546.646
546.517
546.387
546.255
546.123
545.99
545.857
545.722
545.588
545.452
545.317
545.181
545.047
544.913
544.781
544.649
544.519
544.389
544.261
544.133
544.007
543.881
543.757
543.634
543.513
543.392
543.273
543.155
543.038
542.922
542.807
542.694
542.581
542.47
542.36
542.251
542.142
542.035
541.928
541.823
541.718
541.614
541.51
541.408
541.305
541.204
541.102
541.001
540.901
540.8
540.7
540.6
552.522
552.466
552.409
552.353
552.296
552.239
552.181
552.123
552.064
552.004
551.944
551.882
551.819
551.755
551.689
551.622
551.554
551.484
551.412
551.338
551.262
551.184
551.105
551.024
550.941
550.856
550.769
550.681
550.592
550.502
550.412
550.322
550.232
550.144
550.057
549.971
549.887
549.805
549.724
549.644
549.564
549.485
549.405
549.323
549.24
549.155
549.067
548.978
548.887
548.794
548.699
548.603
548.505
548.405
548.303
548.2
548.094
547.986
547.876
547.764
547.65
547.533
547.415
547.294
547.172
547.048
546.922
546.795
546.667
546.536
546.405
546.272
546.138
546.004
545.869
545.733
545.597
545.46
545.324
545.188
545.052
544.918
544.784
544.652
544.521
544.391
544.262
544.134
544.007
543.882
543.757
543.634
543.512
543.392
543.272
543.154
543.037
542.921
542.807
542.693
542.581
542.47
542.359
542.25
542.142
542.035
541.928
541.823
541.718
541.614
541.51
541.408
541.305
541.204
541.102
541.001
540.901
540.8
540.7
540.6
552.522
552.465
552.409
552.352
552.295
552.238
552.18
552.122
552.063
552.003
551.943
551.881
551.819
551.755
551.69
551.623
551.555
551.485
551.414
551.341
551.266
551.19
551.112
551.032
550.95
550.868
550.783
550.698
550.612
550.525
550.438
550.352
550.266
550.181
550.097
550.014
549.932
549.852
549.772
549.693
549.614
549.534
549.453
549.37
549.285
549.198
549.109
549.019
548.926
548.832
548.736
548.639
548.539
548.438
548.336
548.231
548.125
548.016
547.906
547.793
547.678
547.561
547.441
547.32
547.197
547.072
546.945
546.817
546.687
546.555
546.423
546.288
546.153
546.016
545.879
545.741
545.603
545.466
545.329
545.193
545.057
544.922
544.788
544.655
544.523
544.392
544.263
544.134
544.007
543.882
543.757
543.634
543.512
543.391
543.272
543.154
543.037
542.921
542.806
542.693
542.581
542.469
542.359
542.25
542.142
542.034
541.928
541.823
541.718
541.614
541.51
541.408
541.305
541.204
541.102
541.001
540.901
540.8
540.7
540.6
552.522
552.465
552.408
552.351
552.294
552.237
552.179
552.12
552.062
552.002
551.942
551.88
551.818
551.754
551.689
551.623
551.555
551.486
551.416
551.343
551.27
551.194
551.118
551.04
550.96
550.879
550.797
550.714
550.631
550.547
550.463
550.38
550.297
550.215
550.134
550.053
549.974
549.895
549.816
549.737
549.658
549.578
549.496
549.413
549.327
549.24
549.15
549.058
548.964
548.869
548.772
548.673
548.573
548.472
548.369
548.263
548.156
548.047
547.936
547.822
547.706
547.588
547.468
547.346
547.222
547.096
546.968
546.838
546.707
546.574
546.44
546.305
546.167
546.029
545.889
545.749
545.61
545.472
545.335
545.199
545.062
544.926
544.791
544.657
544.525
544.393
544.263
544.135
544.007
543.881
543.757
543.633
543.511
543.391
543.271
543.153
543.036
542.92
542.806
542.692
542.58
542.469
542.359
542.25
542.141
542.034
541.928
541.822
541.718
541.613
541.51
541.407
541.305
541.203
541.102
541.001
540.901
540.8
540.7
540.6
552.521
552.464
552.407
552.35
552.293
552.235
552.177
552.118
552.06
552
551.94
551.879
551.816
551.753
551.689
551.623
551.556
551.487
551.417
551.346
551.273
551.199
551.123
551.047
550.969
550.89
550.81
550.73
550.649
550.568
550.486
550.406
550.325
550.245
550.166
550.088
550.01
549.932
549.854
549.776
549.697
549.616
549.534
549.45
549.364
549.275
549.185
549.092
548.998
548.902
548.805
548.706
548.606
548.504
548.401
548.295
548.188
548.078
547.966
547.852
547.735
547.616
547.495
547.372
547.247
547.12
546.991
546.86
546.727
546.593
546.457
546.321
546.183
546.044
545.904
545.764
545.625
545.485
545.346
545.206
545.067
544.93
544.794
544.659
544.526
544.394
544.264
544.135
544.007
543.881
543.756
543.633
543.511
543.39
543.27
543.152
543.035
542.92
542.805
542.692
542.58
542.468
542.358
542.249
542.141
542.034
541.928
541.822
541.717
541.613
541.51
541.407
541.305
541.203
541.102
541.001
540.901
540.8
540.7
540.6
552.521
552.464
552.406
552.348
552.291
552.233
552.174
552.116
552.057
551.997
551.937
551.876
551.814
551.751
551.687
551.622
551.555
551.487
551.418
551.347
551.275
551.202
551.128
551.053
550.977
550.9
550.822
550.744
550.665
550.586
550.507
550.429
550.35
550.272
550.195
550.118
550.041
549.964
549.887
549.809
549.73
549.649
549.567
549.482
549.396
549.307
549.216
549.124
549.03
548.934
548.837
548.738
548.638
548.536
548.432
548.327
548.219
548.109
547.996
547.881
547.764
547.645
547.522
547.398
547.272
547.143
547.013
546.88
546.746
546.611
546.474
546.336
546.197
546.058
545.918
545.777
545.636
545.495
545.353
545.212
545.071
544.933
544.796
544.66
544.526
544.394
544.263
544.134
544.006
543.88
543.755
543.632
543.51
543.389
543.269
543.151
543.034
542.919
542.804
542.691
542.579
542.468
542.358
542.249
542.141
542.033
541.927
541.822
541.717
541.613
541.51
541.407
541.305
541.203
541.102
541.001
540.901
540.8
540.7
540.6
552.521
552.463
552.405
552.346
552.288
552.23
552.171
552.113
552.054
551.994
551.934
551.873
551.811
551.748
551.685
551.62
551.553
551.486
551.417
551.347
551.277
551.205
551.132
551.058
550.984
550.908
550.833
550.756
550.679
550.603
550.526
550.449
550.372
550.296
550.22
550.144
550.068
549.992
549.915
549.837
549.758
549.677
549.595
549.51
549.424
549.335
549.245
549.153
549.059
548.964
548.867
548.768
548.668
548.566
548.463
548.357
548.249
548.139
548.026
547.911
547.793
547.672
547.549
547.423
547.296
547.166
547.034
546.9
546.765
546.628
546.49
546.35
546.21
546.069
545.928
545.786
545.644
545.501
545.358
545.215
545.074
544.934
544.797
544.661
544.526
544.394
544.262
544.133
544.005
543.879
543.754
543.63
543.508
543.387
543.268
543.15
543.033
542.918
542.803
542.69
542.578
542.467
542.357
542.248
542.14
542.033
541.927
541.821
541.717
541.613
541.51
541.407
541.305
541.203
541.102
541.001
540.901
540.8
540.7
540.6
552.521
552.462
552.403
552.344
552.285
552.226
552.167
552.108
552.049
551.99
551.929
551.869
551.807
551.745
551.681
551.616
551.551
551.484
551.416
551.347
551.277
551.206
551.134
551.062
550.989
550.916
550.841
550.767
550.692
550.617
550.542
550.466
550.391
550.316
550.241
550.166
550.091
550.015
549.938
549.861
549.782
549.701
549.619
549.535
549.449
549.361
549.271
549.179
549.086
548.991
548.894
548.796
548.696
548.595
548.492
548.386
548.278
548.168
548.055
547.939
547.82
547.699
547.575
547.448
547.319
547.188
547.055
546.919
546.782
546.644
546.504
546.362
546.22
546.077
545.933
545.79
545.646
545.503
545.359
545.217
545.075
544.935
544.797
544.66
544.525
544.392
544.261
544.131
544.003
543.877
543.752
543.628
543.506
543.386
543.267
543.149
543.032
542.917
542.802
542.689
542.577
542.466
542.356
542.248
542.14
542.033
541.926
541.821
541.716
541.613
541.509
541.407
541.305
541.203
541.102
541.001
540.9
540.8
540.7
540.6
552.52
552.46
552.4
552.341
552.281
552.222
552.162
552.103
552.044
551.984
551.924
551.863
551.802
551.74
551.676
551.612
551.547
551.48
551.413
551.345
551.276
551.206
551.136
551.065
550.993
550.921
550.849
550.776
550.703
550.629
550.556
550.482
550.408
550.334
550.26
550.185
550.111
550.035
549.959
549.882
549.803
549.722
549.64
549.557
549.471
549.383
549.294
549.203
549.11
549.015
548.919
548.822
548.723
548.622
548.519
548.414
548.306
548.196
548.082
547.966
547.846
547.724
547.599
547.471
547.341
547.208
547.074
546.937
546.798
546.658
546.517
546.374
546.229
546.083
545.937
545.791
545.645
545.501
545.358
545.216
545.074
544.934
544.795
544.658
544.523
544.39
544.258
544.129
544.001
543.874
543.749
543.626
543.504
543.384
543.265
543.147
543.03
542.915
542.801
542.688
542.576
542.465
542.356
542.247
542.139
542.032
541.926
541.821
541.716
541.612
541.509
541.407
541.305
541.203
541.102
541.001
540.9
540.8
540.7
540.6
552.52
552.459
552.398
552.337
552.277
552.216
552.156
552.096
552.037
551.977
551.917
551.856
551.795
551.733
551.67
551.606
551.542
551.476
551.409
551.342
551.274
551.205
551.136
551.066
550.996
550.926
550.855
550.784
550.712
550.64
550.568
550.495
550.422
550.349
550.276
550.202
550.128
550.053
549.977
549.9
549.821
549.741
549.66
549.576
549.491
549.404
549.315
549.224
549.132
549.038
548.942
548.845
548.747
548.647
548.544
548.439
548.332
548.222
548.108
547.991
547.871
547.748
547.621
547.492
547.361
547.227
547.091
546.952
546.812
546.671
546.528
546.383
546.238
546.091
545.944
545.797
545.651
545.505
545.36
545.216
545.073
544.932
544.792
544.655
544.52
544.386
544.255
544.125
543.997
543.871
543.746
543.623
543.502
543.381
543.263
543.145
543.029
542.914
542.8
542.687
542.575
542.464
542.355
542.246
542.138
542.032
541.926
541.82
541.716
541.612
541.509
541.406
541.304
541.203
541.102
541.001
540.9
540.8
540.7
540.6
552.519
552.457
552.394
552.333
552.271
552.21
552.149
552.089
552.028
551.968
551.908
551.848
551.787
551.725
551.663
551.599
551.535
551.47
551.404
551.337
551.27
551.203
551.135
551.067
550.998
550.929
550.86
550.79
550.72
550.649
550.578
550.507
550.435
550.363
550.291
550.217
550.144
550.069
549.993
549.917
549.838
549.759
549.677
549.594
549.509
549.423
549.334
549.244
549.152
549.058
548.963
548.867
548.768
548.669
548.567
548.463
548.356
548.245
548.131
548.014
547.893
547.769
547.641
547.511
547.378
547.243
547.105
546.966
546.824
546.681
546.537
546.391
546.245
546.098
545.95
545.803
545.655
545.508
545.362
545.215
545.07
544.928
544.788
544.65
544.515
544.381
544.25
544.121
543.993
543.867
543.743
543.62
543.499
543.379
543.26
543.143
543.027
542.912
542.798
542.685
542.574
542.463
542.354
542.245
542.138
542.031
541.925
541.82
541.715
541.612
541.509
541.406
541.304
541.203
541.102
541.001
540.9
540.8
540.7
540.6
552.518
552.454
552.391
552.327
552.264
552.202
552.14
552.079
552.018
551.958
551.898
551.838
551.777
551.716
551.654
551.591
551.527
551.462
551.397
551.332
551.266
551.2
551.133
551.066
550.999
550.932
550.864
550.796
550.727
550.658
550.588
550.518
550.447
550.376
550.304
550.231
550.158
550.084
550.009
549.932
549.854
549.775
549.694
549.611
549.526
549.44
549.352
549.262
549.17
549.076
548.982
548.885
548.787
548.688
548.587
548.483
548.376
548.266
548.152
548.034
547.912
547.787
547.658
547.526
547.392
547.255
547.117
546.976
546.833
546.689
546.543
546.396
546.249
546.1
545.952
545.803
545.655
545.506
545.358
545.21
545.064
544.921
544.781
544.643
544.508
544.375
544.244
544.115
543.988
543.862
543.738
543.616
543.495
543.376
543.257
543.14
543.025
542.91
542.796
542.684
542.573
542.462
542.353
542.244
542.137
542.03
541.924
541.819
541.715
541.611
541.508
541.406
541.304
541.202
541.101
541.001
540.9
540.8
540.7
540.6
552.517
552.452
552.386
552.321
552.257
552.193
552.131
552.068
552.007
551.946
551.886
551.826
551.765
551.704
551.643
551.581
551.518
551.454
551.39
551.326
551.261
551.196
551.131
551.066
551.001
550.935
550.869
550.802
550.735
550.667
550.598
550.529
550.459
550.388
550.317
550.245
550.172
550.098
550.024
549.947
549.87
549.791
549.71
549.627
549.543
549.457
549.368
549.278
549.186
549.093
548.998
548.901
548.803
548.704
548.603
548.5
548.393
548.283
548.169
548.05
547.927
547.801
547.671
547.538
547.403
547.265
547.124
546.982
546.838
546.692
546.545
546.398
546.249
546.099
545.949
545.798
545.647
545.496
545.347
545.2
545.055
544.912
544.771
544.634
544.499
544.367
544.236
544.108
543.982
543.857
543.733
543.612
543.491
543.372
543.254
543.138
543.022
542.908
542.795
542.682
542.571
542.461
542.352
542.244
542.136
542.03
541.924
541.819
541.715
541.611
541.508
541.406
541.304
541.202
541.101
541.001
540.9
540.8
540.7
540.6
552.516
552.449
552.382
552.315
552.249
552.184
552.12
552.057
551.995
551.933
551.872
551.812
551.752
551.691
551.63
551.569
551.507
551.445
551.382
551.32
551.257
551.194
551.13
551.067
551.003
550.939
550.874
550.809
550.743
550.676
550.608
550.54
550.471
550.401
550.33
550.258
550.186
550.113
550.038
549.962
549.885
549.806
549.725
549.643
549.559
549.472
549.384
549.294
549.201
549.107
549.012
548.915
548.816
548.717
548.616
548.513
548.407
548.297
548.182
548.062
547.938
547.811
547.68
547.546
547.409
547.27
547.128
546.985
546.839
546.692
546.544
546.395
546.244
546.093
545.942
545.79
545.638
545.487
545.336
545.188
545.042
544.899
544.759
544.622
544.488
544.357
544.227
544.1
543.974
543.85
543.728
543.607
543.487
543.368
543.251
543.135
543.02
542.906
542.793
542.681
542.57
542.46
542.351
542.243
542.135
542.029
541.923
541.818
541.714
541.611
541.508
541.405
541.304
541.202
541.101
541
540.9
540.8
540.7
540.6
552.515
552.446
552.377
552.309
552.242
552.175
552.11
552.045
551.982
551.919
551.858
551.797
551.737
551.677
551.617
551.557
551.497
551.436
551.375
551.314
551.253
551.191
551.13
551.068
551.006
550.943
550.88
550.816
550.751
550.685
550.619
550.551
550.482
550.413
550.343
550.272
550.2
550.127
550.052
549.977
549.9
549.821
549.741
549.658
549.574
549.487
549.399
549.308
549.215
549.12
549.023
548.925
548.826
548.726
548.625
548.521
548.415
548.305
548.19
548.069
547.945
547.816
547.684
547.549
547.411
547.271
547.128
546.984
546.837
546.689
546.539
546.388
546.236
546.083
545.93
545.776
545.624
545.472
545.322
545.173
545.026
544.883
544.743
544.608
544.475
544.345
544.217
544.09
543.966
543.843
543.721
543.601
543.482
543.364
543.247
543.131
543.017
542.903
542.791
542.679
542.568
542.458
542.35
542.242
542.135
542.028
541.923
541.818
541.714
541.61
541.507
541.405
541.303
541.202
541.101
541
540.9
540.8
540.7
540.6
552.515
552.444
552.374
552.304
552.235
552.167
552.101
552.035
551.971
551.907
551.845
551.784
551.724
551.665
551.605
551.546
551.487
551.428
551.368
551.309
551.25
551.19
551.13
551.07
551.01
550.949
550.887
550.824
550.76
550.695
550.629
550.562
550.494
550.425
550.355
550.285
550.213
550.14
550.066
549.991
549.914
549.835
549.755
549.672
549.588
549.501
549.412
549.321
549.227
549.131
549.033
548.933
548.833
548.731
548.629
548.525
548.418
548.307
548.192
548.071
547.945
547.816
547.683
547.547
547.409
547.267
547.124
546.979
546.831
546.682
546.531
546.378
546.224
546.068
545.913
545.757
545.602
545.449
545.299
545.151
545.004
544.862
544.724
544.59
544.459
544.33
544.204
544.08
543.957
543.835
543.714
543.595
543.477
543.36
543.243
543.128
543.014
542.901
542.788
542.677
542.567
542.457
542.348
542.241
542.134
542.028
541.922
541.817
541.713
541.61
541.507
541.405
541.303
541.202
541.101
541
540.9
540.8
540.7
540.6
552.514
552.442
552.371
552.301
552.231
552.163
552.096
552.029
551.964
551.901
551.838
551.777
551.716
551.656
551.597
551.539
551.48
551.422
551.364
551.306
551.249
551.191
551.132
551.074
551.015
550.955
550.894
550.832
550.769
550.705
550.639
550.573
550.505
550.436
550.366
550.296
550.224
550.151
550.077
550.002
549.925
549.847
549.767
549.685
549.6
549.513
549.424
549.332
549.237
549.14
549.041
548.94
548.837
548.734
548.629
548.523
548.415
548.304
548.188
548.067
547.941
547.811
547.678
547.542
547.403
547.261
547.117
546.971
546.823
546.673
546.521
546.367
546.212
546.055
545.898
545.741
545.585
545.43
545.277
545.127
544.978
544.837
544.7
544.569
544.44
544.314
544.19
544.068
543.946
543.826
543.707
543.589
543.471
543.355
543.239
543.125
543.011
542.898
542.786
542.675
542.565
542.456
542.347
542.24
542.133
542.027
541.921
541.817
541.713
541.61
541.507
541.405
541.303
541.202
541.101
541
540.9
540.8
540.7
540.6
552.514
552.443
552.372
552.301
552.232
552.164
552.097
552.031
551.966
551.902
551.839
551.777
551.716
551.656
551.596
551.537
551.479
551.421
551.364
551.307
551.25
551.193
551.136
551.078
551.019
550.96
550.9
550.839
550.776
550.712
550.646
550.58
550.512
550.443
550.374
550.303
550.231
550.158
550.084
550.009
549.933
549.855
549.775
549.693
549.609
549.522
549.433
549.341
549.246
549.148
549.048
548.945
548.841
548.735
548.628
548.52
548.41
548.297
548.18
548.059
547.934
547.804
547.671
547.534
547.395
547.253
547.108
546.962
546.813
546.663
546.51
546.356
546.2
546.043
545.884
545.725
545.566
545.408
545.251
545.096
544.946
544.805
544.672
544.544
544.419
544.296
544.175
544.055
543.935
543.817
543.699
543.582
543.466
543.35
543.235
543.121
543.008
542.896
542.784
542.673
542.563
542.454
542.346
542.239
542.132
542.026
541.921
541.816
541.713
541.609
541.507
541.404
541.303
541.202
541.101
541
540.9
540.8
540.7
540.6
552.515
552.445
552.376
552.308
552.24
552.174
552.108
552.044
551.98
551.916
551.853
551.79
551.727
551.666
551.605
551.545
551.486
551.427
551.37
551.312
551.255
551.197
551.139
551.081
551.022
550.962
550.902
550.84
550.777
550.713
550.647
550.58
550.512
550.443
550.373
550.302
550.23
550.157
550.083
550.009
549.933
549.855
549.777
549.696
549.612
549.526
549.438
549.346
549.251
549.154
549.053
548.95
548.845
548.738
548.629
548.519
548.406
548.291
548.173
548.052
547.926
547.797
547.664
547.527
547.388
547.246
547.102
546.955
546.806
546.655
546.501
546.346
546.189
546.031
545.87
545.708
545.545
545.381
545.218
545.059
544.904
544.767
544.639
544.516
544.396
544.277
544.159
544.041
543.924
543.807
543.691
543.575
543.46
543.345
543.231
543.118
543.005
542.893
542.782
542.672
542.562
542.453
542.345
542.238
542.131
542.025
541.92
541.816
541.712
541.609
541.506
541.404
541.303
541.201
541.101
541
540.9
540.8
540.7
540.6
552.517
552.451
552.386
552.321
552.258
552.195
552.133
552.071
552.009
551.946
551.882
551.818
551.753
551.689
551.626
551.563
551.501
551.441
551.381
551.321
551.261
551.201
551.141
551.08
551.019
550.957
550.895
550.832
550.768
550.702
550.636
550.569
550.5
550.431
550.36
550.289
550.217
550.144
550.07
549.996
549.921
549.845
549.768
549.689
549.607
549.523
549.435
549.345
549.252
549.155
549.056
548.953
548.848
548.741
548.631
548.52
548.406
548.29
548.171
548.049
547.924
547.795
547.663
547.527
547.388
547.246
547.101
546.954
546.804
546.652
546.497
546.34
546.181
546.02
545.856
545.69
545.521
545.35
545.179
545.01
544.844
544.718
544.601
544.486
544.372
544.257
544.142
544.027
543.913
543.798
543.683
543.568
543.454
543.34
543.227
543.114
543.002
542.891
542.78
542.67
542.56
542.452
542.344
542.237
542.131
542.025
541.92
541.816
541.712
541.609
541.506
541.404
541.302
541.201
541.1
541
540.9
540.8
540.7
540.6
552.52
552.461
552.403
552.345
552.288
552.231
552.174
552.116
552.057
551.996
551.932
551.866
551.798
551.73
551.662
551.594
551.528
551.462
551.398
551.333
551.269
551.204
551.138
551.073
551.007
550.941
550.875
550.809
550.742
550.675
550.607
550.538
550.469
550.4
550.329
550.257
550.185
550.113
550.04
549.966
549.893
549.819
549.745
549.668
549.589
549.507
549.422
549.333
549.242
549.148
549.051
548.952
548.849
548.744
548.636
548.526
548.413
548.297
548.179
548.059
547.935
547.808
547.677
547.542
547.403
547.261
547.115
546.966
546.814
546.659
546.501
546.341
546.178
546.012
545.844
545.673
545.499
545.322
545.14
544.953
544.745
544.662
544.562
544.456
544.348
544.237
544.126
544.014
543.901
543.788
543.675
543.562
543.449
543.336
543.223
543.111
543
542.888
542.778
542.668
542.559
542.451
542.343
542.236
542.13
542.024
541.919
541.815
541.712
541.608
541.506
541.404
541.302
541.201
541.1
541
540.9
540.8
540.7
540.6
552.525
552.476
552.427
552.379
552.33
552.282
552.233
552.181
552.126
552.068
552.004
551.936
551.864
551.79
551.714
551.639
551.564
551.491
551.419
551.347
551.274
551.201
551.128
551.054
550.981
550.908
550.836
550.764
550.693
550.622
550.552
550.482
550.413
550.344
550.274
550.203
550.132
550.06
549.988
549.916
549.844
549.774
549.702
549.63
549.554
549.475
549.391
549.305
549.216
549.125
549.032
548.938
548.841
548.741
548.639
548.534
548.427
548.317
548.204
548.087
547.968
547.844
547.715
547.581
547.442
547.299
547.151
547
546.844
546.685
546.522
546.355
546.185
546.013
545.839
545.661
545.481
545.296
545.107
544.912
544.703
544.622
544.529
544.429
544.325
544.219
544.111
544.001
543.891
543.78
543.668
543.556
543.444
543.332
543.22
543.108
542.997
542.886
542.776
542.667
542.558
542.45
542.342
542.235
542.129
542.024
541.919
541.815
541.711
541.608
541.506
541.404
541.302
541.201
541.1
541
540.9
540.8
540.7
540.6
552.532
552.495
552.458
552.421
552.384
552.345
552.305
552.262
552.214
552.16
552.099
552.029
551.952
551.871
551.785
551.698
551.611
551.525
551.44
551.357
551.273
551.19
551.106
551.02
550.936
550.854
550.771
550.691
550.612
550.536
550.462
550.391
550.325
550.259
550.192
550.124
550.055
549.985
549.914
549.843
549.772
549.704
549.636
549.568
549.497
549.419
549.337
549.251
549.164
549.076
548.989
548.902
548.816
548.727
548.636
548.544
548.448
548.35
548.248
548.141
548.029
547.912
547.787
547.654
547.515
547.371
547.22
547.065
546.905
546.74
546.568
546.392
546.213
546.032
545.85
545.662
545.472
545.28
545.085
544.886
544.681
544.595
544.503
544.407
544.306
544.203
544.097
543.99
543.882
543.772
543.662
543.551
543.44
543.328
543.217
543.106
542.995
542.885
542.775
542.666
542.557
542.449
542.342
542.235
542.129
542.023
541.919
541.815
541.711
541.608
541.506
541.404
541.302
541.201
541.1
541
540.9
540.8
540.7
540.6
552.539
552.517
552.493
552.468
552.44
552.411
552.381
552.348
552.311
552.266
552.21
552.142
552.064
551.976
551.88
551.777
551.67
551.564
551.461
551.357
551.255
551.163
551.071
550.97
550.874
550.781
550.684
550.589
550.497
550.411
550.333
550.265
550.206
550.15
550.088
550.026
549.964
549.896
549.823
549.75
549.676
549.607
549.539
549.478
549.412
549.334
549.251
549.166
549.077
548.991
548.913
548.838
548.767
548.696
548.623
548.549
548.472
548.398
548.312
548.216
548.117
548.012
547.89
547.763
547.623
547.482
547.33
547.174
547.007
546.838
546.655
546.472
546.281
546.095
545.905
545.697
545.501
545.308
545.098
544.884
544.67
544.576
544.483
544.388
544.29
544.189
544.086
543.981
543.874
543.766
543.656
543.546
543.436
543.325
543.214
543.104
542.993
542.883
542.774
542.665
542.556
542.448
542.341
542.234
542.128
542.023
541.918
541.814
541.711
541.608
541.506
541.404
541.302
541.201
541.1
541
540.9
540.8
540.7
540.6
552.547
552.539
552.529
552.511
552.488
552.463
552.441
552.421
552.399
552.364
552.319
552.261
552.195
552.112
552.01
551.89
551.754
551.616
551.483
551.34
551.194
551.113
551.038
550.906
550.801
550.703
550.588
550.476
550.36
550.253
550.172
550.114
550.08
550.042
549.986
549.927
549.867
549.785
549.704
549.622
549.536
549.464
549.387
549.341
549.288
549.203
549.121
549.035
548.94
548.849
548.788
548.728
548.679
548.632
548.581
548.532
548.481
548.448
548.381
548.287
548.196
548.114
547.985
547.886
547.755
547.634
547.469
547.32
547.142
546.986
546.77
546.585
546.441
546.272
546.017
545.74
545.712
545.51
545.15
544.936
544.671
544.562
544.467
544.373
544.278
544.179
544.077
543.973
543.868
543.761
543.652
543.543
543.433
543.323
543.212
543.102
542.992
542.882
542.773
542.664
542.555
542.448
542.341
542.234
542.128
542.023
541.918
541.814
541.711
541.608
541.506
541.404
541.302
541.201
541.1
541
540.9
540.8
540.7
540.6
552.554
552.56
552.558
552.537
552.505
552.475
552.469
552.457
552.453
552.416
552.38
552.347
552.33
552.281
552.19
552.063
551.878
551.688
551.519
551.302
551.016
551.024
551.077
550.814
550.711
550.636
550.489
550.383
550.234
550.078
550.009
549.974
549.994
549.979
549.924
549.844
549.717
549.606
549.503
549.425
549.315
549.259
549.177
549.131
549.053
548.962
548.891
548.832
548.758
548.699
548.684
548.654
548.607
548.553
548.499
548.436
548.412
548.381
548.335
548.257
548.214
548.144
548.06
548.039
547.955
547.87
547.609
547.48
547.335
547.281
546.811
546.501
546.982
546.997
545.815
545.248
546.94
546.243
544.821
545.152
544.677
544.55
544.454
544.362
544.269
544.171
544.071
543.968
543.864
543.757
543.649
543.541
543.431
543.321
543.211
543.101
542.991
542.881
542.772
542.663
542.555
542.447
542.34
542.234
542.128
542.023
541.918
541.814
541.711
541.608
541.506
541.404
541.302
541.201
541.1
541
540.9
540.8
540.7
540.6
552.561
552.577
552.566
552.511
552.448
552.4
552.489
552.417
552.424
552.298
552.254
552.324
552.468
552.482
552.398
552.309
552.043
551.774
551.58
551.287
551.087
551.035
550.868
550.673
550.607
550.447