/*--------------------------------*- C++ -*----------------------------------*\
  =========                 |
  \\      /  F ield         | OpenFOAM: The Open Source CFD Toolbox
   \\    /   O peration     | Website:  https://openfoam.org
    \\  /    A nd           | Version:  6
     \\/     M anipulation  |
\*---------------------------------------------------------------------------*/
FoamFile
{
    version     2.0;
    format      ascii;
    class       volVectorField;
    location    "100";
    object      U;
}
// * * * * * * * * * * * * * * * * * * * * * * * * * * * * * * * * * * * * * //

dimensions      [0 1 -1 0 0 0 0];

internalField   nonuniform List<vector> 
4800
(
(1.33395e-06 0 -1.16199e-06)
(3.67665e-06 0 -1.34575e-06)
(6.00231e-06 0 -1.37601e-06)
(8.17072e-06 0 -1.29562e-06)
(1.00643e-05 0 -1.15082e-06)
(1.16155e-05 0 -9.54081e-07)
(1.27428e-05 0 -7.07904e-07)
(1.33645e-05 0 -4.15062e-07)
(1.3367e-05 0 -5.59241e-08)
(1.26794e-05 0 3.28788e-07)
(1.1186e-05 0 7.73451e-07)
(8.81568e-06 0 1.24506e-06)
(5.45752e-06 0 1.78208e-06)
(1.00352e-06 0 2.37346e-06)
(-4.61286e-06 0 2.99825e-06)
(-1.15116e-05 0 3.61892e-06)
(-1.98305e-05 0 4.30509e-06)
(-2.96934e-05 0 5.00592e-06)
(-4.13103e-05 0 5.73958e-06)
(-5.48876e-05 0 6.59689e-06)
(-7.07751e-05 0 7.57222e-06)
(-8.93821e-05 0 8.60301e-06)
(-0.000111302 0 9.60749e-06)
(-0.000137399 0 1.06092e-05)
(-0.000168652 0 1.20983e-05)
(-0.000205988 0 1.74245e-05)
(-0.000250623 0 2.71551e-05)
(-0.000307038 0 3.95635e-05)
(-0.000380624 0 5.75049e-05)
(-0.000467434 0 8.54903e-05)
(-0.000578629 0 0.000101092)
(-0.000751798 0 8.65653e-05)
(-0.000959873 0 7.88069e-05)
(-0.00114859 0 -1.43305e-05)
(-0.00128583 0 -2.55336e-05)
(-0.00137922 0 0.000100058)
(-0.0014614 0 -4.7351e-06)
(-0.00154465 0 -3.36024e-05)
(-0.00159766 0 -1.4656e-05)
(-0.0016106 0 -4.07686e-05)
(-0.00161173 0 -8.28157e-05)
(-0.00161332 0 -6.37097e-05)
(-0.00148107 0 -4.75815e-05)
(-0.00132489 0 -9.42956e-05)
(-0.00123835 0 -0.000126452)
(-0.00120499 0 -3.7828e-05)
(-0.0010986 0 3.88364e-05)
(-0.000957832 0 -0.000173583)
(-0.000897705 0 -0.000103422)
(-0.000851266 0 6.59551e-05)
(-0.000780103 0 -0.000162885)
(-0.000767444 0 -4.71188e-05)
(-0.000730551 0 -9.34742e-05)
(-0.000723791 0 -0.000105931)
(-0.000718286 0 -0.000107171)
(-0.000719163 0 -0.000110487)
(-0.000715906 0 -0.000106901)
(-0.000717214 0 -0.000105673)
(-0.000718042 0 -7.2411e-05)
(-0.000697863 0 -6.9641e-05)
(-0.000657763 0 -0.000114162)
(-0.00064185 0 -0.000131373)
(-0.000639683 0 -0.000140476)
(-0.000634803 0 -0.000175692)
(-0.00062866 0 -0.000210039)
(-0.000629491 0 -0.00022209)
(-0.000643411 0 -0.000196153)
(-0.000675835 0 -0.000152113)
(-0.000718986 0 -0.000159155)
(-0.000757536 0 -0.000177975)
(-0.000775596 0 -0.000198648)
(-0.000780228 0 -0.000207618)
(-0.000748761 0 -0.000230719)
(-0.000690838 0 -0.000244944)
(-0.000655369 0 -0.000241601)
(-0.00063884 0 -0.000225202)
(-0.000604856 0 -0.000231058)
(-0.000559171 0 -0.000249895)
(-0.000642857 0 -0.000304201)
(4.56874e-06 0 -0.000380535)
(1.03494e-13 0 1.28932e-13)
(-5.5285e-13 0 8.11896e-14)
(3.46884e-13 0 3.68142e-14)
(2.98065e-13 0 1.35764e-14)
(2.82261e-13 0 1.51532e-15)
(2.85032e-13 0 -4.99087e-15)
(2.98329e-13 0 -8.73302e-15)
(3.1777e-13 0 -1.09211e-14)
(3.40601e-13 0 -1.20784e-14)
(3.64981e-13 0 -1.24648e-14)
(3.89569e-13 0 -1.22541e-14)
(4.13295e-13 0 -1.15722e-14)
(4.35252e-13 0 -1.04994e-14)
(4.54744e-13 0 -9.11075e-15)
(4.713e-13 0 -7.50653e-15)
(4.84564e-13 0 -5.7775e-15)
(4.9424e-13 0 -3.97089e-15)
(5.00183e-13 0 -2.12155e-15)
(5.02427e-13 0 -2.86898e-16)
(5.01077e-13 0 1.47568e-15)
(4.96234e-13 0 3.1483e-15)
(4.88044e-13 0 4.74415e-15)
(4.76747e-13 0 6.27037e-15)
(4.62642e-13 0 7.71522e-15)
(4.46012e-13 0 9.06401e-15)
(4.27102e-13 0 1.03102e-14)
(4.06121e-13 0 1.14468e-14)
(3.83236e-13 0 1.24594e-14)
(3.58573e-13 0 1.33312e-14)
(3.32241e-13 0 1.4057e-14)
(3.04379e-13 0 1.46472e-14)
(2.75182e-13 0 1.51236e-14)
(2.44894e-13 0 1.55116e-14)
(2.13763e-13 0 1.58355e-14)
(1.82004e-13 0 1.61142e-14)
(1.49756e-13 0 1.6357e-14)
(1.17085e-13 0 1.65597e-14)
(8.40092e-14 0 1.67071e-14)
(5.05655e-14 0 1.67822e-14)
(1.68798e-14 0 1.6772e-14)
(1.29532e-06 0 -3.76485e-06)
(3.8714e-06 0 -3.44251e-06)
(6.17515e-06 0 -3.18017e-06)
(8.41839e-06 0 -2.83231e-06)
(1.03899e-05 0 -2.38514e-06)
(1.20224e-05 0 -1.82361e-06)
(1.32363e-05 0 -1.13647e-06)
(1.39457e-05 0 -3.20578e-07)
(1.40503e-05 0 6.72582e-07)
(1.34554e-05 0 1.75741e-06)
(1.20608e-05 0 3.02484e-06)
(9.78955e-06 0 4.40218e-06)
(6.5408e-06 0 5.97869e-06)
(2.17851e-06 0 7.65568e-06)
(-3.33021e-06 0 9.46532e-06)
(-1.00705e-05 0 1.14795e-05)
(-1.82168e-05 0 1.37795e-05)
(-2.78358e-05 0 1.63017e-05)
(-3.91416e-05 0 1.91542e-05)
(-5.23074e-05 0 2.25087e-05)
(-6.76261e-05 0 2.63702e-05)
(-8.53781e-05 0 3.10773e-05)
(-0.000106096 0 3.72115e-05)
(-0.000130574 0 4.51632e-05)
(-0.000160484 0 5.42231e-05)
(-0.00019616 0 6.52414e-05)
(-0.000239367 0 7.73201e-05)
(-0.000292199 0 9.45096e-05)
(-0.000361251 0 0.000113229)
(-0.000445646 0 0.000144883)
(-0.000542016 0 0.000211912)
(-0.000691883 0 0.000255746)
(-0.000871503 0 0.000270451)
(-0.000996507 0 0.000337468)
(-0.00110669 0 0.000348249)
(-0.00125799 0 0.000230388)
(-0.00138141 0 0.000160633)
(-0.00145 0 0.000126302)
(-0.00146901 0 9.24905e-05)
(-0.00143862 0 -1.16116e-05)
(-0.00140706 0 -2.1138e-05)
(-0.0013978 0 -7.135e-05)
(-0.00134521 0 -0.000195858)
(-0.00119284 0 -0.000234542)
(-0.00104825 0 -0.000223868)
(-0.000968513 0 -6.74647e-05)
(-0.000877885 0 -6.78229e-05)
(-0.000778401 0 -0.000172172)
(-0.000682936 0 -5.37054e-05)
(-0.000580574 0 -9.61245e-05)
(-0.000517118 0 -3.06291e-05)
(-0.00045189 0 5.48721e-05)
(-0.000375135 0 -1.15274e-05)
(-0.000337753 0 7.74532e-05)
(-0.00030322 0 6.37907e-05)
(-0.000272897 0 0.000112228)
(-0.000251941 0 7.80279e-05)
(-0.0002492 0 9.99639e-05)
(-0.000248694 0 6.04239e-05)
(-0.000244317 0 4.34607e-05)
(-0.000236078 0 4.86827e-05)
(-0.000231506 0 6.90361e-05)
(-0.000236696 0 9.49335e-05)
(-0.000247006 0 0.000121954)
(-0.000262659 0 0.000148013)
(-0.000298754 0 0.000188153)
(-0.000357648 0 0.000190548)
(-0.000396267 0 0.000175016)
(-0.000410948 0 0.000166775)
(-0.000415611 0 0.000156379)
(-0.000395901 0 0.000120438)
(-0.000342108 0 9.49449e-05)
(-0.000302992 0 6.30873e-05)
(-0.000285546 0 5.88045e-05)
(-0.000281184 0 6.6379e-05)
(-0.000279286 0 9.13595e-05)
(-0.000286461 0 0.00010404)
(-0.000232084 0 -0.0002453)
(-0.000666827 0 -0.000168571)
(5.6695e-06 0 -0.000428636)
(-1.62851e-13 0 3.715e-13)
(-6.90478e-13 0 2.03137e-13)
(2.78817e-13 0 8.64114e-14)
(2.62705e-13 0 2.94973e-14)
(2.63794e-13 0 -5.54054e-16)
(2.74784e-13 0 -1.75725e-14)
(2.92399e-13 0 -2.77724e-14)
(3.14424e-13 0 -3.38518e-14)
(3.39058e-13 0 -3.70622e-14)
(3.64805e-13 0 -3.80686e-14)
(3.90462e-13 0 -3.73221e-14)
(4.1505e-13 0 -3.51684e-14)
(4.37713e-13 0 -3.18686e-14)
(4.57737e-13 0 -2.76598e-14)
(4.74634e-13 0 -2.28056e-14)
(4.881e-13 0 -1.75497e-14)
(4.97896e-13 0 -1.20629e-14)
(5.03867e-13 0 -6.47812e-15)
(5.06024e-13 0 -9.37135e-16)
(5.04512e-13 0 4.43522e-15)
(4.99502e-13 0 9.5824e-15)
(4.91166e-13 0 1.45052e-14)
(4.79718e-13 0 1.92038e-14)
(4.65435e-13 0 2.36445e-14)
(4.48607e-13 0 2.77713e-14)
(4.29485e-13 0 3.1531e-14)
(4.0827e-13 0 3.48827e-14)
(3.85121e-13 0 3.78022e-14)
(3.60171e-13 0 4.02876e-14)
(3.33557e-13 0 4.23643e-14)
(3.05445e-13 0 4.40806e-14)
(2.76047e-13 0 4.54958e-14)
(2.45606e-13 0 4.66684e-14)
(2.14366e-13 0 4.76488e-14)
(1.82525e-13 0 4.8473e-14)
(1.50202e-13 0 4.91582e-14)
(1.17435e-13 0 4.97013e-14)
(8.42316e-14 0 5.00875e-14)
(5.06305e-14 0 5.03086e-14)
(1.68697e-14 0 5.03844e-14)
(1.32175e-06 0 -6.42137e-06)
(4.04007e-06 0 -6.25111e-06)
(6.5089e-06 0 -5.91591e-06)
(8.92789e-06 0 -5.38536e-06)
(1.10764e-05 0 -4.65143e-06)
(1.2888e-05 0 -3.7079e-06)
(1.42861e-05 0 -2.54322e-06)
(1.51781e-05 0 -1.1519e-06)
(1.54849e-05 0 5.0633e-07)
(1.50708e-05 0 2.39479e-06)
(1.38755e-05 0 4.5051e-06)
(1.17851e-05 0 6.81948e-06)
(8.70842e-06 0 9.44201e-06)
(4.5073e-06 0 1.23263e-05)
(-7.57416e-07 0 1.52991e-05)
(-7.32507e-06 0 1.85442e-05)
(-1.52679e-05 0 2.2236e-05)
(-2.4569e-05 0 2.61382e-05)
(-3.54966e-05 0 3.0504e-05)
(-4.8151e-05 0 3.55958e-05)
(-6.28293e-05 0 4.1352e-05)
(-7.97533e-05 0 4.80641e-05)
(-9.93199e-05 0 5.6537e-05)
(-0.000122093 0 6.72384e-05)
(-0.000147727 0 8.21236e-05)
(-0.000179611 0 9.78597e-05)
(-0.000218509 0 0.000117956)
(-0.000262639 0 0.000149285)
(-0.000315317 0 0.000191223)
(-0.000378392 0 0.000254404)
(-0.000460285 0 0.000339089)
(-0.000574171 0 0.000405592)
(-0.000741871 0 0.000366165)
(-0.000907116 0 0.000227797)
(-0.00103375 0 4.18401e-05)
(-0.00113394 0 -3.11819e-05)
(-0.00119177 0 4.6627e-05)
(-0.00120536 0 6.45053e-05)
(-0.00118335 0 2.8263e-05)
(-0.00115351 0 -2.71844e-05)
(-0.00113695 0 -9.77933e-05)
(-0.00112837 0 -0.000127552)
(-0.00114447 0 -0.000148539)
(-0.00104931 0 -0.000320798)
(-0.00086123 0 -0.000383498)
(-0.000757118 0 -0.000311379)
(-0.000663567 0 -0.000321432)
(-0.000646019 0 -0.000208632)
(-0.00048027 0 -0.000324563)
(-0.000456341 0 -0.000230888)
(-0.000378795 0 -0.000215415)
(-0.000336908 0 -0.000152288)
(-0.000227138 0 -0.000213001)
(-0.000262015 0 -7.71333e-05)
(-0.000172964 0 -0.000127917)
(-0.000166124 0 -6.52934e-05)
(-9.30808e-05 0 -0.000101192)
(-8.99014e-05 0 -6.33137e-05)
(-5.0273e-05 0 -7.23668e-05)
(-4.26725e-05 0 -5.8935e-05)
(-3.73092e-05 0 -5.7123e-05)
(-1.8545e-05 0 -5.60869e-05)
(-2.48577e-05 0 -3.89184e-05)
(-1.88778e-05 0 -2.87332e-05)
(-2.42409e-05 0 -1.40655e-05)
(-4.77352e-06 0 -5.56319e-06)
(2.4871e-05 0 -3.74379e-06)
(2.8118e-05 0 4.50938e-06)
(3.18052e-05 0 1.63495e-06)
(0.000103143 0 -4.85839e-05)
(9.18783e-05 0 -7.11037e-05)
(9.42372e-05 0 -8.3824e-05)
(8.28021e-05 0 -9.41849e-05)
(7.88195e-05 0 -9.22305e-05)
(9.09954e-05 0 -7.5958e-05)
(0.000139174 0 -6.40645e-05)
(9.87633e-05 0 -4.80369e-05)
(0.00050605 0 -5.1691e-05)
(-0.00055049 0 -0.00018278)
(6.3107e-06 0 -0.000443125)
(-2.43735e-13 0 3.20254e-13)
(-9.59095e-13 0 1.80811e-13)
(1.73101e-13 0 7.39006e-14)
(2.11294e-13 0 1.85053e-14)
(2.35396e-13 0 -1.51391e-14)
(2.57814e-13 0 -3.68148e-14)
(2.8205e-13 0 -5.09663e-14)
(3.0848e-13 0 -5.97511e-14)
(3.36385e-13 0 -6.43761e-14)
(3.64721e-13 0 -6.56061e-14)
(3.9247e-13 0 -6.40326e-14)
(4.18748e-13 0 -6.016e-14)
(4.4276e-13 0 -5.44109e-14)
(4.63807e-13 0 -4.71728e-14)
(4.81411e-13 0 -3.88516e-14)
(4.95307e-13 0 -2.98323e-14)
(5.05312e-13 0 -2.04215e-14)
(5.11309e-13 0 -1.08654e-14)
(5.1334e-13 0 -1.38914e-15)
(5.11596e-13 0 7.81541e-15)
(5.06304e-13 0 1.66303e-14)
(4.97665e-13 0 2.50107e-14)
(4.85887e-13 0 3.2934e-14)
(4.71209e-13 0 4.03529e-14)
(4.53898e-13 0 4.71905e-14)
(4.34213e-13 0 5.33658e-14)
(4.12392e-13 0 5.88231e-14)
(3.88641e-13 0 6.3548e-14)
(3.63135e-13 0 6.7569e-14)
(3.36034e-13 0 7.09476e-14)
(3.0751e-13 0 7.37656e-14)
(2.7777e-13 0 7.61104e-14)
(2.47047e-13 0 7.8063e-14)
(2.15568e-13 0 7.96895e-14)
(1.83513e-13 0 8.10356e-14)
(1.50985e-13 0 8.21262e-14)
(1.18014e-13 0 8.29717e-14)
(8.46164e-14 0 8.35814e-14)
(5.08624e-14 0 8.39797e-14)
(1.69556e-14 0 8.42142e-14)
(1.4247e-06 0 -9.17164e-06)
(4.37488e-06 0 -8.92825e-06)
(7.04593e-06 0 -8.44863e-06)
(9.69149e-06 0 -7.70995e-06)
(1.20839e-05 0 -6.69427e-06)
(1.41538e-05 0 -5.38631e-06)
(1.58227e-05 0 -3.7698e-06)
(1.69931e-05 0 -1.82681e-06)
(1.75764e-05 0 4.34663e-07)
(1.74577e-05 0 3.1686e-06)
(1.65484e-05 0 6.06497e-06)
(1.47365e-05 0 9.386e-06)
(1.19004e-05 0 1.29777e-05)
(8.08184e-06 0 1.6935e-05)
(3.04463e-06 0 2.1144e-05)
(-3.26771e-06 0 2.56707e-05)
(-1.07321e-05 0 3.07324e-05)
(-1.96091e-05 0 3.60826e-05)
(-2.99311e-05 0 4.20336e-05)
(-4.17526e-05 0 4.89558e-05)
(-5.53722e-05 0 5.66957e-05)
(-7.08363e-05 0 6.57299e-05)
(-8.85078e-05 0 7.69563e-05)
(-0.000108768 0 9.04617e-05)
(-0.000132143 0 0.000106493)
(-0.000157024 0 0.000129474)
(-0.000185671 0 0.000159227)
(-0.000220721 0 0.000195162)
(-0.000258631 0 0.000245546)
(-0.000300799 0 0.000319274)
(-0.000349569 0 0.000426027)
(-0.000424322 0 0.00050214)
(-0.000504865 0 0.000503466)
(-0.000565726 0 0.000472497)
(-0.000599305 0 0.000474428)
(-0.000496274 0 0.000626336)
(-0.000669328 0 0.000474842)
(-0.000803904 0 0.000268732)
(-0.000853466 0 8.12181e-05)
(-0.000863786 0 -8.1775e-06)
(-0.000858405 0 -7.71782e-05)
(-0.000841208 0 -0.000146679)
(-0.000828661 0 -0.000227893)
(-0.000713572 0 -0.00046842)
(-0.000678698 0 -0.000385799)
(-0.000604699 0 -0.000317881)
(-0.000497006 0 -0.000354269)
(-0.000535115 0 -0.000190769)
(-0.000333159 0 -0.000321838)
(-0.000358937 0 -0.000189693)
(-0.000306646 0 -0.000165038)
(-0.000279396 0 -0.000117332)
(-0.000178478 0 -0.00015198)
(-0.000167763 0 -8.3019e-05)
(-0.000136035 0 -6.19368e-05)
(-8.42264e-05 0 -7.41623e-05)
(-4.18326e-05 0 -6.54984e-05)
(-4.21298e-05 0 -4.12579e-05)
(-3.16624e-05 0 -2.37548e-05)
(-3.2157e-06 0 -4.29023e-05)
(-2.78108e-06 0 -2.87408e-05)
(8.78595e-06 0 -2.01349e-05)
(-4.94443e-06 0 8.66336e-06)
(1.40539e-05 0 1.40721e-05)
(1.94153e-05 0 2.81774e-05)
(4.37809e-05 0 3.19416e-05)
(7.1025e-05 0 3.16634e-05)
(9.00233e-05 0 3.22175e-05)
(0.000111094 0 1.13686e-05)
(0.00014181 0 -8.9585e-06)
(0.000146487 0 -2.9578e-05)
(0.000145234 0 -3.85038e-05)
(0.000144933 0 -5.43094e-05)
(0.000148779 0 -4.99221e-05)
(0.000154515 0 -5.61934e-05)
(0.000169303 0 -7.30692e-05)
(0.00010689 0 -0.000103167)
(0.000493661 0 -0.000132078)
(-0.000559429 0 3.81023e-05)
(7.18198e-06 0 -0.000455949)
(-3.96561e-13 0 -3.71955e-13)
(-1.10027e-12 0 -3.42513e-15)
(1.17112e-13 0 1.0678e-14)
(1.74168e-13 0 -1.42352e-14)
(2.08681e-13 0 -4.1612e-14)
(2.38956e-13 0 -6.36592e-14)
(2.69463e-13 0 -7.96057e-14)
(3.01015e-13 0 -8.99136e-14)
(3.33203e-13 0 -9.5232e-14)
(3.65149e-13 0 -9.61694e-14)
(3.95908e-13 0 -9.33414e-14)
(4.24671e-13 0 -8.73726e-14)
(4.507e-13 0 -7.88164e-14)
(4.73297e-13 0 -6.81746e-14)
(4.91974e-13 0 -5.59907e-14)
(5.0653e-13 0 -4.28156e-14)
(5.16863e-13 0 -2.91013e-14)
(5.229e-13 0 -1.52009e-14)
(5.24705e-13 0 -1.43867e-15)
(5.22531e-13 0 1.18785e-14)
(5.16698e-13 0 2.45258e-14)
(5.0747e-13 0 3.63979e-14)
(4.95061e-13 0 4.74652e-14)
(4.79692e-13 0 5.77072e-14)
(4.61619e-13 0 6.70815e-14)
(4.41117e-13 0 7.55347e-14)
(4.18453e-13 0 8.30269e-14)
(3.93867e-13 0 8.95484e-14)
(3.6757e-13 0 9.51278e-14)
(3.39754e-13 0 9.98317e-14)
(3.10608e-13 0 1.03757e-13)
(2.80344e-13 0 1.07018e-13)
(2.49185e-13 0 1.09727e-13)
(2.17339e-13 0 1.1198e-13)
(1.84962e-13 0 1.13846e-13)
(1.52138e-13 0 1.15365e-13)
(1.1889e-13 0 1.16557e-13)
(8.52397e-14 0 1.1744e-13)
(5.12633e-14 0 1.1804e-13)
(1.71042e-14 0 1.18382e-13)
(1.56006e-06 0 -1.21877e-05)
(4.78937e-06 0 -1.18895e-05)
(7.73711e-06 0 -1.12898e-05)
(1.06821e-05 0 -1.03672e-05)
(1.33983e-05 0 -9.09386e-06)
(1.58156e-05 0 -7.44411e-06)
(1.78543e-05 0 -5.38849e-06)
(1.94118e-05 0 -2.90575e-06)
(2.03756e-05 0 1.55795e-08)
(2.06612e-05 0 3.39146e-06)
(2.01471e-05 0 7.24136e-06)
(1.86917e-05 0 1.15048e-05)
(1.62301e-05 0 1.61275e-05)
(1.26676e-05 0 2.13608e-05)
(8.04134e-06 0 2.67377e-05)
(2.23966e-06 0 3.23165e-05)
(-4.78669e-06 0 3.86567e-05)
(-1.32159e-05 0 4.5433e-05)
(-2.26235e-05 0 5.2715e-05)
(-3.36596e-05 0 6.12354e-05)
(-4.5712e-05 0 7.05874e-05)
(-5.93763e-05 0 8.13599e-05)
(-7.41234e-05 0 9.49773e-05)
(-9.06308e-05 0 0.00011125)
(-0.000109767 0 0.000130461)
(-0.000127457 0 0.000156532)
(-0.00015168 0 0.000186068)
(-0.000174977 0 0.000226603)
(-0.00019765 0 0.000280739)
(-0.000218103 0 0.00035495)
(-0.000232145 0 0.000465783)
(-0.000247449 0 0.000568541)
(-0.000333798 0 0.000565422)
(-0.000479316 0 0.000462452)
(-0.000547688 0 0.000379798)
(-0.000628681 0 5.15964e-05)
(-0.000540263 0 0.000176102)
(-0.000531123 0 0.000117612)
(-0.000544316 0 4.75406e-06)
(-0.00056757 0 -6.84748e-05)
(-0.000536976 0 -0.00016168)
(-0.000519398 0 -0.000203524)
(-0.000481436 0 -0.000322598)
(-0.000427846 0 -0.0004474)
(-0.000434991 0 -0.000454707)
(-0.00038324 0 -0.000427287)
(-0.000290651 0 -0.000414298)
(-0.000312565 0 -0.000380906)
(-0.000145488 0 -0.000390544)
(-0.000177293 0 -0.000285847)
(-0.000151848 0 -0.000258327)
(-9.7058e-06 0 -0.000303847)
(-8.54297e-05 0 -0.000193304)
(-5.97825e-05 0 -0.000160136)
(-2.25257e-05 0 -0.000140968)
(-2.54532e-05 0 -0.000124072)
(2.53039e-05 0 -0.000102148)
(-1.27281e-05 0 -5.94053e-05)
(2.19221e-05 0 -6.97532e-05)
(2.37553e-05 0 -5.87917e-05)
(3.69097e-05 0 -5.03275e-05)
(4.10825e-05 0 -3.85212e-05)
(4.35491e-05 0 -1.64826e-05)
(5.79427e-05 0 -1.38005e-05)
(7.08007e-05 0 -1.24036e-05)
(8.92792e-05 0 -7.63558e-06)
(0.000107999 0 -4.17286e-06)
(0.000122581 0 -4.42622e-08)
(0.000136046 0 -1.17134e-05)
(0.000147236 0 -2.43487e-05)
(0.000151923 0 -3.72355e-05)
(0.000152644 0 -5.23034e-05)
(0.000156447 0 -6.10597e-05)
(0.000162419 0 -6.56414e-05)
(0.000164808 0 -7.20735e-05)
(0.000157544 0 -7.16716e-05)
(0.000119305 0 -6.92926e-05)
(7.77405e-05 0 3.12463e-05)
(-0.000728153 0 -3.88679e-05)
(8.48061e-06 0 -0.000516577)
(-6.13697e-13 0 -1.54095e-13)
(-7.54938e-13 0 1.17274e-14)
(1.62873e-13 0 -1.34365e-14)
(1.59504e-13 0 -4.45596e-14)
(1.86181e-13 0 -7.33462e-14)
(2.1982e-13 0 -9.67066e-14)
(2.55796e-13 0 -1.13964e-13)
(2.92854e-13 0 -1.25115e-13)
(3.30129e-13 0 -1.30504e-13)
(3.66611e-13 0 -1.3059e-13)
(4.01266e-13 0 -1.25967e-13)
(4.33273e-13 0 -1.17368e-13)
(4.61958e-13 0 -1.05506e-13)
(4.86633e-13 0 -9.10047e-14)
(5.0677e-13 0 -7.45162e-14)
(5.22196e-13 0 -5.67472e-14)
(5.32927e-13 0 -3.83271e-14)
(5.38972e-13 0 -1.97391e-14)
(5.4042e-13 0 -1.39157e-15)
(5.37561e-13 0 1.63157e-14)
(5.30823e-13 0 3.30399e-14)
(5.20605e-13 0 4.85797e-14)
(5.07196e-13 0 6.28809e-14)
(4.90825e-13 0 7.59635e-14)
(4.71726e-13 0 8.78469e-14)
(4.50159e-13 0 9.85253e-14)
(4.26406e-13 0 1.07983e-13)
(4.00742e-13 0 1.1622e-13)
(3.73419e-13 0 1.23277e-13)
(3.44663e-13 0 1.29234e-13)
(3.14697e-13 0 1.34213e-13)
(2.8374e-13 0 1.38357e-13)
(2.52009e-13 0 1.41813e-13)
(2.19687e-13 0 1.447e-13)
(1.86898e-13 0 1.47104e-13)
(1.53696e-13 0 1.4907e-13)
(1.20089e-13 0 1.50616e-13)
(8.60993e-14 0 1.5176e-13)
(5.18041e-14 0 1.52525e-13)
(1.72971e-14 0 1.52933e-13)
(1.722e-06 0 -1.551e-05)
(5.27802e-06 0 -1.51713e-05)
(8.56797e-06 0 -1.44743e-05)
(1.18858e-05 0 -1.33931e-05)
(1.50081e-05 0 -1.18884e-05)
(1.78652e-05 0 -9.92193e-06)
(2.03749e-05 0 -7.45027e-06)
(2.2427e-05 0 -4.43642e-06)
(2.38998e-05 0 -8.65079e-07)
(2.46692e-05 0 3.26257e-06)
(2.46312e-05 0 8.00603e-06)
(2.36569e-05 0 1.32635e-05)
(2.1616e-05 0 1.89715e-05)
(1.85147e-05 0 2.5121e-05)
(1.43178e-05 0 3.1677e-05)
(8.79729e-06 0 3.87221e-05)
(2.11299e-06 0 4.64091e-05)
(-5.24426e-06 0 5.38299e-05)
(-1.435e-05 0 6.26248e-05)
(-2.4077e-05 0 7.2182e-05)
(-3.46089e-05 0 8.26412e-05)
(-4.63742e-05 0 9.45664e-05)
(-5.8836e-05 0 0.000109386)
(-7.24675e-05 0 0.000126503)
(-8.57044e-05 0 0.000147847)
(-0.000102858 0 0.000171927)
(-0.000114441 0 0.00020577)
(-0.000127728 0 0.000245973)
(-0.000138105 0 0.000297653)
(-0.000138502 0 0.000366159)
(-0.000121462 0 0.000459801)
(-8.91552e-05 0 0.000568806)
(-4.14489e-05 0 0.000627296)
(-7.27838e-05 0 0.000605207)
(-8.82315e-05 0 0.000521214)
(-0.000124047 0 0.000367106)
(-0.00011377 0 0.000303072)
(-0.000255693 0 0.000235324)
(-0.000347066 0 0.000124937)
(-0.000276084 0 -4.52027e-05)
(-0.000200328 0 -8.63242e-05)
(-0.000204262 0 -0.000210102)
(-0.000199275 0 -0.000303448)
(-0.000203812 0 -0.000393584)
(-0.000191823 0 -0.000458452)
(-0.000240329 0 -0.000457706)
(-0.000109511 0 -0.000430598)
(-0.000116124 0 -0.000398912)
(-0.000141999 0 -0.000346418)
(-0.00010422 0 -0.000301145)
(-9.46146e-05 0 -0.000260309)
(-6.26741e-05 0 -0.000222517)
(-4.81235e-05 0 -0.000183714)
(-5.22961e-05 0 -0.00016108)
(-9.39815e-06 0 -0.000127066)
(-1.33274e-05 0 -0.000107371)
(8.96945e-07 0 -8.79569e-05)
(1.64121e-05 0 -7.12714e-05)
(3.09294e-05 0 -7.27023e-05)
(5.09677e-05 0 -6.24101e-05)
(5.81121e-05 0 -4.42595e-05)
(5.14102e-05 0 -3.80344e-05)
(6.74077e-05 0 -2.88239e-05)
(7.81007e-05 0 -2.23995e-05)
(8.76682e-05 0 -1.79578e-05)
(0.000102976 0 -6.17989e-06)
(0.000109817 0 -9.63618e-06)
(0.000115948 0 -9.3896e-06)
(0.000124382 0 -1.10902e-05)
(0.00012836 0 -2.48681e-05)
(0.000127941 0 -3.96638e-05)
(0.00012711 0 -5.37139e-05)
(0.000130407 0 -6.64331e-05)
(0.000143243 0 -7.41476e-05)
(0.000152374 0 -9.20377e-05)
(0.000180217 0 -6.47142e-05)
(0.000179812 0 -1.39797e-06)
(0.000223995 0 9.00269e-05)
(-0.000135932 0 9.8924e-05)
(6.28465e-06 0 -0.000395328)
(-2.36171e-13 0 1.70199e-13)
(-1.1432e-12 0 5.54396e-14)
(6.14081e-14 0 -3.18078e-14)
(1.1476e-13 0 -7.7252e-14)
(1.56747e-13 0 -1.10306e-13)
(1.98339e-13 0 -1.35793e-13)
(2.41054e-13 0 -1.54334e-13)
(2.84475e-13 0 -1.65936e-13)
(3.27728e-13 0 -1.70845e-13)
(3.69685e-13 0 -1.69474e-13)
(4.0913e-13 0 -1.62418e-13)
(4.45133e-13 0 -1.50524e-13)
(4.77063e-13 0 -1.34712e-13)
(5.04286e-13 0 -1.15781e-13)
(5.26232e-13 0 -9.44964e-14)
(5.42719e-13 0 -7.16922e-14)
(5.53871e-13 0 -4.81681e-14)
(5.59835e-13 0 -2.45558e-14)
(5.6076e-13 0 -1.34452e-15)
(5.56963e-13 0 2.10122e-14)
(5.48961e-13 0 4.20868e-14)
(5.37311e-13 0 6.15689e-14)
(5.22444e-13 0 7.93277e-14)
(5.04658e-13 0 9.53775e-14)
(4.84181e-13 0 1.09791e-13)
(4.61253e-13 0 1.22634e-13)
(4.36148e-13 0 1.33954e-13)
(4.09161e-13 0 1.43792e-13)
(3.80584e-13 0 1.5222e-13)
(3.5069e-13 0 1.59349e-13)
(3.19732e-13 0 1.65329e-13)
(2.87944e-13 0 1.70333e-13)
(2.55528e-13 0 1.74528e-13)
(2.2263e-13 0 1.78047e-13)
(1.89331e-13 0 1.80977e-13)
(1.5565e-13 0 1.83359e-13)
(1.21581e-13 0 1.85212e-13)
(8.7149e-14 0 1.86559e-13)
(5.24363e-14 0 1.87433e-13)
(1.75118e-14 0 1.87866e-13)
(1.90563e-06 0 -1.91703e-05)
(5.82803e-06 0 -1.88044e-05)
(9.51013e-06 0 -1.80413e-05)
(1.32649e-05 0 -1.68417e-05)
(1.68735e-05 0 -1.51479e-05)
(2.02655e-05 0 -1.29053e-05)
(2.33556e-05 0 -1.00512e-05)
(2.60214e-05 0 -6.53225e-06)
(2.81285e-05 0 -2.30984e-06)
(2.95199e-05 0 2.58278e-06)
(3.00633e-05 0 8.21701e-06)
(2.96526e-05 0 1.45184e-05)
(2.81374e-05 0 2.13359e-05)
(2.54952e-05 0 2.86593e-05)
(2.16578e-05 0 3.63846e-05)
(1.65359e-05 0 4.46347e-05)
(1.07291e-05 0 5.30116e-05)
(3.14366e-06 0 6.2182e-05)
(-4.75647e-06 0 7.15498e-05)
(-1.33891e-05 0 8.18202e-05)
(-2.27922e-05 0 9.30916e-05)
(-3.29076e-05 0 0.000105638)
(-4.26167e-05 0 0.000121187)
(-5.24324e-05 0 0.000138652)
(-6.35661e-05 0 0.000159362)
(-6.96632e-05 0 0.00018574)
(-7.97592e-05 0 0.000215901)
(-8.3542e-05 0 0.000253903)
(-8.1504e-05 0 0.000300647)
(-7.15117e-05 0 0.000358008)
(-4.16675e-05 0 0.000428255)
(1.28871e-05 0 0.000508557)
(7.16667e-05 0 0.000576709)
(0.000151273 0 0.00058052)
(0.000133081 0 0.000535433)
(8.73773e-05 0 0.000426954)
(6.45744e-05 0 0.000322163)
(0.000143914 0 0.000274646)
(0.000141381 0 0.000185592)
(0.000203431 0 4.58726e-05)
(7.71005e-05 0 -5.96925e-05)
(6.72887e-05 0 -0.000198044)
(2.21136e-05 0 -0.000303951)
(1.35147e-05 0 -0.000379614)
(1.61764e-05 0 -0.000445661)
(0.000179743 0 -0.000484124)
(2.83633e-06 0 -0.000434083)
(-2.29296e-05 0 -0.000395141)
(2.47204e-05 0 -0.000355077)
(-3.65964e-05 0 -0.000316825)
(-2.8628e-05 0 -0.000294688)
(-1.30854e-05 0 -0.000253912)
(2.11779e-06 0 -0.000202611)
(-2.54489e-05 0 -0.000179252)
(1.26328e-05 0 -0.000154962)
(3.44142e-05 0 -0.000122635)
(1.55287e-05 0 -0.000103398)
(3.23853e-05 0 -9.06799e-05)
(4.88882e-05 0 -8.38571e-05)
(5.19992e-05 0 -7.89388e-05)
(6.33697e-05 0 -5.33111e-05)
(6.62581e-05 0 -3.69931e-05)
(7.59005e-05 0 -3.0453e-05)
(7.9141e-05 0 -2.68452e-05)
(8.3854e-05 0 -2.47964e-05)
(9.8868e-05 0 -1.06111e-05)
(9.86779e-05 0 -1.15455e-05)
(9.8993e-05 0 -1.4782e-05)
(0.000105557 0 -1.45586e-05)
(0.000105935 0 -2.28824e-05)
(0.000102862 0 -3.26165e-05)
(9.90422e-05 0 -4.71577e-05)
(9.89861e-05 0 -6.35747e-05)
(0.000108638 0 -8.5587e-05)
(0.000116684 0 -0.000113756)
(0.000135426 0 -9.31255e-05)
(0.000123985 0 -2.87873e-05)
(0.000273178 0 4.3846e-05)
(-0.000233908 0 7.84836e-05)
(5.84992e-06 0 -0.000377228)
(-1.18024e-13 0 -3.66839e-13)
(-1.13587e-12 0 -8.88052e-14)
(3.07698e-14 0 -9.2034e-14)
(8.15096e-14 0 -1.22175e-13)
(1.27856e-13 0 -1.54412e-13)
(1.75792e-13 0 -1.81522e-13)
(2.25652e-13 0 -2.01334e-13)
(2.76343e-13 0 -2.13134e-13)
(3.26591e-13 0 -2.17038e-13)
(3.75039e-13 0 -2.13514e-13)
(4.20216e-13 0 -2.03235e-13)
(4.6098e-13 0 -1.87194e-13)
(4.96702e-13 0 -1.66574e-13)
(5.26848e-13 0 -1.42431e-13)
(5.50858e-13 0 -1.15695e-13)
(5.68524e-13 0 -8.73139e-14)
(5.80063e-13 0 -5.82372e-14)
(5.85795e-13 0 -2.92448e-14)
(5.85988e-13 0 -9.08555e-16)
(5.80992e-13 0 2.62951e-14)
(5.7138e-13 0 5.19053e-14)
(5.57846e-13 0 7.55295e-14)
(5.41004e-13 0 9.69401e-14)
(5.21289e-13 0 1.16099e-13)
(4.98983e-13 0 1.331e-13)
(4.74321e-13 0 1.48081e-13)
(4.47564e-13 0 1.61178e-13)
(4.19009e-13 0 1.72514e-13)
(3.88975e-13 0 1.82219e-13)
(3.57772e-13 0 1.90446e-13)
(3.25681e-13 0 1.97376e-13)
(2.92939e-13 0 2.03198e-13)
(2.59724e-13 0 2.08089e-13)
(2.26137e-13 0 2.12182e-13)
(1.9221e-13 0 2.1556e-13)
(1.5793e-13 0 2.18268e-13)
(1.23289e-13 0 2.20336e-13)
(8.832e-14 0 2.21806e-13)
(5.3111e-14 0 2.2273e-13)
(1.77304e-14 0 2.23162e-13)
(2.10769e-06 0 -2.32051e-05)
(6.42365e-06 0 -2.28303e-05)
(1.05334e-05 0 -2.20393e-05)
(1.47762e-05 0 -2.07735e-05)
(1.89474e-05 0 -1.89584e-05)
(2.29755e-05 0 -1.65007e-05)
(2.67652e-05 0 -1.33151e-05)
(3.01851e-05 0 -9.31882e-06)
(3.30701e-05 0 -4.46537e-06)
(3.52313e-05 0 1.24348e-06)
(3.65027e-05 0 7.8174e-06)
(3.67387e-05 0 1.5173e-05)
(3.58138e-05 0 2.32092e-05)
(3.36805e-05 0 3.17562e-05)
(3.01756e-05 0 4.07757e-05)
(2.54803e-05 0 5.00976e-05)
(1.9856e-05 0 5.95651e-05)
(1.28987e-05 0 6.97391e-05)
(5.47604e-06 0 7.9689e-05)
(-2.22952e-06 0 9.04686e-05)
(-1.07542e-05 0 0.000102203)
(-1.84765e-05 0 0.000114767)
(-2.65121e-05 0 0.00013028)
(-3.3609e-05 0 0.000147174)
(-3.96101e-05 0 0.000167443)
(-4.58737e-05 0 0.000190855)
(-4.52797e-05 0 0.000220075)
(-4.37828e-05 0 0.000253104)
(-3.47836e-05 0 0.000292458)
(-1.61392e-05 0 0.000338202)
(1.55621e-05 0 0.000389342)
(6.90019e-05 0 0.000441368)
(0.000141203 0 0.00048702)
(0.000212104 0 0.000515159)
(0.00028283 0 0.000491887)
(0.00031356 0 0.000424412)
(0.00028904 0 0.000332501)
(0.000235056 0 0.000281588)
(0.000310213 0 0.000106602)
(0.000263331 0 3.28857e-05)
(0.000295178 0 -6.07736e-05)
(0.000315992 0 -0.000183424)
(0.000293282 0 -0.000267745)
(0.00028948 0 -0.000332586)
(0.000218738 0 -0.000412179)
(-6.20385e-05 0 -0.000495807)
(3.76643e-05 0 -0.000444214)
(2.12292e-05 0 -0.000413226)
(4.23024e-05 0 -0.000343403)
(3.82053e-05 0 -0.000289886)
(-2.96402e-05 0 -0.000283354)
(-1.2105e-05 0 -0.000253996)
(1.9428e-05 0 -0.000203341)
(3.00252e-06 0 -0.000172881)
(7.59335e-06 0 -0.000159317)
(2.20913e-05 0 -0.000129432)
(3.03413e-05 0 -0.000108691)
(4.66464e-05 0 -9.56164e-05)
(6.95106e-05 0 -7.4489e-05)
(4.25303e-05 0 -8.40093e-05)
(7.58852e-05 0 -5.27649e-05)
(8.48517e-05 0 -2.67626e-05)
(7.69286e-05 0 -2.68276e-05)
(7.80677e-05 0 -2.55557e-05)
(7.80142e-05 0 -2.62259e-05)
(8.56539e-05 0 -1.60352e-05)
(8.43213e-05 0 -1.54756e-05)
(8.57431e-05 0 -1.6204e-05)
(9.10108e-05 0 -1.59491e-05)
(8.78685e-05 0 -2.14738e-05)
(8.56393e-05 0 -2.52462e-05)
(7.85698e-05 0 -3.93303e-05)
(6.6082e-05 0 -5.49374e-05)
(6.07047e-05 0 -7.86013e-05)
(6.26267e-05 0 -8.42266e-05)
(2.30088e-06 0 -7.05806e-05)
(-0.000102363 0 -3.58157e-05)
(0.000161702 0 7.63926e-05)
(-0.000549261 0 0.000265266)
(7.31123e-06 0 -0.000454302)
(-4.46756e-13 0 -3.47394e-13)
(-1.03447e-12 0 -1.06655e-13)
(2.86091e-14 0 -1.25044e-13)
(5.28839e-14 0 -1.64621e-13)
(9.76186e-14 0 -2.03092e-13)
(1.51417e-13 0 -2.34168e-13)
(2.09442e-13 0 -2.56001e-13)
(2.6877e-13 0 -2.67975e-13)
(3.27348e-13 0 -2.70353e-13)
(3.83489e-13 0 -2.63839e-13)
(4.3545e-13 0 -2.49323e-13)
(4.81793e-13 0 -2.28018e-13)
(5.21827e-13 0 -2.01428e-13)
(5.55165e-13 0 -1.7097e-13)
(5.81349e-13 0 -1.37831e-13)
(6.00176e-13 0 -1.03103e-13)
(6.1194e-13 0 -6.78656e-14)
(6.17164e-13 0 -3.30459e-14)
(6.163e-13 0 6.94719e-16)
(6.09777e-13 0 3.28763e-14)
(5.98196e-13 0 6.30683e-14)
(5.82345e-13 0 9.08697e-14)
(5.63014e-13 0 1.15993e-13)
(5.40818e-13 0 1.38338e-13)
(5.16163e-13 0 1.57981e-13)
(4.89331e-13 0 1.75108e-13)
(4.60581e-13 0 1.89943e-13)
(4.30202e-13 0 2.02706e-13)
(3.98516e-13 0 2.13604e-13)
(3.65846e-13 0 2.22845e-13)
(3.32484e-13 0 2.30635e-13)
(2.98658e-13 0 2.37178e-13)
(2.64511e-13 0 2.42651e-13)
(2.30102e-13 0 2.47188e-13)
(1.95418e-13 0 2.50879e-13)
(1.60425e-13 0 2.53782e-13)
(1.25118e-13 0 2.55954e-13)
(8.95428e-14 0 2.57465e-13)
(5.37927e-14 0 2.58395e-13)
(1.79437e-14 0 2.58816e-13)
(2.30883e-06 0 -2.76315e-05)
(7.02629e-06 0 -2.72788e-05)
(1.16095e-05 0 -2.64976e-05)
(1.63578e-05 0 -2.525e-05)
(2.11587e-05 0 -2.34036e-05)
(2.59278e-05 0 -2.08238e-05)
(3.05576e-05 0 -1.73815e-05)
(3.48968e-05 0 -1.2957e-05)
(3.87311e-05 0 -7.49256e-06)
(4.18388e-05 0 -9.38209e-07)
(4.40148e-05 0 6.69769e-06)
(4.50152e-05 0 1.51739e-05)
(4.47409e-05 0 2.45337e-05)
(4.31283e-05 0 3.44343e-05)
(3.99736e-05 0 4.48685e-05)
(3.55221e-05 0 5.53879e-05)
(2.98968e-05 0 6.60012e-05)
(2.33313e-05 0 7.67379e-05)
(1.62774e-05 0 8.72906e-05)
(9.42752e-06 0 9.81201e-05)
(1.61823e-06 0 0.000110008)
(-4.88773e-06 0 0.000122093)
(-1.04457e-05 0 0.000136943)
(-1.6264e-05 0 0.000153074)
(-1.9558e-05 0 0.000171456)
(-1.99414e-05 0 0.000192565)
(-1.74306e-05 0 0.000217671)
(-9.22969e-06 0 0.000246122)
(2.95193e-06 0 0.00027784)
(2.53496e-05 0 0.000313177)
(5.87242e-05 0 0.000349271)
(0.000105022 0 0.000383364)
(0.000167485 0 0.000409472)
(0.000245259 0 0.000421547)
(0.000308787 0 0.00043122)
(0.000390742 0 0.000370703)
(0.000428734 0 0.000301273)
(0.000415803 0 0.000254706)
(0.000464152 0 9.46068e-05)
(0.000437155 0 -5.11524e-06)
(0.000443849 0 -5.75274e-05)
(0.000427484 0 -0.000199029)
(0.000389731 0 -0.000258139)
(0.000336027 0 -0.000333369)
(0.000316297 0 -0.000344991)
(0.000398245 0 -0.000299867)
(0.000285108 0 -0.000342619)
(0.000150269 0 -0.00037004)
(0.00011929 0 -0.000332082)
(0.000130604 0 -0.000272682)
(0.000156865 0 -0.000218244)
(7.21752e-05 0 -0.000226163)
(5.42259e-05 0 -0.000202538)
(6.68901e-05 0 -0.000165267)
(1.93966e-05 0 -0.000158769)
(4.31962e-05 0 -0.000137892)
(4.20585e-05 0 -0.000120077)
(4.45044e-05 0 -0.000106353)
(7.41572e-05 0 -7.30208e-05)
(4.98212e-05 0 -7.67012e-05)
(6.25035e-05 0 -6.63992e-05)
(7.07191e-05 0 -4.65559e-05)
(6.9067e-05 0 -3.20048e-05)
(7.40666e-05 0 -3.04154e-05)