/*--------------------------------*- C++ -*----------------------------------*\
  =========                 |
  \\      /  F ield         | OpenFOAM: The Open Source CFD Toolbox
   \\    /   O peration     | Website:  https://openfoam.org
    \\  /    A nd           | Version:  6
     \\/     M anipulation  |
\*---------------------------------------------------------------------------*/
FoamFile
{
    version     2.0;
    format      ascii;
    class       volScalarField;
    location    "450";
    object      dmdt;
}
// * * * * * * * * * * * * * * * * * * * * * * * * * * * * * * * * * * * * * //

dimensions      [0 0 0 0 0 0 0];

internalField   nonuniform List<scalar> 
5964
(
-0.354603
-0.299746
-0.252223
-0.21414
-0.184944
-0.162649
-0.145238
-0.131
-0.118687
-0.107292
-0.0955584
-0.0829651
-0.0695185
-0.0551882
-0.0398377
-0.0191464
-0.0289115
-0.0339088
-0.0384627
-0.042279
-0.0453244
-0.0476765
-0.0494454
-0.0507381
-0.0516456
-0.0522407
-0.0525801
-0.052708
-0.0526592
-0.0524619
-0.052139
-0.0517098
-0.0511907
-0.0505956
-0.0499363
-0.0492228
-0.0484636
-0.0476657
-0.0468351
-0.0459767
-0.0450945
-0.0441919
-0.0432716
-0.0423359
-0.0413866
-0.0404253
-0.0394531
-0.0384711
-0.03748
-0.0364806
-0.0354733
-0.0344587
-0.0334369
-0.0324084
-0.0313734
-0.0303321
-0.0292846
-0.0282311
-0.0271717
-0.0261067
-0.0250361
-0.02396
-0.0228787
-0.0217922
-0.0207007
-0.0196043
-0.0185032
-0.0173975
-0.0162876
-0.0151736
-0.014056
-0.0129353
-0.0118124
-0.010688
-0.00956305
-0.00843782
-0.00731155
-0.00618155
-0.00504328
-0.00389368
-0.00274131
-0.00160194
-0.000123751
0.00623734
-0.353706
-0.298267
-0.251452
-0.213893
-0.184781
-0.162566
-0.145392
-0.13149
-0.119423
-0.108191
-0.0966816
-0.0845094
-0.0711823
-0.0564902
-0.039999
-0.0193614
-0.0285677
-0.0342298
-0.0390129
-0.0428485
-0.0458251
-0.0480831
-0.0497606
-0.0509748
-0.051819
-0.0523649
-0.0526669
-0.052767
-0.0526977
-0.0524854
-0.0521519
-0.0517152
-0.051191
-0.0505925
-0.0499311
-0.0492164
-0.0484566
-0.0476586
-0.0468283
-0.0459703
-0.0450886
-0.0441866
-0.043267
-0.0423319
-0.0413833
-0.0404225
-0.0394509
-0.0384693
-0.0374787
-0.0364797
-0.0354727
-0.0344584
-0.0334369
-0.0324086
-0.0313738
-0.0303326
-0.0292852
-0.0282318
-0.0271726
-0.0261076
-0.025037
-0.023961
-0.0228797
-0.0217932
-0.0207017
-0.0196053
-0.0185042
-0.0173985
-0.0162886
-0.0151746
-0.0140569
-0.0129362
-0.0118132
-0.0106887
-0.00956352
-0.0084381
-0.00731182
-0.00618234
-0.00504551
-0.00389818
-0.00274795
-0.00163264
-0.000607407
0.000570419
-0.354101
-0.298639
-0.251347
-0.213519
-0.184498
-0.162748
-0.146149
-0.132834
-0.121333
-0.110648
-0.0994679
-0.08761
-0.0741919
-0.0587937
-0.0408017
-0.0228939
-0.0289044
-0.0352578
-0.0402915
-0.0440584
-0.0468447
-0.0488922
-0.0503795
-0.0514358
-0.0521548
-0.0526041
-0.0528332
-0.052879
-0.05277
-0.0525289
-0.0521748
-0.0517237
-0.0511897
-0.0505848
-0.0499194
-0.0492026
-0.0484419
-0.0476439
-0.0468141
-0.0459571
-0.0450766
-0.0441759
-0.0432576
-0.0423239
-0.0413765
-0.0404169
-0.0394463
-0.0384658
-0.037476
-0.0364778
-0.0354716
-0.0344578
-0.0334368
-0.032409
-0.0313746
-0.0303337
-0.0292865
-0.0282333
-0.0271742
-0.0261094
-0.0250389
-0.0239629
-0.0228816
-0.0217952
-0.0207037
-0.0196073
-0.0185062
-0.0174005
-0.0162906
-0.0151765
-0.0140588
-0.0129381
-0.0118148
-0.01069
-0.00956446
-0.00843862
-0.00731219
-0.00618342
-0.00504901
-0.00390563
-0.00275628
-0.00162895
-0.000618846
7.56799e-05
-0.354427
-0.299183
-0.251631
-0.213723
-0.185074
-0.164017
-0.148274
-0.135873
-0.125277
-0.115152
-0.104196
-0.09249
-0.0789112
-0.0625871
-0.0377352
-0.00643309
-0.0286471
-0.0373629
-0.0425614
-0.0460011
-0.048392
-0.0500827
-0.0512744
-0.0520952
-0.0526312
-0.0529411
-0.0530655
-0.0530338
-0.0528681
-0.0525862
-0.052203
-0.0517318
-0.0511842
-0.0505705
-0.0498998
-0.0491802
-0.0484186
-0.0476209
-0.0467922
-0.0459368
-0.0450582
-0.0441596
-0.0432434
-0.0423117
-0.0413662
-0.0404085
-0.0394395
-0.0384605
-0.0374721
-0.036475
-0.0354698
-0.034457
-0.0334368
-0.0324096
-0.0313757
-0.0303353
-0.0292885
-0.0282356
-0.0271768
-0.0261121
-0.0250417
-0.0239658
-0.0228846
-0.0217982
-0.0207067
-0.0196103
-0.0185092
-0.0174035
-0.0162935
-0.0151794
-0.0140617
-0.0129408
-0.0118173
-0.0106921
-0.00956587
-0.00843933
-0.00731246
-0.00618422
-0.00505244
-0.00391423
-0.00276837
-0.00162824
-0.000574787
0.000141272
-0.354543
-0.299563
-0.252243
-0.214926
-0.187135
-0.167091
-0.152591
-0.14132
-0.131702
-0.122246
-0.111924
-0.100445
-0.0869841
-0.070742
-0.0504112
-0.0138664
-0.0362283
-0.042449
-0.0462213
-0.0487103
-0.050417
-0.0515939
-0.0523918
-0.0529101
-0.053215
-0.0533502
-0.0533442
-0.0532164
-0.0529807
-0.0526486
-0.05223
-0.0517344
-0.0511705
-0.0505466
-0.04987
-0.0491476
-0.0483853
-0.0475885
-0.0467617
-0.0459088
-0.0450331
-0.0441375
-0.0432242
-0.0422953
-0.0413525
-0.0403972
-0.0394305
-0.0384535
-0.0374669
-0.0364714
-0.0354677
-0.034456
-0.0334369
-0.0324106
-0.0313774
-0.0303376
-0.0292913
-0.0282388
-0.0271802
-0.0261158
-0.0250456
-0.0239698
-0.0228886
-0.0218022
-0.0207107
-0.0196143
-0.0185132
-0.0174075
-0.0162974
-0.0151833
-0.0140655
-0.0129443
-0.0118205
-0.0106947
-0.00956779
-0.00844033
-0.00731265
-0.00618441
-0.00505458
-0.00392118
-0.00278001
-0.00163072
-0.00053233
0.000248849
-0.354846
-0.300646
-0.254079
-0.217505
-0.190902
-0.172347
-0.159411
-0.149243
-0.140801
-0.132262
-0.122548
-0.111264
-0.0979146
-0.0823172
-0.0652202
-0.0456733
-0.0483472
-0.0494846
-0.0507925
-0.0519114
-0.0527462
-0.0533091
-0.05365
-0.0538211
-0.0538621
-0.0537986
-0.0536447
-0.0534081
-0.0530936
-0.0527053
-0.0522475
-0.0517252
-0.0511439
-0.0505094
-0.0498271
-0.0491026
-0.0483406
-0.0475458
-0.046722
-0.0458727
-0.0450009
-0.0441092
-0.0431998
-0.0422746
-0.0413353
-0.0403831
-0.0394194
-0.0384449
-0.0374606
-0.0364672
-0.0354651
-0.034455
-0.0334371
-0.0324119
-0.0313797
-0.0303406
-0.0292949
-0.0282429
-0.0271847
-0.0261205
-0.0250505
-0.0239748
-0.0228937
-0.0218073
-0.0207158
-0.0196193
-0.0185181
-0.0174124
-0.0163023
-0.0151881
-0.0140701
-0.0129487
-0.0118245
-0.0106981
-0.0095703
-0.00844177
-0.00731301
-0.00618405
-0.00505421
-0.00392021
-0.00276946
-0.00157617
-0.000363059
0.000569334
-0.355227
-0.301733
-0.256433
-0.221733
-0.196743
-0.179703
-0.16837
-0.159138
-0.151986
-0.144397
-0.135073
-0.123924
-0.110537
-0.0952509
-0.0796517
-0.0656151
-0.0589735
-0.0560658
-0.0552408
-0.0551183
-0.0551241
-0.0550768
-0.0549494
-0.0547584
-0.0545219
-0.0542486
-0.0539385
-0.0535876
-0.0531907
-0.0527441
-0.0522461
-0.051697
-0.0510989
-0.0504548
-0.0497682
-0.0490429
-0.0482828
-0.0474914
-0.046672
-0.0458277
-0.0449611
-0.0440745
-0.0431701
-0.0422496
-0.0413146
-0.0403664
-0.0394062
-0.0384349
-0.0374534
-0.0364624
-0.0354624
-0.0344541
-0.0334378
-0.0324139
-0.0313827
-0.0303445
-0.0292995
-0.028248
-0.0271903
-0.0261263
-0.0250565
-0.023981
-0.0228999
-0.0218135
-0.0207219
-0.0196254
-0.0185241
-0.0174183
-0.016308
-0.0151937
-0.0140755
-0.0129538
-0.0118292
-0.0107021
-0.00957344
-0.00844379
-0.00731378
-0.00618354
-0.00505182
-0.00391229
-0.00274216
-0.00149204
-0.000157441
0.000921165
-0.356188
-0.30481
-0.261129
-0.22771
-0.204337
-0.188851
-0.178826
-0.170808
-0.164666
-0.157926
-0.148822
-0.137694
-0.124055
-0.108258
-0.091739
-0.0761187
-0.0651642
-0.0604359
-0.0587229
-0.0579256
-0.0573317
-0.0567603
-0.0561949
-0.0556522
-0.0551419
-0.0546608
-0.0541962
-0.0537324
-0.0532549
-0.052752
-0.0522159
-0.0516425
-0.0510299
-0.0503785
-0.0496899
-0.0489661
-0.0482099
-0.0474239
-0.0466109
-0.0457732
-0.0449133
-0.0440333
-0.0431351
-0.0422203
-0.0412906
-0.0403471
-0.0393911
-0.0384236
-0.0374454
-0.0364572
-0.0354598
-0.0344535
-0.033439
-0.0324166
-0.0313866
-0.0303494
-0.0293052
-0.0282544
-0.027197
-0.0261334
-0.0250638
-0.0239884
-0.0229073
-0.0218209
-0.0207292
-0.0196326
-0.0185312
-0.0174251
-0.0163147
-0.0152001
-0.0140817
-0.0129597
-0.0118345
-0.0107068
-0.00957714
-0.00844632
-0.00731492
-0.00618294
-0.00504835
-0.00390317
-0.00272565
-0.00148185
-0.000203987
0.000772307
-0.357772
-0.309025
-0.267555
-0.23566
-0.21361
-0.19943
-0.190521
-0.183976
-0.178036
-0.171982
-0.163053
-0.151719
-0.13735
-0.120313
-0.101468
-0.0817547
-0.0644823
-0.0617416
-0.0610164
-0.0602398
-0.0592866
-0.0582782
-0.0573132
-0.0564412
-0.0556734
-0.0549972
-0.0543884
-0.0538204
-0.0532693
-0.0527161
-0.0521473
-0.051554
-0.0509312
-0.0502763
-0.049589
-0.0488699
-0.0481204
-0.0473423
-0.0465378
-0.0457088
-0.0448574
-0.0439854
-0.0430947
-0.0421868
-0.0412633
-0.0403255
-0.0393744
-0.0384113
-0.0374369
-0.036452
-0.0354573
-0.0344535
-0.033441
-0.0324203
-0.0313917
-0.0303555
-0.0293122
-0.028262
-0.0272052
-0.0261419
-0.0250725
-0.0239971
-0.022916
-0.0218295
-0.0207377
-0.0196409
-0.0185393
-0.017433
-0.0163223
-0.0152074
-0.0140886
-0.0129662
-0.0118405
-0.010712
-0.00958126
-0.00844909
-0.00731595
-0.00618135
-0.00504164
-0.00388559
-0.00269058
-0.00143985
-0.000211009
0.00066141
-0.358435
-0.311762
-0.273239
-0.244293
-0.224249
-0.211085
-0.202747
-0.197203
-0.191434
-0.185591
-0.176714
-0.165039
-0.15003
-0.131842
-0.11052
-0.0850038
-0.0444385
-0.060853
-0.0629692
-0.0623942
-0.0610604
-0.0596049
-0.0582525
-0.0570737
-0.0560725
-0.0552229
-0.0544881
-0.0538307
-0.053218
-0.0526244
-0.052031
-0.0514248
-0.0507975
-0.0501443
-0.0494627
-0.0487521
-0.0480127
-0.0472456
-0.0464522
-0.0456341
-0.0447931
-0.0439309
-0.0430491
-0.0421494
-0.0412332
-0.0403018
-0.0393565
-0.0383983
-0.0374282
-0.036447
-0.0354555
-0.0344544
-0.0334441
-0.0324251
-0.031398
-0.0303631
-0.0293207
-0.0282712
-0.0272148
-0.0261518
-0.0250826
-0.0240072
-0.0229261
-0.0218395
-0.0207475
-0.0196504
-0.0185484
-0.0174419
-0.0163308
-0.0152156
-0.0140963
-0.0129734
-0.0118469
-0.0107175
-0.00958564
-0.00845184
-0.00731641
-0.00617813
-0.00503116
-0.0038589
-0.00263097
-0.00133086
-6.18775e-05
0.000812564
-0.361301
-0.318969
-0.282434
-0.254555
-0.235235
-0.222817
-0.215082
-0.210041
-0.204583
-0.198267
-0.189189
-0.177068
-0.161603
-0.142867
-0.120835
-0.0951355
-0.0559323
-0.0678057
-0.0669413
-0.0649351
-0.0627397
-0.0607117
-0.0589622
-0.0575023
-0.0563002
-0.0553075
-0.0544719
-0.0537453
-0.0530874
-0.0524664
-0.051859
-0.0512486
-0.0506243
-0.0499791
-0.0493087
-0.0486112
-0.0478859
-0.0471331
-0.0463537
-0.045549
-0.0447206
-0.0438699
-0.0429986
-0.0421083
-0.0412005
-0.0402765
-0.0393376
-0.038385
-0.0374197
-0.0364427
-0.0354546
-0.0344564
-0.0334485
-0.0324315
-0.031406
-0.0303723
-0.0293309
-0.028282
-0.0272261
-0.0261634
-0.0250943
-0.024019
-0.0229377
-0.0218508
-0.0207585
-0.0196611
-0.0185588
-0.0174518
-0.0163403
-0.0152246
-0.0141048
-0.0129811
-0.0118539
-0.0107235
-0.0095902
-0.00845446
-0.00731619
-0.0061735
-0.00501864
-0.0038303
-0.00256923
-0.00121105
0.000131145
0.00105699
-0.36261
-0.323201
-0.289697
-0.264005
-0.246069
-0.234539
-0.227392
-0.222235
-0.216627
-0.209502
-0.199928
-0.187302
-0.17154
-0.152676
-0.130894
-0.107366
-0.0862094
-0.0775575
-0.0716837
-0.0674346
-0.0641247
-0.0614851
-0.0593705
-0.0576781
-0.056322
-0.0552255
-0.0543206
-0.0535498
-0.0528662
-0.0522335
-0.0516248
-0.0510209
-0.0504083
-0.0497782
-0.0491251
-0.048446
-0.0477392
-0.0470045
-0.0462424
-0.0454538
-0.0446402
-0.0438029
-0.0429438
-0.0420642
-0.0411658
-0.0402501
-0.0393184
-0.038372
-0.037412
-0.0364394
-0.0354551
-0.03446
-0.0334546
-0.0324398
-0.0314159
-0.0303834
-0.0293429
-0.0282948
-0.0272393
-0.0261768
-0.0251078
-0.0240323
-0.0229509
-0.0218637
-0.020771
-0.0196732
-0.0185704
-0.0174628
-0.0163508
-0.0152344
-0.014114
-0.0129896
-0.0118615
-0.0107299
-0.00959504
-0.0084571
-0.00731564
-0.00616819
-0.00500589
-0.00380488
-0.00252078
-0.00112322
0.00027175
0.0012395
-0.364081
-0.327601
-0.296901
-0.27344
-0.257007
-0.246108
-0.239291
-0.233447
-0.226955
-0.218604
-0.207966
-0.194586
-0.17837
-0.159322
-0.138066
-0.116094
-0.0965149
-0.0837767
-0.0748773
-0.0689966
-0.0648457
-0.061761
-0.0593975
-0.0575579
-0.0561111
-0.0549586
-0.0540209
-0.0532339
-0.0525467
-0.05192
-0.0513243
-0.0507383
-0.050147
-0.0495403
-0.0489113
-0.0482562
-0.0475727
-0.0468601
-0.0461186
-0.045349
-0.0445526
-0.0437308
-0.0428853
-0.0420178
-0.04113
-0.0402234
-0.0392996
-0.0383599
-0.0374055
-0.0364377
-0.0354575
-0.0344656
-0.0334629
-0.0324502
-0.0314279
-0.0303968
-0.0293572
-0.0283097
-0.0272545
-0.0261923
-0.0251231
-0.0240475
-0.0229658
-0.0218782
-0.020785
-0.0196866
-0.0185832
-0.017475
-0.0163623
-0.0152452
-0.014124
-0.0129987
-0.0118696
-0.0107368
-0.00960038
-0.00846019
-0.00731551
-0.00616353
-0.00499527
-0.00378719
-0.00249622
-0.00109447
0.000299544
0.00126286
-0.365634
-0.332172
-0.304173
-0.282739
-0.267458
-0.257004
-0.24974
-0.242569
-0.234523
-0.224831
-0.213196
-0.199146
-0.182548
-0.163459
-0.14225
-0.120277
-0.100222
-0.0854357
-0.0754197
-0.0690292
-0.0646341
-0.0614238
-0.0589929
-0.0571175
-0.0556542
-0.0544979
-0.053566
-0.0527925
-0.0521249
-0.0515227
-0.0509551
-0.0503996
-0.04984
-0.0492651
-0.0486675
-0.0480424
-0.0473872
-0.0467009
-0.0459835
-0.0452357
-0.0444588
-0.0436544
-0.0428242
-0.0419701
-0.0410938
-0.0401972
-0.0392818
-0.0383493
-0.0374011
-0.0364383
-0.0354622
-0.0344737
-0.0334738
-0.0324632
-0.0314426
-0.0304127
-0.029374
-0.0283269
-0.0272721
-0.0262099
-0.0251406
-0.0240647
-0.0229825
-0.0218944
-0.0208007
-0.0197016
-0.0185974
-0.0174885
-0.0163749
-0.015257
-0.0141349
-0.0130087
-0.0118786
-0.0107445
-0.00960651
-0.00846422
-0.00731667
-0.00616096
-0.00498871
-0.00377901
-0.00249511
-0.0011185
0.000229764
0.0011497
-0.367151
-0.33659
-0.311137
-0.291626
-0.277043
-0.266623
-0.258028
-0.249201
-0.239391
-0.228211
-0.215508
-0.200785
-0.183801
-0.16446
-0.143033
-0.120707
-0.0992886
-0.0817241
-0.0728852
-0.0673919
-0.0634579
-0.0604745
-0.0581644
-0.0563637
-0.0549552
-0.0538452
-0.0529565
-0.0522254
-0.0516007
-0.0510417
-0.0505177
-0.0500054
-0.0494881
-0.0489539
-0.0483949
-0.047806
-0.0471842
-0.0465285
-0.0458386
-0.0451155
-0.0443605
-0.0435753
-0.0427618
-0.0419222
-0.0410584
-0.0401725
-0.0392662
-0.0383413
-0.0373993
-0.0364418
-0.03547
-0.0344849
-0.0334877
-0.0324792
-0.0314602
-0.0304314
-0.0293935
-0.0283469
-0.0272922
-0.0262299
-0.0251603
-0.024084
-0.0230013
-0.0219125
-0.020818
-0.0197181
-0.018613
-0.0175032
-0.0163887
-0.0152699
-0.0141468
-0.0130196
-0.0118884
-0.0107531
-0.00961372
-0.00846967
-0.00731987
-0.00616156
-0.00498753
-0.00378091
-0.00251447
-0.00118357
8.82802e-05
0.00093837
-0.368694
-0.340948
-0.317489
-0.299284
-0.284935
-0.273808
-0.263234
-0.252264
-0.240622
-0.227948
-0.213983
-0.198543
-0.181348
-0.162253
-0.141175
-0.11843
-0.0946204
-0.0382623
-0.0676017
-0.0645395
-0.06158
-0.0590481
-0.056981
-0.0553327
-0.0540338
-0.0530117
-0.0521991
-0.0515374
-0.0509774
-0.0504801
-0.0500149
-0.0495585
-0.0490941
-0.0486094
-0.0480963
-0.0475496
-0.0469663
-0.0463451
-0.0456861
-0.0449904
-0.0442594
-0.0434951
-0.0426998
-0.0418757
-0.0410252
-0.0401505
-0.0392537
-0.0383366
-0.0374012
-0.036449
-0.0354815
-0.0344998
-0.0335053
-0.0324988
-0.0314813
-0.0304534
-0.0294161
-0.0283697
-0.027315
-0.0262525
-0.0251825
-0.0241056
-0.0230221
-0.0219325
-0.0208371
-0.0197362
-0.0186302
-0.0175193
-0.0164038
-0.0152839
-0.0141598
-0.0130315
-0.0118992
-0.0107629
-0.00962224
-0.00847684
-0.00732552
-0.00616574
-0.00499149
-0.00378975
-0.00254209
-0.00125599
-5.53485e-05
0.000732667
-0.370102
-0.344899
-0.323232
-0.305428
-0.290433
-0.277466
-0.264704
-0.251647
-0.238005
-0.223727
-0.208744
-0.192858
-0.17567
-0.156904
-0.136431
-0.113988
-0.089978
-0.0362067
-0.0637345
-0.0617987
-0.0594977
-0.0573563
-0.0555421
-0.0540752
-0.0529182
-0.0520147
-0.0513056
-0.0507369
-0.0502622
-0.0498439
-0.049452
-0.0490638
-0.0486624
-0.0482358
-0.0477757
-0.0472769
-0.0467367
-0.0461539
-0.0455289
-0.0448629
-0.0441579
-0.043416
-0.04264
-0.0418323
-0.0409957
-0.0401326
-0.0392455
-0.0383365
-0.0374076
-0.0364607
-0.0354974
-0.0345191
-0.033527
-0.0325224
-0.0315061
-0.0304791
-0.0294421
-0.0283958
-0.0273409
-0.0262779
-0.0252073
-0.0241296
-0.0230452
-0.0219546
-0.0208581
-0.0197561
-0.0186489
-0.0175369
-0.0164202
-0.0152991
-0.0141738
-0.0130445
-0.0119111
-0.0107738
-0.00963219
-0.00848591
-0.00733384
-0.00617385
-0.00500131
-0.00380713
-0.0025808
-0.00133829
-0.000196684
0.000552079
-0.371148
-0.347676
-0.326867
-0.308722
-0.292664
-0.277572
-0.262243
-0.246809
-0.231381
-0.21586
-0.200089
-0.183682
-0.166563
-0.148193
-0.128792
-0.107904
-0.0858557
-0.0352863
-0.0615917
-0.0596011
-0.0574657
-0.0555355
-0.053922
-0.0526342
-0.0516356
-0.0508729
-0.0502901
-0.0498357
-0.049465
-0.0491418
-0.048837
-0.0485285
-0.0481997
-0.047839
-0.0474383
-0.0469927
-0.0464998
-0.0459588
-0.0453705
-0.0447364
-0.0440588
-0.0433406
-0.0425847
-0.041794
-0.0409717
-0.0401205
-0.0392431
-0.0383421
-0.0374197
-0.0364779
-0.0355186
-0.0345433
-0.0335535
-0.0325505
-0.0315352
-0.0305087
-0.0294719
-0.0284254
-0.02737
-0.0263063
-0.0252349
-0.0241562
-0.0230707
-0.0219789
-0.0208811
-0.0197779
-0.0186694
-0.017556
-0.016438
-0.0153156
-0.0141891
-0.0130586
-0.0119242
-0.0107859
-0.00964361
-0.00849686
-0.00734481
-0.00618596
-0.00501772
-0.00383602
-0.00263893
-0.00144527
-0.000342103
0.000432783
-0.37187
-0.34934
-0.328469
-0.309353
-0.291311
-0.273539
-0.255708
-0.238265
-0.221515
-0.205257
-0.18923
-0.172798
-0.156092
-0.138626
-0.12059
-0.101799
-0.082903
-0.0662595
-0.0607894
-0.0577542
-0.0554498
-0.0536007
-0.0521449
-0.0510329
-0.0502065
-0.0496046
-0.0491689
-0.0488482
-0.0485988
-0.0483855
-0.0481803
-0.0479619
-0.0477143
-0.0474264
-0.0470908
-0.046703
-0.046261
-0.0457646
-0.045215
-0.0446144
-0.0439655
-0.0432717
-0.0425364
-0.041763
-0.040955
-0.0401157
-0.0392479
-0.0383547
-0.0374385
-0.0365015
-0.0355459
-0.0345733
-0.0335855
-0.0325836
-0.031569
-0.0305428
-0.0295058
-0.0284588
-0.0274027
-0.026338
-0.0252655
-0.0241855
-0.0230987
-0.0220055
-0.0209063
-0.0198015
-0.0186915
-0.0175767
-0.0164572
-0.0153335
-0.0142056
-0.0130739
-0.0119384
-0.0107993
-0.00965639
-0.00850949
-0.00735798
-0.00620106
-0.005038
-0.00386902
-0.00269652
-0.00152291
-0.000346527
0.000690588
-0.372082
-0.349521
-0.327727
-0.306872
-0.286259
-0.265679
-0.245592
-0.226695
-0.209339
-0.193097
-0.177322
-0.161376
-0.145244
-0.128714
-0.111999
-0.0950974
-0.0779271
-0.0339521
-0.0580722
-0.0554802
-0.0532276
-0.0514851
-0.0501971
-0.049278
-0.0486457
-0.0482272
-0.04796
-0.0477918
-0.0476797
-0.0475897
-0.0474951
-0.0473757
-0.0472165
-0.0470073
-0.0467413
-0.0464149
-0.0460265
-0.0455767
-0.0450674
-0.0445012
-0.0438817
-0.0432126
-0.042498
-0.0417418
-0.0409479
-0.04012
-0.0392616
-0.0383757
-0.0374652
-0.0365326
-0.0355802
-0.0346099
-0.0336234
-0.0326224
-0.0316081
-0.0305816
-0.0295441
-0.0284963
-0.0274391
-0.0263732
-0.0252992
-0.0242177
-0.0231293
-0.0220345
-0.0209336
-0.0198271
-0.0187155
-0.017599
-0.0164779
-0.0153527
-0.0142234
-0.0130904
-0.0119538
-0.0108138
-0.00967038
-0.00852346
-0.00737269
-0.0062176
-0.00505823
-0.00389599
-0.00273079
-0.00153329
-0.000172977
0.00134419
-0.371849
-0.348482
-0.324841
-0.301005
-0.277698
-0.254557
-0.232727
-0.213099
-0.195895
-0.180153
-0.164926
-0.149646
-0.134277
-0.118746
-0.10324
-0.0881329
-0.0739765
-0.0623584
-0.0566297
-0.0531148
-0.0507468
-0.0491337
-0.0480578
-0.0473722
-0.046968
-0.046761
-0.046685
-0.0466875
-0.0467274
-0.0467722
-0.0467973
-0.046784
-0.0467188
-0.0465925
-0.0463993
-0.0461365
-0.0458035
-0.0454015
-0.044933
-0.0444016
-0.0438113
-0.0431668
-0.0424724
-0.0417329
-0.0409526
-0.0401356
-0.0392857
-0.0384065
-0.037501
-0.0365721
-0.0356223
-0.0346536
-0.0336681
-0.0326673
-0.0316528
-0.0306257
-0.0295871
-0.0285381
-0.0274795
-0.026412
-0.0253363
-0.024253
-0.0231627
-0.0220659
-0.0209631
-0.0198548
-0.0187413
-0.0176229
-0.0165002
-0.0153732
-0.0142424
-0.013108
-0.0119702
-0.0108293
-0.00968531
-0.00853836
-0.00738824
-0.00623449
-0.00507675
-0.00391601
-0.002757
-0.00160535
-0.000457443
0.000552982
-0.371312
-0.346539
-0.320552
-0.292989
-0.266683
-0.241492
-0.218689
-0.199021
-0.182455
-0.16757
-0.153155
-0.138686
-0.12406
-0.109281
-0.0946204
-0.0805384
-0.0681575
-0.0592866
-0.053441
-0.0499412
-0.0477888
-0.0464731
-0.0457109
-0.0453253
-0.045195
-0.0452321
-0.0453709
-0.0455614
-0.0457656
-0.0459543
-0.0461056
-0.0462032
-0.0462353
-0.0461942
-0.0460755
-0.0458773
-0.0455999
-0.0452456
-0.0448177
-0.0443205
-0.0437589
-0.043138
-0.042463
-0.0417392
-0.0409714
-0.0401643
-0.0393221
-0.0384485
-0.0375472
-0.0366212
-0.0356731
-0.0347054
-0.0337201
-0.032719
-0.0317036
-0.0306753
-0.0296353
-0.0285845
-0.027524
-0.0264545
-0.0253768
-0.0242913
-0.0231989
-0.0221
-0.020995
-0.0198845
-0.0187689
-0.0176486
-0.0165239
-0.0153952
-0.0142627
-0.0131268
-0.0119876
-0.0108456
-0.00970092
-0.00855374
-0.007404
-0.00625112
-0.00509371
-0.00393051
-0.00276618
-0.00162864
-0.000602206
0.00010924
-0.370544
-0.343961
-0.315417
-0.284148
-0.2548
-0.227994
-0.204646
-0.185359
-0.169788
-0.155916
-0.142528
-0.129025
-0.115155
-0.100818
-0.0862557
-0.0719839
-0.0597749
-0.0528636
-0.0483919
-0.045783
-0.0442821
-0.0434913
-0.0431724
-0.0431666
-0.0433616
-0.0436766
-0.0440522
-0.0444451
-0.0448227
-0.045161
-0.0454419
-0.045652
-0.0457822
-0.0458264
-0.0457816
-0.0456471
-0.0454244
-0.0451166
-0.0447279
-0.0442635
-0.0437289
-0.0431301
-0.0424731
-0.0417635
-0.0410068
-0.0402082
-0.0393723
-0.0385033
-0.0376051
-0.0366809
-0.0357336
-0.034766
-0.03378
-0.0327778
-0.0317609
-0.0307308
-0.0296888
-0.0286358
-0.027573
-0.0265011
-0.0254208
-0.0243329
-0.023238
-0.0221366
-0.0210292
-0.0199164
-0.0187985
-0.0176759
-0.0165491
-0.0154184
-0.0142841
-0.0131465
-0.0120059
-0.0108626
-0.00971695
-0.00856917
-0.0074194
-0.00626714
-0.00511072
-0.00394782
-0.00278222
-0.00164813
-0.000657338
-3.32534e-05
-0.36953
-0.340754
-0.309575
-0.274839
-0.242324
-0.213997
-0.190797
-0.172541
-0.158368
-0.145665
-0.133536
-0.121134
-0.107981
-0.0937798
-0.0784946
-0.0623168
-0.0474586
-0.0438224
-0.0419363
-0.0408614
-0.0403443
-0.0402656
-0.0405048
-0.040952
-0.0415194
-0.0421416
-0.0427717
-0.0433764
-0.0439319
-0.0444208
-0.0448304
-0.0451513
-0.0453771
-0.0455039
-0.0455303
-0.0454569
-0.0452862
-0.0450222
-0.0446702
-0.044236
-0.0437262
-0.0431473
-0.042506
-0.0418086
-0.0410612
-0.0402694
-0.0394382
-0.0385723
-0.0376757
-0.0367521
-0.0358046
-0.0348359
-0.0338485
-0.0328443
-0.0318252
-0.0307926
-0.0297479
-0.0286922
-0.0276265
-0.0265517
-0.0254686
-0.0243778
-0.0232801
-0.0221759
-0.0210658
-0.0199503
-0.0188299
-0.0177049
-0.0165758
-0.015443
-0.0143067
-0.0131673
-0.012025
-0.0108802
-0.00973319
-0.00858433
-0.00743389
-0.00628181
-0.00512754
-0.00397117
-0.00282093
-0.00171693
-0.000773819
-0.000200265
-0.368272
-0.336811
-0.302791
-0.264929
-0.229865
-0.200666
-0.177998
-0.160906
-0.14812
-0.136942
-0.126287
-0.115169
-0.102926
-0.088942
-0.0724926
-0.0522804
-0.0227248
-0.033137
-0.0350614
-0.0356863
-0.0362278
-0.0369405
-0.0378082
-0.0387608
-0.0397352
-0.0406851
-0.0415797
-0.042399
-0.0431304
-0.0437655
-0.044298
-0.0447235
-0.0450389
-0.0452427
-0.045335
-0.0453178
-0.0451946
-0.0449704
-0.0446512
-0.0442438
-0.0437554
-0.0431934
-0.0425651
-0.0418774
-0.041137
-0.0403498
-0.0395214
-0.0386568
-0.0377603
-0.0368358
-0.0358867
-0.0349159
-0.0339259
-0.0329189
-0.0318966
-0.0308608
-0.0298128
-0.0287537
-0.0276847
-0.0266065
-0.0255201
-0.024426
-0.0233251
-0.0222178
-0.0211047
-0.0199864
-0.0188632
-0.0177356
-0.016604
-0.0154688
-0.0143303
-0.0131889
-0.0120448
-0.0108982
-0.00974954
-0.00859907
-0.0074471
-0.00629399
-0.00514078
-0.00399176
-0.00286304
-0.00180291
-0.000922295
-0.000400759
-0.366847
-0.332327
-0.294906
-0.254343
-0.217759
-0.188598
-0.167066
-0.151625
-0.140207
-0.130479
-0.12107
-0.111209
-0.100088
-0.0868771
-0.0706932
-0.0502421
-0.0110944
-0.027981
-0.0296873
-0.0308577
-0.0321891
-0.0336723
-0.0351988
-0.0366865
-0.0380867
-0.0393729
-0.0405322
-0.0415606
-0.0424588
-0.043229
-0.0438731
-0.0443924
-0.0447874
-0.0450591
-0.0452094
-0.0452413
-0.0451592
-0.0449691
-0.0446776
-0.0442924
-0.0438213
-0.0432724
-0.0426537
-0.0419726
-0.0412363
-0.0404512
-0.0396234
-0.038758
-0.0378599
-0.0369329
-0.0359808
-0.0350066
-0.0340128
-0.0330019
-0.0319757
-0.0309358
-0.0298837
-0.0288206
-0.0277476
-0.0266656
-0.0255753
-0.0244776
-0.0233731
-0.0222624
-0.021146
-0.0200245
-0.0188983
-0.0177678
-0.0166335
-0.0154958
-0.014355
-0.0132113
-0.0120651
-0.0109166
-0.00976602
-0.0086135
-0.00745919
-0.00630346
-0.00514813
-0.00400044
-0.00288244
-0.00184821
-0.00100448
-0.000510733
-0.365628
-0.328632
-0.288962
-0.247044
-0.209403
-0.180425
-0.159956
-0.14576
-0.135308
-0.12656
-0.118179
-0.109295
-0.0991902
-0.087171
-0.0726013
-0.0551523
-0.0329698
-0.0268813
-0.0251581
-0.0261953
-0.0282731
-0.0305745
-0.0327925
-0.0348282
-0.0366564
-0.0382743
-0.0396883
-0.0409114
-0.0419591
-0.0428464
-0.0435848
-0.0441818
-0.0446422
-0.0449695
-0.0451669
-0.0452384
-0.0451893
-0.045026
-0.0447558
-0.044387
-0.0439282
-0.0433879
-0.0427747
-0.0420966
-0.0413612
-0.0405754
-0.0397456
-0.0388772
-0.0379753
-0.0370441
-0.0360874
-0.0351083
-0.0341096
-0.0330936
-0.0320624
-0.0310176
-0.0299607
-0.0288929
-0.0278153
-0.0267289
-0.0256344
-0.0245326
-0.0234241
-0.0223096
-0.0211896
-0.0200646
-0.0189351
-0.0178016
-0.0166644
-0.0155239
-0.0143805
-0.0132345
-0.012086
-0.0109354
-0.00978272
-0.00862798
-0.00747104
-0.00631182
-0.00515181
-0.00399833
-0.0028736
-0.001829
-0.000964038
-0.000442075
-0.364244
-0.324742
-0.283409
-0.241552
-0.204656
-0.17655
-0.157231
-0.144231
-0.134847
-0.127033
-0.119455
-0.111222
-0.101766
-0.0907391
-0.0776181
-0.0620237
-0.0432107
-0.0126397
-0.0185543
-0.0209557
-0.0244518
-0.0277773
-0.0307191
-0.0332881
-0.0355253
-0.0374573
-0.0391066
-0.0405014
-0.0416735
-0.0426527
-0.0434615
-0.0441151
-0.0446225
-0.0449895
-0.0452204
-0.0453199
-0.0452936
-0.0451483
-0.0448918
-0.0445327
-0.0440801
-0.0435431
-0.0429308
-0.0422516
-0.0415134
-0.0407237
-0.039889
-0.0390152
-0.0381073
-0.0371699
-0.0362068
-0.0352214
-0.0342164
-0.0331943
-0.0321571
-0.0311064
-0.0300439
-0.0289707
-0.0278879
-0.0267965
-0.0256972
-0.0245908
-0.023478
-0.0223594
-0.0212355
-0.0201067
-0.0189737
-0.0178368
-0.0166964
-0.015553
-0.0144068
-0.0132582
-0.0121074
-0.0109546
-0.00979977
-0.00864296
-0.00748378
-0.00632172
-0.00515724
-0.00399499
-0.00284944
-0.00175364
-0.000786156
-0.000145132
-0.363421
-0.322535
-0.280192
-0.237953
-0.201537
-0.174995
-0.157572
-0.146477
-0.138802
-0.132422
-0.12598
-0.118537
-0.109692
-0.0994268
-0.0873183
-0.0731759
-0.0558027
-0.0324253
-0.00465787
-0.0150606
-0.021109
-0.0255626
-0.0291442
-0.0321646
-0.0347653
-0.0369845
-0.0388431
-0.0403791
-0.0416425
-0.0426808
-0.0435301
-0.0442139
-0.0447458
-0.0451333
-0.0453816
-0.0454953
-0.04548
-0.0453424
-0.0450906
-0.0447335
-0.0442804
-0.0437409
-0.0431242
-0.0424393
-0.0416945
-0.0408973
-0.0400547
-0.0391726
-0.0382564
-0.0373108
-0.0363395
-0.0353461
-0.0343335
-0.033304
-0.0322596
-0.0312022
-0.0301332
-0.0290538
-0.0279652
-0.0268682
-0.0257637
-0.0246523
-0.0235348
-0.0224116
-0.0212834
-0.0201507
-0.0190138
-0.0178733
-0.0167296
-0.015583
-0.0144339
-0.0132825
-0.0121292
-0.010974
-0.00981721
-0.0086587
-0.00749826
-0.00633534
-0.00516958
-0.00400161
-0.00283153
-0.00165646
-0.000510357
0.000353925
-0.362151
-0.318812
-0.275053
-0.233698
-0.199747
-0.175765
-0.160626
-0.151714
-0.146023
-0.141454
-0.136564
-0.13046
-0.122847
-0.11375
-0.102599
-0.0894583
-0.0736328
-0.0534937
-0.0301777
-0.00459954
-0.0194794
-0.0243425
-0.0282129
-0.031516
-0.0344265
-0.0369116
-0.038952
-0.0405912
-0.0419036
-0.0429601
-0.0438137
-0.0444967
-0.045027
-0.0454132
-0.0456604
-0.0457726
-0.0457549
-0.0456136
-0.0453567
-0.044993
-0.044532
-0.0439834
-0.0433567
-0.0426612
-0.0419054
-0.041097
-0.0402432
-0.03935
-0.038423
-0.0374669
-0.0364856
-0.0354826
-0.0344608
-0.0334226
-0.0323701
-0.0313049
-0.0302286
-0.0291423
-0.0280472
-0.026944
-0.0258337
-0.0247169
-0.0235942
-0.0224662
-0.0213334
-0.0201963
-0.0190554
-0.0179111
-0.0167637
-0.0156138
-0.0144615
-0.0133073
-0.0121513
-0.0109938
-0.00983501
-0.00867522
-0.00751459
-0.00635324
-0.00519131
-0.00402778
-0.00285261
-0.00163116
-0.000338344
0.000782172
-0.361099
-0.316391
-0.272827
-0.232757
-0.200147
-0.178078
-0.165399
-0.158856
-0.155222
-0.152672
-0.149609
-0.145359
-0.139465
-0.13204
-0.122329
-0.110388
-0.0962843
-0.0781563
-0.0607958
-0.0392645
-0.0117131
-0.0239654
-0.0278297
-0.0312855
-0.0345308
-0.0372988
-0.0394939
-0.0411849
-0.0424904
-0.0435149
-0.0443302
-0.0449776
-0.0454774
-0.0458384
-0.0460644
-0.0461581
-0.0461234
-0.045966
-0.0456932
-0.0453136
-0.0448366
-0.044272
-0.0436294
-0.042918
-0.0421467
-0.0413232
-0.0404547
-0.0395475
-0.0386071
-0.0376383
-0.036645
-0.0356307
-0.0345982
-0.0335501
-0.0324882
-0.0314143
-0.0303298
-0.0292359
-0.0281336
-0.0270238
-0.0259071
-0.0247844
-0.0236561
-0.0225229
-0.0213852
-0.0202435
-0.0190983
-0.0179499
-0.0167987
-0.0156452
-0.0144897
-0.0133323
-0.0121736
-0.0110137
-0.009853
-0.00869217
-0.00753202
-0.00637395
-0.00522043
-0.00407478
-0.00293414
-0.00176214
-0.000429419
0.00120003
-0.359698
-0.312527
-0.267768
-0.229259
-0.200278
-0.181525
-0.171482
-0.167079
-0.165277
-0.164664
-0.163477
-0.161344
-0.157279
-0.151765
-0.143866
-0.133624
-0.121384
-0.105318
-0.0884263
-0.0660348
-0.0410231
-0.010319
-0.027516
-0.0312645
-0.0351225
-0.0382544
-0.0405526
-0.0422094
-0.0434299
-0.0443607
-0.0450902
-0.0456645
-0.0461039
-0.0464147
-0.0465984
-0.0466557
-0.0465887
-0.046402
-0.0461019
-0.0456967
-0.0451953
-0.0446074
-0.0439426
-0.04321
-0.0424184
-0.0415758
-0.0406891
-0.0397649
-0.0388085
-0.0378247
-0.0368174
-0.0357901
-0.0347455
-0.0336862
-0.0326138
-0.0315303
-0.0304368
-0.0293345
-0.0282243
-0.0271072
-0.0259838
-0.0248547
-0.0237205
-0.0225817
-0.0214387
-0.0202921
-0.0191423
-0.0179896
-0.0168345
-0.0156772
-0.0145181
-0.0133576
-0.012196
-0.0110336
-0.00987095
-0.00870901
-0.00754921
-0.00639413
-0.00524869
-0.00412105
-0.00301438
-0.00185862
-0.000153302
0.00367705
-0.358688
-0.310107
-0.265584
-0.228978
-0.202478
-0.186424
-0.178483
-0.17573
-0.175323
-0.176324
-0.176853
-0.176762
-0.174584