/*--------------------------------*- C++ -*----------------------------------*\
  =========                 |
  \\      /  F ield         | OpenFOAM: The Open Source CFD Toolbox
   \\    /   O peration     | Website:  https://openfoam.org
    \\  /    A nd           | Version:  6
     \\/     M anipulation  |
\*---------------------------------------------------------------------------*/
FoamFile
{
    version     2.0;
    format      ascii;
    class       volScalarField;
    location    "450";
    object      T;
}
// * * * * * * * * * * * * * * * * * * * * * * * * * * * * * * * * * * * * * //

dimensions      [0 0 0 1 0 0 0];

internalField   nonuniform List<scalar> 
5964
(
310.392
309.238
308.238
307.436
306.822
306.353
305.986
305.686
305.427
305.187
304.94
304.676
304.393
304.091
303.768
303.439
303.532
303.636
303.731
303.81
303.874
303.923
303.96
303.987
304.006
304.018
304.025
304.028
304.027
304.023
304.016
304.007
303.996
303.984
303.97
303.955
303.939
303.923
303.905
303.888
303.869
303.85
303.831
303.812
303.792
303.772
303.752
303.731
303.711
303.69
303.669
303.648
303.626
303.605
303.583
303.562
303.54
303.518
303.496
303.474
303.451
303.429
303.406
303.384
303.361
303.338
303.315
303.292
303.269
303.246
303.223
303.199
303.176
303.153
303.129
303.106
303.082
303.059
303.035
303.011
302.987
302.963
302.929
302.813
310.373
309.207
308.221
307.431
306.818
306.351
305.989
305.697
305.443
305.206
304.964
304.708
304.428
304.119
303.772
303.396
303.525
303.643
303.742
303.822
303.884
303.931
303.966
303.992
304.009
304.021
304.027
304.029
304.028
304.023
304.016
304.007
303.996
303.984
303.97
303.955
303.939
303.923
303.905
303.887
303.869
303.85
303.831
303.812
303.792
303.772
303.752
303.731
303.711
303.69
303.669
303.648
303.626
303.605
303.583
303.562
303.54
303.518
303.496
303.474
303.451
303.429
303.407
303.384
303.361
303.338
303.315
303.292
303.269
303.246
303.223
303.199
303.176
303.153
303.129
303.106
303.082
303.059
303.035
303.011
302.987
302.964
302.942
302.914
310.381
309.214
308.219
307.423
306.812
306.354
306.005
305.725
305.483
305.258
305.023
304.773
304.491
304.167
303.789
303.418
303.532
303.664
303.769
303.848
303.906
303.948
303.979
304.001
304.016
304.026
304.03
304.031
304.029
304.024
304.017
304.007
303.996
303.984
303.97
303.955
303.939
303.922
303.905
303.887
303.869
303.85
303.831
303.812
303.792
303.772
303.752
303.731
303.711
303.69
303.669
303.648
303.626
303.605
303.583
303.562
303.54
303.518
303.496
303.474
303.451
303.429
303.407
303.384
303.361
303.338
303.315
303.292
303.269
303.246
303.223
303.199
303.176
303.153
303.129
303.106
303.082
303.059
303.035
303.011
302.987
302.964
302.943
302.928
310.388
309.226
308.225
307.427
306.824
306.381
306.05
305.789
305.566
305.353
305.122
304.876
304.59
304.247
303.796
303.163
303.527
303.708
303.816
303.888
303.938
303.973
303.998
304.015
304.026
304.033
304.035
304.035
304.031
304.025
304.017
304.007
303.996
303.983
303.969
303.954
303.938
303.922
303.905
303.887
303.868
303.85
303.831
303.811
303.792
303.772
303.751
303.731
303.71
303.69
303.669
303.648
303.626
303.605
303.583
303.562
303.54
303.518
303.496
303.474
303.452
303.429
303.407
303.384
303.361
303.338
303.315
303.292
303.269
303.246
303.223
303.2
303.176
303.153
303.129
303.106
303.082
303.059
303.035
303.012
302.988
302.964
302.942
302.928
310.391
309.234
308.238
307.452
306.868
306.446
306.141
305.904
305.701
305.502
305.285
305.044
304.76
304.418
303.991
303.448
303.684
303.814
303.892
303.944
303.98
304.005
304.021
304.032
304.038
304.041
304.041
304.038
304.033
304.027
304.018
304.008
303.996
303.983
303.969
303.954
303.938
303.921
303.904
303.886
303.868
303.849
303.83
303.811
303.791
303.771
303.751
303.731
303.71
303.69
303.669
303.648
303.626
303.605
303.584
303.562
303.54
303.518
303.496
303.474
303.452
303.429
303.407
303.384
303.361
303.338
303.316
303.293
303.269
303.246
303.223
303.2
303.176
303.153
303.129
303.106
303.082
303.059
303.035
303.012
302.988
302.964
302.941
302.925
310.397
309.256
308.276
307.507
306.947
306.556
306.284
306.07
305.893
305.713
305.509
305.271
304.99
304.662
304.302
303.944
303.937
303.96
303.988
304.011
304.028
304.04
304.047
304.051
304.052
304.051
304.047
304.042
304.036
304.028
304.018
304.007
303.995
303.982
303.968
303.953
303.937
303.92
303.903
303.885
303.867
303.849
303.83
303.811
303.791
303.771
303.751
303.731
303.71
303.69
303.669
303.648
303.626
303.605
303.584
303.562
303.54
303.518
303.496
303.474
303.452
303.429
303.407
303.384
303.361
303.339
303.316
303.293
303.27
303.246
303.223
303.2
303.176
303.153
303.129
303.106
303.082
303.059
303.035
303.012
302.988
302.963
302.938
302.919
310.405
309.279
308.326
307.596
307.07
306.711
306.473
306.279
306.128
305.969
305.773
305.538
305.256
304.934
304.606
304.311
304.158
304.097
304.08
304.078
304.078
304.077
304.074
304.071
304.066
304.06
304.053
304.046
304.038
304.029
304.018
304.007
303.994
303.981
303.967
303.951
303.936
303.919
303.902
303.885
303.866
303.848
303.829
303.81
303.791
303.771
303.751
303.731
303.71
303.689
303.669
303.648
303.626
303.605
303.584
303.562
303.54
303.518
303.496
303.474
303.452
303.429
303.407
303.384
303.362
303.339
303.316
303.293
303.27
303.246
303.223
303.2
303.176
303.153
303.129
303.106
303.082
303.059
303.035
303.011
302.987
302.961
302.934
302.913
310.425
309.344
308.424
307.721
307.23
306.904
306.693
306.524
306.395
306.254
306.062
305.828
305.541
305.208
304.86
304.532
304.287
304.188
304.153
304.136
304.124
304.112
304.1
304.089
304.079
304.069
304.059
304.049
304.039
304.029
304.018
304.006
303.993
303.979
303.965
303.95
303.934
303.918
303.901
303.883
303.865
303.847
303.828
303.809
303.79
303.77
303.75
303.73
303.71
303.689
303.669
303.648
303.626
303.605
303.584
303.562
303.54
303.518
303.496
303.474
303.452
303.43
303.407
303.384
303.362
303.339
303.316
303.293
303.27
303.247
303.223
303.2
303.176
303.153
303.129
303.106
303.082
303.059
303.035
303.011
302.987
302.961
302.935
302.915
310.459
309.433
308.56
307.889
307.425
307.127
306.939
306.802
306.677
306.55
306.362
306.123
305.821
305.462
305.065
304.65
304.273
304.216
304.201
304.184
304.165
304.144
304.124
304.106
304.09
304.076
304.063
304.051
304.04
304.028
304.016
304.004
303.991
303.977
303.963
303.948
303.932
303.916
303.899
303.882
303.864
303.846
303.828
303.809
303.789
303.77
303.75
303.73
303.71
303.689
303.669
303.648
303.626
303.605
303.584
303.562
303.54
303.519
303.497
303.474
303.452
303.43
303.407
303.385
303.362
303.339
303.316
303.293
303.27
303.247
303.223
303.2
303.177
303.153
303.13
303.106
303.082
303.059
303.035
303.011
302.986
302.96
302.935
302.917
310.472
309.49
308.68
308.071
307.649
307.372
307.197
307.08
306.959
306.836
306.649
306.404
306.088
305.705
305.256
304.719
303.958
304.197
304.241
304.229
304.202
304.171
304.143
304.119
304.098
304.08
304.065
304.051
304.038
304.026
304.014
304.001
303.988
303.974
303.96
303.945
303.93
303.914
303.898
303.88
303.863
303.845
303.827
303.808
303.789
303.769
303.75
303.73
303.71
303.689
303.668
303.648
303.627
303.605
303.584
303.562
303.541
303.519
303.497
303.475
303.452
303.43
303.407
303.385
303.362
303.339
303.316
303.293
303.27
303.247
303.224
303.2
303.177
303.153
303.13
303.106
303.082
303.059
303.035
303.01
302.985
302.958
302.932
302.914
310.533
309.642
308.873
308.287
307.88
307.619
307.456
307.35
307.236
307.103
306.912
306.657
306.331
305.937
305.473
304.932
304.294
304.342
304.324
304.282
304.237
304.195
304.158
304.128
304.103
304.082
304.065
304.049
304.036
304.023
304.01
303.997
303.984
303.971
303.957
303.942
303.927
303.912
303.895
303.879
303.861
303.844
303.826
303.807
303.788
303.769
303.749
303.729
303.709
303.689
303.668
303.648
303.627
303.605
303.584
303.563
303.541
303.519
303.497
303.475
303.453
303.43
303.408
303.385
303.362
303.339
303.317
303.293
303.27
303.247
303.224
303.2
303.177
303.153
303.13
303.106
303.082
303.059
303.034
303.01
302.983
302.955
302.928
302.909
310.561
309.731
309.027
308.486
308.109
307.866
307.715
307.607
307.489
307.339
307.138
306.872
306.54
306.143
305.685
305.19
304.744
304.546
304.423
304.335
304.266
304.211
304.167
304.131
304.103
304.08
304.061
304.045
304.031
304.018
304.005
303.993
303.98
303.967
303.953
303.939
303.924
303.909
303.893
303.877
303.86
303.842
303.824
303.806
303.787
303.768
303.749
303.729
303.709
303.689
303.668
303.648
303.627
303.606
303.584
303.563
303.541
303.519
303.497
303.475
303.453
303.431
303.408
303.385
303.363
303.34
303.317
303.294
303.271
303.247
303.224
303.201
303.177
303.153
303.13
303.106
303.082
303.058
303.034
303.009
302.982
302.953
302.925
302.905
310.592
309.824
309.178
308.685
308.339
308.109
307.966
307.843
307.706
307.53
307.307
307.025
306.684
306.283
305.836
305.373
304.961
304.675
304.49
304.367
304.281
304.217
304.167
304.129
304.099
304.075
304.055
304.039
304.024
304.011
303.999
303.987
303.974
303.962
303.949
303.935
303.921
303.906
303.891
303.875
303.858
303.841
303.823
303.805
303.787
303.768
303.749
303.729
303.709
303.689
303.669
303.648
303.627
303.606
303.585
303.563
303.541
303.52
303.498
303.476
303.453
303.431
303.408
303.386
303.363
303.34
303.317
303.294
303.271
303.247
303.224
303.201
303.177
303.154
303.13
303.106
303.082
303.058
303.034
303.009
302.982
302.953
302.924
302.905
310.624
309.92
309.331
308.88
308.558
308.338
308.185
308.034
307.865
307.661
307.416
307.121
306.772
306.37
305.924
305.462
305.039
304.71
304.501
304.368
304.276
304.21
304.159
304.12
304.089
304.065
304.046
304.03
304.016
304.003
303.991
303.98
303.968
303.956
303.944
303.931
303.917
303.903
303.888
303.872
303.856
303.839
303.822
303.804
303.786
303.767
303.748
303.729
303.709
303.689
303.669
303.648
303.627
303.606
303.585
303.563
303.542
303.52
303.498
303.476
303.454
303.431
303.409
303.386
303.363
303.34
303.317
303.294
303.271
303.248
303.224
303.201
303.177
303.154
303.13
303.106
303.082
303.058
303.034
303.009
302.982
302.953
302.926
302.907
310.656
310.013
309.478
309.067
308.76
308.54
308.36
308.174
307.967
307.732
307.465
307.155
306.798
306.391
305.94
305.471
305.02
304.633
304.449
304.334
304.252
304.19
304.142
304.104
304.075
304.052
304.033
304.018
304.005
303.993
303.982
303.972
303.961
303.95
303.938
303.926
303.913
303.899
303.885
303.87
303.854
303.838
303.821
303.803
303.785
303.767
303.748
303.729
303.709
303.689
303.669
303.648
303.627
303.606
303.585
303.564
303.542
303.52
303.498
303.476
303.454
303.432
303.409
303.386
303.364
303.341
303.318
303.295
303.271
303.248
303.225
303.201
303.178
303.154
303.13
303.106
303.082
303.058
303.034
303.009
302.982
302.955
302.929
302.911
310.688
310.105
309.611
309.228
308.926
308.692
308.469
308.238
307.993
307.726
307.433
307.108
306.746
306.344
305.901
305.423
304.922
304.374
304.339
304.275
304.213
304.16
304.117
304.083
304.056
304.034
304.017
304.003
303.992
303.981
303.972
303.962
303.953
303.942
303.932
303.92
303.908
303.895
303.882
303.867
303.852
303.836
303.819
303.802
303.784
303.766
303.748
303.728
303.709
303.689
303.669
303.649
303.628
303.607
303.586
303.564
303.543
303.521
303.499
303.477
303.454
303.432
303.409
303.387
303.364
303.341
303.318
303.295
303.272
303.248
303.225
303.201
303.178
303.154
303.13
303.107
303.083
303.058
303.034
303.009
302.983
302.956
302.932
302.916
310.718
310.188
309.732
309.357
309.041
308.769
308.5
308.225
307.938
307.637
307.322
306.988
306.626
306.232
305.801
305.329
304.824
304.264
304.258
304.218
304.17
304.125
304.087
304.056
304.032
304.013
303.999
303.987
303.977
303.968
303.96
303.952
303.944
303.935
303.925
303.915
303.903
303.891
303.878
303.864
303.85
303.834
303.818
303.801
303.784
303.766
303.747
303.728
303.709
303.689
303.669
303.649
303.628
303.607
303.586
303.565
303.543
303.521
303.499
303.477
303.455
303.433
303.41
303.387
303.364
303.341
303.318
303.295
303.272
303.249
303.225
303.202
303.178
303.154
303.131
303.107
303.083
303.059
303.034
303.009
302.984
302.958
302.935
302.919
310.74
310.246
309.808
309.426
309.089
308.771
308.448
308.124
307.799
307.472
307.14
306.795
306.434
306.048
305.64
305.201
304.737
304.229
304.213
304.172
304.127
304.087
304.053
304.026
304.006
303.99
303.978
303.968
303.96
303.954
303.947
303.941
303.934
303.926
303.918
303.909
303.898
303.887
303.875
303.862
303.848
303.833
303.817
303.8
303.783
303.766
303.747
303.729
303.709
303.69
303.67
303.649
303.629
303.608
303.587
303.565
303.544
303.522
303.5
303.478
303.456
303.433
303.41
303.388
303.365
303.342
303.319
303.296
303.272
303.249
303.226
303.202
303.178
303.155
303.131
303.107
303.083
303.059
303.034
303.01
302.985
302.96
302.937
302.921
310.755
310.281
309.842
309.44
309.06
308.686
308.311
307.944
307.591
307.249
306.912
306.566
306.214
305.847
305.467
305.072
304.675
304.311
304.197
304.133
304.085
304.047
304.016
303.993
303.976
303.963
303.954
303.947
303.942
303.938
303.934
303.929
303.924
303.918
303.911
303.903
303.894
303.883
303.872
303.859
303.846
303.831
303.816
303.8
303.783
303.766
303.747
303.729
303.71
303.69
303.67
303.65
303.63
303.609
303.588
303.566
303.545
303.523
303.501
303.479
303.456
303.434
303.411
303.388
303.365
303.342
303.319
303.296
303.273
303.249
303.226
303.202
303.179
303.155
303.131
303.107
303.083
303.059
303.035
303.011
302.986
302.962
302.937
302.916
310.76
310.285
309.827
309.388
308.954
308.521
308.099
307.701
307.335
306.993
306.661
306.326
305.986
305.638
305.287
304.931
304.57
304.168
304.14
304.086
304.039
304.003
303.976
303.957
303.943
303.935
303.929
303.925
303.923
303.921
303.919
303.917
303.913
303.909
303.904
303.897
303.889
303.879
303.869
303.857
303.844
303.83
303.815
303.799
303.783
303.766
303.748
303.729
303.71
303.691
303.671
303.651
303.63
303.609
303.588
303.567
303.545
303.523
303.501
303.479
303.457
303.434
303.412
303.389
303.366
303.343
303.32
303.297
303.273
303.25
303.226
303.203
303.179
303.155
303.131
303.108
303.084
303.059
303.035
303.011
302.987
302.962
302.934
302.905
310.755
310.263
309.766
309.265
308.774
308.288
307.828
307.415
307.053
306.721
306.4
306.079
305.755
305.429
305.102
304.785
304.487
304.229
304.11
304.037
303.987
303.954
303.931
303.917
303.908
303.904
303.902
303.902
303.903
303.904
303.905
303.904
303.903
303.9
303.896
303.891
303.884
303.876
303.866
303.855
303.843
303.829
303.815
303.799
303.783
303.766
303.748
303.73
303.711
303.692
303.672
303.652
303.631
303.61
303.589
303.568
303.546
303.524
303.502
303.48
303.458
303.435
303.412
303.39
303.367
303.344
303.32
303.297
303.274
303.25
303.227
303.203
303.179
303.156
303.132
303.108
303.084
303.06
303.036
303.012
302.987
302.963
302.94
302.919
310.744
310.222
309.676
309.096
308.543
308.013
307.533
307.119
306.77
306.456
306.153
305.848
305.54
305.23
304.921
304.625
304.365
304.165
304.043
303.971
303.926
303.898
303.882
303.874
303.871
303.872
303.875
303.879
303.883
303.887
303.89
303.892
303.893
303.892
303.89
303.886
303.88
303.872
303.863
303.853
303.841
303.828
303.814
303.799
303.783
303.767
303.749
303.731
303.712
303.693
303.673
303.653
303.632
303.611
303.59
303.569
303.547
303.525
303.503
303.481
303.459
303.436
303.413
303.39
303.367
303.344
303.321
303.298
303.274
303.251
303.227
303.203
303.18
303.156
303.132
303.108
303.084
303.06
303.036
303.012
302.988
302.964
302.943
302.928
310.727
310.168
309.568
308.91
308.293
307.729
307.238
306.832
306.504
306.211
305.929
305.645
305.353
305.052
304.745
304.445
304.188
304.032
303.938
303.884
303.853
303.836
303.829
303.829
303.833
303.84
303.848
303.856
303.864
303.871
303.877
303.881
303.884
303.884
303.884
303.881
303.876
303.87
303.862
303.852
303.841
303.828
303.815
303.8
303.784
303.767
303.75
303.732
303.713
303.694
303.674
303.654
303.634
303.613
303.592
303.57
303.548
303.526
303.504
303.482
303.459
303.437
303.414
303.391
303.368
303.345
303.322
303.298
303.275
303.251
303.227
303.204
303.18
303.156
303.132
303.108
303.085
303.061
303.036
303.012
302.988
302.965
302.944
302.931
310.706
310.101
309.445
308.714
308.03
307.434
306.946
306.562
306.263
305.996
305.74
305.479
305.202
304.904
304.583
304.243
303.93
303.843
303.804
303.781
303.771
303.769
303.774
303.783
303.795
303.808
303.821
303.834
303.845
303.855
303.864
303.87
303.875
303.878
303.878
303.877
303.873
303.868
303.86
303.851
303.841
303.829
303.815
303.801
303.785
303.769
303.751
303.733
303.715
303.695
303.676
303.656
303.635
303.614
303.593
303.571
303.55
303.528
303.505
303.483
303.46
303.438
303.415
303.392
303.369
303.345
303.322
303.299
303.275
303.252
303.228
303.204
303.18
303.157
303.133
303.109
303.085
303.061
303.037
303.013
302.989
302.966
302.947
302.935
310.68
310.018
309.302
308.505
307.767
307.153
306.676
306.317
306.048
305.812
305.588
305.354
305.096
304.802
304.457
304.032
303.468
303.621
303.661
303.674
303.685
303.7
303.718
303.738
303.758
303.778
303.796
303.813
303.828
303.842
303.853
303.862
303.868
303.872
303.874
303.874
303.871
303.867
303.86
303.852
303.841
303.83
303.817
303.802
303.787
303.77
303.753
303.735
303.716
303.697
303.677
303.657
303.637
303.616
303.594
303.573
303.551
303.529
303.507
303.484
303.462
303.439
303.416
303.393
303.37
303.346
303.323
303.299
303.276
303.252
303.228
303.205
303.181
303.157
303.133
303.109
303.085
303.061
303.037
303.013
302.99
302.968
302.95
302.939
310.65
309.923
309.135
308.282
307.512
306.899
306.446
306.121
305.881
305.676
305.478
305.271
305.037
304.759
304.419
303.988
303.395
303.513
303.549
303.573
303.601
303.632
303.663
303.694
303.723
303.75
303.774
303.796
303.814
303.83
303.844
303.855
303.863
303.869
303.872
303.872
303.871
303.867
303.861
303.853
303.843
303.831
303.818
303.804
303.789
303.773
303.755
303.737
303.719
303.699
303.679
303.659
303.638
303.617
303.596
303.574
303.552
303.53
303.508
303.485
303.463
303.44
303.417
303.394
303.37
303.347
303.324
303.3
303.276
303.253
303.229
303.205
303.181
303.157
303.133
303.109
303.085
303.061
303.037
303.013
302.99
302.969
302.951
302.941
310.624
309.845
309.01
308.128
307.336
306.727
306.296
305.998
305.778
305.594
305.417
305.23
305.018
304.765
304.458
304.091
303.681
303.49
303.454
303.476
303.519
303.567
303.613
303.656
303.694
303.727
303.757
303.782
303.804
303.823
303.838
303.85
303.86
303.867
303.871
303.872
303.871
303.868
303.862
303.855
303.845
303.834
303.821
303.807
303.791
303.775
303.758
303.74
303.721
303.702
303.682
303.661
303.64
303.619
303.598
303.576
303.554
303.532
303.509
303.487
303.464
303.441
303.418
303.395
303.371
303.348
303.324
303.301
303.277
303.253
303.229
303.206
303.182
303.158
303.134
303.11
303.086
303.061
303.037
303.013
302.99
302.968
302.95
302.94
310.595
309.763
308.893
308.013
307.237
306.645
306.239
305.966
305.768
305.604
305.444
305.271
305.072
304.84
304.564
304.236
303.84
303.338
303.317
303.367
303.44
303.509
303.57
303.623
303.67
303.71
303.745
303.774
303.798
303.818
303.835
303.849
303.859
303.867
303.872
303.874
303.873
303.87
303.865
303.858
303.848
303.837
303.824
303.81
303.795
303.778
303.761
303.743
303.724
303.704
303.684
303.664
303.643
303.621
303.6
303.578
303.556
303.533
303.511
303.488
303.465
303.442
303.419
303.396
303.372
303.349
303.325
303.301
303.278
303.254
303.23
303.206
303.182
303.158
303.134
303.11
303.086
303.062
303.037
303.013
302.989
302.967
302.947
302.934
310.577
309.717
308.826
307.937
307.171
306.613
306.246
306.013
305.851
305.717
305.581
305.424
305.238
305.022
304.768
304.47
304.105
303.643
303.122
303.244
303.37
303.463
303.537
303.6
303.654
303.7
303.739
303.771
303.797
303.819
303.837
303.851
303.862
303.87
303.875
303.878
303.877
303.874
303.869
303.862
303.852
303.841
303.828
303.814
303.798
303.782
303.764
303.746
303.727
303.707
303.687
303.666
303.645
303.624
303.602
303.58
303.558
303.535
303.512
303.49
303.467
303.443
303.42
303.397
303.373
303.35
303.326
303.302
303.278
303.255
303.231
303.207
303.183
303.159
303.134
303.11
303.086
303.062
303.038
303.013
302.989
302.965
302.941
302.924
310.551
309.639
308.718
307.848
307.133
306.629
306.31
306.123
306.003
305.907
305.804
305.675
305.515
305.324
305.089
304.812
304.48
304.056
303.592
303.122
303.336
303.437
303.518
303.586
303.647
303.699
303.741
303.776
303.803
303.825
303.843
303.857
303.868
303.876
303.881
303.883
303.883
303.88
303.875
303.867
303.858
303.846
303.833
303.819
303.803
303.786
303.768
303.75
303.73
303.71
303.69
303.669
303.648
303.626
303.604
303.582
303.56
303.537
303.514
303.491
303.468
303.445
303.421
303.398
303.374
303.351
303.327
303.303
303.279
303.255
303.231
303.207
303.183
303.159
303.135
303.111
303.086
303.062
303.038
303.014
302.989
302.964
302.938
302.915
310.529
309.589
308.672
307.829
307.142
306.678
306.411
306.273
306.197
306.143
306.078
305.989
305.865
305.708
305.504
305.253
304.956
304.575
304.21
303.798
303.405
303.427
303.509
303.582
303.649
303.707
303.753
303.788
303.815
303.837
303.853
303.867
303.877
303.885
303.89
303.891
303.891
303.887
303.882
303.874
303.864
303.852
303.839
303.824
303.808
303.791
303.773
303.754
303.734
303.714
303.693
303.672
303.651
303.629
303.607
303.584
303.562
303.539
303.516
303.493
303.47
303.446
303.423
303.399
303.375
303.352
303.328
303.304
303.28
303.256
303.232
303.208
303.184
303.159
303.135
303.111
303.087
303.063
303.039
303.015
302.991
302.966
302.938
302.905
310.5
309.508
308.567
307.756
307.145
306.75
306.539
306.446
306.408
306.395
306.37
306.325
306.24
306.123
305.957
305.742
305.485
305.146
304.791
304.32
303.803
303.338
303.502
303.581
303.662
303.727
303.775
303.809
303.835
303.854
303.869
303.881
303.89
303.897
303.901
303.902
303.9
303.896
303.89
303.882
303.871
303.859
303.845
303.83
303.814
303.796
303.777
303.758
303.738
303.718
303.697
303.675
303.654
303.632
303.609
303.587
303.564
303.541
303.518
303.495
303.471
303.448
303.424
303.4
303.376
303.353
303.329
303.305
303.281
303.256
303.232
303.208
303.184
303.16
303.136
303.111
303.087
303.063
303.039
303.016
302.993
302.968
302.932
302.863
310.478
309.456
308.519
307.749
307.191
306.853
306.686
306.628
306.619
306.64
306.651
306.649
306.604
306.527
306.41
306.233
306.016
305.72
305.373
304.933
304.473
304.009
303.554
303.58
303.69
303.764
303.81
303.84
303.862
303.878
303.89
303.9
303.907
303.912
303.915
303.915
303.912
303.907
303.9
303.891
303.88
303.867
303.853
303.837
303.82
303.802
303.783
303.763
303.743
303.722
303.701
303.679
303.657
303.635
303.612
303.589
303.566
303.543
303.52
303.496
303.473
303.449
303.425
303.402
303.378
303.354
303.33
303.306
303.281
303.257
303.233
303.209
303.184
303.16
303.136
303.112
303.088
303.064
303.04
303.016
302.994
302.97
302.943
302.907
310.468
309.445
308.532
307.79
307.274
306.976
306.84
306.806
306.824
306.867
306.911
306.935
306.935
306.89
306.827
306.687
306.512
306.258
305.939
305.542
305.1
304.61
304.093
303.517
303.753
303.827
303.861
303.882
303.896
303.907
303.916
303.923
303.928
303.93
303.931
303.93
303.926
303.92
303.912
303.902
303.89
303.876
303.861
303.844
303.827
303.808
303.789
303.768
303.748
303.726
303.705
303.683
303.66
303.638
303.615
303.592
303.569
303.545
303.522
303.498
303.475
303.451
303.427
303.403
303.379
303.355
303.331
303.306
303.282
303.258
303.234
303.209
303.185
303.161
303.136
303.112
303.088
303.064
303.04
303.016
302.993
302.97
302.941
302.91
310.478
309.469
308.575
307.869
307.389
307.113
306.995
306.974
307.012
307.073
307.14
307.185
307.22
307.202
307.183
307.087
306.949
306.739
306.455
306.098
305.673
305.183
304.662
304.151
303.968
303.929
303.925
303.93
303.936
303.942
303.946
303.949
303.951
303.952
303.95
303.947
303.942
303.934
303.925
303.913
303.9
303.886
303.87
303.852
303.834
303.815
303.795
303.774
303.753
303.731
303.709
303.687
303.664
303.641
303.618
303.595
303.571
303.548
303.524
303.5
303.476
303.452
303.428
303.404
303.38
303.356
303.332
303.307
303.283
303.259
303.234
303.21
303.185
303.161
303.137
303.112
303.088
303.064
303.04
303.016
302.993
302.969
302.941
302.906
310.477
309.481
308.622
307.957
307.507
307.25
307.146
307.132
307.181
307.254
307.337
307.396
307.454
307.468
307.475
307.426
307.323
307.155
306.911
306.59
306.191
305.717
305.19
304.631
304.067
304.009
303.984
303.979
303.979
303.98
303.98
303.98
303.978
303.976
303.972
303.967
303.959
303.95
303.939
303.926
303.912
303.896
303.879
303.861
303.842
303.822
303.801
303.78
303.758
303.736
303.714
303.691
303.668
303.645
303.621
303.598
303.574
303.55
303.526
303.502
303.478
303.454
303.43
303.406
303.381
303.357
303.332
303.308
303.284
303.259
303.235
303.21
303.186
303.161
303.137
303.113
303.088
303.064
303.04
303.016
302.992
302.967
302.933
302.878
310.484
309.514
308.689
308.054
307.627
307.388
307.293
307.284
307.337
307.414
307.502
307.576
307.645
307.69
307.712
307.703
307.636
307.505
307.303
307.019
306.65
306.194
305.664
305.071
304.483
304.073
304.03
304.028
304.026
304.022
304.018
304.014
304.009
304.003
303.996
303.988
303.978
303.967
303.955
303.94
303.925
303.908
303.89
303.871
303.851
303.83
303.808
303.786
303.764
303.741
303.718
303.695
303.672
303.648
303.624
303.6
303.577
303.552
303.528
303.504
303.48
303.456
303.431
303.407
303.382
303.358
303.333
303.309
303.284
303.26
303.235
303.211
303.186
303.162
303.137
303.113
303.089
303.064
303.04
303.015
302.991
302.968
302.939
302.897
310.505
309.575
308.775
308.158
307.749
307.524
307.437
307.434
307.488
307.564
307.649
307.731
307.806
307.87
307.912
307.926
307.895
307.801
307.64
307.397
307.064
306.635
306.11
305.484
304.767
303.812
304.046
304.08
304.077
304.069
304.06
304.051
304.042
304.032
304.022
304.011
303.999
303.986
303.971
303.955
303.938
303.92
303.901
303.88
303.859
303.838
303.816
303.793
303.77
303.747
303.723
303.7
303.676
303.652
303.628
303.604
303.579
303.555
303.531
303.506
303.482
303.457
303.433
303.408
303.384
303.359
303.334
303.31
303.285
303.261
303.236
303.211
303.187
303.162
303.138
303.113
303.089
303.064
303.04
303.015
302.991
302.966
302.931
302.864
310.532
309.645
308.868
308.271
307.88
307.665
307.582
307.582
307.634
307.709
307.786
307.867
307.946
308.019
308.078
308.112
308.111
308.056
307.934
307.731
307.432
307.024
306.503
305.879
305.182
304.478
304.246
304.169
304.139
304.12
304.105
304.09
304.077
304.064
304.05
304.036
304.021
304.006
303.989
303.971
303.952
303.933
303.912
303.891
303.869
303.846
303.823
303.8
303.776
303.752
303.728
303.704
303.68
303.655
303.631
303.607
303.582
303.558
303.533
303.508
303.484
303.459
303.434
303.41
303.385
303.36
303.335
303.311
303.286
303.261
303.236
303.212
303.187
303.162
303.138
303.113
303.089
303.064
303.04
303.015
302.99
302.966
302.942
302.915
310.541
309.673
308.934
308.376
308.008
307.806
307.728
307.729
307.78
307.853
307.921
307.994
308.071
308.15
308.221
308.273
308.295
308.273
308.187
308.019
307.753
307.373
306.873
306.264
305.563
304.845
304.309
304.222
304.195
304.173
304.152
304.133
304.114
304.097
304.08
304.062
304.045
304.026
304.007
303.987
303.967
303.946
303.924
303.901
303.878
303.855
303.831
303.807
303.782
303.758
303.733
303.709
303.684
303.659
303.634
303.61
303.585
303.56
303.535
303.51
303.486
303.461
303.436
303.411
303.386
303.361
303.336
303.311
303.287
303.262
303.237
303.212
303.187
303.163
303.138
303.114
303.089
303.065
303.04
303.015
302.99
302.966
302.945
302.931
310.56
309.725
309.016
308.487
308.14
307.949
307.874
307.876
307.925
307.999
308.058
308.122
308.193
308.27
308.348
308.414
308.455
308.457
308.401
308.267
308.038
307.689
307.207
306.597
305.871
305.041
303.969
304.227
304.251
304.229
304.202
304.177
304.154
304.131
304.11
304.089
304.069
304.048
304.026
304.004
303.982
303.959
303.936
303.912
303.888
303.863
303.839
303.814
303.789
303.764
303.739
303.713
303.688
303.663
303.638
303.613
303.588
303.563
303.538
303.512
303.487
303.462
303.437
303.412
303.387
303.362
303.337
303.312
303.287
303.262
303.237
303.213
303.188
303.163
303.138
303.114
303.089
303.065
303.04
303.015
302.99
302.965
302.944
302.931
310.579
309.781
309.106
308.603
308.273
308.09
308.019
308.021
308.069
308.142
308.197
308.252
308.315
308.387
308.465
308.54
308.597
308.62
308.594
308.495
308.302
307.985
307.53
306.938
306.223
305.412
304.611
304.445
304.351
304.295
304.255
304.223
304.194
304.167
304.142
304.117
304.093
304.069
304.045
304.021
303.997
303.973
303.948
303.923
303.897
303.872
303.846
303.821
303.795
303.769
303.744
303.718
303.692
303.667
303.641
303.616
303.59
303.565
303.54
303.515
303.489
303.464
303.439
303.414
303.388
303.363
303.338
303.313
303.288
303.263
303.238
303.213
303.188
303.163
303.139
303.114
303.09
303.065
303.04
303.016
302.99
302.965
302.943
302.929
310.598
309.839
309.201
308.722
308.406
308.23
308.16
308.164
308.211
308.28
308.334
308.383
308.439
308.503
308.578
308.657
308.726
308.765
308.764
308.694
308.533
308.252
307.831
307.26
306.557
305.771
305.038
304.597
304.424
304.35
304.305
304.268
304.235
304.204
304.174
304.146
304.118
304.091
304.065
304.038
304.012
303.986
303.96
303.933
303.907
303.881
303.854
303.828
303.801
303.775
303.749
303.723
303.697
303.671
303.645
303.619
303.593
303.568
303.542
303.517
303.491
303.466
303.44
303.415
303.39
303.364
303.339
303.314
303.289
303.263
303.238
303.213
303.188
303.163
303.139
303.114
303.09
303.065
303.041
303.016
302.991
302.965
302.942
302.927
310.617
309.897
309.291
308.836
308.534
308.365
308.299
308.303
308.348
308.414
308.467
308.513
308.562
308.621
308.691
308.77
308.845
308.899
308.916
308.873
308.743
308.499
308.113
307.569
306.865
306.031
305.183
304.508
304.417
304.386
304.352
304.315
304.277
304.241
304.207
304.174
304.143
304.113
304.084
304.055
304.027
303.999
303.972
303.944
303.917
303.889
303.862
303.835
303.808
303.781
303.754
303.727
303.701
303.674
303.648
303.622
303.596
303.57
303.544
303.519
303.493
303.467
303.442
303.416
303.391
303.365
303.34
303.314
303.289
303.264
303.239
303.214
303.189
303.164
303.139
303.114
303.09
303.065
303.041
303.016
302.991
302.966
302.942
302.925
310.636
309.953
309.378
308.945
308.658
308.497
308.434
308.439
308.481
308.544
308.595
308.639
308.684
308.738
308.803
308.879
308.959
309.023
309.054
309.033
308.935