0 	-3.62956e-21 	0 	-1.08887e-20
0.010101 	-2.02054e-20 	-3.36237e-23 	-7.71198e-20
0.020202 	1.03556e-20 	-2.36558e-22 	-3.30701e-20
0.030303 	-3.00093e-20 	-3.34534e-23 	-1.95128e-20
0.040404 	3.17883e-20 	3.36237e-23 	-4.56133e-20
0.0505051 	-6.76632e-20 	-3.40653e-25 	-8.38354e-21
