0 	-1.08887e-20 	0 	-7.25912e-21
0.010101 	5.20837e-21 	1.69311e-22 	3.71715e-20
0.020202 	1.20763e-20 	-2.36558e-22 	-9.82404e-20
0.030303 	-1.41826e-20 	-1.35176e-22 	-4.23312e-20
0.040404 	3.35532e-20 	2.02935e-22 	-5.97399e-20
0.0505051 	-8.77288e-21 	-1.35857e-22 	2.12239e-20
