/*--------------------------------*- C++ -*----------------------------------*\
  =========                 |
  \\      /  F ield         | OpenFOAM: The Open Source CFD Toolbox
   \\    /   O peration     | Website:  https://openfoam.org
    \\  /    A nd           | Version:  6
     \\/     M anipulation  |
\*---------------------------------------------------------------------------*/
FoamFile
{
    version     2.0;
    format      ascii;
    class       surfaceScalarField;
    location    "2700";
    object      phi;
}
// * * * * * * * * * * * * * * * * * * * * * * * * * * * * * * * * * * * * * //

dimensions      [0 3 -1 0 0 0 0];

internalField   nonuniform List<scalar> 
9440
(
-2.89972e-11
2.89972e-11
-1.81276e-11
-1.08667e-11
-1.43699e-10
1.25574e-10
-6.60064e-10
5.16367e-10
-9.29259e-10
2.69196e-10
-1.13581e-09
2.06552e-10
-1.50807e-09
3.72265e-10
-1.70799e-09
1.99919e-10
-1.86605e-09
1.58057e-10
-2.04589e-09
1.79845e-10
-2.13055e-09
8.46547e-11
-2.31837e-09
1.87826e-10
-2.38428e-09
6.59067e-11
-2.49443e-09
1.10151e-10
-2.56828e-09
7.38459e-11
-2.59045e-09
2.21711e-11
-2.61284e-09
2.23961e-11
-2.61612e-09
3.27758e-12
-2.60418e-09
-1.194e-11
-2.5778e-09
-2.63811e-11
-2.53186e-09
-4.59346e-11
-2.5168e-09
-1.50624e-11
-2.52062e-09
3.81747e-12
-2.53055e-09
9.93254e-12
-2.59371e-09
6.31627e-11
-2.71355e-09
1.19844e-10
-2.81625e-09
1.02694e-10
-2.87055e-09
5.43055e-11
-2.85052e-09
-2.00356e-11
-2.78873e-09
-6.17881e-11
-2.92157e-09
1.3284e-10
-2.91017e-09
-1.14028e-11
-3.02645e-09
1.16279e-10
-3.03938e-09
1.29303e-11
-2.92721e-09
-1.12166e-10
-2.76488e-09
-1.62332e-10
-2.63988e-09
-1.25001e-10
-2.62265e-09
-1.72297e-11
-2.24548e-09
-3.77173e-10
-1.94256e-09
-3.02921e-10
-1.76167e-09
-1.80898e-10
-1.67825e-09
-8.34161e-11
-1.65887e-09
-1.93766e-11
-1.55987e-09
-9.90053e-11
-1.43919e-09
-1.20676e-10
-1.36916e-09
-7.00373e-11
-1.32241e-09
-4.6745e-11
-1.26442e-09
-5.79931e-11
-1.02547e-09
-2.38954e-10
-9.70856e-10
-5.4614e-11
-7.77479e-10
-1.9338e-10
-6.73645e-10
-1.03836e-10
-6.40509e-10
-3.31381e-11
-6.08739e-10
-3.17719e-11
-5.04643e-10
-1.04097e-10
-2.59767e-10
-2.44878e-10
-5.96005e-11
-2.00167e-10
1.54824e-10
-2.14425e-10
4.30636e-10
-2.75812e-10
7.03558e-10
-2.72922e-10
9.03617e-10
-2.00059e-10
1.22243e-09
-3.18812e-10
1.36054e-09
-1.38109e-10
1.52163e-09
-1.61091e-10
1.69629e-09
-1.74665e-10
1.87412e-09
-1.7782e-10
1.99665e-09
-1.22536e-10
2.10574e-09
-1.09091e-10
2.16873e-09
-6.29822e-11
2.15325e-09
1.548e-11
2.09306e-09
6.01903e-11
2.00517e-09
8.78904e-11
1.87243e-09
1.32735e-10
1.69698e-09
1.75453e-10
1.46425e-09
2.32734e-10
1.26996e-09
1.9429e-10
1.06599e-09
2.03973e-10
7.8339e-10
2.82606e-10
4.98313e-10
2.85078e-10
3.61573e-10
1.36741e-10
2.3969e-15
3.61569e-10
-1.59191e-18
2.87952e-19
-1.08142e-18
-5.10488e-19
-1.02146e-18
-6.07409e-20
-1.12956e-18
1.0712e-19
-1.26678e-18
1.35219e-19
-1.37231e-18
1.03282e-19
-1.42583e-18
5.1354e-20
-1.42447e-18
-2.7724e-21
-1.37276e-18
-5.16912e-20
-1.27834e-18
-9.27016e-20
-1.14994e-18
-1.25197e-19
-9.96409e-19
-1.4946e-19
-8.26091e-19
-1.66116e-19
-6.46487e-19
-1.75903e-19
-4.64114e-19
-1.79568e-19
-2.84468e-19
-1.77853e-19
-1.12037e-19
-1.71502e-19
4.96059e-20
-1.61274e-19
1.97687e-19
-1.47919e-19
3.30136e-19
-1.32158e-19
4.45493e-19
-1.14691e-19
5.42795e-19
-9.61859e-20
6.21491e-19
-7.72587e-20
6.81409e-19
-5.84328e-20
7.22779e-19
-4.01188e-20
7.46221e-19
-2.26228e-20
7.52684e-19
-6.16886e-21
7.43356e-19
9.08229e-21
7.1957e-19
2.30235e-20
6.82751e-19
3.55978e-20
6.34368e-19
4.67921e-20
5.75902e-19
5.66248e-20
5.08812e-19
6.51305e-20
4.34504e-19
7.23444e-20
3.54314e-19
7.82938e-20
2.69509e-19
8.29952e-20
1.81314e-19
8.64495e-20
9.09881e-20
8.86149e-20
8.92885e-20
-2.89549e-10
3.18549e-10
-5.63891e-10
2.6348e-10
-6.55251e-10
2.16936e-10
-7.54083e-10
6.15202e-10
-1.26962e-09
7.84736e-10
-1.62962e-09
5.66553e-10
-1.67856e-09
4.21207e-10
-1.81768e-09
3.39041e-10
-2.06478e-09
4.05153e-10
-2.32853e-09
4.43592e-10
-2.47666e-09
2.32788e-10
-2.60085e-09
3.12015e-10
-2.7742e-09
2.39256e-10
-2.83818e-09
1.74139e-10
-2.93514e-09
1.70803e-10
-2.97843e-09
6.54594e-11
-3.01563e-09
5.95995e-11
-3.06928e-09
5.69278e-11
-3.08877e-09
7.55394e-12
-3.13082e-09
1.5673e-11
-3.17001e-09
-6.7484e-12
-3.20055e-09
1.54792e-11
-3.23662e-09
3.98917e-11
-3.2664e-09
3.97058e-11
-3.30147e-09
9.8232e-11
-3.34201e-09
1.60387e-10
-3.37201e-09
1.32702e-10
-3.40019e-09
8.24847e-11
-3.43061e-09
1.03844e-11
-3.38337e-09
-1.09033e-10
-3.44484e-09
1.94311e-10
-3.38658e-09
-6.96614e-11
-3.28881e-09
1.84997e-11
-3.14732e-09
-1.28559e-10
-3.06282e-09
-1.96666e-10
-2.78101e-09
-4.44147e-10
-2.54566e-09
-3.60351e-10
-2.526e-09
-3.6896e-11
-2.26061e-09
-6.42558e-10
-2.03504e-09
-5.28491e-10
-1.813e-09
-4.02944e-10
-1.74775e-09
-1.48661e-10
-1.72459e-09
-4.2545e-11
-1.58101e-09
-2.42581e-10
-1.48369e-09
-2.18e-10
-1.41301e-09
-1.40721e-10
-1.32648e-09
-1.33268e-10
-1.26923e-09
-1.15253e-10
-1.11598e-09
-3.92204e-10
-9.62195e-10
-2.08406e-10
-8.37826e-10
-3.17753e-10
-7.45035e-10
-1.96631e-10
-6.72148e-10
-1.06028e-10
-5.72355e-10
-1.31567e-10
-4.75732e-10
-2.00722e-10
-3.57258e-10
-3.63352e-10
-1.59471e-10
-3.97954e-10
6.72351e-11
-4.41132e-10
3.35175e-10
-5.43752e-10
5.64213e-10
-5.0196e-10
8.62123e-10
-4.97969e-10
1.12268e-09
-5.79368e-10
1.28391e-09
-2.99337e-10
1.43822e-09
-3.15399e-10
1.65807e-09
-3.94523e-10
1.85206e-09
-3.71808e-10
1.98429e-09
-2.54763e-10
2.00762e-09
-1.32416e-10
2.05694e-09
-1.1231e-10
2.03689e-09
3.55375e-11
1.99522e-09
1.01862e-10
1.91844e-09
1.64673e-10
1.83604e-09
2.15133e-10
1.66494e-09
3.46565e-10
1.47811e-09
4.19567e-10
1.37712e-09
2.95283e-10
1.17421e-09
4.06884e-10
9.23223e-10
5.33598e-10
8.21234e-10
3.8707e-10
5.95997e-10
3.61983e-10
-4.30686e-16
9.57576e-10
-6.94325e-19
1.44844e-18
-6.36758e-19
-5.67767e-19
-8.56653e-19
1.57531e-19
-1.10291e-18
3.50804e-19
-1.29882e-18
3.27851e-19
-1.42421e-18
2.26047e-19
-1.47996e-18
1.05859e-19
-1.47339e-18
-8.52441e-21
-1.41377e-18
-1.08123e-19
-1.31083e-18
-1.90417e-19
-1.1742e-18
-2.55445e-19
-1.01306e-18
-3.04132e-19
-8.35877e-19
-3.37674e-19
-6.50153e-19
-3.57351e-19
-4.62398e-19
-3.64498e-19
-2.78117e-19
-3.60527e-19
-1.01809e-19
-3.4695e-19
6.29617e-20
-3.25371e-19
2.13447e-19
-2.97443e-19
3.47603e-19
-2.64809e-19
4.63998e-19
-2.29035e-19
5.61722e-19
-1.91529e-19
6.40317e-19
-1.53485e-19
6.99723e-19
-1.15858e-19
7.40275e-19
-7.93835e-20
7.62675e-19
-4.46194e-20
7.67936e-19
-1.19735e-20
7.57297e-19
1.82736e-20
7.32144e-19
4.59519e-20
6.93945e-19
7.09813e-20
6.44201e-19
9.33414e-20
5.84407e-19
1.13045e-19
5.16025e-19
1.30119e-19
4.40454e-19
1.44593e-19
3.59016e-19
1.56506e-19
2.72963e-19
1.65902e-19
1.8348e-19
1.72835e-19
9.16616e-20
1.77365e-19
1.79597e-19
-8.00116e-11
3.98563e-10
-3.53582e-10
5.37053e-10
-8.6317e-10
7.26526e-10
-9.92869e-10
7.44904e-10
-1.22075e-09
1.01262e-09
-1.53973e-09
8.8553e-10
-1.74061e-09
6.22084e-10
-2.06196e-09
6.60393e-10
-2.17341e-09
5.16602e-10
-2.28582e-09
5.56002e-10
-2.59084e-09
5.37809e-10
-2.61461e-09
3.35788e-10
-2.81767e-09
4.42321e-10
-2.92049e-09
2.76957e-10
-3.02277e-09
2.73078e-10
-3.12415e-09
1.66847e-10
-3.19579e-09
1.31237e-10
-3.27566e-09
1.36795e-10
-3.35099e-09
8.28913e-11
-3.42927e-09
9.3947e-11
-3.49927e-09
6.32575e-11
-3.5701e-09
8.6308e-11
-3.62655e-09
9.63406e-11
-3.65904e-09
7.21958e-11
-3.65546e-09
9.46492e-11
-3.60752e-09
1.12452e-10
-3.55274e-09
7.79248e-11
-3.48502e-09
1.47645e-11
-3.42734e-09
-4.73032e-11
-3.47788e-09
-5.84907e-11
-3.41527e-09
1.31701e-10
-3.45355e-09
-3.13769e-11
-3.29989e-09
-1.3517e-10
-3.1295e-09
-2.98945e-10
-2.9988e-09
-3.27365e-10
-2.78199e-09
-6.60958e-10
-2.58062e-09
-5.61731e-10
-2.39487e-09
-2.22641e-10
-2.15815e-09
-8.7928e-10
-2.00985e-09
-6.76797e-10
-1.61953e-09
-7.93264e-10
-1.61755e-09
-1.50643e-10
-1.6055e-09
-5.45948e-11
-1.42956e-09
-4.18514e-10
-1.36245e-09
-2.85118e-10
-1.30482e-09
-1.98346e-10
-1.20536e-09
-2.32738e-10
-1.1373e-09
-1.83315e-10
-9.58497e-10
-5.71006e-10
-7.86186e-10
-3.8072e-10
-6.6698e-10
-4.36962e-10
-5.75852e-10
-2.87761e-10
-4.66294e-10
-2.15588e-10
-3.81506e-10
-2.16358e-10
-2.8513e-10
-2.97099e-10
-2.01916e-10
-4.46567e-10
-6.64176e-11
-5.33454e-10
1.0958e-10
-6.1713e-10
2.91961e-10
-7.26133e-10
5.27465e-10
-7.37465e-10
8.01248e-10
-7.71752e-10
9.76119e-10
-7.54238e-10
1.25357e-09
-5.76786e-10
1.47442e-09
-5.36247e-10
1.64429e-09
-5.64391e-10
1.70533e-09
-4.32849e-10
1.75607e-09
-3.05503e-10
1.82207e-09
-1.98411e-10
1.86221e-09
-1.52453e-10
1.86342e-09
3.43329e-11
1.85698e-09
1.083e-10
1.81532e-09
2.06336e-10
1.71975e-09
3.1071e-10
1.60836e-09
4.57958e-10
1.45919e-09
5.68742e-10
1.25001e-09
5.04457e-10
1.09802e-09
5.5888e-10
9.386e-10
6.93021e-10
9.12498e-10
4.13171e-10
7.47131e-10
5.27346e-10
-7.03697e-16
1.70471e-09
1.44458e-18
1.23103e-17
8.93843e-20
7.8672e-19
-6.62526e-19
9.09508e-19
-1.12504e-18
8.12893e-19
-1.39982e-18
6.01805e-19
-1.54427e-18
3.69882e-19
-1.59434e-18
1.5604e-19
-1.57299e-18
-2.8703e-20
-1.49607e-18
-1.82673e-19
-1.37586e-18
-3.07235e-19
-1.22289e-18
-4.04482e-19
-1.04661e-18
-4.76498e-19
-8.55554e-19
-5.25281e-19
-6.57301e-19
-5.52842e-19
-4.58427e-19
-5.61278e-19
-2.64539e-19
-5.52836e-19
-8.023e-20
-5.29946e-19
9.08896e-20
-4.9518e-19
2.46081e-19
-4.51152e-19
3.83377e-19
-4.00388e-19
5.01504e-19
-3.45228e-19
5.99767e-19
-2.87748e-19
6.77944e-19
-2.29703e-19
7.36197e-19
-1.72505e-19
7.75039e-19
-1.17233e-19
7.95321e-19
-6.46848e-20
7.98183e-19
-1.54257e-20
7.84975e-19
3.01647e-20
7.57174e-19
7.18552e-20
7.16305e-19
1.09526e-19
6.63904e-19
1.43136e-19
6.01481e-19
1.72695e-19
5.305e-19
1.98246e-19
4.52366e-19
2.19857e-19
3.68412e-19
2.37611e-19
2.79896e-19
2.51609e-19
1.8801e-19
2.61961e-19
9.38938e-20
2.6878e-19
2.7217e-19
-3.27972e-10
7.26536e-10
-7.17773e-10
9.26856e-10
-1.07771e-09
1.08646e-09
-1.33346e-09
1.00066e-09
-1.32619e-09
1.00535e-09
-1.4111e-09
9.70448e-10
-1.64057e-09
8.51556e-10
-1.90238e-09
9.22202e-10
-2.23038e-09
8.44602e-10
-2.29916e-09
6.24784e-10
-2.49834e-09
7.36981e-10
-2.66365e-09
5.011e-10
-2.79606e-09
5.74734e-10
-2.93615e-09
4.17048e-10
-3.04555e-09
3.82475e-10
-3.15194e-09
2.73244e-10
-3.23666e-09
2.15958e-10
-3.30651e-09
2.06638e-10
-3.39711e-09
1.73494e-10
-3.46194e-09
1.58779e-10
-3.53553e-09
1.36851e-10
-3.60399e-09
1.5476e-10
-3.63962e-09
1.31974e-10
-3.66052e-09
9.30934e-11
-3.66414e-09
9.82717e-11
-3.63322e-09
8.15325e-11
-3.59683e-09
4.15333e-11
-3.5552e-09
-2.68615e-11
-3.52692e-09
-7.55832e-11
-3.47913e-09
-1.06284e-10
-3.26993e-09
-7.74919e-11
-3.23158e-09
-6.97283e-11
-3.15828e-09
-2.0848e-10
-3.10637e-09
-3.50852e-10
-2.94322e-09
-4.90514e-10
-2.82058e-09
-7.83601e-10
-2.59792e-09
-7.84395e-10
-2.19028e-09
-6.30285e-10
-2.08308e-09
-9.86479e-10
-1.88505e-09
-8.74829e-10
-1.61577e-09
-1.06254e-09
-1.59889e-09
-1.67527e-10
-1.46408e-09
-1.89401e-10
-1.32379e-09
-5.58814e-10
-1.28745e-09
-3.21451e-10
-1.23933e-09
-2.46468e-10
-1.14023e-09
-3.31844e-10
-1.01659e-09
-3.06961e-10
-8.50526e-10
-7.3707e-10
-5.97614e-10
-6.33634e-10
-4.58133e-10
-5.76445e-10
-3.42136e-10
-4.0376e-10
-2.42054e-10
-3.15672e-10
-1.44744e-10
-3.1367e-10
-7.15695e-11
-3.70274e-10
-3.41626e-11
-4.83975e-10
3.41581e-11
-6.01775e-10
1.5558e-10
-7.38552e-10
3.27258e-10
-8.97811e-10
5.58868e-10
-9.69075e-10
7.7072e-10
-9.83605e-10
9.69927e-10
-9.53445e-10
1.17077e-09
-7.77631e-10
1.32427e-09
-6.8975e-10
1.40925e-09
-6.49368e-10
1.46469e-09
-4.88291e-10
1.52722e-09
-3.68028e-10
1.6253e-09
-2.96492e-10
1.64323e-09
-1.70382e-10
1.70465e-09
-2.7079e-11
1.69051e-09
1.22439e-10
1.64708e-09
2.49769e-10
1.58904e-09
3.6875e-10
1.48052e-09
5.66486e-10
1.3366e-09
7.12665e-10
1.1664e-09
6.74657e-10
9.71066e-10
7.54215e-10
6.72793e-10
9.91295e-10
2.58769e-10
8.27196e-10
4.06584e-10
3.79532e-10
1.52403e-14
2.11128e-09
1.82257e-18
1.60438e-14
2.13017e-19
2.39615e-18
-7.58283e-19
1.88419e-18
-1.33528e-18
1.39164e-18
-1.63094e-18
8.98592e-19
-1.75801e-18
4.9778e-19
-1.77908e-18
1.77906e-19
-1.72696e-18
-7.98576e-20
-1.62063e-18
-2.87706e-19
-1.47311e-18
-4.53037e-19
-1.29491e-18
-5.80568e-19
-1.09539e-18
-6.73652e-19
-8.83114e-19
-7.35124e-19
-6.65738e-19
-7.67792e-19
-4.49985e-19
-7.74645e-19
-2.41649e-19
-7.58898e-19
-4.54648e-20
-7.23994e-19
1.34918e-19
-6.73531e-19
2.96845e-19
-6.11111e-19
4.38537e-19
-5.40168e-19
5.58984e-19
-4.63832e-19
6.57811e-19
-3.84841e-19
7.35143e-19
-3.05498e-19
7.91469e-19
-2.27643e-19
8.27588e-19
-1.52684e-19
8.4458e-19
-8.16444e-20
8.43773e-19
-1.52411e-20
8.26666e-19
4.60564e-20
7.94844e-19
1.01967e-19
7.49915e-19
1.52355e-19
6.93464e-19
1.97187e-19
6.27032e-19
2.36503e-19
5.5211e-19
2.70398e-19
4.7012e-19
2.98999e-19
3.8241e-19
3.22459e-19
2.90248e-19
3.40946e-19
1.94829e-19
3.54626e-19
9.72834e-20
3.63653e-19
3.68141e-19
-7.80821e-11
8.04619e-10
-1.82776e-10
1.03155e-09
-5.73425e-10
1.47711e-09
-1.06528e-09
1.49251e-09
-1.42612e-09
1.36619e-09
-1.60523e-09
1.14955e-09
-1.80291e-09
1.04924e-09
-1.95057e-09
1.06986e-09
-2.08561e-09
9.79643e-10
-2.28837e-09
8.27552e-10
-2.40776e-09
8.56369e-10
-2.6153e-09
7.08641e-10
-2.72718e-09
6.86618e-10
-2.8194e-09
5.09264e-10
-2.92824e-09
4.91319e-10
-3.02859e-09
3.73586e-10
-3.05673e-09
2.44102e-10
-3.18296e-09
3.32863e-10
-3.26584e-09
2.56381e-10
-3.29912e-09
1.9206e-10
-3.3584e-09
1.96126e-10
-3.38843e-09
1.8479e-10
-3.40886e-09
1.52402e-10
-3.41832e-09
1.02556e-10
-3.42234e-09
1.0229e-10
-3.40724e-09
6.64371e-11
-3.39117e-09
2.54643e-11
-3.38905e-09
-2.89902e-11
-3.34304e-09
-1.21587e-10
-3.33478e-09
-1.14546e-10
-3.27467e-09
-1.37605e-10
-3.14577e-09
-1.98626e-10
-3.05074e-09
-3.0351e-10
-2.97588e-09
-4.25712e-10
-2.86798e-09
-5.98419e-10
-2.76603e-09
-8.8555e-10
-2.56751e-09
-9.82916e-10
-2.212e-09
-9.85793e-10
-2.15825e-09
-1.04023e-09
-1.92875e-09
-1.10433e-09
-2.04906e-09
-9.4224e-10
-1.69081e-09
-5.2578e-10
-1.34468e-09
-5.35529e-10
-1.35652e-09
-5.46977e-10
-1.33685e-09
-3.41123e-10
-1.27261e-09
-3.10709e-10
-1.15736e-09
-4.47087e-10
-9.45593e-10
-5.18733e-10
-7.48154e-10
-9.34511e-10
-4.59716e-10
-9.22073e-10
-2.5943e-10
-7.76733e-10
-7.10358e-11
-5.92155e-10
6.36346e-11
-4.50343e-10
1.52938e-10
-4.02975e-10
1.7142e-10
-3.88757e-10
1.78238e-10
-4.90794e-10
2.05825e-10
-6.29363e-10
2.48138e-10
-7.80867e-10
3.49044e-10
-9.98718e-10
6.32567e-10
-1.2526e-09
7.98573e-10
-1.14961e-09
9.16579e-10
-1.07145e-09
1.08605e-09
-9.47102e-10
1.17314e-09
-7.76842e-10
1.21569e-09
-6.91915e-10
1.28476e-09
-5.57358e-10
1.36522e-09
-4.48495e-10
1.37082e-09
-3.02088e-10
1.41578e-09
-2.15341e-10
1.44711e-09
-5.84e-11
1.42476e-09
1.44786e-10
1.38611e-09
2.8842e-10
1.36521e-09
3.89658e-10
1.30046e-09
6.31235e-10
1.22226e-09
7.90872e-10
1.04529e-09
8.51626e-10
8.06876e-10
9.92628e-10
6.27174e-10
1.171e-09
4.40585e-10
1.01379e-09
3.44359e-10
4.75759e-10
6.48704e-11
2.39077e-09
5.65553e-18
6.48873e-11
4.98661e-19
1.0739e-17
-1.24998e-18
3.63372e-18
-1.82748e-18
1.97235e-18
-2.03094e-18
1.10468e-18
-2.07783e-18
5.46405e-19
-2.03685e-18
1.37987e-19
-1.93481e-18
-1.81276e-19
-1.78596e-18
-4.36138e-19
-1.60064e-18
-6.37816e-19
-1.38799e-18
-7.92201e-19
-1.15686e-18
-9.03154e-19
-9.15782e-19
-9.74016e-19
-6.7259e-19
-1.00831e-18
-4.34238e-19
-1.00996e-18
-2.06745e-19
-9.83275e-19
4.99787e-21
-9.32813e-19
1.97337e-19
-8.63289e-19
3.67788e-19
-7.7936e-19
5.14874e-19
-6.85418e-19
6.37974e-19
-5.85416e-19
7.37155e-19
-4.8277e-19
8.12997e-19
-3.80317e-19
8.66429e-19
-2.80317e-19
8.98627e-19
-1.84485e-19
9.10983e-19
-9.40582e-20
9.05071e-19
-9.88379e-21
8.82577e-19
6.7505e-20
8.45232e-19
1.37816e-19
7.94747e-19
2.00941e-19
7.3278e-19
2.56903e-19
6.60927e-19
3.05817e-19
5.80711e-19
3.47862e-19
4.93581e-19
3.83257e-19
4.00897e-19
4.12239e-19
3.03929e-19
4.35056e-19
2.03856e-19
4.51936e-19
1.01772e-19
4.63078e-19
4.68621e-19
-8.06548e-11
8.85275e-10
-1.28822e-10
1.07972e-09
-2.95999e-10
1.64429e-09
-7.1597e-10
1.91248e-09
-1.08261e-09
1.73284e-09
-1.36308e-09
1.43002e-09
-1.62656e-09
1.31272e-09
-1.86132e-09
1.30462e-09
-1.97486e-09
1.09319e-09
-2.18181e-09
1.0345e-09
-2.29574e-09
9.70302e-10
-2.43913e-09
8.52026e-10
-2.52446e-09
7.71954e-10
-2.61993e-09
6.0473e-10
-2.70696e-09
5.78346e-10
-2.79014e-09
4.56766e-10
-2.90446e-09
3.58425e-10
-2.96745e-09
3.95849e-10
-2.99939e-09
2.88319e-10
-3.01276e-09
2.05429e-10
-3.04237e-09
2.25738e-10
-3.0619e-09
2.04322e-10
-3.07627e-09
1.66767e-10
-3.0985e-09
1.24788e-10
-3.12005e-09
1.23836e-10
-3.13037e-09
7.67604e-11
-3.13109e-09
2.6179e-11
-3.13962e-09
-2.04569e-11
-3.12572e-09
-1.35488e-10
-3.03892e-09
-2.01347e-10
-2.99538e-09
-1.81145e-10
-2.95928e-09
-2.34729e-10
-2.91365e-09
-3.49144e-10
-2.89708e-09
-4.42276e-10
-2.76133e-09
-7.34171e-10
-2.68441e-09
-9.6247e-10
-2.55434e-09
-1.11299e-09
-2.40684e-09
-1.13329e-09
-2.22398e-09
-1.22309e-09
-2.0897e-09
-1.23861e-09
-2.08366e-09
-9.4829e-10
-1.71493e-09
-8.94507e-10
-1.54603e-09
-7.04433e-10
-1.64586e-09
-4.47144e-10
-1.5629e-09
-4.24083e-10
-1.44228e-09
-4.31327e-10
-1.32263e-09
-5.66744e-10
-1.04604e-09
-7.95322e-10
-6.93279e-10
-1.28727e-09
-3.2636e-10
-1.28899e-09
-1.3457e-11
-1.08964e-09
1.71286e-10
-7.76899e-10
2.39752e-10
-5.1881e-10
2.59474e-10
-4.22697e-10
2.65756e-10
-3.9504e-10
2.67906e-10
-4.92945e-10
2.79568e-10
-6.41027e-10
3.74286e-10
-8.75586e-10
5.25027e-10
-1.14946e-09
5.94152e-10
-1.32172e-09
7.31012e-10
-1.28647e-09
8.29824e-10
-1.17026e-09
9.34983e-10
-1.05226e-09
1.00953e-09
-8.51386e-10
1.06448e-09
-7.46866e-10
1.11856e-09
-6.11438e-10
1.19816e-09
-5.28091e-10
1.15772e-09
-2.61651e-10
1.16339e-09
-2.21006e-10
1.20485e-09
-9.98581e-11
1.17292e-09
1.76721e-10
1.17039e-09
2.90957e-10
1.12876e-09
4.3129e-10
1.05846e-09
7.01533e-10
1.00507e-09
8.44265e-10
9.01909e-10
9.54784e-10
8.12831e-10
1.0817e-09
8.03628e-10
1.1802e-09
6.93186e-10
1.12423e-09
3.46513e-10
8.22432e-10
2.86074e-10
2.45121e-09
-8.23698e-16
3.50963e-10
-3.63626e-18
3.51711e-18
-2.9104e-18
2.90972e-18
-2.69426e-18
1.75923e-18
-2.58839e-18
1.00145e-18
-2.48622e-18
4.46027e-19
-2.35611e-18
8.99152e-21
-2.18967e-18
-3.47114e-19
-1.98764e-18
-6.37937e-19
-1.75502e-18
-8.70241e-19
-1.49895e-18
-1.04759e-18
-1.22772e-18
-1.17286e-18
-9.50076e-19
-1.24932e-18
-6.74244e-19
-1.28107e-18
-4.07549e-19
-1.27305e-18
-1.56283e-19
-1.23078e-18
7.45217e-20
-1.16017e-18
2.81266e-19
-1.06719e-18
4.6173e-19
-9.57662e-19
6.14876e-19
-8.37018e-19
7.4062e-19
-7.10095e-19
8.39607e-19
-5.81018e-19
9.12997e-19
-4.53163e-19
9.62261e-19
-3.29186e-19
9.89053e-19
-2.11079e-19
9.95158e-19
-1.00254e-19
9.82459e-19
2.35875e-21
9.52888e-19
9.62111e-20
9.08357e-19
1.81056e-19
8.50708e-19
2.56873e-19
7.81695e-19
3.23796e-19
7.02972e-19
3.82066e-19
6.16105e-19
4.31991e-19
5.22563e-19
4.73906e-19
4.23713e-19
5.08161e-19
3.20809e-19
5.35091e-19
2.14998e-19
5.55001e-19
1.07314e-19
5.68138e-19
5.74676e-19
-7.03522e-10
1.5888e-09
-1.2903e-09
1.6665e-09
-1.31377e-09
1.66777e-09
-1.10004e-09
1.69875e-09
-1.06239e-09
1.69518e-09
-1.27698e-09
1.64461e-09
-1.53292e-09
1.56867e-09
-1.70563e-09
1.47732e-09
-1.87612e-09
1.26368e-09
-2.01479e-09
1.17318e-09
-2.14623e-09
1.10173e-09
-2.25675e-09
9.62553e-10
-2.38144e-09
8.96645e-10
-2.5426e-09
7.65886e-10
-2.58952e-09
6.2527e-10
-2.61648e-09
4.83715e-10
-2.72302e-09
4.64969e-10
-2.72525e-09
3.98074e-10
-2.74065e-09
3.03717e-10
-2.78013e-09
2.44912e-10
-2.80137e-09
2.46975e-10
-2.81222e-09
2.15166e-10
-2.81412e-09
1.68665e-10
-2.83515e-09
1.45826e-10
-2.85169e-09
1.40373e-10
-2.86593e-09
9.09937e-11
-2.87957e-09
3.98234e-11
-2.8759e-09
-2.41248e-11
-2.87903e-09
-1.32362e-10
-2.81691e-09
-2.63463e-10
-2.77013e-09
-2.27925e-10
-2.7477e-09
-2.57163e-10
-2.75702e-09
-3.39822e-10
-2.76746e-09
-4.3184e-10
-2.64535e-09
-8.56283e-10
-2.55744e-09
-1.05038e-09
-2.59217e-09
-1.07826e-09
-2.51148e-09
-1.21398e-09
-2.43135e-09
-1.30322e-09
-2.37508e-09
-1.29487e-09
-2.13491e-09
-1.18846e-09
-2.05538e-09
-9.74035e-10
-1.98828e-09
-7.71533e-10
-1.8633e-09
-5.7213e-10
-1.72576e-09
-5.61618e-10
-1.59722e-09
-5.59871e-10
-1.46768e-09
-6.96283e-10
-1.06433e-09
-1.19867e-09
-7.30636e-10
-1.62097e-09
-4.01677e-10
-1.61795e-09
-9.70516e-11
-1.39426e-09
8.41367e-11
-9.58088e-10
1.81456e-10
-6.16131e-10
1.90631e-10
-4.31873e-10
1.823e-10
-3.86711e-10
2.26016e-10
-5.36662e-10
3.06987e-10
-7.22e-10
3.92051e-10
-9.6065e-10
4.99731e-10
-1.25714e-09
5.90663e-10
-1.41266e-09
6.86272e-10
-1.38208e-09
7.79008e-10
-1.263e-09
8.29928e-10
-1.10318e-09
8.56032e-10
-8.77489e-10
9.06187e-10
-7.9702e-10
8.82833e-10
-5.88082e-10
8.77151e-10
-5.22408e-10
9.38871e-10
-3.23369e-10
9.53959e-10
-2.36092e-10
9.93548e-10
-1.39445e-10
9.75326e-10
1.94946e-10
9.35256e-10
3.31029e-10
8.60262e-10
5.06286e-10
8.57855e-10
7.03941e-10
8.22764e-10
8.79356e-10
7.51729e-10
1.02582e-09
6.8801e-10
1.14542e-09
5.46395e-10
1.32181e-09
3.53328e-10
1.31729e-09
1.94249e-10
9.81513e-10
3.25564e-10
2.3199e-09
-3.75657e-16
6.76531e-10
-5.56051e-18
4.2772e-20
-4.05994e-18
1.41148e-18
-3.45115e-18
1.15295e-18
-3.14303e-18
6.95398e-19
-2.92326e-18
2.27672e-19
-2.71222e-18
-2.00936e-19
-2.48049e-18
-5.77912e-19
-2.21994e-18
-8.97803e-19
-1.93237e-18
-1.15727e-18
-1.62422e-18
-1.35483e-18
-1.30419e-18
-1.49118e-18
-9.81828e-19
-1.56913e-18
-6.66217e-19
-1.59338e-18
-3.65288e-19
-1.5701e-18
-8.56727e-20
-1.50637e-18
1.67505e-19
-1.4097e-18
3.90796e-19
-1.2876e-18
5.82374e-19
-1.14725e-18
7.41798e-19
-9.95246e-19
8.69698e-19
-8.37371e-19
9.67462e-19
-6.78489e-19
1.03697e-18
-5.22515e-19
1.08037e-18
-3.72464e-19
1.09988e-18
-2.30542e-19
1.09777e-18
-9.82636e-20
1.07631e-18
2.34303e-20
1.03773e-18
1.34055e-19
9.84173e-19
2.33481e-19
9.17631e-19
3.21842e-19
8.39966e-19
3.99451e-19
7.52896e-19
4.6673e-19
6.58021e-19
5.24156e-19
5.56818e-19
5.72224e-19
4.50643e-19
6.11414e-19
3.40719e-19
6.42171e-19
2.28135e-19
6.64884e-19
1.13852e-19
6.79862e-19
6.87315e-19
-2.79167e-10
1.86797e-09
-4.54439e-10
1.84178e-09
-8.10708e-10
2.02404e-09
-1.08551e-09
1.97356e-09
-1.1808e-09
1.79047e-09
-1.28248e-09
1.7463e-09
-1.39248e-09
1.67868e-09
-1.52449e-09
1.60933e-09
-1.70127e-09
1.44046e-09
-1.80566e-09
1.27757e-09
-1.96445e-09
1.26052e-09
-2.03053e-09
1.02864e-09
-2.14745e-09
1.01356e-09
-2.30897e-09
9.27399e-10
-2.31596e-09
6.32262e-10
-2.42897e-09
5.96725e-10
-2.53555e-09
5.71551e-10
-2.47965e-09
3.4217e-10
-2.55858e-09
3.82637e-10
-2.62388e-09
3.10216e-10
-2.64114e-09
2.64227e-10
-2.64162e-09
2.15649e-10
-2.64529e-09
1.72336e-10
-2.6542e-09
1.54726e-10
-2.6389e-09
1.25076e-10
-2.62332e-09
7.54124e-11
-2.61095e-09
2.74494e-11
-2.59177e-09
-4.33037e-11
-2.56772e-09
-1.56409e-10
-2.60213e-09
-2.29062e-10
-2.57218e-09
-2.57875e-10
-2.58321e-09
-2.46132e-10
-2.62385e-09
-2.99185e-10
-2.60917e-09
-4.46513e-10
-2.58112e-09
-8.84335e-10
-2.57472e-09
-1.05678e-09
-2.57771e-09
-1.07527e-09
-2.53147e-09
-1.26022e-09
-2.48661e-09
-1.34808e-09
-2.39353e-09
-1.38794e-09
-2.24692e-09
-1.33507e-09
-2.1366e-09
-1.08436e-09
-2.00919e-09
-8.98943e-10
-1.87145e-09
-7.09873e-10
-1.7261e-09
-7.06971e-10
-1.54479e-09
-7.41176e-10
-1.30806e-09
-9.33018e-10
-8.78303e-10
-1.62843e-09
-6.53276e-10
-1.84599e-09
-4.22841e-10
-1.84838e-09
-2.86405e-10
-1.5307e-09
-1.64475e-10
-1.08002e-09
-9.90377e-11
-6.81569e-10
-6.89957e-11
-4.61916e-10
-3.48989e-11
-4.20808e-10
4.63207e-11
-6.17882e-10
2.06281e-10
-8.81961e-10
3.52859e-10
-1.10723e-09
4.54309e-10
-1.35859e-09
5.17582e-10
-1.47593e-09
5.67268e-10
-1.43177e-09
5.98473e-10
-1.2942e-09
6.05984e-10
-1.11069e-09
5.80305e-10
-8.51809e-10
5.80461e-10
-7.97174e-10
6.19111e-10
-6.26731e-10
6.44131e-10
-5.47428e-10
7.03188e-10
-3.82425e-10
7.51866e-10
-2.84769e-10
7.0517e-10
-9.27472e-11
7.36005e-10
1.64113e-10
7.23681e-10
3.43354e-10
7.2034e-10
5.09628e-10
6.95971e-10
7.28309e-10
6.19593e-10
9.55734e-10
5.2077e-10
1.12464e-09
3.81898e-10
1.28429e-09
2.8086e-10
1.42285e-09
2.38123e-10
1.36003e-09
1.03564e-10
1.11607e-09
1.93131e-10
2.23033e-09
2.0026e-16
8.69663e-10
-4.96734e-18
-4.13931e-20
-4.31754e-18
7.63431e-19
-3.90784e-18
7.44926e-19
-3.61002e-18
3.99205e-19
-3.35187e-18
-2.9269e-20
-3.08919e-18
-4.62243e-19
-2.80038e-18
-8.65174e-19
-2.47941e-18
-1.21726e-18
-2.12993e-18
-1.50545e-18
-1.76056e-18
-1.72279e-18
-1.38214e-18
-1.86764e-18
-1.00608e-18
-1.94256e-18
-6.42934e-19
-1.95329e-18
-3.01558e-19
-1.9077e-18
1.0995e-20
-1.81498e-18
2.89604e-19
-1.68471e-18
5.31145e-19
-1.52633e-18
7.3438e-19
-1.34866e-18
8.99673e-19
-1.1596e-18
1.02858e-18
-9.65969e-19
1.12344e-18
-7.7337e-19
1.18702e-18
-5.86218e-19
1.22229e-18
-4.07816e-19
1.23216e-18
-2.4049e-19
1.21946e-18
-8.57464e-20
1.18694e-18
5.55711e-20
1.13716e-18
1.83143e-19
1.07253e-18
2.97049e-19
9.9524e-19
3.97658e-19
9.07244e-19
4.85528e-19
8.10323e-19
5.61323e-19
7.06089e-19
6.25741e-19
5.96008e-19
6.79468e-19
4.814e-19
7.23149e-19
3.63432e-19
7.57357e-19
2.43113e-19
7.8258e-19
1.21305e-19
7.99195e-19
8.07462e-19
-1.0884e-10
1.97681e-09
-3.14741e-10
2.04768e-09
-5.16427e-10
2.22573e-09
-7.24331e-10
2.18147e-09
-9.07496e-10
1.97364e-09
-1.04229e-09
1.88109e-09
-1.14351e-09
1.7799e-09
-1.23347e-09
1.69929e-09
-1.38868e-09
1.59567e-09
-1.52146e-09
1.41035e-09
-1.56316e-09
1.30223e-09
-1.72378e-09
1.18926e-09
-1.85793e-09
1.14771e-09
-1.97856e-09
1.04803e-09
-2.13846e-09
7.92165e-10
-2.22148e-09
6.79737e-10
-2.30361e-09
6.53684e-10
-2.33397e-09
3.72527e-10
-2.37423e-09
4.22892e-10
-2.40205e-09
3.3803e-10
-2.39585e-09
2.58025e-10
-2.42945e-09
2.49248e-10
-2.47052e-09
2.13399e-10
-2.48351e-09
1.67714e-10
-2.46502e-09
1.06587e-10
-2.44394e-09
5.43318e-11
-2.41954e-09
3.04668e-12
-2.40821e-09
-5.46386e-11
-2.39105e-09
-1.73571e-10
-2.39068e-09
-2.29435e-10
-2.35046e-09
-2.98088e-10
-2.31741e-09
-2.79183e-10
-2.30459e-09
-3.12005e-10
-2.3009e-09
-4.50205e-10
-2.39297e-09
-7.92261e-10
-2.46043e-09
-9.89319e-10
-2.43834e-09
-1.09736e-09
-2.43774e-09
-1.26082e-09
-2.40336e-09
-1.38246e-09
-2.33312e-09
-1.45818e-09
-2.22096e-09
-1.44724e-09
-2.06316e-09
-1.24216e-09
-1.89436e-09
-1.06774e-09
-1.68744e-09
-9.16799e-10
-1.49705e-09
-8.97359e-10
-1.31674e-09
-9.21483e-10
-1.05613e-09
-1.19363e-09
-8.41582e-10
-1.84298e-09
-7.28753e-10
-1.95882e-09
-6.48188e-10
-1.92895e-09
-6.42416e-10
-1.53647e-09
-6.06055e-10
-1.11638e-09
-5.68902e-10
-7.18722e-10
-4.93886e-10
-5.36932e-10
-4.08501e-10
-5.06194e-10
-2.99843e-10
-7.2654e-10
-8.14416e-11
-1.10036e-09
1.04843e-10
-1.29351e-09
2.09013e-10
-1.46276e-09
2.67287e-10
-1.5342e-09
3.75846e-10
-1.54032e-09
4.80087e-10
-1.39844e-09
4.74761e-10
-1.10536e-09
4.39026e-10
-8.16073e-10
3.60109e-10
-7.18256e-10
3.52557e-10
-6.19179e-10
3.81498e-10
-5.76368e-10
4.30408e-10
-4.31335e-10
4.11911e-10
-2.66272e-10
3.78999e-10
-5.9834e-11
4.2193e-10
1.21183e-10
4.41642e-10
3.23644e-10
3.89833e-10
5.61437e-10
3.00367e-10
8.17775e-10
3.15752e-10
9.40347e-10
2.78592e-10
1.1618e-09
2.28202e-10
1.33468e-09
2.45912e-10
1.40514e-09
3.24313e-10
1.28163e-09
5.90842e-10
8.49547e-10
7.36125e-10
2.08505e-09
6.71583e-16
1.60579e-09
-3.73074e-18
5.0826e-18
-4.33513e-18
1.36861e-18
-4.2527e-18
6.63089e-19
-4.03783e-18
1.85597e-19
-3.78484e-18
-2.81249e-19
-3.49212e-18
-7.53279e-19
-3.15247e-18
-1.20269e-18
-2.7676e-18
-1.59987e-18
-2.34727e-18
-1.92371e-18
-1.90542e-18
-2.16273e-18
-1.45706e-18
-2.31384e-18
-1.0168e-18
-2.38027e-18
-5.97351e-19
-2.36974e-18
-2.08829e-19
-2.2928e-18
1.41261e-19
-2.16145e-18
4.4798e-19
-1.98806e-18
7.08818e-19
-1.78449e-18
9.23438e-19
-1.56154e-18
1.09331e-18
-1.32863e-18
1.22118e-18
-1.09366e-18
1.31059e-18
-8.6295e-19
1.36543e-18
-6.41318e-19
1.38962e-18
-4.32224e-19
1.3869e-18
-2.37967e-19
1.36078e-18
-5.98963e-20
1.31451e-18
1.01387e-19
1.25107e-18
2.45857e-19
1.17314e-18
3.73913e-19
1.08311e-18
4.86253e-19
9.83039e-19
5.83756e-19
8.7474e-19
6.67386e-19
7.59816e-19
7.38113e-19
6.39689e-19
7.96857e-19
5.15609e-19
8.44455e-19
3.88655e-19
8.81632e-19
2.59729e-19
9.0899e-19
1.29571e-19
9.26988e-19
9.35937e-19
-9.41912e-11
2.071e-09
-2.03089e-10
2.15658e-09
-2.9093e-10
2.31357e-09
-4.76218e-10
2.36676e-09
-6.92675e-10
2.1901e-09
-8.58832e-10
2.04725e-09
-1.01448e-09
1.93555e-09
-1.19593e-09
1.88075e-09
-1.34833e-09
1.74807e-09
-1.52229e-09
1.58431e-09
-1.6499e-09
1.42984e-09
-1.74001e-09
1.27938e-09
-1.78792e-09
1.19562e-09
-1.80731e-09
1.06742e-09
-1.91566e-09
9.00515e-10
-1.9677e-09
7.31774e-10
-2.00824e-09
6.94219e-10
-2.10325e-09
4.67537e-10
-2.12811e-09
4.47753e-10
-2.10419e-09
3.14104e-10
-2.19105e-09
3.4488e-10
-2.23189e-09
2.90084e-10
-2.25228e-09
2.33789e-10
-2.21592e-09
1.31355e-10
-2.23447e-09
1.25135e-10
-2.22286e-09
4.27151e-11
-2.21036e-09
-9.45442e-12
-2.2024e-09
-6.26072e-11
-2.19772e-09
-1.78251e-10
-2.17457e-09
-2.52584e-10
-2.11508e-09
-3.57581e-10
-2.08721e-09
-3.07055e-10
-2.06341e-09
-3.35806e-10
-2.09355e-09
-4.20062e-10
-2.18231e-09
-7.03504e-10
-2.22961e-09
-9.42016e-10
-2.2652e-09
-1.06177e-09
-2.2414e-09
-1.28462e-09
-2.22487e-09
-1.39899e-09
-2.21176e-09
-1.47129e-09
-2.18864e-09
-1.47036e-09
-1.98619e-09
-1.44461e-09
-1.8004e-09
-1.25353e-09
-1.51028e-09
-1.20692e-09
-1.30793e-09
-1.0997e-09
-1.13052e-09
-1.09889e-09
-9.54334e-10
-1.36982e-09
-9.58327e-10
-1.83899e-09
-1.02938e-09
-1.88777e-09
-1.18624e-09
-1.77209e-09
-1.29912e-09
-1.42359e-09
-1.29634e-09
-1.11916e-09
-1.23864e-09
-7.76426e-10
-1.07192e-09
-7.03654e-10
-8.89038e-10
-6.89073e-10
-7.37062e-10
-8.78515e-10
-5.54298e-10
-1.28312e-09
-4.35081e-10
-1.41273e-09
-3.0703e-10
-1.59081e-09
-2.04515e-10
-1.63672e-09
-1.1852e-10
-1.62632e-09
-8.8041e-12
-1.50816e-09
1.36254e-10
-1.25042e-09
2.12692e-10
-8.9251e-10
1.95357e-10
-7.0092e-10
2.05201e-10
-6.29022e-10
1.83053e-10
-5.54221e-10
1.55024e-10
-4.03307e-10
1.21318e-10
-2.32566e-10
1.2854e-10
-6.70566e-11
1.48854e-10
1.00869e-10
1.61416e-10
3.11082e-10
1.76182e-10
5.4667e-10
2.36295e-10
7.57661e-10
1.79436e-10
9.97204e-10
9.997e-11
1.24126e-09
1.03821e-10
1.33083e-09
1.42882e-10
1.36608e-09
1.53571e-10
1.27094e-09
-1.00565e-11
1.01318e-09
1.94071e-10
1.88092e-09
7.76666e-17
1.79986e-09
-5.71194e-18
4.69125e-18
-5.03965e-18
6.96497e-19
-4.72933e-18
3.53229e-19
-4.50409e-18
-3.80458e-20
-4.25687e-18
-5.27864e-19
-3.94154e-18
-1.06705e-18
-3.54964e-18
-1.59253e-18
-3.09144e-18
-2.05568e-18
-2.58629e-18
-2.42646e-18
-2.05652e-18
-2.69034e-18
-1.52349e-18
-2.84464e-18
-1.00628e-18
-2.89507e-18
-5.20408e-19
-2.85291e-18
-7.74762e-20
-2.7327e-18
3.14652e-19
-2.55039e-18
6.5155e-19
-2.32194e-18
9.31769e-19
-2.06224e-18
1.15635e-18