/*--------------------------------*- C++ -*----------------------------------*\
  =========                 |
  \\      /  F ield         | OpenFOAM: The Open Source CFD Toolbox
   \\    /   O peration     | Website:  https://openfoam.org
    \\  /    A nd           | Version:  6
     \\/     M anipulation  |
\*---------------------------------------------------------------------------*/
FoamFile
{
    version     2.0;
    format      ascii;
    class       volScalarField;
    location    "2700";
    object      T;
}
// * * * * * * * * * * * * * * * * * * * * * * * * * * * * * * * * * * * * * //

dimensions      [0 0 0 1 0 0 0];

internalField   nonuniform List<scalar> 
4800
(
552.483
552.349
552.217
552.088
551.962
551.843
551.731
551.627
551.532
551.445
551.366
551.295
551.23
551.172
551.12
551.072
551.029
550.989
550.952
550.917
550.884
550.852
550.821
550.791
550.761
550.731
550.701
550.671
550.64
550.609
550.577
550.544
550.51
550.475
550.438
550.401
550.361
550.32
550.276
550.23
550.182
550.13
550.076
550.019
549.96
549.898
549.834
549.767
549.699
549.628
549.555
549.479
549.401
549.321
549.238
549.155
549.069
548.983
548.894
548.804
548.712
548.617
548.519
548.417
548.31
548.199
548.082
547.958
547.827
547.687
547.538
547.379
547.209
547.028
546.835
546.633
546.422
546.204
545.983
545.763
545.549
545.35
545.17
545.007
544.856
544.714
544.578
544.445
544.315
544.188
544.061
543.937
543.813
543.69
543.568
543.446
543.326
543.205
543.085
542.966
542.847
542.728
542.609
542.491
542.372
542.254
542.136
542.019
541.901
541.783
541.666
541.548
541.431
541.313
541.196
541.078
540.961
540.843
540.726
540.609
552.483
552.348
552.216
552.087
551.962
551.843
551.732
551.629
551.534
551.447
551.369
551.297
551.233
551.175
551.123
551.076
551.033
550.993
550.956
550.921
550.888
550.856
550.826
550.796
550.766
550.736
550.707
550.677
550.646
550.615
550.583
550.551
550.517
550.482
550.446
550.409
550.369
550.328
550.284
550.238
550.189
550.138
550.083
550.026
549.966
549.904
549.839
549.773
549.704
549.633
549.559
549.483
549.404
549.324
549.241
549.156
549.069
548.982
548.892
548.801
548.708
548.612
548.513
548.41
548.303
548.191
548.073
547.949
547.817
547.677
547.528
547.369
547.199
547.019
546.827
546.626
546.415
546.197
545.975
545.752
545.534
545.33
545.154
544.996
544.849
544.71
544.575
544.443
544.314
544.186
544.061
543.936
543.812
543.689
543.567
543.446
543.325
543.205
543.085
542.965
542.846
542.727
542.609
542.49
542.372
542.254
542.136
542.018
541.901
541.783
541.666
541.548
541.431
541.313
541.196
541.078
540.961
540.843
540.726
540.609
552.483
552.349
552.216
552.087
551.964
551.846
551.736
551.633
551.539
551.453
551.375
551.304
551.241
551.183
551.131
551.084
551.041
551.002
550.965
550.93
550.898
550.866
550.836
550.806
550.777
550.748
550.719
550.689
550.659
550.629
550.597
550.565
550.532
550.497
550.462
550.425
550.385
550.344
550.3
550.254
550.204
550.152
550.097
550.039
549.979
549.916
549.851
549.783
549.714
549.642
549.568
549.491
549.411
549.329
549.245
549.158
549.07
548.98
548.889
548.796
548.7
548.603
548.502
548.398
548.289
548.175
548.056
547.931
547.798
547.658
547.509
547.35
547.181
547.002
546.811
546.61
546.4
546.181
545.956
545.727
545.499
545.285
545.119
544.974
544.836
544.701
544.569
544.439
544.311
544.184
544.059
543.934
543.811
543.688
543.566
543.445
543.324
543.204
543.084
542.965
542.846
542.727
542.608
542.49
542.372
542.254
542.136
542.018
541.901
541.783
541.665
541.548
541.43
541.313
541.196
541.078
540.961
540.843
540.726
540.609
552.483
552.349
552.218
552.09
551.967
551.851
551.742
551.641
551.548
551.463
551.385
551.315
551.252
551.195
551.144
551.097
551.055
551.016
550.98
550.946
550.913
550.882
550.853
550.823
550.795
550.766
550.738
550.709
550.679
550.649
550.619
550.587
550.554
550.52
550.485
550.448
550.409
550.367
550.323
550.276
550.226
550.173
550.117
550.058
549.997
549.933
549.867
549.799
549.729
549.656
549.581
549.503
549.421
549.337
549.251
549.162
549.071
548.978
548.884
548.788
548.69
548.589
548.486
548.379
548.268
548.152
548.031
547.904
547.771
547.63
547.481
547.322
547.154
546.976
546.787
546.587
546.378
546.158
545.929
545.69
545.44
545.188
545.063
544.944
544.819
544.691
544.563
544.434
544.307
544.181
544.056
543.932
543.809
543.687
543.565
543.444
543.323
543.203
543.083
542.964
542.845
542.726
542.608
542.49
542.371
542.254
542.136
542.018
541.9
541.783
541.665
541.548
541.43
541.313
541.195
541.078
540.961
540.843
540.726
540.609
552.484
552.352
552.222
552.096
551.974
551.859
551.752
551.652
551.56
551.476
551.4
551.331
551.269
551.213
551.162
551.116
551.074
551.036
551
550.966
550.935
550.905
550.875
550.847
550.819
550.791
550.763
550.735
550.707
550.677
550.647
550.616
550.584
550.551
550.516
550.479
550.44
550.398
550.354
550.306
550.255
550.2
550.143
550.083
550.021
549.956
549.889
549.819
549.748
549.674
549.597
549.517
549.433
549.346
549.257
549.165
549.071
548.975
548.877
548.777
548.676
548.572
548.465
548.355
548.241
548.122
547.999
547.871
547.736
547.594
547.445
547.287
547.12
546.943
546.757
546.559
546.351
546.133
545.903
545.655
545.368
544.958
544.997
544.919
544.806
544.682
544.556
544.429
544.303
544.177
544.053
543.929
543.807
543.685
543.563
543.442
543.322
543.202
543.082
542.963
542.844
542.726
542.607
542.489
542.371
542.253
542.135
542.018
541.9
541.782
541.665
541.547
541.43
541.313
541.195
541.078
540.961
540.843
540.726
540.609
552.485
552.355
552.227
552.103
551.984
551.871
551.765
551.667
551.577
551.494
551.419
551.351
551.29
551.234
551.185
551.139
551.098
551.06
551.026
550.993
550.962
550.933
550.904
550.877
550.85
550.823
550.796
550.768
550.741
550.712
550.683
550.652
550.621
550.588
550.554
550.517
550.478
550.436
550.391
550.342
550.29
550.234
550.175
550.114
550.05
549.983
549.915
549.844
549.771
549.695
549.615
549.532
549.445
549.355
549.262
549.167
549.069
548.97
548.868
548.764
548.658
548.55
548.44
548.326
548.209
548.087
547.962
547.831
547.695
547.552
547.403
547.246
547.08
546.905
546.72
546.526
546.323
546.11
545.886
545.652
545.404
545.161
545.04
544.925
544.803
544.677
544.55
544.424
544.298
544.173
544.049
543.926
543.804
543.682
543.561
543.44
543.32
543.2
543.081
542.962
542.843
542.724
542.606
542.488
542.37
542.252
542.135
542.017
541.899
541.782
541.665
541.547
541.43
541.312
541.195
541.078
540.961
540.843
540.726
540.609
552.485
552.356
552.231
552.11
551.995
551.885
551.782
551.686
551.597
551.516
551.442
551.375
551.315
551.261
551.212
551.167
551.127
551.09
551.056
551.025
550.995
550.966
550.939
550.912
550.886
550.86
550.834
550.808
550.781
550.753
550.725
550.695
550.664
550.632
550.598
550.562
550.523
550.48
550.434
550.385
550.331
550.274
550.214
550.15
550.085
550.016
549.946
549.873
549.798
549.718
549.634
549.547
549.457
549.363
549.266
549.167
549.066
548.962
548.856
548.748
548.638
548.525
548.411
548.293
548.172
548.048
547.919
547.787
547.649
547.505
547.356
547.199
547.034
546.861
546.68
546.489
546.29
546.084
545.87
545.651
545.434
545.232
545.075
544.936
544.803
544.673
544.544
544.418
544.292
544.168
544.045
543.922
543.8
543.679
543.558
543.438
543.318
543.198
543.079
542.96
542.842
542.723
542.605
542.487
542.369
542.252
542.134
542.016
541.899
541.782
541.664
541.547
541.43
541.312
541.195
541.078
540.96
540.843
540.726
540.609
552.487
552.362
552.24
552.122
552.009
551.902
551.801
551.707
551.621
551.541
551.469
551.404
551.345
551.291
551.243
551.2
551.161
551.125
551.092
551.061
551.032
551.005
550.978
550.952
550.927
550.902
550.878
550.852
550.827
550.8
550.772
550.744
550.713
550.682
550.649
550.613
550.573
550.531
550.485
550.434
550.38
550.321
550.259
550.194
550.127
550.056
549.983
549.908
549.828
549.744
549.655
549.563
549.467
549.369
549.268
549.165
549.06
548.952
548.841
548.728
548.613
548.497
548.377
548.256
548.131
548.004
547.873
547.738
547.598
547.454
547.304
547.148
546.985
546.814
546.635
546.449
546.255
546.055
545.851
545.645
545.444
545.256
545.089
544.939
544.799
544.666
544.537
544.411
544.286
544.162
544.04
543.918
543.796
543.676
543.555
543.435
543.315
543.196
543.077
542.959
542.84
542.722
542.604
542.486
542.368
542.251
542.133
542.016
541.898
541.781
541.664
541.546
541.429
541.312
541.195
541.077
540.96
540.843
540.726
540.609
552.49
552.369
552.251
552.137
552.027
551.922
551.824
551.733
551.648
551.571
551.5
551.436
551.378
551.326
551.279
551.237
551.199
551.164
551.132
551.102
551.074
551.048
551.022
550.998
550.974
550.95
550.926
550.902
550.878
550.852
550.826
550.798
550.768
550.737
550.704
550.669
550.63
550.587
550.541
550.49
550.435
550.376
550.312
550.245
550.175
550.102
550.026
549.946
549.861
549.771
549.677
549.579
549.478
549.375
549.27
549.163
549.052
548.94
548.824
548.706
548.586
548.465
548.342
548.216
548.088
547.957
547.823
547.686
547.545
547.4
547.25
547.094
546.932
546.764
546.588
546.406
546.217
546.023
545.827
545.631
545.439
545.255
545.085
544.931
544.79
544.656
544.528
544.402
544.278
544.156
544.034
543.913
543.792
543.672
543.552
543.432
543.313
543.194
543.075
542.957
542.838
542.72
542.603
542.485
542.367
542.25
542.132
542.015
541.898
541.78
541.663
541.546
541.429
541.312
541.194
541.077
540.96
540.843
540.726
540.609
552.492
552.377
552.263
552.153
552.046
551.945
551.849
551.76
551.678
551.603
551.534
551.471
551.415
551.364
551.319
551.278
551.241
551.207
551.176
551.148
551.121
551.095
551.071
551.048
551.025
551.003
550.98
550.957
550.934
550.909
550.884
550.856
550.828
550.797
550.765
550.73
550.692
550.65
550.603
550.552
550.497
550.436
550.371
550.303
550.23
550.154
550.073
549.988
549.898
549.801
549.701
549.597
549.492
549.384
549.274
549.161
549.046
548.928
548.806
548.683
548.558
548.431
548.303
548.174
548.042
547.908
547.772
547.632
547.49
547.344
547.193
547.039
546.878
546.712
546.54
546.361
546.177
545.988
545.797
545.605
545.417
545.235
545.064
544.911
544.772
544.641
544.515
544.392
544.27
544.149
544.028
543.908
543.788
543.668
543.548
543.429
543.31
543.191
543.073
542.955
542.837
542.719
542.601
542.483
542.366
542.249
542.131
542.014
541.897
541.78
541.663
541.545
541.428
541.311
541.194
541.077
540.96
540.843
540.726
540.609
552.495
552.384
552.276
552.169
552.067
551.969
551.877
551.791
551.711
551.638
551.571
551.511
551.456
551.407
551.363
551.323
551.287
551.255
551.225
551.198
551.172
551.148
551.125
551.103
551.081
551.06
551.038
551.016
550.994
550.971
550.946
550.92
550.892
550.862
550.831
550.796
550.758
550.717
550.67
550.62
550.563
550.502
550.436
550.366
550.29
550.21
550.125
550.034
549.938
549.836
549.73
549.621
549.511
549.398
549.283
549.165
549.044
548.919
548.791
548.661
548.53
548.398
548.265
548.131
547.996
547.859
547.719
547.578
547.434
547.287
547.137
546.983
546.824
546.66
546.49
546.315
546.135
545.95
545.762
545.572
545.384
545.199
545.024
544.876
544.744
544.62
544.499
544.379
544.26
544.141
544.021
543.902
543.783
543.664
543.544
543.426
543.307
543.189
543.07
542.952
542.835
542.717
542.599
542.482
542.365
542.248
542.13
542.013
541.896
541.779
541.662
541.545
541.428
541.311
541.194
541.077
540.96
540.843
540.726
540.609
552.497
552.392
552.288
552.187
552.089
551.995
551.907
551.824
551.747
551.677
551.612
551.553
551.5
551.453
551.41
551.372
551.338
551.307
551.278
551.252
551.227
551.204
551.182
551.161
551.141
551.121
551.1
551.08
551.058
551.036
551.012
550.987
550.96
550.931
550.9
550.866
550.829
550.787
550.742
550.691
550.635
550.573
550.506
550.433
550.355
550.271
550.181
550.085
549.983
549.877
549.766
549.653
549.537
549.42
549.299
549.176
549.048
548.916
548.781
548.644
548.506
548.367
548.228
548.089
547.949
547.809
547.667
547.523
547.378
547.23
547.08
546.927
546.769
546.607
546.44
546.268
546.091
545.909
545.723
545.532
545.338
545.142
544.954
544.821
544.706
544.594
544.481
544.366
544.25
544.132
544.014
543.896
543.778
543.659
543.541
543.422
543.304
543.186
543.068
542.95
542.833
542.715
542.598
542.481
542.363
542.246
542.129
542.012
541.895
541.778
541.661
541.544
541.427
541.31
541.193
541.076
540.959
540.843
540.726
540.609
552.5
552.401
552.302
552.206
552.113
552.024
551.939
551.86
551.786
551.718
551.656
551.599
551.548
551.503
551.462
551.426
551.393
551.363
551.336
551.31
551.287
551.265
551.244
551.224
551.205
551.186
551.166
551.147
551.126
551.105
551.082
551.057
551.031
551.003
550.972
550.939
550.902
550.862
550.816
550.766
550.709
550.647
550.579
550.505
550.423
550.335
550.241
550.141
550.034
549.924
549.809
549.692
549.572
549.45
549.324
549.194
549.059
548.92
548.777
548.632
548.486
548.339
548.194
548.05
547.905
547.761
547.616
547.47
547.323
547.174
547.024
546.871
546.715
546.555
546.391
546.222
546.048
545.868
545.683
545.489
545.284
545.059
544.823
544.743
544.663
544.568
544.463
544.353
544.24
544.124
544.008
543.89
543.772
543.654
543.536
543.418
543.301
543.183
543.065
542.948
542.83
542.713
542.596
542.479
542.362
542.245
542.128
542.011
541.894
541.778
541.661
541.544
541.427
541.31
541.193
541.076
540.959
540.842
540.725
540.608
552.503
552.41
552.317
552.227
552.139
552.054
551.974
551.898
551.828
551.762
551.703
551.649
551.6
551.557
551.518
551.483
551.452
551.423
551.397
551.373
551.351
551.33
551.311
551.292
551.273
551.255
551.236
551.217
551.198
551.177
551.155
551.131
551.105
551.077
551.047
551.015
550.978
550.938
550.894
550.843
550.787
550.725
550.656
550.579
550.495
550.404
550.306
550.202
550.091
549.976
549.858
549.737
549.614
549.488
549.356
549.22
549.078
548.931
548.78
548.626
548.471
548.317
548.164
548.013
547.864
547.715
547.566
547.417
547.268
547.118
546.967
546.815
546.661
546.503
546.341
546.175
546.005
545.828
545.645
545.45
545.234
544.961
544.52
544.654
544.627
544.548
544.45
544.343
544.231
544.117
544.001
543.885
543.767
543.65
543.532
543.415
543.297
543.18
543.062
542.945
542.828
542.711
542.594
542.477
542.361
542.244
542.127
542.01
541.893
541.777
541.66
541.543
541.426
541.31
541.193
541.076
540.959
540.842
540.725
540.608
552.506
552.419
552.333
552.248
552.166
552.086
552.011
551.939
551.873
551.811
551.755
551.703
551.657
551.616
551.579
551.546
551.516
551.489
551.464
551.441
551.42
551.4
551.382
551.363
551.345
551.328
551.31
551.292
551.272
551.252
551.23
551.207
551.182
551.155
551.125
551.093
551.057
551.018
550.973
550.923
550.867
550.805
550.734
550.657
550.571
550.477
550.376
550.267
550.153
550.034
549.913
549.789
549.662
549.532
549.396
549.253
549.104
548.949
548.789
548.627
548.463
548.301
548.139
547.981
547.825
547.67
547.518
547.366
547.214
547.063
546.911
546.759
546.606
546.45
546.291
546.129
545.962
545.791
545.612
545.424
545.223
545.002
544.784
544.711
544.635
544.545
544.443
544.336
544.224
544.11
543.995
543.879
543.762
543.645
543.528
543.411
543.294
543.177
543.06
542.943
542.826
542.709
542.592
542.476
542.359
542.242
542.126
542.009
541.893
541.776
541.659
541.543
541.426
541.309
541.192
541.076
540.959
540.842
540.725
540.608
552.51
552.43
552.35
552.272
552.195
552.122
552.051
551.984
551.921
551.863
551.81
551.762
551.718
551.679
551.644
551.613
551.585
551.559
551.536
551.515
551.495
551.476
551.457
551.44
551.422
551.405
551.388
551.369
551.351
551.33
551.309
551.286
551.262
551.235
551.206
551.174
551.139
551.1
551.056
551.006
550.95
550.887
550.816
550.737
550.65
550.553
550.449
550.337
550.219
550.097
549.972
549.845
549.716
549.582
549.441
549.293
549.137
548.974
548.805
548.634
548.461
548.289
548.119
547.952
547.788
547.628
547.47
547.314
547.16
547.006
546.854
546.702
546.549
546.396
546.24
546.082
545.92
545.754
545.583
545.406
545.225
545.042
544.877
544.758
544.653
544.548
544.441
544.331
544.218
544.104
543.989
543.873
543.757
543.64
543.524
543.407
543.29
543.173
543.057
542.94
542.824
542.707
542.591
542.474
542.358
542.241
542.125
542.008
541.892
541.775
541.659
541.542
541.425
541.309
541.192
541.075
540.959
540.842
540.725
540.608
552.514
552.441
552.369
552.298
552.228
552.16
552.095
552.033
551.974
551.921
551.871
551.826
551.785
551.748
551.716
551.686
551.66
551.636
551.614
551.594
551.575
551.556
551.538
551.521
551.504
551.487
551.469
551.451
551.432
551.412
551.391
551.369
551.345
551.318
551.289
551.258
551.223
551.185
551.141
551.091
551.036
550.972
550.901
550.821
550.732
550.634
550.527
550.412
550.29
550.164
550.036
549.906
549.773
549.636
549.491
549.338
549.175
549.004
548.827
548.646
548.464
548.282
548.103
547.927
547.755
547.587
547.423
547.262
547.104
546.949
546.795
546.642
546.491
546.339
546.187
546.033
545.876
545.716
545.554
545.389
545.224
545.063
544.914
544.784
544.665
544.552
544.439
544.326
544.213
544.098
543.983
543.868
543.752
543.636
543.519
543.403
543.287
543.17
543.054
542.937
542.821
542.705
542.589
542.472
542.356
542.24
542.123
542.007
541.891
541.774
541.658
541.541
541.425
541.308
541.192
541.075
540.958
540.842
540.725
540.608
552.518
552.454
552.39
552.326
552.263
552.202
552.143
552.086
552.033
551.984
551.938
551.896
551.858
551.824
551.793
551.766
551.741
551.719
551.698
551.679
551.66
551.643
551.625
551.608
551.591
551.574
551.556
551.538
551.519
551.499
551.478
551.456
551.431
551.405
551.377
551.346
551.312
551.274
551.23
551.181
551.125
551.062
550.99
550.909
550.819
550.719
550.61
550.492
550.366
550.237
550.105
549.972
549.835
549.694
549.544
549.385
549.215
549.036
548.85
548.661
548.469
548.278
548.089
547.903
547.722
547.546
547.375
547.209
547.047
546.888
546.733
546.579
546.429
546.279
546.129
545.979
545.828
545.675
545.521
545.367
545.215
545.067
544.925
544.793
544.67
544.552
544.436
544.321
544.207
544.092
543.977
543.862
543.746
543.631
543.515
543.399
543.283
543.167
543.051
542.935
542.819
542.703
542.587
542.471
542.355
542.238
542.122
542.006
541.89
541.773
541.657
541.541
541.424
541.308
541.191
541.075
540.958
540.842
540.725
540.608
552.523
552.468
552.413
552.358
552.303
552.249
552.197
552.146
552.098
552.053
552.011
551.972
551.937
551.906
551.878
551.852
551.829
551.808
551.789
551.771
551.753
551.735
551.718
551.701
551.684
551.667
551.649
551.63
551.611
551.591
551.57
551.548
551.524
551.498
551.471
551.44
551.406
551.368
551.325
551.277
551.221
551.157
551.085
551.003
550.911
550.809
550.697
550.575
550.444
550.312
550.177
550.041
549.901
549.754
549.598
549.431
549.253
549.066
548.872
548.675
548.475
548.275
548.076
547.881
547.69
547.504
547.325
547.152
546.985
546.823
546.665
546.511
546.361
546.212
546.066
545.919
545.774
545.628
545.482
545.337
545.194
545.056
544.921
544.792
544.668
544.548
544.43
544.315
544.2
544.085
543.971
543.856
543.741
543.625
543.51
543.395
543.279
543.163
543.048
542.932
542.816
542.701
542.585
542.469
542.353
542.237
542.121
542.005
541.889
541.773
541.656
541.54
541.424
541.307
541.191
541.074
540.958
540.841
540.725
540.608
552.528
552.483
552.438
552.393
552.347
552.301
552.256
552.212
552.169
552.129
552.091
552.056
552.025
551.996
551.97
551.946
551.925
551.906
551.887
551.87
551.853
551.835
551.819
551.802
551.785
551.768
551.75
551.731
551.711
551.691
551.67
551.647
551.624
551.598
551.571
551.541
551.508
551.47
551.427
551.379
551.323
551.259
551.186
551.102
551.008
550.903
550.786
550.66
550.524
550.387
550.249
550.109
549.966
549.815
549.652
549.476
549.288
549.093
548.891
548.686
548.478
548.27
548.062
547.857
547.656
547.461
547.273
547.092
546.919
546.752
546.592
546.436
546.285
546.138
545.994
545.852
545.711
545.571
545.433
545.297
545.163
545.034
544.907
544.783
544.659
544.539
544.422
544.306
544.192
544.078
543.964
543.849
543.735
543.62
543.505
543.39
543.275
543.16
543.045
542.93
542.814
542.699
542.583
542.467
542.352
542.236
542.12
542.004
541.888
541.772
541.656
541.54
541.423
541.307
541.191
541.074
540.958
540.841
540.725
540.608
552.533
552.5
552.465
552.43
552.394
552.357
552.32
552.283
552.247
552.212
552.179
552.148
552.12
552.094
552.07
552.048
552.029
552.011
551.994
551.977
551.961
551.945
551.929
551.913
551.897
551.88
551.862
551.843
551.824
551.803
551.781
551.759
551.735
551.709
551.681
551.651
551.618
551.58
551.537
551.488
551.431
551.366
551.292
551.206
551.109
551
550.879
550.746
550.606
550.464
550.322
550.178
550.031
549.876
549.704
549.518
549.32
549.116
548.907
548.694
548.479
548.263
548.047
547.833
547.623
547.418
547.22
547.03
546.849
546.676
546.511
546.353
546.202
546.055
545.913
545.774
545.638
545.505
545.374
545.245
545.12
545
544.885
544.773
544.648
544.527
544.41
544.296
544.182
544.069
543.956
543.842
543.729
543.615
543.5
543.386
543.271
543.157
543.042
542.927
542.812
542.697
542.581
542.466
542.35
542.235
542.119
542.003
541.887
541.771
541.655
541.539
541.423
541.307
541.19
541.074
540.958
540.841
540.725
540.608
552.538
552.515
552.491
552.467
552.441
552.414
552.385
552.356
552.327
552.298
552.27
552.244
552.219
552.196
552.175
552.156
552.14
552.124
552.11
552.096
552.082
552.069
552.055
552.041
552.026
552.011
551.994
551.975
551.956
551.934
551.912
551.888
551.862
551.835
551.806
551.774
551.739
551.699
551.654
551.603
551.544
551.476
551.398
551.31
551.209
551.096
550.97
550.832
550.687
550.541
550.396
550.249
550.099
549.938
549.756
549.558
549.35
549.138
548.922
548.703
548.482
548.258
548.034
547.812
547.593
547.379
547.171
546.97
546.78
546.599
546.428
546.266
546.111
545.964
545.822
545.686
545.555
545.427
545.303
545.182
545.065
544.955
544.856
544.78
544.633
544.51
544.395
544.283
544.171
544.06
543.948
543.835
543.722
543.609
543.495
543.382
543.268
543.153
543.039
542.924
542.81
542.695
542.579
542.464
542.349
542.233
542.118
542.002
541.886
541.77
541.654
541.538
541.422
541.306
541.19
541.074
540.957
540.841
540.725
540.608
552.542
552.525
552.51
552.494
552.478
552.46
552.442
552.422
552.401
552.379
552.357
552.336
552.317
552.299
552.282
552.269
552.257
552.247
552.237
552.229
552.221
552.213
552.204
552.194
552.183
552.171
552.156
552.139
552.119
552.097
552.072
552.045
552.016
551.984
551.95
551.913
551.873
551.828
551.778
551.72
551.655
551.581
551.498
551.403
551.298
551.181
551.05
550.91
550.764
550.616
550.469
550.321
550.169
550.001
549.81
549.601
549.384
549.165
548.944
548.72
548.493
548.264
548.034
547.804
547.577
547.353
547.135
546.925
546.723
546.532
546.351
546.181
546.021
545.87
545.727
545.592
545.463
545.34
545.221
545.108
545
544.898
544.802
544.708
544.597
544.486
544.377
544.269
544.16
544.05
543.939
543.828
543.716
543.603
543.49
543.377
543.264
543.15
543.036
542.922
542.807
542.693
542.578
542.463
542.348
542.232
542.117
542.001
541.886
541.77
541.654
541.538
541.422
541.306
541.19
541.073
540.957
540.841
540.725
540.608
552.541
552.523
552.509
552.497
552.488
552.479
552.471
552.461
552.45
552.438
552.425
552.412
552.401
552.391
552.384
552.379
552.377
552.377
552.379
552.382
552.386
552.388
552.389
552.388
552.384
552.377
552.367
552.352
552.332
552.308
552.279
552.246
552.209
552.169
552.125
552.077
552.025
551.969
551.906
551.836
551.758
551.672
551.576
551.471
551.358
551.236
551.105
550.967
550.824
550.681
550.536
550.389
550.236
550.065
549.866
549.651
549.429
549.206
548.981
548.754
548.525
548.292
548.059
547.824
547.591
547.359
547.132
546.91
546.696
546.491
546.297
546.115
545.945
545.786
545.638
545.499
545.37
545.249
545.136
545.03
544.93
544.835
544.745
544.656
544.561
544.462
544.359
544.254
544.148
544.04
543.93
543.82
543.709
543.598
543.485
543.373
543.26
543.147
543.033
542.919
542.805
542.691
542.576
542.461
542.346
542.231
542.116
542
541.885
541.769
541.653
541.538
541.422
541.305
541.189
541.073
540.957
540.841
540.724
540.608
552.531
552.497
552.47
552.452
552.444
552.441
552.442
552.443
552.445
552.445
552.446
552.447
552.45
552.455
552.463
552.476
552.492
552.512
552.535
552.559
552.583
552.605
552.624
552.638
552.648
552.651
552.647
552.636
552.618
552.591
552.556
552.514
552.465
552.408
552.346
552.279
552.207
552.129
552.043
551.949
551.848
551.739
551.622
551.498
551.371
551.243
551.113
550.981
550.848
550.714
550.578
550.437
550.285
550.114
549.918
549.704
549.483
549.261
549.038
548.814
548.588
548.358
548.126
547.893
547.658
547.42
547.186
546.954
546.725
546.504
546.292
546.092
545.905
545.733
545.573
545.423
545.287
545.165
545.054
544.952
544.859
544.772
544.691
544.613
544.531
544.439
544.342
544.241
544.136
544.03
543.922
543.813
543.703
543.592
543.481
543.369
543.257
543.144
543.031
542.917
542.803
542.689
542.575
542.46
542.345
542.23
542.115
542
541.884
541.769
541.653
541.537
541.421
541.305
541.189
541.073
540.957
540.841
540.724
540.608
552.507
552.426
552.364
552.323
552.304
552.302
552.31
552.325
552.342
552.36
552.38
552.402
552.428
552.458
552.495
552.538
552.586
552.64
552.698
552.757
552.816
552.87
552.918
552.959
552.989
553.008
553.016
553.013
552.997
552.97
552.929
552.874
552.808
552.729
552.639
552.542
552.439
552.329
552.205
552.073
551.932
551.785
551.631
551.475
551.321
551.179
551.049
550.925
550.805
550.687
550.565
550.434
550.288
550.124
549.942
549.741
549.533
549.321
549.109
548.901
548.688
548.468
548.25
548.032
547.803
547.563
547.326
547.087
546.842
546.603
546.368
546.14
545.93
545.737
545.559
545.387
545.233
545.099
544.984
544.881
544.791
544.712
544.642
544.577
544.509
544.423
544.329
544.23
544.127
544.021
543.914
543.806
543.697
543.587
543.476
543.365
543.253
543.141
543.028
542.915
542.802
542.688
542.574
542.459
542.344
542.23
542.114
541.999
541.884
541.768
541.653
541.537
541.421
541.305
541.189
541.073
540.957
540.841
540.724
540.608
552.457
552.286
552.149
552.058
552.012
552.001
552.015
552.043
552.08
552.123
552.173
552.228
552.29
552.36
552.439
552.528
552.627
552.735
552.847
552.959
553.068
553.17
553.261
553.339
553.402
553.446
553.473
553.483
553.478
553.455
553.412
553.349
553.266
553.161
553.039
552.903
552.762
552.608
552.433
552.242
552.044
551.838
551.626
551.416
551.214
551.041
550.9
550.777
550.669
550.565
550.46
550.342
550.203
550.055
549.902
549.726
549.546
549.36
549.167
548.996
548.815
548.61
548.423
548.25
548.041
547.803
547.572
547.331
547.067
546.819
546.558
546.284
546.041
545.823
545.628
545.42
545.229
545.07
544.94
544.821
544.728
544.656
544.598
544.55
544.507
544.416
544.321
544.222
544.119
544.014
543.908
543.8
543.692
543.582
543.472
543.362
543.25
543.138
543.026
542.913
542.8
542.686
542.572
542.458
542.344
542.229
542.114
541.999
541.883
541.768
541.652
541.537
541.421
541.305
541.189
541.073
540.957
540.841
540.724
540.608
552.372
552.042
551.779
551.601
551.506
551.475
551.49
551.532
551.594
551.671
551.761
551.863
551.976
552.102
552.24
552.394
552.562
552.743
552.927
553.109
553.283
553.446
553.593
553.722
553.827
553.908
553.965
554.003
554.022
554.021
553.994
553.938
553.85
553.73
553.579
553.407
553.233
553.041
552.8
552.533
552.266
551.984
551.688
551.395
551.117
550.875
550.699
550.56
550.452
550.348
550.245
550.14
550.009
549.875
549.77
549.61
549.471
549.329
549.141
549.054
548.94
548.732
548.59
548.537
548.371
548.119
547.899
547.658
547.383
547.172
546.881
546.516
546.232
545.977
545.804
545.543
545.296
545.091
544.943
544.776
544.674
544.605
544.561
544.528
544.495
544.415
544.319
544.218
544.114
544.009
543.902
543.795
543.687
543.579
543.469
543.359
543.248
543.136
543.024
542.912
542.799
542.685
542.571
542.457
542.343
542.228
542.113
541.998
541.883
541.768
541.652
541.536
541.421
541.305
541.189
541.073
540.957
540.841
540.724
540.608
552.239
551.663
551.207
550.9
550.733
550.674
550.688
550.748
550.842
550.962
551.102
551.259
551.433
551.623
551.83
552.057
552.308
552.572
552.835
553.087
553.329
553.557
553.765
553.951
554.108
554.237
554.342
554.432
554.508
554.565
554.591
554.578
554.522
554.417
554.267
554.088
553.923
553.728
553.416
553.062
552.753
552.41
552.005
551.591
551.19
550.822
550.595
550.415
550.284
550.118
549.968
549.865
549.739
549.598
549.522
549.368
549.29
549.215
549.088
549.025
548.928
548.792
548.753
548.796
548.682
548.556
548.276
548.019
547.751
547.564
547.302
546.827
546.514
546.253
546.086
545.799
545.507
545.178
544.954
544.736
544.665
544.581
544.544
544.52
544.528
544.432
544.326
544.218
544.111
544.005
543.898
543.791
543.684
543.575
543.466
543.356
543.246
543.134
543.023
542.91
542.798
542.684
542.571
542.457
542.342
542.228
542.113
541.998
541.883
541.768
541.652
541.536
541.421
541.305
541.189
541.073
540.957
540.841
540.724
540.608
552.046
551.116
550.401
549.94
549.691
549.603
549.625
549.711
549.844
550.021
550.215
550.424
550.646
550.885
551.139
551.422
551.743
552.077
552.396
552.693
552.972
553.242
553.497
553.735
553.942
554.126
554.299
554.479
554.662
554.841
554.98
555.073
555.11
555.082
555.003
554.894
554.856
554.763
554.389
553.959
553.752
553.463
552.95
552.339
551.771
551.176
550.825
550.476
550.206
549.878
549.644
549.442
549.395
549.279
549.128
548.94
548.964
548.948
548.868
548.873
548.696
548.666
548.742
548.918
548.752
548.854
548.558
548.319
548.145
547.966
547.872
547.106
546.917
546.544
546.324
546.072
545.585
545.058
544.905
544.706
544.676
544.594
544.608
544.56
544.602
544.468
544.338
544.22
544.109
544.002
543.895
543.788
543.681
543.573
543.464
543.354
543.244
543.133
543.022
542.909
542.797
542.684
542.57
542.456
542.342
542.228
542.113
541.998
541.883
541.768
541.652
541.536
541.421
541.305
541.189
541.073
540.957
540.841
540.724
540.608
551.796
550.401
549.381
548.791
548.471
548.374
548.451
548.583
548.748
549.004
549.237
549.457
549.662
549.875
550.104
550.379
550.714
551.04
551.334
551.6
551.853
552.121
552.378
552.648
552.887
553.12
553.368
553.673
554.006
554.396
554.697
554.961
555.173
555.307
555.438
555.545
555.865
556.131
555.968
555.412
555.298
554.977
554.582
553.757
552.912
552.148
551.722
551.079
550.529
549.935
549.572
549.23
549.198
549.108
548.941
548.662
548.636
548.471
548.32
548.453
548.196
548.446
548.314
548.633
548.513
548.699
548.622
548.474
548.393
548.3
548.471
547.173
547.342
546.733
546.015
546.115
546.117
545.404
545.271
544.847
544.836
544.641
544.818
544.617
544.947
544.515
544.345
544.219
544.107
543.999
543.893
543.786
543.679
543.571
543.462
543.353
543.243
543.132
543.021
542.909
542.796
542.683
542.57
542.456
542.342
542.228
542.113
541.998
541.883
541.768
541.652
541.537
541.421