/*--------------------------------*- C++ -*----------------------------------*\
  =========                 |
  \\      /  F ield         | OpenFOAM: The Open Source CFD Toolbox
   \\    /   O peration     | Website:  https://openfoam.org
    \\  /    A nd           | Version:  6
     \\/     M anipulation  |
\*---------------------------------------------------------------------------*/
FoamFile
{
    version     2.0;
    format      ascii;
    class       volVectorField;
    location    "2700";
    object      U;
}
// * * * * * * * * * * * * * * * * * * * * * * * * * * * * * * * * * * * * * //

dimensions      [0 1 -1 0 0 0 0];

internalField   nonuniform List<vector> 
4800
(
(-2.18919e-05 0 -1.7952e-05)
(-9.78262e-06 0 -1.10637e-05)
(-9.02655e-06 0 3.11822e-05)
(-0.000131569 0 -8.61622e-06)
(-0.000299362 0 -0.00032242)
(-0.000346798 0 -0.00034407)
(-0.000550283 0 -7.23359e-05)
(-0.000641728 0 -8.37872e-06)
(-0.000728471 0 -9.55834e-05)
(-0.000792396 0 -7.70086e-05)
(-0.000842617 0 5.05029e-06)
(-0.000878391 0 -5.50938e-05)
(-0.000924235 0 -3.52239e-05)
(-0.000974513 0 -7.50142e-06)
(-0.00101164 0 -3.04271e-05)
(-0.00103281 0 -7.46375e-06)
(-0.00104382 0 -1.75007e-05)
(-0.00104651 0 -2.11875e-05)
(-0.00103911 0 -2.47076e-05)
(-0.00103732 0 -2.69362e-05)
(-0.00104036 0 -3.16234e-05)
(-0.00102821 0 -1.02575e-05)
(-0.00101102 0 -3.61914e-06)
(-0.00100725 0 -8.71013e-06)
(-0.00102015 0 -7.18057e-06)
(-0.00107646 0 -6.90165e-06)
(-0.00113121 0 -3.03878e-05)
(-0.00115042 0 -3.88982e-05)
(-0.00114201 0 -3.367e-05)
(-0.00113068 0 -6.17593e-05)
(-0.00112884 0 -6.14157e-05)
(-0.00116065 0 7.17617e-06)
(-0.00120575 0 4.58163e-05)
(-0.00122903 0 3.04413e-05)
(-0.0011814 0 -2.14997e-05)
(-0.0011211 0 -2.17573e-05)
(-0.00110742 0 -1.91608e-05)
(-0.001096 0 -5.77302e-05)
(-0.000946687 0 -0.000109062)
(-0.000809856 0 -9.10427e-05)
(-0.000732466 0 -6.83922e-05)
(-0.00070154 0 -4.85111e-05)
(-0.000689258 0 -3.58011e-05)
(-0.000645337 0 -3.69998e-05)
(-0.000589386 0 -4.94647e-05)
(-0.000560031 0 -4.8993e-05)
(-0.000548145 0 -2.77739e-05)
(-0.000526841 0 -1.71523e-05)
(-0.000473177 0 -0.000102249)
(-0.000420386 0 1.78218e-05)
(-0.000339271 0 -6.7765e-05)
(-0.000286858 0 -3.81376e-05)
(-0.000263171 0 -2.17094e-05)
(-0.000251566 0 -2.81436e-06)
(-0.000224586 0 -3.74697e-05)
(-0.000133646 0 -0.000107105)
(-6.41728e-05 0 -3.57821e-05)
(2.87655e-05 0 -1.24002e-05)
(0.000117474 0 -1.99913e-05)
(0.000211742 0 -7.85963e-05)
(0.00033014 0 2.7e-06)
(0.000419397 0 -8.07666e-05)
(0.000509821 0 -6.5082e-05)
(0.000570454 0 -5.11521e-05)
(0.00062553 0 -3.76102e-05)
(0.00069383 0 -6.64317e-05)
(0.000783246 0 -8.62013e-05)
(0.000858913 0 -8.13902e-05)
(0.000864406 0 -3.20898e-05)
(0.000861802 0 -1.81326e-05)
(0.000854047 0 -1.27095e-05)
(0.000829498 0 -1.36435e-06)
(0.000783652 0 4.95162e-05)
(0.000724518 0 -2.53234e-05)
(0.000647355 0 -2.47348e-05)
(0.000550481 0 4.48578e-05)
(0.000468535 0 -9.29912e-05)
(0.000313478 0 -0.00010604)
(0.00038716 0 -5.92376e-05)
(-0.000365031 0 -3.73394e-05)
(9.88402e-06 0 9.1791e-05)
(-8.11263e-13 0 2.751e-14)
(-2.06261e-12 0 -1.01997e-13)
(-4.20627e-13 0 -1.2096e-14)
(-4.30236e-13 0 2.14467e-14)
(-4.79288e-13 0 2.70515e-14)
(-5.27913e-13 0 2.06574e-14)
(-5.59651e-13 0 1.02708e-14)
(-5.7006e-13 0 -5.5448e-16)
(-5.59447e-13 0 -1.03382e-14)
(-5.3022e-13 0 -1.85403e-14)
(-4.85656e-13 0 -2.50394e-14)
(-4.2927e-13 0 -2.9892e-14)
(-3.645e-13 0 -3.32232e-14)
(-2.94516e-13 0 -3.51805e-14)
(-2.2212e-13 0 -3.59137e-14)
(-1.49716e-13 0 -3.55706e-14)
(-7.93009e-14 0 -3.43004e-14)
(-1.24862e-14 0 -3.22549e-14)
(4.94585e-14 0 -2.95837e-14)
(1.05565e-13 0 -2.64317e-14)
(1.55126e-13 0 -2.29382e-14)
(1.97658e-13 0 -1.92372e-14)
(2.32857e-13 0 -1.54517e-14)
(2.6058e-13 0 -1.16866e-14)
(2.80838e-13 0 -8.02375e-15)
(2.938e-13 0 -4.52456e-15)
(2.99781e-13 0 -1.23377e-15)
(2.99208e-13 0 1.81646e-15)
(2.92585e-13 0 4.6047e-15)
(2.80464e-13 0 7.11957e-15)
(2.63424e-13 0 9.35843e-15)
(2.42054e-13 0 1.1325e-14)
(2.16943e-13 0 1.30261e-14)
(1.88663e-13 0 1.44689e-14)
(1.57764e-13 0 1.56588e-14)
(1.24765e-13 0 1.6599e-14)
(9.01646e-14 0 1.72899e-14)
(5.44605e-14 0 1.7723e-14)
(1.81976e-14 0 1.78577e-14)
(-2.70489e-05 0 8.11878e-05)
(-0.000204532 0 3.74975e-06)
(-0.000283643 0 -1.08194e-05)
(-0.000158776 0 0.000317023)
(-0.000416969 0 0.000313547)
(-0.000573239 0 0.00025471)
(-0.000623689 0 0.000157695)
(-0.000674936 0 3.58775e-05)
(-0.000772349 0 0.000161644)
(-0.000878722 0 0.000166034)
(-0.000957448 0 4.89337e-05)
(-0.00100213 0 0.000183984)
(-0.00108033 0 4.01459e-05)
(-0.00111973 0 7.65908e-05)
(-0.00115386 0 7.76348e-05)
(-0.00118074 0 1.82767e-05)
(-0.00119656 0 3.01737e-05)
(-0.00121167 0 1.462e-05)
(-0.00122808 0 -8.0166e-08)
(-0.00124641 0 -1.12955e-05)
(-0.00126236 0 -1.5386e-05)
(-0.00127448 0 -9.31758e-06)
(-0.00128621 0 4.07165e-08)
(-0.00129818 0 6.62562e-06)
(-0.00131017 0 4.21522e-05)
(-0.00132603 0 0.000114214)
(-0.00134506 0 0.000124729)
(-0.00136057 0 7.96083e-05)
(-0.00136998 0 1.89112e-05)
(-0.00137365 0 1.01004e-05)
(-0.00137069 0 0.000146478)
(-0.00136678 0 -4.71853e-05)
(-0.00135634 0 3.03919e-05)
(-0.00134826 0 -6.12643e-05)
(-0.00124065 0 -0.000106047)
(-0.00114429 0 -0.000103397)
(-0.00111125 0 -9.09867e-05)
(-0.001112 0 1.90003e-05)
(-0.000976823 0 -0.000208677)
(-0.000834688 0 -0.000167446)
(-0.000757692 0 -8.34208e-05)
(-0.000733766 0 -2.69943e-05)
(-0.000718407 0 5.65847e-06)
(-0.000655054 0 -5.90667e-05)
(-0.000606511 0 -4.96638e-05)
(-0.000582118 0 -1.30337e-05)
(-0.000560986 0 -2.36776e-05)
(-0.000528906 0 -5.35687e-05)
(-0.000470677 0 -9.30901e-05)
(-0.000423737 0 -4.33557e-05)
(-0.000354473 0 -0.000102648)
(-0.000315417 0 -5.79038e-05)
(-0.000283894 0 -6.17271e-06)
(-0.00025096 0 -1.78714e-05)
(-0.000218013 0 -5.77637e-05)
(-0.000152436 0 -0.000120757)
(-0.000100986 0 -0.000127317)
(3.25074e-06 0 -0.000137989)
(5.17929e-05 0 -0.000188342)
(0.000194147 0 -0.000128882)
(0.000289823 0 -0.000110168)
(0.000374632 0 -0.000155856)
(0.000489546 0 -6.33328e-05)
(0.000549295 0 -9.95223e-05)
(0.000606696 0 -0.000142561)
(0.000693641 0 -0.000172595)
(0.000801259 0 -8.23768e-05)
(0.00081297 0 -2.27585e-05)
(0.000809401 0 -8.98423e-06)
(0.000817122 0 2.47303e-05)
(0.00081251 0 5.04274e-05)
(0.000791763 0 6.09253e-05)
(0.000757851 0 4.76453e-05)
(0.00070542 0 0.00012897)
(0.000636457 0 0.00016258)
(0.000565262 0 4.87531e-05)
(0.000498878 0 0.00017135)
(0.000407493 0 0.00024232)
(0.000409513 0 0.000190006)
(-0.00010262 0 0.000138938)
(1.0428e-05 0 0.00029629)
(-9.03318e-13 0 2.20222e-13)
(-1.79734e-12 0 -2.15686e-13)
(-2.98684e-13 0 1.93409e-14)
(-3.91916e-13 0 9.15776e-14)
(-4.80349e-13 0 9.26114e-14)
(-5.44595e-13 0 6.58656e-14)
(-5.80831e-13 0 3.14426e-14)
(-5.90669e-13 0 -2.25936e-15)
(-5.77432e-13 0 -3.19628e-14)
(-5.44922e-13 0 -5.66237e-14)
(-4.97008e-13 0 -7.61284e-14)
(-4.37454e-13 0 -9.07185e-14)
(-3.69788e-13 0 -1.00758e-13)
(-2.97206e-13 0 -1.06651e-13)
(-2.2251e-13 0 -1.08813e-13)
(-1.48103e-13 0 -1.07676e-13)
(-7.59852e-14 0 -1.0369e-13)
(-7.76953e-15 0 -9.7329e-14)
(5.52818e-14 0 -8.90723e-14)
(1.1221e-13 0 -7.93935e-14)
(1.6232e-13 0 -6.87452e-14)
(2.05144e-13 0 -5.75431e-14)
(2.40408e-13 0 -4.61488e-14)
(2.68008e-13 0 -3.48581e-14)
(2.88e-13 0 -2.39004e-14)
(3.0059e-13 0 -1.34484e-14)
(3.06122e-13 0 -3.62847e-15)
(3.05046e-13 0 5.47117e-15)
(2.97888e-13 0 1.37951e-14)
(2.85218e-13 0 2.13158e-14)
(2.67629e-13 0 2.80267e-14)
(2.45722e-13 0 3.3934e-14)
(2.20087e-13 0 3.90498e-14)
(1.91296e-13 0 4.33875e-14)
(1.59894e-13 0 4.69599e-14)
(1.26396e-13 0 4.97794e-14)
(9.12886e-14 0 5.18568e-14)
(5.50283e-14 0 5.3196e-14)
(1.83323e-14 0 5.37771e-14)
(-3.09759e-05 0 0.00015166)
(-3.1625e-05 0 0.000219637)
(-0.000251113 0 0.000254586)
(-0.000424183 0 0.000241855)
(-0.000381804 0 0.000415822)
(-0.000545935 0 0.000296939)
(-0.000645074 0 0.000231711)
(-0.000747134 0 0.00016387)
(-0.000826008 0 0.000112359)
(-0.000894132 0 0.000205189)
(-0.000985721 0 0.000125176)
(-0.00104046 0 7.14395e-05)
(-0.00108549 0 0.000167577)
(-0.00114788 0 8.09181e-05)
(-0.0011944 0 8.30815e-05)
(-0.00123116 0 4.65087e-05)
(-0.0012545 0 3.16899e-05)
(-0.00128519 0 5.31888e-05)
(-0.00132359 0 1.96522e-05)
(-0.00135241 0 2.59716e-05)
(-0.00137962 0 1.67754e-05)
(-0.00141151 0 2.22146e-05)
(-0.0014414 0 2.45586e-05)
(-0.00146229 0 1.96158e-05)
(-0.00146941 0 2.32572e-05)
(-0.00144892 0 2.33211e-05)
(-0.0014202 0 1.97316e-05)
(-0.00141504 0 1.5612e-05)
(-0.00142724 0 5.68953e-06)
(-0.00141079 0 -9.6291e-05)
(-0.00138265 0 4.67426e-05)
(-0.00136836 0 4.0688e-06)
(-0.00135562 0 -9.4896e-06)
(-0.00135278 0 -7.08708e-05)
(-0.00128389 0 -9.27192e-05)
(-0.00112651 0 -0.000242442)
(-0.00106286 0 -0.00015818)
(-0.00105935 0 -2.63294e-05)
(-0.000962252 0 -0.000352995)
(-0.000810634 0 -0.000267559)
(-0.000693892 0 -0.000189384)
(-0.000689835 0 -6.51642e-05)
(-0.000675579 0 -4.08935e-05)
(-0.000590204 0 -0.000142355)
(-0.000549889 0 -0.000127454)
(-0.000535479 0 -8.2371e-05)
(-0.00051863 0 -7.30967e-05)
(-0.000493788 0 -4.96973e-05)
(-0.000390333 0 -0.000222723)
(-0.000363037 0 -0.000125765)
(-0.000289121 0 -0.000152143)
(-0.000254002 0 -0.000103874)
(-0.000208227 0 -7.48914e-05)
(-0.00016939 0 -8.59599e-05)
(-0.00014706 0 -0.000104511)
(-8.72149e-05 0 -0.000172361)
(-1.58793e-05 0 -0.000204302)
(7.16011e-06 0 -0.000242283)
(6.84513e-05 0 -0.000280531)
(0.000197596 0 -0.000265432)
(0.000260616 0 -0.000292123)
(0.000320699 0 -0.000330463)
(0.000465857 0 -0.000193303)
(0.000535231 0 -0.000167176)
(0.000588668 0 -0.000251512)
(0.000697363 0 -0.00014782)
(0.000709438 0 -9.75398e-05)
(0.000712487 0 -6.721e-05)
(0.00072562 0 -9.14295e-05)
(0.0007554 0 3.38312e-07)
(0.000750486 0 3.84798e-05)
(0.000737175 0 7.35804e-05)
(0.000714173 0 0.000114128)
(0.000674425 0 0.000161252)
(0.000621826 0 0.000186789)
(0.00054781 0 0.000197776)
(0.000487177 0 0.000204616)
(0.000379983 0 0.000292194)
(0.000422256 0 0.00015604)
(2.53856e-05 0 0.000191942)
(1.21672e-05 0 0.000478647)
(-1.15809e-12 0 2.08657e-12)
(-1.22297e-12 0 4.37961e-14)
(-1.14637e-13 0 2.1341e-13)
(-3.57518e-13 0 2.3274e-13)
(-5.04975e-13 0 1.85931e-13)
(-5.88806e-13 0 1.19186e-13)
(-6.2772e-13 0 5.23797e-14)
(-6.33466e-13 0 -7.44549e-15)
(-6.13811e-13 0 -5.81591e-14)
(-5.74386e-13 0 -9.95305e-14)
(-5.19751e-13 0 -1.31985e-13)
(-4.539e-13 0 -1.56126e-13)
(-3.80432e-13 0 -1.72591e-13)
(-3.02571e-13 0 -1.82038e-13)
(-2.23146e-13 0 -1.85155e-13)
(-1.44593e-13 0 -1.82673e-13)
(-6.89539e-14 0 -1.75379e-13)
(2.13193e-15 0 -1.6411e-13)
(6.7394e-14 0 -1.49719e-13)
(1.25892e-13 0 -1.3304e-13)
(1.76976e-13 0 -1.14853e-13)
(2.20254e-13 0 -9.58555e-14)
(2.55542e-13 0 -7.66377e-14)
(2.82828e-13 0 -5.76725e-14)
(3.02247e-13 0 -3.93233e-14)
(3.14072e-13 0 -2.18608e-14)
(3.18701e-13 0 -5.47985e-15)
(3.16632e-13 0 9.68766e-15)
(3.0843e-13 0 2.35614e-14)
(2.94696e-13 0 3.61014e-14)
(2.76042e-13 0 4.72954e-14)
(2.53077e-13 0 5.7148e-14)
(2.26396e-13 0 6.5673e-14)
(1.96573e-13 0 7.289e-14)
(1.64156e-13 0 7.88233e-14)
(1.29662e-13 0 8.35021e-14)
(9.35813e-14 0 8.69592e-14)
(5.63808e-14 0 8.92291e-14)
(1.87788e-14 0 9.03534e-14)
(-6.84943e-05 0 0.000223479)
(-0.00020117 0 0.000265278)
(-0.000344507 0 0.000338067)
(-0.000537759 0 0.00033141)
(-0.000531675 0 0.000360045)
(-0.000498915 0 0.000404116)
(-0.000626669 0 0.000302724)
(-0.000706661 0 0.000355689)
(-0.000836515 0 0.000261644)
(-0.000910576 0 0.000210405)
(-0.000953246 0 0.000299198)
(-0.00103672 0 0.000183604)
(-0.00108044 0 0.000203051)
(-0.00115114 0 0.000134924)
(-0.00119815 0 0.000120094)
(-0.00122777 0 7.80221e-05)
(-0.00125216 0 7.55457e-05)
(-0.00129704 0 6.53878e-05)
(-0.00133851 0 5.68366e-05)
(-0.00136766 0 6.95307e-05)
(-0.00139903 0 5.03831e-05)
(-0.00142781 0 5.24394e-05)
(-0.00144828 0 5.38505e-05)
(-0.00146295 0 3.92192e-05)
(-0.00146957 0 4.6645e-05)
(-0.00146347 0 3.40731e-05)
(-0.00143684 0 5.43456e-06)
(-0.00142681 0 -1.62448e-05)
(-0.00142741 0 -2.97848e-05)
(-0.0014253 0 -1.34656e-05)
(-0.00136095 0 -9.65632e-06)
(-0.00130761 0 -1.34937e-05)
(-0.00127041 0 -6.16639e-05)
(-0.00125922 0 -9.1338e-05)
(-0.0012674 0 -0.000118145)
(-0.00115692 0 -0.000336453)
(-0.00103102 0 -0.000298036)
(-0.00101542 0 -0.000125214)
(-0.00094407 0 -0.000368676)
(-0.00083001 0 -0.000327723)
(-0.000584429 0 -0.000497794)
(-0.000707205 0 -9.12608e-05)
(-0.000633218 0 -2.82017e-05)
(-0.000536435 0 -0.000193343)
(-0.000524483 0 -0.000109559)
(-0.000503768 0 -9.25658e-05)
(-0.000476506 0 -0.000111417)
(-0.000460501 0 -8.33647e-05)
(-0.000354912 0 -0.000252264)
(-0.000296852 0 -0.000199919)
(-0.000198534 0 -0.000208519)
(-0.000169399 0 -0.000131887)
(-0.000115914 0 -0.00011127)
(-9.06099e-05 0 -0.000108107)
(-3.31099e-05 0 -0.000158551)
(-2.29941e-05 0 -0.000200329)
(2.50355e-05 0 -0.000242351)
(3.42856e-05 0 -0.000295029)
(0.000106473 0 -0.000343639)
(0.000193662 0 -0.00036784)
(0.000214923 0 -0.00040562)
(0.000369025 0 -0.000314951)
(0.000423422 0 -0.00028555)
(0.000464895 0 -0.000299059)
(0.000555597 0 -0.00023593)
(0.00059628 0 -0.000169769)
(0.000600624 0 -0.000137668)
(0.000616687 0 -0.00010052)
(0.000650866 0 -6.42995e-05)
(0.00068564 0 1.83604e-05)
(0.0006816 0 3.27097e-05)
(0.000669595 0 7.09689e-05)
(0.000653425 0 0.000119191)
(0.000623932 0 0.000183247)
(0.000567664 0 0.000260027)
(0.000516213 0 0.000243709)
(0.000437319 0 0.000270131)
(0.000331768 0 0.000333452)
(0.000319334 0 0.000257873)
(-0.000503334 0 0.000146525)
(1.26522e-05 0 0.000835763)
(-3.46613e-13 0 9.76779e-12)
(-1.38355e-12 0 5.79484e-13)
(-1.09063e-13 0 5.58742e-13)
(-4.1872e-13 0 4.40907e-13)
(-5.93248e-13 0 3.0008e-13)
(-6.77775e-13 0 1.73532e-13)
(-7.07418e-13 0 6.67892e-14)
(-7.01208e-13 0 -2.17121e-14)
(-6.69517e-13 0 -9.40758e-14)
(-6.18748e-13 0 -1.52055e-13)
(-5.53603e-13 0 -1.9701e-13)
(-4.7806e-13 0 -2.3003e-13)
(-3.95701e-13 0 -2.52081e-13)
(-3.0977e-13 0 -2.64127e-13)
(-2.23145e-13 0 -2.67185e-13)
(-1.38327e-13 0 -2.62347e-13)
(-5.74227e-14 0 -2.50788e-13)
(1.78906e-14 0 -2.33742e-13)
(8.63525e-14 0 -2.12453e-13)
(1.47076e-13 0 -1.88111e-13)
(1.99504e-13 0 -1.61812e-13)
(2.43359e-13 0 -1.34518e-13)
(2.78591e-13 0 -1.0704e-13)
(3.05322e-13 0 -8.00296e-14)
(3.23811e-13 0 -5.39833e-14)
(3.34434e-13 0 -2.92658e-14)
(3.37671e-13 0 -6.13337e-15)
(3.34088e-13 0 1.52442e-14)
(3.24302e-13 0 3.47645e-14)
(3.08952e-13 0 5.23762e-14)
(2.88676e-13 0 6.80644e-14)
(2.64099e-13 0 8.18396e-14)
(2.35829e-13 0 9.37288e-14)
(2.04446e-13 0 1.03771e-13)
(1.70506e-13 0 1.12014e-13)
(1.34532e-13 0 1.18511e-13)
(9.70156e-14 0 1.23318e-13)
(5.84226e-14 0 1.26487e-13)
(1.94567e-14 0 1.28062e-13)
(-4.07374e-06 0 0.000301327)
(-7.14284e-05 0 0.000402002)
(-7.10294e-05 0 0.000531146)
(-0.000356836 0 0.000518496)
(-0.000518868 0 0.000476346)
(-0.000631483 0 0.00037359)
(-0.00069112 0 0.000316038)
(-0.000758382 0 0.000316122)
(-0.000782081 0 0.000406414)
(-0.000889136 0 0.000283697)
(-0.00093732 0 0.000304019)
(-0.00102034 0 0.000209998)
(-0.00106386 0 0.000222043)
(-0.00111555 0 0.000177584)
(-0.00114491 0 0.0001741)
(-0.00116314 0 0.000147716)
(-0.0012069 0 0.000120077)
(-0.00126378 0 9.53374e-05)
(-0.00128984 0 7.66393e-05)
(-0.00130842 0 5.01588e-05)
(-0.00133259 0 4.41152e-05)
(-0.00135015 0 6.28669e-05)
(-0.00135919 0 5.33077e-05)
(-0.00136502 0 4.51782e-05)
(-0.00137006 0 4.40874e-05)
(-0.00137159 0 4.62596e-05)
(-0.00136183 0 3.82442e-05)
(-0.00135276 0 -4.5715e-06)
(-0.00134688 0 -1.5812e-05)
(-0.0013489 0 -1.77489e-05)
(-0.00133407 0 -1.29439e-05)
(-0.00127138 0 -7.30501e-05)
(-0.0012268 0 -0.000137058)
(-0.00120234 0 -0.000196517)
(-0.00119715 0 -0.000254849)
(-0.00116903 0 -0.000316479)
(-0.00102717 0 -0.000374697)
(-0.000970071 0 -0.000356492)
(-0.00097157 0 -0.000323928)
(-0.000931926 0 -0.000307396)
(-0.000740621 0 -0.000418219)
(-0.000733353 0 -2.81784e-05)
(-0.000611312 0 -5.87278e-05)
(-0.000536231 0 -0.000237258)
(-0.000543333 0 -0.000134102)
(-0.000521355 0 -9.54675e-05)
(-0.000477717 0 -0.000151748)
(-0.00045566 0 -0.000152864)
(-0.000323953 0 -0.00031199)
(-0.000224972 0 -0.000283251)
(-0.000147393 0 -0.000230709)
(-7.05559e-05 0 -0.000180297)
(-9.42445e-06 0 -0.000145752)
(4.88372e-05 0 -0.000152924)
(7.57884e-05 0 -0.000155014)
(7.08335e-05 0 -0.000198211)
(7.67499e-05 0 -0.00025266)
(0.000112561 0 -0.000311197)
(9.30864e-05 0 -0.000405209)
(0.000156679 0 -0.000483156)
(0.000332974 0 -0.000396027)
(0.000318828 0 -0.00042076)
(0.000389638 0 -0.000352955)
(0.000460115 0 -0.000272433)
(0.000479812 0 -0.00026326)
(0.000505531 0 -0.000215238)
(0.000525976 0 -0.000169416)
(0.00054151 0 -0.000156379)
(0.000567328 0 -5.44028e-05)
(0.000577386 0 -4.22954e-05)
(0.000576314 0 6.78426e-05)
(0.000562636 0 0.000130137)
(0.000553541 0 0.000174073)
(0.000534808 0 0.000253649)
(0.000509054 0 0.00028965)
(0.000479104 0 0.000277191)
(0.000394546 0 0.000337094)
(0.000237051 0 0.000433018)
(0.000361601 0 0.000330971)
(-0.000396574 0 0.000155785)
(5.90013e-05 0 0.000902232)
(1.26206e-09 0 1.19335e-08)
(-3.83152e-12 0 3.05411e-12)
(-2.52552e-13 0 1.10358e-12)
(-6.15499e-13 0 6.72797e-13)
(-7.71686e-13 0 4.00655e-13)
(-8.21733e-13 0 2.08837e-13)
(-8.22934e-13 0 6.31788e-14)
(-7.94331e-13 0 -5.22268e-14)
(-7.44153e-13 0 -1.44769e-13)
(-6.7732e-13 0 -2.18171e-13)
(-5.97726e-13 0 -2.74554e-13)
(-5.08971e-13 0 -3.15361e-13)
(-4.14529e-13 0 -3.41828e-13)
(-3.17675e-13 0 -3.5522e-13)
(-2.21366e-13 0 -3.56922e-13)
(-1.28197e-13 0 -3.48434e-13)
(-4.03494e-14 0 -3.31361e-13)
(4.0467e-14 0 -3.07364e-13)
(1.13025e-13 0 -2.78094e-13)
(1.76532e-13 0 -2.45117e-13)
(2.3057e-13 0 -2.09849e-13)
(2.75026e-13 0 -1.73522e-13)
(3.1003e-13 0 -1.37163e-13)
(3.35885e-13 0 -1.01592e-13)
(3.53011e-13 0 -6.74336e-14)
(3.61922e-13 0 -3.51405e-14)
(3.63211e-13 0 -5.02497e-15)
(3.57529e-13 0 2.27123e-14)
(3.45562e-13 0 4.79568e-14)
(3.27996e-13 0 7.06592e-14)
(3.05505e-13 0 9.08179e-14)
(2.78741e-13 0 1.08464e-13)
(2.48328e-13 0 1.23652e-13)
(2.14858e-13 0 1.36451e-13)
(1.78895e-13 0 1.4694e-13)
(1.40965e-13 0 1.552e-13)
(1.01557e-13 0 1.61312e-13)
(6.11256e-14 0 1.65346e-13)
(2.03544e-14 0 1.67352e-13)
(3.94254e-05 0 0.000355443)
(-8.05323e-05 0 0.000472644)
(-3.53655e-05 0 0.000702563)
(-0.000195049 0 0.000677234)
(-0.000355552 0 0.000636067)
(-0.000533173 0 0.000547486)
(-0.000623235 0 0.000525246)
(-0.000667002 0 0.000522302)
(-0.000784442 0 0.000389246)
(-0.000842863 0 0.00036163)
(-0.000905939 0 0.000335338)
(-0.000956153 0 0.000315621)
(-0.00099075 0 0.000314961)
(-0.00104114 0 0.000223997)
(-0.00105735 0 0.000221107)
(-0.00107941 0 0.00019528)
(-0.00114062 0 0.000107)
(-0.001169 0 0.000169947)
(-0.00118644 0 0.000120932)
(-0.00119821 0 8.45993e-05)
(-0.00121127 0 0.000103869)
(-0.00122177 0 8.13015e-05)
(-0.00122841 0 6.24129e-05)
(-0.00123568 0 2.4317e-05)
(-0.0012425 0 2.77813e-05)
(-0.00124896 0 6.52251e-06)
(-0.0012562 0 -1.37275e-05)
(-0.00125963 0 -3.25763e-05)
(-0.00124417 0 -0.000107313)
(-0.00123663 0 -8.61808e-05)
(-0.00122689 0 -6.23477e-05)
(-0.0011924 0 -6.04388e-05)
(-0.00116822 0 -0.000100761)
(-0.00115986 0 -0.000151817)
(-0.00114925 0 -0.000223124)
(-0.00110292 0 -0.000348517)
(-0.00102403 0 -0.000428097)
(-0.00097873 0 -0.000458157)
(-0.000964245 0 -0.000480725)
(-0.00094356 0 -0.000507433)
(-0.00088982 0 -0.000302451)
(-0.000696639 0 -0.000397232)
(-0.000645426 0 -0.000364873)
(-0.00068561 0 -0.000203274)
(-0.000644707 0 -0.000145568)
(-0.000592925 0 -0.000138396)
(-0.00054802 0 -0.000187214)
(-0.000502934 0 -0.000241034)
(-0.000352934 0 -0.000404928)
(-0.000163166 0 -0.000426576)
(-5.98019e-05 0 -0.000342709)
(1.58564e-05 0 -0.000250712)
(8.4121e-05 0 -0.000185292)
(9.23725e-05 0 -0.000164095)
(0.00011818 0 -0.000155657)
(0.000108602 0 -0.000193619)
(0.000111667 0 -0.000252714)
(0.000125042 0 -0.000336627)
(0.000170827 0 -0.000432942)
(0.000233228 0 -0.000510754)
(0.000261275 0 -0.000505403)
(0.000311803 0 -0.000459509)
(0.000337787 0 -0.00041292)
(0.000404294 0 -0.000328616)
(0.000414787 0 -0.000292681)
(0.000432675 0 -0.000248384)
(0.000447786 0 -0.000196155)
(0.000481376 0 -7.42215e-05)
(0.000465956 0 -0.00010455)
(0.00047203 0 1.0184e-05)
(0.000476678 0 3.98144e-05)
(0.000473195 0 8.93223e-05)
(0.000476086 0 0.000129377)
(0.000446813 0 0.000260598)
(0.00041226 0 0.000341032)
(0.000384885 0 0.000365926)
(0.000352385 0 0.000401166)
(0.000301606 0 0.000447498)
(0.000346592 0 0.000435385)
(0.000128743 0 0.000328351)
(-0.000161698 0 0.000940877)
(7.61024e-06 0 4.86291e-05)
(-2.43271e-12 0 2.36287e-12)
(-2.26125e-12 0 1.30869e-12)
(-1.12093e-12 0 7.46314e-13)
(-1.05653e-12 0 4.21227e-13)
(-1.0149e-12 0 1.98486e-13)
(-9.68467e-13 0 2.93958e-14)
(-9.09156e-13 0 -1.05678e-13)
(-8.35461e-13 0 -2.14815e-13)
(-7.48533e-13 0 -3.01611e-13)
(-6.50794e-13 0 -3.67958e-13)
(-5.45334e-13 0 -4.15202e-13)
(-4.3556e-13 0 -4.44668e-13)
(-3.24864e-13 0 -4.57877e-13)
(-2.16359e-13 0 -4.56602e-13)
(-1.12766e-13 0 -4.42812e-13)
(-1.63523e-14 0 -4.18598e-13)
(7.11576e-14 0 -3.86096e-13)
(1.48599e-13 0 -3.47404e-13)
(2.15321e-13 0 -3.04487e-13)
(2.71099e-13 0 -2.59102e-13)
(3.16045e-13 0 -2.12757e-13)
(3.50521e-13 0 -1.66696e-13)
(3.75052e-13 0 -1.21901e-13)
(3.90263e-13 0 -7.91128e-14)
(3.96842e-13 0 -3.88624e-14)
(3.95523e-13 0 -1.50501e-15)
(3.8707e-13 0 3.27432e-14)
(3.72249e-13 0 6.37746e-14)
(3.51813e-13 0 9.15628e-14)
(3.26481e-13 0 1.1614e-13)
(2.96933e-13 0 1.37577e-13)
(2.63816e-13 0 1.55971e-13)
(2.27734e-13 0 1.71433e-13)
(1.89255e-13 0 1.8408e-13)
(1.48904e-13 0 1.94029e-13)
(1.07161e-13 0 2.01387e-13)
(6.44624e-14 0 2.06243e-13)
(2.14629e-14 0 2.08659e-13)
(-1.00923e-05 0 0.000471991)
(-0.000493808 0 0.000447919)
(-0.000659085 0 0.000488456)
(-0.00042201 0 0.000705969)
(-0.000376356 0 0.00068664)
(-0.000481611 0 0.000612732)
(-0.000568775 0 0.000585999)
(-0.000639668 0 0.000555049)
(-0.000739029 0 0.000458092)
(-0.000785121 0 0.000432182)
(-0.000808247 0 0.000433236)
(-0.000835138 0 0.000420244)
(-0.000926355 0 0.000323853)
(-0.000972336 0 0.000257211)
(-0.000980855 0 0.000259925)
(-0.00103635 0 0.00015549)
(-0.00107381 0 0.000153263)
(-0.00108644 0 0.000139347)
(-0.00109039 0 0.000120388)
(-0.0011058 0 9.84752e-05)
(-0.00111848 0 8.8174e-05)
(-0.001122 0 8.53926e-05)
(-0.00112637 0 7.20651e-05)
(-0.00113194 0 7.36181e-05)
(-0.00113584 0 7.46197e-05)
(-0.00114168 0 5.29333e-05)
(-0.00115087 0 3.11585e-05)
(-0.00115689 0 1.71773e-05)
(-0.00115614 0 -1.63294e-05)
(-0.0011278 0 -9.46423e-05)
(-0.00111267 0 -9.05143e-05)
(-0.00110423 0 -0.00012354)
(-0.0011057 0 -0.000181381)
(-0.00111529 0 -0.000215305)
(-0.00107009 0 -0.00036061)
(-0.00104479 0 -0.000401852)
(-0.00103202 0 -0.000445257)
(-0.00102156 0 -0.000458396)
(-0.000992993 0 -0.000520397)
(-0.000992366 0 -0.000491079)
(-0.000889247 0 -0.000440439)
(-0.000821516 0 -0.00038192)
(-0.00081415 0 -0.000281169)
(-0.000787356 0 -0.000198692)
(-0.000715201 0 -0.000217269)
(-0.000666384 0 -0.000215358)
(-0.000618076 0 -0.000255156)
(-0.000525434 0 -0.000367384)
(-0.000334004 0 -0.000577739)
(-0.000236921 0 -0.000563307)
(-6.04874e-05 0 -0.000502966)
(-4.57342e-05 0 -0.000337419)
(6.27148e-05 0 -0.00020446)
(6.58351e-05 0 -0.000161839)
(8.38494e-05 0 -0.000159357)
(8.06482e-05 0 -0.000205144)
(0.000112511 0 -0.000263769)
(0.00015277 0 -0.000355576)
(0.000156405 0 -0.000483951)
(0.000231069 0 -0.00055223)
(0.00024485 0 -0.000539805)
(0.00029832 0 -0.000483662)
(0.000312391 0 -0.000431316)
(0.000346886 0 -0.00036152)
(0.000344854 0 -0.000311342)
(0.00036871 0 -0.000233168)
(0.000331361 0 -0.000215432)
(0.000367416 0 -0.000123672)
(0.000377575 0 -8.75166e-05)
(0.000391274 0 -0.00011441)
(0.00040634 0 8.66814e-05)
(0.000387557 0 0.000143313)
(0.000360182 0 0.000214313)
(0.000339665 0 0.000289352)
(0.000367785 0 0.0003241)
(0.000322662 0 0.000402629)
(0.0002839 0 0.000459984)
(0.000249923 0 0.000511442)
(0.000219532 0 0.000507673)
(0.000144263 0 0.000342996)
(-0.000246841 0 0.000966545)
(1.01211e-05 0 0.000419331)
(-2.28448e-12 0 6.76954e-13)
(-3.11989e-12 0 8.64244e-13)
(-1.50221e-12 0 5.82436e-13)
(-1.31883e-12 0 3.3937e-13)
(-1.21322e-12 0 1.3474e-13)
(-1.12709e-12 0 -3.83888e-14)
(-1.03854e-12 0 -1.85005e-13)
(-9.40087e-13 0 -3.07148e-13)
(-8.30463e-13 0 -4.05503e-13)
(-7.11317e-13 0 -4.80484e-13)
(-5.85681e-13 0 -5.32807e-13)
(-4.57203e-13 0 -5.6369e-13)
(-3.29609e-13 0 -5.74891e-13)
(-2.06301e-13 0 -5.68629e-13)
(-9.01921e-14 0 -5.47431e-13)
(1.63664e-14 0 -5.13975e-13)
(1.1166e-13 0 -4.70959e-13)
(1.94634e-13 0 -4.20983e-13)
(2.64834e-13 0 -3.66453e-13)
(3.22299e-13 0 -3.09493e-13)
(3.67432e-13 0 -2.51901e-13)
(4.00887e-13 0 -1.95135e-13)
(4.23468e-13 0 -1.4033e-13)
(4.36049e-13 0 -8.83243e-14)
(4.3953e-13 0 -3.97035e-14)
(4.34816e-13 0 5.1578e-15)
(4.22809e-13 0 4.60532e-14)
(4.04381e-13 0 8.29075e-14)
(3.80361e-13 0 1.15743e-13)
(3.51519e-13 0 1.44649e-13)
(3.18572e-13 0 1.69759e-13)
(2.82183e-13 0 1.91229e-13)
(2.42968e-13 0 2.09226e-13)
(2.01492e-13 0 2.23915e-13)
(1.58272e-13 0 2.35452e-13)
(1.13771e-13 0 2.43977e-13)
(6.83974e-14 0 2.496e-13)
(2.27704e-14 0 2.52398e-13)
(-8.18918e-06 0 0.000641877)
(-0.000222826 0 0.000713363)
(-0.000220589 0 0.000826228)
(-0.000333687 0 0.000798722)
(-0.000491017 0 0.000694397)
(-0.000490603 0 0.000666964)
(-0.000524302 0 0.00064031)
(-0.000583681 0 0.000608337)
(-0.000664244 0 0.000533898)
(-0.000691288 0 0.000511344)
(-0.000719182 0 0.000487015)
(-0.000818483 0 0.000358225)
(-0.000839409 0 0.00038842)
(-0.000861594 0 0.000373836)
(-0.000906405 0 0.000265656)
(-0.000963582 0 0.000233623)
(-0.000995507 0 0.000210802)
(-0.00099415 0 0.000201603)
(-0.00100881 0 0.000135232)
(-0.00104543 0 9.22667e-05)
(-0.00105406 0 9.85498e-05)
(-0.0010557 0 8.30423e-05)
(-0.00105599 0 6.69869e-05)
(-0.00106227 0 5.00268e-05)
(-0.00106338 0 3.5599e-05)
(-0.00105041 0 1.89962e-05)
(-0.00104445 0 4.78606e-06)
(-0.00104331 0 -2.4585e-05)
(-0.00104411 0 -6.47308e-05)
(-0.00103289 0 -0.000116456)
(-0.0010272 0 -9.95233e-05)
(-0.00102781 0 -9.15289e-05)
(-0.00105078 0 -9.64436e-05)
(-0.00106643 0 -0.000130398)
(-0.001031 0 -0.000342563)
(-0.00100972 0 -0.000469139)
(-0.00105004 0 -0.000412853)
(-0.00101885 0 -0.000495309)
(-0.00101076 0 -0.000525085)
(-0.000988493 0 -0.000533912)
(-0.00091059 0 -0.000512269)
(-0.00088105 0 -0.000384777)
(-0.000818248 0 -0.000329801)
(-0.000776406 0 -0.00025674)
(-0.000717817 0 -0.000239138)
(-0.000662145 0 -0.000250096)
(-0.000603218 0 -0.00032971)
(-0.000398017 0 -0.00060427)
(-0.000299823 0 -0.000717212)
(-0.000226921 0 -0.000724662)
(-0.000131445 0 -0.000619575)
(-0.000132269 0 -0.000430297)
(-4.92452e-05 0 -0.000251856)
(-4.65405e-05 0 -0.000176672)
(-5.00382e-06 0 -0.00015423)
(6.40562e-06 0 -0.000220674)
(5.36505e-05 0 -0.000301326)
(0.000132708 0 -0.000396435)
(0.000141381 0 -0.000509957)
(0.000198072 0 -0.000572074)
(0.000216801 0 -0.000558838)
(0.000237164 0 -0.000511724)
(0.000220912 0 -0.000445296)
(0.000259623 0 -0.0003616)
(0.000202658 0 -0.000346239)
(0.000266521 0 -0.000248191)
(0.00023792 0 -0.000202248)
(0.000263529 0 -0.000146587)
(0.000285099 0 -0.000120963)
(0.000299829 0 -4.08223e-05)
(0.00029815 0 6.73229e-05)
(0.000294167 0 0.000123932)
(0.000285155 0 0.000187631)
(0.000300323 0 0.000256932)
(0.000274482 0 0.000363334)
(0.000254874 0 0.000429358)
(0.000194593 0 0.000495125)
(9.22671e-05 0 0.000566681)
(0.000148925 0 0.000538394)
(0.000140741 0 0.000398392)
(-0.000314769 0 0.000935559)
(1.06141e-05 0 0.000370818)
(-2.0396e-12 0 1.34167e-14)
(-3.13324e-12 0 4.34984e-13)
(-1.64507e-12 0 3.79576e-13)
(-1.50356e-12 0 2.18921e-13)
(-1.39234e-12 0 3.96806e-14)
(-1.28821e-12 0 -1.32636e-13)
(-1.17791e-12 0 -2.88617e-13)
(-1.05596e-12 0 -4.23013e-13)
(-9.21869e-13 0 -5.32545e-13)
(-7.78098e-13 0 -6.15525e-13)
(-6.2854e-13 0 -6.71765e-13)
(-4.77644e-13 0 -7.02338e-13)
(-3.29803e-13 0 -7.09334e-13)
(-1.88898e-13 0 -6.95561e-13)
(-5.81126e-14 0 -6.64269e-13)
(6.01199e-14 0 -6.18882e-13)
(1.6415e-13 0 -5.62787e-13)
(2.53105e-13 0 -4.99183e-13)
(3.26811e-13 0 -4.3097e-13)
(3.85651e-13 0 -3.60668e-13)
(4.30403e-13 0 -2.90372e-13)
(4.62092e-13 0 -2.21747e-13)
(4.81863e-13 0 -1.56056e-13)
(4.90889e-13 0 -9.42064e-14)
(4.90324e-13 0 -3.6802e-14)
(4.8128e-13 0 1.58003e-14)
(4.64819e-13 0 6.34395e-14)
(4.41939e-13 0 1.06106e-13)
(4.13555e-13 0 1.439e-13)
(3.80497e-13 0 1.76996e-13)
(3.43513e-13 0 2.05611e-13)
(3.03282e-13 0 2.29979e-13)
(2.60419e-13 0 2.50338e-13)
(2.15482e-13 0 2.66912e-13)
(1.68966e-13 0 2.79906e-13)
(1.21309e-13 0 2.89493e-13)
(7.28836e-14 0 2.95811e-13)
(2.4261e-14 0 2.98955e-13)
(3.17891e-07 0 0.000782358)
(-9.29107e-05 0 0.000806356)
(-0.000139648 0 0.000874041)
(-0.000218477 0 0.000846421)
(-0.000372765 0 0.000760667)
(-0.000377348 0 0.000739036)
(-0.000442239 0 0.000699415)
(-0.00047874 0 0.000677774)
(-0.000509334 0 0.000643067)
(-0.000587638 0 0.000577029)
(-0.000612881 0 0.000564707)
(-0.000661595 0 0.000535126)
(-0.000715836 0 0.000478624)
(-0.000756941 0 0.000411432)
(-0.000826951 0 0.000267048)
(-0.000885066 0 0.00022481)
(-0.000889029 0 0.000269365)
(-0.000932177 0 6.60818e-05)
(-0.000939813 0 0.000151207)
(-0.00095272 0 0.00013869)
(-0.000954485 0 0.00012496)
(-0.000964826 0 9.68789e-05)
(-0.0009835 0 6.64802e-05)
(-0.000992899 0 6.62085e-05)
(-0.000995865 0 5.71107e-05)
(-0.000982308 0 2.21628e-05)
(-0.000966504 0 7.30554e-06)
(-0.000962037 0 -1.50583e-05)
(-0.000966677 0 -6.32974e-05)
(-0.000971122 0 -7.74319e-05)
(-0.000946373 0 -0.000109011)
(-0.000930845 0 -0.000100467)
(-0.000925172 0 -0.000120595)
(-0.000927749 0 -0.00019289)
(-0.000946206 0 -0.00034121)
(-0.000978476 0 -0.000396761)
(-0.000976005 0 -0.000474128)
(-0.000975277 0 -0.000519314)
(-0.000973905 0 -0.000540804)
(-0.00095447 0 -0.000573505)
(-0.000910491 0 -0.000552319)
(-0.000856022 0 -0.000472347)
(-0.000795223 0 -0.000374081)
(-0.000711923 0 -0.00033013)
(-0.000624339 0 -0.000326689)
(-0.000571189 0 -0.000340644)
(-0.000508924 0 -0.000424662)
(-0.000322404 0 -0.000737043)
(-0.000320482 0 -0.0007861)
(-0.000266815 0 -0.000784723)
(-0.000290825 0 -0.000653442)
(-0.000273072 0 -0.000492647)
(-0.000262172 0 -0.000320531)
(-0.000196476 0 -0.000200703)
(-0.000160048 0 -0.000168158)
(-0.000129426 0 -0.000258889)
(-6.55469e-05 0 -0.000378478)
(1.84109e-05 0 -0.000473469)
(4.49192e-05 0 -0.000551483)
(8.80659e-05 0 -0.000596566)