/*--------------------------------*- C++ -*----------------------------------*\
  =========                 |
  \\      /  F ield         | OpenFOAM: The Open Source CFD Toolbox
   \\    /   O peration     | Website:  https://openfoam.org
    \\  /    A nd           | Version:  6
     \\/     M anipulation  |
\*---------------------------------------------------------------------------*/
FoamFile
{
    version     2.0;
    format      ascii;
    class       surfaceScalarField;
    location    "4200";
    object      phi;
}
// * * * * * * * * * * * * * * * * * * * * * * * * * * * * * * * * * * * * * //

dimensions      [0 3 -1 0 0 0 0];

internalField   nonuniform List<scalar> 
9440
(
-4.0604e-10
4.0604e-10
-1.01728e-10
-3.0431e-10
2.8407e-10
-3.85796e-10
6.16549e-10
-3.32477e-10
1.42419e-09
-8.0764e-10
1.76981e-09
-3.45621e-10
2.48728e-09
-7.17469e-10
3.58833e-09
-1.10104e-09
4.23161e-09
-6.43282e-10
4.93196e-09
-7.0035e-10
5.64857e-09
-7.16601e-10
6.26057e-09
-6.12005e-10
6.65849e-09
-3.97919e-10
7.23962e-09
-5.81124e-10
7.82041e-09
-5.80794e-10
7.78419e-09
3.62244e-11
8.08661e-09
-3.02418e-10
8.36979e-09
-2.83174e-10
8.67828e-09
-3.08495e-10
8.90524e-09
-2.26955e-10
9.02954e-09
-1.24301e-10
9.31505e-09
-2.85508e-10
9.45422e-09
-1.39165e-10
9.5433e-09
-8.90754e-11
9.64597e-09
-1.02669e-10
9.67875e-09
-3.27807e-11
9.73593e-09
-5.71753e-11
9.80036e-09
-6.44307e-11
9.79037e-09
9.99043e-12
9.79233e-09
-1.95579e-12
9.7652e-09
2.71262e-11
9.67277e-09
9.24319e-11
9.54066e-09
1.3211e-10
9.32034e-09
2.20326e-10
9.03692e-09
2.83418e-10
8.70436e-09
3.32557e-10
8.12302e-09
5.81338e-10
7.30956e-09
8.13461e-10
6.40859e-09
9.00968e-10
5.341e-09
1.0676e-09
4.78335e-09
5.57647e-10
4.13652e-09
6.46827e-10
3.37154e-09
7.64983e-10
2.49581e-09
8.75725e-10
1.76574e-09
7.30075e-10
1.55132e-09
2.14415e-10
1.29823e-09
2.53097e-10
1.00387e-09
2.94362e-10
6.98787e-10
3.05079e-10
4.62374e-10
2.36415e-10
3.41508e-10
1.20867e-10
3.18168e-10
2.33417e-11
4.08581e-10
-9.04117e-11
6.85715e-10
-2.77133e-10
7.64271e-10
-7.85544e-11
9.74779e-10
-2.10507e-10
1.37459e-09
-3.99808e-10
1.80467e-09
-4.30084e-10
2.21016e-09
-4.05485e-10
1.99485e-09
2.15316e-10
2.75037e-09
-7.55518e-10
3.31777e-09
-5.67408e-10
3.31435e-09
3.42829e-12
3.7495e-09
-4.35147e-10
4.07829e-09
-3.28796e-10
4.26222e-09
-1.83925e-10
4.26792e-09
-5.69826e-12
4.23769e-09
3.02299e-11
4.10319e-09
1.34495e-10
3.95311e-09
1.50081e-10
3.5056e-09
4.47511e-10
3.08646e-09
4.19145e-10
2.54554e-09
5.40919e-10
1.92883e-09
6.1671e-10
1.11503e-09
8.13803e-10
6.55812e-10
4.59213e-10
2.32717e-10
4.23094e-10
-2.61639e-10
4.94355e-10
-5.13672e-10
2.52032e-10
-5.01274e-10
-1.23992e-11
-4.80879e-10
-2.03963e-11
-4.70999e-10
-9.8808e-12
-3.33258e-10
-1.37741e-10
-1.26486e-10
-2.06772e-10
1.69626e-16
-1.26486e-10
-1.33794e-17
-8.51506e-17
-1.33248e-17
-5.63102e-20
-1.29437e-17
-3.81114e-19
-1.24022e-17
-5.41781e-19
-1.1751e-17
-6.51423e-19
-1.10056e-17
-7.45799e-19
-1.0178e-17
-8.28062e-19
-9.28399e-18
-8.94852e-19
-8.34189e-18
-9.43322e-19
-7.37141e-18
-9.7218e-19
-6.39215e-18
-9.81439e-19
-5.42272e-18
-9.72042e-19
-4.48012e-18
-9.45585e-19
-3.57927e-18
-9.0409e-19
-2.73281e-18
-8.49835e-19
-1.95095e-18
-7.85219e-19
-1.24147e-18
-7.12655e-19
-6.09852e-19
-6.34484e-19
-5.94536e-20
-5.52899e-19
4.08312e-19
-4.69898e-19
7.93744e-19
-3.8725e-19
1.09864e-18
-3.06475e-19
1.32606e-18
-2.28833e-19
1.48012e-18
-1.55335e-19
1.5658e-18
-8.67585e-20
1.58868e-18
-2.36786e-20
1.55479e-18
3.34985e-20
1.4704e-18
8.45038e-20
1.34191e-18
1.29178e-19
1.17573e-18
1.67446e-19
9.7827e-19
1.99298e-19
7.55857e-19
2.24768e-19
5.14722e-19
2.43929e-19
2.60917e-19
2.56939e-19
2.64262e-19
-8.51098e-11
4.91152e-10
-5.23422e-11
-3.37074e-10
6.07731e-10
-1.04587e-09
1.28662e-09
-1.01136e-09
2.14633e-09
-1.66735e-09
2.81708e-09
-1.01636e-09
3.4943e-09
-1.39469e-09
4.17739e-09
-1.78414e-09
4.80796e-09
-1.27385e-09
5.51485e-09
-1.40724e-09
6.11981e-09
-1.32156e-09
6.34766e-09
-8.39857e-10
6.39134e-09
-4.41592e-10
6.95789e-09
-1.14767e-09
7.52513e-09
-1.14804e-09
7.97161e-09
-4.10254e-10
8.25815e-09
-5.88946e-10
8.52754e-09
-5.52568e-10
8.72949e-09
-5.10439e-10
8.71405e-09
-2.11512e-10
8.84142e-09
-2.51671e-10
9.20201e-09
-6.46091e-10
9.46725e-09
-4.04407e-10
9.64246e-09
-2.64281e-10
9.77779e-09
-2.37996e-10
9.87026e-09
-1.25245e-10
9.90303e-09
-8.99446e-11
9.93582e-09
-9.72174e-11
9.90385e-09
4.19593e-11
9.81085e-09
9.10498e-11
9.67922e-09
1.58751e-10
9.57123e-09
2.00432e-10
9.44987e-09
2.53471e-10
9.11461e-09
5.55586e-10
8.98485e-09
4.13179e-10
8.60939e-09
7.08013e-10
8.18971e-09
1.00102e-09
8.27568e-09
7.27489e-10
7.80298e-09
1.37367e-09
7.25922e-09
1.61135e-09
6.71118e-09
1.10568e-09
6.02567e-09
1.33233e-09
5.32265e-09
1.46801e-09
4.55614e-09
1.64223e-09
3.7865e-09
1.49971e-09
3.0123e-09
9.88618e-10
2.36268e-09
9.02717e-10
1.9772e-09
6.79847e-10
1.76144e-09
5.20837e-10
1.58385e-09
4.14016e-10
1.51664e-09
1.8808e-10
1.51575e-09
2.42337e-11
1.41189e-09
1.34467e-11
1.59717e-09
-4.62407e-10
1.64197e-09
-1.23357e-10
1.76246e-09
-3.30988e-10
2.0345e-09
-6.7185e-10
2.57561e-09
-9.71192e-10
2.76654e-09
-5.96411e-10
3.3751e-09
-3.93241e-10
3.63363e-09
-1.01404e-09
3.93369e-09
-8.67467e-10
4.21348e-09
-2.76358e-10
4.37669e-09
-5.98357e-10
4.55527e-09
-5.07382e-10
4.77462e-09
-4.03275e-10
4.84665e-09
-7.77259e-11
4.80485e-09
7.20365e-11
4.67108e-09
2.68263e-10
4.41839e-09
4.02774e-10
4.27402e-09
5.91882e-10
3.97434e-09
7.18819e-10
3.41157e-09
1.1037e-09
2.94772e-09
1.08056e-09
2.56598e-09
1.19554e-09
1.72985e-09
1.29535e-09
1.33e-09
8.2294e-10
8.21301e-10
1.00305e-09
4.53605e-10
6.19726e-10
1.64122e-10
2.77082e-10
-1.58162e-10
3.01887e-10
-1.42316e-10
-2.57272e-11
-1.14661e-10
-1.65396e-10
-8.97602e-11
-2.31674e-10
2.28786e-16
-2.16247e-10
-1.37834e-17
-4.65684e-16
-1.3649e-17
-2.01413e-19
-1.31041e-17
-9.25967e-19
-1.25118e-17
-1.13481e-18
-1.18454e-17
-1.31893e-18
-1.10878e-17
-1.50483e-18
-1.02448e-17
-1.67309e-18
-9.33246e-18
-1.80992e-18
-8.37075e-18
-1.90852e-18
-7.38066e-18
-1.96651e-18
-6.38275e-18
-1.98427e-18
-5.39627e-18
-1.96395e-18
-4.43862e-18
-1.90897e-18
-3.52502e-18
-1.82355e-18
-2.6682e-18
-1.71238e-18
-1.87838e-18
-1.58043e-18
-1.16329e-18
-1.43265e-18
-5.28267e-19
-1.27384e-18
2.35468e-20
-1.10847e-18
4.9096e-19
-9.40571e-19
8.7452e-19
-7.73668e-19
1.17628e-18
-6.10755e-19
1.39956e-18
-4.54292e-19
1.5487e-18
-3.06249e-19
1.62888e-18
-1.68153e-19
1.64586e-18
-4.11508e-20
1.60579e-18
7.39385e-20
1.51507e-18
1.76571e-19
1.38017e-18
2.66427e-19
1.20758e-18
3.43363e-19
1.00374e-18
4.07354e-19
7.75018e-19
4.58452e-19
5.27732e-19
4.96745e-19
2.6824e-19
5.22312e-19
5.351e-19
1.23862e-10
3.67293e-10
7.79528e-11
-2.91161e-10
6.49376e-10
-1.61729e-09
1.5708e-09
-1.93278e-09
2.15792e-09
-2.25448e-09
3.05298e-09
-1.91141e-09
3.54823e-09
-1.88994e-09
4.18624e-09
-2.42214e-09
4.8714e-09
-1.95901e-09
5.47379e-09
-2.00963e-09
5.85066e-09
-1.69842e-09
6.34037e-09
-1.32957e-09
6.94727e-09
-1.04849e-09
6.91258e-09
-1.11298e-09
7.36563e-09
-1.60108e-09
7.51364e-09
-5.58261e-10
7.7171e-09
-7.92404e-10
7.95943e-09
-7.94896e-10
8.17574e-09
-7.26752e-10
8.36918e-09
-4.04951e-10
8.59555e-09
-4.78036e-10
8.66007e-09
-7.10605e-10
8.73166e-09
-4.76e-10
8.8353e-09
-3.67916e-10
8.93623e-09
-3.38924e-10
8.98033e-09
-1.69341e-10
9.03605e-09
-1.45658e-10
9.07326e-09
-1.34426e-10
9.06927e-09
4.59527e-11
9.01565e-09
1.44664e-10
8.95635e-09
2.18056e-10
8.89302e-09
2.63758e-10
8.81021e-09
3.36285e-10
8.70062e-09
6.65176e-10
8.46465e-09
6.49153e-10
8.36187e-09
8.10793e-10
8.09047e-09
1.27241e-09
7.78184e-09
1.03613e-09
7.61073e-09
1.54478e-09
7.36798e-09
1.8541e-09
6.88313e-09
1.59053e-09
6.52053e-09
1.69493e-09
6.1067e-09
1.88184e-09
5.57058e-09
2.17835e-09
5.06735e-09
2.00293e-09
4.35836e-09
1.69761e-09
3.55027e-09
1.71081e-09
2.94691e-09
1.2832e-09
2.65166e-09
8.16087e-10
2.44589e-09
6.19792e-10
2.28331e-09
3.50663e-10
2.33082e-09
-2.32764e-11
2.21586e-09
1.28405e-10
2.42782e-09
-6.74366e-10
2.58342e-09
-2.78945e-10
2.75511e-09
-5.02678e-10
2.85968e-09
-7.76424e-10
3.21835e-09
-1.32986e-09
3.57162e-09
-9.49674e-10
3.92292e-09
-7.4454e-10
4.02554e-09
-1.11666e-09
4.36887e-09
-1.21079e-09
4.65642e-09
-5.63913e-10
4.84679e-09
-7.8872e-10
4.86601e-09
-5.26608e-10
4.78863e-09
-3.25892e-10
4.84286e-09
-1.31952e-10
4.87037e-09
4.45288e-11
4.74397e-09
3.94657e-10
4.50185e-09
6.44901e-10
4.33485e-09
7.58876e-10
3.98753e-09
1.06614e-09
3.91261e-09
1.17862e-09
3.57077e-09
1.42239e-09
3.07685e-09
1.68947e-09
2.74838e-09
1.62381e-09
1.85111e-09
1.72021e-09
1.14571e-09
1.70846e-09
8.81113e-10
8.8432e-10
6.11501e-10
5.46694e-10
1.19945e-10
7.93442e-10
8.62354e-11
7.98111e-12
6.47402e-11
-1.43902e-10
-1.28273e-11
-1.54108e-10
6.86351e-16
-2.29076e-10
-1.87573e-17
-7.75642e-16
-1.43731e-17
-4.60533e-18
-1.33126e-17
-1.98659e-18
-1.26959e-17
-1.75317e-18
-1.20313e-17
-1.98563e-18
-1.12561e-17
-2.28248e-18
-1.03816e-17
-2.55045e-18
-9.43106e-18
-2.76389e-18
-8.42874e-18
-2.91468e-18
-7.39842e-18
-3.00109e-18
-6.36243e-18
-3.02482e-18
-5.34129e-18
-2.98987e-18
-4.3532e-18
-2.90191e-18
-3.41385e-18
-2.76769e-18
-2.53624e-18
-2.59465e-18
-1.73061e-18
-2.39049e-18
-1.00449e-18
-2.16288e-18
-3.62895e-19
-1.91917e-18
1.91448e-19
-1.66617e-18
6.57863e-19
-1.40997e-18
1.03743e-18
-1.15587e-18
1.33274e-18
-9.08357e-19
1.5476e-18
-6.71091e-19
1.6868e-18
-4.4699e-19
1.75588e-18
-2.38297e-19
1.76095e-18
-4.66667e-20
1.70843e-18
1.26741e-19
1.60493e-18
2.81182e-19
1.45711e-18
4.1624e-19
1.27157e-18
5.31753e-19
1.05484e-18
6.27726e-19
8.13311e-19
7.04265e-19
5.53299e-19
7.61514e-19
2.81029e-19
7.99601e-19
8.18585e-19
4.44936e-10
-7.76417e-11
9.0632e-10
-7.52542e-10
1.13098e-09
-1.84194e-09
1.83733e-09
-2.63913e-09
2.36777e-09
-2.78491e-09
3.1444e-09
-2.68804e-09
3.68594e-09
-2.43148e-09
4.01649e-09
-2.75269e-09
4.60999e-09
-2.5525e-09
5.01172e-09
-2.41135e-09
5.36279e-09
-2.04949e-09
5.64234e-09
-1.60911e-09
6.04795e-09
-1.4541e-09
6.09571e-09
-1.16074e-09
6.23236e-09
-1.73772e-09
6.83401e-09
-1.1599e-09
7.05187e-09
-1.01027e-09
7.12856e-09
-8.71577e-10
7.20376e-09
-8.01951e-10
7.51451e-09
-7.15701e-10
7.68642e-09
-6.49944e-10
7.64172e-09
-6.659e-10
7.62719e-09
-4.61471e-10
7.682e-09
-4.22725e-10
7.7902e-09
-4.47121e-10
7.86437e-09
-2.43503e-10
7.95295e-09
-2.34243e-10
7.99394e-09
-1.75411e-10
8.04532e-09
-5.42267e-12
8.06285e-09
1.27137e-10
8.07923e-09
2.01679e-10
7.9956e-09
3.47387e-10
7.97565e-09
3.56229e-10
7.96008e-09
6.8075e-10
7.75274e-09
8.56492e-10
7.83392e-09
7.29615e-10
7.64617e-09
1.46016e-09
7.34585e-09
1.33645e-09
7.25632e-09
1.63431e-09
7.17387e-09
1.93654e-09
6.81809e-09
1.94631e-09
6.43677e-09
2.07625e-09
6.09752e-09
2.22109e-09
5.72087e-09
2.55501e-09
5.37328e-09
2.35052e-09
4.92899e-09
2.1419e-09
4.46643e-09
2.17338e-09
4.05541e-09
1.69422e-09
3.77855e-09
1.09295e-09
3.35761e-09
1.04073e-09
2.84636e-09
8.61914e-10
2.75774e-09
6.53527e-11
2.91219e-09
-2.60495e-11
2.84249e-09
-6.04666e-10
3.24379e-09
-6.80234e-10
3.59565e-09
-8.54542e-10
3.71016e-09
-8.90934e-10
3.79458e-09
-1.41427e-09
4.09202e-09
-1.24712e-09
4.36301e-09
-1.01552e-09
4.43092e-09
-1.18457e-09
4.57848e-09
-1.35835e-09
4.93077e-09
-9.16204e-10
4.89464e-09
-7.5259e-10
4.91949e-09
-5.51461e-10
4.89353e-09
-2.99929e-10
4.8493e-09
-8.7725e-11
4.9123e-09
-1.84617e-11
4.81401e-09
4.92944e-10
4.63015e-09
8.28759e-10
4.33634e-09
1.05269e-09
4.19885e-09
1.20363e-09
4.05558e-09
1.32189e-09
3.6514e-09
1.82657e-09
3.40524e-09
1.93563e-09
3.20805e-09
1.821e-09
2.56715e-09
2.36111e-09
2.62457e-09
1.65103e-09
2.22932e-09
1.27957e-09
1.05218e-09
1.72383e-09
3.76991e-10
1.46863e-09
2.64066e-10
1.20904e-10
-2.82625e-11
1.48426e-10
-1.31427e-10
-5.09459e-11
1.36412e-15
-3.60507e-10
-4.09103e-18
-6.02e-16
-1.17541e-17
3.05777e-18
-1.30789e-17
-6.64066e-19
-1.29284e-17
-1.9065e-18
-1.23281e-17
-2.58905e-18
-1.15241e-17
-3.09006e-18
-1.05951e-17
-3.4833e-18
-9.58185e-18
-3.78128e-18
-8.51515e-18
-3.98577e-18
-7.42214e-18
-4.09863e-18
-6.32749e-18
-4.12408e-18
-5.25332e-18
-4.06864e-18
-4.21898e-18
-3.94078e-18
-3.24081e-18
-3.75029e-18
-2.33208e-18
-3.50768e-18
-1.503e-18
-3.22375e-18
-7.60781e-19
-2.9091e-18
-1.09893e-19
-2.57382e-18
4.4765e-19
-2.22717e-18
9.1196e-19
-1.87738e-18
1.28495e-18
-1.53158e-18
1.57001e-18
-1.19574e-18
1.7717e-18
-8.74689e-19
1.89549e-18
-5.72245e-19
1.94751e-18
-2.91281e-19
1.93435e-18
-3.38721e-20
1.86287e-18
1.98577e-19
1.73999e-18
4.05212e-19
1.57262e-18
5.85606e-19
1.36755e-18
7.39653e-19
1.13138e-18
8.67457e-19
8.70561e-19
9.69242e-19
5.91386e-19
1.04527e-18
3.00013e-19
1.09578e-18
1.12094e-18
3.45445e-10
-4.23085e-10
1.13744e-09
-1.54453e-09
1.49971e-09
-2.20421e-09
1.89408e-09
-3.0335e-09
2.33199e-09
-3.22282e-09
2.93701e-09
-3.29306e-09
3.47553e-09
-2.96999e-09
3.60893e-09
-2.88609e-09
4.05784e-09
-3.00141e-09
4.5759e-09
-2.92941e-09
4.97769e-09
-2.45128e-09
5.22479e-09
-1.85621e-09
5.57258e-09
-1.80188e-09
6.12836e-09
-1.71652e-09
5.87403e-09
-1.48339e-09
6.00673e-09
-1.2926e-09
6.1839e-09
-1.18744e-09
6.39237e-09
-1.08004e-09
6.45723e-09
-8.6681e-10
6.54143e-09
-7.99893e-10
6.6175e-09
-7.26019e-10
6.75446e-09
-8.02858e-10
6.89024e-09
-5.97241e-10
6.96717e-09
-4.99658e-10
6.92808e-09
-4.08027e-10
6.95332e-09
-2.68743e-10
7.0573e-09
-3.38218e-10
7.08886e-09
-2.06973e-10
7.04558e-09
3.78631e-11
7.05663e-09
1.16087e-10
7.10975e-09
1.48563e-10
7.09173e-09
3.65407e-10
7.0285e-09
4.19455e-10
7.04685e-09
6.62399e-10
7.05693e-09
8.46414e-10
6.94243e-09
8.44118e-10
6.90868e-09
1.49391e-09
6.92258e-09
1.32254e-09
6.85483e-09
1.70206e-09
6.74059e-09
2.05078e-09
6.45935e-09
2.22755e-09
6.11232e-09
2.42328e-09
5.80302e-09
2.53039e-09
5.63094e-09
2.72708e-09
5.40571e-09
2.57575e-09
5.22036e-09
2.32725e-09
5.10941e-09
2.28432e-09
4.94216e-09
1.86148e-09
4.42318e-09
1.61193e-09
4.15584e-09
1.30807e-09
4.05506e-09
9.62699e-10
3.9562e-09
1.64209e-10
4.04599e-09
-1.15835e-10
3.93695e-09
-4.95627e-10
3.96406e-09
-7.07341e-10
4.18807e-09
-1.07855e-09
4.37436e-09
-1.07722e-09
4.27988e-09
-1.31979e-09
4.41992e-09
-1.38715e-09
4.63879e-09
-1.23439e-09
4.72971e-09
-1.27548e-09
4.69042e-09
-1.31906e-09
4.91899e-09
-1.14477e-09
4.87427e-09
-7.07864e-10
4.92645e-09
-6.03639e-10
4.98055e-09
-3.54025e-10
4.84512e-09
4.77067e-11
4.81267e-09
1.39828e-11
4.77773e-09
5.27888e-10
4.52738e-09
1.07911e-09
4.39176e-09
1.18831e-09
4.1944e-09
1.401e-09
3.90305e-09
1.61324e-09
3.8916e-09
1.83801e-09
3.74862e-09
2.07861e-09
3.33205e-09
2.23757e-09
3.48118e-09
2.21198e-09
2.99331e-09
2.1389e-09
1.80994e-09
2.46295e-09
1.51377e-09
2.02e-09
1.68351e-09
1.29889e-09
9.40602e-10
8.63807e-10
2.80647e-10
8.08378e-10
3.82721e-11
1.91426e-10
-3.74616e-16
-3.22237e-10
-2.03059e-17
-2.01829e-15
-1.5475e-17
-1.7796e-18
-1.4321e-17
-1.81973e-18
-1.36109e-17
-2.61981e-18
-1.28292e-17
-3.37457e-18
-1.19173e-17
-4.00596e-18
-1.08931e-17
-4.51184e-18
-9.78633e-18
-4.8925e-18
-8.62802e-18
-5.14865e-18
-7.44758e-18
-5.28365e-18
-6.27205e-18
-5.30413e-18
-5.12547e-18
-5.21967e-18
-4.02848e-18
-5.04212e-18
-2.9982e-18
-4.78484e-18
-2.04815e-18
-4.46195e-18
-1.18835e-18
-4.08773e-18
-4.25502e-19
-3.67608e-18
2.36761e-19
-3.24005e-18
7.97437e-19
-2.79153e-18
1.25776e-18
-2.34101e-18
1.6208e-18
-1.89748e-18
1.89106e-18
-1.46837e-18
2.07414e-18
-1.05965e-18
2.17645e-18
-6.75915e-19
2.20492e-18
-3.20565e-19
2.1668e-18
4.03178e-21
2.0695e-18
2.96357e-19
1.92038e-18
5.55572e-19
1.72667e-18
7.81362e-19
1.49535e-18
9.73784e-19
1.23316e-18
1.13314e-18
9.46589e-19
1.25985e-18
6.41895e-19
1.35437e-18
3.25174e-19
1.41709e-18
1.44832e-18
3.56911e-10
-7.79994e-10
1.06101e-09
-2.24863e-09
1.57407e-09
-2.71726e-09
1.7876e-09
-3.24703e-09
2.1367e-09
-3.57191e-09
2.44539e-09
-3.60176e-09
2.90184e-09
-3.42644e-09
3.42516e-09
-3.40941e-09
3.76318e-09
-3.33942e-09
3.78909e-09
-2.95532e-09
4.28554e-09
-2.94772e-09
4.74622e-09
-2.31689e-09
4.98613e-09
-2.0418e-09
5.02319e-09
-1.75357e-09
5.08422e-09
-1.54442e-09
5.18473e-09
-1.3931e-09
5.44035e-09
-1.44306e-09
5.51761e-09
-1.15731e-09
5.57909e-09
-9.28282e-10
5.71342e-09
-9.34219e-10
5.83374e-09
-8.46341e-10
5.9012e-09
-8.70314e-10
6.01749e-09
-7.13531e-10
6.15424e-09
-6.364e-10
6.14414e-09
-3.97933e-10
6.16617e-09
-2.90765e-10
6.33061e-09
-5.02655e-10
6.42334e-09
-2.99707e-10
6.37476e-09
8.6444e-11
6.35248e-09
1.38375e-10
6.30774e-09
1.93297e-10
6.30605e-09
3.67104e-10
6.26538e-09
4.60122e-10
6.23673e-09
6.91051e-10
6.25158e-09
8.31565e-10
6.07683e-09
1.01887e-09
6.22381e-09
1.34692e-09
6.17649e-09
1.36986e-09
6.04114e-09
1.83742e-09
5.95856e-09
2.13336e-09
5.89495e-09
2.29116e-09
5.70003e-09
2.6182e-09
5.47548e-09
2.75494e-09
5.29145e-09
2.91112e-09
5.20127e-09
2.66593e-09
5.205e-09
2.32352e-09
5.14069e-09
2.34864e-09
4.97948e-09
2.02268e-09
4.8177e-09
1.77371e-09
4.91445e-09
1.21133e-09
5.03483e-09
8.42322e-10
4.8464e-09
3.52636e-10
4.7693e-09
-3.87332e-11
4.7106e-09
-4.36929e-10
4.67097e-09
-6.67709e-10
4.58354e-09
-9.91112e-10
4.64049e-09
-1.13417e-09
4.60971e-09
-1.289e-09
4.67174e-09
-1.44918e-09
4.83239e-09
-1.39504e-09
4.79124e-09
-1.23433e-09
4.79923e-09
-1.32706e-09
4.84925e-09
-1.19479e-09
4.76013e-09
-6.18741e-10
4.77054e-09
-6.14047e-10
4.73815e-09
-3.21627e-10
4.57454e-09
2.11314e-10
4.4826e-09
1.05925e-10
4.40157e-09
6.08917e-10
4.25057e-09
1.23011e-09
4.11104e-09
1.32784e-09
4.08044e-09
1.4316e-09
3.97412e-09
1.71955e-09
3.73882e-09
2.07332e-09
3.32045e-09
2.49698e-09
3.10648e-09
2.45153e-09
2.97362e-09
2.34484e-09
2.34554e-09
2.76698e-09
2.01347e-09
2.79502e-09
1.95269e-09
2.08078e-09
1.54203e-09
1.70954e-09
6.96603e-10
1.70923e-09
5.73446e-10
9.31533e-10
5.4227e-10
2.226e-10
3.05205e-15
2.20027e-10
-1.34685e-17
3.60429e-16
-1.55146e-17
2.63133e-19
-1.51207e-17
-2.21548e-18
-1.43657e-17
-3.37808e-18
-1.34606e-17
-4.28339e-18
-1.24232e-17
-5.0473e-18
-1.12737e-17
-5.66546e-18
-1.00425e-17
-6.12807e-18
-8.76302e-18
-6.43251e-18
-7.46806e-18
-6.58298e-18
-6.1876e-18
-6.58893e-18
-4.94792e-18
-6.46365e-18
-3.77119e-18
-6.22313e-18
-2.67531e-18
-5.885e-18
-1.67394e-18
-5.46763e-18
-7.76702e-19
-4.98932e-18
1.05292e-20
-4.46767e-18
6.8528e-19
-3.91904e-18
1.24795e-18
-3.35816e-18
1.70129e-18
-2.79789e-18
2.0499e-18
-2.24909e-18
2.29978e-18
-1.72065e-18
2.45788e-18
-1.21955e-18
2.5318e-18
-7.51044e-19
2.52952e-18
-3.18897e-19
2.45913e-18
7.44057e-20
2.32872e-18
4.27408e-19
2.14617e-18
7.39459e-19
1.91909e-18
1.01051e-18
1.6547e-18
1.24093e-18
1.35987e-18
1.43134e-18
1.04111e-18
1.58247e-18
7.04618e-19
1.69503e-18
3.56399e-19
1.76964e-18
1.80675e-18
6.46239e-10
-1.42623e-09
9.43669e-10
-2.54606e-09
1.26298e-09
-3.03657e-09
1.4146e-09
-3.39864e-09
1.61614e-09
-3.77345e-09
1.90359e-09
-3.8892e-09
2.38713e-09
-3.90998e-09
2.7668e-09
-3.78907e-09
3.15064e-09
-3.72326e-09
3.58655e-09
-3.39124e-09
3.8169e-09
-3.17807e-09
3.83454e-09
-2.33453e-09
4.09866e-09
-2.30592e-09
4.21648e-09
-1.87139e-09
4.34675e-09
-1.6747e-09
4.45175e-09
-1.4981e-09
4.7071e-09
-1.6984e-09
4.71015e-09
-1.16036e-09
4.83982e-09
-1.05795e-09
5.03791e-09
-1.1323e-09
5.20462e-09
-1.01305e-09
5.19213e-09
-8.57824e-10
5.37304e-09
-8.9444e-10
5.42762e-09
-6.90974e-10
5.48159e-09
-4.51901e-10
5.6126e-09
-4.21771e-10
5.72067e-09
-6.10724e-10
5.72402e-09
-3.03063e-10
5.78163e-09
2.88393e-11
5.76296e-09
1.57042e-10
5.65484e-09
3.01418e-10
5.61133e-09
4.10614e-10
5.53972e-09
5.31732e-10
5.48068e-09
7.50093e-10
5.49907e-09
8.13177e-10
5.39088e-09
1.12706e-09
5.4369e-09
1.3009e-09
5.32528e-09
1.48148e-09
5.41576e-09
1.74694e-09
5.47439e-09
2.07473e-09
5.43414e-09
2.33141e-09
5.20201e-09
2.85032e-09
5.07546e-09
2.88149e-09
5.05751e-09
2.92907e-09
4.97077e-09
2.75267e-09
4.97864e-09
2.31565e-09
4.9138e-09
2.41348e-09
4.84064e-09
2.09584e-09
5.01383e-09
1.60052e-09
5.04746e-09
1.1777e-09
4.97681e-09
9.12976e-10
4.91267e-09
4.16778e-10
4.92602e-09
-5.20882e-11
4.76971e-09
-2.8061e-10
4.83642e-09
-7.34417e-10
4.76287e-09
-9.17559e-10
4.78546e-09
-1.15676e-09
4.78051e-09
-1.28406e-09
4.79169e-09
-1.46035e-09
4.80232e-09
-1.40566e-09
4.70776e-09
-1.13977e-09
4.66051e-09
-1.2798e-09
4.48447e-09
-1.01875e-09
4.41595e-09
-5.50216e-10
4.2611e-09
-4.59192e-10
4.16343e-09
-2.2396e-10
3.98706e-09
3.87683e-10
3.98211e-09
1.10883e-10
3.71116e-09
8.7987e-10
3.69596e-09
1.24531e-09
3.8168e-09
1.20701e-09
3.54548e-09
1.70291e-09
3.65371e-09
1.61132e-09
3.49801e-09
2.22902e-09
3.44737e-09
2.54763e-09
3.20909e-09
2.68982e-09
2.79731e-09
2.75662e-09
2.34083e-09
3.22346e-09
2.26905e-09
2.86679e-09
1.67128e-09
2.67855e-09
1.14873e-09
2.2321e-09
1.07104e-09
1.78692e-09
9.29929e-10
1.07264e-09
3.29574e-10
8.22953e-10
-1.49231e-15
5.49601e-10
-2.47752e-17
-1.36304e-15
-1.79928e-17
-6.52121e-18
-1.6283e-17
-3.92693e-18
-1.5271e-17
-4.39294e-18
-1.42245e-17
-5.33328e-18
-1.30413e-17
-6.23397e-18
-1.17363e-17
-6.97417e-18
-1.03469e-17
-7.52133e-18
-8.91349e-18
-7.86994e-18
-7.47401e-18
-8.02653e-18
-6.06232e-18
-8.00474e-18
-4.7074e-18
-7.82275e-18
-3.43306e-18
-7.50172e-18
-2.25794e-18
-7.06448e-18
-1.19563e-18
-6.53441e-18
-2.55052e-19
-5.93448e-18
5.59164e-19
-5.28652e-18
1.24616e-18
-4.61056e-18
1.80822e-18
-3.92443e-18
2.25009e-18
-3.24347e-18
2.57835e-18
-2.58044e-18
2.80088e-18
-1.94557e-18
2.92638e-18
-1.34672e-18
2.96395e-18
-7.89618e-19
2.92282e-18
-2.78153e-19
2.81213e-18
1.85298e-19
2.64077e-18
5.99573e-19
2.41722e-18
9.6443e-19
2.14951e-18
1.28029e-18
1.84511e-18
1.548e-18
1.511e-18
1.76866e-18
1.15367e-18
1.94341e-18
7.79229e-19
2.07334e-18
3.93514e-19
2.15936e-18
2.20212e-18
3.98678e-10
-1.82491e-09
7.49929e-10
-2.89731e-09
1.01771e-09
-3.30434e-09
1.24974e-09
-3.63068e-09
1.45237e-09
-3.97609e-09
1.69545e-09
-4.13228e-09
1.86004e-09
-4.07456e-09
2.22344e-09
-4.15248e-09
2.48751e-09
-3.98733e-09
2.73133e-09
-3.63505e-09
3.03457e-09
-3.4813e-09
3.18973e-09
-2.48968e-09
3.41533e-09
-2.53152e-09
3.58133e-09
-2.03738e-09
3.68384e-09
-1.77721e-09
3.81609e-09
-1.63034e-09
3.80398e-09
-1.68629e-09
4.02041e-09
-1.37678e-09
4.17512e-09
-1.21266e-09
4.19902e-09
-1.1562e-09
4.34495e-09
-1.15898e-09
4.51842e-09
-1.0313e-09
4.85192e-09
-1.22793e-09
4.81651e-09
-6.55563e-10
4.87646e-09
-5.11851e-10
5.08772e-09
-6.33029e-10
5.0259e-09
-5.48902e-10
5.0258e-09
-3.02958e-10
5.08524e-09
-3.06028e-11
5.09121e-09
1.51076e-10
5.04161e-09
3.51021e-10
4.94631e-09
5.05912e-10
4.97658e-09
5.0146e-10
4.91633e-09
8.10342e-10
4.79915e-09
9.30356e-10
4.72781e-09
1.1984e-09
4.71297e-09
1.31574e-09
4.69421e-09
1.50023e-09
4.69906e-09
1.74209e-09
4.71841e-09
2.05538e-09
4.59268e-09
2.45714e-09
4.60713e-09
2.83588e-09
4.60739e-09
2.88124e-09
4.63488e-09
2.90158e-09
4.638e-09
2.74954e-09
4.58922e-09
2.36442e-09
4.59586e-09
2.40685e-09
4.74769e-09
1.94401e-09
4.84989e-09
1.49832e-09
4.91611e-09
1.11147e-09
4.8424e-09
9.8669e-10
4.96868e-09
2.90502e-10
4.95445e-09
-3.78559e-11
4.89315e-09
-2.19312e-10
4.84076e-09
-6.8202e-10
4.82916e-09
-9.0596e-10
4.79213e-09
-1.11973e-09
4.73575e-09
-1.22767e-09
4.73217e-09
-1.45677e-09
4.56286e-09
-1.23635e-09
4.56068e-09
-1.13759e-09
4.31196e-09
-1.03108e-09
4.09239e-09
-7.99167e-10
4.06185e-09
-5.19674e-10
3.72055e-09
-1.1789e-10
3.47022e-09
2.63712e-11
3.56847e-09
2.89432e-10
3.46159e-09
2.17769e-10
3.38702e-09
9.54443e-10
3.51856e-09
1.11377e-09
3.5779e-09
1.14767e-09
3.43508e-09
1.84573e-09
3.3557e-09
1.6907e-09
2.8146e-09
2.77012e-09
2.71749e-09
2.64474e-09
2.59721e-09
2.81009e-09
2.49069e-09
2.86314e-09
2.7071e-09
3.00706e-09
2.60099e-09
2.9729e-09
2.2468e-09
3.03274e-09
1.94083e-09
2.53807e-09
1.6427e-09
2.08505e-09
1.04342e-09
1.67191e-09
5.01721e-10
1.36465e-09
-1.03691e-15
1.05132e-09
-4.90425e-18
-2.33008e-15
-1.53987e-17
3.97323e-18
-1.67489e-17
-2.57834e-18
-1.62114e-17
-4.93272e-18
-1.51251e-17
-6.42237e-18
-1.37815e-17
-7.58069e-18
-1.22835e-17
-8.47549e-18
-1.06955e-17
-9.11273e-18
-9.07009e-18
-9.49901e-18
-7.45222e-18
-9.64825e-18
-5.88033e-18
-9.58062e-18
-4.38637e-18
-9.32083e-18
-2.99582e-18
-8.89652e-18
-1.72787e-18
-8.33683e-18
-5.95705e-19
-7.6711e-18
3.92909e-19
-6.92778e-18
1.23512e-18
-6.13351e-18
1.9323e-18
-5.31242e-18
2.48918e-18
-4.48568e-18
2.91311e-18
-3.67121e-18
3.21321e-18
-2.88364e-18
3.39973e-18
-2.1344e-18
3.48349e-18
-1.43199e-18
3.47541e-18
-7.8234e-19
3.38627e-18
-1.89167e-19
3.22641e-18
3.4557e-19
3.00562e-18
8.21296e-19
2.73308e-18
1.23845e-18
2.41722e-18
1.59816e-18
2.06577e-18
1.90198e-18
1.68575e-18
2.15165e-18
1.2836e-18
2.34888e-18
8.65248e-19
2.49524e-18
4.3627e-19
2.59199e-18
2.64004e-18
2.96817e-10
-2.12172e-09
4.42509e-10
-3.043e-09
6.24437e-10
-3.48627e-09
7.57051e-10
-3.76329e-09
8.84468e-10
-4.1035e-09
9.73697e-10
-4.22151e-09
1.28542e-09
-4.38628e-09
1.6496e-09
-4.51666e-09
2.08177e-09
-4.4195e-09
2.38406e-09
-3.93734e-09
2.40909e-09
-3.50634e-09
2.55389e-09
-2.63448e-09
2.59843e-09
-2.57605e-09
2.78302e-09
-2.22197e-09
3.04954e-09
-2.04373e-09
3.30315e-09
-1.88396e-09
3.25457e-09
-1.63771e-09
3.3666e-09
-1.4888e-09
3.56528e-09
-1.41134e-09
3.69302e-09
-1.28394e-09
3.718e-09
-1.18396e-09
4.01148e-09
-1.32477e-09
4.01534e-09
-1.23179e-09
4.15426e-09
-7.9448e-10
4.27467e-09
-6.32256e-10
4.37264e-09
-7.30998e-10
4.3359e-09
-5.12164e-10
4.32934e-09
-2.96394e-10
4.31165e-09
-1.29147e-11
4.36785e-09
9.48812e-11
4.3881e-09
3.30768e-10
4.33549e-09
5.58525e-10
4.30267e-09
5.34275e-10
4.29681e-09
8.16208e-10
4.21376e-09
1.0134e-09
4.18821e-09
1.22395e-09
4.15481e-09
1.34914e-09
4.09226e-09
1.56278e-09
4.0256e-09
1.80875e-09
3.90639e-09
2.17459e-09
3.87052e-09
2.49301e-09
4.08722e-09
2.61917e-09
4.11734e-09
2.85112e-09
4.14293e-09
2.87599e-09
4.26289e-09
2.62958e-09
4.24927e-09
2.37805e-09
4.32036e-09
2.33575e-09
4.51863e-09
1.74574e-09
4.54296e-09
1.474e-09
4.60578e-09
1.04865e-09
4.72616e-09
8.66305e-10
4.74708e-09
2.6959e-10
4.75379e-09
-4.45647e-11
4.72298e-09
-1.88506e-10
4.68048e-09
-6.39513e-10
4.69404e-09
-9.19522e-10
4.58962e-09
-1.01531e-09
4.52967e-09
-1.16772e-09
4.46397e-09
-1.39106e-09
4.16422e-09
-9.36596e-10
4.13832e-09
-1.1117e-09
3.75607e-09
-6.48823e-10
3.54006e-09
-5.8315e-10
3.64962e-09
-6.29237e-10
3.56068e-09
-2.89384e-11
3.39156e-09
1.95494e-10
3.32008e-09
3.60912e-10
3.03297e-09
5.04887e-10
2.99964e-09
9.87774e-10
2.93449e-09
1.17892e-09
2.50539e-09
1.57677e-09
2.87354e-09
1.47759e-09
2.59875e-09
1.96549e-09
2.95697e-09
2.4119e-09
3.10805e-09
2.49366e-09
2.78585e-09
3.13229e-09
2.43761e-09
3.21138e-09
2.18439e-09
3.26028e-09
1.90038e-09
3.25692e-09
1.84798e-09
3.08514e-09
1.56381e-09
2.82224e-09
1.17621e-09
2.47265e-09
8.32405e-10
2.01572e-09
5.0115e-10
1.69591e-09
5.60238e-15
1.55247e-09
-3.46327e-17
3.59528e-15
-2.19494e-17
-8.71515e-18
-1.9103e-17
-5.42589e-18
-1.7701e-17
-6.33684e-18
-1.62835e-17
-7.84266e-18
-1.46763e-17
-9.19082e-18
-1.29207e-17
-1.02342e-17
-1.10818e-17
-1.09549e-17
-9.21932e-18
-1.1365e-17
-7.38459e-18
-1.14868e-17
-5.62055e-18
-1.13487e-17
-3.96206e-18
-1.09835e-17
-2.43613e-18
-1.04267e-17
-1.06214e-18
-9.71519e-18
1.47614e-19
-8.8853e-18
1.18718e-18
-7.97193e-18
2.05621e-18
-7.00722e-18
2.75904e-18
-6.01987e-18
3.30365e-18
-5.03463e-18
3.70069e-18
-4.07204e-18
3.96245e-18
-3.14846e-18
4.10214e-18
-2.27629e-18
4.13314e-18
-1.46436e-18
4.06859e-18
-7.18391e-19
3.92101e-18
-4.15529e-20
3.70213e-18
5.65012e-19
3.42278e-18
1.10168e-18
3.0928e-18
1.56991e-18
2.72105e-18
1.97183e-18
2.31544e-18
2.30993e-18
1.88298e-18
2.58681e-18
1.42996e-18
2.8049e-18
9.62e-19
2.96636e-18
4.84321e-19
3.07293e-18
3.1258e-18
8.1946e-11
-2.20367e-09
-5.3605e-11
-2.90745e-09
-3.65687e-11
-3.5033e-09
6.64249e-11
-3.86628e-09
1.93962e-10
-4.23104e-09
4.89035e-10
-4.51658e-09
8.4675e-10
-4.74399e-09
7.45858e-10
-4.41577e-09
8.11829e-10
-4.48547e-09
1.22189e-09
-4.34741e-09
1.62043e-09
-3.90487e-09
2.10474e-09
-3.11879e-09
2.15841e-09
-2.62972e-09
2.16322e-09
-2.22678e-09
2.37782e-09
-2.25832e-09
2.48223e-09
-1.98838e-09
2.73475e-09
-1.89022e-09
2.84916e-09
-1.60321e-09
2.90604e-09
-1.46823e-09
3.05925e-09
-1.43715e-09
3.13791e-09
-1.26262e-09
3.53454e-09
-1.72141e-09
3.44673e-09
-1.14398e-09
3.55899e-09
-9.06738e-10
3.68708e-09
-7.60346e-10
3.67999e-09
-7.239e-10
3.79703e-09
-6.29209e-10
3.65393e-09
-1.53286e-10
3.64788e-09
-6.87236e-12
3.67913e-09
6.36374e-11
3.64378e-09
3.66115e-10
3.64295e-09
5.59351e-10
3.62413e-09
5.53097e-10
3.63727e-09
8.03073e-10
3.57856e-09
1.07211e-09
3.48947e-09
1.31304e-09
3.43204e-09
1.40657e-09
3.40575e-09
1.58907e-09
3.42399e-09
1.79052e-09
3.45978e-09
2.1388e-09
3.60796e-09
2.34482e-09
3.63151e-09
2.59563e-09
3.50668e-09
2.97595e-09
3.65958e-09
2.72308e-09
3.81332e-09
2.47584e-09
3.80752e-09
2.38385e-09
3.90312e-09
2.24015e-09
4.05905e-09
1.58982e-09
4.20372e-09
1.32932e-09
4.23391e-09
1.01846e-09
4.46691e-09
6.33309e-10
4.46881e-09
2.67689e-10
4.46417e-09
-3.99279e-11
4.47652e-09
-2.0085e-10
4.47202e-09
-6.35008e-10
4.44082e-09
-8.88322e-10
4.33926e-09
-9.13747e-10
4.22874e-09
-1.05719e-09
3.97563e-09
-1.13795e-09
3.64986e-09
-6.10822e-10
3.49879e-09
-9.60623e-10
3.60152e-09
-7.51545e-10
3.41406e-09
-3.95694e-10
3.04387e-09
-2.59039e-10
2.98935e-09
2.5584e-11
3.01449e-09
1.70358e-10
2.87897e-09
4.9643e-10
2.80692e-09
5.76939e-10
2.68127e-09
1.11343e-09
2.60057e-09
1.25962e-09
2.62263e-09
1.55471e-09
2.64909e-09
1.45112e-09
2.10276e-09
2.51183e-09
2.12439e-09
2.39027e-09
1.95627e-09
2.66178e-09
2.0101e-09
3.07847e-09
1.97152e-09
3.24996e-09
1.84762e-09
3.38417e-09
1.65931e-09
3.44523e-09
1.42543e-09
3.31902e-09
1.02248e-09
3.22519e-09
6.50115e-10
2.84501e-09
4.58382e-10
2.20745e-09
1.75603e-10
1.97869e-09
-4.08284e-15
1.72808e-09
-1.0145e-17
1.15713e-18
-1.86606e-17
-1.99503e-19
-2.00139e-17
-4.07338e-18
-1.92068e-17
-7.14602e-18
-1.76316e-17
-9.42055e-18
-1.57198e-17
-1.11057e-17
-1.36414e-17
-1.23159e-17
-1.14919e-17
-1.3108e-17
-9.34112e-18
-1.35195e-17
-7.24651e-18
-1.35854e-17
-5.25534e-18
-1.33442e-17
-3.40529e-18
-1.2838e-17
-1.72457e-18
-1.21119e-17
-2.32252e-19
-1.12119e-17
1.06099e-18
-1.01828e-17
2.15189e-18
-9.0671e-18
3.04356e-18
-7.90322e-18
3.74428e-18
-6.72491e-18
4.26624e-18
-5.5607e-18
4.62426e-18
-4.43369e-18
4.83462e-18
-3.36174e-18
4.91407e-18
-2.35783e-18
4.87911e-18
-1.43064e-18
4.74543e-18
-5.85174e-19
4.52757e-18
1.76464e-19
4.2388e-18
8.5444e-19
3.89101e-18
1.45054e-18
3.49472e-18
1.96762e-18
3.05915e-18
2.40917e-18
2.59231e-18
2.77889e-18
2.10108e-18
3.08044e-18
1.59142e-18
3.31718e-18
1.06857e-18
3.49199e-18
5.37195e-19
3.60715e-18
3.66422e-18
-8.58644e-11