/*--------------------------------*- C++ -*----------------------------------*\
  =========                 |
  \\      /  F ield         | OpenFOAM: The Open Source CFD Toolbox
   \\    /   O peration     | Website:  https://openfoam.org
    \\  /    A nd           | Version:  6
     \\/     M anipulation  |
\*---------------------------------------------------------------------------*/
FoamFile
{
    version     2.0;
    format      ascii;
    class       volScalarField;
    location    "4200";
    object      T;
}
// * * * * * * * * * * * * * * * * * * * * * * * * * * * * * * * * * * * * * //

dimensions      [0 0 0 1 0 0 0];

internalField   nonuniform List<scalar> 
4800
(
552.486
552.359
552.238
552.122
552.011
551.906
551.806
551.712
551.624
551.54
551.461
551.386
551.315
551.247
551.184
551.123
551.066
551.012
550.962
550.914
550.869
550.827
550.788
550.751
550.718
550.686
550.658
550.631
550.607
550.585
550.564
550.545
550.527
550.509
550.492
550.474
550.454
550.432
550.406
550.375
550.338
550.294
550.242
550.182
550.115
550.043
549.967
549.888
549.809
549.73
549.653
549.579
549.508
549.441
549.378
549.318
549.262
549.21
549.161
549.114
549.07
549.029
548.989
548.95
548.91
548.87
548.827
548.779
548.723
548.659
548.581
548.485
548.369
548.227
548.058
547.859
547.632
547.38
547.104
546.811
546.504
546.185
545.857
545.521
545.177
544.823
544.718
544.606
544.488
544.367
544.243
544.117
543.991
543.863
543.736
543.608
543.481
543.353
543.226
543.099
542.973
542.846
542.721
542.595
542.47
542.345
542.22
542.096
541.971
541.847
541.723
541.599
541.476
541.352
541.229
541.105
540.982
540.858
540.735
540.612
552.485
552.355
552.23
552.111
551.997
551.889
551.785
551.687
551.596
551.509
551.429
551.353
551.281
551.212
551.148
551.089
551.033
550.979
550.929
550.882
550.838
550.797
550.759
550.724
550.691
550.661
550.634
550.609
550.586
550.565
550.545
550.527
550.51
550.494
550.478
550.461
550.443
550.422
550.398
550.368
550.333
550.29
550.24
550.182
550.117
550.045
549.969
549.891
549.812
549.733
549.655
549.581
549.509
549.441
549.376
549.315
549.258
549.204
549.154
549.107
549.063
549.02
548.98
548.941
548.901
548.861
548.818
548.77
548.716
548.653
548.576
548.483
548.37
548.232
548.067
547.873
547.649
547.399
547.125
546.831
546.521
546.2
545.87
545.533
545.187
544.83
544.725
544.611
544.491
544.369
544.244
544.118
543.991
543.864
543.736
543.608
543.48
543.353
543.226
543.099
542.972
542.846
542.72
542.595
542.469
542.344
542.22
542.095
541.971
541.847
541.723
541.599
541.476
541.352
541.228
541.105
540.982
540.858
540.735
540.612
552.482
552.347
552.214
552.087
551.966
551.85
551.74
551.635
551.538
551.447
551.364
551.286
551.214
551.145
551.08
551.022
550.966
550.914
550.866
550.821
550.778
550.739
550.703
550.67
550.64
550.612
550.587
550.564
550.544
550.526
550.509
550.493
550.478
550.464
550.45
550.436
550.419
550.401
550.379
550.352
550.319
550.279
550.231
550.176
550.114
550.044
549.97
549.892
549.812
549.733
549.655
549.579
549.506
549.435
549.369
549.306
549.247
549.191
549.139
549.091
549.045
549.002
548.961
548.921
548.882
548.842
548.799
548.753
548.7
548.638
548.564
548.474
548.365
548.232
548.074
547.886
547.669
547.423
547.152
546.859
546.547
546.224
545.891
545.552
545.208
544.852
544.741
544.621
544.497
544.372
544.246
544.119
543.992
543.864
543.736
543.608
543.48
543.352
543.225
543.098
542.971
542.845
542.719
542.594
542.469
542.344
542.219
542.095
541.97
541.846
541.723
541.599
541.475
541.352
541.228
541.105
540.981
540.858
540.735
540.612
552.478
552.333
552.19
552.051
551.917
551.79
551.67
551.556
551.451
551.355
551.268
551.189
551.115
551.047
550.982
550.925
550.871
550.821
550.774
550.732
550.692
550.655
550.622
550.592
550.565
550.541
550.52
550.501
550.484
550.469
550.456
550.443
550.432
550.421
550.41
550.398
550.384
550.368
550.348
550.324
550.294
550.257
550.213
550.161
550.101
550.035
549.963
549.886
549.808
549.728
549.649
549.571
549.496
549.423
549.354
549.289
549.227
549.169
549.115
549.064
549.017
548.972
548.931
548.891
548.852
548.812
548.77
548.725
548.674
548.614
548.542
548.456
548.351
548.225
548.073
547.894
547.685
547.447
547.182
546.89
546.577
546.251
545.916
545.575
545.239
544.934
544.767
544.632
544.504
544.377
544.249
544.121
543.993
543.864
543.735
543.607
543.479
543.351
543.224
543.097
542.97
542.844
542.718
542.593
542.467
542.343
542.218
542.094
541.97
541.846
541.722
541.598
541.475
541.351
541.228
541.104
540.981
540.858
540.735
540.612
552.471
552.313
552.156
552.001
551.852
551.71
551.578
551.454
551.34
551.238
551.147
551.066
550.991
550.923
550.86
550.803
550.751
550.704
550.66
550.62
550.584
550.55
550.521
550.495
550.473
550.453
550.435
550.42
550.408
550.398
550.388
550.38
550.372
550.365
550.357
550.348
550.337
550.324
550.307
550.286
550.259
550.225
550.183
550.134
550.078
550.014
549.945
549.87
549.793
549.713
549.634
549.554
549.477
549.402
549.33
549.261
549.197
549.136
549.079
549.026
548.977
548.932
548.89
548.85
548.811
548.772
548.731
548.687
548.637
548.58
548.511
548.428
548.327
548.207
548.062
547.89
547.69
547.46
547.199
546.912
546.605
546.28
545.94
545.592
545.239
544.875
544.761
544.637
544.51
544.381
544.252
544.123
543.993
543.864
543.735
543.606
543.477
543.349
543.222
543.095
542.968
542.842
542.716
542.591
542.466
542.341
542.217
542.092
541.968
541.845
541.721
541.597
541.474
541.351
541.227
541.104
540.981
540.858
540.735
540.612
552.462
552.287
552.112
551.938
551.77
551.612
551.466
551.331
551.208
551.1
551.004
550.922
550.847
550.779
550.718
550.662
550.612
550.568
550.528
550.491
550.458
550.429
550.404
550.383
550.365
550.349
550.336
550.327
550.32
550.314
550.309
550.305
550.301
550.297
550.293
550.287
550.28
550.269
550.255
550.237
550.212
550.181
550.143
550.096
550.042
549.98
549.913
549.84
549.764
549.685
549.605
549.525
549.446
549.368
549.293
549.222
549.154
549.09
549.031
548.977
548.927
548.881
548.838
548.798
548.76
548.721
548.681
548.638
548.59
548.535
548.468
548.389
548.293
548.177
548.038
547.872
547.678
547.455
547.202
546.923
546.621
546.297
545.959
545.61
545.249
544.872
544.765
544.643
544.516
544.386
544.255
544.125
543.994
543.864
543.734
543.604
543.475
543.347
543.22
543.092
542.966
542.84
542.714
542.589
542.464
542.339
542.215
542.091
541.967
541.843
541.72
541.596
541.473
541.35
541.227
541.104
540.98
540.857
540.734
540.611
552.452
552.255
552.058
551.864
551.676
551.5
551.339
551.192
551.061
550.946
550.847
550.762
550.686
550.62
550.56
550.507
550.459
550.418
550.381
550.348
550.319
550.295
550.274
550.258
550.245
550.235
550.227
550.222
550.22
550.22
550.219
550.22
550.22
550.22
550.219
550.216
550.212
550.204
550.193
550.177
550.155
550.126
550.09
550.045
549.992
549.932
549.867
549.795
549.719
549.641
549.56
549.479
549.398
549.319
549.242
549.168
549.098
549.033
548.972
548.917
548.866
548.819
548.776
548.737
548.699
548.661
548.622
548.58
548.533
548.48
548.415
548.339
548.246
548.135
548.001
547.842
547.654
547.438
547.194
546.921
546.624
546.307
545.974
545.627
545.269
544.895
544.783
544.656
544.524
544.391
544.259
544.126
543.994
543.863
543.732
543.602
543.473
543.344
543.217
543.09
542.963
542.837
542.711
542.586
542.461
542.337
542.213
542.089
541.965
541.842
541.718
541.595
541.472
541.349
541.226
541.103
540.98
540.857
540.734
540.611
552.439
552.217
551.997
551.781
551.574
551.38
551.202
551.042
550.902
550.781
550.678
550.592
550.516
550.45
550.393
550.342
550.297
550.259
550.225
550.196
550.171
550.151
550.135
550.124
550.117
550.111
550.109
550.11
550.113
550.117
550.122
550.126
550.13
550.134
550.136
550.136
550.134
550.129
550.119
550.105
550.086
550.059
550.024
549.981
549.929
549.87
549.805
549.733
549.658
549.579
549.498
549.416
549.334
549.254
549.175
549.1
549.029
548.962
548.901
548.845
548.794
548.748
548.705
548.666
548.629
548.592
548.554
548.513
548.468
548.415
548.353
548.278
548.188
548.081
547.951
547.797
547.616
547.409
547.173
546.909
546.619
546.309
545.981
545.642
545.301
544.986
544.815
544.672
544.533
544.397
544.261
544.127
543.993
543.861
543.729
543.599
543.47
543.341
543.213
543.086
542.959
542.834
542.708
542.583
542.459
542.334
542.21
542.087
541.963
541.84
541.717
541.594
541.471
541.348
541.225
541.102
540.979
540.857
540.734
540.611
552.426
552.177
551.931
551.692
551.464
551.252
551.059
550.887
550.738
550.611
550.504
550.416
550.34
550.275
550.219
550.17
550.128
550.093
550.063
550.038
550.017
550
549.989
549.984
549.982
549.981
549.984
549.99
549.999
550.007
550.016
550.025
550.032
550.039
550.044
550.047
550.047
550.043
550.036
550.023
550.005
549.979
549.945
549.902
549.851
549.792
549.727
549.655
549.579
549.5
549.419
549.336
549.254
549.173
549.094
549.018
548.947
548.881
548.819
548.764
548.713
548.668
548.626
548.588
548.552
548.516
548.479
548.438
548.393
548.342
548.28
548.207
548.12
548.015
547.89
547.741
547.566
547.364
547.134
546.877
546.596
546.292
545.973
545.641
545.301
544.932
544.82
544.682
544.541
544.401
544.262
544.126
543.991
543.858
543.726
543.595
543.465
543.337
543.209
543.082
542.955
542.83
542.704
542.58
542.455
542.331
542.208
542.084
541.961
541.838
541.715
541.592
541.469
541.347
541.224
541.101
540.979
540.856
540.734
540.611
552.412
552.135
551.863
551.601
551.353
551.124
550.916
550.732
550.572
550.438
550.328
550.239
550.163
550.098
550.043
549.996
549.957
549.925
549.898
549.876
549.859
549.847
549.841
549.841
549.843
549.848
549.856
549.867
549.879
549.892
549.905
549.917
549.927
549.937
549.944
549.949
549.95
549.948
549.941
549.929
549.911
549.885
549.852
549.809
549.757
549.698
549.632
549.56
549.483
549.404
549.323
549.24
549.158
549.077
548.999
548.924
548.854
548.788
548.728
548.674
548.624
548.58
548.54
548.502
548.467
548.432
548.395
548.356
548.312
548.26
548.2
548.127
548.042
547.939
547.816
547.671
547.501
547.305
547.081
546.832
546.558
546.263
545.954
545.637
545.323
545.036
544.852
544.695
544.546
544.402
544.262
544.124
543.988
543.853
543.721
543.59
543.46
543.331
543.204
543.077
542.951
542.825
542.7
542.576
542.452
542.328
542.204
542.081
541.958
541.836
541.713
541.59
541.468
541.345
541.223
541.1
540.978
540.856
540.733
540.611
552.398
552.095
551.799
551.515
551.247
551
550.777
550.581
550.412
550.271
550.156
550.062
549.986
549.923
549.868
549.823
549.786
549.756
549.733
549.714
549.701
549.693
549.692
549.695
549.702
549.712
549.724
549.74
549.756
549.772
549.788
549.803
549.816
549.827
549.836
549.842
549.844
549.842
549.835
549.823
549.804
549.778
549.744
549.7
549.648
549.588
549.522
549.449
549.372
549.292
549.211
549.129
549.048
548.969
548.892
548.819
548.751
548.687
548.629
548.576
548.528
548.484
548.446
548.41
548.376
548.341
548.305
548.266
548.222
548.171
548.111
548.039
547.955
547.854
547.733
547.592
547.426
547.235
547.017
546.775
546.51
546.226
545.928
545.622
545.319
545.038
544.856
544.698
544.547
544.401
544.258
544.119
543.982
543.847
543.714
543.583
543.453
543.325
543.197
543.071
542.945
542.82
542.695
542.571
542.447
542.324
542.201
542.078
541.955
541.833
541.711
541.588
541.466
541.344
541.222
541.099
540.977
540.855
540.733
540.611
552.385
552.058
551.739
551.434
551.147
550.883
550.646
550.438
550.26
550.111
549.99
549.892
549.814
549.751
549.697
549.653
549.618
549.59
549.57
549.554
549.545
549.541
549.543
549.551
549.562
549.575
549.591
549.61
549.629
549.648
549.666
549.683
549.697
549.709
549.719
549.725
549.727
549.724
549.717
549.704
549.685
549.657
549.621
549.576
549.523
549.463
549.396
549.322
549.245
549.167
549.086
549.006
548.926
548.849
548.775
548.705
548.64
548.579
548.522
548.471
548.425
548.383
548.346
548.311
548.278
548.244
548.208
548.17
548.126
548.074
548.014
547.943
547.86
547.76
547.641
547.502
547.34
547.153
546.942
546.708
546.452
546.179
545.893
545.597
545.289
544.941
544.836
544.692
544.543
544.396
544.252
544.112
543.974
543.839
543.706
543.575
543.446
543.318
543.19
543.064
542.939
542.814
542.69
542.566
542.443
542.32
542.197
542.075
541.952
541.83
541.708
541.586
541.464
541.342
541.22
541.098
540.977
540.855
540.733
540.611
552.374
552.025
551.685
551.361
551.058
550.779
550.528
550.307
550.117
549.96
549.832
549.73
549.648
549.584
549.531
549.488
549.454
549.429
549.41
549.398
549.392
549.391
549.397
549.407
549.421
549.438
549.457
549.477
549.498
549.519
549.539
549.556
549.571
549.584
549.593
549.598
549.599
549.595
549.587
549.573
549.551
549.522
549.484
549.437
549.384
549.322
549.255
549.182
549.106
549.029
548.95
548.872
548.795
548.721
548.65
548.584
548.522
548.464
548.41
548.361
548.317
548.277
548.24
548.207
548.174
548.14
548.105
548.066
548.022
547.97
547.91
547.839
547.755
547.656
547.539
547.402
547.243
547.061
546.855
546.628
546.382
546.12
545.847
545.57
545.294
545.036
544.855
544.692
544.537
544.387
544.242
544.101
543.964
543.829
543.696
543.566
543.437
543.309
543.182
543.057
542.932
542.808
542.684
542.561
542.438
542.315
542.193
542.071
541.949
541.827
541.706
541.584
541.462
541.341
541.219
541.097
540.976
540.854
540.732
540.611
552.366
552.002
551.646
551.304
550.984
550.69
550.425
550.192
549.992
549.824
549.688
549.579
549.492
549.425
549.371
549.329
549.297
549.273
549.257
549.247
549.243
549.245
549.253
549.266
549.282
549.301
549.321
549.343
549.365
549.386
549.406
549.423
549.438
549.45
549.457
549.461
549.46
549.455
549.444
549.428
549.404
549.372
549.332
549.285
549.23
549.169
549.102
549.03
548.956
548.881
548.805
548.73
548.657
548.587
548.52
548.457
548.399
548.344
548.294
548.247
548.204
548.166
548.13
548.097
548.065
548.032
547.996
547.957
547.912
547.86
547.799
547.728
547.644
547.545
547.429
547.294
547.138
546.96
546.76
546.539
546.302
546.051
545.793
545.534
545.282
545.051
544.857
544.685
544.525
544.374
544.228
544.088
543.951
543.816
543.685
543.555
543.426
543.299
543.173
543.048
542.924
542.801
542.678
542.555
542.433
542.311
542.189
542.067
541.946
541.824
541.703
541.581
541.46
541.339
541.217
541.096
540.975
540.853
540.732
540.611
552.359
551.982
551.613
551.259
550.925
550.617
550.339
550.093
549.881
549.702
549.556
549.441
549.349
549.277
549.221
549.179
549.147
549.124
549.109
549.101
549.099
549.103
549.112
549.127
549.145
549.164
549.185
549.207
549.228
549.248
549.268
549.284
549.297
549.307
549.312
549.313
549.31
549.303
549.29
549.271
549.244
549.21
549.168
549.12
549.065
549.004
548.938
548.869
548.797
548.725
548.653
548.582
548.513
548.447
548.385
548.327
548.272
548.221
548.174
548.13
548.089
548.052
548.017
547.984
547.951
547.917
547.882
547.841
547.795
547.743
547.681
547.61
547.525
547.428
547.313
547.18
547.026
546.852
546.657
546.443
546.214
545.973
545.726
545.482
545.247
545.029
544.837
544.664
544.505
544.354
544.21
544.07
543.935
543.802
543.671
543.542
543.415
543.289
543.164
543.039
542.916
542.793
542.671
542.549
542.427
542.305
542.184
542.063
541.942
541.821
541.7
541.579
541.458
541.337
541.216
541.095
540.974
540.853
540.732
540.611
552.355
551.969
551.591
551.225
550.88
550.561
550.269
550.009
549.784
549.594
549.438
549.314
549.215
549.14
549.081
549.037
549.005
548.983
548.968
548.961
548.96
548.965
548.975
548.99
549.008
549.028
549.048
549.068
549.088
549.106
549.122
549.136
549.147
549.155
549.158
549.156
549.15
549.14
549.123
549.101
549.073
549.037
548.994
548.945
548.89
548.831
548.767
548.701
548.633
548.565
548.497
548.431
548.367
548.306
548.249
548.195
548.144
548.097
548.052
548.011
547.972
547.936
547.901
547.867
547.833
547.798
547.762
547.721
547.674
547.62
547.558
547.485
547.4
547.302
547.19
547.06
546.91
546.739
546.549
546.342
546.119
545.885
545.647
545.412
545.188
544.981
544.797
544.63
544.475
544.328
544.187
544.05
543.916
543.785
543.655
543.528
543.402
543.277
543.153
543.03
542.907
542.785
542.663
542.542
542.421
542.3
542.179
542.059
541.938
541.817
541.697
541.576
541.456
541.335
541.214
541.094
540.973
540.852
540.731
540.61
552.351
551.958
551.574
551.205
550.853
550.521
550.216
549.942
549.703
549.5
549.333
549.199
549.094
549.012
548.95
548.904
548.871
548.848
548.834
548.827
548.826
548.831
548.841
548.855
548.872
548.89
548.908
548.926
548.943
548.958
548.971
548.982
548.99
548.994
548.994
548.989
548.98
548.967
548.948
548.923
548.892
548.855
548.812
548.763
548.71
548.652
548.592
548.529
548.465
548.402
548.34
548.279
548.22
548.164
548.111
548.062
548.015
547.971
547.93
547.891
547.854
547.818
547.783
547.749
547.713
547.677
547.639
547.597
547.548
547.492
547.429
547.355
547.269
547.17
547.057
546.929
546.782
546.617
546.432
546.231
546.013
545.785
545.55
545.32
545.103
544.911
544.741
544.585
544.438
544.297
544.16
544.026
543.895
543.766
543.638
543.512
543.388
543.264
543.141
543.019
542.897
542.776
542.655
542.535
542.415
542.294
542.174
542.054
541.934
541.814
541.694
541.574
541.453
541.333
541.213
541.092
540.972
540.851
540.731
540.61
552.351
551.958
551.574
551.199
550.837
550.494
550.176
549.889
549.636
549.42
549.242
549.098
548.985
548.897
548.831
548.781
548.746
548.722
548.707
548.699
548.697
548.701
548.71
548.722
548.736
548.751
548.767
548.782
548.795
548.806
548.815
548.821
548.825
548.826
548.823
548.815
548.803
548.787
548.765
548.738
548.706
548.668
548.625
548.578
548.526
548.471
548.414
548.356
548.297
548.239
548.182
548.127
548.073
548.023
547.975
547.93
547.887
547.846
547.807
547.771
547.734
547.7
547.664
547.629
547.592
547.554
547.514
547.47
547.419
547.361
547.296
547.221
547.135
547.036
546.923
546.797
546.653
546.492
546.312
546.116
545.903
545.676
545.44
545.204
544.987
544.817
544.67
544.531
544.395
544.261
544.13
544
543.871
543.745
543.62
543.496
543.373
543.25
543.129
543.008
542.887
542.767
542.647
542.528
542.408
542.288
542.169
542.049
541.93
541.81
541.691
541.571
541.451
541.331
541.211
541.091
540.971
540.851
540.73
540.61
552.353
551.959
551.571
551.192
550.826
550.475
550.147
549.848
549.582
549.353
549.162
549.007
548.885
548.79
548.719
548.666
548.629
548.603
548.586
548.577
548.573
548.575
548.581
548.591
548.601
548.613
548.624
548.635
548.644
548.65
548.654
548.657
548.657
548.654
548.647
548.636
548.621
548.603
548.579
548.551
548.518
548.48
548.438
548.393
548.344
548.293
548.239
548.186
548.132
548.079
548.028
547.978
547.93
547.885
547.842
547.8
547.761
547.723
547.686
547.651
547.616
547.581
547.545
547.509
547.47
547.43
547.387
547.34
547.287
547.227
547.16
547.084
546.998
546.901
546.79
546.665
546.525
546.369
546.195
546.003
545.794
545.568
545.325
545.066
544.815
544.701
544.592
544.474
544.351
544.225
544.098
543.972
543.847
543.723
543.6
543.478
543.357
543.236
543.116
542.996
542.877
542.758
542.639
542.52
542.401
542.282
542.164
542.045
541.926
541.807
541.687
541.568
541.449
541.329
541.209
541.09
540.97
540.85
540.73
540.61
552.352
551.956
551.565
551.183
550.814
550.459
550.125
549.817
549.54
549.299
549.096
548.931
548.799
548.696
548.619
548.561
548.519
548.491
548.472
548.46
548.454
548.453
548.456
548.462
548.468
548.475
548.482
548.488
548.491
548.492
548.493
548.491
548.486
548.48
548.47
548.456
548.439
548.419
548.394
548.365
548.332
548.295
548.255
548.211
548.166
548.118
548.07
548.021
547.973
547.925
547.879
547.835
547.792
547.752
547.713
547.675
547.639
547.603
547.568
547.533
547.499
547.463
547.427
547.389
547.348
547.305
547.26
547.21
547.153
547.092
547.023
546.947
546.861
546.766
546.659
546.538
546.403
546.251
546.084
545.899
545.697
545.474
545.226
544.93
544.506
544.581
544.523
544.424
544.309
544.188
544.066
543.943
543.821
543.7
543.579
543.459
543.34
543.221
543.102
542.984
542.866
542.748
542.63
542.512
542.394
542.276
542.158
542.04
541.922
541.803
541.684
541.565
541.446
541.327
541.208
541.088
540.969
540.849
540.73
540.61
552.349
551.947
551.552
551.168
550.797
550.442
550.105
549.792
549.507
549.255
549.041
548.865
548.723
548.612
548.527
548.464
548.419
548.387
548.365
548.35
548.341
548.336
548.335
548.336
548.337
548.339
548.341
548.341
548.34
548.336
548.332
548.326
548.317
548.307
548.294
548.278
548.26
548.238
548.212
548.183
548.151
548.115
548.077
548.037
547.995
547.951
547.908
547.864
547.821
547.779
547.738
547.699
547.662
547.626
547.591
547.556
547.522
547.488
547.454
547.419
547.384
547.347
547.309
547.269
547.225
547.18
547.132
547.079
547.021
546.958
546.888
546.813
546.729
546.637
546.534
546.418
546.289
546.144
545.983
545.807
545.614
545.404
545.176
544.933
544.694
544.593
544.496
544.388
544.273
544.154
544.035
543.915
543.795
543.676
543.558
543.44
543.323
543.206
543.089
542.972
542.855
542.739
542.622
542.505
542.388
542.27
542.153
542.035
541.917
541.799
541.681
541.563
541.444
541.325
541.206
541.087
540.968
540.848
540.729
540.61
552.344
551.935
551.535
551.148
550.777
550.422
550.085
549.771
549.481
549.221
548.996
548.809
548.658
548.538
548.446
548.377
548.326
548.29
548.264
548.246
548.233
548.225
548.219
548.214
548.21
548.207
548.203
548.198
548.191
548.184
548.175
548.164
548.151
548.139
548.123
548.106
548.086
548.064
548.039
548.01
547.979
547.946
547.91
547.872
547.834
547.795
547.756
547.718
547.681
547.644
547.609
547.575
547.542
547.509
547.477
547.445
547.413
547.379
547.344
547.308
547.272
547.233
547.193
547.15
547.104
547.056
547.005
546.951
546.891
546.829
546.761
546.688
546.609
546.521
546.423
546.313
546.189
546.05
545.895
545.725
545.541
545.346
545.14
544.932
544.742
544.601
544.478
544.36
544.241
544.122
544.004
543.886
543.768
543.652
543.536
543.42
543.305
543.19
543.075
542.96
542.844
542.729
542.613
542.497
542.381
542.264
542.148
542.031
541.913
541.796
541.678
541.56
541.442
541.323
541.205
541.086
540.967
540.848
540.729
540.61
552.338
551.919
551.512
551.122
550.75
550.397
550.062
549.749
549.458
549.194
548.962
548.765
548.604
548.475
548.375
548.299
548.242
548.202
548.172
548.149
548.132
548.119
548.109
548.099
548.09
548.081
548.072
548.061
548.05
548.037
548.024
548.009
547.993
547.978
547.961
547.943
547.923
547.901
547.876
547.849
547.82
547.789
547.756
547.722
547.687
547.653
547.619
547.587
547.555
547.525
547.494
547.465
547.435
547.405
547.374
547.343
547.31
547.275
547.238
547.2
547.161
547.12
547.078
547.033
546.985
546.936
546.884
546.83
546.772
546.712
546.65
546.583
546.51
546.428
546.335
546.227
546.103
545.963
545.808
545.642
545.466
545.284
545.098
544.909
544.735
544.587
544.454
544.329
544.208
544.089
543.972
543.856
543.741
543.627
543.514
543.401
543.287
543.174
543.061
542.947
542.833
542.719
542.605
542.49
542.374
542.259
542.143
542.026
541.909
541.792
541.675
541.557
541.439
541.321
541.203
541.085
540.966
540.847
540.728
540.609
552.331
551.899
551.484
551.091
550.72
550.368
550.034
549.722
549.433
549.169
548.932
548.728
548.559
548.422
548.313
548.23
548.167
548.121
548.087
548.06
548.039
548.022
548.007
547.992
547.978
547.964
547.95
547.934
547.917
547.9
547.881
547.862
547.843
547.826
547.809
547.791
547.772
547.752
547.729
547.704
547.678
547.649
547.62
547.59
547.56
547.53
547.502
547.475
547.449
547.424
547.399
547.373
547.345
547.314
547.282
547.248
547.213
547.174
547.133
547.092
547.05
547.008
546.964
546.919
546.872
546.824
546.775
546.726
546.676
546.626
546.574
546.518
546.452
546.373
546.275
546.155
546.014
545.859
545.694
545.524
545.358
545.196
545.039
544.866
544.7
544.551
544.418
544.292
544.172
544.054
543.939
543.826
543.714
543.602
543.491
543.381
543.27
543.159
543.047
542.935
542.823
542.71
542.596
542.482
542.368
542.253
542.138
542.022
541.906
541.789
541.672
541.555
541.437
541.32
541.202
541.083
540.965
540.847
540.728
540.609
552.327
551.886
551.463
551.065
550.69
550.336
550.001
549.691
549.407
549.147
548.911
548.701
548.525
548.379
548.262
548.17
548.1
548.049
548.011
547.98
547.955
547.934
547.915
547.897
547.878
547.86
547.841
547.819
547.796
547.772
547.747
547.723
547.703
547.686
547.67
547.654
547.637
547.619
547.6
547.579
547.556
547.532
547.507
547.482
547.457
547.433
547.41
547.389
547.369
547.35
547.329
547.303
547.272
547.236
547.197
547.157
547.116
547.071
547.025
546.98
546.937
546.896
546.854
546.812
546.77
546.731
546.695
546.66
546.628
546.597
546.565
546.523
546.461
546.368
546.238
546.065
545.864
545.676
545.5
545.319
545.153
545.032
544.941
544.803
544.645
544.499
544.369
544.247
544.131
544.016
543.904
543.794
543.685
543.577
543.469
543.361
543.252
543.143
543.034
542.923
542.813
542.701
542.589
542.476
542.362
542.248
542.133
542.018
541.902
541.786
541.67
541.553
541.436
541.318
541.2
541.082
540.964
540.846
540.728
540.609
552.324
551.877
551.445
551.038
550.658
550.299
549.962
549.651
549.372
549.12
548.89
548.681
548.499
548.347
548.221
548.12
548.041
547.983
547.941
547.908
547.88
547.857
547.836
547.816
547.795
547.774
547.75
547.723
547.691
547.655
547.62
547.591
547.573
547.559
547.547
547.535
547.521
547.507
547.491
547.475
547.459
547.443
547.425
547.407
547.388
547.368
547.35
547.334
547.321
547.307
547.285
547.254
547.213
547.167
547.117
547.064
547.014
546.96
546.908
546.863
546.825
546.789
546.756
546.726
546.701
546.691
546.688
546.672
546.662
546.656
546.645
546.616
546.549
546.396
546.164
545.873
545.534
545.308
545.23
545.01
544.738
544.68
544.663
544.659
544.556
544.431
544.308
544.194
544.084
543.975
543.868
543.761
543.656
543.551
543.446
543.341
543.235
543.128
543.021
542.912
542.803
542.692
542.581
542.469
542.356
542.243
542.129
542.014
541.899
541.783
541.667
541.551
541.434
541.317
541.199
541.081
540.963
540.845
540.727
540.609
552.322
551.869
551.426
551.007
550.619
550.258
549.917
549.605
549.33
549.088
548.869
548.665
548.483
548.326
548.192
548.08
547.991
547.923
547.877
547.843
547.815
547.793
547.774
547.756
547.736
547.713
547.685
547.65
547.604
547.548
547.497
547.467
547.459
547.457
547.451
547.442
547.431
547.418
547.406
547.397
547.39
547.385
547.378
547.368
547.352
547.333
547.317
547.308
547.304
547.296
547.268
547.218
547.16
547.105
547.044
546.968
546.895
546.822
546.771
546.745
546.73
546.713
546.71
546.715
546.728
546.797
546.861
546.826
546.809
546.794
546.741
546.682
546.677
546.347
545.824
545.517
545.095
544.484
544.953
544.671
543.988
544.282
544.07
543.991
544.372
544.34
544.237
544.135
544.033
543.931
543.829
543.727
543.627
543.526
543.424
543.322
543.219
543.114
543.009
542.902
542.794
542.685
542.575
542.463
542.351
542.239
542.125
542.011
541.896
541.781
541.665
541.549
541.432
541.315
541.198
541.081
540.963
540.845
540.727
540.609
552.316
551.85
551.393
550.958
550.565
550.209
549.874
549.567
549.299
549.067
548.858
548.66
548.475
548.312
548.169
548.044
547.945
547.863
547.813
547.783
547.756
547.743
547.73
547.72
547.707
547.688
547.655
547.606
547.539
547.446
547.374
547.357
547.387
547.41
547.405
547.39
547.378
547.363
547.346
547.34
547.346
547.352
547.358
547.352
547.332
547.308
547.295
547.3
547.308
547.312
547.26
547.177
547.118
547.093
547
546.858
546.715
546.548
546.548
546.635
546.721
546.77
546.862
546.913
546.977
547.312
547.545
547.272
547.051
546.857
546.456
546.192
546.54
546.208
545.641
545.433
545.206
544.811
544.786
544.568
544.204
544.048
544.198
544.027
544.326
544.251
544.161
544.072
543.979
543.884
543.789
543.693
543.597
543.5
543.403
543.304
543.204
543.102
542.998
542.893
542.786
542.678
542.569
542.458
542.347
542.235
542.122
542.008
541.894
541.779
541.663
541.547
541.431
541.314
541.197
541.08
540.962
540.845
540.727
540.609
552.303
551.815
551.337
550.891
550.5
550.159
549.843
549.551
549.295
549.071
548.863
548.657
548.462
548.289
548.136
547.993
547.898
547.795
547.741
547.719
547.674
547.657
547.641
547.625
547.615
547.592
547.565
547.516
547.461
547.395
547.321
547.282
547.302
547.347
547.371
547.374
547.371
547.367
547.327
547.304
547.308
547.31
547.335
547.313
547.277
547.268
547.276
547.332
547.322
547.291
547.165
547.09
547.165
547.252
546.972
546.605
546.509
546.318
546.241
546.468
546.886
547.136
547.351
547.227
547.12
547.473
547.651
547.474
547.292
546.966
546.655
546.584
546.604
546.388
545.977
545.637
545.365
545.03
544.766
544.579
544.295
544.085
544.229
544.158
544.211
544.179
544.088
544.008
543.926
543.837
543.748
543.659
543.568
543.476
543.383
543.287
543.19
543.09
542.988
542.885
542.779
542.672
542.564
542.454
542.343
542.232
542.119
542.006
541.892
541.777
541.662
541.546
541.43
541.313
541.196
541.079
540.962
540.844
540.727
540.609
552.287
551.773
551.265
550.824
550.463
550.132
549.827
549.565
549.331
549.106
548.872
548.627
548.411
548.232
548.072
547.929
547.785
547.673
547.643
547.633
547.62
547.635
547.623
547.606
547.638
547.648
547.6
547.513
547.457
547.423
547.379
547.391
547.494
547.569
547.615
547.616
547.619
547.69
547.564
547.404
547.326
547.264
547.417
547.373
547.262
547.299
547.252
547.411
547.272
546.973
546.842
547.22
547.789
547.986
547.105
546.343
546.413
546.279
546.199
546.202
546.597
546.845
547.075
547.162
547.002
547.099
547.161
547.163
547.086
546.981
546.871
546.789
546.683
546.517
546.223
545.931
545.578
545.261
544.88
544.611
544.375
544.182
544.292
544.276
544.194
544.111
544.009
543.959
543.868
543.788
543.708
543.626
543.54
543.453
543.364
543.273
543.178
543.081
542.981
542.878
542.774
542.668
542.56
542.451
542.341
542.229
542.117
542.004
541.89
541.776
541.661
541.545
541.429
541.313
541.196
541.079
540.961
540.844
540.726
540.609
552.284
551.804
551.208
550.818
550.537
550.139
549.803
549.615
549.402
549.119
548.787
548.476
548.248
548.106
548.058
547.842
547.518
547.427
547.527
547.672
547.721
547.72
547.617
547.654
547.816
547.815
547.64
547.366
547.186
547.242
547.37
547.722
548.159
548.04
547.82
547.732
547.871
548.389
548.011
547.225
547.085
546.867
547.196
547.443
547.302
547.421
547.237
547.4
547.164
546.736
546.666
547.045
547.735
548
547.424
546.83
546.711
546.515
546.422
546.326
546.447
546.549
546.65
546.771
546.734
546.756
546.778
546.817
546.816
546.82
546.791
546.74
546.638
546.517
546.33
546.074
545.717
545.351
544.972
544.664
544.494
544.36
544.337
544.275
544.186
544.109
544.018
543.905
543.837
543.736
543.669
543.597
543.514
543.431
543.348
543.261
543.17
543.074
542.975
542.874
542.77
542.665
542.557
542.449
542.339
542.228
542.116
542.003
541.889
541.775
541.66
541.544
541.428
541.312
541.195
541.078
540.961