0 	-15.2157
0.010101 	-9.58692
0.020202 	-9.26979
0.030303 	-8.64337
0.040404 	-9.78223
0.0505051 	-8.37307
0.0606061 	-9.40381
0.0707071 	-9.59361
0.0808081 	-9.60353
0.0909091 	-9.60413
