/*--------------------------------*- C++ -*----------------------------------*\
  =========                 |
  \\      /  F ield         | OpenFOAM: The Open Source CFD Toolbox
   \\    /   O peration     | Website:  https://openfoam.org
    \\  /    A nd           | Version:  6
     \\/     M anipulation  |
\*---------------------------------------------------------------------------*/
FoamFile
{
    version     2.0;
    format      ascii;
    class       surfaceScalarField;
    location    "5300";
    object      phi;
}
// * * * * * * * * * * * * * * * * * * * * * * * * * * * * * * * * * * * * * //

dimensions      [0 3 -1 0 0 0 0];

internalField   nonuniform List<scalar> 
9440
(
-5.36134e-14
5.36136e-14
-1.07203e-13
5.30426e-14
-1.59538e-13
5.18973e-14
-2.10054e-13
5.00927e-14
-2.58193e-13
4.77173e-14
-3.03301e-13
4.46848e-14
-3.44887e-13
4.1155e-14
-3.82459e-13
3.71392e-14
-4.15557e-13
3.26597e-14
-4.43697e-13
2.76987e-14
-4.66537e-13
2.23946e-14
-4.83642e-13
1.66544e-14
-4.94583e-13
1.04856e-14
-4.99405e-13
4.36252e-15
-4.97914e-13
-1.95628e-15
-4.90034e-13
-8.34762e-15
-4.75143e-13
-1.53648e-14
-4.51567e-13
-2.40538e-14
-4.20945e-13
-3.11034e-14
-3.83612e-13
-3.78213e-14
-3.38983e-13
-4.51224e-14
-2.83501e-13
-5.59826e-14
-2.21907e-13
-6.21002e-14
-1.51808e-13
-7.06155e-14
-7.3219e-14
-7.91147e-14
1.35067e-14
-8.72631e-14
1.08426e-13
-9.54733e-14
2.11564e-13
-1.03705e-13
3.22649e-13
-1.11668e-13
4.41651e-13
-1.19605e-13
5.68279e-13
-1.27248e-13
7.02159e-13
-1.34521e-13
8.42915e-13
-1.41418e-13
9.9001e-13
-1.47778e-13
1.14298e-12
-1.5367e-13
1.30104e-12
-1.58786e-13
1.4635e-12
-1.63209e-13
1.62941e-12
-1.66674e-13
1.79792e-12
-1.69298e-13
1.96792e-12
-1.70801e-13
2.13835e-12
-1.71255e-13
2.30792e-12
-1.70407e-13
2.4754e-12
-1.68336e-13
2.63954e-12
-1.65002e-13
2.79884e-12
-1.6018e-13
2.95202e-12
-1.54077e-13
3.09762e-12
-1.46498e-13
3.23427e-12
-1.37554e-13
3.36052e-12
-1.27173e-13
3.47518e-12
-1.15584e-13
3.57689e-12
-1.02643e-13
3.66453e-12
-8.85869e-14
3.73697e-12
-7.33931e-14
3.79323e-12
-5.72222e-14
3.8325e-12
-4.02486e-14
3.8542e-12
-2.26849e-14
3.85766e-12
-4.47381e-15
3.84265e-12
1.39932e-14
3.80877e-12
3.28411e-14
3.75618e-12
5.15283e-14
3.68494e-12
7.01692e-14
3.59534e-12
8.85081e-14
3.48778e-12
1.06445e-13
3.36286e-12
1.23778e-13
3.2213e-12
1.40405e-13
3.064e-12
1.56132e-13
2.89181e-12
1.70998e-13
2.70575e-12
1.84857e-13
2.50701e-12
1.97524e-13
2.29684e-12
2.08937e-13
2.07647e-12
2.19129e-13
1.84737e-12
2.27847e-13
1.61123e-12
2.34892e-13
1.37072e-12
2.39247e-13
1.13072e-12
2.38736e-13
9.0442e-13
2.25034e-13
7.30934e-13
1.72219e-13
3.59323e-13
3.70342e-13
7.84612e-16
3.57269e-13
7.91365e-21
4.98628e-21
7.76573e-21
1.476e-22
7.55997e-21
1.90096e-22
7.249e-21
2.01625e-22
6.92397e-21
2.05037e-22
6.59873e-21
2.05658e-22
6.2768e-21
2.04572e-22
5.96082e-21
2.02452e-22
5.65218e-21
1.99351e-22
5.35253e-21
1.95473e-22
5.06291e-21
1.9113e-22
4.78359e-21
1.86374e-22
4.51501e-21
1.81256e-22
4.25724e-21
1.75879e-22
4.00997e-21
1.70399e-22
3.77324e-21
1.64816e-22
3.54654e-21
1.59387e-22
3.32956e-21
1.53752e-22
3.12168e-21
1.48427e-22
2.92238e-21
1.43102e-22
2.73145e-21
1.37881e-22
2.54834e-21
1.32814e-22
2.37246e-21
1.28006e-22
2.20335e-21
1.2325e-22
2.04081e-21
1.18856e-22
1.88416e-21
1.14668e-22
1.73284e-21
1.10635e-22
1.58669e-21
1.06913e-22
1.44529e-21
1.03398e-22
1.30808e-21
1.00089e-22
1.17496e-21
9.71937e-23
1.04535e-21
9.45054e-23
9.18998e-22
9.20756e-23
7.95386e-22
8.99559e-23
6.74307e-22
8.79913e-23
5.554e-22
8.6337e-23
4.38509e-22
8.48377e-23
3.23376e-22
8.34419e-23
2.10311e-22
8.16324e-23
1.00606e-22
7.84271e-23
6.95349e-23
-5.35194e-14
1.06585e-13
-1.08362e-13
1.07009e-13
-1.61907e-13
1.04677e-13
-2.13385e-13
1.00813e-13
-2.62177e-13
9.57494e-14
-3.07905e-13
8.96445e-14
-3.50014e-13
8.24923e-14
-3.88031e-13
7.4373e-14
-4.21456e-13
6.52946e-14
-4.49957e-13
5.5403e-14
-4.73008e-13
4.46388e-14
-4.90267e-13
3.30965e-14
-5.01407e-13
2.08041e-14
-5.06395e-13
8.51881e-15
-5.05052e-13
-4.13612e-15
-4.97678e-13
-1.65673e-14
-4.82518e-13
-3.13785e-14
-4.59111e-13
-4.83232e-14
-4.28758e-13
-6.23298e-14
-3.91769e-13
-7.56951e-14
-3.46716e-13
-9.10705e-14
-2.91823e-13
-1.11785e-13
-2.30132e-13
-1.24718e-13
-1.60165e-13
-1.41529e-13
-8.14629e-14
-1.58785e-13
5.28339e-15
-1.75003e-13
1.00241e-13
-1.91451e-13
2.03495e-13
-2.08007e-13
3.14802e-13
-2.24058e-13
4.34081e-13
-2.39997e-13
5.61015e-13
-2.55333e-13
6.95295e-13
-2.69987e-13
8.36566e-13
-2.83913e-13
9.84271e-13
-2.96745e-13
1.1378e-12
-3.08498e-13
1.2967e-12
-3.19024e-13
1.45997e-12
-3.27853e-13
1.62685e-12
-3.34962e-13
1.7964e-12
-3.40284e-13
1.96753e-12
-3.43409e-13
2.1391e-12
-3.44315e-13
2.30998e-12
-3.42809e-13
2.4788e-12
-3.38705e-13
2.64425e-12
-3.32021e-13
2.80499e-12
-3.22512e-13
2.95958e-12
-3.10269e-13
3.10663e-12
-2.9516e-13
3.24461e-12
-2.77174e-13
3.37227e-12
-2.56484e-13
3.48816e-12
-2.33145e-13
3.59105e-12
-2.07224e-13
3.67972e-12
-1.78958e-13
3.75308e-12
-1.48476e-13
3.81024e-12
-1.16126e-13
3.8502e-12
-8.19857e-14
3.87237e-12
-4.66463e-14
3.87622e-12
-1.01585e-14
3.86132e-12
2.70339e-14
3.82754e-12
6.47305e-14
3.77481e-12
1.02323e-13
3.70329e-12
1.39729e-13
3.61329e-12
1.76506e-13
3.50515e-12
2.12546e-13
3.37953e-12
2.47326e-13
3.23719e-12
2.80644e-13
3.07891e-12
3.12276e-13
2.90561e-12
3.42137e-13
2.71844e-12
3.69836e-13
2.51857e-12
3.95191e-13
2.30708e-12
4.18204e-13
2.08525e-12
4.38719e-13
1.8544e-12
4.56444e-13
1.61592e-12
4.71113e-13
1.37077e-12
4.82131e-13
1.11893e-12
4.8832e-13
8.54027e-13
4.87666e-13
5.47134e-13
4.76844e-13
2.83972e-13
6.31237e-13
6.02616e-16
6.38854e-13
7.95997e-21
9.82532e-21
7.80817e-21
2.83206e-22
7.5715e-21
3.03317e-22
7.25236e-21
3.14691e-22
6.92454e-21
3.21205e-22
6.5977e-21
3.2503e-22
6.27468e-21
3.2653e-22
5.95767e-21
3.26219e-22
5.6484e-21
3.24255e-22
5.34814e-21
3.20946e-22
5.05816e-21
3.16448e-22
4.77847e-21
3.10917e-22
4.50963e-21
3.04454e-22
4.25166e-21
2.97423e-22
4.00438e-21
2.89772e-22
3.76776e-21
2.81758e-22
3.54095e-21
2.7328e-22
3.32418e-21
2.64801e-22
3.1163e-21
2.56064e-22
2.91721e-21
2.47327e-22
2.72639e-21
2.38642e-22
2.54353e-21
2.30215e-22
2.36775e-21
2.21995e-22
2.19896e-21
2.13981e-22
2.03662e-21
2.06175e-22
1.88013e-21
1.98627e-22
1.72912e-21
1.91596e-22
1.58322e-21
1.84927e-22
1.44203e-21
1.78671e-22
1.30519e-21
1.72726e-22
1.17222e-21
1.67452e-22
1.04292e-21
1.62644e-22
9.16826e-22
1.58198e-22
7.93473e-22
1.54166e-22
6.72653e-22
1.50754e-22
5.53953e-22
1.47652e-22
4.37062e-22
1.45015e-22
3.21618e-22
1.42585e-22
2.07054e-22
1.40362e-22
9.17137e-23
1.38243e-22
1.36847e-22
-5.65249e-14
1.62672e-13
-1.11694e-13
1.61417e-13
-1.65499e-13
1.57817e-13
-2.17569e-13
1.52226e-13
-2.67214e-13
1.44735e-13
-3.13777e-13
1.3554e-13
-3.56815e-13
1.24859e-13
-3.95706e-13
1.12586e-13
-4.30097e-13
9.8999e-14
-4.59389e-13
8.40041e-14
-4.83347e-13
6.78975e-14
-5.01381e-13
5.04276e-14
-5.13329e-13
3.20351e-14
-5.18994e-13
1.34667e-14
-5.18534e-13
-5.31959e-15
-5.12151e-13
-2.3684e-14
-4.96773e-13
-4.74944e-14
-4.73766e-13
-7.20788e-14
-4.44285e-13
-9.25661e-14
-4.08028e-13
-1.1272e-13
-3.61961e-13
-1.37913e-13
-3.08059e-13
-1.66476e-13
-2.46559e-13
-1.87023e-13
-1.76675e-13
-2.12235e-13
-9.79153e-14
-2.38383e-13
-1.12844e-14
-2.62494e-13
8.38148e-14
-2.87435e-13
1.87275e-13
-3.12378e-13
2.98951e-13
-3.36671e-13
4.18683e-13
-3.60695e-13
5.46245e-13
-3.83891e-13
6.81362e-13
-4.06131e-13
8.23611e-13
-4.27218e-13
9.72515e-13
-4.4674e-13
1.12742e-12
-4.64523e-13
1.2878e-12
-4.80554e-13
1.45281e-12
-4.94044e-13
1.62158e-12
-5.04945e-13
1.79328e-12
-5.13216e-13
1.96666e-12
-5.18056e-13
2.14065e-12
-5.19585e-13
2.31403e-12
-5.17502e-13
2.48557e-12
-5.11561e-13
2.65378e-12
-5.01575e-13
2.81735e-12
-4.8744e-13
2.97471e-12
-4.69003e-13
3.12451e-12
-4.46346e-13
3.26528e-12
-4.19341e-13
3.39559e-12
-3.8821e-13
3.51405e-12
-3.53031e-13
3.6193e-12
-3.13916e-13
3.71017e-12
-2.71293e-13
3.78548e-12
-2.2527e-13
3.84418e-12
-1.76337e-13
3.88552e-12
-1.24854e-13
3.90885e-12
-7.15337e-14
3.91344e-12
-1.63302e-14
3.899e-12
3.98589e-14
3.86529e-12
9.67829e-14
3.8123e-12
1.5363e-13
3.74019e-12
2.10124e-13
3.6492e-12
2.65749e-13
3.53985e-12
3.20107e-13
3.41283e-12
3.7253e-13
3.26878e-12
4.22847e-13
3.10855e-12
4.70633e-13
2.93327e-12
5.15515e-13
2.74388e-12
5.5731e-13
2.54155e-12
5.95588e-13
2.32753e-12
6.30276e-13
2.10296e-12
6.61328e-13
1.86911e-12
6.88339e-13
1.62689e-12
7.11364e-13
1.37687e-12
7.30187e-13
1.11783e-12
7.45396e-13
8.44914e-13
7.58621e-13
5.4271e-13
7.77089e-13
2.781e-13
8.93889e-13
5.69606e-16
9.14823e-13
7.98562e-21
1.46396e-20
7.82833e-21
4.2574e-22
7.58282e-21
4.4554e-22
7.25887e-21
4.59447e-22
6.92841e-21
4.68908e-22
6.5992e-21
4.7475e-22
6.27427e-21
4.7749e-22
5.9557e-21
4.77542e-22
5.64509e-21
4.75009e-22
5.34364e-21
4.70511e-22
5.05268e-21
4.64359e-22
4.77206e-21
4.56397e-22
4.50255e-21
4.47298e-22
4.24406e-21
4.37062e-22
3.99637e-21
4.2605e-22
3.75923e-21
4.14262e-22
3.53248e-21
4.01958e-22
3.31544e-21
3.89292e-22
3.10756e-21
3.76471e-22
2.90852e-21
3.63701e-22
2.71791e-21
3.50983e-22
2.53526e-21
3.38472e-22
2.35974e-21
3.26168e-22
2.19115e-21
3.14277e-22
2.02913e-21
3.02852e-22
1.87305e-21
2.91788e-22
1.72245e-21
2.8119e-22
1.57697e-21
2.71315e-22
1.43609e-21
2.61958e-22
1.29986e-21
2.53427e-22
1.16741e-21
2.45466e-22
1.03853e-21
2.38228e-22
9.12794e-22
2.31766e-22
7.89958e-22
2.2582e-22
6.69551e-22
2.20547e-22
5.51316e-22
2.16204e-22
4.34632e-22
2.12224e-22
3.19447e-22
2.09122e-22
2.04934e-22
2.06485e-22
9.03178e-23
2.0452e-22
2.03642e-22
-5.8114e-14
2.20367e-13
-1.15364e-13
2.17922e-13
-1.71056e-13
2.12857e-13
-2.24805e-13
2.05331e-13
-2.76066e-13
1.95349e-13
-3.24234e-13
1.83054e-13
-3.68724e-13
1.68687e-13
-4.0904e-13
1.52237e-13
-4.4466e-13
1.33946e-13
-4.75255e-13
1.13921e-13
-5.00216e-13
9.21747e-14
-5.19237e-13
6.87577e-14
-5.32378e-13
4.44789e-14
-5.38753e-13
1.91381e-14
-5.39388e-13
-5.39558e-15
-5.34286e-13
-2.95029e-14
-5.18379e-13
-6.41282e-14
-4.96142e-13
-9.50469e-14
-4.67708e-13
-1.21739e-13
-4.32913e-13
-1.48266e-13
-3.84671e-13
-1.86918e-13
-3.3277e-13
-2.19152e-13
-2.71243e-13
-2.49339e-13
-2.01496e-13
-2.82786e-13
-1.22895e-13
-3.17808e-13
-3.6298e-14
-3.49937e-13
5.90353e-14
-3.83636e-13
1.62801e-13
-4.17038e-13
2.74996e-13
-4.49785e-13
3.95407e-13
-4.82051e-13
5.23963e-13
-5.1342e-13
6.6032e-13
-5.43493e-13
8.04006e-13
-5.71938e-13
9.54626e-13
-5.98421e-13
1.11155e-12
-6.22538e-13
1.27422e-12
-6.44347e-13
1.44181e-12
-6.6278e-13
1.6135e-12
-6.77807e-13
1.78823e-12
-6.8914e-13
1.96506e-12
-6.96109e-13
2.1428e-12
-6.98556e-13
2.32004e-12
-6.96002e-13
2.49553e-12
-6.88316e-13
2.66792e-12
-6.75251e-13
2.83569e-12
-6.56519e-13
2.99743e-12
-6.32051e-13
3.15153e-12
-6.01779e-13
3.29649e-12
-5.65639e-13
3.43082e-12
-5.23902e-13
3.5531e-12
-4.76684e-13
3.66194e-12
-4.24157e-13
3.75606e-12
-3.66823e-13
3.8343e-12
-3.0496e-13
3.89561e-12
-2.39108e-13
3.93908e-12
-1.69812e-13
3.96392e-12
-9.79056e-14
3.96955e-12
-2.35219e-14
3.95574e-12
5.2071e-14
3.92221e-12
1.28682e-13
3.86879e-12
2.05381e-13
3.79575e-12
2.81455e-13
3.70346e-12
3.56293e-13
3.59238e-12
4.294e-13
3.46314e-12
4.99959e-13
3.31654e-12
5.676e-13
3.15344e-12
6.31854e-13
2.97495e-12
6.92112e-13
2.78216e-12
7.4819e-13
2.57627e-12
7.9955e-13
2.35845e-12
8.46159e-13
2.12998e-12
8.87863e-13
1.89208e-12
9.24302e-13
1.64583e-12
9.55678e-13
1.39184e-12
9.82249e-13
1.13065e-12
1.00465e-12
8.62765e-13
1.02459e-12
5.92737e-13
1.04521e-12
2.81284e-13
1.20344e-12
5.56375e-16
1.19404e-12
8.01126e-21
1.94058e-20
7.84814e-21
5.73546e-22
7.59667e-21
5.96656e-22
7.26833e-21
6.13406e-22
6.93426e-21
6.25297e-22
6.60199e-21
6.3269e-22
6.27427e-21
6.35947e-22
5.95322e-21
6.3574e-22
5.6406e-21
6.32173e-22
5.33749e-21
6.25917e-22
5.04472e-21
6.1718e-22
4.76296e-21
6.06479e-22
4.49231e-21
5.94071e-22
4.23305e-21
5.80319e-22
3.98463e-21
5.65171e-22
3.74697e-21
5.49403e-22
3.51981e-21
5.32859e-22
3.30262e-21
5.16006e-22
3.09479e-21
4.9879e-22
2.89586e-21
4.81729e-22
2.70535e-21
4.64669e-22
2.52295e-21
4.47918e-22
2.34785e-21
4.31426e-22
2.17967e-21
4.15555e-22
2.01806e-21
4.002e-22
1.86245e-21
3.85518e-22
1.71252e-21
3.71559e-22
1.56771e-21
3.58324e-22
1.42751e-21
3.46072e-22
1.2919e-21
3.34491e-22
1.16012e-21
3.23945e-22
1.03201e-21
3.14329e-22
9.069e-22
3.05592e-22
7.84684e-22
2.97785e-22
6.65157e-22
2.90961e-22
5.47335e-22
2.84964e-22
4.3153e-22
2.80104e-22
3.1681e-22
2.7602e-22
2.02969e-22
2.72866e-22
8.94389e-23
2.70747e-22
2.69816e-22
-6.03892e-14
2.8034e-13
-1.20295e-13
2.77086e-13
-1.78657e-13
2.70574e-13
-2.34852e-13
2.60882e-13
-2.88433e-13
2.48286e-13
-3.38787e-13
2.32762e-13
-3.85269e-13
2.14512e-13
-4.27418e-13
1.93726e-13
-4.64752e-13
1.70614e-13
-4.96816e-13
1.45312e-13
-5.23175e-13
1.17857e-13
-5.43589e-13
8.84881e-14
-5.58036e-13
5.82347e-14
-5.65295e-13
2.57013e-14
-5.67746e-13
-3.64837e-15
-5.62864e-13
-3.50959e-14
-5.47475e-13
-8.02331e-14
-5.26575e-13
-1.16674e-13
-4.99336e-13
-1.49716e-13
-4.64904e-13
-1.83443e-13
-4.16429e-13
-2.36149e-13
-3.65597e-13
-2.70755e-13
-3.0442e-13
-3.11301e-13
-2.34668e-13
-3.5334e-13
-1.56491e-13
-3.96806e-13
-6.98096e-14
-4.37461e-13
2.57259e-14
-4.80037e-13
1.29938e-13
-5.22135e-13
2.42725e-13
-5.63487e-13
3.64181e-13
-6.04446e-13
4.93961e-13
-6.44165e-13
6.31785e-13
-6.82309e-13
7.77381e-13
-7.18553e-13
9.30308e-13
-7.52397e-13
1.08988e-12
-7.83187e-13
1.25569e-12
-8.11253e-13
1.42673e-12
-8.34933e-13
1.60231e-12
-8.5453e-13
1.78131e-12
-8.69304e-13
1.96268e-12
-8.7866e-13
2.14523e-12
-8.823e-13
2.32772e-12
-8.797e-13
2.50866e-12
-8.70487e-13
2.6867e-12
-8.5453e-13
2.86024e-12
-8.31311e-13
3.02774e-12
-8.00811e-13
3.18759e-12
-7.62911e-13
3.33824e-12
-7.1758e-13
3.47804e-12
-6.65017e-13
3.60555e-12
-6.05526e-13
3.71935e-12
-5.39313e-13
3.8179e-12
-4.66755e-13
3.90017e-12
-3.88633e-13
3.96487e-12
-3.05257e-13
4.01113e-12
-2.17553e-13
4.03819e-12
-1.26478e-13
4.04529e-12
-3.21841e-14
4.03231e-12
6.34554e-14
3.99884e-12
1.60501e-13
3.94496e-12
2.57574e-13
3.87066e-12
3.54013e-13
3.77653e-12
4.48643e-13
3.66294e-12
5.41177e-13
3.53074e-12
6.30312e-13
3.38068e-12
7.15776e-13
3.21367e-12
7.96958e-13
3.03091e-12
8.72937e-13
2.83363e-12
9.43533e-13
2.62289e-12
1.00834e-12
2.4e-12
1.06709e-12
2.16645e-12
1.11946e-12
1.92338e-12
1.16542e-12
1.67226e-12
1.20487e-12
1.41439e-12
1.2382e-12
1.15098e-12
1.26615e-12
8.84199e-13
1.28947e-12
6.12168e-13
1.31535e-12
2.85428e-13
1.52831e-12
5.46009e-16
1.47744e-12
8.04021e-21
2.40893e-20
7.87135e-21
7.28333e-22
7.61342e-21
7.5563e-22
7.28028e-21
7.75637e-22
6.9416e-21
7.89647e-22
6.60524e-21
7.98074e-22
6.27406e-21
8.01383e-22
5.94976e-21
8.00142e-22
5.63429e-21
7.94921e-22
5.32875e-21
7.86132e-22
5.03401e-21
7.74448e-22
4.7505e-21
7.60231e-22
4.47856e-21
7.44049e-22
4.21795e-21
7.26006e-22
3.96886e-21
7.06774e-22
3.73048e-21
6.86353e-22
3.50296e-21
6.65415e-22
3.28541e-21
6.43857e-22
3.07773e-21
6.22092e-22
2.8788e-21
6.00275e-22
2.68865e-21
5.7882e-22
2.50651e-21
5.5752e-22
2.33193e-21
5.36892e-22
2.16432e-21
5.16833e-22
2.00338e-21
4.97446e-22
1.84849e-21
4.79041e-22
1.69929e-21
4.61515e-22
1.55541e-21
4.45023e-22
1.41598e-21
4.29462e-22
1.28135e-21
4.15296e-22
1.1505e-21
4.01958e-22
1.02322e-21
3.89964e-22
8.99145e-22
3.79107e-22
7.77912e-22
3.6944e-22
6.5916e-22
3.60858e-22
5.42424e-22
3.53568e-22
4.27446e-22
3.47468e-22
3.13708e-22
3.42505e-22
2.00798e-22
3.38886e-22
8.85083e-23
3.36404e-22
3.35318e-22
-6.36567e-14
3.43582e-13
-1.26775e-13
3.39466e-13
-1.8827e-13
3.31425e-13
-2.47559e-13
3.19532e-13
-3.04027e-13
3.04113e-13
-3.57043e-13
2.85131e-13
-4.06007e-13
2.62829e-13
-4.50512e-13
2.37579e-13
-4.8997e-13
2.0941e-13
-5.23836e-13
1.78512e-13
-5.51884e-13
1.45235e-13
-5.74437e-13
1.10363e-13
-5.89641e-13
7.27579e-14
-5.99121e-13
3.44918e-14
-6.04351e-13
8.87187e-16
-5.9717e-13
-4.29788e-14
-5.83927e-13
-9.41871e-14
-5.64861e-13
-1.36459e-13
-5.39573e-13
-1.7573e-13
-5.02812e-13
-2.20943e-13
-4.57346e-13
-2.82365e-13
-4.06527e-13
-3.22339e-13
-3.46076e-13
-3.72532e-13
-2.76247e-13
-4.23967e-13
-1.98818e-13
-4.75052e-13
-1.11979e-13
-5.25138e-13
-1.63171e-14
-5.76557e-13
8.83168e-14
-6.27652e-13
2.01922e-13
-6.77996e-13
3.24511e-13
-7.27966e-13
4.55791e-13
-7.76399e-13
5.95553e-13
-8.23049e-13
7.43534e-13
-8.67537e-13
8.99293e-13
-9.09182e-13
1.06229e-12
-9.47226e-13
1.23182e-12
-9.81859e-13
1.40718e-12
-1.01138e-12
1.58762e-12
-1.03608e-12
1.77192e-12
-1.05472e-12
1.95904e-12
-1.06691e-12
2.14783e-12
-1.07223e-12
2.33691e-12
-1.06994e-12
2.52479e-12
-1.05953e-12
2.70994e-12
-1.04086e-12
2.89076e-12
-1.01332e-12
3.06564e-12
-9.76896e-13
3.23279e-12
-9.31288e-13
3.39065e-12
-8.76678e-13
3.53754e-12
-8.13163e-13
3.67177e-12
-7.41043e-13
3.79174e-12
-6.60596e-13
3.89609e-12
-5.72447e-13
3.98341e-12
-4.77332e-13
4.05246e-12
-3.7572e-13
4.10239e-12
-2.68957e-13
4.1322e-12
-1.57794e-13
4.14128e-12
-4.28311e-14
4.12924e-12
7.38754e-14
4.096e-12
1.9208e-13
4.04127e-12
3.10579e-13
3.96542e-12
4.28089e-13
3.86894e-12
5.43309e-13
3.7523e-12
6.55953e-13
3.61619e-12
7.64514e-13
3.46167e-12
8.68361e-13
3.28977e-12
9.66906e-13
3.10162e-12
1.0591e-12
2.89846e-12
1.14471e-12
2.6816e-12
1.22321e-12
2.45245e-12
1.29425e-12
2.2124e-12
1.35754e-12
1.96293e-12
1.41293e-12
1.70564e-12
1.46021e-12
1.44234e-12
1.49958e-12
1.17533e-12
1.53126e-12
9.07089e-13
1.55583e-12
6.25452e-13
1.59513e-12
2.76358e-13
1.87555e-12
5.37777e-16
1.75179e-12
8.07578e-21
2.85843e-20
7.89859e-21
8.90098e-22
7.63343e-21
9.23134e-22
7.29429e-21
9.47122e-22
6.95002e-21
9.63252e-22
6.60861e-21
9.72351e-22
6.27277e-21
9.74988e-22
5.94448e-21
9.71886e-22
5.6255e-21
9.64079e-22
5.31701e-21
9.52188e-22
5.0198e-21
9.36679e-22
4.73432e-21
9.18274e-22
4.46057e-21
8.97491e-22
4.19867e-21
8.74847e-22
3.94844e-21
8.506e-22
3.70954e-21
8.2532e-22
3.4814e-21
7.99212e-22
3.26364e-21
7.72794e-22
3.05597e-21
7.46169e-22
2.85734e-21
7.19544e-22
2.6673e-21
6.93177e-22
2.48583e-21
6.6738e-22
2.31187e-21
6.42254e-22
2.14498e-21
6.18007e-22
1.98498e-21
5.9464e-22
1.83096e-21
5.72306e-22
1.6828e-21
5.51213e-22
1.53985e-21
5.3136e-22
1.40181e-21
5.12697e-22
1.26807e-21
4.95326e-22
1.13846e-21
4.79506e-22
1.01242e-21
4.64979e-22
8.89426e-22
4.51899e-22
7.6933e-22
4.40215e-22
6.51818e-22
4.30082e-22
5.36323e-22
4.21345e-22
4.22483e-22
4.14211e-22
3.10038e-22
4.0842e-22
1.9842e-22
4.04078e-22
8.74227e-23
4.01183e-22
3.99994e-22
-6.76452e-14
4.10817e-13
-1.34679e-13
4.05767e-13
-1.99997e-13
3.96101e-13
-2.63022e-13
3.81925e-13
-3.22952e-13
3.63408e-13
-3.79273e-13
3.40815e-13
-4.31279e-13
3.1419e-13
-4.78526e-13
2.84178e-13
-5.20405e-13
2.50638e-13
-5.56505e-13
2.13954e-13
-5.87136e-13
1.75204e-13
-6.11392e-13
1.33948e-13
-6.2764e-13
8.8333e-14
-6.40959e-13
4.71315e-14
-6.47808e-13
7.04967e-15
-6.38957e-13
-5.25244e-14
-6.28106e-13
-1.0574e-13
-6.11116e-13
-1.54158e-13
-5.89081e-13
-1.98487e-13
-5.46436e-13
-2.64321e-13
-5.07447e-13
-3.22097e-13
-4.55881e-13
-3.74666e-13
-3.9642e-13
-4.32768e-13
-3.26623e-13
-4.94557e-13
-2.5002e-13
-5.52464e-13
-1.63274e-13
-6.12715e-13
-6.74454e-14
-6.73238e-13
3.771e-14
-7.33681e-13
1.52229e-13
-7.9341e-13
2.75998e-13
-8.52654e-13
4.09034e-13
-9.10373e-13
5.51083e-13
-9.66061e-13
7.01879e-13
-1.01931e-12
8.60991e-13
-1.06929e-12
1.02791e-12
-1.11516e-12
1.20209e-12
-1.15707e-12
1.38263e-12
-1.19297e-12
1.56885e-12
-1.22336e-12
1.75964e-12
-1.24658e-12
1.95386e-12
-1.26221e-12
2.15018e-12
-1.26964e-12
2.34728e-12
-1.26814e-12
2.54357e-12
-1.25693e-12
2.73739e-12
-1.2358e-12
2.92724e-12
-1.2043e-12
3.11117e-12
-1.16197e-12
3.28749e-12
-1.10876e-12
3.45428e-12
-1.04464e-12
3.6098e-12
-9.6989e-13
3.75222e-12
-8.8469e-13
3.87992e-12
-7.89559e-13
3.99126e-12
-6.85089e-13
4.0848e-12
-5.72229e-13
4.15928e-12
-4.51596e-13
4.21366e-12
-3.24786e-13
4.24683e-12
-1.92483e-13
4.2583e-12
-5.58728e-14
4.24752e-12
8.30118e-14
4.21436e-12
2.2354e-13
4.15871e-12
3.64467e-13
4.08097e-12
5.04008e-13
3.98141e-12
6.4099e-13
3.86081e-12
7.74626e-13
3.72009e-12
9.03263e-13
3.56006e-12
1.02639e-12
3.38205e-12
1.14289e-12
3.18723e-12
1.25187e-12
2.97702e-12
1.35288e-12
2.75268e-12
1.4455e-12
2.51574e-12
1.52916e-12
2.26772e-12
1.60354e-12
2.01016e-12
1.6685e-12
1.74487e-12
1.72353e-12
1.47409e-12
1.76842e-12
1.20041e-12
1.80304e-12
9.26865e-13
1.8275e-12
5.73803e-13
1.94634e-12
2.744e-13
2.17313e-12
5.33237e-16
2.02422e-12
8.11714e-21
3.28608e-20
7.93163e-21
1.06148e-21
7.65742e-21
1.10134e-21
7.31042e-21
1.12962e-21
6.95912e-21
1.14766e-21
6.61124e-21
1.15676e-21
6.26967e-21
1.15785e-21
5.93662e-21
1.15216e-21
5.61361e-21
1.14084e-21
5.30156e-21
1.12471e-21
5.00139e-21
1.10454e-21
4.71353e-21
1.08118e-21
4.43788e-21
1.05507e-21
4.17452e-21
1.02694e-21
3.92316e-21
9.97321e-22
3.68344e-21
9.66561e-22
3.45493e-21
9.35024e-22
3.23702e-21
9.03023e-22
3.02934e-21
8.71073e-22
2.83097e-21
8.39433e-22
2.64155e-21
8.08052e-22
2.46071e-21
7.77446e-22
2.28757e-21
7.47565e-22
2.12167e-21
7.1882e-22
1.96264e-21
6.9142e-22
1.80987e-21
6.65208e-22
1.66289e-21
6.40393e-22
1.52119e-21
6.16973e-22
1.38444e-21
5.95105e-22
1.2522e-21
5.74994e-22
1.12398e-21
5.56279e-22
9.99286e-22
5.39322e-22
8.77794e-22
5.24019e-22
7.59197e-22
5.10474e-22
6.43133e-22
4.98635e-22
5.29137e-22
4.88605e-22
4.16744e-22
4.80178e-22
3.05643e-22
4.73354e-22
1.95577e-22
4.68443e-22
8.61302e-23
4.65289e-22
4.6379e-22
-7.24418e-14
4.82849e-13
-1.44206e-13
4.76806e-13
-2.14133e-13
4.65393e-13
-2.8154e-13
4.48705e-13
-3.45611e-13
4.26849e-13
-4.05714e-13
4.00284e-13
-4.61327e-13
3.69167e-13
-5.11698e-13
3.33909e-13
-5.56387e-13
2.9468e-13
-5.95559e-13
2.52479e-13
-6.28875e-13
2.07867e-13
-6.53825e-13
1.58239e-13
-6.73703e-13
1.07547e-13
-6.91927e-13
6.46889e-14
-6.94699e-13
9.1448e-15
-6.89742e-13
-5.81665e-14
-6.80541e-13
-1.15633e-13
-6.66548e-13
-1.68852e-13
-6.42897e-13
-2.2285e-13
-6.01439e-13
-3.065e-13
-5.65276e-13
-3.58994e-13
-5.13962e-13
-4.2673e-13
-4.54823e-13
-4.92676e-13
-3.86652e-13
-5.63511e-13
-3.10154e-13
-6.29764e-13
-2.23763e-13
-6.99929e-13
-1.27778e-13
-7.70068e-13
-2.23257e-14
-8.39994e-13
9.30607e-14
-9.09681e-13
2.18272e-13
-9.78767e-13
3.53171e-13
-1.04619e-12
4.97832e-13
-1.11166e-12
6.51821e-13
-1.17426e-12
8.14848e-13
-1.23329e-12
9.86345e-13
-1.28763e-12
1.16573e-12
-1.33745e-12
1.35259e-12
-1.38083e-12
1.5456e-12
-1.41738e-12
1.74397e-12
-1.44596e-12
1.94647e-12
-1.46573e-12
2.1517e-12
-1.47589e-12
2.3583e-12
-1.47576e-12
2.56469e-12
-1.46435e-12
2.76903e-12
-1.44117e-12
2.96945e-12
-1.40578e-12
3.16431e-12
-1.35789e-12
3.35153e-12
-1.29706e-12
3.52907e-12
-1.22329e-12
3.69493e-12
-1.13689e-12
3.84729e-12
-1.03822e-12
3.98429e-12
-9.27765e-13
4.10422e-12
-8.06284e-13
4.20525e-12
-6.74581e-13
4.28625e-12
-5.33983e-13
4.34593e-12
-3.85911e-13
4.38312e-12
-2.31193e-13
4.39738e-12
-7.17297e-14
4.38813e-12
9.0589e-14
4.35508e-12
2.5484e-13
4.29827e-12
4.19455e-13
4.21811e-12
5.82283e-13
4.11501e-12
7.42138e-13
3.98967e-12
8.97956e-13
3.84306e-12
1.04782e-12
3.67643e-12
1.19094e-12
3.49112e-12
1.32609e-12
3.28833e-12
1.45254e-12
3.06953e-12
1.56954e-12
2.83634e-12
1.67657e-12
2.59016e-12
1.77324e-12
2.33259e-12
1.85903e-12
2.06523e-12
1.93383e-12
1.78967e-12
1.9971e-12
1.50826e-12
2.04787e-12
1.22572e-12
2.08367e-12
9.54129e-13
2.09721e-12
5.55318e-13
2.34331e-12
2.88055e-13
2.43858e-12
5.33208e-16
2.3103e-12
8.1709e-21
3.68577e-20
7.97149e-21
1.24537e-21
7.6857e-21
1.29242e-21
7.32851e-21
1.32494e-21
6.96817e-21
1.34453e-21
6.61233e-21
1.35265e-21
6.26398e-21
1.3513e-21
5.92535e-21
1.34205e-21
5.59748e-21
1.32607e-21
5.28139e-21
1.30452e-21
4.97797e-21
1.27867e-21
4.68743e-21
1.2493e-21
4.40975e-21
1.21714e-21
4.14485e-21
1.18282e-21
3.8924e-21
1.14699e-21
3.65185e-21
1.10997e-21
3.42298e-21
1.07249e-21
3.20507e-21
1.03475e-21
2.9976e-21
9.97166e-22
2.79964e-21
9.59736e-22
2.61089e-21
9.23134e-22
2.43083e-21
8.87461e-22
2.25882e-21
8.5303e-22
2.09421e-21
8.19684e-22
1.93643e-21
7.87683e-22
1.78506e-21
7.57387e-22
1.63952e-21
7.28694e-22
1.49932e-21
7.01811e-22
1.36433e-21
6.76789e-22
1.23353e-21
6.53576e-22
1.10697e-21
6.32225e-22
9.84035e-22
6.12837e-22
8.64197e-22
5.95363e-22
7.47358e-22
5.79905e-22
6.33052e-22
5.6636e-22
5.20762e-22
5.54728e-22
4.09971e-22
5.45112e-22
3.00732e-22
5.37512e-22
1.92371e-22
5.31877e-22
8.46826e-23
5.2831e-22
5.26707e-22
-7.81482e-14
5.60591e-13
-1.55575e-13
5.53511e-13
-2.30895e-13
5.40084e-13
-3.03367e-13
5.20553e-13
-3.72266e-13
4.95127e-13
-4.3672e-13
4.64111e-13
-4.96323e-13
4.28141e-13
-5.50383e-13
3.87338e-13
-5.98556e-13
3.42219e-13
-6.41221e-13
2.94505e-13
-6.76359e-13
2.42361e-13
-7.02781e-13
1.84015e-13
-7.29447e-13
1.33559e-13
-7.48382e-13
8.29656e-14
-7.47999e-13
8.09768e-15
-7.487e-13
-5.81378e-14
-7.42057e-13
-1.22957e-13
-7.30251e-13
-1.81349e-13
-6.98489e-13
-2.55315e-13
-6.70121e-13
-3.35581e-13
-6.29508e-13
-4.00336e-13
-5.81258e-13
-4.75721e-13
-5.21798e-13
-5.52896e-13
-4.56257e-13
-6.29827e-13
-3.79723e-13
-7.07092e-13
-2.93789e-13
-7.86672e-13
-1.97991e-13
-8.66697e-13
-9.21698e-14
-9.46664e-13
2.4168e-14
-1.02688e-12
1.50762e-13
-1.10624e-12
2.87811e-13
-1.18414e-12
4.35175e-13
-1.25993e-12
5.92725e-13
-1.33273e-12
7.60105e-13
-1.4016e-12
9.36794e-13
-1.46526e-12
1.12234e-12
-1.52393e-12
1.31617e-12
-1.57561e-12
1.51698e-12
-1.61914e-12
1.72411e-12
-1.65404e-12
1.93623e-12
-1.67879e-12
2.15195e-12
-1.69256e-12
2.36961e-12
-1.69437e-12
2.58769e-12
-1.68339e-12
2.80442e-12
-1.65885e-12
3.01759e-12
-1.61991e-12
3.22519e-12
-1.56647e-12
3.42523e-12
-1.49811e-12
3.61551e-12
-1.4146e-12
3.79373e-12
-1.31617e-12
3.95783e-12
-1.20344e-12
4.10585e-12
-1.07695e-12
4.23569e-12
-9.37352e-13
4.34564e-12
-7.85825e-13
4.43451e-12
-6.24222e-13
4.50041e-12
-4.53269e-13
4.54247e-12
-2.74785e-13
4.55999e-12
-9.08861e-14
4.55245e-12
9.64114e-14
4.51947e-12
2.86013e-13
4.46132e-12
4.75718e-13
4.37815e-12
6.63482e-13
4.27055e-12
8.47689e-13
4.13956e-12
1.02684e-12
3.9861e-12
1.19913e-12
3.81165e-12
1.36319e-12
3.61759e-12
1.51792e-12
3.40532e-12
1.66258e-12
3.17658e-12
1.79606e-12
2.93289e-12
1.91805e-12
2.67603e-12
2.02791e-12
2.40741e-12
2.12551e-12
2.12852e-12
2.21062e-12
1.84059e-12
2.28298e-12
1.54436e-12
2.3421e-12
1.2397e-12
2.38639e-12
9.20826e-13
2.41419e-12
5.79994e-13
2.68229e-12
2.98681e-13
2.71807e-12
5.39969e-16
2.607e-12
8.23294e-21
4.04634e-20
8.01859e-21
1.44519e-21
7.71822e-21
1.49875e-21
7.34805e-21
1.53489e-21
6.97634e-21
1.55494e-21
6.61098e-21
1.5613e-21
6.25473e-21
1.55644e-21
5.90938e-21
1.54212e-21
5.57587e-21
1.52015e-21
5.25554e-21
1.49244e-21
4.94861e-21
1.45972e-21
4.65532e-21
1.42327e-21
4.37548e-21
1.38398e-21
4.10897e-21
1.34267e-21
3.85544e-21
1.29981e-21
3.61442e-21
1.25607e-21
3.38519e-21
1.21197e-21
3.16748e-21
1.16788e-21
2.96017e-21
1.12404e-21
2.76309e-21
1.08092e-21
2.57522e-21
1.03868e-21
2.39639e-21
9.97683e-22
2.22548e-21
9.57927e-22
2.06226e-21
9.19825e-22
1.90613e-21
8.83429e-22
1.75636e-21
8.48894e-22
1.61264e-21
8.16479e-22
1.47435e-21
7.85977e-22
1.34112e-21
7.57491e-22
1.21223e-21
7.31279e-22
1.08754e-21
7.07188e-22
9.66561e-22
6.85216e-22
8.48739e-22
6.6557e-22
7.33864e-22
6.48096e-22
6.21419e-22
6.32897e-22
5.11094e-22
6.19817e-22
4.02372e-22
6.09063e-22
2.95045e-22
6.00481e-22
1.88856e-22
5.94278e-22
8.30283e-23
5.90193e-22
5.88436e-22
-8.48798e-14
6.45067e-13
-1.6877e-13
6.36689e-13
-2.5036e-13
6.21048e-13
-3.28815e-13
5.98392e-13
-4.03155e-13
5.68846e-13
-4.7272e-13
5.33057e-13
-5.37014e-13
4.91814e-13
-5.94318e-13
4.44018e-13
-6.47461e-13
3.94735e-13
-6.93413e-13
3.3983e-13
-7.2767e-13
2.75986e-13
-7.63502e-13
2.1921e-13
-7.94826e-13
1.64241e-13
-8.03984e-13
9.14768e-14
-8.13297e-13
1.67597e-14
-8.14202e-13
-5.78949e-14
-8.15124e-13
-1.22704e-13
-7.94874e-13
-2.02278e-13
-7.68795e-13
-2.82082e-13
-7.43949e-13
-3.61131e-13
-7.03906e-13
-4.41096e-13
-6.56237e-13
-5.24121e-13
-5.99231e-13
-6.1065e-13
-5.346e-13
-6.95224e-13
-4.59054e-13
-7.83419e-13
-3.73859e-13
-8.72665e-13
-2.78443e-13
-9.62927e-13
-1.72248e-13
-1.05369e-12
-5.52062e-14
-1.14477e-12
7.28654e-14
-1.23517e-12
2.12089e-13
-1.32423e-12
3.62456e-13
-1.41118e-12
5.23813e-13
-1.49497e-12
6.95981e-13
-1.57466e-12
8.78385e-13
-1.64855e-12
1.07094e-12
-1.71738e-12
1.27251e-12
-1.77806e-12
1.48239e-12
-1.8299e-12
1.69931e-12
-1.87183e-12
1.92239e-12
-1.90274e-12
2.15001e-12
-1.92105e-12
2.38064e-12
-1.92586e-12
2.61226e-12
-1.91587e-12
2.84312e-12
-1.89058e-12
3.0711e-12
-1.84877e-12
3.29372e-12
-1.78999e-12
3.5088e-12
-1.71411e-12
3.71381e-12
-1.62057e-12
3.90649e-12
-1.50985e-12
4.08449e-12
-1.38249e-12
4.24535e-12
-1.23894e-12
4.38696e-12
-1.08015e-12
4.50769e-12
-9.07832e-13
4.60538e-12
-7.23289e-13
4.67856e-12
-5.2791e-13
4.72633e-12
-3.24125e-13
4.74769e-12
-1.13915e-13
4.742e-12
1.00322e-13
4.7091e-12
3.17036e-13
4.6491e-12
5.33741e-13
4.56237e-12
7.48139e-13
4.44957e-12
9.58345e-13
4.31177e-12
1.16242e-12
4.15028e-12
1.35835e-12
3.96655e-12
1.5446e-12
3.76214e-12
1.71999e-12
3.53887e-12
1.8835e-12
3.29847e-12
2.03411e-12
3.04278e-12
2.17142e-12
2.77357e-12
2.29484e-12
2.49244e-12
2.40441e-12
2.20085e-12
2.50002e-12
1.89962e-12
2.58209e-12
1.58852e-12
2.65115e-12
1.26424e-12
2.70867e-12
9.11214e-13
2.76528e-12
6.07035e-13
2.98458e-12
3.05948e-13
3.0173e-12
5.54379e-16
2.91093e-12
8.30491e-21
4.35323e-20
8.07215e-21
1.66222e-21
7.7543e-21
1.7226e-21
7.36811e-21
1.76158e-21
6.98275e-21
1.78108e-21
6.60607e-21
1.78418e-21
6.24041e-21
1.77415e-21
5.88746e-21
1.75352e-21
5.54811e-21
1.72446e-21
5.22292e-21
1.68879e-21
4.91216e-21
1.64805e-21
4.61603e-21
1.60354e-21
4.33406e-21
1.55613e-21
4.06611e-21
1.50676e-21
3.81175e-21
1.4561e-21
3.57027e-21
1.40486e-21
3.34109e-21
1.35342e-21
3.12364e-21
1.30229e-21
2.91705e-21
1.25178e-21
2.7208e-21
1.20241e-21
2.53422e-21
1.15423e-21
2.35664e-21
1.10759e-21
2.18738e-21
1.06267e-21
2.02587e-21
1.0196e-21
1.87165e-21
9.78658e-22
1.72384e-21
9.39729e-22
1.58209e-21
9.0323e-22
1.44591e-21
8.68953e-22
1.31486e-21
8.37262e-22
1.18814e-21
8.07742e-22
1.06567e-21
7.80962e-22
9.46863e-22
7.56508e-22
8.31265e-22
7.34536e-22
7.18562e-22
7.15098e-22
6.08443e-22
6.98192e-22
5.00341e-22
6.83717e-22
3.9379e-22
6.71722e-22
2.88893e-22
6.62313e-22
1.8472e-22
6.55334e-22
8.13222e-23
6.50836e-22
6.48768e-22
-9.26289e-14
7.37298e-13
-1.84278e-13
7.27631e-13
-2.73141e-13
7.09295e-13
-3.58587e-13
6.83229e-13
-4.39005e-13
6.48651e-13
-5.13138e-13
6.06579e-13
-5.82876e-13
5.60939e-13