/*--------------------------------*- C++ -*----------------------------------*\
  =========                 |
  \\      /  F ield         | OpenFOAM: The Open Source CFD Toolbox
   \\    /   O peration     | Website:  https://openfoam.org
    \\  /    A nd           | Version:  6
     \\/     M anipulation  |
\*---------------------------------------------------------------------------*/
FoamFile
{
    version     2.0;
    format      ascii;
    class       surfaceScalarField;
    location    "960";
    object      phi;
}
// * * * * * * * * * * * * * * * * * * * * * * * * * * * * * * * * * * * * * //

dimensions      [0 3 -1 0 0 0 0];

internalField   nonuniform List<scalar> 
11773
(
-1.73033e-08
1.73033e-08
-7.83236e-08
6.09774e-08
-8.30674e-08
4.71002e-09
-1.14412e-07
3.1312e-08
-1.1152e-07
-2.9242e-09
-1.28426e-07
1.68738e-08
-9.32831e-08
-3.51743e-08
-9.12834e-08
-2.03216e-09
-8.5358e-08
-5.95825e-09
-7.92818e-08
-6.10871e-09
-7.48464e-08
-4.46737e-09
-7.42894e-08
-5.89099e-10
-7.45548e-08
2.32779e-10
-7.83762e-08
3.78887e-09
-8.0588e-08
2.17965e-09
-8.03474e-08
-2.72587e-10
-7.82058e-08
-2.17413e-09
-6.79034e-08
-1.03349e-08
-5.30292e-08
-1.49066e-08
-2.90368e-08
-2.40248e-08
-2.01296e-08
-8.93979e-09
2.07085e-11
-2.01831e-08
1.89217e-13
5.45374e-13
1.1124e-13
7.79772e-14
8.09555e-14
3.0277e-14
6.62101e-14
1.47132e-14
5.74704e-14
8.70585e-15
5.15045e-14
5.93483e-15
4.70507e-14
4.42634e-15
4.35406e-14
3.48609e-15
4.06819e-14
2.83794e-15
3.83056e-14
2.35833e-15
3.63043e-14
1.98598e-15
3.46036e-14
1.68779e-15
3.31483e-14
1.44456e-15
3.18951e-14
1.24442e-15
3.08087e-14
1.07953e-15
2.98593e-14
9.44305e-16
2.90213e-14
8.34463e-16
2.82727e-14
7.46475e-16
2.75947e-14
6.77302e-16
2.6971e-14
6.24246e-16
2.63878e-14
5.8489e-16
2.58334e-14
5.57067e-16
2.52983e-14
5.38845e-16
2.47745e-14
5.28518e-16
2.42554e-14
5.24592e-16
2.3736e-14
5.25768e-16
2.32122e-14
5.30926e-16
2.26809e-14
5.39109e-16
2.21398e-14
5.49502e-16
2.15875e-14
5.61419e-16
2.10229e-14
5.74286e-16
2.04456e-14
5.87631e-16
1.98553e-14
6.01067e-16
1.92523e-14
6.14287e-16
1.8637e-14
6.27051e-16
1.80101e-14
6.39178e-16
1.73722e-14
6.50538e-16
1.67243e-14
6.61044e-16
1.60671e-14
6.70644e-16
1.54017e-14
6.79319e-16
1.47288e-14
6.8707e-16
1.40494e-14
6.93921e-16
1.33644e-14
6.99908e-16
1.26745e-14
7.05079e-16
1.19805e-14
7.09487e-16
1.12831e-14
7.13192e-16
1.05829e-14
7.16256e-16
9.88038e-15
7.1874e-16
9.17618e-15
7.20704e-16
8.47069e-15
7.22206e-16
7.76431e-15
7.233e-16
7.05738e-15
7.24034e-16
6.3502e-15
7.24452e-16
5.64304e-15
7.24589e-16
4.93613e-15
7.24475e-16
4.2297e-15
7.24128e-16
3.52393e-15
7.23559e-16
2.81903e-15
7.2279e-16
2.11507e-15
7.21911e-16
1.41185e-15
7.21224e-16
7.08229e-16
7.21661e-16
7.26281e-16
-6.58442e-08
8.31051e-08
-7.75491e-08
7.26147e-08
-1.07343e-07
3.44438e-08
-1.06667e-07
3.05798e-08
-1.00072e-07
-9.5761e-09
-1.00255e-07
1.69985e-08
-7.7958e-08
-5.75298e-08
-7.0757e-08
-9.29067e-09
-5.70829e-08
-1.96899e-08
-5.11981e-08
-1.20509e-08
-5.37533e-08
-1.96966e-09
-6.23248e-08
7.92445e-09
-6.50279e-08
2.87792e-09
-6.77256e-08
6.4292e-09
-6.99343e-08
4.33109e-09
-6.79587e-08
-2.30566e-09
-6.38444e-08
-6.34624e-09
-6.03487e-08
-1.38885e-08
-4.92676e-08
-2.60457e-08
-3.78536e-08
-3.54971e-08
-1.34397e-08
-3.34119e-08
1.51093e-11
-3.36838e-08
4.05921e-14
4.88995e-14
6.93376e-14
4.92248e-14
6.72975e-14
3.22603e-14
6.09502e-14
2.10045e-14
5.50532e-14
1.45496e-14
5.01952e-14
1.07448e-14
4.62391e-14
8.34008e-15
4.29842e-14
6.70418e-15
4.02721e-14
5.5182e-15
3.79888e-14
4.61447e-15
3.60515e-14
3.90037e-15
3.43981e-14
3.32224e-15
3.29797e-14
2.84749e-15
3.17567e-14
2.4553e-15
3.06956e-14
2.13153e-15
2.97678e-14
1.86588e-15
2.89484e-14
1.65024e-15
2.82159e-14
1.4778e-15
2.75515e-14
1.34264e-15
2.69394e-14
1.2394e-15
2.6366e-14
1.16328e-15
2.58198e-14
1.10998e-15
2.52914e-14
1.07564e-15
2.4773e-14
1.05686e-15
2.42583e-14
1.05068e-15
2.37423e-14
1.05451e-15
2.3221e-14
1.06614e-15
2.26917e-14
1.08366e-15
2.2152e-14
1.10547e-15
2.16006e-14
1.13021e-15
2.10365e-14
1.15674e-15
2.04593e-14
1.18413e-15
1.9869e-14
1.21163e-15
1.92658e-14
1.23861e-15
1.86501e-14
1.26462e-15
1.80227e-14
1.2893e-15
1.73843e-14
1.31239e-15
1.67357e-14
1.33373e-15
1.6078e-14
1.35322e-15
1.54119e-14
1.37083e-15
1.47385e-14
1.38656e-15
1.40585e-14
1.40047e-15
1.3373e-14
1.41264e-15
1.26826e-14
1.42315e-15
1.19882e-14
1.43212e-15
1.12904e-14
1.43967e-15
1.05898e-14
1.44593e-15
9.88703e-15
1.45102e-15
9.18258e-15
1.45506e-15
8.47688e-15
1.45817e-15
7.77031e-15
1.46045e-15
7.06323e-15
1.46201e-15
6.35592e-15
1.46292e-15
5.64864e-15
1.46328e-15
4.94161e-15
1.46313e-15
4.23502e-15
1.46253e-15
3.52904e-15
1.4615e-15
2.82381e-15
1.4601e-15
2.11945e-15
1.45844e-15
1.41611e-15
1.45679e-15
7.14445e-16
1.45558e-15
1.45492e-15
-4.80756e-08
1.31147e-07
-7.15097e-08
9.59913e-08
-1.01492e-07
6.43762e-08
-9.3361e-08
2.23986e-08
-1.09156e-07
6.16928e-09
-7.44646e-08
-1.77432e-08
-8.28506e-08
-4.91947e-08
-5.84766e-08
-3.37146e-08
-3.97304e-08
-3.84862e-08
-1.001e-08
-4.18214e-08
2.98135e-09
-1.50113e-08
1.14653e-08
-6.09707e-10
1.83078e-08
-4.01447e-09
1.04557e-08
1.42316e-08
-8.08037e-09
2.28174e-08
-2.66134e-08
1.61777e-08
-3.67449e-08
3.73543e-09
-4.02634e-08
-1.04199e-08
-3.39542e-08
-3.2405e-08
-2.64011e-08
-4.31003e-08
-9.34182e-09
-5.05214e-08
1.47639e-11
-4.30805e-08
4.09269e-14
4.97385e-14
5.44581e-14
3.567e-14
5.74296e-14
2.92346e-14
5.52983e-14
2.30899e-14
5.17279e-14
1.80761e-14
4.80984e-14
1.43337e-14
4.48162e-14
1.15857e-14
4.1955e-14
9.53305e-15
3.94895e-14
7.95559e-15
3.73716e-14
6.70829e-15
3.55526e-14
5.69889e-15
3.3989e-14
4.86883e-15
3.26422e-14
4.18027e-15
3.14786e-14
3.60791e-15
3.04678e-14
3.13385e-15
2.95833e-14
2.74445e-15
2.88013e-14
2.42858e-15
2.81009e-14
2.17656e-15
2.74642e-14
1.97974e-15
2.68755e-14
1.83023e-15
2.63218e-14
1.72086e-15
2.5792e-14
1.64519e-15
2.5277e-14
1.59746e-15
2.47695e-14
1.57261e-15
2.42634e-14
1.56622e-15
2.37542e-14
1.57445e-15
2.32381e-14
1.59403e-15
2.27125e-14
1.62213e-15
2.21754e-14
1.65639e-15
2.16256e-14
1.69479e-15
2.10624e-14
1.73566e-15
2.04854e-14
1.77764e-15
1.98948e-14
1.81959e-15
1.92909e-14
1.86064e-15
1.86742e-14
1.90009e-15
1.80456e-14
1.93744e-15
1.74058e-14
1.97232e-15
1.67559e-14
2.00449e-15
1.60966e-14
2.03383e-15
1.54291e-14
2.06028e-15
1.47543e-14
2.08389e-15
1.40731e-14
2.10473e-15
1.33863e-14
2.12292e-15
1.26947e-14
2.13862e-15
1.19992e-14
2.152e-15
1.13005e-14
2.16324e-15
1.0599e-14
2.17254e-15
9.89553e-15
2.18009e-15
9.19041e-15
2.18607e-15
8.48412e-15
2.19065e-15
7.77706e-15
2.19401e-15
7.06954e-15
2.19628e-15
6.36185e-15
2.19762e-15
5.65423e-15
2.19812e-15
4.94687e-15
2.1979e-15
4.23994e-15
2.19702e-15
3.53359e-15
2.19557e-15
2.8279e-15
2.19361e-15
2.12297e-15
2.19127e-15
1.41892e-15
2.18878e-15
7.16077e-16
2.18638e-15
2.18475e-15
-2.57575e-08
1.56873e-07
-5.71731e-08
1.2735e-07
-8.53654e-08
9.2519e-08
-8.23849e-08
1.93678e-08
-8.57284e-08
9.46322e-09
-5.74074e-08
-4.61129e-08
-6.42668e-08
-4.23844e-08
-4.61057e-08
-5.1925e-08
-1.93975e-08
-6.52437e-08
7.98424e-09
-6.92526e-08
1.96314e-08
-2.67078e-08
3.35145e-08
-1.45417e-08
3.66698e-08
-7.21858e-09
3.65316e-08
1.43208e-08
2.80619e-08
3.12384e-08
1.7646e-08
2.6545e-08
4.09936e-10
2.09228e-08
-1.99259e-08
9.86706e-09
-2.92189e-08
-2.3161e-08
-2.52949e-08
-4.70732e-08
-1.34739e-08
-6.23913e-08
9.96486e-10
-5.75893e-08
2.8822e-14
9.82325e-10
4.88359e-14
1.56233e-14
5.20556e-14
2.59528e-14
5.09138e-14
2.41801e-14
4.84577e-14
2.04871e-14
4.56998e-14
1.70511e-14
4.30268e-14
1.42225e-14
4.05816e-14
1.19464e-14
3.84048e-14
1.01045e-14
3.64947e-14
8.59439e-15
3.48322e-14
7.3409e-15
3.33919e-14
6.29191e-15
3.21464e-14
5.41161e-15
3.10682e-14
4.67467e-15
3.01312e-14
4.06213e-15
2.93106e-14
3.55866e-15
2.85841e-14
3.15093e-15
2.79317e-14
2.82686e-15
2.73361e-14
2.57523e-15
2.67823e-14
2.38566e-15
2.62578e-14
2.24863e-15
2.57523e-14
2.15557e-15
2.52572e-14
2.09885e-15
2.47657e-14
2.07176e-15
2.42724e-14
2.06847e-15
2.3773e-14
2.08396e-15
2.32643e-14
2.11391e-15
2.27441e-14
2.15465e-15
2.22107e-14
2.20308e-15
2.16632e-14
2.25658e-15
2.1101e-14
2.31298e-15
2.05242e-14
2.3705e-15
1.99329e-14
2.42768e-15
1.93277e-14
2.48338e-15
1.87094e-14
2.53672e-15
1.80788e-14
2.58705e-15
1.74369e-14
2.63392e-15
1.67846e-14
2.67703e-15
1.61231e-14
2.71625e-15
1.54533e-14
2.75153e-15
1.47762e-14
2.78294e-15
1.40929e-14
2.8106e-15
1.34041e-14
2.83469e-15
1.27107e-14
2.85543e-15
1.20136e-14
2.87306e-15
1.13133e-14
2.88784e-15
1.06105e-14
2.90003e-15
9.90574e-15
2.90988e-15
9.19955e-15
2.91765e-15
8.49234e-15
2.92357e-15
7.78446e-15
2.92788e-15
7.07624e-15
2.93076e-15
6.36794e-15
2.93242e-15
5.65977e-15
2.933e-15
4.95191e-15
2.93266e-15
4.2445e-15
2.93149e-15
3.53764e-15
2.92962e-15
2.83139e-15
2.92716e-15
2.12576e-15
2.92427e-15
1.42087e-15
2.92108e-15
7.17448e-16
2.91725e-15
2.91589e-15
-3.36532e-08
1.90493e-07
-4.11929e-08
1.34833e-07
-3.79281e-08
8.92043e-08
-5.24144e-08
3.38046e-08
-4.92797e-08
6.27911e-09
-4.23995e-08
-5.3042e-08
-2.56455e-08
-5.91874e-08
4.24465e-09
-8.18644e-08
2.08827e-08
-8.19309e-08
2.44414e-08
-7.28602e-08
3.79675e-08
-4.02825e-08
4.53461e-08
-2.19687e-08
4.74701e-08
-9.39095e-09
5.2782e-08
8.96077e-09
4.833e-08
3.56423e-08
3.62862e-08
3.85406e-08
2.01912e-08
3.69696e-08
-3.22221e-10
3.03322e-08
-2.27314e-08
-8.00158e-10
-2.75792e-08
-4.22739e-08
-2.26964e-08
-6.73225e-08
-6.52624e-09
-7.37957e-08
1.73977e-12
-5.55994e-09
5.79466e-14
4.79972e-14
5.05238e-14
3.33536e-14
4.76897e-14
2.69679e-14
4.54564e-14
2.26764e-14
4.32301e-14
1.92372e-14
4.10407e-14
1.63758e-14
3.89755e-14
1.39795e-14
3.7089e-14
1.1963e-14
3.54031e-14
1.02558e-14
3.39192e-14
8.80384e-15
3.26262e-14
7.56724e-15
3.15058e-14
6.51729e-15
3.05361e-14
5.63231e-15
2.96942e-14
4.89468e-15
2.89571e-14
4.28874e-15
2.83035e-14
3.79972e-15
2.77143e-14
3.41337e-15
2.71727e-14
3.11599e-15
2.66647e-14
2.89466e-15
2.61785e-14
2.73748e-15
2.57046e-14
2.6337e-15
2.52353e-14
2.57385e-15
2.47645e-14
2.54961e-15
2.42875e-14
2.55382e-15
2.38008e-14
2.58031e-15
2.33016e-14
2.62384e-15
2.27881e-14
2.67994e-15
2.22592e-14
2.74482e-15
2.17143e-14
2.81533e-15
2.11532e-14
2.88883e-15
2.05762e-14
2.96315e-15
1.99838e-14
3.03657e-15
1.93767e-14
3.1077e-15
1.8756e-14
3.1755e-15
1.81225e-14
3.23922e-15
1.74775e-14
3.29834e-15
1.68221e-14
3.35254e-15
1.61573e-14
3.40168e-15
1.54843e-14
3.44575e-15
1.48042e-14
3.48487e-15
1.41179e-14
3.51921e-15
1.34264e-14
3.54902e-15
1.27305e-14
3.57461e-15
1.2031e-14
3.59628e-15
1.13286e-14
3.61438e-15
1.0624e-14
3.62924e-15
9.91756e-15
3.64119e-15
9.20991e-15
3.65055e-15
8.50142e-15
3.65763e-15
7.79244e-15
3.66272e-15
7.08326e-15
3.66607e-15
6.37413e-15
3.66793e-15
5.66523e-15
3.66849e-15
4.95673e-15
3.66794e-15
4.24873e-15
3.66644e-15
3.54129e-15
3.66414e-15
2.83443e-15
3.6612e-15
2.12814e-15
3.65781e-15
1.42267e-15
3.65385e-15
7.18729e-16
3.64856e-15
3.64823e-15
2.51522e-09
1.87947e-07
-1.66615e-08
1.53951e-07
-2.72472e-08
9.9741e-08
-3.7231e-08
4.37398e-08
-2.9533e-08
-1.4678e-09
-3.20056e-08
-5.06181e-08
-1.6209e-09
-8.96211e-08
1.77759e-08
-1.0131e-07
3.34432e-08
-9.7647e-08
4.7605e-08
-8.707e-08
6.51516e-08
-5.78769e-08
6.66161e-08
-2.34812e-08
6.65233e-08
-9.34624e-09
5.8382e-08
1.70541e-08
6.16515e-08
3.23251e-08
5.61012e-08
4.40435e-08
4.51339e-08
4.78894e-08
3.17461e-08
4.36724e-08
5.24883e-09
2.56493e-08
-1.68576e-08
-2.02148e-08
-2.48991e-08
-5.93284e-08
-3.38325e-08
-6.49006e-08
1.58487e-11
-3.9435e-08
4.51129e-14
4.79948e-14
4.49361e-14
3.35079e-14
4.39383e-14
2.79193e-14
4.24513e-14
2.41197e-14
4.07308e-14
2.09177e-14
3.89485e-14
1.81219e-14
3.72156e-14
1.56801e-14
3.55997e-14
1.35504e-14
3.41369e-14
1.16937e-14
3.28413e-14
1.00779e-14
3.17113e-14
8.67884e-15
3.07349e-14
7.47813e-15
2.9894e-14
6.4605e-15
2.9167e-14
5.61144e-15
2.8532e-14
4.91592e-15
2.7968e-14
4.35805e-15
2.74564e-14
3.9214e-15
2.69812e-14
3.58957e-15
2.65291e-14
3.3469e-15
2.60895e-14
3.17894e-15
2.56539e-14
3.07277e-15
2.52157e-14
3.01704e-15
2.47697e-14
3.00194e-15
2.43122e-14
3.01903e-15
2.38403e-14
3.06115e-15
2.33521e-14
3.12217e-15
2.28464e-14
3.19693e-15
2.23225e-14
3.28105e-15
2.17803e-14
3.37088e-15
2.12201e-14
3.46337e-15
2.06424e-14
3.55604e-15
2.00482e-14
3.6469e-15
1.94384e-14
3.73439e-15
1.88142e-14
3.81735e-15
1.8177e-14
3.89492e-15
1.75278e-14
3.96658e-15
1.68682e-14
4.03201e-15
1.61992e-14
4.09109e-15
1.55221e-14
4.14389e-15
1.4838e-14
4.19056e-15
1.41479e-14
4.23138e-15
1.34529e-14
4.26668e-15
1.27538e-14
4.29685e-15
1.20514e-14
4.3223e-15
1.13463e-14
4.34343e-15
1.06393e-14
4.36069e-15
9.93081e-15
4.37447e-15
9.22132e-15
4.38518e-15
8.51122e-15
4.39319e-15
7.80086e-15
4.39885e-15
7.09049e-15
4.40247e-15
6.38034e-15
4.40435e-15
5.67057e-15
4.40475e-15
4.96131e-15
4.40389e-15
4.25263e-15
4.40197e-15
3.54458e-15
4.39918e-15
2.83718e-15
4.39569e-15
2.13046e-15
4.3917e-15
1.42448e-15
4.38708e-15
7.19252e-16
4.38104e-15
4.38105e-15
-6.38649e-09
1.94302e-07
-1.632e-08
1.63828e-07
-1.88638e-08
1.02237e-07
-2.11148e-08
4.5943e-08
-5.67601e-09
-1.69552e-08
7.8446e-09
-6.41873e-08
3.20186e-08
-1.13844e-07
4.83493e-08
-1.17689e-07
5.97606e-08
-1.09106e-07
6.67427e-08
-9.40992e-08
7.71813e-08
-6.83627e-08
7.88737e-08
-2.52209e-08
7.40325e-08
-4.55277e-09
6.34134e-08
2.76258e-08
5.80304e-08
3.76612e-08
5.75442e-08
4.4483e-08
5.17805e-08
5.36066e-08
4.45468e-08
5.08591e-08
3.27276e-08
3.74215e-08
9.48529e-09
2.98178e-09
-8.13711e-09
-4.17509e-08
-1.48803e-08
-5.82018e-08
1.3453e-11
-5.43657e-08
3.24152e-14
1.79695e-13
4.00441e-14
2.58568e-14
4.06165e-14
2.72995e-14
3.96533e-14
2.50383e-14
3.82885e-14
2.2242e-14
3.68159e-14
1.9558e-14
3.5356e-14
1.71074e-14
3.39787e-14
1.48987e-14
3.27265e-14
1.29204e-14
3.16203e-14
1.11618e-14
3.06637e-14
9.61621e-15
2.98474e-14
8.27804e-15
2.91538e-14
7.14042e-15
2.8561e-14
6.19304e-15
2.80462e-14
5.42181e-15
2.75882e-14
4.80947e-15
2.71681e-14
4.33686e-15
2.67707e-14
3.98429e-15
2.63839e-14
3.73292e-15
2.59982e-14
3.56552e-15
2.56067e-14
3.46689e-15
2.52039e-14
3.4239e-15
2.4786e-14
3.42531e-15
2.43504e-14
3.46159e-15
2.3895e-14
3.52468e-15
2.34189e-14
3.60775e-15
2.29214e-14
3.70501e-15
2.24026e-14
3.81159e-15
2.18629e-14
3.92341e-15
2.13029e-14
4.03709e-15
2.07238e-14
4.14987e-15
2.01268e-14
4.25955e-15
1.95132e-14
4.36444e-15
1.88846e-14
4.4633e-15
1.82423e-14
4.55524e-15
1.7588e-14
4.63973e-15
1.6923e-14
4.7165e-15
1.62487e-14
4.78551e-15
1.55665e-14
4.8469e-15
1.48775e-14
4.90092e-15
1.41828e-14
4.94795e-15
1.34835e-14
4.98843e-15
1.27805e-14
5.02285e-15
1.20745e-14
5.05171e-15
1.13662e-14
5.07554e-15
1.06563e-14
5.09485e-15
9.94528e-15
5.11014e-15
9.23358e-15
5.12188e-15
8.52157e-15
5.13053e-15
7.80956e-15
5.13649e-15
7.0978e-15
5.14015e-15
6.38646e-15
5.14186e-15
5.67568e-15
5.14191e-15
4.96557e-15
5.14059e-15
4.25616e-15
5.13813e-15
3.54749e-15
5.13474e-15
2.83958e-15
5.1306e-15
2.13247e-15
5.12588e-15
1.42599e-15
5.12069e-15
7.19486e-16
5.1148e-15
5.11406e-15
-1.11082e-08
2.0538e-07
-1.42925e-08
1.66956e-07
-1.77723e-08
1.05669e-07
2.07932e-09
2.60441e-08
2.1388e-08
-3.63117e-08
3.77257e-08
-8.05729e-08
4.79855e-08
-1.24151e-07
6.59259e-08
-1.35677e-07
7.44549e-08
-1.17681e-07
7.90922e-08
-9.87828e-08
8.19326e-08
-7.12493e-08
7.80333e-08
-2.13684e-08
6.47393e-08
8.69431e-09
5.73145e-08
3.5004e-08
5.62371e-08
3.86928e-08
5.50433e-08
4.5631e-08
5.20796e-08
5.65245e-08
4.82975e-08
5.45953e-08
4.10086e-08
4.46644e-08
2.0557e-08
2.33874e-08
6.12128e-09
-2.73612e-08
2.23563e-09
-5.43606e-08
1.19259e-09
-5.33575e-08
5.02622e-14
1.18042e-09
4.13213e-14
3.47276e-14
3.86435e-14
2.99412e-14
3.72105e-14
2.64271e-14
3.59437e-14
2.34678e-14
3.46751e-14
2.07894e-14
3.34265e-14
1.83227e-14
3.22507e-14
1.60449e-14
3.11906e-14
1.39541e-14
3.02705e-14
1.20587e-14
2.94953e-14
1.03712e-14
2.88544e-14
8.90154e-15
2.83271e-14
7.65288e-15
2.78883e-14
6.61945e-15
2.75125e-14
5.78759e-15
2.71765e-14
5.13758e-15
2.68614e-14
4.6462e-15
2.65524e-14
4.28941e-15
2.6239e-14
4.04442e-15
2.59134e-14
3.8909e-15
2.55703e-14
3.81135e-15
2.52063e-14
3.79093e-15
2.4819e-14
3.81722e-15
2.44067e-14
3.87978e-15
2.39689e-14
3.96985e-15
2.35052e-14
4.08003e-15
2.3016e-14
4.20408e-15
2.25018e-14
4.33671e-15
2.19638e-14
4.47351e-15
2.14033e-14
4.61082e-15
2.08216e-14
4.74565e-15
2.02206e-14
4.87567e-15
1.96019e-14
4.99909e-15
1.89675e-14
5.11463e-15
1.83189e-14
5.22143e-15
1.7658e-14
5.31902e-15
1.69865e-14
5.40721e-15
1.63058e-14
5.48606e-15
1.56173e-14
5.55582e-15
1.49224e-14
5.61689e-15
1.42222e-14
5.66978e-15
1.35179e-14
5.71504e-15
1.28101e-14
5.75328e-15
1.20999e-14
5.78513e-15
1.13879e-14
5.81123e-15
1.06747e-14
5.83218e-15
9.96071e-15
5.84857e-15
9.24646e-15
5.86098e-15
8.53225e-15
5.86992e-15
7.81836e-15
5.87587e-15
7.10501e-15
5.87929e-15
6.39234e-15
5.88056e-15
5.68045e-15
5.88005e-15
4.96942e-15
5.87808e-15
4.25926e-15
5.87492e-15
3.54996e-15
5.87081e-15
2.84151e-15
5.86593e-15
2.13388e-15
5.86045e-15
1.42694e-15
5.85463e-15
7.19883e-16
5.84895e-15
5.84744e-15
-2.96684e-09
2.08317e-07
-4.80386e-10
1.64415e-07
-7.23161e-09
1.12373e-07
2.02704e-08
-1.5046e-09
3.49669e-08
-5.10553e-08
6.44538e-08
-1.10107e-07
8.07692e-08
-1.40514e-07
8.57522e-08
-1.40705e-07
8.59047e-08
-1.17879e-07
8.44394e-08
-9.73631e-08
7.81857e-08
-6.50418e-08
7.03306e-08
-1.35597e-08
5.64854e-08
2.24933e-08
5.10298e-08
4.04139e-08
4.74612e-08
4.22161e-08
4.73165e-08
4.57303e-08
4.68248e-08
5.69711e-08
4.49619e-08
5.64133e-08
3.91146e-08
5.04673e-08
2.80238e-08
3.44343e-08
8.40863e-09
-7.79018e-09
-6.21228e-09
-3.97832e-08
-1.05378e-09
-5.85506e-08
2.14338e-12
1.10939e-10
3.71275e-14
4.7473e-14
3.55702e-14
3.1477e-14
3.46247e-14
2.73292e-14
3.36037e-14
2.44472e-14
3.252e-14
2.18353e-14
3.14362e-14
1.93724e-14
3.04236e-14
1.70271e-14
2.95344e-14
1.48161e-14
2.8796e-14
1.27729e-14
2.82114e-14
1.09344e-14
2.77638e-14
9.33052e-15
2.74248e-14
7.97579e-15
2.71623e-14
6.86824e-15
2.69454e-14
5.99298e-15
2.67482e-14
5.32561e-15
2.65507e-14
4.83653e-15
2.63395e-14
4.49545e-15
2.61059e-14
4.27466e-15
2.58449e-14
4.15039e-15
2.55536e-14
4.1029e-15
2.52304e-14
4.11598e-15
2.48747e-14
4.17631e-15
2.44865e-14
4.27284e-15
2.40663e-14
4.39638e-15
2.36148e-14
4.53918e-15
2.31331e-14
4.69466e-15
2.26228e-14
4.85725e-15
2.20853e-14
5.02226e-15
2.15228e-14
5.18582e-15
2.09371e-14
5.3448e-15
2.03305e-14
5.49674e-15
1.97052e-14
5.63985e-15
1.90633e-14
5.77285e-15
1.84069e-14
5.89498e-15
1.7738e-14
6.00586e-15
1.70585e-14
6.10544e-15
1.63701e-14
6.19394e-15
1.56743e-14
6.27177e-15
1.49725e-14
6.33949e-15
1.42659e-14
6.39776e-15
1.35556e-14
6.44729e-15
1.28425e-14
6.48884e-15
1.21274e-14
6.52316e-15
1.14111e-14
6.55101e-15
1.06941e-14
6.57311e-15
9.97678e-15
6.59014e-15
9.25965e-15
6.60277e-15
8.54298e-15
6.6116e-15
7.82701e-15
6.61717e-15
7.11191e-15
6.62001e-15
6.39779e-15
6.62056e-15
5.68473e-15
6.61923e-15
4.97275e-15
6.61638e-15
4.26182e-15
6.61234e-15
3.55191e-15
6.60736e-15
2.84296e-15
6.60166e-15
2.13488e-15
6.59543e-15
1.42741e-15
6.58899e-15
7.20174e-16
6.58313e-15
6.58107e-15
9.84641e-10
2.07303e-07
8.89397e-09
1.56454e-07
8.525e-09
1.12696e-07
3.80499e-08
-3.10759e-08
6.11784e-08
-7.42301e-08
7.74058e-08
-1.2638e-07
8.70697e-08
-1.50223e-07
9.11281e-08
-1.44808e-07
8.20473e-08
-1.08843e-07
6.78179e-08
-8.31798e-08
4.76331e-08
-4.49028e-08
4.29974e-08
-8.96998e-09
4.49977e-08
2.04475e-08
3.87438e-08
4.66226e-08
3.62826e-08
4.46323e-08
3.87625e-08
4.32055e-08
4.05024e-08
5.51865e-08
3.91826e-08
5.76887e-08
3.65605e-08
5.30456e-08
2.94122e-08
4.15397e-08
9.60433e-09
1.19749e-08
-5.49372e-09
-2.4727e-08
-2.38754e-08
-4.02036e-08
7.94708e-10
-2.45823e-08
2.32651e-14
7.80913e-10
3.19433e-14
2.27705e-14
3.2108e-14
2.71203e-14
3.13224e-14
2.51907e-14
3.03681e-14
2.27511e-14
2.93865e-14
2.03188e-14
2.84908e-14
1.78912e-14
2.77483e-14
1.55303e-14
2.71889e-14
1.33069e-14
2.68096e-14
1.12911e-14
2.658e-14
9.54006e-15
2.64573e-14
8.08103e-15
2.6398e-14
6.9123e-15
2.6363e-14
6.01497e-15
2.63217e-14
5.35619e-15
2.62536e-14
4.89595e-15
2.61475e-14
4.59487e-15
2.59983e-14
4.41908e-15
2.58044e-14
4.34134e-15
2.55659e-14
4.34015e-15
2.5284e-14
4.39843e-15
2.49599e-14
4.50248e-15
2.45953e-14
4.64107e-15
2.4192e-14
4.80491e-15
2.37516e-14
4.9861e-15
2.32763e-14
5.17792e-15
2.27682e-14
5.3746e-15
2.22296e-14
5.57126e-15
2.16632e-14
5.76386e-15
2.10716e-14
5.94914e-15
2.04575e-14
6.12465e-15
1.98236e-14
6.28858e-15
1.91724e-14
6.43977e-15
1.85065e-14
6.57759e-15
1.7828e-14
6.70183e-15
1.7139e-14
6.81266e-15
1.64415e-14
6.91049e-15
1.57371e-14
6.99594e-15
1.50273e-14
7.06976e-15
1.43133e-14
7.13282e-15
1.35962e-14
7.18601e-15
1.2877e-14
7.23023e-15
1.21565e-14
7.26639e-15
1.14353e-14
7.29538e-15
1.07141e-14
7.31805e-15
9.9931e-15
7.33518e-15
9.27281e-15
7.34753e-15
8.55346e-15
7.35577e-15
7.83523e-15
7.36055e-15
7.11826e-15
7.36243e-15
6.40262e-15
7.36191e-15
5.68833e-15
7.35947e-15
4.97538e-15
7.35549e-15
4.26372e-15
7.35034e-15
3.55325e-15
7.34431e-15
2.84388e-15
7.33766e-15
2.13544e-15
7.33061e-15
1.42767e-15
7.32356e-15
7.20178e-16
7.31743e-15
7.31463e-15
4.49245e-09
2.02782e-07
2.35578e-08
1.37337e-07
3.31831e-08
1.03024e-07
4.66564e-08
-4.45946e-08
6.85585e-08
-9.61775e-08
8.47243e-08
-1.42591e-07
9.15471e-08
-1.5709e-07
8.56457e-08
-1.3895e-07
7.38707e-08
-9.71125e-08
5.05705e-08
-5.99253e-08
3.04892e-08
-2.48668e-08
2.31456e-08
-1.67154e-09
1.50448e-08
2.85036e-08
2.2677e-08
3.89461e-08
2.70097e-08
4.02555e-08
2.46858e-08
4.5485e-08
2.72336e-08
5.25945e-08
2.95387e-08
5.53398e-08
2.94396e-08
5.31017e-08
2.77772e-08
4.31597e-08
1.70824e-08
2.26275e-08
9.29233e-09
-1.69784e-08
-1.88461e-09
-2.90683e-08
6.36082e-09
-3.28625e-08
1.21047e-12
7.12807e-09
3.57863e-14
4.80111e-14
3.04294e-14
3.2456e-14
2.91927e-14
2.63859e-14
2.8243e-14
2.36614e-14
2.72643e-14
2.12608e-14
2.64263e-14
1.86961e-14
2.5804e-14
1.61229e-14
2.54264e-14
1.36575e-14
2.52789e-14
1.14141e-14
2.53049e-14
9.49238e-15
2.54362e-14
7.9306e-15
2.56144e-14
6.71725e-15
2.5788e-14
5.82649e-15
2.59203e-14
5.21145e-15
2.59914e-14
4.81458e-15
2.59948e-14
4.58315e-15
2.59312e-14
4.47624e-15
2.58041e-14
4.46387e-15
2.56176e-14
4.52393e-15
2.53755e-14
4.63945e-15
2.50816e-14
4.79705e-15
2.47391e-14
4.98589e-15
2.4351e-14
5.19694e-15
2.392e-14
5.42246e-15
2.3449e-14
5.6557e-15
2.2941e-14
5.89079e-15
2.23991e-14
6.12268e-15
2.18265e-14
6.34719e-15
2.12266e-14
6.56101e-15
2.06026e-14
6.76167e-15
1.99578e-14
6.9475e-15
1.92952e-14
7.11748e-15
1.86176e-14
7.27121e-15
1.79277e-14
7.40873e-15
1.72277e-14
7.53048e-15
1.65196e-14
7.63714e-15
1.58053e-14
7.72958e-15
1.50863e-14
7.80882e-15
1.43639e-14
7.87592e-15
1.36392e-14
7.93199e-15
1.29132e-14
7.97812e-15
1.21867e-14
8.01539e-15
1.14602e-14
8.04482e-15
1.07342e-14
8.06739e-15
1.00093e-14
8.08399e-15
9.28555e-15
8.09548e-15
8.56331e-15
8.10262e-15
7.84269e-15
8.10612e-15
7.12377e-15
8.10661e-15
6.40655e-15
8.10465e-15
5.69103e-15
8.10076e-15
4.97714e-15
8.09537e-15
4.26478e-15
8.08888e-15
3.55382e-15
8.0816e-15
2.8441e-15
8.07384e-15
2.13542e-15
8.06587e-15
1.42754e-15
8.05811e-15
7.20142e-16
8.05151e-15
8.04806e-15
1.69769e-08
1.85775e-07
2.01329e-08
1.3413e-07
4.78737e-08
7.52386e-08
5.55635e-08
-5.23285e-08
7.42814e-08
-1.1494e-07
7.90621e-08
-1.47417e-07
6.50064e-08
-1.4308e-07
4.74364e-08
-1.21426e-07
2.23571e-08
-7.20782e-08
8.72314e-09
-4.6336e-08
-8.05835e-09
-8.12951e-09
-2.30001e-08
1.32262e-08
-1.42862e-08
1.97459e-08
-1.06446e-09
2.56809e-08
6.62406e-09
3.25236e-08
1.0447e-08
4.16188e-08
1.44811e-08
4.85172e-08
1.89179e-08
5.08602e-08
2.31562e-08
4.88212e-08
2.73324e-08
3.89418e-08
2.2042e-08
2.78765e-08
6.67414e-09
-1.65134e-09
-5.53314e-09
-1.69013e-08
-1.08953e-08
-2.75331e-08
1.43063e-09
-5.21851e-09
2.24508e-14
1.41777e-09
2.51136e-14
2.97613e-14
2.68125e-14
2.46442e-14
2.61453e-14
2.42887e-14
2.50214e-14
2.23472e-14
2.41753e-14
1.95076e-14
2.36473e-14
1.66194e-14
2.34643e-14
1.38118e-14
2.35988e-14
1.12527e-14
2.394e-14
9.12744e-15
2.43762e-14
7.47333e-15
2.48365e-14
6.23801e-15
2.52514e-14
5.39463e-15
2.55745e-14
4.87397e-15
2.57901e-14
4.5868e-15
2.59022e-14
4.46095e-15
2.59211e-14
4.44915e-15
2.58572e-14
4.52154e-15
2.5719e-14
4.65766e-15
2.55137e-14
4.84215e-15
2.5247e-14
5.06282e-15
2.49239e-14
5.30983e-15
2.45485e-14
5.57488e-15
2.41243e-14
5.85066e-15
2.36551e-14
6.13052e-15
2.31445e-14
6.40847e-15
2.25963e-14
6.67929e-15
2.20146e-14
6.93866e-15
2.14034e-14
7.18323e-15
2.07667e-14
7.41059e-15
2.01083e-14
7.61923e-15
1.94318e-14
7.80842e-15
1.87404e-14
7.97806e-15
1.80369e-14
8.12856e-15
1.7324e-14
8.26067e-15
1.66038e-14
8.37544e-15
1.58782e-14
8.47404e-15
1.51488e-14
8.55779e-15
1.44171e-14
8.62802e-15
1.36839e-14
8.68606e-15
1.29504e-14
8.73321e-15
1.22172e-14
8.77072e-15
1.14849e-14
8.79977e-15
1.0754e-14
8.82147e-15
1.00247e-14
8.83684e-15
9.2974e-15
8.84682e-15
8.57214e-15
8.85226e-15
7.84904e-15
8.85395e-15
7.12811e-15
8.85258e-15
6.40932e-15
8.84876e-15
5.6926e-15
8.84305e-15
4.97783e-15
8.83594e-15
4.26486e-15
8.82784e-15
3.55349e-15
8.81912e-15
2.84352e-15
8.8101e-15
2.13473e-15
8.80106e-15
1.42697e-15
8.79237e-15
7.20116e-16
8.78488e-15
8.78138e-15
9.59124e-09
1.76155e-07
8.2565e-09
1.35414e-07
5.64079e-08
2.70434e-08
5.99124e-08
-5.58768e-08
6.24277e-08
-1.17498e-07
5.25765e-08
-1.3761e-07
3.8107e-08
-1.28655e-07
1.48681e-08
-9.82312e-08
-3.98406e-09
-5.32701e-08
-2.81824e-08
-2.21817e-08
-3.72736e-08
9.17946e-10
-3.13644e-08
7.27402e-09
-2.55199e-08
1.38585e-08
-1.84004e-08
1.85189e-08
-1.43846e-08
2.84655e-08
-7.57455e-09
3.47666e-08
-6.80662e-10
4.15813e-08
8.03223e-09
4.21056e-08
1.93059e-08
3.75062e-08
2.58966e-08
3.23102e-08
3.16136e-08
2.2119e-08
2.95785e-08
3.43891e-10
2.10726e-08
-8.4344e-09
7.27036e-09
-1.37703e-08
8.8449e-09
-6.82545e-09
3.39663e-10
9.91055e-09
2.07005e-14
3.37767e-10
2.65123e-14
1.87909e-14
2.44501e-14
2.631e-14
2.25368e-14
2.42218e-14
2.16476e-14
2.03606e-14
2.11903e-14
1.70427e-14
2.12259e-14
1.37458e-14
2.1741e-14
1.07071e-14
2.24948e-14
8.34693e-15
2.32972e-14
6.64706e-15
2.41004e-14
5.41367e-15
2.47975e-14
4.67735e-15
2.53247e-14
4.32989e-15
2.56813e-14
4.21589e-15
2.58928e-14
4.23732e-15
2.59851e-14
4.34692e-15
2.59766e-14
4.52194e-15
2.58805e-14
4.74756e-15
2.57066e-14
5.01162e-15
2.54629e-14
5.30397e-15
2.51555e-14
5.61641e-15
2.47895e-14
5.94189e-15
2.4369e-14
6.27375e-15
2.38983e-14
6.6055e-15
2.33817e-14
6.93093e-15
2.28237e-14
7.24454e-15
2.22293e-14
7.54178e-15
2.16034e-14
7.81924e-15
2.09506e-14
8.07467e-15
2.02755e-14
8.30684e-15
1.95822e-14
8.51539e-15
1.88744e-14
8.70066e-15
1.81551e-14
8.86351e-15
1.74273e-14
9.00515e-15
1.66933e-14
9.12702e-15
1.5955e-14
9.23071e-15
1.52141e-14
9.31786e-15
1.4472e-14
9.39009e-15
1.37296e-14
9.449e-15
1.29879e-14
9.49611e-15
1.22476e-14
9.53287e-15
1.1509e-14
9.56062e-15
1.07728e-14
9.58059e-15
1.0039e-14
9.59393e-15
9.30787e-15
9.60168e-15
8.57949e-15
9.60478e-15
7.85386e-15
9.60407e-15
7.13093e-15
9.60031e-15
6.41062e-15
9.59418e-15
5.69278e-15
9.58625e-15
4.97723e-15
9.57707e-15
4.26377e-15
9.56709e-15
3.55216e-15
9.55669e-15
2.84212e-15
9.54624e-15
2.13341e-15
9.53598e-15
1.42596e-15
9.52614e-15
7.19895e-16
9.51728e-15
9.51438e-15
1.44203e-08
1.61707e-07
1.42174e-08
1.35568e-07
4.8965e-08
-7.74689e-09
6.38963e-08
-7.08511e-08
6.71047e-08
-1.2075e-07
4.93615e-08
-1.1991e-07
1.78915e-08
-9.72285e-08
-8.34447e-09
-7.20387e-08
-3.22389e-08
-2.94188e-08
-4.26293e-08
-1.18343e-08
-4.0361e-08
-1.39331e-09
-3.70381e-08
3.90895e-09
-3.13335e-08
8.11188e-09
-3.09629e-08
1.81063e-08
-2.71846e-08
2.46459e-08
-2.04152e-08
2.79563e-08
-9.71962e-09
3.08448e-08
1.68637e-09
3.06587e-08
1.50205e-08
2.41317e-08
2.49623e-08
2.23285e-08
3.26283e-08
1.44134e-08
3.20423e-08
8.90687e-10
2.59168e-08
-2.34696e-09
1.30222e-08
-9.13684e-10
1.48787e-09
4.67763e-09
4.5161e-09
6.8625e-09
6.76108e-13
4.84134e-09
3.31269e-14
4.74824e-14
2.26244e-14
3.67929e-14
1.91551e-14
2.7653e-14
1.8742e-14
2.0736e-14
1.83039e-14
1.74435e-14
1.85678e-14
1.34514e-14
1.96789e-14
9.56149e-15
2.10105e-14
6.98448e-15
2.22203e-14
5.40926e-15
2.34584e-14
4.15226e-15
2.44958e-14
3.61532e-15
2.5227e-14
3.57831e-15
2.57016e-14
3.7238e-15
2.59898e-14
3.93461e-15
2.61388e-14
4.18588e-15
2.61741e-14
4.4766e-15
2.61111e-14
4.80235e-15
2.59617e-14
5.15478e-15
2.57354e-14
5.52592e-15
2.54395e-14
5.90992e-15
2.50791e-14
6.30162e-15
2.46587e-14
6.69527e-15
2.41826e-14
7.08435e-15
2.36559e-14
7.46215e-15
2.30839e-14
7.82258e-15
2.24726e-14
8.16074e-15
2.18277e-14
8.47316e-15
2.11549e-14
8.75782e-15
2.04595e-14
9.01389e-15
1.97462e-14
9.24157e-15
1.90191e-14
9.44179e-15
1.82816e-14
9.61599e-15
1.75369e-14
9.76594e-15
1.67873e-14
9.89361e-15
1.60349e-14
1.0001e-14
1.52812e-14
1.00902e-14
1.45277e-14
1.01631e-14
1.37753e-14
1.02216e-14
1.30248e-14
1.02674e-14
1.22768e-14
1.03023e-14
1.15317e-14
1.03277e-14
1.07899e-14
1.0345e-14
1.00514e-14
1.03554e-14
9.31639e-15
1.03602e-14
8.58485e-15
1.03602e-14
7.85671e-15
1.03565e-14
7.13184e-15
1.03497e-14
6.4101e-15
1.03408e-14
5.69127e-15
1.03302e-14
4.97511e-15
1.03186e-14
4.26136e-15
1.03064e-14
3.54973e-15
1.02941e-14
2.8399e-15
1.0282e-14
2.13157e-15
1.02703e-14
1.42463e-15
1.02592e-14
7.19121e-16
1.02489e-14
1.02465e-14
1.66255e-08
1.45054e-07
2.57639e-08
1.26382e-07
4.76765e-08
-2.97016e-08
6.12775e-08
-8.44941e-08
4.58565e-08
-1.05371e-07
2.19398e-08
-9.60367e-08
-7.63003e-09
-6.77019e-08
-3.71572e-08
-4.2555e-08
-5.77605e-08
-8.85884e-09
-5.64545e-08
-1.31829e-08
-5.38888e-08
-4.00109e-09
-4.97304e-08
-2.91094e-10
-3.82541e-08
-3.40546e-09
-3.73521e-08
1.71635e-08
-3.71661e-08
2.44195e-08
-2.42515e-08
1.50018e-08
-1.37755e-08
2.03288e-08
7.78506e-10
1.60645e-08
1.52446e-08
9.62633e-09
3.07639e-08
6.77039e-09
3.96522e-08
5.48604e-09
3.78287e-08
2.67553e-09
3.13355e-08
4.10896e-09
2.63545e-08
4.0301e-09
2.09842e-08
1.00106e-08
9.86268e-09
1.7954e-08
3.83253e-10
1.43031e-08
2.38147e-14
3.72278e-10
1.46016e-14
4.59836e-14
1.30918e-14
2.9125e-14
1.58571e-14
1.79329e-14
1.48065e-14
1.8451e-14
1.51649e-14
1.30671e-14
1.74305e-14
7.26387e-15
1.96371e-14
4.74567e-15
2.11228e-14
3.89018e-15
2.29913e-14
2.2605e-15
2.44666e-14
2.11039e-15
2.53573e-14
2.66311e-15
2.58884e-14
3.17079e-15
2.62111e-14
3.59395e-15
2.63937e-14
3.98857e-15
2.64588e-14
4.39913e-15
2.64186e-14
4.83234e-15
2.62852e-14
5.27994e-15
2.60699e-14
5.73495e-15
2.57806e-14
6.19497e-15
2.54221e-14
6.65786e-15