/*--------------------------------*- C++ -*----------------------------------*\
  =========                 |
  \\      /  F ield         | OpenFOAM: The Open Source CFD Toolbox
   \\    /   O peration     | Website:  https://openfoam.org
    \\  /    A nd           | Version:  6
     \\/     M anipulation  |
\*---------------------------------------------------------------------------*/
FoamFile
{
    version     2.0;
    format      ascii;
    class       volScalarField;
    location    "960";
    object      T;
}
// * * * * * * * * * * * * * * * * * * * * * * * * * * * * * * * * * * * * * //

dimensions      [0 0 0 1 0 0 0];

internalField   nonuniform List<scalar> 
5964
(
310.554
309.708
309.012
308.485
308.088
307.78
307.527
307.298
307.074
306.848
306.614
306.369
306.116
305.856
305.597
305.345
305.104
304.877
304.665
304.462
304.259
304.042
303.764
303.781
303.749
303.703
303.656
303.611
303.57
303.533
303.5
303.47
303.444
303.421
303.4
303.382
303.365
303.351
303.338
303.327
303.317
303.308
303.3
303.293
303.287
303.282
303.277
303.272
303.268
303.263
303.259
303.255
303.25
303.246
303.241
303.236
303.23
303.224
303.217
303.21
303.203
303.195
303.186
303.177
303.167
303.157
303.147
303.136
303.124
303.112
303.1
303.087
303.074
303.061
303.047
303.033
303.019
303.004
302.99
302.975
302.961
302.949
302.939
302.934
310.541
309.707
309.033
308.521
308.139
307.837
307.59
307.359
307.138
306.915
306.681
306.435
306.182
305.921
305.659
305.401
305.154
304.919
304.699
304.49
304.29
304.095
303.91
303.825
303.762
303.707
303.656
303.61
303.568
303.531
303.498
303.469
303.442
303.419
303.398
303.38
303.364
303.349
303.337
303.326
303.316
303.307
303.299
303.293
303.287
303.281
303.276
303.272
303.267
303.263
303.259
303.255
303.25
303.246
303.241
303.236
303.23
303.224
303.217
303.21
303.203
303.195
303.186
303.177
303.168
303.158
303.147
303.136
303.125
303.113
303.1
303.088
303.074
303.061
303.047
303.033
303.019
303.004
302.99
302.975
302.962
302.949
302.94
302.934
310.558
309.752
309.1
308.605
308.232
307.939
307.694
307.462
307.244
307.025
306.796
306.556
306.307
306.046
305.777
305.507
305.245
304.995
304.76
304.539
304.33
304.137
303.964
303.851
303.771
303.707
303.653
303.606
303.564
303.527
303.494
303.465
303.439
303.416
303.396
303.377
303.361
303.347
303.334
303.323
303.314
303.305
303.298
303.291
303.285
303.28
303.275
303.271
303.267
303.263
303.259
303.255
303.25
303.246
303.241
303.236
303.23
303.224
303.218
303.211
303.204
303.196
303.187
303.178
303.168
303.158
303.148
303.137
303.125
303.113
303.101
303.088
303.075
303.061
303.048
303.034
303.019
303.005
302.99
302.976
302.962
302.95
302.94
302.934
310.59
309.83
309.206
308.731
308.365
308.077
307.826
307.593
307.372
307.151
306.918
306.678
306.431
306.17
305.899
305.625
305.353
305.086
304.832
304.592
304.366
304.154
303.962
303.85
303.767
303.701
303.646
303.599
303.558
303.521
303.489
303.46
303.434
303.412
303.391
303.373
303.357
303.343
303.331
303.32
303.31
303.302
303.295
303.289
303.283
303.278
303.274
303.269
303.266
303.262
303.258
303.254
303.25
303.246
303.241
303.236
303.231
303.225
303.219
303.212
303.204
303.197
303.188
303.179
303.169
303.159
303.149
303.138
303.126
303.114
303.102
303.089
303.076
303.062
303.048
303.034
303.02
303.005
302.991
302.976
302.962
302.95
302.939
302.93
310.62
309.919
309.339
308.883
308.52
308.229
307.97
307.732
307.502
307.268
307.028
306.785
306.536
306.275
306.006
305.731
305.453
305.177
304.907
304.648
304.4
304.155
303.887
303.825
303.751
303.687
303.634
303.589
303.549
303.513
303.482
303.453
303.428
303.406
303.385
303.368
303.352
303.338
303.326
303.315
303.306
303.298
303.291
303.285
303.28
303.276
303.271
303.268
303.264
303.261
303.257
303.254
303.25
303.246
303.242
303.237
303.232
303.226
303.22
303.213
303.206
303.198
303.189
303.18
303.171
303.161
303.15
303.139
303.127
303.115
303.103
303.09
303.077
303.063
303.049
303.035
303.021
303.006
302.991
302.977
302.963
302.949
302.933
302.908
310.66
310.018
309.468
309.025
308.667
308.368
308.099
307.847
307.599
307.354
307.109
306.863
306.612
306.352
306.085
305.814
305.539
305.26
304.983
304.71
304.444
304.188
303.958
303.811
303.726
303.667
303.619
303.576
303.538
303.504
303.473
303.445
303.42
303.398
303.378
303.361
303.345
303.332
303.32
303.31
303.301
303.293
303.287
303.281
303.276
303.272
303.269
303.265
303.262
303.259
303.256
303.253
303.25
303.246
303.242
303.238
303.233
303.227
303.221
303.214
303.207
303.199
303.191
303.182
303.173
303.162
303.152
303.141
303.129
303.117
303.104
303.091
303.078
303.064
303.05
303.036
303.022
303.007
302.992
302.977
302.963
302.946
302.918
302.847
310.687
310.093
309.577
309.15
308.796
308.488
308.201
307.924
307.654
307.394
307.143
306.895
306.645
306.388
306.126
305.862
305.594
305.321
305.045
304.768
304.491
304.219
303.963
303.741
303.682
303.641
303.601
303.562
303.526
303.493
303.463
303.436
303.412
303.39
303.37
303.353
303.338
303.324
303.313
303.303
303.294
303.287
303.281
303.276
303.272
303.268
303.265
303.263
303.26
303.258
303.255
303.252
303.25
303.246
303.243
303.238
303.234
303.229
303.223
303.216
303.209
303.201
303.193
303.184
303.175
303.165
303.154
303.143
303.131
303.119
303.106
303.093
303.08
303.066
303.052
303.037
303.023
303.008
302.993
302.978
302.963
302.948
302.93
302.903
310.709
310.154
309.666
309.255
308.899
308.569
308.252
307.949
307.659
307.384
307.124
306.875
306.628
306.378
306.126
305.872
305.615
305.353
305.084
304.809
304.53
304.248
303.945
303.525
303.625
303.617
303.585
303.549
303.515
303.482
303.453
303.426
303.402
303.381
303.361
303.344
303.328
303.315
303.304
303.295
303.287
303.28
303.275
303.27
303.267
303.264
303.261
303.259
303.257
303.256
303.254
303.252
303.249
303.247
303.243
303.24
303.235
303.23
303.225
303.218
303.211
303.204
303.196
303.187
303.177
303.167
303.156
303.145
303.133
303.121
303.108
303.095
303.082
303.068
303.053
303.039
303.024
303.009
302.994
302.978
302.963
302.948
302.934
302.923
310.729
310.21
309.742
309.332
308.959
308.601
308.255
307.919
307.604
307.313
307.047
306.802
306.564
306.326
306.087
305.846
305.603
305.353
305.097
304.832
304.561
304.288
304.016
303.753
303.669
303.619
303.577
303.538
303.503
303.472
303.443
303.416
303.392
303.37
303.351
303.333
303.318
303.305
303.294
303.285
303.278
303.272
303.267
303.263
303.26
303.258
303.257
303.255
303.254
303.253
303.252
303.251
303.249
303.247
303.244
303.241
303.237
303.232
303.227
303.221
303.214
303.207
303.199
303.19
303.18
303.17
303.159
303.148
303.136
303.124
303.111
303.097
303.084
303.07
303.055
303.04
303.025
303.01
302.994
302.979
302.963
302.948
302.934
302.926
310.746
310.255
309.797
309.375
308.972
308.574
308.185
307.818
307.486
307.185
306.917
306.677
306.454
306.233
306.01
305.786
305.56
305.328
305.087
304.839
304.583
304.326
304.074
303.846
303.685
303.619
303.57
303.529
303.493
303.461
303.433
303.406
303.382
303.36
303.339
303.321
303.306
303.293
303.282
303.274
303.267
303.262
303.258
303.255
303.253
303.252
303.251
303.251
303.251
303.251
303.25
303.25
303.249
303.247
303.245
303.242
303.239
303.235
303.23
303.224
303.217
303.21
303.202
303.193
303.184
303.173
303.162
303.151
303.139
303.126
303.113
303.1
303.086
303.072
303.057
303.042
303.027
303.011
302.996
302.98
302.964
302.949
302.935
302.928
310.757
310.283
309.824
309.374
308.925
308.479
308.049
307.656
307.313
307.012
306.75
306.518
306.307
306.104
305.9
305.696
305.49
305.278
305.058
304.831
304.597
304.36
304.124
303.887
303.622
303.61
303.562
303.519
303.483
303.452
303.423
303.397
303.372
303.349
303.327
303.308
303.292
303.279
303.269
303.261
303.255
303.25
303.247
303.245
303.245
303.245
303.245
303.246
303.247
303.248
303.249
303.249
303.249
303.248
303.247
303.244
303.241
303.238
303.233
303.227
303.221
303.214
303.206
303.197
303.187
303.177
303.166
303.155
303.142
303.13
303.117
303.103
303.089
303.074
303.059
303.044
303.029
303.013
302.997
302.981
302.965
302.95
302.937
302.93
310.761
310.283
309.808
309.321
308.821
308.324
307.855
307.44
307.093
306.799
306.551
306.332
306.135
305.949
305.767
305.584
305.4
305.21
305.015
304.813
304.604
304.39
304.172
303.953
303.735
303.64
303.557
303.507
303.472
303.443
303.415
303.389
303.363
303.338
303.314
303.294
303.277
303.264
303.253
303.246
303.24
303.237
303.235
303.234
303.235
303.236
303.238
303.24
303.243
303.245
303.247
303.248
303.249
303.249
303.248
303.247
303.244
303.241
303.236
303.231
303.225
303.218
303.21
303.201
303.192
303.181
303.17
303.159
303.146
303.133
303.12
303.106
303.092
303.077
303.062
303.046
303.031
303.015
302.998
302.982
302.966
302.951
302.938
302.93
310.754
310.256
309.749
309.22
308.667
308.124
307.626
307.202
306.859
306.576
306.341
306.138
305.956
305.787
305.623
305.462
305.299
305.134
304.963
304.788
304.607
304.419
304.224
304.025
303.828
303.663
303.531
303.489
303.463
303.437
303.41
303.383
303.356
303.328
303.3
303.277
303.259
303.246
303.236
303.229
303.224
303.221
303.22
303.221
303.223
303.226
303.23
303.234
303.238
303.241
303.245
303.247
303.249
303.25
303.25
303.249
303.248
303.245
303.241
303.236
303.23
303.223
303.215
303.206
303.197
303.186
303.175
303.163
303.151
303.137
303.124
303.11
303.095
303.08
303.065
303.049
303.033
303.016
303
302.983
302.967
302.951
302.936
302.927
310.742
310.211
309.655
309.077
308.481
307.905
307.387
306.959
306.623
306.354
306.134
305.946
305.78
305.627
305.482
305.34
305.198
305.056
304.91
304.76
304.605
304.442
304.27
304.088
303.896
303.688
303.434
303.463
303.459
303.437
303.407
303.381
303.353
303.319
303.285
303.258
303.239
303.226
303.216
303.209
303.205
303.203
303.203
303.205
303.209
303.214
303.22
303.226
303.232
303.237
303.242
303.247
303.25
303.252
303.253
303.253
303.252
303.249
303.246
303.241
303.235
303.228
303.22
303.212
303.202
303.191
303.18
303.168
303.155
303.142
303.128
303.114
303.099
303.083
303.068
303.051
303.035
303.018
303.002
302.985
302.968
302.95
302.933
302.921
310.723
310.152
309.537
308.902
308.262
307.66
307.137
306.715
306.392
306.137
305.933
305.76
305.61
305.476
305.349
305.225
305.104
304.982
304.859
304.732
304.601
304.462
304.313
304.153
303.978
303.785
303.569
303.478
303.478
303.451
303.403
303.385
303.358
303.313
303.265
303.235
303.217
303.205
303.196
303.189
303.184
303.182
303.183
303.187
303.193
303.2
303.209
303.217
303.226
303.233
303.24
303.246
303.251
303.254
303.256
303.257
303.256
303.254
303.251
303.247
303.241
303.234
303.227
303.218
303.208
303.197
303.186
303.173
303.16
303.147
303.133
303.118
303.103
303.087
303.071
303.054
303.038
303.021
303.004
302.986
302.968
302.95
302.931
302.918
310.697
310.074
309.394
308.698
308.023
307.406
306.887
306.48
306.174
305.934
305.745
305.587
305.453
305.337
305.228
305.122
305.019
304.916
304.812
304.706
304.596
304.479
304.354
304.22
304.071
303.902
303.704
303.426
303.531
303.489
303.379
303.401
303.382
303.315
303.234
303.208
303.194
303.185
303.177
303.168
303.161
303.158
303.159
303.165
303.174
303.184
303.196
303.208
303.219
303.229
303.239
303.246
303.252
303.257
303.26
303.262
303.262
303.26
303.258
303.253
303.248
303.241
303.233
303.224
303.215
303.204
303.192
303.179
303.166
303.152
303.138
303.122
303.107
303.091
303.074
303.057
303.04
303.023
303.006
302.988
302.97
302.952
302.934
302.922
310.661
309.965
309.212
308.455
307.751
307.138
306.642
306.259
305.971
305.75
305.577
305.434
305.315
305.214
305.122
305.033
304.949
304.865
304.781
304.696
304.607
304.513
304.414
304.308
304.19
304.059
303.923
303.768
303.722
303.591
303.249
303.459
303.453
303.336
303.163
303.177
303.176
303.173
303.165
303.151
303.138
303.131
303.131
303.139
303.151
303.166
303.182
303.197
303.212
303.226
303.237
303.247
303.255
303.261
303.265
303.268
303.268
303.268
303.265
303.261
303.256
303.249
303.241
303.232
303.222
303.211
303.199
303.186
303.172
303.158
303.143
303.127
303.111
303.095
303.078
303.061
303.043
303.026
303.008
302.99
302.972
302.955
302.939
302.928
310.613
309.827
308.998
308.188
307.469
306.868
306.403
306.05
305.787
305.586
305.433
305.312
305.214
305.132
305.059
304.992
304.929
304.866
304.803
304.739
304.672
304.599
304.526
304.445
304.353
304.26
304.169
304.069
303.985
303.872
303.721
303.71
303.623
303.411
302.939
303.172
303.17
303.178
303.168
303.141
303.115
303.099
303.097
303.107
303.124
303.144
303.166
303.186
303.205
303.222
303.237
303.249
303.259
303.266
303.272
303.275
303.276
303.276
303.274
303.27
303.264
303.258
303.25
303.24
303.23
303.218
303.206
303.193
303.179
303.164
303.149
303.133
303.116
303.1
303.082
303.065
303.047
303.028
303.01
302.992
302.974
302.956
302.939
302.927
310.559
309.673
308.774
307.925
307.203
306.621
306.185
305.863
305.63
305.459
305.333
305.238
305.165
305.107
305.057
305.012
304.969
304.928
304.886
304.844
304.797
304.746
304.695
304.638
304.574
304.513
304.449
304.373
304.293
304.202
304.102
304.019
303.899
303.707
303.452
303.382
303.172
303.215
303.2
303.141
303.092
303.058
303.053
303.069
303.093
303.121
303.149
303.175
303.199
303.22
303.238
303.253
303.264
303.273
303.28
303.284
303.285
303.285
303.283
303.279
303.274
303.267
303.259
303.249
303.239
303.227
303.214
303.201
303.186
303.171
303.155
303.139
303.122
303.104
303.087
303.068
303.05
303.031
303.013
302.994
302.975
302.955
302.935
302.92
310.503
309.506
308.529
307.655
306.944
306.39
305.992
305.71
305.513
305.377
305.282
305.216
305.168
305.132
305.104
305.08
305.059
305.038
305.015
304.992
304.965
304.936
304.906
304.871
304.833
304.796
304.751
304.696
304.631
304.56
304.473
304.373
304.25
304.08
303.9
303.716
303.473
303.316
303.289
303.151
303.067
302.997
302.995
303.022
303.057
303.095
303.131
303.165
303.194
303.22
303.241
303.258
303.272
303.282
303.29
303.294
303.296
303.296
303.294
303.291
303.285
303.278
303.269
303.259
303.248
303.236
303.223
303.209
303.194
303.178
303.162
303.145
303.127
303.11
303.091
303.073
303.054
303.035
303.015
302.996
302.976
302.954
302.932
302.914
310.451
309.352
308.306
307.404
306.704
306.191
305.835
305.595
305.438
305.337
305.274
305.234
305.21
305.196
305.188
305.184
305.181
305.176
305.169
305.163
305.155
305.144
305.133
305.119
305.103
305.086
305.06
305.027
304.981
304.927
304.854
304.764
304.649
304.5
304.338
304.132
303.92
303.703
303.485
303.137
303.046
302.885
302.915
302.967
303.019
303.069
303.115
303.156
303.192
303.222
303.247
303.267
303.282
303.294
303.302
303.307
303.309
303.309
303.307
303.303
303.297
303.29
303.281
303.27
303.259
303.246
303.232
303.218
303.202
303.186
303.169
303.152
303.134
303.115
303.096
303.077
303.058
303.038
303.018
302.998
302.978
302.957
302.936
302.921
310.377
309.154
308.055
307.17
306.503
306.033
305.719
305.523
305.404
305.336
305.299
305.284
305.282
305.286
305.294
305.306
305.317
305.325
305.33
305.337
305.344
305.35
305.355
305.359
305.362
305.361
305.356
305.345
305.32
305.289
305.234
305.167
305.069
304.943
304.792
304.589
304.373
304.109
303.806
303.39
303.101
302.614
302.82
302.912
302.983
303.045
303.102
303.152
303.194
303.229
303.257
303.279
303.296
303.308
303.317
303.322
303.324
303.324
303.322
303.317
303.311
303.303
303.293
303.282
303.27
303.257
303.243
303.227
303.211
303.194
303.177
303.159
303.14
303.121
303.101
303.082
303.062
303.041
303.021
303
302.98
302.96
302.941
302.929
310.327
309.019
307.86
306.961
306.325
305.91
305.648
305.491
305.406
305.364
305.35
305.356
305.373
305.392
305.412
305.435
305.455
305.472
305.486
305.501
305.518
305.537
305.555
305.573
305.597
305.609
305.625
305.633
305.631
305.626
305.594
305.554
305.479
305.381
305.245
305.061
304.852
304.583
304.293
303.959
303.598
303.2
302.825
302.875
302.953
303.025
303.094
303.153
303.203
303.242
303.273
303.296
303.314
303.327
303.335
303.34
303.342
303.341
303.338
303.333
303.326
303.317
303.307
303.296
303.283
303.269
303.254
303.238
303.221
303.203
303.185
303.166
303.147
303.127
303.107
303.087
303.066
303.045
303.024
303.003
302.982
302.961
302.942
302.929
310.262
308.858
307.683
306.817
306.221
305.841
305.616
305.494
305.434
305.415
305.42
305.444
305.476
305.507
305.535
305.563
305.588
305.61
305.629
305.648
305.672
305.7
305.727
305.754
305.792
305.82
305.852
305.88
305.901
305.917
305.913
305.901
305.855
305.786
305.675
305.523
305.334
305.091
304.826
304.514
304.133
303.728
303.282
302.813
302.927
303.009
303.093
303.164
303.22
303.263
303.295
303.319
303.337
303.349
303.357
303.361
303.362
303.361
303.357
303.351
303.343
303.333
303.322
303.31
303.296
303.281
303.265
303.249
303.231
303.213
303.194
303.174
303.154
303.134
303.113
303.092
303.07
303.049
303.027
303.005
302.983
302.961
302.938
302.921
310.261
308.853
307.653
306.764
306.178
305.822
305.622
305.522
305.486
305.483
305.506
305.543
305.586
305.626
305.661
305.692
305.718
305.74
305.76
305.78
305.805
305.836
305.87
305.903
305.947
305.988
306.033
306.078
306.119
306.157
306.179
306.19
306.176
306.137
306.06
305.944
305.787
305.584
305.341
305.047
304.677
304.275
303.838
303.376
302.931
302.992
303.105
303.19
303.249
303.293
303.325
303.348
303.365
303.376
303.383
303.386
303.386
303.383
303.378
303.371
303.362
303.351
303.339
303.325
303.311
303.295
303.278
303.26
303.242
303.223
303.203
303.183
303.162
303.14
303.119
303.097
303.075
303.053
303.03
303.007
302.984
302.959
302.933
302.912
310.265
308.865
307.668
306.77
306.182
305.838
305.656
305.576
305.555
305.569
305.605
305.652
305.703
305.749
305.789
305.82
305.845
305.866
305.883
305.901
305.923
305.953
305.988
306.024
306.07
306.118
306.172
306.229
306.285
306.341
306.386
306.42
306.434
306.426
306.384
306.307
306.189
306.026
305.811
305.54
305.199
304.811
304.381
303.918
303.455
302.933
303.146
303.238
303.295
303.335
303.364
303.385
303.399
303.408
303.413
303.414
303.413
303.408
303.401
303.393
303.382
303.37
303.357
303.342
303.326
303.309
303.291
303.273
303.253
303.233
303.213
303.191
303.17
303.148
303.125
303.103
303.08
303.057
303.033
303.01
302.986
302.961
302.935
302.915
310.257
308.838
307.637
306.765
306.207
305.881
305.715
305.651
305.643
305.671
305.718
305.772
305.828
305.879
305.92
305.951
305.973
305.99
306.004
306.017
306.035
306.06
306.091
306.126
306.17
306.22
306.278
306.342
306.408
306.475
306.538
306.594
306.633
306.652
306.645
306.606
306.526
306.4
306.22
305.977
305.669
305.303
304.886
304.427
303.947
303.499
303.299
303.322
303.358
303.388
303.411
303.428
303.44
303.446
303.448
303.447
303.443
303.436
303.427
303.417
303.405
303.391
303.376
303.36
303.343
303.325
303.306
303.286
303.265
303.244
303.223
303.201
303.178
303.155
303.132
303.108
303.085
303.061
303.037
303.012
302.987
302.962
302.936
302.917
310.267
308.88
307.71
306.836
306.271
305.951
305.799
305.748
305.751
305.79
305.845
305.905
305.965
306.017
306.058
306.086
306.104
306.117
306.125
306.133
306.145
306.163
306.188
306.218
306.258
306.306
306.363
306.427
306.497
306.572
306.647
306.719
306.78
306.825
306.845
306.839
306.796
306.706
306.561
306.352
306.077
305.739
305.343
304.895
304.403
303.887
303.259
303.398
303.433
303.452
303.467
303.479
303.486
303.489
303.488
303.483
303.476
303.467
303.456
303.443
303.429
303.413
303.397
303.379
303.36
303.341
303.321
303.3
303.278
303.256
303.233
303.21
303.187
303.163
303.139
303.114
303.09
303.065
303.04
303.015
302.989
302.963
302.937
302.918
310.272
308.895
307.747
306.905
306.356
306.046
305.906
305.865
305.881
305.929
305.99
306.055
306.117
306.167
306.205
306.228
306.241
306.248
306.251
306.254
306.259
306.269
306.286
306.31
306.343
306.385
306.437
306.498
306.568
306.645
306.727
306.809
306.886
306.951
306.997
307.018
307.008
306.952
306.842
306.668
306.427
306.119
305.747
305.316
304.835
304.323
303.81
303.581
303.528
303.523
303.53
303.536
303.539
303.537
303.532
303.524
303.514
303.501
303.487
303.472
303.455
303.438
303.419
303.4
303.379
303.358
303.336
303.314
303.291
303.268
303.244
303.22
303.196
303.171
303.146
303.121
303.095
303.07
303.044
303.018
302.991
302.965
302.939
302.921
310.282
308.926
307.79
306.968
306.447
306.159
306.033
306.004
306.032
306.088
306.155
306.222
306.282
306.328
306.359
306.376
306.384
306.385
306.382
306.378
306.377
306.38
306.389
306.406
306.432
306.467
306.512
306.567
306.632
306.707
306.79
306.877
306.964
307.044
307.111
307.155
307.171
307.147
307.07
306.931
306.726
306.451
306.109
305.703
305.24
304.722
304.176
303.617
303.591
303.59
303.597
303.6
303.598
303.591
303.581
303.569
303.554
303.538
303.521
303.503
303.484
303.464
303.443
303.421
303.399
303.376
303.353
303.329
303.305
303.281
303.256
303.23
303.205
303.179
303.153
303.127
303.101
303.074
303.048
303.021
302.994
302.967
302.941
302.921
310.285
308.954
307.866
307.075
306.571
306.296
306.181
306.161
306.201
306.264
306.333
306.4
306.456
306.495
306.518
306.529
306.53
306.525
306.516
306.506
306.499
306.496
306.498
306.508
306.526
306.554
306.591
306.639
306.698
306.767
306.847
306.934
307.026
307.116
307.198
307.262
307.299
307.302
307.256
307.152
306.981
306.739
306.427
306.045
305.597
305.084
304.519
303.918
303.646
303.655
303.671
303.672
303.663
303.65
303.634
303.617
303.598
303.578
303.558
303.536
303.514
303.491
303.468
303.444
303.42
303.395
303.37
303.345
303.32
303.294
303.267
303.241
303.214
303.188
303.161
303.134
303.107
303.079
303.052
303.024
302.997
302.968
302.937
302.905
310.296
308.991
307.938
307.182
306.703
306.445
306.344
306.335
306.382
306.449
306.519
306.583
306.632
306.664
306.68
306.683
306.677
306.666
306.651
306.637
306.625
306.616
306.613
306.616
306.627
306.647
306.677
306.718
306.77
306.833
306.907
306.992
307.083
307.178
307.269
307.347
307.403
307.427
307.409
307.336
307.198
306.991
306.712
306.363
305.947
305.461
304.906
304.274
303.446
303.716
303.761
303.755
303.736
303.714
303.691
303.669
303.645
303.621
303.596
303.571
303.546
303.52
303.494
303.468
303.442
303.415
303.388
303.361
303.334
303.307
303.28
303.252
303.224
303.196
303.169
303.141
303.113
303.084
303.056
303.028
302.999
302.969
302.929
302.871
310.32
309.05
308.018
307.29
306.841
306.609
306.524
306.522
306.572
306.64
306.709
306.766
306.808
306.831
306.839
306.835
306.822
306.806
306.787
306.768
306.752
306.74
306.732
306.73
306.735
306.748
306.771
306.804
306.849
306.905
306.973
307.053
307.142
307.237
307.333
307.42
307.491
307.532
307.538
307.493
307.387
307.215
306.971
306.652
306.259
305.795
305.271
304.708
304.159
303.975
303.898
303.85
303.813
303.78
303.751
303.722
303.694
303.665
303.637
303.608
303.579
303.55
303.522
303.493
303.464
303.436
303.407
303.378
303.35
303.321
303.292
303.263
303.234
303.205
303.176
303.148
303.119
303.089
303.06
303.031
303.003
302.974
302.943
302.912
310.342
309.113
308.116
307.421
307
306.787
306.712
306.716
306.767
306.834
306.898
306.947
306.979
306.993
306.993
306.983
306.965
306.943
306.92
306.899
306.88
306.865
306.854
306.848
306.848
306.855
306.871
306.898
306.935
306.985
307.046
307.12
307.205
307.298
307.395
307.488
307.568
307.625
307.648
307.627
307.55
307.41
307.198
306.911
306.549
306.113
305.617
305.073
304.53
304.126
304.002
303.934
303.885
303.845
303.81
303.777
303.744
303.712
303.679
303.646
303.614
303.582
303.55
303.519
303.488
303.457
303.426
303.396
303.365
303.335
303.305
303.275
303.244
303.214
303.184
303.155
303.125
303.095
303.065
303.035
303.006
302.978
302.952
302.934
310.367
309.184
308.233
307.574
307.176
306.974
306.904
306.91
306.961
307.026
307.082
307.121
307.142
307.148
307.142
307.125
307.102
307.077
307.052
307.029
307.008
306.991
306.978
306.969
306.965
306.968
306.978
306.998
307.029
307.071
307.126
307.194
307.274
307.363
307.459
307.554
307.641
307.708
307.746
307.746
307.695
307.585
307.404
307.147
306.808
306.389
305.898
305.343
304.738
303.996
304.039
303.991
303.944
303.904
303.867
303.831
303.795
303.759
303.722
303.686
303.65
303.614
303.579
303.545
303.511
303.478
303.445
303.413
303.381
303.349
303.317
303.286
303.255
303.224
303.193
303.162
303.131
303.1
303.069
303.039
303.009
302.98
302.957
302.942
310.394
309.269
308.37
307.743
307.361
307.165
307.096
307.1
307.149
307.211
307.257
307.285
307.298
307.296
307.283
307.261
307.235
307.208
307.181
307.157
307.135
307.117
307.103
307.092
307.086
307.085
307.091
307.105
307.129
307.165
307.214
307.275
307.349
307.434
307.527
307.622
307.712
307.787
307.837
307.853
307.825
307.74
307.588
307.36
307.049
306.653
306.173
305.618
305.007
304.43
304.128
304.027
303.987
303.954
303.92
303.884
303.845
303.806
303.766
303.726
303.686
303.647
303.609
303.572
303.536
303.5
303.465
303.431
303.397
303.363
303.33
303.298
303.265
303.233
303.201
303.169
303.137
303.105
303.073
303.042
303.012
302.984
302.961
302.947
310.421
309.359
308.514
307.919
307.55
307.356
307.283
307.283
307.327
307.385
307.421
307.44
307.444
307.435
307.417
307.392
307.364
307.335
307.308
307.283
307.261
307.243
307.228
307.216
307.208
307.205
307.207
307.217
307.235
307.265
307.307
307.363
307.431
307.51
307.599
307.692
307.783
307.863
307.922
307.952
307.943
307.88
307.754
307.552
307.266
306.891
306.428
305.883
305.268
304.615
304.022
303.994
304.007
303.997
303.97
303.935
303.896
303.853
303.81
303.766
303.723
303.68
303.639
303.599
303.56
303.522
303.485
303.449
303.413
303.378
303.343
303.309
303.275
303.242
303.209
303.176
303.143
303.11
303.078
303.046
303.015
302.988
302.965
302.953
310.456
309.46
308.664
308.096
307.737
307.543
307.463
307.457
307.492
307.545
307.572
307.583
307.58
307.566
307.544
307.518
307.488
307.459
307.432
307.408
307.386
307.368
307.352
307.34
307.331
307.326
307.326
307.332
307.346
307.37
307.406
307.456
307.518
307.593
307.676
307.766
307.856
307.939
308.004
308.045
308.051
308.009
307.905
307.726
307.466
307.116
306.67
306.136
305.514
304.744
303.505
303.942
304.037
304.043
304.021
303.987
303.946
303.901
303.854
303.806
303.759
303.713
303.669
303.626
303.584
303.544
303.505
303.466
303.429
303.392
303.356
303.321
303.286
303.251
303.217
303.183
303.149
303.116
303.082
303.05
303.019
302.991
302.97
302.957
310.495
309.563
308.81
308.266
307.917
307.723
307.637
307.622
307.647
307.692
307.711
307.715
307.707
307.689
307.666
307.638
307.61
307.581
307.555
307.531
307.51
307.492
307.476
307.464
307.455
307.448
307.446
307.449
307.46
307.48
307.511
307.555
307.611
307.68
307.759
307.844
307.932
308.015
308.085
308.134
308.152
308.127
308.041
307.886
307.65
307.321
306.897
306.386
305.806
305.189
304.661
304.265
304.147
304.107
304.077
304.04
303.997
303.948
303.897
303.846
303.795
303.746
303.698
303.652
303.608
303.565
303.524
303.484
303.444
303.406
303.369
303.332
303.296
303.26
303.225
303.19
303.155
303.121
303.087
303.053
303.022
302.994
302.972
302.96
310.533
309.666
308.956
308.435
308.094
307.896
307.803
307.779
307.793
307.827
307.839
307.837
307.825
307.806
307.782
307.755
307.727
307.7
307.675
307.652
307.632
307.615
307.6
307.587
307.578
307.57
307.567
307.568
307.576
307.592
307.619
307.658
307.71
307.773
307.846
307.927
308.011
308.094
308.166
308.22
308.249
308.236
308.169
308.033
307.816
307.507
307.103
306.608
306.036
305.407
304.782
304.243
304.176
304.16
304.135
304.096
304.048
303.995
303.94
303.884
303.83
303.777
303.726
303.678
303.631
303.586
303.543
303.501
303.46
303.42
303.381
303.343
303.306
303.269
303.232
303.196
303.161
303.126
303.091
303.057
303.024
302.996
302.973
302.961
310.569
309.765
309.097
308.597
308.262
308.061
307.961
307.928
307.929
307.953
307.958
307.951
307.935
307.915
307.892
307.867
307.842
307.817
307.793
307.772
307.753
307.736
307.722
307.71
307.7
307.693
307.688
307.688
307.694
307.708
307.731
307.766
307.813
307.87
307.938
308.014
308.095
308.175
308.248
308.305
308.341
308.34
308.287
308.169
307.972
307.688
307.309
306.831
306.258
305.581
304.74
303.783
304.166
304.227
304.205
304.157
304.101
304.041
303.98
303.92
303.862
303.807
303.753
303.702
303.653
303.606
303.561
303.517
303.475
303.433
303.393
303.354
303.315
303.277
303.24
303.203
303.166
303.13
303.095
303.06
303.026
302.996
302.972
302.958
310.601
309.855
309.228
308.75
308.421
308.219
308.112
308.068
308.059
308.07
308.068
308.056
308.039
308.019
307.998
307.975
307.953
307.931
307.91
307.89
307.873
307.857
307.844
307.833
307.823
307.815
307.81
307.81
307.814
307.826
307.847
307.878
307.92
307.972
308.035
308.105
308.182
308.259
308.332
308.391
308.432
308.439
308.4
308.3
308.126
307.868
307.517
307.064
306.517
305.891
305.213
304.628
304.468
304.375
304.296
304.222
304.152
304.083
304.017
303.954
303.893
303.834
303.778
303.725
303.674
303.625
303.578
303.533
303.489
303.446
303.405
303.364
303.324
303.285
303.247
303.209
303.172
303.135
303.098
303.062
303.028
302.996
302.968
302.951
310.63
309.937
309.348
308.892
308.571
308.367
308.253
308.2
308.18
308.181
308.172
308.156
308.138
308.118
308.099
308.08
308.061
308.042
308.024
308.007
307.991
307.978
307.965
307.954
307.945
307.937
307.933
307.932
307.936
307.946
307.965
307.992
308.03
308.078
308.135
308.2
308.272
308.346
308.417
308.477
308.521
308.536
308.509
308.425
308.272
308.039
307.714
307.287
306.766
306.179
305.58
305.055
304.719
304.516
304.382
304.281
304.196
304.121
304.05
303.983
303.92
303.859
303.801
303.746
303.693
303.643
303.594
303.547
303.502
303.458
303.416
303.374
303.333
303.293
303.254
303.215
303.177
303.139
303.102
303.065
303.029
302.995
302.962
302.938
310.658
310.013
309.46
309.024
308.711
308.506
308.386
308.324
308.295
308.286
308.27
308.251
308.232
308.213
308.196
308.181
308.166
308.151
308.136
308.122
308.108
308.097
308.086
308.076
308.067
308.06
308.056
308.055
308.058
308.068
308.085
308.11
308.144
308.188
308.239
308.299
308.365
308.435
308.504
308.565
308.61
308.631
308.614
308.545
308.412
308.203
307.903
307.492
306.974
306.383
305.781
305.247
304.846
304.594
304.434
304.32
304.229
304.149
304.076
304.008
303.943
303.881
303.821
303.765
303.711
303.659
303.609
303.561
303.515
303.47
303.426
303.383
303.342
303.301
303.261
303.221
303.182
303.144
303.105
303.068
303.031
302.995
302.959
302.93
310.682
310.081
309.56
309.146
308.842
308.637
308.511
308.441
308.405
308.386
308.365
308.343
308.322
308.305
308.291
308.278
308.267
308.256
308.245
308.234