/*--------------------------------*- C++ -*----------------------------------*\
  =========                 |
  \\      /  F ield         | OpenFOAM: The Open Source CFD Toolbox
   \\    /   O peration     | Website:  https://openfoam.org
    \\  /    A nd           | Version:  6
     \\/     M anipulation  |
\*---------------------------------------------------------------------------*/
FoamFile
{
    version     2.0;
    format      ascii;
    class       volVectorField;
    location    "960";
    object      U;
}
// * * * * * * * * * * * * * * * * * * * * * * * * * * * * * * * * * * * * * //

dimensions      [0 1 -1 0 0 0 0];

internalField   nonuniform List<vector> 
5964
(
(0.00394221 0 -0.00261665)
(-0.00463571 0 0.0021459)
(-0.00425684 0 -0.0029698)
(-0.00536311 0 0.00163045)
(-0.00587873 0 -0.000723362)
(-0.00607196 0 9.80118e-05)
(-0.00520542 0 2.23481e-06)
(-0.00470937 0 -0.000553721)
(-0.00457076 0 0.000331552)
(-0.00410377 0 -0.000620535)
(-0.00383609 0 -0.000224022)
(-0.00376309 0 -0.000100969)
(-0.00378481 0 6.85815e-05)
(-0.00397167 0 -0.000272283)
(-0.00405234 0 -0.000539141)
(-0.00413526 0 -0.000559054)
(-0.0041168 0 -0.000635678)
(-0.00344355 0 -0.000853954)
(-0.00271486 0 -0.000886303)
(-0.00183769 0 -0.00123313)
(-0.00155034 0 -0.000237929)
(-1.41204e-06 0 -0.00104321)
(9.12854e-09 0 2.47546e-08)
(3.17713e-09 0 1.84196e-09)
(4.84272e-09 0 7.15202e-10)
(3.7081e-09 0 3.47554e-10)
(3.11636e-09 0 2.0565e-10)
(2.74582e-09 0 1.40193e-10)
(2.48328e-09 0 1.04559e-10)
(2.28261e-09 0 8.23486e-11)
(2.12214e-09 0 6.70379e-11)
(1.99024e-09 0 5.57086e-11)
(1.87994e-09 0 4.6913e-11)
(1.78666e-09 0 3.9869e-11)
(1.70713e-09 0 3.41234e-11)
(1.63889e-09 0 2.93957e-11)
(1.57994e-09 0 2.55006e-11)
(1.52864e-09 0 2.23064e-11)
(1.4836e-09 0 1.97117e-11)
(1.44363e-09 0 1.76333e-11)
(1.40768e-09 0 1.59993e-11)
(1.37488e-09 0 1.4746e-11)
(1.34447e-09 0 1.38163e-11)
(1.31581e-09 0 1.31591e-11)
(1.28836e-09 0 1.27286e-11)
(1.26168e-09 0 1.24847e-11)
(1.2354e-09 0 1.23919e-11)
(1.20923e-09 0 1.24197e-11)
(1.18295e-09 0 1.25416e-11)
(1.15636e-09 0 1.27349e-11)
(1.12934e-09 0 1.29804e-11)
(1.10179e-09 0 1.32619e-11)
(1.07365e-09 0 1.35658e-11)
(1.04488e-09 0 1.3881e-11)
(1.01546e-09 0 1.41984e-11)
(9.85389e-10 0 1.45107e-11)
(9.54692e-10 0 1.48122e-11)
(9.23393e-10 0 1.50987e-11)
(8.91524e-10 0 1.5367e-11)
(8.59125e-10 0 1.56152e-11)
(8.2624e-10 0 1.5842e-11)
(7.92914e-10 0 1.60469e-11)
(7.59193e-10 0 1.623e-11)
(7.25121e-10 0 1.63918e-11)
(6.90743e-10 0 1.65333e-11)
(6.56099e-10 0 1.66554e-11)
(6.21229e-10 0 1.67595e-11)
(5.8617e-10 0 1.68471e-11)
(5.50953e-10 0 1.69194e-11)
(5.15609e-10 0 1.69781e-11)
(4.80165e-10 0 1.70245e-11)
(4.44645e-10 0 1.706e-11)
(4.09071e-10 0 1.70858e-11)
(3.7346e-10 0 1.71032e-11)
(3.37829e-10 0 1.7113e-11)
(3.02192e-10 0 1.71163e-11)
(2.66562e-10 0 1.71136e-11)
(2.3095e-10 0 1.71054e-11)
(1.95367e-10 0 1.70919e-11)
(1.59823e-10 0 1.70738e-11)
(1.24324e-10 0 1.7053e-11)
(8.88672e-11 0 1.70368e-11)
(5.34193e-11 0 1.70471e-11)
(1.78451e-11 0 1.71562e-11)
(-0.00280511 0 0.00381005)
(-0.00415946 0 0.00265921)
(-0.00500924 0 0.000963114)
(-0.0052618 0 0.000756632)
(-0.00515447 0 0.000309253)
(-0.00524731 0 0.00112771)
(-0.00353378 0 -0.00373507)
(-0.00401833 0 0.000270734)
(-0.00313334 0 -0.000401291)
(-0.00260976 0 0.000652511)
(-0.00248245 0 0.000271149)
(-0.0031438 0 0.000533481)
(-0.00332952 0 -7.52701e-05)
(-0.00343426 0 0.000193621)
(-0.00346843 0 0.00016427)
(-0.00346453 0 0.00020094)
(-0.00353059 0 6.66539e-05)
(-0.00304472 0 -0.00114892)
(-0.00240466 0 -0.00136909)
(-0.00191295 0 -0.00143356)
(-0.00174851 0 -0.000893036)
(-3.66632e-07 0 -0.00138462)
(1.02131e-09 0 2.16633e-09)
(2.76988e-09 0 3.00479e-09)
(3.44277e-09 0 1.47726e-09)
(3.23143e-09 0 8.43725e-10)
(2.92292e-09 0 5.49342e-10)
(2.65193e-09 0 3.94007e-10)
(2.42984e-09 0 3.01569e-10)
(2.24815e-09 0 2.40715e-10)
(2.0978e-09 0 1.97389e-10)
(1.97193e-09 0 1.64712e-10)
(1.86558e-09 0 1.39048e-10)
(1.77511e-09 0 1.18347e-10)
(1.69771e-09 0 1.01387e-10)
(1.63115e-09 0 8.73949e-11)
(1.5736e-09 0 7.58518e-11)
(1.52349e-09 0 6.63823e-11)
(1.47946e-09 0 5.86937e-11)
(1.44036e-09 0 5.25421e-11)
(1.40516e-09 0 4.77151e-11)
(1.373e-09 0 4.40231e-11)
(1.34313e-09 0 4.12954e-11)
(1.31492e-09 0 3.93791e-11)
(1.28784e-09 0 3.81374e-11)
(1.26147e-09 0 3.74499e-11)
(1.23543e-09 0 3.72111e-11)
(1.20946e-09 0 3.73294e-11)
(1.18333e-09 0 3.77259e-11)
(1.15686e-09 0 3.83332e-11)
(1.12992e-09 0 3.90939e-11)
(1.10243e-09 0 3.99597e-11)
(1.07432e-09 0 4.08904e-11)
(1.04556e-09 0 4.18527e-11)
(1.01615e-09 0 4.28195e-11)
(9.86074e-10 0 4.37693e-11)
(9.55362e-10 0 4.46851e-11)
(9.2404e-10 0 4.55545e-11)
(8.92144e-10 0 4.63683e-11)
(8.59717e-10 0 4.71206e-11)
(8.26802e-10 0 4.78078e-11)
(7.93445e-10 0 4.84287e-11)
(7.59694e-10 0 4.89835e-11)
(7.25593e-10 0 4.94739e-11)
(6.91188e-10 0 4.99026e-11)
(6.56519e-10 0 5.0273e-11)
(6.21627e-10 0 5.05891e-11)
(5.86546e-10 0 5.08551e-11)
(5.51311e-10 0 5.10753e-11)
(5.15952e-10 0 5.12542e-11)
(4.80494e-10 0 5.1396e-11)
(4.44963e-10 0 5.15049e-11)
(4.09378e-10 0 5.15846e-11)
(3.73759e-10 0 5.16387e-11)
(3.3812e-10 0 5.16703e-11)
(3.02477e-10 0 5.16819e-11)
(2.66841e-10 0 5.16757e-11)
(2.31222e-10 0 5.16532e-11)
(1.9563e-10 0 5.16155e-11)
(1.60072e-10 0 5.15644e-11)
(1.24555e-10 0 5.15044e-11)
(8.9085e-11 0 5.14492e-11)
(5.36832e-11 0 5.14309e-11)
(1.80017e-11 0 5.15245e-11)
(-0.00273616 0 0.00478393)
(-0.00301506 0 0.00408038)
(-0.00469045 0 0.00269442)
(-0.0049664 0 0.0024347)
(-0.00497698 0 -0.00175358)
(-0.00451971 0 0.00049124)
(-0.00345263 0 -0.0023248)
(-0.00346491 0 -0.00108857)
(-0.00235543 0 -0.00141571)
(-0.00116153 0 -0.00155173)
(-0.000255639 0 -0.000527318)
(0.000395106 0 0.000278577)
(0.000807297 0 0.000717113)
(0.000652168 0 0.000706711)
(0.000418074 0 0.000852579)
(-0.000994626 0 9.84559e-05)
(-0.00208707 0 -0.00068952)
(-0.00186305 0 -0.000753743)
(-0.00154678 0 -0.00173693)
(-0.00153737 0 -0.00202293)
(-0.00112949 0 -0.0024319)
(8.42578e-07 0 -0.00203997)
(1.02993e-09 0 2.32994e-09)
(2.40339e-09 0 2.0054e-09)
(2.81921e-09 0 1.45264e-09)
(2.84038e-09 0 1.0416e-09)
(2.69672e-09 0 7.70688e-10)
(2.51531e-09 0 5.92405e-10)
(2.34115e-09 0 4.70687e-10)
(2.18636e-09 0 3.83557e-10)
(2.05214e-09 0 3.18279e-10)
(1.93666e-09 0 2.67467e-10)
(1.83746e-09 0 2.26754e-10)
(1.75223e-09 0 1.9349e-10)
(1.6789e-09 0 1.6601e-10)
(1.61564e-09 0 1.43226e-10)
(1.56085e-09 0 1.24379e-10)
(1.5131e-09 0 1.08905e-10)
(1.47111e-09 0 9.63499e-11)
(1.43376e-09 0 8.63237e-11)
(1.40007e-09 0 7.84814e-11)
(1.36919e-09 0 7.25109e-11)
(1.34041e-09 0 6.81294e-11)
(1.3131e-09 0 6.50828e-11)
(1.28678e-09 0 6.31441e-11)
(1.26101e-09 0 6.21136e-11)
(1.23548e-09 0 6.18165e-11)
(1.20989e-09 0 6.21015e-11)
(1.18406e-09 0 6.28386e-11)
(1.15781e-09 0 6.39164e-11)
(1.13103e-09 0 6.52408e-11)
(1.10365e-09 0 6.67323e-11)
(1.0756e-09 0 6.83246e-11)
(1.04687e-09 0 6.99631e-11)
(1.01745e-09 0 7.16036e-11)
(9.87356e-10 0 7.32106e-11)
(9.56601e-10 0 7.4757e-11)
(9.25224e-10 0 7.62221e-11)
(8.93264e-10 0 7.75915e-11)
(8.60767e-10 0 7.88555e-11)
(8.2778e-10 0 8.0009e-11)
(7.94351e-10 0 8.10499e-11)
(7.60528e-10 0 8.19792e-11)
(7.26359e-10 0 8.28e-11)
(6.91888e-10 0 8.3517e-11)
(6.57159e-10 0 8.41362e-11)
(6.22211e-10 0 8.46642e-11)
(5.8708e-10 0 8.51082e-11)
(5.51799e-10 0 8.54758e-11)
(5.16399e-10 0 8.57743e-11)
(4.80905e-10 0 8.60109e-11)
(4.45342e-10 0 8.61926e-11)
(4.09731e-10 0 8.63258e-11)
(3.74088e-10 0 8.64163e-11)
(3.38429e-10 0 8.64695e-11)
(3.02767e-10 0 8.64898e-11)
(2.67114e-10 0 8.6481e-11)
(2.31479e-10 0 8.6446e-11)
(1.95868e-10 0 8.63874e-11)
(1.60289e-10 0 8.6308e-11)
(1.24746e-10 0 8.62137e-11)
(8.92443e-11 0 8.61158e-11)
(5.37952e-11 0 8.60307e-11)
(1.80429e-11 0 8.59767e-11)
(-0.00108584 0 0.0066943)
(-0.00228768 0 0.00514117)
(-0.00393236 0 0.00352148)
(-0.00497534 0 -0.00117039)
(-0.00421056 0 0.000737013)
(-0.00306541 0 -0.00254938)
(-0.00295385 0 -0.00203565)
(-0.00251375 0 -0.00242071)
(-0.00166677 0 -0.00275719)
(0.000188674 0 -0.00313985)
(0.000343225 0 -0.00108106)
(0.00117496 0 -0.000237285)
(0.00201092 0 -0.000761153)
(0.00179748 0 0.00119052)
(0.00162902 0 0.0012545)
(0.00111013 0 0.00105854)
(0.00059368 0 0.0010035)
(-0.000712465 0 0.000193227)
(-0.00120285 0 -0.00131963)
(-0.00129281 0 -0.00230878)
(-0.00119351 0 -0.00286824)
(8.62912e-05 0 -0.00289374)
(7.35893e-10 0 1.80457e-09)
(1.95653e-09 0 1.21165e-09)
(2.54214e-09 0 1.30364e-09)
(2.5945e-09 0 1.11662e-09)
(2.50384e-09 0 9.10944e-10)
(2.37247e-09 0 7.41373e-10)
(2.23563e-09 0 6.09643e-10)
(2.10667e-09 0 5.07389e-10)
(1.99021e-09 0 4.26617e-10)
(1.88723e-09 0 3.61481e-10)
(1.79721e-09 0 3.08027e-10)
(1.71903e-09 0 2.6364e-10)
(1.65136e-09 0 2.2658e-10)
(1.59281e-09 0 1.95652e-10)
(1.54203e-09 0 1.69984e-10)
(1.49775e-09 0 1.48892e-10)
(1.45876e-09 0 1.318e-10)
(1.42402e-09 0 1.18191e-10)
(1.39258e-09 0 1.07598e-10)
(1.36361e-09 0 9.95879e-11)
(1.33644e-09 0 9.37676e-11)
(1.31049e-09 0 8.97818e-11)
(1.28528e-09 0 8.73146e-11)
(1.26042e-09 0 8.60876e-11)
(1.2356e-09 0 8.58589e-11)
(1.21059e-09 0 8.64192e-11)
(1.18519e-09 0 8.7589e-11)
(1.15927e-09 0 8.92153e-11)
(1.13272e-09 0 9.11685e-11)
(1.10548e-09 0 9.33394e-11)
(1.07752e-09 0 9.56373e-11)
(1.04882e-09 0 9.79874e-11)
(1.01939e-09 0 1.00329e-10)
(9.89245e-10 0 1.02615e-10)
(9.58417e-10 0 1.04807e-10)
(9.26948e-10 0 1.06878e-10)
(8.94884e-10 0 1.08809e-10)
(8.62274e-10 0 1.10587e-10)
(8.29171e-10 0 1.12206e-10)
(7.95626e-10 0 1.13665e-10)
(7.6169e-10 0 1.14964e-10)
(7.27411e-10 0 1.1611e-10)
(6.92837e-10 0 1.17109e-10)
(6.58012e-10 0 1.1797e-10)
(6.22975e-10 0 1.18702e-10)
(5.87763e-10 0 1.19317e-10)
(5.52409e-10 0 1.19825e-10)
(5.16944e-10 0 1.20235e-10)
(4.81393e-10 0 1.2056e-10)
(4.4578e-10 0 1.20808e-10)
(4.10124e-10 0 1.20989e-10)
(3.74443e-10 0 1.21111e-10)
(3.38751e-10 0 1.21182e-10)
(3.0306e-10 0 1.21208e-10)
(2.67381e-10 0 1.21194e-10)
(2.31721e-10 0 1.21146e-10)
(1.96086e-10 0 1.21068e-10)
(1.60479e-10 0 1.20963e-10)
(1.24904e-10 0 1.2084e-10)
(8.93639e-11 0 1.20705e-10)
(5.38789e-11 0 1.20558e-10)
(1.80774e-11 0 1.20488e-10)
(-0.00298738 0 0.00740641)
(-0.001848 0 0.00609601)
(-0.00214124 0 0.00448189)
(-0.00263531 0 0.00238208)
(-0.00303192 0 0.000293714)
(-0.00136752 0 -0.00254201)
(-0.00170429 0 -0.00277429)
(0.000283155 0 -0.00374912)
(0.00100911 0 -0.00364033)
(0.000930997 0 -0.00339166)
(0.00144031 0 -0.00155235)
(0.0019894 0 -0.00123093)
(0.00228879 0 -0.000300542)
(0.00273973 0 -4.96578e-05)
(0.00246338 0 0.00187211)
(0.00227247 0 0.00176044)
(0.00157623 0 0.00150141)
(0.000281033 0 0.00102168)
(-0.000696521 0 -0.00110589)
(-0.000965788 0 -0.0023323)
(-0.00128582 0 -0.00310254)
(-0.000664175 0 -0.00319216)
(3.49299e-07 0 4.90212e-05)
(1.46119e-09 0 1.50284e-09)
(2.7331e-09 0 1.40094e-09)
(2.47467e-09 0 1.20822e-09)
(2.34699e-09 0 1.01961e-09)
(2.23462e-09 0 8.57205e-10)
(2.12335e-09 0 7.22796e-10)
(2.01615e-09 0 6.12423e-10)
(1.91658e-09 0 5.21279e-10)
(1.82657e-09 0 4.45281e-10)
(1.7467e-09 0 3.81372e-10)
(1.67673e-09 0 3.27382e-10)
(1.61592e-09 0 2.81785e-10)
(1.56326e-09 0 2.43472e-10)
(1.51761e-09 0 2.11578e-10)
(1.47783e-09 0 1.85372e-10)
(1.44279e-09 0 1.64189e-10)
(1.41147e-09 0 1.47407e-10)
(1.38298e-09 0 1.34438e-10)
(1.35653e-09 0 1.24732e-10)
(1.33148e-09 0 1.17782e-10)
(1.30729e-09 0 1.13133e-10)
(1.28352e-09 0 1.10379e-10)
(1.25984e-09 0 1.09166e-10)
(1.23596e-09 0 1.09188e-10)
(1.21167e-09 0 1.1018e-10)
(1.18683e-09 0 1.11915e-10)
(1.16131e-09 0 1.14203e-10)
(1.13505e-09 0 1.16879e-10)
(1.10799e-09 0 1.19809e-10)
(1.08013e-09 0 1.22877e-10)
(1.05145e-09 0 1.25992e-10)
(1.02198e-09 0 1.29077e-10)
(9.91762e-10 0 1.32073e-10)
(9.60825e-10 0 1.34934e-10)
(9.29222e-10 0 1.37629e-10)
(8.97009e-10 0 1.40132e-10)
(8.64241e-10 0 1.42431e-10)
(8.30976e-10 0 1.44518e-10)
(7.97269e-10 0 1.46393e-10)
(7.63175e-10 0 1.48058e-10)
(7.28745e-10 0 1.49523e-10)
(6.94029e-10 0 1.50796e-10)
(6.59071e-10 0 1.51891e-10)
(6.23912e-10 0 1.52819e-10)
(5.88589e-10 0 1.53596e-10)
(5.53136e-10 0 1.54235e-10)
(5.17581e-10 0 1.5475e-10)
(4.81952e-10 0 1.55154e-10)
(4.4627e-10 0 1.55462e-10)
(4.10554e-10 0 1.55683e-10)
(3.74821e-10 0 1.55831e-10)
(3.39084e-10 0 1.55914e-10)
(3.03354e-10 0 1.55941e-10)
(2.6764e-10 0 1.5592e-10)
(2.31949e-10 0 1.55857e-10)
(1.96284e-10 0 1.55758e-10)
(1.60648e-10 0 1.55631e-10)
(1.25041e-10 0 1.55482e-10)
(8.94692e-11 0 1.55313e-10)
(5.39563e-11 0 1.55098e-10)
(1.81097e-11 0 1.55058e-10)
(-0.0010364 0 0.0089763)
(-0.000274246 0 0.0070542)
(-0.00142795 0 0.00446287)
(-0.00199641 0 0.00152202)
(-0.00200777 0 0.000622071)
(-0.00116171 0 -0.00238496)
(-0.000367476 0 -0.00379787)
(0.00142303 0 -0.00433836)
(0.000898099 0 -0.00437953)
(0.00225838 0 -0.00374633)
(0.00273007 0 -0.00235157)
(0.00324452 0 -0.000903493)
(0.00319704 0 -0.000574635)
(0.00315267 0 0.000446017)
(0.00312853 0 0.000999324)
(0.00298185 0 0.00175482)
(0.00269575 0 0.00178223)
(0.00164685 0 0.00151794)
(0.00130531 0 0.00126644)
(-0.000350371 0 -0.00148482)
(-0.00153788 0 -0.00276414)
(-0.00146637 0 -0.00291013)
(-5.64856e-05 0 -0.000507679)
(1.15578e-09 0 2.26755e-09)
(2.26894e-09 0 1.57941e-09)
(2.23935e-09 0 1.29655e-09)
(2.17674e-09 0 1.10542e-09)
(2.09593e-09 0 9.48541e-10)
(2.00767e-09 0 8.14907e-10)
(1.9191e-09 0 7.00622e-10)
(1.83472e-09 0 6.02679e-10)
(1.75714e-09 0 5.18494e-10)
(1.68764e-09 0 4.46026e-10)
(1.62652e-09 0 3.83766e-10)
(1.57345e-09 0 3.306e-10)
(1.52766e-09 0 2.85657e-10)
(1.48815e-09 0 2.48176e-10)
(1.45383e-09 0 2.17433e-10)
(1.42362e-09 0 1.92703e-10)
(1.39652e-09 0 1.73262e-10)
(1.37166e-09 0 1.58399e-10)
(1.34829e-09 0 1.47438e-10)
(1.32582e-09 0 1.39758e-10)
(1.30377e-09 0 1.34799e-10)
(1.28175e-09 0 1.32068e-10)
(1.25947e-09 0 1.31139e-10)
(1.23671e-09 0 1.31642e-10)
(1.21329e-09 0 1.33263e-10)
(1.1891e-09 0 1.35733e-10)
(1.16406e-09 0 1.38824e-10)
(1.13811e-09 0 1.42344e-10)
(1.11125e-09 0 1.46131e-10)
(1.08348e-09 0 1.50052e-10)
(1.0548e-09 0 1.53997e-10)
(1.02528e-09 0 1.57877e-10)
(9.94937e-10 0 1.61624e-10)
(9.63846e-10 0 1.65185e-10)
(9.32062e-10 0 1.68523e-10)
(8.99649e-10 0 1.71612e-10)
(8.66671e-10 0 1.74438e-10)
(8.33193e-10 0 1.76995e-10)
(7.99276e-10 0 1.79283e-10)
(7.64978e-10 0 1.81309e-10)
(7.30354e-10 0 1.83085e-10)
(6.95455e-10 0 1.84623e-10)
(6.60327e-10 0 1.8594e-10)
(6.25013e-10 0 1.87053e-10)
(5.89549e-10 0 1.8798e-10)
(5.53969e-10 0 1.88738e-10)
(5.18302e-10 0 1.89346e-10)
(4.82573e-10 0 1.8982e-10)
(4.46804e-10 0 1.90177e-10)
(4.11013e-10 0 1.90431e-10)
(3.75215e-10 0 1.90596e-10)
(3.39422e-10 0 1.90684e-10)
(3.03645e-10 0 1.90706e-10)
(2.6789e-10 0 1.90673e-10)
(2.32162e-10 0 1.90592e-10)
(1.96465e-10 0 1.90472e-10)
(1.608e-10 0 1.9032e-10)
(1.25169e-10 0 1.90146e-10)
(8.95732e-11 0 1.89943e-10)
(5.4015e-11 0 1.89675e-10)
(1.81229e-11 0 1.89668e-10)
(-0.00110956 0 0.00966541)
(-0.00128275 0 0.00718786)
(-0.00114189 0 0.00465959)
(-0.00105424 0 0.00202919)
(-0.000665782 0 -0.000558753)
(-0.000446477 0 -0.00223078)
(0.00210041 0 -0.00450462)
(0.00213557 0 -0.0053179)
(0.00300132 0 -0.00483598)
(0.00309584 0 -0.00438299)
(0.003536 0 -0.00302579)
(0.00367806 0 -0.00147446)
(0.0036815 0 -0.000482587)
(0.003428 0 0.00107965)
(0.00305639 0 0.00179077)
(0.00295088 0 0.00215431)
(0.00279393 0 0.00255218)
(0.00223169 0 0.00244801)
(0.00222928 0 0.00151819)
(0.00101621 0 -0.000393287)
(6.45025e-05 0 -0.00241002)
(-0.000818861 0 -0.00335495)
(-1.43394e-05 0 -0.00251622)
(8.1976e-10 0 2.18683e-09)
(1.82574e-09 0 1.40232e-09)
(2.03239e-09 0 1.30438e-09)
(2.02254e-09 0 1.16121e-09)
(1.96389e-09 0 1.01952e-09)
(1.89239e-09 0 8.90076e-10)
(1.8185e-09 0 7.74509e-10)
(1.74701e-09 0 6.72026e-10)
(1.68076e-09 0 5.81435e-10)
(1.62134e-09 0 5.01727e-10)
(1.56936e-09 0 4.32167e-10)
(1.52469e-09 0 3.72193e-10)
(1.48664e-09 0 3.21282e-10)
(1.45423e-09 0 2.78846e-10)
(1.42632e-09 0 2.44198e-10)
(1.40181e-09 0 2.16556e-10)
(1.37968e-09 0 1.95077e-10)
(1.35909e-09 0 1.7891e-10)
(1.33933e-09 0 1.6724e-10)
(1.31986e-09 0 1.59318e-10)
(1.30028e-09 0 1.5448e-10)
(1.28027e-09 0 1.52148e-10)
(1.25959e-09 0 1.51825e-10)
(1.23808e-09 0 1.53086e-10)
(1.21563e-09 0 1.55571e-10)
(1.19216e-09 0 1.58975e-10)
(1.16763e-09 0 1.63038e-10)
(1.14202e-09 0 1.67543e-10)
(1.11535e-09 0 1.72306e-10)
(1.08764e-09 0 1.77176e-10)
(1.05894e-09 0 1.82029e-10)
(1.02931e-09 0 1.86767e-10)
(9.98804e-10 0 1.91311e-10)
(9.67504e-10 0 1.95606e-10)
(9.35481e-10 0 1.9961e-10)
(9.02811e-10 0 2.03299e-10)
(8.69568e-10 0 2.06658e-10)
(8.35822e-10 0 2.09684e-10)
(8.01642e-10 0 2.12381e-10)
(7.67091e-10 0 2.14759e-10)
(7.32228e-10 0 2.16835e-10)
(6.97105e-10 0 2.18625e-10)
(6.6177e-10 0 2.2015e-10)
(6.26266e-10 0 2.21433e-10)
(5.90631e-10 0 2.22495e-10)
(5.54898e-10 0 2.23359e-10)
(5.19095e-10 0 2.24046e-10)
(4.83247e-10 0 2.24576e-10)
(4.47374e-10 0 2.2497e-10)
(4.11493e-10 0 2.25244e-10)
(3.75618e-10 0 2.25416e-10)
(3.39761e-10 0 2.25501e-10)
(3.03928e-10 0 2.25512e-10)
(2.68126e-10 0 2.2546e-10)
(2.32358e-10 0 2.25357e-10)
(1.96627e-10 0 2.25211e-10)
(1.60934e-10 0 2.2503e-10)
(1.2528e-10 0 2.24825e-10)
(8.96619e-11 0 2.24593e-10)
(5.4059e-11 0 2.24311e-10)
(1.81288e-11 0 2.24294e-10)
(-0.00144494 0 0.00957443)
(-0.000705255 0 0.00767545)
(-0.00075461 0 0.00500362)
(-0.000834614 0 0.0026616)
(0.000784137 0 -0.000868785)
(0.00163812 0 -0.00326848)
(0.00203983 0 -0.00581761)
(0.00328287 0 -0.0060714)
(0.00369029 0 -0.00552153)
(0.0038498 0 -0.00460142)
(0.0037857 0 -0.00352301)
(0.00403643 0 -0.00159554)
(0.00367302 0 -3.90751e-05)
(0.00290841 0 0.00164699)
(0.00280315 0 0.00187388)
(0.00288234 0 0.00208064)
(0.0027033 0 0.00262438)
(0.00254143 0 0.00259206)
(0.00218806 0 0.00220433)
(0.00211959 0 0.00111224)
(0.000197042 0 -0.00162329)
(0.000270145 0 -0.00267924)
(0.000115701 0 -0.00276691)
(2.23375e-09 0 1.12068e-08)
(1.35518e-09 0 1.43111e-09)
(2.01487e-09 0 1.35214e-09)
(1.91128e-09 0 1.21572e-09)
(1.84326e-09 0 1.07976e-09)
(1.77937e-09 0 9.53087e-10)
(1.71595e-09 0 8.36932e-10)
(1.65486e-09 0 7.30951e-10)
(1.59852e-09 0 6.34829e-10)
(1.54863e-09 0 5.48518e-10)
(1.50591e-09 0 4.72144e-10)
(1.47023e-09 0 4.05817e-10)
(1.44079e-09 0 3.49448e-10)
(1.41645e-09 0 3.02657e-10)
(1.39592e-09 0 2.64789e-10)
(1.37799e-09 0 2.3497e-10)
(1.36158e-09 0 2.12198e-10)
(1.34586e-09 0 1.95442e-10)
(1.33018e-09 0 1.83717e-10)
(1.31407e-09 0 1.76136e-10)
(1.29723e-09 0 1.71927e-10)
(1.27941e-09 0 1.70429e-10)
(1.26048e-09 0 1.71083e-10)
(1.24033e-09 0 1.73418e-10)
(1.21891e-09 0 1.77036e-10)
(1.1962e-09 0 1.81601e-10)
(1.17219e-09 0 1.86829e-10)
(1.14691e-09 0 1.9248e-10)
(1.12039e-09 0 1.98353e-10)
(1.09271e-09 0 2.04281e-10)
(1.06393e-09 0 2.1013e-10)
(1.03413e-09 0 2.15793e-10)
(1.0034e-09 0 2.21186e-10)
(9.71827e-10 0 2.2625e-10)
(9.39499e-10 0 2.30945e-10)
(9.06506e-10 0 2.35246e-10)
(8.72932e-10 0 2.39143e-10)
(8.38859e-10 0 2.42636e-10)
(8.0436e-10 0 2.45733e-10)
(7.69505e-10 0 2.48452e-10)
(7.34354e-10 0 2.50812e-10)
(6.98963e-10 0 2.52838e-10)
(6.63383e-10 0 2.54554e-10)
(6.27656e-10 0 2.55988e-10)
(5.9182e-10 0 2.57168e-10)
(5.55907e-10 0 2.58119e-10)
(5.19946e-10 0 2.58867e-10)
(4.8396e-10 0 2.59438e-10)
(4.47967e-10 0 2.59853e-10)
(4.11984e-10 0 2.60135e-10)
(3.76022e-10 0 2.60302e-10)
(3.4009e-10 0 2.60372e-10)
(3.04196e-10 0 2.60361e-10)
(2.68343e-10 0 2.60283e-10)
(2.32534e-10 0 2.60151e-10)
(1.96768e-10 0 2.59974e-10)
(1.61045e-10 0 2.59761e-10)
(1.25364e-10 0 2.5952e-10)
(8.97214e-11 0 2.5926e-10)
(5.40931e-11 0 2.58986e-10)
(1.81388e-11 0 2.58933e-10)
(-0.0017657 0 0.00964382)
(0.00050791 0 0.00792041)
(-0.000574195 0 0.00502002)
(0.000425528 0 0.000326339)
(0.00135243 0 -0.00214069)
(0.00202588 0 -0.00477542)
(0.0043806 0 -0.0060488)
(0.00412145 0 -0.00650438)
(0.00463091 0 -0.00559433)
(0.0040337 0 -0.00477515)
(0.00374895 0 -0.00360285)
(0.00394511 0 -0.00105579)
(0.00318812 0 0.000333497)
(0.00237559 0 0.00165189)
(0.00243689 0 0.001755)
(0.0024116 0 0.00217617)
(0.00240563 0 0.00271755)
(0.00237933 0 0.00264019)
(0.00210478 0 0.00226186)
(0.00186451 0 0.00147088)
(0.0010407 0 -0.00067974)
(9.33955e-05 0 -0.00210415)
(-0.00012668 0 -0.00264806)
(1.48905e-06 0 5.87475e-05)
(9.36128e-10 0 1.9415e-09)
(1.83175e-09 0 1.45082e-09)
(1.76869e-09 0 1.26983e-09)
(1.71914e-09 0 1.13185e-09)
(1.66611e-09 0 1.00688e-09)
(1.61149e-09 0 8.90435e-10)
(1.55867e-09 0 7.81228e-10)
(1.51075e-09 0 6.7961e-10)
(1.46974e-09 0 5.86575e-10)
(1.43641e-09 0 5.03283e-10)
(1.4104e-09 0 4.30679e-10)
(1.39058e-09 0 3.69181e-10)
(1.37542e-09 0 3.18607e-10)
(1.36334e-09 0 2.78281e-10)
(1.35291e-09 0 2.47162e-10)
(1.34296e-09 0 2.24002e-10)
(1.33267e-09 0 2.07516e-10)
(1.32146e-09 0 1.96514e-10)
(1.309e-09 0 1.89952e-10)
(1.29508e-09 0 1.86951e-10)
(1.2796e-09 0 1.86778e-10)
(1.26249e-09 0 1.88823e-10)
(1.24375e-09 0 1.92582e-10)
(1.22338e-09 0 1.97628e-10)
(1.20141e-09 0 2.03603e-10)
(1.1779e-09 0 2.10206e-10)
(1.1529e-09 0 2.1718e-10)
(1.1265e-09 0 2.2431e-10)
(1.09879e-09 0 2.31417e-10)
(1.06985e-09 0 2.38357e-10)
(1.03981e-09 0 2.45018e-10)
(1.00877e-09 0 2.51313e-10)
(9.76842e-10 0 2.57185e-10)
(9.4413e-10 0 2.62592e-10)
(9.10738e-10 0 2.67517e-10)
(8.76764e-10 0 2.71952e-10)
(8.42297e-10 0 2.75905e-10)
(8.07419e-10 0 2.79392e-10)
(7.72203e-10 0 2.82434e-10)
(7.36715e-10 0 2.8506e-10)
(7.01013e-10 0 2.87299e-10)
(6.65148e-10 0 2.89184e-10)
(6.29163e-10 0 2.90747e-10)
(5.93097e-10 0 2.92021e-10)
(5.5698e-10 0 2.93038e-10)
(5.2084e-10 0 2.93828e-10)
(4.84697e-10 0 2.94419e-10)
(4.4857e-10 0 2.94839e-10)
(4.12472e-10 0 2.95111e-10)
(3.76414e-10 0 2.95259e-10)
(3.40402e-10 0 2.95302e-10)
(3.04442e-10 0 2.95259e-10)
(2.68535e-10 0 2.95145e-10)
(2.32682e-10 0 2.94975e-10)
(1.96881e-10 0 2.9476e-10)
(1.61131e-10 0 2.9451e-10)
(1.25426e-10 0 2.94233e-10)
(8.97586e-11 0 2.93944e-10)
(5.41123e-11 0 2.93671e-10)
(1.81461e-11 0 2.93587e-10)
(-0.000957896 0 0.00987348)
(0.00073924 0 0.00774227)
(-0.000588298 0 0.00521217)
(0.00197363 0 -0.00148608)
(0.00240031 0 -0.00309599)
(0.00364764 0 -0.00550451)
(0.00433175 0 -0.0070372)
(0.00435344 0 -0.00682977)
(0.00496534 0 -0.00555644)
(0.00286145 0 -0.00493827)
(0.00289916 0 -0.0026172)
(0.00265827 0 -0.00121125)
(0.00266302 0 0.000261219)
(0.00169594 0 0.0019244)
(0.00167704 0 0.00210389)
(0.00201793 0 0.0020664)
(0.0021568 0 0.00258957)
(0.00209763 0 0.00263935)
(0.00183835 0 0.00242399)
(0.0018463 0 0.00164569)
(0.00096539 0 -3.3075e-05)
(-0.000272394 0 -0.00142466)
(-0.000927246 0 -0.00192734)
(5.54698e-05 0 4.4153e-05)
(5.92274e-10 0 1.77837e-09)
(1.39095e-09 0 1.28144e-09)
(1.61389e-09 0 1.28621e-09)
(1.59825e-09 0 1.17255e-09)
(1.5544e-09 0 1.05322e-09)
(1.50563e-09 0 9.37586e-10)
(1.45833e-09 0 8.24841e-10)
(1.41705e-09 0 7.16842e-10)
(1.38425e-09 0 6.16058e-10)
(1.36059e-09 0 5.25012e-10)
(1.34525e-09 0 4.45762e-10)
(1.33637e-09 0 3.79295e-10)
(1.33179e-09 0 3.25525e-10)
(1.32941e-09 0 2.83652e-10)
(1.32749e-09 0 2.52326e-10)
(1.32473e-09 0 2.29901e-10)
(1.32034e-09 0 2.14732e-10)
(1.31391e-09 0 2.05364e-10)
(1.30526e-09 0 2.00592e-10)
(1.29437e-09 0 1.99442e-10)
(1.28126e-09 0 2.01128e-10)
(1.26599e-09 0 2.05011e-10)
(1.24864e-09 0 2.10565e-10)
(1.22929e-09 0 2.17353e-10)
(1.20803e-09 0 2.25007e-10)
(1.18496e-09 0 2.3321e-10)
(1.16018e-09 0 2.41697e-10)
(1.1338e-09 0 2.50241e-10)
(1.10596e-09 0 2.58654e-10)
(1.07678e-09 0 2.66786e-10)
(1.0464e-09 0 2.74521e-10)
(1.01496e-09 0 2.81774e-10)
(9.82576e-10 0 2.88487e-10)
(9.49389e-10 0 2.94628e-10)
(9.15513e-10 0 3.00182e-10)
(8.81058e-10 0 3.05152e-10)
(8.46125e-10 0 3.09553e-10)
(8.10801e-10 0 3.1341e-10)
(7.75166e-10 0 3.16754e-10)
(7.3929e-10 0 3.1962e-10)
(7.03231e-10 0 3.22046e-10)
(6.67042e-10 0 3.24072e-10)
(6.30766e-10 0 3.25737e-10)
(5.94441e-10 0 3.2708e-10)
(5.58095e-10 0 3.28137e-10)
(5.21755e-10 0 3.28945e-10)
(4.8544e-10 0 3.29535e-10)
(4.49166e-10 0 3.29938e-10)
(4.12943e-10 0 3.30182e-10)
(3.76781e-10 0 3.30294e-10)
(3.40683e-10 0 3.30295e-10)
(3.04654e-10 0 3.30205e-10)
(2.68692e-10 0 3.30044e-10)
(2.32796e-10 0 3.29827e-10)
(1.96963e-10 0 3.29567e-10)
(1.61187e-10 0 3.29275e-10)
(1.25463e-10 0 3.28962e-10)
(8.9779e-11 0 3.28643e-10)
(5.41188e-11 0 3.2836e-10)
(1.81462e-11 0 3.28245e-10)
(-0.000754846 0 0.00978035)
(0.00137826 0 0.00727259)
(0.000264685 0 0.00544971)
(0.00266275 0 -0.00168514)
(0.00285574 0 -0.0040344)
(0.00408983 0 -0.00647332)
(0.00458717 0 -0.00715572)
(0.00441515 0 -0.00682305)
(0.00426667 0 -0.0051757)
(0.002531 0 -0.00340535)
(0.0020975 0 -0.00203799)
(0.00249058 0 -7.0974e-05)
(0.000809217 0 0.00183067)
(0.000584512 0 0.00225395)
(0.00121034 0 0.00210694)
(0.00163275 0 0.00200666)
(0.00152995 0 0.00262826)
(0.00160269 0 0.00269467)
(0.0014876 0 0.00250181)
(0.00140371 0 0.0020208)
(0.00106493 0 0.000757089)
(0.000391465 0 -0.00103444)
(0.000859728 0 -0.00195849)
(0.000597255 0 -0.00161155)
(1.26674e-06 0 3.93932e-05)
(9.0198e-10 0 1.67151e-09)
(1.66842e-09 0 1.40731e-09)
(1.50229e-09 0 1.21835e-09)
(1.4472e-09 0 1.09636e-09)
(1.39861e-09 0 9.82195e-10)
(1.35283e-09 0 8.64266e-10)
(1.31604e-09 0 7.47712e-10)
(1.29084e-09 0 6.36953e-10)
(1.27761e-09 0 5.36343e-10)
(1.27455e-09 0 4.49585e-10)
(1.27852e-09 0 3.78228e-10)
(1.28631e-09 0 3.21958e-10)
(1.29518e-09 0 2.7972e-10)
(1.30289e-09 0 2.49629e-10)
(1.30801e-09 0 2.29383e-10)
(1.30989e-09 0 2.16804e-10)
(1.30837e-09 0 2.10126e-10)
(1.30357e-09 0 2.07997e-10)
(1.29566e-09 0 2.09388e-10)
(1.28486e-09 0 2.13493e-10)
(1.27136e-09 0 2.19674e-10)
(1.25533e-09 0 2.27409e-10)
(1.23692e-09 0 2.36264e-10)
(1.21628e-09 0 2.45871e-10)
(1.19355e-09 0 2.55912e-10)
(1.16888e-09 0 2.66112e-10)
(1.14243e-09 0 2.76235e-10)
(1.11435e-09 0 2.86088e-10)
(1.0848e-09 0 2.95515e-10)
(1.05396e-09 0 3.04401e-10)
(1.02199e-09 0 3.12663e-10)
(9.89052e-10 0 3.2025e-10)
(9.55284e-10 0 3.27137e-10)
(9.20827e-10 0 3.3332e-10)
(8.85804e-10 0 3.38814e-10)
(8.50325e-10 0 3.43645e-10)
(8.14486e-10 0 3.47847e-10)
(7.78371e-10 0 3.51463e-10)
(7.42052e-10 0 3.54537e-10)
(7.0559e-10 0 3.57118e-10)
(6.69038e-10 0 3.59252e-10)
(6.32438e-10 0 3.60987e-10)
(5.95825e-10 0 3.62367e-10)
(5.59228e-10 0 3.63435e-10)
(5.2267e-10 0 3.64232e-10)
(4.86168e-10 0 3.64795e-10)
(4.49735e-10 0 3.65159e-10)
(4.1338e-10 0 3.65354e-10)
(3.77108e-10 0 3.6541e-10)
(3.40921e-10 0 3.65352e-10)
(3.04821e-10 0 3.65202e-10)
(2.68804e-10 0 3.64981e-10)
(2.32867e-10 0 3.64706e-10)
(1.97004e-10 0 3.64392e-10)
(1.61207e-10 0 3.64051e-10)
(1.25468e-10 0 3.63696e-10)
(8.97753e-11 0 3.63347e-10)
(5.41148e-11 0 3.63046e-10)
(1.81453e-11 0 3.62898e-10)
(-0.000533393 0 0.00938616)
(0.00230364 0 0.00641886)
(0.000544436 0 0.00539192)
(0.00302067 0 -0.00206977)
(0.00324145 0 -0.00492927)
(0.004628 0 -0.00664873)
(0.00306409 0 -0.0075667)
(0.00270252 0 -0.00648113)
(0.00239863 0 -0.00403098)
(-0.000683455 0 -0.00262993)
(0.00165418 0 -0.000634592)
(-0.00124378 0 0.000794078)
(-0.00112725 0 0.00139855)
(-0.000373602 0 0.00168887)
(-4.29032e-05 0 0.00170869)
(0.000696326 0 0.00226787)
(0.000926241 0 0.00259688)
(0.000912036 0 0.00264531)
(0.00102216 0 0.00246952)
(0.00123844 0 0.0020053)
(0.0012227 0 0.00137239)
(0.000779552 0 -0.000655518)
(-1.8043e-05 0 -0.00133718)
(-0.000640813 0 -0.00120418)
(0.000119865 0 0.000649004)
(5.76319e-10 0 1.75332e-09)
(1.19823e-09 0 1.46964e-09)
(1.30837e-09 0 1.20544e-09)
(1.33437e-09 0 1.13268e-09)
(1.28924e-09 0 1.03011e-09)
(1.2396e-09 0 9.02448e-10)
(1.20498e-09 0 7.73438e-10)
(1.18706e-09 0 6.4888e-10)
(1.18584e-09 0 5.35436e-10)
(1.19783e-09 0 4.39838e-10)
(1.21741e-09 0 3.63873e-10)
(1.24e-09 0 3.0603e-10)
(1.26206e-09 0 2.65066e-10)
(1.28065e-09 0 2.38238e-10)
(1.29422e-09 0 2.2208e-10)
(1.30248e-09 0 2.1364e-10)
(1.30578e-09 0 2.10836e-10)
(1.30465e-09 0 2.12254e-10)
(1.29956e-09 0 2.16888e-10)
(1.2909e-09 0 2.23975e-10)
(1.27901e-09 0 2.3291e-10)
(1.26415e-09 0 2.43206e-10)
(1.24655e-09 0 2.54453e-10)
(1.2264e-09 0 2.66294e-10)
(1.20389e-09 0 2.78415e-10)
(1.1792e-09 0 2.90534e-10)
(1.15252e-09 0 3.02409e-10)
(1.12405e-09 0 3.13839e-10)
(1.094e-09 0 3.24667e-10)
(1.06255e-09 0 3.34778e-10)
(1.02992e-09 0 3.44096e-10)
(9.96287e-10 0 3.5258e-10)
(9.61819e-10 0 3.60219e-10)
(9.26672e-10 0 3.67023e-10)
(8.90983e-10 0 3.73019e-10)
(8.54872e-10 0 3.7825e-10)
(8.18443e-10 0 3.82763e-10)
(7.81784e-10 0 3.86613e-10)
(7.44968e-10 0 3.89857e-10)
(7.08057e-10 0 3.92552e-10)
(6.71103e-10 0 3.94756e-10)
(6.34146e-10 0 3.96522e-10)
(5.9722e-10 0 3.97904e-10)
(5.60351e-10 0 3.98949e-10)
(5.23559e-10 0 3.99705e-10)
(4.86857e-10 0 4.00212e-10)
(4.50256e-10 0 4.00509e-10)
(4.13762e-10 0 4.00631e-10)
(3.77377e-10 0 4.00611e-10)
(3.41101e-10 0 4.00474e-10)
(3.0493e-10 0 4.00247e-10)
(2.68861e-10 0 3.99952e-10)
(2.32887e-10 0 3.99607e-10)
(1.96998e-10 0 3.9923e-10)
(1.61185e-10 0 3.98833e-10)
(1.25436e-10 0 3.98431e-10)
(8.97434e-11 0 3.98043e-10)
(5.40997e-11 0 3.9771e-10)
(1.81446e-11 0 3.97546e-10)
(-0.000908739 0 0.00861975)
(0.000871053 0 0.00610615)
(0.00151858 0 0.0021928)
(0.00282876 0 -0.00212739)
(0.0036798 0 -0.00543187)
(0.0025395 0 -0.00747127)
(0.00220409 0 -0.00673769)
(0.00123662 0 -0.00524393)
(0.000377233 0 -0.00300091)
(-0.000907794 0 -0.00153824)
(-0.0017341 0 0.000172829)
(-0.00158609 0 0.000522728)
(-0.00155219 0 0.000724908)
(-0.00127241 0 0.000923645)
(-0.000656425 0 0.00153613)
(-0.000709284 0 0.00188143)
(9.11008e-05 0 0.00243103)
(0.000219416 0 0.00236056)
(0.000640337 0 0.00219568)
(0.00114596 0 0.00174629)
(0.0011868 0 0.00137862)
(0.00153548 0 0.000159736)
(0.00139447 0 -0.000288975)
(0.000963297 0 -0.00096341)
(0.000892423 0 -0.000187135)
(1.819e-05 0 7.42111e-05)
(6.79227e-10 0 1.21176e-09)
(1.18957e-09 0 1.02602e-09)
(1.28409e-09 0 1.19525e-09)
(1.18392e-09 0 1.10005e-09)
(1.11331e-09 0 9.41768e-10)
(1.07938e-09 0 7.95168e-10)
(1.06876e-09 0 6.50966e-10)
(1.08263e-09 0 5.18736e-10)
(1.1146e-09 0 4.1278e-10)
(1.15381e-09 0 3.33553e-10)
(1.19427e-09 0 2.75237e-10)
(1.23207e-09 0 2.37921e-10)
(1.26292e-09 0 2.17414e-10)
(1.28519e-09 0 2.07938e-10)
(1.2995e-09 0 2.05471e-10)
(1.30716e-09 0 2.07781e-10)
(1.30927e-09 0 2.13625e-10)
(1.30663e-09 0 2.22171e-10)
(1.29983e-09 0 2.32766e-10)
(1.28931e-09 0 2.44885e-10)
(1.27542e-09 0 2.581e-10)
(1.25846e-09 0 2.7205e-10)
(1.23864e-09 0 2.86403e-10)
(1.21619e-09 0 3.00851e-10)
(1.19131e-09 0 3.15104e-10)
(1.16423e-09 0 3.28909e-10)
(1.1352e-09 0 3.42058e-10)