/*--------------------------------*- C++ -*----------------------------------*\
  =========                 |
  \\      /  F ield         | OpenFOAM: The Open Source CFD Toolbox
   \\    /   O peration     | Website:  https://openfoam.org
    \\  /    A nd           | Version:  6
     \\/     M anipulation  |
\*---------------------------------------------------------------------------*/
FoamFile
{
    version     2.0;
    format      ascii;
    class       volVectorField;
    location    "500";
    object      U;
}
// * * * * * * * * * * * * * * * * * * * * * * * * * * * * * * * * * * * * * //

dimensions      [0 1 -1 0 0 0 0];

internalField   nonuniform List<vector> 
4800
(
(-3.65691e-08 0 3.73263e-08)
(-1.10758e-07 0 3.54712e-08)
(-1.83063e-07 0 3.41114e-08)
(-2.53398e-07 0 3.2747e-08)
(-3.20882e-07 0 3.11552e-08)
(-3.84785e-07 0 2.92948e-08)
(-4.44459e-07 0 2.7172e-08)
(-4.99329e-07 0 2.48019e-08)
(-5.48912e-07 0 2.22263e-08)
(-5.92809e-07 0 1.94732e-08)
(-6.30722e-07 0 1.65943e-08)
(-6.62449e-07 0 1.36245e-08)
(-6.87878e-07 0 1.06081e-08)
(-7.06981e-07 0 7.57766e-09)
(-7.19824e-07 0 4.57982e-09)
(-7.26518e-07 0 1.64026e-09)
(-7.27302e-07 0 -1.1643e-09)
(-7.22476e-07 0 -3.89216e-09)
(-7.12254e-07 0 -6.46348e-09)
(-6.96974e-07 0 -8.7541e-09)
(-6.77588e-07 0 -1.05357e-08)
(-6.53926e-07 0 -1.30865e-08)
(-6.26067e-07 0 -1.46737e-08)
(-5.95232e-07 0 -1.61328e-08)
(-5.61611e-07 0 -1.74659e-08)
(-5.25498e-07 0 -1.8555e-08)
(-4.87498e-07 0 -1.93918e-08)
(-4.47998e-07 0 -2.00343e-08)
(-4.07395e-07 0 -2.04789e-08)
(-3.6607e-07 0 -2.07418e-08)
(-3.24379e-07 0 -2.08328e-08)
(-2.82651e-07 0 -2.07678e-08)
(-2.41199e-07 0 -2.0548e-08)
(-2.003e-07 0 -2.02064e-08)
(-1.60203e-07 0 -1.97398e-08)
(-1.21137e-07 0 -1.91714e-08)
(-8.32961e-08 0 -1.85123e-08)
(-4.68551e-08 0 -1.777e-08)
(-1.19551e-08 0 -1.69739e-08)
(2.12934e-08 0 -1.61147e-08)
(5.27776e-08 0 -1.52182e-08)
(8.24267e-08 0 -1.42845e-08)
(1.10183e-07 0 -1.33296e-08)
(1.36005e-07 0 -1.23565e-08)
(1.59867e-07 0 -1.13757e-08)
(1.8176e-07 0 -1.0397e-08)
(2.01686e-07 0 -9.4173e-09)
(2.19654e-07 0 -8.44604e-09)
(2.35692e-07 0 -7.4952e-09)
(2.49824e-07 0 -6.55082e-09)
(2.62087e-07 0 -5.6331e-09)
(2.72518e-07 0 -4.72853e-09)
(2.81156e-07 0 -3.84823e-09)
(2.88044e-07 0 -2.98789e-09)
(2.9323e-07 0 -2.15344e-09)
(2.96754e-07 0 -1.33707e-09)
(2.98671e-07 0 -5.46935e-10)
(2.99006e-07 0 2.30029e-10)
(2.97826e-07 0 9.73461e-10)
(2.95156e-07 0 1.69867e-09)
(2.9106e-07 0 2.40426e-09)
(2.85567e-07 0 3.0826e-09)
(2.78738e-07 0 3.73797e-09)
(2.70616e-07 0 4.36765e-09)
(2.61256e-07 0 4.97115e-09)
(2.50717e-07 0 5.54047e-09)
(2.39068e-07 0 6.07479e-09)
(2.26385e-07 0 6.56907e-09)
(2.12759e-07 0 7.01063e-09)
(1.98302e-07 0 7.39807e-09)
(1.8314e-07 0 7.70703e-09)
(1.67456e-07 0 7.91744e-09)
(1.51521e-07 0 7.95784e-09)
(1.35875e-07 0 7.64729e-09)
(1.21774e-07 0 6.44777e-09)
(1.12796e-07 0 2.61321e-09)
(1.19544e-07 0 -9.98624e-09)
(5.92206e-08 0 3.56678e-08)
(-1.16378e-11 0 2.7162e-08)
(-2.19902e-15 0 3.90322e-15)
(1.19948e-15 0 2.99853e-19)
(2.39508e-15 0 3.49484e-18)
(2.38543e-15 0 6.87594e-18)
(2.36986e-15 0 1.02157e-17)
(2.34763e-15 0 1.34417e-17)
(2.31893e-15 0 1.65126e-17)
(2.28409e-15 0 1.94077e-17)
(2.24353e-15 0 2.21374e-17)
(2.19762e-15 0 2.465e-17)
(2.14681e-15 0 2.69247e-17)
(2.09158e-15 0 2.8972e-17)
(2.0324e-15 0 3.08021e-17)
(1.96974e-15 0 3.23945e-17)
(1.90405e-15 0 3.37593e-17)
(1.8358e-15 0 3.48967e-17)
(1.76545e-15 0 3.58273e-17)
(1.69334e-15 0 3.6551e-17)
(1.61988e-15 0 3.70991e-17)
(1.54542e-15 0 3.75023e-17)
(1.47024e-15 0 3.77505e-17)
(1.39464e-15 0 3.78745e-17)
(1.31885e-15 0 3.78539e-17)
(1.24308e-15 0 3.77711e-17)
(1.1675e-15 0 3.75954e-17)
(1.09226e-15 0 3.73472e-17)
(1.01749e-15 0 3.70267e-17)
(9.43307e-16 0 3.67061e-17)
(8.69729e-16 0 3.63236e-17)
(7.96761e-16 0 3.5941e-17)
(7.24455e-16 0 3.55378e-17)
(6.52852e-16 0 3.51448e-17)
(5.81942e-16 0 3.47623e-17)
(5.11684e-16 0 3.439e-17)
(4.42004e-16 0 3.40385e-17)
(3.72872e-16 0 3.3749e-17)
(3.04216e-16 0 3.34595e-17)
(2.35964e-16 0 3.32423e-17)
(1.68062e-16 0 3.30459e-17)
(1.00502e-16 0 3.28598e-17)
(3.34078e-17 0 3.25496e-17)
(-3.69403e-08 0 1.11631e-07)
(-1.1197e-07 0 1.11638e-07)
(-1.85197e-07 0 1.09506e-07)
(-2.5637e-07 0 1.05829e-07)
(-3.24612e-07 0 1.00886e-07)
(-3.89191e-07 0 9.48578e-08)
(-4.49451e-07 0 8.78787e-08)
(-5.04817e-07 0 8.00761e-08)
(-5.54796e-07 0 7.16033e-08)
(-5.98993e-07 0 6.25992e-08)
(-6.37109e-07 0 5.3228e-08)
(-6.68938e-07 0 4.36266e-08)
(-6.94369e-07 0 3.39401e-08)
(-7.13388e-07 0 2.42935e-08)
(-7.26067e-07 0 1.48125e-08)
(-7.32527e-07 0 5.60235e-09)
(-7.33029e-07 0 -3.12003e-09)
(-7.27853e-07 0 -1.15536e-08)
(-7.17252e-07 0 -1.9434e-08)
(-7.01607e-07 0 -2.63568e-08)
(-6.81816e-07 0 -3.18495e-08)
(-6.57603e-07 0 -3.94579e-08)
(-6.29342e-07 0 -4.4282e-08)
(-5.98062e-07 0 -4.86604e-08)
(-5.63986e-07 0 -5.27191e-08)
(-5.2743e-07 0 -5.59773e-08)
(-4.89016e-07 0 -5.85128e-08)
(-4.49115e-07 0 -6.04544e-08)
(-4.08127e-07 0 -6.18088e-08)
(-3.66435e-07 0 -6.26073e-08)
(-3.24406e-07 0 -6.28861e-08)
(-2.82376e-07 0 -6.26893e-08)
(-2.40646e-07 0 -6.20394e-08)
(-1.99497e-07 0 -6.10061e-08)
(-1.59182e-07 0 -5.96049e-08)
(-1.19917e-07 0 -5.78957e-08)
(-8.19023e-08 0 -5.59081e-08)
(-4.53166e-08 0 -5.36651e-08)
(-1.02976e-08 0 -5.12634e-08)
(2.30528e-08 0 -4.86768e-08)
(5.4616e-08 0 -4.59608e-08)
(8.43228e-08 0 -4.31472e-08)
(1.12121e-07 0 -4.02606e-08)
(1.37967e-07 0 -3.73218e-08)
(1.61837e-07 0 -3.43579e-08)
(1.83727e-07 0 -3.1399e-08)
(2.03642e-07 0 -2.84432e-08)
(2.21598e-07 0 -2.55147e-08)
(2.37611e-07 0 -2.26319e-08)
(2.51708e-07 0 -1.97847e-08)
(2.63934e-07 0 -1.70079e-08)
(2.74321e-07 0 -1.4278e-08)
(2.82916e-07 0 -1.16185e-08)
(2.89758e-07 0 -9.01897e-09)
(2.94898e-07 0 -6.49863e-09)
(2.98378e-07 0 -4.03657e-09)
(3.00248e-07 0 -1.64692e-09)
(3.00538e-07 0 6.90748e-10)
(2.99315e-07 0 2.94361e-09)
(2.96594e-07 0 5.13093e-09)
(2.92457e-07 0 7.2572e-09)
(2.8692e-07 0 9.31198e-09)
(2.80036e-07 0 1.12962e-08)
(2.71857e-07 0 1.31973e-08)
(2.62434e-07 0 1.50272e-08)
(2.51825e-07 0 1.67515e-08)
(2.401e-07 0 1.83711e-08)
(2.2733e-07 0 1.98754e-08)
(2.13599e-07 0 2.12225e-08)
(1.99013e-07 0 2.24119e-08)
(1.83672e-07 0 2.33859e-08)
(1.67704e-07 0 2.40983e-08)
(1.51237e-07 0 2.44016e-08)
(1.34342e-07 0 2.39805e-08)
(1.16726e-07 0 2.20399e-08)
(9.66889e-08 0 1.63688e-08)
(6.47926e-08 0 7.12777e-10)
(4.05623e-08 0 8.17143e-08)
(-6.858e-12 0 6.95202e-08)
(-2.2497e-15 0 1.33907e-14)
(1.20268e-15 0 1.02364e-18)
(2.40165e-15 0 1.10325e-17)
(2.39213e-15 0 2.11862e-17)
(2.3764e-15 0 3.11744e-17)
(2.35392e-15 0 4.0842e-17)
(2.32489e-15 0 5.00444e-17)
(2.28971e-15 0 5.87608e-17)
(2.24877e-15 0 6.68982e-17)
(2.20241e-15 0 7.44049e-17)
(2.15114e-15 0 8.12395e-17)
(2.09547e-15 0 8.7371e-17)
(2.03584e-15 0 9.28097e-17)
(1.97269e-15 0 9.75349e-17)
(1.90655e-15 0 1.01578e-16)
(1.83787e-15 0 1.0498e-16)
(1.76709e-15 0 1.0773e-16)
(1.69461e-15 0 1.09901e-16)
(1.62083e-15 0 1.11525e-16)
(1.54605e-15 0 1.12652e-16)
(1.47059e-15 0 1.13334e-16)
(1.39473e-15 0 1.13634e-16)
(1.31873e-15 0 1.13562e-16)
(1.24281e-15 0 1.13231e-16)
(1.16708e-15 0 1.12621e-16)
(1.0917e-15 0 1.11824e-16)
(1.01685e-15 0 1.10842e-16)
(9.42603e-16 0 1.09777e-16)
(8.68964e-16 0 1.08609e-16)
(7.95965e-16 0 1.07368e-16)
(7.23659e-16 0 1.06107e-16)
(6.52087e-16 0 1.04866e-16)
(5.81198e-16 0 1.03677e-16)
(5.1097e-16 0 1.02539e-16)
(4.41363e-16 0 1.01474e-16)
(3.72283e-16 0 1.00554e-16)
(3.03689e-16 0 9.9696e-17)
(2.35529e-16 0 9.90032e-17)
(1.6769e-16 0 9.84242e-17)
(1.00027e-16 0 9.79382e-17)
(3.31079e-17 0 9.74626e-17)
(-3.7961e-08 0 1.87072e-07)
(-1.148e-07 0 1.84826e-07)
(-1.89493e-07 0 1.80474e-07)
(-2.62087e-07 0 1.74126e-07)
(-3.31688e-07 0 1.65894e-07)
(-3.97529e-07 0 1.55938e-07)
(-4.58913e-07 0 1.44433e-07)
(-5.15238e-07 0 1.31596e-07)
(-5.66004e-07 0 1.17645e-07)
(-6.10807e-07 0 1.02816e-07)
(-6.49341e-07 0 8.736e-08)
(-6.81406e-07 0 7.15086e-08)
(-7.069e-07 0 5.54929e-08)
(-7.25818e-07 0 3.95313e-08)
(-7.38239e-07 0 2.38069e-08)
(-7.44306e-07 0 8.53252e-09)
(-7.44298e-07 0 -5.95038e-09)
(-7.38472e-07 0 -2.00145e-08)
(-7.27169e-07 0 -3.31081e-08)
(-7.10842e-07 0 -4.43769e-08)
(-6.90257e-07 0 -5.42236e-08)
(-6.64945e-07 0 -6.6406e-08)
(-6.35879e-07 0 -7.45497e-08)
(-6.03707e-07 0 -8.18185e-08)
(-5.68712e-07 0 -8.86697e-08)
(-5.31269e-07 0 -9.39878e-08)
(-4.92017e-07 0 -9.82056e-08)
(-4.51303e-07 0 -1.01403e-07)
(-4.09552e-07 0 -1.03625e-07)
(-3.67149e-07 0 -1.04909e-07)
(-3.24459e-07 0 -1.05323e-07)
(-2.81813e-07 0 -1.04946e-07)
(-2.39521e-07 0 -1.03823e-07)
(-1.97866e-07 0 -1.02047e-07)
(-1.57099e-07 0 -9.96687e-08)
(-1.17443e-07 0 -9.67701e-08)
(-7.90915e-08 0 -9.34167e-08)
(-4.22158e-08 0 -8.96356e-08)
(-6.94891e-09 0 -8.55971e-08)
(2.65956e-08 0 -8.12515e-08)
(5.83135e-08 0 -7.66874e-08)
(8.81355e-08 0 -7.19677e-08)
(1.16005e-07 0 -6.71261e-08)
(1.41897e-07 0 -6.22081e-08)
(1.65792e-07 0 -5.7254e-08)
(1.8768e-07 0 -5.22965e-08)
(2.07564e-07 0 -4.73591e-08)
(2.2547e-07 0 -4.2473e-08)
(2.41424e-07 0 -3.76512e-08)
(2.55457e-07 0 -3.291e-08)
(2.67603e-07 0 -2.82644e-08)
(2.77905e-07 0 -2.37229e-08)
(2.86412e-07 0 -1.92853e-08)
(2.93168e-07 0 -1.49601e-08)
(2.98218e-07 0 -1.07537e-08)
(3.01605e-07 0 -6.66007e-09)
(3.03388e-07 0 -2.6776e-09)
(3.03589e-07 0 1.2086e-09)
(3.02286e-07 0 4.96846e-09)
(2.99473e-07 0 8.61252e-09)
(2.95241e-07 0 1.21493e-08)
(2.89605e-07 0 1.55787e-08)
(2.82621e-07 0 1.88873e-08)
(2.74334e-07 0 2.20599e-08)
(2.64788e-07 0 2.51151e-08)
(2.54047e-07 0 2.79962e-08)
(2.42167e-07 0 3.07074e-08)
(2.29223e-07 0 3.32274e-08)
(2.15292e-07 0 3.54955e-08)
(2.00468e-07 0 3.75141e-08)
(1.84827e-07 0 3.92203e-08)
(1.68452e-07 0 4.0553e-08)
(1.51385e-07 0 4.1416e-08)
(1.33495e-07 0 4.16682e-08)
(1.14204e-07 0 4.11348e-08)
(9.1827e-08 0 3.98166e-08)
(6.12787e-08 0 3.92706e-08)
(3.49144e-08 0 9.8546e-08)
(-5.77424e-12 0 9.66022e-08)
(-2.59248e-15 0 2.42356e-14)
(1.20951e-15 0 1.83014e-18)
(2.41525e-15 0 1.90045e-17)
(2.40558e-15 0 3.60444e-17)
(2.38949e-15 0 5.27431e-17)
(2.36648e-15 0 6.88938e-17)
(2.33684e-15 0 8.43207e-17)
(2.30093e-15 0 9.89205e-17)
(2.25918e-15 0 1.12497e-16)
(2.21195e-15 0 1.24997e-16)
(2.15978e-15 0 1.36381e-16)
(2.10316e-15 0 1.46597e-16)
(2.04256e-15 0 1.55603e-16)
(1.97851e-15 0 1.63451e-16)
(1.9115e-15 0 1.70141e-16)
(1.84196e-15 0 1.75724e-16)
(1.77035e-15 0 1.80243e-16)
(1.69713e-15 0 1.83789e-16)
(1.62264e-15 0 1.86416e-16)
(1.54722e-15 0 1.88194e-16)
(1.47121e-15 0 1.89238e-16)
(1.39487e-15 0 1.89621e-16)
(1.31843e-15 0 1.89424e-16)
(1.24212e-15 0 1.88742e-16)
(1.1661e-15 0 1.87625e-16)
(1.09049e-15 0 1.86188e-16)
(1.01545e-15 0 1.84492e-16)
(9.41073e-16 0 1.82579e-16)
(8.6733e-16 0 1.80543e-16)
(7.94269e-16 0 1.78402e-16)
(7.21953e-16 0 1.76221e-16)
(6.50423e-16 0 1.74101e-16)
(5.79637e-16 0 1.72033e-16)
(5.09502e-16 0 1.70099e-16)
(4.40019e-16 0 1.6828e-16)
(3.71094e-16 0 1.66656e-16)
(3.02665e-16 0 1.6525e-16)
(2.34671e-16 0 1.64051e-16)
(1.66997e-16 0 1.6312e-16)
(9.95615e-17 0 1.62417e-16)
(3.29425e-17 0 1.62034e-16)
(-3.91964e-08 0 2.65393e-07)
(-1.18632e-07 0 2.62341e-07)
(-1.95875e-07 0 2.56238e-07)
(-2.70873e-07 0 2.47213e-07)
(-3.42688e-07 0 2.35467e-07)
(-4.10521e-07 0 2.21234e-07)
(-4.73655e-07 0 2.04775e-07)
(-5.31463e-07 0 1.8642e-07)
(-5.83423e-07 0 1.66485e-07)
(-6.29125e-07 0 1.45316e-07)
(-6.6827e-07 0 1.23269e-07)
(-7.00662e-07 0 1.0068e-07)
(-7.2621e-07 0 7.78833e-08)
(-7.44917e-07 0 5.51897e-08)
(-7.56885e-07 0 3.28406e-08)
(-7.62304e-07 0 1.12648e-08)
(-7.61464e-07 0 -9.35096e-09)
(-7.54577e-07 0 -2.92299e-08)
(-7.42181e-07 0 -4.77639e-08)
(-7.24888e-07 0 -6.31959e-08)
(-7.03016e-07 0 -7.78928e-08)
(-6.75969e-07 0 -9.43246e-08)
(-6.45698e-07 0 -1.0591e-07)
(-6.12156e-07 0 -1.16087e-07)
(-5.75761e-07 0 -1.25803e-07)
(-5.37003e-07 0 -1.33062e-07)
(-4.96485e-07 0 -1.38939e-07)
(-4.54553e-07 0 -1.43347e-07)
(-4.11643e-07 0 -1.46376e-07)
(-3.68155e-07 0 -1.48085e-07)
(-3.24453e-07 0 -1.4858e-07)
(-2.80882e-07 0 -1.47948e-07)
(-2.37754e-07 0 -1.46285e-07)
(-1.95346e-07 0 -1.43695e-07)
(-1.53909e-07 0 -1.40273e-07)
(-1.13663e-07 0 -1.36117e-07)
(-7.48031e-08 0 -1.31331e-07)
(-3.74992e-08 0 -1.25952e-07)
(-1.86892e-09 0 -1.20219e-07)
(3.19618e-08 0 -1.14049e-07)
(6.39053e-08 0 -1.076e-07)
(9.38944e-08 0 -1.00915e-07)
(1.21881e-07 0 -9.40795e-08)
(1.47839e-07 0 -8.71452e-08)
(1.71754e-07 0 -8.01676e-08)
(1.93628e-07 0 -7.31796e-08)
(2.13475e-07 0 -6.62396e-08)
(2.31311e-07 0 -5.9365e-08)
(2.47168e-07 0 -5.25947e-08)
(2.6109e-07 0 -4.59432e-08)
(2.73118e-07 0 -3.94209e-08)
(2.83292e-07 0 -3.3054e-08)
(2.91664e-07 0 -2.68424e-08)
(2.98286e-07 0 -2.07853e-08)
(3.032e-07 0 -1.48897e-08)
(3.06454e-07 0 -9.16141e-09)
(3.08095e-07 0 -3.58538e-09)
(3.08167e-07 0 1.84808e-09)
(3.0673e-07 0 7.11709e-09)
(3.0379e-07 0 1.22246e-08)
(2.99415e-07 0 1.71784e-08)
(2.93652e-07 0 2.19926e-08)
(2.86513e-07 0 2.66326e-08)
(2.78069e-07 0 3.10973e-08)
(2.68349e-07 0 3.53922e-08)
(2.57409e-07 0 3.94582e-08)
(2.4531e-07 0 4.32886e-08)
(2.32117e-07 0 4.68543e-08)
(2.17898e-07 0 5.00912e-08)
(2.02734e-07 0 5.29829e-08)
(1.86709e-07 0 5.54947e-08)
(1.699e-07 0 5.75431e-08)
(1.5236e-07 0 5.91154e-08)
(1.34063e-07 0 6.02376e-08)
(1.14866e-07 0 6.11169e-08)
(9.47294e-08 0 6.25385e-08)
(7.4423e-08 0 6.68602e-08)
(3.24403e-08 0 1.29126e-07)
(-5.3783e-12 0 1.20339e-07)
(-2.28252e-15 0 3.36492e-14)
(1.21986e-15 0 2.5229e-18)
(2.43586e-15 0 2.69558e-17)
(2.42587e-15 0 5.11301e-17)
(2.40925e-15 0 7.47254e-17)
(2.3855e-15 0 9.75349e-17)
(2.35492e-15 0 1.19331e-16)
(2.31789e-15 0 1.39897e-16)
(2.27485e-15 0 1.59025e-16)
(2.22629e-15 0 1.76624e-16)
(2.17276e-15 0 1.92609e-16)
(2.1147e-15 0 2.06919e-16)
(2.05267e-15 0 2.19523e-16)
(1.98722e-15 0 2.30473e-16)
(1.91882e-15 0 2.39758e-16)
(1.84797e-15 0 2.47461e-16)
(1.77516e-15 0 2.53676e-16)
(1.70079e-15 0 2.58504e-16)
(1.62525e-15 0 2.6203e-16)
(1.5489e-15 0 2.64388e-16)
(1.47201e-15 0 2.65721e-16)
(1.39492e-15 0 2.66125e-16)
(1.31785e-15 0 2.6569e-16)
(1.241e-15 0 2.64584e-16)
(1.16454e-15 0 2.62909e-16)
(1.08859e-15 0 2.60758e-16)
(1.01325e-15 0 2.58256e-16)
(9.38643e-16 0 2.55475e-16)
(8.64776e-16 0 2.52466e-16)
(7.91653e-16 0 2.49416e-16)
(7.19358e-16 0 2.46314e-16)
(6.479e-16 0 2.43264e-16)
(5.77207e-16 0 2.40317e-16)
(5.07217e-16 0 2.37525e-16)
(4.37899e-16 0 2.3493e-16)
(3.69233e-16 0 2.32614e-16)
(3.01104e-16 0 2.30597e-16)
(2.33399e-16 0 2.28902e-16)
(1.66046e-16 0 2.27599e-16)
(9.89412e-17 0 2.26679e-16)
(3.2715e-17 0 2.26172e-16)
(-4.09283e-08 0 3.46554e-07)
(-1.23917e-07 0 3.42491e-07)
(-2.04596e-07 0 3.34426e-07)
(-2.82858e-07 0 3.22518e-07)
(-3.57687e-07 0 3.07032e-07)
(-4.28233e-07 0 2.88267e-07)
(-4.93735e-07 0 2.66586e-07)
(-5.5354e-07 0 2.42419e-07)
(-6.07108e-07 0 2.162e-07)
(-6.5402e-07 0 1.88386e-07)
(-6.93972e-07 0 1.59451e-07)
(-7.26778e-07 0 1.29839e-07)
(-7.5236e-07 0 9.99829e-08)
(-7.70749e-07 0 7.03009e-08)
(-7.82079e-07 0 4.10872e-08)
(-7.86593e-07 0 1.3063e-08)
(-7.84596e-07 0 -1.39409e-08)
(-7.76305e-07 0 -3.97788e-08)
(-7.62471e-07 0 -6.36127e-08)
(-7.43637e-07 0 -8.19388e-08)
(-7.19866e-07 0 -1.05164e-07)
(-6.90842e-07 0 -1.23587e-07)
(-6.58797e-07 0 -1.38797e-07)
(-6.23377e-07 0 -1.52064e-07)
(-5.85105e-07 0 -1.64529e-07)
(-5.44608e-07 0 -1.73658e-07)
(-5.02353e-07 0 -1.81141e-07)
(-4.58775e-07 0 -1.86692e-07)
(-4.14312e-07 0 -1.90439e-07)
(-3.6937e-07 0 -1.92489e-07)
(-3.24323e-07 0 -1.92966e-07)
(-2.79518e-07 0 -1.9198e-07)
(-2.35269e-07 0 -1.89676e-07)
(-1.91855e-07 0 -1.86174e-07)
(-1.49525e-07 0 -1.81608e-07)
(-1.08499e-07 0 -1.76107e-07)
(-6.89717e-08 0 -1.69776e-07)
(-3.11008e-08 0 -1.62737e-07)
(5.00807e-09 0 -1.55214e-07)
(3.92174e-08 0 -1.47146e-07)
(7.14504e-08 0 -1.38726e-07)
(1.01648e-07 0 -1.30026e-07)
(1.29783e-07 0 -1.21135e-07)
(1.5582e-07 0 -1.12128e-07)
(1.79757e-07 0 -1.03078e-07)
(2.01603e-07 0 -9.40296e-08)
(2.21379e-07 0 -8.50486e-08)
(2.39117e-07 0 -7.61606e-08)
(2.54853e-07 0 -6.74212e-08)
(2.68625e-07 0 -5.88382e-08)
(2.80488e-07 0 -5.04384e-08)
(2.90489e-07 0 -4.2231e-08)
(2.98683e-07 0 -3.42446e-08)
(3.05119e-07 0 -2.64509e-08)
(3.09848e-07 0 -1.88729e-08)
(3.12922e-07 0 -1.15052e-08)
(3.14385e-07 0 -4.34483e-09)
(3.14291e-07 0 2.63933e-09)
(3.1266e-07 0 9.40752e-09)
(3.09571e-07 0 1.59943e-08)
(3.04992e-07 0 2.23582e-08)
(2.9905e-07 0 2.85639e-08)
(2.9172e-07 0 3.45465e-08)
(2.8307e-07 0 4.03107e-08)
(2.73131e-07 0 4.58735e-08)
(2.61937e-07 0 5.11465e-08)
(2.4955e-07 0 5.61161e-08)
(2.36031e-07 0 6.07816e-08)
(2.21449e-07 0 6.50244e-08)
(2.05868e-07 0 6.88494e-08)
(1.89376e-07 0 7.21954e-08)
(1.7208e-07 0 7.49979e-08)
(1.54089e-07 0 7.72478e-08)
(1.35533e-07 0 7.90228e-08)
(1.16572e-07 0 8.05831e-08)
(9.75705e-08 0 8.25144e-08)
(7.80888e-08 0 8.65653e-08)
(3.17214e-08 0 1.73211e-07)
(-5.1754e-12 0 1.44921e-07)
(-2.42113e-15 0 4.28182e-14)
(1.23393e-15 0 3.19499e-18)
(2.46384e-15 0 3.51345e-17)
(2.45335e-15 0 6.67018e-17)
(2.4359e-15 0 9.74832e-17)
(2.41108e-15 0 1.272e-16)
(2.37919e-15 0 1.5552e-16)
(2.34064e-15 0 1.82197e-16)
(2.29591e-15 0 2.07023e-16)
(2.24554e-15 0 2.29822e-16)
(2.19007e-15 0 2.5046e-16)
(2.13008e-15 0 2.68885e-16)
(2.06612e-15 0 2.85057e-16)
(1.99874e-15 0 2.99046e-16)
(1.92848e-15 0 3.10855e-16)
(1.85588e-15 0 3.20626e-16)
(1.78141e-15 0 3.28411e-16)
(1.70547e-15 0 3.34398e-16)
(1.62854e-15 0 3.3873e-16)
(1.55093e-15 0 3.41512e-16)
(1.47293e-15 0 3.4297e-16)
(1.39483e-15 0 3.4327e-16)
(1.3169e-15 0 3.42494e-16)
(1.23934e-15 0 3.4086e-16)
(1.16228e-15 0 3.38493e-16)
(1.08585e-15 0 3.35525e-16)
(1.01016e-15 0 3.32113e-16)
(9.35283e-16 0 3.28349e-16)
(8.61271e-16 0 3.24358e-16)
(7.88096e-16 0 3.20253e-16)
(7.1579e-16 0 3.16169e-16)
(6.44425e-16 0 3.12095e-16)
(5.73898e-16 0 3.08197e-16)
(5.04125e-16 0 3.04516e-16)
(4.35107e-16 0 3.01135e-16)
(3.66751e-16 0 2.98085e-16)
(2.98964e-16 0 2.95438e-16)
(2.31683e-16 0 2.93236e-16)
(1.64764e-16 0 2.9154e-16)
(9.81243e-17 0 2.90371e-16)
(3.24358e-17 0 2.89751e-16)
(-4.3183e-08 0 4.31756e-07)
(-1.30768e-07 0 4.26584e-07)
(-2.15838e-07 0 4.16379e-07)
(-2.98273e-07 0 4.01341e-07)
(-3.7696e-07 0 3.81797e-07)
(-4.50973e-07 0 3.58137e-07)
(-5.19501e-07 0 3.3083e-07)
(-5.81848e-07 0 3.0042e-07)
(-6.37448e-07 0 2.67468e-07)
(-6.85873e-07 0 2.32557e-07)
(-7.26815e-07 0 1.96286e-07)
(-7.60102e-07 0 1.59206e-07)
(-7.85684e-07 0 1.21884e-07)
(-8.03618e-07 0 8.48274e-08)
(-8.14099e-07 0 4.84221e-08)
(-8.17432e-07 0 1.36742e-08)
(-8.13878e-07 0 -2.00157e-08)
(-8.03809e-07 0 -5.20643e-08)
(-7.88248e-07 0 -8.09829e-08)
(-7.67253e-07 0 -1.04089e-07)
(-7.40789e-07 0 -1.33261e-07)
(-7.09604e-07 0 -1.55031e-07)
(-6.75197e-07 0 -1.73786e-07)
(-6.37361e-07 0 -1.90341e-07)
(-5.96715e-07 0 -2.0511e-07)
(-5.53988e-07 0 -2.16284e-07)
(-5.09539e-07 0 -2.2525e-07)
(-4.63887e-07 0 -2.31844e-07)
(-4.17467e-07 0 -2.36202e-07)
(-3.70693e-07 0 -2.38476e-07)
(-3.23952e-07 0 -2.38809e-07)
(-2.776e-07 0 -2.37339e-07)
(-2.31945e-07 0 -2.34262e-07)
(-1.87276e-07 0 -2.29721e-07)
(-1.43837e-07 0 -2.2388e-07)
(-1.01846e-07 0 -2.16902e-07)
(-6.14982e-08 0 -2.08899e-07)
(-2.29163e-08 0 -2.00124e-07)
(1.37712e-08 0 -1.90672e-07)
(4.84354e-08 0 -1.80613e-07)
(8.10276e-08 0 -1.70126e-07)
(1.11479e-07 0 -1.59329e-07)
(1.39775e-07 0 -1.48308e-07)
(1.65899e-07 0 -1.37162e-07)
(1.89852e-07 0 -1.25974e-07)
(2.11652e-07 0 -1.14818e-07)
(2.31333e-07 0 -1.03751e-07)
(2.4893e-07 0 -9.2825e-08)
(2.64491e-07 0 -8.20814e-08)
(2.78067e-07 0 -7.155e-08)
(2.89715e-07 0 -6.12566e-08)
(2.99491e-07 0 -5.12089e-08)
(3.07453e-07 0 -4.14357e-08)
(3.13658e-07 0 -3.19107e-08)
(3.18156e-07 0 -2.26475e-08)
(3.21001e-07 0 -1.3649e-08)
(3.22236e-07 0 -4.89956e-09)
(3.21914e-07 0 3.62521e-09)
(3.20075e-07 0 1.18883e-08)
(3.16773e-07 0 1.99504e-08)
(3.12002e-07 0 2.77531e-08)
(3.05811e-07 0 3.53207e-08)
(2.98279e-07 0 4.26837e-08)
(2.89369e-07 0 4.97658e-08)
(2.79156e-07 0 5.66029e-08)
(2.6766e-07 0 6.31252e-08)
(2.54931e-07 0 6.93201e-08)
(2.41028e-07 0 7.50684e-08)
(2.25997e-07 0 8.03768e-08)
(2.09904e-07 0 8.52046e-08)
(1.9285e-07 0 8.94354e-08)
(1.74955e-07 0 9.30037e-08)
(1.56388e-07 0 9.58588e-08)
(1.37404e-07 0 9.80136e-08)
(1.18369e-07 0 9.96288e-08)
(9.98733e-08 0 1.01086e-07)
(7.82478e-08 0 1.09005e-07)
(2.87444e-08 0 2.20979e-07)
(-5.34592e-12 0 1.65699e-07)
(-2.47569e-15 0 5.29129e-14)
(1.2518e-15 0 3.92911e-18)
(2.49938e-15 0 4.36648e-17)
(2.48824e-15 0 8.29352e-17)
(2.46974e-15 0 1.21265e-16)
(2.44352e-15 0 1.58167e-16)
(2.40991e-15 0 1.93302e-16)
(2.36939e-15 0 2.26358e-16)
(2.32249e-15 0 2.57015e-16)
(2.26973e-15 0 2.85119e-16)
(2.21179e-15 0 3.10451e-16)
(2.14928e-15 0 3.33023e-16)
(2.08285e-15 0 3.52741e-16)
(2.01304e-15 0 3.69677e-16)
(1.9404e-15 0 3.83936e-16)
(1.86554e-15 0 3.9562e-16)
(1.78894e-15 0 4.04853e-16)
(1.7111e-15 0 4.11833e-16)
(1.63238e-15 0 4.16796e-16)
(1.55314e-15 0 4.19856e-16)
(1.47376e-15 0 4.21273e-16)
(1.39446e-15 0 4.21231e-16)
(1.31546e-15 0 4.1996e-16)
(1.23699e-15 0 4.17633e-16)
(1.15919e-15 0 4.14418e-16)
(1.08219e-15 0 4.10499e-16)
(1.00607e-15 0 4.06063e-16)
(9.30899e-16 0 4.01193e-16)
(8.5669e-16 0 3.96085e-16)
(7.83454e-16 0 3.90843e-16)
(7.112e-16 0 3.85642e-16)
(6.39938e-16 0 3.80503e-16)
(5.69628e-16 0 3.75571e-16)
(5.00155e-16 0 3.70939e-16)
(4.31478e-16 0 3.667e-16)
(3.63556e-16 0 3.62884e-16)
(2.96265e-16 0 3.59606e-16)
(2.29512e-16 0 3.56887e-16)
(1.63182e-16 0 3.54798e-16)
(9.71524e-17 0 3.53351e-16)
(3.2105e-17 0 3.52627e-16)
(-4.59873e-08 0 5.22126e-07)
(-1.39292e-07 0 5.15747e-07)
(-2.29826e-07 0 5.03188e-07)
(-3.17434e-07 0 4.84709e-07)
(-4.00895e-07 0 4.60699e-07)
(-4.79192e-07 0 4.31667e-07)
(-5.51443e-07 0 3.98202e-07)
(-6.16902e-07 0 3.60983e-07)
(-6.74972e-07 0 3.20707e-07)
(-7.25204e-07 0 2.78104e-07)
(-7.67301e-07 0 2.33909e-07)
(-8.01119e-07 0 1.88809e-07)
(-8.26627e-07 0 1.43497e-07)
(-8.43919e-07 0 9.8543e-08)
(-8.53348e-07 0 5.454e-08)
(-8.55146e-07 0 1.27898e-08)
(-8.49463e-07 0 -2.80219e-08)
(-8.37322e-07 0 -6.67999e-08)
(-8.19766e-07 0 -9.98416e-08)
(-7.95954e-07 0 -1.2881e-07)
(-7.65775e-07 0 -1.64428e-07)
(-7.32218e-07 0 -1.89072e-07)
(-6.94868e-07 0 -2.11359e-07)
(-6.5406e-07 0 -2.31377e-07)
(-6.10517e-07 0 -2.48212e-07)
(-5.65062e-07 0 -2.61384e-07)
(-5.17961e-07 0 -2.71723e-07)
(-4.69776e-07 0 -2.79239e-07)
(-4.2097e-07 0 -2.84067e-07)
(-3.71982e-07 0 -2.86408e-07)
(-3.23204e-07 0 -2.86431e-07)
(-2.74987e-07 0 -2.84326e-07)
(-2.27646e-07 0 -2.80311e-07)
(-1.81473e-07 0 -2.74559e-07)
(-1.36713e-07 0 -2.67288e-07)
(-9.35652e-08 0 -2.5868e-07)
(-5.22312e-08 0 -2.48856e-07)
(-1.28193e-08 0 -2.382e-07)
(2.45394e-08 0 -2.2669e-07)
(5.97363e-08 0 -2.14517e-07)
(9.27424e-08 0 -2.01859e-07)
(1.23483e-07 0 -1.88847e-07)
(1.51951e-07 0 -1.75601e-07)
(1.7815e-07 0 -1.62236e-07)
(2.02101e-07 0 -1.48846e-07)
(2.23829e-07 0 -1.35515e-07)
(2.43374e-07 0 -1.22316e-07)
(2.60786e-07 0 -1.09305e-07)
(2.76124e-07 0 -9.65298e-08)
(2.89448e-07 0 -8.40282e-08)
(3.00824e-07 0 -7.18239e-08)
(3.10314e-07 0 -5.99287e-08)
(3.17984e-07 0 -4.83625e-08)
(3.23896e-07 0 -3.711e-08)
(3.28109e-07 0 -2.61678e-08)
(3.30678e-07 0 -1.55443e-08)
(3.31647e-07 0 -5.20664e-09)
(3.31062e-07 0 4.84252e-09)
(3.28979e-07 0 1.46051e-08)
(3.25409e-07 0 2.41193e-08)
(3.20418e-07 0 3.33768e-08)
(3.13986e-07 0 4.23527e-08)
(3.06155e-07 0 5.10433e-08)
(2.96983e-07 0 5.94865e-08)
(2.86453e-07 0 6.764e-08)
(2.74625e-07 0 7.55195e-08)
(2.61501e-07 0 8.28256e-08)
(2.47154e-07 0 8.97994e-08)
(2.31595e-07 0 9.62776e-08)
(2.149e-07 0 1.02152e-07)
(1.97164e-07 0 1.07333e-07)
(1.78502e-07 0 1.1172e-07)
(1.591e-07 0 1.15172e-07)
(1.39312e-07 0 1.17537e-07)
(1.1974e-07 0 1.1875e-07)
(1.01057e-07 0 1.19184e-07)
(6.20986e-08 0 1.51407e-07)
(2.81983e-08 0 2.65182e-07)
(-5.30144e-12 0 1.82433e-07)
(-2.39014e-15 0 6.25857e-14)
(1.27368e-15 0 4.63221e-18)
(2.54287e-15 0 5.26707e-17)
(2.53094e-15 0 1.0012e-16)
(2.51112e-15 0 1.4637e-16)
(2.48313e-15 0 1.90893e-16)
(2.44738e-15 0 2.33182e-16)
(2.40436e-15 0 2.72877e-16)
(2.35468e-15 0 3.09572e-16)
(2.29897e-15 0 3.43073e-16)
(2.23795e-15 0 3.73214e-16)
(2.17234e-15 0 3.99921e-16)
(2.10279e-15 0 4.23155e-16)
(2.02993e-15 0 4.42955e-16)
(1.95441e-15 0 4.59499e-16)
(1.87679e-15 0 4.7292e-16)
(1.79763e-15 0 4.83415e-16)
(1.71743e-15 0 4.91211e-16)
(1.63657e-15 0 4.96536e-16)
(1.5554e-15 0 4.99658e-16)
(1.47429e-15 0 5.00827e-16)
(1.39353e-15 0 5.00248e-16)
(1.3133e-15 0 4.98263e-16)
(1.23379e-15 0 4.95026e-16)
(1.15516e-15 0 4.90787e-16)
(1.07749e-15 0 4.85741e-16)
(1.00085e-15 0 4.80096e-16)
(9.25305e-16 0 4.73995e-16)
(8.5091e-16 0 4.67605e-16)
(7.77653e-16 0 4.61122e-16)
(7.05461e-16 0 4.54691e-16)
(6.34375e-16 0 4.48415e-16)
(5.64334e-16 0 4.42418e-16)
(4.95223e-16 0 4.36762e-16)
(4.27032e-16 0 4.31592e-16)
(3.59648e-16 0 4.26991e-16)
(2.92956e-16 0 4.23031e-16)
(2.26875e-16 0 4.19774e-16)
(1.61238e-16 0 4.17271e-16)
(9.5953e-17 0 4.15555e-16)
(3.17017e-17 0 4.14676e-16)
(-4.94054e-08 0 6.18846e-07)
(-1.49685e-07 0 6.11126e-07)
(-2.46868e-07 0 5.9594e-07)
(-3.40759e-07 0 5.73615e-07)
(-4.29996e-07 0 5.44632e-07)
(-5.13454e-07 0 5.09635e-07)
(-5.90176e-07 0 4.69352e-07)
(-6.59343e-07 0 4.24607e-07)
(-7.2032e-07 0 3.76274e-07)
(-7.72653e-07 0 3.25253e-07)
(-8.16063e-07 0 2.72416e-07)
(-8.50422e-07 0 2.18616e-07)
(-8.75728e-07 0 1.64672e-07)
(-8.92202e-07 0 1.1118e-07)
(-9.00258e-07 0 5.95454e-08)
(-9.00063e-07 0 9.58853e-09)
(-8.91832e-07 0 -3.84084e-08)
(-8.7741e-07 0 -8.37825e-08)
(-8.56849e-07 0 -1.18561e-07)
(-8.29299e-07 0 -1.62116e-07)
(-7.95433e-07 0 -1.96534e-07)
(-7.58704e-07 0 -2.26394e-07)
(-7.17752e-07 0 -2.51968e-07)
(-6.73385e-07 0 -2.76001e-07)
(-6.26509e-07 0 -2.94331e-07)
(-5.77721e-07 0 -3.09448e-07)
(-5.27458e-07 0 -3.21044e-07)
(-4.76277e-07 0 -3.29312e-07)
(-4.24664e-07 0 -3.34443e-07)
(-3.73065e-07 0 -3.36653e-07)
(-3.21886e-07 0 -3.36178e-07)
(-2.71487e-07 0 -3.33237e-07)
(-2.22185e-07 0 -3.28085e-07)
(-1.74261e-07 0 -3.20928e-07)
(-1.27963e-07 0 -3.12031e-07)
(-8.34981e-08 0 -3.01603e-07)
(-4.10322e-08 0 -2.89789e-07)
(-6.5469e-10 0 -2.77074e-07)
(3.74588e-08 0 -2.63346e-07)
(7.32563e-08 0 -2.48909e-07)
(1.06692e-07 0 -2.33946e-07)
(1.37743e-07 0 -2.18596e-07)
(1.66383e-07 0 -2.03012e-07)
(1.92652e-07 0 -1.87334e-07)
(2.16569e-07 0 -1.71656e-07)
(2.38179e-07 0 -1.56084e-07)
(2.5754e-07 0 -1.40688e-07)
(2.74715e-07 0 -1.25551e-07)
(2.89768e-07 0 -1.10707e-07)
(3.02778e-07 0 -9.62103e-08)
(3.13817e-07 0 -8.20783e-08)
(3.22962e-07 0 -6.83259e-08)
(3.30283e-07 0 -5.49707e-08)
(3.35846e-07 0 -4.19894e-08)
(3.39716e-07 0 -2.93815e-08)
(3.41953e-07 0 -1.7142e-08)
(3.42608e-07 0 -5.22989e-09)
(3.4173e-07 0 6.33542e-09)
(3.3935e-07 0 1.75865e-08)
(3.35505e-07 0 2.85556e-08)
(3.30235e-07 0 3.92317e-08)
(3.23534e-07 0 4.96114e-08)
(3.15444e-07 0 5.9735e-08)
(3.05941e-07 0 6.9535e-08)
(2.9508e-07 0 7.90758e-08)
(2.82865e-07 0 8.81248e-08)
(2.69328e-07 0 9.68481e-08)
(2.54461e-07 0 1.05077e-07)
(2.38321e-07 0 1.12756e-07)
(2.20955e-07 0 1.19781e-07)
(2.02415e-07 0 1.26032e-07)
(1.82787e-07 0 1.31367e-07)
(1.62208e-07 0 1.35567e-07)
(1.40995e-07 0 1.38226e-07)
(1.20128e-07 0 1.3862e-07)
(1.02895e-07 0 1.35099e-07)
(5.09469e-08 0 2.15698e-07)
(2.77311e-08 0 2.48879e-07)
(-5.07765e-12 0 2.0119e-07)
(-2.55742e-15 0 7.2356e-14)
(1.29985e-15 0 5.32498e-18)
(2.59488e-15 0 6.22867e-17)
(2.58193e-15 0 1.18494e-16)
(2.56051e-15 0 1.73201e-16)
(2.53035e-15 0 2.2582e-16)
(2.49188e-15 0 2.75658e-16)
(2.44578e-15 0 3.2228e-16)
(2.3927e-15 0 3.65293e-16)
(2.33337e-15 0 4.04367e-16)
(2.26863e-15 0 4.39388e-16)
(2.19921e-15 0 4.70211e-16)
(2.1259e-15 0 4.96867e-16)
(2.04939e-15 0 5.19438e-16)
(1.97037e-15 0 5.38091e-16)
(1.88945e-15 0 5.53022e-16)
(1.80722e-15 0 5.6453e-16)
(1.72422e-15 0 5.72854e-16)
(1.64083e-15 0 5.78303e-16)
(1.55743e-15 0 5.81187e-16)
(1.47435e-15 0 5.81829e-16)
(1.3919e-15 0 5.80515e-16)
(1.31023e-15 0 5.77527e-16)
(1.22952e-15 0 5.73164e-16)
(1.14992e-15 0 5.67663e-16)
(1.07149e-15 0 5.61273e-16)
(9.94323e-16 0 5.54221e-16)
(9.18419e-16 0 5.46715e-16)
(8.43807e-16 0 5.38939e-16)
(7.70519e-16 0 5.31081e-16)
(6.98492e-16 0 5.23306e-16)
(6.27665e-16 0 5.15778e-16)
(5.57964e-16 0 5.08582e-16)
(4.89319e-16 0 5.01861e-16)
(4.21697e-16 0 4.9575e-16)
(3.54985e-16 0 4.90301e-16)
(2.89038e-16 0 4.85627e-16)
(2.23742e-16 0 4.81812e-16)
(1.58953e-16 0 4.78886e-16)
(9.45674e-17 0 4.76911e-16)
(3.12364e-17 0 4.75887e-16)
(-5.3514e-08 0 7.23255e-07)
(-1.62178e-07 0 7.14016e-07)
(-2.67332e-07 0 6.95861e-07)
(-3.68741e-07 0 6.69185e-07)
(-4.64872e-07 0 6.34598e-07)
(-5.54465e-07 0 5.92891e-07)
(-6.36447e-07 0 5.44974e-07)
(-7.09956e-07 0 4.91828e-07)
(-7.74305e-07 0 4.34551e-07)
(-8.29037e-07 0 3.74201e-07)
(-8.73868e-07 0 3.11871e-07)
(-9.08716e-07 0 2.48537e-07)
(-9.33628e-07 0 1.85173e-07)
(-9.49145e-07 0 1.2233e-07)
(-9.55311e-07 0 6.2709e-08)
(-9.52329e-07 0 4.10244e-09)
(-9.41813e-07 0 -5.26923e-08)
(-9.2466e-07 0 -1.02817e-07)
(-8.99378e-07 0 -1.4262e-07)
(-8.66996e-07 0 -1.96835e-07)
(-8.30161e-07 0 -2.33216e-07)
(-7.89059e-07 0 -2.67421e-07)
(-7.43815e-07 0 -2.97137e-07)
(-6.95308e-07 0 -3.23605e-07)
(-6.44539e-07 0 -3.44267e-07)
(-5.91839e-07 0 -3.61024e-07)
(-5.37887e-07 0 -3.73704e-07)
(-4.8322e-07 0 -3.82521e-07)
(-4.28352e-07 0 -3.87735e-07)
(-3.73742e-07 0 -3.89597e-07)
(-3.198e-07 0 -3.88387e-07)
(-2.66895e-07 0 -3.84369e-07)
(-2.15347e-07 0 -3.77837e-07)
(-1.65439e-07 0 -3.69049e-07)
(-1.17399e-07 0 -3.58301e-07)
(-7.14477e-08 0 -3.45759e-07)
(-2.76806e-08 0 -3.31914e-07)
(1.37366e-08 0 -3.16814e-07)
(5.26872e-08 0 -3.00714e-07)
(8.91358e-08 0 -2.8384e-07)
(1.23039e-07 0 -2.66406e-07)
(1.54405e-07 0 -2.48582e-07)
(1.83216e-07 0 -2.30532e-07)
(2.09515e-07 0 -2.12427e-07)
(2.33357e-07 0 -1.94366e-07)
(2.54794e-07 0 -1.7646e-07)
(2.73903e-07 0 -1.58817e-07)
(2.90765e-07 0 -1.41492e-07)
(3.05463e-07 0 -1.24546e-07)
(3.18081e-07 0 -1.08027e-07)
(3.28708e-07 0 -9.1954e-08)
(3.37433e-07 0 -7.63412e-08)
(3.4433e-07 0 -6.11898e-08)
(3.49481e-07 0 -4.64951e-08)
(3.52957e-07 0 -3.22308e-08)
(3.54814e-07 0 -1.83931e-08)
(3.55111e-07 0 -4.93013e-09)
(3.53898e-07 0 8.1336e-09)
(3.51201e-07 0 2.08731e-08)
(3.47052e-07 0 3.32779e-08)
(3.4148e-07 0 4.53836e-08)
(3.34481e-07 0 5.71725e-08)
(3.26081e-07 0 6.86949e-08)
(3.16276e-07 0 7.99194e-08)
(3.05061e-07 0 9.07654e-08)
(2.92452e-07 0 1.01277e-07)
(2.78444e-07 0 1.11331e-07)
(2.63047e-07 0 1.20899e-07)
(2.46281e-07 0 1.29882e-07)