/*--------------------------------*- C++ -*----------------------------------*\
  =========                 |
  \\      /  F ield         | OpenFOAM: The Open Source CFD Toolbox
   \\    /   O peration     | Website:  https://openfoam.org
    \\  /    A nd           | Version:  6
     \\/     M anipulation  |
\*---------------------------------------------------------------------------*/
FoamFile
{
    version     2.0;
    format      ascii;
    class       volScalarField;
    location    "780";
    object      p;
}
// * * * * * * * * * * * * * * * * * * * * * * * * * * * * * * * * * * * * * //

dimensions      [1 -1 -2 0 0 0 0];

internalField   nonuniform List<scalar> 
5964
(
103798
103798
103798
103798
103798
103798
103798
103798
103798
103798
103798
103798
103798
103798
103798
103798
103798
103798
103798
103798
103798
103798
103794
103790
103786
103783
103781
103778
103776
103774
103772
103770
103768
103766
103764
103763
103761
103760
103758
103757
103756
103754
103753
103752
103751
103750
103748
103747
103746
103745
103744
103743
103743
103742
103741
103740
103739
103738
103738
103737
103736
103736
103735
103735
103734
103734
103733
103733
103732
103732
103731
103731
103731
103730
103730
103730
103730
103730
103729
103729
103729
103729
103729
103729
103738
103738
103738
103738
103738
103738
103738
103738
103738
103738
103738
103738
103738
103738
103738
103738
103738
103738
103738
103738
103738
103738
103734
103730
103727
103724
103722
103719
103717
103715
103713
103711
103709
103707
103706
103704
103703
103701
103700
103698
103697
103696
103694
103693
103692
103691
103690
103689
103688
103687
103686
103685
103684
103683
103682
103681
103681
103680
103679
103678
103678
103677
103676
103676
103675
103675
103674
103674
103673
103673
103673
103672
103672
103672
103672
103671
103671
103671
103671
103671
103670
103670
103670
103670
103677
103677
103677
103677
103677
103677
103677
103677
103677
103677
103677
103677
103677
103677
103677
103677
103677
103677
103677
103677
103678
103677
103674
103671
103668
103665
103663
103660
103658
103656
103654
103652
103650
103649
103647
103645
103644
103642
103641
103640
103638
103637
103636
103635
103633
103632
103631
103630
103629
103628
103627
103626
103625
103624
103623
103623
103622
103621
103620
103620
103619
103618
103618
103617
103617
103616
103616
103615
103615
103614
103614
103614
103613
103613
103613
103613
103612
103612
103612
103612
103612
103612
103612
103612
103617
103617
103617
103617
103617
103617
103617
103617
103617
103617
103617
103617
103617
103617
103617
103617
103617
103617
103617
103617
103617
103617
103614
103611
103609
103606
103604
103601
103599
103597
103595
103593
103592
103590
103588
103587
103585
103584
103582
103581
103580
103578
103577
103576
103575
103574
103572
103571
103570
103569
103568
103567
103566
103566
103565
103564
103563
103562
103562
103561
103560
103560
103559
103559
103558
103557
103557
103557
103556
103556
103555
103555
103555
103554
103554
103554
103554
103553
103553
103553
103553
103553
103553
103553
103556
103556
103556
103556
103556
103556
103556
103556
103557
103557
103557
103557
103557
103557
103557
103557
103557
103557
103557
103557
103557
103557
103554
103551
103549
103547
103544
103542
103540
103538
103536
103534
103533
103531
103529
103528
103526
103525
103524
103522
103521
103520
103518
103517
103516
103515
103514
103513
103512
103511
103510
103509
103508
103507
103506
103505
103504
103504
103503
103502
103502
103501
103500
103500
103499
103499
103498
103498
103497
103497
103497
103496
103496
103496
103495
103495
103495
103495
103495
103494
103494
103494
103494
103494
103496
103496
103496
103496
103496
103496
103496
103496
103496
103496
103496
103496
103496
103496
103496
103496
103496
103496
103496
103496
103496
103496
103494
103491
103489
103487
103485
103483
103481
103479
103477
103475
103474
103472
103471
103469
103468
103466
103465
103463
103462
103461
103460
103458
103457
103456
103455
103454
103453
103452
103451
103450
103449
103448
103447
103446
103446
103445
103444
103443
103443
103442
103442
103441
103440
103440
103439
103439
103439
103438
103438
103438
103437
103437
103437
103436
103436
103436
103436
103436
103436
103436
103435
103435
103436
103436
103436
103436
103436
103436
103436
103436
103436
103436
103436
103436
103436
103436
103436
103436
103436
103436
103436
103436
103436
103436
103434
103432
103429
103427
103425
103423
103422
103420
103418
103416
103415
103413
103412
103410
103409
103407
103406
103404
103403
103402
103401
103399
103398
103397
103396
103395
103394
103393
103392
103391
103390
103389
103388
103388
103387
103386
103385
103385
103384
103383
103383
103382
103382
103381
103381
103380
103380
103379
103379
103379
103378
103378
103378
103378
103377
103377
103377
103377
103377
103377
103377
103377
103375
103375
103375
103375
103375
103375
103375
103375
103375
103375
103375
103375
103375
103375
103375
103375
103375
103375
103375
103375
103375
103375
103373
103371
103370
103368
103366
103364
103362
103361
103359
103357
103356
103354
103353
103351
103350
103348
103347
103346
103344
103343
103342
103341
103339
103338
103337
103336
103335
103334
103333
103332
103331
103330
103330
103329
103328
103327
103327
103326
103325
103325
103324
103323
103323
103322
103322
103321
103321
103321
103320
103320
103320
103319
103319
103319
103319
103318
103318
103318
103318
103318
103318
103318
103315
103315
103315
103315
103315
103315
103315
103315
103315
103315
103315
103315
103315
103315
103315
103315
103315
103315
103315
103315
103315
103315
103313
103311
103310
103308
103306
103305
103303
103301
103300
103298
103297
103295
103294
103292
103291
103289
103288
103287
103285
103284
103283
103282
103281
103279
103278
103277
103276
103275
103274
103273
103272
103272
103271
103270
103269
103268
103268
103267
103266
103266
103265
103265
103264
103264
103263
103263
103262
103262
103261
103261
103261
103261
103260
103260
103260
103260
103259
103259
103259
103259
103259
103259
103254
103254
103254
103254
103254
103254
103254
103254
103254
103254
103254
103254
103254
103254
103254
103254
103254
103254
103254
103254
103255
103255
103253
103251
103250
103248
103247
103245
103243
103242
103240
103239
103237
103236
103235
103233
103232
103230
103229
103228
103226
103225
103224
103223
103222
103221
103220
103218
103217
103216
103215
103215
103214
103213
103212
103211
103210
103210
103209
103208
103208
103207
103206
103206
103205
103205
103204
103204
103203
103203
103203
103202
103202
103202
103201
103201
103201
103201
103201
103201
103200
103200
103200
103200
103194
103194
103194
103194
103194
103194
103194
103194
103194
103194
103194
103194
103194
103194
103194
103194
103194
103194
103194
103194
103194
103194
103193
103191
103190
103189
103187
103186
103184
103183
103181
103180
103178
103177
103175
103174
103173
103171
103170
103169
103168
103166
103165
103164
103163
103162
103161
103160
103159
103158
103157
103156
103155
103154
103153
103152
103151
103151
103150
103149
103149
103148
103147
103147
103146
103146
103145
103145
103144
103144
103144
103143
103143
103143
103143
103142
103142
103142
103142
103142
103142
103141
103141
103141
103134
103134
103133
103133
103133
103134
103134
103134
103134
103134
103134
103134
103134
103134
103134
103134
103134
103134
103134
103134
103134
103134
103133
103132
103130
103129
103127
103126
103125
103123
103122
103120
103119
103118
103116
103115
103114
103112
103111
103110
103109
103107
103106
103105
103104
103103
103102
103101
103100
103099
103098
103097
103096
103095
103094
103093
103093
103092
103091
103090
103090
103089
103089
103088
103087
103087
103086
103086
103086
103085
103085
103085
103084
103084
103084
103083
103083
103083
103083
103083
103083
103083
103083
103083
103073
103073
103073
103073
103073
103073
103073
103073
103073
103073
103073
103073
103073
103073
103073
103073
103073
103073
103073
103073
103073
103073
103073
103072
103070
103069
103068
103066
103065
103064
103062
103061
103060
103059
103057
103056
103055
103053
103052
103051
103050
103048
103047
103046
103045
103044
103043
103042
103041
103040
103039
103038
103037
103036
103035
103034
103034
103033
103032
103031
103031
103030
103030
103029
103029
103028
103028
103027
103027
103026
103026
103026
103025
103025
103025
103025
103024
103024
103024
103024
103024
103024
103024
103024
103013
103013
103013
103013
103013
103013
103013
103013
103013
103013
103013
103013
103013
103013
103013
103013
103013
103013
103013
103013
103013
103013
103013
103012
103011
103009
103008
103007
103006
103004
103003
103002
103001
102999
102998
102997
102996
102994
102993
102992
102991
102989
102988
102987
102986
102985
102984
102983
102982
102981
102980
102979
102978
102977
102976
102975
102975
102974
102973
102972
102972
102971
102971
102970
102970
102969
102969
102968
102968
102967
102967
102967
102966
102966
102966
102966
102965
102965
102965
102965
102965
102965
102965
102965
102952
102952
102952
102952
102952
102952
102952
102952
102952
102952
102952
102952
102952
102952
102952
102952
102952
102952
102952
102952
102952
102952
102952
102952
102951
102950
102948
102947
102946
102945
102944
102943
102941
102940
102939
102938
102937
102935
102934
102933
102932
102930
102929
102928
102927
102926
102925
102924
102923
102922
102921
102920
102919
102918
102917
102916
102916
102915
102914
102913
102913
102912
102912
102911
102911
102910
102910
102909
102909
102908
102908
102908
102907
102907
102907
102907
102906
102906
102906
102906
102906
102906
102906
102906
102892
102892
102892
102892
102892
102892
102892
102892
102892
102892
102892
102892
102892
102892
102892
102892
102892
102892
102892
102892
102892
102892
102892
102892
102891
102890
102889
102888
102887
102886
102885
102883
102882
102881
102880
102879
102877
102876
102875
102874
102873
102871
102870
102869
102868
102867
102866
102865
102864
102863
102862
102861
102860
102859
102858
102857
102857
102856
102855
102854
102854
102853
102853
102852
102852
102851
102851
102850
102850
102849
102849
102849
102848
102848
102848
102848
102847
102847
102847
102847
102847
102847
102847
102847
102832
102832
102832
102832
102832
102832
102832
102832
102832
102832
102832
102832
102832
102832
102832
102832
102832
102832
102832
102832
102832
102832
102832
102832
102831
102830
102829
102828
102827
102826
102825
102824
102823
102822
102821
102820
102818
102817
102816
102815
102813
102812
102811
102810
102809
102808
102807
102806
102805
102804
102803
102802
102801
102800
102799
102798
102798
102797
102796
102795
102795
102794
102794
102793
102793
102792
102792
102791
102791
102790
102790
102790
102789
102789
102789
102789
102788
102788
102788
102788
102788
102788
102788
102788
102771
102771
102771
102771
102771
102771
102771
102771
102771
102771
102771
102771
102771
102771
102771
102771
102771
102771
102771
102771
102771
102771
102771
102771
102771
102770
102769
102769
102768
102767
102766
102765
102764
102763
102762
102761
102759
102758
102757
102756
102754
102753
102752
102751
102750
102749
102748
102746
102745
102744
102744
102743
102742
102741
102740
102739
102738
102738
102737
102736
102736
102735
102735
102734
102734
102733
102733
102732
102732
102731
102731
102731
102730
102730
102730
102730
102729
102729
102729
102729
102729
102729
102729
102729
102711
102711
102711
102711
102711
102711
102711
102711
102711
102711
102711
102711
102711
102711
102711
102711
102711
102711
102711
102711
102711
102711
102711
102711
102711
102710
102710
102709
102709
102708
102707
102706
102705
102704
102703
102701
102700
102699
102698
102697
102695
102694
102693
102692
102691
102689
102688
102687
102686
102685
102684
102683
102683
102682
102681
102680
102679
102679
102678
102677
102677
102676
102675
102675
102674
102674
102673
102673
102673
102672
102672
102672
102671
102671
102671
102671
102670
102670
102670
102670
102670
102670
102670
102670
102651
102651
102651
102651
102651
102650
102650
102650
102650
102650
102650
102650
102650
102650
102650
102650
102650
102650
102650
102650
102650
102650
102650
102650
102650
102650
102650
102649
102649
102649
102648
102647
102646
102645
102644
102642
102641
102640
102639
102637
102636
102635
102634
102633
102631
102630
102629
102628
102627
102626
102625
102624
102623
102623
102622
102621
102620
102620
102619
102618
102618
102617
102616
102616
102615
102615
102614
102614
102614
102613
102613
102613
102612
102612
102612
102612
102611
102611
102611
102611
102611
102611
102611
102611
102590
102590
102590
102590
102590
102590
102590
102590
102590
102590
102590
102590
102590
102590
102590
102590
102590
102590
102590
102590
102590
102590
102590
102590
102590
102590
102590
102590
102590
102589
102589
102588
102587
102586
102585
102583
102582
102581
102580
102578
102577
102576
102575
102573
102572
102571
102570
102569
102568
102567
102566
102565
102564
102563
102563
102562
102561
102560
102560
102559
102558
102558
102557
102557
102556
102556
102555
102555
102554
102554
102554
102553
102553
102553
102553
102552
102552
102552
102552
102552
102552
102552
102552
102552
102530
102530
102530
102530
102530
102530
102530
102530
102529
102529
102529
102529
102529
102529
102529
102529
102529
102529
102529
102529
102529
102529
102529
102529
102529
102529
102529
102529
102529
102529
102529
102530
102529
102527
102526
102524
102523
102522
102521
102519
102518
102517
102515
102514
102513
102512
102511
102510
102509
102508
102507
102506
102505
102504
102503
102503
102502
102501
102501
102500
102499
102499
102498
102498
102497
102497
102496
102496
102495
102495
102495
102494
102494
102494
102494
102493
102493
102493
102493
102493
102493
102493
102493
102493
102469
102469
102469
102469
102469
102469
102469
102469
102469
102469
102469
102469
102469
102469
102469
102469
102469
102469
102469
102469
102469
102469
102469
102469
102469
102469
102469
102469
102469
102469
102469
102469
102469
102467
102466
102465
102464
102463
102461
102460
102459
102458
102456
102455
102454
102453
102452
102451
102450
102449
102448
102447
102446
102445
102444
102443
102443
102442
102441
102441
102440
102439
102439
102438
102438
102437
102437
102437
102436
102436
102436
102435
102435
102435
102434
102434
102434
102434
102434
102434
102434
102434
102433
102433
102409
102409
102409
102409
102409
102409
102409
102409
102409
102409
102409
102408
102408
102408
102408
102408
102408
102408
102408
102408
102408
102408
102408
102408
102408
102408
102409
102409
102409
102409
102409
102409
102409
102408
102407
102406
102405
102404
102402
102401
102400
102398
102397
102396
102395
102394
102392
102391
102390
102389
102388
102387
102387
102386
102385
102384
102383
102383
102382
102381
102381
102380
102380
102379
102379
102378
102378
102377
102377
102377
102376
102376
102376
102376
102375
102375
102375
102375
102375
102375
102374
102374
102374
102374
102348
102348
102349
102349
102348
102348
102348
102348
102348
102348
102348
102348
102348
102348
102348
102348
102348
102348
102348
102348
102348
102348
102348
102348
102348
102348
102348
102348
102348
102348
102348
102348
102348
102348
102348
102348
102346
102345
102343
102342
102340
102339
102338
102337
102335
102334
102333
102332
102331
102330
102329
102328
102327
102326
102326
102325
102324
102323
102323
102322
102322
102321
102320
102320
102319
102319
102319
102318
102318
102317
102317
102317
102317
102316
102316
102316
102316
102316
102315
102315
102315
102315
102315
102315
102288
102288
102288
102288
102288
102288
102288
102288
102288
102288
102288
102288
102288
102287
102287
102287
102287
102287
102287
102287
102287
102287
102287
102287
102288
102288
102288
102288
102288
102288
102288
102288
102288
102288
102288
102288
102287
102285
102284
102283
102281
102280
102279
102277
102276
102275
102274
102273
102272
102271
102270
102269
102268
102267
102266
102266
102265
102264
102264
102263
102262
102262
102261
102261
102260
102260
102259
102259
102259
102258
102258
102258
102257
102257
102257
102257
102257
102256
102256
102256
102256
102256
102256
102256
102228
102228
102228
102228
102227
102227
102227
102227
102227
102227
102227
102227
102227
102227
102227
102227
102227
102227
102227
102227
102227
102227
102227
102227
102227
102227
102227
102227
102227
102227
102227
102227
102227
102227
102227
102227
102227
102226
102225
102223
102222
102221
102219
102218
102217
102216
102214
102213
102212
102211
102210
102210
102209
102208
102207
102206
102206
102205
102204
102204
102203
102202
102202
102201
102201
102201
102200
102200
102199
102199
102199
102198
102198
102198
102198
102198
102197
102197
102197
102197
102197
102197
102197
102197
102167
102167
102167
102167
102167
102167
102167
102167
102167
102167
102167
102167
102167
102167
102167
102167
102167
102167
102167
102167
102167
102167
102167
102167
102167
102167
102167
102167
102167
102167
102167
102167
102167
102167
102167
102167
102167
102166
102165
102164
102163
102161
102160
102159
102157
102156
102155
102154
102153
102152
102151
102150
102149
102148
102148
102147
102146
102146
102145
102144
102144
102143
102143
102142
102142
102141
102141
102140
102140
102140
102139
102139
102139
102139
102139
102138
102138
102138
102138
102138
102138
102138
102138
102138
102107
102107
102107
102107
102107
102106
102106
102106
102106
102106
102106
102106
102106
102106
102106
102106
102106
102106
102106
102106
102106
102106
102106
102106
102106
102106
102106
102106
102106
102106
102106
102106
102106
102106
102106
102106
102106
102106
102106
102105
102103
102102
102101
102099
102098
102097
102096
102095
102094
102093
102092
102091
102090
102089
102088
102088
102087
102086
102086
102085
102084
102084
102083
102083
102082
102082
102082
102081
102081
102081
102080
102080
102080
102079
102079
102079
102079
102079
102079
102079
102079
102078
102078
102078
102046
102046
102046
102046
102046
102046
102046
102046
102046
102046
102046
102046
102046
102046
102046
102046
102046
102046
102046
102046
102046
102046
102046
102046
102046
102046
102046
102046
102046
102046
102046
102046
102046
102046
102046
102046
102046
102046
102046
102046
102044
102042
102041
102040
102038
102037
102036
102035
102034
102033
102032
102031
102030
102030
102029
102028
102027
102027
102026
102026
102025
102024
102024
102023
102023
102023
102022
102022
102022
102021
102021
102021
102020
102020
102020
102020
102020
102020
102019
102019
102019
102019
102019
102019
101986
101986
101986
101986
101986
101985
101985
101985
101985
101985
101985
101985
101985
101985
101985
101985
101985
101985
101985
101985
101985
101985
101985
101985
101985
101985
101985
101985
101985
101985
101985
101985
101985
101985
101985
101985
101985
101985
101986
101986
101984
101983
101982
101980
101979
101978
101977
101976
101975
101974
101973
101972
101971
101970
101969
101969
101968
101967
101967
101966
101966
101965
101965
101964
101964
101963
101963
101963
101962
101962
101962
101961
101961
101961
101961
101961
101960
101960
101960
101960
101960
101960
101960
101960
101925
101925
101925
101925
101925
101925
101925
101925
101925
101925
101925
101925
101925
101925
101925
101925
101925
101925
101925
101925
101925
101925
101925
101925
101925
101925
101925
101925
101925
101925
101925
101925
101925
101925
101925
101925
101925
101925
101925
101925
101925
101923
101922
101921
101919
101918
101917
101916
101915
101914
101913
101912
101911
101911
101910
101909
101909
101908
101907
101907
101906
101906
101905
101905
101904
101904
101904
101903
101903
101903
101902
101902
101902
101902
101901
101901
101901
101901
101901
101901
101901
101901
101901
101901
101865
101865
101865
101865
101865
101865
101865
101864
101864
101864
101864
101864
101864
101864
101864
101864
101864
101864
101864
101864
101864
101864
101864
101864
101864
101864
101864
101864
101864
101864
101864
101864
101864
101864
101864
101864
101865
101865
101865
101865
101865
101864
101862
101861
101860
101859
101857
101856
101855
101854
101854
101853
101852
101851
101850
101850
101849
101848
101848
101847
101847
101846
101846
101845
101845
101845
101844
101844
101844
101843
101843
101843
101843
101842
101842
101842
101842
101842
101842
101842
101841
101841
101841
101841
101804
101804
101804
101804
101804
101804
101804
101804
101804
101804
101804
101804
101804
101804
101804
101804
101804
101804
101804
101804
101804
101804
101804
101804
101804
101804
101804
101804
101804
101804
101804
101804
101804
101804
101804
101804
101804
101804
101804
101804
101804
101804
101803
101801
101800
101799
101798
101797
101796
101795
101794
101793
101792
101792
101791
101790
101789
101789
101788
101788
101787
101787
101786
101786
101785
101785
101785
101784
101784
101784
101784
101783
101783
101783
101783
101783
101783
101782
101782
101782
101782
101782
101782
101782
101744
101744
101744
101744
101744
101744
101744
101744
101744
101744
101744
101744
101744
101744
101744
101744
101744
101743
101743
101743
101743
101743
101743
101743
101743
101743
101743
101743
101743
101743
101743
101743
101743
101743
101743
101744
101744
101744
101744
101744
101744
101744
101743
101741
101740
101739
101738
101737
101736
101735
101734
101733
101733
101732
101731
101731
101730
101729
101729
101728
101728
101727
101727
101726
101726
101726
101725
101725
101725
101724
101724
101724
101724
101724
101723
101723
101723
101723
101723
101723
101723
101723
101723
101723
101683
101683
101683
101683
101683
101683
101683
101683
101683
101683
101683
101683
101683
101683
101683
101683
101683
101683
101683
101683
101683
101683
101683
101683
101683
101683
101683
101683
101683
101683
101683
101683
101683
101683
101683
101683
101683
101683
101683
101683
101683
101683
101683
101682
101680
101679
101678
101677
101676
101675
101675
101674
101673
101672
101672
101671
101670
101670
101669
101669
101668
101668
101667
101667
101667
101666
101666
101666
101665
101665
101665
101665
101664
101664
101664
101664
101664
101664
101664
101664
101664
101664
101663
101663
101623
101623
101623
101623
101623
101623
101623
101623
101623
101623
101623
101623
101623
101623
101623
101623
101623
101623
101623
101623
101623
101623
101623
101623
101623
101623
101623
101623
101623
101622
101622
101622
101622
101622
101623
101623
101623
101623
101623
101623
101623
101623
101623
101622
101621
101619
101618
101617
101617
101616
101615
101614
101613
101613
101612
101611
101611
101610
101610
101609
101609
101608
101608
101607
101607
101607
101606
101606
101606
101606
101605
101605
101605
101605
101605
101605
101604
101604
101604
101604
101604
101604
101604
101604
101562
101562
101562
101562
101562
101562
101562
101562
101562
101562
101562
101562
101562
101562
101562
101562
101562
101562
101562
101562
101562
101562
101562
101562
101562
101562
101562
101562
101562
101562
101562
101562
101562
101562
101562
101562
101562
101562
101562
101562
101562
101562
101562
101562
101561
101560
101559
101558
101557
101556
101555
101554
101554
101553
101552
101552
101551
101551
101550
101550
101549
101549
101548
101548
101548
101547
101547
101547
101546
101546
101546
101546
101546
101545
101545
101545
101545
101545
101545
101545
101545
101545
101545
101545
101502
101502
101502
101502
101502
101502
101502
101502
101502
101502
101502
101502
101502
101502
101502
101502
101502
101502
101502
101502
101502
101502
101502
101502
101502
101502
101502
101502
101502
101502
101502
101502
101502
101502
101502
101502
101502
101502
101502
101502
101502
101502
101502
101502
101501
101500
101499
101498
101497
101496
101495
101495
101494
101493
101493
101492
101491
101491
101490
101490
101489
101489
101489
101488
101488
101488
101487
101487
101487
101487
101487
101486
101486
101486
101486
101486
101486
101486
101486
101486
101486
101485
101485
101485
101442
101441
101441
101441
101441
101441
101441
101441
101441
101441
101441
101441
101441
101441
101441
101441
101441
101441
101441
101441
101441
101441
101441
101441
101441
101441
101441
101441
101441
101441
101441
101441
101441
101441
101441
101441
101441
101441
101441
101441
101442
101442
101442
101442
101441
101440
101439
101438
101437
101436
101435
101435
101434
101433
101433
101432
101432
101431
101431
101430
101430
101429
101429
101429
101428
101428
101428
101428
101427
101427
101427
101427
101427
101427
101427
101426
101426
101426
101426
101426
101426
101426
101426
101426
101381
101381
101381
101381
101381
101381
101381
101381
101381
101381
101381
101381
101381
101381
101381
101381
101381
101381
101381
101381
101381
101381
101381
101381
101381
101381
101381
101381
101381
101381
101381
101381
101381
101381
101381
101381
101381
101381
101381
101381
101381
101381
101381
101381
101381
101380
101379
101378
101377
101376
101376
101375
101374
101374
101373
101373
101372
101372
101371
101371
101370
101370
101370
101369
101369
101369
101368
101368
101368
101368
101368
101367
101367
101367
101367
101367
101367
101367
101367
101367
101367
101367
101367
101367
101321
101320
101320
101320
101320
101320
101320
101320
101320
101320
101320
101320
101320
101320
101320
101320
101320
101320
101320
101320
101320
101320
101320
101320
101320
101320
101320
101320
101320
101320
101320
101320
101320
101320
101320
101320
101320
101320
101320
101321
101321
101321
101321
101321
101321
101320
101319
101318
101317
101316
101316
101315
101314
101314
101313
101313
101312
101312
101311
101311
101311
101310
101310
101310
101309
101309
101309
101309
101308
101308
101308
101308
101308
101308
101308
101308
101308
101307
101307
101307
101307
101307
101307
101307
101260
101260
101260
101260
101260
101260
101260
101260
101260
101260
101260
101260
101260
101260
101260
101260
101260
101260
101260
101260
101260
101260
101260
101260
101260
101260
101260
101260
101260
101260
101260
101260
101260
101260
101260
101260
101260
101260
101260
101260
101260
101260
101260
101260
101260
101259
101259
101258
101257
101256
101256
101255
101255
101254
101253
101253
101252
101252
101252
101251
101251
101251
101250
101250
101250
101249
101249
101249
101249
101249
101249
101248
101248
101248
101248
101248
101248
101248
101248
101248
101248
101248
101248
101248
101200
101200
101200
101200
101200
101200
101200
101199
101199
101200
101200
101200
101200
101200
101200
101200
101200
101200
101200
101200
101200
101200
101200
101200
101200
101200
101200
101200
101200
101199
101199
101199
101199
101199
101199
101199
101199
101200
101200
101200
101200
101200
101200
101200
101200
101199
101198
101198
101197
101196
101196
101195
101195
101194
101194
101193
101193
101192
101192
101192
101191
101191
101191
101190
101190
101190
101190
101189
101189
101189
101189
101189
101189
101189
101189
101189
101189
101189
101189
101189
101189
101189
101189
101189
101139
101139
101139
101139
101139
101139
101139
101139
101139
101139
101139
101139
101139
101139
101139
101139
101139
101139
101139
101139
101139
101139
101139
101139
101139
101139
101139
101139
101139
101139
101139
101139
101139
101139
101139
101139
101139
101139
101139
101139
101139
101139
101139
101139
101139
101139
101138
101138
101137
101136
101136
101135
101135
101134
101134
101133
101133
101132
101132
101132
101131
101131
101131
101131
101130
101130
101130
101130
101130
101130
101129
101129
101129
101129
101129
101129
101129
101129
101129
101129
101129
101129
101129
101129
101079
101079
101079
101079
101079
101079
101079
101079
101079
101079
101079
101079
101079
101079
101079
101079
101079
101079
101079
101079
101079
101079
101079
101079
101079
101079
101079
101079
101079
101079
101079
101079
101079
101079
101079
101079
101079
101079
101079
101079
101079
101079
101079
101079
101079
101079
101078
101078
101077
101076
101076
101075
101075
101074
101074
101073
101073
101073
101072
101072
101072
101071
101071
101071
101071
101071
101070
101070
101070
101070
101070
101070
101070
101070
101070
101070
101070
101070
101070
101070
101070
101070
101070
101070
101018
101018
101018
101018
101018
101018
101018
101018
101018
101018
101018
101018
101018
101018
101018
101018
101018
101018
101018
101018
101018
101018
101018
101018
101018
101018
101018
101018
101018
101018
101018
101018
101018
101018
101018
101018
101018
101018
101018
101018
101019
101019
101019
101019
101019
101019
101018
101017
101017
101016
101016
101015
101015
101014
101014
101014
101013
101013
101013
101012
101012
101012
101011
101011
101011
101011
101011
101011
101010
101010
101010
101010
101010
101010
101010
101010
101010
101010
101010
101010
101010
101011
101011
101011
100958
100958
100958
100958
100958
100958
100958
100958
100958
100958
100958
100958
100958
100958
100958
100958
100958
100958
100958
100958
100958
100958
100958
100958
100958
100958
100958
100958
100958
100958
100958
100958
100958
100958
100958
100958
100958
100958
100958
100958
100958
100958
100958
100959
100959
100959
100958
100957
100957
100956
100956
100955
100955
100954
100954
100954
100953
100953
100953
100952
100952
100952
100952
100952
100951
100951
100951
100951
100951
100951
100951
100951
100951
100951
100951
100951
100951
100951
100951
100951
100951
100951
100951
100951
100898
100897
100897
100897
100897
100897
100897
100897
100897
100897
100897
100897
100897
100897
100897
100897
100897
100897
100898
100898
100898
100898
100898
100898
100898
100898
100897
100897
100897
100897
100897
100897
100897
100897
100897
100897
100897
100897
100898
100898
100898
100898
100898
100898
100898
100898
100898
100897
100897
100896
100896
100895
100895
100894
100894
100894
100893
100893
100893
100893
100892
100892
100892
100892
100892
100891
100891
100891
100891
100891
100891
100891
100891
100891
100891
100891
100891
100891
100892
100892
100892
100892
100892
100892
100837
100837
100837
100837
100837
100837
100837
100837
100837
100837
100837
100837
100837
100837
100837
100837
100837
100837
100837
100837
100837
100837
100837
100837
100837
100837
100837
100837
100837
100837
100837
100837
100837
100837
100837
100837
100837
100837
100837
100837
100837
100838
100838
100838
100838
100838
100837
100837
100836
100836
100836
100835
100835
100834
100834
100834
100834
100833
100833
100833
100833
100832
100832
100832
100832
100832
100832
100832
100832
100831
100831