/*--------------------------------*- C++ -*----------------------------------*\
  =========                 |
  \\      /  F ield         | OpenFOAM: The Open Source CFD Toolbox
   \\    /   O peration     | Website:  https://openfoam.org
    \\  /    A nd           | Version:  6
     \\/     M anipulation  |
\*---------------------------------------------------------------------------*/
FoamFile
{
    version     2.0;
    format      ascii;
    class       surfaceScalarField;
    location    "780";
    object      phi;
}
// * * * * * * * * * * * * * * * * * * * * * * * * * * * * * * * * * * * * * //

dimensions      [0 3 -1 0 0 0 0];

internalField   nonuniform List<scalar> 
11773
(
-5.31929e-08
5.31929e-08
-9.27085e-08
3.96329e-08
-1.11161e-07
1.85458e-08
-1.35193e-07
2.41217e-08
-1.41108e-07
6.00352e-09
-1.47177e-07
6.15517e-09
-1.38606e-07
-8.48357e-09
-1.30617e-07
-7.90281e-09
-1.22722e-07
-7.80947e-09
-1.26333e-07
3.69849e-09
-1.03359e-07
-2.28872e-08
-9.55381e-08
-7.73609e-09
-8.01487e-08
-1.53045e-08
-7.26702e-08
-7.39433e-09
-6.39146e-08
-8.67196e-09
-5.63504e-08
-7.48126e-09
-4.78668e-08
-8.40096e-09
-3.44235e-08
-1.33614e-08
-1.52275e-08
-1.91145e-08
-2.36183e-09
-1.27844e-08
-4.93217e-11
-2.23129e-09
1.18925e-13
5.0269e-14
9.35975e-14
2.53277e-14
7.93496e-14
1.43386e-14
6.99685e-14
9.47876e-15
6.31577e-14
6.9046e-15
5.79044e-14
5.34139e-15
5.36892e-14
4.29712e-15
5.02119e-14
3.55249e-15
4.7283e-14
2.99693e-15
4.47746e-14
2.56888e-15
4.25961e-14
2.23135e-15
4.06806e-14
1.96072e-15
3.89771e-14
1.74114e-15
3.7446e-14
1.56153e-15
3.60558e-14
1.41382e-15
3.47809e-14
1.29196e-15
3.36008e-14
1.19126e-15
3.24985e-14
1.10799e-15
3.14601e-14
1.03915e-15
3.04742e-14
9.82259e-16
2.95314e-14
9.35255e-16
2.86241e-14
8.96422e-16
2.7746e-14
8.64317e-16
2.68921e-14
8.3773e-16
2.60583e-14
8.15645e-16
2.52414e-14
7.97212e-16
2.44387e-14
7.81722e-16
2.36482e-14
7.68586e-16
2.28683e-14
7.57316e-16
2.20978e-14
7.47513e-16
2.13358e-14
7.38852e-16
2.05816e-14
7.31069e-16
1.98346e-14
7.23953e-16
1.90945e-14
7.17338e-16
1.8361e-14
7.11093e-16
1.76339e-14
7.0512e-16
1.69131e-14
6.99342e-16
1.61985e-14
6.93708e-16
1.54899e-14
6.8818e-16
1.47875e-14
6.82734e-16
1.40909e-14
6.77358e-16
1.34003e-14
6.72048e-16
1.27155e-14
6.66806e-16
1.20365e-14
6.61639e-16
1.13631e-14
6.5656e-16
1.06952e-14
6.51583e-16
1.00327e-14
6.46723e-16
9.37544e-15
6.41997e-16
8.72321e-15
6.37423e-16
8.07581e-15
6.33019e-16
7.43305e-15
6.28802e-16
6.79468e-15
6.24788e-16
6.16047e-15
6.20991e-16
5.53014e-15
6.17426e-16
4.90344e-15
6.14104e-16
4.28006e-15
6.11035e-16
3.65974e-15
6.08216e-16
3.04224e-15
6.05599e-16
2.4275e-15
6.0301e-16
1.81591e-15
6.00003e-16
1.20878e-15
5.95654e-16
6.02865e-16
5.94514e-16
5.91517e-16
-4.50452e-08
9.83553e-08
-7.65357e-08
7.13098e-08
-1.05127e-07
4.72993e-08
-1.11527e-07
3.06813e-08
-1.22156e-07
1.67881e-08
-1.29973e-07
1.41278e-08
-1.17285e-07
-2.10164e-08
-1.02008e-07
-2.30248e-08
-9.45268e-08
-1.51342e-08
-8.59758e-08
-4.69784e-09
-6.77998e-08
-4.0911e-08
-5.63227e-08
-1.90621e-08
-5.31859e-08
-1.82914e-08
-4.80883e-08
-1.23426e-08
-4.76001e-08
-9.01179e-09
-4.61772e-08
-8.75668e-09
-4.3385e-08
-1.10465e-08
-3.11144e-08
-2.5486e-08
-1.40934e-08
-3.59903e-08
4.15097e-10
-2.71477e-08
-3.85388e-11
-1.66431e-09
9.21488e-14
4.86831e-14
8.39419e-14
3.36208e-14
7.50885e-14
2.33592e-14
6.77214e-14
1.70114e-14
6.18018e-14
1.29799e-14
5.70058e-14
1.0282e-14
5.3054e-14
8.38143e-15
4.97422e-14
6.98397e-15
4.69243e-14
5.92116e-15
4.44944e-14
5.09167e-15
4.23735e-14
4.43152e-15
4.05017e-14
3.89853e-15
3.88323e-14
3.46377e-15
3.73283e-14
3.10663e-15
3.59598e-14
2.81194e-15
3.47027e-14
2.56817e-15
3.35372e-14
2.3663e-15
3.24469e-14
2.19912e-15
3.14183e-14
2.06073e-15
3.04406e-14
1.94627e-15
2.95045e-14
1.85167e-15
2.86026e-14
1.77352e-15
2.7729e-14
1.70895e-15
2.68787e-14
1.65554e-15
2.60478e-14
1.61126e-15
2.52332e-14
1.57439e-15
2.44323e-14
1.54351e-15
2.36432e-14
1.51742e-15
2.28644e-14
1.49515e-15
2.20948e-14
1.47587e-15
2.13334e-14
1.45893e-15
2.05797e-14
1.44379e-15
1.9833e-14
1.43002e-15
1.90932e-14
1.41726e-15
1.83599e-14
1.40527e-15
1.7633e-14
1.39382e-15
1.69123e-14
1.38276e-15
1.61977e-14
1.37199e-15
1.54893e-14
1.36142e-15
1.47869e-14
1.35101e-15
1.40904e-14
1.34072e-15
1.33999e-14
1.33054e-15
1.27152e-14
1.32048e-15
1.20363e-14
1.31055e-15
1.1363e-14
1.30078e-15
1.06953e-14
1.29119e-15
1.0033e-14
1.28181e-15
9.37588e-15
1.27268e-15
8.72384e-15
1.26383e-15
8.07666e-15
1.2553e-15
7.43412e-15
1.24712e-15
6.79599e-15
1.23932e-15
6.16202e-15
1.23194e-15
5.53195e-15
1.22499e-15
4.90552e-15
1.2185e-15
4.28244e-15
1.21249e-15
3.66246e-15
1.20693e-15
3.04535e-15
1.20175e-15
2.43092e-15
1.19672e-15
1.819e-15
1.1914e-15
1.20901e-15
1.18526e-15
6.0023e-16
1.18298e-15
1.18281e-15
-3.24938e-08
1.30942e-07
-5.48937e-08
9.38713e-08
-8.51614e-08
7.77083e-08
-9.91629e-08
4.48206e-08
-1.10723e-07
2.84851e-08
-1.155e-07
1.90413e-08
-1.11432e-07
-2.49466e-08
-9.27665e-08
-4.15532e-08
-7.27634e-08
-3.5002e-08
-5.05078e-08
-2.68203e-08
-3.44297e-08
-5.6857e-08
-2.29229e-08
-3.0438e-08
-1.88748e-08
-2.2209e-08
-1.72197e-08
-1.38676e-08
-1.92565e-08
-6.84581e-09
-2.10492e-08
-6.83572e-09
-2.15838e-08
-1.03846e-08
-1.93291e-08
-2.76138e-08
-1.57249e-08
-3.94682e-08
-4.22469e-09
-3.85217e-08
-3.69503e-11
-5.75156e-09
7.89436e-14
4.85564e-14
7.49432e-14
3.76924e-14
6.95275e-14
2.89219e-14
6.41969e-14
2.24868e-14
5.94501e-14
1.7863e-14
5.5355e-14
1.45035e-14
5.18449e-14
1.20074e-14
4.88265e-14
1.01071e-14
4.62126e-14
8.62802e-15
4.39304e-14
7.45514e-15
4.19201e-14
6.51119e-15
4.01335e-14
5.74295e-15
3.85313e-14
5.11267e-15
3.70812e-14
4.59281e-15
3.57566e-14
4.16265e-15
3.45356e-14
3.80617e-15
3.33998e-14
3.51063e-15
3.23341e-14
3.26573e-15
3.1326e-14
3.06299e-15
3.03651e-14
2.89533e-15
2.9443e-14
2.75682e-15
2.85526e-14
2.64246e-15
2.76884e-14
2.54803e-15
2.68458e-14
2.46997e-15
2.60211e-14
2.40529e-15
2.52114e-14
2.35146e-15
2.44145e-14
2.30639e-15
2.36285e-14
2.26832e-15
2.28522e-14
2.23581e-15
2.20845e-14
2.20765e-15
2.13246e-14
2.18287e-15
2.05719e-14
2.16069e-15
1.98261e-14
2.14047e-15
1.90868e-14
2.12172e-15
1.8354e-14
2.10403e-15
1.76274e-14
2.08712e-15
1.69069e-14
2.07075e-15
1.61925e-14
2.05477e-15
1.54842e-14
2.03906e-15
1.47819e-14
2.02355e-15
1.40856e-14
2.00821e-15
1.33952e-14
1.99303e-15
1.27107e-14
1.97801e-15
1.2032e-14
1.96317e-15
1.13589e-14
1.94856e-15
1.06914e-14
1.93421e-15
1.00294e-14
1.92017e-15
9.37257e-15
1.9065e-15
8.72086e-15
1.89325e-15
8.07403e-15
1.88047e-15
7.43187e-15
1.86822e-15
6.79415e-15
1.85653e-15
6.16061e-15
1.84546e-15
5.53099e-15
1.83505e-15
4.90502e-15
1.82533e-15
4.28242e-15
1.8163e-15
3.66292e-15
1.80796e-15
3.04623e-15
1.80023e-15
2.43207e-15
1.79289e-15
1.81999e-15
1.78565e-15
1.2092e-15
1.77835e-15
6.00079e-16
1.77448e-15
1.77423e-15
-2.40939e-08
1.55125e-07
-5.10957e-08
1.21032e-07
-7.29281e-08
9.96784e-08
-9.0726e-08
6.27538e-08
-1.04614e-07
4.25081e-08
-9.7197e-08
1.17598e-08
-9.00827e-08
-3.19256e-08
-7.56216e-08
-5.58812e-08
-5.37216e-08
-5.67705e-08
-2.60128e-08
-5.43981e-08
-1.46442e-08
-6.80954e-08
7.52579e-09
-5.24785e-08
1.93463e-08
-3.39003e-08
2.33649e-08
-1.77576e-08
1.62997e-08
3.46817e-10
7.32523e-10
8.8577e-09
-8.63125e-09
-8.95189e-10
-1.15508e-08
-2.45693e-08
-1.01212e-08
-4.07731e-08
-5.86858e-09
-4.26503e-08
-3.6774e-11
-1.14847e-08
6.94387e-14
4.85039e-14
6.72647e-14
3.99364e-14
6.38957e-14
3.2436e-14
6.01546e-14
2.63705e-14
5.6518e-14
2.16334e-14
5.31809e-14
1.79646e-14
5.01937e-14
1.51081e-14
4.75444e-14
1.28587e-14
4.51987e-14
1.10647e-14
4.31165e-14
9.61651e-15
4.12596e-14
8.43572e-15
3.95932e-14
7.46553e-15
3.80871e-14
6.66409e-15
3.67149e-14
5.99986e-15
3.54542e-14
5.44846e-15
3.4286e-14
4.99055e-15
3.31939e-14
4.61052e-15
3.21647e-14
4.29547e-15
3.11868e-14
4.03467e-15
3.0251e-14
3.8191e-15
2.93496e-14
3.64114e-15
2.84763e-14
3.49433e-15
2.76261e-14
3.37321e-15
2.67949e-14
3.27317e-15
2.59794e-14
3.19033e-15
2.51771e-14
3.12142e-15
2.43861e-14
3.06372e-15
2.36048e-14
3.01495e-15
2.28322e-14
2.97324e-15
2.20673e-14
2.93705e-15
2.13095e-14
2.90512e-15
2.05585e-14
2.87645e-15
1.98139e-14
2.85021e-15
1.90755e-14
2.82578e-15
1.83433e-14
2.80266e-15
1.76171e-14
2.78045e-15
1.6897e-14
2.7589e-15
1.61828e-14
2.73779e-15
1.54747e-14
2.71699e-15
1.47726e-14
2.69641e-15
1.40765e-14
2.67602e-15
1.33863e-14
2.65581e-15
1.27019e-14
2.63579e-15
1.20234e-14
2.61601e-15
1.13507e-14
2.5965e-15
1.06835e-14
2.57734e-15
1.00218e-14
2.55859e-15
9.36541e-15
2.54032e-15
8.71416e-15
2.52261e-15
8.06783e-15
2.50552e-15
7.42623e-15
2.48914e-15
6.78909e-15
2.47352e-15
6.15617e-15
2.45873e-15
5.5272e-15
2.44482e-15
4.9019e-15
2.43183e-15
4.27997e-15
2.41978e-15
3.66112e-15
2.40867e-15
3.04502e-15
2.39844e-15
2.43131e-15
2.38893e-15
1.81949e-15
2.37997e-15
1.20885e-15
2.37161e-15
5.99861e-16
2.36615e-15
2.36546e-15
-1.5805e-08
1.71019e-07
-3.14994e-08
1.36886e-07
-5.08871e-08
1.19204e-07
-7.26291e-08
8.46313e-08
-7.79914e-08
4.80051e-08
-8.21844e-08
1.60882e-08
-6.5737e-08
-4.82397e-08
-5.29538e-08
-6.8533e-08
-2.58347e-08
-8.37582e-08
5.05889e-09
-8.51601e-08
2.11085e-08
-8.40139e-08
3.80338e-08
-6.92738e-08
4.0758e-08
-3.64952e-08
3.79349e-08
-1.48062e-08
3.51254e-08
3.28381e-09
2.77389e-08
1.63708e-08
1.57682e-08
1.12013e-08
1.08873e-08
-1.95634e-08
7.73072e-09
-3.74918e-08
4.38628e-10
-3.52345e-08
-3.68071e-11
-1.09105e-08
6.19547e-14
4.8466e-14
6.07063e-14
4.12547e-14
5.85914e-14
3.46957e-14
5.60139e-14
2.90903e-14
5.33141e-14
2.44665e-14
5.06895e-14
2.07125e-14
4.82349e-14
1.76753e-14
4.59848e-14
1.52102e-14
4.3942e-14
1.31973e-14
4.20939e-14
1.15427e-14
4.04211e-14
1.0175e-14
3.89022e-14
9.03968e-15
3.75157e-14
8.09483e-15
3.62418e-14
7.30768e-15
3.50625e-14
6.65202e-15
3.39619e-14
6.10646e-15
3.29264e-14
5.65325e-15
3.19441e-14
5.2775e-15
3.10054e-14
4.9666e-15
3.01022e-14
4.70983e-15
2.92277e-14
4.49809e-15
2.83765e-14
4.32363e-15
2.75444e-14
4.17988e-15
2.6728e-14
4.06129e-15
2.59244e-14
3.96316e-15
2.51317e-14
3.88156e-15
2.43483e-14
3.81321e-15
2.35731e-14
3.75539e-15
2.28051e-14
3.70584e-15
2.20437e-14
3.66272e-15
2.12887e-14
3.62454e-15
2.05397e-14
3.59008e-15
1.97966e-14
3.55839e-15
1.90594e-14
3.52872e-15
1.83279e-14
3.50049e-15
1.76023e-14
3.47325e-15
1.68825e-14
3.44668e-15
1.61687e-14
3.42057e-15
1.54608e-14
3.39475e-15
1.47588e-14
3.36914e-15
1.40629e-14
3.34371e-15
1.33729e-14
3.31845e-15
1.26888e-14
3.2934e-15
1.20106e-14
3.26862e-15
1.13382e-14
3.24417e-15
1.06714e-14
3.22014e-15
1.00102e-14
3.19661e-15
9.35435e-15
3.17368e-15
8.70369e-15
3.15144e-15
8.05804e-15
3.13e-15
7.41715e-15
3.10943e-15
6.78078e-15
3.08982e-15
6.14868e-15
3.07126e-15
5.52056e-15
3.0538e-15
4.89614e-15
3.03752e-15
4.2751e-15
3.02244e-15
3.65713e-15
3.00857e-15
3.04187e-15
2.99588e-15
2.42891e-15
2.98429e-15
1.81773e-15
2.9737e-15
1.20771e-15
2.96429e-15
5.99261e-16
2.95733e-15
2.95612e-15
-2.41534e-08
1.95262e-07
-4.6065e-08
1.58957e-07
-5.72565e-08
1.30535e-07
-6.0056e-08
8.75665e-08
-5.74382e-08
4.55222e-08
-5.63541e-08
1.51388e-08
-3.15766e-08
-7.28837e-08
-1.92867e-08
-8.06893e-08
-1.36984e-09
-1.01542e-07
1.91408e-08
-1.05538e-07
3.48702e-08
-9.96122e-08
4.72822e-08
-8.15564e-08
5.41845e-08
-4.32686e-08
4.72943e-08
-7.78731e-09
3.95254e-08
1.11808e-08
3.35335e-08
2.24897e-08
2.21468e-08
2.27139e-08
8.43157e-09
-5.72307e-09
2.21682e-09
-3.11526e-08
-4.58294e-10
-3.24353e-08
-3.69056e-11
-1.12327e-08
5.56617e-14
4.83988e-14
5.4975e-14
4.20114e-14
5.36909e-14
3.61245e-14
5.19719e-14
3.09512e-14
5.0034e-14
2.65372e-14
4.8038e-14
2.28311e-14
4.60852e-14
1.97398e-14
4.42316e-14
1.71642e-14
4.25031e-14
1.50146e-14
4.09063e-14
1.32166e-14
3.94369e-14
1.17098e-14
3.80846e-14
1.04461e-14
3.68359e-14
9.38671e-15
3.56768e-14
8.49973e-15
3.45935e-14
7.75865e-15
3.35734e-14
7.14105e-15
3.26053e-14
6.62779e-15
3.16794e-14
6.20242e-15
3.07877e-14
5.85083e-15
2.99235e-14
5.56088e-15
2.90813e-14
5.32218e-15
2.82568e-14
5.12585e-15
2.74464e-14
4.96436e-15
2.66476e-14
4.83133e-15
2.58583e-14
4.72136e-15
2.50769e-14
4.62996e-15
2.43026e-14
4.55337e-15
2.35344e-14
4.48848e-15
2.27718e-14
4.43271e-15
2.20147e-14
4.38398e-15
2.12628e-14
4.34061e-15
2.05162e-14
4.30122e-15
1.97748e-14
4.26474e-15
1.90387e-14
4.23035e-15
1.83081e-14
4.1974e-15
1.75831e-14
4.16541e-15
1.68637e-14
4.13404e-15
1.61501e-14
4.10305e-15
1.54424e-14
4.07229e-15
1.47407e-14
4.04169e-15
1.40449e-14
4.01122e-15
1.33551e-14
3.9809e-15
1.26713e-14
3.95078e-15
1.19934e-14
3.92094e-15
1.13214e-14
3.89148e-15
1.06552e-14
3.86249e-15
9.99452e-15
3.83411e-15
9.33933e-15
3.80644e-15
8.68942e-15
3.7796e-15
8.04459e-15
3.75371e-15
7.40459e-15
3.72888e-15
6.76918e-15
3.70522e-15
6.1381e-15
3.68282e-15
5.51105e-15
3.66177e-15
4.88774e-15
3.64215e-15
4.26783e-15
3.624e-15
3.651e-15
3.60737e-15
3.03685e-15
3.59225e-15
2.42496e-15
3.5786e-15
1.8148e-15
3.56644e-15
1.20583e-15
3.55595e-15
5.982e-16
3.54773e-15
3.54572e-15
-7.31381e-09
2.02665e-07
-2.61738e-08
1.77977e-07
-4.2068e-08
1.46569e-07
-4.33475e-08
8.89818e-08
-4.38646e-08
4.61748e-08
-3.13346e-08
2.74484e-09
-3.08116e-08
-7.32712e-08
-1.39575e-08
-9.74086e-08
1.49599e-08
-1.30325e-07
3.15799e-08
-1.22027e-07
3.98711e-08
-1.07774e-07
4.52183e-08
-8.67751e-08
5.19569e-08
-4.9878e-08
4.75803e-08
-3.28189e-09
3.45516e-08
2.43378e-08
2.37408e-08
3.34273e-08
1.35411e-08
3.3039e-08
1.16335e-08
-3.69034e-09
9.52953e-09
-2.89237e-08
2.51507e-09
-2.52959e-08
-3.69654e-11
-8.58104e-09
5.00885e-14
4.82809e-14
4.98305e-14
4.23393e-14
4.91667e-14
3.69329e-14
4.81113e-14
3.21481e-14
4.67934e-14
2.79873e-14
4.53367e-14
2.44096e-14
4.38364e-14
2.1351e-14
4.23568e-14
1.87431e-14
4.09367e-14
1.65224e-14
3.95954e-14
1.46337e-14
3.83391e-14
1.30303e-14
3.71657e-14
1.16725e-14
3.60679e-14
1.05266e-14
3.50364e-14
9.56321e-15
3.4061e-14
8.75648e-15
3.31319e-14
8.08372e-15
3.22404e-14
7.52488e-15
3.13788e-14
7.06234e-15
3.05408e-14
6.68074e-15
2.97211e-14
6.36674e-15
2.89157e-14
6.10888e-15
2.81213e-14
5.89732e-15
2.73356e-14
5.7237e-15
2.65567e-14
5.58095e-15
2.57834e-14
5.46312e-15
2.50149e-14
5.36523e-15
2.42505e-14
5.28314e-15
2.34902e-14
5.21342e-15
2.27337e-14
5.15328e-15
2.19811e-14
5.10044e-15
2.12326e-14
5.05306e-15
2.04884e-14
5.00969e-15
1.97488e-14
4.96918e-15
1.90139e-14
4.93064e-15
1.82841e-14
4.8934e-15
1.75596e-14
4.85697e-15
1.68406e-14
4.82101e-15
1.61272e-14
4.78529e-15
1.54197e-14
4.74967e-15
1.47181e-14
4.7141e-15
1.40225e-14
4.67858e-15
1.33329e-14
4.64315e-15
1.26494e-14
4.6079e-15
1.19719e-14
4.57293e-15
1.13004e-14
4.53836e-15
1.06347e-14
4.50433e-15
9.97471e-15
4.47099e-15
9.32031e-15
4.43847e-15
8.67128e-15
4.40693e-15
8.02742e-15
4.3765e-15
7.3885e-15
4.34732e-15
6.75425e-15
4.31952e-15
6.12439e-15
4.29321e-15
5.49864e-15
4.2685e-15
4.87667e-15
4.24549e-15
4.25815e-15
4.22424e-15
3.64272e-15
4.20481e-15
3.02997e-15
4.18725e-15
2.41946e-15
4.17158e-15
1.81065e-15
4.15787e-15
1.20306e-15
4.14627e-15
5.96923e-16
4.13666e-15
4.13407e-15
-1.31188e-08
2.15873e-07
-2.19792e-08
1.86999e-07
-2.78973e-08
1.52627e-07
-3.05179e-08
9.17389e-08
-2.56624e-08
4.14564e-08
-5.31258e-09
-1.74686e-08
8.09103e-09
-8.65393e-08
4.72292e-08
-1.36412e-07
5.10396e-08
-1.34002e-07
5.21823e-08
-1.23039e-07
5.18623e-08
-1.07326e-07
5.06711e-08
-8.54547e-08
4.95969e-08
-4.86738e-08
3.77221e-08
8.72163e-09
2.30807e-08
3.9107e-08
1.16165e-08
4.50174e-08
7.07612e-09
3.77048e-08
1.38268e-08
-1.03156e-08
1.72858e-08
-3.22572e-08
9.98842e-09
-1.78734e-08
-3.7096e-11
1.54422e-09
4.4898e-14
4.85449e-14
4.51003e-14
4.22069e-14
4.49779e-14
3.72001e-14
4.44685e-14
3.27988e-14
4.36618e-14
2.89257e-14
4.2661e-14
2.55315e-14
4.15567e-14
2.25653e-14
4.04174e-14
1.99808e-14
3.92891e-14
1.77374e-14
3.81983e-14
1.57993e-14
3.71577e-14
1.41341e-14
3.61701e-14
1.27122e-14
3.52322e-14
1.15057e-14
3.43379e-14
1.04886e-14
3.34796e-14
9.63627e-15
3.26501e-14
8.92603e-15
3.18426e-14
8.33713e-15
3.10516e-14
7.85095e-15
3.02725e-14
7.45107e-15
2.95017e-14
7.12312e-15
2.87365e-14
6.85473e-15
2.79751e-14
6.63528e-15
2.72162e-14
6.45575e-15
2.64589e-14
6.30853e-15
2.57028e-14
6.1872e-15
2.49479e-14
6.08646e-15
2.41942e-14
6.00187e-15
2.34421e-14
5.9298e-15
2.26918e-14
5.86729e-15
2.19439e-14
5.81196e-15
2.11989e-14
5.76188e-15
2.04571e-14
5.71554e-15
1.97192e-14
5.67177e-15
1.89854e-14
5.62967e-15
1.82563e-14
5.58859e-15
1.75322e-14
5.54804e-15
1.68133e-14
5.5077e-15
1.61001e-14
5.46737e-15
1.53926e-14
5.42696e-15
1.46911e-14
5.38643e-15
1.39956e-14
5.34583e-15
1.33062e-14
5.30523e-15
1.2623e-14
5.26476e-15
1.19459e-14
5.22455e-15
1.12749e-14
5.18477e-15
1.06099e-14
5.14558e-15
9.95068e-15
5.10715e-15
9.29718e-15
5.06967e-15
8.64919e-15
5.0333e-15
8.00647e-15
4.99822e-15
7.36881e-15
4.96458e-15
6.73591e-15
4.93253e-15
6.10751e-15
4.90222e-15
5.48328e-15
4.87377e-15
4.86291e-15
4.84729e-15
4.24603e-15
4.82288e-15
3.63228e-15
4.80062e-15
3.02124e-15
4.78059e-15
2.41244e-15
4.76288e-15
1.80533e-15
4.74764e-15
1.19956e-15
4.73481e-15
5.95342e-16
4.72371e-15
4.72086e-15
-1.01971e-08
2.2616e-07
-1.29512e-08
1.89911e-07
-1.23158e-08
1.5213e-07
-1.39111e-08
9.34715e-08
-1.12976e-08
3.89801e-08
8.22453e-09
-3.68543e-08
2.05314e-08
-9.87104e-08
3.49848e-08
-1.50731e-07
4.91482e-08
-1.48034e-07
5.41043e-08
-1.27866e-07
5.07852e-08
-1.03878e-07
4.6079e-08
-8.06171e-08
3.94026e-08
-4.18674e-08
2.35484e-08
2.47046e-08
7.01548e-10
6.20808e-08
-8.40033e-09
5.42454e-08
-5.08725e-09
3.45178e-08
3.73889e-09
-1.90159e-08
1.32224e-08
-4.16151e-08
2.42355e-09
-6.94951e-09
-2.29163e-11
4.08415e-09
3.93413e-14
4.11477e-14
4.0709e-14
4.09089e-14
4.11176e-14
3.6936e-14
4.10723e-14
3.29853e-14
4.06868e-14
2.94426e-14
4.00628e-14
2.62761e-14
3.92947e-14
2.34427e-14
3.84558e-14
2.09173e-14
3.75962e-14
1.86828e-14
3.67457e-14
1.67238e-14
3.59189e-14
1.50231e-14
3.51205e-14
1.35616e-14
3.43487e-14
1.23178e-14
3.35988e-14
1.12687e-14
3.28649e-14
1.0391e-14
3.21415e-14
9.66155e-15
3.14238e-14
9.05898e-15
3.07081e-14
8.56363e-15
2.99917e-14
8.15807e-15
2.92728e-14
7.82706e-15
2.85503e-14
7.55746e-15
2.78236e-14
7.33804e-15
2.70927e-14
7.15928e-15
2.63579e-14
7.01318e-15
2.56196e-14
6.89305e-15
2.48787e-14
6.79332e-15
2.41358e-14
6.70942e-15
2.33919e-14
6.63761e-15
2.26478e-14
6.57484e-15
2.19044e-14
6.5187e-15
2.11625e-14
6.46725e-15
2.04229e-14
6.41898e-15
1.96864e-14
6.37275e-15
1.89535e-14
6.3277e-15
1.82248e-14
6.2832e-15
1.75009e-14
6.23883e-15
1.6782e-14
6.1943e-15
1.60687e-14
6.14947e-15
1.53612e-14
6.10429e-15
1.46596e-14
6.05879e-15
1.39642e-14
6.01304e-15
1.3275e-14
5.96719e-15
1.2592e-14
5.92138e-15
1.19154e-14
5.87581e-15
1.12449e-14
5.83067e-15
1.05806e-14
5.78616e-15
9.92232e-15
5.74251e-15
9.26986e-15
5.69991e-15
8.62304e-15
5.65857e-15
7.98165e-15
5.61869e-15
7.34543e-15
5.58045e-15
6.7141e-15
5.54404e-15
6.08738e-15
5.50961e-15
5.46493e-15
5.47732e-15
4.84641e-15
5.4473e-15
4.23145e-15
5.41966e-15
3.61967e-15
5.39452e-15
3.01065e-15
5.37197e-15
2.40393e-15
5.35215e-15
1.79905e-15
5.33522e-15
1.19556e-15
5.32111e-15
5.93058e-16
5.30908e-15
5.30538e-15
-9.3733e-09
2.3562e-07
-1.26167e-08
1.9331e-07
-1.15406e-08
1.51194e-07
-1.52527e-08
9.73215e-08
6.19449e-09
1.76692e-08
1.85347e-08
-4.90577e-08
3.37348e-08
-1.13775e-07
4.35844e-08
-1.60448e-07
5.07594e-08
-1.5508e-07
4.73728e-08
-1.2435e-07
3.26112e-08
-8.8984e-08
1.6809e-08
-6.46835e-08
1.66542e-09
-2.65945e-08
-3.35769e-09
2.98561e-08
6.26152e-09
5.25888e-08
3.99062e-09
5.66435e-08
-5.03082e-09
4.36656e-08
-5.65621e-09
-1.82646e-08
-5.1004e-09
-4.20457e-08
-4.06935e-09
-7.86794e-09
5.50695e-14
6.45628e-11
3.91155e-14
5.90404e-14
3.72113e-14
4.28831e-14
3.76437e-14
3.66484e-14
3.79595e-14
3.28108e-14
3.79065e-14
2.9627e-14
3.75771e-14
2.6726e-14
3.70812e-14
2.40474e-14
3.64995e-14
2.1596e-14
3.58831e-14
1.93844e-14
3.52604e-14
1.74197e-14
3.46442e-14
1.5701e-14
3.40373e-14
1.42191e-14
3.34365e-14
1.29584e-14
3.28368e-14
1.18982e-14
3.2233e-14
1.10152e-14
3.16205e-14
1.02856e-14
3.09966e-14
9.68662e-15
3.03594e-14
9.19743e-15
2.9708e-14
8.79957e-15
2.90427e-14
8.47702e-15
2.83639e-14
8.21604e-15
2.76726e-14
8.00498e-15
2.69701e-14
7.83401e-15
2.62578e-14
7.6949e-15
2.55372e-14
7.58082e-15
2.48099e-14
7.48613e-15
2.40775e-14
7.4062e-15
2.33414e-14
7.3373e-15
2.26029e-14
7.27641e-15
2.18636e-14
7.22115e-15
2.11244e-14
7.16965e-15
2.03865e-14
7.12048e-15
1.9651e-14
7.07256e-15
1.89185e-14
7.02511e-15
1.819e-14
6.97759e-15
1.74659e-14
6.92964e-15
1.67468e-14
6.88107e-15
1.60332e-14
6.8318e-15
1.53254e-14
6.78185e-15
1.46237e-14
6.7313e-15
1.39282e-14
6.68031e-15
1.32391e-14
6.62907e-15
1.25564e-14
6.57778e-15
1.18802e-14
6.52667e-15
1.12103e-14
6.476e-15
1.05468e-14
6.42601e-15
9.88951e-15
6.37695e-15
9.23821e-15
6.32906e-15
8.59273e-15
6.28258e-15
7.95283e-15
6.23774e-15
7.31826e-15
6.19476e-15
6.68873e-15
6.15383e-15
6.06392e-15
6.11516e-15
5.44351e-15
6.07891e-15
4.82712e-15
6.04524e-15
4.21437e-15
6.01429e-15
3.60487e-15
5.9862e-15
2.99818e-15
5.96107e-15
2.39387e-15
5.93907e-15
1.79155e-15
5.9203e-15
1.19073e-15
5.90479e-15
5.90556e-16
5.89218e-15
5.88743e-15
-5.86046e-10
2.36293e-07
-1.36854e-09
1.94251e-07
-1.69654e-09
1.51661e-07
-6.13778e-09
1.019e-07
1.59527e-08
-4.28449e-09
2.39868e-08
-5.6955e-08
3.51907e-08
-1.24846e-07
3.95569e-08
-1.64683e-07
4.00571e-08
-1.55447e-07
3.2591e-08
-1.1675e-07
1.31742e-08
-6.94348e-08
-6.14859e-09
-4.52305e-08
-2.38442e-08
-8.76963e-09
-3.02634e-08
3.64039e-08
-2.91061e-08
5.15591e-08
-2.26581e-08
5.03225e-08
-1.54114e-08
3.65451e-08
-1.31929e-08
-2.03572e-08
-1.71689e-08
-3.79512e-08
1.44534e-09
-2.63929e-08
8.29818e-15
1.54822e-09
2.48822e-14
4.2543e-14
3.17153e-14
3.6181e-14
3.42611e-14
3.42523e-14
3.51555e-14
3.20588e-14
3.53542e-14
2.95601e-14
3.5223e-14
2.69777e-14
3.49293e-14
2.445e-14
3.45605e-14
2.20617e-14
3.41629e-14
1.9867e-14
3.37576e-14
1.78982e-14
3.33505e-14
1.61698e-14
3.29382e-14
1.46818e-14
3.25138e-14
1.34226e-14
3.20697e-14
1.23719e-14
3.16004e-14
1.15048e-14
3.11023e-14
1.07951e-14
3.05744e-14
1.02181e-14
3.0017e-14
9.75123e-15
2.94315e-14
9.3751e-15
2.88199e-14
9.07302e-15
2.81846e-14
8.83085e-15
2.75282e-14
8.63673e-15
2.68534e-14
8.48072e-15
2.61628e-14
8.35457e-15
2.54591e-14
8.25146e-15
2.47446e-14
8.16583e-15
2.40217e-14
8.09315e-15
2.32924e-14
8.02979e-15
2.25588e-14
7.97286e-15
2.18227e-14
7.92012e-15
2.10855e-14
7.86983e-15
2.03487e-14
7.82071e-15
1.96135e-14
7.77179e-15
1.88809e-14
7.72243e-15
1.8152e-14
7.67221e-15
1.74274e-14
7.62088e-15
1.67077e-14
7.56835e-15
1.59935e-14
7.51463e-15
1.52852e-14
7.45984e-15
1.45832e-14
7.40415e-15
1.38875e-14
7.34777e-15
1.31984e-14
7.29096e-15
1.25159e-14
7.23399e-15
1.18401e-14
7.17715e-15
1.1171e-14
7.12074e-15
1.05083e-14
7.06505e-15
9.85211e-15
7.01037e-15
9.2021e-15
6.95699e-15
8.55811e-15
6.90517e-15
7.9199e-15
6.85519e-15
7.28719e-15
6.80728e-15
6.65968e-15
6.76168e-15
6.03705e-15
6.71861e-15
5.41894e-15
6.67827e-15
4.80497e-15
6.64083e-15
4.19475e-15
6.60647e-15
3.58784e-15
6.57533e-15
2.98381e-15
6.54758e-15
2.3822e-15
6.52334e-15
1.78261e-15
6.5027e-15
1.18483e-15
6.48547e-15
5.88149e-16
6.47183e-15
6.4671e-15
-3.37662e-10
2.36718e-07
1.2868e-09
1.92783e-07
5.569e-09
1.47518e-07
2.74491e-09
1.04862e-07
1.78394e-08
-1.92409e-08
2.46034e-08
-6.35824e-08
2.38996e-08
-1.24007e-07
1.29861e-08
-1.53634e-07
5.57566e-10
-1.42883e-07
-3.76215e-09
-1.12297e-07
-8.12605e-09
-6.49391e-08
-2.01778e-08
-3.30484e-08
-3.86326e-08
9.81465e-09
-3.92826e-08
3.71824e-08
-3.42403e-08
4.66439e-08
-2.78706e-08
4.40794e-08
-2.21076e-08
3.09084e-08
-2.06294e-08
-2.17094e-08
-1.63202e-08
-4.21349e-08
4.41799e-09
-4.70304e-08
-4.34776e-12
6.01247e-09
1.92702e-14
3.93572e-12
3.00013e-14
2.55246e-14
3.2318e-14
3.20847e-14
3.29479e-14
3.15724e-14
3.30767e-14
2.95642e-14
3.29972e-14
2.71785e-14
3.28293e-14
2.47274e-14
3.26336e-14
2.23549e-14
3.24369e-14
2.01493e-14
3.22447e-14
1.8164e-14
3.20501e-14
1.64264e-14
3.18396e-14
1.49432e-14
3.15987e-14
1.37038e-14
3.13159e-14
1.26848e-14
3.09847e-14
1.18566e-14
3.06029e-14
1.11888e-14
3.01715e-14
1.06533e-14
2.96934e-14
1.02259e-14
2.91726e-14
9.88602e-15
2.86133e-14
9.61672e-15
2.80199e-14
9.40371e-15
2.73967e-14
9.23517e-15
2.67479e-14
9.1013e-15
2.60774e-14
8.99402e-15
2.53888e-14
8.90673e-15
2.46855e-14
8.83409e-15
2.39706e-14
8.77181e-15
2.32469e-14
8.71649e-15
2.25169e-14
8.66548e-15
2.17828e-14
8.61677e-15
2.10465e-14
8.56883e-15
2.03099e-14
8.52057e-15
1.95742e-14
8.47124e-15
1.88409e-14
8.42036e-15
1.8111e-14
8.36766e-15
1.73854e-14
8.31304e-15
1.66647e-14
8.25654e-15
1.59496e-14
8.19831e-15
1.52406e-14
8.13854e-15
1.45379e-14
8.07752e-15
1.38419e-14
8.01555e-15
1.31528e-14
7.95294e-15
1.24705e-14
7.89006e-15
1.17951e-14
7.82724e-15
1.11267e-14
7.76484e-15
1.0465e-14
7.70321e-15
9.80993e-15
7.64267e-15
9.16136e-15
7.58356e-15
8.51903e-15
7.52618e-15
7.8827e-15
7.47083e-15
7.25207e-15
7.4178e-15
6.62683e-15
7.36734e-15
6.00663e-15
7.31971e-15
5.39111e-15
7.27511e-15
4.77988e-15
7.23377e-15
4.17251e-15
7.19586e-15
3.56856e-15
7.16158e-15
2.96757e-15
7.1311e-15
2.36907e-15
7.10456e-15
1.77266e-15
7.08198e-15
1.17829e-15
7.0628e-15
5.85005e-16
7.04814e-15
7.04365e-15
1.33091e-09
2.35473e-07
3.87122e-09
1.90398e-07
1.20542e-08
1.39474e-07
1.64674e-08
1.00586e-07
2.09587e-08
-2.35946e-08
2.11937e-08
-6.36803e-08
1.74808e-08
-1.20157e-07
4.36824e-09
-1.40385e-07
-5.63045e-09
-1.32749e-07
-1.98618e-08
-9.79323e-08
-2.70692e-08
-5.75997e-08
-3.3307e-08
-2.66799e-08
-3.8779e-08
1.54165e-08
-3.46794e-08
3.32108e-08
-2.96922e-08
4.17839e-08
-2.42981e-08
3.88124e-08
-1.69343e-08
2.36714e-08
-2.22033e-08
-1.63142e-08
-2.35211e-08
-4.06916e-08
-2.56213e-08
-4.48259e-08
1.97823e-09
-2.15158e-08
4.96538e-14
2.02442e-09
3.57439e-14
4.7643e-14
3.1847e-14
3.60558e-14
3.11656e-14
3.23937e-14
3.09668e-14
2.98969e-14
3.08341e-14
2.74338e-14
3.07394e-14
2.49328e-14
3.06943e-14
2.24989e-14
3.06942e-14
2.02362e-14
3.07222e-14
1.82111e-14
3.07527e-14
1.64593e-14
3.07573e-14
1.49909e-14
3.07106e-14
1.3792e-14
3.05956e-14
1.2831e-14
3.04051e-14
1.20687e-14
3.01393e-14
1.14674e-14
2.98025e-14
1.09947e-14
2.94011e-14
1.06245e-14
2.8942e-14
1.03358e-14
2.84319e-14
1.01116e-14
2.78773e-14
9.93798e-15
2.72844e-14
9.8035e-15
2.66587e-14
9.69875e-15
2.60056e-14
9.61605e-15
2.53297e-14
9.5492e-15
2.46353e-14
9.49325e-15
2.39264e-14
9.44429e-15
2.32064e-14
9.3993e-15
2.24783e-14
9.35596e-15
2.17448e-14
9.31258e-15
2.10083e-14
9.26794e-15
2.02707e-14
9.22121e-15
1.95337e-14
9.17189e-15
1.87988e-14
9.11972e-15
1.80672e-14
9.06462e-15
1.73399e-14
9.0067e-15
1.66177e-14
8.94613e-15
1.59014e-14
8.88321e-15
1.51913e-14
8.81826e-15
1.44878e-14
8.75166e-15
1.37914e-14
8.68381e-15
1.3102e-14
8.61513e-15
1.24198e-14
8.54604e-15
1.17449e-14
8.47695e-15
1.10772e-14
8.40827e-15
1.04165e-14
8.3404e-15
9.76278e-15
8.27373e-15
9.11579e-15
8.20862e-15
8.47531e-15
8.14542e-15
7.84106e-15
8.08448e-15
7.21275e-15
8.02609e-15
6.59003e-15
7.97056e-15
5.97255e-15
7.91816e-15
5.35993e-15
7.86913e-15
4.75175e-15
7.82371e-15
4.14758e-15
7.78212e-15
3.54696e-15
7.74456e-15
2.94943e-15
7.71122e-15
2.35453e-15
7.68224e-15
1.76182e-15
7.65761e-15
1.17093e-15
7.63671e-15
5.81062e-16
7.62109e-15
7.6163e-15
4.26341e-09
2.31296e-07
6.61882e-09
1.882e-07
7.13072e-09
1.391e-07
3.44468e-08
7.34064e-08
3.54611e-08
-2.44717e-08
3.98045e-08
-6.78867e-08
3.72556e-08
-1.17473e-07
2.08942e-08
-1.2389e-07
-9.11179e-09
-1.0261e-07
-2.9443e-08
-7.74682e-08
-3.00145e-08
-5.68961e-08
-3.28023e-08
-2.37612e-08
-2.84211e-08
1.11648e-08
-2.3772e-08
2.86899e-08
-1.65718e-08
3.47119e-08
-1.00482e-08
3.24166e-08
-5.80077e-09
1.95511e-08
-3.64632e-09
-1.83424e-08
-7.38711e-09
-3.68257e-08
-7.62552e-09
-4.44623e-08
7.76096e-09
-3.67981e-08
-1.35388e-11
9.84467e-09
2.55358e-14
9.08009e-14
2.86014e-14
3.3058e-14
2.89479e-14
3.21884e-14
2.87834e-14
3.01973e-14
2.86226e-14
2.77194e-14
2.85919e-14
2.50765e-14
2.87019e-14
2.24899e-14
2.89145e-14
2.01128e-14
2.91856e-14
1.80174e-14
2.94671e-14
1.62436e-14
2.97097e-14
1.48028e-14
2.98726e-14
1.36728e-14
2.99323e-14
1.28045e-14
2.98831e-14
1.21414e-14
2.97301e-14
1.16347e-14
2.94832e-14
1.12476e-14
2.91531e-14
1.09528e-14
2.87504e-14
1.073e-14
2.82846e-14
1.0563e-14
2.77642e-14
1.04386e-14
2.71972e-14
1.03463e-14
2.65908e-14
1.02773e-14
2.59514e-14
1.02245e-14
2.5285e-14
1.01823e-14
2.45967e-14
1.01464e-14
2.38912e-14
1.01133e-14
2.31726e-14
1.00806e-14
2.24444e-14
1.00464e-14
2.17098e-14
1.00094e-14
2.09713e-14
9.96873e-15
2.02314e-14
9.92396e-15
1.94919e-14
9.87487e-15
1.87545e-14
9.82146e-15
1.80204e-14
9.76391e-15
1.72909e-14
9.70252e-15
1.65667e-14
9.63765e-15
1.58486e-14
9.56976e-15
1.51371e-14
9.4993e-15
1.44326e-14
9.42679e-15
1.37355e-14
9.35273e-15
1.30458e-14
9.27762e-15
1.23637e-14
9.20196e-15
1.16892e-14
9.12625e-15
1.10223e-14
9.05096e-15
1.03627e-14
8.97654e-15
9.71043e-15
8.90341e-15
9.06519e-15
8.83201e-15
8.42674e-15
8.76271e-15
7.79479e-15
8.69589e-15
7.16903e-15
8.6319e-15
6.54911e-15
8.57106e-15
5.93465e-15
8.51367e-15
5.32524e-15
8.46001e-15
4.72045e-15
8.41034e-15
4.11984e-15
8.3649e-15
3.52293e-15
8.3239e-15
2.92926e-15
8.28755e-15
2.33835e-15
8.25599e-15
1.74972e-15
8.22923e-15
1.16256e-15
8.20695e-15
5.76848e-16
8.18995e-15
8.18475e-15
6.06838e-09
2.25316e-07
1.19867e-08
1.82441e-07
1.19444e-08
1.3928e-07
4.63558e-08
3.91306e-08
4.26509e-08
-2.06294e-08
5.33914e-08
-7.84912e-08
4.64572e-08
-1.10405e-07
2.65795e-08
-1.03879e-07
6.64688e-09
-8.25439e-08
-1.30032e-08
-5.76854e-08
-2.66627e-08
-4.31049e-08
-2.97562e-08
-2.05372e-08
-2.2257e-08
3.79502e-09
-1.40827e-08
2.06442e-08
-4.50939e-09
2.52669e-08
3.33692e-09
2.46981e-08
8.35255e-09
1.46624e-08
1.01697e-08
-2.00338e-08
5.16867e-09
-3.16999e-08
-1.66733e-09
-3.75023e-08
-1.01896e-08
-2.81683e-08
2.23665e-09
-2.50538e-09
2.72849e-14
2.27783e-09
2.7799e-14
3.27407e-14
2.71675e-14
3.29479e-14
2.65813e-14
3.09209e-14
2.62817e-14
2.81465e-14
2.63065e-14
2.51677e-14
2.66063e-14
2.22943e-14
2.70712e-14
1.97404e-14
2.76284e-14
1.75412e-14
2.82047e-14
1.57368e-14
2.87217e-14
1.43438e-14
2.9115e-14
1.33266e-14
2.93551e-14
1.26007e-14
2.94433e-14
1.20794e-14
2.93951e-14
1.16996e-14
2.92292e-14
1.14216e-14
2.89622e-14
1.12199e-14
2.86084e-14
1.10768e-14
2.81799e-14
1.09781e-14
2.76876e-14
1.09122e-14
2.7141e-14
1.08695e-14
2.65488e-14
1.08421e-14
2.59187e-14
1.0824e-14
2.52577e-14