/*--------------------------------*- C++ -*----------------------------------*\
  =========                 |
  \\      /  F ield         | OpenFOAM: The Open Source CFD Toolbox
   \\    /   O peration     | Website:  https://openfoam.org
    \\  /    A nd           | Version:  6
     \\/     M anipulation  |
\*---------------------------------------------------------------------------*/
FoamFile
{
    version     2.0;
    format      ascii;
    class       volScalarField;
    location    "780";
    object      T;
}
// * * * * * * * * * * * * * * * * * * * * * * * * * * * * * * * * * * * * * //

dimensions      [0 0 0 1 0 0 0];

internalField   nonuniform List<scalar> 
5964
(
310.466
309.49
308.708
308.124
307.701
307.39
307.151
306.95
306.766
306.586
306.41
306.227
306.036
305.838
305.635
305.43
305.225
305.021
304.813
304.586
304.314
303.93
304.058
304.086
304.072
304.036
303.99
303.939
303.888
303.838
303.791
303.747
303.706
303.668
303.633
303.601
303.571
303.543
303.518
303.494
303.472
303.451
303.432
303.414
303.397
303.381
303.365
303.351
303.337
303.324
303.312
303.299
303.288
303.276
303.265
303.253
303.242
303.231
303.22
303.21
303.199
303.188
303.176
303.165
303.154
303.143
303.131
303.119
303.108
303.096
303.084
303.071
303.059
303.047
303.034
303.022
303.009
302.996
302.982
302.968
302.951
302.932
302.913
302.9
310.483
309.533
308.762
308.184
307.765
307.456
307.221
307.024
306.841
306.664
306.49
306.302
306.106
305.899
305.686
305.471
305.257
305.047
304.839
304.626
304.404
304.194
304.145
304.117
304.082
304.038
303.988
303.936
303.885
303.836
303.789
303.745
303.705
303.667
303.632
303.6
303.57
303.543
303.517
303.494
303.472
303.451
303.432
303.414
303.397
303.381
303.366
303.351
303.338
303.324
303.312
303.3
303.288
303.276
303.265
303.254
303.243
303.232
303.221
303.21
303.199
303.188
303.177
303.166
303.154
303.143
303.131
303.12
303.108
303.096
303.084
303.072
303.059
303.047
303.034
303.022
303.009
302.996
302.982
302.968
302.952
302.935
302.917
302.905
310.512
309.606
308.856
308.286
307.871
307.569
307.343
307.152
306.972
306.797
306.623
306.429
306.222
306.002
305.774
305.542
305.313
305.09
304.874
304.668
304.474
304.31
304.211
304.146
304.09
304.036
303.983
303.93
303.879
303.831
303.785
303.742
303.702
303.665
303.631
303.599
303.569
303.542
303.517
303.493
303.471
303.451
303.432
303.414
303.397
303.381
303.366
303.352
303.338
303.325
303.312
303.3
303.288
303.277
303.265
303.254
303.243
303.232
303.221
303.21
303.199
303.188
303.177
303.166
303.155
303.143
303.132
303.12
303.108
303.096
303.084
303.072
303.06
303.047
303.035
303.022
303.009
302.996
302.983
302.969
302.953
302.937
302.922
302.912
310.542
309.685
308.964
308.411
308.007
307.717
307.503
307.318
307.14
306.963
306.781
306.578
306.359
306.124
305.878
305.625
305.374
305.132
304.903
304.692
304.508
304.355
304.24
304.156
304.088
304.028
303.972
303.92
303.87
303.823
303.778
303.737
303.698
303.662
303.628
303.597
303.568
303.541
303.516
303.493
303.471
303.451
303.432
303.414
303.397
303.381
303.366
303.352
303.339
303.326
303.313
303.301
303.289
303.278
303.266
303.255
303.244
303.233
303.222
303.211
303.2
303.189
303.178
303.167
303.155
303.144
303.132
303.121
303.109
303.097
303.085
303.072
303.06
303.048
303.035
303.022
303.009
302.996
302.983
302.969
302.954
302.939
302.925
302.917
310.573
309.768
309.084
308.554
308.167
307.89
307.684
307.5
307.32
307.135
306.939
306.723
306.487
306.235
305.969
305.697
305.426
305.161
304.913
304.691
304.504
304.352
304.232
304.142
304.07
304.009
303.954
303.904
303.857
303.812
303.77
303.73
303.693
303.658
303.625
303.595
303.566
303.54
303.515
303.492
303.471
303.451
303.432
303.414
303.398
303.382
303.367
303.353
303.339
303.326
303.314
303.302
303.29
303.279
303.267
303.256
303.245
303.234
303.223
303.212
303.201
303.19
303.179
303.168
303.156
303.145
303.133
303.122
303.11
303.098
303.085
303.073
303.061
303.048
303.036
303.023
303.01
302.997
302.983
302.97
302.955
302.941
302.928
302.92
310.597
309.838
309.195
308.7
308.336
308.07
307.868
307.677
307.485
307.283
307.067
306.834
306.582
306.314
306.031
305.74
305.447
305.16
304.889
304.65
304.456
304.306
304.19
304.104
304.036
303.979
303.929
303.883
303.84
303.798
303.759
303.722
303.686
303.653
303.621
303.592
303.564
303.538
303.514
303.491
303.47
303.45
303.432
303.414
303.398
303.383
303.368
303.354
303.34
303.328
303.315
303.303
303.292
303.28
303.269
303.258
303.247
303.236
303.225
303.214
303.203
303.192
303.18
303.169
303.158
303.146
303.134
303.123
303.111
303.099
303.086
303.074
303.061
303.049
303.036
303.023
303.01
302.997
302.984
302.97
302.956
302.942
302.93
302.923
310.628
309.923
309.32
308.854
308.506
308.243
308.033
307.826
307.617
307.392
307.152
306.898
306.632
306.351
306.054
305.745
305.432
305.123
304.829
304.569
304.362
304.217
304.114
304.041
303.984
303.937
303.895
303.856
303.819
303.782
303.746
303.712
303.679
303.647
303.617
303.588
303.561
303.536
303.512
303.49
303.469
303.45
303.432
303.415
303.399
303.383
303.369
303.355
303.342
303.329
303.317
303.305
303.293
303.282
303.271
303.259
303.248
303.237
303.227
303.216
303.204
303.193
303.182
303.171
303.159
303.148
303.136
303.124
303.112
303.1
303.087
303.075
303.062
303.05
303.037
303.024
303.011
302.998
302.984
302.971
302.957
302.944
302.932
302.923
310.655
310.002
309.444
309.004
308.666
308.401
308.173
307.946
307.707
307.453
307.189
306.917
306.637
306.346
306.037
305.714
305.385
305.054
304.733
304.439
304.204
304.079
304.005
303.956
303.918
303.886
303.855
303.824
303.794
303.763
303.732
303.701
303.67
303.64
303.611
303.584
303.558
303.533
303.51
303.489
303.469
303.45
303.432
303.415
303.399
303.384
303.37
303.356
303.343
303.331
303.318
303.307
303.295
303.284
303.273
303.262
303.251
303.24
303.229
303.218
303.206
303.195
303.184
303.173
303.161
303.149
303.137
303.126
303.113
303.101
303.089
303.076
303.063
303.051
303.038
303.025
303.012
302.998
302.985
302.972
302.959
302.946
302.93
302.906
310.681
310.079
309.56
309.141
308.806
308.528
308.271
308.009
307.737
307.459
307.174
306.885
306.594
306.298
305.984
305.653
305.311
304.959
304.603
304.251
303.938
303.883
303.867
303.855
303.841
303.826
303.808
303.788
303.766
303.742
303.715
303.688
303.66
303.632
303.605
303.579
303.554
303.53
303.508
303.487
303.468
303.449
303.432
303.415
303.4
303.385
303.371
303.358
303.345
303.332
303.32
303.309
303.297
303.286
303.275
303.264
303.253
303.242
303.231
303.22
303.209
303.198
303.186
303.175
303.163
303.151
303.139
303.127
303.115
303.103
303.09
303.078
303.065
303.052
303.039
303.026
303.012
302.999
302.986
302.973
302.96
302.945
302.919
302.849
310.705
310.147
309.659
309.253
308.917
308.619
308.326
308.025
307.719
307.413
307.109
306.806
306.508
306.212
305.906
305.581
305.234
304.864
304.471
304.02
303.438
303.643
303.718
303.747
303.758
303.761
303.757
303.749
303.735
303.718
303.697
303.673
303.648
303.623
303.597
303.573
303.549
303.526
303.505
303.485
303.466
303.448
303.432
303.416
303.401
303.386
303.373
303.359
303.347
303.335
303.323
303.311
303.3
303.289
303.278
303.267
303.256
303.245
303.234
303.223
303.211
303.2
303.189
303.177
303.165
303.154
303.141
303.129
303.117
303.104
303.092
303.079
303.066
303.053
303.04
303.027
303.013
303
302.987
302.973
302.961
302.948
302.932
302.908
310.728
310.209
309.746
309.346
309
308.673
308.339
307.995
307.652
307.323
307.008
306.701
306.403
306.11
305.809
305.492
305.155
304.792
304.402
303.957
303.356
303.524
303.601
303.645
303.674
303.693
303.703
303.706
303.702
303.692
303.676
303.657
303.635
303.612
303.589
303.565
303.543
303.522
303.501
303.482
303.464
303.447
303.431
303.416
303.401
303.387
303.374
303.361
303.349
303.337
303.325
303.314
303.303
303.292
303.281
303.27
303.259
303.248
303.237
303.226
303.214
303.203
303.192
303.18
303.168
303.156
303.144
303.132
303.119
303.106
303.094
303.081
303.068
303.055
303.041
303.028
303.014
303.001
302.987
302.974
302.961
302.948
302.935
302.922
310.747
310.26
309.817
309.419
309.056
308.695
308.32
307.932
307.553
307.204
306.886
306.585
306.296
306.011
305.721
305.419
305.098
304.757
304.397
304.019
303.641
303.483
303.504
303.548
303.589
303.622
303.646
303.661
303.666
303.663
303.653
303.638
303.62
303.599
303.578
303.556
303.535
303.515
303.496
303.479
303.462
303.446
303.43
303.416
303.402
303.388
303.376
303.363
303.351
303.34
303.328
303.317
303.306
303.295
303.284
303.273
303.262
303.251
303.24
303.229
303.218
303.206
303.195
303.183
303.171
303.159
303.147
303.134
303.121
303.109
303.096
303.083
303.069
303.056
303.043
303.029
303.015
303.002
302.988
302.974
302.961
302.946
302.928
302.911
310.762
310.301
309.871
309.472
309.09
308.697
308.285
307.864
307.458
307.09
306.764
306.47
306.195
305.925
305.652
305.368
305.069
304.754
304.421
304.071
303.702
303.275
303.379
303.443
303.5
303.548
303.586
303.612
303.627
303.632
303.628
303.617
303.601
303.583
303.564
303.544
303.526
303.507
303.49
303.474
303.458
303.443
303.429
303.415
303.402
303.39
303.377
303.366
303.354
303.343
303.332
303.321
303.31
303.299
303.288
303.277
303.266
303.255
303.244
303.233
303.221
303.21
303.198
303.186
303.174
303.162
303.149
303.137
303.124
303.111
303.098
303.085
303.071
303.058
303.044
303.03
303.017
303.003
302.989
302.975
302.96
302.943
302.921
302.898
310.774
310.331
309.908
309.506
309.107
308.688
308.249
307.804
307.374
306.987
306.655
306.366
306.104
305.851
305.597
305.336
305.063
304.775
304.47
304.146
303.807
303.471
303.285
303.334
303.406
303.471
303.523
303.561
303.586
303.598
303.599
303.591
303.579
303.563
303.546
303.529
303.513
303.497
303.482
303.467
303.453
303.44
303.427
303.415
303.403
303.391
303.379
303.368
303.357
303.346
303.335
303.324
303.314
303.303
303.292
303.281
303.271
303.26
303.248
303.237
303.226
303.214
303.202
303.19
303.178
303.165
303.153
303.14
303.127
303.114
303.1
303.087
303.073
303.06
303.046
303.032
303.018
303.004
302.99
302.976
302.961
302.945
302.925
302.907
310.782
310.351
309.93
309.518
309.098
308.654
308.194
307.732
307.293
306.898
306.558
306.27
306.017
305.781
305.548
305.311
305.064
304.804
304.524
304.22
303.884
303.501
302.973
303.192
303.306
303.391
303.458
303.508
303.543
303.561
303.566
303.562
303.551
303.538
303.524
303.51
303.496
303.483
303.471
303.459
303.447
303.436
303.424
303.413
303.402
303.392
303.381
303.37
303.36
303.349
303.339
303.329
303.318
303.308
303.297
303.286
303.275
303.264
303.253
303.242
303.23
303.218
303.206
303.194
303.182
303.169
303.156
303.143
303.13
303.117
303.103
303.089
303.076
303.062
303.048
303.034
303.019
303.005
302.991
302.976
302.962
302.946
302.93
302.917
310.786
310.36
309.934
309.503
309.057
308.588
308.11
307.641
307.2
306.805
306.464
306.177
305.931
305.708
305.494
305.281
305.061
304.828
304.575
304.296
303.984
303.637
303.254
303.138
303.217
303.311
303.392
303.455
303.499
303.522
303.53
303.527
303.518
303.507
303.496
303.485
303.475
303.466
303.457
303.448
303.439
303.43
303.421
303.412
303.402
303.392
303.383
303.373
303.363
303.353
303.343
303.333
303.323
303.313
303.302
303.291
303.281
303.27
303.258
303.247
303.235
303.223
303.211
303.198
303.186
303.173
303.16
303.147
303.133
303.12
303.106
303.092
303.078
303.064
303.05
303.035
303.021
303.006
302.992
302.977
302.962
302.946
302.93
302.918
310.786
310.357
309.918
309.454
308.968
308.464
307.968
307.501
307.073
306.691
306.359
306.079
305.842
305.632
305.436
305.243
305.047
304.839
304.613
304.361
304.079
303.759
303.385
302.899
303.105
303.228
303.325
303.404
303.457
303.484
303.491
303.485
303.476
303.467
303.459
303.453
303.448
303.444
303.439
303.434
303.429
303.423
303.416
303.409
303.401
303.393
303.385
303.376
303.367
303.357
303.348
303.338
303.328
303.318
303.308
303.297
303.286
303.275
303.264
303.252
303.24
303.228
303.216
303.203
303.19
303.177
303.164
303.151
303.137
303.123
303.109
303.095
303.081
303.066
303.052
303.037
303.023
303.008
302.993
302.978
302.962
302.946
302.929
302.917
310.78
310.331
309.862
309.354
308.819
308.271
307.754
307.295
306.891
306.538
306.23
305.967
305.743
305.547
305.366
305.191
305.015
304.83
304.63
304.41
304.166
303.897
303.595
303.278
303.065
303.159
303.262
303.362
303.423
303.449
303.449
303.435
303.422
303.415
303.413
303.413
303.415
303.416
303.417
303.418
303.416
303.414
303.411
303.406
303.4
303.394
303.386
303.379
303.371
303.362
303.353
303.344
303.334
303.324
303.314
303.303
303.293
303.281
303.27
303.258
303.246
303.234
303.221
303.208
303.195
303.182
303.168
303.155
303.141
303.127
303.112
303.098
303.084
303.069
303.054
303.039
303.024
303.009
302.994
302.979
302.963
302.947
302.93
302.919
310.761
310.269
309.75
309.187
308.595
308.007
307.478
307.037
306.669
306.352
306.074
305.835
305.628
305.447
305.282
305.122
304.964
304.801
304.63
304.448
304.253
304.04
303.805
303.574
303.371
303.081
303.189
303.338
303.405
303.424
303.405
303.37
303.352
303.35
303.355
303.364
303.374
303.383
303.391
303.397
303.402
303.404
303.404
303.402
303.399
303.394
303.388
303.382
303.375
303.367
303.359
303.35
303.341
303.331
303.321
303.31
303.299
303.288
303.277
303.265
303.252
303.24
303.227
303.214
303.201
303.187
303.173
303.159
303.145
303.131
303.116
303.101
303.087
303.072
303.056
303.041
303.026
303.011
302.995
302.98
302.964
302.947
302.931
302.92
310.731
310.176
309.58
308.948
308.298
307.683
307.15
306.723
306.392
306.123
305.889
305.688
305.511
305.355
305.213
305.08
304.948
304.815
304.677
304.53
304.377
304.211
304.03
303.856
303.665
303.411
303.078
303.374
303.416
303.421
303.361
303.279
303.258
303.266
303.285
303.306
303.326
303.345
303.361
303.374
303.384
303.391
303.396
303.397
303.397
303.395
303.391
303.386
303.38
303.373
303.365
303.357
303.348
303.338
303.328
303.318
303.307
303.296
303.284
303.272
303.259
303.246
303.233
303.22
303.206
303.192
303.178
303.164
303.149
303.135
303.12
303.105
303.09
303.074
303.059
303.044
303.028
303.012
302.997
302.981
302.964
302.947
302.93
302.918
310.699
310.073
309.384
308.672
307.976
307.344
306.832
306.441
306.149
305.923
305.734
305.574
305.436
305.315
305.206
305.103
305.002
304.901
304.794
304.682
304.565
304.434
304.294
304.161
303.999
303.812
303.651
303.617
303.448
303.463
303.327
303.123
303.127
303.164
303.204
303.24
303.272
303.3
303.326
303.347
303.365
303.378
303.387
303.393
303.395
303.395
303.393
303.39
303.385
303.379
303.372
303.364
303.356
303.346
303.336
303.326
303.315
303.304
303.292
303.279
303.266
303.253
303.24
303.226
303.212
303.198
303.184
303.169
303.154
303.139
303.124
303.108
303.093
303.077
303.062
303.046
303.03
303.014
302.998
302.981
302.964
302.946
302.928
302.916
310.675
310.001
309.262
308.49
307.74
307.08
306.576
306.221
305.971
305.788
305.643
305.526
305.428
305.342
305.265
305.193
305.124
305.052
304.976
304.896
304.808
304.709
304.605
304.495
304.36
304.213
304.074
303.947
303.782
303.626
303.344
302.787
302.96
303.051
303.118
303.168
303.211
303.251
303.287
303.318
303.344
303.364
303.378
303.388
303.394
303.397
303.397
303.395
303.391
303.386
303.38
303.373
303.364
303.355
303.345
303.335
303.324
303.312
303.3
303.287
303.274
303.261
303.247
303.233
303.219
303.204
303.189
303.174
303.159
303.144
303.128
303.112
303.096
303.081
303.065
303.048
303.032
303.016
302.999
302.983
302.965
302.947
302.93
302.918
310.648
309.915
309.109
308.274
307.506
306.87
306.401
306.083
305.874
305.73
305.626
305.545
305.479
305.425
305.378
305.333
305.291
305.247
305.197
305.142
305.081
305.009
304.931
304.839
304.728
304.598
304.454
304.298
304.108
303.889
303.594
303.225
302.872
302.956
303.041
303.095
303.147
303.198
303.246
303.288
303.323
303.35
303.37
303.384
303.394
303.399
303.401
303.401
303.399
303.394
303.389
303.382
303.374
303.365
303.355
303.345
303.334
303.322
303.309
303.296
303.283
303.269
303.255
303.24
303.226
303.211
303.195
303.18
303.164
303.148
303.132
303.116
303.1
303.084
303.067
303.051
303.034
303.018
303.001
302.984
302.966
302.949
302.932
302.922
310.62
309.83
308.971
308.099
307.329
306.721
306.294
306.017
305.846
305.737
305.664
305.613
305.576
305.549
305.525
305.503
305.482
305.459
305.434
305.397
305.36
305.308
305.251
305.177
305.085
304.967
304.826
304.666
304.466
304.232
303.943
303.624
303.265
302.866
302.988
303.019
303.075
303.14
303.203
303.258
303.302
303.337
303.363
303.382
303.395
303.403
303.407
303.408
303.407
303.404
303.399
303.393
303.385
303.376
303.366
303.356
303.344
303.332
303.319
303.306
303.292
303.278
303.263
303.248
303.233
303.217
303.202
303.186
303.17
303.153
303.137
303.121
303.104
303.087
303.071
303.054
303.037
303.02
303.003
302.985
302.968
302.95
302.935
302.925
310.589
309.747
308.855
307.963
307.196
306.62
306.237
306.003
305.866
305.787
305.742
305.718
305.704
305.696
305.69
305.684
305.677
305.669
305.665
305.643
305.623
305.592
305.55
305.498
305.423
305.322
305.199
305.046
304.854
304.626
304.35
304.045
303.695
303.342
303.015
302.919
302.988
303.078
303.161
303.23
303.285
303.328
303.359
303.382
303.398
303.409
303.415
303.418
303.418
303.415
303.411
303.405
303.397
303.388
303.378
303.367
303.356
303.343
303.33
303.316
303.302
303.287
303.272
303.256
303.24
303.224
303.208
303.192
303.175
303.159
303.142
303.125
303.108
303.091
303.074
303.057
303.039
303.022
303.004
302.987
302.969
302.952
302.937
302.927
310.547
309.63
308.696
307.817
307.093
306.565
306.225
306.027
305.922
305.869
305.848
305.843
305.846
305.851
305.858
305.863
305.866
305.868
305.875
305.872
305.86
305.849
305.822
305.79
305.735
305.658
305.56
305.427
305.258
305.047
304.789
304.486
304.134
303.742
303.282
302.677
302.881
303.016
303.126
303.211
303.275
303.324
303.36
303.386
303.405
303.417
303.425
303.429
303.43
303.428
303.424
303.418
303.411
303.402
303.392
303.38
303.368
303.355
303.341
303.327
303.312
303.297
303.281
303.265
303.249
303.232
303.215
303.198
303.181
303.164
303.147
303.13
303.112
303.095
303.077
303.059
303.042
303.024
303.006
302.988
302.971
302.953
302.938
302.926
310.506
309.523
308.562
307.695
307.012
306.536
306.241
306.079
306.002
305.973
305.969
305.978
305.993
306.008
306.022
306.035
306.044
306.051
306.063
306.073
306.07
306.072
306.062
306.046
306.017
305.966
305.898
305.792
305.653
305.467
305.233
304.946
304.602
304.21
303.768
303.289
302.843
302.976
303.11
303.206
303.276
303.328
303.366
303.395
303.415
303.429
303.438
303.443
303.445
303.443
303.44
303.434
303.426
303.417
303.406
303.394
303.381
303.368
303.353
303.338
303.323
303.307
303.291
303.274
303.257
303.24
303.223
303.205
303.188
303.17
303.152
303.134
303.116
303.098
303.08
303.062
303.044
303.026
303.008
302.99
302.972
302.955
302.935
302.909
310.466
309.418
308.443
307.605
306.966
306.537
306.28
306.15
306.098
306.087
306.098
306.118
306.141
306.162
306.181
306.198
306.21
306.22
306.233
306.248
306.255
306.264
306.267
306.268
306.26
306.238
306.199
306.127
306.021
305.869
305.665
305.406
305.084
304.709
304.28
303.812
303.347
302.941
303.126
303.222
303.291
303.341
303.38
303.409
303.43
303.445
303.455
303.461
303.463
303.461
303.457
303.451
303.443
303.433
303.422
303.41
303.396
303.382
303.367
303.351
303.335
303.318
303.301
303.284
303.266
303.248
303.23
303.212
303.194
303.176
303.158
303.139
303.121
303.102
303.084
303.066
303.047
303.029
303.01
302.992
302.974
302.955
302.925
302.864
310.422
309.306
308.319
307.517
306.931
306.551
306.336
306.235
306.203
306.208
306.231
306.26
306.289
306.313
306.335
306.353
306.367
306.378
306.39
306.405
306.416
306.431
306.441
306.458
306.466
306.47
306.459
306.422
306.351
306.236
306.067
305.84
305.549
305.197
304.785
304.323
303.849
303.43
303.225
303.265
303.321
303.366
303.402
303.429
303.45
303.466
303.476
303.482
303.484
303.482
303.478
303.471
303.462
303.452
303.44
303.426
303.412
303.397
303.381
303.364
303.347
303.33
303.312
303.294
303.275
303.257
303.238
303.22
303.201
303.182
303.163
303.144
303.125
303.107
303.088
303.069
303.05
303.031
303.012
302.994
302.976
302.959
302.94
302.915
310.389
309.226
308.231
307.461
306.927
306.59
306.407
306.33
306.315
306.334
306.368
306.404
306.436
306.462
306.484
306.502
306.515
306.526
306.536
306.549
306.561
306.579
306.595
306.62
306.642
306.665
306.677
306.673
306.635
306.558
306.428
306.237
305.98
305.655
305.264
304.811
304.313
303.786
303.113
303.298
303.362
303.4
303.43
303.455
303.476
303.491
303.501
303.506
303.508
303.506
303.501
303.493
303.484
303.472
303.459
303.445
303.429
303.413
303.396
303.378
303.36
303.342
303.323
303.304
303.285
303.266
303.247
303.227
303.208
303.188
303.169
303.15
303.13
303.111
303.091
303.072
303.053
303.033
303.014
302.995
302.978
302.962
302.948
302.938
310.359
309.16
308.172
307.438
306.94
306.64
306.488
306.434
306.434
306.465
306.507
306.549
306.584
306.611
306.631
306.647
306.658
306.667
306.675
306.684
306.696
306.713
306.733
306.761
306.794
306.83
306.862
306.88
306.875
306.833
306.742
306.588
306.367
306.072
305.706
305.269
304.772
304.236
303.68
303.439
303.427
303.443
303.465
303.487
303.506
303.52
303.53
303.535
303.536
303.533
303.527
303.518
303.507
303.494
303.48
303.464
303.448
303.43
303.412
303.393
303.374
303.355
303.335
303.315
303.295
303.275
303.255
303.235
303.215
303.195
303.175
303.155
303.135
303.115
303.095
303.075
303.055
303.036
303.016
302.997
302.979
302.963
302.951
302.944
310.355
309.154
308.173
307.458
306.988
306.715
306.583
306.544
306.558
306.599
306.65
306.696
306.733
306.76
306.778
306.791
306.798
306.803
306.807
306.813
306.823
306.838
306.859
306.889
306.927
306.972
307.018
307.056
307.076
307.065
307.011
306.896
306.712
306.453
306.119
305.711
305.227
304.681
304.08
303.351
303.46
303.481
303.501
303.522
303.54
303.555
303.564
303.569
303.568
303.564
303.556
303.546
303.533
303.519
303.503
303.486
303.467
303.448
303.429
303.409
303.389
303.368
303.347
303.327
303.306
303.285
303.264
303.243
303.222
303.202
303.181
303.16
303.14
303.119
303.099
303.079
303.058
303.038
303.018
302.998
302.98
302.964
302.952
302.945
310.369
309.19
308.22
307.513
307.058
306.8
306.686
306.659
306.686
306.736
306.793
306.843
306.881
306.908
306.924
306.933
306.937
306.937
306.937
306.939
306.945
306.957
306.977
307.008
307.048
307.098
307.154
307.206
307.247
307.261
307.24
307.163
307.019
306.799
306.501
306.119
305.654
305.115
304.526
303.943
303.563
303.523
303.538
303.56
303.58
303.594
303.603
303.606
303.605
303.599
303.589
303.577
303.562
303.545
303.527
303.508
303.488
303.468
303.447
303.426
303.404
303.382
303.36
303.338
303.317
303.295
303.273
303.252
303.23
303.209
303.187
303.166
303.145
303.124
303.103
303.082
303.061
303.041
303.02
303
302.981
302.964
302.951
302.944
310.385
309.235
308.282
307.586
307.142
306.897
306.795
306.779
306.815
306.873
306.936
306.989
307.028
307.054
307.068
307.074
307.073
307.069
307.064
307.062
307.064
307.073
307.09
307.12
307.161
307.214
307.275
307.338
307.395
307.43
307.436
307.395
307.29
307.113
306.856
306.515
306.085
305.567
304.961
304.264
303.391
303.529
303.574
303.603
303.624
303.639
303.647
303.648
303.645
303.637
303.625
303.61
303.593
303.574
303.554
303.533
303.511
303.488
303.466
303.443
303.42
303.397
303.374
303.351
303.328
303.305
303.282
303.26
303.238
303.216
303.194
303.172
303.15
303.128
303.107
303.086
303.064
303.043
303.022
303.001
302.981
302.964
302.951
302.943
310.39
309.248
308.324
307.659
307.231
306.998
306.907
306.901
306.946
307.011
307.079
307.133
307.173
307.197
307.209
307.211
307.207
307.199
307.19
307.183
307.181
307.186
307.201
307.229
307.269
307.323
307.387
307.457
307.526
307.578
307.605
307.596
307.53
307.394
307.182
306.879
306.482
305.984
305.388
304.703
303.993
303.629
303.627
303.655
303.676
303.689
303.695
303.695
303.689
303.678
303.663
303.646
303.626
303.605
303.582
303.558
303.534
303.51
303.485
303.461
303.436
303.412
303.387
303.363
303.339
303.315
303.292
303.269
303.245
303.223
303.2
303.177
303.155
303.133
303.111
303.089
303.067
303.045
303.024
303.002
302.982
302.963
302.949
302.941
310.406
309.304
308.4
307.739
307.322
307.102
307.02
307.022
307.075
307.146
307.219
307.274
307.315
307.337
307.345
307.345
307.338
307.326
307.313
307.302
307.296
307.297
307.31
307.335
307.374
307.427
307.493
307.567
307.644
307.71
307.757
307.772
307.742
307.646
307.476
307.215
306.858
306.394
305.824
305.137
304.356
303.396
303.655
303.714
303.735
303.745
303.749
303.745
303.736
303.723
303.705
303.684
303.661
303.637
303.612
303.586
303.559
303.533
303.506
303.48
303.453
303.427
303.401
303.376
303.351
303.326
303.301
303.277
303.253
303.23
303.206
303.183
303.16
303.137
303.115
303.092
303.07
303.048
303.026
303.003
302.982
302.962
302.947
302.938
310.424
309.352
308.465
307.817
307.414
307.207
307.133
307.143
307.202
307.279
307.355
307.412
307.451
307.471
307.478
307.475
307.465
307.451
307.435
307.42
307.41
307.408
307.417
307.44
307.478
307.529
307.595
307.671
307.753
307.83
307.892
307.927
307.926
307.865
307.733
307.513
307.195
306.76
306.208
305.544
304.809
304.098
303.859
303.807
303.805
303.808
303.807
303.8
303.787
303.77
303.749
303.725
303.699
303.671
303.643
303.614
303.585
303.556
303.527
303.499
303.471
303.443
303.416
303.389
303.363
303.337
303.311
303.286
303.261
303.237
303.213
303.189
303.165
303.142
303.119
303.096
303.073
303.05
303.027
303.004
302.982
302.961
302.945
302.935
310.44
309.388
308.519
307.895
307.509
307.312
307.246
307.263
307.327
307.408
307.486
307.544
307.583
307.601
307.606
307.601
307.589
307.572
307.554
307.536
307.522
307.517
307.524
307.544
307.58
307.63
307.694
307.771
307.856
307.941
308.014
308.067
308.087
308.057
307.962
307.781
307.502
307.103
306.584
305.949
305.218
304.467
303.904
303.861
303.87
303.874
303.869
303.858
303.841
303.819
303.794
303.767
303.737
303.706
303.675
303.643
303.612
303.58
303.549
303.518
303.488
303.459
303.43
303.402
303.374
303.347
303.321
303.295
303.269
303.244
303.219
303.195
303.17
303.146
303.123
303.099
303.076
303.053
303.029
303.005
302.982
302.96
302.942
302.932
310.456
309.43
308.584
307.979
307.607
307.417
307.357
307.379
307.448
307.532
307.611
307.67
307.709
307.726
307.729
307.722
307.709
307.691
307.67
307.65
307.634
307.626
307.63
307.648
307.681
307.729
307.792
307.868
307.954
308.044
308.126
308.193
308.23
308.224
308.16
308.013
307.77
307.406
306.916
306.301
305.561
304.673
303.492
303.868
303.941
303.946
303.935
303.918
303.896
303.87
303.841
303.81
303.777
303.743
303.708
303.673
303.639
303.605
303.571
303.538
303.506
303.475
303.445
303.415
303.386
303.358
303.33
303.303
303.277
303.251
303.225
303.2
303.175
303.151
303.127
303.103
303.079
303.055
303.031
303.006
302.982
302.959
302.941
302.93
310.472
309.478
308.656
308.068
307.705
307.522
307.466
307.493
307.565
307.651
307.732
307.791
307.829
307.845
307.848
307.84
307.825
307.806
307.784
307.762
307.743
307.734
307.736
307.752
307.783
307.828
307.889
307.964
308.049
308.142
308.23
308.306
308.358
308.369
308.332
308.215
308.005
307.676
307.223
306.646
305.944
305.149
304.412
304.151
304.068
304.032
304.005
303.979
303.952
303.921
303.889
303.854
303.817
303.78
303.742
303.704
303.666
303.63
303.594
303.559
303.525
303.492
303.459
303.428
303.398
303.369
303.34
303.312
303.285
303.258
303.232
303.206
303.18
303.155
303.13
303.106
303.082
303.057
303.033
303.008
302.983
302.959
302.94
302.929
310.489
309.526
308.731
308.159
307.804
307.625
307.573
307.603
307.678
307.766
307.848
307.908
307.945
307.961
307.963
307.954
307.938
307.917
307.895
307.871
307.851
307.841
307.841
307.855
307.883
307.927
307.985
308.058
308.142
308.235
308.327
308.409
308.472
308.496
308.479
308.388
308.208
307.917
307.506
306.969
306.316
305.585
304.844
304.265
304.151
304.107
304.072
304.039
304.006
303.972
303.936
303.898
303.858
303.817
303.776
303.735
303.694
303.655
303.616
303.579
303.543
303.508
303.474
303.441
303.41
303.379
303.35
303.321
303.292
303.265
303.238
303.211
303.185
303.16
303.134
303.109
303.084
303.059
303.034
303.009
302.983
302.959
302.94
302.929
310.505
309.576
308.808
308.251
307.902
307.727
307.678
307.71
307.786
307.876
307.959
308.019
308.057
308.072
308.074
308.064
308.047
308.026
308.002
307.978
307.958
307.946
307.946
307.958
307.984
308.025
308.08
308.15
308.232
308.323
308.417
308.502
308.574
308.608
308.607
308.538
308.386
308.13
307.76
307.264
306.646
305.915
305.063
303.95
304.17
304.17
304.133
304.094
304.057
304.02
303.981
303.94
303.898
303.854
303.81
303.766
303.722
303.68
303.639
303.599
303.561
303.524
303.488
303.454
303.421
303.39
303.359
303.329
303.3
303.271
303.244
303.217
303.19
303.164
303.138
303.112
303.087
303.062
303.036
303.011
302.985
302.961
302.941
302.93
310.52
309.62
308.877
308.336
307.997
307.827
307.78
307.813
307.89
307.982
308.065
308.125
308.163
308.18
308.181
308.171
308.153
308.131
308.107
308.083
308.063
308.051
308.049
308.06
308.084
308.122
308.174
308.24
308.319
308.408
308.501
308.588
308.664
308.707
308.717
308.667
308.541
308.321
307.987
307.526
306.932
306.212
305.403
304.611
304.38
304.259
304.191
304.143
304.104
304.065
304.024
303.982
303.937
303.89
303.843
303.796
303.749
303.704
303.661
303.618
303.578
303.539
303.502
303.467
303.433
303.4
303.368
303.337
303.307
303.278
303.249
303.222
303.194
303.168
303.141
303.115
303.09
303.064
303.038
303.013
302.987
302.963
302.944
302.932
310.531
309.659
308.942
308.42
308.092
307.926
307.88
307.915
307.991
308.081
308.166
308.227
308.266
308.283
308.285
308.275
308.256
308.234
308.21
308.186
308.166
308.154
308.152
308.161
308.183
308.218
308.267
308.329
308.404
308.489
308.58
308.667
308.743
308.794
308.811
308.778
308.674
308.481
308.179
307.749
307.172
306.458
305.667
304.931
304.48
304.3
304.224
304.18
304.143
304.105
304.065
304.021
303.974
303.925
303.875
303.825
303.776
303.728
303.682
303.638
303.595
303.555
303.516
303.479
303.444
303.409
303.377
303.345
303.314
303.284
303.255
303.227
303.199
303.171
303.145
303.118
303.092
303.066
303.04
303.015
302.989
302.965
302.946
302.934
310.551
309.712
309.02
308.515
308.193
308.028
307.979
308.009
308.083
308.174
308.26
308.324
308.365
308.384
308.386
308.376
308.357
308.335
308.31