/*--------------------------------*- C++ -*----------------------------------*\
  =========                 |
  \\      /  F ield         | OpenFOAM: The Open Source CFD Toolbox
   \\    /   O peration     | Website:  https://openfoam.org
    \\  /    A nd           | Version:  6
     \\/     M anipulation  |
\*---------------------------------------------------------------------------*/
FoamFile
{
    version     2.0;
    format      ascii;
    class       volScalarField;
    location    "3950";
    object      Su;
}
// * * * * * * * * * * * * * * * * * * * * * * * * * * * * * * * * * * * * * //

dimensions      [0 0 -1 0 0 0 0];

internalField   nonuniform List<scalar> 
4800
(
0.218131
0.213223
0.208345
0.203516
0.198753
0.19408
0.189518
0.185085
0.180796
0.176666
0.172703
0.168907
0.165276
0.161804
0.158483
0.155303
0.152252
0.149318
0.146489
0.143761
0.141127
0.13858
0.136117
0.133737
0.131434
0.129199
0.127026
0.124907
0.122839
0.120816
0.118835
0.116896
0.115005
0.113162
0.111361
0.109603
0.107885
0.106207
0.104575
0.102992
0.101455
0.0999652
0.0985245
0.0971258
0.0957636
0.0944352
0.0931326
0.0918532
0.0905982
0.0893578
0.0881264
0.0868989
0.0856679
0.084425
0.0831623
0.0818727
0.0805473
0.0791753
0.0777442
0.0762396
0.0746458
0.0729453
0.0711191
0.0691492
0.0670173
0.0647077
0.0622075
0.0595052
0.0565981
0.0534903
0.0501893
0.0467053
0.0430571
0.0392795
0.0354151
0.0315033
0.0275837
0.0236998
0.0198767
0.0161219
0.0124273
0.00878027
0.00518587
0.0016445
-0.0018456
-0.00528717
-0.0086834
-0.0120375
-0.0153526
-0.0186315
-0.0218769
-0.0250913
-0.0282772
-0.0314365
-0.0345713
-0.0376836
-0.040775
-0.0438471
-0.0469016
-0.0499398
-0.052963
-0.0559725
-0.0589696
-0.0619552
-0.0649304
-0.0678962
-0.0708535
-0.0738031
-0.0767458
-0.0796823
-0.0826133
-0.0855395
-0.0884615
-0.0913798
-0.094295
-0.0972076
-0.100118
-0.103027
-0.105935
-0.108842
0.218112
0.213167
0.208259
0.203406
0.198628
0.19395
0.189391
0.184966
0.180687
0.176565
0.172606
0.168814
0.165188
0.16172
0.158402
0.155222
0.152172
0.14924
0.146419
0.143698
0.141068
0.138524
0.136062
0.133684
0.13138
0.129141
0.126963
0.124839
0.122765
0.120734
0.118746
0.1168
0.114894
0.113033
0.111215
0.10944
0.107709
0.106019
0.104375
0.102782
0.101238
0.0997405
0.0982909
0.0968861
0.0955189
0.0941857
0.0928838
0.091603
0.0903443
0.0891033
0.087872
0.0866443
0.0854145
0.084174
0.0829123
0.0816224
0.0802962
0.0789237
0.0774925
0.0759884
0.0743956
0.0726965
0.0708733
0.0689073
0.0667817
0.0644783
0.0619854
0.0592957
0.0564029
0.0533091
0.0500213
0.0465573
0.042939
0.039181
0.0353271
0.0314434
0.0275688
0.0237214
0.0199148
0.0161493
0.0124228
0.00875474
0.00515566
0.00161384
-0.00187539
-0.00531561
-0.00871034
-0.0120629
-0.0153765
-0.018654
-0.0218981
-0.0251113
-0.0282959
-0.0314541
-0.0345879
-0.0376991
-0.0407895
-0.0438607
-0.0469142
-0.0499515
-0.0529739
-0.0559826
-0.0589788
-0.0619637
-0.0649382
-0.0679034
-0.07086
-0.0738089
-0.076751
-0.079687
-0.0826175
-0.0855432
-0.0884646
-0.0913825
-0.0942973
-0.0972095
-0.10012
-0.103028
-0.105935
-0.108842
0.218086
0.21309
0.208138
0.203253
0.19846
0.193774
0.189209
0.18478
0.180501
0.176386
0.172438
0.16866
0.165046
0.161588
0.158278
0.155105
0.152061
0.149134
0.146319
0.143603
0.140976
0.138435
0.135977
0.133599
0.131292
0.129047
0.126861
0.124725
0.122635
0.120586
0.118577
0.116609
0.114677
0.112784
0.110934
0.109129
0.107372
0.105662
0.103996
0.10238
0.100817
0.0993035
0.097838
0.0964201
0.0950431
0.0937032
0.0923971
0.0911142
0.089854
0.0886125
0.0873815
0.0861549
0.0849254
0.0836866
0.0824258
0.0811349
0.0798066
0.0784313
0.0769978
0.0754921
0.0739006
0.0722059
0.0703899
0.0684339
0.0663213
0.0640342
0.0615592
0.0588887
0.0560156
0.0529473
0.0496938
0.0462653
0.0426818
0.0389726
0.0351762
0.0313359
0.0274818
0.023631
0.019808
0.0160438
0.0123409
0.00868754
0.00509126
0.00155143
-0.00193522
-0.00537244
-0.00876404
-0.0121136
-0.0154242
-0.0186989
-0.0219403
-0.0251511
-0.0283333
-0.0314893
-0.0346209
-0.03773
-0.0408184
-0.0438877
-0.0469394
-0.0499749
-0.0529955
-0.0560026
-0.0589973
-0.0619807
-0.0649538
-0.0679175
-0.0708728
-0.0738206
-0.0767615
-0.0796963
-0.0826258
-0.0855504
-0.0884709
-0.0913879
-0.0943017
-0.0972131
-0.100122
-0.10303
-0.105937
-0.108843
0.218063
0.213022
0.208026
0.203107
0.198289
0.193584
0.189003
0.184567
0.180293
0.176191
0.172264
0.168508
0.164912
0.161469
0.15817
0.155007
0.151971
0.149051
0.146239
0.143524
0.140899
0.138357
0.135898
0.133513
0.131195
0.12894
0.126739
0.124583
0.122467
0.120389
0.118347
0.116341
0.114367
0.11243
0.110537
0.108692
0.106898
0.105155
0.10346
0.101815
0.100223
0.0986834
0.0971948
0.0957572
0.0943668
0.0930181
0.0917055
0.0904188
0.0891563
0.087915
0.0866842
0.0854591
0.0842296
0.0829898
0.081728
0.0804353
0.0791048
0.0777268
0.0762913
0.0747847
0.0731942
0.0715045
0.0696973
0.0677535
0.0656569
0.0633915
0.0609403
0.0582979
0.0554585
0.0524234
0.0492082
0.0458274
0.0423012
0.0386561
0.0349196
0.0311275
0.0273212
0.0235247
0.0197419
0.0159798
0.0122566
0.00859046
0.00499346
0.00145674
-0.0020254
-0.00545768
-0.00884435
-0.0121891
-0.0154953
-0.0187658
-0.0220034
-0.0252104
-0.0283892
-0.0315418
-0.0346702
-0.0377763
-0.0408617
-0.0439281
-0.046977
-0.0500099
-0.053028
-0.0560326
-0.0590249
-0.062006
-0.064977
-0.0679387
-0.0708921
-0.073838
-0.0767771
-0.0797103
-0.0826381
-0.0855613
-0.0884804
-0.0913959
-0.0943085
-0.0972185
-0.100127
-0.103033
-0.105938
-0.108843
0.218051
0.212983
0.207951
0.20299
0.198133
0.193402
0.188811
0.184378
0.180119
0.176041
0.172142
0.168408
0.164831
0.161402
0.158116
0.154962
0.151932
0.149016
0.146204
0.143488
0.140859
0.138313
0.135843
0.133439
0.131104
0.128828
0.126602
0.12442
0.122273
0.120158
0.118074
0.116019
0.113994
0.112005
0.110057
0.108157
0.106311
0.104522
0.102787
0.101106
0.0994797
0.0979087
0.0963938
0.0949335
0.0935252
0.0921635
0.0908418
0.0895491
0.0882823
0.087039
0.0858073
0.0845825
0.0833548
0.0821143
0.0808509
0.0795561
0.0782237
0.0768437
0.0754069
0.0739003
0.07231
0.0706239
0.0688254
0.0668946
0.0648155
0.0625713
0.0601474
0.0575367
0.0547343
0.0517444
0.0485808
0.0452552
0.0417927
0.0382182
0.0345523
0.030822
0.0270675
0.0233167
0.0195754
0.0158396
0.0121204
0.00845139
0.00485848
0.00132845
-0.00214627
-0.00557121
-0.00895092
-0.0122892
-0.0155894
-0.0188544
-0.0220868
-0.025289
-0.0284632
-0.0316114
-0.0347356
-0.0378376
-0.0409191
-0.0439818
-0.047027
-0.0500563
-0.0530711
-0.0560724
-0.0590616
-0.0620397
-0.0650078
-0.0679668
-0.0709176
-0.073861
-0.0767978
-0.0797288
-0.0826545
-0.0855757
-0.0884928
-0.0914065
-0.0943173
-0.0972257
-0.100132
-0.103037
-0.105941
-0.108844
0.218031
0.21293
0.20788
0.202906
0.19803
0.193282
0.188689
0.184269
0.180031
0.175977
0.1721
0.168386
0.164826
0.161411
0.158133
0.154984
0.151954
0.149036
0.146222
0.143501
0.140866
0.138307
0.135815
0.133385
0.13102
0.128712
0.126456
0.124243
0.122063
0.119909
0.117777
0.115667
0.113584
0.111533
0.109521
0.107557
0.105648
0.103801
0.102013
0.100287
0.0986208
0.0970154
0.09547
0.0939836
0.0925531
0.0911739
0.0898389
0.0885368
0.087264
0.0860163
0.0847825
0.0835577
0.0823317
0.0810912
0.0798255
0.0785286
0.0771954
0.0758147
0.0743783
0.0728723
0.0712822
0.0695968
0.067803
0.0658833
0.0638218
0.0616004
0.0592058
0.0566303
0.0538718
0.0509315
0.0478194
0.044554
0.0411575
0.0376459
0.034046
0.0303871
0.0266957
0.0229967
0.019302
0.015607
0.0119167
0.0082632
0.00468367
0.00116588
-0.00229767
-0.00571251
-0.00908313
-0.0124132
-0.015706
-0.0189642
-0.0221902
-0.0253865
-0.028555
-0.0316979
-0.0348169
-0.0379139
-0.0409906
-0.0440485
-0.0470892
-0.0501142
-0.0531246
-0.0561219
-0.0591072
-0.0620816
-0.0650461
-0.0680017
-0.0709493
-0.0738896
-0.0768235
-0.0797517
-0.0826749
-0.0855935
-0.0885083
-0.0914197
-0.0943283
-0.0972346
-0.100139
-0.103042
-0.105944
-0.108845
0.218012
0.212882
0.20782
0.202849
0.197982
0.19324
0.188657
0.184255
0.180039
0.176004
0.172142
0.168444
0.164897
0.16149
0.158215
0.155066
0.152034
0.149114
0.146296
0.14357
0.140922
0.138342
0.13582
0.133357
0.130954
0.128609
0.126317
0.124069
0.121853
0.119655
0.11747
0.115301
0.113154
0.111036
0.108957
0.106927
0.104952
0.103036
0.101185
0.0993997
0.0976831
0.0960353
0.0944546
0.0929396
0.0914852
0.0900855
0.0887331
0.0874182
0.086136
0.0848811
0.0836438
0.082417
0.0811916
0.0799533
0.0786862
0.0773873
0.076053
0.0746696
0.0732324
0.0717268
0.0701377
0.068454
0.0666629
0.0647507
0.0627049
0.0605057
0.0581416
0.0556029
0.0528854
0.0499959
0.0469438
0.0437451
0.040419
0.0369829
0.0334566
0.0298636
0.0262322
0.0225889
0.0189462
0.0152991
0.0116516
0.00802774
0.00447008
0.000970065
-0.00247851
-0.00588051
-0.00923998
-0.0125603
-0.0158442
-0.0190944
-0.022313
-0.0255023
-0.0286643
-0.0318008
-0.0349138
-0.0380049
-0.0410758
-0.0441282
-0.0471635
-0.0501832
-0.0531886
-0.056181
-0.0591616
-0.0621315
-0.0650918
-0.0680433
-0.070987
-0.0739237
-0.0768541
-0.079779
-0.082699
-0.0856147
-0.0885267
-0.0914354
-0.0943414
-0.0972451
-0.100147
-0.103048
-0.105947
-0.108846
0.218024
0.212903
0.207832
0.202853
0.197992
0.193271
0.188709
0.184327
0.180129
0.176106
0.172252
0.16856
0.165017
0.161612
0.15834
0.15519
0.152158
0.149235
0.146412
0.143676
0.141013
0.138409
0.135858
0.133357
0.130913
0.128526
0.126193
0.123906
0.12165
0.119407
0.117167
0.114936
0.112723
0.110538
0.10839
0.106287
0.104239
0.102254
0.100337
0.0984902
0.0967178
0.0950203
0.0933955
0.0918415
0.0903545
0.0889288
0.0875555
0.0862252
0.0849316
0.0836654
0.0824221
0.0811928
0.0799652
0.0787274
0.0774604
0.0761593
0.074823
0.073437
0.071997
0.0704901
0.0689023
0.0672222
0.0654362
0.0635306
0.0614961
0.0593134
0.0569726
0.0544682
0.0517959
0.0489647
0.0459798
0.0428512
0.0395982
0.0362371
0.0327843
0.0292619
0.0256964
0.0221135
0.0185313
0.0149447
0.0113454
0.00775226
0.00422144
0.000743549
-0.0026868
-0.00607359
-0.00942013
-0.0127292
-0.0160032
-0.0192443
-0.0224547
-0.0256362
-0.0287907
-0.03192
-0.035026
-0.0381103
-0.0411746
-0.0442205
-0.0472495
-0.0502631
-0.0532626
-0.0562494
-0.0592246
-0.0621893
-0.0651446
-0.0680914
-0.0710306
-0.073963
-0.0768894
-0.0798105
-0.0827269
-0.0856391
-0.0885478
-0.0914534
-0.0943564
-0.0972573
-0.100156
-0.103054
-0.105951
-0.108847
0.218034
0.212935
0.20788
0.20291
0.198066
0.193369
0.188837
0.184476
0.180288
0.17627
0.172418
0.168724
0.165179
0.161775
0.158503
0.155355
0.152321
0.149393
0.14656
0.143808
0.141125
0.138497
0.135917
0.133381
0.130897
0.128467
0.126092
0.123764
0.121467
0.119178
0.116883
0.11459
0.11231
0.110054
0.107833
0.105659
0.10354
0.101487
0.0995037
0.097596
0.0957656
0.094013
0.0923369
0.0907365
0.0892076
0.0877458
0.0863419
0.0849875
0.083678
0.0824
0.0811466
0.0799108
0.0786788
0.0774363
0.0761676
0.0748643
0.0735251
0.072137
0.0706949
0.0691852
0.0675959
0.0659162
0.0641351
0.0622398
0.060222
0.0580635
0.0557514
0.0532841
0.0506577
0.0478798
0.0449558
0.0418972
0.0387198
0.0354362
0.0320611
0.0286112
0.0251073
0.021574
0.0180441
0.0145246
0.0109901
0.0074397
0.00394177
0.000489695
-0.00291995
-0.00628976
-0.00962203
-0.0129188
-0.016182
-0.0194133
-0.0226145
-0.0257874
-0.0289337
-0.032055
-0.0351532
-0.0382299
-0.0412867
-0.0443253
-0.0473472
-0.0503538
-0.0533467
-0.0563269
-0.0592959
-0.0622547
-0.0652043
-0.0681457
-0.0710799
-0.0740075
-0.0769293
-0.0798461
-0.0827583
-0.0856667
-0.0885717
-0.0914737
-0.0943734
-0.097271
-0.100167
-0.103062
-0.105956
-0.108849
0.218055
0.213001
0.207994
0.20306
0.198234
0.193553
0.189038
0.184693
0.180515
0.1765
0.172647
0.168949
0.165403
0.162
0.15873
0.15558
0.15254
0.1496
0.146748
0.143972
0.141262
0.138609
0.136003
0.133439
0.130918
0.128446
0.126027
0.123654
0.121312
0.118976
0.11663
0.114274
0.111925
0.109597
0.107306
0.105063
0.102877
0.100758
0.0987104
0.09674
0.0948493
0.0930396
0.09131
0.0896594
0.0880833
0.0865774
0.0851338
0.0837441
0.0824056
0.0811074
0.0798397
0.0785938
0.0773552
0.0761056
0.0748306
0.0735207
0.0721765
0.070785
0.0693405
0.0678289
0.0662385
0.0645604
0.0627829
0.0608937
0.0588835
0.0567457
0.0544671
0.0520415
0.0494643
0.0467424
0.0438845
0.0409001
0.0377989
0.0345934
0.0312986
0.0279294
0.0244999
0.0210276
0.017542
0.0140697
0.0105986
0.00709832
0.00363684
0.000212619
-0.00317498
-0.00652684
-0.00984409
-0.0131279
-0.0163796
-0.0196006
-0.0227921
-0.0259557
-0.029093
-0.0322056
-0.0352951
-0.0383633
-0.0414118
-0.0444423
-0.0474562
-0.050455
-0.0534403
-0.0564134
-0.0593754
-0.0623275
-0.0652707
-0.0682062
-0.0711346
-0.0740568
-0.0769735
-0.0798854
-0.0827931
-0.0856972
-0.088598
-0.0914962
-0.0943921
-0.0972861
-0.100179
-0.10307
-0.10596
-0.108851
0.218079
0.213069
0.208106
0.203218
0.198436
0.193792
0.189306
0.184979
0.180812
0.176804
0.172955
0.16926
0.165719
0.162319
0.159047
0.155889
0.152835
0.149874
0.146993
0.144184
0.141442
0.138762
0.136132
0.133545
0.130995
0.128485
0.126018
0.123591
0.12119
0.118801
0.116403
0.113987
0.111573
0.10918
0.106823
0.104514
0.102264
0.100082
0.0979705
0.0959379
0.0939873
0.0921191
0.0903323
0.0886257
0.0869967
0.0854425
0.083956
0.0825299
0.0811573
0.0798264
0.0785293
0.0772616
0.0760079
0.0747479
0.073466
0.072148
0.0707952
0.0693975
0.067949
0.0664343
0.0648425
0.0631669
0.0613961
0.0595213
0.0575256
0.0554031
0.0531485
0.0507596
0.0482325
0.0455715
0.042782
0.039871
0.0368489
0.0337264
0.0305128
0.0272207
0.0238631
0.0204528
0.0170182
0.0135979
0.0101899
0.00673914
0.00331315
-8.35279e-05
-0.00344909
-0.00678289
-0.0100849
-0.0133556
-0.0165955
-0.0198056
-0.0229869
-0.0261407
-0.0292683
-0.0323715
-0.0354516
-0.0385105
-0.0415498
-0.0445712
-0.0475762
-0.0505665
-0.0535434
-0.0565084
-0.0594626
-0.0624074
-0.0653436
-0.0682723
-0.0711944
-0.0741107
-0.0770218
-0.0799284
-0.0828311
-0.0857304
-0.0886268
-0.0915207
-0.0944125
-0.0973026
-0.100191
-0.103079
-0.105966
-0.108852
0.218105
0.213146
0.20823
0.203393
0.198667
0.194076
0.18963
0.185333
0.181186
0.177194
0.173358
0.169676
0.166143
0.162743
0.159463
0.15629
0.153216
0.150229
0.147317
0.144472
0.141694
0.138981
0.136325
0.133717
0.131143
0.128595
0.126071
0.123578
0.121113
0.118665
0.116211
0.113738
0.111268
0.108816
0.106399
0.10403
0.101719
0.0994765
0.0973061
0.095213
0.0932015
0.0912728
0.0894271
0.0876642
0.0859808
0.0843739
0.0828357
0.0813615
0.079945
0.0785763
0.077243
0.0759423
0.0746582
0.0733767
0.0720822
0.0707555
0.0693916
0.0679844
0.0665307
0.0650138
0.0634203
0.0617451
0.0599782
0.0581145
0.0561374
0.0540407
0.0518168
0.0494671
0.0469892
0.0443843
0.0416593
0.0388229
0.0358815
0.032842
0.0297127
0.0265057
0.0232337
0.0199099
0.0165519
0.0131768
0.00979609
0.0063716
0.00297517
-0.000395855
-0.00374029
-0.00705655
-0.0103436
-0.0136012
-0.0168292
-0.0200282
-0.0231988
-0.0263423
-0.0294597
-0.0325526
-0.0356225
-0.0386713
-0.0417005
-0.0447119
-0.0477072
-0.0506879
-0.0536556
-0.0566117
-0.0595574
-0.062494
-0.0654225
-0.068344
-0.0712592
-0.0741689
-0.0770739
-0.0799748
-0.082872
-0.0857662
-0.0886577
-0.091547
-0.0944344
-0.0973202
-0.100205
-0.103089
-0.105972
-0.108854
0.218135
0.21324
0.208393
0.203628
0.198971
0.194437
0.190035
0.185772
0.181654
0.177688
0.173872
0.170204
0.166675
0.163271
0.15998
0.15679
0.153694
0.150679
0.147734
0.144852
0.142035
0.139285
0.1366
0.133964
0.13136
0.12877
0.12619
0.123631
0.121099
0.118589
0.11608
0.113555
0.111029
0.108521
0.106048
0.103623
0.101256
0.0989587
0.096732
0.0945789
0.0925071
0.0905172
0.0886099
0.0867855
0.0850417
0.0833752
0.0817789
0.0802494
0.0787809
0.0773644
0.0759867
0.0746452
0.0733227
0.0720082
0.0706885
0.0693474
0.0679726
0.0665543
0.0650894
0.0635669
0.0619717
0.0603007
0.0585461
0.0566989
0.0547438
0.0526755
0.0504839
0.0481712
0.0457401
0.0431918
0.040531
0.037765
0.0349003
0.0319446
0.0289051
0.025791
0.0226085
0.0193668
0.0160796
0.0127525
0.00939785
0.00598437
0.00262123
-0.00072378
-0.00404792
-0.00734741
-0.01062
-0.0138646
-0.0170808
-0.0202684
-0.0234281
-0.0265606
-0.0296671
-0.0327489
-0.0358078
-0.0388455
-0.0418636
-0.0448641
-0.0478486
-0.0508189
-0.0537765
-0.0567228
-0.0596593
-0.062587
-0.0655072
-0.0684207
-0.0713284
-0.0742311
-0.0771295
-0.0800242
-0.0829156
-0.0858043
-0.0886906
-0.0915749
-0.0944576
-0.097339
-0.100219
-0.103099
-0.105978
-0.108856
0.218175
0.213363
0.208603
0.203922
0.199339
0.194868
0.19052
0.186302
0.182223
0.178289
0.174497
0.170842
0.167316
0.163907
0.160604
0.157397
0.154279
0.151237
0.148259
0.14534
0.142484
0.139695
0.136972
0.134299
0.131651
0.129008
0.126369
0.123746
0.121148
0.118573
0.116006
0.113434
0.110859
0.1083
0.105777
0.103303
0.100886
0.098538
0.0962572
0.094047
0.0919139
0.08986
0.0878866
0.0859949
0.084183
0.0824482
0.0807868
0.0791953
0.0776678
0.0761951
0.0747664
0.0733775
0.0720108
0.0706578
0.0693032
0.0679334
0.0665372
0.0651052
0.0636303
0.0621025
0.0605052
0.0588378
0.057093
0.0552605
0.0533275
0.0512908
0.0491385
0.0468699
0.0444865
0.0419928
0.039394
0.0366962
0.0339072
0.0310338
0.0280799
0.0250525
0.0219544
0.0187909
0.0155716
0.0122957
0.00897616
0.0053163
0.00224935
-0.00106719
-0.00437238
-0.00765616
-0.0109149
-0.0141467
-0.0173509
-0.020527
-0.0236751
-0.0267961
-0.0298908
-0.0329608
-0.0360076
-0.0390331
-0.0420391
-0.0450276
-0.0480004
-0.0509592
-0.0539058
-0.0568415
-0.0597678
-0.062686
-0.0655971
-0.068502
-0.0714017
-0.0742969
-0.0771883
-0.0800763
-0.0829615
-0.0858444
-0.0887252
-0.0916043
-0.0944821
-0.0973587
-0.100234
-0.103109
-0.105984
-0.108858
0.218223
0.213508
0.208849
0.204264
0.199766
0.195369
0.191088
0.186929
0.182899
0.179003
0.175239
0.171598
0.168074
0.164659
0.161344
0.158122
0.154986
0.151921
0.148916
0.145963
0.143066
0.140234
0.137465
0.134738
0.132026
0.129312
0.126605
0.12392
0.121262
0.118628
0.116006
0.113384
0.110762
0.108158
0.105592
0.103079
0.10062
0.0982227
0.0958909
0.0936248
0.0914276
0.0893056
0.0872606
0.0852943
0.0834065
0.0815959
0.0798605
0.0781972
0.0766011
0.0750638
0.0735743
0.072128
0.0707079
0.0693094
0.0679158
0.0665133
0.0650901
0.063637
0.0621468
0.0606094
0.0590086
0.0573436
0.0556075
0.0537923
0.0518807
0.0498721
0.0477593
0.0455397
0.0432132
0.0407797
0.0382438
0.0356134
0.0328958
0.0300986
0.0272244
0.0242771
0.0212594
0.0181747
0.0150285
0.0118253
0.00857601
0.00523098
0.00189007
-0.00142344
-0.00471541
-0.00798482
-0.0112299
-0.014449
-0.0176409
-0.0208049
-0.023941
-0.0270495
-0.0301315
-0.0331884
-0.036222
-0.0392341
-0.0422269
-0.0452022
-0.0481621
-0.0511084
-0.0540429
-0.0569672
-0.0598826
-0.0627904
-0.0656917
-0.0685876
-0.0714787
-0.0743659
-0.0772498
-0.0801308
-0.0830095
-0.0858862
-0.0887612
-0.0916349
-0.0945075
-0.0973792
-0.10025
-0.103121
-0.105991
-0.108861
0.218287
0.213694
0.209146
0.204664
0.200262
0.195955
0.191751
0.18766
0.183688
0.179837
0.176103
0.172478
0.168959
0.165539
0.162217
0.158985
0.155838
0.152761
0.149734
0.146748
0.143808
0.14093
0.13811
0.135316
0.132523
0.129723
0.126937
0.124183
0.121463
0.11877
0.116089
0.113417
0.110752
0.108106
0.105502
0.102952
0.100455
0.098013
0.0956305
0.093307
0.0910456
0.0888523
0.0867295
0.0846802
0.0827065
0.0808095
0.0789888
0.077243
0.0755681
0.0739561
0.0723959
0.0708829
0.0694021
0.0679499
0.0665099
0.0650676
0.0636116
0.0621325
0.0606229
0.0590716
0.0574662
0.0558052
0.0540755
0.0522779
0.0503929
0.0484166
0.0463436
0.0441704
0.0418971
0.0395258
0.0370581
0.0344981
0.0318506
0.0291211
0.0263154
0.023441
0.0205034
0.0175017
0.0144326
0.0112979
0.00810775
0.00481778
0.00148923
-0.00180852
-0.00508368
-0.0083373
-0.011568
-0.0147737
-0.0179528
-0.021104
-0.0242269
-0.0273219
-0.0303899
-0.0334324
-0.0364514
-0.0394487
-0.0424268
-0.0453876
-0.0483334
-0.0512661
-0.0541875
-0.0570993
-0.0600029
-0.0628996
-0.0657906
-0.0686767
-0.0715588
-0.0744375
-0.0773135
-0.0801873
-0.0830591
-0.0859294
-0.0887985
-0.0916665
-0.0945337
-0.0974003
-0.100266
-0.103132
-0.105998
-0.108863
0.218355
0.213897
0.209476
0.205112
0.200819
0.196609
0.192494
0.188483
0.184577
0.180775
0.177076
0.173475
0.169974
0.166565
0.16325
0.160019
0.156876
0.153794
0.150751
0.147732
0.14475
0.141826
0.138952
0.136084
0.133198
0.130292
0.127409
0.124571
0.121775
0.119013
0.11627
0.113546
0.110838
0.108158
0.105518
0.102929
0.100394
0.0979098
0.0954753
0.093092
0.0907613
0.0884885
0.0862785
0.0841376
0.0820692
0.0800755
0.0781574
0.0763167
0.0745512
0.072853
0.0712115
0.0696212
0.06807
0.066554
0.0650589
0.063569
0.062074
0.0605632
0.0590322
0.057466
0.0558541
0.0541959
0.0524728
0.0506941
0.0488347
0.0468941
0.0448633
0.0427404
0.0405242
0.0382153
0.0358134
0.033321
0.0307411
0.0280782
0.0253402
0.0225353
0.0196659
0.016734
0.0137387
0.0106714
0.00754278
0.00432131
0.00103695
-0.0022307
-0.00548283
-0.00871782
-0.0119326
-0.015124
-0.0182893
-0.0214265
-0.024535
-0.0276149
-0.0306672
-0.0336936
-0.0366961
-0.039677
-0.0426387
-0.0455835
-0.0485138
-0.0514316
-0.0543388
-0.0572372
-0.0601282
-0.0630131
-0.065893
-0.0687689
-0.0716414
-0.0745113
-0.0773791
-0.0802452
-0.08311
-0.0859737
-0.0888366
-0.0916988
-0.0945605
-0.0974219
-0.100283
-0.103144
-0.106005
-0.108865
0.21843
0.214119
0.209837
0.205599
0.201422
0.197321
0.193307
0.189382
0.185548
0.181804
0.178156
0.174601
0.17114
0.167768
0.164482
0.161272
0.158145
0.155064
0.152009
0.148967
0.145952
0.142985
0.14005
0.137092
0.134092
0.131054
0.128047
0.125105
0.122217
0.119371
0.116547
0.113757
0.111004
0.108293
0.105626
0.103009
0.10044
0.0979144
0.0954265
0.0929765
0.0905676
0.088204
0.0858947
0.0836501
0.0814759
0.0793748
0.0773474
0.0753975
0.0735263
0.0717279
0.0699915
0.0683119
0.0666793
0.0650882
0.063527
0.061981
0.0604398
0.0588899
0.0573323
0.0557478
0.0541279
0.0524714
0.0507552
0.0489948
0.0471619
0.0452583
0.0432742
0.0412067
0.0390524
0.0368106
0.0344781
0.0320554
0.0295459
0.0269522
0.0242788
0.0215328
0.0187183
0.015846
0.0129286
0.0099518
0.0069076
0.00376704
0.00053723
-0.00269209
-0.00591641
-0.00913023
-0.0123277
-0.0155035
-0.0186536
-0.0217753
-0.0248675
-0.0279303
-0.0309647
-0.0339728
-0.0369567
-0.039919
-0.0428625
-0.0457896
-0.0487028
-0.0516043
-0.0544962
-0.0573801
-0.0602576
-0.06313
-0.0659983
-0.0688633
-0.0717259
-0.0745866
-0.0774459
-0.0803042
-0.0831617
-0.0860186
-0.0888752
-0.0917315
-0.0945876
-0.0974437
-0.1003
-0.103156
-0.106012
-0.108868
0.218507
0.214349
0.210215
0.206118
0.202073
0.198094
0.194189
0.190361
0.186612
0.182948
0.179374
0.175892
0.172501
0.169196
0.165966
0.162799
0.159708
0.156641
0.153583
0.150525
0.147477
0.144459
0.141445
0.138371
0.135224
0.132019
0.128863
0.125801
0.122811
0.119874
0.11697
0.114108
0.11129
0.108529
0.105826
0.103174
0.100565
0.0979926
0.0954517
0.0929367
0.0904455
0.0879837
0.0855633
0.083199
0.0809031
0.0786795
0.0765289
0.0744553
0.0724625
0.0705482
0.0687018
0.0669182
0.0651904
0.0635122
0.0618726
0.0602608
0.0586645
0.0570692
0.0554766
0.0538688
0.052237
0.050577
0.0488693
0.0471282
0.0453269
0.043464
0.0415279
0.0395206
0.0374334
0.0352641
0.0330073
0.0306599
0.0282232
0.0257043
0.0231075
0.0204366
0.0176955
0.0148968
0.0120614
0.00918032
0.00622409
0.00316545
-6.00911e-06
-0.00319287
-0.00638688
-0.0095782
-0.0127573
-0.0159164
-0.0190497
-0.0221538
-0.0252273
-0.0282702
-0.031284
-0.0342708
-0.0372335
-0.0401748
-0.0430978
-0.0460052
-0.0488996
-0.0517834
-0.0546587
-0.0575272
-0.0603903
-0.0632494
-0.0661055
-0.0689593
-0.0718116
-0.0746628
-0.0775134
-0.0803636
-0.0832137
-0.0860638
-0.0889139
-0.0917643
-0.0946148
-0.0974655
-0.100316
-0.103167
-0.106019
-0.10887
0.218586
0.214587
0.21061
0.206667
0.202769
0.198929
0.195152
0.191442
0.187804
0.184246
0.180778
0.1774
0.174111
0.170902
0.167756
0.164659
0.16162
0.158575
0.155517
0.152441
0.149352
0.146258
0.143141
0.139932
0.136612
0.133213
0.129888
0.126698
0.123601
0.120562
0.117557
0.114601
0.111708
0.10889
0.106137
0.103439
0.100782
0.0981528
0.0955442
0.092951
0.0903701
0.0878031
0.0852619
0.0827639
0.0803263
0.0779597
0.0756672
0.0734546
0.0713247
0.0692782
0.0673041
0.0653977
0.0635565
0.0617764
0.0600455
0.0583563
0.056693
0.0550465
0.0534091
0.0517703
0.0501244
0.0484581
0.046757
0.0450353
0.0432652
0.0414496
0.0395625
0.0376209
0.0356086
0.03352
0.0313491
0.0290933
0.0267496
0.0243229
0.0218173
0.0192382
0.0165899
0.0138816
0.011128
0.00833656
0.00547889
0.00251582
-0.00059027
-0.00373244
-0.00689618
-0.0100656
-0.0132265
-0.016368
-0.0194826
-0.0225663
-0.0256176
-0.0286371
-0.0316265
-0.0345887
-0.0375268
-0.0404442
-0.0433441
-0.0462295
-0.0491033
-0.0519679
-0.0548253
-0.0576772
-0.0605252
-0.0633704
-0.0662137
-0.0690559
-0.0718976
-0.0747391
-0.0775808
-0.0804229
-0.0832655
-0.0861087
-0.0889524
-0.0917968
-0.0946417
-0.0974871
-0.100333
-0.103179
-0.106026
-0.108872
0.218672
0.214843
0.211036
0.207262
0.20353
0.199849
0.196226
0.192662
0.189165
0.185749
0.182422
0.179182
0.176026
0.172942
0.16991
0.166906
0.163928
0.160916
0.157858
0.154753
0.151594
0.148388
0.145142
0.141782
0.138273
0.13466
0.131155
0.12783
0.124614
0.12146
0.11834
0.115257
0.112266
0.109376
0.106564
0.103809
0.101089
0.0983892
0.0957008
0.0930138
0.0903238
0.087637
0.0849631
0.0823174
0.0797212
0.0771921
0.0747381
0.0723668
0.070077
0.0678731
0.0657491
0.0637003
0.0617277
0.059831
0.057996
0.0562131
0.0544686
0.0527598
0.0510683
0.0493881
0.0477202
0.046044
0.0443501
0.0426488
0.0409091
0.0391474
0.0373146
0.0354426
0.033514
0.031518
0.0294472
0.0272976
0.0250659
0.0227548
0.0203682
0.0179092
0.0153796
0.0127891
0.0101505
0.00746637
0.00470535
0.00183242
-0.0012082
-0.0043079
-0.00744576
-0.0105971
-0.0137414
-0.0168647
-0.0199581
-0.0230176
-0.0260423
-0.0290335
-0.031994
-0.0349271
-0.0378367
-0.0407266
-0.0436005
-0.0464616
-0.0493127
-0.0521563
-0.0549945
-0.057829
-0.060661
-0.0634918
-0.066322
-0.0691523
-0.0719831
-0.0748148
-0.0776476
-0.0804815
-0.0833166
-0.0861529
-0.0889903
-0.0918288
-0.0946682
-0.0975084
-0.100349
-0.103191
-0.106032
-0.108874
0.218766
0.215126
0.211509
0.207923
0.204377
0.200878
0.197432
0.194041
0.190721
0.187487
0.184339
0.181275
0.178287
0.175357
0.172463
0.169564
0.166651
0.16367
0.160605
0.157451
0.154196
0.150852
0.147447
0.143918
0.140201
0.13636
0.132661
0.129183
0.12584
0.122566
0.119323
0.116094
0.112987
0.110003
0.10711
0.104275
0.10147
0.0986772
0.0958861
0.0930873
0.0902752
0.0874534
0.0846321
0.0818253
0.0790546
0.076344
0.0737055
0.0711528
0.0686844
0.0663004
0.063995
0.0617751
0.0596501
0.0576214
0.0556675
0.0537765
0.0519361
0.0501483
0.0483928
0.0466621
0.0449613
0.0432688
0.041583
0.039903
0.0381935
0.0364856
0.0347163
0.0329223
0.0310899
0.0292014
0.0272489
0.025224
0.0231228
0.0209478
0.0187043
0.0163939
0.0140147
0.0115701
0.00906583
0.00650639
0.00386954
0.00111264
-0.00184911
-0.00491342
-0.00803716
-0.0111789
-0.0143103
-0.0174146
-0.0204833
-0.0235134
-0.0265054
-0.0294621
-0.0323875
-0.0352862
-0.0381626
-0.0410211
-0.0438657
-0.0466997
-0.049526
-0.0523471
-0.0551649
-0.0579809
-0.0607964
-0.0636122
-0.066429
-0.0692472
-0.0720671
-0.074889
-0.0777128
-0.0805387
-0.0833664
-0.0861959
-0.0890271
-0.0918598
-0.0946938
-0.0975289
-0.100365
-0.103202
-0.106039
-0.108877
0.218872
0.215445
0.212041
0.208669
0.205335
0.202047
0.198808
0.195628
0.192525
0.189506
0.186568
0.183708
0.180914
0.178167
0.175434
0.172658
0.169808
0.166848
0.163758
0.160534
0.157161
0.153648
0.150054
0.146335
0.142398
0.138326
0.134437
0.130806
0.127337
0.123938
0.120537
0.117124
0.113877
0.110778
0.107778
0.104834
0.101914
0.0989982
0.0960739
0.0931342
0.0901804
0.0872127
0.0842343
0.0812552
0.0782955
0.0753835
0.0725344
0.0697671
0.0670838
0.0644922
0.0619859
0.0595764
0.0572766
0.0550999
0.0530128
0.0510032
0.0490514
0.0471657
0.0453317
0.0435389
0.0417941
0.0400821
0.0384038
0.0367492
0.0350775
0.0334211
0.0317208
0.0300135
0.0282921
0.0265293
0.024715
0.0228393
0.0208932
0.018878
0.0167991
0.0146574
0.0124573
0.0102021
0.00788749
0.00549502
0.00300286
0.00038104
-0.00247987
-0.00553696
-0.00867401
-0.0118215
-0.014945
-0.0180288
-0.021067
-0.0240598
-0.0270107
-0.0299249
-0.0328079
-0.0356656
-0.0385034
-0.041326
-0.0441376
-0.0469417
-0.0497412
-0.0525382
-0.0553345
-0.0581313
-0.0609297
-0.0637303
-0.0665335
-0.0693396
-0.0721487
-0.0749608
-0.0777759
-0.0805938
-0.0834143
-0.0862373
-0.0890624
-0.0918896
-0.0947184
-0.0975486
-0.10038
-0.103212
-0.106045
-0.108879
0.218993
0.215809
0.212651
0.209525
0.206437
0.203393
0.200399
0.197466
0.194607
0.191828
0.189123
0.186489
0.183906
0.181362
0.178803
0.176165
0.173385
0.170442
0.167311
0.163992
0.160463
0.156748
0.152941
0.149017
0.144849
0.140557
0.136496
0.132704
0.129089
0.125542
0.121953
0.11835
0.114949
0.111708
0.108567
0.105477
0.10241
0.0993358
0.096238
0.0931224
0.0899984
0.0868696
0.083732
0.0805788
0.0774211
0.0742927
0.0712159
0.0682127
0.0652933
0.0624646
0.0597197
0.0570902
0.0545921
0.0522478
0.0500109
0.0478679
0.0457853
0.0437808
0.0418526
0.0399872
0.0381953
0.036466
0.0348014
0.0331785
0.0315589
0.0299529
0.0283266
0.02671
0.025114
0.0234955
0.0218424
0.0201378
0.0183683
0.0165325
0.0146327
0.0126718
0.0106677
0.0086295
0.0065464
0.0043784
0.00208973
-0.00033654
-0.00301226
-0.00616469
-0.00937062
-0.0125444
-0.0156634
-0.0187212
-0.0217191
-0.0246634
-0.0275619
-0.0304231
-0.0332548
-0.0360639
-0.0388568
-0.0416386
-0.0444135
-0.047185
-0.0499555
-0.0527271
-0.0555009
-0.0582781
-0.0610591
-0.0638443
-0.066634
-0.0694281
-0.0722266
-0.0750292
-0.0778358
-0.0806461
-0.0834597
-0.0862764
-0.0890958
-0.0919177
-0.0947415
-0.0975672
-0.100394
-0.103222
-0.106051
-0.108881
0.219133
0.21623
0.213351
0.210506
0.207699
0.204933
0.202216
0.199558
0.196968
0.19445
0.191998
0.189603
0.187239
0.184906
0.182532
0.180042
0.177336
0.174404
0.171223
0.16778
0.164061
0.160119
0.156088
0.151945
0.147548
0.14307
0.138841
0.134861
0.131058
0.127324
0.123515
0.119736
0.116165
0.112765
0.109449
0.106176
0.102954
0.0996888
0.096362
0.0930212
0.0896898
0.086372
0.0830575
0.0797175
0.0763526
0.0729879
0.0696613
0.0664039
0.0632436
0.0601668
0.0571686
0.0543185
0.051616
0.0490957
0.0466962
0.0443963
0.0421644
0.0400127
0.0379726
0.0360198
0.034191
0.0324553
0.0308329
0.0292585
0.0277156
0.0261493
0.0246074
0.0230798
0.0216361
0.0201642
0.0186968
0.0171643
0.0155831
0.0139416
0.0122256
0.0104458
0.00863537
0.00681977
0.00500447
0.00312033
0.0010973
-0.00105479
-0.00237232
-0.00682267