0.010101 	5.94697e-09 	1.0796e-13 	2.08041e-11
0.020202 	6.06379e-10 	-1.45566e-13 	9.48671e-12
