/*--------------------------------*- C++ -*----------------------------------*\
  =========                 |
  \\      /  F ield         | OpenFOAM: The Open Source CFD Toolbox
   \\    /   O peration     | Website:  https://openfoam.org
    \\  /    A nd           | Version:  6
     \\/     M anipulation  |
\*---------------------------------------------------------------------------*/
FoamFile
{
    version     2.0;
    format      ascii;
    class       volScalarField;
    location    "4450";
    object      T;
}
// * * * * * * * * * * * * * * * * * * * * * * * * * * * * * * * * * * * * * //

dimensions      [0 0 0 1 0 0 0];

internalField   nonuniform List<scalar> 
4800
(
552.455
552.264
552.073
551.882
551.691
551.5
551.31
551.123
550.94
550.76
550.585
550.415
550.252
550.094
549.943
549.8
549.663
549.535
549.413
549.3
549.194
549.096
549.006
548.923
548.846
548.774
548.705
548.64
548.577
548.516
548.455
548.396
548.336
548.276
548.216
548.155
548.094
548.032
547.968
547.903
547.836
547.766
547.694
547.618
547.538
547.455
547.368
547.279
547.187
547.093
546.998
546.902
546.806
546.711
546.617
546.524
546.433
546.343
546.255
546.169
546.085
546.003
545.923
545.844
545.768
545.693
545.62
545.549
545.477
545.406
545.335
545.264
545.191
545.116
545.038
544.956
544.871
544.781
544.687
544.589
544.488
544.386
544.286
544.186
544.086
543.986
543.886
543.787
543.687
543.587
543.487
543.387
543.287
543.186
543.086
542.986
542.886
542.785
542.685
542.585
542.485
542.385
542.285
542.186
542.086
541.986
541.887
541.788
541.688
541.589
541.49
541.391
541.292
541.193
541.094
540.995
540.896
540.797
540.698
540.599
552.454
552.261
552.068
551.875
551.682
551.491
551.301
551.113
550.929
550.75
550.575
550.405
550.242
550.084
549.934
549.791
549.656
549.528
549.408
549.296
549.192
549.096
549.008
548.926
548.85
548.778
548.711
548.646
548.583
548.522
548.463
548.403
548.344
548.284
548.225
548.164
548.104
548.042
547.979
547.915
547.849
547.78
547.708
547.632
547.553
547.469
547.382
547.292
547.199
547.105
547.009
546.913
546.817
546.722
546.627
546.534
546.442
546.352
546.264
546.177
546.092
546.01
545.929
545.85
545.773
545.697
545.623
545.549
545.477
545.405
545.333
545.26
545.187
545.111
545.033
544.951
544.866
544.777
544.683
544.586
544.486
544.385
544.285
544.185
544.086
543.986
543.886
543.787
543.687
543.587
543.487
543.387
543.287
543.186
543.086
542.986
542.886
542.785
542.685
542.585
542.485
542.385
542.285
542.186
542.086
541.986
541.887
541.787
541.688
541.589
541.49
541.391
541.292
541.193
541.094
540.995
540.896
540.797
540.698
540.599
552.452
552.255
552.058
551.862
551.667
551.474
551.283
551.095
550.911
550.731
550.557
550.388
550.225
550.069
549.92
549.779
549.645
549.52
549.402
549.293
549.193
549.099
549.013
548.934
548.859
548.789
548.723
548.659
548.598
548.538
548.479
548.42
548.362
548.303
548.244
548.185
548.125
548.065
548.004
547.941
547.877
547.809
547.738
547.662
547.583
547.499
547.411
547.32
547.226
547.13
547.034
546.937
546.84
546.744
546.648
546.554
546.462
546.371
546.281
546.194
546.108
546.025
545.943
545.863
545.784
545.707
545.63
545.555
545.48
545.405
545.331
545.256
545.181
545.104
545.025
544.944
544.859
544.77
544.677
544.581
544.482
544.383
544.284
544.185
544.085
543.986
543.887
543.787
543.687
543.587
543.487
543.387
543.287
543.186
543.086
542.986
542.885
542.785
542.685
542.585
542.485
542.385
542.285
542.185
542.086
541.986
541.887
541.787
541.688
541.589
541.49
541.391
541.292
541.193
541.094
540.995
540.896
540.797
540.698
540.599
552.449
552.247
552.046
551.846
551.648
551.452
551.26
551.071
550.887
550.708
550.534
550.367
550.206
550.052
549.905
549.766
549.635
549.513
549.399
549.294
549.197
549.107
549.024
548.947
548.875
548.807
548.743
548.682
548.622
548.563
548.506
548.448
548.391
548.333
548.276
548.218
548.161
548.102
548.044
547.983
547.919
547.853
547.782
547.707
547.628
547.543
547.454
547.361
547.265
547.168
547.07
546.972
546.874
546.777
546.68
546.585
546.491
546.399
546.308
546.22
546.133
546.048
545.965
545.883
545.802
545.722
545.643
545.565
545.487
545.409
545.332
545.254
545.176
545.097
545.017
544.935
544.851
544.762
544.671
544.576
544.479
544.381
544.283
544.184
544.085
543.986
543.887
543.787
543.687
543.587
543.487
543.387
543.287
543.186
543.086
542.986
542.885
542.785
542.685
542.585
542.485
542.385
542.285
542.185
542.086
541.986
541.886
541.787
541.688
541.589
541.489
541.39
541.291
541.192
541.094
540.995
540.896
540.797
540.698
540.599
552.446
552.238
552.032
551.828
551.626
551.428
551.234
551.045
550.861
550.683
550.511
550.346
550.187
550.035
549.891
549.755
549.628
549.51
549.401
549.3
549.207
549.121
549.041
548.968
548.899
548.834
548.773
548.713
548.656
548.599
548.543
548.487
548.431
548.375
548.32
548.264
548.209
548.153
548.096
548.037
547.976
547.91
547.841
547.766
547.686
547.6
547.509
547.414
547.317
547.218
547.118
547.018
546.918
546.819
546.721
546.624
546.529
546.435
546.344
546.254
546.166
546.079
545.994
545.91
545.827
545.744
545.662
545.58
545.499
545.417
545.336
545.255
545.174
545.092
545.01
544.927
544.842
544.755
544.664
544.571
544.476
544.379
544.282
544.184
544.085
543.986
543.887
543.788
543.688
543.588
543.487
543.387
543.287
543.186
543.086
542.985
542.885
542.785
542.685
542.584
542.484
542.384
542.285
542.185
542.085
541.986
541.886
541.787
541.688
541.588
541.489
541.39
541.291
541.192
541.093
540.995
540.896
540.797
540.698
540.599
552.443
552.229
552.017
551.808
551.603
551.402
551.207
551.017
550.834
550.658
550.489
550.327
550.172
550.023
549.883
549.751
549.627
549.513
549.408
549.312
549.223
549.142
549.066
548.996
548.931
548.87
548.811
548.755
548.7
548.645
548.591
548.537
548.482
548.428
548.375
548.322
548.268
548.215
548.161
548.104
548.044
547.979
547.91
547.835
547.754
547.667
547.574
547.477
547.377
547.276
547.174
547.072
546.97
546.869
546.769
546.671
546.574
546.479
546.386
546.295
546.205
546.117
546.03
545.943
545.858
545.772
545.687
545.602
545.517
545.431
545.346
545.26
545.175
545.091
545.006
544.921
544.835
544.748
544.658
544.566
544.472
544.377
544.281
544.184
544.086
543.987
543.888
543.788
543.688
543.588
543.488
543.387
543.287
543.186
543.086
542.985
542.885
542.784
542.684
542.584
542.484
542.384
542.284
542.184
542.085
541.985
541.886
541.786
541.687
541.588
541.489
541.39
541.291
541.192
541.093
540.994
540.896
540.797
540.698
540.599
552.44
552.22
552.002
551.788
551.579
551.376
551.18
550.992
550.811
550.638
550.472
550.313
550.161
550.016
549.88
549.752
549.633
549.524
549.423
549.331
549.247
549.17
549.099
549.034
548.973
548.915
548.859
548.806
548.753
548.7
548.648
548.596
548.543
548.491
548.44
548.39
548.339
548.289
548.237
548.182
548.122
548.058
547.988
547.912
547.83
547.742
547.646
547.546
547.444
547.34
547.236
547.132
547.028
546.925
546.824
546.723
546.625
546.528
546.434
546.341
546.249
546.159
546.07
545.982
545.894
545.807
545.718
545.63
545.54
545.451
545.361
545.271
545.182
545.093
545.005
544.918
544.831
544.743
544.654
544.563
544.471
544.377
544.281
544.185
544.087
543.988
543.889
543.789
543.689
543.589
543.488
543.388
543.287
543.186
543.086
542.985
542.884
542.784
542.684
542.583
542.483
542.383
542.284
542.184
542.084
541.985
541.885
541.786
541.687
541.588
541.489
541.39
541.291
541.192
541.093
540.994
540.895
540.797
540.698
540.599
552.437
552.212
551.989
551.77
551.558
551.354
551.158
550.971
550.792
550.621
550.458
550.303
550.155
550.014
549.882
549.759
549.645
549.54
549.445
549.358
549.279
549.207
549.14
549.079
549.022
548.968
548.916
548.865
548.814
548.764
548.714
548.664
548.613
548.564
548.515
548.467
548.42
548.372
548.322
548.268
548.209
548.145
548.074
547.996
547.912
547.82
547.722
547.619
547.515
547.41
547.304
547.198
547.092
546.986
546.882
546.78
546.68
546.581
546.485
546.39
546.297
546.206
546.115
546.025
545.936
545.845
545.754
545.662
545.569
545.476
545.382
545.288
545.194
545.102
545.01
544.92
544.831
544.742
544.653
544.563
544.471
544.378
544.283
544.186
544.088
543.99
543.89
543.79
543.69
543.589
543.489
543.388
543.287
543.186
543.085
542.985
542.884
542.783
542.683
542.583
542.483
542.383
542.283
542.183
542.084
541.984
541.885
541.786
541.686
541.587
541.488
541.389
541.29
541.192
541.093
540.994
540.895
540.797
540.698
540.599
552.435
552.204
551.976
551.754
551.54
551.335
551.14
550.955
550.778
550.61
550.45
550.298
550.154
550.018
549.89
549.772
549.664
549.564
549.474
549.393
549.319
549.252
549.19
549.133
549.08
549.029
548.979
548.931
548.884
548.836
548.788
548.74
548.692
548.645
548.599
548.554
548.509
548.463
548.415
548.362
548.303
548.238
548.165
548.085
547.997
547.902
547.801
547.697
547.591
547.484
547.376
547.267
547.158
547.051
546.945
546.84
546.738
546.637
546.539
546.443
546.348
546.255
546.163
546.072
545.98
545.887
545.794
545.7
545.604
545.507
545.409
545.311
545.213
545.117
545.021
544.928
544.835
544.744
544.654
544.564
544.473
544.38
544.286
544.189
544.091
543.992
543.892
543.792
543.691
543.59
543.489
543.388
543.287
543.186
543.085
542.984
542.883
542.783
542.682
542.582
542.482
542.382
542.282
542.182
542.083
541.983
541.884
541.785
541.686
541.587
541.488
541.389
541.29
541.191
541.093
540.994
540.895
540.797
540.698
540.599
552.433
552.2
551.97
551.745
551.53
551.324
551.129
550.944
550.769
550.603
550.446
550.298
550.158
550.028
549.906
549.793
549.69
549.597
549.512
549.436
549.367
549.305
549.247
549.194
549.145
549.097
549.051
549.005
548.96
548.915
548.869
548.824
548.778
548.733
548.69
548.648
548.605
548.56
548.513
548.46
548.401
548.334
548.259
548.175
548.084
547.987
547.883
547.776
547.668
547.559
547.448
547.337
547.227
547.117
547.008
546.902
546.797
546.695
546.595
546.498
546.402
546.307
546.213
546.12
546.027
545.933
545.837
545.74
545.642
545.542
545.442
545.34
545.238
545.138
545.039
544.942
544.847
544.753
544.662
544.57
544.478
544.385
544.29
544.193
544.094
543.995
543.894
543.794
543.692
543.591
543.49
543.388
543.287
543.185
543.084
542.983
542.882
542.782
542.681
542.581
542.481
542.381
542.281
542.182
542.082
541.983
541.883
541.784
541.685
541.586
541.487
541.388
541.29
541.191
541.092
540.994
540.895
540.796
540.698
540.599
552.431
552.195
551.965
551.74
551.524
551.319
551.123
550.939
550.765
550.602
550.448
550.305
550.17
550.045
549.929
549.822
549.725
549.638
549.559
549.488
549.424
549.366
549.313
549.263
549.217
549.173
549.13
549.087
549.044
549.001
548.958
548.915
548.871
548.829
548.788
548.747
548.705
548.662
548.615
548.561
548.5
548.43
548.352
548.266
548.171
548.071
547.965
547.857
547.746
547.634
547.521
547.408
547.294
547.182
547.072
546.963
546.857
546.754
546.653
546.553
546.456
546.36
546.265
546.171
546.076
545.98
545.883
545.784
545.683
545.581
545.478
545.374
545.269
545.165
545.062
544.961
544.863
544.767
544.673
544.58
544.486
544.392
544.296
544.198
544.099
543.998
543.897
543.796
543.694
543.592
543.49
543.388
543.286
543.185
543.084
542.982
542.881
542.781
542.68
542.58
542.48
542.38
542.28
542.181
542.081
541.982
541.883
541.784
541.684
541.586
541.487
541.388
541.289
541.191
541.092
540.993
540.895
540.796
540.698
540.599
552.43
552.193
551.961
551.738
551.524
551.319
551.125
550.942
550.769
550.609
550.459
550.32
550.19
550.071
549.96
549.86
549.769
549.687
549.614
549.548
549.489
549.435
549.386
549.34
549.297
549.256
549.216
549.175
549.135
549.094
549.053
549.012
548.971
548.93
548.89
548.85
548.81
548.766
548.718
548.663
548.599
548.527
548.445
548.355
548.257
548.154
548.047
547.936
547.823
547.709
547.594
547.477
547.362
547.247
547.135
547.025
546.917
546.812
546.71
546.61
546.511
546.414
546.318
546.223
546.126
546.029
545.93
545.829
545.727
545.623
545.518
545.411
545.304
545.198
545.091
544.987
544.885
544.785
544.687
544.592
544.497
544.402
544.304
544.205
544.104
544.002
543.9
543.798
543.695
543.593
543.49
543.388
543.286
543.184
543.083
542.981
542.88
542.779
542.679
542.579
542.479
542.379
542.279
542.179
542.08
541.981
541.882
541.783
541.684
541.585
541.486
541.387
541.289
541.19
541.092
540.993
540.895
540.796
540.698
540.599
552.432
552.198
551.968
551.746
551.532
551.329
551.136
550.954
550.784
550.626
550.48
550.344
550.22
550.105
550.001
549.906
549.821
549.745
549.677
549.617
549.562
549.512
549.467
549.424
549.384
549.346
549.308
549.27
549.232
549.193
549.154
549.115
549.075
549.036
548.996
548.957
548.916
548.871
548.821
548.763
548.696
548.62
548.535
548.442
548.341
548.236
548.127
548.015
547.9
547.782
547.664
547.545
547.427
547.31
547.196
547.085
546.976
546.87
546.766
546.665
546.566
546.468
546.372
546.275
546.177
546.078
545.978
545.876
545.772
545.666
545.559
545.451
545.342
545.234
545.125
545.018
544.912
544.808
544.706
544.607
544.509
544.413
544.314
544.212
544.11
544.007
543.904
543.8
543.697
543.593
543.49
543.387
543.285
543.183
543.081
542.98
542.879
542.778
542.677
542.577
542.477
542.377
542.278
542.178
542.079
541.98
541.881
541.782
541.683
541.584
541.485
541.387
541.288
541.19
541.091
540.993
540.894
540.796
540.698
540.599
552.434
552.205
551.979
551.76
551.549
551.348
551.157
550.977
550.81
550.655
550.512
550.381
550.261
550.151
550.052
549.963
549.883
549.812
549.75
549.694
549.643
549.597
549.555
549.515
549.478
549.442
549.406
549.37
549.334
549.297
549.259
549.221
549.183
549.144
549.105
549.065
549.022
548.975
548.922
548.861
548.791
548.711
548.622
548.524
548.421
548.313
548.203
548.088
547.971
547.85
547.729
547.608
547.488
547.37
547.255
547.142
547.032
546.925
546.821
546.719
546.62
546.522
546.424
546.327
546.228
546.128
546.026
545.922
545.817
545.71
545.602
545.492
545.382
545.272
545.162
545.052
544.943
544.836
544.73
544.626
544.526
544.43
544.325
544.221
544.117
544.012
543.907
543.802
543.698
543.593
543.49
543.387
543.284
543.181
543.079
542.978
542.877
542.776
542.675
542.575
542.475
542.376
542.276
542.177
542.077
541.978
541.879
541.781
541.682
541.583
541.485
541.386
541.288
541.189
541.091
540.992
540.894
540.796
540.697
540.599
552.437
552.213
551.992
551.778
551.571
551.374
551.186
551.01
550.847
550.695
550.556
550.429
550.313
550.208
550.114
550.029
549.954
549.889
549.831
549.779
549.732
549.689
549.649
549.612
549.577
549.542
549.508
549.474
549.439
549.403
549.367
549.33
549.292
549.253
549.214
549.173
549.128
549.078
549.021
548.956
548.881
548.796
548.702
548.6
548.494
548.384
548.271
548.154
548.034
547.911
547.786
547.663
547.543
547.424
547.308
547.196
547.085
546.978
546.873
546.771
546.671
546.573
546.475
546.376
546.277
546.176
546.073
545.968
545.862
545.754
545.644
545.534
545.423
545.312
545.2
545.089
544.978
544.868
544.759
544.651
544.545
544.442
544.337
544.23
544.123
544.016
543.91
543.804
543.698
543.593
543.489
543.385
543.282
543.179
543.077
542.976
542.874
542.774
542.673
542.573
542.473
542.374
542.274
542.175
542.076
541.977
541.878
541.78
541.681
541.582
541.484
541.385
541.287
541.189
541.09
540.992
540.894
540.796
540.697
540.599
552.44
552.222
552.007
551.799
551.598
551.405
551.222
551.051
550.892
550.745
550.61
550.488
550.376
550.276
550.186
550.106
550.036
549.974
549.92
549.871
549.827
549.787
549.749
549.714
549.68
549.647
549.614
549.581
549.547
549.512
549.476
549.439
549.402
549.363
549.323
549.279
549.231
549.177
549.115
549.045
548.964
548.873
548.774
548.668
548.558
548.445
548.329
548.209
548.086
547.96
547.834
547.711
547.59
547.471
547.356
547.244
547.134
547.027
546.922
546.82
546.72
546.622
546.523
546.424
546.324
546.222
546.118
546.012
545.905
545.796
545.687
545.576
545.464
545.352
545.24
545.127
545.014
544.902
544.789
544.678
544.567
544.458
544.349
544.239
544.13
544.021
543.912
543.805
543.698
543.592
543.487
543.383
543.279
543.177
543.074
542.973
542.872
542.771
542.671
542.571
542.471
542.372
542.272
542.173
542.074
541.976
541.877
541.778
541.68
541.581
541.483
541.385
541.286
541.188
541.09
540.992
540.894
540.795
540.697
540.599
552.444
552.233
552.026
551.824
551.629
551.443
551.266
551.1
550.946
550.805
550.675
550.557
550.45
550.354
550.268
550.192
550.125
550.067
550.015
549.969
549.927
549.889
549.853
549.819
549.786
549.754
549.721
549.689
549.656
549.621
549.586
549.549
549.511
549.471
549.429
549.382
549.329
549.27
549.203
549.126
549.039
548.942
548.837
548.725
548.611
548.495
548.375
548.252
548.126
547.998
547.872
547.748
547.628
547.511
547.397
547.285
547.177
547.071
546.967
546.866
546.766
546.667
546.568
546.468
546.367
546.264
546.16
546.053
545.946
545.837
545.727
545.616
545.504
545.392
545.278
545.164
545.05
544.934
544.819
544.704
544.589
544.475
544.361
544.248
544.135
544.024
543.914
543.805
543.697
543.59
543.485
543.38
543.276
543.173
543.071
542.969
542.868
542.768
542.668
542.568
542.468
542.369
542.27
542.171
542.073
541.974
541.875
541.777
541.679
541.58
541.482
541.384
541.286
541.188
541.089
540.991
540.893
540.795
540.697
540.599
552.448
552.245
552.046
551.852
551.664
551.485
551.315
551.156
551.008
550.872
550.747
550.634
550.532
550.44
550.358
550.285
550.221
550.165
550.116
550.072
550.032
549.995
549.96
549.927
549.894
549.862
549.831
549.798
549.765
549.731
549.695
549.658
549.619
549.577
549.531
549.48
549.423
549.358
549.285
549.201
549.107
549.003
548.89
548.773
548.654
548.533
548.409
548.282
548.153
548.025
547.9
547.778
547.659
547.543
547.431
547.321
547.214
547.11
547.008
546.907
546.808
546.708
546.609
546.509
546.407
546.303
546.198
546.091
545.983
545.874
545.764
545.654
545.542
545.429
545.315
545.2
545.083
544.964
544.845
544.726
544.608
544.489
544.371
544.255
544.14
544.026
543.914
543.804
543.695
543.587
543.481
543.376
543.272
543.169
543.067
542.966
542.865
542.764
542.664
542.565
542.466
542.367
542.268
542.169
542.071
541.972
541.874
541.776
541.677
541.579
541.481
541.383
541.285
541.187
541.089
540.991
540.893
540.795
540.697
540.599
552.452
552.258
552.067
551.881
551.702
551.53
551.368
551.216
551.075
550.945
550.825
550.717
550.619
550.531
550.452
550.383
550.322
550.268
550.221
550.178
550.139
550.103
550.069
550.036
550.004
549.972
549.941
549.908
549.875
549.841
549.804
549.765
549.724
549.679
549.629
549.574
549.511
549.441
549.361
549.27
549.168
549.055
548.935
548.812
548.689
548.563
548.433
548.303
548.173
548.045
547.921
547.8
547.683
547.569
547.459
547.351
547.247
547.144
547.043
546.943
546.844
546.745
546.646
546.545
546.442
546.338
546.232
546.125
546.017
545.907
545.798
545.687
545.576
545.462
545.347
545.23
545.111
544.991
544.869
544.746
544.623
544.501
544.38
544.26
544.142
544.027
543.913
543.801
543.691
543.583
543.476
543.371
543.267
543.164
543.062
542.961
542.86
542.76
542.661
542.562
542.463
542.364
542.265
542.167
542.069
541.97
541.872
541.774
541.676
541.578
541.48
541.382
541.284
541.186
541.088
540.991
540.893
540.795
540.697
540.599
552.457
552.272
552.09
551.913
551.742
551.579
551.425
551.28
551.145
551.021
550.908
550.804
550.71
550.627
550.551
550.485
550.426
550.374
550.328
550.287
550.248
550.213
550.179
550.146
550.114
550.083
550.051
550.018
549.984
549.949
549.911
549.869
549.825
549.776
549.722
549.662
549.594
549.517
549.43
549.331
549.222
549.101
548.974
548.845
548.717
548.586
548.453
548.32
548.189
548.061
547.937
547.818
547.702
547.59
547.482
547.376
547.273
547.172
547.073
546.974
546.875
546.777
546.677
546.576
546.472
546.367
546.26
546.153
546.044
545.935
545.825
545.715
545.603
545.489
545.373
545.255
545.134
545.011
544.886
544.76
544.634
544.509
544.385
544.263
544.143
544.025
543.909
543.796
543.685
543.576
543.469
543.364
543.26
543.158
543.056
542.956
542.855
542.756
542.657
542.558
542.459
542.361
542.263
542.165
542.067
541.969
541.871
541.773
541.675
541.577
541.479
541.381
541.284
541.186
541.088
540.99
540.892
540.795
540.697
540.599
552.462
552.287
552.114
551.946
551.784
551.629
551.483
551.346
551.218
551.1
550.992
550.894
550.805
550.724
550.653
550.589
550.532
550.482
550.437
550.396
550.358
550.322
550.289
550.256
550.224
550.192
550.16
550.127
550.092
550.054
550.014
549.969
549.922
549.869
549.81
549.745
549.671
549.588
549.494
549.388
549.271
549.142
549.009
548.875
548.743
548.609
548.473
548.337
548.204
548.076
547.952
547.832
547.717
547.607
547.5
547.396
547.295
547.195
547.096
546.998
546.9
546.801
546.701
546.599
546.495
546.389
546.282
546.173
546.064
545.955
545.845
545.733
545.62
545.506
545.389
545.27
545.147
545.023
544.896
544.768
544.64
544.513
544.387
544.262
544.14
544.02
543.903
543.789
543.677
543.568
543.461
543.356
543.253
543.151
543.05
542.949
542.85
542.751
542.652
542.554
542.456
542.358
542.26
542.162
542.064
541.967
541.869
541.771
541.674
541.576
541.478
541.381
541.283
541.185
541.087
540.99
540.892
540.794
540.697
540.599
552.467
552.301
552.138
551.979
551.826
551.68
551.541
551.411
551.291
551.179
551.076
550.983
550.899
550.823
550.754
550.692
550.637
550.588
550.544
550.504
550.466
550.431
550.397
550.365
550.333
550.3
550.268
550.233
550.196
550.156
550.112
550.065
550.013
549.956
549.893
549.822
549.742
549.653
549.553
549.44
549.316
549.181
549.042
548.905
548.77
548.634
548.495
548.357
548.222
548.091
547.966
547.846
547.731
547.62
547.515
547.411
547.311
547.212
547.113
547.016
546.918
546.818
546.718
546.615
546.51
546.403
546.294
546.185
546.074
545.963
545.851
545.739
545.625
545.509
545.391
545.271
545.149
545.024
544.896
544.768
544.639
544.512
544.384
544.258
544.134
544.012
543.893
543.778
543.666
543.557
543.451
543.346
543.244
543.142
543.042
542.943
542.844
542.745
542.647
542.55
542.452
542.354
542.257
542.159
542.062
541.965
541.867
541.77
541.672
541.575
541.477
541.38
541.282
541.185
541.087
540.989
540.892
540.794
540.696
540.599
552.472
552.316
552.162
552.012
551.867
551.729
551.599
551.476
551.362
551.257
551.16
551.072
550.992
550.919
550.854
550.794
550.741
550.693
550.649
550.609
550.572
550.537
550.503
550.47
550.438
550.405
550.371
550.334
550.295
550.252
550.205
550.154
550.099
550.038
549.97
549.893
549.807
549.712
549.606
549.488
549.358
549.219
549.078
548.939
548.802
548.663
548.522
548.381
548.243
548.11
547.983
547.861
547.745
547.634
547.527
547.424
547.322
547.222
547.124
547.026
546.928
546.828
546.726
546.623
546.516
546.407
546.297
546.184
546.071
545.957
545.843
545.729
545.613
545.496
545.378
545.257
545.135
545.011
544.886
544.759
544.632
544.506
544.379
544.251
544.124
544
543.88
543.765
543.653
543.544
543.438
543.335
543.233
543.133
543.034
542.935
542.837
542.74
542.642
542.545
542.448
542.351
542.254
542.157
542.06
541.963
541.865
541.768
541.671
541.574
541.476
541.379
541.281
541.184
541.086
540.989
540.891
540.794
540.696
540.599
552.476
552.33
552.185
552.044
551.908
551.778
551.655
551.54
551.433
551.333
551.242
551.158
551.082
551.013
550.95
550.893
550.84
550.794
550.75
550.711
550.674
550.639
550.605
550.572
550.538
550.504
550.468
550.429
550.387
550.341
550.291
550.237
550.179
550.114
550.041
549.958
549.867
549.767
549.657
549.532
549.397
549.255
549.113
548.974
548.837
548.697
548.555
548.412
548.271
548.136
548.008
547.884
547.765
547.651
547.541
547.432
547.327
547.225
547.126
547.028
546.93
546.83
546.728
546.622
546.512
546.401
546.289
546.173
546.056
545.939
545.822
545.706
545.588
545.469
545.349
545.228
545.107
544.983
544.861
544.739
544.617
544.496
544.371
544.24
544.11
543.984
543.863
543.747
543.635
543.528
543.423
543.321
543.221
543.122
543.024
542.927
542.83
542.734
542.637
542.541
542.444
542.348
542.251
542.154
542.058
541.961
541.864
541.767
541.67
541.572
541.475
541.378
541.281
541.183
541.086
540.989
540.891
540.794
540.696
540.599
552.481
552.342
552.206
552.074
551.946
551.824
551.709
551.601
551.5
551.406
551.32
551.24
551.168
551.102
551.041
550.986
550.935
550.889
550.846
550.806
550.769
550.734
550.7
550.665
550.631
550.595
550.556
550.515
550.47
550.421
550.368
550.312
550.253
550.186
550.109
550.019
549.922
549.821
549.709
549.581
549.442
549.299
549.158
549.017
548.878
548.739
548.6
548.453
548.307
548.173
548.047
547.919
547.795
547.676
547.558
547.436
547.318
547.212
547.115
547.019
546.922
546.823
546.72
546.612
546.495
546.385
546.272
546.153
546.032
545.913
545.794
545.679
545.56
545.438
545.317
545.192
545.072
544.941
544.817
544.703
544.591
544.482
544.368
544.228
544.091
543.961
543.839
543.724
543.614
543.508
543.406
543.306
543.208
543.111
543.014
542.918
542.823
542.727
542.632
542.536
542.44
542.344
542.248
542.152
542.055
541.959
541.862
541.765
541.668
541.571
541.474
541.377
541.28
541.183
541.086
540.988
540.891
540.793
540.696
540.599
552.484
552.354
552.226
552.101
551.981
551.867
551.759
551.657
551.562
551.474
551.392
551.317
551.248
551.184
551.126
551.072
551.022
550.976
550.933
550.893
550.856
550.819
550.784
550.748
550.712
550.675
550.635
550.591
550.544
550.492
550.437
550.381
550.322
550.255
550.175
550.081
549.981
549.881
549.771
549.642
549.502
549.362
549.225
549.074
548.927
548.79
548.66
548.489
548.335
548.22
548.107
547.96
547.834
547.706
547.579
547.425
547.278
547.159
547.071
546.985
546.895
546.796
546.697
546.59
546.454
546.357
546.249
546.126
546.003
545.882
545.757
545.658
545.544
545.42
545.309
545.177
545.074
544.898
544.757
544.642
544.548
544.462
544.386
544.212
544.064
543.931
543.809
543.696
543.588
543.486
543.386
543.289
543.193
543.098
543.004
542.91
542.815
542.721
542.626
542.531
542.436
542.341
542.245
542.149
542.053
541.957
541.861
541.764
541.667
541.57
541.474
541.377
541.279
541.182
541.085
540.988
540.891
540.793
540.696
540.599
552.488
552.364
552.243
552.125
552.013
551.905
551.804
551.708
551.618
551.535
551.458
551.386
551.32
551.258
551.201
551.148
551.098
551.052
551.009
550.968
550.929
550.891
550.853
550.816
550.781
550.744
550.702
550.657
550.608
550.553
550.497
550.443
550.389
550.324
550.25
550.156
550.052
549.952
549.844
549.721
549.586
549.454
549.333
549.143
548.97
548.833
548.716
548.549
548.38
548.28
548.18
548.042
547.877
547.719
547.561
547.375
547.224
547.117
547.042
546.966
546.877
546.771
546.679
546.587
546.448
546.361
546.252
546.09
545.97
545.862
545.724
545.649
545.55
545.434
545.395
545.248
545.258
544.916
544.74
544.543
544.466
544.417
544.326
544.169
544.02
543.89
543.77
543.66
543.558
543.459
543.364
543.27
543.177
543.085
542.993
542.901
542.808
542.715
542.621
542.527
542.433
542.338
542.243
542.147
542.051
541.955
541.859
541.763
541.666
541.57
541.473
541.376
541.279
541.182
541.085
540.988
540.89
540.793
540.696
540.599
552.49
552.372
552.256
552.145
552.039
551.938
551.843
551.753
551.668
551.589
551.516
551.447
551.382
551.32
551.262
551.208
551.158
551.112
551.069
551.028
550.986
550.944
550.903
550.867
550.836
550.802
550.759
550.712
550.665
550.603
550.545
550.504
550.452
550.383
550.334
550.253
550.139
550.033
549.916
549.802
549.676
549.545
549.399
549.232
549.038
548.871
548.762
548.599
548.445
548.361
548.269
548.137
547.961
547.769
547.556
547.308
547.163
547.059
546.988
546.914
546.837
546.721
546.645
546.592
546.464
546.347
546.249
546.104
545.914
545.832
545.71
545.655
545.583
545.454
545.466
545.297
545.129
544.878
544.631
544.396
544.372
544.337
544.296
544.079
543.956
543.84
543.721
543.618
543.522
543.43
543.34
543.25
543.161
543.072
542.982
542.892
542.801
542.709
542.616
542.523
542.429
542.335
542.24
542.145
542.05
541.954
541.858
541.762
541.665
541.569
541.472
541.375
541.278
541.181
541.084
540.987
540.89
540.793
540.696
540.599
552.492
552.377
552.266
552.161
552.061
551.966
551.875
551.79
551.71
551.636
551.565
551.497
551.43
551.364
551.302
551.246
551.197
551.154
551.114
551.073
551.027
550.978
550.934
550.904
550.884
550.851
550.8
550.75
550.721
550.626
550.563
550.57
550.519
550.445
550.452
550.374
550.237
550.131
549.98
549.87
549.739
549.602
549.466
549.316
549.132
548.919
548.803
548.646
548.498
548.429
548.338
548.258
548.105
547.872
547.648
547.295
547.105
546.997
546.858
546.806
546.767
546.728
546.615
546.593
546.489
546.331
546.266
546.135
545.886
545.765
545.657
545.593
545.548
545.407
545.363
545.124
544.954
544.737
544.56
544.433
544.397
544.352
544.294
544.051
543.919
543.758
543.656
543.568
543.483
543.399
543.315
543.23
543.145
543.059
542.972
542.884
542.794
542.704
542.612
542.52
542.426
542.333
542.238
542.143
542.048
541.953
541.857
541.761
541.665
541.568
541.472
541.375
541.278
541.181
541.084
540.987
540.89
540.793
540.696
540.599
552.492
552.378
552.272
552.172
552.077
551.987
551.902
551.821
551.745
551.674
551.605
551.532
551.459
551.385
551.314
551.26
551.215
551.179
551.146
551.105
551.05
550.993
550.962
550.948
550.935
550.876
550.785
550.739
550.776
550.641
550.508
550.607
550.607
550.508
550.563
550.478
550.357
550.313
550.107
549.982
549.765
549.546
549.481
549.358
549.256
549.019
548.864
548.686
548.559
548.458
548.353
548.359
548.237
548.056
547.887
547.473
547.11
547.009
546.728
546.782
546.787
546.708
546.588
546.601
546.46
546.288
546.227
546.084
545.911
545.835
545.706
545.602
545.498
545.333
545.202
544.996
544.817
544.652
544.537
544.456
544.406
544.341
544.243
543.904
543.823
543.696
543.588
543.513
543.443
543.369
543.29
543.21
543.129
543.047
542.963
542.877
542.789
542.699
542.609
542.517
542.424
542.331
542.237
542.142
542.047
541.952
541.856
541.76
541.664
541.568
541.471
541.375
541.278
541.181
541.084
540.987
540.89
540.793
540.696
540.599
552.49
552.377
552.274
552.178
552.088
552.003
551.922
551.845
551.773
551.704
551.631
551.54
551.454
551.383
551.3
551.271
551.223
551.203
551.171
551.108
551.026
550.975
551.052
551.054
550.991
550.863
550.693
550.554
550.784
550.656
550.405
550.625
550.845
550.671
550.574
550.482
550.518
550.648
550.384
550.197
549.756
549.287
549.249
549.263
549.427
549.239
549.08
548.804
548.673
548.491
548.42
548.459
548.197
548.06
547.822
547.568
547.254
547.197
546.882
546.858
546.879
546.743
546.61
546.541
546.428
546.277
546.166
546.041
545.909
545.81
545.678
545.537
545.39
545.22
545.06
544.89
544.744
544.623
544.534
544.457
544.363
544.167
544.026
543.842
543.719
543.618
543.543
543.462
543.406
543.343
543.266
543.189
543.115
543.038
542.956
542.872
542.785
542.696
542.606
542.515
542.423
542.329
542.236
542.141
542.046
541.951
541.856
541.76
541.664
541.567