/*--------------------------------*- C++ -*----------------------------------*\
  =========                 |
  \\      /  F ield         | OpenFOAM: The Open Source CFD Toolbox
   \\    /   O peration     | Website:  https://openfoam.org
    \\  /    A nd           | Version:  6
     \\/     M anipulation  |
\*---------------------------------------------------------------------------*/
FoamFile
{
    version     2.0;
    format      ascii;
    class       volVectorField;
    location    "4450";
    object      U;
}
// * * * * * * * * * * * * * * * * * * * * * * * * * * * * * * * * * * * * * //

dimensions      [0 1 -1 0 0 0 0];

internalField   nonuniform List<vector> 
4800
(
(-3.34205e-05 0 -5.10594e-05)
(0.000134231 0 -7.07516e-05)
(0.000222953 0 -5.80539e-05)
(0.000280418 0 -6.90354e-05)
(0.000324535 0 -9.57298e-05)
(0.000349352 0 -2.05979e-05)
(0.000342871 0 -3.07341e-06)
(0.000326924 0 -2.71195e-05)
(0.000318729 0 -5.56102e-05)
(0.00031416 0 -4.52312e-05)
(0.000286117 0 -6.92795e-05)
(0.000250625 0 -2.70759e-05)
(0.000210296 0 -7.60272e-06)
(0.00017354 0 -2.98777e-06)
(0.000140724 0 -4.39443e-05)
(0.00010339 0 -4.12632e-05)
(3.31e-05 0 2.59572e-06)
(-3.61638e-05 0 2.10232e-05)
(-0.000143081 0 1.31508e-05)
(-0.000261665 0 3.8646e-05)
(-0.000376132 0 8.32364e-05)
(-0.000561418 0 -3.95624e-05)
(-0.000702284 0 -9.05357e-05)
(-0.000767591 0 -6.02144e-06)
(-0.000801757 0 1.14508e-05)
(-0.000834916 0 -1.57402e-05)
(-0.000855865 0 -2.20369e-05)
(-0.000864384 0 -1.17676e-05)
(-0.0008689 0 -1.43107e-05)
(-0.000872952 0 -1.55662e-05)
(-0.000858674 0 -9.23385e-06)
(-0.000814974 0 -1.36206e-05)
(-0.000800688 0 -3.30179e-05)
(-0.000807341 0 -3.6578e-05)
(-0.000814637 0 -2.39954e-05)
(-0.000809434 0 -4.44712e-05)
(-0.000805971 0 -4.84131e-05)
(-0.000824263 0 -4.49134e-05)
(-0.000857233 0 -4.48109e-05)
(-0.00086802 0 -4.02902e-05)
(-0.000840228 0 -4.53083e-05)
(-0.000790914 0 -5.77449e-05)
(-0.000765043 0 -5.36769e-05)
(-0.000740817 0 -4.63706e-05)
(-0.000705123 0 -5.10921e-05)
(-0.000672196 0 -4.88147e-05)
(-0.000657195 0 -3.16116e-05)
(-0.000647984 0 -9.10127e-06)
(-0.000635858 0 -1.41095e-05)
(-0.0006325 0 -1.38968e-05)
(-0.000646528 0 -1.10067e-05)
(-0.000663158 0 -7.18199e-06)
(-0.000689721 0 1.67356e-06)
(-0.000724711 0 6.52023e-06)
(-0.000745975 0 -6.62427e-06)
(-0.000753608 0 -1.86228e-05)
(-0.000753888 0 -3.41653e-05)
(-0.000747007 0 -5.17192e-05)
(-0.000747182 0 -4.7573e-05)
(-0.000753128 0 -5.36359e-05)
(-0.000737524 0 -9.09568e-05)
(-0.000693533 0 -8.59894e-05)
(-0.000668703 0 -5.50676e-05)
(-0.000631179 0 -6.91784e-05)
(-0.000565742 0 -0.000192163)
(-0.000525951 0 -0.000143756)
(-0.000196761 0 -0.000508526)
(-0.000129379 0 -0.000216766)
(-2.3299e-05 0 -0.000103074)
(0.000174816 0 -7.116e-05)
(0.000315496 0 -0.000103516)
(0.000429661 0 -0.000159639)
(0.000592411 0 -3.40492e-05)
(0.000641661 0 -0.000114805)
(0.000718839 0 -6.44065e-05)
(0.000738417 0 -3.05938e-05)
(0.000717317 0 -2.60594e-05)
(0.000674334 0 -1.46612e-05)
(0.000586596 0 3.23518e-05)
(0.000382534 0 1.2987e-05)
(2.60425e-06 0 0.000177648)
(-1.58997e-13 0 6.86234e-13)
(-1.02904e-12 0 2.88281e-13)
(-6.31266e-13 0 1.29358e-13)
(-8.12893e-13 0 5.28412e-14)
(-8.76812e-13 0 1.16022e-14)
(-8.7538e-13 0 -1.25883e-14)
(-8.34634e-13 0 -2.77861e-14)
(-7.68661e-13 0 -3.78862e-14)
(-6.85664e-13 0 -4.48731e-14)
(-5.90828e-13 0 -4.97822e-14)
(-4.8776e-13 0 -5.31537e-14)
(-3.7925e-13 0 -5.52656e-14)
(-2.6767e-13 0 -5.62587e-14)
(-1.55174e-13 0 -5.6209e-14)
(-4.37914e-14 0 -5.51682e-14)
(6.45505e-14 0 -5.31879e-14)
(1.68038e-13 0 -5.03318e-14)
(2.64998e-13 0 -4.66808e-14)
(3.5394e-13 0 -4.23333e-14)
(4.33582e-13 0 -3.74026e-14)
(5.02881e-13 0 -3.20123e-14)
(5.61044e-13 0 -2.62906e-14)
(6.07538e-13 0 -2.0365e-14)
(6.42079e-13 0 -1.43578e-14)
(6.64619e-13 0 -8.38183e-15)
(6.75323e-13 0 -2.5377e-15)
(6.74544e-13 0 3.08786e-15)
(6.62794e-13 0 8.42268e-15)
(6.40715e-13 0 1.34089e-14)
(6.0905e-13 0 1.80023e-14)
(5.6862e-13 0 2.21705e-14)
(5.20297e-13 0 2.58915e-14)
(4.64992e-13 0 2.91518e-14)
(4.03634e-13 0 3.19442e-14)
(3.37162e-13 0 3.42663e-14)
(2.66518e-13 0 3.61181e-14)
(1.9264e-13 0 3.75007e-14)
(1.1647e-13 0 3.84119e-14)
(3.89649e-14 0 3.88368e-14)
(6.5814e-06 0 -0.00012723)
(0.000134287 0 -0.000151403)
(0.000174446 0 -0.000159241)
(0.000239732 0 -8.34583e-05)
(0.00027361 0 -2.63148e-05)
(0.000289086 0 -6.88168e-06)
(0.000285611 0 1.41614e-06)
(0.000251568 0 2.53294e-05)
(0.000193246 0 4.92221e-05)
(0.000183316 0 6.44838e-05)
(0.000163816 0 8.08669e-05)
(0.000124501 0 6.6493e-05)
(3.37778e-05 0 5.34132e-05)
(9.29376e-06 0 8.54807e-05)
(-9.51753e-05 0 9.85151e-05)
(-0.000168272 0 8.0362e-05)
(-0.000208446 0 8.95821e-05)
(-0.000302058 0 0.000103063)
(-0.000396916 0 0.000209726)
(-0.000565182 0 0.000210988)
(-0.000719659 0 0.000164049)
(-0.000777752 0 0.000192005)
(-0.000789877 0 0.000237332)
(-0.000857167 0 7.32966e-05)
(-0.000912544 0 2.14305e-05)
(-0.000948226 0 6.14935e-05)
(-0.000984521 0 7.08682e-05)
(-0.00101945 0 3.26557e-05)
(-0.00103857 0 1.02913e-05)
(-0.00104686 0 -4.36796e-06)
(-0.00104904 0 -2.90309e-05)
(-0.00104828 0 -4.65654e-05)
(-0.00105959 0 4.61428e-06)
(-0.00107907 0 3.12291e-05)
(-0.00109925 0 7.51468e-06)
(-0.00112167 0 1.45694e-05)
(-0.00114708 0 4.15694e-05)
(-0.00117278 0 5.96513e-05)
(-0.00118442 0 8.50641e-05)
(-0.00117483 0 2.8287e-05)
(-0.0010812 0 -9.06388e-05)
(-0.000986384 0 -4.96096e-05)
(-0.000907937 0 -1.87102e-05)
(-0.000837183 0 -3.43662e-05)
(-0.000775969 0 -4.20874e-05)
(-0.000729997 0 -3.08516e-05)
(-0.000702487 0 -2.38963e-05)
(-0.000692904 0 -1.55849e-05)
(-0.000693055 0 -9.25297e-06)
(-0.000710765 0 -2.07979e-06)
(-0.000725616 0 3.02447e-05)
(-0.000735959 0 4.40668e-05)
(-0.00074345 0 2.51834e-05)
(-0.000755137 0 3.87001e-05)
(-0.000773382 0 2.2164e-05)
(-0.000786119 0 1.30866e-05)
(-0.000790715 0 1.07837e-05)
(-0.00079083 0 4.90366e-06)
(-0.000789027 0 7.74157e-06)
(-0.000795522 0 9.15901e-06)
(-0.000814819 0 -3.18231e-06)
(-0.000819101 0 -1.81456e-05)
(-0.00075764 0 -8.92361e-05)
(-0.000708861 0 -6.82634e-05)
(-0.000672424 0 -4.57239e-05)
(-0.000620777 0 -0.000134309)
(-0.000496084 0 -0.000322033)
(-0.00046069 0 -4.33421e-05)
(-0.000314566 0 -0.000219331)
(-0.000207139 0 -0.000304671)
(-2.1772e-05 0 -0.000408058)
(0.000219122 0 -0.000229214)
(0.00034069 0 -0.000153971)
(0.000372831 0 -0.000149741)
(0.000466407 0 -0.00010114)
(0.000532662 0 2.76597e-06)
(0.000508676 0 -8.30099e-06)
(0.000470732 0 0.000114049)
(0.000432076 0 0.000150249)
(0.000120158 0 0.000256967)
(2.41204e-06 0 0.000389704)
(-3.24597e-13 0 1.31313e-12)
(-1.56631e-12 0 6.38968e-13)
(-8.66706e-13 0 3.05852e-13)
(-9.30649e-13 0 1.23391e-13)
(-9.42242e-13 0 1.78745e-14)
(-9.14768e-13 0 -4.66664e-14)
(-8.59932e-13 0 -8.83873e-14)
(-7.85748e-13 0 -1.16723e-13)
(-6.9756e-13 0 -1.36667e-13)
(-5.99108e-13 0 -1.50869e-13)
(-4.93243e-13 0 -1.60719e-13)
(-3.82355e-13 0 -1.66925e-13)
(-2.68613e-13 0 -1.69837e-13)
(-1.54084e-13 0 -1.69644e-13)
(-4.07704e-14 0 -1.66478e-13)
(6.9387e-14 0 -1.6048e-13)
(1.74545e-13 0 -1.51838e-13)
(2.72997e-13 0 -1.40793e-13)
(3.63218e-13 0 -1.27644e-13)
(4.43903e-13 0 -1.12736e-13)
(5.13993e-13 0 -9.64435e-14)
(5.72691e-13 0 -7.91568e-14)
(6.19471e-13 0 -6.12633e-14)
(6.54062e-13 0 -4.31336e-14)
(6.76439e-13 0 -2.51088e-14)
(6.86793e-13 0 -7.49264e-15)
(6.85504e-13 0 9.45393e-15)
(6.73115e-13 0 2.55146e-14)
(6.50295e-13 0 4.05168e-14)
(6.17812e-13 0 5.43288e-14)
(5.76509e-13 0 6.68554e-14)
(5.27278e-13 0 7.80323e-14)
(4.71045e-13 0 8.78207e-14)
(4.08749e-13 0 9.6201e-14)
(3.41336e-13 0 1.03167e-13)
(2.69752e-13 0 1.08723e-13)
(1.94934e-13 0 1.12873e-13)
(1.17806e-13 0 1.15621e-13)
(3.93897e-14 0 1.16962e-13)
(-1.10109e-05 0 -0.00020634)
(0.000121126 0 -0.000199898)
(8.81537e-05 0 -0.000194491)
(0.0001203 0 -0.000134978)
(0.000185708 0 -5.35507e-05)
(0.000170852 0 3.53494e-06)
(0.000140553 0 6.1149e-05)
(0.00010389 0 8.27198e-05)
(0.000106858 0 5.90642e-05)
(5.23494e-05 0 1.95175e-05)
(-2.24597e-05 0 5.00928e-05)
(4.05311e-05 0 0.000164062)
(-0.00017173 0 9.44221e-05)
(-0.000158412 0 0.000162715)
(-0.000248372 0 0.000176228)
(-0.000314242 0 0.000204467)
(-0.000432883 0 0.000202918)
(-0.000508117 0 0.000336276)
(-0.000713305 0 0.000254116)
(-0.000766868 0 0.000359066)
(-0.000814973 0 0.000351203)
(-0.000836501 0 0.000301015)
(-0.00093394 0 5.42735e-05)
(-0.000985697 0 0.000105386)
(-0.00103636 0 0.000137996)
(-0.00108915 0 6.08139e-05)
(-0.00113387 0 6.21685e-05)
(-0.00116603 0 3.98986e-05)
(-0.00118385 0 2.68369e-05)
(-0.00120372 0 -1.0062e-05)
(-0.00122042 0 -1.70982e-05)
(-0.00122917 0 -2.10962e-05)
(-0.00124437 0 2.69848e-05)
(-0.00126479 0 5.76594e-05)
(-0.00127543 0 2.94429e-05)
(-0.0012784 0 3.11344e-05)
(-0.00127124 0 4.2348e-05)
(-0.0012563 0 3.6547e-05)
(-0.00123467 0 -6.04183e-06)
(-0.00118618 0 -8.86438e-05)
(-0.001071 0 -0.000177023)
(-0.000960681 0 -0.000150644)
(-0.00086628 0 -0.00015404)
(-0.000791989 0 -0.000118182)
(-0.00071755 0 -0.000123453)
(-0.000670485 0 -8.03521e-05)
(-0.000648569 0 -3.90532e-05)
(-0.000646654 0 -1.1195e-05)
(-0.000666779 0 1.89094e-05)
(-0.00067672 0 5.01817e-06)
(-0.000686 0 3.97671e-05)
(-0.00069819 0 3.98974e-05)
(-0.000710048 0 4.92468e-05)
(-0.000723125 0 6.01049e-05)
(-0.000737628 0 3.15216e-05)
(-0.000742518 0 2.05373e-05)
(-0.000737778 0 1.13736e-05)
(-0.000744945 0 2.67433e-05)
(-0.00077186 0 2.28616e-05)
(-0.00079702 0 -2.07207e-05)
(-0.000818884 0 -2.40784e-05)
(-0.000827821 0 -1.38337e-05)
(-0.000765046 0 -7.11926e-05)
(-0.000699068 0 -0.000135617)
(-0.000673263 0 -0.000160651)
(-0.000658859 0 -0.000226042)
(-0.0005949 0 -0.000330863)
(-0.000494194 0 -0.000341144)
(-0.00042894 0 -0.000347414)
(-0.000319458 0 -0.000425905)
(-0.000252828 0 -0.000441934)
(-0.000253943 0 -0.000377526)
(0.000120042 0 -0.000185387)
(0.000142698 0 -0.000243323)
(0.000331221 0 -0.00011943)
(0.000400812 0 -2.91322e-06)
(0.000376339 0 3.35232e-05)
(0.000354021 0 0.000104125)
(0.000321402 0 0.000231446)
(5.04725e-05 0 0.000392689)
(2.48258e-06 0 0.00056508)
(-5.45522e-13 0 1.30075e-12)
(-1.98626e-12 0 6.84034e-13)
(-1.14684e-12 0 3.31819e-13)
(-1.10087e-12 0 1.17092e-13)
(-1.04687e-12 0 -1.6757e-14)
(-9.81641e-13 0 -1.03511e-13)
(-9.04691e-13 0 -1.62339e-13)
(-8.1694e-13 0 -2.03937e-13)
(-7.1981e-13 0 -2.34205e-13)
(-6.1488e-13 0 -2.56329e-13)
(-5.03815e-13 0 -2.71966e-13)
(-3.88368e-13 0 -2.81925e-13)
(-2.7039e-13 0 -2.8658e-13)
(-1.51814e-13 0 -2.86116e-13)
(-3.46272e-14 0 -2.80684e-13)
(7.91904e-14 0 -2.70483e-13)
(1.87724e-13 0 -2.55811e-13)
(2.89192e-13 0 -2.37074e-13)
(3.81997e-13 0 -2.14778e-13)
(4.64783e-13 0 -1.89516e-13)
(5.3646e-13 0 -1.61932e-13)
(5.96224e-13 0 -1.32693e-13)
(6.43561e-13 0 -1.02463e-13)
(6.78234e-13 0 -7.18711e-14)
(7.0026e-13 0 -4.14954e-14)
(7.09886e-13 0 -1.18477e-14)
(7.07551e-13 0 1.66351e-14)
(6.93857e-13 0 4.35934e-14)
(6.69529e-13 0 6.87427e-14)
(6.35389e-13 0 9.18684e-14)
(5.92323e-13 0 1.12818e-13)
(5.41262e-13 0 1.3149e-13)
(4.83161e-13 0 1.47826e-13)
(4.18981e-13 0 1.618e-13)
(3.49684e-13 0 1.73409e-13)
(2.76223e-13 0 1.82661e-13)
(1.99539e-13 0 1.89575e-13)
(1.2056e-13 0 1.94167e-13)
(4.03059e-14 0 1.96458e-13)
(8.25812e-06 0 -0.000235311)
(5.57942e-05 0 -0.00023457)
(3.0831e-05 0 -0.000188038)
(4.401e-05 0 -0.000105918)
(9.33712e-05 0 1.67248e-05)
(4.5971e-05 0 3.89931e-05)
(4.48262e-05 0 5.23372e-05)
(9.5407e-06 0 1.69734e-05)
(-1.18452e-05 0 8.99424e-05)
(-9.78008e-05 0 0.000107505)
(-0.000184187 0 0.000119271)
(-0.000180217 0 0.000223075)
(-0.000282405 0 0.000240589)
(-0.000360107 0 0.00023049)
(-0.000483051 0 0.000186067)
(-0.000487005 0 0.000324261)
(-0.000615215 0 0.000353209)
(-0.000757072 0 0.000359118)
(-0.00083904 0 0.000414698)
(-0.000878501 0 0.000391816)
(-0.000886457 0 0.000369422)
(-0.0009773 0 0.000210288)
(-0.00105127 0 0.000194739)
(-0.0010673 0 0.000226005)
(-0.0011026 0 0.000197874)
(-0.00117633 0 0.000161897)
(-0.00121052 0 0.00012726)
(-0.00122514 0 8.63434e-05)
(-0.00123834 0 2.6161e-05)
(-0.00125182 0 3.1702e-05)
(-0.00125808 0 2.66825e-05)
(-0.00125906 0 -9.67619e-06)
(-0.00126885 0 4.43815e-05)
(-0.001287 0 4.33881e-05)
(-0.00128754 0 2.55661e-05)
(-0.00127199 0 6.43206e-06)
(-0.00126537 0 2.1646e-05)
(-0.00122307 0 -3.49692e-05)
(-0.00116296 0 -0.000101252)
(-0.00112167 0 -0.000128382)
(-0.00102228 0 -0.000249331)
(-0.000882179 0 -0.000315495)
(-0.000746466 0 -0.00027392)
(-0.000645083 0 -0.000189646)
(-0.000574734 0 -0.000142371)
(-0.000516539 0 -0.000119656)
(-0.000508697 0 -5.87136e-05)
(-0.000517974 0 8.77666e-06)
(-0.000542184 0 3.61988e-05)
(-0.000557193 0 2.70615e-05)
(-0.000568458 0 4.51248e-05)
(-0.00057462 0 6.52485e-05)
(-0.000588432 0 5.80615e-05)
(-0.000605919 0 4.77842e-05)
(-0.000619624 0 5.45087e-05)
(-0.000628614 0 4.18553e-05)
(-0.000639104 0 -4.44973e-05)
(-0.000673378 0 3.42412e-05)
(-0.000705437 0 2.73533e-05)
(-0.000729076 0 4.47355e-05)
(-0.00073518 0 -5.66678e-06)
(-0.000739385 0 -3.041e-05)
(-0.00067109 0 -0.000282923)
(-0.000635711 0 -0.000271974)
(-0.000674014 0 -0.0001646)
(-0.000662231 0 -0.00026128)
(-0.000639044 0 -0.000316843)
(-0.000568032 0 -0.000407809)
(-0.000519573 0 -0.000457844)
(-0.000461208 0 -0.000519672)
(-0.000267061 0 -0.000618979)
(-9.63989e-05 0 -0.000594413)
(-0.000298898 0 -0.000372103)
(-0.000143325 0 -0.000362753)
(0.000192981 0 -0.00022726)
(0.000236864 0 -3.19923e-05)
(0.000262459 0 1.43796e-05)
(0.000254788 0 0.000175354)
(0.000304757 0 0.000314719)
(-0.000275079 0 0.000474909)
(2.36334e-06 0 0.000713897)
(-7.32553e-13 0 1.03334e-12)
(-2.46978e-12 0 5.12348e-13)
(-1.43365e-12 0 2.2023e-13)
(-1.27922e-12 0 2.9852e-14)
(-1.16284e-12 0 -9.85355e-14)
(-1.06035e-12 0 -1.8833e-13)
(-9.60358e-13 0 -2.53569e-13)
(-8.57613e-13 0 -3.02534e-13)
(-7.49951e-13 0 -3.39946e-13)
(-6.36869e-13 0 -3.68346e-13)
(-5.18839e-13 0 -3.8897e-13)
(-3.9697e-13 0 -4.02318e-13)
(-2.72805e-13 0 -4.08534e-13)
(-1.48188e-13 0 -4.0765e-13)
(-2.51374e-14 0 -3.99744e-13)
(9.42596e-14 0 -3.85033e-13)
(2.07955e-13 0 -3.6391e-13)
(3.1403e-13 0 -3.36953e-13)
(4.10776e-13 0 -3.04904e-13)
(4.9675e-13 0 -2.68628e-13)
(5.70815e-13 0 -2.29071e-13)
(6.3216e-13 0 -1.87209e-13)
(6.80293e-13 0 -1.44004e-13)
(7.1503e-13 0 -1.00366e-13)
(7.36463e-13 0 -5.71246e-14)
(7.44923e-13 0 -1.50059e-14)
(7.40945e-13 0 2.53744e-14)
(7.25223e-13 0 6.35156e-14)
(6.9857e-13 0 9.90272e-14)
(6.61887e-13 0 1.3162e-13)
(6.1613e-13 0 1.61092e-13)
(5.62287e-13 0 1.87317e-13)
(5.01355e-13 0 2.10228e-13)
(4.34331e-13 0 2.298e-13)
(3.62197e-13 0 2.46039e-13)
(2.85918e-13 0 2.58972e-13)
(2.0644e-13 0 2.68631e-13)
(1.2469e-13 0 2.75047e-13)
(4.1681e-14 0 2.78249e-13)
(6.87182e-06 0 -0.000243077)
(1.72021e-05 0 -0.000239238)
(-2.23824e-05 0 -0.000189023)
(-9.50341e-06 0 -0.000115868)
(3.42248e-05 0 4.1186e-05)
(-3.38726e-05 0 -1.06523e-05)
(-2.07927e-05 0 6.5622e-05)
(-0.00011889 0 0.000110986)
(-0.000165505 0 0.000172754)
(-0.00023177 0 0.000228506)
(-0.000298906 0 0.000247542)
(-0.000356202 0 0.000254308)
(-0.000457067 0 0.000224056)
(-0.00049785 0 0.000331177)
(-0.000695633 0 0.000209369)
(-0.000751488 0 0.000272863)
(-0.000825198 0 0.000350839)
(-0.000881101 0 0.000412873)
(-0.000924646 0 0.000429495)
(-0.000952241 0 0.000404157)
(-0.000972994 0 0.000351192)
(-0.00103911 0 0.000332365)
(-0.00109551 0 0.000329721)
(-0.00113923 0 0.000244414)
(-0.00118779 0 0.000141172)
(-0.00121708 0 0.000163959)
(-0.00122578 0 0.000124025)
(-0.00122214 0 8.02548e-05)
(-0.00123474 0 3.24309e-05)
(-0.00124288 0 1.79458e-05)
(-0.00124062 0 -1.76111e-05)
(-0.00123085 0 -3.10747e-05)
(-0.00122965 0 6.69417e-06)
(-0.0012298 0 5.84959e-05)
(-0.00122599 0 2.51688e-05)
(-0.00122615 0 -8.28717e-05)
(-0.00121043 0 2.07414e-05)
(-0.00113452 0 -3.1185e-05)
(-0.00104844 0 -0.000277267)
(-0.00102759 0 -0.000193958)
(-0.000942884 0 -0.000391369)
(-0.000885181 0 -0.000286549)
(-0.00065779 0 -0.000395764)
(-0.000469 0 -0.000352116)
(-0.000393142 0 -0.000187835)
(-0.000262314 0 -0.000150368)
(-0.000276988 0 -4.8982e-05)
(-0.000338919 0 3.33246e-05)
(-0.000362192 0 3.52795e-05)
(-0.000373484 0 6.77019e-05)
(-0.000394043 0 7.9656e-05)
(-0.000414705 0 5.51489e-05)
(-0.000426944 0 7.32284e-05)
(-0.000443449 0 6.92427e-05)
(-0.000461128 0 5.11176e-05)
(-0.000492507 0 3.33869e-05)
(-0.000539357 0 9.21843e-06)
(-0.000566547 0 4.31921e-05)
(-0.000572578 0 3.8812e-05)
(-0.000578529 0 2.98161e-05)
(-0.000576948 0 -8.40971e-05)
(-0.000606548 0 -4.01499e-05)
(-0.000626402 0 -3.40635e-05)
(-0.000573549 0 -0.000274012)
(-0.000602243 0 -0.00025375)
(-0.000654802 0 -0.000229507)
(-0.000615475 0 -0.000376082)
(-0.000576504 0 -0.000454115)
(-0.000591381 0 -0.000487224)
(-0.000541505 0 -0.000573741)
(-0.000550173 0 -0.000576987)
(-0.000440987 0 -0.000604852)
(-0.000296624 0 -0.000530037)
(-0.000339776 0 -0.000361064)
(-0.000109847 0 -0.000425084)
(-1.19961e-05 0 -0.000116608)
(0.000145496 0 8.12652e-05)
(0.000115649 0 0.000223547)
(0.000274341 0 0.000328012)
(-0.000187297 0 0.000573963)
(2.53146e-06 0 0.000792191)
(-9.2615e-13 0 3.42315e-13)
(-2.73184e-12 0 1.60642e-13)
(-1.62934e-12 0 6.88404e-15)
(-1.41964e-12 0 -1.19392e-13)
(-1.26505e-12 0 -2.18917e-13)
(-1.13667e-12 0 -2.97716e-13)
(-1.0189e-12 0 -3.6109e-13)
(-9.03318e-13 0 -4.12712e-13)
(-7.85622e-13 0 -4.54745e-13)
(-6.63903e-13 0 -4.88204e-13)
(-5.37787e-13 0 -5.13332e-13)
(-4.07933e-13 0 -5.29944e-13)
(-2.75722e-13 0 -5.37703e-13)
(-1.43024e-13 0 -5.36327e-13)
(-1.20097e-14 0 -5.25731e-13)
(1.15025e-13 0 -5.06105e-13)
(2.35804e-13 0 -4.77938e-13)
(3.48197e-13 0 -4.42004e-13)
(4.50322e-13 0 -3.99316e-13)
(5.40616e-13 0 -3.51064e-13)
(6.17879e-13 0 -2.98543e-13)
(6.81291e-13 0 -2.43083e-13)
(7.30404e-13 0 -1.85985e-13)
(7.65113e-13 0 -1.28467e-13)
(7.85621e-13 0 -7.16283e-14)
(7.92385e-13 0 -1.64213e-14)
(7.86073e-13 0 3.63585e-14)
(7.6751e-13 0 8.60737e-14)
(7.37633e-13 0 1.32237e-13)
(6.97454e-13 0 1.74497e-13)
(6.48021e-13 0 2.12619e-13)
(5.90398e-13 0 2.46466e-13)
(5.25643e-13 0 2.75974e-13)
(4.54793e-13 0 3.01136e-13)
(3.78857e-13 0 3.21982e-13)
(2.98814e-13 0 3.38562e-13)
(2.15614e-13 0 3.50932e-13)
(1.30178e-13 0 3.59145e-13)
(4.35076e-14 0 3.63241e-13)
(-1.7484e-05 0 -0.000228034)
(-3.48546e-05 0 -0.000240192)
(-9.824e-05 0 -0.000213836)
(-7.87036e-05 0 -0.000109501)
(-4.86394e-05 0 1.88244e-05)
(-0.000116848 0 0.00011401)
(-0.000155171 0 0.000182954)
(-0.000281183 0 0.000191487)
(-0.000326456 0 0.000217545)
(-0.000373726 0 0.000228861)
(-0.000408237 0 0.000257754)
(-0.000457955 0 0.000304861)
(-0.000512075 0 0.00035055)
(-0.000561527 0 0.000407574)
(-0.000631228 0 0.000506495)
(-0.000814159 0 0.000427194)
(-0.000880384 0 0.00046923)
(-0.000962405 0 0.000442999)
(-0.0010028 0 0.000438071)
(-0.00100833 0 0.000461241)
(-0.000995981 0 0.000479803)
(-0.00108754 0 0.000361406)
(-0.00114673 0 0.000328087)
(-0.00116924 0 0.000293832)
(-0.00119547 0 0.000205126)
(-0.00120104 0 0.000214094)
(-0.00119981 0 0.000121027)
(-0.00117255 0 6.00944e-05)
(-0.00115861 0 5.03301e-05)
(-0.0011541 0 3.25774e-05)
(-0.00115341 0 7.04994e-06)
(-0.00115343 0 -8.05006e-06)
(-0.00113856 0 2.74485e-05)
(-0.00113071 0 6.28556e-05)
(-0.00113954 0 3.46423e-05)
(-0.00117053 0 1.28388e-05)
(-0.00117808 0 8.58784e-06)
(-0.00111118 0 -0.000207789)
(-0.00100488 0 -0.000247801)
(-0.00093811 0 -0.000266478)
(-0.000875957 0 -0.000372577)
(-0.000842751 0 -0.000368825)
(-0.000634779 0 -0.000569694)
(-0.0003015 0 -0.000639997)
(-0.000319445 0 -0.00028008)
(-9.83842e-05 0 -0.0001834)
(1.75787e-05 0 1.96251e-05)
(-2.92436e-05 0 0.000150784)
(-6.9788e-05 0 0.000199873)
(-0.000169447 0 0.000146542)
(-0.000239983 0 9.31543e-05)
(-0.000270256 0 0.0001264)
(-0.00031803 0 8.19328e-05)
(-0.000338167 0 9.96111e-05)
(-0.000362621 0 0.000109752)
(-0.00040017 0 9.34952e-05)
(-0.000424738 0 9.82748e-05)
(-0.000435437 0 9.17638e-05)
(-0.000432945 0 7.18785e-05)
(-0.000427938 0 6.74733e-05)
(-0.000444386 0 4.23997e-05)
(-0.000464942 0 -3.43178e-06)
(-0.000475615 0 -9.31402e-05)
(-0.000481807 0 -0.000134878)
(-0.000469115 0 -0.000197613)
(-0.000477783 0 -0.000327934)
(-0.000593426 0 -0.000308299)
(-0.000534489 0 -0.000502863)
(-0.000606807 0 -0.000498763)
(-0.00055245 0 -0.000619938)
(-0.000546098 0 -0.000662198)
(-0.000538351 0 -0.000673362)
(-0.000506879 0 -0.000636724)
(-0.000200082 0 -0.000664571)
(-0.00026273 0 -0.000444312)
(-0.00025682 0 -0.000266984)
(-0.000163537 0 -0.000203377)
(6.04292e-05 0 0.000279457)
(9.62763e-05 0 0.000365845)
(-0.000428458 0 0.000520264)
(3.27462e-06 0 0.000851959)
(-1.2133e-12 0 -9.99149e-14)
(-2.74744e-12 0 -1.81141e-13)
(-1.71368e-12 0 -2.33957e-13)
(-1.50503e-12 0 -2.9539e-13)
(-1.34117e-12 0 -3.60025e-13)
(-1.20252e-12 0 -4.22519e-13)
(-1.07535e-12 0 -4.80361e-13)
(-9.51269e-13 0 -5.32484e-13)
(-8.25444e-13 0 -5.78139e-13)
(-6.95456e-13 0 -6.16433e-13)
(-5.60579e-13 0 -6.46275e-13)
(-4.2134e-13 0 -6.66514e-13)
(-2.79188e-13 0 -6.76121e-13)
(-1.36216e-13 0 -6.74356e-13)
(5.08446e-15 0 -6.60889e-13)
(1.42053e-13 0 -6.35858e-13)
(2.72056e-13 0 -5.99861e-13)
(3.92652e-13 0 -5.53917e-13)
(5.01715e-13 0 -4.99378e-13)
(5.97522e-13 0 -4.37833e-13)
(6.78796e-13 0 -3.70999e-13)
(7.44718e-13 0 -3.00625e-13)
(7.9491e-13 0 -2.28402e-13)
(8.29387e-13 0 -1.55897e-13)
(8.48509e-13 0 -8.45028e-14)
(8.5291e-13 0 -1.54084e-14)
(8.4344e-13 0 5.04101e-14)
(8.21101e-13 0 1.12188e-13)
(7.86993e-13 0 1.69355e-13)
(7.42269e-13 0 2.21517e-13)
(6.88098e-13 0 2.68427e-13)
(6.25641e-13 0 3.09956e-13)
(5.56026e-13 0 3.46068e-13)
(4.8034e-13 0 3.76791e-13)
(3.99623e-13 0 4.02193e-13)
(3.14868e-13 0 4.22363e-13)
(2.27023e-13 0 4.37392e-13)
(1.36999e-13 0 4.47361e-13)
(4.57771e-14 0 4.52331e-13)
(-9.31955e-06 0 -0.000210323)
(-1.04184e-05 0 -0.000191889)
(-0.000143119 0 -0.00020996)
(-0.000193876 0 -0.000215418)
(-0.00025425 0 0.000141659)
(-0.000358677 0 3.75505e-05)
(-0.000359083 0 0.00019017)
(-0.000412739 0 0.000200882)
(-0.000409085 0 0.000257173)
(-0.000413756 0 0.000279836)
(-0.000434509 0 0.000280128)
(-0.000462596 0 0.000369849)
(-0.000563837 0 0.000423468)
(-0.000637905 0 0.000467615)
(-0.000668454 0 0.000569927)
(-0.000796597 0 0.000557946)
(-0.000888759 0 0.000551137)
(-0.000931388 0 0.000600335)
(-0.000993085 0 0.000569394)
(-0.00101132 0 0.000560478)
(-0.00110721 0 0.000390717)
(-0.00112681 0 0.000421315)
(-0.00114539 0 0.000421981)
(-0.00117091 0 0.000254275)
(-0.00114068 0 0.000180999)
(-0.00111647 0 0.000192355)
(-0.0011055 0 6.43707e-05)
(-0.00106762 0 5.38127e-05)
(-0.00103692 0 4.22954e-05)
(-0.00103106 0 2.02373e-05)
(-0.00104086 0 -2.21858e-05)
(-0.00106375 0 -1.75829e-06)
(-0.00108153 0 2.90333e-05)
(-0.00108843 0 3.53784e-05)
(-0.00109753 0 -1.23463e-06)
(-0.00110673 0 -2.4282e-05)
(-0.00111131 0 -2.55055e-05)
(-0.00107862 0 -0.000169886)
(-0.000908081 0 -0.000418226)
(-0.000797739 0 -0.000457615)
(-0.000729619 0 -0.000520927)
(-0.000594374 0 -0.000676989)
(-0.000625304 0 -0.000612696)
(-0.000471453 0 -0.000673034)
(-0.000204931 0 -0.000743974)
(-9.20295e-05 0 -0.000653835)
(6.61195e-05 0 2.97456e-05)
(8.45251e-05 0 0.000120284)
(-1.36958e-05 0 0.00014539)
(-6.8996e-05 0 0.000129888)
(-0.000142942 0 0.000123987)
(-0.000188143 0 0.00011258)
(-0.000192462 0 0.000135382)
(-0.000216476 0 0.000156375)
(-0.000261412 0 0.000131588)
(-0.000273033 0 0.000131975)
(-0.00029956 0 6.83815e-05)
(-0.000308296 0 5.9695e-05)
(-0.000310515 0 4.77589e-05)
(-0.000310008 0 1.55249e-05)
(-0.000316796 0 -5.2425e-07)
(-0.000322674 0 -1.75083e-05)
(-0.000370345 0 -2.1031e-05)
(-0.000390882 0 -5.3118e-05)
(-0.000356279 0 -0.000156114)
(-0.000308258 0 -0.000295351)
(-0.000518764 0 -0.000151401)
(-0.000413165 0 -0.00047681)
(-0.000537143 0 -0.000517637)
(-0.000584441 0 -0.000601372)
(-0.000594991 0 -0.000660553)
(-0.00061068 0 -0.000680669)
(-0.000670083 0 -0.000622515)
(-0.000650026 0 -0.000530198)
(-0.000439206 0 -0.000526499)
(-0.00030815 0 -0.000444383)
(-0.000342381 0 -0.000141517)
(-0.000174904 0 2.49491e-05)
(-5.36e-05 0 0.000430797)
(-0.000345552 0 0.000654273)
(3.51577e-06 0 0.000834726)
(-1.36801e-12 0 -7.48801e-13)
(-2.833e-12 0 -5.36834e-13)
(-1.74359e-12 0 -4.66197e-13)
(-1.5457e-12 0 -4.68185e-13)
(-1.39218e-12 0 -5.03259e-13)
(-1.25701e-12 0 -5.51951e-13)
(-1.12886e-12 0 -6.05318e-13)
(-1.0011e-12 0 -6.5869e-13)
(-8.69572e-13 0 -7.08871e-13)
(-7.3204e-13 0 -7.53108e-13)
(-5.87868e-13 0 -7.88842e-13)
(-4.37778e-13 0 -8.13768e-13)
(-2.83563e-13 0 -8.25995e-13)
(-1.27793e-13 0 -8.24203e-13)
(2.64885e-14 0 -8.07755e-13)
(1.76054e-13 0 -7.76728e-13)
(3.17745e-13 0 -7.31882e-13)
(4.4868e-13 0 -6.74561e-13)
(5.66406e-13 0 -6.06562e-13)
(6.68995e-13 0 -5.2998e-13)
(7.55087e-13 0 -4.4706e-13)
(8.23888e-13 0 -3.60059e-13)
(8.75132e-13 0 -2.71129e-13)
(9.09013e-13 0 -1.82232e-13)
(9.26109e-13 0 -9.50839e-14)
(9.27298e-13 0 -1.11209e-14)
(9.13669e-13 0 6.85047e-14)
(8.86454e-13 0 1.42915e-13)
(8.46963e-13 0 2.11482e-13)
(7.96525e-13 0 2.73793e-13)
(7.3646e-13 0 3.29618e-13)
(6.6804e-13 0 3.78867e-13)
(5.92478e-13 0 4.21555e-13)
(5.10917e-13 0 4.57769e-13)
(4.24428e-13 0 4.87638e-13)
(3.34013e-13 0 5.11306e-13)
(2.40613e-13 0 5.28913e-13)
(1.45117e-13 0 5.40579e-13)
(4.84768e-14 0 5.4639e-13)
(-1.97097e-05 0 -0.000189488)
(4.77412e-05 0 -0.000121397)
(-0.000197015 0 -6.87414e-05)
(-0.000298639 0 0.000148112)
(-0.000229391 0 0.000345737)
(-0.000390001 0 0.000264704)
(-0.000399052 0 0.000284597)
(-0.000421542 0 0.000269962)
(-0.000448064 0 0.000234758)
(-0.000447157 0 0.000267078)
(-0.000465242 0 0.000301772)
(-0.000499016 0 0.000386265)
(-0.000562748 0 0.000529691)
(-0.000686493 0 0.000564789)
(-0.000759231 0 0.000603309)
(-0.000863916 0 0.000584777)
(-0.00094419 0 0.000564662)
(-0.00100096 0 0.000561298)
(-0.00104838 0 0.000542687)
(-0.0010692 0 0.000515018)
(-0.00109396 0 0.000460154)
(-0.00111608 0 0.000414756)
(-0.00112878 0 0.000404251)
(-0.00114874 0 0.000230945)
(-0.00104772 0 0.000177461)
(-0.00100417 0 0.000183793)
(-0.0010205 0 0.00011971)
(-0.00103027 0 7.52988e-05)
(-0.000996984 0 -0.000145717)
(-0.000976126 0 6.37536e-05)
(-0.000966791 0 4.46582e-06)
(-0.000982687 0 3.36793e-06)
(-0.0010264 0 7.0509e-05)
(-0.0010484 0 8.60988e-05)
(-0.00105037 0 6.65922e-05)
(-0.00102029 0 -1.61546e-05)
(-0.000986391 0 -9.55799e-05)
(-0.00091815 0 -0.000297761)
(-0.000768854 0 -0.000515199)
(-0.000673054 0 -0.000553368)
(-0.000627997 0 -0.000564812)
(-0.000530936 0 -0.000666467)
(-0.000403655 0 -0.000770895)
(-0.000343347 0 -0.000763238)
(-0.000363083 0 -0.000754148)
(-0.000131467 0 -0.000792871)
(1.17957e-05 0 -0.000155414)
(0.00018375 0 0.000151171)
(0.000109273 0 0.000235396)
(0.00011703 0 0.000208011)
(7.54179e-05 0 0.000214369)
(5.91279e-05 0 0.000229983)
(-2.85612e-05 0 0.000176726)
(-0.000137623 0 0.000109229)
(-0.000154989 0 0.000128988)
(-0.00017178 0 9.77974e-05)
(-0.000184172 0 7.25361e-05)
(-0.000213952 0 8.10122e-05)
(-0.000238791 0 5.57596e-05)
(-0.000258392 0 1.03739e-05)
(-0.000270767 0 2.78952e-05)
(-0.000264268 0 -7.34562e-06)
(-0.000273346 0 -3.15928e-05)
(-0.000298606 0 -5.24198e-05)
(-0.000286982 0 -0.000128056)
(-0.000287622 0 -0.000169091)
(-0.000329791 0 -0.000201621)
(-0.000366413 0 -0.000309383)
(-0.000459553 0 -0.000400044)
(-0.000524292 0 -0.000541518)
(-0.000619521 0 -0.000615865)
(-0.000633624 0 -0.000692115)
(-0.000643166 0 -0.00070742)
(-0.000634848 0 -0.000688611)
(-0.000649061 0 -0.000508275)
(-0.000511719 0 -0.000466001)
(-0.000446397 0 -0.000376351)
(-0.000460949 0 -0.000241297)
(0.000508064 0 0.000496007)
(-0.0006825 0 0.000433621)
(4.6726e-06 0 0.000792613)
(-1.56249e-12 0 -1.45432e-12)
(-2.47253e-12 0 -7.71765e-13)
(-1.64503e-12 0 -6.25832e-13)
(-1.54209e-12 0 -6.07896e-13)
(-1.42493e-12 0 -6.32858e-13)
(-1.30458e-12 0 -6.76668e-13)
(-1.18209e-12 0 -7.30211e-13)
(-1.05482e-12 0 -7.88017e-13)
(-9.19861e-13 0 -8.45471e-13)
(-7.75426e-13 0 -8.98216e-13)
(-6.21239e-13 0 -9.42165e-13)
(-4.58493e-13 0 -9.737e-13)
(-2.89623e-13 0 -9.89907e-13)
(-1.17976e-13 0 -9.88774e-13)
(5.25597e-14 0 -9.69308e-13)
(2.17926e-13 0 -9.3156e-13)
(3.74223e-13 0 -8.76535e-13)
(5.17972e-13 0 -8.06039e-13)
(6.46297e-13 0 -7.22467e-13)
(7.57024e-13 0 -6.28579e-13)
(8.48716e-13 0 -5.2729e-13)
(9.2065e-13 0 -4.21484e-13)
(9.72737e-13 0 -3.13863e-13)
(1.00543e-12 0 -2.06843e-13)
(1.01962e-12 0 -1.02492e-13)
(1.0165e-12 0 -2.50118e-15)
(9.97476e-13 0 9.18144e-14)
(9.64079e-13 0 1.79489e-13)
(9.17872e-13 0 2.59868e-13)
(8.60406e-13 0 3.32561e-13)
(7.93172e-13 0 3.97391e-13)
(7.17578e-13 0 4.54343e-13)
(6.34928e-13 0 5.0352e-13)
(5.46422e-13 0 5.45096e-13)
(4.5316e-13 0 5.79286e-13)
(3.56144e-13 0 6.06311e-13)
(2.56297e-13 0 6.26377e-13)
(1.54476e-13 0 6.39653e-13)
(5.15879e-14 0 6.46261e-13)
(-6.2392e-05 0 -0.000141896)
(-7.27438e-05 0 5.8502e-06)
(-0.000399697 0 5.11736e-06)
(-0.000510735 0 4.62888e-05)
(-0.000539582 0 8.26954e-05)
(-0.000548311 0 0.000112732)
(-0.000520747 0 0.000144495)
(-0.000483813 0 0.000200677)
(-0.000456864 0 0.000264775)
(-0.000459728 0 0.000283108)
(-0.000497388 0 0.000351141)
(-0.000550826 0 0.000452525)
(-0.000600394 0 0.000597538)
(-0.00070456 0 0.000677372)
(-0.000775765 0 0.00072729)
(-0.000869494 0 0.00070708)
(-0.00095247 0 0.000671491)
(-0.00106116 0 0.000586608)
(-0.00110811 0 0.000568692)
(-0.00109119 0 0.000600601)
(-0.00109365 0 0.000504461)
(-0.00107793 0 0.000463869)
(-0.00106198 0 0.000459633)
(-0.0010806 0 0.000399488)
(-0.00113464 0 -0.000169122)
(-0.00102248 0 9.78261e-05)
(-0.000996553 0 7.23566e-05)
(-0.000994486 0 5.95082e-05)
(-0.00100689 0 4.24228e-05)
(-0.000972416 0 -1.30248e-05)
(-0.000949635 0 1.21321e-05)
(-0.000950772 0 3.07936e-05)
(-0.000960219 0 8.42249e-05)
(-0.000965433 0 9.92045e-05)
(-0.000944916 0 1.1096e-05)
(-0.00086623 0 -0.000120615)
(-0.000815812 0 -0.000208269)
(-0.000757022 0 -0.000365719)
(-0.000681996 0 -0.000520476)
(-0.000581456 0 -0.000625148)
(-0.000499228 0 -0.000665499)
(-0.000314528 0 -0.000802103)
(-0.000308028 0 -0.000796247)
(-0.000135718 0 -0.000823093)
(-0.000222336 0 -0.000802265)
(-0.000190027 0 -0.000812028)
(-0.000292021 0 -0.000602222)
(0.000231662 0 0.000133474)
(0.000253174 0 0.000219941)
(0.000255398 0 0.00027766)
(0.000238343 0 0.000262932)
(0.000185661 0 0.000273055)
(9.05615e-05 0 0.000236338)
(5.54368e-05 0 0.000209022)
(1.13757e-05 0 0.000220028)
(-4.99541e-05 0 0.000195379)
(-0.000104189 0 0.000168502)